FOO
141312
    1MOL0     O    1   2.481   4.483   6.130  0.7971 -0.2406  0.4629
    1MOL0     C    2   2.416   4.509   6.240  0.1194 -0.3350 -0.1232
    1MOL0     O    3   2.460   4.593   6.343 -1.0219 -0.1271 -0.0811
    1MOL0     C    4   2.581   4.649   6.331 -0.3891 -1.1201 -0.5066
    1MOL0     C    5   2.596   4.790   6.341  0.2543 -0.4834 -0.2061
    1MOL0     C    6   2.716   4.855   6.327 -0.0663 -0.0238  0.8177
    1MOL0     C    7   2.829   4.782   6.288  0.1388 -0.0709  0.9333
    1MOL0     O    8   2.943   4.847   6.276 -0.2351 -0.1189 -0.4274
    1MOL0     C    9   3.072   4.776   6.279 -0.6309  0.0065  0.4521
    1MOL0     C   10   3.171   4.885   6.284 -0.6487  0.1376 -0.2397
    1MOL0     C   11   3.309   4.836   6.332 -0.7531  0.1355  0.2763
    1MOL0     C   12   3.412   4.948   6.301  0.9044  0.4231  0.9943
    1MOL0     C   13   3.557   4.921   6.338  0.0292 -0.3980 -0.1857
    1MOL0     C   14   3.628   5.052   6.311 -0.5197  0.3818 -0.1893
    1MOL0     C   15   3.770   5.048   6.376 -0.0080  0.0247  0.0635
    1MOL0     C   16   3.862   5.143   6.310 -0.2806 -0.7943 -0.0900
    1MOL0     N   17   3.996   5.105   6.333 -0.3603  0.3649  0.0312
    1MOL0     C   18   4.071   5.008   6.258  0.6743 -0.5448  0.7795
    1MOL0     C   19   4.189   4.988   6.334 -0.4379 -0.6808 -0.1601
    1MOL0     C   20   4.308   4.896   6.317 -0.3093  0.1633  0.7866
    1MOL0     C   21   4.447   4.959   6.317  0.9746 -0.0902  0.6517
    1MOL0     C   22   4.488   4.997   6.461  1.0461  0.2791  0.0354
    1MOL0     C   23   4.630   5.062   6.464  0.1555  0.1128 -0.7559
    1MOL0     O   24   4.726   4.964   6.423  0.1070  0.5411 -0.6616
    1MOL0     C   25   4.856   4.988   6.455 -0.3763 -0.2657  0.4016
    1MOL0     C   26   4.930   4.884   6.515  1.1051 -0.7520 -0.5768
    1MOL0     C   27   5.064   4.909   6.540 -1.5543 -0.2472  0.6649
    1MOL0     C   28   5.126   4.799   6.626  0.3016  0.3959  0.1476
    1MOL0     C   29   5.133   5.019   6.477  0.0827 -0.3794 -0.3308
    1MOL0     C   30   5.277   5.038   6.507  0.2543  0.1166  0.0726
    1MOL0     O   31   5.333   5.162   6.476 -0.4831 -0.5735  0.5884
    1MOL0     C   32   5.466   5.182   6.513  0.6637 -0.7877  0.6316
    1MOL0     C   33   5.560   5.175   6.411  0.1555  0.6870 -0.6589
    1MOL0     C   34   5.695   5.196   6.444  0.0056  0.1155  0.2422
    1MOL0     C   35   5.729   5.246   6.568 -0.4415 -0.0491 -0.5334
    1MOL0     O   36   5.870   5.266   6.585  0.0711  0.5977  0.4536
    1MOL0     C   37   5.924   5.160   6.658  0.0050  0.2654  0.0210
    1MOL0     C   38   6.070   5.189   6.694 -0.5235  0.2264 -0.2721
    1MOL0     C   39   6.155   5.182   6.569  0.5767  0.0422 -0.2953
    1MOL0     C   40   6.298   5.204   6.592 -0.2379  0.2030  0.5548
    1MOL0     C   41   6.395   5.187   6.471  0.1943  0.2802 -0.2858
    1MOL0     C   42   6.522   5.247   6.486  0.1312  0.4737 -0.6979
    1MOL0     C   43   6.617   5.152   6.567 -0.4958 -0.9574 -0.1695
    1MOL0     C   44   6.765   5.196   6.555 -0.4084 -0.2289  0.0815
    1MOL0    Cl   45   6.836   5.144   6.406 -0.3693  0.4871 -0.1190
    1MOL0     C   46   5.631   5.271   6.667 -0.0463  0.4556 -0.2298
    1MOL0     C   47   5.495   5.238   6.642  0.2652  0.3973  0.4881
    1MOL0     O   48   5.332   4.951   6.570  0.2236  0.3845  0.4106
    1MOL0     C   49   5.056   5.115   6.412 -0.3776  0.2244  0.1621
    1MOL0     C   50   4.919   5.104   6.408  0.3416 -0.7789  0.3900
    1MOL0     N   51   4.183   5.065   6.445  0.0836  0.0952 -0.4643
    1MOL0     N   52   4.067   5.134   6.448 -0.5366  0.5476  0.0887
    1MOL0     C   53   2.819   4.640   6.296 -0.4227 -0.7074 -0.2467
    1MOL0     C   54   2.696   4.574   6.322  0.4265  0.2682 -0.3924
    1MOL0     C   55   2.282   4.452   6.262  0.0144  0.6647 -0.5367
    1MOL0     C   56   2.248   4.320   6.226 -0.0575  0.2260  1.1336
    1MOL0     C   57   2.128   4.266   6.268 -0.1998  0.6788  0.3347
    1MOL0     C   58   2.030   4.346   6.321 -0.2230 -0.1856 -0.3382
    1MOL0     O   59   1.907   4.307   6.362 -0.4059 -0.2192  0.4191
    1MOL0     C   60   1.869   4.175   6.329 -0.2124  0.8669 -0.3903
    1MOL0     C   61   1.724   4.177   6.343  0.2261 -0.2353  0.1752
    1MOL0     C   62   1.653   4.219   6.208  0.4844 -0.1700  0.1969
    1MOL0     C   63   1.506   4.260   6.216  0.1652 -0.4365 -1.0750
    1MOL0     C   64   1.437   4.301   6.091  0.4993 -0.1339  0.3969
    1MOL0     C   65   1.367   4.327   5.996 -0.2661 -0.1595  0.6946
    1MOL0     C   66   2.061   4.478   6.349  0.0596  0.9013 -0.3506
    1MOL0     C   67   2.183   4.534   6.321  0.5153  0.5245 -0.1224
    1MOL0     C   68   2.182   4.681   6.339  0.5978  0.3844 -0.1100
    1MOL0     H   69   2.510   4.855   6.348  0.2030 -0.3532 -1.6871
    1MOL0     H   70   2.733   4.961   6.312 -1.5086 -0.0228 -1.1447
    1MOL0     H   71   3.089   4.706   6.196  1.4951  1.2012 -0.1965
    1MOL0     H   72   3.080   4.716   6.370  2.1067 -0.2197  0.1451
    1MOL0     H   73   3.178   4.925   6.182  2.2422 -0.4756 -0.3473
    1MOL0     H   74   3.137   4.958   6.357 -2.2917 -1.5533  0.7950
    1MOL0     H   75   3.302   4.805   6.437 -1.7917  1.1438  0.5148
    1MOL0     H   76   3.331   4.739   6.287  0.2010  1.2970 -1.9093
    1MOL0     H   77   3.413   4.962   6.192  2.2090  2.2758  1.2028
    1MOL0     H   78   3.372   5.041   6.342 -0.9193  0.5594 -0.9495
    1MOL0     H   79   3.600   4.834   6.288 -0.7489 -0.2534 -1.1438
    1MOL0     H   80   3.558   4.898   6.445  1.7450  0.2718 -0.0338
    1MOL0     H   81   3.638   5.057   6.202 -1.8854 -2.7483 -0.5513
    1MOL0     H   82   3.568   5.130   6.360 -0.6433 -0.5406  1.1825
    1MOL0     H   83   3.825   4.953   6.370  0.4214  0.2283  0.6479
    1MOL0     H   84   3.759   5.067   6.483 -0.0920 -2.0321  0.4761
    1MOL0     H   85   3.839   5.146   6.203  0.4756 -1.5498 -0.2840
    1MOL0     H   86   3.847   5.242   6.353 -3.1984 -0.8004 -0.8828
    1MOL0     H   87   4.038   4.972   6.161  1.0104  0.6808  0.1925
    1MOL0     H   88   4.300   4.854   6.217 -0.1663  2.8539 -0.4607
    1MOL0     H   89   4.310   4.812   6.387  3.0860  0.2497  0.9421
    1MOL0     H   90   4.514   4.879   6.284 -2.3998 -2.4297 -1.0844
    1MOL0     H   91   4.462   5.044   6.249 -1.2957  1.6852  2.2069
    1MOL0     H   92   4.429   5.070   6.517  0.7786  0.3169 -0.2854
    1MOL0     H   93   4.493   4.909   6.526 -1.4192  1.5021  2.0191
    1MOL0     H   94   4.640   5.140   6.388  0.8053  0.0873 -0.7029
    1MOL0     H   95   4.648   5.112   6.560  0.8668 -0.7963 -0.4046
    1MOL0     H   96   4.893   4.783   6.533  0.6376 -0.4377  0.3087
    1MOL0     H   97   5.160   4.846   6.719 -0.6125  1.9129 -0.2550
    1MOL0     H   98   5.207   4.749   6.571 -0.7725 -1.7712  0.4438
    1MOL0     H   99   5.046   4.727   6.644 -1.5799  2.1620 -0.8136
    1MOL0     H  100   5.536   5.140   6.312 -0.8442  0.5346 -0.3736
    1MOL0     H  101   5.776   5.180   6.373 -1.0758 -0.1967 -0.9340
    1MOL0     H  102   5.874   5.138   6.753 -0.4423  0.2466 -0.2215
    1MOL0     H  103   5.927   5.070   6.596  4.1112  2.2721 -3.2059
    1MOL0     H  104   6.061   5.288   6.739 -0.8080 -0.1839  0.5944
    1MOL0     H  105   6.106   5.123   6.774 -0.8578  0.0484 -0.2665
    1MOL0     H  106   6.115   5.247   6.491 -1.9555  0.8352  1.5295
    1MOL0     H  107   6.155   5.079   6.532  2.7880 -1.2047  2.6805
    1MOL0     H  108   6.329   5.142   6.677 -0.5179  0.3188  0.7433
    1MOL0     H  109   6.311   5.309   6.618  1.5598 -0.4221  2.4755
    1MOL0     H  110   6.416   5.086   6.434  1.8020  1.0990 -1.7838
    1MOL0     H  111   6.340   5.232   6.388 -0.5949  2.2722  1.2312
    1MOL0     H  112   6.509   5.344   6.535  0.2156  0.1946 -0.1092
    1MOL0     H  113   6.568   5.275   6.390  4.2067 -0.5668  0.7368
    1MOL0     H  114   6.613   5.049   6.533 -1.2430 -1.0940  0.3233
    1MOL0     H  115   6.597   5.155   6.674  0.0489 -3.2263  0.0333
    1MOL0     H  116   6.821   5.150   6.636 -0.1515 -2.9107 -1.5138
    1MOL0     H  117   6.771   5.303   6.580 -0.1008 -0.4948  1.1913
    1MOL0     H  118   5.659   5.314   6.763  0.9664 -1.5923  0.4509
    1MOL0     H  119   5.427   5.264   6.723 -2.8777 -1.9598 -1.1901
    1MOL0     H  120   5.103   5.202   6.368 -0.9566  1.5478  2.0635
    1MOL0     H  121   4.862   5.182   6.359  0.7035  0.0395  1.2413
    1MOL0     H  122   2.913   4.586   6.305  0.8253  1.5300  1.1207
    1MOL0     H  123   2.676   4.468   6.336 -0.5913  0.3041 -1.4026
    1MOL0     H  124   2.325   4.261   6.177 -1.1363  0.3966 -0.8711
    1MOL0     H  125   2.107   4.161   6.254  2.4457  0.1652 -0.2970
    1MOL0     H  126   1.903   4.140   6.231  1.4750 -0.9790  0.8003
    1MOL0     H  127   1.913   4.103   6.397 -1.4711 -2.3673 -2.7448
    1MOL0     H  128   1.703   4.255   6.416  3.5653  0.0904  0.9715
    1MOL0     H  129   1.672   4.082   6.360 -1.6408  0.8324  0.6506
    1MOL0     H  130   1.708   4.308   6.177  1.2015 -0.5127  0.4509
    1MOL0     H  131   1.669   4.149   6.125  0.3290  1.7596 -1.5272
    1MOL0     H  132   1.496   4.334   6.296  1.1523 -1.0515 -0.3474
    1MOL0     H  133   1.453   4.170   6.250  0.5241 -0.5291 -0.7494
    1MOL0     H  134   1.306   4.369   5.918 -0.6629 -3.8099 -1.1758
    1MOL0     H  135   1.990   4.552   6.384 -0.8324 -0.4560  0.7713
    1MOL0     H  136   2.259   4.717   6.270  0.8250 -0.6646 -0.4276
    1MOL0     H  137   2.088   4.726   6.305  0.7209 -0.1105 -1.1491
    1MOL0     H  138   2.193   4.706   6.445 -0.5728 -0.6487  0.2878
    2MOL0     O  139   0.500   7.411   3.371 -0.8405 -0.4656  0.6090
    2MOL0     C  140   0.467   7.333   3.290  0.3559  0.4173  0.3109
    2MOL0     O  141   0.538   7.223   3.265 -0.1794 -0.0490  0.8540
    2MOL0     C  142   0.669   7.223   3.304  0.3665 -0.0467  0.2719
    2MOL0     C  143   0.706   7.219   3.440 -0.4228 -0.5915 -0.2322
    2MOL0     C  144   0.839   7.221   3.481 -0.3282 -0.3701 -0.3822
    2MOL0     C  145   0.946   7.209   3.389  0.4117 -0.2625  0.9433
    2MOL0     O  146   1.081   7.200   3.422  1.2949  0.0168 -0.1139
    2MOL0     C  147   1.170   7.295   3.362 -0.6153 -0.3607 -0.3194
    2MOL0     C  148   1.289   7.325   3.449 -0.2096 -0.3721  0.7477
    2MOL0     C  149   1.253   7.370   3.589 -0.2935  0.9457  0.4464
    2MOL0     C  150   1.163   7.497   3.597 -0.3775 -0.0563 -0.7190
    2MOL0     C  151   1.071   7.499   3.720  0.3879 -0.4563 -0.1647
    2MOL0     C  152   1.150   7.542   3.846  0.5356 -0.4463 -0.3857
    2MOL0     C  153   1.068   7.550   3.973 -0.0714 -0.5099 -0.2113
    2MOL0     C  154   1.170   7.579   4.097  0.8184  0.2440  0.0127
    2MOL0     N  155   1.290   7.499   4.107 -0.2512  0.2920 -0.0109
    2MOL0     C  156   1.411   7.543   4.065  0.0912 -0.4859 -0.5116
    2MOL0     C  157   1.502   7.456   4.107 -0.0628 -0.2032  0.7570
    2MOL0     C  158   1.651   7.468   4.083 -0.7424 -0.6242 -1.0933
    2MOL0     C  159   1.723   7.459   4.214 -0.0572  0.2592 -0.6375
    2MOL0     C  160   1.833   7.351   4.217  0.2436  0.3585  0.2546
    2MOL0     C  161   1.896   7.318   4.352  0.0545 -0.2829  0.0841
    2MOL0     O  162   1.986   7.206   4.329 -1.2218  0.2882  0.2068
    2MOL0     C  163   2.082   7.187   4.423 -0.3276 -0.2045 -0.9321
    2MOL0     C  164   2.212   7.154   4.379 -0.3650  0.2134 -0.4212
    2MOL0     C  165   2.317   7.145   4.471  0.0802 -0.6470 -0.5466
    2MOL0     C  166   2.458   7.128   4.416  0.2627  0.0782 -0.3155
    2MOL0     C  167   2.291   7.151   4.611  0.2779 -0.3724  0.2227
    2MOL0     C  168   2.393   7.104   4.703  0.0320  0.4150 -0.7127
    2MOL0     O  169   2.460   6.992   4.662  0.4270  0.4405  0.4248
    2MOL0     C  170   2.583   6.949   4.702  0.3169  1.0473  0.5019
    2MOL0     C  171   2.685   7.012   4.781  1.2444  0.6166  0.8443
    2MOL0     C  172   2.818   6.953   4.782  0.2466 -0.4499  0.9160
    2MOL0     C  173   2.845   6.833   4.727 -0.1557  0.2622 -0.7543
    2MOL0     O  174   2.971   6.777   4.731 -0.8113 -0.9836 -0.5021
    2MOL0     C  175   3.085   6.859   4.744 -0.9686 -1.1885 -0.7306
    2MOL0     C  176   3.207   6.787   4.677 -0.1461 -0.4776  1.0076
    2MOL0     C  177   3.266   6.682   4.772 -0.2184 -0.1681  0.4811
    2MOL0     C  178   3.393   6.608   4.722  0.6038 -0.0672  0.3345
    2MOL0     C  179   3.435   6.503   4.831  0.0990 -0.7970  0.4662
    2MOL0     C  180   3.347   6.377   4.837 -0.0033  0.2081 -0.0084
    2MOL0     C  181   3.405   6.264   4.919 -0.0792 -0.2609  0.6339
    2MOL0     C  182   3.334   6.131   4.922  0.4313  0.4515  0.5710
    2MOL0    Cl  183   3.412   6.031   5.046  0.1265 -0.1878  0.2643
    2MOL0     C  184   2.748   6.758   4.671 -0.1964  0.0623  0.7627
    2MOL0     C  185   2.622   6.819   4.653  0.1268  0.1150 -0.2343
    2MOL0     O  186   2.405   7.159   4.810  0.0767  0.0896 -0.8584
    2MOL0     C  187   2.164   7.181   4.663  0.3330  0.3876  0.7877
    2MOL0     C  188   2.061   7.198   4.567  0.6872 -0.6821 -0.0328
    2MOL0     N  189   1.442   7.345   4.167 -0.2675  0.1110 -0.4503
    2MOL0     N  190   1.314   7.374   4.163 -0.4193 -0.5620  0.1561
    2MOL0     C  191   0.907   7.213   3.253 -0.2714  0.3828 -0.3294
    2MOL0     C  192   0.776   7.215   3.211  0.1252  0.6926 -0.2371
    2MOL0     C  193   0.338   7.349   3.216 -0.7384 -1.1427 -0.2108
    2MOL0     C  194   0.301   7.254   3.119  0.3588  0.4922  0.0593
    2MOL0     C  195   0.193   7.267   3.033 -0.0999 -0.0471 -0.5542
    2MOL0     C  196   0.117   7.386   3.044 -0.2328  0.1616  0.0587
    2MOL0     O  197   0.009   7.397   2.968 -0.0916  0.2686  1.1181
    2MOL0     C  198  -0.082   7.512   2.971 -0.8867  0.0077 -0.2101
    2MOL0     C  199  -0.178   7.504   2.856 -0.8165 -0.1161 -0.0977
    2MOL0     C  200  -0.264   7.377   2.877 -1.0299  0.1775  0.9465
    2MOL0     C  201  -0.374   7.366   2.772  0.1889 -0.7093 -0.0331
    2MOL0     C  202  -0.478   7.462   2.804  0.3729  0.9510  1.0217
    2MOL0     C  203  -0.573   7.537   2.821  0.0602 -0.4341 -0.8225
    2MOL0     C  204   0.156   7.484   3.137 -0.1765  0.1780 -0.0803
    2MOL0     C  205   0.267   7.467   3.229  0.6976 -0.3589 -0.2556
    2MOL0     C  206   0.285   7.573   3.334  0.0044 -0.1050  0.4657
    2MOL0     H  207   0.632   7.231   3.518  1.7738  0.3006  1.8600
    2MOL0     H  208   0.863   7.222   3.587 -1.7579  0.2953 -0.0372
    2MOL0     H  209   1.109   7.384   3.344 -1.3408 -0.3044  2.0027
    2MOL0     H  210   1.203   7.258   3.265  3.2195 -0.7361  0.9831
    2MOL0     H  211   1.346   7.232   3.455  1.2524  0.1260 -2.8170
    2MOL0     H  212   1.347   7.401   3.394 -1.0633 -1.0050 -1.1042
    2MOL0     H  213   1.201   7.283   3.632  0.5452 -1.3068 -2.7354
    2MOL0     H  214   1.337   7.394   3.654 -0.1565  1.5453  0.0527
    2MOL0     H  215   1.222   7.589   3.600 -0.1717 -0.2132  0.6684
    2MOL0     H  216   1.090   7.520   3.519 -1.5448  3.9751  1.3432
    2MOL0     H  217   1.031   7.397   3.730  1.9324 -1.0518  0.2190
    2MOL0     H  218   0.987   7.568   3.707  1.3242  0.5412 -1.0793
    2MOL0     H  219   1.227   7.466   3.855  1.7767  1.0649  3.3550
    2MOL0     H  220   1.200   7.634   3.813 -1.4449  0.1798 -1.8942
    2MOL0     H  221   1.020   7.453   3.988 -0.5149 -0.2654 -0.0354
    2MOL0     H  222   0.990   7.624   3.957 -0.8334 -1.6240 -1.8291
    2MOL0     H  223   1.197   7.685   4.097 -1.9367  1.0471 -0.7432
    2MOL0     H  224   1.116   7.556   4.189  0.5422 -0.5729 -0.3486
    2MOL0     H  225   1.420   7.640   4.019 -1.1591  0.0285  0.2744
    2MOL0     H  226   1.672   7.565   4.036 -0.8506  0.8267  1.6418
    2MOL0     H  227   1.678   7.381   4.023  3.4418  0.0598 -0.4967
    2MOL0     H  228   1.767   7.558   4.225 -1.0135  0.6081  0.2620
    2MOL0     H  229   1.659   7.460   4.303  1.8640 -0.7890  0.8400
    2MOL0     H  230   1.791   7.257   4.180  1.0855 -0.0996  0.4373
    2MOL0     H  231   1.914   7.385   4.151  2.2387  1.3134  3.0198
    2MOL0     H  232   1.939   7.409   4.393 -1.4851  0.9304 -0.8783
    2MOL0     H  233   1.817   7.281   4.419 -0.2334  0.9827  0.4712
    2MOL0     H  234   2.235   7.170   4.274 -1.9215  0.5059 -0.7403
    2MOL0     H  235   2.529   7.160   4.493  0.6235 -0.7605 -0.2958
    2MOL0     H  236   2.464   7.200   4.334 -2.2324 -0.8432 -1.4298
    2MOL0     H  237   2.478   7.030   4.373  2.1002  0.3875 -0.2585
    2MOL0     H  238   2.664   7.105   4.833 -0.8036  1.0956 -0.6929
    2MOL0     H  239   2.889   7.007   4.843  0.2096 -1.9060  2.3013
    2MOL0     H  240   3.084   6.954   4.690  0.6981 -0.7220 -0.0071
    2MOL0     H  241   3.103   6.886   4.848 -2.0042 -1.0322 -0.5750
    2MOL0     H  242   3.176   6.745   4.581  0.2217  0.1225  0.6222
    2MOL0     H  243   3.284   6.863   4.659 -0.7654  0.9261  3.7150
    2MOL0     H  244   3.190   6.605   4.786  0.8212 -1.4097 -0.4923
    2MOL0     H  245   3.284   6.721   4.872  1.9645 -1.4525  0.6387
    2MOL0     H  246   3.471   6.684   4.715  0.7942 -0.3050 -0.1384
    2MOL0     H  247   3.361   6.562   4.628  0.1686  0.5906  0.1583
    2MOL0     H  248   3.540   6.486   4.807  0.6816  2.5966  0.1161
    2MOL0     H  249   3.435   6.543   4.933 -1.4601 -2.0201  0.9909
    2MOL0     H  250   3.324   6.338   4.737 -0.6969 -0.4422  0.3918
    2MOL0     H  251   3.246   6.403   4.871 -0.1984  0.2334 -0.5990
    2MOL0     H  252   3.406   6.310   5.018  0.1671  2.7430 -0.6519
    2MOL0     H  253   3.510   6.247   4.893  0.1642  0.0661  1.3852
    2MOL0     H  254   3.347   6.079   4.827 -0.4837 -0.3367  0.8573
    2MOL0     H  255   3.229   6.150   4.948  0.2909  0.1227  0.2568
    2MOL0     H  256   2.762   6.660   4.627 -1.9316  0.2722 -0.3514
    2MOL0     H  257   2.562   6.767   4.579  0.0645  2.6858 -2.1204
    2MOL0     H  258   2.145   7.171   4.769 -1.0293  2.3049  0.7728
    2MOL0     H  259   1.959   7.206   4.604  0.5663  1.4674 -0.6875
    2MOL0     H  260   0.980   7.193   3.175 -0.9260 -1.7856 -0.4345
    2MOL0     H  261   0.765   7.195   3.105  0.8998  2.3376 -0.6579
    2MOL0     H  262   0.358   7.162   3.105  1.0539  0.8349  0.6034
    2MOL0     H  263   0.159   7.182   2.975 -2.6905 -0.2540  1.0917
    2MOL0     H  264  -0.130   7.502   3.069  0.9778  1.1175  0.8675
    2MOL0     H  265  -0.019   7.600   2.956  0.9169 -1.4590 -1.7617
    2MOL0     H  266  -0.131   7.511   2.758 -0.7891 -3.3281 -0.4070
    2MOL0     H  267  -0.241   7.592   2.875 -0.7292  0.0305 -0.4702
    2MOL0     H  268  -0.204   7.285   2.879 -5.8799 -3.4194  0.3748
    2MOL0     H  269  -0.320   7.374   2.971 -1.3447 -0.7049  0.7450
    2MOL0     H  270  -0.409   7.262   2.778 -2.5682  0.2188  1.5858
    2MOL0     H  271  -0.345   7.386   2.668 -0.2463  2.1357  0.3141
    2MOL0     H  272  -0.659   7.600   2.813  0.3936  0.3202  1.1086
    2MOL0     H  273   0.098   7.575   3.147  0.1735  0.6003 -1.7061
    2MOL0     H  274   0.362   7.647   3.310  0.6633 -0.8313  0.3368
    2MOL0     H  275   0.195   7.637   3.332 -0.8724 -1.3251 -0.7809
    2MOL0     H  276   0.306   7.534   3.434  1.8884 -1.2174 -0.3165
    3MOL0     O  277   1.040   3.730   5.090 -1.1515  0.4618 -0.5780
    3MOL0     C  278   0.993   3.832   5.060 -0.2609  0.3945 -0.5254
    3MOL0     O  279   1.054   3.956   5.092  0.0547  0.7491 -0.3125
    3MOL0     C  280   1.164   3.950   5.177  1.2037  0.4243  0.8039
    3MOL0     C  281   1.291   3.957   5.119  0.5186 -0.1558  0.7211
    3MOL0     C  282   1.402   3.924   5.196  0.1740 -0.2768 -0.0384
    3MOL0     C  283   1.389   3.914   5.345 -0.2179  0.3574 -0.1064
    3MOL0     O  284   1.502   3.893   5.423  0.4791  0.1872 -0.1423
    3MOL0     C  285   1.506   3.897   5.568 -0.4112 -0.1845  0.4893
    3MOL0     C  286   1.656   3.883   5.599  0.3754  0.3284 -0.1974
    3MOL0     C  287   1.694   3.930   5.740  0.5036 -0.2253  0.0464
    3MOL0     C  288   1.839   3.884   5.763 -0.4246  0.1052  0.8136
    3MOL0     C  289   1.887   3.896   5.915  0.1879 -0.2017  0.5701
    3MOL0     C  290   2.033   3.833   5.926 -0.0988  0.0286  0.1433
    3MOL0     C  291   2.107   3.889   6.045 -0.1537 -0.0239  0.0211
    3MOL0     C  292   2.241   3.808   6.069  0.2797 -0.4840  1.2052
    3MOL0     N  293   2.322   3.853   6.177  0.2237  0.2817  0.3894
    3MOL0     C  294   2.456   3.827   6.186 -0.1535 -0.0158  0.2693
    3MOL0     C  295   2.502   3.907   6.281 -0.4291 -0.6117 -0.1779
    3MOL0     C  296   2.634   3.894   6.352 -1.1368 -0.4625  1.3798
    3MOL0     C  297   2.742   3.984   6.291  0.1969 -0.3921  0.5036
    3MOL0     C  298   2.701   4.130   6.278 -0.3649 -0.7771 -1.0112
    3MOL0     C  299   2.791   4.210   6.198 -0.1131 -0.0629 -0.9453
    3MOL0     O  300   2.924   4.216   6.266 -0.4364  0.6429 -0.3034
    3MOL0     C  301   3.031   4.287   6.208  1.7885  0.7702 -0.6327
    3MOL0     C  302   3.015   4.366   6.102 -1.2043  0.2518  0.2877
    3MOL0     C  303   3.117   4.433   6.035  0.2279 -0.8466  0.1960
    3MOL0     C  304   3.085   4.494   5.900  0.0081  0.5054 -0.2998
    3MOL0     C  305   3.253   4.431   6.095  0.0320  0.4057 -0.1959
    3MOL0     C  306   3.357   4.515   6.052  0.2256 -0.1265 -0.4269
    3MOL0     O  307   3.476   4.451   6.011 -0.7665  0.2127  0.0899
    3MOL0     C  308   3.581   4.527   5.988 -1.4484 -0.3826 -1.4703
    3MOL0     C  309   3.649   4.609   6.074  0.3724 -0.4201 -0.6209
    3MOL0     C  310   3.760   4.685   6.035 -0.6215  0.3376 -0.8127
    3MOL0     C  311   3.802   4.686   5.899 -0.4022  0.6925 -0.1279
    3MOL0     O  312   3.906   4.763   5.855  0.5465  0.7310  0.4645
    3MOL0     C  313   4.032   4.737   5.910 -0.0565 -0.3212 -0.5475
    3MOL0     C  314   4.136   4.847   5.882  0.5010  0.2076 -0.4763
    3MOL0     C  315   4.279   4.799   5.924  0.6796 -0.6083 -0.5551
    3MOL0     C  316   4.395   4.894   5.892  0.1049  0.1688  0.4457
    3MOL0     C  317   4.521   4.851   5.960 -0.6791  0.2516 -0.4872
    3MOL0     C  318   4.621   4.971   5.951 -0.3926  0.2251  0.4190
    3MOL0     C  319   4.745   4.943   6.026 -0.5792  0.3786  0.0212
    3MOL0     C  320   4.843   5.056   6.017 -0.1769  0.2530 -0.0810
    3MOL0    Cl  321   5.003   4.998   6.079  0.1681 -0.2818  0.2335
    3MOL0     C  322   3.719   4.617   5.809 -0.1436  0.1586  0.1439
    3MOL0     C  323   3.611   4.542   5.853 -0.0762  0.3562  0.0127
    3MOL0     O  324   3.335   4.632   6.057 -0.3298 -0.3189 -0.2273
    3MOL0     C  325   3.270   4.347   6.209  0.3605  0.4376  0.0650
    3MOL0     C  326   3.159   4.271   6.265  0.4990  0.4237  0.2572
    3MOL0     N  327   2.396   3.994   6.316  0.1510  0.3756 -0.5325
    3MOL0     N  328   2.287   3.961   6.257 -1.0122 -0.5152  0.2908
    3MOL0     C  329   1.259   3.918   5.404  0.8491  0.7587 -0.4076
    3MOL0     C  330   1.148   3.936   5.318 -0.4346 -0.1392 -0.8107
    3MOL0     C  331   0.869   3.833   4.999 -0.2811 -0.7229  0.4384
    3MOL0     C  332   0.767   3.910   5.060 -0.4056 -0.6621  0.1342
    3MOL0     C  333   0.638   3.911   5.010 -0.3421 -0.8686  1.2311
    3MOL0     C  334   0.601   3.833   4.895  0.0709 -0.1552 -0.4177
    3MOL0     O  335   0.475   3.837   4.842 -0.2289  0.1086 -0.1671
    3MOL0     C  336   0.374   3.913   4.901  0.2757 -0.3476  0.0704
    3MOL0     C  337   0.247   3.889   4.821  0.2781  1.0860  0.8675
    3MOL0     C  338   0.260   3.918   4.677  1.1953 -0.5950 -0.2029
    3MOL0     C  339   0.131   3.971   4.617 -0.0183  0.4953  0.0138
    3MOL0     C  340   0.083   4.094   4.668  1.1425 -0.0143  1.2571
    3MOL0     C  341   0.047   4.200   4.706 -0.5364 -0.3309 -0.3774
    3MOL0     C  342   0.696   3.757   4.841 -0.3320 -0.0364 -0.2322
    3MOL0     C  343   0.833   3.749   4.895  0.0874 -0.2899 -0.5431
    3MOL0     C  344   0.926   3.652   4.825 -0.4803  1.3881 -0.6697
    3MOL0     H  345   1.295   3.969   5.011  1.7075 -0.6377  0.6902
    3MOL0     H  346   1.493   3.911   5.138 -1.2765 -2.9440 -1.9525
    3MOL0     H  347   1.447   3.816   5.613 -0.9570  0.3261  0.7004
    3MOL0     H  348   1.472   3.991   5.611  1.4436  0.0653  1.5420
    3MOL0     H  349   1.668   3.775   5.585 -3.0170 -0.2466  0.3596
    3MOL0     H  350   1.710   3.948   5.530  0.8207  1.5734  1.2668
    3MOL0     H  351   1.677   4.038   5.743  0.1274 -0.0675 -3.3359
    3MOL0     H  352   1.631   3.875   5.810  0.7727 -0.9263 -0.2521
    3MOL0     H  353   1.850   3.776   5.745  3.0488  0.0555  2.4233
    3MOL0     H  354   1.907   3.935   5.694 -2.9360  0.2078 -1.7585
    3MOL0     H  355   1.822   3.837   5.981  0.7942  0.1054  1.4584
    3MOL0     H  356   1.876   4.001   5.943 -2.5495  0.2761 -1.8274
    3MOL0     H  357   2.015   3.726   5.941 -1.2010  0.4578  2.3341
    3MOL0     H  358   2.088   3.861   5.836 -1.0255 -0.8555 -0.7302
    3MOL0     H  359   2.044   3.879   6.134  2.5797 -0.6550  2.0227
    3MOL0     H  360   2.128   3.995   6.023 -2.2597  0.0203 -2.1913
    3MOL0     H  361   2.204   3.707   6.087 -2.5188  0.0285 -1.0076
    3MOL0     H  362   2.295   3.804   5.974  1.2160  0.4479  1.6761
    3MOL0     H  363   2.509   3.749   6.131  4.4130  1.5134  1.9593
    3MOL0     H  364   2.661   3.788   6.351 -2.1226 -0.9053 -3.4337
    3MOL0     H  365   2.625   3.926   6.456 -1.2410  0.1274  1.1941
    3MOL0     H  366   2.827   3.968   6.358  0.0505  0.8730  1.0127
    3MOL0     H  367   2.767   3.947   6.191 -2.5671 -0.1260 -0.3714
    3MOL0     H  368   2.603   4.145   6.230  0.4844 -0.6633 -2.8018
    3MOL0     H  369   2.690   4.171   6.378 -2.8184 -1.6325 -0.8519
    3MOL0     H  370   2.797   4.161   6.101 -0.3496 -0.6735 -0.6535
    3MOL0     H  371   2.755   4.313   6.182 -0.5137  0.3008  1.7934
    3MOL0     H  372   2.914   4.375   6.064 -0.8905  0.9732 -0.4157
    3MOL0     H  373   3.144   4.584   5.880  1.7361 -0.7105 -0.9882
    3MOL0     H  374   2.978   4.500   5.882 -0.0914 -3.2324 -1.8302
    3MOL0     H  375   3.117   4.429   5.818 -0.9604 -0.3806 -0.0002
    3MOL0     H  376   3.605   4.612   6.173 -0.1292  3.1746 -0.8117
    3MOL0     H  377   3.811   4.753   6.103 -2.2343 -0.8009  1.6735
    3MOL0     H  378   4.022   4.718   6.018 -1.3109  2.6556 -0.0520
    3MOL0     H  379   4.066   4.655   5.846 -0.3099  1.3629 -2.9608
    3MOL0     H  380   4.131   4.869   5.775  0.6235 -0.5703 -0.6477
    3MOL0     H  381   4.101   4.934   5.938 -4.3007 -0.9413 -1.2102
    3MOL0     H  382   4.299   4.712   5.861  1.2751 -0.6734 -0.2753
    3MOL0     H  383   4.283   4.768   6.028  2.5102 -0.7836 -0.6505
    3MOL0     H  384   4.356   4.992   5.920  1.5920  0.6693  0.9126
    3MOL0     H  385   4.406   4.897   5.783 -1.5802 -4.3131 -0.0582
    3MOL0     H  386   4.497   4.830   6.065 -3.1106  4.9581  0.2061
    3MOL0     H  387   4.553   4.761   5.906 -0.6518  0.2295 -0.4332
    3MOL0     H  388   4.570   5.060   5.988  3.0344  2.0572  1.0979
    3MOL0     H  389   4.644   4.996   5.847 -0.4967 -2.4304 -0.3196
    3MOL0     H  390   4.799   4.857   5.984 -0.1918  0.3931  0.4860
    3MOL0     H  391   4.714   4.925   6.129 -1.3911  1.2173 -0.0669
    3MOL0     H  392   4.808   5.137   6.081  1.5616  0.6077  0.4798
    3MOL0     H  393   4.861   5.088   5.914 -2.4514 -1.0660 -0.9592
    3MOL0     H  394   3.745   4.616   5.704 -1.7891 -3.4483 -0.3876
    3MOL0     H  395   3.553   4.494   5.775 -0.1155  0.7792 -0.2239
    3MOL0     H  396   3.366   4.339   6.260  2.2023  0.2107 -3.1358
    3MOL0     H  397   3.190   4.206   6.346  2.7385  0.0578 -0.8074
    3MOL0     H  398   1.249   3.920   5.512 -0.7441  1.6842 -0.5354
    3MOL0     H  399   1.051   3.939   5.367  0.1427  0.3689  0.3282
    3MOL0     H  400   0.781   3.980   5.142 -0.2545  0.0459 -0.4860
    3MOL0     H  401   0.563   3.978   5.053 -0.7543 -1.4046  1.3528
    3MOL0     H  402   0.358   3.878   5.003 -1.4744  2.4253  0.8500
    3MOL0     H  403   0.405   4.018   4.906 -0.7243 -0.0566  0.3412
    3MOL0     H  404   0.167   3.951   4.862  0.4092 -0.0120  2.9552
    3MOL0     H  405   0.216   3.784   4.833  0.9022  1.0052  1.8322
    3MOL0     H  406   0.336   3.991   4.651 -2.4622  2.8734 -2.3576
    3MOL0     H  407   0.289   3.827   4.624  0.5307 -0.0302 -1.5653
    3MOL0     H  408   0.049   3.904   4.645  2.0627 -2.3950 -0.3659
    3MOL0     H  409   0.139   3.972   4.508  1.6766 -1.0144  0.0747
    3MOL0     H  410   0.012   4.299   4.729 -2.0453 -0.7990 -0.5362
    3MOL0     H  411   0.662   3.686   4.766 -3.5274  1.9235 -0.8018
    3MOL0     H  412   1.031   3.679   4.833  0.0401 -0.5649 -0.5035
    3MOL0     H  413   0.923   3.547   4.858  1.4060  1.3309 -0.5719
    3MOL0     H  414   0.895   3.643   4.720 -0.1848 -2.9803 -0.5844
    4MOL0     O  415   6.695   5.454   1.915 -0.5074 -0.5543 -0.4276
    4MOL0     C  416   6.713   5.334   1.913  0.3486  0.7546  0.5199
    4MOL0     O  417   6.800   5.271   1.828  0.1946  0.0417  0.6236
    4MOL0     C  418   6.858   5.349   1.731 -0.4305  0.5775  0.5773
    4MOL0     C  419   6.985   5.418   1.747  1.1167 -0.3807 -1.0592
    4MOL0     C  420   7.034   5.479   1.633  0.1067 -0.6081  0.3654
    4MOL0     C  421   6.968   5.481   1.511 -0.0045  0.2327  0.5881
    4MOL0     O  422   7.039   5.537   1.410  0.0349  0.0497 -0.2666
    4MOL0     C  423   6.981   5.546   1.279 -0.5132 -0.0671 -0.1996
    4MOL0     C  424   7.085   5.627   1.195 -0.0809  0.3534 -0.4619
    4MOL0     C  425   7.211   5.555   1.194  0.2409  0.0975  0.3667
    4MOL0     C  426   7.316   5.605   1.093  0.1443 -0.5885 -0.2403
    4MOL0     C  427   7.402   5.712   1.161 -0.3110  0.4978  0.4940
    4MOL0     C  428   7.524   5.739   1.078  0.0985 -0.0523  0.0886
    4MOL0     C  429   7.629   5.840   1.143  0.5755 -0.3254  0.4992
    4MOL0     C  430   7.691   5.910   1.023  0.4140 -0.6010 -0.0119
    4MOL0     N  431   7.805   5.979   1.059  0.1641 -0.4897  0.1844
    4MOL0     C  432   7.883   6.042   0.968  0.2735  0.0053 -0.7962
    4MOL0     C  433   8.000   6.064   1.034  0.1880  0.9571 -0.4225
    4MOL0     C  434   8.119   6.141   0.995 -0.7387 -0.0279  0.4308
    4MOL0     C  435   8.242   6.065   1.045 -0.5065 -0.0355 -0.1125
    4MOL0     C  436   8.356   6.067   0.950  0.1272 -0.2646 -0.3388
    4MOL0     C  437   8.467   5.963   0.989  0.2512  0.1789 -0.1299
    4MOL0     O  438   8.562   5.964   0.884 -0.2103  0.4813 -0.1621
    4MOL0     C  439   8.692   5.925   0.897  0.0242  0.7126  0.5165
    4MOL0     C  440   8.765   5.928   0.784 -0.3349  0.2094  0.3735
    4MOL0     C  441   8.892   5.887   0.777 -0.8793  1.0378  0.5022
    4MOL0     C  442   8.969   5.905   0.646 -0.3885  0.4327  0.6291
    4MOL0     C  443   8.948   5.825   0.892  0.4322  0.2919  0.2480
    4MOL0     C  444   9.076   5.748   0.887  0.2389 -0.9764 -1.0514
    4MOL0     O  445   9.084   5.641   0.794  1.2320  0.4064 -0.0495
    4MOL0     C  446   9.192   5.548   0.803  0.4016 -0.2743 -0.6250
    4MOL0     C  447   9.273   5.517   0.695 -0.4843 -0.6205  0.9485
    4MOL0     C  448   9.390   5.437   0.701  0.0250 -0.3210  0.2115
    4MOL0     C  449   9.417   5.384   0.825 -0.4040  0.3419 -0.1649
    4MOL0     O  450   9.525   5.295   0.825 -0.1841 -0.1342 -0.1175
    4MOL0     C  451   9.582   5.258   0.958 -0.8439  0.2373  0.4407
    4MOL0     C  452   9.722   5.183   0.944 -0.5578  0.4256 -0.4391
    4MOL0     C  453   9.842   5.271   1.011 -0.7750 -0.2441 -0.0949
    4MOL0     C  454   9.979   5.202   0.985  0.0057 -0.1004 -1.1588
    4MOL0     C  455  10.101   5.274   1.034 -0.2414 -0.1245 -0.6193
    4MOL0     C  456  10.236   5.195   0.991  0.1110 -0.8262  0.1289
    4MOL0     C  457  10.348   5.278   1.051  0.7296 -0.2783  0.5679
    4MOL0     C  458  10.474   5.223   0.995 -0.2653  0.3185 -0.2339
    4MOL0    Cl  459  10.477   5.221   0.816  0.0066  0.3270  0.2267
    4MOL0     C  460   9.330   5.405   0.934  0.4318 -0.3083  1.0959
    4MOL0     C  461   9.212   5.484   0.925  0.7099 -0.5335  0.9850
    4MOL0     O  462   9.160   5.779   0.965 -0.0457 -0.5391  0.2835
    4MOL0     C  463   8.876   5.842   1.010 -0.9112 -0.2537 -0.5994
    4MOL0     C  464   8.746   5.891   1.013  0.2415  0.4084 -0.5236
    4MOL0     N  465   7.987   6.019   1.164 -0.5565 -0.1091  0.3342
    4MOL0     N  466   7.866   5.965   1.183  0.6116  0.2918 -0.5396
    4MOL0     C  467   6.855   5.406   1.497  0.0113 -0.0820 -0.4426
    4MOL0     C  468   6.792   5.355   1.606  0.3757  0.7488 -1.1262
    4MOL0     C  469   6.639   5.238   2.002  0.1482 -0.9829  0.1935
    4MOL0     C  470   6.696   5.106   2.013 -0.2795 -0.6905 -0.3123
    4MOL0     C  471   6.625   5.009   2.082 -0.0795  0.2179  1.1688
    4MOL0     C  472   6.514   5.048   2.160 -0.0007  0.5380  0.7127
    4MOL0     O  473   6.476   4.940   2.240 -0.0735  0.8999  0.2291
    4MOL0     C  474   6.360   4.956   2.324 -0.3135  0.3035 -0.7091
    4MOL0     C  475   6.405   4.980   2.470  0.4527 -0.9872 -0.2709
    4MOL0     C  476   6.470   4.849   2.538  0.0233 -0.2446 -0.5122
    4MOL0     C  477   6.367   4.733   2.572 -0.6536  0.1512 -0.6041
    4MOL0     C  478   6.238   4.777   2.623 -0.5662  0.6006  0.1160
    4MOL0     C  479   6.136   4.815   2.671 -0.9845 -0.3356 -0.1452
    4MOL0     C  480   6.465   5.179   2.144  0.1741 -0.2499  0.8463
    4MOL0     C  481   6.520   5.272   2.059  0.2710 -0.3234 -0.5346
    4MOL0     C  482   6.443   5.401   2.035 -0.0990 -0.0481  0.7479
    4MOL0     H  483   7.024   5.422   1.848 -1.3785 -0.6443  0.0027
    4MOL0     H  484   7.130   5.529   1.641  0.5386 -1.4186  0.3178
    4MOL0     H  485   6.886   5.601   1.273 -2.4073 -3.1165  0.0239
    4MOL0     H  486   6.953   5.448   1.239 -2.9912 -0.3877  2.0470
    4MOL0     H  487   7.045   5.626   1.093 -1.7758 -1.6310  0.1518
    4MOL0     H  488   7.097   5.728   1.235  0.9569  0.9637 -2.2234
    4MOL0     H  489   7.266   5.558   1.289  2.8749 -1.2710 -1.0027
    4MOL0     H  490   7.186   5.452   1.168 -0.0885  0.5145 -1.0182
    4MOL0     H  491   7.374   5.514   1.073  0.0785 -1.5114  3.1177
    4MOL0     H  492   7.277   5.636   0.996  4.0261 -3.7120 -3.1468
    4MOL0     H  493   7.429   5.681   1.262  0.3311 -0.0569  0.1567
    4MOL0     H  494   7.354   5.810   1.163  1.3779  1.3702  0.0761
    4MOL0     H  495   7.584   5.647   1.076 -1.1001 -0.8503 -0.8395
    4MOL0     H  496   7.496   5.778   0.980  3.5298  3.1645  0.1686
    4MOL0     H  497   7.702   5.777   1.196 -0.4893 -2.2810 -0.2648
    4MOL0     H  498   7.585   5.911   1.214  1.3267 -1.2300  1.9345
    4MOL0     H  499   7.704   5.845   0.936  1.1065  1.4327 -1.5016
    4MOL0     H  500   7.613   5.980   0.993  2.6027  3.6040  3.0059
    4MOL0     H  501   7.859   6.054   0.863  0.0602  0.3023 -0.7151
    4MOL0     H  502   8.128   6.239   1.041 -2.4463  0.4440 -0.1484
    4MOL0     H  503   8.122   6.168   0.889 -0.2947  0.0300  0.4553
    4MOL0     H  504   8.269   6.108   1.142 -1.2086  0.6950 -0.2269
    4MOL0     H  505   8.232   5.956   1.054  1.7500 -0.3623 -0.9959
    4MOL0     H  506   8.322   6.053   0.847  1.4696  0.6423 -0.9373
    4MOL0     H  507   8.404   6.165   0.958 -0.6456  0.0780  0.1449
    4MOL0     H  508   8.513   5.986   1.085  0.4917 -1.3137  0.1469
    4MOL0     H  509   8.429   5.860   0.987  0.7462 -0.0453 -3.0491
    4MOL0     H  510   8.714   5.961   0.694 -1.4380 -0.8270  0.6012
    4MOL0     H  511   8.961   5.809   0.595  0.9351 -0.0370  1.2516
    4MOL0     H  512   9.076   5.921   0.658 -0.6457  3.7410 -0.2812
    4MOL0     H  513   8.929   5.989   0.588 -0.0923  0.4140  0.3991
    4MOL0     H  514   9.253   5.568   0.601 -0.7548  0.5077  1.5900
    4MOL0     H  515   9.444   5.421   0.608 -1.1237  0.7815 -0.6733
    4MOL0     H  516   9.585   5.353   1.011 -0.2167  1.1862 -1.2164
    4MOL0     H  517   9.512   5.196   1.016 -0.9443  2.0104  2.3197
    4MOL0     H  518   9.722   5.090   1.002  1.1195  0.7754  0.1651
    4MOL0     H  519   9.745   5.180   0.837 -0.1350  1.6055 -0.3928
    4MOL0     H  520   9.816   5.275   1.118 -0.6896 -1.1591 -0.0313
    4MOL0     H  521   9.849   5.371   0.968  3.3536 -0.3913 -0.0975
    4MOL0     H  522   9.974   5.174   0.880 -1.4639 -1.2133 -0.8370
    4MOL0     H  523   9.979   5.103   1.032 -0.2033 -0.3568 -1.6944
    4MOL0     H  524  10.093   5.365   0.973  1.4386 -0.7359 -1.8244
    4MOL0     H  525  10.088   5.301   1.139  0.0702 -0.0009 -0.6108
    4MOL0     H  526  10.229   5.196   0.882  0.9055  0.8399  0.0603
    4MOL0     H  527  10.246   5.093   1.028  2.1043 -0.7685 -0.1701
    4MOL0     H  528  10.353   5.271   1.160  1.3402 -0.9980  0.5004
    4MOL0     H  529  10.346   5.380   1.011  1.2380 -0.9353 -1.2425
    4MOL0     H  530  10.488   5.121   1.035 -2.2239  0.0519 -0.1414
    4MOL0     H  531  10.556   5.291   1.022 -0.6653  0.4573  0.6563
    4MOL0     H  532   9.350   5.346   1.023 -0.6136 -0.2249  1.4020
    4MOL0     H  533   9.158   5.514   1.014 -1.1148 -1.3835  0.2220
    4MOL0     H  534   8.932   5.824   1.101 -0.1831  0.8022 -0.8240
    4MOL0     H  535   8.693   5.898   1.108  2.2083  0.9518  0.6146
    4MOL0     H  536   6.805   5.393   1.402  0.5603  0.8215 -0.8739
    4MOL0     H  537   6.697   5.307   1.582  0.6839 -0.2276 -0.4753
    4MOL0     H  538   6.787   5.084   1.958  0.8662 -0.6204  1.4997
    4MOL0     H  539   6.671   4.912   2.097 -1.4594 -0.2545  2.6558
    4MOL0     H  540   6.305   5.043   2.286  3.0606  2.0007 -2.1396
    4MOL0     H  541   6.310   4.861   2.307 -1.1018  0.8625 -1.6116
    4MOL0     H  542   6.323   5.018   2.531  2.4913  1.5116  1.0647
    4MOL0     H  543   6.480   5.059   2.472 -2.2954  1.8054 -0.1133
    4MOL0     H  544   6.547   4.817   2.467  2.3376  1.3792  1.1426
    4MOL0     H  545   6.520   4.879   2.630  0.6458  0.8698 -1.2015
    4MOL0     H  546   6.423   4.668   2.640 -0.3000  1.7306  0.6896
    4MOL0     H  547   6.353   4.688   2.474  2.7652 -1.0818 -0.6672
    4MOL0     H  548   6.039   4.843   2.707 -0.1990  3.7907 -0.8447
    4MOL0     H  549   6.370   5.219   2.177  0.4817  2.8084 -1.4788
    4MOL0     H  550   6.482   5.477   2.103  2.9212 -1.7198  1.0357
    4MOL0     H  551   6.462   5.446   1.938 -3.2463  1.0498  0.5127
    4MOL0     H  552   6.335   5.388   2.050  0.0785  0.4115  2.7343
    5MOL0     O  553  11.266   8.323  10.292  0.0214 -0.0116  0.4895
    5MOL0     C  554  11.227   8.309  10.408 -0.5751 -0.5100  0.1988
    5MOL0     O  555  11.302   8.267  10.515  0.1471 -0.2763  0.3665
    5MOL0     C  556  11.437   8.253  10.498 -0.0986 -0.6034 -0.1035
    5MOL0     C  557  11.494   8.129  10.529 -0.4830  0.3832  0.2808
    5MOL0     C  558  11.631   8.100  10.493  0.5513  0.1806  0.2675
    5MOL0     C  559  11.715   8.205  10.442  0.3037  0.1427  0.9298
    5MOL0     O  560  11.853   8.174  10.427 -0.1229  0.1686  0.3764
    5MOL0     C  561  11.909   8.241  10.308  0.6562 -0.1052 -0.1106
    5MOL0     C  562  12.053   8.192  10.292 -0.6481  0.2043  1.0087
    5MOL0     C  563  12.115   8.277  10.185 -0.4806 -0.8749  0.0833
    5MOL0     C  564  12.264   8.232  10.167 -0.1561  0.9528 -0.3903
    5MOL0     C  565  12.334   8.312  10.063  0.1155  0.1046 -0.3491
    5MOL0     C  566  12.466   8.248  10.013 -0.4082 -0.3704 -0.1161
    5MOL0     C  567  12.580   8.242  10.127  0.9229 -0.3205  0.1488
    5MOL0     C  568  12.718   8.205  10.075  0.3009 -0.3638 -0.0192
    5MOL0     N  569  12.812   8.206  10.195 -0.2134 -0.6737 -0.0031
    5MOL0     C  570  12.886   8.307  10.252 -0.1713  0.7523  0.6638
    5MOL0     C  571  12.969   8.252  10.336 -0.1198 -0.3177 -0.4214
    5MOL0     C  572  13.084   8.316  10.410 -0.1041 -0.0435  0.5924
    5MOL0     C  573  13.214   8.320  10.323  0.1456  0.6762 -0.0207
    5MOL0     C  574  13.275   8.176  10.295  0.3681  0.2515  0.1588
    5MOL0     C  575  13.225   8.130  10.153  0.0443  0.7460 -0.1027
    5MOL0     O  576  13.282   7.999  10.112  0.0045 -0.3372 -0.2100
    5MOL0     C  577  13.403   8.002  10.053  0.1896  0.0784 -0.2591
    5MOL0     C  578  13.446   7.878  10.017  0.5243  0.1155  0.2827
    5MOL0     C  579  13.569   7.859   9.952 -0.6889 -0.3122 -1.1162
    5MOL0     C  580  13.611   7.715   9.929  0.9697  1.1351 -0.0504
    5MOL0     C  581  13.652   7.971   9.929 -0.0300 -0.3938  0.0899
    5MOL0     C  582  13.784   7.974   9.869 -0.4032  0.3224 -0.3804
    5MOL0     O  583  13.866   8.087   9.887 -0.5548 -0.2649  0.1535
    5MOL0     C  584  13.995   8.075   9.845 -0.5387 -0.4759  0.6791
    5MOL0     C  585  14.041   8.158   9.744 -0.2270  0.9248  0.0186
    5MOL0     C  586  14.175   8.156   9.695 -0.6830  0.4737 -0.0639
    5MOL0     C  587  14.267   8.065   9.751 -0.5157  0.5072 -0.2940
    5MOL0     O  588  14.393   8.060   9.698 -0.2129 -0.8402 -0.2827
    5MOL0     C  589  14.475   7.951   9.732 -0.6018  0.6168 -0.5400
    5MOL0     C  590  14.612   7.949   9.657 -0.4219 -0.0637  0.0272
    5MOL0     C  591  14.680   7.805   9.660 -0.3937 -0.3366  0.8317
    5MOL0     C  592  14.724   7.747   9.789  0.2423 -0.0661 -0.6259
    5MOL0     C  593  14.820   7.627   9.776  1.5798  0.8857 -1.0255
    5MOL0     C  594  14.960   7.654   9.730  0.4703  0.1831 -0.0906
    5MOL0     C  595  15.051   7.531   9.761 -0.0383 -0.0115 -0.9209
    5MOL0     C  596  15.204   7.570   9.784 -0.2471 -0.0148  0.4149
    5MOL0    Cl  597  15.270   7.626   9.635 -0.3024  0.3654  0.2870
    5MOL0     C  598  14.218   7.977   9.856  0.3608 -0.4389  0.2269
    5MOL0     C  599  14.090   7.989   9.905  0.0316  0.2488  0.4918
    5MOL0     O  600  13.811   7.875   9.795  0.1588  0.9648 -0.1425
    5MOL0     C  601  13.609   8.096   9.984  0.6975  0.9237 -0.3290
    5MOL0     C  602  13.485   8.112  10.038  0.5566  0.0007  0.9174
    5MOL0     N  603  12.949   8.115  10.336  0.1491 -0.0038 -0.1040
    5MOL0     N  604  12.859   8.092  10.251  0.3172  0.3077  0.7327
    5MOL0     C  605  11.655   8.333  10.423  0.1664  0.0425  0.5202
    5MOL0     C  606  11.516   8.351  10.430  0.0230  0.0364 -0.6247
    5MOL0     C  607  11.091   8.340  10.440 -0.1563 -0.6182 -0.5117
    5MOL0     C  608  11.069   8.388  10.569 -0.1275  0.4877  0.5676
    5MOL0     C  609  10.941   8.424  10.616 -0.5014 -0.4601  0.2066
    5MOL0     C  610  10.835   8.397  10.542  0.0871  0.9132  0.1564
    5MOL0     O  611  10.723   8.430  10.606  0.2935  0.2303 -0.8333
    5MOL0     C  612  10.603   8.363  10.568 -0.5662 -0.1564  0.4417
    5MOL0     C  613  10.511   8.450  10.477 -0.9836  0.0148 -0.2368
    5MOL0     C  614  10.373   8.387  10.451 -1.0429 -0.2400 -1.4496
    5MOL0     C  615  10.280   8.476  10.369 -0.1349  0.0402  0.0902
    5MOL0     C  616  10.158   8.399  10.342 -0.4813  0.3037 -0.3329
    5MOL0     C  617  10.052   8.344  10.315 -0.2352  1.5916 -0.1827
    5MOL0     C  618  10.854   8.347  10.411  0.1392 -0.6610 -0.2783
    5MOL0     C  619  10.982   8.320  10.361 -1.1083  0.4193 -0.3712
    5MOL0     C  620  10.999   8.274  10.214  0.7851  0.1641  1.0752
    5MOL0     H  621  11.435   8.051  10.576  2.9383 -3.0554 -0.5616
    5MOL0     H  622  11.673   8.003  10.518  0.2868 -0.7759 -2.6409
    5MOL0     H  623  11.896   8.349  10.313 -3.3990 -0.4509  0.0416
    5MOL0     H  624  11.856   8.208  10.218  0.1771 -0.8347  0.4273
    5MOL0     H  625  12.108   8.195  10.387 -0.9476 -3.3755  1.4563
    5MOL0     H  626  12.042   8.089  10.256 -1.1531 -0.1345  2.0785
    5MOL0     H  627  12.068   8.253  10.088 -0.6845 -2.0592  0.4519
    5MOL0     H  628  12.107   8.383  10.210 -3.3197 -0.4575 -2.0461
    5MOL0     H  629  12.313   8.258  10.262 -1.6135  1.3186  0.2940
    5MOL0     H  630  12.277   8.125  10.154 -0.2139  0.6617  1.6333
    5MOL0     H  631  12.348   8.415  10.098  0.1186  0.3693 -1.1081
    5MOL0     H  632  12.267   8.309   9.976  1.0368  0.0818 -1.0713
    5MOL0     H  633  12.455   8.145   9.978  1.7847 -0.6384 -0.1434
    5MOL0     H  634  12.509   8.301   9.928 -1.5164  0.8456  0.0340
    5MOL0     H  635  12.543   8.186  10.214  0.8817  1.4069  1.2844
    5MOL0     H  636  12.594   8.338  10.177  0.9499  0.1001 -0.6668
    5MOL0     H  637  12.719   8.107  10.025  3.1591 -0.2303 -0.4067
    5MOL0     H  638  12.749   8.281  10.002 -0.3367 -0.5990 -0.5426
    5MOL0     H  639  12.894   8.409  10.217 -2.3664  0.6473 -0.3040
    5MOL0     H  640  13.101   8.278  10.512  1.6872  0.1467  0.3954
    5MOL0     H  641  13.058   8.421  10.424  0.0069  0.1144 -0.3844
    5MOL0     H  642  13.189   8.370  10.229 -0.8444 -0.7957 -0.5843
    5MOL0     H  643  13.287   8.375  10.382 -0.1377  0.8421  0.1747
    5MOL0     H  644  13.384   8.173  10.285  0.1163 -0.9101 -5.1288
    5MOL0     H  645  13.227   8.117  10.373 -2.4209  2.9823  0.7214
    5MOL0     H  646  13.116   8.121  10.152 -0.1548  2.4712  1.2268
    5MOL0     H  647  13.248   8.210  10.082  0.8348  1.3292  0.7952
    5MOL0     H  648  13.394   7.793  10.060  0.4706  0.8160  1.6760
    5MOL0     H  649  13.585   7.698   9.824  1.6737  0.3609 -0.1080
    5MOL0     H  650  13.553   7.641   9.986  2.0748 -1.9834 -2.6383
    5MOL0     H  651  13.717   7.700   9.950  0.2426 -2.8069  1.8101
    5MOL0     H  652  13.963   8.220   9.700 -2.5219 -0.5990  1.6633
    5MOL0     H  653  14.205   8.209   9.605  0.6167  0.9629  0.6426
    5MOL0     H  654  14.495   7.944   9.839 -1.6063  0.1514 -0.3687
    5MOL0     H  655  14.406   7.872   9.699  1.0651 -1.0198 -0.2317
    5MOL0     H  656  14.609   7.980   9.552 -0.1431 -3.3605 -1.0511
    5MOL0     H  657  14.673   8.025   9.707 -1.0896 -0.7156  1.9080
    5MOL0     H  658  14.768   7.805   9.595  0.3401 -0.8456  1.7896
    5MOL0     H  659  14.611   7.734   9.614 -0.5695 -0.0337  0.6240
    5MOL0     H  660  14.640   7.725   9.854  3.1604 -3.0668  2.5433
    5MOL0     H  661  14.784   7.825   9.838  1.0671 -1.0677 -0.0070
    5MOL0     H  662  14.826   7.581   9.875  0.4877 -1.1154 -1.8254
    5MOL0     H  663  14.770   7.552   9.713  0.7441  1.7338 -1.4060
    5MOL0     H  664  14.994   7.754   9.759  0.7143  0.2218 -0.5050
    5MOL0     H  665  14.963   7.663   9.621  2.0460  0.2910 -0.0607
    5MOL0     H  666  15.044   7.454   9.683  0.0600 -0.4771 -0.4746
    5MOL0     H  667  15.018   7.480   9.852  0.9443  0.4208 -0.3100
    5MOL0     H  668  15.267   7.488   9.821 -1.7114 -1.8813 -0.9885
    5MOL0     H  669  15.198   7.652   9.856  2.1765  0.5797  0.0211
    5MOL0     H  670  14.289   7.903   9.891 -0.7459 -1.8922 -0.5096
    5MOL0     H  671  14.058   7.926   9.988  1.2609  0.2637  1.0012
    5MOL0     H  672  13.662   8.188   9.959  2.4509  1.0688  3.2484
    5MOL0     H  673  13.454   8.209  10.075 -0.5710 -1.0193  2.7555
    5MOL0     H  674  11.702   8.425  10.390 -1.0292  1.4567  2.5453
    5MOL0     H  675  11.476   8.446  10.395 -0.0422  0.7315  1.2003
    5MOL0     H  676  11.147   8.406  10.642  0.9501 -1.1739 -0.1079
    5MOL0     H  677  10.941   8.470  10.715  2.4714  1.6840 -0.6436
    5MOL0     H  678  10.623   8.273  10.509 -3.0780 -0.1558 -0.5257
    5MOL0     H  679  10.541   8.336  10.654 -1.8860 -0.8812 -0.7007
    5MOL0     H  680  10.568   8.471  10.386 -0.2210  2.3931  0.7134
    5MOL0     H  681  10.503   8.544  10.533  2.7095  0.9450 -1.0210
    5MOL0     H  682  10.389   8.294  10.395 -0.6141 -0.2334 -1.3426
    5MOL0     H  683  10.328   8.346  10.542 -0.0268  0.0873 -0.7834
    5MOL0     H  684  10.327   8.505  10.275 -0.5721 -3.1946 -1.2552
    5MOL0     H  685  10.261   8.568  10.425  0.7318  0.2126  0.1240
    5MOL0     H  686   9.960   8.300  10.283 -1.6864  1.2522  3.8067
    5MOL0     H  687  10.766   8.341  10.348  0.4453 -0.7539 -0.6986
    5MOL0     H  688  11.014   8.360  10.148 -4.0836  1.3315  1.1227
    5MOL0     H  689  11.081   8.204  10.194  1.5442  1.0095  1.1466
    5MOL0     H  690  10.905   8.223  10.189  1.1662 -1.8517  3.4107
    6MOL0     O  691   5.372   8.225   2.941 -0.0602 -0.0908 -0.5475
    6MOL0     C  692   5.414   8.129   2.879 -0.5834 -0.6499  0.2042
    6MOL0     O  693   5.542   8.111   2.835  1.5321  0.4778  0.6815
    6MOL0     C  694   5.632   8.198   2.880  0.4456  0.0288  0.0178
    6MOL0     C  695   5.711   8.154   2.982 -0.2929 -0.7980  0.1463
    6MOL0     C  696   5.810   8.242   3.036 -0.7144  0.2632  0.8760
    6MOL0     C  697   5.835   8.367   2.980 -0.1267  0.3435  0.1565
    6MOL0     O  698   5.936   8.433   3.038  0.9201  0.3076 -0.2302
    6MOL0     C  699   5.979   8.551   2.977  0.4331  0.2250  0.1970
    6MOL0     C  700   6.109   8.599   3.033 -0.5902 -0.8916  0.0010
    6MOL0     C  701   6.163   8.719   2.952 -0.6484  0.1425  0.2896
    6MOL0     C  702   6.305   8.750   2.997  0.4999 -0.3112 -0.7373
    6MOL0     C  703   6.368   8.872   2.929  0.0493 -0.1061 -0.4790
    6MOL0     C  704   6.410   8.841   2.789  0.0332  0.7896  0.1134
    6MOL0     C  705   6.475   8.964   2.723  0.0018 -0.9470  0.1862
    6MOL0     C  706   6.483   8.926   2.574  0.2178 -0.2398  1.1289
    6MOL0     N  707   6.535   9.034   2.491 -0.2966 -0.1262  0.2796
    6MOL0     C  708   6.636   9.002   2.410  0.5788  0.7241  0.1262
    6MOL0     C  709   6.659   9.115   2.337 -0.6262  0.4685 -0.3943
    6MOL0     C  710   6.751   9.147   2.217  0.1771 -0.0269 -0.4556
    6MOL0     C  711   6.885   9.206   2.270 -0.2674 -0.1327  0.1741
    6MOL0     C  712   6.971   9.097   2.347 -0.1321 -0.5391  0.1519
    6MOL0     C  713   7.113   9.157   2.371  0.4977  0.2006 -0.9071
    6MOL0     O  714   7.098   9.271   2.463  0.5105 -0.0839  0.4439
    6MOL0     C  715   7.201   9.352   2.487  0.5769 -0.8127  0.2301
    6MOL0     C  716   7.180   9.445   2.587 -0.7994 -0.0609 -0.4703
    6MOL0     C  717   7.279   9.518   2.642 -0.5780 -0.7202 -0.5433
    6MOL0     C  718   7.228   9.614   2.753 -0.1447 -0.0154  0.7302
    6MOL0     C  719   7.414   9.500   2.597  0.1063 -0.2791  0.2460
    6MOL0     C  720   7.530   9.560   2.660 -0.1278 -0.2557 -0.1486
    6MOL0     O  721   7.641   9.485   2.653  0.1177 -0.9171  0.2411
    6MOL0     C  722   7.747   9.502   2.739 -0.6100  0.1053 -0.0227
    6MOL0     C  723   7.737   9.456   2.866  0.0502 -0.0282 -0.1193
    6MOL0     C  724   7.851   9.429   2.945 -0.4745  0.2331  0.2511
    6MOL0     C  725   7.981   9.462   2.899 -0.3226 -0.5358 -0.0810
    6MOL0     O  726   8.096   9.436   2.971  0.0784 -0.4018  0.4521
    6MOL0     C  727   8.099   9.371   3.098  0.1551 -0.1221 -0.5414
    6MOL0     C  728   8.241   9.343   3.149 -0.1942  0.0726 -0.2840
    6MOL0     C  729   8.325   9.462   3.182  0.0143  0.6795  0.9881
    6MOL0     C  730   8.457   9.434   3.252 -1.2204 -0.4148  0.5146
    6MOL0     C  731   8.547   9.566   3.254  0.2070  1.0691  0.5774
    6MOL0     C  732   8.684   9.532   3.314  0.4045 -0.3237 -0.9434
    6MOL0     C  733   8.767   9.650   3.296  0.7430 -0.8855  0.0751
    6MOL0     C  734   8.898   9.645   3.370 -0.1060  0.3095 -0.6848
    6MOL0    Cl  735   8.874   9.683   3.544  0.3551 -0.0087 -0.3376
    6MOL0     C  736   7.988   9.519   2.769  0.4440 -0.1325  0.1874
    6MOL0     C  737   7.872   9.541   2.694  0.1058 -0.1393  0.1874
    6MOL0     O  738   7.530   9.668   2.720 -0.2366  0.0958 -0.3373
    6MOL0     C  739   7.434   9.409   2.503 -0.7584  0.0742 -0.6220
    6MOL0     C  740   7.328   9.334   2.442 -0.2026  0.0034 -0.3069
    6MOL0     N  741   6.575   9.217   2.386 -0.2118 -0.6893  0.5749
    6MOL0     N  742   6.496   9.161   2.466  0.2042 -0.1640 -0.3622
    6MOL0     C  743   5.752   8.413   2.878 -0.0633 -0.4245  0.5697
    6MOL0     C  744   5.657   8.324   2.822  0.1991 -0.4496 -0.6392
    6MOL0     C  745   5.311   8.043   2.818  0.1648  0.9470 -0.5614
    6MOL0     C  746   5.177   8.043   2.863  0.7871 -0.3645 -0.2378
    6MOL0     C  747   5.082   7.952   2.812  0.0920 -0.3265  0.4633
    6MOL0     C  748   5.121   7.843   2.739  0.3499  0.1150  0.3839
    6MOL0     O  749   5.050   7.730   2.712 -0.2787 -0.5081  0.2961
    6MOL0     C  750   4.909   7.711   2.731  0.3799  0.5666 -0.2783
    6MOL0     C  751   4.844   7.655   2.602 -0.4983 -0.4356 -0.2572
    6MOL0     C  752   4.710   7.594   2.639 -0.7441 -0.0442 -0.4705
    6MOL0     C  753   4.650   7.505   2.531 -0.2466 -0.8521 -0.0356
    6MOL0     C  754   4.522   7.454   2.562  0.7554  0.2185 -0.0005
    6MOL0     C  755   4.417   7.393   2.570  0.1152 -0.4670  0.3012
    6MOL0     C  756   5.247   7.845   2.689  0.4535  0.0331 -0.7791
    6MOL0     C  757   5.347   7.939   2.729 -0.8188  0.4534 -0.1877
    6MOL0     C  758   5.478   7.907   2.661 -0.3204  0.6813 -0.1913
    6MOL0     H  759   5.693   8.051   3.011 -1.6285 -1.3533 -2.3607
    6MOL0     H  760   5.884   8.203   3.105  0.2574  1.3745  0.4862
    6MOL0     H  761   5.912   8.635   2.997 -0.2674 -0.2588 -0.0635
    6MOL0     H  762   5.963   8.543   2.869 -3.4484  1.3002  0.5276
    6MOL0     H  763   6.108   8.627   3.139  3.2337 -0.1350 -0.0236
    6MOL0     H  764   6.189   8.529   3.010  1.3346  1.4821 -0.9952
    6MOL0     H  765   6.158   8.692   2.846 -0.7262  0.5447  0.1900
    6MOL0     H  766   6.105   8.810   2.966 -1.6998 -0.4242 -0.3222
    6MOL0     H  767   6.293   8.772   3.103 -0.0760  0.6527 -0.9894
    6MOL0     H  768   6.368   8.661   2.985  1.8910  0.5876 -0.2910
    6MOL0     H  769   6.458   8.905   2.982  1.3103 -3.2524 -0.4358
    6MOL0     H  770   6.301   8.958   2.921  1.0675  0.6264 -1.4740
    6MOL0     H  771   6.484   8.760   2.798  0.2777  1.1319  1.4547
    6MOL0     H  772   6.326   8.809   2.727  1.7254  1.9091 -2.9578
    6MOL0     H  773   6.574   8.990   2.763  0.2828 -0.2424 -0.9242
    6MOL0     H  774   6.407   9.049   2.731  0.2411 -0.5541 -1.6234
    6MOL0     H  775   6.537   8.832   2.566  2.0672  0.9078 -1.2928
    6MOL0     H  776   6.380   8.908   2.540  0.9600  0.5564 -1.8098
    6MOL0     H  777   6.684   8.906   2.398 -0.0334  0.6715 -2.5522
    6MOL0     H  778   6.695   9.214   2.152  1.4892 -0.7246 -2.4325
    6MOL0     H  779   6.765   9.055   2.160  2.6482 -0.5470  0.8462
    6MOL0     H  780   6.944   9.250   2.188 -1.9921  2.6057  0.2648
    6MOL0     H  781   6.864   9.285   2.343 -1.7379  0.2398 -0.6205
    6MOL0     H  782   6.935   9.064   2.444 -0.7615  1.9189  0.8324
    6MOL0     H  783   6.979   9.009   2.282 -1.0531  0.2802 -1.1414
    6MOL0     H  784   7.180   9.084   2.416 -1.2194 -0.8249  0.0757
    6MOL0     H  785   7.154   9.195   2.277  2.4040 -0.3176 -0.3333
    6MOL0     H  786   7.081   9.452   2.631 -3.0257 -1.7481 -4.6516
    6MOL0     H  787   7.276   9.589   2.848  0.2311  2.2108  1.1893
    6MOL0     H  788   7.120   9.616   2.774 -0.5419 -2.8023 -0.6283
    6MOL0     H  789   7.272   9.712   2.732 -0.9788  0.0786 -0.7291
    6MOL0     H  790   7.642   9.422   2.905  0.3556  0.1457  0.8058
    6MOL0     H  791   7.830   9.383   3.041  2.1168  1.6873  1.6314
    6MOL0     H  792   8.049   9.443   3.164  2.1987  1.3049 -0.4492
    6MOL0     H  793   8.043   9.277   3.097 -0.4680  0.0778  2.9283
    6MOL0     H  794   8.219   9.298   3.246 -0.4250 -0.1937 -0.4582
    6MOL0     H  795   8.286   9.275   3.075  0.8722  0.9285 -0.4495
    6MOL0     H  796   8.273   9.523   3.257 -0.0109  1.6263  0.2202
    6MOL0     H  797   8.348   9.519   3.092 -1.7122  3.7949  2.3470
    6MOL0     H  798   8.497   9.348   3.198  1.2773 -0.2521  1.9908
    6MOL0     H  799   8.426   9.394   3.349  0.4586 -1.9939  0.4615
    6MOL0     H  800   8.548   9.600   3.150  2.9456 -2.0269 -0.5914
    6MOL0     H  801   8.497   9.649   3.303 -1.2685  1.9539 -2.1701
    6MOL0     H  802   8.725   9.448   3.258 -0.0906 -1.0074 -0.3065
    6MOL0     H  803   8.662   9.508   3.419  1.0448 -0.7301 -0.8969
    6MOL0     H  804   8.724   9.745   3.327 -1.7612 -1.6532 -0.8064
    6MOL0     H  805   8.788   9.644   3.189  3.9787  0.2128  0.5206
    6MOL0     H  806   8.972   9.715   3.330 -1.3818  1.8783 -0.3724
    6MOL0     H  807   8.939   9.543   3.363 -0.0786  0.2293  0.4042
    6MOL0     H  808   8.086   9.556   2.741  0.5459 -0.2018  0.4441
    6MOL0     H  809   7.891   9.579   2.594  5.6963  0.0595  0.9916
    6MOL0     H  810   7.531   9.393   2.456  0.1194  1.1696  0.7400
    6MOL0     H  811   7.343   9.251   2.373 -0.6785  0.1019 -0.5309
    6MOL0     H  812   5.751   8.511   2.833 -0.1217 -0.0168  1.4418
    6MOL0     H  813   5.594   8.347   2.736  0.3370 -0.7756 -0.8315
    6MOL0     H  814   5.151   8.113   2.942 -2.7471 -0.1677 -1.4113
    6MOL0     H  815   4.982   7.945   2.855 -0.3204  4.3341  0.8410
    6MOL0     H  816   4.905   7.637   2.811 -3.9325  0.8784  0.0001
    6MOL0     H  817   4.859   7.803   2.762 -0.1690  0.2660 -0.2557
    6MOL0     H  818   4.911   7.593   2.542  0.1719  0.4936 -0.4839
    6MOL0     H  819   4.824   7.748   2.548  0.5950  0.4657  0.8569
    6MOL0     H  820   4.713   7.530   2.727  0.4048 -1.0698 -1.2225
    6MOL0     H  821   4.639   7.677   2.650 -0.2282  0.1902  1.3532
    6MOL0     H  822   4.716   7.418   2.525 -0.2725 -0.9718  1.1479
    6MOL0     H  823   4.624   7.564   2.442 -0.5522 -1.2986 -0.2459
    6MOL0     H  824   4.328   7.335   2.585 -0.0929 -0.2113  0.0622
    6MOL0     H  825   5.279   7.765   2.623 -0.7697 -1.8853  0.8534
    6MOL0     H  826   5.522   8.003   2.630 -2.7528  1.7154 -0.6656
    6MOL0     H  827   5.544   7.863   2.736 -1.0124  0.0806  0.0708
    6MOL0     H  828   5.473   7.851   2.567 -1.3660  0.0530  0.2363
    7MOL0     O  829   3.909   0.184   9.016 -0.6361 -0.5581 -0.3534
    7MOL0     C  830   3.907   0.276   8.930 -0.3710  0.1934 -0.2744
    7MOL0     O  831   4.021   0.338   8.897  0.0544 -0.4010 -0.6193
    7MOL0     C  832   4.141   0.279   8.926  0.4070  0.4468 -0.3881
    7MOL0     C  833   4.202   0.191   8.833  0.2850 -0.1085 -0.3620
    7MOL0     C  834   4.328   0.137   8.854  0.2591 -0.4245 -0.6600
    7MOL0     C  835   4.393   0.167   8.974 -0.2707 -0.7196 -0.6715
    7MOL0     O  836   4.512   0.110   9.006 -0.1149 -0.2116  0.0173
    7MOL0     C  837   4.618   0.160   8.922 -0.2335 -0.2512  0.0814
    7MOL0     C  838   4.764   0.139   8.990 -0.2127 -0.2469  0.4425
    7MOL0     C  839   4.813   0.259   9.080 -0.5357  0.1786  0.0542
    7MOL0     C  840   4.735   0.262   9.212 -0.1765  0.8978  0.3414
    7MOL0     C  841   4.717   0.403   9.257  0.1191 -0.5697 -0.0780
    7MOL0     C  842   4.619   0.482   9.183  1.1767 -0.6568  1.1080
    7MOL0     C  843   4.508   0.552   9.260 -0.3842  0.3785 -0.0821
    7MOL0     C  844   4.563   0.686   9.327 -0.2358  0.1229  0.6514
    7MOL0     N  845   4.573   0.795   9.227 -0.5459 -0.0618 -0.1131
    7MOL0     C  846   4.690   0.860   9.193 -1.1741  0.4830 -0.3632
    7MOL0     C  847   4.655   0.966   9.118  0.2090 -0.1995  0.0035
    7MOL0     C  848   4.753   1.067   9.061  0.0836 -0.0081 -0.3369
    7MOL0     C  849   4.755   1.197   9.141  0.1834 -0.5866 -0.1656
    7MOL0     C  850   4.872   1.288   9.122 -0.5732  0.5983 -0.3653
    7MOL0     C  851   4.893   1.359   8.986 -0.0065 -0.1095 -0.7620
    7MOL0     O  852   4.991   1.468   9.006  0.5370  0.1937  0.7145
    7MOL0     C  853   5.051   1.524   8.898 -0.1348 -0.4286  0.0731
    7MOL0     C  854   5.147   1.617   8.924  0.3176 -0.1404 -0.2740
    7MOL0     C  855   5.234   1.673   8.826  0.5782  0.4877  0.2803
    7MOL0     C  856   5.343   1.755   8.874  1.1043 -0.6433  0.0882
    7MOL0     C  857   5.215   1.636   8.688 -0.0158 -0.8943 -0.2801
    7MOL0     C  858   5.291   1.688   8.572 -0.0235 -0.0751 -0.0429
    7MOL0     O  859   5.416   1.746   8.602  0.3425  0.1374  0.5255
    7MOL0     C  860   5.514   1.739   8.502 -0.0284  0.5051  0.3865
    7MOL0     C  861   5.558   1.622   8.437 -0.3079 -0.2606 -0.0718
    7MOL0     C  862   5.664   1.616   8.343  0.2082  0.1867  0.1578
    7MOL0     C  863   5.724   1.738   8.309 -0.7566 -0.1871 -0.4932
    7MOL0     O  864   5.836   1.736   8.226 -0.5600 -0.0798 -0.3444
    7MOL0     C  865   5.927   1.625   8.230  0.5941  0.1202 -0.4495
    7MOL0     C  866   6.070   1.657   8.217  0.2766 -0.5237 -0.0785
    7MOL0     C  867   6.093   1.737   8.082  0.8247  0.0294  0.1555
    7MOL0     C  868   6.226   1.711   8.024 -0.3851  0.3046 -0.4314
    7MOL0     C  869   6.337   1.781   8.093  0.3484 -1.2759 -0.6761
    7MOL0     C  870   6.477   1.754   8.035  0.2555  0.4999 -0.7197
    7MOL0     C  871   6.600   1.797   8.125 -0.4705  0.1500  0.7831
    7MOL0     C  872   6.724   1.761   8.047  0.3421  0.1695 -0.4011
    7MOL0    Cl  873   6.865   1.816   8.152 -0.7447 -0.4058  0.2913
    7MOL0     C  874   5.691   1.853   8.376  0.4741 -0.3036 -0.1591
    7MOL0     C  875   5.586   1.853   8.476 -0.6038  0.2787 -0.0646
    7MOL0     O  876   5.245   1.673   8.460 -0.2927 -0.0329  0.7670
    7MOL0     C  877   5.100   1.555   8.665  1.1676  0.2613  0.7478
    7MOL0     C  878   5.018   1.503   8.764 -0.7000 -0.7262 -0.0057
    7MOL0     N  879   4.516   0.974   9.121  0.1447 -0.2590 -0.2213
    7MOL0     N  880   4.471   0.875   9.182 -0.8343  0.0846  0.3202
    7MOL0     C  881   4.337   0.253   9.070 -0.1454  0.8830  0.6449
    7MOL0     C  882   4.212   0.312   9.045  0.3861  1.5074 -0.2157
    7MOL0     C  883   3.782   0.337   8.885  0.2551 -0.3262  0.9919
    7MOL0     C  884   3.675   0.249   8.863  0.0650  0.1432 -0.2604
    7MOL0     C  885   3.548   0.285   8.812  0.4098  0.3075 -0.2931
    7MOL0     C  886   3.516   0.419   8.792 -0.1221 -0.4177  0.1309
    7MOL0     O  887   3.401   0.470   8.749 -0.7357  0.5259 -0.0256
    7MOL0     C  888   3.280   0.402   8.763 -0.3134  0.3294 -0.3912
    7MOL0     C  889   3.165   0.499   8.765 -0.0408 -0.0816  0.2085
    7MOL0     C  890   3.114   0.535   8.626 -0.1149 -0.7469 -0.2693
    7MOL0     C  891   2.995   0.632   8.645 -0.0803 -1.2539  0.3398
    7MOL0     C  892   2.909   0.620   8.525  0.2609  0.1258  0.9139
    7MOL0     C  893   2.825   0.623   8.432  0.0856 -0.8255 -1.2029
    7MOL0     C  894   3.626   0.512   8.803  0.1534  0.0787  0.0954
    7MOL0     C  895   3.758   0.477   8.858  0.3120  0.1359 -0.6697
    7MOL0     C  896   3.867   0.582   8.881  0.8630  0.6261 -0.3445
    7MOL0     H  897   4.161   0.153   8.740  2.9470 -2.7334 -0.6035
    7MOL0     H  898   4.380   0.069   8.788  0.5931 -2.4580  1.5683
    7MOL0     H  899   4.600   0.265   8.898 -1.8505 -0.5760 -0.2546
    7MOL0     H  900   4.624   0.102   8.829 -0.3136 -1.9579  1.1095
    7MOL0     H  901   4.783   0.039   9.029 -2.5591 -0.5668  0.9060
    7MOL0     H  902   4.832   0.143   8.905  0.3657 -0.3197  0.8890
    7MOL0     H  903   4.917   0.238   9.106 -0.1463  0.9397 -0.8139
    7MOL0     H  904   4.803   0.351   9.021  1.4036  0.5246  0.2117
    7MOL0     H  905   4.640   0.210   9.196 -0.0586 -0.0652  2.4152
    7MOL0     H  906   4.791   0.207   9.288  0.7500 -0.4226 -1.2430
    7MOL0     H  907   4.811   0.457   9.247 -0.3254 -0.1135 -2.6263
    7MOL0     H  908   4.687   0.402   9.362  0.3735  5.2077  0.3704
    7MOL0     H  909   4.661   0.565   9.125 -3.2908  0.3146 -1.1684
    7MOL0     H  910   4.576   0.421   9.104 -1.2940 -0.3398  2.1297
    7MOL0     H  911   4.471   0.483   9.336 -0.0382  2.3850  1.9842
    7MOL0     H  912   4.435   0.569   9.180 -0.2360 -1.4027 -0.6328
    7MOL0     H  913   4.505   0.707   9.418  0.3588 -1.8888  1.5597
    7MOL0     H  914   4.662   0.665   9.369  0.8859 -1.5410 -2.5084
    7MOL0     H  915   4.790   0.837   9.228 -0.7416  1.9511 -0.5894
    7MOL0     H  916   4.734   1.095   8.957  2.4810  2.1221 -0.2984
    7MOL0     H  917   4.855   1.029   9.067 -0.6150 -1.8990  0.8609
    7MOL0     H  918   4.657   1.242   9.120  0.1692 -0.5409 -0.0038
    7MOL0     H  919   4.749   1.185   9.250  2.7381  1.1422  0.2503
    7MOL0     H  920   4.872   1.366   9.199 -0.5868  1.0251 -0.7869
    7MOL0     H  921   4.962   1.227   9.138 -1.8356 -1.0779  0.5926
    7MOL0     H  922   4.918   1.291   8.904 -0.2486 -2.1220  0.7592
    7MOL0     H  923   4.797   1.396   8.950 -0.9611 -2.5213 -0.8667
    7MOL0     H  924   5.153   1.654   9.025 -0.2719  3.2742 -1.3495
    7MOL0     H  925   5.442   1.716   8.849  0.7859 -0.3337 -1.7989
    7MOL0     H  926   5.341   1.757   8.983 -2.2339 -1.8982  0.1538
    7MOL0     H  927   5.338   1.856   8.832 -2.6525 -0.4276  0.6661
    7MOL0     H  928   5.492   1.538   8.460 -0.4354  0.1574  1.1325
    7MOL0     H  929   5.688   1.522   8.296  2.3418 -1.1372  3.5465
    7MOL0     H  930   5.919   1.557   8.316 -2.0570 -0.1980 -0.8905
    7MOL0     H  931   5.905   1.564   8.143 -0.3570 -0.0637 -0.0941
    7MOL0     H  932   6.089   1.725   8.300 -1.8892  0.4598 -0.2992
    7MOL0     H  933   6.130   1.567   8.224 -1.3810 -1.9668 -2.7311
    7MOL0     H  934   6.088   1.844   8.102  1.4462 -0.0319  0.6749
    7MOL0     H  935   6.015   1.709   8.010 -2.2139  0.5707  3.0060
    7MOL0     H  936   6.241   1.724   7.916  3.3753 -1.7377 -0.3399
    7MOL0     H  937   6.254   1.606   8.035 -1.7689 -0.6877 -4.4409
    7MOL0     H  938   6.308   1.885   8.073 -2.3893 -1.5681  1.2438
    7MOL0     H  939   6.335   1.755   8.199  0.5353 -0.5388 -0.4837
    7MOL0     H  940   6.493   1.805   7.940  2.0212  0.5679 -0.4194
    7MOL0     H  941   6.492   1.646   8.022  3.0316  1.1619 -5.2293
    7MOL0     H  942   6.600   1.744   8.220  0.0254 -0.6481  0.3500
    7MOL0     H  943   6.605   1.905   8.142 -0.5271  0.1646  0.7072
    7MOL0     H  944   6.720   1.817   7.953  0.3282 -1.2153 -1.2582
    7MOL0     H  945   6.737   1.656   8.019 -0.6366  0.1350 -0.8027
    7MOL0     H  946   5.750   1.943   8.364 -1.3376  1.4943  2.9261
    7MOL0     H  947   5.566   1.947   8.527 -3.2036 -0.9124  1.3112
    7MOL0     H  948   5.091   1.516   8.564 -1.7780  2.4745  0.0155
    7MOL0     H  949   4.944   1.428   8.739 -2.3147  1.0045 -0.6008
    7MOL0     H  950   4.392   0.296   9.153 -2.3826  0.7810  2.2730
    7MOL0     H  951   4.176   0.383   9.119  1.4647  2.3122 -0.4350
    7MOL0     H  952   3.681   0.145   8.896  0.4900  0.4981  0.8202
    7MOL0     H  953   3.484   0.200   8.792  2.2476 -0.7203 -2.2027
    7MOL0     H  954   3.276   0.319   8.691 -0.2199  0.3516 -0.4225
    7MOL0     H  955   3.290   0.356   8.862  2.3918  1.7366  0.0905
    7MOL0     H  956   3.190   0.587   8.825  0.0824  1.7165 -2.3275
    7MOL0     H  957   3.083   0.446   8.815  0.8808 -2.2327 -0.4248
    7MOL0     H  958   3.201   0.570   8.571  1.8125 -0.8212  2.5042
    7MOL0     H  959   3.071   0.448   8.575 -1.2209  0.1770 -0.9594
    7MOL0     H  960   3.020   0.739   8.650 -2.1166 -0.7676  1.3473
    7MOL0     H  961   2.935   0.611   8.734 -0.4544  1.7380  0.9033
    7MOL0     H  962   2.758   0.633   8.349  0.5333  2.5665 -1.2832
    7MOL0     H  963   3.616   0.618   8.780 -0.7867 -0.3633 -1.6625
    7MOL0     H  964   3.958   0.575   8.822  0.9926  0.9717 -0.1920
    7MOL0     H  965   3.816   0.679   8.877  1.6200  1.1558  1.6235
    7MOL0     H  966   3.896   0.572   8.986 -2.8391 -0.3972  0.7544
    8MOL0     O  967   1.993   8.358   3.024 -0.7593 -0.0789 -0.3705
    8MOL0     C  968   2.091   8.365   2.942 -1.0630  0.1513 -0.5221
    8MOL0     O  969   2.222   8.334   2.973  0.7140 -0.9752 -0.2672
    8MOL0     C  970   2.237   8.288   3.100  0.1536  0.4748 -0.8091
    8MOL0     C  971   2.256   8.154   3.125  0.6347 -0.2251  0.8355
    8MOL0     C  972   2.275   8.116   3.253  0.2522  0.2594 -0.3377
    8MOL0     C  973   2.282   8.209   3.364 -0.7470  0.0443  0.6844
    8MOL0     O  974   2.293   8.159   3.491 -0.0146  0.2743  0.1144
    8MOL0     C  975   2.253   8.244   3.601  0.3367 -0.3666 -0.1631
    8MOL0     C  976   2.231   8.167   3.727 -1.1240  0.5754  0.0751
    8MOL0     C  977   2.183   8.249   3.849 -0.2247  0.0849 -0.4764
    8MOL0     C  978   2.260   8.375   3.882  0.5802 -0.3745 -0.2052
    8MOL0     C  979   2.253   8.409   4.037 -0.3493 -0.5079 -0.8394
    8MOL0     C  980   2.371   8.332   4.108  0.1620  0.5533  0.3064
    8MOL0     C  981   2.364   8.336   4.264  1.0379 -0.7002 -0.4512
    8MOL0     C  982   2.358   8.482   4.313 -0.5178  0.8731  0.9610
    8MOL0     N  983   2.367   8.492   4.460 -0.2412  0.1044 -0.2341
    8MOL0     C  984   2.263   8.461   4.552 -0.8202 -0.4234  0.9937
    8MOL0     C  985   2.318   8.468   4.677 -0.0082 -0.0829  0.1539
    8MOL0     C  986   2.263   8.431   4.805  0.4570  0.4302 -0.4408
    8MOL0     C  987   2.152   8.525   4.851 -0.1754  0.6443  0.4743
    8MOL0     C  988   2.078   8.451   4.962  0.4486 -0.3651 -0.3724
    8MOL0     C  989   1.952   8.392   4.916  0.5702 -0.1116 -0.0549
    8MOL0     O  990   1.866   8.374   5.032  0.0631 -0.2472  0.1782
    8MOL0     C  991   1.761   8.282   5.031 -0.1021 -0.2894 -0.2596
    8MOL0     C  992   1.690   8.267   5.148 -0.2364  0.1804 -0.3756
    8MOL0     C  993   1.591   8.167   5.175 -0.2796 -0.4038  0.2630
    8MOL0     C  994   1.526   8.174   5.310 -0.0519 -0.3122 -1.0758
    8MOL0     C  995   1.557   8.079   5.068 -0.0470 -0.0697  0.6963
    8MOL0     C  996   1.453   7.974   5.074  0.3244 -0.1153 -0.3113
    8MOL0     O  997   1.333   8.022   5.129 -0.3589 -0.3535 -0.3012
    8MOL0     C  998   1.215   7.969   5.094  0.4456 -1.2711  0.1630
    8MOL0     C  999   1.186   7.915   4.972  0.1162  0.7898 -0.5760
    8MOL0     C 1000   1.060   7.855   4.948 -0.7272  0.0609 -0.0890
    8MOL0     C 1001   0.951   7.876   5.028 -0.9743 -0.6289  0.3589
    8MOL0     O 1002   0.830   7.836   5.004 -0.8208  0.0304 -0.5763
    8MOL0     C 1003   0.783   7.832   4.865 -0.5645 -0.1677 -0.5416
    8MOL0     C 1004   0.801   7.684   4.804  0.1212 -0.0043 -0.3096
    8MOL0     C 1005   0.683   7.597   4.836 -0.4933 -0.9188 -0.2520
    8MOL0     C 1006   0.558   7.619   4.746 -0.0064  0.0640  0.3933
    8MOL0     C 1007   0.564   7.527   4.621  0.3404 -0.2675 -0.7453
    8MOL0     C 1008   0.428   7.499   4.553  0.8765  0.0652 -0.1117
    8MOL0     C 1009   0.389   7.619   4.457  0.0032 -0.1217  0.7489
    8MOL0     C 1010   0.243   7.657   4.441  0.3367  0.4675 -0.4829
    8MOL0    Cl 1011   0.165   7.715   4.599  0.2631  0.1970 -0.0160
    8MOL0     C 1012   0.973   7.946   5.154 -0.1835 -0.2971  0.3924
    8MOL0     C 1013   1.109   7.989   5.186 -0.1256  0.0357  0.4425
    8MOL0     O 1014   1.472   7.864   5.033 -0.3140  0.1715 -0.1386
    8MOL0     C 1015   1.626   8.090   4.946  0.0341  0.3962  0.8701
    8MOL0     C 1016   1.724   8.191   4.925 -1.1782  0.3367 -1.3711
    8MOL0     N 1017   2.459   8.496   4.652  0.5006  0.0710 -0.5974
    8MOL0     N 1018   2.483   8.510   4.529  0.2841  0.7117  0.0727
    8MOL0     C 1019   2.269   8.344   3.335 -0.4922 -0.3740 -0.5092
    8MOL0     C 1020   2.250   8.386   3.204  1.3110 -0.1397 -0.1505
    8MOL0     C 1021   2.068   8.409   2.808  0.1733  0.4726 -0.7866
    8MOL0     C 1022   2.160   8.376   2.702  0.2200  0.0378 -0.0540
    8MOL0     C 1023   2.136   8.395   2.566  0.3239 -1.3139  0.6124
    8MOL0     C 1024   2.018   8.458   2.531  0.4801 -0.1620 -0.8699
    8MOL0     O 1025   1.992   8.479   2.400 -0.2617  0.8106  0.0277
    8MOL0     C 1026   1.855   8.449   2.362 -0.2883  0.3823 -0.0645
    8MOL0     C 1027   1.778   8.567   2.277  0.2668 -0.0936 -0.2404
    8MOL0     C 1028   1.625   8.536   2.271  0.1804  0.4367  0.0307
    8MOL0     C 1029   1.531   8.650   2.214 -0.1055  0.6105 -0.1609
    8MOL0     C 1030   1.393   8.593   2.200  0.3288 -0.2457  0.3399
    8MOL0     C 1031   1.289   8.533   2.215  0.8394 -0.3564  0.7465
    8MOL0     C 1032   1.930   8.524   2.628  0.0008 -0.1049  0.2625
    8MOL0     C 1033   1.953   8.484   2.764  0.7526 -0.2430  0.2577
    8MOL0     C 1034   1.840   8.541   2.860  0.0171  0.1152  0.4390
    8MOL0     H 1035   2.253   8.081   3.045  0.2427  0.9180 -0.2180
    8MOL0     H 1036   2.285   8.011   3.281  0.5564  0.4028  0.1041
    8MOL0     H 1037   2.162   8.302   3.580 -2.2692 -2.8413  3.1065
    8MOL0     H 1038   2.337   8.312   3.618  0.2817 -0.0090 -1.2620
    8MOL0     H 1039   2.159   8.089   3.704  1.3155 -1.8211  0.0466
    8MOL0     H 1040   2.317   8.105   3.754 -0.8805  0.2949 -1.2381
    8MOL0     H 1041   2.079   8.278   3.834 -0.5388 -0.7400  0.0879
    8MOL0     H 1042   2.199   8.182   3.934  1.2362  0.5235 -0.3717
    8MOL0     H 1043   2.364   8.355   3.854 -0.0625  0.7313 -3.7720
    8MOL0     H 1044   2.233   8.461   3.821 -0.1968 -1.1200 -0.9306
    8MOL0     H 1045   2.161   8.382   4.089 -1.7790  1.0417 -2.3850
    8MOL0     H 1046   2.255   8.516   4.062  2.5629 -0.6358 -0.1961
    8MOL0     H 1047   2.372   8.227   4.077  1.6169  0.8046 -0.6129
    8MOL0     H 1048   2.466   8.368   4.068 -1.3271  1.5517 -2.5974
    8MOL0     H 1049   2.439   8.273   4.313 -0.1785 -4.2956 -2.7807
    8MOL0     H 1050   2.268   8.297   4.302 -0.8792  2.8513 -1.2222
    8MOL0     H 1051   2.437   8.537   4.262 -0.4633 -0.9873 -1.1433
    8MOL0     H 1052   2.264   8.534   4.292 -1.9432 -0.6176  3.1223
    8MOL0     H 1053   2.164   8.424   4.524 -1.9725  2.4335  1.0161
    8MOL0     H 1054   2.347   8.439   4.875  0.7554 -1.8629 -0.4624
    8MOL0     H 1055   2.229   8.328   4.792 -1.5196  0.6861  2.0345
    8MOL0     H 1056   2.198   8.619   4.885  2.3608  1.1799 -3.7659
    8MOL0     H 1057   2.092   8.554   4.765  3.1175  2.6714 -1.3462
    8MOL0     H 1058   2.141   8.374   5.008  2.4195 -0.8647 -3.5841
    8MOL0     H 1059   2.055   8.535   5.028 -0.3759 -0.3798 -0.6323
    8MOL0     H 1060   1.893   8.440   4.837  0.7189 -0.9979 -0.7190
    8MOL0     H 1061   1.983   8.297   4.872 -1.6835 -0.5459 -0.7976
    8MOL0     H 1062   1.728   8.339   5.219  3.4049 -1.7774 -0.0969
    8MOL0     H 1063   1.556   8.090   5.373  2.3592  1.6295  0.5648
    8MOL0     H 1064   1.417   8.171   5.301 -0.5425  2.3900  1.9871
    8MOL0     H 1065   1.566   8.261   5.363  1.8586 -2.0602  0.5202
    8MOL0     H 1066   1.266   7.912   4.898  2.2950  0.1094  1.6984
    8MOL0     H 1067   1.030   7.804   4.857 -0.1919 -2.3095  0.9887
    8MOL0     H 1068   0.677   7.860   4.866 -0.1867  1.4698  1.3650
    8MOL0     H 1069   0.836   7.915   4.817 -1.7281  1.4055  0.7599
    8MOL0     H 1070   0.801   7.701   4.696 -0.5468 -0.8197 -0.4501
    8MOL0     H 1071   0.896   7.637   4.832 -0.9162 -1.7795  0.4177
    8MOL0     H 1072   0.646   7.623   4.935 -1.1426 -2.0983 -0.1665
    8MOL0     H 1073   0.708   7.490   4.834 -4.6293 -2.0688  0.8185
    8MOL0     H 1074   0.553   7.723   4.712  2.5700 -0.0869 -0.6737
    8MOL0     H 1075   0.466   7.605   4.803 -1.0611 -1.0238 -1.4692
    8MOL0     H 1076   0.633   7.570   4.547 -0.3442 -1.5860 -2.1957
    8MOL0     H 1077   0.592   7.425   4.649  0.2220 -0.2123 -0.4195
    8MOL0     H 1078   0.354   7.487   4.633 -1.0661  5.4346 -0.6492
    8MOL0     H 1079   0.434   7.407   4.495 -2.2154 -1.4334  1.6889
    8MOL0     H 1080   0.423   7.598   4.355 -4.8930 -0.8669 -0.9924
    8MOL0     H 1081   0.452   7.704   4.487  1.3219 -0.8904  0.2385
    8MOL0     H 1082   0.196   7.565   4.406 -0.1978  1.0648 -1.3441
    8MOL0     H 1083   0.226   7.725   4.357  0.4807 -0.1116 -0.9903
    8MOL0     H 1084   0.898   7.975   5.226 -1.2764 -0.8125 -0.5049
    8MOL0     H 1085   1.135   8.024   5.285 -0.6051  0.8499  0.2921
    8MOL0     H 1086   1.605   8.015   4.870 -1.5555 -1.9264  3.4044
    8MOL0     H 1087   1.795   8.187   4.844  0.4832 -1.0844  0.0610
    8MOL0     H 1088   2.282   8.423   3.409 -0.9798  0.2930 -1.1213
    8MOL0     H 1089   2.255   8.487   3.166 -0.4889 -0.0856 -0.3191
    8MOL0     H 1090   2.247   8.316   2.729  0.3160  0.8144  1.4705
    8MOL0     H 1091   2.197   8.349   2.489  2.5575  1.0720  0.7835
    8MOL0     H 1092   1.868   8.367   2.291 -0.4873 -0.5886  1.0013
    8MOL0     H 1093   1.798   8.426   2.452  1.0427  1.0844  0.9942
    8MOL0     H 1094   1.823   8.579   2.178  2.5049 -2.0340  0.4590
    8MOL0     H 1095   1.779   8.665   2.326 -0.6688  0.0898 -0.5630
    8MOL0     H 1096   1.616   8.436   2.228 -0.5437  0.3987  0.2628
    8MOL0     H 1097   1.593   8.523   2.374 -0.9225  0.4139 -0.3005
    8MOL0     H 1098   1.566   8.693   2.120  0.6543  1.2708  0.4144
    8MOL0     H 1099   1.542   8.727   2.290  1.8694  0.6033 -0.3805
    8MOL0     H 1100   1.194   8.487   2.229 -0.4817  2.1186  0.4699
    8MOL0     H 1101   1.852   8.596   2.604 -1.2315 -1.3544  0.4367
    8MOL0     H 1102   1.792   8.461   2.918 -0.5168  0.9113  1.1267
    8MOL0     H 1103   1.884   8.621   2.921 -1.8288 -0.5292  2.7586
    8MOL0     H 1104   1.768   8.588   2.792  1.5137  0.6869 -0.8015
    9MOL0     O 1105   8.790   5.710   6.385  0.0088 -0.5139 -0.7323
    9MOL0     C 1106   8.727   5.706   6.279 -0.0637  0.2905  0.6002
    9MOL0     O 1107   8.757   5.631   6.158  0.1642 -0.6657  0.4884
    9MOL0     C 1108   8.879   5.568   6.145 -0.2551  2.1105  0.7194
    9MOL0     C 1109   8.969   5.521   6.242 -0.2686 -0.8001  0.1925
    9MOL0     C 1110   9.092   5.467   6.203 -0.2418  0.1358  0.5071
    9MOL0     C 1111   9.126   5.449   6.063 -0.2986 -0.6440  0.6465
    9MOL0     O 1112   9.242   5.404   6.007  0.2470  0.0140  0.9707
    9MOL0     C 1113   9.296   5.281   6.055  0.1823  0.1147 -0.9463
    9MOL0     C 1114   9.374   5.203   5.947  0.6307 -0.0703  0.7103
    9MOL0     C 1115   9.513   5.268   5.934  0.8660 -0.0832 -0.0953
    9MOL0     C 1116   9.592   5.201   5.821  0.1363 -0.1788  0.3499
    9MOL0     C 1117   9.740   5.254   5.790  0.0761 -0.5111  0.0857
    9MOL0     C 1118   9.737   5.398   5.738  0.7063  0.0768 -0.0191
    9MOL0     C 1119   9.880   5.452   5.748 -0.0187  0.1760 -0.7698
    9MOL0     C 1120   9.983   5.390   5.657 -0.1480  0.9828  0.0533
    9MOL0     N 1121  10.110   5.396   5.730  0.5237  0.0508 -0.6572
    9MOL0     C 1122  10.179   5.290   5.781  0.2675 -0.1352  0.3403
    9MOL0     C 1123  10.299   5.342   5.821  0.0300  1.0351 -0.5013
    9MOL0     C 1124  10.410   5.264   5.888 -0.0454 -0.5063  0.2264
    9MOL0     C 1125  10.542   5.346   5.890 -0.1483 -0.0594 -0.6174
    9MOL0     C 1126  10.607   5.329   5.757 -0.4756 -1.3083  0.6725
    9MOL0     C 1127  10.750   5.371   5.766 -0.1734 -0.7949 -0.2170
    9MOL0     O 1128  10.785   5.445   5.649 -0.7498  0.4832  0.7094
    9MOL0     C 1129  10.919   5.481   5.644  0.8839  0.2398  0.3940
    9MOL0     C 1130  11.009   5.399   5.569  0.4532 -0.0464 -0.1569
    9MOL0     C 1131  11.151   5.417   5.571 -0.2310 -0.4548 -0.1260
    9MOL0     C 1132  11.239   5.323   5.490 -0.6077 -0.3232 -0.3030
    9MOL0     C 1133  11.194   5.534   5.645  0.7801 -0.2610 -0.8690
    9MOL0     C 1134  11.336   5.585   5.661 -0.4687  0.3043 -0.1797
    9MOL0     O 1135  11.357   5.699   5.733  0.5397  0.4113  0.3189
    9MOL0     C 1136  11.482   5.740   5.766  0.4412 -0.0808 -0.0126
    9MOL0     C 1137  11.579   5.655   5.816 -0.3349  0.6404 -0.2436
    9MOL0     C 1138  11.710   5.699   5.843 -0.0540  0.2106  0.2159
    9MOL0     C 1139  11.745   5.837   5.818 -0.0719 -0.4561  0.1231
    9MOL0     O 1140  11.865   5.901   5.857 -0.3447 -0.7693  0.3051
    9MOL0     C 1141  11.982   5.826   5.828  0.2971 -0.4737 -0.1410
    9MOL0     C 1142  12.066   5.834   5.960  0.0823  0.1896  0.6784
    9MOL0     C 1143  12.187   5.734   5.960  0.5238 -0.8336 -0.3333
    9MOL0     C 1144  12.150   5.588   5.956  0.2252  0.5058  0.3114
    9MOL0     C 1145  12.280   5.512   5.952 -0.7834 -0.2294  0.7629
    9MOL0     C 1146  12.293   5.402   5.844  0.5275 -0.8117  0.2835
    9MOL0     C 1147  12.428   5.324   5.835 -0.0564 -0.8246  0.6506
    9MOL0     C 1148  12.430   5.220   5.725  0.7452 -1.1664 -0.2628
    9MOL0    Cl 1149  12.603   5.159   5.721  0.1570  0.3820 -0.0462
    9MOL0     C 1150  11.644   5.920   5.776 -0.2081 -0.8083 -0.0854
    9MOL0     C 1151  11.514   5.879   5.749  0.3131  0.3878 -0.2010
    9MOL0     O 1152  11.428   5.518   5.607 -0.2689 -0.4037  0.5034
    9MOL0     C 1153  11.094   5.607   5.721 -0.1841 -0.4687 -0.5978
    9MOL0     C 1154  10.958   5.586   5.722  0.0650  0.2230 -0.4489
    9MOL0     N 1155  10.304   5.479   5.789  0.9249 -0.5854 -0.4110
    9MOL0     N 1156  10.187   5.504   5.742  0.0403  0.4085 -0.3489
    9MOL0     C 1157   9.025   5.484   5.968 -0.8209  0.2378 -0.3055
    9MOL0     C 1158   8.914   5.543   6.012  0.5841  0.5177  0.5421
    9MOL0     C 1159   8.599   5.784   6.269  0.2750 -0.2231 -0.4034
    9MOL0     C 1160   8.518   5.789   6.384  0.1012 -0.1733  0.0746
    9MOL0     C 1161   8.400   5.864   6.385 -0.3166  0.0934  0.2892
    9MOL0     C 1162   8.361   5.934   6.269  0.0076  0.2294  0.4977
    9MOL0     O 1163   8.251   6.014   6.270  0.2250 -0.0137  0.3239
    9MOL0     C 1164   8.219   6.080   6.390  0.3678  0.2109 -0.7674
    9MOL0     C 1165   8.088   6.032   6.436  0.1595  0.8584  0.2111
    9MOL0     C 1166   8.050   6.084   6.575 -0.4485 -0.4477  0.4079
    9MOL0     C 1167   8.068   5.990   6.691  0.7225 -0.3697 -0.4685
    9MOL0     C 1168   8.204   5.945   6.714 -0.7396  0.6783 -0.0268
    9MOL0     C 1169   8.313   5.900   6.733  0.3429  0.4270  0.1382
    9MOL0     C 1170   8.433   5.910   6.148  0.6293  0.9351  0.2281
    9MOL0     C 1171   8.555   5.839   6.146  0.4881  0.3759  0.0219
    9MOL0     C 1172   8.628   5.833   6.012  0.5493 -0.2441  0.1454
    9MOL0     H 1173   8.948   5.539   6.346  0.6644  1.8535 -0.0148
    9MOL0     H 1174   9.164   5.449   6.283 -1.1317  1.2585  1.5881
    9MOL0     H 1175   9.211   5.227   6.098  1.2174 -1.0426 -0.3041
    9MOL0     H 1176   9.375   5.311   6.125  1.9416  2.2449 -3.6175
    9MOL0     H 1177   9.390   5.100   5.979  1.1222 -0.7502 -1.5048
    9MOL0     H 1178   9.318   5.199   5.853  0.4196 -3.6659  0.8262
    9MOL0     H 1179   9.501   5.375   5.917  1.9211  0.2369  0.9857
    9MOL0     H 1180   9.571   5.267   6.027  2.2483 -0.7686 -0.9272
    9MOL0     H 1181   9.597   5.094   5.841  0.0406 -0.2190  0.1668
    9MOL0     H 1182   9.529   5.209   5.731  2.0244 -2.2015 -1.2801
    9MOL0     H 1183   9.789   5.192   5.714  2.7204  3.3218 -1.7068
    9MOL0     H 1184   9.796   5.253   5.884  3.0826 -0.1096 -1.5456
    9MOL0     H 1185   9.705   5.390   5.633 -2.0480 -2.5253  0.8629
    9MOL0     H 1186   9.670   5.466   5.790  2.2484  2.4809 -1.0144
    9MOL0     H 1187   9.910   5.444   5.853 -0.0057  3.1289 -0.4657
    9MOL0     H 1188   9.873   5.560   5.738  1.1116  0.7799  3.0790
    9MOL0     H 1189   9.961   5.283   5.656 -1.0844  1.1191 -2.7716
    9MOL0     H 1190   9.975   5.438   5.559 -3.7630  2.3331  0.8565
    9MOL0     H 1191  10.140   5.189   5.772  0.7115 -0.3436  0.7335
    9MOL0     H 1192  10.429   5.171   5.833  2.6583 -0.3709  0.7845
    9MOL0     H 1193  10.385   5.241   5.992 -0.5296  1.3561  0.5501
    9MOL0     H 1194  10.509   5.449   5.906 -1.0882 -0.2708 -1.1569
    9MOL0     H 1195  10.608   5.318   5.973 -1.8657  1.2686  1.2871
    9MOL0     H 1196  10.600   5.226   5.722  1.4390 -0.9129 -1.0984
    9MOL0     H 1197  10.555   5.394   5.687  0.7024 -0.8264  0.2197
    9MOL0     H 1198  10.755   5.437   5.852 -0.0268 -2.4718  1.1122
    9MOL0     H 1199  10.816   5.289   5.795 -1.1553 -1.4562  0.2016
    9MOL0     H 1200  10.969   5.322   5.504 -1.0405 -0.2638  0.9822
    9MOL0     H 1201  11.280   5.252   5.562  0.1874  0.5937  0.1696
    9MOL0     H 1202  11.321   5.377   5.443 -0.7109  0.6023  0.5294
    9MOL0     H 1203  11.181   5.267   5.416 -2.3814 -0.3442  1.0405
    9MOL0     H 1204  11.572   5.548   5.833  2.4002  0.8468  3.6110
    9MOL0     H 1205  11.774   5.625   5.890 -0.2387  0.7103  1.2952
    9MOL0     H 1206  11.955   5.724   5.800  0.3023 -0.3958 -0.4406
    9MOL0     H 1207  12.044   5.865   5.746 -0.2537 -2.4770 -1.5844
    9MOL0     H 1208  12.102   5.937   5.964 -0.0446  0.3809 -1.5678
    9MOL0     H 1209  12.001   5.814   6.046 -0.6542 -0.3619  0.0122
    9MOL0     H 1210  12.232   5.746   6.060 -1.1917 -2.1277  0.6432
    9MOL0     H 1211  12.263   5.763   5.886 -1.4718  1.0833 -1.7399
    9MOL0     H 1212  12.090   5.566   5.867 -0.4400 -2.3744  1.3790
    9MOL0     H 1213  12.086   5.560   6.040 -0.0487 -0.7481 -0.2848
    9MOL0     H 1214  12.358   5.586   5.935 -1.2300  0.2203  0.6445
    9MOL0     H 1215  12.302   5.466   6.049 -1.5432 -0.5962  0.7738
    9MOL0     H 1216  12.271   5.437   5.743 -0.9924 -1.0211  0.5075
    9MOL0     H 1217  12.216   5.328   5.868  2.4573 -3.0596 -0.1161
    9MOL0     H 1218  12.445   5.270   5.928 -1.4526 -0.2855  1.2586
    9MOL0     H 1219  12.514   5.389   5.819  0.6975 -2.0098 -0.2134
    9MOL0     H 1220  12.394   5.260   5.630 -1.5776  1.0557  1.3918
    9MOL0     H 1221  12.358   5.139   5.744  1.8774 -1.8958  1.1100
    9MOL0     H 1222  11.682   6.021   5.767 -0.7486 -0.4984  0.8655
    9MOL0     H 1223  11.432   5.946   5.725  1.5133  2.5959  1.4336
    9MOL0     H 1224  11.115   5.700   5.774 -2.0306  0.6364 -1.6856
    9MOL0     H 1225  10.897   5.662   5.770  0.9920  1.6371 -1.4309
    9MOL0     H 1226   9.036   5.469   5.861 -1.2670  1.0269 -0.4694
    9MOL0     H 1227   8.845   5.562   5.930 -0.0509 -0.9550  0.6951
    9MOL0     H 1228   8.539   5.725   6.469  0.9364  0.3709  0.3029
    9MOL0     H 1229   8.346   5.871   6.479 -1.6335 -0.7342 -0.3888
    9MOL0     H 1230   8.299   6.073   6.465 -1.1834  2.1457  1.1598
    9MOL0     H 1231   8.207   6.187   6.374  0.2149  0.4545  0.8105
    9MOL0     H 1232   8.085   5.922   6.432  0.5217  0.8515  0.0700
    9MOL0     H 1233   8.007   6.077   6.378 -2.5882  0.4895  3.4647
    9MOL0     H 1234   8.109   6.172   6.601  2.2042 -1.4505 -1.7193
    9MOL0     H 1235   7.955   6.137   6.568 -0.5264 -0.8104 -2.6390
    9MOL0     H 1236   7.991   5.912   6.693 -0.9356  1.2209  1.7182
    9MOL0     H 1237   8.052   6.046   6.783  2.4439  0.2361 -0.5058
    9MOL0     H 1238   8.416   5.874   6.744  0.7192  2.0030  0.5519
    9MOL0     H 1239   8.396   5.943   6.051 -0.1722  0.4216  0.3484
    9MOL0     H 1240   8.599   5.741   5.960  1.0942 -1.2926  1.6328
    9MOL0     H 1241   8.604   5.921   5.951  0.7331  2.8419  4.1376
    9MOL0     H 1242   8.736   5.848   6.018  0.4390  0.3612  0.6922
   10MOL0     O 1243   4.936   5.520   5.100 -0.0388 -0.6136  0.4148
   10MOL0     C 1244   4.916   5.631   5.158  0.2659  0.1332 -0.0474
   10MOL0     O 1245   5.009   5.731   5.165  0.3651  1.0223 -0.4972
   10MOL0     C 1246   5.136   5.703   5.119  0.0955  0.7923 -0.1475
   10MOL0     C 1247   5.200   5.807   5.052  0.1064  0.6050  0.7725
   10MOL0     C 1248   5.336   5.797   5.018  0.2687  0.4358  1.1467
   10MOL0     C 1249   5.406   5.686   5.057  0.0302 -1.0756 -0.4484
   10MOL0     O 1250   5.541   5.662   5.029 -0.6940 -0.6632  0.1025
   10MOL0     C 1251   5.638   5.772   5.000  0.1306  0.1277 -0.4541
   10MOL0     C 1252   5.774   5.731   5.062 -0.0371  0.8362  0.8648
   10MOL0     C 1253   5.889   5.838   5.050 -0.3541  0.7797 -0.2755
   10MOL0     C 1254   6.030   5.793   5.088  0.8292  0.6170  0.4453
   10MOL0     C 1255   6.143   5.899   5.061  0.1396 -0.1613  0.3293
   10MOL0     C 1256   6.261   5.871   5.166 -0.0185  0.1941  0.2839
   10MOL0     C 1257   6.334   5.739   5.141  0.0348  0.5539  0.5717
   10MOL0     C 1258   6.434   5.752   5.027  0.0939 -0.7909  0.8800
   10MOL0     N 1259   6.541   5.819   5.083  0.5591  0.4126 -0.1685
   10MOL0     C 1260   6.660   5.774   5.135 -0.1971 -0.3152  0.2318
   10MOL0     C 1261   6.731   5.877   5.172  0.0849 -0.2620  0.2219
   10MOL0     C 1262   6.875   5.887   5.243  0.5183  0.3267 -0.0828
   10MOL0     C 1263   6.990   5.838   5.156 -0.0290 -0.8599  0.7342
   10MOL0     C 1264   7.131   5.891   5.191  0.6443 -0.2489  0.7860
   10MOL0     C 1265   7.149   6.039   5.157 -0.0266 -0.6338 -0.5014
   10MOL0     O 1266   7.255   6.055   5.047  0.2657 -0.1458 -0.1357
   10MOL0     C 1267   7.388   6.069   5.072  0.1062 -0.1732 -0.3999
   10MOL0     C 1268   7.448   6.009   5.177  1.1435  0.1633 -1.2610
   10MOL0     C 1269   7.592   6.015   5.195  0.1195 -0.0498 -0.3666
   10MOL0     C 1270   7.660   5.918   5.293  0.4593 -0.2541  0.3233
   10MOL0     C 1271   7.655   6.110   5.114  0.2974 -1.1196  0.2682
   10MOL0     C 1272   7.801   6.136   5.129  0.7070 -0.5959 -0.0316
   10MOL0     O 1273   7.837   6.261   5.094 -0.6257  0.7691  0.3742
   10MOL0     C 1274   7.951   6.291   5.024  0.7839 -0.1234 -0.4561
   10MOL0     C 1275   7.987   6.427   5.026 -0.0597  0.2418 -0.0847
   10MOL0     C 1276   8.101   6.465   4.949  0.5822  0.3359  0.5507
   10MOL0     C 1277   8.182   6.370   4.880 -0.5913  0.9875 -0.4020
   10MOL0     O 1278   8.291   6.418   4.811 -0.7923 -0.5083  0.3252
   10MOL0     C 1279   8.392   6.325   4.766  0.2291 -0.3717 -0.2685
   10MOL0     C 1280   8.505   6.391   4.705 -0.4186  0.0368  0.7610
   10MOL0     C 1281   8.600   6.460   4.793 -1.0478 -0.4263 -0.3083
   10MOL0     C 1282   8.725   6.514   4.720 -0.3771  1.0190 -0.5787
   10MOL0     C 1283   8.796   6.615   4.810 -0.6237 -0.2777  0.0206
   10MOL0     C 1284   8.930   6.674   4.762  0.5600  0.0438 -0.2260
   10MOL0     C 1285   8.915   6.755   4.642  0.2485 -0.1858 -0.2268
   10MOL0     C 1286   9.028   6.867   4.632 -0.0727 -0.0963 -0.7145
   10MOL0    Cl 1287   9.187   6.785   4.655  0.4015  0.1384  0.1142
   10MOL0     C 1288   8.138   6.238   4.882  0.3499  0.5723 -0.0175
   10MOL0     C 1289   8.020   6.200   4.949  0.8016 -0.2430  0.0685
   10MOL0     O 1290   7.880   6.043   5.159 -0.2095  0.1052 -0.1031
   10MOL0     C 1291   7.588   6.176   5.008  0.9426 -1.1155 -0.5749
   10MOL0     C 1292   7.448   6.160   4.993 -1.4208  0.5885 -0.1921
   10MOL0     N 1293   6.669   5.990   5.130  0.4426 -0.0396  0.1311
   10MOL0     N 1294   6.565   5.952   5.068  0.0169 -0.5366 -0.0847
   10MOL0     C 1295   5.344   5.585   5.130 -0.2521  0.8285  0.4365
   10MOL0     C 1296   5.207   5.594   5.164 -0.1917  1.4848 -0.3267
   10MOL0     C 1297   4.771   5.664   5.190  0.0844 -0.5271 -0.6457
   10MOL0     C 1298   4.739   5.802   5.222  0.6417  0.1975  0.4687
   10MOL0     C 1299   4.606   5.846   5.225  0.2638  0.6756 -0.5621
   10MOL0     C 1300   4.503   5.755   5.216 -0.6889  0.2213  0.2569
   10MOL0     O 1301   4.376   5.787   5.248  0.2868  0.3300 -0.1385
   10MOL0     C 1302   4.348   5.914   5.294 -0.0662 -0.4956 -0.6595
   10MOL0     C 1303   4.213   5.916   5.359  0.0187 -0.1851 -0.4335
   10MOL0     C 1304   4.189   6.042   5.438 -0.4793 -0.3916 -0.3646
   10MOL0     C 1305   4.047   6.037   5.499  0.3333  0.5379 -0.0950
   10MOL0     C 1306   3.991   6.175   5.504  0.1722  0.2460  0.3332
   10MOL0     C 1307   3.957   6.297   5.501 -0.1470  0.2761 -0.1675
   10MOL0     C 1308   4.534   5.622   5.207 -0.0009 -0.2388  0.2901
   10MOL0     C 1309   4.665   5.571   5.191 -0.0678  0.3449 -0.3706
   10MOL0     C 1310   4.682   5.425   5.172  0.7227 -0.5844  0.5896
   10MOL0     H 1311   5.134   5.887   5.019  1.0859  0.1461 -2.6814
   10MOL0     H 1312   5.373   5.878   4.957 -1.8145  1.0402  0.5791
   10MOL0     H 1313   5.604   5.865   5.047  0.6438  1.0241 -1.8221
   10MOL0     H 1314   5.645   5.790   4.893 -1.5859 -1.1467 -0.8382
   10MOL0     H 1315   5.756   5.704   5.166 -1.2101 -3.0199 -0.1501
   10MOL0     H 1316   5.819   5.644   5.012 -0.8630  0.6884  0.3580
   10MOL0     H 1317   5.913   5.856   4.945  0.1706  2.3301  0.0895
   10MOL0     H 1318   5.859   5.928   5.105 -2.4604 -0.6655  1.0898
   10MOL0     H 1319   6.035   5.773   5.195 -0.2434 -1.9446  0.1022
   10MOL0     H 1320   6.048   5.698   5.036 -3.0814 -0.2611  0.3810
   10MOL0     H 1321   6.119   6.005   5.069  0.1310 -0.1252 -0.1769
   10MOL0     H 1322   6.183   5.871   4.963  1.4842 -2.0236  1.3317
   10MOL0     H 1323   6.330   5.956   5.166  2.0168 -1.3141 -1.7668
   10MOL0     H 1324   6.216   5.867   5.265 -1.7079 -0.0055 -0.4543
   10MOL0     H 1325   6.258   5.667   5.110 -1.7371  2.3267  0.5784
   10MOL0     H 1326   6.381   5.682   5.222 -1.3855 -2.0437 -0.2938
   10MOL0     H 1327   6.457   5.647   5.006 -0.8585 -1.3679  2.4962
   10MOL0     H 1328   6.397   5.810   4.942  0.1062 -0.9970  0.7339
   10MOL0     H 1329   6.674   5.667   5.146 -0.9040 -0.4061  0.2948
   10MOL0     H 1330   6.873   5.847   5.345  2.0333  2.7499  0.9855
   10MOL0     H 1331   6.898   5.993   5.256 -1.5698  0.5402  2.9838
   10MOL0     H 1332   6.988   5.729   5.164  0.0524 -1.0174 -1.1132
   10MOL0     H 1333   6.967   5.870   5.054 -0.0212  2.2099  1.5922
   10MOL0     H 1334   7.143   5.890   5.300  1.1820 -1.0582  0.7255
   10MOL0     H 1335   7.208   5.831   5.143 -2.3961 -3.5794 -0.3800
   10MOL0     H 1336   7.062   6.090   5.114  1.7768  0.6410 -2.9132
   10MOL0     H 1337   7.180   6.092   5.247  0.3983 -0.4819 -0.7346
   10MOL0     H 1338   7.388   5.951   5.246  1.0572 -0.0652 -1.5230
   10MOL0     H 1339   7.681   5.816   5.259  0.4242  0.4573 -2.0578
   10MOL0     H 1340   7.594   5.912   5.380  0.5514  0.7308  0.4711
   10MOL0     H 1341   7.754   5.960   5.330  1.1155 -0.1613 -1.3446
   10MOL0     H 1342   7.931   6.503   5.079 -0.1142 -0.0201  0.2377
   10MOL0     H 1343   8.132   6.569   4.951  0.7404  0.2916  2.3771
   10MOL0     H 1344   8.428   6.276   4.858  0.3193  1.1283  0.5186
   10MOL0     H 1345   8.342   6.246   4.709 -2.3177 -2.1726  3.9383
   10MOL0     H 1346   8.559   6.315   4.647 -1.0060  0.3843 -0.2581
   10MOL0     H 1347   8.470   6.454   4.623  4.5737 -0.6589 -2.3431
   10MOL0     H 1348   8.644   6.389   4.864  1.2507  1.1167 -0.0799
   10MOL0     H 1349   8.547   6.541   4.844  0.1267 -0.0168  0.3131
   10MOL0     H 1350   8.697   6.571   4.631  0.5604 -0.8594 -2.1545
   10MOL0     H 1351   8.785   6.424   4.705 -0.6733  0.6326  0.4427
   10MOL0     H 1352   8.732   6.691   4.856  2.6574  2.5412  0.3151
   10MOL0     H 1353   8.823   6.549   4.893 -2.4288 -1.3783 -0.2060
   10MOL0     H 1354   8.997   6.590   4.745 -0.4422 -0.8428  0.1465
   10MOL0     H 1355   8.978   6.728   4.844  0.8682  0.8132 -0.8980
   10MOL0     H 1356   8.813   6.792   4.630  0.4235  0.6905  0.8445
   10MOL0     H 1357   8.937   6.695   4.553  1.7799  0.5506 -0.3860
   10MOL0     H 1358   9.004   6.934   4.715 -2.9621  0.6291 -2.0181
   10MOL0     H 1359   9.025   6.926   4.540 -1.8198  1.3809  0.2215
   10MOL0     H 1360   8.190   6.155   4.834  0.3776  1.2626 -1.2228
   10MOL0     H 1361   7.977   6.102   4.931 -1.0583  0.3985  0.7013
   10MOL0     H 1362   7.640   6.234   4.933 -0.8617  1.5391  0.0912
   10MOL0     H 1363   7.404   6.225   4.918 -2.3018  2.2338  1.6680
   10MOL0     H 1364   5.395   5.495   5.160  0.6930  1.6352  1.3186
   10MOL0     H 1365   5.162   5.507   5.212 -1.0329  1.3401 -1.3556
   10MOL0     H 1366   4.819   5.875   5.232 -0.4174  1.5107 -0.3103
   10MOL0     H 1367   4.581   5.950   5.242 -1.8211 -0.1056  1.6828
   10MOL0     H 1368   4.414   5.946   5.376  1.3488  2.9731 -2.9000
   10MOL0     H 1369   4.363   5.991   5.217 -3.1533  0.4569 -0.4439
   10MOL0     H 1370   4.203   5.838   5.435 -0.5534 -1.3719 -1.6953
   10MOL0     H 1371   4.132   5.895   5.289 -0.8790  2.3107 -0.2549
   10MOL0     H 1372   4.257   6.051   5.523  1.2711  0.6787 -1.8046
   10MOL0     H 1373   4.204   6.121   5.364 -0.3679 -1.0879 -1.1094
   10MOL0     H 1374   4.037   5.997   5.600 -2.0170  0.8893 -0.1422
   10MOL0     H 1375   3.978   5.977   5.440  0.4673 -0.4619  0.7404
   10MOL0     H 1376   3.936   6.402   5.501  2.0796  0.7935 -0.9815
   10MOL0     H 1377   4.454   5.551   5.227 -0.2885  0.0300  0.1175
   10MOL0     H 1378   4.585   5.379   5.197  0.0979 -0.3021 -1.1905
   10MOL0     H 1379   4.698   5.400   5.067 -0.2021 -0.7748  0.4794
   10MOL0     H 1380   4.745   5.378   5.249 -3.0054  0.1872  4.5447
   11MOL0     O 1381   6.845   1.660   0.752  0.8747 -0.1944  0.2231
   11MOL0     C 1382   6.886   1.656   0.632 -0.1616  0.1706 -0.4658
   11MOL0     O 1383   7.003   1.601   0.595  0.1489 -0.0206 -0.0966
   11MOL0     C 1384   7.097   1.565   0.687  0.0412  0.3439 -0.6421
   11MOL0     C 1385   7.163   1.451   0.644 -0.1113  0.9703  0.0484
   11MOL0     C 1386   7.272   1.403   0.712  0.1870  0.1661  0.2274
   11MOL0     C 1387   7.310   1.463   0.833  0.2495  0.3705 -0.9838
   11MOL0     O 1388   7.427   1.450   0.896 -0.3275  0.0500 -0.2477
   11MOL0     C 1389   7.542   1.416   0.816  0.5111  0.0096  0.9223
   11MOL0     C 1390   7.674   1.433   0.885  0.1238 -0.6706 -0.4261
   11MOL0     C 1391   7.787   1.375   0.801  0.2014 -0.7000 -0.0871
   11MOL0     C 1392   7.914   1.419   0.874  0.1781  0.0839  0.2515
   11MOL0     C 1393   8.043   1.369   0.805 -1.0310  0.4583 -0.1723
   11MOL0     C 1394   8.167   1.371   0.896  0.3474  0.0834 -0.2815
   11MOL0     C 1395   8.248   1.501   0.902  0.7812 -0.6178  0.3401
   11MOL0     C 1396   8.330   1.517   1.030 -0.4913  0.3286  0.3215
   11MOL0     N 1397   8.436   1.412   1.036  0.5246  0.0731 -0.0840
   11MOL0     C 1398   8.565   1.424   0.991  0.6443  0.4750  0.9243
   11MOL0     C 1399   8.625   1.311   1.013  0.0201  0.3295 -0.0083
   11MOL0     C 1400   8.754   1.271   0.971 -0.1371  0.1111  0.7777
   11MOL0     C 1401   8.871   1.364   0.996  0.2048 -0.0666 -0.1114
   11MOL0     C 1402   8.904   1.375   1.146  0.4756  0.1075 -1.0747
   11MOL0     C 1403   9.032   1.456   1.158 -0.3336  0.0580  0.0999
   11MOL0     O 1404   9.009   1.597   1.126 -0.9399  0.3946 -0.2972
   11MOL0     C 1405   9.112   1.682   1.117 -0.1475  0.0821  0.2049
   11MOL0     C 1406   9.099   1.814   1.150  0.1051 -0.1887  0.0182
   11MOL0     C 1407   9.197   1.912   1.130  0.3455 -0.0685  0.0072
   11MOL0     C 1408   9.152   2.055   1.154  0.4109 -1.1850 -0.5960
   11MOL0     C 1409   9.329   1.869   1.099  0.4172  0.1671  0.1753
   11MOL0     C 1410   9.445   1.958   1.076 -0.6568  1.0060 -0.0188
   11MOL0     O 1411   9.566   1.893   1.044  0.3531  0.2812  0.0835
   11MOL0     C 1412   9.668   1.971   1.012 -0.3143 -0.1995  0.0711
   11MOL0     C 1413   9.784   1.956   1.083 -0.1885  0.7698 -0.2957
   11MOL0     C 1414   9.906   2.028   1.052 -0.0878  0.8707  0.0944
   11MOL0     C 1415   9.907   2.112   0.945  0.1672  0.3039  0.9206
   11MOL0     O 1416  10.028   2.172   0.929  0.6444 -0.0200 -0.0741
   11MOL0     C 1417  10.059   2.178   0.787  0.3362  0.0604 -0.0174
   11MOL0     C 1418  10.210   2.189   0.764 -0.0090  0.0337  0.0923
   11MOL0     C 1419  10.271   2.063   0.821 -0.1586  0.2448 -0.2372
   11MOL0     C 1420  10.261   1.960   0.706  0.4436  0.8369  0.2565
   11MOL0     C 1421  10.385   1.977   0.607  0.2796  0.0404  0.0425
   11MOL0     C 1422  10.384   1.897   0.476  0.0224 -0.4164 -0.1547
   11MOL0     C 1423  10.503   1.946   0.381  0.2311 -0.1493  0.2234
   11MOL0     C 1424  10.542   1.836   0.288 -0.5329 -0.2261  0.4570
   11MOL0    Cl 1425  10.634   1.705   0.369  0.0456  0.1315 -0.2263
   11MOL0     C 1426   9.791   2.137   0.870  0.2867  0.5839  0.0048
   11MOL0     C 1427   9.677   2.064   0.906  0.6582  0.4090  0.1989
   11MOL0     O 1428   9.435   2.072   1.102  0.5959 -0.1941 -0.2482
   11MOL0     C 1429   9.345   1.728   1.069  0.1333 -0.9858 -0.2697
   11MOL0     C 1430   9.244   1.637   1.083  0.8434 -0.5424 -0.5638
   11MOL0     N 1431   8.533   1.221   1.063  0.7098 -0.0371  0.2546
   11MOL0     N 1432   8.419   1.282   1.068  0.2822 -0.0022 -0.1449
   11MOL0     C 1433   7.241   1.573   0.881  0.1968 -0.4903  1.1305
   11MOL0     C 1434   7.133   1.628   0.810  0.1818 -0.3020 -0.0424
   11MOL0     C 1435   6.783   1.692   0.526  0.3506  0.1212 -0.2025
   11MOL0     C 1436   6.653   1.706   0.579  0.0783  0.4858  0.0470
   11MOL0     C 1437   6.552   1.743   0.496 -0.4134  0.2473  0.3018
   11MOL0     C 1438   6.572   1.742   0.357  0.4036 -0.3781  0.9447
   11MOL0     O 1439   6.473   1.762   0.264  1.4402 -0.1204  0.3031
   11MOL0     C 1440   6.335   1.771   0.297  0.8436 -0.2463  0.2325
   11MOL0     C 1441   6.254   1.652   0.355  0.1623 -0.2685 -0.4177
   11MOL0     C 1442   6.309   1.526   0.278  0.3850 -0.4655 -0.1761
   11MOL0     C 1443   6.228   1.408   0.326  0.2721 -0.2131 -0.5266
   11MOL0     C 1444   6.281   1.278   0.280  0.1784 -0.8254  0.6539
   11MOL0     C 1445   6.331   1.171   0.263 -0.4114 -0.1691  0.7225
   11MOL0     C 1446   6.701   1.716   0.308 -0.3654  0.1711  0.3034
   11MOL0     C 1447   6.807   1.688   0.388  0.2975 -0.3253 -0.6989
   11MOL0     C 1448   6.938   1.654   0.332 -0.8769  0.3822  0.7275
   11MOL0     H 1449   7.131   1.418   0.546  0.0516  0.7290  0.0762
   11MOL0     H 1450   7.331   1.319   0.678 -1.3709 -2.3059  3.0537
   11MOL0     H 1451   7.546   1.492   0.737  0.1424 -1.2379 -0.3410
   11MOL0     H 1452   7.531   1.314   0.777  0.4485 -0.4653  2.1372
   11MOL0     H 1453   7.691   1.540   0.902 -2.6891  0.1326 -2.0317
   11MOL0     H 1454   7.664   1.380   0.980 -2.9338 -0.8931 -0.7957
   11MOL0     H 1455   7.772   1.269   0.780  0.6152 -0.2411 -3.1054
   11MOL0     H 1456   7.795   1.426   0.704  1.8030  0.8981  0.8246
   11MOL0     H 1457   7.909   1.528   0.869  1.3496  0.0763 -2.4599
   11MOL0     H 1458   7.904   1.397   0.981 -1.2684 -1.1858 -0.1113
   11MOL0     H 1459   8.042   1.423   0.710 -0.6425 -0.8052 -0.9230
   11MOL0     H 1460   8.029   1.265   0.772 -1.9657  0.5388 -0.0532
   11MOL0     H 1461   8.127   1.352   0.996  0.4614  0.2960 -0.1967
   11MOL0     H 1462   8.234   1.290   0.865 -0.2235 -0.5106 -0.0084
   11MOL0     H 1463   8.169   1.577   0.907  0.5926 -0.8404  0.8118
   11MOL0     H 1464   8.305   1.498   0.809 -0.8606 -1.1424 -0.7094
   11MOL0     H 1465   8.372   1.616   1.047 -0.3003  0.0230  1.8086
   11MOL0     H 1466   8.264   1.502   1.117  1.0846 -0.4725  1.4315
   11MOL0     H 1467   8.605   1.506   0.932  0.2854 -0.3438 -0.4890
   11MOL0     H 1468   8.745   1.258   0.863  0.9078  1.6372  0.4713
   11MOL0     H 1469   8.767   1.170   1.011  0.7673 -0.9668 -2.0016
   11MOL0     H 1470   8.959   1.320   0.947  0.4356  0.6991 -0.3927
   11MOL0     H 1471   8.860   1.462   0.948 -2.0637 -1.1698 -2.0468
   11MOL0     H 1472   8.831   1.434   1.202 -0.8147  0.4887 -3.0646
   11MOL0     H 1473   8.919   1.273   1.183 -0.5381 -0.1223 -1.2764
   11MOL0     H 1474   9.073   1.440   1.258  3.5114  0.6006 -1.2097
   11MOL0     H 1475   9.103   1.423   1.081 -1.0612  0.9423 -0.9665
   11MOL0     H 1476   9.007   1.856   1.190 -0.6956  1.7786 -3.4523
   11MOL0     H 1477   9.189   2.085   1.252  4.1275  0.9788 -2.4470
   11MOL0     H 1478   9.044   2.049   1.143  0.3685  0.0927 -1.0470
   11MOL0     H 1479   9.193   2.123   1.079  0.7124 -1.6627 -0.8703
   11MOL0     H 1480   9.777   1.881   1.161  0.5219 -0.0758 -1.0101
   11MOL0     H 1481   9.998   2.003   1.104  3.2340  3.7202 -3.7497
   11MOL0     H 1482  10.018   2.091   0.736 -1.7257  0.4626  0.8782
   11MOL0     H 1483  10.017   2.269   0.743 -1.5670 -0.1637  1.2626
   11MOL0     H 1484  10.221   2.197   0.655  2.8131  0.9137  0.3677
   11MOL0     H 1485  10.256   2.272   0.818  2.3837 -0.2520 -1.3452
   11MOL0     H 1486  10.219   2.030   0.911  0.0374 -2.4821 -1.0222
   11MOL0     H 1487  10.377   2.076   0.842 -0.0198  1.6008 -1.5730
   11MOL0     H 1488  10.174   1.964   0.640  0.7947  1.0666 -0.2001
   11MOL0     H 1489  10.261   1.857   0.744 -0.8533  0.6413 -0.2334
   11MOL0     H 1490  10.400   2.080   0.573  3.6413 -0.0871  0.7780
   11MOL0     H 1491  10.480   1.948   0.652  0.0411 -0.3697  0.2803
   11MOL0     H 1492  10.288   1.912   0.426 -1.0644 -0.8278  1.7121
   11MOL0     H 1493  10.397   1.790   0.494 -1.0543 -0.0973  3.3995
   11MOL0     H 1494  10.591   1.971   0.441  2.7711 -1.6188 -2.6287
   11MOL0     H 1495  10.459   2.031   0.328 -4.0137  0.1554  3.6569
   11MOL0     H 1496  10.610   1.888   0.221 -2.3547  0.4049 -0.9705
   11MOL0     H 1497  10.458   1.798   0.230 -0.4585 -0.7552  0.6863
   11MOL0     H 1498   9.785   2.208   0.789  0.3364 -0.5294 -1.0112
   11MOL0     H 1499   9.597   2.081   0.835  1.6121 -0.5498 -1.1740
   11MOL0     H 1500   9.442   1.692   1.035  0.4391 -1.8550  1.3950
   11MOL0     H 1501   9.268   1.531   1.071 -1.6379 -1.2741  0.2512
   11MOL0     H 1502   7.284   1.615   0.972 -0.0923  1.4223  0.4163
   11MOL0     H 1503   7.094   1.712   0.867  1.1658 -0.4954  0.9364
   11MOL0     H 1504   6.634   1.704   0.686  1.4107  1.8978  0.3551
   11MOL0     H 1505   6.453   1.771   0.528 -1.7855 -0.3360 -2.9713
   11MOL0     H 1506   6.312   1.847   0.372 -0.6936 -0.3450 -0.0950
   11MOL0     H 1507   6.278   1.807   0.210 -1.3791  1.8368  2.4085
   11MOL0     H 1508   6.147   1.663   0.335  0.4009 -1.8149 -3.0705
   11MOL0     H 1509   6.275   1.637   0.461 -1.7310 -0.4650 -0.0317
   11MOL0     H 1510   6.299   1.542   0.170 -0.7779  1.0021  0.1085
   11MOL0     H 1511   6.414   1.516   0.305  0.0530 -0.7084  1.0972
   11MOL0     H 1512   6.121   1.416   0.306 -0.3116 -1.4844  1.8084
   11MOL0     H 1513   6.242   1.408   0.434 -1.4569 -0.9970 -0.2693
   11MOL0     H 1514   6.370   1.071   0.262  1.6941  0.6234  0.7445
   11MOL0     H 1515   6.705   1.699   0.201  2.3563 -0.0141  0.3695
   11MOL0     H 1516   6.951   1.546   0.338 -2.5937  0.1900  1.6831
   11MOL0     H 1517   6.941   1.683   0.226  0.2399 -3.8999 -0.5943
   11MOL0     H 1518   7.018   1.696   0.394  1.3076 -1.7954 -0.4330
   12MOL0     O 1519   0.401  10.412   7.869  0.4257  0.0450 -0.0178
   12MOL0     C 1520   0.508  10.358   7.893 -0.3770 -0.2338  0.5628
   12MOL0     O 1521   0.526  10.250   7.974 -0.0848 -0.3657 -0.7736
   12MOL0     C 1522   0.426  10.166   8.016  0.5253 -0.1969 -0.1020
   12MOL0     C 1523   0.441  10.097   8.136 -0.1461 -0.0918 -0.2125
   12MOL0     C 1524   0.339  10.020   8.197 -0.5146 -0.2341 -0.1057
   12MOL0     C 1525   0.219  10.003   8.126 -0.4938 -0.6843 -0.1142
   12MOL0     O 1526   0.135   9.919   8.186 -0.0279 -0.0650 -0.1599
   12MOL0     C 1527   0.017   9.877   8.124 -0.2115  0.1363  1.3757
   12MOL0     C 1528  -0.047   9.761   8.204 -0.6905 -0.6246  0.1808
   12MOL0     C 1529   0.044   9.644   8.217  0.4535  1.2265 -0.4938
   12MOL0     C 1530  -0.024   9.523   8.297  0.4180 -0.7907  0.6961
   12MOL0     C 1531   0.082   9.418   8.330 -0.8996  0.4471  0.0113
   12MOL0     C 1532   0.151   9.353   8.212 -0.1367 -0.4826 -1.2635
   12MOL0     C 1533   0.233   9.232   8.262 -0.3068 -0.0629 -0.1556
   12MOL0     C 1534   0.292   9.161   8.133 -0.2931 -0.0175  0.0130
   12MOL0     N 1535   0.438   9.182   8.110 -0.4862 -0.0328 -0.5781
   12MOL0     C 1536   0.501   9.302   8.104 -0.1381 -0.2168 -0.5091
   12MOL0     C 1537   0.627   9.266   8.061  0.2292 -0.5054  0.1833
   12MOL0     C 1538   0.739   9.367   8.032  0.3015  0.1429 -0.4104
   12MOL0     C 1539   0.862   9.333   8.125  0.2386  0.6328 -0.7608
   12MOL0     C 1540   0.976   9.425   8.073 -0.5406  0.7777  0.4943
   12MOL0     C 1541   1.099   9.434   8.163 -0.1713  0.9790  0.2919
   12MOL0     O 1542   1.213   9.510   8.097  0.1438 -0.8849  0.0445
   12MOL0     C 1543   1.296   9.437   8.011 -0.0399 -0.3434 -0.9691
   12MOL0     C 1544   1.288   9.303   7.984  0.0026 -0.3628  0.2989
   12MOL0     C 1545   1.377   9.242   7.890 -0.5693  0.5280 -0.8647
   12MOL0     C 1546   1.368   9.090   7.876  0.3520 -0.8012  0.2035
   12MOL0     C 1547   1.473   9.320   7.819 -0.1417  0.2261 -0.7598
   12MOL0     C 1548   1.574   9.266   7.723  0.8257 -0.4547  0.2793
   12MOL0     O 1549   1.681   9.348   7.683  0.6268 -0.2510 -1.1575
   12MOL0     C 1550   1.777   9.310   7.595 -0.1859 -0.2324  0.2950
   12MOL0     C 1551   1.737   9.291   7.462  0.8737 -0.2540 -0.8390
   12MOL0     C 1552   1.822   9.227   7.378  0.1561  0.2448  0.0946
   12MOL0     C 1553   1.950   9.192   7.414 -0.1375 -1.0687 -0.5379
   12MOL0     O 1554   2.024   9.133   7.314 -0.0466  0.0831  0.2681
   12MOL0     C 1555   2.163   9.116   7.328  0.8922  0.5469  0.2973
   12MOL0     C 1556   2.232   9.032   7.217 -0.2538  0.8643 -0.3977
   12MOL0     C 1557   2.208   8.886   7.236 -0.1053 -0.6830  0.5431
   12MOL0     C 1558   2.063   8.851   7.194  0.2992  0.0317  0.0698
   12MOL0     C 1559   2.056   8.698   7.172 -0.0337  0.6262 -0.0495
   12MOL0     C 1560   1.929   8.655   7.104 -0.4084  0.6358 -0.0793
   12MOL0     C 1561   1.899   8.502   7.117 -0.3349 -0.2042 -0.4560
   12MOL0     C 1562   2.011   8.411   7.071 -0.1997  0.2113  0.3464
   12MOL0    Cl 1563   2.035   8.439   6.889 -0.1145  0.4164 -0.2521
   12MOL0     C 1564   1.991   9.222   7.548 -0.5954 -0.4531  0.2284
   12MOL0     C 1565   1.904   9.285   7.637  0.9573  0.6518  0.5583
   12MOL0     O 1566   1.550   9.163   7.672  0.5688  0.7099  0.5050
   12MOL0     C 1567   1.475   9.458   7.849  0.9863 -0.3625 -0.4497
   12MOL0     C 1568   1.385   9.515   7.941  0.3009 -0.4740  0.6017
   12MOL0     N 1569   0.629   9.134   8.036  0.4275 -0.1870  0.4969
   12MOL0     N 1570   0.518   9.083   8.060 -0.3243 -0.5989  0.1231
   12MOL0     C 1571   0.201  10.053   7.998 -0.0762 -0.4723  0.1701
   12MOL0     C 1572   0.304  10.139   7.943  0.1023 -0.1645  0.2707
   12MOL0     C 1573   0.633  10.430   7.852  0.0454  0.2447 -0.4745
   12MOL0     C 1574   0.757  10.383   7.905 -0.0580 -0.5882 -0.6514
   12MOL0     C 1575   0.881  10.438   7.862 -0.3037  0.2720 -0.0181
   12MOL0     C 1576   0.882  10.535   7.771 -0.5021  0.1361 -0.1669
   12MOL0     O 1577   1.006  10.577   7.740 -0.2192  0.8482 -0.1559
   12MOL0     C 1578   1.028  10.708   7.691  0.2303  0.0656 -0.2682
   12MOL0     C 1579   1.142  10.723   7.583  0.3574  0.1650 -0.4382
   12MOL0     C 1580   1.287  10.686   7.625  0.3068  0.7584  0.3300
   12MOL0     C 1581   1.325  10.750   7.761 -0.2529 -0.9480  0.3576
   12MOL0     C 1582   1.467  10.731   7.800  0.5356 -1.7955  0.1198
   12MOL0     C 1583   1.575  10.728   7.854  0.1065  0.6237  0.2704
   12MOL0     C 1584   0.763  10.571   7.710  0.2477  0.6769  0.3143
   12MOL0     C 1585   0.639  10.520   7.737  0.3972 -0.2240 -0.2896
   12MOL0     C 1586   0.514  10.577   7.670  0.1045 -0.4245  0.1414
   12MOL0     H 1587   0.535  10.127   8.182 -0.6194  3.3538 -1.2275
   12MOL0     H 1588   0.353   9.978   8.296  1.0698  0.3857 -0.0297
   12MOL0     H 1589   0.039   9.841   8.023  1.2256  1.2838  1.2578
   12MOL0     H 1590  -0.050   9.963   8.125  2.1543  2.0984  2.3103
   12MOL0     H 1591  -0.063   9.790   8.308  1.2355 -0.5800  0.4944
   12MOL0     H 1592  -0.136   9.717   8.157  0.6100 -1.9654 -1.1741
   12MOL0     H 1593   0.072   9.615   8.115  1.1564  3.3152 -0.9436
   12MOL0     H 1594   0.137   9.675   8.265  0.2669 -0.2133  0.8797
   12MOL0     H 1595  -0.059   9.569   8.390 -2.7185 -2.5661  0.5123
   12MOL0     H 1596  -0.105   9.475   8.242  0.5717 -0.2057 -0.0655
   12MOL0     H 1597   0.025   9.342   8.385  2.1690  0.1366  3.1332
   12MOL0     H 1598   0.154   9.451   8.405  1.3294 -4.5319  0.4947
   12MOL0     H 1599   0.075   9.313   8.144 -0.1258 -0.0615 -1.5281
   12MOL0     H 1600   0.206   9.432   8.160 -2.4742  1.2540 -1.2764
   12MOL0     H 1601   0.167   9.164   8.316 -1.9911  0.6182 -1.2920
   12MOL0     H 1602   0.318   9.268   8.321 -0.8587 -1.6127  1.7204
   12MOL0     H 1603   0.266   9.056   8.144 -2.6639  0.4886 -0.1299
   12MOL0     H 1604   0.245   9.201   8.043 -2.9928  0.2863  1.4300
   12MOL0     H 1605   0.473   9.403   8.131  2.1143  0.4960 -0.6373
   12MOL0     H 1606   0.701   9.468   8.051 -0.2631 -0.2744  0.7420
   12MOL0     H 1607   0.761   9.344   7.927  1.0937 -0.4003 -0.1374
   12MOL0     H 1608   0.838   9.363   8.228 -0.1062  0.1451 -0.6929
   12MOL0     H 1609   0.885   9.226   8.119 -2.1797 -0.0365  0.4258
   12MOL0     H 1610   1.017   9.384   7.980  0.2919  1.3275  0.6101
   12MOL0     H 1611   0.946   9.528   8.050  3.6933  1.7938 -1.5671
   12MOL0     H 1612   1.070   9.495   8.249  2.6041  1.7866  0.7561
   12MOL0     H 1613   1.136   9.339   8.202 -0.0609  2.1387  3.2277
   12MOL0     H 1614   1.225   9.239   8.045 -0.1815  0.4600  0.9950
   12MOL0     H 1615   1.465   9.044   7.898  0.5692 -1.9203 -2.6972
   12MOL0     H 1616   1.344   9.064   7.773  0.5285  0.8224 -0.2640
   12MOL0     H 1617   1.291   9.041   7.936  2.2580 -3.2322  0.8461
   12MOL0     H 1618   1.638   9.310   7.422  0.8254 -0.4183 -0.8009
   12MOL0     H 1619   1.804   9.200   7.274  0.2375 -0.2017  0.1958
   12MOL0     H 1620   2.195   9.221   7.329 -0.2964  0.9650 -0.9764
   12MOL0     H 1621   2.166   9.075   7.429  0.1283  2.0391  0.9617
   12MOL0     H 1622   2.197   9.074   7.122 -1.3638 -0.0045 -0.3934
   12MOL0     H 1623   2.340   9.045   7.232 -0.1842 -1.0762  1.1375
   12MOL0     H 1624   2.215   8.867   7.343  1.1190 -1.2655  0.3799
   12MOL0     H 1625   2.288   8.832   7.186  1.1679  0.1888  1.5869
   12MOL0     H 1626   2.040   8.902   7.100 -0.2334  1.8830  1.1623
   12MOL0     H 1627   2.003   8.875   7.282  1.0431 -2.5474  1.3640
   12MOL0     H 1628   2.131   8.661   7.101  0.3203 -1.9065  1.5405
   12MOL0     H 1629   2.065   8.645   7.267 -2.0418  1.6397  0.7593
   12MOL0     H 1630   1.921   8.683   6.999  0.8346 -1.5307 -0.8038
   12MOL0     H 1631   1.854   8.711   7.161 -0.9331  0.1372 -0.2755
   12MOL0     H 1632   1.809   8.479   7.060  0.0710  2.7163 -2.4986
   12MOL0     H 1633   1.877   8.473   7.220 -0.7378 -1.7122 -0.9410
   12MOL0     H 1634   1.976   8.310   7.094  0.0238 -0.3755 -1.7128
   12MOL0     H 1635   2.103   8.426   7.127 -1.2567  0.5060  2.0639
   12MOL0     H 1636   2.092   9.205   7.583 -0.8366 -1.4132  0.4860
   12MOL0     H 1637   1.935   9.305   7.739  1.0546 -0.3051  0.7249
   12MOL0     H 1638   1.542   9.528   7.799  0.0931  0.6084 -0.3374
   12MOL0     H 1639   1.389   9.620   7.967  1.9343 -0.7408  1.5536
   12MOL0     H 1640   0.109  10.040   7.942 -1.7540 -0.7281  2.7769
   12MOL0     H 1641   0.284  10.189   7.849  1.1893  0.5537  0.4039
   12MOL0     H 1642   0.758  10.312   7.987  1.2945  1.9966  1.7897
   12MOL0     H 1643   0.975  10.399   7.901 -0.3913  1.0019  0.9349
   12MOL0     H 1644   0.946  10.744   7.627  0.8007  1.5262 -0.2162
   12MOL0     H 1645   1.038  10.777   7.775 -0.3742 -0.2498  0.0653
   12MOL0     H 1646   1.128  10.827   7.551 -0.4273  0.3847  0.5818
   12MOL0     H 1647   1.109  10.664   7.497 -1.3090 -2.1433  1.6799
   12MOL0     H 1648   1.291  10.577   7.634  0.2314  0.6609 -0.7042
   12MOL0     H 1649   1.358  10.707   7.544  0.0566 -1.3303 -0.4830
   12MOL0     H 1650   1.264  10.722   7.848  0.3193  2.8750  2.2278
   12MOL0     H 1651   1.307  10.858   7.756  4.3281 -0.0522 -2.0519
   12MOL0     H 1652   1.675  10.706   7.885  0.0903 -0.0675 -0.1578
   12MOL0     H 1653   0.770  10.634   7.622  0.9648  0.5340  0.2615
   12MOL0     H 1654   0.552  10.638   7.588 -1.4979  2.5351  1.4381
   12MOL0     H 1655   0.458  10.494   7.625 -1.1944 -1.0250  2.6572
   12MOL0     H 1656   0.455  10.641   7.737  0.3191  1.3036 -1.2537
   13MOL0     O 1657   1.179   2.925   6.178  0.0845  1.0925 -0.1541
   13MOL0     C 1658   1.127   2.916   6.067  0.0626 -0.3381  0.2997
   13MOL0     O 1659   1.194   2.862   5.950  0.9327 -0.0949 -0.6101
   13MOL0     C 1660   1.325   2.825   5.976  0.7844  0.2658 -0.2651
   13MOL0     C 1661   1.359   2.727   6.074  0.2395  0.5055 -0.2285
   13MOL0     C 1662   1.496   2.694   6.086  0.7186  0.2715 -0.2216
   13MOL0     C 1663   1.604   2.741   6.004  0.1052  0.0918  0.3757
   13MOL0     O 1664   1.732   2.690   6.006  0.0443 -0.3349 -0.0718
   13MOL0     C 1665   1.765   2.577   6.087 -0.0070 -0.6493 -0.0664
   13MOL0     C 1666   1.788   2.614   6.231 -0.5523  0.7845  0.1798
   13MOL0     C 1667   1.925   2.674   6.251 -0.5373  0.3264  0.7235
   13MOL0     C 1668   1.971   2.677   6.403  1.2601  0.0707  0.6705
   13MOL0     C 1669   2.121   2.645   6.417 -0.1401  0.6191 -0.5282
   13MOL0     C 1670   2.154   2.643   6.565  0.3866 -0.0434 -0.2582
   13MOL0     C 1671   2.272   2.730   6.589 -0.1802 -0.5140  0.1873
   13MOL0     C 1672   2.265   2.780   6.734  0.7109  0.1348  0.5186
   13MOL0     N 1673   2.383   2.856   6.760  0.4729  0.0681 -0.7702
   13MOL0     C 1674   2.391   2.990   6.734  0.8820 -0.1003 -0.0461
   13MOL0     C 1675   2.506   3.024   6.795  0.1395 -0.2644 -0.0684
   13MOL0     C 1676   2.541   3.169   6.796 -0.4091 -0.4285  0.5581
   13MOL0     C 1677   2.677   3.192   6.860 -0.6172  0.7631  0.0152
   13MOL0     C 1678   2.718   3.333   6.866 -0.4348  0.4796 -1.2191
   13MOL0     C 1679   2.829   3.348   6.978  0.1380  0.4051 -0.7051
   13MOL0     O 1680   2.847   3.487   7.010  0.1046  0.6298 -0.3041
   13MOL0     C 1681   2.975   3.540   6.997  0.5614  0.3888 -0.0616
   13MOL0     C 1682   2.973   3.676   6.970  0.4232 -0.0136 -0.1923
   13MOL0     C 1683   3.088   3.745   6.932  0.3130 -0.1767 -0.3356
   13MOL0     C 1684   3.062   3.887   6.904  0.0960  0.7847  0.5822
   13MOL0     C 1685   3.213   3.686   6.941 -0.5366  0.0544  0.4256
   13MOL0     C 1686   3.341   3.743   6.917  0.5322 -0.1031 -0.7817
   13MOL0     O 1687   3.447   3.650   6.902 -0.1201 -0.1850 -0.3034
   13MOL0     C 1688   3.573   3.699   6.866  0.5260 -0.6188 -0.6963
   13MOL0     C 1689   3.595   3.714   6.734  0.3142 -0.1781  0.9155
   13MOL0     C 1690   3.717   3.768   6.689 -1.1983 -0.5404 -0.3704
   13MOL0     C 1691   3.812   3.808   6.781  0.1590  0.5982 -0.9554
   13MOL0     O 1692   3.929   3.862   6.741 -0.0326 -0.3217 -0.4021
   13MOL0     C 1693   3.964   3.994   6.783 -0.4118  0.2092  0.1936
   13MOL0     C 1694   4.116   4.014   6.788 -0.2226 -0.5291  0.0484
   13MOL0     C 1695   4.193   3.896   6.842  0.0349  0.6123  0.8832
   13MOL0     C 1696   4.343   3.912   6.833 -0.5405 -0.2481 -0.4254
   13MOL0     C 1697   4.401   4.034   6.911 -0.0684 -0.4572 -0.4005
   13MOL0     C 1698   4.546   4.005   6.947 -0.4340 -0.4620 -0.1804
   13MOL0     C 1699   4.615   4.123   7.009 -0.0500 -0.1826  0.1302
   13MOL0     C 1700   4.765   4.099   7.035  0.6586 -0.4478  0.5617
   13MOL0    Cl 1701   4.861   4.045   6.898  0.2438  0.2177  0.1403
   13MOL0     C 1702   3.794   3.785   6.916  0.0319 -0.9046 -0.0920
   13MOL0     C 1703   3.672   3.736   6.960 -1.0575  0.0618 -0.0289
   13MOL0     O 1704   3.357   3.866   6.904  0.5610 -0.0413  0.1761
   13MOL0     C 1705   3.219   3.546   6.980  0.1650 -0.0900 -0.4130
   13MOL0     C 1706   3.102   3.478   7.009  0.7905  0.5602  0.4681
   13MOL0     N 1707   2.562   2.914   6.853 -0.5515  0.0531  0.4770
   13MOL0     N 1708   2.493   2.814   6.827  0.2500  0.2401  0.3435
   13MOL0     C 1709   1.565   2.822   5.895 -0.1005 -0.5953  0.0634
   13MOL0     C 1710   1.430   2.865   5.889 -0.8403 -0.8018  1.1138
   13MOL0     C 1711   0.983   2.958   6.048 -0.4675  0.4055 -0.0072
   13MOL0     C 1712   0.925   2.929   5.923 -0.2934 -0.2141 -0.1911
   13MOL0     C 1713   0.786   2.963   5.903  0.1354  0.8952  0.4491
   13MOL0     C 1714   0.702   3.030   5.992 -0.1406  0.3179 -0.3720
   13MOL0     O 1715   0.575   3.064   5.973  0.0311 -0.5638 -0.6289
   13MOL0     C 1716   0.499   2.998   5.871  0.2640 -0.2115 -0.5843
   13MOL0     C 1717   0.353   3.038   5.873 -0.3185  0.2720  0.4334
   13MOL0     C 1718   0.282   2.956   5.985  0.5347  0.4846  0.0369
   13MOL0     C 1719   0.161   2.869   5.935  0.4563  0.8220 -0.0388
   13MOL0     C 1720   0.044   2.949   5.887 -1.2329 -0.2960  0.0963
   13MOL0     C 1721  -0.054   2.991   5.822  0.0003 -0.3648 -0.6178
   13MOL0     C 1722   0.769   3.068   6.113  0.0174  0.1979 -1.1909
   13MOL0     C 1723   0.907   3.034   6.142  0.0330  0.4449  0.0426
   13MOL0     C 1724   0.963   3.085   6.277  0.8501  0.0638 -1.0178
   13MOL0     H 1725   1.278   2.684   6.133  0.2022  0.7449 -0.1007
   13MOL0     H 1726   1.520   2.614   6.156  0.4744  0.2655 -0.1431
   13MOL0     H 1727   1.851   2.534   6.035  0.3492  2.7145 -2.6565
   13MOL0     H 1728   1.696   2.492   6.080  3.4044 -3.8839  1.9414
   13MOL0     H 1729   1.713   2.685   6.265  1.8097  3.3453  0.4386
   13MOL0     H 1730   1.775   2.524   6.291 -1.0032  1.5671  1.2669
   13MOL0     H 1731   1.982   2.601   6.193 -0.8708 -0.2823  1.1474
   13MOL0     H 1732   1.935   2.773   6.207  1.5709  1.0540  2.6199
   13MOL0     H 1733   1.963   2.779   6.440  2.3848  1.5090 -2.6384
   13MOL0     H 1734   1.908   2.612   6.464 -0.8622  2.3328  0.9960
   13MOL0     H 1735   2.179   2.719   6.361  1.3801  1.7598  2.3412
   13MOL0     H 1736   2.151   2.544   6.386 -0.8488 -0.3065  1.6684
   13MOL0     H 1737   2.065   2.672   6.621 -0.6094 -1.3731 -1.0731
   13MOL0     H 1738   2.179   2.544   6.603  1.8031 -0.2999 -1.7245
   13MOL0     H 1739   2.282   2.811   6.516 -0.5229  2.4421  3.2006
   13MOL0     H 1740   2.366   2.674   6.597  1.1191  1.5309  0.0107
   13MOL0     H 1741   2.178   2.844   6.752 -0.9252 -1.8035 -0.1591
   13MOL0     H 1742   2.248   2.696   6.803 -2.4880  1.0919  1.0494
   13MOL0     H 1743   2.304   3.043   6.696  0.6496 -0.3135  0.1844
   13MOL0     H 1744   2.466   3.223   6.854 -0.6823 -1.3393  1.0759
   13MOL0     H 1745   2.552   3.210   6.695 -0.4425 -0.6892  0.4487
   13MOL0     H 1746   2.686   3.146   6.959 -1.0838 -0.0852 -0.3324
   13MOL0     H 1747   2.760   3.147   6.805  0.0427  3.1957 -1.1417
   13MOL0     H 1748   2.755   3.360   6.767  0.4054 -2.4612 -1.7825
   13MOL0     H 1749   2.629   3.389   6.897  0.6860  0.8796  1.5809
   13MOL0     H 1750   2.791   3.311   7.074  0.6874  3.2372  0.7140
   13MOL0     H 1751   2.911   3.283   6.948 -1.3775 -3.1595  2.0769
   13MOL0     H 1752   2.872   3.716   6.971 -1.6149 -4.5137 -1.3275
   13MOL0     H 1753   3.107   3.944   6.986  1.1762 -2.4941  2.4638
   13MOL0     H 1754   2.955   3.906   6.892 -0.7063 -3.2796 -0.1426
   13MOL0     H 1755   3.113   3.902   6.808 -1.2319  1.4632 -0.0468
   13MOL0     H 1756   3.518   3.698   6.660  1.0768 -1.0886  0.2905
   13MOL0     H 1757   3.739   3.783   6.584  0.3388 -0.4961 -0.0587
   13MOL0     H 1758   3.920   4.058   6.705 -0.6261 -1.1606 -0.8395
   13MOL0     H 1759   3.927   4.015   6.883 -0.2646 -2.3743  0.8489
   13MOL0     H 1760   4.153   4.036   6.688 -2.2642  0.3774 -0.5749
   13MOL0     H 1761   4.134   4.103   6.849 -1.2897 -1.0476  1.1770
   13MOL0     H 1762   4.155   3.808   6.791 -2.0017  1.1310  1.3880
   13MOL0     H 1763   4.143   3.885   6.939 -3.6513 -0.0705 -0.9235
   13MOL0     H 1764   4.377   3.925   6.730  1.9256  2.0839  0.5402
   13MOL0     H 1765   4.385   3.819   6.872  0.1586  0.3258  0.2210
   13MOL0     H 1766   4.386   4.118   6.842  1.2461 -1.3366 -1.8272
   13MOL0     H 1767   4.347   4.058   7.003 -0.5442  1.4428 -1.1254
   13MOL0     H 1768   4.600   3.979   6.856 -1.0689 -1.3002 -0.3310
   13MOL0     H 1769   4.550   3.920   7.016  1.7998 -0.0927  0.1929
   13MOL0     H 1770   4.567   4.158   7.101  1.2688  0.0857  0.7453
   13MOL0     H 1771   4.612   4.207   6.940  1.6971  0.8657  1.2439
   13MOL0     H 1772   4.773   4.023   7.113  0.3539 -0.5814  0.4660
   13MOL0     H 1773   4.822   4.186   7.070 -0.0281  0.6842 -1.0434
   13MOL0     H 1774   3.873   3.814   6.984  0.3584  1.0139 -1.2002
   13MOL0     H 1775   3.643   3.734   7.065 -2.3532 -1.5194 -0.3925
   13MOL0     H 1776   3.311   3.489   6.990 -0.0640 -0.5160 -0.6839
   13MOL0     H 1777   3.104   3.373   7.038  0.2028  0.4059 -0.0144
   13MOL0     H 1778   1.644   2.834   5.821 -0.7276 -0.2003 -0.5544
   13MOL0     H 1779   1.414   2.937   5.809  1.4419  1.0151  2.1795
   13MOL0     H 1780   0.979   2.860   5.860 -1.7207  0.0253 -1.7134
   13MOL0     H 1781   0.743   2.935   5.808 -1.2138 -0.2315  1.3513
   13MOL0     H 1782   0.535   3.003   5.768  0.1992  0.3386 -0.5815
   13MOL0     H 1783   0.509   2.891   5.892 -0.1094 -0.0825  0.3143
   13MOL0     H 1784   0.290   3.014   5.787 -0.4484 -0.5585  0.7494
   13MOL0     H 1785   0.354   3.145   5.894 -0.7283  0.7571 -1.7418
   13MOL0     H 1786   0.349   2.895   6.047 -1.1789 -0.8326  0.6896
   13MOL0     H 1787   0.243   3.026   6.060  1.4190  2.5142 -1.3335
   13MOL0     H 1788   0.126   2.804   6.016 -1.2183  0.3307 -1.1070
   13MOL0     H 1789   0.192   2.803   5.854  1.0114  0.2528  0.6207
   13MOL0     H 1790  -0.122   3.041   5.756 -0.4826  0.5103  0.5069
   13MOL0     H 1791   0.723   3.118   6.198  1.0179 -2.0897  0.8372
   13MOL0     H 1792   0.923   3.185   6.300  0.3054 -0.9228  3.1132
   13MOL0     H 1793   0.923   3.030   6.363  0.7796  2.1385  0.3675
   13MOL0     H 1794   1.072   3.090   6.281  0.8282  2.1813 -1.7682
   14MOL0     O 1795   2.190   4.270   8.605  0.2656 -0.3241 -0.1090
   14MOL0     C 1796   2.184   4.148   8.600  0.6039 -0.8387 -0.1578
   14MOL0     O 1797   2.283   4.067   8.656 -0.0731 -0.2222  0.7822
   14MOL0     C 1798   2.409   4.118   8.692  0.7545 -0.2220  0.4556
   14MOL0     C 1799   2.425   4.160   8.833 -0.2136  0.1815 -0.8049
   14MOL0     C 1800   2.548   4.212   8.874 -0.2931  0.6320 -0.7910
   14MOL0     C 1801   2.659   4.214   8.784 -0.0391  0.1318  0.1580
   14MOL0     O 1802   2.780   4.258   8.813  0.3114 -0.1883  0.2689
   14MOL0     C 1803   2.842   4.167   8.906 -0.2934  0.0207  0.4994
   14MOL0     C 1804   2.991   4.187   8.901  0.2064 -0.3179  0.3010
   14MOL0     C 1805   3.058   4.149   8.767  0.2307  0.2948 -0.2219
   14MOL0     C 1806   3.193   4.201   8.773  0.3218 -0.2162 -0.5399
   14MOL0     C 1807   3.284   4.140   8.663  0.5577  0.3375  0.3167
   14MOL0     C 1808   3.423   4.173   8.705 -0.4563 -0.3319 -0.5671
   14MOL0     C 1809   3.529   4.195   8.582  0.5182  0.3015  0.6058
   14MOL0     C 1810   3.676   4.218   8.636 -0.3792  0.4414 -0.6864
   14MOL0     N 1811   3.761   4.310   8.566  1.2476  0.2816  0.3477
   14MOL0     C 1812   3.778   4.447   8.593 -0.1677  0.0991  0.4074
   14MOL0     C 1813   3.850   4.493   8.493  0.2359  0.8426  0.2153
   14MOL0     C 1814   3.911   4.626   8.499  0.6153 -0.8100 -0.4956
   14MOL0     C 1815   4.030   4.638   8.600 -0.7270  0.6636 -0.5590
   14MOL0     C 1816   4.101   4.773   8.601  0.1629 -0.2808  0.2182
   14MOL0     C 1817   4.221   4.768   8.696  0.1030 -0.0722  0.3984
   14MOL0     O 1818   4.329   4.684   8.667  0.3854  0.4961  0.0358
   14MOL0     C 1819   4.442   4.721   8.598 -0.8404 -0.8113  1.0232
   14MOL0     C 1820   4.441   4.836   8.508  0.4708  0.3613 -0.2911
   14MOL0     C 1821   4.560   4.892   8.468 -0.0505 -0.1679  0.3370
   14MOL0     C 1822   4.540   5.024   8.388 -0.8815  0.0843  0.1376
   14MOL0     C 1823   4.684   4.824   8.478 -0.1450 -0.1491  0.2061
   14MOL0     C 1824   4.811   4.890   8.437  0.6618  0.3794  0.1337
   14MOL0     O 1825   4.831   5.019   8.472 -0.2840 -0.7873 -0.4859
   14MOL0     C 1826   4.944   5.077   8.425  0.3737 -0.5199 -0.3436
   14MOL0     C 1827   4.959   5.120   8.288  0.4402 -0.6959  0.6982
   14MOL0     C 1828   5.072   5.196   8.246 -0.0211 -0.2558 -0.5988
   14MOL0     C 1829   5.180   5.216   8.337  0.3940 -0.1255 -0.4991
   14MOL0     O 1830   5.277   5.293   8.274 -0.0423 -0.1878  0.0576
   14MOL0     C 1831   5.411   5.285   8.322  0.6437  0.2485 -0.4029
   14MOL0     C 1832   5.518   5.326   8.223  0.7710  0.1410  0.2071
   14MOL0     C 1833   5.489   5.473   8.185  0.6634  0.3677  0.1354
   14MOL0     C 1834   5.586   5.511   8.071  0.0195 -0.1574  0.3883
   14MOL0     C 1835   5.737   5.521   8.116  0.5000 -0.2222  0.8668
   14MOL0     C 1836   5.833   5.577   8.010 -0.2400 -0.9112  0.8269
   14MOL0     C 1837   5.976   5.575   8.064  0.4763  0.3613  0.6823
   14MOL0     C 1838   6.077   5.591   7.960 -0.0451  0.3576  0.1992
   14MOL0    Cl 1839   6.056   5.747   7.882 -0.4436 -0.0919 -0.3245
   14MOL0     C 1840   5.163   5.173   8.472 -0.1289 -0.0268  0.0358
   14MOL0     C 1841   5.052   5.103   8.509 -0.0403  0.1499  0.3213
   14MOL0     O 1842   4.895   4.817   8.379  0.3208  0.0715 -0.9155
   14MOL0     C 1843   4.684   4.710   8.548  0.4757  0.0672 -0.9448
   14MOL0     C 1844   4.566   4.653   8.606 -0.2744  0.2146  0.4656
   14MOL0     N 1845   3.861   4.392   8.395 -0.0345 -0.3293 -0.3977
   14MOL0     N 1846   3.813   4.282   8.441  0.4786  0.6249 -0.1001
   14MOL0     C 1847   2.638   4.176   8.651  0.7060 -0.8169  0.9044
   14MOL0     C 1848   2.513   4.138   8.605  0.2659  0.3150 -0.4310
   14MOL0     C 1849   2.060   4.087   8.550  0.2382 -0.5043 -0.4700
   14MOL0     C 1850   1.999   3.980   8.628 -0.0149  0.8258  0.1011
   14MOL0     C 1851   1.899   3.911   8.575 -0.3702  0.4956 -0.8025
   14MOL0     C 1852   1.839   3.953   8.456  0.2224  0.5952  0.0795
   14MOL0     O 1853   1.723   3.891   8.413  0.3045  0.0622  0.9473
   14MOL0     C 1854   1.708   3.746   8.408 -1.2067 -0.7592 -0.4767
   14MOL0     C 1855   1.575   3.691   8.459 -0.1480  0.1982  0.4488
   14MOL0     C 1856   1.538   3.707   8.600  0.0978 -0.3354  0.7624
   14MOL0     C 1857   1.405   3.642   8.632  0.2163  0.0391  0.0321
   14MOL0     C 1858   1.371   3.628   8.774 -0.2629 -0.3564  0.1034
   14MOL0     C 1859   1.337   3.595   8.964 -0.8594  0.0681  0.1971
   14MOL0     C 1860   1.876   4.065   8.389 -0.3257  0.0645 -0.1369
   14MOL0     C 1861   1.996   4.128   8.432  0.4169 -0.7369  0.5243
   14MOL0     C 1862   2.044   4.246   8.358 -0.4949 -0.2038  0.0476
   14MOL0     H 1863   2.342   4.150   8.901  0.4382 -1.5502 -0.2056
   14MOL0     H 1864   2.564   4.259   8.971  1.2494 -0.9545 -0.2187
   14MOL0     H 1865   2.820   4.067   8.868 -1.2016  1.8777 -4.6183
   14MOL0     H 1866   2.798   4.164   9.007 -0.6545 -1.5470  0.3286
   14MOL0     H 1867   3.003   4.294   8.917  0.3983  0.1332 -2.4204
   14MOL0     H 1868   3.040   4.133   8.983 -0.2756 -1.2187  0.0132
   14MOL0     H 1869   3.056   4.041   8.752  4.8912  0.0407 -0.6262
   14MOL0     H 1870   3.011   4.209   8.689 -0.9591  1.0219  1.0021
   14MOL0     H 1871   3.193   4.310   8.756  1.9624  0.0932  1.0835
   14MOL0     H 1872   3.232   4.170   8.870 -1.3585 -0.8954 -0.0543
   14MOL0     H 1873   3.269   4.188   8.566  1.2580  2.4008  1.1588
   14MOL0     H 1874   3.270   4.034   8.644 -1.9607  0.9788 -2.2417
   14MOL0     H 1875   3.417   4.272   8.753  1.5644  0.7155 -2.2833
   14MOL0     H 1876   3.452   4.097   8.778 -1.0854  1.0636  1.2216
   14MOL0     H 1877   3.504   4.286   8.528  2.9220 -0.0056 -1.1501
   14MOL0     H 1878   3.531   4.112   8.511  1.3775 -0.7317  1.7925
   14MOL0     H 1879   3.673   4.240   8.743 -1.1724  2.0713 -1.0119
   14MOL0     H 1880   3.720   4.118   8.628 -1.3152  0.1161 -2.4667
   14MOL0     H 1881   3.757   4.512   8.678 -0.0461 -1.6419  1.8176
   14MOL0     H 1882   3.834   4.694   8.537  0.2896 -1.3063 -0.2539
   14MOL0     H 1883   3.939   4.673   8.405 -0.7710  3.0006  0.8266
   14MOL0     H 1884   3.996   4.612   8.701 -3.0598 -0.2516 -1.5148
   14MOL0     H 1885   4.109   4.567   8.575  0.1579  0.8697  1.4537
   14MOL0     H 1886   4.136   4.798   8.501 -2.2796 -1.0499 -0.9039
   14MOL0     H 1887   4.034   4.851   8.638  0.6468  0.1075  0.2810
   14MOL0     H 1888   4.268   4.866   8.701  0.2015  0.1923 -3.0316
   14MOL0     H 1889   4.177   4.732   8.789  1.7607 -0.1684  1.1859
   14MOL0     H 1890   4.351   4.893   8.487  0.9225  1.0238 -0.4659
   14MOL0     H 1891   4.631   5.032   8.327 -1.8141  0.7323 -1.2302
   14MOL0     H 1892   4.551   5.108   8.458  1.2476 -0.5066  0.5896
   14MOL0     H 1893   4.451   5.021   8.325 -0.8256 -3.2481  0.0506
   14MOL0     H 1894   4.874   5.095   8.224  0.0517 -2.7533  1.9521
   14MOL0     H 1895   5.063   5.257   8.157  0.3038  1.9341  0.8163
   14MOL0     H 1896   5.419   5.354   8.407  0.2728  2.8939 -2.3689
   14MOL0     H 1897   5.435   5.182   8.351 -1.1520  0.0996  0.6490
   14MOL0     H 1898   5.611   5.320   8.281  0.7880 -2.9147  0.0570
   14MOL0     H 1899   5.516   5.250   8.144  0.9406 -2.3025  2.3800
   14MOL0     H 1900   5.499   5.543   8.269  1.2775 -0.1544  0.4985
   14MOL0     H 1901   5.388   5.482   8.142  0.7720  0.7666 -0.0441
   14MOL0     H 1902   5.549   5.606   8.031 -0.2578 -0.9450 -1.3072
   14MOL0     H 1903   5.599   5.439   7.990  1.6502 -1.0791  1.4201
   14MOL0     H 1904   5.742   5.591   8.200 -1.8900  3.2858 -1.6812
   14MOL0     H 1905   5.773   5.421   8.144 -1.0335 -1.6629 -1.8956
   14MOL0     H 1906   5.804   5.681   7.997  2.8219 -0.0390  0.0821
   14MOL0     H 1907   5.822   5.517   7.919  0.8966 -0.8207  0.6201
   14MOL0     H 1908   5.998   5.482   8.117 -1.8600 -0.5750  0.1471
   14MOL0     H 1909   5.992   5.662   8.129 -0.0414  2.4466 -1.8248
   14MOL0     H 1910   6.082   5.505   7.892 -2.1624  1.2837 -1.2147
   14MOL0     H 1911   6.172   5.604   8.012  0.5674  1.6271 -1.1831
   14MOL0     H 1912   5.246   5.179   8.542 -0.8119  2.8554  0.7356
   14MOL0     H 1913   5.037   5.062   8.609 -1.8720 -0.5413 -0.1997
   14MOL0     H 1914   4.774   4.652   8.564  0.3966  0.1396 -0.2044
   14MOL0     H 1915   4.577   4.563   8.666  1.8063 -0.8293 -1.3148
   14MOL0     H 1916   2.715   4.182   8.575 -1.2937 -0.2460 -1.1867
   14MOL0     H 1917   2.496   4.101   8.504  3.8983  0.8504 -1.3819
   14MOL0     H 1918   2.031   3.949   8.727  0.2475 -4.6178 -1.4027
   14MOL0     H 1919   1.845   3.835   8.630 -2.0790  2.8115  0.9371
   14MOL0     H 1920   1.729   3.720   8.303 -0.5613  0.5351 -0.6852
   14MOL0     H 1921   1.779   3.695   8.473 -1.3015  0.0299  0.2608
   14MOL0     H 1922   1.561   3.584   8.438 -0.2894  0.1040  0.9978
   14MOL0     H 1923   1.508   3.741   8.389 -0.7606 -0.7664  0.3244
   14MOL0     H 1924   1.614   3.650   8.653  2.0677  0.3297 -1.2071
   14MOL0     H 1925   1.532   3.811   8.631 -1.5097 -0.7802  2.0762
   14MOL0     H 1926   1.392   3.550   8.575 -1.0920 -1.6995  2.8984
   14MOL0     H 1927   1.327   3.712   8.599 -0.0821 -0.4429 -0.2930
   14MOL0     H 1928   1.326   3.575   9.068 -3.6567  1.0711  0.1632
   14MOL0     H 1929   1.824   4.091   8.297 -1.0695 -1.3839 -0.1528
   14MOL0     H 1930   2.015   4.250   8.253 -1.7980  2.3273  0.4189
   14MOL0     H 1931   2.011   4.332   8.417 -1.0707 -1.2008  1.2266
   14MOL0     H 1932   2.152   4.241   8.348 -0.7440 -1.5267 -3.7299
   15MOL0     O 1933   6.733   8.553   5.959  0.0163  0.2503  0.5777
   15MOL0     C 1934   6.640   8.631   5.947  0.5431 -1.6854  0.5640
   15MOL0     O 1935   6.617   8.706   5.836  0.0341 -0.3616  0.5079
   15MOL0     C 1936   6.709   8.709   5.732  0.5397 -0.0389  0.7037
   15MOL0     C 1937   6.775   8.824   5.709 -1.2437 -0.3950  0.5167
   15MOL0     C 1938   6.870   8.839   5.614 -0.7307  0.2361  0.0035
   15MOL0     C 1939   6.919   8.732   5.538  0.4275  0.1843  0.3175
   15MOL0     O 1940   7.006   8.747   5.429 -0.3827  0.3367 -0.0294
   15MOL0     C 1941   7.096   8.856   5.448  0.4491  0.1445  0.4535
   15MOL0     C 1942   7.189   8.869   5.335 -0.5431  0.3002  0.0343
   15MOL0     C 1943   7.311   8.770   5.351  0.5376 -0.3383 -0.4873
   15MOL0     C 1944   7.408   8.815   5.458  0.8585 -0.4487 -0.2455
   15MOL0     C 1945   7.486   8.688   5.503  0.3103 -0.6432 -0.0169
   15MOL0     C 1946   7.589   8.721   5.603 -0.3008  0.2073  0.0739
   15MOL0     C 1947   7.648   8.596   5.651 -0.2333 -0.3131  0.7598
   15MOL0     C 1948   7.753   8.610   5.769  0.7762 -0.1719 -1.0470
   15MOL0     N 1949   7.790   8.476   5.818 -0.1333  0.3579  0.9558
   15MOL0     C 1950   7.707   8.375   5.863  0.4994 -0.3022 -0.0117
   15MOL0     C 1951   7.788   8.287   5.923  0.7750 -0.3548 -0.4263
   15MOL0     C 1952   7.728   8.164   5.985 -0.0341 -0.5575  0.0207
   15MOL0     C 1953   7.808   8.033   5.966 -0.2335  1.0988  0.3429
   15MOL0     C 1954   7.922   8.012   6.069  0.0763 -0.0686  0.1698
   15MOL0     C 1955   8.029   7.929   6.008 -0.1232  0.1740  0.2436
   15MOL0     O 1956   8.132   7.907   6.102  0.4530  0.6227  0.4614
   15MOL0     C 1957   8.242   7.839   6.063 -0.0651  1.3490 -0.1625
   15MOL0     C 1958   8.259   7.787   5.931 -0.3519  0.1299 -0.4245
   15MOL0     C 1959   8.379   7.726   5.897  0.0662 -0.2434  0.3594
   15MOL0     C 1960   8.387   7.686   5.754  0.1896  0.5597  0.3006
   15MOL0     C 1961   8.480   7.715   5.987 -1.0277 -0.0236 -0.0515
   15MOL0     C 1962   8.616   7.650   5.956 -0.2010  0.6830  0.2039
   15MOL0     O 1963   8.666   7.574   6.055 -0.8184  0.6850 -0.5924
   15MOL0     C 1964   8.790   7.512   6.047 -0.6225 -0.3701 -0.0224
   15MOL0     C 1965   8.814   7.393   6.116 -0.5674 -0.0805  0.4634
   15MOL0     C 1966   8.935   7.324   6.106 -0.0878  0.3900  0.0238
   15MOL0     C 1967   9.043   7.381   6.036  0.8918 -0.2635  0.6532
   15MOL0     O 1968   9.168   7.329   6.012 -0.1073  0.0279  0.0434
   15MOL0     C 1969   9.196   7.192   6.043  1.1370  0.0890  0.0255
   15MOL0     C 1970   9.171   7.102   5.915 -0.3841 -0.8554 -0.4360
   15MOL0     C 1971   9.215   6.960   5.934 -0.0823  0.7040  0.7430
   15MOL0     C 1972   9.361   6.924   5.946 -0.1268 -0.3331  0.2272
   15MOL0     C 1973   9.452   6.981   5.842 -0.2432 -0.1741 -0.0108
   15MOL0     C 1974   9.583   6.897   5.832 -0.4015  0.6603 -0.5711
   15MOL0     C 1975   9.694   6.943   5.924  0.1447 -0.4284  0.6865
   15MOL0     C 1976   9.673   6.868   6.058  0.5060  0.1785 -0.4885
   15MOL0    Cl 1977   9.684   6.695   6.036 -0.4766  0.5723 -0.1738
   15MOL0     C 1978   9.023   7.506   5.968 -0.1528 -0.4343  0.2412
   15MOL0     C 1979   8.901   7.572   5.978  0.4346 -0.5808 -0.1703
   15MOL0     O 1980   8.660   7.653   5.840 -0.7677 -1.1490 -0.3205
   15MOL0     C 1981   8.459   7.768   6.114 -0.4168 -0.6260 -0.2021
   15MOL0     C 1982   8.349   7.835   6.152 -0.9005 -0.0803 -1.3026
   15MOL0     N 1983   7.922   8.328   5.911  0.1087 -0.1926 -0.2082
   15MOL0     N 1984   7.918   8.439   5.846  0.0805  0.1520  0.4931
   15MOL0     C 1985   6.856   8.605   5.568  0.7689 -0.7449  0.7909
   15MOL0     C 1986   6.754   8.592   5.667  0.2869 -0.5479 -0.9584
   15MOL0     C 1987   6.529   8.617   6.042 -0.4011  0.1818  0.2474
   15MOL0     C 1988   6.397   8.620   5.991  0.2457  1.1862 -0.1151
   15MOL0     C 1989   6.293   8.591   6.081  0.0756 -0.3947 -0.1837
   15MOL0     C 1990   6.314   8.582   6.223  1.2387 -0.6403  1.0624
   15MOL0     O 1991   6.203   8.571   6.311 -0.5539 -0.2291  0.3989
   15MOL0     C 1992   6.088   8.507   6.256 -0.5507 -1.0077  0.2172
   15MOL0     C 1993   5.997   8.467   6.366 -0.4738 -0.2297 -0.4716
   15MOL0     C 1994   5.899   8.571   6.419  0.7790 -0.0192 -0.2676
   15MOL0     C 1995   5.966   8.683   6.494  0.6920  0.2360  0.5373
   15MOL0     C 1996   5.859   8.758   6.563  0.0929 -0.0468  0.9459
   15MOL0     C 1997   5.779   8.817   6.621 -0.2243  0.7711 -0.2439
   15MOL0     C 1998   6.447   8.575   6.263  0.2420  1.6073 -0.1150
   15MOL0     C 1999   6.555   8.587   6.177  0.4969  0.3025 -0.5295
   15MOL0     C 2000   6.691   8.588   6.237 -0.5419  0.1454 -1.3414
   15MOL0     H 2001   6.738   8.911   5.763 -0.3695 -0.2570  0.9139
   15MOL0     H 2002   6.901   8.940   5.589 -0.7220  0.8849  2.3752
   15MOL0     H 2003   7.140   8.856   5.548  0.8089  1.9824  0.3351
   15MOL0     H 2004   7.034   8.946   5.441 -2.0508 -1.6096 -2.1301
   15MOL0     H 2005   7.136   8.835   5.246 -1.6486 -0.0204  0.7923
   15MOL0     H 2006   7.243   8.963   5.324  1.6149 -0.7746  0.8934
   15MOL0     H 2007   7.269   8.679   5.394  0.8390  0.1231  0.8730
   15MOL0     H 2008   7.362   8.749   5.257 -2.6250  0.1812 -2.4423
   15MOL0     H 2009   7.485   8.882   5.419  0.3130 -0.1801 -0.8676
   15MOL0     H 2010   7.359   8.846   5.551 -1.8091 -1.6599 -1.1655
   15MOL0     H 2011   7.529   8.646   5.411  0.1014 -1.1851  0.1258
   15MOL0     H 2012   7.419   8.611   5.544  0.3872 -0.5541  0.2772
   15MOL0     H 2013   7.671   8.781   5.566  0.5289 -1.8734 -1.6532
   15MOL0     H 2014   7.526   8.769   5.679 -1.4408 -0.0795 -0.6504
   15MOL0     H 2015   7.698   8.546   5.568 -2.0180 -1.1273  0.1320
   15MOL0     H 2016   7.566   8.532   5.683 -0.3328 -0.7701 -0.3978
   15MOL0     H 2017   7.839   8.672   5.744  0.4687  2.0894  2.8074
   15MOL0     H 2018   7.714   8.660   5.858  0.2567 -0.1955 -1.2549
   15MOL0     H 2019   7.601   8.353   5.852  0.9324 -2.0218 -1.3846
   15MOL0     H 2020   7.629   8.145   5.944 -0.8879  1.9795  0.7492
   15MOL0     H 2021   7.710   8.181   6.092 -0.3039 -0.7170  0.0001
   15MOL0     H 2022   7.733   7.953   5.969 -0.1377  1.0252  1.5113
   15MOL0     H 2023   7.856   8.042   5.869  2.0215 -0.0944  1.2752
   15MOL0     H 2024   7.961   8.102   6.118 -1.4545 -0.7255  2.8466
   15MOL0     H 2025   7.873   7.962   6.154 -2.1317 -1.0692 -1.5790
   15MOL0     H 2026   7.987   7.830   5.985 -0.4442  0.6313 -1.2186
   15MOL0     H 2027   8.082   7.965   5.920  1.9428 -1.9525  0.5049
   15MOL0     H 2028   8.186   7.802   5.852 -0.3235 -0.2219 -0.5161
   15MOL0     H 2029   8.453   7.759   5.707  0.6699  0.7914  1.3150
   15MOL0     H 2030   8.290   7.685   5.703  2.4807  2.3775 -4.7052
   15MOL0     H 2031   8.425   7.583   5.755 -0.2675  0.3871  1.0086
   15MOL0     H 2032   8.727   7.361   6.172 -1.2118 -0.5345 -0.7724
   15MOL0     H 2033   8.934   7.229   6.159  0.7215  1.1994  1.5575
   15MOL0     H 2034   9.303   7.169   6.051  0.7492 -2.0000 -0.1675
   15MOL0     H 2035   9.140   7.148   6.126 -1.4008  1.4644 -0.8555
   15MOL0     H 2036   9.068   7.114   5.882 -0.8939  5.0659  2.0098
   15MOL0     H 2037   9.222   7.140   5.826 -1.3549 -2.5489 -1.7903
   15MOL0     H 2038   9.173   6.901   5.851  1.2917  0.2121  0.3757
   15MOL0     H 2039   9.162   6.905   6.012 -1.4894 -1.5558 -1.6318
   15MOL0     H 2040   9.374   6.815   5.943 -1.0868 -0.5986  2.8302
   15MOL0     H 2041   9.394   6.965   6.042  2.7148 -0.1581 -0.7348
   15MOL0     H 2042   9.401   6.961   5.747 -1.8003 -1.8072  1.1332
   15MOL0     H 2043   9.473   7.088   5.854 -0.2578 -0.1240 -0.4091
   15MOL0     H 2044   9.622   6.891   5.730 -0.1851 -0.1802 -0.4455
   15MOL0     H 2045   9.569   6.790   5.851 -2.1299  0.8806 -0.4817
   15MOL0     H 2046   9.687   7.051   5.941  0.2372 -0.3095  0.0312
   15MOL0     H 2047   9.798   6.925   5.895 -0.0027 -1.0562  0.5329
   15MOL0     H 2048   9.586   6.895   6.118 -0.0813  0.7787 -1.5733
   15MOL0     H 2049   9.755   6.896   6.124  0.5245 -1.7742  0.3934
   15MOL0     H 2050   9.110   7.548   5.917  0.5583 -0.8390  1.0996
   15MOL0     H 2051   8.903   7.672   5.935  1.0732 -0.4813  0.0763
   15MOL0     H 2052   8.543   7.772   6.182 -0.9721  1.2428  0.4450
   15MOL0     H 2053   8.351   7.897   6.241  0.0202  1.4613 -2.3321
   15MOL0     H 2054   6.879   8.515   5.512 -0.7711  0.3591 -1.7459
   15MOL0     H 2055   6.706   8.496   5.682 -0.2971 -0.1700 -0.4042
   15MOL0     H 2056   6.375   8.608   5.885  3.5237 -1.2450 -0.6798
   15MOL0     H 2057   6.191   8.571   6.049 -1.0276  0.8838  2.2474
   15MOL0     H 2058   6.039   8.586   6.198  1.7990 -1.1861 -2.2302
   15MOL0     H 2059   6.120   8.425   6.190 -1.4069 -1.1121 -0.0864
   15MOL0     H 2060   6.058   8.429   6.449  0.1656  1.0933 -0.3057
   15MOL0     H 2061   5.934   8.391   6.319  2.2056 -2.5411 -0.5999
   15MOL0     H 2062   5.855   8.614   6.329  1.2665  2.8456  0.7609
   15MOL0     H 2063   5.823   8.520   6.479 -0.7308  2.6025  0.2019
   15MOL0     H 2064   6.009   8.741   6.412  1.2113  0.4957  0.9878
   15MOL0     H 2065   6.046   8.650   6.561  0.2608 -2.6652 -0.2632
   15MOL0     H 2066   5.698   8.859   6.677  0.5194  3.0679 -0.7636
   15MOL0     H 2067   6.452   8.574   6.372  2.7926  0.4699 -0.1779
   15MOL0     H 2068   6.729   8.686   6.206  1.8150  0.1370  1.1764
   15MOL0     H 2069   6.678   8.577   6.345 -1.7679  3.9955 -0.9468
   15MOL0     H 2070   6.758   8.508   6.206  0.7511  1.0282 -0.9173
   16MOL0     O 2071   8.571   7.731   6.648 -0.2582  0.0746 -0.3292
   16MOL0     C 2072   8.503   7.761   6.749 -0.5573 -0.9392 -0.1587
   16MOL0     O 2073   8.544   7.765   6.880  0.1372 -0.1871  0.4880
   16MOL0     C 2074   8.664   7.704   6.914 -0.0911 -0.5446  0.5813
   16MOL0     C 2075   8.779   7.781   6.938 -0.4908  0.0727  0.1234
   16MOL0     C 2076   8.898   7.718   6.982 -0.3163 -0.3353  0.3175
   16MOL0     C 2077   8.906   7.580   7.000 -0.5506  0.8524 -0.1686
   16MOL0     O 2078   9.024   7.523   7.032  0.1489 -0.3463  1.0781
   16MOL0     C 2079   9.028   7.380   7.053 -0.4861  0.0228  0.0225
   16MOL0     C 2080   9.178   7.348   7.063 -0.3066 -0.1088 -0.8014
   16MOL0     C 2081   9.259   7.430   7.171  0.3257  0.1616  0.4329
   16MOL0     C 2082   9.409   7.394   7.173  0.0908 -0.2623 -0.3906
   16MOL0     C 2083   9.494   7.455   7.298  0.2768  0.8894  0.3583
   16MOL0     C 2084   9.628   7.383   7.342 -0.7443 -0.6448 -0.6771
   16MOL0     C 2085   9.688   7.417   7.481 -0.2290  0.4859  0.1831
   16MOL0     C 2086   9.755   7.298   7.551  0.9906 -0.3092  0.2220
   16MOL0     N 2087   9.892   7.284   7.501  0.2828  0.2574  1.0063
   16MOL0     C 2088   9.990   7.376   7.529  0.3179  0.5547 -0.0522
   16MOL0     C 2089  10.093   7.355   7.441  0.9287  0.5435  0.1509
   16MOL0     C 2090  10.219   7.425   7.439  0.5559 -0.1867 -0.6244
   16MOL0     C 2091  10.207   7.556   7.358 -0.2833 -0.7068  0.6393
   16MOL0     C 2092  10.331   7.650   7.393  1.0646 -0.1873 -0.0850
   16MOL0     C 2093  10.307   7.773   7.312  0.8176 -0.2561 -0.2017
   16MOL0     O 2094  10.330   7.885   7.386 -0.8661  0.8883  0.6533
   16MOL0     C 2095  10.463   7.923   7.406 -0.0751 -0.9180  0.1623
   16MOL0     C 2096  10.469   8.053   7.470 -0.2685 -0.2845  0.5030
   16MOL0     C 2097  10.589   8.124   7.474  0.1647  0.6194  0.2247
   16MOL0     C 2098  10.590   8.268   7.536 -0.3269  1.4601 -0.7102
   16MOL0     C 2099  10.707   8.049   7.444  0.6538 -0.2073  1.3279
   16MOL0     C 2100  10.847   8.100   7.459 -0.3828  0.0922  0.7899
   16MOL0     O 2101  10.942   8.034   7.390  0.2812 -0.0518 -0.3096
   16MOL0     C 2102  11.070   8.053   7.447  0.1838  0.0966  0.6290
   16MOL0     C 2103  11.108   7.959   7.543 -0.2250 -0.8663 -0.6064
   16MOL0     C 2104  11.227   7.986   7.612  0.3308 -0.0672  0.0233
   16MOL0     C 2105  11.315   8.097   7.581 -0.0449  0.2543 -0.1185
   16MOL0     O 2106  11.431   8.113   7.655 -0.1812 -0.1265  0.4526
   16MOL0     C 2107  11.512   8.232   7.634  0.4496 -0.1024  0.3791
   16MOL0     C 2108  11.481   8.343   7.730 -0.5440 -0.4498 -0.9643
   16MOL0     C 2109  11.344   8.424   7.704  0.1963 -0.1659  0.3037
   16MOL0     C 2110  11.235   8.384   7.799  0.8377  0.9945 -0.4729
   16MOL0     C 2111  11.123   8.490   7.769  0.5543  1.0932 -0.7176
   16MOL0     C 2112  11.006   8.479   7.865 -0.1968 -0.1743  0.4842
   16MOL0     C 2113  10.886   8.568   7.819  0.2528  0.2678 -0.3063
   16MOL0     C 2114  10.765   8.486   7.778  0.2004  0.3483 -0.3213
   16MOL0    Cl 2115  10.668   8.432   7.917 -0.1155  0.1185  0.4675
   16MOL0     C 2116  11.268   8.183   7.481  0.8002 -1.1147 -0.3984
   16MOL0     C 2117  11.144   8.174   7.417  0.7809 -0.0792  0.1853
   16MOL0     O 2118  10.865   8.199   7.534 -0.3068  0.4073  0.2363
   16MOL0     C 2119  10.694   7.914   7.393  0.1840 -0.1558 -1.1522
   16MOL0     C 2120  10.572   7.852   7.379 -0.4681 -0.2026  0.1436
   16MOL0     N 2121  10.050   7.246   7.363  0.3332 -0.8697  0.4410
   16MOL0     N 2122   9.927   7.212   7.384  0.3527  0.2150  0.7476
   16MOL0     C 2123   8.784   7.507   6.974 -0.1397  0.7004 -0.0815
   16MOL0     C 2124   8.670   7.566   6.930  0.4163 -0.7459  0.1878
   16MOL0     C 2125   8.373   7.836   6.719 -0.6794  1.0996 -0.5624
   16MOL0     C 2126   8.336   7.931   6.814  0.2571 -0.4691  1.1199
   16MOL0     C 2127   8.217   8.009   6.803 -0.7712  0.1614 -0.2251
   16MOL0     C 2128   8.136   7.992   6.687 -0.0601 -0.1229 -0.4944
   16MOL0     O 2129   8.020   8.068   6.653  0.4861  0.3254 -0.3022
   16MOL0     C 2130   7.945   8.124   6.770 -0.0398 -0.1407  0.6408
   16MOL0     C 2131   7.818   8.195   6.730 -0.5537 -0.3203 -0.0873
   16MOL0     C 2132   7.839   8.300   6.622 -0.6848  1.1368 -0.0459
   16MOL0     C 2133   7.919   8.421   6.670 -0.1772 -0.4981  0.1692
   16MOL0     C 2134   7.861   8.479   6.792 -0.7135 -0.0339 -0.6069
   16MOL0     C 2135   7.811   8.524   6.896  0.2302  0.2017  0.4596
   16MOL0     C 2136   8.178   7.904   6.593 -0.6631 -0.0025  0.0480
   16MOL0     C 2137   8.296   7.822   6.608 -0.3537 -0.2196  0.1160
   16MOL0     C 2138   8.328   7.720   6.502 -0.2483 -0.2455 -0.6415
   16MOL0     H 2139   8.777   7.888   6.921  1.1368  0.6548  2.9001
   16MOL0     H 2140   8.983   7.777   7.012  1.6716 -0.9760 -3.4877
   16MOL0     H 2141   8.983   7.313   6.979 -2.1256 -2.9667  3.4109
   16MOL0     H 2142   8.972   7.353   7.143  0.3575  1.6656  1.0977
   16MOL0     H 2143   9.181   7.244   7.096 -3.2308  0.0111  0.1880
   16MOL0     H 2144   9.230   7.358   6.968  0.6847 -2.0559 -0.5196
   16MOL0     H 2145   9.247   7.537   7.155  0.6602  0.0890 -0.3308
   16MOL0     H 2146   9.221   7.392   7.266  0.8763 -1.9911 -0.1382
   16MOL0     H 2147   9.414   7.285   7.181 -0.4346 -0.2929 -0.4809
   16MOL0     H 2148   9.455   7.420   7.077  0.7302 -1.0991 -0.3229
   16MOL0     H 2149   9.435   7.458   7.390 -0.6558 -1.0617 -0.1227
   16MOL0     H 2150   9.500   7.563   7.282  0.3986  0.7194 -0.8863
   16MOL0     H 2151   9.602   7.277   7.346  0.0158 -0.8443 -0.8755
   16MOL0     H 2152   9.699   7.401   7.261 -1.2399  2.0825 -0.5848
   16MOL0     H 2153   9.601   7.440   7.543 -0.6242  0.1815 -0.2535
   16MOL0     H 2154   9.763   7.496   7.486  0.1042  0.1418  0.7202
   16MOL0     H 2155   9.755   7.307   7.660  1.7708 -1.0992  0.3039
   16MOL0     H 2156   9.695   7.210   7.526 -0.2695  0.5078  0.3366
   16MOL0     H 2157   9.997   7.437   7.619 -1.6151 -2.9128  2.6737
   16MOL0     H 2158  10.300   7.371   7.390  0.5879  1.1389 -2.1224
   16MOL0     H 2159  10.237   7.435   7.546  1.4764  0.0623 -0.7942
   16MOL0     H 2160  10.209   7.533   7.251  1.5473 -1.9453  0.9034
   16MOL0     H 2161  10.121   7.615   7.391 -0.7055 -0.1766 -1.2463
   16MOL0     H 2162  10.335   7.676   7.500 -0.4494  4.2571 -0.8944
   16MOL0     H 2163  10.423   7.596   7.372 -0.9352 -3.1396 -2.0197
   16MOL0     H 2164  10.364   7.773   7.218  1.2664 -1.0183  0.0587
   16MOL0     H 2165  10.204   7.780   7.275  0.8049 -3.2108 -1.0213
   16MOL0     H 2166  10.382   8.116   7.486  0.5398  0.9968  0.0275
   16MOL0     H 2167  10.492   8.307   7.568 -0.9467  1.4760 -2.4986
   16MOL0     H 2168  10.635   8.342   7.469  2.4310 -0.0927 -0.6821
   16MOL0     H 2169  10.649   8.260   7.628 -0.6527 -0.4077 -0.6346
   16MOL0     H 2170  11.033   7.885   7.569 -2.2313  0.9419 -0.9926
   16MOL0     H 2171  11.267   7.919   7.687  1.0693  0.8136  0.4247
   16MOL0     H 2172  11.619   8.213   7.650  0.8436  0.8622 -0.9723
   16MOL0     H 2173  11.500   8.265   7.531  1.0626 -0.5439  0.1592
   16MOL0     H 2174  11.479   8.303   7.832 -3.4810 -1.5202 -1.3394
   16MOL0     H 2175  11.551   8.427   7.722 -1.9722  0.8259 -0.7990
   16MOL0     H 2176  11.317   8.429   7.598 -0.6983 -0.4547  0.5051
   16MOL0     H 2177  11.379   8.518   7.746  0.0146 -1.6464  4.1647
   16MOL0     H 2178  11.264   8.379   7.905 -1.6806 -0.7708  0.2241
   16MOL0     H 2179  11.204   8.283   7.768  0.4883  0.8087  0.4489
   16MOL0     H 2180  11.162   8.592   7.761  4.5117 -0.2390 -0.1532
   16MOL0     H 2181  11.073   8.462   7.675  0.6120 -0.3457 -0.3432
   16MOL0     H 2182  11.021   8.513   7.968 -1.3191 -0.7921  0.8708
   16MOL0     H 2183  10.968   8.377   7.862 -1.3387  0.2448 -1.8194
   16MOL0     H 2184  10.917   8.622   7.729 -2.3115  0.7902 -0.9635
   16MOL0     H 2185  10.867   8.646   7.893  2.1267  0.9822 -0.5273
   16MOL0     H 2186  10.799   8.400   7.719 -0.2024 -1.1040  1.4673
   16MOL0     H 2187  10.696   8.540   7.712 -1.8978 -0.8658  0.7765
   16MOL0     H 2188  11.317   8.277   7.457 -1.8566  0.9268  1.6067
   16MOL0     H 2189  11.108   8.257   7.358  2.1112  0.9514  0.7637
   16MOL0     H 2190  10.789   7.864   7.382  0.9817  0.3910  2.0262
   16MOL0     H 2191  10.570   7.750   7.340  1.6323  0.6432 -2.4793
   16MOL0     H 2192   8.766   7.403   6.997 -0.9186 -0.5282 -5.0246
   16MOL0     H 2193   8.583   7.502   6.924 -0.9110  0.9017  0.9255
   16MOL0     H 2194   8.410   7.941   6.893 -0.1530  0.2438  1.4233
   16MOL0     H 2195   8.190   8.079   6.881  1.6241  0.5810  0.2886
   16MOL0     H 2196   7.913   8.040   6.832 -2.0864 -0.7946 -1.2026
   16MOL0     H 2197   8.008   8.200   6.818 -0.0895  0.6016 -0.4428
   16MOL0     H 2198   7.772   8.241   6.818 -0.5661 -0.4146 -0.0454
   16MOL0     H 2199   7.744   8.123   6.695 -0.8289 -1.3262  2.3570
   16MOL0     H 2200   7.898   8.257   6.541 -1.3707  0.5839 -0.2613
   16MOL0     H 2201   7.749   8.346   6.579 -1.7301 -1.9073 -1.4001
   16MOL0     H 2202   7.920   8.499   6.593  1.0360  0.6530  1.2937
   16MOL0     H 2203   8.025   8.396   6.677  0.3851  1.6472  0.0166
   16MOL0     H 2204   7.763   8.558   6.985 -0.1813 -0.7663  0.6145
   16MOL0     H 2205   8.104   7.889   6.515 -1.6505  0.3218  0.8998
   16MOL0     H 2206   8.337   7.618   6.541  0.4341 -0.2204 -0.7244
   16MOL0     H 2207   8.249   7.725   6.426 -0.5258 -1.0234 -0.4103
   16MOL0     H 2208   8.421   7.755   6.457  0.0328 -0.2853 -0.1041
   17MOL0     O 2209   9.596   4.698   8.713  0.0944  0.9520 -0.2821
   17MOL0     C 2210   9.523   4.629   8.643 -0.3281 -0.5432 -0.3377
   17MOL0     O 2211   9.561   4.507   8.597  0.4509 -0.7579 -0.2196
   17MOL0     C 2212   9.686   4.454   8.616  0.6818 -0.7051 -0.8278
   17MOL0     C 2213   9.684   4.330   8.683  0.3641  0.5211  0.0849
   17MOL0     C 2214   9.810   4.275   8.728  0.2303 -0.1323  0.2890
   17MOL0     C 2215   9.932   4.346   8.704 -0.0623 -0.0268 -0.9582
   17MOL0     O 2216  10.050   4.280   8.730 -0.0992  0.1343 -0.2452
   17MOL0     C 2217  10.160   4.321   8.649  0.8234  0.8180  0.1019
   17MOL0     C 2218  10.277   4.224   8.678 -0.5211 -0.2926 -0.4497
   17MOL0     C 2219  10.335   4.249   8.819  0.1441 -0.2276 -0.4348
   17MOL0     C 2220  10.482   4.297   8.825 -0.6326 -0.2272 -0.3512
   17MOL0     C 2221  10.539   4.275   8.959  0.0292  1.3921 -0.1970
   17MOL0     C 2222  10.679   4.334   8.962 -1.1286  0.0675  0.7553
   17MOL0     C 2223  10.757   4.287   9.081  0.0375  0.2594 -0.1934
   17MOL0     C 2224  10.881   4.368   9.092 -0.8448 -0.1376 -0.0802
   17MOL0     N 2225  10.965   4.325   9.207  0.1509  0.1203  0.0531
   17MOL0     C 2226  11.069   4.226   9.211 -0.1084 -0.3814 -0.1190
   17MOL0     C 2227  11.106   4.230   9.343  0.5359 -0.5095 -0.3316
   17MOL0     C 2228  11.208   4.138   9.390 -0.1486 -0.8866 -0.7825
   17MOL0     C 2229  11.330   4.211   9.449 -0.5783  0.7925 -0.3943
   17MOL0     C 2230  11.387   4.312   9.346 -0.3598 -0.1842  0.1692
   17MOL0     C 2231  11.532   4.345   9.379 -0.3089 -0.2014  0.0742
   17MOL0     O 2232  11.626   4.333   9.270 -0.5051  0.0010  0.2623
   17MOL0     C 2233  11.762   4.331   9.292 -0.6459 -0.2766 -0.3044
   17MOL0     C 2234  11.833   4.390   9.405  0.1046  0.1590  0.4001
   17MOL0     C 2235  11.969   4.382   9.418  0.4837 -0.1008  0.1529
   17MOL0     C 2236  12.022   4.452   9.536  0.5407  0.0490 -0.1217
   17MOL0     C 2237  12.044   4.322   9.310  0.4032  0.5921  0.0854
   17MOL0     C 2238  12.194   4.303   9.315  0.6595  0.1018  0.4899
   17MOL0     O 2239  12.253   4.253   9.195 -0.4961 -0.3746  0.1148
   17MOL0     C 2240  12.390   4.230   9.203 -0.0515  1.1089  0.7135
   17MOL0     C 2241  12.453   4.105   9.218  0.6791  1.0583  0.2099
   17MOL0     C 2242  12.583   4.089   9.198  0.4700 -0.0821  0.8365
   17MOL0     C 2243  12.667   4.201   9.164  0.2010 -0.5384  0.5850
   17MOL0     O 2244  12.799   4.197   9.157  0.6187  0.0408 -0.2401
   17MOL0     C 2245  12.862   4.086   9.218  0.0651 -0.5730 -0.2692
   17MOL0     C 2246  13.009   4.099   9.240 -0.4156  0.1377  0.2518
   17MOL0     C 2247  13.062   3.982   9.323  0.5197 -0.6149 -0.4251
   17MOL0     C 2248  13.144   3.878   9.246 -0.3812 -0.5849 -0.6494
   17MOL0     C 2249  13.162   3.750   9.324 -0.2197  0.5163  0.5898
   17MOL0     C 2250  13.268   3.759   9.432  0.8005 -0.4297 -0.8126
   17MOL0     C 2251  13.416   3.744   9.381  0.3894 -0.2284  0.7153
   17MOL0     C 2252  13.512   3.781   9.496 -0.3060  0.6147  0.0716
   17MOL0    Cl 2253  13.683   3.733   9.451  0.2330  0.0365  0.1675
   17MOL0     C 2254  12.610   4.328   9.160 -1.1912 -0.6024 -0.0674
   17MOL0     C 2255  12.474   4.342   9.177  0.1555  0.4174  0.2049
   17MOL0     O 2256  12.254   4.348   9.410 -0.1336  0.1053 -0.5895
   17MOL0     C 2257  11.977   4.272   9.200 -0.0752  0.0772 -0.8694
   17MOL0     C 2258  11.837   4.272   9.189  0.8409  0.2866 -0.0070
   17MOL0     N 2259  11.037   4.323   9.411  0.8517  0.3050  0.7716
   17MOL0     N 2260  10.949   4.376   9.332  0.0754 -0.0455 -0.9468
   17MOL0     C 2261   9.925   4.469   8.642 -0.5196 -0.1240 -0.3076
   17MOL0     C 2262   9.805   4.524   8.591 -0.7967 -0.6305 -0.9284
   17MOL0     C 2263   9.383   4.679   8.610 -0.1813 -0.0783  0.4148
   17MOL0     C 2264   9.294   4.584   8.563  0.4430  0.5651 -0.1972
   17MOL0     C 2265   9.157   4.609   8.557 -0.1271 -0.1131 -0.0787
   17MOL0     C 2266   9.105   4.731   8.590  0.0463  0.3651  0.3256
   17MOL0     O 2267   8.967   4.751   8.583  0.4877  0.4727  0.3108
   17MOL0     C 2268   8.915   4.876   8.641 -0.0414 -0.4769 -0.4764
   17MOL0     C 2269   8.760   4.866   8.637 -0.7239  0.8241  0.4345
   17MOL0     C 2270   8.697   4.750   8.717 -0.2419  0.1590  0.9336
   17MOL0     C 2271   8.546   4.753   8.705 -0.2250  0.3664  0.0319
   17MOL0     C 2272   8.494   4.724   8.570 -0.0740 -0.0111  0.0900
   17MOL0     C 2273   8.447   4.709   8.458  0.5944  0.4311 -0.1353
   17MOL0     C 2274   9.198   4.829   8.632 -0.1833 -0.5031 -0.8306
   17MOL0     C 2275   9.338   4.804   8.644  0.0446  0.1182  0.3640
   17MOL0     C 2276   9.424   4.928   8.680 -0.1869 -0.0926 -0.1604
   17MOL0     H 2277   9.592   4.286   8.721  0.2943 -0.3180 -1.0185
   17MOL0     H 2278   9.817   4.183   8.786 -0.2670  1.4113  2.9696
   17MOL0     H 2279  10.186   4.425   8.671  0.9967  1.4112 -2.5873
   17MOL0     H 2280  10.124   4.321   8.546 -0.7628  1.9462  0.6112
   17MOL0     H 2281  10.230   4.125   8.677  1.5474 -1.3739 -3.0381
   17MOL0     H 2282  10.350   4.224   8.596  0.5823  0.3608  0.4984
   17MOL0     H 2283  10.263   4.311   8.874 -0.7572  1.3835 -3.2463
   17MOL0     H 2284  10.334   4.160   8.882 -0.7221  1.4265  2.0446
   17MOL0     H 2285  10.531   4.236   8.749 -2.8752 -1.8699 -0.5826
   17MOL0     H 2286  10.501   4.401   8.797 -1.6759  0.0588 -0.0377
   17MOL0     H 2287  10.546   4.169   8.984 -0.5146  1.1696 -0.9454
   17MOL0     H 2288  10.483   4.327   9.037  1.2933  0.3390  1.4778
   17MOL0     H 2289  10.733   4.299   8.873  0.9302  0.9915  1.5741
   17MOL0     H 2290  10.669   4.443   8.964  0.5333  0.2982 -0.6932
   17MOL0     H 2291  10.775   4.179   9.079  1.0998  0.4067  0.5272
   17MOL0     H 2292  10.698   4.316   9.168  0.3315  0.6518 -0.1235
   17MOL0     H 2293  10.935   4.358   8.997 -0.7314 -2.9549  0.2197
   17MOL0     H 2294  10.857   4.472   9.119 -0.7900  0.1375 -1.0518
   17MOL0     H 2295  11.112   4.162   9.135  0.4594 -0.4462  0.2550
   17MOL0     H 2296  11.253   4.082   9.308  1.9374  2.0619 -1.8430
   17MOL0     H 2297  11.168   4.071   9.467 -0.1882  0.2461  0.2119
   17MOL0     H 2298  11.291   4.269   9.533 -1.4354 -0.3007 -0.0218
   17MOL0     H 2299  11.404   4.142   9.491 -0.0195  1.0728 -0.8918
   17MOL0     H 2300  11.381   4.266   9.247 -0.5509  0.1983  0.0027
   17MOL0     H 2301  11.320   4.398   9.337 -0.4113 -0.1097  1.1933
   17MOL0     H 2302  11.532   4.450   9.408 -1.7239  0.1303 -1.0311
   17MOL0     H 2303  11.568   4.283   9.462 -0.0837 -0.0486  0.0913
   17MOL0     H 2304  11.758   4.436   9.470  1.8820  2.7980  0.7370
   17MOL0     H 2305  12.083   4.385   9.598  0.5630 -0.6093 -0.8360
   17MOL0     H 2306  11.948   4.489   9.607  1.3368  0.4266  0.5101
   17MOL0     H 2307  12.086   4.534   9.505 -2.1698  2.4229  0.1653
   17MOL0     H 2308  12.384   4.026   9.244  0.2698  0.9507 -1.0975
   17MOL0     H 2309  12.621   3.987   9.205  0.5183 -0.1260  0.0368
   17MOL0     H 2310  12.822   4.081   9.320  1.0265 -2.5601  0.0582
   17MOL0     H 2311  12.833   3.996   9.163 -1.3707  0.7278 -1.7452
   17MOL0     H 2312  13.056   4.095   9.141  0.7768  1.9258  0.7239
   17MOL0     H 2313  13.037   4.188   9.295  3.3386 -1.5403  1.3664
   17MOL0     H 2314  12.981   3.934   9.379  1.0411 -2.1639 -0.9358
   17MOL0     H 2315  13.124   4.028   9.399  2.2173  1.7281 -3.0362
   17MOL0     H 2316  13.239   3.920   9.212 -0.1631  0.1991  0.8280
   17MOL0     H 2317  13.090   3.849   9.155  1.4108 -0.6392 -1.7293
   17MOL0     H 2318  13.065   3.725   9.368 -0.1841  0.9838  0.9424
   17MOL0     H 2319  13.192   3.673   9.252 -3.6264 -1.7719  1.3777
   17MOL0     H 2320  13.251   3.681   9.506  0.2061  0.2810 -0.1835
   17MOL0     H 2321  13.265   3.860   9.474  0.8711 -0.7782  0.0448
   17MOL0     H 2322  13.442   3.799   9.290 -1.9176  1.1076  0.8040
   17MOL0     H 2323  13.430   3.636   9.378  1.9543 -0.4056  5.9040
   17MOL0     H 2324  13.484   3.733   9.590  3.4013 -2.3715 -0.1139
   17MOL0     H 2325  13.512   3.888   9.521 -0.2992  0.6922 -0.2493
   17MOL0     H 2326  12.675   4.413   9.140  0.2181 -1.1273  1.9664
   17MOL0     H 2327  12.437   4.442   9.191  3.2308  1.3912  2.2639
   17MOL0     H 2328  12.030   4.220   9.120 -0.7963 -3.1417  0.5968
   17MOL0     H 2329  11.796   4.234   9.096  2.8322  0.5639 -1.0571
   17MOL0     H 2330  10.007   4.540   8.634  1.0854 -1.8763 -0.0120
   17MOL0     H 2331   9.793   4.620   8.541  2.1170 -0.7780 -2.1137
   17MOL0     H 2332   9.328   4.487   8.527  0.0998  0.3532  0.0476
   17MOL0     H 2333   9.080   4.541   8.521 -0.9278  1.1236 -0.7656
   17MOL0     H 2334   8.951   4.888   8.744 -1.4851  0.0563 -0.0128
   17MOL0     H 2335   8.964   4.954   8.582  4.4991 -1.5365  1.4598
   17MOL0     H 2336   8.737   4.852   8.531  0.0115  0.8063  0.2740
   17MOL0     H 2337   8.717   4.957   8.682  0.5230  0.7234  1.9278
   17MOL0     H 2338   8.726   4.655   8.672 -0.7578  0.7634 -0.7271
   17MOL0     H 2339   8.735   4.734   8.819  1.4952  1.7047  0.5869
   17MOL0     H 2340   8.506   4.845   8.749 -4.2015 -1.0110 -0.2994
   17MOL0     H 2341   8.506   4.668   8.762  0.0657 -2.5708 -3.7448
   17MOL0     H 2342   8.411   4.696   8.358 -0.2340  1.0288  0.0816
   17MOL0     H 2343   9.168   4.927   8.667  0.0198 -0.3361 -1.1173
   17MOL0     H 2344   9.499   4.907   8.757 -1.4966 -1.4708  0.7999
   17MOL0     H 2345   9.484   4.958   8.594 -0.3380 -0.5456 -0.4238
   17MOL0     H 2346   9.370   5.018   8.710  1.3879  0.8700 -0.0803
   18MOL0     O 2347   3.671   2.433   8.347 -0.4566 -0.2776  0.1158
   18MOL0     C 2348   3.668   2.383   8.459 -0.7004  1.1188  0.1887
   18MOL0     O 2349   3.770   2.315   8.517  0.4440  0.1766 -0.2495
   18MOL0     C 2350   3.869   2.279   8.435 -0.3032 -0.1706  0.3213
   18MOL0     C 2351   3.948   2.367   8.369 -1.2125 -0.9496  0.5473
   18MOL0     C 2352   4.048   2.331   8.273 -0.6618 -0.0139 -0.3202
   18MOL0     C 2353   4.063   2.193   8.247  0.4550  0.6594 -0.0082
   18MOL0     O 2354   4.138   2.139   8.140 -0.6072  0.2096 -0.1349
   18MOL0     C 2355   4.248   2.214   8.090  0.2133  0.7943 -0.0044
   18MOL0     C 2356   4.305   2.141   7.959 -0.0399 -0.3743  0.0754
   18MOL0     C 2357   4.202   2.134   7.850  0.7814  0.0430 -0.9028
   18MOL0     C 2358   4.255   2.111   7.712 -0.7885 -0.9437 -0.8181
   18MOL0     C 2359   4.309   1.963   7.701  0.5824 -0.9798 -0.2683
   18MOL0     C 2360   4.347   1.944   7.551  0.0329  0.0166 -0.2436
   18MOL0     C 2361   4.378   1.798   7.513  0.6986 -0.7385 -0.1424
   18MOL0     C 2362   4.427   1.789   7.364  0.4173  0.1135 -1.0401
   18MOL0     N 2363   4.551   1.855   7.355 -0.5323  0.2712  0.6982
   18MOL0     C 2364   4.662   1.842   7.429 -0.6157 -0.3087 -0.4415
   18MOL0     C 2365   4.760   1.927   7.371  0.2316  0.1277 -0.3145
   18MOL0     C 2366   4.895   1.965   7.431 -0.0532 -0.5611 -0.0878
   18MOL0     C 2367   5.002   1.863   7.373  0.1256 -0.6395  0.8316
   18MOL0     C 2368   5.049   1.907   7.237 -0.6937  0.1574  0.3511
   18MOL0     C 2369   5.150   1.801   7.172  0.8875  0.0507 -0.3560
   18MOL0     O 2370   5.200   1.858   7.051  0.1542 -0.2485  0.4436
   18MOL0     C 2371   5.326   1.908   7.038 -0.4671  0.2784 -0.7516
   18MOL0     C 2372   5.414   1.935   7.148  0.2318 -0.0470  0.1630
   18MOL0     C 2373   5.539   1.995   7.125  0.1905  0.0222 -0.2301
   18MOL0     C 2374   5.619   2.022   7.256 -0.1930  0.5424 -0.0690
   18MOL0     C 2375   5.586   2.027   6.993  0.3482  0.2797  0.1564
   18MOL0     C 2376   5.721   2.071   6.962  0.1280 -0.5670 -0.1149
   18MOL0     O 2377   5.744   2.112   6.837 -0.2985 -0.5007 -0.4891
   18MOL0     C 2378   5.877   2.153   6.814 -0.4991  0.0461 -0.6000
   18MOL0     C 2379   5.968   2.057   6.777  0.7136 -0.6835  0.5021
   18MOL0     C 2380   6.104   2.095   6.773  0.6347  0.1215  0.4906
   18MOL0     C 2381   6.143   2.231   6.780  0.9690 -0.5080  0.0543
   18MOL0     O 2382   6.265   2.290   6.772 -0.2318 -0.5046 -0.4064
   18MOL0     C 2383   6.386   2.206   6.785  0.1434  0.5811  0.5522
   18MOL0     C 2384   6.508   2.294   6.808  0.1819  0.0411 -0.6465
   18MOL0     C 2385   6.640   2.217   6.831 -0.3621  0.3741  0.4643
   18MOL0     C 2386   6.753   2.309   6.803 -0.1483 -0.1801  0.1835
   18MOL0     C 2387   6.886   2.233   6.817  0.3381  0.4243  0.4973
   18MOL0     C 2388   7.001   2.311   6.750 -0.7207  0.9720 -0.4699
   18MOL0     C 2389   7.127   2.221   6.754  0.3780 -0.3072 -0.8821
   18MOL0     C 2390   7.239   2.280   6.673 -0.5962  0.0008  0.5178
   18MOL0    Cl 2391   7.374   2.173   6.657 -0.1602  0.3168  0.5911
   18MOL0     C 2392   6.041   2.322   6.812  0.6039 -0.5892  0.2917
   18MOL0     C 2393   5.908   2.287   6.837 -0.2982  0.3836 -0.0354
   18MOL0     O 2394   5.808   2.057   7.050 -0.9690 -0.1116  0.6481
   18MOL0     C 2395   5.487   2.001   6.888  0.4066 -0.1144 -0.1654
   18MOL0     C 2396   5.362   1.940   6.910 -0.6870 -0.1577  0.4519
   18MOL0     N 2397   4.704   1.986   7.256 -0.3797  0.1451 -0.1897
   18MOL0     N 2398   4.586   1.947   7.254 -0.4275  0.0625  0.3259
   18MOL0     C 2399   3.985   2.103   8.312 -0.7313 -0.0730 -0.0724
   18MOL0     C 2400   3.891   2.145   8.408 -0.5764  0.4059  0.6734
   18MOL0     C 2401   3.550   2.402   8.542  0.8425 -0.1701 -0.0039
   18MOL0     C 2402   3.525   2.303   8.633  0.4758  0.3757 -0.2435
   18MOL0     C 2403   3.409   2.295   8.711 -0.6755 -0.4878  0.1846
   18MOL0     C 2404   3.321   2.394   8.709 -0.4062 -0.6016 -0.2507
   18MOL0     O 2405   3.208   2.383   8.783  0.4562 -0.0554  0.0032
   18MOL0     C 2406   3.135   2.499   8.827  0.1418 -0.2522  0.0137
   18MOL0     C 2407   3.021   2.461   8.924  0.2608 -0.2534  0.1210
   18MOL0     C 2408   2.972   2.589   8.988 -0.4683  0.7202 -0.4217
   18MOL0     C 2409   2.855   2.576   9.079  0.2623 -0.0896  0.0797
   18MOL0     C 2410   2.884   2.486   9.191 -0.8430 -0.6061  0.6307
   18MOL0     C 2411   2.904   2.417   9.291 -0.1576  0.0871 -0.2372
   18MOL0     C 2412   3.344   2.498   8.621 -0.2268  0.0463 -0.8328
   18MOL0     C 2413   3.456   2.509   8.540  0.0122  0.3139 -0.2716
   18MOL0     C 2414   3.471   2.617   8.435  1.2607 -0.1767 -0.6681
   18MOL0     H 2415   3.938   2.473   8.392  1.0096 -0.6967  0.5256
   18MOL0     H 2416   4.115   2.402   8.225  0.6444 -0.3548  0.9092
   18MOL0     H 2417   4.321   2.229   8.170 -1.2699  3.0495  1.0038
   18MOL0     H 2418   4.223   2.311   8.047  0.8455  0.1599 -1.9038
   18MOL0     H 2419   4.389   2.201   7.925 -1.2908  3.4928  3.0521
   18MOL0     H 2420   4.334   2.038   7.980  3.4193  0.8316  1.8856
   18MOL0     H 2421   4.127   2.057   7.864 -1.1676  1.8529 -0.8196
   18MOL0     H 2422   4.142   2.226   7.860  0.8256 -0.1244  1.4761
   18MOL0     H 2423   4.180   2.136   7.636 -0.8577  0.5050 -0.2930
   18MOL0     H 2424   4.334   2.183   7.690  0.8475 -3.0782 -2.4991
   18MOL0     H 2425   4.224   1.901   7.731 -2.1102  2.7207  0.5128
   18MOL0     H 2426   4.395   1.943   7.766  1.1838 -1.8586 -1.3043
   18MOL0     H 2427   4.262   1.976   7.490  0.4474 -0.4767 -1.0955
   18MOL0     H 2428   4.437   2.004   7.535  0.7483 -0.7098  0.8699
   18MOL0     H 2429   4.286   1.740   7.525 -2.2831  3.5242 -0.0089
   18MOL0     H 2430   4.449   1.764   7.589 -0.8626  0.1487  1.8084
   18MOL0     H 2431   4.423   1.687   7.325  2.1367 -0.0040 -1.0057
   18MOL0     H 2432   4.350   1.832   7.299 -0.8794 -0.7278 -0.0965
   18MOL0     H 2433   4.670   1.777   7.516 -8.2055  0.5554  1.6462
   18MOL0     H 2434   4.884   1.953   7.539 -0.5273 -0.6733 -0.1467
   18MOL0     H 2435   4.919   2.067   7.401 -1.2886 -0.6269 -1.3914
   18MOL0     H 2436   5.089   1.861   7.440 -0.8594 -0.2492  2.1540
   18MOL0     H 2437   4.951   1.767   7.369 -1.0961  0.0080 -2.7839
   18MOL0     H 2438   4.966   1.927   7.168 -0.6355  1.6118  0.6890
   18MOL0     H 2439   5.105   2.000   7.242  1.5841 -1.1169  0.0026
   18MOL0     H 2440   5.226   1.778   7.247 -1.0310 -0.5919  1.5081
   18MOL0     H 2441   5.100   1.707   7.148  1.0193  0.2514 -1.4825
   18MOL0     H 2442   5.380   1.928   7.251 -1.2978  0.0039 -0.3129
   18MOL0     H 2443   5.715   1.972   7.246  0.6036  2.0622 -0.3760
   18MOL0     H 2444   5.564   1.983   7.342  0.3441  2.9656  1.4705
   18MOL0     H 2445   5.642   2.129   7.269 -1.7403  0.6149  2.9651
   18MOL0     H 2446   5.939   1.955   6.756 -2.2619  0.1953 -0.0924
   18MOL0     H 2447   6.175   2.016   6.748 -1.1766 -0.6824 -2.6947
   18MOL0     H 2448   6.380   2.149   6.878 -0.1609  2.3210  1.6613
   18MOL0     H 2449   6.401   2.135   6.704  2.0659  0.2762  1.1396
   18MOL0     H 2450   6.512   2.367   6.727  3.2204  1.1593  0.3777
   18MOL0     H 2451   6.495   2.357   6.896 -0.8763 -1.9956  0.7396
   18MOL0     H 2452   6.641   2.128   6.767  1.9201  1.3078 -0.9389
   18MOL0     H 2453   6.647   2.176   6.932 -1.1704 -1.4648 -0.1660
   18MOL0     H 2454   6.767   2.389   6.877  1.2115 -0.1057 -0.1202
   18MOL0     H 2455   6.739   2.354   6.704 -0.2954  0.7776  0.6242
   18MOL0     H 2456   6.912   2.199   6.918  2.0127  0.9421  0.2634
   18MOL0     H 2457   6.882   2.142   6.756 -2.5947  0.7144  0.1161
   18MOL0     H 2458   7.021   2.408   6.797 -0.9320  0.3415  0.9835
   18MOL0     H 2459   6.973   2.332   6.647  1.9172 -0.0907 -1.5018
   18MOL0     H 2460   7.113   2.119   6.719 -0.3412 -0.9806  1.1830
   18MOL0     H 2461   7.152   2.215   6.861  2.3966 -1.0114 -1.3481
   18MOL0     H 2462   7.271   2.371   6.724  0.5611  1.1848 -2.1386
   18MOL0     H 2463   7.201   2.306   6.574 -0.0199  1.4041  0.6377
   18MOL0     H 2464   6.067   2.428   6.818 -2.9529  0.4255 -0.0630
   18MOL0     H 2465   5.840   2.365   6.872 -0.7515 -1.1412  2.8778
   18MOL0     H 2466   5.510   2.029   6.785 -0.8816  0.9765 -0.1715
   18MOL0     H 2467   5.287   1.922   6.834 -0.6839  1.6493 -0.0158
   18MOL0     H 2468   3.988   1.996   8.292  2.2982 -0.1001  0.1704
   18MOL0     H 2469   3.827   2.069   8.451  0.6254 -2.4137 -2.1667
   18MOL0     H 2470   3.590   2.219   8.656 -0.7454 -0.1816  1.3005
   18MOL0     H 2471   3.391   2.207   8.772  1.3237 -0.9358  0.1738
   18MOL0     H 2472   3.200   2.572   8.876 -1.9601  1.6099  0.1734
   18MOL0     H 2473   3.092   2.556   8.745  2.4905  0.1690 -1.0206
   18MOL0     H 2474   3.062   2.392   8.999  1.0195 -2.2561 -2.0027
   18MOL0     H 2475   2.951   2.404   8.862  2.4006  0.7779 -3.6162
   18MOL0     H 2476   3.049   2.638   9.048 -0.1034  1.3917 -1.4162
   18MOL0     H 2477   2.953   2.657   8.905  4.7557  0.8103 -1.9038
   18MOL0     H 2478   2.772   2.549   9.012  0.7437  0.8948 -0.9606
   18MOL0     H 2479   2.824   2.672   9.121 -1.2310 -0.8428  0.7826
   18MOL0     H 2480   2.930   2.355   9.375 -3.5451  0.6660  1.4193
   18MOL0     H 2481   3.274   2.580   8.623 -1.5258 -0.8582  3.7046
   18MOL0     H 2482   3.456   2.581   8.333 -0.1507  0.1497 -0.5861
   18MOL0     H 2483   3.381   2.678   8.444  1.7649  0.5293 -0.3347
   18MOL0     H 2484   3.567   2.668   8.451  0.5577  1.5750 -1.8304
   19MOL0     O 2485   9.577   2.916   4.861 -0.1618 -0.6375  0.4654
   19MOL0     C 2486   9.585   2.804   4.920  1.5498 -0.0338 -0.6297
   19MOL0     O 2487   9.626   2.794   5.052 -0.2836  0.2091  0.2277
   19MOL0     C 2488   9.643   2.907   5.124 -0.6694 -0.7220  0.6009
   19MOL0     C 2489   9.542   3.007   5.145  0.3304  0.3130 -0.4506
   19MOL0     C 2490   9.566   3.132   5.206 -0.3969 -0.7302 -0.7421
   19MOL0     C 2491   9.689   3.157   5.265  0.1386  1.3840  0.5193
   19MOL0     O 2492   9.714   3.276   5.316 -0.3277  1.6013 -0.0056
   19MOL0     C 2493   9.749   3.365   5.215  0.0993  0.3368 -0.3374
   19MOL0     C 2494   9.756   3.499   5.268  0.3141  0.2123  0.8094
   19MOL0     C 2495   9.848   3.592   5.187 -0.0646 -0.5353 -0.3995
   19MOL0     C 2496   9.769   3.688   5.095 -0.5538  0.0448 -0.1065
   19MOL0     C 2497   9.853   3.806   5.051  1.3872  0.3595 -0.1797
   19MOL0     C 2498   9.956   3.782   4.944 -0.5111  0.3543 -0.4517
   19MOL0     C 2499  10.011   3.918   4.913  0.3731  0.1108  1.1176
   19MOL0     C 2500  10.123   3.932   4.809  0.0417  0.0608  0.3551
   19MOL0     N 2501  10.251   3.878   4.858 -0.2930  0.1869  0.3672
   19MOL0     C 2502  10.355   3.951   4.914 -0.2531  0.0377  0.8151
   19MOL0     C 2503  10.447   3.860   4.938  0.3825 -0.2055 -0.5390
   19MOL0     C 2504  10.586   3.891   4.986 -0.0629  1.5357  0.0700
   19MOL0     C 2505  10.599   4.000   5.097  0.1473  0.1202  0.4771
   19MOL0     C 2506  10.733   4.001   5.164 -0.1538 -0.5259 -0.2518
   19MOL0     C 2507  10.751   4.124   5.263  0.1959  0.7848 -0.0714
   19MOL0     O 2508  10.828   4.213   5.181 -0.2864 -0.9094  0.7385
   19MOL0     C 2509  10.876   4.327   5.237 -0.5245 -0.0356  0.1715
   19MOL0     C 2510  10.873   4.366   5.372 -0.5142  0.4553  0.7025
   19MOL0     C 2511  10.936   4.477   5.415 -0.3839 -1.0102 -0.3461
   19MOL0     C 2512  10.918   4.512   5.561 -0.5320  0.0357  0.4055
   19MOL0     C 2513  11.011   4.557   5.319 -0.7159  0.3572  0.8595
   19MOL0     C 2514  11.093   4.677   5.356  0.2741  0.6919 -0.2065
   19MOL0     O 2515  11.135   4.765   5.266  0.1884  0.1632  0.8843
   19MOL0     C 2516  11.258   4.824   5.282  0.1806  0.7120 -0.0618
   19MOL0     C 2517  11.372   4.759   5.224  0.8674 -0.0853 -0.4775
   19MOL0     C 2518  11.497   4.813   5.243 -0.2293 -0.9257  0.0881
   19MOL0     C 2519  11.524   4.924   5.326 -0.3186  0.9303 -0.2089
   19MOL0     O 2520  11.653   4.964   5.354 -0.1530 -0.2005  0.1085
   19MOL0     C 2521  11.691   5.016   5.484  0.7181  0.1249  0.0854
   19MOL0     C 2522  11.829   4.963   5.535  0.4945  0.2563  0.0048
   19MOL0     C 2523  11.855   4.811   5.531 -0.5761 -0.3950 -0.0207
   19MOL0     C 2524  11.985   4.773   5.608 -0.0323 -0.1010  0.2327
   19MOL0     C 2525  12.021   4.632   5.568  0.0213  0.1430 -0.0508
   19MOL0     C 2526  12.178   4.615   5.601  0.4414 -0.6145  0.4426
   19MOL0     C 2527  12.226   4.653   5.742  0.7100 -0.4129  0.2041
   19MOL0     C 2528  12.347   4.577   5.790 -0.1712 -0.0162  0.4783
   19MOL0    Cl 2529  12.501   4.644   5.714 -0.5994 -0.8010 -0.1510
   19MOL0     C 2530  11.416   5.000   5.361  0.7873  0.1854 -0.0952
   19MOL0     C 2531  11.279   4.950   5.338  0.5848 -0.4858 -0.3048
   19MOL0     O 2532  11.142   4.667   5.469  0.4543  0.1734 -0.0693
   19MOL0     C 2533  11.004   4.515   5.189  0.0475 -0.2362  0.1181
   19MOL0     C 2534  10.937   4.410   5.144 -0.2900  0.3764 -0.1907
   19MOL0     N 2535  10.397   3.737   4.904 -0.3605 -0.2410  0.3798
   19MOL0     N 2536  10.289   3.746   4.850 -0.1851  0.1786 -0.1546
   19MOL0     C 2537   9.790   3.056   5.256  0.8098 -0.7518  0.4755
   19MOL0     C 2538   9.770   2.934   5.186  0.3388 -0.0424  0.2689
   19MOL0     C 2539   9.541   2.681   4.847 -0.0214 -0.1430 -0.9022
   19MOL0     C 2540   9.575   2.553   4.900 -0.7672 -0.1263 -0.2799
   19MOL0     C 2541   9.566   2.430   4.830 -0.3445  0.2335 -0.2107
   19MOL0     C 2542   9.489   2.419   4.716  1.3258  0.0623 -0.8500
   19MOL0     O 2543   9.468   2.300   4.652  0.5934  0.9220 -0.2641
   19MOL0     C 2544   9.457   2.299   4.509  0.1105  0.1499  0.8433
   19MOL0     C 2545   9.587   2.322   4.425  0.3123 -0.6785 -0.4205
   19MOL0     C 2546   9.675   2.191   4.428  0.6012  0.7621  0.3299
   19MOL0     C 2547   9.801   2.203   4.342 -1.0403  0.2650  0.1918
   19MOL0     C 2548   9.880   2.327   4.366 -0.1410  0.3829  0.4889
   19MOL0     C 2549   9.920   2.438   4.394  0.3836  0.6153  0.7075
   19MOL0     C 2550   9.442   2.549   4.667 -0.4375 -0.3858 -0.3665
   19MOL0     C 2551   9.461   2.671   4.728  0.1009 -0.5628  0.2191
   19MOL0     C 2552   9.393   2.788   4.669 -0.1889 -0.7621  0.0318
   19MOL0     H 2553   9.444   2.990   5.103  0.9077  0.4309 -1.9079
   19MOL0     H 2554   9.484   3.203   5.214 -0.1461 -0.5139 -0.0318
   19MOL0     H 2555   9.678   3.360   5.132  0.0174  2.6618 -0.4757
   19MOL0     H 2556   9.846   3.337   5.174 -0.9639 -0.9487 -2.1068
   19MOL0     H 2557   9.651   3.529   5.260  0.0941  0.4421  3.5373
   19MOL0     H 2558   9.772   3.507   5.376  0.4643 -0.9609  0.8820
   19MOL0     H 2559   9.902   3.654   5.258  1.5679 -1.0941 -1.1028
   19MOL0     H 2560   9.919   3.530   5.131 -0.9446 -0.1965 -1.9478
   19MOL0     H 2561   9.727   3.637   5.008 -1.4600  0.9162 -0.1895
   19MOL0     H 2562   9.683   3.719   5.154 -2.7502 -0.1133 -3.0373
   19MOL0     H 2563   9.886   3.851   5.145 -1.0734  0.0591  0.9025
   19MOL0     H 2564   9.784   3.874   5.003  0.2118  0.2346  1.2515
   19MOL0     H 2565  10.031   3.709   4.976 -0.3969  1.5726  2.3766
   19MOL0     H 2566   9.915   3.748   4.848  1.7159  0.8356 -1.6388
   19MOL0     H 2567  10.052   3.969   5.000  1.1705 -0.2679  0.9737
   19MOL0     H 2568   9.929   3.982   4.876  0.0781 -1.9003 -2.1380
   19MOL0     H 2569  10.089   3.864   4.731 -1.1124 -0.3953  1.2257
   19MOL0     H 2570  10.123   4.037   4.778 -1.3155  0.0897  0.4032
   19MOL0     H 2571  10.365   4.057   4.934  1.1514 -0.4326  2.8651
   19MOL0     H 2572  10.650   3.909   4.899 -1.1598  3.8854 -0.3342
   19MOL0     H 2573  10.623   3.801   5.036 -1.4402  1.3335  0.7797
   19MOL0     H 2574  10.584   4.097   5.049  2.7529 -1.1093 -3.3008
   19MOL0     H 2575  10.527   3.982   5.178 -0.5043 -1.6363 -0.4408
   19MOL0     H 2576  10.743   3.907   5.220 -0.3684 -1.8546 -2.3527
   19MOL0     H 2577  10.813   4.006   5.090 -0.6890  3.3777 -0.7569
   19MOL0     H 2578  10.656   4.167   5.297 -0.4412 -0.4713 -0.1776
   19MOL0     H 2579  10.799   4.097   5.357  1.0144 -2.3761 -1.2720
   19MOL0     H 2580  10.820   4.313   5.451 -1.5517 -0.3550 -0.5088
   19MOL0     H 2581  10.838   4.449   5.601 -3.9542  1.7860 -3.0358
   19MOL0     H 2582  10.884   4.615   5.562 -2.3027 -0.5183  0.6203
   19MOL0     H 2583  11.014   4.502   5.612  0.1883  1.9769 -0.4712
   19MOL0     H 2584  11.347   4.668   5.170 -4.3130  0.4959  0.4639
   19MOL0     H 2585  11.572   4.754   5.192 -0.1329  0.4315 -1.4075
   19MOL0     H 2586  11.694   5.125   5.478  3.8972  0.1957  1.2714
   19MOL0     H 2587  11.611   4.983   5.552  0.5385  1.0083  0.3162
   19MOL0     H 2588  11.904   5.005   5.469 -0.3767  2.5385  0.3830
   19MOL0     H 2589  11.843   4.999   5.637  0.1553  1.7394 -0.4568
   19MOL0     H 2590  11.856   4.771   5.429  0.9380 -3.6845  1.1190
   19MOL0     H 2591  11.773   4.753   5.574 -2.0895  0.9150 -1.0374
   19MOL0     H 2592  11.972   4.783   5.717  2.4599 -2.0552  0.7939
   19MOL0     H 2593  12.061   4.840   5.568 -0.5430  0.5942  0.4209
   19MOL0     H 2594  11.956   4.563   5.623 -1.1834  1.6320  0.4983
   19MOL0     H 2595  12.018   4.613   5.461  0.2046 -1.3271  0.1910
   19MOL0     H 2596  12.224   4.684   5.530 -1.0113  0.3434  0.3939
   19MOL0     H 2597  12.211   4.514   5.573  2.2102  0.4456 -1.6632
   19MOL0     H 2598  12.147   4.659   5.818  0.9629 -0.9311  0.5157
   19MOL0     H 2599  12.262   4.755   5.729  0.5455 -0.6351 -2.5382
   19MOL0     H 2600  12.334   4.470   5.773  0.3077  0.1696 -1.2457
   19MOL0     H 2601  12.361   4.598   5.897  0.7883  1.2317  0.1425
   19MOL0     H 2602  11.426   5.099   5.404  1.5202  0.2719 -0.4658
   19MOL0     H 2603  11.188   5.002   5.366  1.4868  1.9369 -1.5366
   19MOL0     H 2604  11.063   4.577   5.122 -1.1164  1.0853  0.2575
   19MOL0     H 2605  10.949   4.376   5.042  0.0492 -0.8094  0.2235
   19MOL0     H 2606   9.879   3.073   5.315  1.4862  0.3794 -0.8087
   19MOL0     H 2607   9.861   2.875   5.184  1.1984  1.1819 -3.2684
   19MOL0     H 2608   9.649   2.567   4.979  1.1335  2.5902 -2.3435
   19MOL0     H 2609   9.612   2.344   4.878  0.5174  1.7963  1.9306
   19MOL0     H 2610   9.418   2.203   4.471 -1.9046  1.5523 -0.9014
   19MOL0     H 2611   9.378   2.366   4.473  2.2894  2.7164  0.5249
   19MOL0     H 2612   9.653   2.396   4.470  0.6972 -1.3838  0.2156
   19MOL0     H 2613   9.551   2.362   4.330  1.7479  1.4576 -0.1449
   19MOL0     H 2614   9.689   2.151   4.528  1.9059  1.3602  0.4074
   19MOL0     H 2615   9.630   2.105   4.377  1.2858  0.2582  0.5567
   19MOL0     H 2616   9.774   2.204   4.236  2.4688 -1.3682 -0.8666
   19MOL0     H 2617   9.864   2.115   4.360 -1.2279  0.4375  1.7772
   19MOL0     H 2618   9.945   2.539   4.422 -0.9662  0.4492  2.6647
   19MOL0     H 2619   9.384   2.547   4.575 -0.4774 -1.0303 -0.3324
   19MOL0     H 2620   9.350   2.840   4.755  0.2040 -0.3120 -0.0414
   19MOL0     H 2621   9.465   2.852   4.617 -1.2915  0.7674  0.3040
   19MOL0     H 2622   9.301   2.769   4.613 -0.8926  2.1524  0.0557
   20MOL0     O 2623   5.581   4.556   5.151 -0.2306  0.1263 -0.3543
   20MOL0     C 2624   5.552   4.595   5.040 -0.7639  0.0706 -0.1589
   20MOL0     O 2625   5.628   4.671   4.967  0.0702 -0.1704  0.6739
   20MOL0     C 2626   5.752   4.703   4.998 -0.1092  0.0391  0.1860
   20MOL0     C 2627   5.788   4.836   4.983 -0.1067 -0.7341 -0.4889
   20MOL0     C 2628   5.925   4.881   4.988  0.5101  0.7294  0.3800
   20MOL0     C 2629   6.032   4.791   4.999  0.5225  0.5612 -0.7298
   20MOL0     O 2630   6.163   4.832   5.006  1.1697 -0.4847  0.7751
   20MOL0     C 2631   6.258   4.739   5.055  1.0478 -0.1728 -0.2184
   20MOL0     C 2632   6.385   4.810   5.103 -0.0810  0.3385  0.6447
   20MOL0     C 2633   6.465   4.875   4.982  0.3447  0.7627 -0.0813
   20MOL0     C 2634   6.575   4.963   5.042  1.0618  0.3973  0.1311
   20MOL0     C 2635   6.661   5.029   4.929 -0.3865  0.2910 -0.0868
   20MOL0     C 2636   6.744   4.933   4.847  0.1901 -0.2160 -0.4715
   20MOL0     C 2637   6.848   5.026   4.797 -0.3354  0.0764  0.1519
   20MOL0     C 2638   6.948   4.938   4.708  0.3215  0.9650 -0.2518
   20MOL0     N 2639   7.061   5.013   4.669  0.0171 -0.0900  0.3548
   20MOL0     C 2640   7.068   5.105   4.564  0.2057  0.0492 -0.2845
   20MOL0     C 2641   7.191   5.156   4.564 -0.2633 -0.2997  0.2620
   20MOL0     C 2642   7.255   5.246   4.459  0.3520  0.3055 -1.3739
   20MOL0     C 2643   7.363   5.346   4.514  0.4001 -0.1289  0.7727
   20MOL0     C 2644   7.440   5.416   4.397 -0.6287 -0.0814 -0.6308
   20MOL0     C 2645   7.576   5.461   4.451 -1.2900  0.1278  0.3748
   20MOL0     O 2646   7.638   5.559   4.368 -0.3923 -0.3639 -0.0086
   20MOL0     C 2647   7.751   5.625   4.412 -0.4832  0.2313 -0.7031
   20MOL0     C 2648   7.837   5.579   4.519  0.3748 -0.0506 -0.1095
   20MOL0     C 2649   7.959   5.649   4.541  0.4474 -0.5319  0.2060
   20MOL0     C 2650   8.047   5.587   4.645  0.0919  0.1000 -0.4298
   20MOL0     C 2651   7.998   5.767   4.458 -0.1266  0.9635 -0.6478
   20MOL0     C 2652   8.131   5.839   4.474  0.2882  0.6009  0.4672
   20MOL0     O 2653   8.237   5.775   4.524 -0.1859 -0.5124  0.0024
   20MOL0     C 2654   8.352   5.846   4.545  0.9343  0.2355 -0.6351
   20MOL0     C 2655   8.449   5.844   4.449 -0.3887  0.3864 -0.2492
   20MOL0     C 2656   8.576   5.898   4.468  0.6751 -0.5915  0.2838
   20MOL0     C 2657   8.606   5.962   4.593 -0.3706  0.5568 -0.5462
   20MOL0     O 2658   8.714   6.042   4.615 -0.0536  0.4215 -0.0210
   20MOL0     C 2659   8.827   5.991   4.543 -0.4819 -0.1300 -0.3440
   20MOL0     C 2660   8.959   6.070   4.595  0.2460 -0.9792  0.7382
   20MOL0     C 2661   8.955   6.220   4.544  0.7188  0.9090 -0.7667
   20MOL0     C 2662   9.072   6.290   4.610  0.2839  0.0114 -0.8256
   20MOL0     C 2663   9.093   6.420   4.545 -0.3616  0.2894 -0.3758
   20MOL0     C 2664   9.159   6.404   4.404  0.8651  0.5164  1.1171
   20MOL0     C 2665   9.172   6.545   4.344 -0.8824 -0.5044  0.1706
   20MOL0     C 2666   9.200   6.547   4.194  0.9011  0.1730 -0.4986
   20MOL0    Cl 2667   9.370   6.510   4.158 -0.0243  0.2797  0.3142
   20MOL0     C 2668   8.507   5.966   4.690  0.1532 -1.0680  0.8731
   20MOL0     C 2669   8.376   5.910   4.660  0.3002 -0.6112  0.8750
   20MOL0     O 2670   8.127   5.954   4.440 -0.0503 -0.4409 -0.5426
   20MOL0     C 2671   7.909   5.807   4.361 -0.1050 -0.0302  0.2073
   20MOL0     C 2672   7.789   5.734   4.345 -0.5698  0.1823  0.1090
   20MOL0     N 2673   7.263   5.092   4.662  0.0215 -0.5560 -0.0620
   20MOL0     N 2674   7.187   5.005   4.719  0.0571  0.0934 -0.0385
   20MOL0     C 2675   5.984   4.651   5.010 -1.0726 -0.0694 -0.0282
   20MOL0     C 2676   5.854   4.609   5.019  0.6718  0.3509 -0.6368
   20MOL0     C 2677   5.424   4.564   4.972 -0.4538 -0.5254 -0.2665
   20MOL0     C 2678   5.396   4.631   4.852  0.3032  0.2750  0.8416
   20MOL0     C 2679   5.278   4.602   4.779 -0.0320  0.2172 -0.8667
   20MOL0     C 2680   5.183   4.529   4.837  0.4446 -0.5673 -1.0476
   20MOL0     O 2681   5.068   4.479   4.781  0.5290 -0.6728  0.0350
   20MOL0     C 2682   5.012   4.545   4.665  0.0054  0.1248 -1.0966
   20MOL0     C 2683   4.914   4.662   4.684 -0.5312  0.4346 -0.4291
   20MOL0     C 2684   4.792   4.605   4.765 -0.1696 -0.6423 -0.1446
   20MOL0     C 2685   4.695   4.713   4.814 -0.3820  0.0101 -0.5892
   20MOL0     C 2686   4.745   4.806   4.911  0.2931  1.0816 -0.0022
   20MOL0     C 2687   4.794   4.876   4.991 -0.5538 -0.0431 -0.6131
   20MOL0     C 2688   5.210   4.479   4.964  0.4664 -0.3581  0.0739
   20MOL0     C 2689   5.330   4.485   5.025  0.2030  0.6067 -0.8406
   20MOL0     C 2690   5.344   4.403   5.156 -0.0078 -0.6523 -0.5010
   20MOL0     H 2691   5.699   4.896   4.962 -0.2031 -0.6999  0.0158
   20MOL0     H 2692   5.949   4.981   4.952  0.4167  0.2078 -1.2193
   20MOL0     H 2693   6.288   4.656   4.989  2.2858  1.1567 -1.4069
   20MOL0     H 2694   6.216   4.708   5.151  2.8434  0.8834  0.9631
   20MOL0     H 2695   6.365   4.896   5.168  2.6763  3.4776 -2.2569
   20MOL0     H 2696   6.439   4.744   5.171 -1.2012  1.3163  2.5631
   20MOL0     H 2697   6.505   4.800   4.914  0.6161  0.4962  0.3679
   20MOL0     H 2698   6.385   4.928   4.930 -2.6138 -0.2967  2.9948
   20MOL0     H 2699   6.522   5.037   5.101 -2.9223 -1.8484 -0.2740
   20MOL0     H 2700   6.645   4.907   5.105  1.7242 -1.1549 -1.8304
   20MOL0     H 2701   6.722   5.096   4.989  0.2590 -1.1015  0.8734
   20MOL0     H 2702   6.596   5.087   4.863  0.9691  1.9734  0.0089
   20MOL0     H 2703   6.797   4.856   4.905  1.7664  0.6434 -0.7172
   20MOL0     H 2704   6.696   4.886   4.761  2.2384  0.6379 -2.1916
   20MOL0     H 2705   6.905   5.076   4.876 -0.4895  1.1349 -0.3905
   20MOL0     H 2706   6.813   5.098   4.722  0.9794 -0.9594 -1.5403
   20MOL0     H 2707   6.975   4.848   4.763 -0.2405 -0.0878 -1.6481
   20MOL0     H 2708   6.899   4.895   4.620 -0.6130  0.2743  0.5896
   20MOL0     H 2709   6.993   5.135   4.492  0.1751  0.7113  0.0140
   20MOL0     H 2710   7.181   5.306   4.405 -1.5261  1.9554  2.5981
   20MOL0     H 2711   7.305   5.176   4.391 -2.6271 -0.2975 -3.1172
   20MOL0     H 2712   7.320   5.430   4.570  2.4492  1.2765  0.3614
   20MOL0     H 2713   7.427   5.284   4.577 -0.7712 -1.1472  0.9983
   20MOL0     H 2714   7.448   5.334   4.326 -0.5676 -3.2698  2.7321
   20MOL0     H 2715   7.388   5.502   4.354  1.0989  0.6404 -1.3779
   20MOL0     H 2716   7.559   5.499   4.552 -1.6901  0.2205  0.2745
   20MOL0     H 2717   7.636   5.372   4.466  2.6946  2.7792  1.7145
   20MOL0     H 2718   7.815   5.489   4.574  1.9306  0.6142  1.6908
   20MOL0     H 2719   8.101   5.664   4.701 -2.0157  2.3738 -1.3734
   20MOL0     H 2720   8.123   5.518   4.606  1.9673  2.3638 -1.0666
   20MOL0     H 2721   7.992   5.535   4.724  1.6257 -2.2784 -0.8037
   20MOL0     H 2722   8.437   5.786   4.357  3.7501 -1.0176 -0.1182
   20MOL0     H 2723   8.648   5.893   4.386  1.4687  1.7779  0.7555
   20MOL0     H 2724   8.833   5.884   4.565 -0.8344  0.2787  2.1099
   20MOL0     H 2725   8.819   5.995   4.434  1.0856 -3.6172 -0.7344
   20MOL0     H 2726   8.965   6.082   4.703 -0.5140 -0.4003  0.7286
   20MOL0     H 2727   9.043   6.010   4.560 -1.8519 -3.5559 -0.2302
   20MOL0     H 2728   8.860   6.269   4.563  0.2914  1.4110 -3.6850
   20MOL0     H 2729   8.962   6.210   4.435 -3.3874  0.1434 -1.0920
   20MOL0     H 2730   9.165   6.233   4.604  1.6519  2.2324 -3.4099
   20MOL0     H 2731   9.050   6.314   4.714 -0.8318  0.1646 -1.0761
   20MOL0     H 2732   8.995   6.468   4.538 -0.2543  0.5542 -0.1285
   20MOL0     H 2733   9.158   6.479   4.612 -3.7871  1.6582  2.0367
   20MOL0     H 2734   9.100   6.346   4.333 -0.7509  2.6077  0.6436
   20MOL0     H 2735   9.258   6.359   4.414  0.3038 -0.6125  1.7775
   20MOL0     H 2736   9.256   6.597   4.389 -1.5989  1.8230 -0.9896
   20MOL0     H 2737   9.081   6.603   4.363  0.2958  0.9504  1.5740
   20MOL0     H 2738   9.182   6.648   4.154  1.2138  1.2079  1.8076
   20MOL0     H 2739   9.130   6.476   4.150 -0.5517  0.7720  0.7604
   20MOL0     H 2740   8.530   6.019   4.782 -1.0519  0.1780  0.4886
   20MOL0     H 2741   8.304   5.906   4.742 -2.0970  0.5268 -1.0483
   20MOL0     H 2742   7.928   5.895   4.301  2.1529  0.5614  1.6461
   20MOL0     H 2743   7.724   5.745   4.258 -0.1729 -3.0116 -0.7236
   20MOL0     H 2744   6.061   4.577   5.028 -0.3394  1.1793  2.4507
   20MOL0     H 2745   5.830   4.504   5.015  1.2528  0.1874 -0.0832
   20MOL0     H 2746   5.475   4.687   4.804 -0.9071  1.8529  0.6272
   20MOL0     H 2747   5.271   4.660   4.687  1.1628  1.2908 -0.3205
   20MOL0     H 2748   5.097   4.570   4.600  0.0123 -1.4019 -1.7195
   20MOL0     H 2749   4.950   4.473   4.610  2.2554 -5.0119  2.3032
   20MOL0     H 2750   4.881   4.700   4.587 -4.3719  3.4489  1.7663
   20MOL0     H 2751   4.956   4.742   4.746 -1.9235  1.3343 -0.6160
   20MOL0     H 2752   4.743   4.520   4.717 -0.9683 -1.9268  2.7152
   20MOL0     H 2753   4.829   4.567   4.861  0.1749  0.1007  0.0289
   20MOL0     H 2754   4.605   4.671   4.861 -0.9835  2.2768  0.4615
   20MOL0     H 2755   4.656   4.765   4.726 -0.2367 -0.8439 -1.1675
   20MOL0     H 2756   4.838   4.953   5.051 -1.2053  2.8289 -3.4977
   20MOL0     H 2757   5.126   4.424   5.007 -0.0343 -2.0877 -2.9036
   20MOL0     H 2758   5.446   4.367   5.173  0.0024 -0.4886 -0.2149
   20MOL0     H 2759   5.299   4.453   5.243 -1.4035 -1.4513 -0.7298
   20MOL0     H 2760   5.278   4.316   5.152 -1.7143  0.3933  2.2559
   21MOL0     O 2761   1.882   9.989  11.377  1.0995  0.1530 -0.4131
   21MOL0     C 2762   1.847  10.072  11.291  0.0489  0.3160 -0.2073
   21MOL0     O 2763   1.930  10.166  11.242 -0.0270 -0.2017 -0.4877
   21MOL0     C 2764   2.048  10.187  11.308 -0.0297  0.4554  0.6673
   21MOL0     C 2765   2.069  10.306  11.372 -0.3789 -0.2223 -0.3959
   21MOL0     C 2766   2.194  10.334  11.429  0.4415  0.0750 -0.1237
   21MOL0     C 2767   2.300  10.245  11.409 -1.2062 -0.0263  0.1544
   21MOL0     O 2768   2.425  10.279  11.447 -0.2951  0.0233  0.0859
   21MOL0     C 2769   2.460  10.407  11.495  0.0574 -0.2224 -0.5417
   21MOL0     C 2770   2.605  10.408  11.534 -0.4298 -0.6031 -0.0827
   21MOL0     C 2771   2.713  10.363  11.439  0.0166 -0.9416  0.0365
   21MOL0     C 2772   2.849  10.371  11.508 -0.2420  0.8031  0.8850
   21MOL0     C 2773   2.964  10.368  11.411  0.2153 -0.0211  1.1742
   21MOL0     C 2774   3.105  10.378  11.472  0.2075 -0.5885 -0.0400
   21MOL0     C 2775   3.205  10.404  11.350 -0.4938  0.0741 -0.4095
   21MOL0     C 2776   3.349  10.397  11.388  0.3628  0.8163  0.1311
   21MOL0     N 2777   3.436  10.430  11.278 -0.0152  0.3063  0.0907
   21MOL0     C 2778   3.502  10.552  11.264 -0.7306 -0.6686 -0.3590
   21MOL0     C 2779   3.614  10.508  11.182  0.1491  0.7791  1.1344
   21MOL0     C 2780   3.717  10.605  11.138  0.8496  0.2950  0.1554
   21MOL0     C 2781   3.855  10.567  11.188  0.1058 -0.1095  0.9742
   21MOL0     C 2782   3.948  10.685  11.141 -0.0854 -0.4919  0.0880
   21MOL0     C 2783   4.102  10.660  11.166 -0.7729  0.5201 -0.4296
   21MOL0     O 2784   4.170  10.749  11.077  0.2777  0.0833  0.1684
   21MOL0     C 2785   4.290  10.791  11.101  0.7109 -0.6446  0.6195
   21MOL0     C 2786   4.335  10.882  11.012 -0.1954  0.1551  0.6257
   21MOL0     C 2787   4.454  10.951  11.034 -0.9075  0.3406 -0.2101
   21MOL0     C 2788   4.491  11.052  10.928 -0.0185  0.4011 -0.5828
   21MOL0     C 2789   4.547  10.910  11.135 -0.1273 -0.3747 -0.2820
   21MOL0     C 2790   4.682  10.971  11.144  0.3335  0.6244  0.2528
   21MOL0     O 2791   4.781  10.892  11.190 -0.1049 -0.6016 -0.2819
   21MOL0     C 2792   4.908  10.936  11.205 -0.1181 -0.9577 -0.6968
   21MOL0     C 2793   4.973  10.918  11.325  0.4429 -0.2546  0.0560
   21MOL0     C 2794   5.107  10.959  11.343 -0.3099  0.5289 -0.0220
   21MOL0     C 2795   5.169  11.009  11.230  0.4421 -0.4212 -0.1554
   21MOL0     O 2796   5.298  11.058  11.252 -0.1994  0.0147 -0.4117
   21MOL0     C 2797   5.393  10.975  11.190 -1.2607  0.4254 -0.3641
   21MOL0     C 2798   5.464  11.056  11.080 -0.3555 -0.6802 -0.1407
   21MOL0     C 2799   5.499  11.194  11.124 -0.9258 -0.5559  0.2253
   21MOL0     C 2800   5.605  11.190  11.240 -0.3316  0.4681 -0.2307
   21MOL0     C 2801   5.751  11.149  11.205 -0.6251 -0.3161  0.6560
   21MOL0     C 2802   5.825  11.235  11.106  0.3915 -0.0053  0.1087
   21MOL0     C 2803   5.972  11.210  11.083 -0.6339  0.9590  0.2520
   21MOL0     C 2804   6.021  11.305  10.971  1.1851  1.1414  0.4365
   21MOL0    Cl 2805   5.961  11.232  10.812  0.1127  0.2934 -0.2710
   21MOL0     C 2806   5.112  11.015  11.106 -0.3626  0.3947 -0.0956
   21MOL0     C 2807   4.979  10.976  11.094 -1.0289 -0.0895 -0.7159
   21MOL0     O 2808   4.702  11.087  11.117 -0.0845 -0.3940 -0.4755
   21MOL0     C 2809   4.501  10.802  11.220 -0.2077 -0.2021 -1.0645
   21MOL0     C 2810   4.374  10.751  11.207 -0.3744  0.7777 -0.1750
   21MOL0     N 2811   3.595  10.378  11.142 -0.6459  0.7951 -0.3002
   21MOL0     N 2812   3.497  10.333  11.203 -0.3535  0.2246  0.0650
   21MOL0     C 2813   2.279  10.117  11.355 -0.6906 -0.4601 -0.8161
   21MOL0     C 2814   2.151  10.090  11.310 -0.0492 -0.3490  1.3646
   21MOL0     C 2815   1.719  10.050  11.224  0.1168 -0.9571 -0.0857
   21MOL0     C 2816   1.672   9.918  11.226 -0.2115 -0.7300 -0.9300
   21MOL0     C 2817   1.547   9.888  11.174 -0.1039 -0.6866  0.2502
   21MOL0     C 2818   1.470   9.987  11.118 -0.6216  0.1725  0.5454
   21MOL0     O 2819   1.347   9.949  11.066 -0.0144 -0.6626 -0.3621
   21MOL0     C 2820   1.237  10.041  11.110 -0.1758  0.6618  0.5682
   21MOL0     C 2821   1.110   9.953  11.084 -0.3511  0.0318  0.3831
   21MOL0     C 2822   0.978  10.014  11.120  0.6572  0.1291  0.5134
   21MOL0     C 2823   0.856   9.935  11.081 -0.0372  0.2886  0.2063
   21MOL0     C 2824   0.872   9.801  11.140 -0.2233 -0.3787 -0.2120
   21MOL0     C 2825   0.885   9.681  11.173 -0.4449  0.9084  0.0423
   21MOL0     C 2826   1.525  10.125  11.108 -0.4985 -0.1796 -0.2082
   21MOL0     C 2827   1.652  10.160  11.158  0.1858  0.3553  0.2036
   21MOL0     C 2828   1.704  10.302  11.145  0.3488 -0.4789 -0.5848
   21MOL0     H 2829   1.995  10.385  11.379  0.8841  0.8777  4.8054
   21MOL0     H 2830   2.188  10.421  11.494 -2.5605  0.4733 -0.8014
   21MOL0     H 2831   2.408  10.443  11.584  0.6531 -1.8071  0.4755
   21MOL0     H 2832   2.444  10.482  11.417  1.6849  0.5399 -0.2030
   21MOL0     H 2833   2.635  10.512  11.553 -0.8907 -0.0990 -1.9331
   21MOL0     H 2834   2.627  10.349  11.624  2.6585  0.9670  0.3075
   21MOL0     H 2835   2.681  10.269  11.392 -1.5033 -0.5096  0.1327
   21MOL0     H 2836   2.724  10.436  11.358 -1.8545  0.5624  1.0631
   21MOL0     H 2837   2.856  10.472  11.549 -1.2786  1.3962 -0.3284
   21MOL0     H 2838   2.857  10.297  11.589 -4.3376  1.8708  2.5540
   21MOL0     H 2839   2.954  10.452  11.342 -1.4560  0.6422  2.1710
   21MOL0     H 2840   2.950  10.272  11.361  0.0841  0.1940  0.7964
   21MOL0     H 2841   3.115  10.464  11.538 -2.4209  0.2673 -0.6420
   21MOL0     H 2842   3.126  10.289  11.531  0.3700 -0.4075  0.1736
   21MOL0     H 2843   3.186  10.498  11.299  0.3497  0.9276  0.7977
   21MOL0     H 2844   3.182  10.326  11.276 -0.3939  0.1742 -0.5456
   21MOL0     H 2845   3.370  10.474  11.462  0.4862  2.9687 -2.0091
   21MOL0     H 2846   3.373  10.304  11.439 -4.0275  0.7845  2.5761
   21MOL0     H 2847   3.496  10.649  11.311 -0.6061 -0.1114 -1.4458
   21MOL0     H 2848   3.703  10.712  11.154  0.6515  0.1800  0.7883
   21MOL0     H 2849   3.714  10.599  11.029 -0.5309  3.1186 -0.0457
   21MOL0     H 2850   3.863  10.557  11.297  0.4846 -0.8001  0.8834
   21MOL0     H 2851   3.887  10.474  11.142  0.5795 -0.1014  1.2739
   21MOL0     H 2852   3.936  10.701  11.034 -1.8115 -2.8192 -0.1435
   21MOL0     H 2853   3.920  10.773  11.200 -0.7213 -1.6227  1.5673
   21MOL0     H 2854   4.124  10.696  11.267  0.2570 -1.0426 -0.0414
   21MOL0     H 2855   4.130  10.554  11.158 -0.0579  0.4746  1.9366
   21MOL0     H 2856   4.273  10.926  10.934 -3.0233  1.2741  3.2694
   21MOL0     H 2857   4.413  11.070  10.853 -2.2783 -2.9575  0.7098
   21MOL0     H 2858   4.581  11.015  10.879 -0.4950 -0.7018 -0.6405
   21MOL0     H 2859   4.517  11.142  10.985 -0.7756 -0.8631  1.9417
   21MOL0     H 2860   4.909  10.885  11.407 -0.4073  1.6908  0.2490
   21MOL0     H 2861   5.165  10.944  11.434  1.5981 -2.7326 -1.5976
   21MOL0     H 2862   5.452  10.944  11.277 -0.0487 -0.2518 -1.3881
   21MOL0     H 2863   5.359  10.881  11.144  1.7797 -0.3028 -1.3612
   21MOL0     H 2864   5.553  10.997  11.057 -1.5067 -2.1856 -0.8670
   21MOL0     H 2865   5.400  11.076  10.994  0.5277 -1.7498 -1.0743
   21MOL0     H 2866   5.407  11.242  11.158 -1.2847 -2.0315  1.4686
   21MOL0     H 2867   5.531  11.258  11.042 -0.3500  0.3771  1.1585
   21MOL0     H 2868   5.579  11.129  11.327  2.4913 -1.4723 -0.6007
   21MOL0     H 2869   5.611  11.294  11.271  2.6581  0.5134 -0.6811
   21MOL0     H 2870   5.823  11.151  11.287  0.6258  1.1548 -0.4198
   21MOL0     H 2871   5.744  11.051  11.157  2.4207  0.0586 -0.7435
   21MOL0     H 2872   5.812  11.340  11.132 -0.4538 -0.0722 -0.0174
   21MOL0     H 2873   5.768  11.210  11.016  1.3728 -2.0949  0.0162
   21MOL0     H 2874   5.999  11.106  11.062  2.7198  1.1345  2.8616
   21MOL0     H 2875   6.028  11.230  11.174 -2.1026  1.1572  1.1522
   21MOL0     H 2876   6.129  11.289  10.972  1.0514  0.2524  1.1743
   21MOL0     H 2877   5.993  11.411  10.980 -0.4461  0.8824 -1.1246
   21MOL0     H 2878   5.163  11.046  11.015 -1.3466  0.2879 -0.6875
   21MOL0     H 2879   4.919  10.988  11.004 -0.3322 -0.3285 -1.2193
   21MOL0     H 2880   4.568  10.756  11.292 -2.5839 -0.9154  0.8128
   21MOL0     H 2881   4.340  10.676  11.278  0.3523  0.5625 -0.0497
   21MOL0     H 2882   2.356  10.042  11.369 -0.0060  0.6210  1.7906
   21MOL0     H 2883   2.139   9.989  11.271  1.4704  0.5970 -1.9477
   21MOL0     H 2884   1.733   9.837  11.265 -1.1684 -1.2235 -0.4173
   21MOL0     H 2885   1.506   9.788  11.176  1.4901 -1.4531 -1.5307
   21MOL0     H 2886   1.250  10.084  11.209 -1.4938 -1.7754  1.8953
   21MOL0     H 2887   1.241  10.121  11.034  1.8134  0.0213 -0.0617
   21MOL0     H 2888   1.121   9.856  11.134 -2.1889 -0.1144  0.5789
   21MOL0     H 2889   1.096   9.942  10.976 -2.2112  2.9604  0.1904
   21MOL0     H 2890   0.966  10.044  11.225  0.4826  1.5665  0.0945
   21MOL0     H 2891   0.973  10.109  11.067  0.2989  0.3124  0.8706
   21MOL0     H 2892   0.859   9.918  10.973  0.8646 -2.1477  0.5534
   21MOL0     H 2893   0.765   9.991  11.107 -0.5474 -0.8436  0.9118
   21MOL0     H 2894   0.894   9.584  11.219  3.1807  1.3698  0.6133
   21MOL0     H 2895   1.465  10.204  11.064 -1.0608 -0.1952  0.5131
   21MOL0     H 2896   1.799  10.285  11.094  2.9040 -1.8393  4.0192
   21MOL0     H 2897   1.651  10.386  11.098  1.5599  1.3840  1.1854
   21MOL0     H 2898   1.724  10.343  11.245 -1.3065 -1.2412  0.1073
   22MOL0     O 2899  10.599   5.802   1.236  0.7521  0.2847  0.0580
   22MOL0     C 2900  10.538   5.914   1.235  0.5995 -0.3573  0.4752
   22MOL0     O 2901  10.437   5.945   1.152  0.1564  0.1881  0.2234
   22MOL0     C 2902  10.382   5.849   1.073  0.4621  0.4352 -0.5735
   22MOL0     C 2903  10.452   5.791   0.965 -0.4997  0.2180  0.1214
   22MOL0     C 2904  10.402   5.691   0.888  0.0853 -0.0786 -0.5524
   22MOL0     C 2905  10.269   5.645   0.915  0.6628 -0.2668  0.5110
   22MOL0     O 2906  10.186   5.573   0.826 -0.3161  0.3827  0.9194
   22MOL0     C 2907  10.245   5.530   0.694 -0.4296  0.2885 -0.3446
   22MOL0     C 2908  10.156   5.430   0.625  0.2701 -0.4058  0.2859
   22MOL0     C 2909  10.027   5.483   0.565 -0.1587 -0.0474  0.7033
   22MOL0     C 2910   9.931   5.545   0.666  0.0659 -0.1787  1.0002
   22MOL0     C 2911   9.938   5.698   0.669  0.0565  0.5187  0.8155
   22MOL0     C 2912   9.878   5.765   0.544  0.0664 -0.3887 -1.0417
   22MOL0     C 2913   9.814   5.898   0.567 -0.4479  1.0725 -0.6861
   22MOL0     C 2914   9.814   5.978   0.443 -0.4679 -0.2863 -0.1709
   22MOL0     N 2915   9.937   6.046   0.417  0.0998 -0.7949  0.1913
   22MOL0     C 2916   9.979   6.151   0.493  0.4817  0.5344 -0.2939
   22MOL0     C 2917  10.108   6.174   0.463 -0.6323 -0.0834 -0.0178
   22MOL0     C 2918  10.195   6.274   0.528 -0.6806 -0.7025 -0.8848
   22MOL0     C 2919  10.200   6.394   0.438  0.3938  0.2807  0.1263
   22MOL0     C 2920  10.288   6.501   0.491 -0.1835 -0.5073 -0.1325
   22MOL0     C 2921  10.247   6.569   0.627 -0.2624 -0.8972  0.5031
   22MOL0     O 2922  10.343   6.666   0.676  0.2905 -0.3128 -0.0089
   22MOL0     C 2923  10.471   6.624   0.706  0.2410 -0.2113  0.0939
   22MOL0     C 2924  10.494   6.500   0.777 -0.1239  0.0726 -0.6411
   22MOL0     C 2925  10.623   6.480   0.833  0.1241 -0.0827 -0.3803
   22MOL0     C 2926  10.646   6.356   0.911  0.0531  0.4250 -0.5035
   22MOL0     C 2927  10.738   6.563   0.801  0.5847  0.6194  0.8724
   22MOL0     C 2928  10.879   6.539   0.823 -0.2353  1.0980  0.6765
   22MOL0     O 2929  10.953   6.632   0.889  0.3043  0.5539  0.8511
   22MOL0     C 2930  11.094   6.631   0.890 -0.5721 -0.0303  0.7367
   22MOL0     C 2931  11.185   6.546   0.826  0.9702  0.1654 -0.6379
   22MOL0     C 2932  11.322   6.556   0.829 -0.7752 -0.4995  0.4314
   22MOL0     C 2933  11.376   6.651   0.914 -0.0637 -0.3390 -0.4950
   22MOL0     O 2934  11.506   6.669   0.924  0.3166  0.0396  0.5094
   22MOL0     C 2935  11.561   6.702   1.054 -0.4268 -0.0697  0.0005
   22MOL0     C 2936  11.673   6.607   1.066 -1.1276  0.1736  0.5129
   22MOL0     C 2937  11.758   6.638   1.191  0.2472 -0.1020  0.5487
   22MOL0     C 2938  11.859   6.751   1.166 -0.8918  0.1560  0.3988
   22MOL0     C 2939  11.944   6.750   1.297  0.1602 -0.6867  0.5222
   22MOL0     C 2940  12.031   6.879   1.291  1.0826 -0.4444 -0.6337
   22MOL0     C 2941  12.123   6.891   1.412 -0.5554  0.7279 -0.1883
   22MOL0     C 2942  12.238   6.797   1.395 -0.6306 -0.1645  0.1841
   22MOL0    Cl 2943  12.375   6.840   1.503  0.1044 -0.0220 -0.0605
   22MOL0     C 2944  11.292   6.739   0.983  0.4045 -0.1358  0.2124
   22MOL0     C 2945  11.153   6.735   0.971 -0.7860  0.0577  0.1840
   22MOL0     O 2946  10.914   6.427   0.780  0.6162  0.5544 -0.8193
   22MOL0     C 2947  10.697   6.687   0.727 -0.4366  0.5789 -1.1629
   22MOL0     C 2948  10.571   6.715   0.686  0.2928  0.4238  0.4643
   22MOL0     N 2949  10.150   6.088   0.363 -0.5735 -0.0413 -0.7330
   22MOL0     N 2950  10.043   6.018   0.334  0.0354 -0.1382 -0.8909
   22MOL0     C 2951  10.200   5.706   1.023  0.1372  0.1531 -0.1919
   22MOL0     C 2952  10.251   5.809   1.098  0.3548 -0.7179  1.1772
   22MOL0     C 2953  10.594   6.014   1.317  0.2979 -1.1907  0.4836
   22MOL0     C 2954  10.586   6.151   1.278 -0.0246  0.9473  0.1798
   22MOL0     C 2955  10.648   6.244   1.351 -0.0836  0.0382 -0.5051
   22MOL0     C 2956  10.700   6.227   1.474  1.0331  0.1521  0.5110
   22MOL0     O 2957  10.750   6.323   1.564 -0.1946  0.1773  0.2875
   22MOL0     C 2958  10.825   6.430   1.504 -0.2853 -0.5157 -1.0376
   22MOL0     C 2959  10.952   6.375   1.444  0.6591 -0.2759 -0.7923
   22MOL0     C 2960  11.029   6.481   1.377  0.0095 -0.0112  0.5678
   22MOL0     C 2961  11.008   6.498   1.231 -0.3435 -0.4907  0.5434
   22MOL0     C 2962  10.889   6.576   1.203  0.3093  0.3620  0.6762
   22MOL0     C 2963  10.790   6.633   1.168  0.1611  0.1789  0.3908
   22MOL0     C 2964  10.718   6.095   1.509 -0.1383 -0.6024 -0.2750
   22MOL0     C 2965  10.665   5.996   1.440 -0.6238  0.8325 -0.0058
   22MOL0     C 2966  10.699   5.864   1.497  0.1797  0.4384  0.3947
   22MOL0     H 2967  10.558   5.814   0.967 -0.4994  0.2945 -0.5338
   22MOL0     H 2968  10.474   5.657   0.815  2.2800  0.0428  1.4255
   22MOL0     H 2969  10.340   5.480   0.712 -0.0987  0.9674 -0.1736
   22MOL0     H 2970  10.269   5.620   0.638 -0.4772  0.7751  0.3948
   22MOL0     H 2971  10.214   5.377   0.549  0.4897  0.0642  0.1247
   22MOL0     H 2972  10.122   5.361   0.703  1.6484  2.7198  3.9885
   22MOL0     H 2973  10.050   5.541   0.475  3.5566 -0.7989  1.0132
   22MOL0     H 2974   9.977   5.402   0.512 -1.7877  1.3099  0.0722
   22MOL0     H 2975   9.832   5.515   0.633  0.7851 -1.7505  0.1416
   22MOL0     H 2976   9.954   5.502   0.765  0.4652 -1.2474  0.4655
   22MOL0     H 2977  10.042   5.730   0.679 -0.1451  2.4174 -2.1488
   22MOL0     H 2978   9.891   5.724   0.765 -1.5734 -0.0410  0.2016
   22MOL0     H 2979   9.967   5.774   0.481  2.1149 -3.1413  1.2044
   22MOL0     H 2980   9.801   5.707   0.493 -0.6631  0.4135 -0.8724
   22MOL0     H 2981   9.858   5.959   0.647 -0.1772  0.7037 -0.5527
   22MOL0     H 2982   9.712   5.885   0.605 -0.1637 -0.1581 -0.3294
   22MOL0     H 2983   9.799   5.900   0.368 -2.7639  2.7870 -3.1843
   22MOL0     H 2984   9.721   6.035   0.445  1.0545  2.4341 -1.8203
   22MOL0     H 2985   9.924   6.200   0.573 -1.0140 -1.2207 -0.1620
   22MOL0     H 2986  10.291   6.229   0.554 -0.6917  1.6524  4.5819
   22MOL0     H 2987  10.159   6.308   0.626  2.4048  0.4129 -0.0469
   22MOL0     H 2988  10.232   6.362   0.339 -0.7988  1.8771 -0.8117
   22MOL0     H 2989  10.097   6.430   0.448  0.2708 -0.1748  0.5960
   22MOL0     H 2990  10.390   6.464   0.508  1.1400  3.7619  2.7287
   22MOL0     H 2991  10.291   6.587   0.424  0.1399 -0.6279 -0.2760
   22MOL0     H 2992  10.153   6.620   0.605 -0.1257  0.3662  2.5833
   22MOL0     H 2993  10.224   6.495   0.704 -1.9981  0.1312  1.0219
   22MOL0     H 2994  10.412   6.430   0.791  1.7972 -2.0870  0.4897
   22MOL0     H 2995  10.726   6.371   0.984 -2.3096  2.3406  1.9254
   22MOL0     H 2996  10.683   6.275   0.848  0.6280  0.4545 -0.2107
   22MOL0     H 2997  10.553   6.338   0.966 -0.7185  0.4368 -1.7755
   22MOL0     H 2998  11.142   6.474   0.758 -2.6169  0.2011  1.3388
   22MOL0     H 2999  11.385   6.489   0.771 -1.0586 -0.6163  0.2573
   22MOL0     H 3000  11.607   6.801   1.052  0.1971 -0.3344 -2.9566
   22MOL0     H 3001  11.491   6.696   1.138 -0.9246  0.6411 -0.3472
   22MOL0     H 3002  11.639   6.504   1.075 -2.5813  0.4194 -1.5554
   22MOL0     H 3003  11.745   6.620   0.984 -0.3709  0.3275  1.1849
   22MOL0     H 3004  11.823   6.551   1.209  0.2864 -0.0699  0.5611
   22MOL0     H 3005  11.691   6.644   1.277 -0.8050  0.6219 -0.3015
   22MOL0     H 3006  11.800   6.843   1.160  1.9434  1.9923 -1.2241
   22MOL0     H 3007  11.904   6.758   1.067 -3.8715 -1.1321 -1.1659
   22MOL0     H 3008  11.875   6.747   1.381 -1.6445  1.2855 -0.7980
   22MOL0     H 3009  12.006   6.660   1.289 -0.0694 -0.6890 -1.9643
   22MOL0     H 3010  11.969   6.969   1.294  2.3274  0.4174  0.6631
   22MOL0     H 3011  12.083   6.881   1.195  0.2649 -1.2571 -1.1019
   22MOL0     H 3012  12.070   6.879   1.506 -0.2860 -1.4316 -0.2493
   22MOL0     H 3013  12.165   6.992   1.414  1.0956  0.0549  0.9815
   22MOL0     H 3014  12.269   6.810   1.291  4.7102 -0.4598  1.4517
   22MOL0     H 3015  12.204   6.694   1.413 -1.2721  0.0528  0.2441
   22MOL0     H 3016  11.338   6.825   1.031  2.7355 -2.0845  1.6792
   22MOL0     H 3017  11.079   6.798   1.019 -2.4814 -0.4084 -1.6251
   22MOL0     H 3018  10.777   6.758   0.711 -1.1587  2.4912  2.4980
   22MOL0     H 3019  10.536   6.803   0.634  1.8802  0.3230 -0.8844
   22MOL0     H 3020  10.097   5.680   1.042 -0.4749  2.8882  0.7433
   22MOL0     H 3021  10.184   5.855   1.170 -0.6339 -1.2605  0.6361
   22MOL0     H 3022  10.547   6.179   1.181 -1.2670 -0.4615  0.2527
   22MOL0     H 3023  10.625   6.344   1.315 -2.2540 -0.6203 -1.1242
   22MOL0     H 3024  10.767   6.479   1.425 -1.2947  0.8626  0.4893
   22MOL0     H 3025  10.840   6.509   1.577  0.1098 -0.1106 -1.5516
   22MOL0     H 3026  10.932   6.297   1.370 -0.7451  0.4818 -1.2426
   22MOL0     H 3027  11.008   6.328   1.525 -3.5286 -1.8268  1.4895
   22MOL0     H 3028  11.022   6.581   1.421  1.8758  0.2493  0.3618
   22MOL0     H 3029  11.135   6.457   1.392  0.7481 -0.1295 -3.6165
   22MOL0     H 3030  10.999   6.399   1.186  2.4111 -0.4881 -0.2116
   22MOL0     H 3031  11.092   6.552   1.184 -0.5726 -1.6605 -1.3051
   22MOL0     H 3032  10.697   6.681   1.146  0.5827  1.0099  0.3930
   22MOL0     H 3033  10.773   6.083   1.601 -1.9654 -3.9571  0.5446
   22MOL0     H 3034  10.601   5.816   1.503 -0.5861  1.8503 -0.3058
   22MOL0     H 3035  10.776   5.817   1.434  0.0315 -1.2669  1.4198
   22MOL0     H 3036  10.735   5.871   1.600  0.8582  2.0769  0.0734
   23MOL0     O 3037   5.691   9.471  10.112 -0.7416 -0.0593  0.9568
   23MOL0     C 3038   5.731   9.415  10.015  0.4669 -0.0114  0.0109
   23MOL0     O 3039   5.817   9.474   9.930 -0.8442  0.5600 -0.2901
   23MOL0     C 3040   5.839   9.615   9.932  0.0404 -0.3561  0.2156
   23MOL0     C 3041   5.753   9.717   9.976 -0.7253  0.5495  0.0798
   23MOL0     C 3042   5.782   9.855   9.962 -0.3687  0.1576 -0.2097
   23MOL0     C 3043   5.905   9.891   9.902 -0.7064 -0.5102 -0.0767
   23MOL0     O 3044   5.934  10.025   9.891 -0.8088 -0.2777  0.3042
   23MOL0     C 3045   6.009  10.056   9.768  0.0828  0.5469 -0.4842
   23MOL0     C 3046   5.993  10.203   9.741 -0.4832  0.1749 -0.3687
   23MOL0     C 3047   5.849  10.242   9.702 -0.0799  0.2348 -0.7436
   23MOL0     C 3048   5.859  10.397   9.696  1.3886  0.3318 -0.0579
   23MOL0     C 3049   5.748  10.468   9.611  0.5143 -0.2737  0.2962
   23MOL0     C 3050   5.752  10.630   9.640 -0.6719  0.3750 -0.3534
   23MOL0     C 3051   5.892  10.684   9.617  1.1626  0.1098  0.0998
   23MOL0     C 3052   5.897  10.828   9.604  0.4770  0.2773  0.0649
   23MOL0     N 3053   6.038  10.881   9.610 -0.0884  0.7041 -0.5475
   23MOL0     C 3054   6.110  10.920   9.718  0.4876 -0.0427  0.9983
   23MOL0     C 3055   6.237  10.945   9.684 -0.6140  0.9051 -0.2715
   23MOL0     C 3056   6.340  10.989   9.782  0.4276  0.0931 -0.4499
   23MOL0     C 3057   6.348  11.143   9.774 -0.4768 -0.6226 -0.6778
   23MOL0     C 3058   6.450  11.186   9.884  0.2036  0.4606  0.9825
   23MOL0     C 3059   6.509  11.312   9.837 -0.5030  0.2390 -0.8577
   23MOL0     O 3060   6.570  11.381   9.950 -0.2480 -0.0854 -0.4367
   23MOL0     C 3061   6.612  11.509   9.923 -0.7564 -0.1738  0.1533
   23MOL0     C 3062   6.633  11.566   9.795 -0.1702  0.1414  0.7546
   23MOL0     C 3063   6.690  11.689   9.786 -0.0604 -0.0357  0.3601
   23MOL0     C 3064   6.718  11.735   9.638 -0.2842 -0.1501 -0.1847
   23MOL0     C 3065   6.712  11.766   9.907  0.0668  0.1544  0.5118
   23MOL0     C 3066   6.769  11.905   9.895 -0.9766 -0.2922 -0.7802
   23MOL0     O 3067   6.829  11.954  10.011  0.1766 -0.2188  0.5185
   23MOL0     C 3068   6.900  12.069   9.989  0.0848 -0.6157  0.2970
   23MOL0     C 3069   7.040  12.038   9.990  0.2563  0.0477 -0.1889
   23MOL0     C 3070   7.132  12.140   9.965  0.0578 -0.8756  0.8234
   23MOL0     C 3071   7.085  12.273   9.931 -0.4460 -0.5024  0.0374
   23MOL0     O 3072   7.177  12.369   9.899  0.8335 -0.7270 -0.2724
   23MOL0     C 3073   7.320  12.342   9.892 -1.0166  0.0570  0.0067
   23MOL0     C 3074   7.395  12.479   9.856 -0.5829 -0.0099 -1.0655
   23MOL0     C 3075   7.540  12.446   9.828 -0.1478 -0.5578  0.3940
   23MOL0     C 3076   7.579  12.393   9.690 -0.4839  0.6917 -0.5410
   23MOL0     C 3077   7.710  12.306   9.689 -1.0150  0.2044  1.1733
   23MOL0     C 3078   7.831  12.376   9.743 -0.1187 -0.6168  0.0866
   23MOL0     C 3079   7.942  12.274   9.736 -0.8353  0.3993 -0.5589
   23MOL0     C 3080   8.077  12.339   9.789 -0.2855  1.0683  0.7736
   23MOL0    Cl 3081   8.201  12.224   9.744  0.1984 -0.2603 -0.4093
   23MOL0     C 3082   6.952  12.303   9.939 -0.0257 -0.3321 -0.3574
   23MOL0     C 3083   6.856  12.196   9.967  0.2079 -0.3265 -0.9204
   23MOL0     O 3084   6.739  11.972   9.800 -0.4226  0.3455  0.2223
   23MOL0     C 3085   6.704  11.707  10.030  0.6700  0.0846  0.2431
   23MOL0     C 3086   6.655  11.576  10.032  0.2449 -0.6886  0.3286
   23MOL0     N 3087   6.241  10.938   9.547 -0.1426  0.5678 -0.2832
   23MOL0     N 3088   6.123  10.894   9.506  0.0601  0.1937 -0.2791
   23MOL0     C 3089   5.994   9.792   9.859  0.1494  0.8344  0.7076
   23MOL0     C 3090   5.963   9.655   9.875  0.1265  0.5194 -0.0475
   23MOL0     C 3091   5.699   9.275   9.993  0.2048 -0.0419 -0.0477
   23MOL0     C 3092   5.778   9.181   9.924  1.0530  0.3004  0.1918
   23MOL0     C 3093   5.738   9.049   9.907 -0.1519 -0.1579 -0.0431
   23MOL0     C 3094   5.617   9.010   9.966 -0.4488 -0.3511  0.2918
   23MOL0     O 3095   5.582   8.881   9.957  0.6293  0.4563 -0.5544
   23MOL0     C 3096   5.520   8.819  10.069  0.4367 -0.2489 -0.3755
   23MOL0     C 3097   5.599   8.817  10.201 -0.5791  0.4014 -0.3689
   23MOL0     C 3098   5.714   8.720  10.191  0.6138 -0.3678  0.2439
   23MOL0     C 3099   5.785   8.709  10.326  0.7719 -0.2956 -0.3410
   23MOL0     C 3100   5.931   8.677  10.315  0.3791  0.3153  0.5164
   23MOL0     C 3101   6.050   8.662  10.314 -0.0206  0.4136  0.0737
   23MOL0     C 3102   5.531   9.111  10.008 -0.1606  0.5026  0.1734
   23MOL0     C 3103   5.564   9.243  10.016 -0.9754  0.3227  0.2816
   23MOL0     C 3104   5.458   9.337  10.056  0.1007  0.2084 -0.7060
   23MOL0     H 3105   5.653   9.685  10.005 -0.7971 -0.1324 -0.8664
   23MOL0     H 3106   5.712   9.936   9.981 -1.2809 -0.7588  0.4815
   23MOL0     H 3107   5.991   9.995   9.679 -0.5835  0.5418 -0.3563
   23MOL0     H 3108   6.115  10.038   9.788  0.2585  1.4825 -0.5425
   23MOL0     H 3109   6.029  10.264   9.824  1.8268 -2.0318  0.3712
   23MOL0     H 3110   6.046  10.226   9.648 -0.7143  2.0378 -0.0621
   23MOL0     H 3111   5.817  10.182   9.617 -0.7110 -3.6754  1.9615
   23MOL0     H 3112   5.783  10.198   9.778 -0.2682 -1.9641 -2.1063
   23MOL0     H 3113   5.867  10.435   9.799 -1.3994 -0.0117  0.3464
   23MOL0     H 3114   5.956  10.420   9.651  2.5184 -0.5195  1.8199
   23MOL0     H 3115   5.650  10.422   9.632  0.4170 -0.1899  0.0346
   23MOL0     H 3116   5.769  10.449   9.505  0.5508  1.7503 -0.0867
   23MOL0     H 3117   5.675  10.686   9.586 -1.9191  0.2823  1.2540
   23MOL0     H 3118   5.737  10.643   9.748 -0.5542 -3.0124  0.1943
   23MOL0     H 3119   5.935  10.648   9.523  0.5145 -1.8590  0.5101
   23MOL0     H 3120   5.941  10.652   9.710 -1.0960 -1.8916  0.6949
   23MOL0     H 3121   5.839  10.870   9.521  0.2041  1.2409  0.7239
   23MOL0     H 3122   5.848  10.856   9.698 -0.2103 -0.4689 -0.0583
   23MOL0     H 3123   6.077  10.911   9.821 -1.8718  0.9871  0.3914
   23MOL0     H 3124   6.433  10.941   9.750 -0.0551 -1.7718  0.8275
   23MOL0     H 3125   6.305  10.961   9.881 -1.0755 -0.3300 -1.0814
   23MOL0     H 3126   6.378  11.169   9.673  0.0584  0.7663 -0.1784
   23MOL0     H 3127   6.250  11.187   9.792  0.3802  0.9040  0.4873
   23MOL0     H 3128   6.399  11.205   9.979 -0.2716 -1.0848  1.0725
   23MOL0     H 3129   6.523  11.104   9.887 -1.6187 -1.3797 -0.9607
   23MOL0     H 3130   6.579  11.307   9.754  0.1626  0.8637 -0.3505
   23MOL0     H 3131   6.436  11.379   9.791 -2.1052 -1.8477 -1.4793
   23MOL0     H 3132   6.617  11.510   9.703 -1.8491  1.9387 -0.1186
   23MOL0     H 3133   6.811  11.790   9.623  0.9730 -1.7890  1.3042
   23MOL0     H 3134   6.641  11.805   9.603 -0.3205  0.7498  1.5699
   23MOL0     H 3135   6.725  11.648   9.572  1.5124 -2.1070  2.3715
   23MOL0     H 3136   7.076  11.936  10.000 -2.1620 -0.7161  1.5741
   23MOL0     H 3137   7.234  12.102   9.964 -0.9711 -4.0711  2.9214
   23MOL0     H 3138   7.357  12.306   9.988  2.1200  2.6921 -0.0357
   23MOL0     H 3139   7.340  12.263   9.819 -2.2842  0.0591 -0.3621
   23MOL0     H 3140   7.351  12.541   9.777  0.5753 -1.1897 -2.6995
   23MOL0     H 3141   7.407  12.545   9.942  2.4654 -1.5201 -0.1974
   23MOL0     H 3142   7.573  12.375   9.904  0.1224  1.2590  2.0220
   23MOL0     H 3143   7.599  12.538   9.828 -0.5032  0.0216 -5.1733
   23MOL0     H 3144   7.601  12.470   9.615  1.7136  0.3171 -0.3578
   23MOL0     H 3145   7.499  12.324   9.661 -0.5870  0.9148 -0.7815
   23MOL0     H 3146   7.685  12.216   9.746 -3.6187 -0.2718 -0.5319
   23MOL0     H 3147   7.737  12.278   9.587 -3.3054  0.1611  0.5310
   23MOL0     H 3148   7.813  12.417   9.843 -0.0086  1.9717 -0.8850
   23MOL0     H 3149   7.866  12.459   9.681  2.3539 -2.9894 -1.9289
   23MOL0     H 3150   7.956  12.244   9.632 -2.4219  2.0921 -1.3162
   23MOL0     H 3151   7.921  12.185   9.796  0.6542 -1.3101 -2.4433
   23MOL0     H 3152   8.055  12.344   9.896 -1.0074 -1.3307  0.8075
   23MOL0     H 3153   8.095  12.441   9.755 -0.9894  0.3973 -1.8889
   23MOL0     H 3154   6.914  12.400   9.907  0.6364  0.9091  2.2860
   23MOL0     H 3155   6.752  12.226   9.961  1.0278  2.6164 -1.9590
   23MOL0     H 3156   6.738  11.758  10.120  1.1927 -1.2996  0.8663
   23MOL0     H 3157   6.637  11.529  10.129  0.8681 -1.7242 -0.0382
   23MOL0     H 3158   6.090   9.820   9.816  0.5897  2.7883  2.7563
   23MOL0     H 3159   6.047   9.592   9.847  0.2207  1.3146 -1.7307
   23MOL0     H 3160   5.877   9.206   9.889  1.1742 -0.9642 -0.3900
   23MOL0     H 3161   5.808   8.982   9.857 -1.0918 -1.8937  0.8633
   23MOL0     H 3162   5.422   8.864  10.085  0.4956  0.2737 -1.4441
   23MOL0     H 3163   5.483   8.718  10.049  2.0710 -0.8815 -0.3979
   23MOL0     H 3164   5.525   8.788  10.276  0.2622  0.5730  0.5450
   23MOL0     H 3165   5.629   8.918  10.231  0.8780 -0.7171  2.2567
   23MOL0     H 3166   5.681   8.619  10.163  0.4289 -0.5965  1.2295
   23MOL0     H 3167   5.783   8.750  10.112  1.3492 -2.4016  0.0421
   23MOL0     H 3168   5.742   8.624  10.381  1.5922 -0.6248 -0.1905
   23MOL0     H 3169   5.784   8.799  10.387 -0.6188 -0.3958 -0.1970
   23MOL0     H 3170   6.156   8.648  10.316 -0.0530  0.2660  1.0593
   23MOL0     H 3171   5.432   9.092  10.049 -1.6006  2.0935 -2.2864
   23MOL0     H 3172   5.457   9.352  10.164  1.5381 -0.4479 -0.5784
   23MOL0     H 3173   5.463   9.423   9.989  0.5747 -2.1942 -4.0007
   23MOL0     H 3174   5.358   9.296  10.041 -0.3862  0.3215  1.7838
   24MOL0     O 3175   7.405   2.742   7.712  0.9358 -0.3256 -0.2150
   24MOL0     C 3176   7.323   2.830   7.746 -0.2894 -0.1522 -0.6460
   24MOL0     O 3177   7.327   2.900   7.866  0.6034 -0.1781  0.5345
   24MOL0     C 3178   7.415   2.850   7.956 -0.9807  0.5656  1.3433
   24MOL0     C 3179   7.380   2.747   8.045 -0.7955  1.2693 -0.7482
   24MOL0     C 3180   7.465   2.697   8.141 -0.7488  0.4036  0.2822
   24MOL0     C 3181   7.589   2.746   8.141 -0.1308  0.2364 -0.6764
   24MOL0     O 3182   7.684   2.696   8.232 -0.2087 -0.4329  0.2729
   24MOL0     C 3183   7.657   2.730   8.372  0.7121  0.1044  0.1885
   24MOL0     C 3184   7.754   2.660   8.474 -0.4888 -0.0080 -0.6393
   24MOL0     C 3185   7.906   2.697   8.452 -0.0508  0.0568  0.0881
   24MOL0     C 3186   7.998   2.597   8.517 -0.4434 -0.6679 -0.4231
   24MOL0     C 3187   8.126   2.646   8.585  0.7037  1.4023  0.1299
   24MOL0     C 3188   8.257   2.582   8.545 -1.0952 -0.9053  0.1797
   24MOL0     C 3189   8.377   2.647   8.611  0.2878 -0.3992 -0.4419
   24MOL0     C 3190   8.510   2.577   8.553  0.9159  0.3640 -0.2247
   24MOL0     N 3191   8.533   2.446   8.604 -0.3594 -0.3374  0.0609
   24MOL0     C 3192   8.589   2.342   8.532 -0.3619  0.4101 -0.0309
   24MOL0     C 3193   8.589   2.249   8.633 -0.2806  0.1354 -0.5953
   24MOL0     C 3194   8.643   2.107   8.619  0.1844 -0.0656 -0.7064
   24MOL0     C 3195   8.768   2.097   8.716 -0.2024 -0.3153  0.1544
   24MOL0     C 3196   8.818   1.947   8.694 -0.4285 -0.2294  0.2681
   24MOL0     C 3197   8.914   1.913   8.803 -0.5729 -0.7646 -0.1840
   24MOL0     O 3198   9.018   2.010   8.811  0.2291  0.4201  0.0951
   24MOL0     C 3199   9.115   1.985   8.905 -0.5617  1.2129 -0.7881
   24MOL0     C 3200   9.223   2.071   8.890 -0.7507  0.9321 -0.5818
   24MOL0     C 3201   9.340   2.065   8.966 -0.1295  0.6392  0.1769
   24MOL0     C 3202   9.463   2.147   8.927 -0.1561  0.4668 -0.3775
   24MOL0     C 3203   9.337   1.984   9.081  0.9903 -0.4837 -0.6798
   24MOL0     C 3204   9.442   1.987   9.186  0.6715 -0.0791  0.3206
   24MOL0     O 3205   9.553   1.915   9.162 -0.0257 -0.1652 -0.1766
   24MOL0     C 3206   9.642   1.904   9.261  0.1680  0.8103 -0.1012
   24MOL0     C 3207   9.630   1.822   9.372 -0.6604 -0.0730 -0.4951
   24MOL0     C 3208   9.739   1.808   9.466  0.0353 -0.5334 -1.0197
   24MOL0     C 3209   9.860   1.864   9.447 -0.2945 -0.5392 -0.2528
   24MOL0     O 3210   9.953   1.827   9.539  0.4606  0.1461  0.3010
   24MOL0     C 3211  10.087   1.878   9.532 -0.2351 -0.2943 -0.1362
   24MOL0     C 3212  10.179   1.847   9.648  0.3569 -0.1390 -1.0671
   24MOL0     C 3213  10.336   1.850   9.627  0.0514  0.6803 -0.1520
   24MOL0     C 3214  10.428   1.863   9.749  0.4181 -0.6587 -0.2746
   24MOL0     C 3215  10.575   1.871   9.709 -0.6506  0.1217  0.0922
   24MOL0     C 3216  10.654   1.881   9.836  0.8303 -0.6555  0.2247
   24MOL0     C 3217  10.792   1.931   9.816 -0.1902 -0.4811  0.3614
   24MOL0     C 3218  10.894   1.913   9.934 -0.0510  0.3143  0.6887
   24MOL0    Cl 3219  10.805   1.937  10.078 -0.0530  0.0937 -0.0676
   24MOL0     C 3220   9.875   1.948   9.336  0.2502 -0.0727 -0.5557
   24MOL0     C 3221   9.768   1.965   9.243  0.1626  0.1806 -0.3045
   24MOL0     O 3222   9.420   2.055   9.285  0.5973  0.0411 -0.4925
   24MOL0     C 3223   9.226   1.903   9.108  1.5187  0.2217 -0.1702
   24MOL0     C 3224   9.114   1.897   9.024  0.6984 -0.9096 -0.0575
   24MOL0     N 3225   8.537   2.298   8.752 -0.5255 -0.0498  0.0199
   24MOL0     N 3226   8.499   2.412   8.729 -0.4078 -0.4843  0.2897
   24MOL0     C 3227   7.629   2.841   8.051  0.2273 -1.0047 -1.4740
   24MOL0     C 3228   7.540   2.906   7.965 -0.6797  0.2365  0.4052
   24MOL0     C 3229   7.218   2.872   7.655  0.0907 -0.3971  0.0535
   24MOL0     C 3230   7.112   2.950   7.705  0.4159  0.1675  0.2311
   24MOL0     C 3231   7.002   2.989   7.629 -0.2995  0.8329  0.3744
   24MOL0     C 3232   6.992   2.967   7.491  0.7487  0.4174 -0.8865
   24MOL0     O 3233   6.904   3.042   7.420 -0.2768  0.0253  0.2682
   24MOL0     C 3234   6.873   2.995   7.288 -0.5781 -0.7445  0.2535
   24MOL0     C 3235   6.728   3.017   7.238 -0.3122  0.0785 -0.0855
   24MOL0     C 3236   6.689   3.170   7.209  0.0112  0.1005  0.3556
   24MOL0     C 3237   6.559   3.190   7.140 -0.1689  0.6203 -0.7576
   24MOL0     C 3238   6.529   3.334   7.117  0.2035 -0.0744 -0.2998
   24MOL0     C 3239   6.482   3.443   7.109 -0.5672  0.7657 -0.1613
   24MOL0     C 3240   7.104   2.897   7.436  0.5801  0.0164 -0.1729
   24MOL0     C 3241   7.211   2.841   7.518 -1.2346 -0.8266 -0.1935
   24MOL0     C 3242   7.322   2.767   7.443 -0.0672 -0.3963 -0.0235
   24MOL0     H 3243   7.284   2.697   8.043  0.6259 -1.6853 -0.3555
   24MOL0     H 3244   7.437   2.624   8.216  1.3442 -0.9854 -0.2355
   24MOL0     H 3245   7.553   2.701   8.391 -0.0922  2.6336  0.1374
   24MOL0     H 3246   7.661   2.839   8.378 -1.1472  0.1506  1.8844
   24MOL0     H 3247   7.722   2.690   8.575 -2.4388 -1.9913 -0.5925
   24MOL0     H 3248   7.746   2.552   8.459  1.3105 -0.3412  0.5448
   24MOL0     H 3249   7.922   2.704   8.345 -0.2094 -1.3248 -0.0389
   24MOL0     H 3250   7.920   2.797   8.494  1.0018 -0.3729  0.8190
   24MOL0     H 3251   7.941   2.552   8.599 -0.6752  1.9871  0.9819
   24MOL0     H 3252   8.028   2.526   8.440  0.6785 -0.3521 -0.2926
   24MOL0     H 3253   8.110   2.622   8.691 -0.4197 -1.1579 -0.5523
   24MOL0     H 3254   8.148   2.753   8.573 -1.8793  2.3730  2.8467
   24MOL0     H 3255   8.266   2.478   8.579  2.0395 -0.0648  2.3044
   24MOL0     H 3256   8.257   2.569   8.437 -1.7021  2.5413 -0.3605
   24MOL0     H 3257   8.370   2.627   8.718 -0.2618  0.3639 -0.3269
   24MOL0     H 3258   8.370   2.752   8.582 -0.2704 -1.1949 -3.7004
   24MOL0     H 3259   8.491   2.574   8.445 -2.2695 -1.3786  0.2470
   24MOL0     H 3260   8.591   2.640   8.590 -0.3276  0.4271  2.6736
   24MOL0     H 3261   8.614   2.319   8.429 -3.6540  0.2987 -0.9064
   24MOL0     H 3262   8.660   2.077   8.515 -0.6645 -1.8638 -0.3768
   24MOL0     H 3263   8.567   2.032   8.645 -1.8738  1.1091 -2.9593
   24MOL0     H 3264   8.842   2.173   8.689 -1.0762  0.2999 -0.5800
   24MOL0     H 3265   8.728   2.121   8.814 -0.4342  2.2824 -0.5117
   24MOL0     H 3266   8.730   1.882   8.705 -1.5774  0.8445 -1.9396
   24MOL0     H 3267   8.866   1.936   8.597 -1.1911  0.9758 -0.2716
   24MOL0     H 3268   8.858   1.901   8.896 -2.2188  2.2531 -0.6452
   24MOL0     H 3269   8.954   1.812   8.791  0.9731  0.0082 -2.0452
   24MOL0     H 3270   9.216   2.137   8.804 -0.6480 -0.7550 -1.9465
   24MOL0     H 3271   9.468   2.234   8.993  3.2564  0.2345 -0.1522
   24MOL0     H 3272   9.442   2.182   8.826  0.0470  1.5174 -0.0745
   24MOL0     H 3273   9.555   2.089   8.944  0.1731  0.4129 -2.1981
   24MOL0     H 3274   9.539   1.763   9.378 -0.4388 -0.4068 -0.3672
   24MOL0     H 3275   9.724   1.742   9.551  0.1190  1.3211  0.4978
   24MOL0     H 3276  10.133   1.831   9.444  2.7761 -0.8610  1.5842
   24MOL0     H 3277  10.085   1.987   9.536 -2.5015 -0.3312  1.5857
   24MOL0     H 3278  10.163   1.926   9.722  2.5396 -0.2181 -0.4448
   24MOL0     H 3279  10.147   1.759   9.706 -0.3892  2.3652  2.6840
   24MOL0     H 3280  10.357   1.930   9.555  1.2255 -0.4335 -1.1030
   24MOL0     H 3281  10.361   1.756   9.577 -0.6305  1.4800 -2.0959
   24MOL0     H 3282  10.414   1.776   9.814  0.4225  0.2694  0.9889
   24MOL0     H 3283  10.401   1.953   9.805  1.2911  0.1670 -1.1464
   24MOL0     H 3284  10.605   1.782   9.653 -2.3288 -0.2940 -0.2117
   24MOL0     H 3285  10.588   1.966   9.658  1.4045  1.0587  2.2048
   24MOL0     H 3286  10.647   1.788   9.893  2.2432 -0.5364  0.6130
   24MOL0     H 3287  10.600   1.957   9.893  3.6589  0.3760  1.6825
   24MOL0     H 3288  10.793   2.038   9.791 -0.2597 -0.8762 -1.4500
   24MOL0     H 3289  10.839   1.892   9.725  2.0793  3.5727 -0.4885
   24MOL0     H 3290  10.973   1.989   9.927 -0.8070  1.0703  0.0681
   24MOL0     H 3291  10.936   1.814   9.917 -0.3242  0.2991  0.0468
   24MOL0     H 3292   9.968   2.003   9.324 -0.7929  1.8677 -0.2056
   24MOL0     H 3293   9.790   2.010   9.146 -2.6542  0.7576 -0.7688
   24MOL0     H 3294   9.220   1.829   9.187  1.3152  0.4786  0.0535
   24MOL0     H 3295   9.036   1.828   9.053 -2.2357  2.0621 -0.2421
   24MOL0     H 3296   7.726   2.889   8.065 -0.9210  0.7102  1.4651
   24MOL0     H 3297   7.556   2.982   7.889 -2.5708  0.1597 -0.1268
   24MOL0     H 3298   7.105   2.981   7.809 -0.1792 -0.1308  0.2834
   24MOL0     H 3299   6.922   3.046   7.674 -0.9576  0.6075 -0.4762
   24MOL0     H 3300   6.937   3.044   7.214 -1.9738  0.6642 -0.0757
   24MOL0     H 3301   6.897   2.889   7.282 -0.7095 -0.6927 -1.7074
   24MOL0     H 3302   6.658   2.969   7.307  0.8157  0.0407  1.0733
   24MOL0     H 3303   6.710   2.956   7.149 -0.9681  2.2884 -1.5478
   24MOL0     H 3304   6.689   3.221   7.306  0.3355  0.9958 -0.1019
   24MOL0     H 3305   6.767   3.216   7.147  0.3354 -1.1999 -0.2454
   24MOL0     H 3306   6.481   3.150   7.205  1.1652 -0.7683  0.0562
   24MOL0     H 3307   6.558   3.133   7.047  0.2365 -1.2382  0.3270
   24MOL0     H 3308   6.441   3.542   7.117 -3.0814 -0.0524 -1.5887
   24MOL0     H 3309   7.105   2.884   7.328 -1.4572  1.0923 -0.3729
   24MOL0     H 3310   7.335   2.666   7.485 -0.8385  0.6447  2.9820
   24MOL0     H 3311   7.301   2.766   7.336  1.3195 -0.0200 -0.3264
   24MOL0     H 3312   7.417   2.822   7.437 -0.3614 -0.0244 -1.8109
   25MOL0     O 3313   9.126  10.059   2.901 -0.1230 -0.1337  0.3307
   25MOL0     C 3314   9.100   9.977   2.995 -0.2070 -1.1963  0.4048
   25MOL0     O 3315   9.153   9.855   3.019  0.4874  0.4222 -0.0469
   25MOL0     C 3316   9.266   9.820   2.945  0.8413 -0.2070 -0.8261
   25MOL0     C 3317   9.255   9.771   2.816  0.2429  0.2067 -0.1207
   25MOL0     C 3318   9.358   9.741   2.737 -0.2729  0.1002 -0.0603
   25MOL0     C 3319   9.490   9.764   2.785 -0.3265 -0.0454 -0.2506
   25MOL0     O 3320   9.606   9.750   2.711 -0.0138 -0.1516  0.0494
   25MOL0     C 3321   9.602   9.656   2.611  0.1271  0.9731  0.2941
   25MOL0     C 3322   9.725   9.684   2.520  0.6236  0.0982 -0.0826
   25MOL0     C 3323   9.854   9.622   2.563 -0.1275 -0.1797 -0.8108
   25MOL0     C 3324   9.966   9.705   2.501 -0.1289  0.3072 -0.2626
   25MOL0     C 3325  10.096   9.660   2.560  1.4471 -0.3560  0.1188
   25MOL0     C 3326  10.120   9.514   2.512 -0.4288 -0.5235 -0.4852
   25MOL0     C 3327  10.274   9.482   2.507  0.5544 -0.0595 -0.2831
   25MOL0     C 3328  10.344   9.549   2.387  0.1396 -0.2109 -0.2798
   25MOL0     N 3329  10.490   9.529   2.392  0.1653 -0.5185 -0.5463
   25MOL0     C 3330  10.549   9.413   2.346 -0.6359  0.7797  0.3893
   25MOL0     C 3331  10.679   9.410   2.392  0.2576 -0.3002 -0.1995
   25MOL0     C 3332  10.775   9.297   2.367 -0.2955 -0.0763  1.2473
   25MOL0     C 3333  10.902   9.366   2.356 -0.4221  0.1335  0.0788
   25MOL0     C 3334  11.015   9.263   2.350  1.1314 -0.1658  0.1072
   25MOL0     C 3335  11.150   9.330   2.344  0.5967  0.0259  0.6966
   25MOL0     O 3336  11.188   9.366   2.475  0.7134  0.6714 -0.4156
   25MOL0     C 3337  11.316   9.368   2.513  0.3358  0.2836  0.0272
   25MOL0     C 3338  11.326   9.375   2.656  0.1605 -0.1069  0.2980
   25MOL0     C 3339  11.447   9.367   2.723  0.3588 -0.1287 -0.1175
   25MOL0     C 3340  11.445   9.359   2.875  0.2843 -0.7027  0.5898
   25MOL0     C 3341  11.561   9.352   2.642 -0.7600 -0.2364 -0.8735
   25MOL0     C 3342  11.697   9.346   2.708  0.1550 -0.0757 -0.3059
   25MOL0     O 3343  11.799   9.310   2.627  0.0222 -0.1942 -0.3745
   25MOL0     C 3344  11.920   9.281   2.682 -0.0690  0.1691 -0.0195
   25MOL0     C 3345  12.036   9.267   2.602  1.3156 -0.3840  0.2159
   25MOL0     C 3346  12.160   9.250   2.658  0.2494  0.5298 -0.5278
   25MOL0     C 3347  12.174   9.247   2.798 -0.2578  0.2461 -0.3719
   25MOL0     O 3348  12.294   9.241   2.868 -0.7442  0.1582  0.3281
   25MOL0     C 3349  12.419   9.266   2.791 -0.5695 -0.2687 -1.1400
   25MOL0     C 3350  12.535   9.267   2.902  0.0876 -1.2326  0.1539
   25MOL0     C 3351  12.673   9.293   2.842 -0.0417 -0.1929 -0.3356
   25MOL0     C 3352  12.775   9.274   2.946  0.1493  0.2173 -0.1552
   25MOL0     C 3353  12.920   9.299   2.890  0.1009 -0.0793  0.6302
   25MOL0     C 3354  13.046   9.277   2.983  0.7394  1.0117 -0.4689
   25MOL0     C 3355  13.172   9.296   2.904 -0.8206 -1.1034  0.7264
   25MOL0     C 3356  13.298   9.286   2.989 -1.0427 -0.3442 -0.3427
   25MOL0    Cl 3357  13.435   9.332   2.898 -0.6640  0.4788 -0.2525
   25MOL0     C 3358  12.058   9.244   2.880 -0.0791  0.0496 -0.2550
   25MOL0     C 3359  11.931   9.256   2.819  0.4097 -0.2412 -0.8351
   25MOL0     O 3360  11.708   9.410   2.814 -0.3033 -0.3316 -0.3242
   25MOL0     C 3361  11.547   9.330   2.507 -0.4770 -0.6125 -0.1418
   25MOL0     C 3362  11.425   9.346   2.448 -0.4531  0.1732  0.3142
   25MOL0     N 3363  10.691   9.527   2.468  0.2230 -0.2090  0.6312
   25MOL0     N 3364  10.578   9.600   2.466  0.3350 -0.0451 -0.2487
   25MOL0     C 3365   9.507   9.818   2.907  0.0258  0.1102 -0.0179
   25MOL0     C 3366   9.392   9.843   2.991 -0.6221 -0.7686  0.6433
   25MOL0     C 3367   9.004  10.027   3.098 -1.1152 -0.2396  0.0740
   25MOL0     C 3368   8.878  10.056   3.051 -0.4805  0.1119  0.0215
   25MOL0     C 3369   8.777  10.078   3.142  0.7188 -0.6065 -0.9740
   25MOL0     C 3370   8.788  10.071   3.275 -0.0979  0.4642  0.0943
   25MOL0     O 3371   8.672  10.066   3.353 -0.0325  0.4255 -0.0299
   25MOL0     C 3372   8.673  10.036   3.492 -0.1079  0.1854  0.4354
   25MOL0     C 3373   8.530  10.022   3.540  0.1423 -0.1353  0.1787
   25MOL0     C 3374   8.465   9.890   3.483 -0.2527 -0.1882 -0.3009
   25MOL0     C 3375   8.335   9.862   3.557  0.1831 -0.0348 -0.5625
   25MOL0     C 3376   8.335   9.719   3.580 -0.5783  0.3066  0.2002
   25MOL0     C 3377   8.338   9.596   3.599 -0.2617  0.0886 -0.4828
   25MOL0     C 3378   8.920  10.046   3.325  0.4616  0.3689  0.6483
   25MOL0     C 3379   9.032  10.026   3.236 -0.8662 -0.1779 -0.1443
   25MOL0     C 3380   9.168  10.000   3.298  0.1380  0.4659  0.4695
   25MOL0     H 3381   9.150   9.775   2.789  0.2746  2.7559 -0.1144
   25MOL0     H 3382   9.328   9.693   2.645  0.0649 -1.1883  0.4740
   25MOL0     H 3383   9.511   9.648   2.552  0.9832  4.0843 -1.7203
   25MOL0     H 3384   9.615   9.562   2.666 -0.6785  0.0032 -1.1264
   25MOL0     H 3385   9.700   9.638   2.424 -1.3978  1.4438 -0.2639
   25MOL0     H 3386   9.747   9.790   2.504  1.6537  0.1930  1.6471
   25MOL0     H 3387   9.849   9.623   2.672 -0.2925 -3.8140 -0.6557
   25MOL0     H 3388   9.868   9.520   2.526  3.0580 -0.2602  0.2935
   25MOL0     H 3389   9.965   9.689   2.393 -0.4566 -0.2198 -0.1833
   25MOL0     H 3390   9.955   9.813   2.516  3.9298  0.9897 -1.0472
   25MOL0     H 3391  10.108   9.661   2.669  1.7280 -1.8855  0.1258
   25MOL0     H 3392  10.172   9.729   2.524  4.3221 -1.3012  3.7962
   25MOL0     H 3393  10.067   9.437   2.569  0.3517 -1.1405 -0.5746
   25MOL0     H 3394  10.083   9.500   2.411 -0.3648 -3.4129 -0.1760
   25MOL0     H 3395  10.295   9.374   2.504 -1.9584 -0.6571  1.0849
   25MOL0     H 3396  10.313   9.531   2.597 -1.7822  0.3371  0.5762
   25MOL0     H 3397  10.310   9.524   2.286  2.2833 -2.2138 -0.5809
   25MOL0     H 3398  10.321   9.656   2.385 -1.1609 -0.4423  1.0031
   25MOL0     H 3399  10.493   9.330   2.306 -0.7425 -0.2442  2.5393
   25MOL0     H 3400  10.753   9.250   2.270  2.2114  0.8016  0.1524
   25MOL0     H 3401  10.767   9.238   2.459  2.5582  0.8337  2.1845
   25MOL0     H 3402  10.901   9.433   2.270 -0.1015 -1.4781 -1.2339
   25MOL0     H 3403  10.915   9.423   2.448 -1.7251  1.5615 -0.5680
   25MOL0     H 3404  11.011   9.197   2.437  1.0994 -0.7523 -0.3272
   25MOL0     H 3405  11.004   9.198   2.262 -1.9720  0.3336  0.0037
   25MOL0     H 3406  11.225   9.266   2.296  1.3071  2.1545 -1.2107
   25MOL0     H 3407  11.154   9.412   2.272  1.6562 -0.0930  0.5964
   25MOL0     H 3408  11.230   9.389   2.706  0.0278  2.3301 -0.5143
   25MOL0     H 3409  11.477   9.459   2.906 -2.3497  1.6433 -3.3976
   25MOL0     H 3410  11.517   9.286   2.912  0.0209 -0.3770  1.8001
   25MOL0     H 3411  11.343   9.348   2.913  0.4033  1.0648  1.5350
   25MOL0     H 3412  12.032   9.284   2.495  0.6859  3.1684  0.6685
   25MOL0     H 3413  12.245   9.232   2.594  2.3707 -0.3133  2.3211
   25MOL0     H 3414  12.430   9.195   2.708  0.5142 -0.0181 -1.2178
   25MOL0     H 3415  12.423   9.365   2.744  0.3083  1.5945  2.5409
   25MOL0     H 3416  12.512   9.337   2.983  1.3799  0.2905 -0.7397
   25MOL0     H 3417  12.538   9.167   2.947 -1.1353 -0.2767  2.5500
   25MOL0     H 3418  12.685   9.397   2.810  1.8689  0.8729  3.3056
   25MOL0     H 3419  12.684   9.227   2.755  2.2172  2.0214 -1.8528
   25MOL0     H 3420  12.773   9.169   2.975 -0.4120  0.7923  2.0704
   25MOL0     H 3421  12.748   9.318   3.043  0.0024 -2.2098  0.9921
   25MOL0     H 3422  12.938   9.233   2.805  0.2148  1.7747 -0.8293
   25MOL0     H 3423  12.908   9.402   2.856 -0.6919 -0.2914  0.2478
   25MOL0     H 3424  13.052   9.176   3.024  3.8284  1.7668  1.1947
   25MOL0     H 3425  13.041   9.346   3.068 -3.1058  1.8939 -1.1891
   25MOL0     H 3426  13.174   9.394   2.856 -2.6349 -0.6077  1.5630
   25MOL0     H 3427  13.182   9.219   2.827 -1.7397  0.9438 -1.5895
   25MOL0     H 3428  13.299   9.186   3.033 -1.6809  0.3982  1.4574
   25MOL0     H 3429  13.279   9.367   3.060  2.0339 -1.1487  1.5839
   25MOL0     H 3430  12.063   9.227   2.988  0.1868  0.6068 -0.1772
   25MOL0     H 3431  11.845   9.243   2.883 -0.3296 -2.3461 -2.1462
   25MOL0     H 3432  11.638   9.306   2.453 -0.3694  0.8286 -0.6542
   25MOL0     H 3433  11.418   9.335   2.340 -0.5979  0.5983  0.2774
   25MOL0     H 3434   9.609   9.832   2.939  0.4027 -2.8052  0.3433
   25MOL0     H 3435   9.405   9.896   3.085 -1.4176 -0.2735  0.4807
   25MOL0     H 3436   8.858  10.060   2.945  0.7461  1.3528 -0.2000
   25MOL0     H 3437   8.675  10.095   3.108  0.0186 -0.8819  0.8970
   25MOL0     H 3438   8.729   9.945   3.516 -1.2083 -0.3029  1.2716
   25MOL0     H 3439   8.717  10.123   3.539 -2.5285  1.0189  1.3110
   25MOL0     H 3440   8.462  10.104   3.513  1.6039  0.2689 -2.6527
   25MOL0     H 3441   8.536  10.008   3.648  0.1027  0.1828  0.2260
   25MOL0     H 3442   8.440   9.892   3.377  0.2938 -1.3322 -0.4636
   25MOL0     H 3443   8.536   9.809   3.501  0.8993  1.2129  1.8798
   25MOL0     H 3444   8.251   9.896   3.496  0.9909 -0.3210 -1.8866
   25MOL0     H 3445   8.342   9.920   3.649  1.4820  0.6750 -1.0789
   25MOL0     H 3446   8.318   9.494   3.624 -5.2070  0.9629  0.0108
   25MOL0     H 3447   8.936  10.030   3.431  0.9157  2.3981  0.9376
   25MOL0     H 3448   9.173  10.024   3.405  0.2150 -1.9880  1.0849
   25MOL0     H 3449   9.185   9.892   3.297 -0.5891  0.3131  1.9096
   25MOL0     H 3450   9.248  10.053   3.246 -0.3236  1.8750  1.1424
   26MOL0     O 3451   6.768   7.169   1.100 -0.3474  0.3247 -0.0254
   26MOL0     C 3452   6.781   7.208   1.214  0.5737  0.5208  0.4366
   26MOL0     O 3453   6.879   7.287   1.263 -0.3727  0.3992  0.2914
   26MOL0     C 3454   6.976   7.331   1.181 -0.0251 -0.2371 -0.0084
   26MOL0     C 3455   7.073   7.249   1.137 -0.2123 -0.2588 -0.2958
   26MOL0     C 3456   7.160   7.293   1.045  0.0073  0.4042  0.4129
   26MOL0     C 3457   7.153   7.423   0.989  0.2150 -0.4771 -0.1782
   26MOL0     O 3458   7.245   7.445   0.899 -0.8624  0.2121  0.8081
   26MOL0     C 3459   7.317   7.567   0.913  0.2464 -0.0864  0.7827
   26MOL0     C 3460   7.427   7.547   0.807 -0.1294  0.0099 -0.5950
   26MOL0     C 3461   7.506   7.678   0.782  0.4486 -0.4119 -0.3261
   26MOL0     C 3462   7.628   7.660   0.690 -1.4446  1.0455  0.0737
   26MOL0     C 3463   7.746   7.586   0.740  0.2428  0.9712 -0.3962
   26MOL0     C 3464   7.801   7.662   0.861  0.2036 -0.3857 -0.8507
   26MOL0     C 3465   7.937   7.622   0.912 -0.2990  0.2299  0.9351
   26MOL0     C 3466   7.937   7.501   1.006  0.8668  0.3301 -0.3642
   26MOL0     N 3467   8.073   7.447   1.047  0.3066 -0.2561 -0.6128
   26MOL0     C 3468   8.100   7.320   1.114 -0.4819  0.0173 -0.1000
   26MOL0     C 3469   8.229   7.331   1.153 -0.1127 -0.8092 -0.7320
   26MOL0     C 3470   8.313   7.224   1.214 -0.1972 -0.2185  0.1833
   26MOL0     C 3471   8.384   7.288   1.322  0.3722 -0.0905 -1.0843
   26MOL0     C 3472   8.312   7.318   1.450  0.2184  1.0659 -0.5458
   26MOL0     C 3473   8.390   7.353   1.572 -0.1710  0.3738 -0.2501
   26MOL0     O 3474   8.521   7.308   1.572 -0.2862  0.0764 -0.6643
   26MOL0     C 3475   8.619   7.380   1.640  0.3124 -0.0409 -0.2518
   26MOL0     C 3476   8.750   7.340   1.610  0.6037  0.3440 -0.1342
   26MOL0     C 3477   8.867   7.400   1.666 -0.2673  0.1386  0.0387
   26MOL0     C 3478   9.004   7.350   1.632 -0.2326 -0.1141 -0.2270
   26MOL0     C 3479   8.850   7.500   1.765  1.7179  0.8062 -0.1418
   26MOL0     C 3480   8.968   7.560   1.831  0.2317 -0.6410 -0.3855
   26MOL0     O 3481   9.073   7.483   1.879 -0.3052 -0.2877  0.3986
   26MOL0     C 3482   9.178   7.551   1.931  0.3645  0.4656  0.3291
   26MOL0     C 3483   9.249   7.658   1.856  0.6212 -0.1615 -0.2200
   26MOL0     C 3484   9.364   7.716   1.922  0.3885  0.4730  0.0134
   26MOL0     C 3485   9.410   7.671   2.049  0.5130  0.1578  0.8277
   26MOL0     O 3486   9.518   7.734   2.109 -0.3677  0.0528  0.5916
   26MOL0     C 3487   9.633   7.653   2.142 -0.4220 -0.5091  0.1377
   26MOL0     C 3488   9.714   7.617   2.020  0.5018 -0.3386 -0.2186
   26MOL0     C 3489   9.822   7.508   2.036 -0.1077 -0.8532  0.5105
   26MOL0     C 3490   9.921   7.552   2.150 -0.1858  0.5798 -0.4885
   26MOL0     C 3491  10.039   7.454   2.178 -0.1941 -0.2450  0.0444
   26MOL0     C 3492  10.148   7.456   2.062  0.4590 -0.0587  0.1757
   26MOL0     C 3493  10.265   7.368   2.091 -0.4193 -0.3780  0.2256
   26MOL0     C 3494  10.384   7.450   2.042 -0.4298 -0.5743 -0.2670
   26MOL0    Cl 3495  10.358   7.485   1.858  0.3765 -0.2195 -0.2332
   26MOL0     C 3496   9.342   7.569   2.114  0.1921 -0.3549 -0.6877
   26MOL0     C 3497   9.230   7.511   2.052  0.7058 -0.7201  0.6937
   26MOL0     O 3498   8.947   7.681   1.857  0.7633 -0.1486  1.2779
   26MOL0     C 3499   8.721   7.540   1.793 -1.2394  0.6154 -0.6627
   26MOL0     C 3500   8.608   7.481   1.735  0.0108  0.0967 -0.3887
   26MOL0     N 3501   8.278   7.455   1.111  0.0667  0.2021  0.1878
   26MOL0     N 3502   8.184   7.525   1.062 -0.2488 -0.1861  0.9426
   26MOL0     C 3503   7.052   7.508   1.034  0.2673  0.9414  1.2224
   26MOL0     C 3504   6.967   7.465   1.134 -0.1060  0.6595 -0.4876
   26MOL0     C 3505   6.662   7.184   1.303  0.4211  0.2094 -0.1176
   26MOL0     C 3506   6.535   7.165   1.245 -1.1297 -0.0681  0.4621
   26MOL0     C 3507   6.424   7.123   1.322 -0.0361 -0.2357  0.5301
   26MOL0     C 3508   6.432   7.112   1.459  0.1765  0.0735  0.9041
   26MOL0     O 3509   6.316   7.082   1.520  0.1895 -0.3281 -0.2195
   26MOL0     C 3510   6.267   7.206   1.581  0.2669 -0.1312 -0.5482
   26MOL0     C 3511   6.203   7.160   1.712  0.8040  0.5295 -0.0492
   26MOL0     C 3512   6.149   7.279   1.792  0.3212 -0.6112 -0.1881
   26MOL0     C 3513   6.252   7.377   1.864  0.5588  0.2641 -0.6913
   26MOL0     C 3514   6.368   7.316   1.934 -0.3261 -0.1000 -0.7996
   26MOL0     C 3515   6.461   7.281   2.003  0.2048  0.7821  0.5530
   26MOL0     C 3516   6.551   7.127   1.525 -0.1354  0.1659  0.3741
   26MOL0     C 3517   6.664   7.158   1.445 -0.5332  0.1533 -0.4713
   26MOL0     C 3518   6.806   7.156   1.512  1.0694  0.4742 -0.6006
   26MOL0     H 3519   7.087   7.162   1.201  2.1779 -0.3809 -0.8749
   26MOL0     H 3520   7.229   7.214   1.018 -1.1731 -0.9902  1.3869
   26MOL0     H 3521   7.363   7.583   1.011  0.5251  1.3117  0.4406
   26MOL0     H 3522   7.255   7.652   0.883  0.6852  0.0446  0.2363
   26MOL0     H 3523   7.500   7.482   0.856  2.0638 -0.3518 -3.9885
   26MOL0     H 3524   7.390   7.509   0.712 -1.7285  0.4900 -0.1914
   26MOL0     H 3525   7.433   7.746   0.738 -3.8543 -2.7509  2.4408
   26MOL0     H 3526   7.533   7.722   0.879  0.5214  1.7592 -1.2833
   26MOL0     H 3527   7.586   7.616   0.599 -0.7410 -3.2084  1.5910
   26MOL0     H 3528   7.669   7.757   0.660  1.4746 -0.0580  0.2515
   26MOL0     H 3529   7.813   7.567   0.656  0.9706 -1.9564  0.7153
   26MOL0     H 3530   7.706   7.490   0.775 -0.4935  1.5111  0.2788
   26MOL0     H 3531   7.807   7.766   0.829  1.6313 -1.6162 -5.4049
   26MOL0     H 3532   7.735   7.651   0.948  1.4248 -4.6410 -0.2170
   26MOL0     H 3533   7.989   7.702   0.967 -0.6134  0.6804  0.5818
   26MOL0     H 3534   7.993   7.599   0.821 -1.4747  1.4076 -0.1299
   26MOL0     H 3535   7.881   7.526   1.096 -1.4775 -2.2584 -0.9194
   26MOL0     H 3536   7.873   7.425   0.959  0.1899  0.4950  0.2700
   26MOL0     H 3537   8.021   7.246   1.122 -2.2593  1.8413  0.0503
   26MOL0     H 3538   8.385   7.176   1.148  1.5816  0.6823  1.3654
   26MOL0     H 3539   8.255   7.147   1.266  2.9059 -0.5135  3.5841
   26MOL0     H 3540   8.468   7.219   1.337 -1.0935 -1.4581  1.8174
   26MOL0     H 3541   8.432   7.381   1.291  4.0015 -1.3030  0.3031
   26MOL0     H 3542   8.248   7.406   1.439 -0.5957  1.0423  2.7579
   26MOL0     H 3543   8.250   7.233   1.477 -1.1639  1.9039 -1.0112
   26MOL0     H 3544   8.394   7.462   1.580 -0.4347  0.2893  1.4474
   26MOL0     H 3545   8.338   7.299   1.651 -0.6441 -0.3228 -1.0200
   26MOL0     H 3546   8.774   7.261   1.540  1.4327  0.7335 -0.3077
   26MOL0     H 3547   9.008   7.288   1.542  0.5416  0.1371 -0.3701
   26MOL0     H 3548   9.049   7.301   1.719  1.5474 -0.0841 -1.0977
   26MOL0     H 3549   9.069   7.434   1.609 -0.9840  0.6576  0.4165
   26MOL0     H 3550   9.220   7.694   1.758 -0.2831 -2.1557 -0.7300
   26MOL0     H 3551   9.420   7.795   1.872  0.4250 -0.4424 -1.4568
   26MOL0     H 3552   9.697   7.710   2.209 -2.0493  3.7556 -1.6241
   26MOL0     H 3553   9.598   7.568   2.202  0.5803 -0.6262  0.5877
   26MOL0     H 3554   9.637   7.587   1.948  1.6113 -1.8055 -0.8406
   26MOL0     H 3555   9.764   7.711   1.994  2.7920 -0.7720  2.1705
   26MOL0     H 3556   9.871   7.498   1.939  1.9323 -0.2228  1.4279
   26MOL0     H 3557   9.786   7.407   2.058 -0.5654 -0.8024  0.0206
   26MOL0     H 3558   9.867   7.566   2.244  0.5063  0.5602 -0.0804
   26MOL0     H 3559   9.954   7.655   2.131 -1.3740  0.9338 -0.6817
   26MOL0     H 3560  10.088   7.475   2.273 -1.8939 -0.4563  1.0098
   26MOL0     H 3561  10.001   7.352   2.175 -0.5409 -0.1729  1.4000
   26MOL0     H 3562  10.171   7.562   2.051  1.4464 -0.3796 -1.0326
   26MOL0     H 3563  10.107   7.435   1.963  1.1198  1.6251 -0.4950
   26MOL0     H 3564  10.247   7.272   2.043 -1.6194  1.2863 -2.9206
   26MOL0     H 3565  10.280   7.348   2.198 -1.4300  1.6955  0.8069
   26MOL0     H 3566  10.477   7.392   2.050  2.4807  3.6439 -0.3135
   26MOL0     H 3567  10.394   7.543   2.098  0.6801 -0.3507 -0.8076
   26MOL0     H 3568   9.383   7.541   2.210  2.6006 -1.2328 -1.9072
   26MOL0     H 3569   9.178   7.429   2.101 -1.5682  0.2175 -0.0178
   26MOL0     H 3570   8.702   7.628   1.853 -1.9368  0.1841 -0.2301
   26MOL0     H 3571   8.512   7.529   1.754 -0.7567 -0.5894 -2.2395
   26MOL0     H 3572   7.045   7.608   0.993  1.0578  1.3073  1.9455
   26MOL0     H 3573   6.885   7.530   1.164  0.4772  0.8670  0.7018
   26MOL0     H 3574   6.527   7.180   1.138  1.0151  0.5546  0.3412
   26MOL0     H 3575   6.322   7.109   1.289  0.3899 -2.9743  0.1372
   26MOL0     H 3576   6.341   7.286   1.592 -0.3726  0.1100  3.3586
   26MOL0     H 3577   6.190   7.248   1.516  1.7045 -2.0749 -3.7980
   26MOL0     H 3578   6.291   7.121   1.764  0.2008  0.6792  1.0932
   26MOL0     H 3579   6.119   7.095   1.688  1.3469  1.3144 -5.2756
   26MOL0     H 3580   6.097   7.342   1.719 -2.2109 -0.7885  1.3764
   26MOL0     H 3581   6.080   7.244   1.869  0.5844 -0.1219  0.2750
   26MOL0     H 3582   6.197   7.437   1.936  1.8254  1.4898 -0.7055
   26MOL0     H 3583   6.284   7.440   1.780  0.0820 -0.4932 -1.4589
   26MOL0     H 3584   6.552   7.261   2.056  1.0285 -1.6868 -1.5851
   26MOL0     H 3585   6.568   7.116   1.631  1.0335  1.1329  0.2995
   26MOL0     H 3586   6.880   7.101   1.453 -0.5403 -1.6018 -0.8108
   26MOL0     H 3587   6.828   7.263   1.514 -2.3142  1.2711 -0.0850
   26MOL0     H 3588   6.813   7.104   1.608  1.5237  1.4430 -0.0874
   27MOL0     O 3589   9.409   4.746   9.284 -0.4793 -0.5434  0.6700
   27MOL0     C 3590   9.335   4.768   9.371  0.9355  0.0831 -0.4746
   27MOL0     O 3591   9.368   4.807   9.504 -0.3670 -0.2121 -0.4054
   27MOL0     C 3592   9.498   4.840   9.539 -0.2888 -0.3938  0.0064
   27MOL0     C 3593   9.545   4.794   9.665  0.0512 -0.3441  0.1521
   27MOL0     C 3594   9.669   4.837   9.705 -0.0402  0.4610 -0.1711
   27MOL0     C 3595   9.745   4.924   9.630  0.3790 -0.0345  0.1096
   27MOL0     O 3596   9.859   4.975   9.694 -0.5388 -0.5575  0.1262
   27MOL0     C 3597   9.964   4.887   9.723 -0.2365  0.2641 -0.4366
   27MOL0     C 3598  10.078   4.959   9.806 -0.2618  0.2791  0.2861
   27MOL0     C 3599  10.172   4.848   9.858 -0.2321 -0.1829 -0.5594
   27MOL0     C 3600  10.265   4.786   9.746  0.3250  0.2146 -0.0475
   27MOL0     C 3601  10.338   4.663   9.791  0.3960 -0.0964  0.4771
   27MOL0     C 3602  10.421   4.595   9.692 -0.7038 -1.0182  1.3669
   27MOL0     C 3603  10.475   4.455   9.728 -0.0829  0.3712 -0.6492
   27MOL0     C 3604  10.525   4.459   9.879 -0.0746 -0.7040  0.7043
   27MOL0     N 3605  10.656   4.537   9.891 -0.1584 -0.5341 -0.1743
   27MOL0     C 3606  10.774   4.516   9.823  0.1528 -0.5048  0.4546
   27MOL0     C 3607  10.867   4.601   9.870  0.1592 -1.0951 -0.6206
   27MOL0     C 3608  11.003   4.628   9.815  0.0542 -0.4827  1.3829
   27MOL0     C 3609  11.107   4.539   9.890  0.2851 -0.1874  0.8410
   27MOL0     C 3610  11.242   4.560   9.818 -0.2397  0.4991 -0.3211
   27MOL0     C 3611  11.310   4.452   9.726 -0.4321 -0.4208 -0.4997
   27MOL0     O 3612  11.430   4.495   9.659  0.6467  0.3575 -0.4307
   27MOL0     C 3613  11.544   4.497   9.737  0.7358 -0.1585  0.8916
   27MOL0     C 3614  11.606   4.616   9.779  0.2910  0.2477 -0.1350
   27MOL0     C 3615  11.719   4.611   9.864  0.2878 -0.8560  0.3779
   27MOL0     C 3616  11.777   4.743   9.904 -0.6540  0.3256  0.0725
   27MOL0     C 3617  11.784   4.490   9.884  1.5277  0.2570  0.5461
   27MOL0     C 3618  11.913   4.477   9.948  0.4748  0.0557  0.4882
   27MOL0     O 3619  12.015   4.419   9.882 -0.5815  0.5182  0.4244
   27MOL0     C 3620  12.109   4.340   9.947  0.5519 -0.0766  0.4698
   27MOL0     C 3621  12.092   4.273  10.069 -0.2753  0.0633  0.1704
   27MOL0     C 3622  12.197   4.201  10.118  0.9475 -0.2364 -0.2080
   27MOL0     C 3623  12.318   4.190  10.049 -0.4114  0.4807  0.5730
   27MOL0     O 3624  12.413   4.122  10.118  0.2856  0.6583 -0.3269
   27MOL0     C 3625  12.542   4.128  10.067 -0.9768  0.0039 -0.7767
   27MOL0     C 3626  12.646   4.082  10.181 -0.1477  0.5829  0.1716
   27MOL0     C 3627  12.792   4.078  10.131  0.4364 -0.2399 -0.0628
   27MOL0     C 3628  12.878   3.962  10.167  0.0490 -0.7965  0.2865
   27MOL0     C 3629  13.026   3.989  10.136 -0.0820  0.1337 -0.8671
   27MOL0     C 3630  13.069   4.031   9.994 -0.5841  0.1126 -0.4369
   27MOL0     C 3631  13.047   3.924   9.884 -0.0501  0.8367  0.0138
   27MOL0     C 3632  13.117   3.964   9.752  0.3550  0.5095  0.2049
   27MOL0    Cl 3633  13.287   3.958   9.775 -0.4367  0.3776  0.1252
   27MOL0     C 3634  12.336   4.244   9.927 -0.6048  0.3607  0.3172
   27MOL0     C 3635  12.226   4.318   9.872 -0.3792 -0.5608  0.2615
   27MOL0     O 3636  11.912   4.511  10.065  0.3919  1.1769 -0.3435
   27MOL0     C 3637  11.731   4.372   9.829  1.0348 -0.3516  0.1828
   27MOL0     C 3638  11.622   4.380   9.744 -0.2390 -0.6907  0.4291
   27MOL0     N 3639  10.805   4.690   9.959 -0.2654 -0.5195  0.5414
   27MOL0     N 3640  10.679   4.653   9.972  0.1981  0.5481  0.7321
   27MOL0     C 3641   9.698   4.980   9.513 -0.2408  0.2630 -0.8364
   27MOL0     C 3642   9.572   4.935   9.467  0.6405 -0.0276 -0.8857
   27MOL0     C 3643   9.197   4.725   9.348 -0.4310  0.3643  0.3667
   27MOL0     C 3644   9.126   4.686   9.463  0.1961 -0.1671 -0.9041
   27MOL0     C 3645   8.987   4.659   9.453  0.7261  0.3049  0.7089
   27MOL0     C 3646   8.927   4.668   9.327 -0.4140 -0.5061  0.0259
   27MOL0     O 3647   8.782   4.646   9.322 -0.1483  0.0118  0.0687
   27MOL0     C 3648   8.711   4.627   9.200  0.1415 -0.0020  0.1660
   27MOL0     C 3649   8.563   4.633   9.205 -0.0350 -0.0816  0.1068
   27MOL0     C 3650   8.506   4.541   9.296  0.4162 -0.1457 -0.0173
   27MOL0     C 3651   8.351   4.571   9.300  0.0357  0.1143  0.5662
   27MOL0     C 3652   8.287   4.480   9.395  0.1954  0.1798 -0.4212
   27MOL0     C 3653   8.234   4.392   9.461  0.3257 -0.2723  0.2620
   27MOL0     C 3654   8.998   4.704   9.213 -0.8827  0.1720  0.0535
   27MOL0     C 3655   9.134   4.730   9.223  0.1576 -0.0891  1.2632
   27MOL0     C 3656   9.197   4.775   9.091 -0.0624 -0.3733 -0.0720
   27MOL0     H 3657   9.482   4.735   9.731 -1.1988  0.2235 -0.4907
   27MOL0     H 3658   9.713   4.793   9.794  0.8907  1.5166 -0.0824
   27MOL0     H 3659  10.010   4.842   9.634 -1.3690  0.5138 -1.1569
   27MOL0     H 3660   9.927   4.807   9.787  0.4666  0.5737  0.3731
   27MOL0     H 3661  10.133   5.035   9.749 -2.1039  0.3710 -1.5196
   27MOL0     H 3662  10.035   5.019   9.887  1.9644  1.1748  0.8854
   27MOL0     H 3663  10.230   4.888   9.941 -1.2006 -1.1375  0.6163
   27MOL0     H 3664  10.118   4.766   9.905 -0.8306  0.3345 -0.3269
   27MOL0     H 3665  10.202   4.755   9.662 -1.3918  0.7696  0.9927
   27MOL0     H 3666  10.334   4.869   9.727 -1.5940  1.8092 -0.3802
   27MOL0     H 3667  10.258   4.596   9.825  0.6401  0.7156  2.8500
   27MOL0     H 3668  10.402   4.689   9.875 -1.1833 -2.1745  2.4614
   27MOL0     H 3669  10.363   4.568   9.603  0.8747 -1.7006  0.4888
   27MOL0     H 3670  10.502   4.665   9.671 -1.2581 -0.3665  1.3976
   27MOL0     H 3671  10.549   4.419   9.656  0.0270  0.8385 -0.7759
   27MOL0     H 3672  10.392   4.384   9.729  0.4696 -0.6477 -5.2427
   27MOL0     H 3673  10.446   4.477   9.953 -0.0046 -2.5151  1.2554
   27MOL0     H 3674  10.550   4.359   9.914  0.1658  0.1047  3.0503
   27MOL0     H 3675  10.775   4.446   9.741 -0.7097  0.9217 -0.8378
   27MOL0     H 3676  11.026   4.734   9.824 -0.1290  0.1746 -3.4645
   27MOL0     H 3677  10.998   4.608   9.708 -3.4411  1.0761  1.1349
   27MOL0     H 3678  11.104   4.565   9.997  0.3078  0.2447  0.7360
   27MOL0     H 3679  11.075   4.435   9.881  1.1286 -0.4187  0.4705
   27MOL0     H 3680  11.234   4.658   9.770 -0.4278  1.7682  2.1390
   27MOL0     H 3681  11.309   4.568   9.904  2.8951  1.2597 -2.6595
   27MOL0     H 3682  11.330   4.366   9.790  1.4425  0.3544  0.0302
   27MOL0     H 3683  11.233   4.433   9.651 -0.4238  0.2148 -0.6779
   27MOL0     H 3684  11.558   4.708   9.746 -1.2638 -0.8328 -1.0123
   27MOL0     H 3685  11.806   4.804   9.819  0.4181  2.2475  1.7182
   27MOL0     H 3686  11.867   4.735   9.965 -1.5006  2.6408  1.8112
   27MOL0     H 3687  11.706   4.801   9.965 -0.3322 -0.1278  0.8852
   27MOL0     H 3688  11.994   4.263  10.115  0.7262  2.0354  3.0475
   27MOL0     H 3689  12.177   4.157  10.216 -1.4500  2.0293  0.4216
   27MOL0     H 3690  12.548   4.065   9.978  1.0580  1.9637 -2.1370
   27MOL0     H 3691  12.580   4.224  10.030 -0.5691 -1.1024 -3.4626
   27MOL0     H 3692  12.639   4.155  10.262  2.6933  2.0668 -0.7875
   27MOL0     H 3693  12.624   3.989  10.234  0.5349 -0.1352 -0.7821
   27MOL0     H 3694  12.848   4.163  10.172  1.5858 -0.1629 -1.7007
   27MOL0     H 3695  12.781   4.090  10.023 -3.3528 -2.9012 -0.1546
   27MOL0     H 3696  12.840   3.879  10.107  1.0148 -2.2588  1.6162
   27MOL0     H 3697  12.862   3.937  10.272  1.7129 -2.4617  0.1940
   27MOL0     H 3698  13.060   4.066  10.206  0.5971  0.6949 -1.7906
   27MOL0     H 3699  13.071   3.894  10.165 -2.0050 -0.6931 -0.4105
   27MOL0     H 3700  13.176   4.052  10.006 -0.8070  0.0125  2.5019
   27MOL0     H 3701  13.023   4.125   9.962  1.9294  1.2480 -0.9609
   27MOL0     H 3702  12.941   3.913   9.860 -0.3517  1.7811  0.8627
   27MOL0     H 3703  13.080   3.826   9.921 -2.7022  0.5179  1.7814
   27MOL0     H 3704  13.091   4.065   9.719 -2.8120  0.3742  1.8737
   27MOL0     H 3705  13.096   3.890   9.674  1.2691 -1.2192  1.5292
   27MOL0     H 3706  12.423   4.233   9.863 -1.1207 -1.4259 -0.1387
   27MOL0     H 3707  12.234   4.363   9.773  1.7181  0.7760  0.9669
   27MOL0     H 3708  11.783   4.278   9.842  1.7221  0.0109  0.1404
   27MOL0     H 3709  11.597   4.290   9.690  3.6155 -1.8432  0.2469
   27MOL0     H 3710   9.761   5.059   9.474 -0.8604  0.8982 -0.5813
   27MOL0     H 3711   9.525   4.974   9.377  1.9948 -1.1087 -2.1372
   27MOL0     H 3712   9.157   4.691   9.567 -2.4490  0.4149 -0.0598
   27MOL0     H 3713   8.925   4.635   9.540 -0.3495  3.2997  0.8906
   27MOL0     H 3714   8.731   4.702   9.123 -2.9217  0.6845 -0.0868
   27MOL0     H 3715   8.737   4.524   9.175 -2.2878 -1.0393  1.5447
   27MOL0     H 3716   8.537   4.606   9.102  1.6125  0.8785 -0.6029
   27MOL0     H 3717   8.528   4.733   9.231 -0.6882 -0.6499  1.4872
   27MOL0     H 3718   8.529   4.436   9.274  2.7928  0.0421  1.1785
   27MOL0     H 3719   8.551   4.559   9.394  0.3025  0.8057 -0.1319
   27MOL0     H 3720   8.297   4.541   9.211  0.8178 -1.1307  0.4864
   27MOL0     H 3721   8.330   4.674   9.333 -1.6096  0.4930 -1.4940
   27MOL0     H 3722   8.206   4.303   9.512 -1.5128 -0.4914 -1.0325
   27MOL0     H 3723   8.944   4.713   9.119 -1.6180  0.0113  0.4565
   27MOL0     H 3724   9.155   4.727   9.002 -2.8248 -0.4603  1.1748
   27MOL0     H 3725   9.180   4.883   9.078  2.6818  0.0085 -0.9979
   27MOL0     H 3726   9.302   4.748   9.090  0.3003  0.6062  2.8400
   28MOL0     O 3727   9.070   6.750   0.994 -0.2075  0.1492 -0.0650
   28MOL0     C 3728   9.105   6.709   0.883 -0.2882 -0.8027  0.3063
   28MOL0     O 3729   9.232   6.676   0.840  0.4459 -0.8005 -0.0582
   28MOL0     C 3730   9.322   6.650   0.937 -0.6686 -0.3811  0.2125
   28MOL0     C 3731   9.334   6.534   1.005  0.4713  0.8080  0.8198
   28MOL0     C 3732   9.435   6.520   1.103  0.3762  0.5041 -0.2787
   28MOL0     C 3733   9.530   6.617   1.123 -1.4320  0.5177  0.1292
   28MOL0     O 3734   9.623   6.587   1.221 -0.4050  0.2929 -0.0717
   28MOL0     C 3735   9.742   6.670   1.236  0.0159 -0.1284 -0.6496
   28MOL0     C 3736   9.856   6.588   1.308 -0.4205  0.1910  0.3081
   28MOL0     C 3737   9.814   6.544   1.449 -0.4141  0.1288  0.1978
   28MOL0     C 3738   9.907   6.452   1.523  0.0156 -0.3135  0.0580
   28MOL0     C 3739   9.836   6.398   1.657 -0.3483  0.0416  0.1938
   28MOL0     C 3740   9.930   6.303   1.730  1.4308  0.3739  0.9346
   28MOL0     C 3741   9.868   6.292   1.869  0.0582  0.8004 -1.1527
   28MOL0     C 3742   9.959   6.195   1.952 -0.3129 -0.1460  0.0793
   28MOL0     N 3743  10.066   6.285   1.997  0.0369  0.7276 -0.3551
   28MOL0     C 3744  10.041   6.370   2.104 -0.1515  0.7581  0.2796
   28MOL0     C 3745  10.153   6.453   2.106  0.5895  1.1678 -0.1823
   28MOL0     C 3746  10.178   6.571   2.190 -0.3016  0.0668 -0.5565
   28MOL0     C 3747  10.143   6.569   2.336  0.0089 -0.0479 -0.2563
   28MOL0     C 3748  10.186   6.438   2.412  0.8385  0.7392 -0.3176
   28MOL0     C 3749  10.334   6.415   2.431  0.4601  0.0323  0.5682
   28MOL0     O 3750  10.386   6.517   2.518  0.9598  0.5455 -0.1084
   28MOL0     C 3751  10.523   6.517   2.556  0.7630 -1.5132 -0.5653
   28MOL0     C 3752  10.604   6.627   2.530  0.5341 -0.4363  0.1117
   28MOL0     C 3753  10.739   6.641   2.569  0.2070  0.8409  0.8331
   28MOL0     C 3754  10.810   6.759   2.514  0.7003  0.5969  0.3127
   28MOL0     C 3755  10.791   6.534   2.646 -0.4871  0.3312  0.4164
   28MOL0     C 3756  10.937   6.547   2.696  0.4719 -0.5046 -0.0706
   28MOL0     O 3757  10.974   6.437   2.764  1.1226 -0.4488  1.0353
   28MOL0     C 3758  11.101   6.430   2.815 -0.4004  0.2474 -0.6402
   28MOL0     C 3759  11.176   6.321   2.765  0.6119 -0.6963  0.3789
   28MOL0     C 3760  11.309   6.307   2.802 -0.8206  0.4421 -0.7636
   28MOL0     C 3761  11.376   6.399   2.885 -0.8487  0.5501  0.4729
   28MOL0     O 3762  11.505   6.397   2.931 -0.2318  0.1987 -0.1602
   28MOL0     C 3763  11.600   6.326   2.857  0.4047  0.7867  0.6356
   28MOL0     C 3764  11.749   6.343   2.891 -0.5637  0.7334  0.3703
   28MOL0     C 3765  11.801   6.271   3.018 -0.1614 -0.3645  0.5541
   28MOL0     C 3766  11.938   6.321   3.060  0.4185 -0.2843 -0.1074
   28MOL0     C 3767  12.045   6.277   2.972 -0.2888  0.0900  0.4703
   28MOL0     C 3768  12.167   6.351   3.018  0.0133  0.3361 -0.0445
   28MOL0     C 3769  12.287   6.273   2.969  0.2911 -0.2682  0.2113
   28MOL0     C 3770  12.415   6.342   2.999  0.2766 -0.2466 -0.0326
   28MOL0    Cl 3771  12.439   6.473   2.892  0.0552  0.0072  0.4363
   28MOL0     C 3772  11.305   6.508   2.933 -0.2652  0.5644 -0.1055
   28MOL0     C 3773  11.171   6.518   2.897 -0.5647 -0.0219 -0.3338
   28MOL0     O 3774  11.012   6.644   2.682  0.7907 -0.1392  0.5191
   28MOL0     C 3775  10.710   6.430   2.686 -0.3286 -0.2215  0.2143
   28MOL0     C 3776  10.583   6.424   2.634 -0.4444 -0.2293 -0.9826
   28MOL0     N 3777  10.245   6.406   2.010  0.5413 -0.4368  0.2713
   28MOL0     N 3778  10.191   6.310   1.946  0.7602  0.6344  0.5161
   28MOL0     C 3779   9.535   6.733   1.043  0.5262  0.9478 -0.0862
   28MOL0     C 3780   9.426   6.746   0.957  1.0602 -0.9946 -0.0063
   28MOL0     C 3781   9.003   6.700   0.772 -0.5109 -0.3333 -0.0288
   28MOL0     C 3782   9.058   6.714   0.640 -0.1892 -0.5235  0.4029
   28MOL0     C 3783   8.992   6.701   0.526  0.2687  0.4976  0.4057
   28MOL0     C 3784   8.861   6.665   0.528  0.2941 -0.7440  0.3580
   28MOL0     O 3785   8.806   6.647   0.403 -0.6400 -0.3139 -1.2540
   28MOL0     C 3786   8.663   6.656   0.383  0.4196 -0.5590  0.1142
   28MOL0     C 3787   8.639   6.625   0.227  0.4102  0.1081 -0.7120
   28MOL0     C 3788   8.500   6.567   0.197  0.3568  0.0903  0.5967
   28MOL0     C 3789   8.409   6.676   0.145  0.7312 -0.2814 -0.5545
   28MOL0     C 3790   8.289   6.625   0.075  0.0002 -0.4737  0.4391
   28MOL0     C 3791   8.203   6.591  -0.004  0.5704 -0.0133 -0.1478
   28MOL0     C 3792   8.793   6.654   0.653 -0.0184 -0.0486 -0.0823
   28MOL0     C 3793   8.864   6.666   0.778 -0.1417  0.0834  0.2611
   28MOL0     C 3794   8.808   6.650   0.912  0.3616 -1.1942  0.0861
   28MOL0     H 3795   9.266   6.456   0.972 -2.0535  2.6912  1.3270
   28MOL0     H 3796   9.442   6.429   1.161  0.5004  1.4157  1.1938
   28MOL0     H 3797   9.730   6.752   1.308  1.4087 -0.8692  0.4962
   28MOL0     H 3798   9.787   6.702   1.142  3.6595 -1.8644  0.3204
   28MOL0     H 3799   9.879   6.495   1.256  1.1434  0.0681  1.1516
   28MOL0     H 3800   9.952   6.640   1.316 -0.2180 -0.1091 -0.1682
   28MOL0     H 3801   9.799   6.632   1.513 -0.7625  2.2153 -2.5548
   28MOL0     H 3802   9.718   6.492   1.445 -0.8003  0.8396  0.0942
   28MOL0     H 3803   9.927   6.367   1.457 -0.2173 -0.6467  0.4075
   28MOL0     H 3804   9.997   6.507   1.551  0.1475  0.3517 -1.5932
   28MOL0     H 3805   9.740   6.351   1.634  0.2259  0.0705 -2.5105
   28MOL0     H 3806   9.824   6.491   1.713 -1.3544 -0.2129  0.4313
   28MOL0     H 3807   9.943   6.209   1.677  1.3812  0.5065  0.6884
   28MOL0     H 3808  10.030   6.347   1.732  1.4925  0.4349 -1.5307
   28MOL0     H 3809   9.768   6.253   1.850  1.9710 -3.8332 -3.1878
   28MOL0     H 3810   9.871   6.393   1.912  0.0063  1.5808 -2.8629
   28MOL0     H 3811   9.904   6.156   2.039  0.0575  1.4545  1.0715
   28MOL0     H 3812  10.009   6.130   1.880  1.8182  1.8680 -0.4087
   28MOL0     H 3813   9.951   6.372   2.165 -2.2554 -1.8105 -2.4270
   28MOL0     H 3814  10.112   6.641   2.139  0.2959 -0.1979 -1.7444
   28MOL0     H 3815  10.280   6.598   2.159 -0.6767  0.8354 -1.1355
   28MOL0     H 3816  10.184   6.656   2.388 -0.1182 -0.8187  1.1925
   28MOL0     H 3817  10.034   6.574   2.338 -0.0439 -0.3892 -1.4411
   28MOL0     H 3818  10.136   6.448   2.509  0.4303  3.6793 -0.7344
   28MOL0     H 3819  10.133   6.357   2.362 -1.3479  1.5113  0.6181
   28MOL0     H 3820  10.360   6.321   2.481  2.1186 -0.1117 -0.4795
   28MOL0     H 3821  10.382   6.412   2.333 -1.6488 -2.6409 -0.5049
   28MOL0     H 3822  10.563   6.712   2.476  0.7396 -0.2090  0.3100
   28MOL0     H 3823  10.741   6.833   2.473  0.2084  1.0293  1.8415
   28MOL0     H 3824  10.879   6.725   2.436  1.3673 -0.0148  1.1455
   28MOL0     H 3825  10.872   6.820   2.581  0.4873  0.2582  0.8273
   28MOL0     H 3826  11.124   6.242   2.712 -0.6756 -0.8157  1.7795
   28MOL0     H 3827  11.346   6.210   2.770  0.0782 -0.8801  3.6603
   28MOL0     H 3828  11.572   6.221   2.872  0.6234  0.6823  0.3212
   28MOL0     H 3829  11.586   6.361   2.755  0.9374 -1.0476 -0.1073
   28MOL0     H 3830  11.802   6.300   2.806  0.8331  1.1962  0.9658
   28MOL0     H 3831  11.770   6.450   2.890 -0.1554  0.6528 -0.5699
   28MOL0     H 3832  11.800   6.164   2.994 -0.6195 -0.3036  0.2883
   28MOL0     H 3833  11.727   6.280   3.098  0.2431 -1.0557  1.0151
   28MOL0     H 3834  11.968   6.288   3.160 -1.1882  2.0047  1.2179
   28MOL0     H 3835  11.922   6.429   3.065 -2.5254 -0.6900  1.8607
   28MOL0     H 3836  12.069   6.170   2.975  1.6762  0.5049  1.7221
   28MOL0     H 3837  12.021   6.313   2.872  0.7373 -0.9234 -0.1761
   28MOL0     H 3838  12.157   6.366   3.126 -2.2255 -1.7227  0.0990
   28MOL0     H 3839  12.170   6.449   2.969  0.4541  0.8941  1.0577
   28MOL0     H 3840  12.272   6.256   2.862  1.2452 -1.0222  0.1808
   28MOL0     H 3841  12.299   6.177   3.020  1.0469  0.5545  1.6452
   28MOL0     H 3842  12.494   6.267   2.999  2.4931  1.9278  0.7515
   28MOL0     H 3843  12.415   6.394   3.096  1.6988  3.2647 -1.7291
   28MOL0     H 3844  11.355   6.588   2.986  1.7078 -0.2757 -0.5965
   28MOL0     H 3845  11.111   6.590   2.952 -0.1924 -0.2215  0.3439
   28MOL0     H 3846  10.750   6.362   2.761  0.3399 -0.1521 -0.0704
   28MOL0     H 3847  10.533   6.329   2.651 -0.2944 -0.5535 -2.2357
   28MOL0     H 3848   9.618   6.801   1.057  1.8730 -0.7813  0.7797
   28MOL0     H 3849   9.432   6.840   0.903 -0.9524 -0.4434  0.6304
   28MOL0     H 3850   9.158   6.754   0.623 -1.2852  2.8573  1.0057
   28MOL0     H 3851   9.032   6.720   0.427 -2.1382  0.2862 -0.6814
   28MOL0     H 3852   8.612   6.576   0.438 -2.0430  1.6530  1.2540
   28MOL0     H 3853   8.625   6.756   0.403  0.1221 -0.6584  0.0518
   28MOL0     H 3854   8.710   6.548   0.195 -1.8009 -1.3192 -2.6052
   28MOL0     H 3855   8.657   6.714   0.167  1.5569  0.2328 -0.2047
   28MOL0     H 3856   8.505   6.503   0.108 -1.1189  0.6779  0.0685
   28MOL0     H 3857   8.459   6.501   0.274  2.2446  1.6697  3.1178
   28MOL0     H 3858   8.458   6.744   0.074 -2.8206  3.0643 -0.1261
   28MOL0     H 3859   8.363   6.730   0.228  2.0212 -0.0343  0.0159
   28MOL0     H 3860   8.126   6.551  -0.067 -0.6830  1.5789  0.3068
   28MOL0     H 3861   8.687   6.634   0.645  0.4516 -2.5813 -1.0897
   28MOL0     H 3862   8.790   6.749   0.956 -2.7343 -0.5852 -2.2577
   28MOL0     H 3863   8.716   6.592   0.900  0.6225 -1.5595 -0.1673
   28MOL0     H 3864   8.872   6.590   0.978  0.2310 -2.4962 -0.9213
   29MOL0     O 3865   1.067   3.507   2.725 -0.0185  0.4691  0.0854
   29MOL0     C 3866   1.082   3.454   2.621 -0.3454 -0.0506  0.0020
   29MOL0     O 3867   1.196   3.388   2.584 -0.1386 -0.1102 -0.0334
   29MOL0     C 3868   1.298   3.393   2.682 -0.2951 -0.0218  0.0684
   29MOL0     C 3869   1.342   3.274   2.733 -0.8497  0.5146 -0.0392
   29MOL0     C 3870   1.442   3.269   2.835  0.4575  0.1100  0.3345
   29MOL0     C 3871   1.496   3.385   2.879  0.3161 -0.2655  0.1940
   29MOL0     O 3872   1.578   3.400   2.986 -0.2668  0.5151 -0.0472
   29MOL0     C 3873   1.613   3.291   3.069 -1.3515  0.0773  0.0523
   29MOL0     C 3874   1.719   3.338   3.164  0.0141 -0.4320  1.0895
   29MOL0     C 3875   1.850   3.402   3.090  1.0144  0.3362 -0.7650
   29MOL0     C 3876   1.945   3.455   3.185 -0.4834  0.5103  0.8496
   29MOL0     C 3877   2.071   3.510   3.111  0.4000  0.0116  0.5423
   29MOL0     C 3878   2.181   3.541   3.204 -0.3690 -0.3105 -1.3208
   29MOL0     C 3879   2.305   3.604   3.130  0.0759 -0.1270  0.7919
   29MOL0     C 3880   2.393   3.508   3.049  1.4669  0.2828 -0.6827
   29MOL0     N 3881   2.458   3.413   3.141 -0.4860  0.1288  1.4817
   29MOL0     C 3882   2.593   3.383   3.131 -0.0244 -0.1793  0.4430
   29MOL0     C 3883   2.611   3.274   3.214 -0.3100 -0.0042  0.3828
   29MOL0     C 3884   2.754   3.211   3.224  0.6234  0.0328  0.0423
   29MOL0     C 3885   2.735   3.060   3.189 -0.3058 -0.9503  0.3476
   29MOL0     C 3886   2.869   2.984   3.187 -0.1733  0.5839  0.5499
   29MOL0     C 3887   2.967   3.045   3.089 -0.0034  0.3767 -0.9001
   29MOL0     O 3888   3.075   2.951   3.063  0.5975  0.3164 -0.6667
   29MOL0     C 3889   3.186   3.013   3.003 -0.3258  0.2568  0.6580
   29MOL0     C 3890   3.186   3.138   2.940 -0.2998 -0.8420  0.2128
   29MOL0     C 3891   3.308   3.186   2.892 -1.1478 -0.2866 -0.6926
   29MOL0     C 3892   3.288   3.310   2.818 -0.0013 -0.7615 -0.6176
   29MOL0     C 3893   3.435   3.130   2.913  0.2981  0.3079  0.0107
   29MOL0     C 3894   3.569   3.186   2.878 -0.3675 -0.7839 -0.2782
   29MOL0     O 3895   3.667   3.098   2.873  0.0480  0.2047  0.4780
   29MOL0     C 3896   3.788   3.140   2.824 -0.7513  0.3131 -0.4236
   29MOL0     C 3897   3.799   3.192   2.699 -0.3131  0.4873  0.4647
   29MOL0     C 3898   3.935   3.205   2.655  0.0058 -0.0443  0.5244
   29MOL0     C 3899   4.053   3.177   2.728 -0.3999 -0.1755  0.1021
   29MOL0     O 3900   4.180   3.196   2.674  0.0917  0.1548 -0.2178
   29MOL0     C 3901   4.196   3.237   2.542 -0.7181 -0.3992  0.1749
   29MOL0     C 3902   4.335   3.251   2.505 -0.8393  0.6354  0.5639
   29MOL0     C 3903   4.396   3.335   2.617 -1.2023 -0.5696  0.4586
   29MOL0     C 3904   4.515   3.427   2.572 -0.6210  0.3037  0.1089
   29MOL0     C 3905   4.586   3.496   2.689  0.2763  0.4732 -0.4208
   29MOL0     C 3906   4.512   3.610   2.759 -0.2071  1.3085 -0.0665
   29MOL0     C 3907   4.592   3.665   2.875 -0.8491  0.4298  0.1923
   29MOL0     C 3908   4.531   3.803   2.918  0.3144 -0.2679 -0.2139
   29MOL0    Cl 3909   4.595   3.835   3.079 -0.1137  0.0919  0.0359
   29MOL0     C 3910   4.035   3.116   2.850  0.4687  1.1010  0.0807
   29MOL0     C 3911   3.905   3.088   2.892  0.6614  0.5830  0.3467
   29MOL0     O 3912   3.582   3.308   2.870  0.3152  0.3174 -0.5832
   29MOL0     C 3913   3.432   3.004   2.964  0.9852 -0.1709 -0.1768
   29MOL0     C 3914   3.312   2.946   3.012 -0.1200  0.4223 -0.2437
   29MOL0     N 3915   2.492   3.228   3.257  0.4244 -0.1491 -0.0722
   29MOL0     N 3916   2.395   3.313   3.207 -0.1733  1.0056  0.7709
   29MOL0     C 3917   1.460   3.503   2.818 -0.0402  0.1603 -0.8092
   29MOL0     C 3918   1.355   3.513   2.729  0.2142 -0.4054 -0.0293
   29MOL0     C 3919   0.967   3.462   2.528 -0.8132  0.6147  0.6634
   29MOL0     C 3920   0.971   3.372   2.421 -0.8067 -1.0394  0.0349
   29MOL0     C 3921   0.881   3.370   2.318 -0.6547 -0.5364  0.8260
   29MOL0     C 3922   0.772   3.456   2.320  0.3568  0.2848  0.1264
   29MOL0     O 3923   0.697   3.446   2.212  0.5072 -0.2442  0.5131
   29MOL0     C 3924   0.594   3.543   2.196  0.1494  0.6867  0.4929
   29MOL0     C 3925   0.502   3.482   2.081 -0.0494  0.1450  0.4592
   29MOL0     C 3926   0.583   3.478   1.951 -0.0824 -0.0080 -0.5360
   29MOL0     C 3927   0.508   3.400   1.839 -0.1454 -0.6525 -0.0325
   29MOL0     C 3928   0.541   3.257   1.861 -0.6168 -0.3837  0.6452
   29MOL0     C 3929   0.579   3.148   1.880 -0.5000 -0.1864  0.7288
   29MOL0     C 3930   0.758   3.540   2.427  0.2157 -0.2276 -0.4933
   29MOL0     C 3931   0.854   3.545   2.530 -0.3289 -0.4532 -0.0480
   29MOL0     C 3932   0.828   3.643   2.643 -0.0297 -0.6943 -0.0202
   29MOL0     H 3933   1.292   3.186   2.693  0.2168 -0.1416  0.0495
   29MOL0     H 3934   1.471   3.172   2.876  1.5045 -0.0806 -0.8044
   29MOL0     H 3935   1.657   3.210   3.009  1.9063  2.9463 -1.7767
   29MOL0     H 3936   1.524   3.254   3.120 -1.5380 -1.0878 -1.0423
   29MOL0     H 3937   1.686   3.425   3.220  2.8083  2.0604 -0.7894
   29MOL0     H 3938   1.755   3.256   3.228  2.9813  0.0752  0.2545
   29MOL0     H 3939   1.899   3.327   3.028 -1.4482 -0.2673 -2.0973
   29MOL0     H 3940   1.818   3.480   3.021  1.3699  0.4778 -0.7728
   29MOL0     H 3941   1.891   3.538   3.232  0.0961  1.3620  0.0342
   29MOL0     H 3942   1.961   3.373   3.256  0.7290 -1.6837 -1.8001
   29MOL0     H 3943   2.032   3.601   3.064 -2.0819 -0.8703  0.7172
   29MOL0     H 3944   2.111   3.440   3.038 -0.2542 -0.4172  0.5817
   29MOL0     H 3945   2.144   3.623   3.266 -0.9219 -1.3379 -0.2503
   29MOL0     H 3946   2.207   3.448   3.256 -2.5323 -0.4097 -0.3381
   29MOL0     H 3947   2.372   3.635   3.211  0.5291  1.4956 -0.1520
   29MOL0     H 3948   2.267   3.693   3.078 -3.4272 -1.3944  0.9474
   29MOL0     H 3949   2.327   3.454   2.981 -0.5001  2.1880 -0.3788
   29MOL0     H 3950   2.463   3.572   2.995  1.4030  2.2015  1.3548
   29MOL0     H 3951   2.670   3.430   3.071 -0.6058  0.1410 -0.0690
   29MOL0     H 3952   2.797   3.223   3.324  1.0272 -1.6062  0.0961
   29MOL0     H 3953   2.820   3.258   3.150  1.0235 -1.7929 -0.8342
   29MOL0     H 3954   2.672   3.005   3.260 -0.9637 -1.0741 -0.3275
   29MOL0     H 3955   2.669   3.055   3.103 -1.1126  0.5526  0.8414
   29MOL0     H 3956   2.902   2.976   3.291  1.3435 -1.2696 -0.0114
   29MOL0     H 3957   2.857   2.878   3.164 -2.0036  1.4672 -3.4832
   29MOL0     H 3958   2.914   3.057   2.994  0.4570  1.4853 -1.0420
   29MOL0     H 3959   2.998   3.148   3.112  1.0986  0.0533 -0.8931
   29MOL0     H 3960   3.100   3.204   2.933  0.0971  0.0659  2.6496
   29MOL0     H 3961   3.270   3.394   2.885  0.3214 -1.1431 -0.0486
   29MOL0     H 3962   3.206   3.303   2.746  1.7767 -0.3584 -2.8199
   29MOL0     H 3963   3.377   3.333   2.758 -0.8292  0.4028 -1.4438
   29MOL0     H 3964   3.711   3.201   2.636 -0.5298 -1.3458  0.4697
   29MOL0     H 3965   3.945   3.226   2.549 -1.9933 -2.6489 -0.2786
   29MOL0     H 3966   4.140   3.168   2.478 -2.1456  1.6292 -0.8528
   29MOL0     H 3967   4.157   3.339   2.534 -1.2664 -0.4727  1.7457
   29MOL0     H 3968   4.406   3.167   2.508 -0.4641  0.9769  1.9945
   29MOL0     H 3969   4.330   3.314   2.415  1.6306  0.2813  0.1194
   29MOL0     H 3970   4.441   3.266   2.688  3.6224 -0.5692 -2.1442
   29MOL0     H 3971   4.322   3.405   2.658 -1.9298 -1.1037  0.0702
   29MOL0     H 3972   4.469   3.497   2.501  1.4801  1.7387  0.0579
   29MOL0     H 3973   4.592   3.363   2.528 -0.2461  0.1118  1.0343
   29MOL0     H 3974   4.635   3.416   2.745 -0.8107 -0.6925 -1.0796
   29MOL0     H 3975   4.674   3.539   2.641  1.0759 -0.9131 -0.2433
   29MOL0     H 3976   4.425   3.572   2.812 -0.6315  4.7186  2.0170
   29MOL0     H 3977   4.472   3.685   2.689  1.2771 -0.2307 -2.7254
   29MOL0     H 3978   4.695   3.680   2.839 -1.0778 -0.8594 -1.1287
   29MOL0     H 3979   4.595   3.599   2.962  1.3770 -0.2470 -0.3337
   29MOL0     H 3980   4.422   3.804   2.921  0.3194 -0.0482 -0.1096
   29MOL0     H 3981   4.573   3.886   2.860  1.5379 -1.1446 -0.6357
   29MOL0     H 3982   4.116   3.081   2.913  0.4129  0.8374  0.0080
   29MOL0     H 3983   3.890   3.046   2.991  0.7683  0.9682  0.5284
   29MOL0     H 3984   3.529   2.960   2.987  2.8368  2.8671 -1.4518
   29MOL0     H 3985   3.315   2.850   3.061 -1.2128  1.6912  2.4834
   29MOL0     H 3986   1.499   3.595   2.861 -2.2717 -0.6460  3.4660
   29MOL0     H 3987   1.330   3.611   2.689  0.6756  1.2519  3.3130
   29MOL0     H 3988   1.064   3.316   2.413  0.0649  0.6850 -4.0132
   29MOL0     H 3989   0.912   3.298   2.244 -2.1704 -3.3194  2.7109
   29MOL0     H 3990   0.528   3.542   2.283 -1.0208  1.9893 -0.3254
   29MOL0     H 3991   0.631   3.640   2.162  0.7535  0.4355  0.4112
   29MOL0     H 3992   0.414   3.544   2.062  1.2582  1.6614 -0.9273
   29MOL0     H 3993   0.477   3.378   2.104 -0.5057 -0.1129 -1.0855
   29MOL0     H 3994   0.594   3.580   1.915 -0.5495 -0.1694 -1.1600
   29MOL0     H 3995   0.680   3.427   1.960 -1.0590 -1.7761  0.6383
   29MOL0     H 3996   0.530   3.419   1.734 -0.5828  0.1454  0.0097
   29MOL0     H 3997   0.402   3.425   1.844  0.2624  2.1091 -2.6286
   29MOL0     H 3998   0.626   3.052   1.890  2.2134  1.2119  3.1976
   29MOL0     H 3999   0.684   3.618   2.437  1.0193  0.3667  1.3430
   29MOL0     H 4000   0.805   3.599   2.740 -0.4282  1.0808  0.7283
   29MOL0     H 4001   0.916   3.706   2.658 -0.5576 -0.0003  0.2235
   29MOL0     H 4002   0.746   3.714   2.628 -1.3796 -1.7064  2.2020
   30MOL0     O 4003   3.600   8.350   1.154 -0.2397 -0.6843 -0.7820
   30MOL0     C 4004   3.609   8.228   1.113 -0.7008 -0.1385 -0.1054
   30MOL0     O 4005   3.710   8.180   1.040  0.1365  0.0914  0.6828
   30MOL0     C 4006   3.800   8.261   0.987 -0.1434  0.2325  0.0969
   30MOL0     C 4007   3.830   8.232   0.852 -0.0083  0.2876  1.0565
   30MOL0     C 4008   3.929   8.305   0.782  0.3438 -0.1158 -0.8453
   30MOL0     C 4009   4.001   8.405   0.857  0.3248  0.1744 -0.4562
   30MOL0     O 4010   4.094   8.486   0.798 -0.4467  0.0903  0.5750
   30MOL0     C 4011   4.158   8.424   0.683 -0.3353 -0.3757  0.3274
   30MOL0     C 4012   4.297   8.497   0.677  0.0150 -0.1665  0.2508
   30MOL0     C 4013   4.283   8.652   0.683 -0.6546 -0.0571 -0.4448
   30MOL0     C 4014   4.198   8.726   0.573  0.1791 -0.0309 -0.1805
   30MOL0     C 4015   4.277   8.722   0.444 -0.8112 -0.1625 -0.4603
   30MOL0     C 4016   4.220   8.796   0.320 -0.3944  0.1728 -0.4061
   30MOL0     C 4017   4.072   8.762   0.287 -0.5639  0.4603  0.5369
   30MOL0     C 4018   4.044   8.768   0.143 -0.4924  0.4973  0.3981
   30MOL0     N 4019   4.035   8.910   0.110 -0.0963 -0.0723  0.2601
   30MOL0     C 4020   4.119   8.998   0.041  0.4067  0.4020 -0.1179
   30MOL0     C 4021   4.073   9.118   0.070 -0.9719 -0.3026 -0.6727
   30MOL0     C 4022   4.137   9.250   0.022  0.0069  0.8460 -0.6189
   30MOL0     C 4023   4.283   9.275   0.074 -0.8187  0.8980  0.2368
   30MOL0     C 4024   4.314   9.428   0.063 -0.2578  0.2127 -0.0873
   30MOL0     C 4025   4.351   9.452  -0.088 -0.8818 -0.0487 -0.2419
   30MOL0     O 4026   4.391   9.592  -0.111  0.7230 -0.8946  0.1305
   30MOL0     C 4027   4.520   9.643  -0.102  0.3996 -0.1307  0.5611
   30MOL0     C 4028   4.539   9.780  -0.130 -0.3808  0.8843 -0.1764
   30MOL0     C 4029   4.659   9.849  -0.114 -0.8607  1.1813 -0.1749
   30MOL0     C 4030   4.667   9.996  -0.124  0.1404  0.3448  0.2234
   30MOL0     C 4031   4.774   9.764  -0.086  0.5360  0.0456 -0.5045
   30MOL0     C 4032   4.900   9.821  -0.054  0.6283  0.5772 -0.5497
   30MOL0     O 4033   4.921   9.894   0.062 -0.6152 -0.6694 -0.4157
   30MOL0     C 4034   5.047   9.948   0.071 -0.7530 -1.0346  0.5770
   30MOL0     C 4035   5.075  10.073   0.011  0.4713 -0.1195  0.3347
   30MOL0     C 4036   5.204  10.122   0.042 -0.1901 -0.7088  0.8813
   30MOL0     C 4037   5.296  10.058   0.117 -0.9590 -0.9530  0.0425
   30MOL0     O 4038   5.423  10.107   0.137  0.1624 -1.1046  0.2843
   30MOL0     C 4039   5.437  10.250   0.161 -0.8893  0.5034  0.5474
   30MOL0     C 4040   5.590  10.290   0.186 -0.1895  0.5965 -0.6643
   30MOL0     C 4041   5.680  10.272   0.058 -0.7571  0.1364  0.5245
   30MOL0     C 4042   5.820  10.311   0.096 -0.0870  0.0388 -0.2618
   30MOL0     C 4043   5.902  10.339  -0.031  0.2338  0.1371 -0.2935
   30MOL0     C 4044   6.046  10.351  -0.001 -0.5854 -0.3978  0.1154
   30MOL0     C 4045   6.134  10.222   0.005 -0.1626 -0.7965 -0.3057
   30MOL0     C 4046   6.264  10.250  -0.077  0.4135  0.3439 -0.1207
   30MOL0    Cl 4047   6.366  10.356   0.010 -0.0693 -0.4670  0.1002
   30MOL0     C 4048   5.264   9.930   0.167  0.6125  0.2603 -0.5879
   30MOL0     C 4049   5.137   9.881   0.149  0.7214 -0.2016 -0.9586
   30MOL0     O 4050   4.987   9.794  -0.135  1.1191 -0.2675 -0.2898
   30MOL0     C 4051   4.752   9.629  -0.053 -0.4420  0.1070  0.4430
   30MOL0     C 4052   4.633   9.568  -0.063 -0.2358  0.3690  0.3765
   30MOL0     N 4053   3.965   9.110   0.157  0.1384 -0.0649  0.2365
   30MOL0     N 4054   3.942   8.985   0.174 -0.0227 -0.4031  0.1934
   30MOL0     C 4055   3.969   8.437   0.992 -0.9131  0.1452 -0.2129
   30MOL0     C 4056   3.865   8.369   1.054 -0.0952 -0.3046 -0.1554
   30MOL0     C 4057   3.505   8.134   1.164  0.1490 -0.7665 -0.3426
   30MOL0     C 4058   3.383   8.182   1.206 -0.3489  0.2838  1.2875
   30MOL0     C 4059   3.279   8.101   1.252  0.1055  0.0420  0.6221
   30MOL0     C 4060   3.299   7.960   1.268 -0.2744  0.1913 -0.0214
   30MOL0     O 4061   3.196   7.895   1.332 -0.3738  1.1437  0.2375
   30MOL0     C 4062   3.196   7.746   1.353  0.1723 -0.4437  0.0416
   30MOL0     C 4063   3.059   7.701   1.396  0.7656 -0.4464  0.5802
   30MOL0     C 4064   3.000   7.762   1.527 -0.3351 -0.1745  0.3544
   30MOL0     C 4065   2.867   7.692   1.574 -0.3803 -1.0032  0.0111
   30MOL0     C 4066   2.752   7.685   1.485  0.4789  0.0887  0.2916
   30MOL0     C 4067   2.657   7.691   1.403  0.2972 -0.2741 -0.5339
   30MOL0     C 4068   3.425   7.915   1.234  0.2669 -0.4836  0.9548
   30MOL0     C 4069   3.533   7.998   1.183 -0.2257  0.0324 -0.1516
   30MOL0     C 4070   3.666   7.931   1.148  0.6708 -0.7947 -0.0434
   30MOL0     H 4071   3.770   8.164   0.792  0.1160 -0.1069  1.3819
   30MOL0     H 4072   3.957   8.289   0.679  3.3619  1.7418 -0.4399
   30MOL0     H 4073   4.105   8.442   0.589  1.6584 -1.3210 -1.0563
   30MOL0     H 4074   4.178   8.317   0.695 -1.1874 -0.5702  0.1247
   30MOL0     H 4075   4.365   8.459   0.754  2.4989 -1.1162 -2.2268
   30MOL0     H 4076   4.339   8.468   0.580 -0.8364 -1.0180  0.1131
   30MOL0     H 4077   4.258   8.682   0.785 -2.6521 -0.9781 -0.6355
   30MOL0     H 4078   4.385   8.693   0.678 -0.3815 -0.5090  0.9118
   30MOL0     H 4079   4.104   8.673   0.554  0.9243 -2.7712  2.8906
   30MOL0     H 4080   4.181   8.832   0.594  2.3416  0.5220 -0.9877
   30MOL0     H 4081   4.296   8.616   0.424 -2.6715 -0.7295  0.5240
   30MOL0     H 4082   4.367   8.777   0.471 -1.7023  0.4435  1.4715
   30MOL0     H 4083   4.231   8.904   0.334  3.3292  0.1091 -1.8185
   30MOL0     H 4084   4.276   8.776   0.229 -2.4889  2.1727 -2.2641
   30MOL0     H 4085   4.003   8.814   0.354  1.0724  2.5291  0.7062
   30MOL0     H 4086   4.062   8.654   0.300  0.8564  0.2751  0.1897
   30MOL0     H 4087   4.120   8.711   0.087  3.2124  4.6461  0.7023
   30MOL0     H 4088   3.949   8.719   0.118 -1.6774  2.4672  0.8526
   30MOL0     H 4089   4.208   8.980  -0.020 -0.3428  0.2763 -1.2153
   30MOL0     H 4090   4.071   9.318   0.076 -0.5112 -1.1510  1.3938
   30MOL0     H 4091   4.138   9.260  -0.087  1.5838 -0.5712 -0.7762
   30MOL0     H 4092   4.295   9.242   0.178  0.3133  0.7800  0.0776
   30MOL0     H 4093   4.356   9.228   0.008 -1.0371 -0.3560  0.8624
   30MOL0     H 4094   4.222   9.483   0.086 -0.5717 -0.1433 -0.4649
   30MOL0     H 4095   4.398   9.452   0.128  0.0961  0.7829 -0.7449
   30MOL0     H 4096   4.440   9.392  -0.108 -0.7981  0.5117 -1.6331
   30MOL0     H 4097   4.273   9.409  -0.151 -2.4857  1.1467  0.8275
   30MOL0     H 4098   4.443   9.827  -0.151 -0.1849  1.5299  0.3275
   30MOL0     H 4099   4.585  10.024  -0.191  1.0137 -1.2927 -1.6489
   30MOL0     H 4100   4.768  10.028  -0.154 -0.1528  0.7175 -0.3777
   30MOL0     H 4101   4.643  10.043  -0.029  1.5642 -2.1037  1.9146
   30MOL0     H 4102   5.005  10.120  -0.056  0.6835 -0.7032 -0.3044
   30MOL0     H 4103   5.254  10.208  -0.002  2.1920 -1.4979  1.8795
   30MOL0     H 4104   5.408  10.310   0.074 -0.0434  1.6159  1.0066
   30MOL0     H 4105   5.367  10.267   0.244 -1.6915  0.8187 -0.1779
   30MOL0     H 4106   5.564  10.392   0.216 -2.1081 -0.2615  0.8334
   30MOL0     H 4107   5.639  10.237   0.267  2.7950  3.1840 -0.5924
   30MOL0     H 4108   5.637  10.325  -0.027 -0.2288 -0.8330 -0.3631
   30MOL0     H 4109   5.681  10.166   0.031  0.8055  0.9838 -3.3897
   30MOL0     H 4110   5.865  10.228   0.152 -1.8927 -1.3179 -0.7448
   30MOL0     H 4111   5.820  10.403   0.156  2.6408 -0.9741  1.5087
   30MOL0     H 4112   5.886  10.267  -0.112 -0.0905  0.2337 -0.3187
   30MOL0     H 4113   5.861  10.429  -0.079  1.6788  0.7535 -0.4219
   30MOL0     H 4114   6.051  10.414   0.088 -1.4627  0.4803 -0.4297
   30MOL0     H 4115   6.074  10.417  -0.084 -1.4480 -3.4709 -2.8510
   30MOL0     H 4116   6.085  10.136  -0.042  1.5024 -0.1006 -3.6752
   30MOL0     H 4117   6.168  10.211   0.108 -2.2877 -0.8830  0.4270
   30MOL0     H 4118   6.247  10.297  -0.174  0.5615 -1.6323 -1.1347
   30MOL0     H 4119   6.314  10.154  -0.092 -1.9906 -0.6114 -2.7556
   30MOL0     H 4120   5.335   9.874   0.227 -1.6127 -2.3599 -0.2207
   30MOL0     H 4121   5.108   9.783   0.187  0.1759 -0.5679 -2.2613
   30MOL0     H 4122   4.835   9.571  -0.014  0.4324  1.8142  1.2046
   30MOL0     H 4123   4.632   9.464  -0.033 -1.0812  0.2557  0.0026
   30MOL0     H 4124   4.023   8.519   1.038  0.9888  0.1738 -2.3032
   30MOL0     H 4125   3.842   8.404   1.154  1.5918  3.5358 -0.9408
   30MOL0     H 4126   3.372   8.289   1.198  1.2192  0.5979  2.6683
   30MOL0     H 4127   3.176   8.134   1.262 -0.1059  0.5690 -2.3042
   30MOL0     H 4128   3.208   7.702   1.254  2.5883  1.2595 -0.5371
   30MOL0     H 4129   3.275   7.710   1.420  1.7015 -0.5764 -1.7631
   30MOL0     H 4130   3.066   7.594   1.416 -1.2936  0.0974  5.7848
   30MOL0     H 4131   2.989   7.715   1.313  0.9882  0.1924  0.4924
   30MOL0     H 4132   3.074   7.771   1.608 -1.2713  1.9423  1.0388
   30MOL0     H 4133   2.976   7.866   1.503  1.9123  1.0426  2.8504
   30MOL0     H 4134   2.830   7.729   1.670 -0.9433 -0.3442 -0.4515
   30MOL0     H 4135   2.891   7.589   1.602 -3.7123 -1.9532 -0.2663
   30MOL0     H 4136   2.588   7.704   1.322  3.2282 -0.1620 -3.2236
   30MOL0     H 4137   3.426   7.806   1.233 -0.7203 -0.5798 -2.3604
   30MOL0     H 4138   3.689   7.921   1.042  0.1666  2.8734 -0.6004
   30MOL0     H 4139   3.750   7.984   1.194  0.2567  0.4604 -0.6954
   30MOL0     H 4140   3.665   7.830   1.191 -0.2847 -0.6635  0.2841
   31MOL0     O 4141   0.443   7.222   3.806 -0.0374 -0.2562 -0.3975
   31MOL0     C 4142   0.431   7.110   3.759  0.3984  0.2081 -0.0218
   31MOL0     O 4143   0.530   7.017   3.754  0.2942 -0.0985  0.0289
   31MOL0     C 4144   0.648   7.042   3.816 -0.6337 -0.1447  0.2643
   31MOL0     C 4145   0.718   7.167   3.837  0.0549 -0.2739  0.2377
   31MOL0     C 4146   0.846   7.179   3.898  0.3342  0.2024  0.8317
   31MOL0     C 4147   0.905   7.057   3.946  0.5106  0.2478 -0.4109
   31MOL0     O 4148   1.027   7.044   4.010 -0.6045  0.1480 -0.1885
   31MOL0     C 4149   1.134   7.130   3.962  0.1773  0.5983 -0.4958
   31MOL0     C 4150   1.270   7.067   3.972 -0.3429  0.1005 -0.6557
   31MOL0     C 4151   1.402   7.149   3.932  0.5249  0.8528  1.8318
   31MOL0     C 4152   1.474   7.112   3.804  0.3089  0.1417 -1.0040
   31MOL0     C 4153   1.586   7.012   3.814 -0.4755 -0.0134 -0.3310
   31MOL0     C 4154   1.664   7.012   3.682 -0.6383  0.7015 -0.0458
   31MOL0     C 4155   1.790   6.927   3.693  0.1761 -0.2797  0.4558
   31MOL0     C 4156   1.902   6.979   3.781  0.0030  0.1016 -0.0109
   31MOL0     N 4157   2.030   6.919   3.746  0.3947 -0.5031 -0.1270
   31MOL0     C 4158   2.083   6.810   3.804 -0.1415  0.8235  0.0309
   31MOL0     C 4159   2.182   6.769   3.719 -1.4187 -0.1034  0.4042
   31MOL0     C 4160   2.270   6.649   3.732 -0.3157 -0.0902 -0.7828
   31MOL0     C 4161   2.259   6.560   3.608 -0.0318 -0.2130  0.3848
   31MOL0     C 4162   2.319   6.419   3.621 -0.0308 -0.4015 -0.7025
   31MOL0     C 4163   2.461   6.413   3.681  0.4097 -0.5519  0.2242
   31MOL0     O 4164   2.479   6.274   3.719  0.4370  0.0475 -0.0966
   31MOL0     C 4165   2.599   6.241   3.770 -0.3905  0.0165  1.3372
   31MOL0     C 4166   2.698   6.338   3.794  0.2198  0.8713  0.7648
   31MOL0     C 4167   2.820   6.298   3.851  0.6156  0.2943 -0.1206
   31MOL0     C 4168   2.926   6.401   3.840 -0.2317  0.1094  0.0713
   31MOL0     C 4169   2.834   6.171   3.906 -1.3308  0.3103 -0.2342
   31MOL0     C 4170   2.958   6.120   3.966 -0.2804  0.0210 -0.6757
   31MOL0     O 4171   2.973   5.987   3.964  0.4738 -0.2993  0.3962
   31MOL0     C 4172   3.057   5.927   4.054  0.2248 -0.1065 -0.5075
   31MOL0     C 4173   3.136   5.824   3.994 -0.1569  0.2255  0.1428
   31MOL0     C 4174   3.235   5.768   4.070 -0.8914 -0.0580 -0.0550
   31MOL0     C 4175   3.236   5.785   4.215 -0.3765 -0.1347  0.6648
   31MOL0     O 4176   3.320   5.718   4.298  0.2370  0.0857 -0.3420
   31MOL0     C 4177   3.448   5.664   4.258  0.1705 -0.5370  0.0752
   31MOL0     C 4178   3.499   5.576   4.370 -0.1380 -0.1715  0.2007
   31MOL0     C 4179   3.522   5.434   4.315  0.4037  0.4678 -0.1223
   31MOL0     C 4180   3.558   5.328   4.418 -0.0166  0.0698  0.4844
   31MOL0     C 4181   3.710   5.354   4.461  0.1376 -0.6281  0.7580
   31MOL0     C 4182   3.811   5.291   4.361 -0.0291  0.0783 -0.0354
   31MOL0     C 4183   3.956   5.304   4.408  0.3871 -0.2893 -0.0607
   31MOL0     C 4184   4.045   5.221   4.317 -0.6196  0.6698  0.1822
   31MOL0    Cl 4185   4.204   5.292   4.314 -0.0939 -0.1172 -0.5458
   31MOL0     C 4186   3.146   5.870   4.278 -0.6747 -0.1087 -0.3615
   31MOL0     C 4187   3.057   5.939   4.198 -0.6414 -0.7537  0.0419
   31MOL0     O 4188   3.030   6.194   4.030 -0.1792 -0.5646  0.6541
   31MOL0     C 4189   2.732   6.085   3.890 -0.3472 -0.3687  0.7342
   31MOL0     C 4190   2.615   6.117   3.821  1.0738  0.1830  0.4201
   31MOL0     N 4191   2.194   6.874   3.624  0.1700  0.7222  0.5424
   31MOL0     N 4192   2.092   6.956   3.633  0.3928 -0.0303  0.4275
   31MOL0     C 4193   0.834   6.937   3.931 -0.1604 -0.1713  0.6776
   31MOL0     C 4194   0.717   6.926   3.862 -0.0199  0.2625  0.9260
   31MOL0     C 4195   0.303   7.063   3.696 -0.3783 -0.5397 -0.0440
   31MOL0     C 4196   0.261   6.930   3.699  0.3774  0.5450  0.9342
   31MOL0     C 4197   0.147   6.876   3.641 -0.5392  0.3056  0.1388
   31MOL0     C 4198   0.052   6.966   3.601  0.2375 -0.2463 -0.4218
   31MOL0     O 4199  -0.067   6.911   3.550  0.4755 -0.4193  0.0499
   31MOL0     C 4200  -0.187   6.986   3.577 -0.2242  1.0134  0.8740
   31MOL0     C 4201  -0.309   6.884   3.576 -0.3361 -1.2854 -0.5278
   31MOL0     C 4202  -0.438   6.949   3.637  0.3136  0.6126 -0.4554
   31MOL0     C 4203  -0.542   6.998   3.540 -0.4019 -1.0397  0.7978
   31MOL0     C 4204  -0.492   7.104   3.451  0.3849  0.9936 -0.2688
   31MOL0     C 4205  -0.434   7.171   3.369  0.8066 -0.7645  0.6136
   31MOL0     C 4206   0.081   7.107   3.611 -0.3087  1.5211 -0.1538
   31MOL0     C 4207   0.205   7.153   3.642 -0.9644  0.0335  0.3383
   31MOL0     C 4208   0.220   7.310   3.633 -0.1529 -0.3205  1.0418
   31MOL0     H 4209   0.675   7.259   3.799  0.9391 -0.4225 -1.2129
   31MOL0     H 4210   0.897   7.273   3.918  0.1843 -0.1526  3.1844
   31MOL0     H 4211   1.137   7.216   4.029 -1.1965 -0.7605  1.4012
   31MOL0     H 4212   1.118   7.159   3.858 -1.1203  0.4173 -0.3586
   31MOL0     H 4213   1.286   7.036   4.075 -1.4916 -1.0289 -0.7843
   31MOL0     H 4214   1.264   6.976   3.911 -0.3143 -0.2530 -0.1358
   31MOL0     H 4215   1.372   7.253   3.913 -2.3044 -0.5427 -2.8858
   31MOL0     H 4216   1.474   7.148   4.015  2.4667 -3.8274  0.4096
   31MOL0     H 4217   1.406   7.065   3.732  0.3094  0.1879 -1.0346
   31MOL0     H 4218   1.515   7.201   3.755  4.5974 -1.9920 -1.7410
   31MOL0     H 4219   1.545   6.912   3.835 -0.5736  0.0961  0.0022
   31MOL0     H 4220   1.661   7.042   3.887  0.4712 -1.1145 -0.8281
   31MOL0     H 4221   1.610   6.964   3.600  0.2821 -2.2275  0.9516
   31MOL0     H 4222   1.689   7.114   3.653 -0.3628  0.0882 -2.1009
   31MOL0     H 4223   1.829   6.941   3.591 -1.6035 -2.4433 -0.6263
   31MOL0     H 4224   1.775   6.819   3.707 -1.0057 -0.0179  1.2725
   31MOL0     H 4225   1.907   7.085   3.755 -0.7097  0.2703  0.5267
   31MOL0     H 4226   1.870   6.972   3.885 -1.6215  3.9499 -0.0939
   31MOL0     H 4227   2.051   6.754   3.892 -1.9298  2.4569  0.4795
   31MOL0     H 4228   2.249   6.592   3.823  3.6834 -2.7617 -1.2816
   31MOL0     H 4229   2.374   6.681   3.742 -0.2888 -0.6418  1.1561
   31MOL0     H 4230   2.154   6.566   3.577  0.4425  0.6743 -1.1144
   31MOL0     H 4231   2.310   6.605   3.523  2.1070 -1.8347  0.6989
   31MOL0     H 4232   2.248   6.351   3.669 -0.7838  1.3401  0.7474
   31MOL0     H 4233   2.326   6.377   3.520  2.2759 -1.5548 -0.1352
   31MOL0     H 4234   2.524   6.437   3.596  0.3465 -1.2647 -0.0351
   31MOL0     H 4235   2.481   6.474   3.770  0.4758 -2.2775  1.4481
   31MOL0     H 4236   2.699   6.442   3.761  2.9180 -0.3522 -3.8290
   31MOL0     H 4237   2.918   6.448   3.742 -1.3085 -1.6507 -0.7266
   31MOL0     H 4238   3.024   6.353   3.850 -0.2926 -0.0549 -0.1166
   31MOL0     H 4239   2.914   6.476   3.920  3.7597  0.3584  0.6433
   31MOL0     H 4240   3.134   5.805   3.887  0.5224  2.3418 -0.3023
   31MOL0     H 4241   3.317   5.714   4.023  0.3887  1.1683  0.6674
   31MOL0     H 4242   3.447   5.606   4.166 -0.7862  1.9763 -1.6308
   31MOL0     H 4243   3.512   5.753   4.252 -0.4239 -0.0895  0.2687
   31MOL0     H 4244   3.594   5.609   4.413  0.7059  0.4053 -1.9424
   31MOL0     H 4245   3.421   5.570   4.445  2.5847 -1.7362  3.1694
   31MOL0     H 4246   3.595   5.429   4.233  0.0924  2.2880 -0.5566
   31MOL0     H 4247   3.431   5.404   4.262  0.4403 -0.9818  0.5949
   31MOL0     H 4248   3.541   5.225   4.386  0.9489 -0.1239  0.5747
   31MOL0     H 4249   3.496   5.346   4.506 -0.6551  1.6961 -0.2594
   31MOL0     H 4250   3.727   5.462   4.459 -0.6808 -0.4234 -3.4352
   31MOL0     H 4251   3.726   5.310   4.560  1.1737 -3.8214 -0.6821
   31MOL0     H 4252   3.804   5.346   4.267  3.1830  1.2824  0.3274
   31MOL0     H 4253   3.790   5.184   4.349 -0.8730 -0.1562  2.6618
   31MOL0     H 4254   3.970   5.271   4.511 -2.1067  1.9537  1.1390
   31MOL0     H 4255   3.969   5.413   4.397 -4.1523  0.4276 -0.1459
   31MOL0     H 4256   4.003   5.211   4.216 -0.9745 -1.0883  0.4710
   31MOL0     H 4257   4.041   5.120   4.360 -0.0885  0.7425  0.4064
   31MOL0     H 4258   3.143   5.884   4.386 -1.5922 -0.9806 -0.2616
   31MOL0     H 4259   2.996   6.013   4.250 -0.2982 -1.6301  1.7880
   31MOL0     H 4260   2.728   5.980   3.918 -1.2892 -0.5056  0.1357
   31MOL0     H 4261   2.529   6.051   3.818  1.1410  0.1105 -2.3314
   31MOL0     H 4262   0.893   6.856   3.973  1.5063  1.1313  0.9496
   31MOL0     H 4263   0.675   6.826   3.847  0.5400  0.0918  0.4721
   31MOL0     H 4264   0.328   6.855   3.739  1.6546  1.0964 -0.1138
   31MOL0     H 4265   0.139   6.769   3.623  2.4085 -0.0627  0.6433
   31MOL0     H 4266  -0.188   7.034   3.675 -1.6494  1.0596  0.8603
   31MOL0     H 4267  -0.209   7.057   3.497 -3.5089  1.0251  1.6084
   31MOL0     H 4268  -0.290   6.795   3.636 -0.2072 -1.1929 -0.4303
   31MOL0     H 4269  -0.330   6.860   3.472  1.0368  1.2844 -1.4828
   31MOL0     H 4270  -0.485   6.865   3.690  2.5736 -1.4964 -1.6038
   31MOL0     H 4271  -0.417   7.039   3.696  1.2372  2.1465 -3.0051
   31MOL0     H 4272  -0.614   7.048   3.605  2.0147 -0.2696  3.0468
   31MOL0     H 4273  -0.599   6.916   3.495 -1.4865  0.0858  0.0389
   31MOL0     H 4274  -0.370   7.233   3.310  0.3330  0.4745  1.3760
   31MOL0     H 4275   0.008   7.172   3.563 -1.7511 -1.6413 -2.6260
   31MOL0     H 4276   0.182   7.350   3.727  0.7710  0.0464  1.2697
   31MOL0     H 4277   0.325   7.337   3.620  0.1547 -1.3649  1.2266
   31MOL0     H 4278   0.170   7.347   3.543 -0.8638 -0.6124  1.3039
   32MOL0     O 4279   1.228  10.397   1.991 -0.0680 -0.3815 -0.4047
   32MOL0     C 4280   1.246  10.392   1.866 -0.2886  0.1142 -0.2484
   32MOL0     O 4281   1.371  10.402   1.808 -0.5233  0.0734 -0.4066
   32MOL0     C 4282   1.481  10.371   1.876 -0.6625 -0.1817  0.8395
   32MOL0     C 4283   1.594  10.453   1.851 -0.2143  0.7828  0.0844
   32MOL0     C 4284   1.719  10.402   1.898  0.7412 -0.0703  0.7513
   32MOL0     C 4285   1.727  10.294   1.988  0.7473 -0.6526 -0.2537
   32MOL0     O 4286   1.835  10.255   2.064  0.6825 -0.2933  0.0283
   32MOL0     C 4287   1.963  10.291   2.010  0.3443  0.2806  0.0518
   32MOL0     C 4288   2.077  10.234   2.105 -0.4287  0.4733  0.1013
   32MOL0     C 4289   2.206  10.266   2.029  0.5249 -0.3728  0.7506
   32MOL0     C 4290   2.335  10.234   2.104 -0.2816  0.0487  0.4051
   32MOL0     C 4291   2.450  10.220   2.014  0.2729  0.5937 -0.5136
   32MOL0     C 4292   2.580  10.190   2.089 -1.3955  0.7831  0.2984
   32MOL0     C 4293   2.694  10.154   1.994  0.5526 -0.2888 -0.4625
   32MOL0     C 4294   2.700  10.014   1.939  0.0972  0.4585  0.2776
   32MOL0     N 4295   2.823   9.995   1.860  0.2669  0.3230 -0.2844
   32MOL0     C 4296   2.951   9.999   1.906 -0.5959 -0.5817 -0.1662
   32MOL0     C 4297   3.026   9.946   1.802  0.1609 -0.2126  0.2227
   32MOL0     C 4298   3.175   9.916   1.788 -0.4395  0.2138  0.4276
   32MOL0     C 4299   3.204   9.766   1.763  0.6530  0.2787  1.0421
   32MOL0     C 4300   3.324   9.742   1.679 -0.2319  0.4801 -0.5372
   32MOL0     C 4301   3.453   9.819   1.719  0.0470 -0.5857 -0.4480
   32MOL0     O 4302   3.554   9.780   1.622  0.4250  0.3152  0.5073
   32MOL0     C 4303   3.683   9.829   1.622 -1.0503 -0.6713  0.2825
   32MOL0     C 4304   3.722   9.927   1.719  0.2412 -0.0536 -0.1931
   32MOL0     C 4305   3.850   9.981   1.722  0.7873  0.0644 -0.3683
   32MOL0     C 4306   3.887  10.094   1.813  0.2449  0.4448  0.0333
   32MOL0     C 4307   3.949   9.926   1.625 -0.2512 -0.6038  0.0055
   32MOL0     C 4308   4.090   9.971   1.629 -0.6347 -0.4083  0.0962
   32MOL0     O 4309   4.155   9.958   1.512  0.1102 -0.0380  0.3687
   32MOL0     C 4310   4.291   9.984   1.500 -0.0758  0.5326  0.2686
   32MOL0     C 4311   4.383  10.019   1.598 -0.0737 -0.4636 -0.8557
   32MOL0     C 4312   4.516  10.053   1.574 -0.3785  0.4296  0.0830
   32MOL0     C 4313   4.555  10.059   1.432 -0.1314 -0.3289 -0.1240
   32MOL0     O 4314   4.678  10.096   1.375  0.3077 -0.9681  0.0934
   32MOL0     C 4315   4.756  10.202   1.439  0.1185 -0.0313  0.2346
   32MOL0     C 4316   4.692  10.342   1.431 -0.7688  0.3000  0.0366
   32MOL0     C 4317   4.573  10.361   1.527  0.0271 -0.5710  0.0078
   32MOL0     C 4318   4.566  10.513   1.562  1.2517 -0.9333  0.9123
   32MOL0     C 4319   4.417  10.555   1.554  0.1701  0.6863 -0.5498
   32MOL0     C 4320   4.321  10.493   1.658 -0.0929  0.5569  0.3678
   32MOL0     C 4321   4.187  10.557   1.619  0.1014  0.0792  0.3029
   32MOL0     C 4322   4.073  10.500   1.696 -0.1352 -0.0451 -0.6948
   32MOL0    Cl 4323   4.076  10.565   1.855  0.1196 -0.9654  0.3239
   32MOL0     C 4324   4.460  10.025   1.335  0.4634  0.6215  0.0442
   32MOL0     C 4325   4.334   9.981   1.362  0.0384 -0.1152 -0.4187
   32MOL0     O 4326   4.133  10.036   1.728 -0.8168 -0.3350  1.0103
   32MOL0     C 4327   3.914   9.817   1.541  0.4390 -0.3507  0.6556
   32MOL0     C 4328   3.781   9.778   1.536 -0.7032 -0.6582 -0.3995
   32MOL0     N 4329   2.934   9.894   1.709 -0.0855  0.6169 -0.1681
   32MOL0     N 4330   2.813   9.919   1.745  0.7792  0.0465  0.7110
   32MOL0     C 4331   1.617  10.222   2.014  0.9168  0.5975  0.1666
   32MOL0     C 4332   1.496  10.257   1.956 -0.3995  0.5398  0.3093
   32MOL0     C 4333   1.125  10.380   1.776  0.7034 -0.3677  0.3044
   32MOL0     C 4334   1.139  10.316   1.649  1.8018  0.1893 -0.5183
   32MOL0     C 4335   1.034  10.310   1.557  0.2386  1.4361 -0.4280
   32MOL0     C 4336   0.912  10.369   1.588  0.9601 -0.1958  0.2445
   32MOL0     O 4337   0.818  10.388   1.488 -0.1447  0.6456 -0.0250
   32MOL0     C 4338   0.745  10.275   1.437  0.0194  0.4433  0.4514
   32MOL0     C 4339   0.596  10.299   1.449 -0.8433  0.6041  0.1591
   32MOL0     C 4340   0.543  10.407   1.359  0.4489  0.4374 -0.5286
   32MOL0     C 4341   0.398  10.446   1.379 -0.8248  0.9877 -0.0721
   32MOL0     C 4342   0.356  10.551   1.291 -0.6243  0.2055 -0.6241
   32MOL0     C 4343   0.344  10.633   1.207 -0.5271 -0.2550  0.2852
   32MOL0     C 4344   0.898  10.422   1.711 -0.4592 -0.8904  0.2395
   32MOL0     C 4345   0.991  10.422   1.809  0.1907 -0.5567 -1.3320
   32MOL0     C 4346   0.944  10.479   1.942 -0.2938 -0.0987  1.0448
   32MOL0     H 4347   1.587  10.544   1.793 -0.5358  0.7670  0.0952
   32MOL0     H 4348   1.810  10.459   1.880  1.6076 -1.3220  1.0268
   32MOL0     H 4349   1.967  10.400   2.001 -2.6238  0.3052 -3.2066
   32MOL0     H 4350   1.971  10.253   1.908 -1.3455 -0.4771  0.1781
   32MOL0     H 4351   2.073  10.289   2.200  0.1471  0.1243  0.3355
   32MOL0     H 4352   2.075  10.125   2.111 -3.1640  0.4868  0.9414
   32MOL0     H 4353   2.199  10.219   1.931  1.0629 -1.0675  1.0267
   32MOL0     H 4354   2.201  10.372   2.004  0.5425 -0.6926 -0.6428
   32MOL0     H 4355   2.360  10.312   2.176 -0.5197 -0.1048  0.6568
   32MOL0     H 4356   2.313  10.139   2.153 -2.1101 -0.8579 -1.9734
   32MOL0     H 4357   2.463  10.304   1.944  2.1452  1.3887  0.7011
   32MOL0     H 4358   2.435  10.136   1.946 -2.1359  1.3548 -1.0103
   32MOL0     H 4359   2.611  10.275   2.151  1.8540 -0.0622  0.0245
   32MOL0     H 4360   2.574  10.106   2.158 -4.8492  3.0305  3.1457
   32MOL0     H 4361   2.779  10.173   2.061 -1.1571 -0.5327  1.8868
   32MOL0     H 4362   2.692  10.222   1.909  1.4159 -1.9114 -1.8325
   32MOL0     H 4363   2.707   9.939   2.018 -0.0163 -0.5834 -0.6741
   32MOL0     H 4364   2.612   9.975   1.887 -1.7538  2.3978  1.8068
   32MOL0     H 4365   2.994  10.046   1.993  0.1775  1.3386 -1.5247
   32MOL0     H 4366   3.224   9.924   1.885  1.6999  0.4338 -0.6131
   32MOL0     H 4367   3.224   9.979   1.713  0.1213  0.4335  0.9650
   32MOL0     H 4368   3.203   9.713   1.859 -0.8028 -0.3718  0.6818
   32MOL0     H 4369   3.125   9.718   1.705  0.3761  0.4256  1.2929
   32MOL0     H 4370   3.352   9.638   1.663  2.8093  0.9159  1.2396
   32MOL0     H 4371   3.310   9.776   1.576  3.2350 -1.8778 -1.9884
   32MOL0     H 4372   3.431   9.926   1.729  3.5022  0.0796  1.7044
   32MOL0     H 4373   3.490   9.794   1.819 -2.4162  0.4410  0.8237
   32MOL0     H 4374   3.658   9.952   1.803  1.1548  0.1896  0.4494
   32MOL0     H 4375   3.795  10.140   1.851 -2.5429 -2.1665 -2.8800
   32MOL0     H 4376   3.950  10.169   1.765  0.0679  1.1607  0.8889
   32MOL0     H 4377   3.945  10.063   1.900  2.4008  0.2066 -1.4237
   32MOL0     H 4378   4.351  10.034   1.701  0.6144  2.8402 -1.0258
   32MOL0     H 4379   4.589  10.062   1.653 -3.4923 -1.6334  3.5054
   32MOL0     H 4380   4.778  10.175   1.543 -1.2402 -2.8677 -0.0978
   32MOL0     H 4381   4.856  10.212   1.397 -0.3825 -0.8522 -1.2332
   32MOL0     H 4382   4.764  10.423   1.447 -1.2178  0.5959  0.5630
   32MOL0     H 4383   4.655  10.353   1.329  0.0295 -2.3705 -0.6222
   32MOL0     H 4384   4.578  10.307   1.622 -1.2943 -1.4886 -0.4216
   32MOL0     H 4385   4.494  10.316   1.467 -0.0938 -0.6056  0.1915
   32MOL0     H 4386   4.617  10.591   1.505 -3.0774  2.7391  1.5221
   32MOL0     H 4387   4.597  10.532   1.665  0.1958 -3.1362  1.7008
   32MOL0     H 4388   4.413  10.663   1.567 -0.8006  0.5732  0.2303
   32MOL0     H 4389   4.387  10.525   1.453  1.0209 -0.1951 -0.5580
   32MOL0     H 4390   4.358  10.517   1.758  2.3787 -0.4400 -0.2318
   32MOL0     H 4391   4.319  10.385   1.641  0.5059  0.7412 -1.0166
   32MOL0     H 4392   4.167  10.530   1.515  2.8114  0.7452 -0.4588
   32MOL0     H 4393   4.196  10.666   1.625  1.6098  0.0245 -0.4098
   32MOL0     H 4394   4.084  10.392   1.701 -0.1842  0.0032  0.9952
   32MOL0     H 4395   3.980  10.539   1.653  0.8354  2.7820 -0.4392
   32MOL0     H 4396   4.486  10.019   1.230  2.6359 -2.1155  0.6187
   32MOL0     H 4397   4.272   9.943   1.282  1.6250 -2.2262 -0.7210
   32MOL0     H 4398   3.981   9.788   1.460 -0.5817  0.2227 -0.4231
   32MOL0     H 4399   3.748   9.704   1.464 -1.6774 -0.4020 -0.2278
   32MOL0     H 4400   1.613  10.135   2.079 -0.6908  0.9664  0.6118
   32MOL0     H 4401   1.406  10.200   1.975 -1.2152  1.9770  0.9275
   32MOL0     H 4402   1.236  10.271   1.629  1.9877  0.2544  0.2135
   32MOL0     H 4403   1.047  10.265   1.459  0.1527  0.6054 -0.0738
   32MOL0     H 4404   0.756  10.254   1.330  2.5846 -0.2423  0.7933
   32MOL0     H 4405   0.762  10.186   1.498  0.8652  0.7438  0.6645
   32MOL0     H 4406   0.571  10.330   1.551 -4.0143  0.7712 -0.5767
   32MOL0     H 4407   0.543  10.206   1.427  1.1815 -0.3460 -1.0168
   32MOL0     H 4408   0.603  10.498   1.362 -1.0072  1.4852 -1.4824
   32MOL0     H 4409   0.548  10.369   1.256  0.5657 -1.8351  0.2780
   32MOL0     H 4410   0.368  10.477   1.479 -1.8418  0.6756 -0.2682
   32MOL0     H 4411   0.333  10.361   1.359  2.6425 -1.2954 -2.8038
   32MOL0     H 4412   0.361  10.686   1.115 -1.5463 -0.5142 -0.0677
   32MOL0     H 4413   0.796  10.457   1.725 -0.7392 -0.4953 -2.3547
   32MOL0     H 4414   0.972  10.584   1.941 -0.5747 -0.0265  0.5677
   32MOL0     H 4415   0.836  10.477   1.958 -0.3870 -2.6557  0.6369
   32MOL0     H 4416   0.985  10.411   2.018  2.4674 -1.4431 -1.4055
   33MOL0     O 4417   6.481  10.761   0.660  0.6659  0.1639 -0.0983
   33MOL0     C 4418   6.499  10.875   0.711  0.0496 -0.6713  0.7199
   33MOL0     O 4419   6.621  10.925   0.741  0.1059 -0.5209  0.2426
   33MOL0     C 4420   6.728  10.844   0.710 -0.6923 -0.0935  0.2412
   33MOL0     C 4421   6.748  10.722   0.765 -0.1198  0.2663 -0.7099
   33MOL0     C 4422   6.872  10.654   0.752  0.8126 -0.1626 -0.0682
   33MOL0     C 4423   6.973  10.704   0.668 -0.5671  0.8612 -0.4288
   33MOL0     O 4424   7.083  10.624   0.653 -0.0298  0.0133  0.2201
   33MOL0     C 4425   7.207  10.697   0.676 -0.4652  0.4207 -0.2467
   33MOL0     C 4426   7.313  10.599   0.738  0.5151  0.3010  0.3011
   33MOL0     C 4427   7.456  10.653   0.734  0.8919 -0.0293 -0.3373
   33MOL0     C 4428   7.551  10.588   0.833  0.2174  0.8443 -0.3849
   33MOL0     C 4429   7.693  10.658   0.852  0.6110  0.3314 -0.4625
   33MOL0     C 4430   7.782  10.664   0.729 -0.0227  0.7774  0.5473
   33MOL0     C 4431   7.914  10.727   0.767  0.2656  0.2534  0.1563
   33MOL0     C 4432   7.902  10.873   0.768  0.1923 -0.6148 -0.1242
   33MOL0     N 4433   8.023  10.928   0.827  0.9358  0.1028 -0.2019
   33MOL0     C 4434   8.051  10.936   0.966 -0.2095 -0.3366 -0.1795
   33MOL0     C 4435   8.165  11.001   0.981 -1.1806 -0.7735  0.3914
   33MOL0     C 4436   8.244  11.027   1.113  0.0802  0.1583  0.2287
   33MOL0     C 4437   8.178  10.962   1.233  0.0789 -0.4623 -0.4537
   33MOL0     C 4438   8.249  11.023   1.361 -0.3407 -0.1984  0.0936
   33MOL0     C 4439   8.197  10.955   1.491 -0.1182 -0.0896 -0.0159
   33MOL0     O 4440   8.051  10.944   1.494 -0.3578 -0.2946  0.1422
   33MOL0     C 4441   7.977  10.921   1.605 -0.2591 -0.4001  0.0718
   33MOL0     C 4442   8.027  10.907   1.735  0.7521 -0.6633 -0.5008
   33MOL0     C 4443   7.948  10.913   1.847  0.2987  0.0739 -0.7244
   33MOL0     C 4444   8.018  10.926   1.984 -0.4398 -0.6687 -0.2460
   33MOL0     C 4445   7.808  10.892   1.826  0.0131 -0.2154  0.3260
   33MOL0     C 4446   7.713  10.867   1.941  0.2030 -0.4938  0.2079
   33MOL0     O 4447   7.581  10.889   1.919  0.2102 -0.4971 -0.5377
   33MOL0     C 4448   7.498  10.844   2.021  0.3546 -0.1274 -0.9077
   33MOL0     C 4449   7.401  10.931   2.059  0.1911 -0.5287  0.3331
   33MOL0     C 4450   7.309  10.919   2.163  0.7351 -1.1284 -0.1521
   33MOL0     C 4451   7.306  10.794   2.221 -0.2398  0.3007  0.0569
   33MOL0     O 4452   7.215  10.750   2.312 -0.3561 -0.2330 -0.1083
   33MOL0     C 4453   7.093  10.828   2.332 -0.0146  0.6059  0.5444
   33MOL0     C 4454   6.990  10.782   2.440  0.1905  0.1128 -0.2010
   33MOL0     C 4455   6.942  10.643   2.424  0.1991  0.2759  1.0498
   33MOL0     C 4456   6.825  10.612   2.521 -0.6361 -0.0524  0.0668
   33MOL0     C 4457   6.777  10.472   2.509  0.5375  0.1591  0.2327
   33MOL0     C 4458   6.677  10.431   2.617 -0.9183 -1.3196  0.0748
   33MOL0     C 4459   6.651  10.283   2.608  0.8974  0.1261  0.0166
   33MOL0     C 4460   6.530  10.226   2.686  0.1503  0.6319 -0.3418
   33MOL0    Cl 4461   6.378  10.304   2.633 -0.2678  0.3051  0.3128
   33MOL0     C 4462   7.402  10.691   2.182 -0.3251  0.0456  0.4852
   33MOL0     C 4463   7.498  10.716   2.090 -0.3494  0.2381  0.5501
   33MOL0     O 4464   7.767  10.842   2.043  0.3573  0.2912 -0.0437
   33MOL0     C 4465   7.749  10.887   1.697 -1.0781  0.3207  0.0941
   33MOL0     C 4466   7.839  10.899   1.587  0.6141  0.2147 -0.0983
   33MOL0     N 4467   8.198  11.048   0.853 -0.1674 -0.2871  0.5304
   33MOL0     N 4468   8.123  10.984   0.762 -0.4657 -0.6902  0.5142
   33MOL0     C 4469   6.956  10.828   0.601 -0.2803 -0.0799 -0.4790
   33MOL0     C 4470   6.835  10.892   0.625 -0.6288 -0.1294  0.4208
   33MOL0     C 4471   6.383  10.960   0.741 -0.0658 -0.1431  0.2001
   33MOL0     C 4472   6.405  11.094   0.757  0.8947 -0.2130  0.1559
   33MOL0     C 4473   6.305  11.184   0.801  0.9850 -0.0051  0.6263
   33MOL0     C 4474   6.180  11.136   0.838 -0.1690 -0.0129 -0.3165
   33MOL0     O 4475   6.092  11.219   0.901 -0.3111 -0.2234  0.4434
   33MOL0     C 4476   5.954  11.191   0.897 -0.1443  0.3772 -0.5129
   33MOL0     C 4477   5.876  11.312   0.950  0.7339  0.6033 -0.4701
   33MOL0     C 4478   5.732  11.249   0.979  0.6360 -0.1382  0.4529
   33MOL0     C 4479   5.618  11.356   1.011 -0.1059  0.1624  0.0181
   33MOL0     C 4480   5.591  11.441   0.897  0.7626  0.4998  1.0186
   33MOL0     C 4481   5.567  11.497   0.790 -0.0111  0.2999 -1.0322
   33MOL0     C 4482   6.156  11.000   0.809 -0.0719 -0.0220 -1.1886
   33MOL0     C 4483   6.253  10.907   0.774  0.0814 -0.2980  0.4133
   33MOL0     C 4484   6.219  10.760   0.760 -0.3269 -0.5478  0.1619
   33MOL0     H 4485   6.665  10.673   0.814  0.8718  0.1557  0.9105
   33MOL0     H 4486   6.892  10.555   0.791  1.0751 -1.4471 -3.1633
   33MOL0     H 4487   7.191  10.777   0.748 -0.3898 -1.5980  2.1620
   33MOL0     H 4488   7.250  10.735   0.583 -0.8797 -1.1363 -1.1160
   33MOL0     H 4489   7.284  10.600   0.843  0.7102  1.1281  0.3513
   33MOL0     H 4490   7.313  10.499   0.694  0.6770  0.3041  0.2924
   33MOL0     H 4491   7.499  10.646   0.634  1.7561  0.3729 -0.0066
   33MOL0     H 4492   7.463  10.759   0.760 -1.5135  0.5715 -1.9020
   33MOL0     H 4493   7.510  10.587   0.934 -0.7641 -2.8258 -0.6730
   33MOL0     H 4494   7.576  10.488   0.798  1.6260  1.3013 -0.7508
   33MOL0     H 4495   7.757  10.627   0.935 -0.2785  2.1981  1.0006
   33MOL0     H 4496   7.682  10.764   0.879  3.0180  0.9408 -1.5451
   33MOL0     H 4497   7.797  10.560   0.697  2.9567  1.6551 -1.3051
   33MOL0     H 4498   7.727  10.723   0.655 -0.3647 -0.5537 -0.3124
   33MOL0     H 4499   7.990  10.693   0.695 -0.2528 -1.8609  0.5464
   33MOL0     H 4500   7.942  10.683   0.863  2.7389 -0.9877 -1.0233
   33MOL0     H 4501   7.881  10.897   0.664 -1.8860  1.4832  0.6900
   33MOL0     H 4502   7.823  10.910   0.835  0.7531 -2.8548  1.9348
   33MOL0     H 4503   7.988  10.901   1.047 -0.7431  0.9410 -0.0188
   33MOL0     H 4504   8.258  11.135   1.121  0.7406  0.0406  0.8836
   33MOL0     H 4505   8.344  10.983   1.115 -0.5773 -1.4341  2.2335
   33MOL0     H 4506   8.074  10.996   1.241  0.6707  1.6784 -1.2939
   33MOL0     H 4507   8.179  10.853   1.232 -1.1417 -0.5449  1.5593
   33MOL0     H 4508   8.357  11.027   1.347 -0.1475  0.9922  1.6886
   33MOL0     H 4509   8.228  11.130   1.368 -1.4840 -0.4568  0.7397
   33MOL0     H 4510   8.255  10.862   1.492  1.4030  0.7911 -1.2131
   33MOL0     H 4511   8.227  11.009   1.581  0.6566 -1.2662  0.4514
   33MOL0     H 4512   8.132  10.922   1.757  0.2155  0.1654  1.8684
   33MOL0     H 4513   8.007  10.829   2.033  1.5529 -1.0634 -0.4962
   33MOL0     H 4514   7.979  11.008   2.045  1.3186 -2.2187  3.2195
   33MOL0     H 4515   8.126  10.934   1.969 -0.3741  0.2105  0.6587
   33MOL0     H 4516   7.403  11.017   1.993  3.1242 -0.4709  0.3732
   33MOL0     H 4517   7.226  10.987   2.181  0.0970 -1.2796 -2.2188
   33MOL0     H 4518   7.119  10.925   2.375 -1.7768  1.9399 -1.1900
   33MOL0     H 4519   7.045  10.856   2.238 -1.2685 -2.4325  0.1869
   33MOL0     H 4520   7.026  10.793   2.543 -2.2359  1.0185  0.6145
   33MOL0     H 4521   6.896  10.836   2.434  0.2373  0.1674 -0.4333
   33MOL0     H 4522   7.025  10.573   2.439 -0.7610 -1.1428  0.0125
   33MOL0     H 4523   6.913  10.628   2.320  3.1135  0.6673  0.0751
   33MOL0     H 4524   6.735  10.673   2.505  0.0281  0.9646  0.1295
   33MOL0     H 4525   6.866  10.630   2.621  2.0928 -5.9366  0.4627
   33MOL0     H 4526   6.728  10.470   2.411  2.5737  0.8249 -0.8524
   33MOL0     H 4527   6.858  10.400   2.497  2.8721  1.8561  4.1208
   33MOL0     H 4528   6.589  10.493   2.597  1.5188  3.1165  1.6313
   33MOL0     H 4529   6.716  10.455   2.716 -0.7399 -2.4096  0.2865
   33MOL0     H 4530   6.739  10.225   2.637  0.4768 -0.8359 -0.5796
   33MOL0     H 4531   6.638  10.250   2.505 -0.1714  0.1790  0.1213
   33MOL0     H 4532   6.540  10.238   2.794 -2.0290 -0.6735  0.0677
   33MOL0     H 4533   6.538  10.118   2.670  0.6384  0.6792 -0.4359
   33MOL0     H 4534   7.406  10.599   2.240  1.0011  0.7735  1.6157
   33MOL0     H 4535   7.573  10.640   2.070  1.9453  2.2047  1.2005
   33MOL0     H 4536   7.645  10.865   1.676 -0.0770 -1.9869 -3.3037
   33MOL0     H 4537   7.796  10.889   1.488 -4.6897  3.1357  1.5109
   33MOL0     H 4538   7.024  10.869   0.527  0.2620  5.0291  2.3743
   33MOL0     H 4539   6.820  10.983   0.567  1.4683 -1.9357 -3.3394
   33MOL0     H 4540   6.503  11.129   0.724  1.9466  1.2865  4.2694
   33MOL0     H 4541   6.331  11.290   0.808 -2.0325  1.1351 -2.4582
   33MOL0     H 4542   5.924  11.165   0.795 -0.7104 -1.9300  0.1673
   33MOL0     H 4543   5.939  11.104   0.961 -0.2694  1.0019  0.3112
   33MOL0     H 4544   5.864  11.389   0.873 -1.7519  0.6692 -0.1086
   33MOL0     H 4545   5.911  11.351   1.046 -0.5363  0.1852  0.1766
   33MOL0     H 4546   5.698  11.180   0.902 -0.4224  0.9325 -0.0759
   33MOL0     H 4547   5.748  11.194   1.072 -0.6958 -0.5118  0.4707
   33MOL0     H 4548   5.653  11.421   1.092  1.3868 -0.5231 -0.0412
   33MOL0     H 4549   5.526  11.310   1.051  2.2482 -2.0276  3.4837
   33MOL0     H 4550   5.534  11.553   0.705 -2.4629  2.2710  1.0418
   33MOL0     H 4551   6.059  10.955   0.826  0.3065 -0.4178  0.0110
   33MOL0     H 4552   6.116  10.735   0.784 -0.1684 -0.0250  1.4753
   33MOL0     H 4553   6.230  10.722   0.658 -0.5898  0.6141 -0.3112
   33MOL0     H 4554   6.273  10.698   0.832  0.8514 -0.8178 -0.9024
   34MOL0     O 4555  11.181   1.828   8.600  0.3485  0.4244 -0.2119
   34MOL0     C 4556  11.200   1.781   8.716  0.6808 -0.1620 -0.5811
   34MOL0     O 4557  11.321   1.746   8.774 -0.5797 -0.1256  0.1439
   34MOL0     C 4558  11.445   1.744   8.705  0.3692  0.6485 -0.2885
   34MOL0     C 4559  11.552   1.725   8.792 -0.4042 -0.6837 -0.6060
   34MOL0     C 4560  11.679   1.698   8.738  0.2951 -0.3208 -0.5539
   34MOL0     C 4561  11.704   1.708   8.602  0.8159  1.0636 -0.4785
   34MOL0     O 4562  11.825   1.697   8.537 -0.0314  0.1465  0.0276
   34MOL0     C 4563  11.922   1.611   8.601 -0.4506  0.7293 -0.2818
   34MOL0     C 4564  12.050   1.593   8.523  0.0242  0.4618 -0.1950
   34MOL0     C 4565  12.118   1.731   8.500 -0.6090 -0.0470 -0.2449
   34MOL0     C 4566  12.274   1.717   8.485 -0.3375 -0.8496 -0.0007
   34MOL0     C 4567  12.343   1.856   8.478  0.3778 -0.7429 -0.0094
   34MOL0     C 4568  12.492   1.825   8.461  0.4071  1.0171 -0.5992
   34MOL0     C 4569  12.582   1.941   8.452 -0.0282 -0.2726 -0.4381
   34MOL0     C 4570  12.595   2.010   8.591  0.7105 -0.6071 -0.1049
   34MOL0     N 4571  12.674   2.138   8.576 -0.2164  0.5160  0.3910
   34MOL0     C 4572  12.624   2.264   8.558 -0.0442 -0.0109 -0.7000
   34MOL0     C 4573  12.742   2.335   8.564 -0.3142 -0.2759  0.2514
   34MOL0     C 4574  12.761   2.486   8.564 -0.3753 -0.1019 -0.2327
   34MOL0     C 4575  12.891   2.541   8.489 -0.7479 -0.0868 -0.1592
   34MOL0     C 4576  12.880   2.536   8.334  0.6153 -0.3402  0.0136
   34MOL0     C 4577  13.009   2.544   8.261 -0.2348 -0.6261 -0.3594
   34MOL0     O 4578  13.073   2.672   8.280  0.5386  0.6983  0.4123
   34MOL0     C 4579  13.207   2.680   8.247  0.4159 -0.2304 -1.0026
   34MOL0     C 4580  13.270   2.795   8.298 -0.4533  0.5791  0.6517
   34MOL0     C 4581  13.409   2.817   8.273  0.2046 -0.2154 -0.1441
   34MOL0     C 4582  13.465   2.955   8.302  0.1660 -0.1485  0.0317
   34MOL0     C 4583  13.487   2.708   8.226 -0.0231  0.6629 -0.7103
   34MOL0     C 4584  13.640   2.709   8.213 -0.1532  0.3736  0.2136
   34MOL0     O 4585  13.693   2.594   8.154  0.2158 -0.3049 -0.5222
   34MOL0     C 4586  13.832   2.599   8.151  0.2059  0.5580  0.1460
   34MOL0     C 4587  13.922   2.534   8.234 -0.3296  0.0572  0.3357
   34MOL0     C 4588  14.067   2.538   8.223  0.4647  0.7894  0.0958
   34MOL0     C 4589  14.122   2.630   8.123 -0.8758 -0.0736  0.4519
   34MOL0     O 4590  14.260   2.647   8.099 -0.5275 -0.2738 -0.2293
   34MOL0     C 4591  14.352   2.591   8.205 -0.0097  0.3474  0.5284
   34MOL0     C 4592  14.499   2.604   8.161 -0.4592 -0.6569  0.3252
   34MOL0     C 4593  14.528   2.527   8.034  0.7514  0.1600 -0.7844
   34MOL0     C 4594  14.677   2.507   7.991  0.3877 -0.2323  0.0258
   34MOL0     C 4595  14.693   2.413   7.872  0.1280  0.8017  0.4247
   34MOL0     C 4596  14.830   2.361   7.870 -0.1749  0.3842 -0.3025
   34MOL0     C 4597  14.870   2.301   7.734  0.2776  0.6568  0.2470
   34MOL0     C 4598  14.919   2.394   7.620 -0.7240  0.3051 -0.4358
   34MOL0    Cl 4599  15.075   2.480   7.665  0.2468  0.0898  0.3189
   34MOL0     C 4600  14.036   2.701   8.043  0.4604  0.3486  0.7765
   34MOL0     C 4601  13.892   2.686   8.054 -0.2036 -0.3482  0.1219
   34MOL0     O 4602  13.702   2.808   8.253  0.1100  0.2018  0.0699
   34MOL0     C 4603  13.424   2.590   8.176 -0.2813  0.1797  0.4907
   34MOL0     C 4604  13.289   2.578   8.192  0.1789 -0.5776  0.2013
   34MOL0     N 4605  12.854   2.251   8.572 -0.1494 -0.1924  0.3184
   34MOL0     N 4606  12.807   2.136   8.573 -0.9220  0.7299  0.6138
   34MOL0     C 4607  11.593   1.730   8.519 -0.7567 -0.3879 -0.2260
   34MOL0     C 4608  11.462   1.741   8.571 -0.0878 -0.0320 -0.1470
   34MOL0     C 4609  11.074   1.757   8.800 -0.0855  0.5521 -0.9264
   34MOL0     C 4610  10.953   1.734   8.733  0.1291 -0.3762 -0.1009
   34MOL0     C 4611  10.838   1.710   8.799  0.0944 -0.2128  1.0490
   34MOL0     C 4612  10.840   1.693   8.937 -0.2868  0.4232 -0.2002
   34MOL0     O 4613  10.723   1.665   9.007  0.4519  0.1703 -0.7773
   34MOL0     C 4614  10.597   1.674   8.942 -0.4001  0.5718 -0.0135
   34MOL0     C 4615  10.553   1.816   8.926 -0.3754 -0.1640 -0.1468
   34MOL0     C 4616  10.442   1.832   8.831  0.2785 -0.0911 -0.6828
   34MOL0     C 4617  10.385   1.976   8.826 -0.7686 -0.9175 -0.6552
   34MOL0     C 4618  10.280   1.993   8.728 -0.2194  0.1671  0.0676
   34MOL0     C 4619  10.205   1.993   8.635 -0.2318  0.7811 -0.4291
   34MOL0     C 4620  10.951   1.708   9.007 -0.1800  0.3018  0.4759
   34MOL0     C 4621  11.074   1.738   8.947 -0.5370 -0.5337  0.6854
   34MOL0     C 4622  11.187   1.785   9.034  0.4849 -0.1032 -0.2184
   34MOL0     H 4623  11.548   1.725   8.900  1.3240  0.0356 -0.5087
   34MOL0     H 4624  11.767   1.678   8.798  0.8163  1.1184 -0.7950
   34MOL0     H 4625  11.878   1.512   8.613  2.7752 -1.0932 -1.9122
   34MOL0     H 4626  11.955   1.639   8.702  1.1248 -1.1796 -0.1899
   34MOL0     H 4627  12.122   1.524   8.568 -0.0803  1.5282  1.7560
   34MOL0     H 4628  12.027   1.561   8.422  0.4660 -3.1567  0.7299
   34MOL0     H 4629  12.077   1.773   8.408 -0.8391  1.0952  0.3698
   34MOL0     H 4630  12.088   1.805   8.575 -1.1025  0.9904 -1.4314
   34MOL0     H 4631  12.314   1.664   8.572 -1.6461 -0.4660  0.8683
   34MOL0     H 4632  12.296   1.656   8.397 -1.3418  1.4887 -2.0079
   34MOL0     H 4633  12.330   1.909   8.572 -0.0497  3.0691 -1.9955
   34MOL0     H 4634  12.307   1.903   8.386  0.6908 -3.2616 -1.5334
   34MOL0     H 4635  12.521   1.752   8.537  0.3729 -0.6687 -2.1323
   34MOL0     H 4636  12.504   1.765   8.370 -1.8526 -1.9935  0.9299
   34MOL0     H 4637  12.546   2.014   8.380  2.7948  1.0176 -0.6761
   34MOL0     H 4638  12.674   1.898   8.410  0.4362 -0.0386  0.3040
   34MOL0     H 4639  12.498   2.035   8.634  0.8587 -0.1946 -0.0073
   34MOL0     H 4640  12.645   1.949   8.667  2.1632 -0.3851 -0.8321
   34MOL0     H 4641  12.522   2.298   8.550 -0.6778 -1.6903 -0.3287
   34MOL0     H 4642  12.756   2.528   8.665 -0.4363  0.7565 -0.5840
   34MOL0     H 4643  12.674   2.526   8.511 -0.1810  0.7093  0.0404
   34MOL0     H 4644  12.902   2.645   8.521 -3.0412  0.1017  0.1604
   34MOL0     H 4645  12.981   2.488   8.524 -2.0925 -2.8710 -0.6184
   34MOL0     H 4646  12.840   2.439   8.304  1.4727 -1.0345  1.0085
   34MOL0     H 4647  12.812   2.610   8.290  0.6596 -0.4527 -0.2448
   34MOL0     H 4648  13.069   2.467   8.310 -2.0020 -1.9176 -0.1629
   34MOL0     H 4649  12.988   2.537   8.154  1.7920 -1.3162 -0.7566
   34MOL0     H 4650  13.202   2.870   8.337 -0.1007  1.4436 -0.3509
   34MOL0     H 4651  13.524   2.998   8.220  0.9621 -1.3849 -0.0707
   34MOL0     H 4652  13.523   2.955   8.395 -0.7358 -0.8146  0.6174
   34MOL0     H 4653  13.383   3.025   8.315  0.3900  0.3886 -1.3386
   34MOL0     H 4654  13.874   2.460   8.297  0.3350 -1.2404 -0.6540
   34MOL0     H 4655  14.128   2.474   8.286 -0.1096  1.7430  1.6787
   34MOL0     H 4656  14.332   2.639   8.302  1.2621  0.8101  0.5859
   34MOL0     H 4657  14.325   2.485   8.211 -2.3473  0.8389 -0.3515
   34MOL0     H 4658  14.523   2.709   8.143  0.8157 -1.0555 -0.4696
   34MOL0     H 4659  14.572   2.568   8.234  2.5864  0.3444 -2.0133
   34MOL0     H 4660  14.471   2.584   7.960 -0.1345  1.3104  0.7266
   34MOL0     H 4661  14.484   2.429   8.052  1.5984 -0.1930 -0.5864
   34MOL0     H 4662  14.727   2.469   8.081 -0.8267 -0.7473  0.5144
   34MOL0     H 4663  14.723   2.605   7.977  0.3881 -0.0580  1.1586
   34MOL0     H 4664  14.619   2.332   7.871 -0.4532  1.2916  1.5929
   34MOL0     H 4665  14.670   2.467   7.779  0.0774 -1.2364 -0.8063
   34MOL0     H 4666  14.841   2.286   7.949  3.8246  0.0203 -1.0092
   34MOL0     H 4667  14.905   2.434   7.902 -0.3699 -0.0262  1.1525
   34MOL0     H 4668  14.781   2.255   7.689  1.0180  0.6286 -1.2347
   34MOL0     H 4669  14.945   2.225   7.756 -0.9449 -1.1035 -1.3367
   34MOL0     H 4670  14.846   2.469   7.588 -0.7572 -1.0869 -4.1568
   34MOL0     H 4671  14.919   2.323   7.536  3.2864 -0.8683  0.3234
   34MOL0     H 4672  14.086   2.774   7.981  0.6189 -0.7858 -0.4993
   34MOL0     H 4673  13.832   2.753   7.994 -0.2811 -1.1254 -0.6986
   34MOL0     H 4674  13.477   2.503   8.138 -1.0776 -0.2527  0.3415
   34MOL0     H 4675  13.235   2.488   8.164 -2.6645  1.3194 -0.8882
   34MOL0     H 4676  11.607   1.754   8.414 -0.8923 -0.5894 -0.2922
   34MOL0     H 4677  11.383   1.752   8.497  1.2000  0.9058 -1.4484
   34MOL0     H 4678  10.946   1.745   8.625 -2.6409  2.1040  0.1772
   34MOL0     H 4679  10.747   1.705   8.740 -0.0521 -0.2594  1.2771
   34MOL0     H 4680  10.599   1.614   8.850 -0.5816 -2.1844  1.6715
   34MOL0     H 4681  10.520   1.621   8.999  0.2145 -0.0611  0.2479
   34MOL0     H 4682  10.636   1.874   8.886  0.3300  0.0515  1.5655
   34MOL0     H 4683  10.535   1.858   9.025  1.4346 -0.4900  0.3474
   34MOL0     H 4684  10.480   1.794   8.736  0.6812 -0.0644 -0.5358
   34MOL0     H 4685  10.362   1.764   8.860  1.7228 -1.2366  0.8137
   34MOL0     H 4686  10.460   2.044   8.785  0.7540 -3.3349 -2.0702
   34MOL0     H 4687  10.345   2.004   8.924 -1.5394 -1.1677 -0.8916
   34MOL0     H 4688  10.134   1.986   8.555 -2.4809 -3.7559  1.5315
   34MOL0     H 4689  10.939   1.687   9.113 -1.0894 -5.6350 -0.4601
   34MOL0     H 4690  11.144   1.816   9.129  2.7016  2.4893  0.0340
   34MOL0     H 4691  11.260   1.709   9.062  0.8618  0.5983  0.7232
   34MOL0     H 4692  11.232   1.878   8.999 -0.1496  0.0968 -0.5308
   35MOL0     O 4693   0.983   4.869   1.842 -0.4801  0.0594 -0.4826
   35MOL0     C 4694   1.002   4.973   1.770 -0.5663 -0.0399 -0.7405
   35MOL0     O 4695   1.010   5.104   1.816  0.3642  0.5946 -0.2251
   35MOL0     C 4696   1.029   5.130   1.950 -0.0593 -0.0111 -0.0422
   35MOL0     C 4697   0.925   5.170   2.039 -0.3666 -0.3070 -0.2283
   35MOL0     C 4698   0.954   5.211   2.172 -0.6835  0.2007 -0.7048
   35MOL0     C 4699   1.086   5.203   2.215 -0.8178  0.8644 -0.4674
   35MOL0     O 4700   1.134   5.259   2.332 -0.0467  0.1282 -0.4351
   35MOL0     C 4701   1.048   5.356   2.394 -0.2902  0.0301  0.6110
   35MOL0     C 4702   1.124   5.446   2.480 -0.3841 -0.1436 -0.4925
   35MOL0     C 4703   1.176   5.380   2.608 -0.0758 -0.0694 -0.1108
   35MOL0     C 4704   1.095   5.384   2.735  1.2969 -0.7017 -0.2422
   35MOL0     C 4705   1.100   5.513   2.809 -0.0551 -0.1640 -0.4929
   35MOL0     C 4706   1.206   5.509   2.921 -0.3138  0.5031 -0.1230
   35MOL0     C 4707   1.218   5.636   3.006  0.4667  0.4477 -1.0628
   35MOL0     C 4708   1.146   5.625   3.139 -0.5407  0.7825 -0.3145
   35MOL0     N 4709   1.121   5.752   3.210 -0.3970  0.1902  0.1036
   35MOL0     C 4710   1.224   5.824   3.266 -0.4054 -0.4015  0.0818
   35MOL0     C 4711   1.166   5.938   3.305 -0.3413 -0.3337  0.5634
   35MOL0     C 4712   1.239   6.047   3.384 -0.3407 -0.6473  0.1123
   35MOL0     C 4713   1.146   6.093   3.492 -0.5033  0.0647 -1.0854
   35MOL0     C 4714   1.105   5.983   3.592 -1.1142 -0.4944 -0.4230
   35MOL0     C 4715   1.216   5.922   3.673  0.2515  0.5903  0.4582
   35MOL0     O 4716   1.279   6.013   3.765  0.2016 -0.1927  0.0587
   35MOL0     C 4717   1.386   5.968   3.833 -0.4012  1.0034 -0.8283
   35MOL0     C 4718   1.506   5.946   3.766 -0.2778 -0.3732 -0.4537
   35MOL0     C 4719   1.630   5.935   3.831 -0.2304  0.2639  0.3727
   35MOL0     C 4720   1.748   5.909   3.743  0.0919 -0.6728 -0.3447
   35MOL0     C 4721   1.635   5.951   3.972  0.2396  0.3148 -0.0917
   35MOL0     C 4722   1.756   5.935   4.054 -0.2062 -0.0865 -0.1610
   35MOL0     O 4723   1.732   5.939   4.198 -0.2595 -0.4128  0.5560
   35MOL0     C 4724   1.841   5.942   4.281  0.9051  0.0136  0.0601
   35MOL0     C 4725   1.833   5.883   4.409 -0.0177  0.0163  0.4277
   35MOL0     C 4726   1.934   5.892   4.511  0.5000 -0.4206  0.4512
   35MOL0     C 4727   2.058   5.944   4.482  0.2344 -0.6614 -0.5478
   35MOL0     O 4728   2.157   5.945   4.572 -1.0031 -0.4573  0.3055
   35MOL0     C 4729   2.280   6.009   4.535 -0.9229  1.3669 -0.7030
   35MOL0     C 4730   2.367   6.002   4.663  0.3251  0.0273 -0.0702
   35MOL0     C 4731   2.400   5.864   4.719  0.2778  0.7176  0.0522
   35MOL0     C 4732   2.492   5.863   4.846 -0.0526 -0.1707  0.4609
   35MOL0     C 4733   2.628   5.921   4.814  0.3728  0.1233  0.9143
   35MOL0     C 4734   2.724   5.831   4.735 -0.0432 -0.2587 -0.7864
   35MOL0     C 4735   2.829   5.920   4.688 -0.9770 -0.4457  0.8863
   35MOL0     C 4736   2.932   5.954   4.799 -0.4737  0.1584  0.3333
   35MOL0    Cl 4737   3.083   5.989   4.730  0.3135  0.4151  0.4238
   35MOL0     C 4738   2.069   6.007   4.359 -0.3312  0.3712  0.9358
   35MOL0     C 4739   1.955   6.018   4.270 -1.0929  0.3558  0.0614
   35MOL0     O 4740   1.856   5.895   4.002 -0.7269 -0.3323  0.0772
   35MOL0     C 4741   1.510   5.972   4.043  0.2132  0.0266 -0.5734
   35MOL0     C 4742   1.394   5.986   3.974 -0.2183 -0.0298 -0.5215
   35MOL0     N 4743   1.032   5.940   3.276 -0.2429 -0.8068 -0.3586
   35MOL0     N 4744   1.002   5.823   3.222 -0.7667 -0.1412 -0.3073
   35MOL0     C 4745   1.181   5.150   2.128 -0.8518 -0.2318  0.1334
   35MOL0     C 4746   1.153   5.112   1.995 -0.2403  0.4979 -0.4432
   35MOL0     C 4747   0.976   4.947   1.633 -0.0405 -0.5922  0.4135
   35MOL0     C 4748   0.910   5.051   1.558 -0.3804 -0.0638  0.4378
   35MOL0     C 4749   0.858   5.034   1.428 -0.3479 -0.4810 -0.2487
   35MOL0     C 4750   0.883   4.916   1.364 -0.1961 -0.1456 -0.1715
   35MOL0     O 4751   0.842   4.892   1.239  0.2449  0.1312 -0.3410
   35MOL0     C 4752   0.733   4.958   1.177  0.4820  0.7987 -0.2998
   35MOL0     C 4753   0.680   4.863   1.068 -0.4948 -0.3109 -0.0658
   35MOL0     C 4754   0.787   4.849   0.955  0.4320 -0.0653 -0.2231
   35MOL0     C 4755   0.725   4.742   0.869  0.1961 -0.1668  0.1408
   35MOL0     C 4756   0.819   4.743   0.755  0.5514 -0.1729  0.3717
   35MOL0     C 4757   0.901   4.761   0.665  1.0354  0.6046  0.4890
   35MOL0     C 4758   0.956   4.816   1.426 -0.2907  0.0384 -0.0347
   35MOL0     C 4759   0.997   4.827   1.561  0.1061 -0.1966 -0.1071
   35MOL0     C 4760   1.058   4.700   1.629 -0.8376 -1.0589  0.1311
   35MOL0     H 4761   0.831   5.188   1.988 -0.6398 -2.2033 -0.4592
   35MOL0     H 4762   0.878   5.249   2.240 -2.2961  0.8876 -2.7645
   35MOL0     H 4763   0.965   5.314   2.450 -1.6138  1.0142 -0.5375
   35MOL0     H 4764   0.999   5.417   2.317  0.3882 -0.6650 -0.4010
   35MOL0     H 4765   1.208   5.485   2.422 -1.4347  0.3330 -1.7591
   35MOL0     H 4766   1.058   5.530   2.506  1.8763  1.3975  0.6370
   35MOL0     H 4767   1.197   5.274   2.594  2.2711  0.2675  0.4941
   35MOL0     H 4768   1.268   5.430   2.641  0.6312 -0.2863 -1.6393
   35MOL0     H 4769   0.991   5.365   2.706  1.7141 -2.8148 -0.5215
   35MOL0     H 4770   1.126   5.302   2.802 -1.9562 -1.9207 -0.0519
   35MOL0     H 4771   1.008   5.553   2.852  1.7116  3.5774  0.1922
   35MOL0     H 4772   1.124   5.593   2.738  0.3041 -0.4408 -0.6886
   35MOL0     H 4773   1.197   5.426   2.991  0.3064  0.7873  0.3000
   35MOL0     H 4774   1.301   5.492   2.870 -0.2346 -0.6122  0.3756
   35MOL0     H 4775   1.167   5.715   2.950 -1.3759 -0.5017 -0.7848
   35MOL0     H 4776   1.323   5.654   3.030  0.4336 -0.1456 -0.4442
   35MOL0     H 4777   1.049   5.577   3.124  0.3452 -0.8415 -1.1491
   35MOL0     H 4778   1.217   5.559   3.191 -2.9151  0.2879  2.5690
   35MOL0     H 4779   1.327   5.793   3.270 -0.2409  0.0634 -0.4322
   35MOL0     H 4780   1.278   6.129   3.324  0.7770 -0.4723  1.0348
   35MOL0     H 4781   1.327   6.001   3.429  0.8748  0.1273 -1.3676
   35MOL0     H 4782   1.188   6.180   3.544 -2.2056  0.2487  0.0443
   35MOL0     H 4783   1.058   6.142   3.451  0.7569  2.9588 -0.5762
   35MOL0     H 4784   1.018   6.019   3.648 -1.4088 -0.0406 -1.1494
   35MOL0     H 4785   1.059   5.898   3.542 -0.8792 -0.6557 -0.3674
   35MOL0     H 4786   1.168   5.838   3.724  0.5337  0.7173  0.9386
   35MOL0     H 4787   1.292   5.880   3.607  2.1894  2.1672  1.5743
   35MOL0     H 4788   1.504   5.958   3.659 -2.6667  0.1174 -0.4010
   35MOL0     H 4789   1.783   6.004   3.700  0.1381 -0.5040  0.0621
   35MOL0     H 4790   1.703   5.853   3.661  0.6400 -0.2491 -0.9493
   35MOL0     H 4791   1.819   5.845   3.796 -0.2187  0.3210  1.3477
   35MOL0     H 4792   1.734   5.845   4.431  0.1683 -1.1673 -0.6736
   35MOL0     H 4793   1.918   5.851   4.610 -1.0169  1.6935  1.1552
   35MOL0     H 4794   2.331   5.947   4.462  1.6487  0.4668  1.6832
   35MOL0     H 4795   2.277   6.114   4.503  0.8969  1.9094  0.7372
   35MOL0     H 4796   2.460   6.049   4.630  0.4531 -0.8786 -1.0777
   35MOL0     H 4797   2.320   6.058   4.744 -1.7475 -0.1670 -1.0767
   35MOL0     H 4798   2.437   5.800   4.639  0.0326 -0.6237  0.9703
   35MOL0     H 4799   2.301   5.830   4.749  0.0178  0.7195 -0.7760
   35MOL0     H 4800   2.497   5.757   4.873 -1.5635 -0.0150  1.4498
   35MOL0     H 4801   2.448   5.921   4.928 -1.9505  0.2288 -0.7835
   35MOL0     H 4802   2.608   6.016   4.764 -1.8561 -1.3880 -1.3414
   35MOL0     H 4803   2.672   5.950   4.910 -0.5935  0.3843  1.2985
   35MOL0     H 4804   2.670   5.780   4.654  0.3234 -0.8539 -0.6613
   35MOL0     H 4805   2.771   5.766   4.809 -1.8040  0.1956  0.8140
   35MOL0     H 4806   2.778   6.006   4.644  0.6148 -0.0641 -0.2887
   35MOL0     H 4807   2.883   5.871   4.607 -2.5244 -0.6921 -0.0498
   35MOL0     H 4808   2.962   5.864   4.854  3.4793  1.4131  0.5622
   35MOL0     H 4809   2.901   6.027   4.875  0.5824 -0.2859  1.2313
   35MOL0     H 4810   2.151   6.072   4.331 -0.2431 -0.3367 -0.5745
   35MOL0     H 4811   1.972   6.085   4.186  2.5006 -1.5695 -0.9735
   35MOL0     H 4812   1.507   5.970   4.151 -0.8122 -1.3401 -0.6059
   35MOL0     H 4813   1.297   6.009   4.017 -0.2620 -1.1055 -0.0041
   35MOL0     H 4814   1.280   5.127   2.168 -1.3997  0.1181  1.7616
   35MOL0     H 4815   1.237   5.077   1.937  0.7700 -0.4538  1.4879
   35MOL0     H 4816   0.888   5.150   1.598 -1.5866  0.3693 -1.1945
   35MOL0     H 4817   0.794   5.112   1.387 -2.1496 -2.4707 -1.4256
   35MOL0     H 4818   0.652   4.978   1.248 -0.0837 -1.5036 -0.2393
   35MOL0     H 4819   0.758   5.059   1.141  2.0509  0.9410  1.0809
   35MOL0     H 4820   0.585   4.899   1.027 -1.1542 -2.1650 -0.2272
   35MOL0     H 4821   0.666   4.766   1.115 -1.8429  0.4129  1.1204
   35MOL0     H 4822   0.797   4.946   0.905  0.9443 -0.5594 -1.0940
   35MOL0     H 4823   0.886   4.821   0.992  0.7395 -0.2724 -1.1695
   35MOL0     H 4824   0.621   4.765   0.840  1.3086  1.3305 -3.2054
   35MOL0     H 4825   0.717   4.651   0.928 -0.5161 -0.1796  0.0403
   35MOL0     H 4826   0.976   4.774   0.589 -1.8764  1.4684 -2.4587
   35MOL0     H 4827   0.984   4.729   1.368  2.9213  1.8735 -1.4974
   35MOL0     H 4828   1.156   4.723   1.671 -0.3141 -1.5105 -0.8190
   35MOL0     H 4829   0.990   4.670   1.709  0.7495  0.0112  1.9678
   35MOL0     H 4830   1.074   4.622   1.554 -0.3778 -1.2153  0.3928
   36MOL0     O 4831   1.669   4.011   4.389 -0.5945 -0.0353  0.0723
   36MOL0     C 4832   1.639   4.126   4.358  1.4280  1.1812 -0.2263
   36MOL0     O 4833   1.719   4.231   4.368 -0.2059  0.1050 -0.0144
   36MOL0     C 4834   1.845   4.208   4.416 -0.2580 -1.3636 -0.4524
   36MOL0     C 4835   1.952   4.178   4.323  0.3561 -0.1714 -0.3431
   36MOL0     C 4836   2.077   4.161   4.379 -0.3856  0.8737 -0.6875
   36MOL0     C 4837   2.106   4.165   4.520  0.8772 -0.6101 -0.0877
   36MOL0     O 4838   2.231   4.164   4.574  0.1985  0.0566 -0.0001
   36MOL0     C 4839   2.337   4.184   4.491  0.1774  0.5383 -0.9832
   36MOL0     C 4840   2.458   4.220   4.570 -0.8448  0.3406 -0.4624
   36MOL0     C 4841   2.568   4.107   4.570  1.3208  0.5765  0.3037
   36MOL0     C 4842   2.695   4.150   4.653  0.0938 -0.0461  0.0494
   36MOL0     C 4843   2.796   4.035   4.677 -0.4095  0.0479 -0.2869
   36MOL0     C 4844   2.745   3.897   4.717 -0.9552 -0.3312  0.3590
   36MOL0     C 4845   2.859   3.811   4.768 -0.2846  0.5596 -0.1803
   36MOL0     C 4846   2.799   3.676   4.822  0.1511 -0.3726  0.3216
   36MOL0     N 4847   2.906   3.568   4.827  0.6111  0.4087  1.0807
   36MOL0     C 4848   2.984   3.516   4.721 -0.7383 -0.1516  0.8609
   36MOL0     C 4849   3.081   3.435   4.789  1.1232  0.7724  0.1087
   36MOL0     C 4850   3.183   3.346   4.709 -0.0449  0.6001  0.0027
   36MOL0     C 4851   3.292   3.313   4.814 -0.1048 -0.4948  0.2190
   36MOL0     C 4852   3.404   3.220   4.746 -0.5389  0.3540 -0.4255
   36MOL0     C 4853   3.538   3.225   4.827 -0.0891 -0.5379  0.5208
   36MOL0     O 4854   3.595   3.092   4.833  0.0632 -0.2601  0.7497
   36MOL0     C 4855   3.720   3.083   4.891  0.1188 -0.3107  0.2659
   36MOL0     C 4856   3.769   3.170   4.986  0.7484 -0.2789  0.8765
   36MOL0     C 4857   3.897   3.151   5.039 -1.0459  0.4470  0.5957
   36MOL0     C 4858   3.953   3.250   5.138  0.5082 -0.4447 -0.5122
   36MOL0     C 4859   3.977   3.038   5.004 -0.0353 -0.9017 -0.2429
   36MOL0     C 4860   4.107   3.004   5.061  0.2175  0.5512 -0.5741
   36MOL0     O 4861   4.136   3.037   5.183 -0.2689  0.5792 -0.7669
   36MOL0     C 4862   4.260   3.011   5.229  0.8123 -0.0900 -0.5086
   36MOL0     C 4863   4.323   2.888   5.205  0.4545 -0.8102  0.3624
   36MOL0     C 4864   4.450   2.871   5.260 -0.4039 -0.3386 -0.9008
   36MOL0     C 4865   4.513   2.982   5.332 -0.1873 -0.5337 -1.0544
   36MOL0     O 4866   4.645   2.964   5.380  1.0955 -0.1026  0.1528
   36MOL0     C 4867   4.736   3.067   5.347 -1.0449 -0.9063  0.4436
   36MOL0     C 4868   4.867   2.999   5.323 -0.4816 -0.5535  0.6903
   36MOL0     C 4869   4.985   3.096   5.311 -0.2537  0.1964  0.6982
   36MOL0     C 4870   5.088   3.045   5.207 -0.3087  0.5576 -1.1500
   36MOL0     C 4871   5.222   3.117   5.197 -0.3310  1.1239 -0.5486
   36MOL0     C 4872   5.340   3.031   5.153 -0.5549  1.0982 -0.2000
   36MOL0     C 4873   5.315   2.965   5.014  0.4390  1.0453  0.2388
   36MOL0     C 4874   5.424   2.857   4.993 -0.5961  0.0397  0.6683
   36MOL0    Cl 4875   5.412   2.805   4.828  0.0689  0.0619 -0.3633
   36MOL0     C 4876   4.437   3.094   5.358 -0.6696 -0.3832 -0.7984
   36MOL0     C 4877   4.310   3.113   5.307  0.6500  0.0341 -0.9075
   36MOL0     O 4878   4.187   2.971   4.971  0.0230 -0.1222 -0.1718
   36MOL0     C 4879   3.917   2.944   4.924 -0.6421  0.2756 -0.6724
   36MOL0     C 4880   3.799   2.968   4.862  0.3373  0.8440  0.4391
   36MOL0     N 4881   3.048   3.443   4.924  0.1311 -0.4802  0.0602
   36MOL0     N 4882   2.948   3.517   4.945 -0.2041  0.0609  0.0688
   36MOL0     C 4883   1.994   4.204   4.601 -1.0562  1.3649 -0.0598
   36MOL0     C 4884   1.870   4.225   4.553  0.2658  0.1808 -0.2150
   36MOL0     C 4885   1.495   4.150   4.321 -0.1396  0.2006  0.4047
   36MOL0     C 4886   1.456   4.290   4.329 -0.7673  0.3769 -0.3298
   36MOL0     C 4887   1.325   4.320   4.304  0.2366  0.5218 -0.4815
   36MOL0     C 4888   1.222   4.226   4.272 -0.3880 -0.5378  0.3507
   36MOL0     O 4889   1.088   4.256   4.245 -0.2979 -0.0456  0.7243
   36MOL0     C 4890   1.042   4.383   4.256  1.0396  0.0042  0.0160
   36MOL0     C 4891   1.028   4.411   4.403  0.0069  1.1184 -0.6534
   36MOL0     C 4892   0.939   4.537   4.432 -1.1786 -0.3266  0.2631
   36MOL0     C 4893   0.994   4.628   4.543  0.1323 -0.9890 -0.1769
   36MOL0     C 4894   0.998   4.557   4.672 -0.3093 -0.3115  0.1816
   36MOL0     C 4895   0.990   4.514   4.781 -0.4143  0.4376  0.4559
   36MOL0     C 4896   1.266   4.100   4.257  0.4456 -0.5482  0.4245
   36MOL0     C 4897   1.399   4.058   4.279  0.6675 -0.3047 -0.0519
   36MOL0     C 4898   1.437   3.917   4.258  0.1947  0.1377 -0.3269
   36MOL0     H 4899   1.943   4.169   4.215  2.2525 -3.9642 -0.3502
   36MOL0     H 4900   2.156   4.136   4.309  1.2318  0.5370  1.1520
   36MOL0     H 4901   2.311   4.274   4.434 -0.4904  0.9847 -0.0028
   36MOL0     H 4902   2.352   4.099   4.424  2.3781  0.2644 -0.1969
   36MOL0     H 4903   2.513   4.308   4.537  1.3188 -0.2801  1.2613
   36MOL0     H 4904   2.425   4.246   4.671 -1.4423 -0.0395 -0.5557
   36MOL0     H 4905   2.519   4.025   4.624 -0.9400  1.0626 -0.9052
   36MOL0     H 4906   2.599   4.072   4.472 -0.0965  1.8937 -0.6552
   36MOL0     H 4907   2.744   4.231   4.599  1.1689 -0.4357  0.4216
   36MOL0     H 4908   2.661   4.192   4.748  1.5513 -0.0361  0.5870
   36MOL0     H 4909   2.864   4.073   4.755  0.7840  0.7258 -1.6140
   36MOL0     H 4910   2.855   4.023   4.586 -0.5506 -1.6146 -0.1863
   36MOL0     H 4911   2.672   3.908   4.797 -1.2517  0.3101  0.0085
   36MOL0     H 4912   2.701   3.851   4.628  0.6014  0.8699 -1.1017
   36MOL0     H 4913   2.903   3.859   4.856 -0.5797 -2.1906  1.6084
   36MOL0     H 4914   2.922   3.800   4.680 -0.3245  0.3721 -0.1855
   36MOL0     H 4915   2.758   3.692   4.922  3.5650  2.7346  1.4366
   36MOL0     H 4916   2.724   3.645   4.748 -0.0135  0.0986  0.2851
   36MOL0     H 4917   2.970   3.535   4.616  0.2290 -0.1395  0.7234
   36MOL0     H 4918   3.221   3.407   4.627  0.8566  1.0374  0.7327
   36MOL0     H 4919   3.139   3.261   4.657  0.2005 -0.3216  1.2707
   36MOL0     H 4920   3.336   3.404   4.856 -0.1319 -0.6132  0.5058
   36MOL0     H 4921   3.243   3.260   4.897 -2.6836  2.1172  0.4873
   36MOL0     H 4922   3.366   3.118   4.735 -1.3798  0.8891 -3.5315
   36MOL0     H 4923   3.434   3.248   4.644  2.3864 -1.5940 -0.2284
   36MOL0     H 4924   3.602   3.307   4.792 -0.7351  0.3715  1.4172
   36MOL0     H 4925   3.515   3.245   4.932  1.3394 -0.1111  0.7713
   36MOL0     H 4926   3.719   3.263   5.012  2.3688  0.7927  0.3914
   36MOL0     H 4927   3.895   3.342   5.129  2.0499  1.0929  3.2639
   36MOL0     H 4928   4.058   3.275   5.117  1.0325 -1.5295  0.6446
   36MOL0     H 4929   3.943   3.219   5.242  2.2025  1.2519  0.2160
   36MOL0     H 4930   4.287   2.809   5.140 -0.6426  1.9137 -2.5689
   36MOL0     H 4931   4.517   2.785   5.253  1.2620  0.8116  0.0984
   36MOL0     H 4932   4.715   3.122   5.255  0.5912 -1.5398 -0.3504
   36MOL0     H 4933   4.740   3.135   5.433 -1.2630 -0.3608  0.0224
   36MOL0     H 4934   4.882   2.940   5.414  0.0513 -0.8711  0.4009
   36MOL0     H 4935   4.872   2.929   5.240 -0.5532  0.0931  0.1320
   36MOL0     H 4936   5.025   3.117   5.410 -2.2725  2.8045  1.0662
   36MOL0     H 4937   4.956   3.192   5.268  1.6071  0.1688 -0.7529
   36MOL0     H 4938   5.028   3.050   5.116 -2.5556  1.2502  0.2924
   36MOL0     H 4939   5.102   2.938   5.226 -3.9443  0.1896  0.3595
   36MOL0     H 4940   5.207   3.195   5.120 -0.0327  1.3054 -0.4246
   36MOL0     H 4941   5.251   3.170   5.288 -0.0722  0.4319 -0.2284
   36MOL0     H 4942   5.342   2.949   5.226  0.0231  1.7974  0.5763
   36MOL0     H 4943   5.433   3.088   5.163 -0.0174  0.6839 -2.4026
   36MOL0     H 4944   5.331   3.048   4.944  0.9349  0.5350 -0.2640
   36MOL0     H 4945   5.210   2.938   5.004  0.6795  0.5132 -0.9844
   36MOL0     H 4946   5.416   2.778   5.068  1.1132 -0.1552  0.6837
   36MOL0     H 4947   5.526   2.891   5.011 -0.7816  0.1420  1.5539
   36MOL0     H 4948   4.482   3.176   5.414 -2.5629  0.3245 -0.2251
   36MOL0     H 4949   4.242   3.196   5.321  0.6705 -0.1335  0.2514
   36MOL0     H 4950   3.972   2.852   4.907  1.9879  1.6947 -0.3428
   36MOL0     H 4951   3.753   2.898   4.793  0.2538  2.0497 -0.7764
   36MOL0     H 4952   2.001   4.227   4.707 -2.9786  1.8801 -0.0218
   36MOL0     H 4953   1.797   4.250   4.629  2.3006 -0.0174  1.9215
   36MOL0     H 4954   1.519   4.374   4.356 -2.3979  2.0756 -1.6023
   36MOL0     H 4955   1.288   4.422   4.313 -1.4303 -0.1293  0.7686
   36MOL0     H 4956   1.108   4.453   4.205  2.5105 -2.5856 -1.9034
   36MOL0     H 4957   0.942   4.392   4.213  2.1014 -1.0347 -2.8717
   36MOL0     H 4958   1.126   4.425   4.450  0.6199 -0.5011 -1.3790
   36MOL0     H 4959   0.994   4.326   4.462 -2.1592  2.5394  0.2531
   36MOL0     H 4960   0.935   4.591   4.337 -0.9523  1.2419  1.1302
   36MOL0     H 4961   0.837   4.509   4.460 -1.5897 -0.7692 -1.5399
   36MOL0     H 4962   0.927   4.713   4.557 -0.9154 -1.3719 -2.4926
   36MOL0     H 4963   1.096   4.658   4.516  0.3055 -0.1917  1.2843
   36MOL0     H 4964   0.987   4.484   4.884  0.0993  2.6722  1.1684
   36MOL0     H 4965   1.195   4.020   4.237  0.5775 -1.1449  2.2140
   36MOL0     H 4966   1.430   3.851   4.344 -1.0369 -1.2694 -1.4460
   36MOL0     H 4967   1.374   3.876   4.178  1.3822 -1.7557 -0.3452
   36MOL0     H 4968   1.539   3.915   4.218  0.5126  2.6673  0.2003
   37MOL0     O 4969  11.122   1.814   5.020 -0.7567  0.6921 -0.3208
   37MOL0     C 4970  11.032   1.824   5.099 -0.4565 -0.2775 -0.2554
   37MOL0     O 4971  11.023   1.760   5.217 -0.0717 -0.4283 -1.3601
   37MOL0     C 4972  11.141   1.712   5.268 -0.0090 -0.8451  0.9664
   37MOL0     C 4973  11.198   1.797   5.361  0.3687  0.6647 -0.5062
   37MOL0     C 4974  11.319   1.750   5.417  0.0138  0.9473 -0.0820
   37MOL0     C 4975  11.384   1.629   5.375 -0.2274 -0.1242 -0.4543
   37MOL0     O 4976  11.504   1.617   5.435 -0.3006 -0.2953  0.5237
   37MOL0     C 4977  11.606   1.554   5.359 -0.7024 -0.7802 -0.6227
   37MOL0     C 4978  11.730   1.544   5.455  0.3514 -0.5875  0.4657
   37MOL0     C 4979  11.765   1.677   5.530  0.1047 -0.4286  1.0536
   37MOL0     C 4980  11.913   1.673   5.569  0.2867  0.0585  0.3069
   37MOL0     C 4981  11.935   1.795   5.652  0.3440  0.2188 -0.4560
   37MOL0     C 4982  12.078   1.773   5.708  0.3130  0.7076 -0.8648
   37MOL0     C 4983  12.125   1.880   5.807 -0.6088 -0.5345  1.0229
   37MOL0     C 4984  12.124   2.025   5.756  0.6248 -0.2559 -0.7641
   37MOL0     N 4985  12.210   2.111   5.840 -0.0274 -0.4883 -0.0930
   37MOL0     C 4986  12.322   2.189   5.800  0.8051  0.5771  0.0379
   37MOL0     C 4987  12.340   2.271   5.912 -0.6484 -0.2851 -0.5368
   37MOL0     C 4988  12.461   2.371   5.938 -0.6515 -0.3927  0.3935
   37MOL0     C 4989  12.582   2.328   5.862 -0.2964  0.5308  0.5731
   37MOL0     C 4990  12.700   2.406   5.915  0.7257 -0.4951 -0.5863
   37MOL0     C 4991  12.841   2.368   5.848  1.0000  0.0757  0.0752
   37MOL0     O 4992  12.887   2.235   5.896  0.2031 -0.3618  0.4651
   37MOL0     C 4993  13.022   2.222   5.887  1.1160 -0.6206 -0.1374
   37MOL0     C 4994  13.068   2.119   5.962 -0.8225  0.0948  0.1437
   37MOL0     C 4995  13.198   2.075   5.966 -0.0133 -0.7924 -0.0456
   37MOL0     C 4996  13.233   1.974   6.071  0.1131 -0.1603 -0.1242
   37MOL0     C 4997  13.290   2.131   5.871 -0.3854 -0.0440  0.5569
   37MOL0     C 4998  13.436   2.096   5.877  0.2843  0.2507  0.1272
   37MOL0     O 4999  13.508   2.123   5.763 -0.3189 -0.0202  0.1997
   37MOL0     C 5000  13.644   2.122   5.766  0.5564  0.5685 -0.0996
   37MOL0     C 5001  13.715   2.005   5.805 -1.1312 -0.5555 -0.3544
   37MOL0     C 5002  13.857   1.995   5.798  0.7483 -0.5632  0.9485
   37MOL0     C 5003  13.924   2.113   5.757 -0.2066 -0.3112 -0.0234
   37MOL0     O 5004  14.060   2.131   5.754 -0.3628 -1.1283 -1.1810
   37MOL0     C 5005  14.138   2.028   5.832 -0.2555  0.3740 -0.1051
   37MOL0     C 5006  14.281   2.074   5.878  1.0043  0.8679 -0.1602
   37MOL0     C 5007  14.348   2.134   5.761 -0.9573 -0.1640 -0.1524
   37MOL0     C 5008  14.403   2.034   5.655 -0.2486  0.1403  0.1842
   37MOL0     C 5009  14.471   2.103   5.526  0.0506  0.6071 -0.4283
   37MOL0     C 5010  14.594   2.192   5.550 -0.8759  0.2428 -0.8705
   37MOL0     C 5011  14.704   2.093   5.597 -0.2200  0.4368 -0.0744
   37MOL0     C 5012  14.840   2.151   5.585  0.0010 -0.4652  0.4273
   37MOL0    Cl 5013  14.902   2.146   5.410  0.3418 -0.7070  0.0160
   37MOL0     C 5014  13.854   2.227   5.728 -0.4384 -0.6192  0.2075
   37MOL0     C 5015  13.713   2.232   5.727  0.7936 -1.2228 -0.4861
   37MOL0     O 5016  13.482   2.050   5.986  0.5598  0.4206  0.1405
   37MOL0     C 5017  13.239   2.228   5.783 -1.5508  0.3759 -0.7434
   37MOL0     C 5018  13.111   2.283   5.797 -0.1035  0.6562 -0.1177
   37MOL0     N 5019  12.250   2.231   6.012 -0.3670 -0.6771  0.2141
   37MOL0     N 5020  12.174   2.134   5.969  0.4947  0.6694  0.4022
   37MOL0     C 5021  11.325   1.552   5.275 -0.0040  0.4625 -0.1835
   37MOL0     C 5022  11.204   1.595   5.223  0.0696 -0.0710  0.0674
   37MOL0     C 5023  10.912   1.910   5.062 -1.0090 -0.5248  0.1708
   37MOL0     C 5024  10.792   1.875   5.122 -0.1176 -0.3159 -0.6801
   37MOL0     C 5025  10.688   1.956   5.089 -0.1009  0.5556  0.9325
   37MOL0     C 5026  10.690   2.059   4.999 -0.0168 -1.5180 -0.3531
   37MOL0     O 5027  10.566   2.125   4.993 -0.5473 -0.1799 -0.4162
   37MOL0     C 5028  10.563   2.237   4.899 -0.0646  0.5189 -0.4388
   37MOL0     C 5029  10.420   2.297   4.925 -0.3004 -0.3261 -0.2340
   37MOL0     C 5030  10.322   2.186   4.901 -0.0854 -1.1487  0.3928
   37MOL0     C 5031  10.190   2.248   4.861  0.2579 -0.2790  0.0338
   37MOL0     C 5032  10.133   2.194   4.737 -0.0734 -0.2752 -0.5716
   37MOL0     C 5033  10.089   2.170   4.629 -0.2647  0.3315  0.4034
   37MOL0     C 5034  10.810   2.095   4.940 -0.0027  0.2969 -0.1886
   37MOL0     C 5035  10.925   2.021   4.969  0.1378  0.7608  0.1706
   37MOL0     C 5036  11.055   2.057   4.901 -0.7352 -0.0541 -0.3297
   37MOL0     H 5037  11.164   1.895   5.394 -0.4151  0.7851 -1.6387
   37MOL0     H 5038  11.377   1.807   5.489  1.4351  0.1823 -0.5890
   37MOL0     H 5039  11.644   1.620   5.281  1.9675  0.7689  1.8035
   37MOL0     H 5040  11.583   1.459   5.310  1.5900 -0.4931 -2.4059
   37MOL0     H 5041  11.696   1.469   5.528 -1.3701 -0.0353  0.2713
   37MOL0     H 5042  11.817   1.506   5.400  0.9167 -0.7632  1.4417
   37MOL0     H 5043  11.750   1.757   5.457 -1.4751 -0.5779  1.1775
   37MOL0     H 5044  11.696   1.697   5.614  0.9548  1.2068  1.4124
   37MOL0     H 5045  11.933   1.578   5.621  0.8972  0.2585  0.4375
   37MOL0     H 5046  11.976   1.668   5.481 -0.7929  0.9547 -0.5439
   37MOL0     H 5047  11.861   1.799   5.732 -1.6697 -1.4090 -2.1178
   37MOL0     H 5048  11.927   1.893   5.604 -2.6844  1.1362  1.6327
   37MOL0     H 5049  12.091   1.675   5.756 -0.2847  0.1759 -1.7460
   37MOL0     H 5050  12.150   1.772   5.625  1.6367 -3.0767  0.1188
   37MOL0     H 5051  12.225   1.861   5.847  0.3801 -0.5859 -1.3470
   37MOL0     H 5052  12.051   1.875   5.888  1.6869  0.8397  3.3520
   37MOL0     H 5053  12.168   2.033   5.656 -1.2170  1.5897 -1.5118
   37MOL0     H 5054  12.021   2.063   5.753  1.4535  2.3567  0.4177
   37MOL0     H 5055  12.386   2.204   5.714 -0.2951  1.4704 -0.6661
   37MOL0     H 5056  12.484   2.375   6.044  3.4746  2.9516 -0.3460
   37MOL0     H 5057  12.433   2.471   5.901  0.6645  0.8804  2.6443
   37MOL0     H 5058  12.598   2.220   5.872  1.2464  0.7474  0.7556
   37MOL0     H 5059  12.569   2.337   5.754 -2.7329 -0.8382  0.6669
   37MOL0     H 5060  12.677   2.513   5.910  2.1590 -0.1350  0.2330
   37MOL0     H 5061  12.713   2.398   6.023  3.4492 -0.1541 -0.8291
   37MOL0     H 5062  12.823   2.367   5.740  0.0600 -0.6582  0.2190
   37MOL0     H 5063  12.919   2.442   5.867  1.7510 -0.1734 -1.8414
   37MOL0     H 5064  12.998   2.075   6.032 -0.6458  0.1089  0.3301
   37MOL0     H 5065  13.288   1.886   6.037 -2.3470 -1.6477 -0.5000
   37MOL0     H 5066  13.154   1.934   6.134  2.0113 -1.4171  1.5890
   37MOL0     H 5067  13.290   2.035   6.141 -1.1618  1.0482 -0.1073
   37MOL0     H 5068  13.657   1.926   5.853  0.5570 -0.2086  2.4787
   37MOL0     H 5069  13.912   1.907   5.830 -1.0419 -1.6279  1.2377
   37MOL0     H 5070  14.090   1.998   5.926  2.5211  2.1208  2.0013
   37MOL0     H 5071  14.135   1.939   5.770 -1.1969  1.3043 -1.4555
   37MOL0     H 5072  14.268   2.147   5.958  0.7630  1.2183 -0.5178
   37MOL0     H 5073  14.337   1.988   5.918 -0.7938 -0.5905 -0.6457
   37MOL0     H 5074  14.435   2.192   5.795 -1.4918  1.4537 -1.3780
   37MOL0     H 5075  14.280   2.208   5.718  0.2010  1.6844  1.0172
   37MOL0     H 5076  14.316   1.987   5.610  0.4833  0.5836 -1.7806
   37MOL0     H 5077  14.472   1.961   5.699  0.0528  1.1619  1.5142
   37MOL0     H 5078  14.493   2.016   5.465 -0.7388 -0.9918  1.4570
   37MOL0     H 5079  14.381   2.152   5.487 -3.1473 -2.1044  2.8013
   37MOL0     H 5080  14.568   2.261   5.630 -0.4923 -0.6108  0.0123
   37MOL0     H 5081  14.616   2.242   5.455  1.3580 -0.0705 -0.5650
   37MOL0     H 5082  14.699   2.007   5.529 -1.7477  1.0757 -0.8365
   37MOL0     H 5083  14.702   2.074   5.704  5.0024 -2.4847 -0.1796
   37MOL0     H 5084  14.909   2.096   5.650  1.0795  1.2310  0.7718
   37MOL0     H 5085  14.840   2.254   5.622  0.2427  0.2863 -1.5548
   37MOL0     H 5086  13.913   2.310   5.690  1.2509 -1.0626  1.7629
   37MOL0     H 5087  13.666   2.322   5.688 -0.1147 -0.6307  1.8262
   37MOL0     H 5088  13.307   2.263   5.707  0.3548 -0.1108  0.6601
   37MOL0     H 5089  13.091   2.362   5.726  0.7782  1.0749  0.0882
   37MOL0     H 5090  11.373   1.460   5.242  2.0558  1.6271 -0.6406
   37MOL0     H 5091  11.160   1.558   5.131 -0.8635  0.6750  0.1989
   37MOL0     H 5092  10.782   1.791   5.190  3.1395 -0.3851 -0.1425
   37MOL0     H 5093  10.602   1.925   5.148 -0.8479 -0.9792 -0.8583
   37MOL0     H 5094  10.649   2.301   4.915  1.0770 -0.9573 -0.4106
   37MOL0     H 5095  10.559   2.191   4.799  1.5975 -1.6950  0.4381
   37MOL0     H 5096  10.404   2.379   4.855  2.7702 -0.7059 -1.5552
   37MOL0     H 5097  10.408   2.334   5.027 -0.7709  1.2771 -0.8502
   37MOL0     H 5098  10.355   2.115   4.825 -0.1169 -4.3663  3.1374
   37MOL0     H 5099  10.295   2.141   4.997  1.6848 -3.2152  0.0022
   37MOL0     H 5100  10.200   2.356   4.850 -1.8218  0.2147  2.2380
   37MOL0     H 5101  10.116   2.243   4.942 -0.2509 -2.2582 -0.4824
   37MOL0     H 5102  10.048   2.160   4.530  0.9995  0.6571 -0.1664
   37MOL0     H 5103  10.825   2.182   4.877 -1.4611  1.9274  1.5961
   37MOL0     H 5104  11.060   2.161   4.869  0.4238 -0.3574 -1.1909
   37MOL0     H 5105  11.141   2.034   4.964 -1.1158 -0.8516 -0.0910
   37MOL0     H 5106  11.072   1.998   4.811  1.4792 -2.0610  1.2690
   38MOL0     O 5107   8.135   6.688   0.849  0.2934  0.1597 -0.4719
   38MOL0     C 5108   8.078   6.626   0.940 -0.1511  1.3369 -0.1547
   38MOL0     O 5109   8.135   6.544   1.031 -0.4912 -0.0582  0.0860
   38MOL0     C 5110   8.262   6.499   1.025 -1.6458  0.0657  0.4951
   38MOL0     C 5111   8.354   6.514   0.917  0.1063  0.3782 -0.4426
   38MOL0     C 5112   8.490   6.478   0.923  0.8411 -0.2679  0.3128
   38MOL0     C 5113   8.536   6.404   1.034 -0.0291  0.1439  1.5066
   38MOL0     O 5114   8.666   6.354   1.036  0.1275  0.2466 -0.5110
   38MOL0     C 5115   8.713   6.274   1.142  0.0330  0.4255 -0.3106
   38MOL0     C 5116   8.857   6.238   1.118  0.0160 -0.0129  1.0241
   38MOL0     C 5117   8.930   6.150   1.221  0.4239  0.0596 -0.1841
   38MOL0     C 5118   9.066   6.106   1.156 -0.1653 -0.7365 -0.2102
   38MOL0     C 5119   9.156   6.037   1.263 -0.2898 -0.4690  0.8267
   38MOL0     C 5120   9.291   5.990   1.218  0.0900 -0.2918  0.1047
   38MOL0     C 5121   9.378   5.923   1.323  0.1979 -1.1059 -0.1379
   38MOL0     C 5122   9.310   5.778   1.331  0.0513  0.5322  0.0142
   38MOL0     N 5123   9.381   5.677   1.410 -0.0812 -0.4676  0.4078
   38MOL0     C 5124   9.431   5.684   1.538  0.2529 -0.4488 -0.0247
   38MOL0     C 5125   9.486   5.559   1.548  0.3853  0.4773  0.1290
   38MOL0     C 5126   9.569   5.507   1.659 -0.1302  0.1916 -0.9322
   38MOL0     C 5127   9.481   5.464   1.774 -0.1415  1.2098  0.0734
   38MOL0     C 5128   9.578   5.444   1.897 -0.1684 -0.2749  0.1527
   38MOL0     C 5129   9.666   5.319   1.908  0.9551 -1.0135 -0.3284
   38MOL0     O 5130   9.781   5.312   1.822 -0.2439 -0.0731  0.0485
   38MOL0     C 5131   9.902   5.371   1.867 -0.7696  0.5775 -0.3596
   38MOL0     C 5132   9.923   5.416   2.000 -0.0251 -0.0545  0.4285
   38MOL0     C 5133  10.040   5.491   2.034 -0.2979  0.1449  0.4236
   38MOL0     C 5134  10.044   5.556   2.172 -0.7598  0.5754 -0.1355
   38MOL0     C 5135  10.146   5.506   1.935 -0.0074  1.1520 -0.6568
   38MOL0     C 5136  10.275   5.571   1.959  0.1466 -0.2171  0.5356
   38MOL0     O 5137  10.348   5.620   1.847  1.0824 -0.7142 -0.4377
   38MOL0     C 5138  10.442   5.725   1.861  0.3264  0.4716  0.2302
   38MOL0     C 5139  10.563   5.710   1.925 -0.1192  1.2531 -0.0742
   38MOL0     C 5140  10.651   5.821   1.943  0.5749 -0.2493 -0.1533
   38MOL0     C 5141  10.618   5.953   1.888 -0.8129  0.2387 -0.3796
   38MOL0     O 5142  10.693   6.071   1.896 -0.5435 -0.2119 -0.4131
   38MOL0     C 5143  10.830   6.057   1.944 -0.2365 -0.0477 -0.5587
   38MOL0     C 5144  10.917   6.150   1.865 -0.0473 -0.4880  0.1985
   38MOL0     C 5145  11.060   6.158   1.931  0.0318  0.6528 -0.0805
   38MOL0     C 5146  11.132   6.294   1.907 -0.4648  0.4824 -0.6127
   38MOL0     C 5147  11.278   6.294   1.950 -0.4743  0.1559 -0.1323
   38MOL0     C 5148  11.349   6.432   1.930 -0.1374  0.6043 -0.0632
   38MOL0     C 5149  11.499   6.418   1.971  0.8071  0.5006 -0.4177
   38MOL0     C 5150  11.578   6.545   1.988 -0.7048  0.5394 -0.3416
   38MOL0    Cl 5151  11.728   6.500   2.096  0.1166  0.4290  0.0446
   38MOL0     C 5152  10.499   5.958   1.809 -0.2402  0.5140  0.1730
   38MOL0     C 5153  10.417   5.839   1.795 -0.3285 -0.5516 -0.4950
   38MOL0     O 5154  10.312   5.587   2.072 -0.1230  0.3359 -0.3300
   38MOL0     C 5155  10.124   5.449   1.803  0.3867  0.2267  0.1898
   38MOL0     C 5156   9.998   5.393   1.772 -0.2771  0.0626 -0.3620
   38MOL0     N 5157   9.465   5.484   1.436 -0.2982  0.1764  0.5862
   38MOL0     N 5158   9.411   5.554   1.352  0.4485 -0.3714  0.0558
   38MOL0     C 5159   8.448   6.386   1.137  0.2200  0.4142 -0.2678
   38MOL0     C 5160   8.310   6.430   1.135 -0.1971 -0.1562 -0.9082
   38MOL0     C 5161   7.925   6.607   0.935  0.9230 -0.2229 -1.3038
   38MOL0     C 5162   7.875   6.478   0.954  0.2478  0.3032  1.2334
   38MOL0     C 5163   7.748   6.447   0.928  0.2191  0.2188 -0.0110
   38MOL0     C 5164   7.660   6.546   0.881  0.0600  0.2068 -0.4816
   38MOL0     O 5165   7.530   6.501   0.872  0.3831  0.0094  0.3618
   38MOL0     C 5166   7.447   6.588   0.794  0.0528 -0.3294 -0.3145
   38MOL0     C 5167   7.315   6.537   0.748 -0.4412 -1.0503 -0.1589
   38MOL0     C 5168   7.308   6.392   0.719  0.6428  0.2073 -0.2707
   38MOL0     C 5169   7.175   6.353   0.647 -1.5261  0.6843 -0.2218
   38MOL0     C 5170   7.068   6.352   0.736  0.1989  0.1735  0.2307
   38MOL0     C 5171   6.983   6.346   0.817 -0.0923  0.5378  0.8318
   38MOL0     C 5172   7.707   6.676   0.855 -0.0219  0.8016 -0.1412
   38MOL0     C 5173   7.838   6.707   0.881 -0.2529 -0.4882 -1.1813
   38MOL0     C 5174   7.883   6.850   0.846  0.2628 -0.0478 -0.1866
   38MOL0     H 5175   8.323   6.560   0.824  1.6006 -0.8094 -1.5917
   38MOL0     H 5176   8.548   6.502   0.835  2.4885  0.6848  1.5988
   38MOL0     H 5177   8.663   6.176   1.135 -1.3953  0.9382  1.9064
   38MOL0     H 5178   8.706   6.320   1.240 -0.3038  0.6584 -0.4421
   38MOL0     H 5179   8.867   6.199   1.016 -1.1115  5.0716 -1.3559
   38MOL0     H 5180   8.917   6.329   1.110 -1.4739  0.9124 -0.4347
   38MOL0     H 5181   8.941   6.184   1.325 -2.3194 -3.6440  1.5054
   38MOL0     H 5182   8.858   6.070   1.238 -0.9596  1.4221  0.7309
   38MOL0     H 5183   9.043   6.051   1.064  1.0589 -2.9815  0.7559
   38MOL0     H 5184   9.121   6.194   1.120  0.6747 -1.1210  0.0889
   38MOL0     H 5185   9.098   5.947   1.287 -1.1864 -0.2221 -0.3127
   38MOL0     H 5186   9.162   6.104   1.350  0.8278 -0.7099  0.9515
   38MOL0     H 5187   9.277   5.922   1.133  0.3127  1.0314 -1.0245
   38MOL0     H 5188   9.349   6.073   1.177  0.4131  0.0545  1.2196
   38MOL0     H 5189   9.372   5.974   1.419  2.0482  1.1145 -1.0773
   38MOL0     H 5190   9.485   5.921   1.299  1.0310  1.7785  2.7514
   38MOL0     H 5191   9.209   5.783   1.372 -0.2044 -0.5267 -0.4755
   38MOL0     H 5192   9.303   5.740   1.229  0.2797 -1.4226  0.6827
   38MOL0     H 5193   9.437   5.754   1.620 -2.2096 -1.0201  0.7252
   38MOL0     H 5194   9.637   5.585   1.693  1.9001 -1.1563 -1.7290
   38MOL0     H 5195   9.623   5.419   1.622  0.3451 -1.5320  3.2950
   38MOL0     H 5196   9.413   5.546   1.796  1.3724  2.3657  0.6549
   38MOL0     H 5197   9.428   5.370   1.753  1.9329 -0.3225  1.2307
   38MOL0     H 5198   9.637   5.532   1.922 -0.8089 -0.2710  1.7715
   38MOL0     H 5199   9.507   5.447   1.980  0.5453  0.7589  0.7481
   38MOL0     H 5200   9.685   5.298   2.014 -0.7769 -2.7922 -0.3056
   38MOL0     H 5201   9.605   5.232   1.881  1.9543 -2.4973  1.8735
   38MOL0     H 5202   9.842   5.392   2.068 -1.5345 -1.3645 -1.7160
   38MOL0     H 5203  10.047   5.481   2.251  0.5926  1.2772  0.5099
   38MOL0     H 5204   9.943   5.598   2.182 -0.8416  0.0702  1.3223
   38MOL0     H 5205  10.114   5.639   2.180  0.5549 -0.3005 -1.9243
   38MOL0     H 5206  10.580   5.613   1.969 -0.3539  0.4606 -1.6612
   38MOL0     H 5207  10.737   5.809   2.008 -0.8009 -2.5275  1.3799
   38MOL0     H 5208  10.829   6.089   2.049  2.0035  0.6294 -0.6932
   38MOL0     H 5209  10.874   5.957   1.946  1.7659  0.7846 -0.4983
   38MOL0     H 5210  10.934   6.107   1.766  0.1638 -0.1997  0.1090
   38MOL0     H 5211  10.868   6.248   1.858  2.2055  0.8228  1.6491
   38MOL0     H 5212  11.132   6.084   1.893 -1.3830 -0.6783 -0.2719
   38MOL0     H 5213  11.044   6.153   2.039 -2.3655 -0.3377 -0.4137
   38MOL0     H 5214  11.080   6.372   1.964  0.4844  1.4033 -0.9697
   38MOL0     H 5215  11.132   6.329   1.803  0.4745  1.8934 -0.1805
   38MOL0     H 5216  11.281   6.271   2.057  0.5787 -4.3905 -0.9043
   38MOL0     H 5217  11.335   6.219   1.894 -0.7597  0.3768 -0.7316
   38MOL0     H 5218  11.304   6.502   2.001  0.1411 -0.6354  1.3962
   38MOL0     H 5219  11.338   6.470   1.829 -1.5231  2.1453  0.6307
   38MOL0     H 5220  11.560   6.374   1.891  0.2422 -0.1541 -0.5023
   38MOL0     H 5221  11.504   6.350   2.057 -2.0059  0.5681 -0.1144
   38MOL0     H 5222  11.525   6.629   2.032  1.2939  3.0221 -2.4045
   38MOL0     H 5223  11.614   6.571   1.888  0.7582 -0.5589 -0.1526
   38MOL0     H 5224  10.481   6.055   1.764  1.8368  0.6452 -0.4671
   38MOL0     H 5225  10.327   5.848   1.735 -0.0677  1.6832 -0.6192
   38MOL0     H 5226  10.198   5.469   1.726 -1.4875  0.9637 -1.5327
   38MOL0     H 5227   9.983   5.367   1.667  1.4129  0.8098 -0.8204
   38MOL0     H 5228   8.465   6.328   1.227 -3.0537 -0.0423  0.1558
   38MOL0     H 5229   8.267   6.424   1.234  2.7727 -3.2413  0.3879
   38MOL0     H 5230   7.933   6.401   1.004  0.9459 -1.8915 -2.5887
   38MOL0     H 5231   7.697   6.352   0.938 -0.2785  0.5740  0.9316
   38MOL0     H 5232   7.421   6.672   0.859  2.8786 -1.6068  2.7929
   38MOL0     H 5233   7.495   6.619   0.701 -0.7194  0.6540 -0.4029
   38MOL0     H 5234   7.297   6.593   0.656  1.6798  0.7602  0.4622
   38MOL0     H 5235   7.240   6.567   0.821 -0.0496 -1.7979  0.5702
   38MOL0     H 5236   7.384   6.358   0.648 -1.1711  0.8904 -2.7072
   38MOL0     H 5237   7.316   6.335   0.811 -0.9130 -0.5474 -0.5636
   38MOL0     H 5238   7.194   6.253   0.607  0.5910  1.4927 -1.4016
   38MOL0     H 5239   7.155   6.422   0.565 -1.7906  0.4418 -0.3659
   38MOL0     H 5240   6.906   6.331   0.890 -1.0512  1.3275  0.0180
   38MOL0     H 5241   7.642   6.752   0.814 -1.1470 -0.5678 -0.9678
   38MOL0     H 5242   7.966   6.852   0.775  1.0978 -1.6672  0.6859
   38MOL0     H 5243   7.796   6.895   0.798 -1.4968 -2.2841  0.6929
   38MOL0     H 5244   7.908   6.909   0.935  0.7812 -0.5976  0.0416
   39MOL0     O 5245   4.587   0.685  10.397 -0.2321  0.7454  0.5165
   39MOL0     C 5246   4.580   0.809  10.383 -0.6730 -0.1372 -0.1502
   39MOL0     O 5247   4.653   0.883  10.289 -0.2023 -0.2753 -0.3327
   39MOL0     C 5248   4.761   0.840  10.233  0.2493  0.1299 -0.0699
   39MOL0     C 5249   4.853   0.941  10.192  0.1138  0.3436 -0.1140
   39MOL0     C 5250   4.963   0.912  10.116  0.5125  0.2159  0.2209
   39MOL0     C 5251   4.979   0.782  10.068 -0.0017 -0.2230 -0.5343
   39MOL0     O 5252   5.092   0.772  10.002  0.4165  0.4380 -0.4324
   39MOL0     C 5253   5.164   0.643  10.011  0.2683 -0.3549 -0.2247
   39MOL0     C 5254   5.298   0.660   9.951 -0.0655  0.0477  0.0783
   39MOL0     C 5255   5.416   0.600  10.028  0.1913  0.2204 -0.8746
   39MOL0     C 5256   5.547   0.641   9.959 -0.1781 -0.7785 -0.6762
   39MOL0     C 5257   5.663   0.564  10.027 -0.0944 -0.0866  0.5920
   39MOL0     C 5258   5.794   0.560   9.946 -0.5192 -0.4098  0.0439
   39MOL0     C 5259   5.842   0.709   9.906  0.0243  0.2168  0.9553
   39MOL0     C 5260   5.981   0.702   9.847 -0.8637  0.2441  0.1210
   39MOL0     N 5261   5.968   0.643   9.711 -0.3488  0.0527 -0.2686
   39MOL0     C 5262   5.956   0.716   9.594  0.4808  0.3501 -0.2190
   39MOL0     C 5263   5.973   0.621   9.496  0.0852 -0.6798  0.9899
   39MOL0     C 5264   5.994   0.640   9.343 -0.5404 -0.1665 -0.2327
   39MOL0     C 5265   6.114   0.730   9.300  0.9327 -0.2152  0.2298
   39MOL0     C 5266   6.238   0.715   9.390 -0.1471  0.3014  0.5305
   39MOL0     C 5267   6.372   0.776   9.327  0.3990  0.6034 -0.7396
   39MOL0     O 5268   6.478   0.751   9.417  0.1343 -0.1186  0.0076
   39MOL0     C 5269   6.605   0.787   9.390  0.2424 -0.8872  0.0160
   39MOL0     C 5270   6.690   0.772   9.496  0.8704  0.4258 -0.2947
   39MOL0     C 5271   6.824   0.802   9.491 -0.3700  0.0037  0.1447
   39MOL0     C 5272   6.907   0.786   9.611 -0.2770  0.1035  0.0710
   39MOL0     C 5273   6.878   0.842   9.367 -0.0285  0.5282  0.1925
   39MOL0     C 5274   7.021   0.872   9.347 -0.1327 -0.3484  0.2258
   39MOL0     O 5275   7.051   0.991   9.284  0.3613 -0.3058  0.4750
   39MOL0     C 5276   7.177   1.045   9.292 -0.8195 -0.1645  0.0106
   39MOL0     C 5277   7.241   1.059   9.419  0.6734 -0.5684 -0.2378
   39MOL0     C 5278   7.354   1.142   9.429  0.8203  0.3453  0.4734
   39MOL0     C 5279   7.412   1.188   9.307 -0.1891 -0.0651 -0.0291
   39MOL0     O 5280   7.525   1.272   9.335 -0.1360  0.3790 -0.1936
   39MOL0     C 5281   7.603   1.310   9.217 -0.6319  0.3604 -0.2873
   39MOL0     C 5282   7.720   1.416   9.234  0.6378  0.5434 -0.0024
   39MOL0     C 5283   7.781   1.449   9.094  0.0798 -0.3589  0.0605
   39MOL0     C 5284   7.882   1.332   9.053  0.1407  0.2211  0.0735
   39MOL0     C 5285   7.971   1.355   8.929 -0.5411 -0.4379 -0.2769
   39MOL0     C 5286   8.070   1.241   8.888  0.2427 -0.1081 -0.4936
   39MOL0     C 5287   8.200   1.211   8.970 -0.0551  0.6341 -0.4181
   39MOL0     C 5288   8.321   1.158   8.899  0.5049  0.0812 -0.2006
   39MOL0    Cl 5289   8.374   1.262   8.769  0.0591 -0.2264 -0.1343
   39MOL0     C 5290   7.363   1.147   9.179  0.3033  0.5509 -0.7685
   39MOL0     C 5291   7.241   1.086   9.174  0.7343  0.0200 -0.0580
   39MOL0     O 5292   7.107   0.796   9.397 -0.0199 -0.2406 -0.8166
   39MOL0     C 5293   6.793   0.869   9.257  0.1047  0.6338  0.1345
   39MOL0     C 5294   6.659   0.840   9.268 -0.0706 -0.3425 -0.3734
   39MOL0     N 5295   5.994   0.504   9.553 -0.9676 -0.6859 -0.6137
   39MOL0     N 5296   5.994   0.515   9.679 -0.2428 -0.1448 -0.1092
   39MOL0     C 5297   4.892   0.684  10.095 -0.8956 -0.1332 -0.7326
   39MOL0     C 5298   4.785   0.709  10.185  0.5291 -0.0977  0.6898
   39MOL0     C 5299   4.499   0.885  10.478 -0.8461  0.1447 -0.1128
   39MOL0     C 5300   4.401   0.818  10.556 -0.5766  0.6399  0.0979
   39MOL0     C 5301   4.316   0.879  10.650  0.4380  0.1158 -0.9973
   39MOL0     C 5302   4.328   1.015  10.669  1.0290 -0.2229  0.8328
   39MOL0     O 5303   4.251   1.063  10.768  0.3171 -0.5009  0.3995
   39MOL0     C 5304   4.111   1.075  10.729 -0.9931  0.1036  0.0955
   39MOL0     C 5305   4.024   1.053  10.854  0.1628  0.5035 -0.3958
   39MOL0     C 5306   3.884   1.125  10.840 -0.4619  0.2413 -0.7541
   39MOL0     C 5307   3.812   1.158  10.969  0.2739 -0.2789  0.1691
   39MOL0     C 5308   3.670   1.168  10.940  0.0689  0.6074  0.4709
   39MOL0     C 5309   3.549   1.162  10.912  0.3719  0.0302 -0.0914
   39MOL0     C 5310   4.431   1.080  10.606 -0.2391 -0.1067  0.7450
   39MOL0     C 5311   4.507   1.024  10.502 -0.0529 -0.1100  0.1812
   39MOL0     C 5312   4.604   1.126  10.439  0.2434 -0.2347  0.3957
   39MOL0     H 5313   4.853   1.048  10.210  3.4817  0.4810 -0.2865
   39MOL0     H 5314   5.032   0.990  10.086 -1.1780  1.8396  0.3663
   39MOL0     H 5315   5.106   0.563   9.963  0.6029 -0.7890  0.0812
   39MOL0     H 5316   5.172   0.604  10.113 -0.8686 -1.4251 -0.5119
   39MOL0     H 5317   5.303   0.614   9.852 -0.6560 -2.1931  1.0444
   39MOL0     H 5318   5.324   0.767   9.948  2.8287 -0.5545  0.5753
   39MOL0     H 5319   5.415   0.637  10.131 -1.5628 -0.5252 -0.5816
   39MOL0     H 5320   5.403   0.491  10.033 -0.0597  0.1547 -2.3852
   39MOL0     H 5321   5.538   0.627   9.850 -2.3687  1.4522 -0.8701
   39MOL0     H 5322   5.551   0.750   9.967 -2.2326 -0.6386 -0.7945
   39MOL0     H 5323   5.634   0.460  10.046  0.0689 -0.9369 -3.1144
   39MOL0     H 5324   5.680   0.615  10.122  2.0822 -1.5385  1.0492
   39MOL0     H 5325   5.877   0.511   9.999  0.0044  1.4438  1.0114
   39MOL0     H 5326   5.784   0.495   9.859  0.9100 -0.5011 -0.0857
   39MOL0     H 5327   5.858   0.763  10.000 -0.0022  1.1712  0.4160
   39MOL0     H 5328   5.768   0.745   9.835 -0.4573 -4.6052 -1.4179
   39MOL0     H 5329   6.030   0.799   9.844 -1.0162  0.3188  0.0309
   39MOL0     H 5330   6.053   0.640   9.902  3.2297  1.7930 -2.9406
   39MOL0     H 5331   5.956   0.823   9.575 -2.0174  0.6214  0.9998
   39MOL0     H 5332   5.903   0.670   9.289 -1.2516 -1.6780  0.0983
   39MOL0     H 5333   6.026   0.545   9.301 -0.3142 -1.1518  2.0535
   39MOL0     H 5334   6.145   0.705   9.198 -0.7675  1.2470 -0.7054
   39MOL0     H 5335   6.075   0.832   9.307  0.2229 -0.2470 -2.2363
   39MOL0     H 5336   6.216   0.768   9.483  0.3827 -0.1867  0.9386
   39MOL0     H 5337   6.261   0.612   9.418  0.0052  0.5162  1.2045
   39MOL0     H 5338   6.389   0.727   9.231 -0.8268 -0.2824 -0.5294
   39MOL0     H 5339   6.364   0.885   9.318 -0.8349  0.5865 -0.0707
   39MOL0     H 5340   6.654   0.724   9.587  1.9496  1.7915  0.8833
   39MOL0     H 5341   6.965   0.694   9.596  2.0089  1.6811 -1.3603
   39MOL0     H 5342   6.847   0.789   9.702 -1.4258  0.9086 -0.6919
   39MOL0     H 5343   6.972   0.873   9.620  0.2071  0.3982 -4.2766
   39MOL0     H 5344   7.198   1.027   9.513  3.5702 -2.6208  0.5261
   39MOL0     H 5345   7.386   1.177   9.527  0.2481  2.0657  0.0896
   39MOL0     H 5346   7.647   1.217   9.180  0.3005  1.1684 -1.2878
   39MOL0     H 5347   7.538   1.352   9.140  1.5584  0.8910 -1.9483
   39MOL0     H 5348   7.690   1.512   9.277  0.7568  0.9673 -0.8527
   39MOL0     H 5349   7.804   1.368   9.286  0.7600  0.1117 -0.5814
   39MOL0     H 5350   7.843   1.539   9.095 -0.2621 -0.0903 -1.2424
   39MOL0     H 5351   7.703   1.471   9.020 -0.9738 -2.3457  0.4972
   39MOL0     H 5352   7.828   1.237   9.043  0.4445 -0.0551  0.8813
   39MOL0     H 5353   7.944   1.299   9.137  1.1042  0.4756 -0.5228
   39MOL0     H 5354   7.904   1.370   8.844 -1.4239 -0.1795  0.4432
   39MOL0     H 5355   8.028   1.449   8.932 -0.7625 -0.2301 -1.8474
   39MOL0     H 5356   8.109   1.271   8.791  2.5364  0.0323  0.3985
   39MOL0     H 5357   8.014   1.147   8.882 -1.2805  0.4377  2.6061
   39MOL0     H 5358   8.183   1.138   9.049  1.7005  3.3141  2.7215
   39MOL0     H 5359   8.235   1.300   9.025  2.5607 -0.2392 -0.5092
   39MOL0     H 5360   8.307   1.058   8.857  0.5318 -0.6885  1.5391
   39MOL0     H 5361   8.404   1.152   8.970  2.1985  2.1194 -1.8554
   39MOL0     H 5362   7.406   1.188   9.088  1.7395  0.2878 -0.2287
   39MOL0     H 5363   7.184   1.069   9.083  0.2585  2.1784 -0.2198
   39MOL0     H 5364   6.823   0.910   9.161 -1.9203 -0.0623 -0.8576
   39MOL0     H 5365   6.587   0.872   9.193  1.2479  1.8732 -0.7582
   39MOL0     H 5366   4.906   0.584  10.055 -0.7077 -1.5395  2.5354
   39MOL0     H 5367   4.713   0.629  10.202  0.4288  0.2607  2.0792
   39MOL0     H 5368   4.406   0.710  10.546  1.2423  0.9009 -3.2017
   39MOL0     H 5369   4.253   0.821  10.717  0.9042 -1.6336 -2.0218
   39MOL0     H 5370   4.102   1.179  10.697  1.1558 -0.0899 -1.3336
   39MOL0     H 5371   4.085   1.014  10.642 -0.7404 -1.7164  1.2278
   39MOL0     H 5372   4.078   1.090  10.941  1.0407  0.8703 -1.0740
   39MOL0     H 5373   4.016   0.944  10.866 -2.4343  0.6294 -0.4849
   39MOL0     H 5374   3.905   1.216  10.784  0.6969 -1.8971 -4.1584
   39MOL0     H 5375   3.818   1.082  10.764 -0.9450  3.0900 -2.0587
   39MOL0     H 5376   3.852   1.254  10.999 -0.6289  0.2577 -0.3000
   39MOL0     H 5377   3.830   1.086  11.049 -0.5900 -1.4370 -0.6254
   39MOL0     H 5378   3.446   1.161  10.881  0.2947  1.8294  0.0195
   39MOL0     H 5379   4.451   1.183  10.637 -1.3220 -0.2671  2.0793
   39MOL0     H 5380   4.701   1.084  10.470 -0.0254 -2.9676 -2.0435
   39MOL0     H 5381   4.601   1.128  10.330  0.9562  0.3652  0.3842
   39MOL0     H 5382   4.587   1.229  10.472 -0.2912 -0.6647  1.5084
   40MOL0     O 5383   3.030   2.833   4.950  0.3306  0.4422 -0.4625
   40MOL0     C 5384   3.020   2.941   5.007 -0.6025 -0.0159 -0.9056
   40MOL0     O 5385   3.113   3.016   5.087 -0.3391  0.1197 -0.1184
   40MOL0     C 5386   3.236   2.956   5.112 -0.4041 -0.7314  0.0906
   40MOL0     C 5387   3.349   3.040   5.099 -0.8998  0.6247 -0.1818
   40MOL0     C 5388   3.475   2.990   5.137 -0.5445  0.4999  0.3720
   40MOL0     C 5389   3.497   2.854   5.187  0.3966  0.3004  0.4442
   40MOL0     O 5390   3.615   2.795   5.223 -0.3810  0.0944  0.4337
   40MOL0     C 5391   3.715   2.884   5.272 -0.6507 -1.3290  0.6213
   40MOL0     C 5392   3.842   2.818   5.297 -0.0180 -0.5191 -0.1741
   40MOL0     C 5393   3.816   2.723   5.405 -0.7483  1.3554 -0.9988
   40MOL0     C 5394   3.936   2.619   5.404 -0.1999  0.2296 -0.0478
   40MOL0     C 5395   4.069   2.670   5.482  0.3694 -0.5377 -0.6736
   40MOL0     C 5396   4.170   2.564   5.523 -0.0383  0.3294 -0.4012
   40MOL0     C 5397   4.268   2.617   5.632  0.5864 -0.2555 -0.7960
   40MOL0     C 5398   4.360   2.507   5.687  0.7950  1.5606  0.0357
   40MOL0     N 5399   4.287   2.387   5.740 -0.1898  0.3125 -0.1437
   40MOL0     C 5400   4.191   2.395   5.846  0.3948 -0.7812 -0.6759
   40MOL0     C 5401   4.142   2.271   5.852  0.9517  0.0053 -0.4204
   40MOL0     C 5402   4.032   2.220   5.944 -0.6592  0.6673  0.0595
   40MOL0     C 5403   3.908   2.321   5.944 -0.2042 -0.6428 -0.2728
   40MOL0     C 5404   3.868   2.357   5.799  0.5695  0.1236  0.3294
   40MOL0     C 5405   3.741   2.447   5.808 -0.2467 -0.2866  0.3005
   40MOL0     O 5406   3.717   2.489   5.673  0.0531  0.9060 -1.0796
   40MOL0     C 5407   3.588   2.522   5.641 -0.4303 -0.1589 -0.2264
   40MOL0     C 5408   3.498   2.577   5.732 -1.0805 -0.1350  0.2695
   40MOL0     C 5409   3.357   2.585   5.703 -0.2188  0.9617  0.4926
   40MOL0     C 5410   3.277   2.638   5.821 -0.1810  0.0648  0.4675
   40MOL0     C 5411   3.311   2.533   5.577  0.3335  1.0128 -0.7939
   40MOL0     C 5412   3.168   2.521   5.544  0.4912  0.3321 -0.2675
   40MOL0     O 5413   3.136   2.487   5.411 -0.0359  0.6729 -0.8749
   40MOL0     C 5414   3.009   2.463   5.357  0.1733 -0.1854 -0.1844
   40MOL0     C 5415   2.892   2.434   5.440  0.0282 -0.4701 -1.1607
   40MOL0     C 5416   2.769   2.408   5.385  0.7333  0.7564  0.4653
   40MOL0     C 5417   2.752   2.411   5.245 -0.0925 -0.3225  0.1939
   40MOL0     O 5418   2.631   2.368   5.185 -0.1943  0.3671  0.0840
   40MOL0     C 5419   2.515   2.446   5.207 -0.2558  0.8636  0.5289
   40MOL0     C 5420   2.475   2.500   5.070  0.7067  1.0082  0.0700
   40MOL0     C 5421   2.356   2.598   5.091 -0.1151 -0.1123 -0.2166
   40MOL0     C 5422   2.312   2.667   4.955 -0.0559 -0.5804  0.3906
   40MOL0     C 5423   2.217   2.787   4.956 -0.3311 -0.3847  0.2122
   40MOL0     C 5424   2.296   2.911   4.994  0.3851  0.2314  0.5131
   40MOL0     C 5425   2.209   3.037   5.013 -0.0220  0.8921  0.3234
   40MOL0     C 5426   2.128   3.047   5.143 -0.2765  0.6836 -0.5077
   40MOL0    Cl 5427   2.049   3.204   5.165  0.0606 -0.1680  0.2673
   40MOL0     C 5428   2.865   2.433   5.164  0.1982 -0.2701 -0.2507
   40MOL0     C 5429   2.992   2.458   5.220 -0.0878  0.2321  0.0046
   40MOL0     O 5430   3.081   2.541   5.626  0.6154 -0.0326 -0.4296
   40MOL0     C 5431   3.398   2.482   5.486 -0.7295  0.1397  0.3983
   40MOL0     C 5432   3.538   2.482   5.516  0.6095 -0.1552 -0.4691
   40MOL0     N 5433   4.206   2.194   5.757 -0.2000 -0.2619  0.5701
   40MOL0     N 5434   4.282   2.259   5.687  0.2811 -0.5292 -0.5826
   40MOL0     C 5435   3.379   2.778   5.181  0.3716 -0.4682 -0.3582
   40MOL0     C 5436   3.252   2.828   5.153 -0.6719  0.5214  0.1509
   40MOL0     C 5437   2.883   3.004   4.990 -1.1720 -1.3238  0.6736
   40MOL0     C 5438   2.879   3.144   4.986  0.0933  0.5517  0.9845
   40MOL0     C 5439   2.758   3.207   4.952  0.0786 -0.6589 -0.4619
   40MOL0     C 5440   2.643   3.137   4.929 -0.7195  1.0800  0.5137
   40MOL0     O 5441   2.516   3.186   4.906  0.1056 -0.3419  0.0631
   40MOL0     C 5442   2.505   3.318   4.853 -0.0877 -0.8272  0.7912
   40MOL0     C 5443   2.357   3.368   4.844 -0.5858  0.5650 -0.0494
   40MOL0     C 5444   2.276   3.283   4.746  0.6969 -0.5144 -0.3591
   40MOL0     C 5445   2.143   3.353   4.721  0.2183  0.8459  0.4736
   40MOL0     C 5446   2.048   3.257   4.662 -0.6498  1.0616  0.1806
   40MOL0     C 5447   1.974   3.180   4.615 -0.0193  1.0722  0.3114
   40MOL0     C 5448   2.643   2.997   4.948 -0.1449 -0.0120 -0.7339
   40MOL0     C 5449   2.765   2.931   4.981 -0.4321  0.3764 -0.5666
   40MOL0     C 5450   2.750   2.779   4.991 -0.3761  0.2085 -0.5868
   40MOL0     H 5451   3.341   3.146   5.076 -3.0144  1.5709  3.8939
   40MOL0     H 5452   3.560   3.055   5.117 -0.0108 -0.4074 -0.3771
   40MOL0     H 5453   3.677   2.943   5.355  2.7796  4.4037 -1.3170
   40MOL0     H 5454   3.732   2.970   5.206  0.5250 -0.2761  2.2326
   40MOL0     H 5455   3.884   2.767   5.210 -1.4847  0.3120 -1.4261
   40MOL0     H 5456   3.913   2.897   5.322 -0.4994  0.6828 -2.3420
   40MOL0     H 5457   3.804   2.775   5.500 -1.1913  3.9438 -2.3852
   40MOL0     H 5458   3.731   2.655   5.393 -0.3040  0.6168 -0.1574
   40MOL0     H 5459   3.900   2.528   5.453  0.6658 -0.5436 -0.8190
   40MOL0     H 5460   3.955   2.583   5.303 -0.8342  0.3622 -0.2206
   40MOL0     H 5461   4.028   2.717   5.572  0.7558 -0.4590 -0.5395
   40MOL0     H 5462   4.122   2.752   5.432 -1.5029 -0.1128 -2.0891
   40MOL0     H 5463   4.117   2.481   5.570 -1.4696  1.7917  0.6639
   40MOL0     H 5464   4.225   2.537   5.432  1.0775  1.1303  0.0117
   40MOL0     H 5465   4.219   2.664   5.718  1.0191  1.7075 -1.5566
   40MOL0     H 5466   4.341   2.692   5.599  0.2803  1.0836  1.3691
   40MOL0     H 5467   4.417   2.469   5.602 -2.6921 -2.0288 -1.0137
   40MOL0     H 5468   4.419   2.539   5.774 -2.6213 -0.8011  3.6108
   40MOL0     H 5469   4.169   2.484   5.904  0.9263  1.5775 -3.8343
   40MOL0     H 5470   4.066   2.220   6.048 -1.3883 -1.0550  0.3223
   40MOL0     H 5471   4.006   2.116   5.922 -2.3223  0.9219  0.6372
   40MOL0     H 5472   3.826   2.283   6.005 -2.1574  1.0723 -1.6850
   40MOL0     H 5473   3.949   2.410   5.993  0.6715 -0.8816 -0.5470
   40MOL0     H 5474   3.946   2.416   5.749 -2.3551  1.2956 -3.2859
   40MOL0     H 5475   3.847   2.264   5.747  1.7850  0.3217 -0.5596
   40MOL0     H 5476   3.650   2.407   5.853 -1.6272 -0.3606 -2.3472
   40MOL0     H 5477   3.776   2.531   5.869  2.6184 -2.1875  1.4863
   40MOL0     H 5478   3.526   2.607   5.832  0.8838  0.6530 -0.4692
   40MOL0     H 5479   3.340   2.687   5.895 -1.0200  2.0287 -0.0565
   40MOL0     H 5480   3.216   2.560   5.868  0.1345 -0.1248  0.5602
   40MOL0     H 5481   3.208   2.713   5.781 -0.1352 -0.3372 -0.3962
   40MOL0     H 5482   2.884   2.433   5.549 -1.5869  1.2657 -1.2167
   40MOL0     H 5483   2.681   2.392   5.446  0.3789  0.3568 -0.1334
   40MOL0     H 5484   2.431   2.386   5.242 -1.3973  2.4337  0.6075
   40MOL0     H 5485   2.535   2.530   5.274 -4.5341  0.7849  2.2147
   40MOL0     H 5486   2.564   2.550   5.031  2.0809 -1.3744 -0.0624
   40MOL0     H 5487   2.445   2.415   5.008  0.1334  0.4103  1.1441
   40MOL0     H 5488   2.384   2.682   5.155  0.6889 -0.5306 -0.0141
   40MOL0     H 5489   2.270   2.554   5.143 -0.3453  0.5962  0.0231
   40MOL0     H 5490   2.261   2.588   4.898  1.2750 -0.3436 -1.1918
   40MOL0     H 5491   2.402   2.687   4.896 -0.9612 -3.2384 -2.1748
   40MOL0     H 5492   2.172   2.795   4.857 -0.1548  1.1984  0.2360
   40MOL0     H 5493   2.136   2.777   5.029 -0.7603  1.3537  0.0119
   40MOL0     H 5494   2.359   2.935   4.908 -0.4364  1.1017  0.1382
   40MOL0     H 5495   2.367   2.903   5.077  2.8765 -0.4676 -1.5543
   40MOL0     H 5496   2.144   3.058   4.928  1.2548  0.7991 -0.7159
   40MOL0     H 5497   2.285   3.116   5.017  1.0599 -0.1762  3.1728
   40MOL0     H 5498   2.189   3.024   5.230 -1.0595 -3.6459 -0.9093
   40MOL0     H 5499   2.052   2.969   5.144 -0.0079  0.2750  3.6517
   40MOL0     H 5500   2.865   2.424   5.056  0.5156 -1.4526 -0.1676
   40MOL0     H 5501   3.084   2.480   5.167  0.8115 -0.7517  1.1013
   40MOL0     H 5502   3.373   2.430   5.394  1.0874  0.5723 -0.3961
   40MOL0     H 5503   3.599   2.428   5.445  1.0101 -1.2901  0.6896
   40MOL0     H 5504   3.383   2.673   5.208 -0.4743 -0.6125 -0.7651
   40MOL0     H 5505   3.174   2.755   5.173 -1.0083  0.8800  0.1541
   40MOL0     H 5506   2.967   3.204   5.008  0.4501  1.1178 -1.6814
   40MOL0     H 5507   2.767   3.313   4.928  0.0165 -1.4875 -4.9890
   40MOL0     H 5508   2.558   3.384   4.921 -0.7024  0.9783 -0.4105
   40MOL0     H 5509   2.546   3.327   4.752 -1.6116 -0.3651  0.1805
   40MOL0     H 5510   2.358   3.472   4.809 -1.8847  0.6456  0.1062
   40MOL0     H 5511   2.308   3.367   4.942 -1.4159  1.4902 -0.4397
   40MOL0     H 5512   2.337   3.272   4.656  2.7580 -1.2002  1.0606
   40MOL0     H 5513   2.265   3.182   4.788  0.5128  0.6507  2.5809
   40MOL0     H 5514   2.146   3.438   4.652 -0.2372 -1.7155 -2.9587
   40MOL0     H 5515   2.105   3.384   4.819  0.4126  1.1606  0.4529
   40MOL0     H 5516   1.902   3.109   4.578 -0.9285  2.2042 -0.1478
   40MOL0     H 5517   2.559   2.933   4.925  0.0841  0.0080 -1.7030
   40MOL0     H 5518   2.666   2.747   5.054  1.2415 -2.2168  0.4698
   40MOL0     H 5519   2.728   2.738   4.892  1.6618 -1.0536 -0.5677
   40MOL0     H 5520   2.843   2.732   5.022 -0.3599 -0.3013 -1.3908
   41MOL0     O 5521   7.451   6.552  10.443 -0.1844  0.6336 -0.6404
   41MOL0     C 5522   7.417   6.615  10.543  0.1745 -0.3776  0.8092
   41MOL0     O 5523   7.493   6.663  10.644 -0.1041  0.1970 -0.8816
   41MOL0     C 5524   7.626   6.645  10.634  0.2419 -0.2887 -0.8028
   41MOL0     C 5525   7.689   6.525  10.598 -0.0024  0.4405  0.1220
   41MOL0     C 5526   7.826   6.508  10.591  0.1527  0.2772  0.4223
   41MOL0     C 5527   7.909   6.619  10.618  0.6768 -0.5338  0.1562
   41MOL0     O 5528   8.050   6.616  10.606  0.4832 -1.2219 -0.5442
   41MOL0     C 5529   8.113   6.495  10.560 -0.3392 -0.6027 -0.6373
   41MOL0     C 5530   8.265   6.502  10.521  0.2111 -0.3007 -0.0897
   41MOL0     C 5531   8.346   6.510  10.644 -0.0915  0.7867  0.5245
   41MOL0     C 5532   8.479   6.442  10.632 -0.3198  0.5410 -0.4046
   41MOL0     C 5533   8.562   6.454  10.755  0.3235  0.4994 -0.4541
   41MOL0     C 5534   8.695   6.377  10.739  0.1938  0.4214 -0.4814
   41MOL0     C 5535   8.797   6.460  10.653 -0.6457  0.3344  0.4165
   41MOL0     C 5536   8.929   6.485  10.719  0.3247  0.7025  0.5562
   41MOL0     N 5537   8.987   6.348  10.743 -0.1231  0.4991 -0.5439
   41MOL0     C 5538   9.036   6.251  10.650  1.0313  0.1625  0.5810
   41MOL0     C 5539   9.101   6.155  10.716 -0.2013 -0.8196  0.3533
   41MOL0     C 5540   9.192   6.047  10.657  0.2959  0.4415  0.3087
   41MOL0     C 5541   9.332   6.071  10.723 -0.0364 -0.5434 -0.3858
   41MOL0     C 5542   9.431   5.965  10.680 -0.5059 -0.5169  0.3571
   41MOL0     C 5543   9.575   5.998  10.719 -0.3287  0.1254 -0.9032
   41MOL0     O 5544   9.581   6.055  10.846 -0.9459  0.0263 -0.1820
   41MOL0     C 5545   9.691   6.120  10.888 -0.3010  0.0011 -0.2420
   41MOL0     C 5546   9.674   6.212  10.987 -0.2459  0.3111  0.0820
   41MOL0     C 5547   9.774   6.300  11.023  0.0809 -0.8539  0.3136
   41MOL0     C 5548   9.726   6.410  11.113  0.2743 -0.1601 -0.4137
   41MOL0     C 5549   9.906   6.283  10.963  0.4028  0.6673 -0.0343
   41MOL0     C 5550  10.028   6.366  11.011  0.0638  0.1620  0.0280
   41MOL0     O 5551  10.049   6.380  11.146 -0.1274  0.1715  0.2541
   41MOL0     C 5552  10.172   6.423  11.179  0.4677  0.2253 -0.1032
   41MOL0     C 5553  10.265   6.331  11.226  0.4342  0.0188  0.7458
   41MOL0     C 5554  10.396   6.372  11.255 -0.9149 -0.0959 -0.2069
   41MOL0     C 5555  10.439   6.500  11.238  0.1273  0.1805  0.1891
   41MOL0     O 5556  10.559   6.559  11.259  0.5868 -0.2450 -0.0324
   41MOL0     C 5557  10.619   6.513  11.384  0.0310  0.6314 -0.5020
   41MOL0     C 5558  10.719   6.611  11.437 -0.1048 -0.6207 -0.3955
   41MOL0     C 5559  10.643   6.734  11.497  0.5080  0.5825 -0.3781
   41MOL0     C 5560  10.598   6.706  11.646  0.4355  0.3793  0.4781
   41MOL0     C 5561  10.539   6.827  11.708 -0.3742  0.0869 -0.5180
   41MOL0     C 5562  10.382   6.852  11.683  0.3583 -0.3841  0.2988
   41MOL0     C 5563  10.345   6.992  11.727 -0.5309 -0.5546  0.0728
   41MOL0     C 5564  10.204   7.002  11.755  0.3967  0.0183  0.4632
   41MOL0    Cl 5565  10.176   7.161  11.825 -0.1573 -0.3162 -0.1227
   41MOL0     C 5566  10.339   6.591  11.200 -0.2522 -0.2554 -0.6110
   41MOL0     C 5567  10.206   6.556  11.174 -0.3121  0.0124  0.1828
   41MOL0     O 5568  10.108   6.389  10.924 -0.1635 -0.0285  0.0521
   41MOL0     C 5569   9.927   6.184  10.856  0.2290 -0.0251 -1.1514
   41MOL0     C 5570   9.815   6.098  10.825 -0.5682  0.6351 -0.6540
   41MOL0     N 5571   9.060   6.174  10.847  0.0694  0.4760  0.0581
   41MOL0     N 5572   9.002   6.287  10.863 -0.1839 -0.1472 -0.0735
   41MOL0     C 5573   7.845   6.734  10.659  0.5068 -0.8293 -0.0848
   41MOL0     C 5574   7.710   6.744  10.681 -0.5946  0.2291 -0.1258
   41MOL0     C 5575   7.274   6.650  10.543  0.3388  0.3763 -0.4517
   41MOL0     C 5576   7.219   6.716  10.655  0.0040  1.3053 -0.1713
   41MOL0     C 5577   7.088   6.764  10.660 -0.1735 -0.3361  0.6906
   41MOL0     C 5578   7.006   6.755  10.548  0.1635 -0.2338 -0.2894
   41MOL0     O 5579   6.878   6.812  10.529 -0.2658 -0.5584 -1.0159
   41MOL0     C 5580   6.850   6.921  10.622  0.8496 -0.1088 -0.1821
   41MOL0     C 5581   6.767   6.880  10.743 -0.0208  0.0366 -1.0765
   41MOL0     C 5582   6.618   6.841  10.719 -0.4839  0.5345  0.2621
   41MOL0     C 5583   6.538   6.851  10.848  0.0365 -0.9071  0.0691
   41MOL0     C 5584   6.403   6.810  10.821  0.3893  0.7051 -0.4891
   41MOL0     C 5585   6.283   6.787  10.794  0.4538 -0.3702 -0.6022
   41MOL0     C 5586   7.052   6.680  10.437 -0.2513  0.1223 -0.8832
   41MOL0     C 5587   7.179   6.623  10.435  0.5842  0.2100 -0.0930
   41MOL0     C 5588   7.203   6.529  10.318  0.1464  0.5763 -0.7535
   41MOL0     H 5589   7.625   6.440  10.574 -1.4883  0.5649  3.1249
   41MOL0     H 5590   7.863   6.409  10.566  2.8469  1.3162 -0.0901
   41MOL0     H 5591   8.046   6.463  10.480 -1.9009 -1.4048  0.9124
   41MOL0     H 5592   8.104   6.428  10.647  0.2855 -0.3796 -0.3963
   41MOL0     H 5593   8.290   6.421  10.452  0.6437 -0.5688  0.3751
   41MOL0     H 5594   8.274   6.596  10.466  1.1132 -0.3683 -0.0719
   41MOL0     H 5595   8.356   6.615  10.671 -0.1952  1.5562 -2.1370
   41MOL0     H 5596   8.291   6.453  10.719 -0.8904  0.7550 -0.0745
   41MOL0     H 5597   8.448   6.338  10.620 -1.2268  0.6284  0.8854
   41MOL0     H 5598   8.541   6.476  10.549  3.1072 -1.2300  1.2607
   41MOL0     H 5599   8.502   6.422  10.842 -0.8957  2.6785 -0.4265
   41MOL0     H 5600   8.569   6.562  10.770 -4.4541  0.9237  0.4168
   41MOL0     H 5601   8.733   6.360  10.840  1.1520 -0.5926 -0.9917
   41MOL0     H 5602   8.676   6.275  10.705  0.1916 -0.8907  3.1182
   41MOL0     H 5603   8.761   6.560  10.628  4.2774  2.5204  0.8102
   41MOL0     H 5604   8.813   6.408  10.558  1.0869  0.8433  0.3924
   41MOL0     H 5605   8.990   6.540  10.647 -1.9856  3.1491  0.3216
   41MOL0     H 5606   8.929   6.545  10.811  3.1426  2.2335 -0.3137
   41MOL0     H 5607   9.046   6.270  10.543 -1.4038  0.5910  0.3820
   41MOL0     H 5608   9.190   6.046  10.547  1.9008 -0.1298  0.2569
   41MOL0     H 5609   9.165   5.945  10.685  1.4690 -0.6046 -2.0278
   41MOL0     H 5610   9.370   6.168  10.689  2.7687 -0.6816  1.9446
   41MOL0     H 5611   9.324   6.077  10.832 -1.4692 -0.8366 -0.4639
   41MOL0     H 5612   9.404   5.863  10.706  0.9190 -1.0156 -0.0211
   41MOL0     H 5613   9.435   5.985  10.572  1.2081  2.0622  0.8062
   41MOL0     H 5614   9.631   5.904  10.725 -2.3707 -1.3075 -2.5775
   41MOL0     H 5615   9.612   6.070  10.644  0.8226  1.0621  0.5192
   41MOL0     H 5616   9.576   6.219  11.033  0.9283  2.0436  2.5269
   41MOL0     H 5617   9.768   6.400  11.214  0.8183  0.2363 -0.6036
   41MOL0     H 5618   9.618   6.403  11.134 -0.4690  3.6198 -2.1871
   41MOL0     H 5619   9.741   6.511  11.076  0.3191  0.3971  1.0367
   41MOL0     H 5620  10.240   6.228  11.247  0.3524 -0.0679  0.2254
   41MOL0     H 5621  10.474   6.303  11.285 -1.6076 -0.2244  1.3596
   41MOL0     H 5622  10.545   6.491  11.461 -0.9591 -0.6230 -1.7715
   41MOL0     H 5623  10.672   6.420  11.363  0.2478  1.0937 -2.1171
   41MOL0     H 5624  10.761   6.571  11.529 -3.9251 -0.4050  1.6380
   41MOL0     H 5625  10.800   6.630  11.365  1.5788 -2.3547  0.9219
   41MOL0     H 5626  10.556   6.751  11.433  0.5229  0.7027 -0.3680
   41MOL0     H 5627  10.708   6.821  11.484  1.5402 -0.2552 -0.8851
   41MOL0     H 5628  10.680   6.685  11.715 -0.6344  1.8097  2.2888
   41MOL0     H 5629  10.530   6.622  11.655  0.3929  0.4169  0.5177
   41MOL0     H 5630  10.550   6.817  11.817 -2.0641  0.8821 -0.2412
   41MOL0     H 5631  10.594   6.914  11.670 -2.0541  0.6682 -1.7299
   41MOL0     H 5632  10.332   6.779  11.748  0.3478 -1.0999 -0.4975
   41MOL0     H 5633  10.353   6.837  11.579 -2.0569  1.7979  0.5771
   41MOL0     H 5634  10.366   7.051  11.637 -2.1754 -0.8167 -0.5199
   41MOL0     H 5635  10.403   7.038  11.807 -0.7112 -1.6025  0.8270
   41MOL0     H 5636  10.159   6.935  11.829  2.3606  0.8615  2.5536
   41MOL0     H 5637  10.147   6.982  11.663  2.3070  2.4202 -1.3955
   41MOL0     H 5638  10.368   6.696  11.201 -1.2639  0.0334  0.6695
   41MOL0     H 5639  10.140   6.628  11.126  1.3316 -0.3737 -2.9672
   41MOL0     H 5640  10.027   6.170  10.816  1.1727 -0.2907  1.1637
   41MOL0     H 5641   9.829   6.030  10.741  4.3015  0.7499 -0.2426
   41MOL0     H 5642   7.898   6.827  10.678 -1.9801  0.9333 -1.1230
   41MOL0     H 5643   7.673   6.837  10.721  0.2649  0.9905 -1.0361
   41MOL0     H 5644   7.277   6.744  10.742 -1.4143  4.3102 -0.0698
   41MOL0     H 5645   7.064   6.822  10.749  0.5584  0.3985  0.4188
   41MOL0     H 5646   6.942   6.974  10.647 -0.2135  2.0491 -0.6227
   41MOL0     H 5647   6.798   7.002  10.570  0.0032 -0.1230  0.6128
   41MOL0     H 5648   6.769   6.964  10.812 -0.8077 -0.5413 -0.3252
   41MOL0     H 5649   6.808   6.788  10.786  0.6570  1.6795  2.0602
   41MOL0     H 5650   6.585   6.920  10.649 -0.3057  1.1324  0.8458
   41MOL0     H 5651   6.608   6.740  10.678 -0.7887 -1.1244  4.0792
   41MOL0     H 5652   6.539   6.948  10.898 -4.8705 -1.3596  1.6331
   41MOL0     H 5653   6.581   6.777  10.917  0.3512 -2.5604 -1.8140
   41MOL0     H 5654   6.179   6.767  10.775  0.1149 -0.6081  1.3225
   41MOL0     H 5655   6.974   6.657  10.365 -2.0063 -0.4975  1.0892
   41MOL0     H 5656   7.226   6.429  10.356 -1.2763  0.0562 -1.2029
   41MOL0     H 5657   7.109   6.504  10.268 -0.7146 -3.5285  2.3126
   41MOL0     H 5658   7.280   6.561  10.247  1.1045 -0.2251 -0.1114
   42MOL0     O 5659   5.826   6.301   5.639 -0.1038  0.9397  0.0700
   42MOL0     C 5660   5.796   6.177   5.645 -0.5177 -0.2779  0.4319
   42MOL0     O 5661   5.824   6.080   5.551  0.5173 -0.7741  0.0174
   42MOL0     C 5662   5.910   6.130   5.458  0.3080 -0.7592 -0.0195
   42MOL0     C 5663   6.045   6.149   5.472 -0.0733 -0.7144 -0.5744
   42MOL0     C 5664   6.132   6.194   5.369  0.4807  0.3349  0.3370
   42MOL0     C 5665   6.072   6.213   5.242 -0.4454 -0.6309  0.1222
   42MOL0     O 5666   6.140   6.273   5.136 -0.3755 -0.2747  0.7847
   42MOL0     C 5667   6.284   6.291   5.146 -0.6351 -0.6557  0.4270
   42MOL0     C 5668   6.339   6.358   5.018 -1.1512 -0.4083  0.0263
   42MOL0     C 5669   6.494   6.372   5.033  0.2865 -0.2009  0.3636
   42MOL0     C 5670   6.559   6.431   4.905  0.7971 -0.3413  0.0127
   42MOL0     C 5671   6.701   6.484   4.915  1.0647  0.9067 -0.6170
   42MOL0     C 5672   6.746   6.550   4.787 -0.4532 -0.6336  0.1072
   42MOL0     C 5673   6.887   6.612   4.792 -0.0604  0.1614  0.7743
   42MOL0     C 5674   6.909   6.709   4.675  0.3817 -0.0740 -0.5147
   42MOL0     N 5675   7.035   6.775   4.679 -0.0660 -0.4885  1.0671
   42MOL0     C 5676   7.074   6.899   4.732  0.6485 -0.8295 -0.1035
   42MOL0     C 5677   7.203   6.899   4.706  0.4737  0.4014  0.0584
   42MOL0     C 5678   7.288   7.012   4.762 -0.5336 -0.5674 -0.2406
   42MOL0     C 5679   7.435   6.965   4.781  0.1423  0.2196  0.0813
   42MOL0     C 5680   7.501   6.959   4.643 -0.6121  0.8236 -0.3223
   42MOL0     C 5681   7.651   6.974   4.667  0.3979  0.1110 -0.2011
   42MOL0     O 5682   7.670   7.109   4.693 -0.6063 -0.5059  0.3019
   42MOL0     C 5683   7.800   7.148   4.705  0.6436 -0.0593  0.1001
   42MOL0     C 5684   7.825   7.282   4.722  0.6470 -0.9371 -0.0583
   42MOL0     C 5685   7.960   7.342   4.735 -0.1013 -0.2989 -0.5244
   42MOL0     C 5686   7.976   7.496   4.756  0.2157  0.0236 -0.3353
   42MOL0     C 5687   8.075   7.251   4.739  0.9295 -0.5947  0.2533
   42MOL0     C 5688   8.215   7.288   4.759  0.3195 -0.2143 -0.1507
   42MOL0     O 5689   8.289   7.199   4.836 -0.4475  0.2600 -1.1433
   42MOL0     C 5690   8.422   7.227   4.853 -0.3081 -0.0631  0.3859
   42MOL0     C 5691   8.511   7.238   4.743  0.1926 -0.1205  0.3386
   42MOL0     C 5692   8.647   7.253   4.755 -1.0340 -0.4300 -0.6589
   42MOL0     C 5693   8.700   7.263   4.885  0.3926  0.8951  0.1527
   42MOL0     O 5694   8.832   7.276   4.920 -0.2319  0.4805  0.0576
   42MOL0     C 5695   8.922   7.260   4.809  1.0644 -0.6319  0.4541
   42MOL0     C 5696   9.061   7.240   4.862  0.9217 -0.3586  0.1639
   42MOL0     C 5697   9.162   7.227   4.740 -0.3895 -0.0678 -0.1817
   42MOL0     C 5698   9.288   7.160   4.796  1.0433 -0.9207 -0.4661
   42MOL0     C 5699   9.377   7.087   4.690  0.3113 -0.2163  0.5314
   42MOL0     C 5700   9.494   7.025   4.761  0.2026  0.3301  0.1498
   42MOL0     C 5701   9.586   6.962   4.654  0.3288 -0.2491 -0.6951
   42MOL0     C 5702   9.713   6.934   4.723 -0.0475 -0.8073  0.0898
   42MOL0    Cl 5703   9.821   6.820   4.621 -0.1941 -0.0659 -0.1846
   42MOL0     C 5704   8.618   7.262   4.999  0.0404  0.4604  0.4025
   42MOL0     C 5705   8.479   7.252   4.984  0.9812  0.8777 -0.1878
   42MOL0     O 5706   8.256   7.384   4.694  0.3057 -0.0026  0.5835
   42MOL0     C 5707   8.045   7.116   4.725  1.3833  0.1370  0.7095
   42MOL0     C 5708   7.907   7.064   4.713 -0.2922  0.6741  0.0517
   42MOL0     N 5709   7.237   6.784   4.638  0.3929  0.2250  0.6423
   42MOL0     N 5710   7.139   6.703   4.632  0.9319 -0.1114 -0.4530
   42MOL0     C 5711   5.929   6.192   5.231  0.2132  0.1218  0.2216
   42MOL0     C 5712   5.858   6.160   5.340  0.2686 -0.4841  0.8538
   42MOL0     C 5713   5.722   6.128   5.766 -0.9653  0.1845 -0.1621
   42MOL0     C 5714   5.655   6.227   5.837 -0.7037  0.8484 -0.4873
   42MOL0     C 5715   5.561   6.184   5.930  0.5344  0.0363 -0.3588
   42MOL0     C 5716   5.542   6.055   5.968 -0.1170 -0.0043 -0.5169
   42MOL0     O 5717   5.447   6.024   6.061 -0.5488  0.2352 -0.1746
   42MOL0     C 5718   5.414   5.892   6.102 -0.0259 -0.5004 -0.6964
   42MOL0     C 5719   5.327   5.900   6.229 -0.7301 -0.2897  0.6653
   42MOL0     C 5720   5.186   5.962   6.194  0.3474 -0.1990  0.4552
   42MOL0     C 5721   5.088   5.962   6.314 -0.7632  0.3241  0.2855
   42MOL0     C 5722   4.954   5.952   6.257 -0.3486  0.4391 -0.3473
   42MOL0     C 5723   4.832   5.956   6.226  0.2419 -0.0849  0.2713
   42MOL0     C 5724   5.614   5.951   5.904  0.8974 -0.3393 -0.2076
   42MOL0     C 5725   5.701   5.984   5.796 -0.0529  0.5146 -0.4206
   42MOL0     C 5726   5.782   5.873   5.745  0.3861  0.2220 -0.3236
   42MOL0     H 5727   6.084   6.139   5.573 -0.3225  0.6429 -0.3254
   42MOL0     H 5728   6.238   6.215   5.383  0.3545  0.9884  0.3332
   42MOL0     H 5729   6.328   6.191   5.148 -0.0556 -0.3994  1.6879
   42MOL0     H 5730   6.305   6.346   5.239  0.9662  0.6786 -0.6765
   42MOL0     H 5731   6.320   6.299   4.928  2.9602 -3.2060  0.6842
   42MOL0     H 5732   6.310   6.464   5.015  0.0997 -0.0694 -1.7084
   42MOL0     H 5733   6.519   6.437   5.117  2.2419 -1.3339  0.7120
   42MOL0     H 5734   6.538   6.273   5.047  0.4241 -0.3629 -1.0185
   42MOL0     H 5735   6.550   6.370   4.815  0.3455  1.4864 -1.2344
   42MOL0     H 5736   6.496   6.517   4.882 -0.4848 -1.5190 -1.0791
   42MOL0     H 5737   6.763   6.399   4.946 -2.1657 -1.0557  1.0687
   42MOL0     H 5738   6.690   6.562   4.992 -0.4743 -0.6856  0.8875
   42MOL0     H 5739   6.741   6.475   4.707  0.1840  0.8619 -1.4075
   42MOL0     H 5740   6.675   6.630   4.765  1.5915  0.8627 -1.4744
   42MOL0     H 5741   6.961   6.532   4.786 -1.4553 -1.0575 -1.8633
   42MOL0     H 5742   6.905   6.674   4.880  0.7845  0.7224  0.2183
   42MOL0     H 5743   6.911   6.658   4.578  0.2252  2.7295 -2.0872
   42MOL0     H 5744   6.830   6.782   4.660  2.1108  1.9663 -0.1306
   42MOL0     H 5745   7.016   6.971   4.789  0.5886 -0.0764 -1.0730
   42MOL0     H 5746   7.262   7.025   4.868  0.9545 -0.0466  0.0861
   42MOL0     H 5747   7.277   7.105   4.705  0.4019 -0.6195 -0.5117
   42MOL0     H 5748   7.473   7.041   4.850 -2.0674  2.0150 -0.5610
   42MOL0     H 5749   7.442   6.872   4.837  1.3375  1.5128  2.2303
   42MOL0     H 5750   7.484   6.860   4.599  4.6587 -0.5430  0.0632
   42MOL0     H 5751   7.460   7.034   4.575 -0.3411 -0.8254 -2.4133
   42MOL0     H 5752   7.690   6.905   4.742  0.8329  0.9689  0.3822
   42MOL0     H 5753   7.684   6.942   4.568  0.7758 -1.8531  0.5225
   42MOL0     H 5754   7.743   7.353   4.713  0.9264 -0.7385 -1.2939
   42MOL0     H 5755   7.885   7.541   4.715 -0.7864  1.0272  2.6765
   42MOL0     H 5756   8.068   7.538   4.714 -0.6290 -0.4782 -2.8601
   42MOL0     H 5757   7.971   7.523   4.862 -2.8123 -0.2959 -0.3078
   42MOL0     H 5758   8.478   7.219   4.642  0.3900  0.5258  0.1506
   42MOL0     H 5759   8.705   7.253   4.663 -0.3169 -2.6867 -0.2594
   42MOL0     H 5760   8.885   7.178   4.746 -3.3222  1.0972  0.4160
   42MOL0     H 5761   8.938   7.350   4.749  1.5548 -0.0349  1.4652
   42MOL0     H 5762   9.090   7.327   4.921  4.4004 -0.8016 -0.6854
   42MOL0     H 5763   9.062   7.148   4.920 -2.6052  0.6475  2.0991
   42MOL0     H 5764   9.185   7.315   4.680  3.4199 -0.5648  0.3040
   42MOL0     H 5765   9.117   7.157   4.669  0.5781 -1.5277  0.5912
   42MOL0     H 5766   9.249   7.084   4.864 -1.3688  0.8335  0.2550
   42MOL0     H 5767   9.339   7.239   4.851 -1.2737  0.9971 -0.8646
   42MOL0     H 5768   9.325   7.013   4.628 -0.8435  1.7536 -0.9832
   42MOL0     H 5769   9.417   7.157   4.617 -1.0778 -0.9765 -1.0425
   42MOL0     H 5770   9.464   6.941   4.824 -0.1892 -0.6635 -1.3392
   42MOL0     H 5771   9.551   7.100   4.818  0.8021  0.2001 -0.2728
   42MOL0     H 5772   9.592   7.026   4.565 -1.4515  0.5967 -0.2653
   42MOL0     H 5773   9.537   6.868   4.627 -1.2207  0.7794 -1.7096
   42MOL0     H 5774   9.710   6.887   4.822  2.8078  0.7299  1.0243
   42MOL0     H 5775   9.761   7.031   4.737 -0.6534 -0.4101 -0.5523
   42MOL0     H 5776   8.652   7.275   5.101 -2.0096  0.9798  1.0603
   42MOL0     H 5777   8.420   7.253   5.075  1.1565  1.1482 -0.0728
   42MOL0     H 5778   8.117   7.035   4.730  0.9678 -0.3108 -0.1667
   42MOL0     H 5779   7.908   6.956   4.698  0.9970  0.4705  1.3304
   42MOL0     H 5780   5.885   6.213   5.134  0.0899  0.0064  0.2521
   42MOL0     H 5781   5.750   6.164   5.329  0.3106 -1.7221 -0.2744
   42MOL0     H 5782   5.660   6.334   5.824 -0.9695  0.9477  0.1846
   42MOL0     H 5783   5.507   6.260   5.986 -2.7235 -1.8809 -0.6280
   42MOL0     H 5784   5.360   5.835   6.026 -0.4354 -2.1819  0.7839
   42MOL0     H 5785   5.503   5.831   6.121  0.6668  1.0297  1.2797
   42MOL0     H 5786   5.377   5.952   6.311 -0.4453  0.3344  0.1107
   42MOL0     H 5787   5.324   5.794   6.255  3.5615 -0.7697 -0.0215
   42MOL0     H 5788   5.196   6.064   6.156  1.3879 -0.8615 -1.1258
   42MOL0     H 5789   5.144   5.892   6.122 -1.6850  0.6088  0.7802
   42MOL0     H 5790   5.102   6.057   6.365  3.6268 -0.0819  0.2664
   42MOL0     H 5791   5.109   5.885   6.389 -1.4389  0.2083  0.3620
   42MOL0     H 5792   4.727   5.943   6.206 -0.4400  1.7629  2.3508
   42MOL0     H 5793   5.592   5.845   5.913 -0.0500  0.0539  3.5292
   42MOL0     H 5794   5.865   5.905   5.680  0.5453 -3.0838 -2.0110
   42MOL0     H 5795   5.819   5.813   5.829  0.1905  0.5993  0.0323
   42MOL0     H 5796   5.725   5.808   5.677  0.5881  1.4912 -1.7786
   43MOL0     O 5797  10.075   5.550   4.815 -0.1974 -0.5779 -0.0839
   43MOL0     C 5798  10.055   5.527   4.935  0.4052 -0.6070 -0.3739
   43MOL0     O 5799  10.145   5.477   5.021  0.8101  0.3853 -0.6598
   43MOL0     C 5800  10.270   5.463   4.983 -0.4141 -0.1203  0.8888
   43MOL0     C 5801  10.315   5.334   4.955  0.1305 -0.5759  0.4740
   43MOL0     C 5802  10.446   5.314   4.909 -0.3546  0.1780  0.3408
   43MOL0     C 5803  10.538   5.419   4.892  0.2889 -0.7005  0.5552
   43MOL0     O 5804  10.650   5.399   4.829  0.9445 -0.2582  0.8003
   43MOL0     C 5805  10.744   5.498   4.794  0.1331  0.3539 -0.5156
   43MOL0     C 5806  10.868   5.445   4.731 -0.1918  1.2487 -0.5051
   43MOL0     C 5807  10.934   5.330   4.820 -0.8884 -0.0613 -0.0330
   43MOL0     C 5808  11.031   5.241   4.734 -0.7410 -0.8385  0.0983
   43MOL0     C 5809  11.168   5.316   4.723  0.3656  0.0431 -0.7009
   43MOL0     C 5810  11.263   5.225   4.643  0.1320  0.1111  0.5872
   43MOL0     C 5811  11.385   5.301   4.592 -0.7069 -0.6880  0.3233
   43MOL0     C 5812  11.501   5.216   4.550  0.2660  0.8738  0.8597
   43MOL0     N 5813  11.564   5.142   4.663  0.9960 -0.2322  0.0829
   43MOL0     C 5814  11.563   5.189   4.794  1.0509  0.3627  0.3982
   43MOL0     C 5815  11.644   5.108   4.858  0.4688  0.8058  0.1495
   43MOL0     C 5816  11.696   5.127   4.998 -0.1641  0.4722 -0.3467
   43MOL0     C 5817  11.847   5.154   5.005  0.0033  0.1750 -0.1763
   43MOL0     C 5818  11.884   5.160   5.157 -0.9489  0.5485  0.0929
   43MOL0     C 5819  12.037   5.185   5.162 -1.0227  0.2208  0.9170
   43MOL0     O 5820  12.082   5.185   5.298 -0.8816 -0.2953 -1.3672
   43MOL0     C 5821  12.216   5.165   5.321  0.0944 -0.4353 -0.4578
   43MOL0     C 5822  12.276   5.046   5.369 -0.1585 -0.5007  1.1048
   43MOL0     C 5823  12.416   5.019   5.375 -0.0125 -0.5426 -0.4069
   43MOL0     C 5824  12.463   4.886   5.432  0.5205  0.3766 -0.2984
   43MOL0     C 5825  12.507   5.123   5.347  0.5544 -1.1390  0.6153
   43MOL0     C 5826  12.649   5.125   5.364 -0.4881 -0.1313  0.4764
   43MOL0     O 5827  12.711   5.248   5.375  0.0828  0.7793  0.4420
   43MOL0     C 5828  12.850   5.246   5.374  0.2658 -0.0725 -0.9075
   43MOL0     C 5829  12.927   5.262   5.258 -0.0222 -0.2343 -0.1856
   43MOL0     C 5830  13.055   5.301   5.266  0.6229 -0.0678  0.4395
   43MOL0     C 5831  13.128   5.310   5.391 -1.0423 -0.4098 -0.3190
   43MOL0     O 5832  13.258   5.364   5.393  0.8198 -0.5199 -0.7174
   43MOL0     C 5833  13.342   5.305   5.496  0.5507 -0.2084  0.3659
   43MOL0     C 5834  13.479   5.284   5.427  0.5036  0.4799 -0.3053
   43MOL0     C 5835  13.558   5.408   5.427  1.0609  0.3417 -0.1649
   43MOL0     C 5836  13.706   5.376   5.386  0.4157  0.4435  0.0961
   43MOL0     C 5837  13.802   5.496   5.387 -0.6097 -0.7032 -0.0246
   43MOL0     C 5838  13.939   5.470   5.321 -0.5691 -0.1531 -0.1896
   43MOL0     C 5839  14.049   5.575   5.338  0.5389 -0.5559 -0.1066
   43MOL0     C 5840  14.192   5.512   5.324 -0.2698 -0.1022  0.6672
   43MOL0    Cl 5841  14.225   5.506   5.146  0.4575 -0.2848 -0.7764
   43MOL0     C 5842  13.058   5.277   5.508 -0.3074  1.2451 -0.0317
   43MOL0     C 5843  12.919   5.244   5.501  0.1778 -0.3220  0.0144
   43MOL0     O 5844  12.713   5.020   5.364 -0.4519  0.2038  0.0921
   43MOL0     C 5845  12.445   5.243   5.295  0.4526 -0.7316 -0.2504
   43MOL0     C 5846  12.312   5.265   5.288 -0.8878  0.0887 -0.8398
   43MOL0     N 5847  11.685   5.011   4.761 -0.2379 -0.3453 -0.3151
   43MOL0     N 5848  11.629   5.024   4.650 -0.0846 -0.3206  0.3997
   43MOL0     C 5849  10.483   5.549   4.917 -0.2464 -0.3354  0.3144
   43MOL0     C 5850  10.353   5.570   4.971 -0.6528  0.2518  0.2708
   43MOL0     C 5851   9.923   5.575   4.999  0.4229 -0.1395  0.2936
   43MOL0     C 5852   9.927   5.610   5.142  0.6141  0.9504 -0.9495
   43MOL0     C 5853   9.805   5.631   5.207  0.4234 -0.0521 -0.0539
   43MOL0     C 5854   9.686   5.628   5.143  0.3536  0.1930 -0.4805
   43MOL0     O 5855   9.567   5.643   5.202 -0.3937  0.2946 -0.0029
   43MOL0     C 5856   9.567   5.664   5.340 -0.6007 -0.2883  0.4372
   43MOL0     C 5857   9.433   5.617   5.385 -0.1494 -0.0347 -0.2303
   43MOL0     C 5858   9.322   5.707   5.340  0.0596  0.8131 -0.5132
   43MOL0     C 5859   9.180   5.646   5.367 -0.0309  0.0305 -1.1284
   43MOL0     C 5860   9.168   5.521   5.295  0.6250 -0.2683  0.1356
   43MOL0     C 5861   9.157   5.417   5.231 -0.5767  0.1237 -0.1819
   43MOL0     C 5862   9.677   5.606   5.010 -0.5578  0.1690 -0.8919
   43MOL0     C 5863   9.793   5.581   4.935  0.2033  0.2132  0.7179
   43MOL0     C 5864   9.778   5.542   4.791  1.0939 -0.3457 -0.3763
   43MOL0     H 5865  10.241   5.254   4.954  2.1363 -2.5529  1.0760
   43MOL0     H 5866  10.479   5.215   4.879  0.1262  0.4372 -0.0036
   43MOL0     H 5867  10.774   5.557   4.881 -1.0458 -2.1532  1.7208
   43MOL0     H 5868  10.694   5.569   4.728 -1.2836  0.7485  0.9189
   43MOL0     H 5869  10.851   5.403   4.631  3.4570  0.6445 -1.0129
   43MOL0     H 5870  10.932   5.529   4.702 -1.3280  1.5758 -2.2495
   43MOL0     H 5871  10.983   5.377   4.906  0.6959 -0.8207 -0.4912
   43MOL0     H 5872  10.862   5.258   4.859  0.3618 -1.0354  0.5293
   43MOL0     H 5873  11.054   5.151   4.792 -0.3921 -0.9186 -0.1624
   43MOL0     H 5874  10.988   5.208   4.639 -0.8186  1.9290 -0.9066
   43MOL0     H 5875  11.209   5.337   4.822 -0.3706  0.8023 -0.5411
   43MOL0     H 5876  11.157   5.420   4.690  0.6503  0.0514 -0.7656
   43MOL0     H 5877  11.288   5.134   4.698 -4.3956 -0.8520  1.4954
   43MOL0     H 5878  11.222   5.198   4.545  1.5174  2.6571 -0.7906
   43MOL0     H 5879  11.434   5.366   4.665 -0.8537 -0.5193  0.2709
   43MOL0     H 5880  11.346   5.371   4.517  0.0464 -0.7288 -0.1255
   43MOL0     H 5881  11.463   5.140   4.481  2.4231  0.7809 -0.3405
   43MOL0     H 5882  11.580   5.280   4.510  0.7548  1.5444  2.8087
   43MOL0     H 5883  11.520   5.280   4.833 -0.3356  0.2736 -0.8489
   43MOL0     H 5884  11.684   5.032   5.052 -0.4384  2.0754  2.5961
   43MOL0     H 5885  11.640   5.196   5.061  1.6416  1.7279 -0.0385
   43MOL0     H 5886  11.896   5.080   4.940  1.1140  2.3460 -1.9283
   43MOL0     H 5887  11.865   5.253   4.963 -1.0470 -0.5815 -2.6077
   43MOL0     H 5888  11.827   5.234   5.215  0.3611  0.8262  1.0708
   43MOL0     H 5889  11.867   5.067   5.212  2.4709 -1.6669 -2.2032
   43MOL0     H 5890  12.089   5.109   5.103 -1.0023  0.6864  0.3300
   43MOL0     H 5891  12.060   5.282   5.117  0.9755 -0.6033  0.0385
   43MOL0     H 5892  12.210   4.966   5.401 -0.8693  0.7312  2.8952
   43MOL0     H 5893  12.527   4.907   5.518  1.3967 -1.1663 -0.5427
   43MOL0     H 5894  12.510   4.833   5.349 -1.8538  0.3128 -1.6851
   43MOL0     H 5895  12.379   4.830   5.475  0.9877 -0.6204 -0.6628
   43MOL0     H 5896  12.880   5.257   5.160  1.5699  0.0339 -0.9873
   43MOL0     H 5897  13.104   5.315   5.170 -2.2220  1.1293 -0.9263
   43MOL0     H 5898  13.348   5.349   5.596 -0.2024 -3.0713  1.7967
   43MOL0     H 5899  13.314   5.203   5.526  1.2835  0.0529  2.0752
   43MOL0     H 5900  13.535   5.207   5.482  1.2568  2.0560  1.2460
   43MOL0     H 5901  13.454   5.250   5.326 -2.8497  0.3528  0.4604
   43MOL0     H 5902  13.550   5.462   5.521  2.0399 -0.6196  0.4962
   43MOL0     H 5903  13.508   5.469   5.351  1.5069  0.4610 -0.3676
   43MOL0     H 5904  13.706   5.353   5.279  1.8851  2.1874 -0.3335
   43MOL0     H 5905  13.739   5.298   5.454 -0.1982 -0.6799 -0.8622
   43MOL0     H 5906  13.757   5.568   5.317  1.9880 -0.6996 -1.8493
   43MOL0     H 5907  13.810   5.539   5.487  1.9687 -2.7495  0.7537
   43MOL0     H 5908  13.935   5.433   5.218 -2.8599  0.0843 -0.2460
   43MOL0     H 5909  13.985   5.392   5.381  0.4558  0.8008  0.3029
   43MOL0     H 5910  14.030   5.611   5.439  1.4655 -0.2032 -0.0433
   43MOL0     H 5911  14.036   5.658   5.267 -0.7378  1.0953  1.9309
   43MOL0     H 5912  14.190   5.412   5.367 -1.3717 -0.5351 -0.3317
   43MOL0     H 5913  14.264   5.565   5.387 -1.5669  2.3889  0.1767
   43MOL0     H 5914  13.117   5.281   5.599 -0.4220 -0.6679  0.1589
   43MOL0     H 5915  12.862   5.216   5.589 -1.0999  0.6311 -0.4696
   43MOL0     H 5916  12.515   5.318   5.260  0.2733 -1.3083 -1.9599
   43MOL0     H 5917  12.273   5.358   5.247  1.0733  1.3418  0.0368
   43MOL0     H 5918  10.548   5.636   4.907 -2.4768  1.4998  0.8068
   43MOL0     H 5919  10.309   5.666   4.997 -1.1866 -0.3233  1.5403
   43MOL0     H 5920  10.021   5.613   5.198  0.5542 -0.2177 -0.7725
   43MOL0     H 5921   9.803   5.660   5.311 -1.5731  0.8067 -0.2885
   43MOL0     H 5922   9.636   5.602   5.396  1.8100  1.7438 -0.0945
   43MOL0     H 5923   9.586   5.771   5.357  0.2609 -0.4666  0.6469
   43MOL0     H 5924   9.434   5.625   5.494  1.7400  0.4260 -0.2459
   43MOL0     H 5925   9.424   5.512   5.357  0.6991 -0.4076  0.8305
   43MOL0     H 5926   9.328   5.806   5.388 -0.6903 -1.1208  4.0639
   43MOL0     H 5927   9.333   5.716   5.232 -0.2604  0.9131 -0.5366
   43MOL0     H 5928   9.101   5.716   5.339 -0.5129 -1.0563 -2.6062
   43MOL0     H 5929   9.164   5.607   5.468  0.1780 -1.3622 -1.5994
   43MOL0     H 5930   9.136   5.319   5.193 -1.5758 -0.0886  0.8551
   43MOL0     H 5931   9.581   5.618   4.960 -0.6651 -0.2390 -0.7922
   43MOL0     H 5932   9.677   5.503   4.780  0.6604  0.3845  0.7777
   43MOL0     H 5933   9.792   5.626   4.723  0.3150  1.5097  1.6402
   43MOL0     H 5934   9.840   5.459   4.757  0.6617 -0.4839 -0.8283
   44MOL0     O 5935   4.563   2.265   2.718  0.0982  0.4143  0.0219
   44MOL0     C 5936   4.526   2.147   2.733 -0.4613  0.1866 -0.0353
   44MOL0     O 5937   4.601   2.038   2.686  0.7705 -0.1822  0.2854
   44MOL0     C 5938   4.741   2.030   2.704 -0.0090 -0.6024 -0.3335
   44MOL0     C 5939   4.825   2.133   2.755  0.4947  0.4115  0.5847
   44MOL0     C 5940   4.958   2.098   2.780  0.6274 -1.0290 -0.0162
   44MOL0     C 5941   5.018   1.978   2.725 -0.4512 -0.7453  0.4611
   44MOL0     O 5942   5.145   1.954   2.762 -0.1711  0.2123  0.0158
   44MOL0     C 5943   5.245   1.921   2.662  0.1509  0.2297 -0.0292
   44MOL0     C 5944   5.254   2.022   2.553 -0.0102 -0.5193  0.1447
   44MOL0     C 5945   5.379   2.007   2.468 -0.6285  0.7324 -1.0732
   44MOL0     C 5946   5.490   2.107   2.504 -0.4258  0.5373 -0.0271
   44MOL0     C 5947   5.621   2.081   2.435  0.4152 -0.6605  0.4281
   44MOL0     C 5948   5.626   2.103   2.282 -0.4408  0.1982  0.4149
   44MOL0     C 5949   5.761   2.076   2.218  0.0108 -0.1626  0.2251
   44MOL0     C 5950   5.786   1.931   2.200  0.4127  0.6153  0.1559
   44MOL0     N 5951   5.911   1.920   2.115 -0.1904  0.3056 -0.3738
   44MOL0     C 5952   5.960   1.798   2.067  0.1415 -0.8724  0.4155
   44MOL0     C 5953   6.092   1.817   2.060  0.4879 -0.2493  0.3703
   44MOL0     C 5954   6.200   1.702   2.029  0.4892 -0.7832  0.3941
   44MOL0     C 5955   6.332   1.756   1.951 -0.1607 -0.0414 -0.0534
   44MOL0     C 5956   6.432   1.644   1.924 -0.3303  0.5391 -0.8796
   44MOL0     C 5957   6.568   1.694   1.871 -0.6571 -0.3055 -0.0550
   44MOL0     O 5958   6.658   1.581   1.843  0.1750 -0.5093 -0.2788
   44MOL0     C 5959   6.781   1.611   1.787 -0.1690  0.3473 -0.1658
   44MOL0     C 5960   6.820   1.742   1.743  0.1032  1.0199 -0.7524
   44MOL0     C 5961   6.947   1.758   1.674  0.1553  0.8413  0.8386
   44MOL0     C 5962   6.972   1.895   1.620  0.0404 -0.1158  0.2506
   44MOL0     C 5963   7.027   1.639   1.649  0.3732  0.1003  0.4551
   44MOL0     C 5964   7.155   1.640   1.578  0.3527  0.4829  0.4518
   44MOL0     O 5965   7.245   1.707   1.646 -0.5941 -0.1752  0.0124
   44MOL0     C 5966   7.358   1.755   1.590 -0.2840 -0.5534 -0.1067
   44MOL0     C 5967   7.374   1.894   1.575  0.2791 -0.4862 -0.2257
   44MOL0     C 5968   7.483   1.950   1.518  0.2486 -0.7619  0.5058
   44MOL0     C 5969   7.595   1.865   1.483  0.1334 -0.2712  0.4259
   44MOL0     O 5970   7.697   1.914   1.408 -0.9813 -0.0326  0.1174
   44MOL0     C 5971   7.832   1.874   1.435 -1.2805 -0.3784 -0.2138
   44MOL0     C 5972   7.875   1.923   1.575 -0.8661 -0.8969 -0.7979
   44MOL0     C 5973   8.004   1.841   1.618  0.9051 -1.0151  0.1875
   44MOL0     C 5974   8.055   1.900   1.751 -0.3305 -0.3620  0.2918
   44MOL0     C 5975   8.173   1.828   1.807  0.5511  0.4026  0.7047
   44MOL0     C 5976   8.301   1.822   1.720  0.5633  0.5779 -0.5373
   44MOL0     C 5977   8.408   1.743   1.793  0.2889 -0.5856 -0.1982
   44MOL0     C 5978   8.544   1.781   1.743 -0.2218  0.2490 -0.3323
   44MOL0    Cl 5979   8.648   1.726   1.880 -0.5088 -0.2292  0.1970
   44MOL0     C 5980   7.587   1.730   1.510 -0.7533 -0.4511 -0.1591
   44MOL0     C 5981   7.464   1.680   1.550 -0.2986  0.1942  0.9327
   44MOL0     O 5982   7.177   1.583   1.470  0.8004 -0.0265 -0.1872
   44MOL0     C 5983   6.980   1.514   1.697  0.4825 -0.0579  0.5600
   44MOL0     C 5984   6.863   1.496   1.764 -0.7823  0.4757  0.0831
   44MOL0     N 5985   6.113   1.952   2.080 -0.4145 -0.3452  0.2166
   44MOL0     N 5986   6.010   2.011   2.112  0.1706 -0.4295 -0.6718
   44MOL0     C 5987   4.934   1.883   2.664  0.9867  0.8720  0.1121
   44MOL0     C 5988   4.796   1.910   2.652  0.1361  0.1910  0.3589
   44MOL0     C 5989   4.389   2.117   2.778 -0.0587  0.4167 -0.5575
   44MOL0     C 5990   4.366   1.982   2.808 -0.7484 -0.9246 -0.3389
   44MOL0     C 5991   4.243   1.932   2.859 -0.1673  0.3437  0.0663
   44MOL0     C 5992   4.145   2.024   2.885 -0.4259  0.1938 -0.0108
   44MOL0     O 5993   4.037   1.962   2.944 -0.0761  0.3941 -0.7487
   44MOL0     C 5994   3.946   2.056   3.002 -1.0811 -0.4109  0.1705
   44MOL0     C 5995   3.858   1.975   3.100  0.1754  0.1950  0.8831
   44MOL0     C 5996   3.784   2.069   3.186  0.0665  0.0836  0.0076
   44MOL0     C 5997   3.653   2.120   3.119  0.1491  0.6120 -0.1413
   44MOL0     C 5998   3.573   2.196   3.209  0.2588  0.3124 -1.1716
   44MOL0     C 5999   3.500   2.265   3.282 -0.3307  0.0217 -0.0547
   44MOL0     C 6000   4.165   2.155   2.843  1.8874  0.4979 -0.3773
   44MOL0     C 6001   4.283   2.207   2.800  0.1098  0.1327 -0.6394
   44MOL0     C 6002   4.301   2.358   2.787 -0.3069  0.0237  0.6748
   44MOL0     H 6003   4.780   2.228   2.784 -0.2044 -0.3759  2.2086
   44MOL0     H 6004   5.024   2.166   2.833  1.9310 -1.2172 -1.3290
   44MOL0     H 6005   5.214   1.829   2.612  0.6081 -0.2359  0.5276
   44MOL0     H 6006   5.341   1.901   2.710 -0.1259 -1.0094  0.0266
   44MOL0     H 6007   5.163   2.013   2.492  1.3016  0.9608 -2.1687
   44MOL0     H 6008   5.260   2.128   2.578  0.5870  0.1181 -2.3632
   44MOL0     H 6009   5.417   1.906   2.481 -1.7320  0.3176 -0.9830
   44MOL0     H 6010   5.350   2.014   2.362  2.3577 -2.3078 -2.2867
   44MOL0     H 6011   5.455   2.210   2.486 -1.0472  0.1759 -1.0064
   44MOL0     H 6012   5.509   2.093   2.611 -1.7284 -0.4139  0.1105
   44MOL0     H 6013   5.652   1.980   2.462  1.0745 -0.6951 -0.3904
   44MOL0     H 6014   5.702   2.143   2.475  2.5428 -2.1992 -1.2280
   44MOL0     H 6015   5.545   2.048   2.234  1.7535 -2.4639 -0.5190
   44MOL0     H 6016   5.612   2.211   2.272 -0.2574  0.0926 -1.1980
   44MOL0     H 6017   5.837   2.127   2.277  0.4302  1.8494 -1.9043
   44MOL0     H 6018   5.758   2.128   2.122 -1.6467  3.4620  2.0464
   44MOL0     H 6019   5.799   1.885   2.298 -1.2833  1.1667  0.6873
   44MOL0     H 6020   5.705   1.891   2.138  1.0096  1.2153 -1.0401
   44MOL0     H 6021   5.899   1.708   2.058 -1.3933  0.3320 -2.7624
   44MOL0     H 6022   6.151   1.618   1.979 -0.6480 -0.1358  0.3786
   44MOL0     H 6023   6.232   1.639   2.113 -0.7897 -1.4460  0.3956
   44MOL0     H 6024   6.293   1.798   1.857  0.1512  0.6520  0.1218
   44MOL0     H 6025   6.385   1.829   2.013  2.0464 -2.1157  0.6577
   44MOL0     H 6026   6.457   1.601   2.022 -1.1917  0.7368 -0.5664
   44MOL0     H 6027   6.385   1.572   1.857 -0.1437  2.3734 -3.1281
   44MOL0     H 6028   6.548   1.754   1.782 -1.8777  1.4539  1.3288
   44MOL0     H 6029   6.607   1.762   1.947 -2.3098  1.1819 -0.4716
   44MOL0     H 6030   6.749   1.823   1.759  1.5252  2.8170 -2.8931
   44MOL0     H 6031   6.959   1.895   1.512 -3.6051  0.7584  0.5336
   44MOL0     H 6032   7.072   1.934   1.637  1.2739 -2.1025 -1.8588
   44MOL0     H 6033   6.887   1.957   1.650 -2.1446  0.0337 -5.2093
   44MOL0     H 6034   7.300   1.967   1.605  1.4709  0.7839 -0.2808
   44MOL0     H 6035   7.475   2.058   1.507 -3.2843 -0.7770  1.8694
   44MOL0     H 6036   7.851   1.767   1.424  1.4790  0.2228 -2.3122
   44MOL0     H 6037   7.887   1.920   1.352  2.3537 -0.6788  1.7942
   44MOL0     H 6038   7.888   2.031   1.572 -1.7646 -0.7774 -3.5436
   44MOL0     H 6039   7.802   1.890   1.649  1.0742  0.1933  1.7190
   44MOL0     H 6040   8.087   1.850   1.547  2.6648  4.5241  2.3819
   44MOL0     H 6041   7.978   1.737   1.641  0.0058 -0.7846  0.2449
   44MOL0     H 6042   7.972   1.898   1.822 -0.5918 -1.9319 -0.0222
   44MOL0     H 6043   8.080   2.005   1.732 -0.6627 -0.4291 -0.5802
   44MOL0     H 6044   8.199   1.868   1.905 -0.8331  3.0720  0.0804
   44MOL0     H 6045   8.143   1.723   1.816  2.3848 -0.1929  0.2598
   44MOL0     H 6046   8.349   1.920   1.709  2.2363  0.0330  1.2895
   44MOL0     H 6047   8.279   1.786   1.619 -0.0599 -1.6074  0.3221
   44MOL0     H 6048   8.391   1.636   1.778 -0.2631 -0.5921  0.4102
   44MOL0     H 6049   8.395   1.761   1.900 -2.7451  0.8332 -0.6755
   44MOL0     H 6050   8.558   1.889   1.737 -1.3418  0.6619  2.7173
   44MOL0     H 6051   8.572   1.740   1.645  2.0401  0.9604 -0.0296
   44MOL0     H 6052   7.669   1.661   1.491 -0.3007  0.1013 -0.2453
   44MOL0     H 6053   7.458   1.572   1.563 -1.4874  0.1591  0.2192
   44MOL0     H 6054   7.033   1.422   1.675 -1.1770 -1.7221  3.0379
   44MOL0     H 6055   6.842   1.392   1.790  1.7812  0.0436  0.7276
   44MOL0     H 6056   4.972   1.795   2.612  0.7949  1.3804 -0.9087
   44MOL0     H 6057   4.732   1.841   2.599 -0.3470  1.9820 -1.5200
   44MOL0     H 6058   4.443   1.910   2.782  2.1360  1.0495  2.0122
   44MOL0     H 6059   4.228   1.826   2.882  0.6862 -0.2366 -1.9056
   44MOL0     H 6060   3.990   2.136   3.063 -1.9292  0.8660 -0.8200
   44MOL0     H 6061   3.878   2.107   2.932 -1.5972 -0.8746  0.3284
   44MOL0     H 6062   3.915   1.912   3.168 -0.7043 -0.4206  1.0789
   44MOL0     H 6063   3.790   1.906   3.048  0.6078 -0.3299  1.0058
   44MOL0     H 6064   3.762   2.016   3.279  1.2309 -0.9398 -0.2653
   44MOL0     H 6065   3.846   2.154   3.214 -0.7145  0.8612 -0.5802
   44MOL0     H 6066   3.590   2.033   3.095 -1.2327  1.3504  0.6951
   44MOL0     H 6067   3.649   2.179   3.027 -1.7315 -2.4432 -2.2306
   44MOL0     H 6068   3.452   2.320   3.359  1.3241 -1.6576  2.3110
   44MOL0     H 6069   4.082   2.224   2.850  1.2611 -0.2697 -0.0801
   44MOL0     H 6070   4.327   2.386   2.685 -1.1144 -1.1500  0.1235
   44MOL0     H 6071   4.202   2.402   2.806  0.4890  1.5027  1.5521
   44MOL0     H 6072   4.364   2.386   2.872 -0.6705  3.5738 -0.0812
   45MOL0     O 6073   2.745   9.975   3.758 -0.2042 -0.0275  0.0965
   45MOL0     C 6074   2.817   9.896   3.819  0.1085 -0.5290  0.4822
   45MOL0     O 6075   2.771   9.806   3.904  0.1811  0.4075  0.0120
   45MOL0     C 6076   2.636   9.771   3.893 -0.9040  0.4061 -0.2231
   45MOL0     C 6077   2.537   9.854   3.949  0.4090 -0.3441  0.3444
   45MOL0     C 6078   2.407   9.799   3.962 -0.4759 -0.1557 -0.2074
   45MOL0     C 6079   2.379   9.662   3.941 -0.9846  0.0699  0.3560
   45MOL0     O 6080   2.253   9.615   3.958 -0.1563  0.6621 -0.3275
   45MOL0     C 6081   2.163   9.675   4.042  0.0567 -0.3565  0.1946
   45MOL0     C 6082   2.039   9.596   4.043 -0.1417  0.1662 -0.0497
   45MOL0     C 6083   1.929   9.676   4.116  0.2694  0.5990 -0.4922
   45MOL0     C 6084   1.802   9.587   4.124 -0.3829 -0.6451  0.2009
   45MOL0     C 6085   1.673   9.660   4.191 -0.5779 -0.3237  1.1083
   45MOL0     C 6086   1.696   9.716   4.328  0.1507 -0.5906 -0.5025
   45MOL0     C 6087   1.681   9.623   4.437 -0.9316  0.3624  0.4000
   45MOL0     C 6088   1.726   9.682   4.569 -0.7218 -0.2695 -0.2814
   45MOL0     N 6089   1.869   9.687   4.571 -0.2963  0.1037 -0.4853
   45MOL0     C 6090   1.956   9.578   4.573  0.4002  0.2877  0.8230
   45MOL0     C 6091   2.078   9.636   4.587 -0.2975  0.1794  0.0752
   45MOL0     C 6092   2.207   9.557   4.577  1.0594 -0.0596 -0.1901
   45MOL0     C 6093   2.329   9.627   4.526  0.7272 -0.1466  0.3620
   45MOL0     C 6094   2.449   9.538   4.548  0.2674  0.2183  0.6462
   45MOL0     C 6095   2.568   9.603   4.472 -0.3647  1.0131  0.6639
   45MOL0     O 6096   2.610   9.724   4.534 -0.3033  0.2739 -0.4268
   45MOL0     C 6097   2.730   9.776   4.505 -0.6127  0.5519  1.5613
   45MOL0     C 6098   2.803   9.751   4.388 -1.1131 -0.4331  0.7350
   45MOL0     C 6099   2.929   9.804   4.354 -0.4994 -0.4021 -0.0152
   45MOL0     C 6100   2.990   9.759   4.225 -0.5207  0.8753  0.4119
   45MOL0     C 6101   2.989   9.886   4.443 -0.4797  0.3831  0.1066
   45MOL0     C 6102   3.125   9.954   4.417 -0.1731  0.4050 -0.6393
   45MOL0     O 6103   3.176   9.947   4.296 -0.1937 -0.3067  0.2702
   45MOL0     C 6104   3.298   9.995   4.262  0.3699  0.2956 -0.5000
   45MOL0     C 6105   3.400  10.022   4.349  0.3493 -0.2890 -1.0133
   45MOL0     C 6106   3.518  10.068   4.287  0.0650  0.3988  0.8344
   45MOL0     C 6107   3.531  10.082   4.146  0.4993 -0.1556  0.4834
   45MOL0     O 6108   3.645  10.136   4.101  0.5480  0.4836 -0.2594
   45MOL0     C 6109   3.691  10.105   3.969 -0.0105 -0.4033  0.7686
   45MOL0     C 6110   3.831  10.183   3.946  0.4926  0.9583 -1.1522
   45MOL0     C 6111   3.878  10.166   3.800  0.1522  0.9079  0.2410
   45MOL0     C 6112   3.901  10.022   3.754 -0.4134 -0.3470  0.3472
   45MOL0     C 6113   3.922  10.027   3.600 -0.1117  0.8385  0.0163
   45MOL0     C 6114   3.993   9.902   3.547  0.1321  0.2116  0.0455
   45MOL0     C 6115   3.909   9.778   3.558  0.2189 -0.2620 -0.8724
   45MOL0     C 6116   3.989   9.652   3.529  0.2092  0.3569  0.2651
   45MOL0    Cl 6117   4.116   9.601   3.645 -0.2731 -0.2075 -0.1649
   45MOL0     C 6118   3.418  10.052   4.066 -0.5068 -0.3344 -0.4812
   45MOL0     C 6119   3.309  10.006   4.127  0.2521 -0.3702 -0.5112
   45MOL0     O 6120   3.167  10.024   4.514  0.2244  0.4059  0.2568
   45MOL0     C 6121   2.923   9.913   4.567 -0.1474 -0.0297 -0.2099
   45MOL0     C 6122   2.798   9.859   4.595 -0.4856  0.6096  0.0627
   45MOL0     N 6123   2.071   9.774   4.582  0.2571  0.3283 -0.2965
   45MOL0     N 6124   1.950   9.799   4.577 -0.4312 -0.3609 -0.6034
   45MOL0     C 6125   2.481   9.586   3.881  0.0771  0.8834 -0.3962
   45MOL0     C 6126   2.605   9.641   3.860  0.1440 -0.0656 -0.2957
   45MOL0     C 6127   2.956   9.889   3.776 -0.2306 -0.7316  0.2824
   45MOL0     C 6128   3.024   9.786   3.825 -0.2870  0.5661  0.2874
   45MOL0     C 6129   3.169   9.779   3.812 -0.2407  0.0875 -0.2376
   45MOL0     C 6130   3.241   9.873   3.746 -0.2409  0.0071  0.3465
   45MOL0     O 6131   3.381   9.856   3.743 -0.4726 -0.7125  0.4897
   45MOL0     C 6132   3.454   9.921   3.634  0.1446  0.5374 -0.3492
   45MOL0     C 6133   3.450   9.840   3.496  0.6471 -0.2362 -0.4554
   45MOL0     C 6134   3.317   9.815   3.430  0.0239 -0.5014  0.1197
   45MOL0     C 6135   3.343   9.751   3.297  0.1491  0.5817 -0.2230
   45MOL0     C 6136   3.226   9.756   3.210 -0.3457 -0.1146  0.4568
   45MOL0     C 6137   3.120   9.771   3.145 -0.0853  0.8940 -0.0205
   45MOL0     C 6138   3.169   9.982   3.703 -0.4399 -0.2590  0.0766
   45MOL0     C 6139   3.028   9.999   3.718  0.5287 -0.8093 -0.3674
   45MOL0     C 6140   2.963  10.124   3.676  0.5515 -0.2048 -0.0575
   45MOL0     H 6141   2.546   9.958   3.981 -3.0951  0.8018 -1.7983
   45MOL0     H 6142   2.325   9.855   4.005 -0.9581 -0.3802 -0.8195
   45MOL0     H 6143   2.133   9.773   4.004 -1.0666 -0.2300  1.3410
   45MOL0     H 6144   2.197   9.680   4.146  0.1659 -1.9674  0.2489
   45MOL0     H 6145   2.008   9.574   3.941 -0.1078 -2.6090  0.4586
   45MOL0     H 6146   2.052   9.496   4.084 -0.3874 -0.5147 -1.5799
   45MOL0     H 6147   1.956   9.716   4.214  1.5065  0.0503 -0.5849
   45MOL0     H 6148   1.902   9.756   4.047  0.9733  0.5959 -0.7794
   45MOL0     H 6149   1.777   9.547   4.025 -0.1588  0.6819 -0.4201
   45MOL0     H 6150   1.828   9.502   4.188 -0.8684  0.1155  1.4522
   45MOL0     H 6151   1.586   9.595   4.184 -1.6101  1.1078  0.0825
   45MOL0     H 6152   1.654   9.747   4.127 -0.4460 -0.1612  1.2879
   45MOL0     H 6153   1.794   9.764   4.338 -1.5821  3.7802 -2.1124
   45MOL0     H 6154   1.626   9.799   4.341 -0.3760 -1.1471  0.2455
   45MOL0     H 6155   1.752   9.541   4.419  1.2148  2.4634 -1.3064
   45MOL0     H 6156   1.580   9.581   4.445 -0.1882 -1.5234  0.5181
   45MOL0     H 6157   1.694   9.786   4.580  1.1357  0.0582  3.0969
   45MOL0     H 6158   1.692   9.633   4.661  2.4435 -2.0105  0.0779
   45MOL0     H 6159   1.911   9.479   4.569 -0.7085  0.7783  0.6594
   45MOL0     H 6160   2.196   9.465   4.518 -0.8503  0.9475 -1.5352
   45MOL0     H 6161   2.226   9.530   4.681  1.1183 -0.5696 -0.3323
   45MOL0     H 6162   2.313   9.648   4.420  1.0356  0.7907  0.4878
   45MOL0     H 6163   2.334   9.717   4.588  1.4473  0.9207 -1.1903
   45MOL0     H 6164   2.481   9.524   4.652  0.7242  0.3482  0.5258
   45MOL0     H 6165   2.432   9.435   4.513 -1.7696  0.8717 -0.4206
   45MOL0     H 6166   2.654   9.536   4.468 -0.0251  1.4980 -0.8417
   45MOL0     H 6167   2.536   9.617   4.368 -2.0851 -1.7174  0.7289
   45MOL0     H 6168   2.768   9.679   4.315 -0.5052 -0.5752  0.5741
   45MOL0     H 6169   2.998   9.848   4.163  0.8768  2.3893  2.6410
   45MOL0     H 6170   2.933   9.678   4.178  0.1307  0.8904 -0.4223
   45MOL0     H 6171   3.087   9.714   4.248  0.4475  2.1143 -1.1059
   45MOL0     H 6172   3.392  10.025   4.457 -0.3300 -1.3227 -1.0197
   45MOL0     H 6173   3.613  10.100   4.330  0.3643 -0.5699  0.9248
   45MOL0     H 6174   3.709   9.998   3.954  0.6492 -0.2511  0.4594
   45MOL0     H 6175   3.620  10.135   3.892  2.4399 -2.0033 -2.3789
   45MOL0     H 6176   3.825  10.288   3.978  2.2114  0.5535  0.5944
   45MOL0     H 6177   3.910  10.142   4.009 -2.8188  0.6325  3.2708
   45MOL0     H 6178   3.968  10.226   3.782  0.0365  1.1998  0.5980
   45MOL0     H 6179   3.794  10.205   3.743 -1.5584 -4.2699 -1.2976
   45MOL0     H 6180   3.809   9.970   3.782 -0.8157 -0.5657 -1.2678
   45MOL0     H 6181   3.992   9.982   3.799  0.0047  0.6942  0.4697
   45MOL0     H 6182   3.827  10.036   3.548 -0.4548 -0.6066  0.3514
   45MOL0     H 6183   3.979  10.118   3.579 -0.2573  0.7219 -0.9267
   45MOL0     H 6184   4.091   9.883   3.593 -1.1372 -2.9796  1.7896
   45MOL0     H 6185   4.007   9.918   3.440  1.7671  1.3096  0.3781
   45MOL0     H 6186   3.817   9.785   3.500  0.2219 -1.4515 -1.0360
   45MOL0     H 6187   3.882   9.774   3.664  0.8995  1.4754 -0.6064
   45MOL0     H 6188   4.032   9.667   3.429  3.7736  1.3919  1.7929
   45MOL0     H 6189   3.923   9.565   3.529  0.8992 -0.1738  0.9638
   45MOL0     H 6190   3.407  10.060   3.959  0.1600 -3.5965 -0.9253
   45MOL0     H 6191   3.232   9.976   4.057  2.7742 -3.2214 -2.2963
   45MOL0     H 6192   2.962   9.968   4.651 -0.8242  0.7869 -0.4194
   45MOL0     H 6193   2.774   9.870   4.701  1.0855 -0.0336  0.5287
   45MOL0     H 6194   2.472   9.480   3.863  0.3528  0.7445  0.2425
   45MOL0     H 6195   2.683   9.580   3.816 -0.2588  0.7782 -2.2647
   45MOL0     H 6196   2.971   9.705   3.874  1.1011 -0.2300  0.5280
   45MOL0     H 6197   3.225   9.691   3.842 -2.2858 -1.2813 -0.1718
   45MOL0     H 6198   3.412  10.023   3.633 -1.0966  0.0580  0.5054
   45MOL0     H 6199   3.560   9.920   3.660  0.0503  1.5426  0.1300
   45MOL0     H 6200   3.499   9.743   3.505 -2.3273 -1.8633 -0.6200
   45MOL0     H 6201   3.510   9.908   3.434  0.0004  0.8924  0.1256
   45MOL0     H 6202   3.261   9.747   3.495  0.2547  0.0256  0.8807
   45MOL0     H 6203   3.263   9.908   3.413  2.3049  0.9614  0.4302
   45MOL0     H 6204   3.367   9.647   3.320 -1.1913  0.7695  2.3560
   45MOL0     H 6205   3.429   9.801   3.249  0.3372 -1.0050 -1.6483
   45MOL0     H 6206   3.035   9.770   3.080  1.2650 -2.2749 -1.9963
   45MOL0     H 6207   3.216  10.065   3.651 -0.0496 -1.0363 -0.8413
   45MOL0     H 6208   2.907  10.159   3.763  0.3900 -3.3081  1.2071
   45MOL0     H 6209   3.029  10.205   3.643  1.4240 -0.3300  1.2961
   45MOL0     H 6210   2.894  10.110   3.592  0.2300  2.0526 -0.2410
   46MOL0     O 6211   5.744   7.890   7.595  0.3881 -0.3888  0.0603
   46MOL0     C 6212   5.659   7.956   7.649  0.7686 -0.5239  0.1130
   46MOL0     O 6213   5.666   8.087   7.679 -0.4008 -0.2761 -0.2013
   46MOL0     C 6214   5.792   8.152   7.657  0.3157  0.4215 -0.1530
   46MOL0     C 6215   5.856   8.222   7.764 -0.0054 -0.3310  0.0597
   46MOL0     C 6216   5.978   8.280   7.738  0.6231  0.3679 -0.2720
   46MOL0     C 6217   6.046   8.279   7.611 -0.2347 -0.0033 -0.6773
   46MOL0     O 6218   6.162   8.346   7.589  0.4091 -0.4757 -0.3982
   46MOL0     C 6219   6.285   8.269   7.588  0.2353 -0.1960  0.1976
   46MOL0     C 6220   6.303   8.194   7.463  0.1424  0.2421  0.1580
   46MOL0     C 6221   6.447   8.137   7.443 -0.7420 -0.5273  0.7191
   46MOL0     C 6222   6.441   8.019   7.348 -0.0281 -0.2647 -0.7527
   46MOL0     C 6223   6.579   8.017   7.277  0.0614 -0.0340 -0.1372
   46MOL0     C 6224   6.696   8.012   7.373 -0.3909  0.3386 -0.2778
   46MOL0     C 6225   6.831   7.992   7.289 -0.5135  0.4085  0.1593
   46MOL0     C 6226   6.952   7.991   7.390  0.7804 -0.1793  0.4040
   46MOL0     N 6227   7.011   8.130   7.394  0.0203  1.0188  0.0680
   46MOL0     C 6228   7.070   8.190   7.282  0.3074 -0.6655 -0.8785
   46MOL0     C 6229   7.116   8.307   7.340  0.5616 -0.9242  0.1305
   46MOL0     C 6230   7.183   8.420   7.267  0.3383  0.2818 -0.4044
   46MOL0     C 6231   7.330   8.373   7.227  0.0703 -0.4715 -0.3519
   46MOL0     C 6232   7.419   8.490   7.177 -0.2443  1.4257 -0.5849
   46MOL0     C 6233   7.430   8.604   7.274 -0.1361 -0.5373  0.3261
   46MOL0     O 6234   7.475   8.559   7.402  0.4309 -0.0129 -0.8424
   46MOL0     C 6235   7.608   8.525   7.415 -0.6526  0.4574  0.0727
   46MOL0     C 6236   7.715   8.585   7.356  0.2297  0.1081 -0.0939
   46MOL0     C 6237   7.853   8.546   7.383 -0.0039  0.6408 -1.0044
   46MOL0     C 6238   7.962   8.623   7.312  0.1952 -0.5351 -0.8152
   46MOL0     C 6239   7.871   8.454   7.491 -0.0530 -0.5732  0.6058
   46MOL0     C 6240   8.006   8.410   7.538 -0.2590  0.4998  0.2747
   46MOL0     O 6241   7.994   8.300   7.615 -0.5399  0.5740 -0.0150
   46MOL0     C 6242   8.096   8.203   7.623 -0.1607  0.4641  1.0619
   46MOL0     C 6243   8.210   8.198   7.539  0.1337 -0.4890  0.0346
   46MOL0     C 6244   8.307   8.093   7.554  0.2254  0.1328 -0.5127
   46MOL0     C 6245   8.297   8.017   7.669  1.1002 -0.7174 -0.0613
   46MOL0     O 6246   8.400   7.939   7.715 -1.3101 -0.2787 -0.5083
   46MOL0     C 6247   8.516   7.931   7.628 -0.7626  0.6041 -0.5006
   46MOL0     C 6248   8.643   7.877   7.701  0.7279  0.4607 -0.0806
   46MOL0     C 6249   8.616   7.738   7.755 -0.2846 -0.6994  0.5322
   46MOL0     C 6250   8.747   7.677   7.820 -0.1943  0.1881  0.0022
   46MOL0     C 6251   8.717   7.533   7.870 -0.0844 -0.5498 -0.6255
   46MOL0     C 6252   8.647   7.528   8.013 -0.1834  0.1656 -0.5478
   46MOL0     C 6253   8.575   7.388   8.035 -0.1242 -0.6911 -0.2126
   46MOL0     C 6254   8.654   7.271   7.992 -0.4036  0.6482  0.2713
   46MOL0    Cl 6255   8.836   7.271   8.022 -0.2875  0.1122 -0.0758
   46MOL0     C 6256   8.182   8.014   7.748 -0.6173 -0.2312 -0.8879
   46MOL0     C 6257   8.075   8.108   7.723 -0.0669 -0.7433  0.0537
   46MOL0     O 6258   8.098   8.491   7.541  0.0816 -0.2376 -0.5591
   46MOL0     C 6259   7.762   8.400   7.554 -0.3197 -0.5157  1.2898
   46MOL0     C 6260   7.630   8.426   7.510 -0.6554  0.3503 -0.1866
   46MOL0     N 6261   7.078   8.313   7.480  0.3953  0.2253 -0.2958
   46MOL0     N 6262   7.010   8.207   7.504  1.2093 -0.4865 -0.4174
   46MOL0     C 6263   5.983   8.203   7.509  0.3460  0.1376 -0.3671
   46MOL0     C 6264   5.858   8.142   7.530 -0.5060 -0.5614  0.2116
   46MOL0     C 6265   5.518   7.890   7.660 -0.3273 -0.5879  0.6907
   46MOL0     C 6266   5.442   7.945   7.763  0.4786 -0.2917  0.1073
   46MOL0     C 6267   5.310   7.897   7.790  0.1939  0.1944  1.1198
   46MOL0     C 6268   5.253   7.801   7.711  1.4494  0.1364 -0.4544
   46MOL0     O 6269   5.121   7.767   7.733 -0.1602  1.1244 -1.2105
   46MOL0     C 6270   5.045   7.676   7.660 -0.6541 -0.0046  0.2499
   46MOL0     C 6271   4.905   7.654   7.722  0.4573 -0.0187 -0.8087
   46MOL0     C 6272   4.918   7.611   7.870  0.1047 -0.5742  0.4170
   46MOL0     C 6273   4.783   7.631   7.954 -0.1252 -0.4765  0.2333
   46MOL0     C 6274   4.795   7.602   8.096 -0.2770  0.4294  0.2645
   46MOL0     C 6275   4.821   7.592   8.209 -0.5848 -0.3799  0.6100
   46MOL0     C 6276   5.328   7.747   7.604  0.3331  0.2401 -0.0693
   46MOL0     C 6277   5.461   7.790   7.574  0.1236  0.8644 -1.0351
   46MOL0     C 6278   5.532   7.724   7.460 -0.3060  0.3409 -0.2555
   46MOL0     H 6279   5.801   8.226   7.858 -0.0727  1.0417 -0.0132
   46MOL0     H 6280   6.036   8.324   7.818  0.6330 -1.5944  0.8495
   46MOL0     H 6281   6.278   8.192   7.666  0.7607 -1.4739 -0.9689
   46MOL0     H 6282   6.369   8.337   7.605  1.7353 -1.9402  0.1089
   46MOL0     H 6283   6.240   8.105   7.471 -0.3634  0.7098  1.6788
   46MOL0     H 6284   6.267   8.259   7.383 -1.5999  0.0047  0.7150
   46MOL0     H 6285   6.498   8.215   7.386 -3.5166 -0.4983 -1.9592
   46MOL0     H 6286   6.495   8.108   7.537 -1.1230  0.1701  1.1359
   46MOL0     H 6287   6.418   7.925   7.398  1.4851 -0.2438  0.0574
   46MOL0     H 6288   6.368   8.029   7.267 -0.2219 -2.7418 -0.9311
   46MOL0     H 6289   6.582   8.107   7.215  1.4080  0.0835  0.0806
   46MOL0     H 6290   6.576   7.943   7.196  4.1762 -0.5517 -0.0292
   46MOL0     H 6291   6.697   8.109   7.422 -2.3848  0.1278  0.2691
   46MOL0     H 6292   6.694   7.936   7.451 -0.4756 -0.5998 -1.1656
   46MOL0     H 6293   6.840   8.064   7.208 -1.1212 -2.4975 -2.6915
   46MOL0     H 6294   6.826   7.897   7.236 -3.1900 -1.1602  2.8828
   46MOL0     H 6295   6.907   7.969   7.487  1.3102 -1.8930  0.2950
   46MOL0     H 6296   7.014   7.908   7.355 -0.7107 -1.6604  1.0858
   46MOL0     H 6297   7.074   8.150   7.182  0.6245 -1.6285 -0.4963
   46MOL0     H 6298   7.172   8.515   7.321 -0.8821 -0.2546  0.3345
   46MOL0     H 6299   7.124   8.437   7.176 -2.9688  1.1989  1.6955
   46MOL0     H 6300   7.373   8.333   7.320 -2.2358  1.8494  1.8857
   46MOL0     H 6301   7.320   8.294   7.151  3.8060 -0.5594 -0.9227
   46MOL0     H 6302   7.521   8.455   7.159  0.6216  2.4165  1.9065
   46MOL0     H 6303   7.377   8.522   7.082 -1.8944  2.1225  0.3354
   46MOL0     H 6304   7.496   8.678   7.229  0.3462 -1.8443 -1.1982
   46MOL0     H 6305   7.332   8.652   7.283  0.4419  0.5756  0.9508
   46MOL0     H 6306   7.700   8.651   7.272  1.2634 -2.3428 -2.3702
   46MOL0     H 6307   8.023   8.678   7.384  2.3994 -1.5521 -1.7901
   46MOL0     H 6308   7.918   8.701   7.250 -0.8415 -0.5828 -0.1508
   46MOL0     H 6309   8.026   8.552   7.258  3.1893  0.4798  1.1598
   46MOL0     H 6310   8.228   8.267   7.457 -1.5522 -1.9778 -1.6614
   46MOL0     H 6311   8.395   8.086   7.491  0.3840  0.1404 -0.2926
   46MOL0     H 6312   8.488   7.877   7.537 -1.2691 -3.3208  1.7562
   46MOL0     H 6313   8.554   8.029   7.600  0.1245  0.4657  0.1825
   46MOL0     H 6314   8.721   7.873   7.624  0.1247 -0.9424 -0.6528
   46MOL0     H 6315   8.663   7.947   7.783  1.3640 -1.0119  1.0763
   46MOL0     H 6316   8.578   7.670   7.679  4.2781 -1.8864 -1.0162
   46MOL0     H 6317   8.538   7.751   7.831  1.8958 -0.4749  2.8846
   46MOL0     H 6318   8.778   7.752   7.894 -0.0176 -1.2105  1.4075
   46MOL0     H 6319   8.825   7.668   7.743 -0.2950  3.5864 -0.6523
   46MOL0     H 6320   8.674   7.466   7.795  0.4946 -0.2577 -1.2254
   46MOL0     H 6321   8.820   7.496   7.876  0.2731  0.1690 -1.9400
   46MOL0     H 6322   8.564   7.599   8.014  0.5045  1.0162  2.2291
   46MOL0     H 6323   8.711   7.560   8.095 -2.9754  1.3833  1.3144
   46MOL0     H 6324   8.476   7.396   7.989  1.0777  1.2344 -2.7468
   46MOL0     H 6325   8.571   7.375   8.143 -1.9471 -5.7908 -0.6374
   46MOL0     H 6326   8.648   7.262   7.883  1.4020 -0.0595  0.1848
   46MOL0     H 6327   8.597   7.191   8.039 -2.6859  1.2688 -1.2938
   46MOL0     H 6328   8.182   7.953   7.837 -3.4796 -0.5094 -0.9974
   46MOL0     H 6329   7.987   8.127   7.783 -0.9254  0.9099 -1.5790
   46MOL0     H 6330   7.771   8.336   7.641  2.5352  2.0037  3.0480
   46MOL0     H 6331   7.549   8.376   7.561  0.5890  1.1475  2.8601
   46MOL0     H 6332   6.029   8.196   7.411 -0.9097  0.9260 -1.0285
   46MOL0     H 6333   5.804   8.114   7.440 -2.5748  0.6220  1.0032
   46MOL0     H 6334   5.472   8.035   7.817  1.2788 -0.4393 -0.0804
   46MOL0     H 6335   5.248   7.946   7.865 -3.4904 -0.9297 -0.9207
   46MOL0     H 6336   5.038   7.712   7.557  2.2175  1.1706  0.3600
   46MOL0     H 6337   5.095   7.579   7.651 -0.2063  0.3075 -0.9524
   46MOL0     H 6338   4.845   7.578   7.671  0.9636 -0.2663 -1.0405
   46MOL0     H 6339   4.849   7.748   7.732  0.4502 -0.3265  3.9425
   46MOL0     H 6340   4.952   7.507   7.872  2.2739  0.0652 -0.3865
   46MOL0     H 6341   4.988   7.675   7.925  1.2909 -3.3976  2.3876
   46MOL0     H 6342   4.717   7.552   7.915  1.5244 -1.6002 -0.4139
   46MOL0     H 6343   4.732   7.725   7.933  1.3165  0.6078  1.3980
   46MOL0     H 6344   4.873   7.585   8.303  1.2385 -0.5411 -0.3811
   46MOL0     H 6345   5.272   7.671   7.550  2.1329 -0.5539 -0.8782
   46MOL0     H 6346   5.544   7.792   7.376 -0.7723  0.6962 -0.0447
   46MOL0     H 6347   5.625   7.695   7.508 -0.2263  1.9575  0.6605
   46MOL0     H 6348   5.483   7.632   7.428 -0.0966 -0.1349  0.7263
   47MOL0     O 6349   1.093   7.659   8.035 -0.5583 -0.3096 -0.5778
   47MOL0     C 6350   1.041   7.774   8.030 -0.2443 -0.1680 -0.0995
   47MOL0     O 6351   1.086   7.876   7.953  0.4938 -0.7770  0.0574
   47MOL0     C 6352   1.191   7.857   7.869  0.3474  0.0630  0.3392
   47MOL0     C 6353   1.320   7.881   7.916 -0.0391 -0.4331 -0.5530
   47MOL0     C 6354   1.431   7.842   7.847 -0.0060  1.0254  1.5394
   47MOL0     C 6355   1.421   7.787   7.719  0.3669  0.6623 -0.4941
   47MOL0     O 6356   1.525   7.755   7.632 -0.0803 -0.1707 -0.3693
   47MOL0     C 6357   1.657   7.742   7.679 -0.6137  0.5533  0.1518
   47MOL0     C 6358   1.743   7.674   7.577  0.6354 -0.6172 -0.9785
   47MOL0     C 6359   1.858   7.596   7.648 -0.5177 -0.3036  0.1571
   47MOL0     C 6360   1.931   7.502   7.549 -0.2595 -0.2060  0.3179
   47MOL0     C 6361   2.059   7.445   7.622  0.2450  0.0389  0.3572
   47MOL0     C 6362   2.145   7.378   7.509  0.2749  0.2104  0.5074
   47MOL0     C 6363   2.271   7.313   7.566 -0.4510  0.0322 -0.7210
   47MOL0     C 6364   2.362   7.250   7.457 -0.2294  0.3226  0.6876
   47MOL0     N 6365   2.437   7.338   7.379 -0.7160 -0.1856  0.2012
   47MOL0     C 6366   2.524   7.285   7.283  0.2306  0.3189 -0.7167
   47MOL0     C 6367   2.622   7.374   7.277  0.4132 -0.8598 -0.1015
   47MOL0     C 6368   2.729   7.362   7.177 -0.7219 -0.9809  0.3214
   47MOL0     C 6369   2.849   7.453   7.204 -0.0686 -0.1103 -0.1713
   47MOL0     C 6370   2.942   7.438   7.086 -0.4252 -0.4839  0.4272
   47MOL0     C 6371   3.069   7.516   7.101  0.5108  0.5521  0.8495
   47MOL0     O 6372   3.144   7.475   7.220 -0.5333 -0.0461  0.1377
   47MOL0     C 6373   3.261   7.525   7.262  0.2082 -0.0006  0.4731
   47MOL0     C 6374   3.316   7.634   7.202 -0.5819  0.7612  0.7416
   47MOL0     C 6375   3.447   7.685   7.236 -0.1222  0.2571 -0.2518
   47MOL0     C 6376   3.495   7.812   7.162 -0.1668 -0.0101 -0.2980
   47MOL0     C 6377   3.510   7.626   7.341 -0.5724 -0.3631 -0.0574
   47MOL0     C 6378   3.657   7.656   7.378  0.4910 -0.2571  0.3652
   47MOL0     O 6379   3.736   7.697   7.267  0.1710  0.3742 -0.0975
   47MOL0     C 6380   3.859   7.727   7.303 -0.3224  0.1358 -0.1055
   47MOL0     C 6381   3.961   7.635   7.321  0.1208  0.7597  0.5446
   47MOL0     C 6382   4.097   7.673   7.348  0.6277 -0.2960  0.2789
   47MOL0     C 6383   4.116   7.809   7.390 -0.1448  0.0989 -0.0767
   47MOL0     O 6384   4.232   7.850   7.457  0.2206  0.5090  0.5217
   47MOL0     C 6385   4.353   7.794   7.396 -0.8219 -0.6111 -0.2808
   47MOL0     C 6386   4.482   7.877   7.429 -0.9175  0.0523 -0.2029
   47MOL0     C 6387   4.605   7.795   7.402 -0.2983  0.5667 -0.4886
   47MOL0     C 6388   4.744   7.869   7.402  0.3960  0.8056  0.3919
   47MOL0     C 6389   4.810   7.867   7.263  0.6351  1.2346  0.1389
   47MOL0     C 6390   4.914   7.985   7.249  0.0940 -0.9837  0.1763
   47MOL0     C 6391   5.040   7.951   7.338  0.6734  0.6668  0.6226
   47MOL0     C 6392   5.163   8.030   7.301 -0.3139 -0.5182 -0.1857
   47MOL0    Cl 6393   5.226   7.978   7.133  0.0470  0.1021 -0.0024
   47MOL0     C 6394   4.015   7.901   7.378  0.0440 -0.7355  0.7112
   47MOL0     C 6395   3.886   7.862   7.332 -1.2246  0.3327 -0.4514
   47MOL0     O 6396   3.685   7.658   7.500 -0.0407  0.7352 -0.3417
   47MOL0     C 6397   3.455   7.519   7.410  1.0514  0.3945  0.3927
   47MOL0     C 6398   3.328   7.470   7.370  0.7037  0.0193  0.9557
   47MOL0     N 6399   2.609   7.474   7.370  0.2280 -0.0547  0.1916
   47MOL0     N 6400   2.491   7.452   7.428  0.6322  0.8313  0.1263
   47MOL0     C 6401   1.293   7.766   7.667  0.8386  0.6350  0.2004
   47MOL0     C 6402   1.175   7.800   7.742  0.0228 -0.3024  0.2141
   47MOL0     C 6403   0.907   7.802   8.095  0.5358  0.0535  0.7279
   47MOL0     C 6404   0.857   7.933   8.097 -0.0635 -0.0486 -0.3988
   47MOL0     C 6405   0.730   7.960   8.133 -0.0099  0.0203  0.2686
   47MOL0     C 6406   0.647   7.871   8.184  0.4040 -0.0885 -0.2438
   47MOL0     O 6407   0.521   7.920   8.221 -0.1477 -0.4177  0.0060
   47MOL0     C 6408   0.418   7.830   8.269 -0.4031 -0.1849  0.0316
   47MOL0     C 6409   0.278   7.897   8.259  0.2398 -0.0098 -0.3132
   47MOL0     C 6410   0.154   7.812   8.303 -0.7947 -0.7142  0.1387
   47MOL0     C 6411   0.032   7.893   8.260 -0.0206 -0.6011  0.4119
   47MOL0     C 6412  -0.097   7.828   8.294 -0.1817  0.3486  0.3909
   47MOL0     C 6413  -0.196   7.777   8.338 -0.0187 -0.5834 -0.0845
   47MOL0     C 6414   0.683   7.736   8.179  0.2978 -0.6762  0.1095
   47MOL0     C 6415   0.815   7.702   8.140 -0.1655 -0.0954 -0.1582
   47MOL0     C 6416   0.839   7.555   8.141 -0.3955  0.2082  0.5512
   47MOL0     H 6417   1.340   7.946   8.001  0.3742  0.6943 -1.4744
   47MOL0     H 6418   1.529   7.881   7.875  0.0499  0.3404  2.3098
   47MOL0     H 6419   1.679   7.688   7.772  0.8257  2.8065  1.2127
   47MOL0     H 6420   1.703   7.841   7.689  1.1517 -0.2993  0.8682
   47MOL0     H 6421   1.684   7.599   7.524  2.2333 -1.1156 -2.1152
   47MOL0     H 6422   1.776   7.754   7.510 -2.4044  1.0627 -0.6876
   47MOL0     H 6423   1.924   7.676   7.684  0.6482 -1.2405  0.1735
   47MOL0     H 6424   1.818   7.544   7.735 -2.0828  1.6996  0.6999
   47MOL0     H 6425   1.871   7.421   7.508 -1.8494 -0.1351  2.3873
   47MOL0     H 6426   1.967   7.564   7.466 -1.8064 -1.2941 -1.2362
   47MOL0     H 6427   2.027   7.366   7.690 -1.9622 -0.6796 -1.3790
   47MOL0     H 6428   2.110   7.523   7.679  4.5840  0.1540 -3.1135
   47MOL0     H 6429   2.089   7.302   7.453  0.1755 -0.1986  1.1468
   47MOL0     H 6430   2.176   7.450   7.433 -0.7821 -0.3153 -0.4547
   47MOL0     H 6431   2.242   7.230   7.631  1.3861  0.5130  0.7861
   47MOL0     H 6432   2.330   7.383   7.625 -3.0978  1.4792  0.4199
   47MOL0     H 6433   2.434   7.187   7.510 -1.0390  0.2199  1.6797
   47MOL0     H 6434   2.297   7.186   7.397 -0.3531 -0.5818  1.7532
   47MOL0     H 6435   2.519   7.195   7.221 -2.2749 -0.7572  0.8521
   47MOL0     H 6436   2.686   7.367   7.076 -0.3125  0.5112  0.2056
   47MOL0     H 6437   2.765   7.259   7.179 -1.3889 -1.2174  0.4394
   47MOL0     H 6438   2.815   7.557   7.209 -0.2497  0.1120 -3.8055
   47MOL0     H 6439   2.886   7.421   7.302 -1.7551  0.9341  0.8591
   47MOL0     H 6440   2.963   7.332   7.075 -1.7463 -0.6353 -1.0254
   47MOL0     H 6441   2.882   7.458   6.996 -3.2553 -0.6300  2.1483
   47MOL0     H 6442   3.129   7.502   7.011  0.6528  0.6801  0.9248
   47MOL0     H 6443   3.045   7.622   7.110 -1.8862  0.0497  1.1428
   47MOL0     H 6444   3.256   7.681   7.125  0.5989  2.7789  0.9682
   47MOL0     H 6445   3.581   7.788   7.100 -1.8740 -2.7476 -1.7875
   47MOL0     H 6446   3.528   7.896   7.225  0.7463  0.0860 -0.8887
   47MOL0     H 6447   3.422   7.848   7.089 -1.7997 -1.0566  0.7329
   47MOL0     H 6448   3.946   7.528   7.305  0.4052  0.4063  2.4146
   47MOL0     H 6449   4.178   7.604   7.369  0.7847 -0.0819  0.3902
   47MOL0     H 6450   4.364   7.689   7.425  0.6125 -0.7463 -1.2606
   47MOL0     H 6451   4.345   7.780   7.288  2.1165 -2.9960 -0.3163
   47MOL0     H 6452   4.480   7.970   7.373  2.7514  1.5382  1.7606
   47MOL0     H 6453   4.468   7.904   7.534 -1.7107 -0.4293 -0.1744
   47MOL0     H 6454   4.592   7.741   7.308  1.9384  0.5468 -0.8573
   47MOL0     H 6455   4.605   7.722   7.484 -1.6241 -0.6658 -1.5441
   47MOL0     H 6456   4.810   7.837   7.483  1.6971  1.0046 -0.5637
   47MOL0     H 6457   4.719   7.975   7.417 -1.0330  0.3061  1.8364
   47MOL0     H 6458   4.854   7.769   7.243  1.1726  1.0845  1.9279
   47MOL0     H 6459   4.727   7.884   7.194  0.2482  1.6866  0.7067
   47MOL0     H 6460   4.872   8.082   7.276 -0.2695 -1.3360  0.8937
   47MOL0     H 6461   4.952   7.985   7.146  0.8929 -0.1266  0.4567
   47MOL0     H 6462   5.079   7.851   7.319  0.0422  0.0695  2.3377
   47MOL0     H 6463   5.014   7.981   7.440  0.8752  0.4164  0.7479
   47MOL0     H 6464   5.239   8.000   7.373  0.8325  1.1835 -0.6243
   47MOL0     H 6465   5.143   8.135   7.322 -0.6866 -0.7678  0.7384
   47MOL0     H 6466   4.025   8.002   7.417  0.8147 -1.2609  1.9352
   47MOL0     H 6467   3.815   7.944   7.331  0.3699  1.9187  2.3202
   47MOL0     H 6468   3.516   7.466   7.482 -0.2917  1.2085  2.2221
   47MOL0     H 6469   3.286   7.384   7.420  0.1018 -0.6490 -0.6302
   47MOL0     H 6470   1.291   7.718   7.570  0.5583 -0.3247  0.6737
   47MOL0     H 6471   1.075   7.776   7.709 -0.4019  0.7776  0.6860
   47MOL0     H 6472   0.926   8.014   8.076 -1.4206  1.0150 -0.9312
   47MOL0     H 6473   0.694   8.062   8.132  0.2590  0.1155 -0.3203
   47MOL0     H 6474   0.406   7.736   8.215 -0.6797  0.6493 -1.4210
   47MOL0     H 6475   0.432   7.791   8.370  0.1933  0.6044  0.2641
   47MOL0     H 6476   0.275   7.941   8.159  0.7835  1.7859  0.4144
   47MOL0     H 6477   0.291   7.972   8.338  1.8418  0.0051 -0.5499
   47MOL0     H 6478   0.155   7.719   8.247  1.0046  0.5439 -2.0759
   47MOL0     H 6479   0.170   7.797   8.410  2.4744 -2.0036 -0.4158
   47MOL0     H 6480   0.032   7.906   8.152  0.4223  0.5393  0.5339
   47MOL0     H 6481   0.032   7.994   8.302 -0.5694 -1.2588  2.0802
   47MOL0     H 6482  -0.287   7.726   8.362  1.0823 -2.7743 -0.3412
   47MOL0     H 6483   0.619   7.654   8.210 -0.1050 -0.2949  0.2811
   47MOL0     H 6484   0.944   7.542   8.170 -0.7075 -1.4660  1.0471
   47MOL0     H 6485   0.775   7.504   8.213  0.6527 -1.9712  0.0290
   47MOL0     H 6486   0.816   7.521   8.040  0.5367 -0.2863  0.4905
   48MOL0     O 6487   5.377   8.465   2.650  0.1633 -0.4028  0.4218
   48MOL0     C 6488   5.269   8.470   2.716  0.5353  0.1606  0.8540
   48MOL0     O 6489   5.253   8.546   2.822 -0.6332 -0.0756  0.0014
   48MOL0     C 6490   5.350   8.652   2.841 -0.5033  0.0408 -0.0868
   48MOL0     C 6491   5.472   8.631   2.907  0.1545 -0.1110 -0.4274
   48MOL0     C 6492   5.561   8.736   2.928  0.1096  0.1057 -0.4763
   48MOL0     C 6493   5.540   8.863   2.872  0.5475  0.1704 -0.9937
   48MOL0     O 6494   5.631   8.966   2.898 -0.3114 -0.3002  0.1232
   48MOL0     C 6495   5.604   9.099   2.836 -0.0254  0.0730  0.1041
   48MOL0     C 6496   5.736   9.183   2.852 -0.3368  0.5516  0.0829
   48MOL0     C 6497   5.737   9.298   2.757 -0.1690  0.4257  0.4956
   48MOL0     C 6498   5.871   9.370   2.780  0.2385  0.0541  0.3234
   48MOL0     C 6499   5.892   9.479   2.669 -0.1995  0.5578  0.5328
   48MOL0     C 6500   6.028   9.549   2.684  0.1608 -0.6349  0.4155
   48MOL0     C 6501   6.149   9.446   2.673  0.4045  0.4748 -0.4666
   48MOL0     C 6502   6.285   9.519   2.692  0.3873 -0.1377 -0.9145
   48MOL0     N 6503   6.311   9.580   2.564 -1.3439  0.6096 -0.3637
   48MOL0     C 6504   6.364   9.514   2.456 -0.3858 -0.2243  0.5915
   48MOL0     C 6505   6.405   9.609   2.368  0.4536  0.2649  0.6623
   48MOL0     C 6506   6.480   9.583   2.241  0.0482 -0.1059 -0.2435
   48MOL0     C 6507   6.628   9.621   2.256  0.7645  1.0732 -0.6309
   48MOL0     C 6508   6.702   9.559   2.381  1.0025  0.5429 -0.1383
   48MOL0     C 6509   6.846   9.601   2.375  0.4537  0.4048  0.2702
   48MOL0     O 6510   6.925   9.517   2.293 -0.2740 -0.6891  0.1091
   48MOL0     C 6511   7.051   9.567   2.261  0.2501  0.7147 -0.3664
   48MOL0     C 6512   7.124   9.662   2.335  0.3658 -0.1636  0.2177
   48MOL0     C 6513   7.254   9.699   2.313 -0.9792 -1.1966 -1.4538
   48MOL0     C 6514   7.316   9.807   2.416  0.1016  0.2165 -0.3127
   48MOL0     C 6515   7.323   9.628   2.212 -0.1978 -0.4972  0.8450
   48MOL0     C 6516   7.470   9.652   2.179 -0.7835 -0.5464  0.2511
   48MOL0     O 6517   7.548   9.751   2.241 -0.2213 -0.7837  0.1779
   48MOL0     C 6518   7.688   9.749   2.240  0.6973  1.0306  0.1658
   48MOL0     C 6519   7.774   9.654   2.307  0.6014 -0.0241  0.2032
   48MOL0     C 6520   7.911   9.658   2.297 -0.0455  0.1877 -0.2379
   48MOL0     C 6521   7.968   9.761   2.234  0.1798 -0.2749  0.5107
   48MOL0     O 6522   8.107   9.766   2.234 -0.4611  0.2097 -0.5840
   48MOL0     C 6523   8.165   9.725   2.107 -0.0104 -0.4610  0.4345
   48MOL0     C 6524   8.265   9.840   2.071 -0.2313  0.9646 -0.0818
   48MOL0     C 6525   8.211   9.955   1.981  0.1183  0.4040 -0.2235
   48MOL0     C 6526   8.316  10.061   1.957  0.2614  0.6899 -0.4155
   48MOL0     C 6527   8.261  10.170   1.862 -0.0008 -0.7417  0.4099
   48MOL0     C 6528   8.371  10.255   1.777 -0.3642 -0.2369  0.2404
   48MOL0     C 6529   8.316  10.378   1.713 -0.9756 -0.3240  0.6748
   48MOL0     C 6530   8.306  10.492   1.816 -0.1714 -0.2024 -0.0861
   48MOL0    Cl 6531   8.222  10.638   1.736  0.1908 -0.1721 -0.3159
   48MOL0     C 6532   7.885   9.859   2.172 -0.2292 -0.8767 -1.1556
   48MOL0     C 6533   7.746   9.847   2.178  0.4308 -0.6177  0.8559
   48MOL0     O 6534   7.523   9.578   2.100 -0.4295  0.2491 -0.5190
   48MOL0     C 6535   7.254   9.528   2.142 -0.2733  0.8137 -0.2963
   48MOL0     C 6536   7.117   9.494   2.164 -0.7230 -0.4163  0.1070
   48MOL0     N 6537   6.383   9.732   2.419  0.5110 -0.2168 -0.2832
   48MOL0     N 6538   6.329   9.711   2.541  0.1882 -0.8289  0.3601
   48MOL0     C 6539   5.412   8.886   2.818 -0.0694 -0.5513  0.3420
   48MOL0     C 6540   5.321   8.780   2.802 -0.7576  0.1041 -0.2052
   48MOL0     C 6541   5.167   8.368   2.682  0.0031 -0.3225 -0.0037
   48MOL0     C 6542   5.063   8.361   2.774 -0.2572  0.2378  0.3312
   48MOL0     C 6543   4.961   8.274   2.754  0.6805 -1.4968  0.0389
   48MOL0     C 6544   4.950   8.196   2.641 -0.0206 -0.2822  0.1874
   48MOL0     O 6545   4.851   8.105   2.609  0.9985 -0.9216 -0.4329
   48MOL0     C 6546   4.710   8.133   2.639  0.2735  0.1581  0.0759
   48MOL0     C 6547   4.649   8.239   2.543 -0.5691 -0.7466 -0.7078
   48MOL0     C 6548   4.493   8.247   2.542  0.5660 -0.2787 -0.1260
   48MOL0     C 6549   4.448   8.366   2.455 -0.6036  0.4528 -0.0384
   48MOL0     C 6550   4.309   8.401   2.489  0.4275  0.5684 -1.2300
   48MOL0     C 6551   4.190   8.403   2.515 -0.3693 -0.1748 -0.6295
   48MOL0     C 6552   5.056   8.199   2.555 -0.6856  0.0559  0.2505
   48MOL0     C 6553   5.166   8.281   2.568 -0.0669  0.1503 -1.7217
   48MOL0     C 6554   5.280   8.285   2.468 -0.6707 -0.8269 -0.1809
   48MOL0     H 6555   5.483   8.535   2.957 -0.8971  1.5800  3.4546
   48MOL0     H 6556   5.646   8.719   2.994 -0.0266  1.8670  0.1900
   48MOL0     H 6557   5.522   9.152   2.886 -1.1114 -1.6218  0.2084
   48MOL0     H 6558   5.587   9.104   2.728 -2.7334 -0.5870  0.4156
   48MOL0     H 6559   5.755   9.222   2.952 -2.1149  1.7145  0.0161
   48MOL0     H 6560   5.802   9.102   2.818 -1.8262 -0.0527 -1.5199
   48MOL0     H 6561   5.734   9.256   2.656 -0.5624 -2.0972  1.4712
   48MOL0     H 6562   5.654   9.367   2.773 -0.4157  0.1644  0.3516
   48MOL0     H 6563   5.876   9.418   2.878 -0.9390  1.6124 -0.3442
   48MOL0     H 6564   5.954   9.299   2.772 -1.1407 -1.4352 -1.5231
   48MOL0     H 6565   5.801   9.538   2.663 -0.4339  0.0753 -1.7200
   48MOL0     H 6566   5.881   9.425   2.574 -2.3848  0.7855  0.6001
   48MOL0     H 6567   6.040   9.610   2.594 -0.1008 -2.2064 -0.7186
   48MOL0     H 6568   6.030   9.612   2.774  0.1778  0.0750 -0.0778
   48MOL0     H 6569   6.144   9.390   2.579 -2.5983 -1.4268  0.6776
   48MOL0     H 6570   6.144   9.365   2.746  0.7272 -0.7594 -1.7618
   48MOL0     H 6571   6.267   9.588   2.775  2.3295 -1.5111  0.7505
   48MOL0     H 6572   6.370   9.458   2.723  1.0995  1.8997  1.4671
   48MOL0     H 6573   6.396   9.413   2.433 -0.5968  0.4523 -3.2434
   48MOL0     H 6574   6.439   9.646   2.161  2.7789  2.6408  0.2989
   48MOL0     H 6575   6.468   9.477   2.219 -0.8452  0.0362 -0.4749
   48MOL0     H 6576   6.671   9.582   2.163  1.6725 -0.2542  0.3122
   48MOL0     H 6577   6.641   9.730   2.260  1.3385  0.9657  2.2652
   48MOL0     H 6578   6.655   9.585   2.476  1.5364 -1.6554  0.7956
   48MOL0     H 6579   6.702   9.450   2.376  1.9850  0.4449  1.5883
   48MOL0     H 6580   6.855   9.695   2.321 -0.2858  0.0580 -0.4712
   48MOL0     H 6581   6.890   9.613   2.475  0.6810  0.7118  0.1348
   48MOL0     H 6582   7.084   9.701   2.428  1.5340  0.8340  0.3242
   48MOL0     H 6583   7.373   9.885   2.366  0.7742  0.5341  0.9028
   48MOL0     H 6584   7.381   9.756   2.488 -0.1283  0.4887  0.0892
   48MOL0     H 6585   7.239   9.849   2.481 -2.6516 -2.5626 -1.5395
   48MOL0     H 6586   7.733   9.576   2.370  2.3737 -2.0567 -1.0151
   48MOL0     H 6587   7.971   9.576   2.338 -1.5731 -1.6732 -1.5409
   48MOL0     H 6588   8.238   9.646   2.128  2.5318  1.9618  1.3863
   48MOL0     H 6589   8.100   9.704   2.022 -0.4449  2.1192  0.0346
   48MOL0     H 6590   8.313   9.884   2.159 -0.4154  0.6620  0.1737
   48MOL0     H 6591   8.341   9.792   2.009 -2.1436  1.7870 -3.3261
   48MOL0     H 6592   8.119   9.999   2.021 -0.2633 -0.5775  0.0304
   48MOL0     H 6593   8.182   9.913   1.884 -4.7655  1.9505  0.2470
   48MOL0     H 6594   8.407  10.008   1.928  0.1110 -0.9716  1.9320
   48MOL0     H 6595   8.336  10.095   2.059  0.0536  1.4541 -0.6213
   48MOL0     H 6596   8.189  10.128   1.792 -1.5928 -0.6859  1.9388
   48MOL0     H 6597   8.184  10.233   1.908 -3.2561 -2.6398 -2.0092
   48MOL0     H 6598   8.407  10.190   1.697  0.9898  0.7321  0.0355
   48MOL0     H 6599   8.455  10.294   1.834 -0.2193  1.4819 -1.0621
   48MOL0     H 6600   8.215  10.357   1.676 -0.8267  1.6786 -1.0284
   48MOL0     H 6601   8.378  10.400   1.626  1.1205  1.0151  2.3864
   48MOL0     H 6602   8.406  10.521   1.849 -0.5952  1.7819 -0.4646
   48MOL0     H 6603   8.244  10.457   1.900 -0.0378 -1.9799 -0.6776
   48MOL0     H 6604   7.936   9.946   2.134  0.6573 -1.1023 -0.5038
   48MOL0     H 6605   7.683   9.918   2.126 -0.2996 -2.7448 -1.3252
   48MOL0     H 6606   7.303   9.485   2.055 -0.8147  1.7124 -1.0661
   48MOL0     H 6607   7.082   9.420   2.093  1.1703 -0.3774 -0.9252
   48MOL0     H 6608   5.377   8.981   2.779  0.3195 -2.2954 -5.1986
   48MOL0     H 6609   5.226   8.808   2.757  0.4310  2.0043 -1.6700
   48MOL0     H 6610   5.055   8.419   2.865  1.6923 -0.1892  0.8065
   48MOL0     H 6611   4.874   8.256   2.817 -0.5095 -1.4725 -1.5150
   48MOL0     H 6612   4.649   8.044   2.621  1.9537 -0.5593 -2.5477
   48MOL0     H 6613   4.693   8.173   2.739  0.6431  1.3442 -0.3254
   48MOL0     H 6614   4.683   8.225   2.440  2.1178  0.0443  0.0100
   48MOL0     H 6615   4.678   8.341   2.567 -1.3826 -0.5029 -0.7212
   48MOL0     H 6616   4.456   8.155   2.496  1.0303  0.6121 -2.4101
   48MOL0     H 6617   4.453   8.252   2.643 -0.1175  0.7573 -0.4309
   48MOL0     H 6618   4.431   8.324   2.355 -3.4744 -0.1753  0.6299
   48MOL0     H 6619   4.519   8.448   2.464  1.4190 -1.3964  2.3238
   48MOL0     H 6620   4.085   8.424   2.519 -0.5430 -0.6894 -1.8558
   48MOL0     H 6621   5.056   8.130   2.472 -0.0567 -0.6630  0.8324
   48MOL0     H 6622   5.259   8.216   2.387 -1.7057 -0.0826 -0.5752
   48MOL0     H 6623   5.295   8.381   2.417 -0.4479 -0.5047  0.4718
   48MOL0     H 6624   5.377   8.261   2.513 -0.8660 -0.3698  0.5112
   49MOL0     O 6625   7.906   3.124   8.483  0.3056 -0.5683  0.3252
   49MOL0     C 6626   7.899   3.156   8.364  1.1559 -0.2937  0.0574
   49MOL0     O 6627   7.997   3.131   8.274  0.1971 -0.0120  0.0015
   49MOL0     C 6628   8.101   3.062   8.313  0.0654  0.0113 -0.2016
   49MOL0     C 6629   8.108   2.930   8.253 -0.3416  0.0638  0.3493
   49MOL0     C 6630   8.226   2.856   8.265 -0.0634 -0.2869  0.1311
   49MOL0     C 6631   8.330   2.902   8.342  0.0336 -0.0311 -0.0989
   49MOL0     O 6632   8.450   2.828   8.360  0.3790  0.3983  0.4997
   49MOL0     C 6633   8.558   2.880   8.278  0.0950 -0.2482  0.2448
   49MOL0     C 6634   8.679   2.781   8.271  0.8928  0.1952  0.2338
   49MOL0     C 6635   8.645   2.664   8.187  0.2216 -0.0388  0.1440
   49MOL0     C 6636   8.739   2.549   8.223  0.4504 -0.0052 -0.3369
   49MOL0     C 6637   8.886   2.581   8.194  0.1383  0.0400  0.0826
   49MOL0     C 6638   8.982   2.461   8.171 -0.2014  0.4719 -0.2842
   49MOL0     C 6639   9.130   2.501   8.209  0.6119 -0.0738 -0.2927
   49MOL0     C 6640   9.192   2.628   8.144  0.0704  0.0803  0.4889
   49MOL0     N 6641   9.329   2.651   8.186  0.4055 -0.6833  0.6331
   49MOL0     C 6642   9.379   2.666   8.314 -0.6058  0.3783 -0.7182
   49MOL0     C 6643   9.515   2.662   8.303 -0.3332  0.4811 -0.2220
   49MOL0     C 6644   9.615   2.693   8.415  0.1730  0.1332  0.0566
   49MOL0     C 6645   9.762   2.667   8.384 -1.1919  0.0180 -0.1122
   49MOL0     C 6646   9.840   2.699   8.514 -0.6904 -0.8510 -0.0624
   49MOL0     C 6647   9.998   2.681   8.483  0.1505  0.2729  0.0367
   49MOL0     O 6648  10.074   2.717   8.594  0.2930 -0.4428  0.1734
   49MOL0     C 6649  10.206   2.695   8.587 -0.7082 -0.2857  0.1714
   49MOL0     C 6650  10.284   2.655   8.473 -0.5130 -0.4683  0.0006
   49MOL0     C 6651  10.424   2.630   8.484 -0.4646 -0.2380  0.4027
   49MOL0     C 6652  10.510   2.613   8.356  0.2256  0.6866  0.4069
   49MOL0     C 6653  10.493   2.645   8.608  0.3669 -0.3689 -0.4870
   49MOL0     C 6654  10.631   2.608   8.642 -0.1780 -0.4240 -0.7946
   49MOL0     O 6655  10.668   2.641   8.773  0.1775  0.1213 -0.1593
   49MOL0     C 6656  10.795   2.678   8.805 -0.4272  0.2478  0.3955
   49MOL0     C 6657  10.840   2.696   8.940  0.3489  0.4272  0.8791
   49MOL0     C 6658  10.966   2.749   8.975 -0.1991  0.2362  0.5450
   49MOL0     C 6659  11.068   2.765   8.877  0.4803  0.1357 -0.4984
   49MOL0     O 6660  11.188   2.822   8.901 -0.0215 -0.1746 -0.9497
   49MOL0     C 6661  11.177   2.948   8.959  0.3484 -0.4902  0.1372
   49MOL0     C 6662  11.243   3.061   8.876 -0.0199  0.3455 -0.0893
   49MOL0     C 6663  11.236   3.046   8.725  0.1316 -0.5812 -0.1258
   49MOL0     C 6664  11.306   3.147   8.635  0.5842 -0.2252 -0.0467
   49MOL0     C 6665  11.251   3.149   8.499  0.3100  0.4747  0.0256
   49MOL0     C 6666  11.332   3.245   8.410  0.0923  0.2676  0.1408
   49MOL0     C 6667  11.255   3.262   8.280  0.1703  0.0239 -0.7922
   49MOL0     C 6668  11.326   3.349   8.178 -0.5646  0.5973 -0.3293
   49MOL0    Cl 6669  11.214   3.376   8.049  0.2621  0.3067 -0.1801
   49MOL0     C 6670  11.039   2.729   8.744  0.5095  0.9694 -0.1938
   49MOL0     C 6671  10.905   2.685   8.711  0.5669 -0.1063  0.3847
   49MOL0     O 6672  10.695   2.542   8.565 -0.8957 -0.4859  0.0847
   49MOL0     C 6673  10.416   2.706   8.709 -0.1744  0.3403  0.3967
   49MOL0     C 6674  10.280   2.730   8.693 -0.6914  0.0329 -0.1513
   49MOL0     N 6675   9.548   2.636   8.158 -0.2700 -0.9532 -0.6270
   49MOL0     N 6676   9.427   2.634   8.097  0.8536 -0.7298  0.3691
   49MOL0     C 6677   8.325   3.026   8.407  1.0747 -0.0783  0.3228
   49MOL0     C 6678   8.211   3.111   8.391 -0.0282  0.6579 -0.0076
   49MOL0     C 6679   7.778   3.216   8.306 -0.1166  0.0865  0.2953
   49MOL0     C 6680   7.746   3.185   8.175  0.1517 -0.3737 -0.3759
   49MOL0     C 6681   7.633   3.233   8.108 -0.6945 -0.1383  1.0091
   49MOL0     C 6682   7.553   3.310   8.177 -0.1732  0.2142 -0.6331
   49MOL0     O 6683   7.449   3.351   8.102  0.3427  0.0562 -0.5860
   49MOL0     C 6684   7.341   3.257   8.079 -0.5363  0.4354  0.7916
   49MOL0     C 6685   7.274   3.198   8.209  0.3805  0.0105 -0.1600
   49MOL0     C 6686   7.180   3.289   8.281  0.4717  0.0053  0.4748
   49MOL0     C 6687   7.092   3.209   8.390 -0.1799 -0.5708  0.3869
   49MOL0     C 6688   6.978   3.129   8.348  1.0671  0.0502  0.0016
   49MOL0     C 6689   6.874   3.077   8.316  0.0131 -0.8550 -0.8210
   49MOL0     C 6690   7.569   3.341   8.306  0.6836  0.4221 -0.3518
   49MOL0     C 6691   7.685   3.296   8.379  0.1923  0.3402  0.3498
   49MOL0     C 6692   7.707   3.349   8.517  0.4641  0.8111 -0.0270
   49MOL0     H 6693   8.031   2.892   8.187 -0.6337 -0.0218  0.7395
   49MOL0     H 6694   8.222   2.756   8.221 -1.9670 -0.5618  0.8666
   49MOL0     H 6695   8.584   2.975   8.326 -0.4745  0.0590 -0.0312
   49MOL0     H 6696   8.517   2.884   8.176 -0.2608  0.6065  0.4153
   49MOL0     H 6697   8.766   2.830   8.228  2.4214 -0.9596  1.8634
   49MOL0     H 6698   8.711   2.757   8.373  1.7309  1.0276  0.1808
   49MOL0     H 6699   8.540   2.636   8.193  0.1239  0.3599  0.2782
   49MOL0     H 6700   8.657   2.690   8.081  2.1667 -1.6226 -0.0978
   49MOL0     H 6701   8.721   2.522   8.328  0.0253 -0.5747 -0.5495
   49MOL0     H 6702   8.715   2.460   8.164  0.3651  0.0516 -0.3878
   49MOL0     H 6703   8.923   2.631   8.284  1.2586  2.0572 -1.4122
   49MOL0     H 6704   8.891   2.641   8.103 -0.2995 -1.2067 -0.7782
   49MOL0     H 6705   8.955   2.371   8.227  0.9609  0.9781  1.1822
   49MOL0     H 6706   8.971   2.428   8.067  2.6506  1.2540 -0.9358
   49MOL0     H 6707   9.198   2.416   8.203  1.5628  0.2742  3.2667
   49MOL0     H 6708   9.141   2.518   8.317  1.6943  1.8425 -0.6576
   49MOL0     H 6709   9.186   2.610   8.036  0.3918 -1.0146  0.6470
   49MOL0     H 6710   9.133   2.716   8.172 -2.7000 -1.5243 -0.0006
   49MOL0     H 6711   9.327   2.688   8.407  0.7890  0.0625  0.1709
   49MOL0     H 6712   9.586   2.636   8.503 -0.0537 -0.2148 -0.2431
   49MOL0     H 6713   9.598   2.798   8.440 -0.9619 -0.5365  2.2893
   49MOL0     H 6714   9.785   2.566   8.349  0.9758  0.9945 -1.7421
   49MOL0     H 6715   9.790   2.737   8.304  0.4148  0.2551  0.6087
   49MOL0     H 6716   9.821   2.801   8.548  2.1510 -0.2028 -0.1429
   49MOL0     H 6717   9.814   2.628   8.593 -1.4129  0.4890  0.9392
   49MOL0     H 6718  10.021   2.582   8.442 -1.3176  0.1722 -0.6284
   49MOL0     H 6719  10.022   2.752   8.404  2.9615  0.1342  0.6651
   49MOL0     H 6720  10.239   2.651   8.374 -1.2537 -0.5520  0.3341
   49MOL0     H 6721  10.446   2.619   8.267  0.2636  2.7893  0.4858
   49MOL0     H 6722  10.572   2.524   8.344  3.2652  2.6731  0.3822
   49MOL0     H 6723  10.588   2.689   8.360  1.2264 -0.3435  3.8204
   49MOL0     H 6724  10.763   2.691   9.016  1.1671 -2.6826  1.6765
   49MOL0     H 6725  10.985   2.763   9.081  2.9710 -2.6745  0.5676
   49MOL0     H 6726  11.071   2.974   8.962  0.4935  0.5210 -1.6879
   49MOL0     H 6727  11.237   2.942   9.050  1.0896  1.8426 -0.1404
   49MOL0     H 6728  11.210   3.161   8.905  5.5789  1.9293  2.1812
   49MOL0     H 6729  11.348   3.049   8.906 -0.2934  0.6699  1.0762
   49MOL0     H 6730  11.129   3.064   8.710 -0.0003  3.6270  3.8331
   49MOL0     H 6731  11.272   2.949   8.690  0.3523  0.3979 -2.8893
   49MOL0     H 6732  11.415   3.146   8.625  0.4774 -0.1382 -1.4341
   49MOL0     H 6733  11.297   3.249   8.675 -1.5877 -0.2689 -0.2638
   49MOL0     H 6734  11.244   3.048   8.459  0.9440  0.1847  0.6222
   49MOL0     H 6735  11.151   3.193   8.506 -0.7712 -2.0354  1.7766
   49MOL0     H 6736  11.429   3.198   8.389  0.4635  1.0162  0.1453
   49MOL0     H 6737  11.356   3.342   8.453  0.2476  0.0106  0.6391
   49MOL0     H 6738  11.165   3.319   8.307 -0.1088  0.3460 -2.3343
   49MOL0     H 6739  11.227   3.165   8.237  3.6116 -1.3453 -0.2492
   49MOL0     H 6740  11.410   3.293   8.136  0.7367  0.7214  1.8966
   49MOL0     H 6741  11.370   3.442   8.218  1.8216 -1.6299  2.7916
   49MOL0     H 6742  11.114   2.725   8.666  0.4053 -1.9544 -0.2562
   49MOL0     H 6743  10.887   2.671   8.605  1.8410  1.2253 -0.0416
   49MOL0     H 6744  10.463   2.743   8.799 -0.8381  0.2341  0.7921
   49MOL0     H 6745  10.233   2.786   8.774 -0.6890  0.1676 -0.2441
   49MOL0     H 6746   8.397   3.073   8.474 -1.1747  1.1896  1.9868
   49MOL0     H 6747   8.194   3.203   8.447 -1.6391 -0.5053  1.5362
   49MOL0     H 6748   7.797   3.110   8.115  1.1888  0.0480 -0.0436
   49MOL0     H 6749   7.613   3.212   8.004 -4.5028 -0.5861  1.7166
   49MOL0     H 6750   7.266   3.312   8.022  1.6124  2.4725 -0.2472
   49MOL0     H 6751   7.367   3.172   8.015 -2.7045 -0.5057  1.0721
   49MOL0     H 6752   7.344   3.151   8.279  0.8396  0.3171 -0.4023
   49MOL0     H 6753   7.218   3.122   8.155  1.8026 -1.0786 -0.1618
   49MOL0     H 6754   7.239   3.367   8.330  0.9624  0.7399 -1.2010
   49MOL0     H 6755   7.121   3.339   8.203  0.8371 -0.9493 -0.4363
   49MOL0     H 6756   7.063   3.280   8.467 -0.0460  0.6079 -0.6069
   49MOL0     H 6757   7.167   3.150   8.442  0.7351  2.3168  2.5906
   49MOL0     H 6758   6.780   3.041   8.279  0.2693 -1.6909 -0.6659
   49MOL0     H 6759   7.491   3.397   8.356 -0.4785 -1.9764  0.7079
   49MOL0     H 6760   7.626   3.410   8.558  0.8884 -1.2661  4.5694
   49MOL0     H 6761   7.746   3.274   8.587  1.2113  1.6426  0.4670
   49MOL0     H 6762   7.787   3.423   8.501  0.7167  0.2499 -1.5363
   50MOL0     O 6763  10.876   8.915   5.513  0.1891 -0.4030  0.1690
   50MOL0     C 6764  10.770   8.914   5.573 -0.5264 -0.1691 -1.0939
   50MOL0     O 6765  10.716   9.024   5.642  0.2401 -0.1193 -0.1473
   50MOL0     C 6766  10.793   9.144   5.642  1.0974  0.9427  0.4206
   50MOL0     C 6767  10.800   9.240   5.530 -0.6100  0.1513 -0.3929
   50MOL0     C 6768  10.876   9.357   5.541  0.1033 -0.3385  0.7419
   50MOL0     C 6769  10.942   9.391   5.655 -1.1846 -0.9361  0.1034
   50MOL0     O 6770  10.988   9.523   5.652  0.2122  0.3494  0.5366
   50MOL0     C 6771  11.067   9.562   5.770  0.0496 -0.4741  0.6940
   50MOL0     C 6772  11.082   9.720   5.768 -0.2723  0.0978  0.0564
   50MOL0     C 6773  11.159   9.771   5.884  0.6704  0.0892 -0.8796
   50MOL0     C 6774  11.075   9.755   6.015  0.3858  0.6198 -0.2275
   50MOL0     C 6775  11.125   9.829   6.140 -0.1143 -0.1637 -0.7486
   50MOL0     C 6776  11.251   9.764   6.185  0.7743 -0.4582 -0.4270
   50MOL0     C 6777  11.313   9.849   6.300 -0.0943  0.8747  0.0352
   50MOL0     C 6778  11.449   9.798   6.319 -0.5434 -0.1442  0.4266
   50MOL0     N 6779  11.459   9.697   6.425  0.2553 -0.4726 -0.4029
   50MOL0     C 6780  11.576   9.662   6.485  0.6909 -0.1900 -0.0980
   50MOL0     C 6781  11.538   9.563   6.563  0.1432 -1.4422 -0.2306
   50MOL0     C 6782  11.613   9.505   6.684 -0.6059  0.1941 -0.5074
   50MOL0     C 6783  11.589   9.581   6.819  0.0975  0.2003 -0.5041
   50MOL0     C 6784  11.698   9.558   6.927  0.1485  0.3643  0.2516
   50MOL0     C 6785  11.725   9.411   6.966  0.2090 -0.3672  0.1729
   50MOL0     O 6786  11.801   9.353   6.858  0.2073  0.2696  0.3924
   50MOL0     C 6787  11.931   9.351   6.874 -1.5297  0.4131  0.3976
   50MOL0     C 6788  12.006   9.269   6.954  0.0777  0.6636  0.4913
   50MOL0     C 6789  12.148   9.274   6.964  0.2984 -0.7138  0.0229
   50MOL0     C 6790  12.209   9.174   7.070  0.7704  0.3254  0.8637
   50MOL0     C 6791  12.220   9.365   6.879  0.1054  0.3578 -0.1648
   50MOL0     C 6792  12.373   9.381   6.872  0.2981 -0.0005  0.2919
   50MOL0     O 6793  12.426   9.488   6.809  0.5525 -0.4003 -0.3583
   50MOL0     C 6794  12.561   9.498   6.827  0.0928  1.1627  0.4678
   50MOL0     C 6795  12.640   9.439   6.729  0.1851  0.0777  0.5254
   50MOL0     C 6796  12.782   9.471   6.721  0.3066  0.3236  0.2271
   50MOL0     C 6797  12.839   9.554   6.820  0.3055 -0.3592 -0.3697
   50MOL0     O 6798  12.972   9.589   6.822  0.2531  0.4055 -0.1930
   50MOL0     C 6799  13.039   9.660   6.719  0.0643 -0.0709  0.0666
   50MOL0     C 6800  12.973   9.796   6.697 -0.4853  1.1309  0.1144
   50MOL0     C 6801  12.992   9.885   6.828  0.2342 -0.7089  0.7738
   50MOL0     C 6802  12.936  10.028   6.821 -0.3924  0.6357  0.4174
   50MOL0     C 6803  12.786  10.033   6.851  0.5743 -0.9552 -0.1573
   50MOL0     C 6804  12.768  10.016   7.011 -0.3996 -0.0921  0.0176
   50MOL0     C 6805  12.622  10.035   7.044 -0.2902  0.3389 -0.6617
   50MOL0     C 6806  12.612  10.012   7.197  0.0279  0.3727 -0.3650
   50MOL0    Cl 6807  12.454  10.065   7.255 -0.2872  0.1441  0.3841
   50MOL0     C 6808  12.763   9.602   6.926  0.3304  0.8116  0.4943
   50MOL0     C 6809  12.626   9.570   6.927  1.2435 -0.5859 -0.2502
   50MOL0     O 6810  12.438   9.297   6.938  0.3027  0.2171 -0.1446
   50MOL0     C 6811  12.143   9.451   6.790  0.5695  0.1339 -0.4131
   50MOL0     C 6812  12.003   9.444   6.798 -0.1048  0.9338 -0.0678
   50MOL0     N 6813  11.403   9.536   6.549  0.5729  0.4832 -0.4353
   50MOL0     N 6814  11.355   9.617   6.462  0.2948  0.0530  0.7878
   50MOL0     C 6815  10.945   9.293   5.764 -0.8298 -1.3924  0.3080
   50MOL0     C 6816  10.865   9.178   5.757  0.0531 -1.4041 -0.0935
   50MOL0     C 6817  10.678   8.788   5.559 -0.7271 -0.3959 -1.4365
   50MOL0     C 6818  10.538   8.804   5.587  0.7714  0.6045 -0.2400
   50MOL0     C 6819  10.452   8.692   5.593  0.2761 -0.0610 -0.4976
   50MOL0     C 6820  10.493   8.561   5.561 -0.2610  0.4769  0.3588
   50MOL0     O 6821  10.415   8.456   5.590  0.0495  0.3625  0.1888
   50MOL0     C 6822  10.454   8.322   5.551 -0.1790  0.0442 -0.3296
   50MOL0     C 6823  10.345   8.221   5.556 -0.0760 -0.5927  0.1874
   50MOL0     C 6824  10.213   8.273   5.520  0.6866 -0.3940  0.5850
   50MOL0     C 6825  10.102   8.162   5.512 -0.0475 -0.1382 -0.4564
   50MOL0     C 6826   9.977   8.222   5.465 -0.0810  0.0063  0.2189
   50MOL0     C 6827   9.880   8.281   5.415 -0.1920  0.0103  0.3017
   50MOL0     C 6828  10.627   8.546   5.510  0.2125  0.2970  0.1478
   50MOL0     C 6829  10.719   8.658   5.512  0.4146  0.8984 -0.4850
   50MOL0     C 6830  10.857   8.619   5.470  0.7175  0.1081  0.3258
   50MOL0     H 6831  10.754   9.216   5.434  0.9806  0.0312 -1.1570
   50MOL0     H 6832  10.861   9.423   5.456  1.5190 -2.8875 -1.6365
   50MOL0     H 6833  11.166   9.516   5.760 -1.1824 -2.8674 -2.0656
   50MOL0     H 6834  11.017   9.526   5.860 -0.5501  0.1125  0.6070
   50MOL0     H 6835  11.134   9.756   5.678 -1.2318 -1.1852 -1.0629
   50MOL0     H 6836  10.986   9.772   5.772  0.5692  1.6632  1.4126
   50MOL0     H 6837  11.253   9.717   5.898 -0.4688 -1.9675 -0.8216
   50MOL0     H 6838  11.172   9.880   5.879 -2.5102  0.6291  0.1012
   50MOL0     H 6839  10.969   9.780   6.002 -0.9344 -2.9264  2.1637
   50MOL0     H 6840  11.067   9.651   6.048 -0.6143  0.8139  0.1620
   50MOL0     H 6841  11.048   9.819   6.217  1.9986 -2.1925  1.2458
   50MOL0     H 6842  11.146   9.936   6.127 -1.9899  0.7983  2.7271
   50MOL0     H 6843  11.233   9.662   6.220 -0.9502 -0.3890 -1.0326
   50MOL0     H 6844  11.322   9.755   6.102 -0.1905  0.0209 -1.3276
   50MOL0     H 6845  11.242   9.848   6.383  1.0943  1.4414  1.0936
   50MOL0     H 6846  11.311   9.953   6.266 -1.1202  1.1496  0.8952
   50MOL0     H 6847  11.497   9.763   6.227  0.4963 -0.6242  1.1411
   50MOL0     H 6848  11.497   9.893   6.344  0.2151  0.3977 -2.6303
   50MOL0     H 6849  11.672   9.709   6.467 -0.1412  1.2568 -0.9308
   50MOL0     H 6850  11.718   9.492   6.655  0.2217  1.7626  1.5723
   50MOL0     H 6851  11.582   9.402   6.705 -0.4506 -0.4664 -3.1234
   50MOL0     H 6852  11.592   9.685   6.786  0.7501  0.6573  0.8999
   50MOL0     H 6853  11.489   9.567   6.860 -0.3756  0.0626 -1.6865
   50MOL0     H 6854  11.787   9.610   6.890  1.1756 -2.6586 -1.9363
   50MOL0     H 6855  11.655   9.612   7.012  0.6469 -2.6913  2.6034
   50MOL0     H 6856  11.777   9.410   7.063 -1.2443  1.7223  1.0558
   50MOL0     H 6857  11.640   9.353   7.002  2.6946 -3.3108  1.8696
   50MOL0     H 6858  11.954   9.196   7.016 -2.4932 -1.4670 -3.7314
   50MOL0     H 6859  12.308   9.206   7.101  1.6024 -1.1516 -0.1648
   50MOL0     H 6860  12.220   9.076   7.023 -2.4808  1.2313 -2.2893
   50MOL0     H 6861  12.135   9.186   7.150 -1.4853  1.9099 -1.2544
   50MOL0     H 6862  12.590   9.373   6.660 -0.5511 -2.4959  3.3205
   50MOL0     H 6863  12.849   9.450   6.638 -1.0596 -1.6325 -0.4532
   50MOL0     H 6864  13.144   9.669   6.750  0.4861 -3.8676  0.3226
   50MOL0     H 6865  13.049   9.602   6.627  1.6175 -0.6578  0.5557
   50MOL0     H 6866  13.022   9.839   6.609  0.4370  2.1145  1.0763
   50MOL0     H 6867  12.869   9.775   6.672 -0.1937  2.4551 -2.5981
   50MOL0     H 6868  13.100   9.901   6.824 -0.0460  1.4062 -0.9204
   50MOL0     H 6869  12.966   9.842   6.924  2.4712 -0.7457  1.4158
   50MOL0     H 6870  12.935  10.056   6.715 -4.7903 -1.0848 -0.2235
   50MOL0     H 6871  12.992  10.093   6.889  0.2862  0.6110 -0.1060
   50MOL0     H 6872  12.747  10.132   6.826  1.9588  0.3706  2.4298
   50MOL0     H 6873  12.730   9.956   6.797  1.9714 -1.2925 -1.2141
   50MOL0     H 6874  12.829  10.089   7.065 -2.1162  2.1769 -0.9474
   50MOL0     H 6875  12.790   9.909   7.025 -3.3469 -1.1501 -2.2125
   50MOL0     H 6876  12.573   9.954   6.991  1.6706 -0.0481 -2.0034
   50MOL0     H 6877  12.570  10.123   7.006 -1.6741  1.4420  3.2823
   50MOL0     H 6878  12.684  10.072   7.254 -2.0235 -0.1092  3.0302
   50MOL0     H 6879  12.627   9.906   7.219 -1.0418  0.5364  1.3203
   50MOL0     H 6880  12.817   9.661   6.999 -0.5034  2.4027 -0.1306
   50MOL0     H 6881  12.561   9.618   6.999  2.5149  0.2451  0.3772
   50MOL0     H 6882  12.181   9.535   6.733  1.6532 -0.8365 -1.1753
   50MOL0     H 6883  11.963   9.511   6.723  2.7717  2.5692 -0.2780
   50MOL0     H 6884  10.993   9.314   5.859 -0.0811 -1.1597 -0.1150
   50MOL0     H 6885  10.868   9.115   5.846  1.1530  1.2008  1.8412
   50MOL0     H 6886  10.493   8.899   5.614  2.1165  1.1047  0.3722
   50MOL0     H 6887  10.350   8.694   5.629  0.0515  0.3030 -1.1310
   50MOL0     H 6888  10.489   8.321   5.447  2.7028 -1.4687  0.5410
   50MOL0     H 6889  10.535   8.295   5.620 -2.5233  0.8012  2.9396
   50MOL0     H 6890  10.346   8.168   5.651 -0.5267 -2.8742 -1.0006
   50MOL0     H 6891  10.372   8.152   5.475  1.2310  0.1030 -0.0080
   50MOL0     H 6892  10.183   8.354   5.588  1.1016  1.0463 -0.8918
   50MOL0     H 6893  10.216   8.318   5.421 -1.4345  0.3170  0.7919
   50MOL0     H 6894  10.101   8.112   5.610  2.9237  1.1934  0.3540
   50MOL0     H 6895  10.125   8.083   5.440 -0.9308 -3.0288  2.1732
   50MOL0     H 6896   9.811   8.349   5.368  1.9176  0.6100 -2.0959
   50MOL0     H 6897  10.663   8.450   5.474  1.3866  0.6838  0.2618
   50MOL0     H 6898  10.889   8.703   5.407 -0.8459  1.5711  1.4229
   50MOL0     H 6899  10.923   8.628   5.557  0.2792  0.8458  0.5862
   50MOL0     H 6900  10.856   8.523   5.418 -2.0327  0.8191 -1.1262
   51MOL0     O 6901   1.920   0.563   3.445 -0.2349  0.5550 -0.2083
   51MOL0     C 6902   1.838   0.652   3.475 -0.2277  0.7118  0.1991
   51MOL0     O 6903   1.878   0.771   3.537 -0.5359 -0.1906  0.0187
   51MOL0     C 6904   2.010   0.787   3.591  0.3622  0.0060  0.7057
   51MOL0     C 6905   2.083   0.688   3.651  0.1604 -0.2336  0.9642
   51MOL0     C 6906   2.202   0.731   3.707  0.0858  0.2895  0.4537
   51MOL0     C 6907   2.260   0.860   3.693  0.5900  0.5159 -0.0599
   51MOL0     O 6908   2.377   0.884   3.758  0.1304  0.3614 -0.3404
   51MOL0     C 6909   2.388   0.995   3.845 -0.3691  0.0148  0.6408
   51MOL0     C 6910   2.491   0.956   3.954  0.7703 -0.0339  0.6627
   51MOL0     C 6911   2.426   0.862   4.051 -1.1672 -0.1536  0.0062
   51MOL0     C 6912   2.446   0.711   4.025 -0.7318 -0.4089  0.0184
   51MOL0     C 6913   2.435   0.633   4.155 -0.3412 -0.7008 -0.4946
   51MOL0     C 6914   2.431   0.476   4.146  0.1751  0.5315  0.4822
   51MOL0     C 6915   2.294   0.425   4.098  0.5386 -0.0201  0.1649
   51MOL0     C 6916   2.279   0.269   4.093  0.1256 -0.5711  0.4933
   51MOL0     N 6917   2.348   0.203   3.975  0.5204  0.1127  0.1039
   51MOL0     C 6918   2.477   0.165   3.969 -1.0821 -0.4738  0.0828
   51MOL0     C 6919   2.483   0.084   3.866  0.1790  0.4343  0.1157
   51MOL0     C 6920   2.618   0.025   3.820  0.1198  0.6775 -0.2576
   51MOL0     C 6921   2.736   0.125   3.782  0.0295  0.6696 -0.3185
   51MOL0     C 6922   2.862   0.039   3.751  0.2367 -0.0884  0.8190
   51MOL0     C 6923   2.972   0.114   3.691  0.3122 -0.7011  0.5851
   51MOL0     O 6924   3.103   0.062   3.709 -0.9578 -0.1282  0.8508
   51MOL0     C 6925   3.210   0.129   3.656 -0.2081  0.5827 -0.8857
   51MOL0     C 6926   3.225   0.271   3.631 -0.3071 -0.5170  0.1244
   51MOL0     C 6927   3.341   0.337   3.579  0.0236 -0.0737  0.4674
   51MOL0     C 6928   3.335   0.484   3.549 -0.0884  0.2432 -0.6177
   51MOL0     C 6929   3.448   0.258   3.547 -0.5423  0.6480 -0.3627
   51MOL0     C 6930   3.572   0.303   3.482 -0.4602 -0.4112  0.4516
   51MOL0     O 6931   3.658   0.196   3.455 -0.2339  0.0568 -0.1111
   51MOL0     C 6932   3.787   0.224   3.402 -0.3415  0.8402 -0.1452
   51MOL0     C 6933   3.798   0.259   3.268 -0.2402 -0.2222 -0.2562
   51MOL0     C 6934   3.917   0.270   3.208  0.0924 -1.2040 -0.1720
   51MOL0     C 6935   4.040   0.259   3.279 -0.0925 -0.8521  1.0410
   51MOL0     O 6936   4.156   0.268   3.207 -0.3026 -0.1839  1.0720
   51MOL0     C 6937   4.279   0.296   3.275  0.3796 -0.0752  0.0390
   51MOL0     C 6938   4.354   0.162   3.305 -0.6445 -0.4319  0.3387
   51MOL0     C 6939   4.502   0.194   3.347  0.6554  0.3161  0.7322
   51MOL0     C 6940   4.594   0.068   3.307 -0.1323 -0.0021 -0.5898
   51MOL0     C 6941   4.737   0.102   3.331  0.1048 -0.3163  0.7572
   51MOL0     C 6942   4.819  -0.015   3.287 -0.0298  0.7658 -0.2004
   51MOL0     C 6943   4.951  -0.004   3.365 -0.3449  0.0732  0.4619
   51MOL0     C 6944   5.043  -0.128   3.372  0.6350  0.3637 -0.3999
   51MOL0    Cl 6945   5.063  -0.187   3.212  0.0341 -0.1081  0.0688
   51MOL0     C 6946   4.028   0.234   3.413 -0.1340  0.2951 -0.3294
   51MOL0     C 6947   3.903   0.215   3.479  0.4381  0.4615  0.5225
   51MOL0     O 6948   3.593   0.421   3.451  0.3761 -0.7380  0.0385
   51MOL0     C 6949   3.434   0.116   3.566  0.0668  0.0224  0.8858
   51MOL0     C 6950   3.326   0.052   3.623  0.2775 -0.4979  0.0484
   51MOL0     N 6951   2.360   0.058   3.812 -0.1998 -0.2305  0.4721
   51MOL0     N 6952   2.282   0.134   3.879 -0.5985 -1.0406  0.8841
   51MOL0     C 6953   2.182   0.955   3.635  0.1366 -0.3513 -0.3257
   51MOL0     C 6954   2.058   0.922   3.577 -0.1055  0.4083  0.0897
   51MOL0     C 6955   1.695   0.638   3.445 -0.0595 -0.1965 -0.3940
   51MOL0     C 6956   1.637   0.515   3.473  0.0499  0.8811 -0.4909
   51MOL0     C 6957   1.503   0.494   3.449  0.3595 -0.3070  0.5208
   51MOL0     C 6958   1.414   0.597   3.416  0.1933  0.6789 -0.8442
   51MOL0     O 6959   1.277   0.572   3.411 -0.1046  0.0991 -0.7639
   51MOL0     C 6960   1.224   0.467   3.497  0.7459 -0.0228  0.5552
   51MOL0     C 6961   1.079   0.437   3.467  0.6090  0.1455 -0.2918
   51MOL0     C 6962   1.055   0.429   3.317 -0.0338 -0.5284 -0.1637
   51MOL0     C 6963   0.917   0.386   3.282 -0.5602 -0.0144  0.1545
   51MOL0     C 6964   0.896   0.396   3.138  0.7787 -0.0451 -1.0635
   51MOL0     C 6965   0.878   0.409   3.017 -0.0251  0.9710 -0.1222
   51MOL0     C 6966   1.474   0.718   3.372 -0.1450  0.8087  0.3058
   51MOL0     C 6967   1.616   0.741   3.381 -0.6168 -0.5485 -0.1546
   51MOL0     C 6968   1.677   0.863   3.319 -0.6738 -0.7665 -0.7125
   51MOL0     H 6969   2.037   0.589   3.656  0.4183 -0.3616  0.8234
   51MOL0     H 6970   2.270   0.681   3.776 -0.4945  4.6955  4.8432
   51MOL0     H 6971   2.293   1.024   3.891  0.2800  1.2803  1.2310
   51MOL0     H 6972   2.430   1.075   3.784  0.3127 -1.3945 -0.8105
   51MOL0     H 6973   2.578   0.906   3.911  0.2576 -2.2519  2.0072
   51MOL0     H 6974   2.521   1.040   4.017  4.4576 -0.7673  0.1241
   51MOL0     H 6975   2.478   0.886   4.144  2.7030 -1.8174 -1.5056
   51MOL0     H 6976   2.320   0.884   4.063 -1.4527 -0.6614 -1.3166
   51MOL0     H 6977   2.378   0.681   3.945 -0.0416  1.4410 -1.3344
   51MOL0     H 6978   2.544   0.692   3.981  0.0580 -0.7548  1.8426
   51MOL0     H 6979   2.351   0.669   4.215 -2.2576 -4.3636 -0.6490
   51MOL0     H 6980   2.522   0.660   4.215 -1.4110  3.0358 -0.3576
   51MOL0     H 6981   2.498   0.445   4.066  0.0689 -0.9736  0.9450
   51MOL0     H 6982   2.453   0.425   4.240 -1.0030 -0.0418  0.4796
   51MOL0     H 6983   2.258   0.463   4.002 -0.1486  1.3463  0.9334
   51MOL0     H 6984   2.223   0.468   4.169  1.9714  1.4118  0.8089
   51MOL0     H 6985   2.316   0.220   4.183 -0.3667  0.6404  1.3783
   51MOL0     H 6986   2.171   0.259   4.080 -0.1469  2.5677 -0.4811
   51MOL0     H 6987   2.559   0.198   4.031 -2.4362  0.9016  1.2330
   51MOL0     H 6988   2.598  -0.036   3.731  0.7579 -0.7481  0.5295
   51MOL0     H 6989   2.655  -0.036   3.903 -0.4113  0.9871  0.2069
   51MOL0     H 6990   2.718   0.181   3.689  1.2800 -1.1521 -1.7265
   51MOL0     H 6991   2.751   0.198   3.862 -2.3519  0.5894  0.2934
   51MOL0     H 6992   2.893   0.008   3.851  1.9865  1.1160  0.6961
   51MOL0     H 6993   2.836  -0.046   3.688  0.6580  0.0306  0.4847
   51MOL0     H 6994   2.946   0.133   3.587  0.7193  0.4486  0.6767
   51MOL0     H 6995   2.980   0.214   3.733 -0.6123 -0.5439  0.3911
   51MOL0     H 6996   3.138   0.333   3.650  0.5575  1.5447 -2.1278
   51MOL0     H 6997   3.338   0.482   3.440 -1.9777 -1.6747 -0.7048
   51MOL0     H 6998   3.420   0.537   3.593  0.4024  0.8588 -2.2284
   51MOL0     H 6999   3.246   0.537   3.583  0.5468 -1.0950  3.6892
   51MOL0     H 7000   3.709   0.276   3.207  0.5433 -1.5509 -1.8366
   51MOL0     H 7001   3.914   0.287   3.101  0.9601 -0.1870 -0.0480
   51MOL0     H 7002   4.330   0.366   3.208  0.1713 -1.3362 -1.4971
   51MOL0     H 7003   4.258   0.346   3.370 -3.6260  0.6030 -1.0482
   51MOL0     H 7004   4.309   0.108   3.389  2.2442  0.8657  2.9113
   51MOL0     H 7005   4.348   0.111   3.209 -1.5196  1.1282 -0.4908
   51MOL0     H 7006   4.527   0.223   3.449  1.7732 -1.2206  0.9444
   51MOL0     H 7007   4.535   0.278   3.285  0.3832  1.6320  2.3139
   51MOL0     H 7008   4.586   0.054   3.199 -0.5699  2.0941 -0.8678
   51MOL0     H 7009   4.554  -0.024   3.351 -0.2545  1.3258  2.3173
   51MOL0     H 7010   4.772   0.188   3.273  0.2374 -1.2889 -0.6406
   51MOL0     H 7011   4.747   0.117   3.439  1.5977 -0.3243  0.6342
   51MOL0     H 7012   4.829  -0.025   3.179 -2.5215 -0.0025 -0.4245
   51MOL0     H 7013   4.775  -0.105   3.330  3.0038  0.0679  1.8018
   51MOL0     H 7014   4.918   0.017   3.467  0.8551  0.0920  0.8536
   51MOL0     H 7015   5.003   0.077   3.313  0.6919 -0.0985  1.1937
   51MOL0     H 7016   5.006  -0.204   3.441  0.2126  0.9721  0.0515
   51MOL0     H 7017   5.142  -0.102   3.411  1.5552 -1.0501 -1.6706
   51MOL0     H 7018   4.116   0.227   3.475  0.4667 -1.4598 -1.2775
   51MOL0     H 7019   3.899   0.194   3.585  1.8663  2.2585  0.9970
   51MOL0     H 7020   3.512   0.053   3.524  0.8655  1.4645  0.1113
   51MOL0     H 7021   3.320  -0.056   3.635  2.2115 -0.9297 -2.2901
   51MOL0     H 7022   2.215   1.059   3.632  2.3579 -0.9550  0.8581
   51MOL0     H 7023   2.000   0.998   3.527 -2.1320 -0.5980  0.7898
   51MOL0     H 7024   1.689   0.420   3.483 -0.0423  0.7637 -1.0968
   51MOL0     H 7025   1.472   0.390   3.448  1.8195 -0.8502 -2.8780
   51MOL0     H 7026   1.271   0.370   3.478 -0.1431 -0.8347  2.2185
   51MOL0     H 7027   1.239   0.492   3.603  2.1216 -1.9614  0.8752
   51MOL0     H 7028   1.008   0.509   3.507  0.7896  1.1443 -1.6922
   51MOL0     H 7029   1.064   0.336   3.505  0.0293 -1.0965 -3.4956
   51MOL0     H 7030   1.066   0.531   3.278 -2.0587 -0.4462 -0.6656
   51MOL0     H 7031   1.130   0.361   3.278  3.2398  2.9739 -0.5532
   51MOL0     H 7032   0.840   0.450   3.326 -1.9272 -1.3916 -0.1477
   51MOL0     H 7033   0.897   0.283   3.314 -3.5429 -0.1164 -1.6551
   51MOL0     H 7034   0.866   0.408   2.910 -1.3260  0.6605  0.0015
   51MOL0     H 7035   1.399   0.781   3.327  2.1304  1.6662 -2.5580
   51MOL0     H 7036   1.659   0.950   3.383 -0.5703 -1.1784 -0.1226
   51MOL0     H 7037   1.784   0.845   3.306 -0.4427  1.0614 -1.8061
   51MOL0     H 7038   1.650   0.889   3.216  1.3367 -1.0686 -1.3702
   52MOL0     O 7039   8.132   4.385   4.303 -0.6982 -0.1537 -0.3926
   52MOL0     C 7040   8.080   4.370   4.192  0.1739  0.2576  0.6043
   52MOL0     O 7041   8.150   4.330   4.088 -0.6856 -0.2627  0.5405
   52MOL0     C 7042   8.275   4.285   4.118  0.1769 -0.6283 -0.9109
   52MOL0     C 7043   8.387   4.369   4.110  0.0143 -0.6009 -1.0079
   52MOL0     C 7044   8.518   4.316   4.139  0.2775  0.0472 -0.1450
   52MOL0     C 7045   8.532   4.183   4.169 -0.3014  0.5580 -0.1203
   52MOL0     O 7046   8.651   4.131   4.210  0.4296  0.4284  0.0855
   52MOL0     C 7047   8.770   4.194   4.157  0.0635  0.5345 -0.0074
   52MOL0     C 7048   8.881   4.092   4.200  0.2213 -0.3383  0.0513
   52MOL0     C 7049   9.014   4.099   4.115  0.2649 -0.5130  0.7258
   52MOL0     C 7050   9.118   3.990   4.156 -0.3455  0.1559 -0.8213
   52MOL0     C 7051   9.184   4.012   4.289  0.4767 -0.1686 -0.0004
   52MOL0     C 7052   9.277   3.900   4.326  0.1638 -0.3946  0.1829
   52MOL0     C 7053   9.388   3.879   4.220 -0.7407 -0.0424 -0.2164
   52MOL0     C 7054   9.509   3.796   4.272  0.0164 -0.7350 -0.3171
   52MOL0     N 7055   9.492   3.656   4.273  0.5905 -0.2008  0.2502
   52MOL0     C 7056   9.445   3.585   4.382  0.0596  0.2281 -0.1501
   52MOL0     C 7057   9.474   3.454   4.355  0.2850  0.0946  0.0346
   52MOL0     C 7058   9.452   3.346   4.456  0.3700 -0.9343  0.7505
   52MOL0     C 7059   9.583   3.274   4.491  0.2400 -0.4479 -0.6715
   52MOL0     C 7060   9.585   3.186   4.615  0.2234 -0.3082 -0.7385
   52MOL0     C 7061   9.560   3.260   4.749  0.0574  0.3076  0.2578
   52MOL0     O 7062   9.656   3.359   4.778 -0.7387 -0.1437  0.3558
   52MOL0     C 7063   9.785   3.311   4.812 -0.6168  0.7380  0.6334
   52MOL0     C 7064   9.888   3.392   4.771  0.1624 -0.6414  0.5933
   52MOL0     C 7065  10.023   3.368   4.804 -0.3896  0.1157  0.0300
   52MOL0     C 7066  10.116   3.486   4.767  0.3751  0.3183 -0.4094
   52MOL0     C 7067  10.061   3.249   4.876  0.2095 -0.3349 -0.2404
   52MOL0     C 7068  10.200   3.233   4.929 -0.4109  0.0855  0.4802
   52MOL0     O 7069  10.300   3.300   4.865 -0.2277  0.9257 -0.2754
   52MOL0     C 7070  10.425   3.277   4.897 -0.4701  0.3447  0.0049
   52MOL0     C 7071  10.482   3.153   4.890 -0.9421 -0.2500  0.0149
   52MOL0     C 7072  10.618   3.135   4.918 -0.0383 -0.5500 -0.2459
   52MOL0     C 7073  10.702   3.236   4.958 -0.2973  0.5487  0.2538
   52MOL0     O 7074  10.829   3.208   4.986  0.4217 -0.8814  0.0065
   52MOL0     C 7075  10.930   3.312   4.993 -0.4616  1.3531 -0.0820
   52MOL0     C 7076  11.069   3.258   5.029  0.3815 -0.4153 -0.0861
   52MOL0     C 7077  11.089   3.203   5.179  0.2103 -0.9051 -0.4670
   52MOL0     C 7078  11.236   3.202   5.212 -0.0466 -0.0394  0.0407
   52MOL0     C 7079  11.303   3.115   5.109 -1.2744  0.1976 -0.2318
   52MOL0     C 7080  11.432   3.049   5.170 -0.6386  0.1669  0.8191
   52MOL0     C 7081  11.473   2.934   5.083 -0.0965 -0.8645  0.0800
   52MOL0     C 7082  11.580   2.843   5.144  0.4879 -0.8990  0.0156
   52MOL0    Cl 7083  11.551   2.676   5.091  0.5447 -0.8999  0.3538
   52MOL0     C 7084  10.645   3.368   4.957  0.3005 -0.1513 -0.0532
   52MOL0     C 7085  10.507   3.384   4.931 -0.1770 -0.3249  0.2330
   52MOL0     O 7086  10.211   3.153   5.024 -0.5028 -0.0303 -0.8279
   52MOL0     C 7087   9.951   3.161   4.908 -0.3611 -0.1336 -0.8506
   52MOL0     C 7088   9.815   3.188   4.876 -0.6635  0.2072  0.0176
   52MOL0     N 7089   9.527   3.444   4.228 -0.0627  1.1129 -0.1258
   52MOL0     N 7090   9.536   3.566   4.185  0.1127  0.2760  1.1967
   52MOL0     C 7091   8.423   4.106   4.177 -0.8876 -0.0013 -0.1554
   52MOL0     C 7092   8.296   4.153   4.155  0.6669  0.3743  0.1862
   52MOL0     C 7093   7.933   4.388   4.181  0.5473  0.5013  0.9586
   52MOL0     C 7094   7.869   4.353   4.055 -0.6590  0.2121 -0.4937
   52MOL0     C 7095   7.740   4.391   4.021  0.5584 -0.2371  0.6982
   52MOL0     C 7096   7.655   4.441   4.115 -0.5685  0.1046 -0.8913
   52MOL0     O 7097   7.527   4.473   4.102 -0.1004  0.0390  0.3709
   52MOL0     C 7098   7.464   4.445   3.974 -0.4956  0.4704  0.1691
   52MOL0     C 7099   7.320   4.490   3.973  0.0668  0.7776 -0.0320
   52MOL0     C 7100   7.247   4.427   4.100 -0.2174  0.6136  1.0561
   52MOL0     C 7101   7.089   4.439   4.084  0.2008 -0.5176  0.2380
   52MOL0     C 7102   7.016   4.364   4.193 -0.0468  0.3270 -0.1676
   52MOL0     C 7103   6.950   4.283   4.261  0.8236  0.8515  0.1818
   52MOL0     C 7104   7.708   4.465   4.244  0.1037  0.5437  0.1485
   52MOL0     C 7105   7.851   4.438   4.279  0.2759  0.0545  1.1979
   52MOL0     C 7106   7.887   4.472   4.416 -0.2368  0.1759 -0.0734
   52MOL0     H 7107   8.378   4.470   4.072 -3.4481 -1.8301 -4.0626
   52MOL0     H 7108   8.598   4.388   4.125  0.0070  0.6388  1.2510
   52MOL0     H 7109   8.796   4.294   4.191 -1.5050  0.6722  0.8843
   52MOL0     H 7110   8.759   4.191   4.048  1.5473 -0.8089 -0.1604
   52MOL0     H 7111   8.904   4.103   4.306 -1.1962 -1.4080  0.5012
   52MOL0     H 7112   8.843   3.992   4.176  0.3647 -0.3966  0.0707
   52MOL0     H 7113   8.992   4.085   4.009  0.5177  1.0858  0.4432
   52MOL0     H 7114   9.070   4.192   4.117  2.9732 -2.0462  0.3852
   52MOL0     H 7115   9.076   3.890   4.161 -1.5996  0.7059  0.1325
   52MOL0     H 7116   9.194   3.988   4.077 -2.0294  0.0471 -2.5103
   52MOL0     H 7117   9.108   4.017   4.368 -0.9460 -0.9236 -1.2724
   52MOL0     H 7118   9.243   4.104   4.297  0.1515  0.0279  0.1932
   52MOL0     H 7119   9.328   3.923   4.420  3.3224  0.3604 -1.6097
   52MOL0     H 7120   9.216   3.810   4.343 -0.5904  0.2863  1.2538
   52MOL0     H 7121   9.423   3.977   4.186 -0.2757 -0.6863 -1.6698
   52MOL0     H 7122   9.335   3.827   4.140 -1.2416 -1.6577  1.0853
   52MOL0     H 7123   9.595   3.796   4.205 -0.3785 -3.8091 -0.9813
   52MOL0     H 7124   9.540   3.816   4.375  1.6963 -2.3561 -0.4352
   52MOL0     H 7125   9.406   3.623   4.476  1.0359  1.4763 -0.2289
   52MOL0     H 7126   9.374   3.282   4.413  0.1628 -0.2410  0.0878
   52MOL0     H 7127   9.406   3.386   4.547 -0.8627 -0.4655 -0.0594
   52MOL0     H 7128   9.618   3.219   4.404  0.8781 -1.0353 -0.0588
   52MOL0     H 7129   9.661   3.349   4.508  1.9574 -2.3098  0.0471
   52MOL0     H 7130   9.508   3.110   4.601 -0.4635  0.4093 -0.9447
   52MOL0     H 7131   9.674   3.123   4.621  0.7241  0.4737  3.6384
   52MOL0     H 7132   9.466   3.316   4.754  0.1672  0.4147  1.4981
   52MOL0     H 7133   9.555   3.187   4.831 -2.4207  1.3087  1.1050
   52MOL0     H 7134   9.866   3.478   4.708  3.1738  1.1782  1.7536
   52MOL0     H 7135  10.181   3.526   4.845  1.2953 -0.9748 -0.4818
   52MOL0     H 7136  10.057   3.574   4.742  0.1593  1.4851  3.5516
   52MOL0     H 7137  10.178   3.458   4.682 -0.0949 -1.1294 -0.3134
   52MOL0     H 7138  10.434   3.064   4.851 -1.0884  0.0570 -0.5168
   52MOL0     H 7139  10.658   3.036   4.897 -1.0219 -0.4010 -3.3468
   52MOL0     H 7140  10.932   3.361   4.896 -1.4342  0.0006 -0.8193
   52MOL0     H 7141  10.904   3.384   5.071  1.5832  4.1607 -1.8282
   52MOL0     H 7142  11.083   3.168   4.968 -0.8401 -0.9278  0.3665
   52MOL0     H 7143  11.146   3.334   5.011 -0.4710  2.0705  4.9119
   52MOL0     H 7144  11.043   3.105   5.186 -1.0396 -0.5188 -2.3834
   52MOL0     H 7145  11.047   3.265   5.259 -0.0682 -1.1546 -0.4172
   52MOL0     H 7146  11.237   3.161   5.314  0.7246  1.5366  0.6988
   52MOL0     H 7147  11.267   3.307   5.207 -0.4542  0.0586 -0.4561
   52MOL0     H 7148  11.244   3.031   5.072 -0.7820  0.4516 -1.6499
   52MOL0     H 7149  11.338   3.180   5.028 -1.2892  2.0775  1.1903
   52MOL0     H 7150  11.423   3.001   5.268 -0.2260 -2.1300 -0.1809
   52MOL0     H 7151  11.510   3.126   5.171 -1.5186  1.2035 -1.8705
   52MOL0     H 7152  11.511   2.959   4.984  1.1575 -4.4045 -0.4706
   52MOL0     H 7153  11.384   2.872   5.065  0.4043 -1.8828  0.9669
   52MOL0     H 7154  11.564   2.835   5.252 -0.9543 -1.4847 -0.2141
   52MOL0     H 7155  11.680   2.873   5.111 -0.3043  1.3819 -0.5106
   52MOL0     H 7156  10.703   3.454   4.991  0.7911 -0.7662  0.6856
   52MOL0     H 7157  10.475   3.488   4.934  2.2242  0.4597  0.3963
   52MOL0     H 7158   9.964   3.068   4.962 -0.1601 -0.7405 -1.9004
   52MOL0     H 7159   9.746   3.118   4.921  1.2285 -1.1561  0.9033
   52MOL0     H 7160   8.431   4.003   4.211 -1.3888 -0.3004 -0.9238
   52MOL0     H 7161   8.207   4.093   4.170  0.0831  1.6429  2.2276
   52MOL0     H 7162   7.934   4.299   3.987 -0.8601 -1.6561  0.7154
   52MOL0     H 7163   7.711   4.365   3.919  2.2010  2.3061 -0.5244
   52MOL0     H 7164   7.518   4.494   3.893 -3.4345 -0.0919 -2.3496
   52MOL0     H 7165   7.464   4.338   3.951  4.0281  0.2592  0.3934
   52MOL0     H 7166   7.279   4.461   3.876  1.5463  0.4268 -0.5726
   52MOL0     H 7167   7.314   4.598   3.993 -3.0248  0.3963  1.7641
   52MOL0     H 7168   7.271   4.321   4.112 -1.2111  0.4430  1.6040
   52MOL0     H 7169   7.278   4.478   4.192  1.5313  2.3138 -0.4026
   52MOL0     H 7170   7.041   4.387   4.001 -3.6241 -0.2931  2.1304
   52MOL0     H 7171   7.064   4.545   4.072 -0.3756 -0.8875 -2.6868
   52MOL0     H 7172   6.892   4.203   4.302  2.6588 -0.5416  0.1993
   52MOL0     H 7173   7.644   4.510   4.319  1.7245  1.8546  0.8293
   52MOL0     H 7174   7.913   4.381   4.470 -2.0605  0.8900  2.1894
   52MOL0     H 7175   7.978   4.532   4.412  1.5591 -2.3670  0.8185
   52MOL0     H 7176   7.821   4.531   4.481 -0.1006 -1.5494  1.7171
   53MOL0     O 7177   2.757   4.550  10.301 -0.0083  0.5472  0.8555
   53MOL0     C 7178   2.714   4.487  10.203  0.0576 -0.2995 -0.4190
   53MOL0     O 7179   2.751   4.363  10.163 -0.2633 -0.2816 -0.3890
   53MOL0     C 7180   2.883   4.333  10.195 -0.4418  0.3926  0.2790
   53MOL0     C 7181   2.983   4.401  10.132 -0.9535 -0.3907 -0.3735
   53MOL0     C 7182   3.112   4.356  10.154 -0.8560 -0.3040 -0.3025
   53MOL0     C 7183   3.145   4.248  10.241  1.1834  0.4599  0.0862
   53MOL0     O 7184   3.278   4.216  10.252 -0.1206 -0.5272 -0.2796
   53MOL0     C 7185   3.311   4.140  10.372 -0.1750 -0.2168 -1.0892
   53MOL0     C 7186   3.462   4.135  10.369 -0.3776  0.9581 -0.1673
   53MOL0     C 7187   3.529   4.106  10.505 -0.0358  0.7181 -0.4774
   53MOL0     C 7188   3.498   3.959  10.541  0.1400  0.0472 -0.7433
   53MOL0     C 7189   3.585   3.917  10.659  0.3849 -0.3983  0.6003
   53MOL0     C 7190   3.545   3.779  10.712  0.8373 -0.2721 -0.1851
   53MOL0     C 7191   3.616   3.746  10.842 -0.3682 -0.2152  0.8608
   53MOL0     C 7192   3.557   3.620  10.910  0.6212 -0.0936 -0.4315
   53MOL0     N 7193   3.673   3.555  10.979 -0.3141  0.0753 -0.0989
   53MOL0     C 7194   3.771   3.482  10.915 -0.6934  0.8014  0.4984
   53MOL0     C 7195   3.843   3.424  11.009 -1.0208  0.2715  0.2937
   53MOL0     C 7196   3.967   3.334  11.010  0.0339 -0.1349  0.3235
   53MOL0     C 7197   3.964   3.242  11.131 -0.4520  0.1914  0.2971
   53MOL0     C 7198   4.065   3.130  11.108  0.7078  0.2122 -0.3241
   53MOL0     C 7199   4.208   3.153  11.067 -0.1969  0.4535  0.2312
   53MOL0     O 7200   4.265   3.256  11.145  0.7340 -0.5926 -0.2674
   53MOL0     C 7201   4.387   3.309  11.111 -0.2788 -0.3973 -0.2088
   53MOL0     C 7202   4.475   3.248  11.023  0.5833 -0.3416 -0.7094
   53MOL0     C 7203   4.604   3.298  10.990 -0.7231 -0.4829 -0.0322
   53MOL0     C 7204   4.698   3.229  10.897  0.3282 -0.3757  0.3814
   53MOL0     C 7205   4.630   3.426  11.039  0.1994 -0.4241 -0.6001
   53MOL0     C 7206   4.764   3.490  11.010 -0.1228 -0.7579 -0.0466
   53MOL0     O 7207   4.742   3.624  10.978 -0.4156  0.0696  0.2345
   53MOL0     C 7208   4.830   3.728  10.972 -0.6192  0.5303 -0.2786
   53MOL0     C 7209   4.967   3.706  11.009  0.1808  0.5577  0.3701
   53MOL0     C 7210   5.059   3.805  10.982 -1.0372  0.7677 -0.1625
   53MOL0     C 7211   5.031   3.936  10.937  0.0123  0.3706  0.8237
   53MOL0     O 7212   5.131   4.020  10.913 -0.8242 -0.3756  0.4034
   53MOL0     C 7213   5.115   4.104  10.795 -0.1105 -0.8995 -0.9865
   53MOL0     C 7214   5.214   4.219  10.801 -0.4495 -1.0695  0.1196
   53MOL0     C 7215   5.215   4.298  10.665 -0.3848 -0.8203  0.1642
   53MOL0     C 7216   5.318   4.407  10.661  0.0400  0.5076  0.3808
   53MOL0     C 7217   5.459   4.346  10.645 -0.1687 -0.6667 -0.1999
   53MOL0     C 7218   5.493   4.333  10.493 -0.2291  0.7930  0.1542
   53MOL0     C 7219   5.640   4.284  10.486  0.9426 -0.2481  0.0732
   53MOL0     C 7220   5.703   4.256  10.350  0.0877 -0.1304  0.9312
   53MOL0    Cl 7221   5.692   4.399  10.234  0.7387  0.0534 -0.0366
   53MOL0     C 7222   4.892   3.962  10.926  0.3373  0.1850  0.5093
   53MOL0     C 7223   4.793   3.861  10.936  0.4062 -0.1014  0.4462
   53MOL0     O 7224   4.867   3.425  11.013 -0.0992 -0.3054  0.9631
   53MOL0     C 7225   4.537   3.489  11.131  0.9306 -0.3283 -0.7378
   53MOL0     C 7226   4.420   3.426  11.176 -0.4392  0.4171  0.7909
   53MOL0     N 7227   3.786   3.461  11.124 -0.0705 -0.5303 -0.9416
   53MOL0     N 7228   3.693   3.542  11.106  0.2752 -0.3498 -0.2610
   53MOL0     C 7229   3.043   4.188  10.313 -0.0382 -0.1984 -0.7517
   53MOL0     C 7230   2.914   4.223  10.285 -0.4671  0.2981 -0.3772
   53MOL0     C 7231   2.591   4.551  10.135  0.4499  0.9989  0.0050
   53MOL0     C 7232   2.506   4.450  10.072  0.6872 -0.7032 -0.5273
   53MOL0     C 7233   2.381   4.493  10.016  0.1785  0.0324  0.9172
   53MOL0     C 7234   2.340   4.622  10.015 -0.6804  0.2428  0.1465
   53MOL0     O 7235   2.220   4.653   9.952  0.0696  0.9349  0.4601
   53MOL0     C 7236   2.156   4.773   9.987 -0.1221  0.2474 -0.7660
   53MOL0     C 7237   2.004   4.759   9.966  0.6188 -0.2272 -0.3539
   53MOL0     C 7238   1.969   4.766   9.817  0.5646 -0.0115  0.0680
   53MOL0     C 7239   1.934   4.907   9.772  0.2662  0.8421 -0.4379
   53MOL0     C 7240   2.052   4.985   9.739 -1.1270  0.9422 -0.1663
   53MOL0     C 7241   2.145   5.058   9.712  0.1457 -0.1914 -0.2137
   53MOL0     C 7242   2.422   4.715  10.079  0.4793  0.1569  0.1159
   53MOL0     C 7243   2.551   4.679  10.134  0.6128 -0.1876 -0.6996
   53MOL0     C 7244   2.633   4.794  10.174  0.4758 -0.6118  0.0754
   53MOL0     H 7245   2.955   4.485  10.069 -1.9260  1.1050  1.9125
   53MOL0     H 7246   3.185   4.416  10.101 -0.8097 -1.1301 -1.1908
   53MOL0     H 7247   3.270   4.039  10.366  1.3399 -0.8784 -0.7961
   53MOL0     H 7248   3.274   4.193  10.460  1.2560 -1.3241  0.2250
   53MOL0     H 7249   3.498   4.068  10.291  2.7381  0.2229  1.6930
   53MOL0     H 7250   3.496   4.234  10.338 -2.3404  2.0612  0.9984
   53MOL0     H 7251   3.635   4.130  10.493  0.5395 -2.0245 -1.8831
   53MOL0     H 7252   3.475   4.173  10.573 -0.6131  1.7419 -1.8751
   53MOL0     H 7253   3.393   3.949  10.572  0.5207  0.7540  0.8608
   53MOL0     H 7254   3.510   3.887  10.459  0.6307 -2.7422  1.6026
   53MOL0     H 7255   3.578   4.000  10.730 -0.4814  1.2988 -1.3626
   53MOL0     H 7256   3.692   3.911  10.641  0.6452  0.0903  1.8335
   53MOL0     H 7257   3.438   3.775  10.735  0.6281  0.5017 -0.9749
   53MOL0     H 7258   3.576   3.709  10.634  0.6558  0.2603 -0.7442
   53MOL0     H 7259   3.592   3.830  10.907 -0.6420  0.5046 -0.1590
   53MOL0     H 7260   3.723   3.742  10.821 -0.6466  1.2195 -1.0823
   53MOL0     H 7261   3.477   3.641  10.981  1.3873 -2.5789  1.2886
   53MOL0     H 7262   3.520   3.548  10.836 -0.7143 -1.1571  1.2146
   53MOL0     H 7263   3.791   3.471  10.809  1.1045 -1.7781  1.0123
   53MOL0     H 7264   4.057   3.391  11.033 -1.2484  1.6995  1.0354
   53MOL0     H 7265   3.982   3.288  10.912  0.1059 -0.3504  0.4358
   53MOL0     H 7266   3.997   3.284  11.227  1.6686  0.1696 -0.3678
   53MOL0     H 7267   3.859   3.214  11.142 -0.3735  0.1165  0.9259
   53MOL0     H 7268   4.072   3.069  11.198 -1.6682  1.1277  0.5553
   53MOL0     H 7269   4.019   3.065  11.033  1.8784 -0.6213 -0.3369
   53MOL0     H 7270   4.260   3.059  11.083 -0.2472  0.7863  2.5942
   53MOL0     H 7271   4.209   3.193  10.964  1.9982 -1.1775 -0.4641
   53MOL0     H 7272   4.444   3.149  10.989 -0.7291 -1.8592  4.0923
   53MOL0     H 7273   4.642   3.137  10.881 -1.8736  1.0776 -0.7501
   53MOL0     H 7274   4.801   3.214  10.933  1.4071  2.4915 -1.1273
   53MOL0     H 7275   4.705   3.291  10.807  3.8160 -0.1733  0.6291
   53MOL0     H 7276   5.002   3.615  11.058 -0.0966 -0.3027 -0.9658
   53MOL0     H 7277   5.159   3.798  11.024 -1.4759 -0.1684  0.7873
   53MOL0     H 7278   5.139   4.044  10.707 -2.7556 -2.6609 -0.6221
   53MOL0     H 7279   5.015   4.148  10.792 -1.1021 -2.9398 -0.1461
   53MOL0     H 7280   5.186   4.295  10.875 -0.2160 -0.1010 -0.7605
   53MOL0     H 7281   5.312   4.182  10.830  0.4114  0.9029 -0.1349
   53MOL0     H 7282   5.115   4.341  10.657 -0.6815 -1.7108 -1.0606
   53MOL0     H 7283   5.221   4.221  10.588  0.5776  0.6666 -1.3203
   53MOL0     H 7284   5.332   4.462  10.755 -1.3267  0.2670  0.7396
   53MOL0     H 7285   5.295   4.486  10.588  0.8562 -1.1986 -1.8346
   53MOL0     H 7286   5.535   4.416  10.682  1.8795 -3.5528  1.4186
   53MOL0     H 7287   5.461   4.249  10.696  1.2567  0.1112  1.3153
   53MOL0     H 7288   5.483   4.430  10.442 -0.2635 -0.2398 -1.8748
   53MOL0     H 7289   5.425   4.260  10.451  0.4673  0.1478  0.1305
   53MOL0     H 7290   5.633   4.196  10.551 -4.0465  1.2118  2.0472
   53MOL0     H 7291   5.691   4.356  10.551 -1.7203  1.8897 -0.0516
   53MOL0     H 7292   5.643   4.175  10.308  0.3952 -0.4302  1.0626
   53MOL0     H 7293   5.799   4.203  10.352 -0.3854 -1.0003  1.7992
   53MOL0     H 7294   4.861   4.065  10.914 -0.9600 -0.2612 -0.1496
   53MOL0     H 7295   4.692   3.884  10.902  0.3989  1.2002  1.2473
   53MOL0     H 7296   4.559   3.585  11.176  1.5733 -0.2256 -1.2433
   53MOL0     H 7297   4.343   3.482  11.228 -2.2677 -2.9950  2.0348
   53MOL0     H 7298   3.057   4.108  10.385  0.7768  0.2483 -0.4016
   53MOL0     H 7299   2.829   4.184  10.341 -0.3783  2.3408  1.3337
   53MOL0     H 7300   2.526   4.343  10.065  1.7953 -0.4358 -1.6609
   53MOL0     H 7301   2.318   4.411   9.984  0.6782 -0.0321  0.0886
   53MOL0     H 7302   2.171   4.798  10.092 -2.4055  1.0561 -0.5781
   53MOL0     H 7303   2.183   4.855   9.919 -1.8029  1.5387  0.0432
   53MOL0     H 7304   1.949   4.839  10.016  1.6672 -0.4144  1.1598
   53MOL0     H 7305   1.970   4.664  10.008 -1.3021  1.0136  1.0769
   53MOL0     H 7306   2.050   4.728   9.754  0.7578 -0.7846  0.7594
   53MOL0     H 7307   1.885   4.699   9.796  1.8282 -1.0541 -2.0139
   53MOL0     H 7308   1.883   4.959   9.854  2.5727 -0.5601  2.0888
   53MOL0     H 7309   1.869   4.903   9.685  0.3059  1.4895 -0.5057
   53MOL0     H 7310   2.229   5.116   9.680  0.7294 -0.1883  1.2617
   53MOL0     H 7311   2.394   4.819  10.084  1.1044  0.3772 -0.8553
   53MOL0     H 7312   2.661   4.869  10.099 -0.6549  1.9603  2.0841
   53MOL0     H 7313   2.572   4.845  10.249 -0.3672 -0.5466 -0.6448
   53MOL0     H 7314   2.729   4.769  10.220  1.0979  2.8668  0.9045
   54MOL0     O 7315   9.320   3.618  11.375 -0.2348 -0.6784 -1.0932
   54MOL0     C 7316   9.351   3.572  11.265  0.4004  0.2288  0.7696
   54MOL0     O 7317   9.459   3.608  11.191 -0.2140 -0.3696  0.7516
   54MOL0     C 7318   9.536   3.710  11.237  0.4992  0.3452 -0.3876
   54MOL0     C 7319   9.647   3.675  11.300 -0.4253 -0.0513  0.4687
   54MOL0     C 7320   9.726   3.774  11.359  0.3464 -0.7243 -0.3857
   54MOL0     C 7321   9.688   3.909  11.375  0.1801 -0.7516  0.4915
   54MOL0     O 7322   9.759   4.010  11.442  0.4210  0.4032  0.5991
   54MOL0     C 7323   9.848   3.983  11.555 -0.4059  0.4227  0.6387
   54MOL0     C 7324   9.989   3.978  11.499  0.5433  0.0215 -0.2955
   54MOL0     C 7325  10.084   3.983  11.615  0.2521 -0.7962 -0.2809
   54MOL0     C 7326  10.218   3.934  11.573  0.3325 -0.3650 -0.3909
   54MOL0     C 7327  10.316   3.933  11.684  0.0292 -0.0901 -1.0786
   54MOL0     C 7328  10.449   3.865  11.634 -0.0649  0.3554 -0.2242
   54MOL0     C 7329  10.554   3.872  11.743  0.4162 -0.1891 -1.1740
   54MOL0     C 7330  10.660   3.774  11.714  1.1865  0.9432  0.6280
   54MOL0     N 7331  10.782   3.816  11.772  0.0527 -0.3816  0.3392
   54MOL0     C 7332  10.807   3.761  11.897 -0.3917  0.2031  0.4416
   54MOL0     C 7333  10.920   3.827  11.934  0.5478 -0.0371  0.3184
   54MOL0     C 7334  10.996   3.795  12.053 -0.6064 -1.1231  0.7626
   54MOL0     C 7335  10.939   3.859  12.179 -0.4307 -0.3769 -0.4248
   54MOL0     C 7336  11.012   3.797  12.302 -0.5117  0.0743 -0.3430
   54MOL0     C 7337  11.155   3.832  12.338  0.0226  0.3544  0.0110
   54MOL0     O 7338  11.191   3.785  12.465  0.1696  1.3270  0.1396
   54MOL0     C 7339  11.332   3.781  12.490 -0.3357 -0.3189 -0.0322
   54MOL0     C 7340  11.372   3.721  12.612  0.5690 -0.8835  0.0763
   54MOL0     C 7341  11.508   3.712  12.654 -0.3185 -0.4843  0.2324
   54MOL0     C 7342  11.531   3.633  12.780  0.4317 -0.3306  0.5652
   54MOL0     C 7343  11.612   3.760  12.570  0.0776 -0.6161  0.6256
   54MOL0     C 7344  11.755   3.738  12.587 -0.2523  0.0711 -0.1644
   54MOL0     O 7345  11.830   3.715  12.472  0.8066  0.0987  0.7965
   54MOL0     C 7346  11.968   3.691  12.471  0.6278 -0.8720 -0.8923
   54MOL0     C 7347  12.060   3.797  12.489  0.0017 -0.1184 -0.2327
   54MOL0     C 7348  12.204   3.780  12.480  0.5197  0.1779 -0.3857
   54MOL0     C 7349  12.247   3.648  12.472 -0.6573  0.7770  0.9103
   54MOL0     O 7350  12.384   3.610  12.479  0.5445 -1.3184 -0.1905
   54MOL0     C 7351  12.487   3.685  12.409  0.0612 -0.2730 -0.0733
   54MOL0     C 7352  12.605   3.599  12.417 -0.1506 -0.0846  0.2742
   54MOL0     C 7353  12.661   3.593  12.562  0.3458 -0.3862 -0.3593
   54MOL0     C 7354  12.779   3.508  12.576 -0.2576  0.0163  0.3940
   54MOL0     C 7355  12.744   3.356  12.551 -0.0663  0.9861 -0.9155
   54MOL0     C 7356  12.849   3.252  12.607 -0.0825 -0.2232 -0.2349
   54MOL0     C 7357  12.943   3.214  12.490  0.4517 -0.2500  0.6379
   54MOL0     C 7358  13.066   3.131  12.519  0.3655 -0.0203  0.0572
   54MOL0    Cl 7359  13.029   2.981  12.584 -0.4070  0.2395 -0.5658
   54MOL0     C 7360  12.155   3.551  12.446 -0.2110  0.2640  0.2839
   54MOL0     C 7361  12.018   3.571  12.443  0.4487 -0.2474 -0.3899
   54MOL0     O 7362  11.804   3.722  12.701 -0.4157  0.4341 -0.5785
   54MOL0     C 7363  11.572   3.820  12.448 -0.6145  0.2633  0.5795
   54MOL0     C 7364  11.438   3.832  12.416 -0.0715  1.0761 -0.0310
   54MOL0     N 7365  10.951   3.928  11.842 -0.0468 -0.1544  0.3553
   54MOL0     N 7366  10.859   3.927  11.750  0.4930  0.3222  0.3693
   54MOL0     C 7367   9.564   3.941  11.315  0.7794  0.0240 -0.1722
   54MOL0     C 7368   9.491   3.847  11.240 -0.6256 -0.7147  0.3205
   54MOL0     C 7369   9.276   3.450  11.212  1.2014 -0.8397 -0.5551
   54MOL0     C 7370   9.324   3.387  11.099  0.7909 -0.2152 -0.7948
   54MOL0     C 7371   9.265   3.276  11.043  0.7537 -0.0555 -0.6181
   54MOL0     C 7372   9.154   3.217  11.096  0.0490  0.4135 -0.4367
   54MOL0     O 7373   9.111   3.110  11.018  0.2889 -0.7652  0.5508
   54MOL0     C 7374   8.984   3.047  11.048 -0.3701  0.2489  0.2014
   54MOL0     C 7375   8.910   3.016  10.921  0.5531  0.7344  0.0806
   54MOL0     C 7376   8.871   3.159  10.865 -0.1427  0.2048 -0.5440
   54MOL0     C 7377   8.756   3.165  10.768  0.5079  0.1589  0.0030
   54MOL0     C 7378   8.701   3.305  10.769 -0.7035  0.1324 -0.9262
   54MOL0     C 7379   8.681   3.424  10.787  0.6183  0.5449 -0.1751
   54MOL0     C 7380   9.106   3.271  11.218  0.0182 -0.5238 -0.3497
   54MOL0     C 7381   9.155   3.393  11.271  0.5562  0.4423  0.6092
   54MOL0     C 7382   9.086   3.449  11.393  0.4412 -0.7639  0.2567
   54MOL0     H 7383   9.665   3.570  11.319  0.1887  0.4713  3.0298
   54MOL0     H 7384   9.815   3.745  11.415 -1.2170  0.2816  2.8632
   54MOL0     H 7385   9.823   3.890  11.605  0.4499 -0.4048 -0.4183
   54MOL0     H 7386   9.834   4.067  11.624  0.8082  0.4409  0.8801
   54MOL0     H 7387  10.000   3.885  11.442 -2.8000 -0.7680  0.1604
   54MOL0     H 7388  10.007   4.068  11.441  0.9084  0.0915 -0.0784
   54MOL0     H 7389  10.089   4.083  11.659  0.3257 -1.3274  0.9476
   54MOL0     H 7390  10.057   3.911  11.692  0.0066 -0.3490  0.0608
   54MOL0     H 7391  10.196   3.831  11.545 -3.2552  0.1321  0.1397
   54MOL0     H 7392  10.246   3.994  11.485  0.6519 -2.3578 -1.7180
   54MOL0     H 7393  10.277   3.880  11.771  2.0705  1.2184  0.7241
   54MOL0     H 7394  10.334   4.036  11.715  0.0541  0.3804 -2.5593
   54MOL0     H 7395  10.423   3.760  11.619 -1.3957  0.7883 -1.1205
   54MOL0     H 7396  10.480   3.925  11.547 -1.9205 -0.3813 -1.4647
   54MOL0     H 7397  10.513   3.860  11.844  2.0323  1.5751 -0.2434
   54MOL0     H 7398  10.589   3.976  11.733  0.6598 -0.2119 -0.6145
   54MOL0     H 7399  10.624   3.682  11.760  1.4933 -0.0207 -0.9886
   54MOL0     H 7400  10.673   3.772  11.605 -0.7024  0.1113  0.3835
   54MOL0     H 7401  10.760   3.672  11.938 -2.9119  0.4357 -1.6607
   54MOL0     H 7402  11.099   3.823  12.034 -0.0548 -2.8917  0.9127
   54MOL0     H 7403  11.008   3.686  12.053 -1.4711 -1.2336  1.3927
   54MOL0     H 7404  10.938   3.969  12.181  1.9699 -0.2457  3.1930
   54MOL0     H 7405  10.836   3.827  12.197  0.2562 -2.0924  0.6762
   54MOL0     H 7406  10.948   3.817  12.389 -0.3373 -1.6358  0.2153
   54MOL0     H 7407  11.003   3.691  12.279  0.1763  0.1896 -1.1840
   54MOL0     H 7408  11.226   3.800  12.261  1.8556  0.6883  1.4893
   54MOL0     H 7409  11.166   3.940  12.323 -1.9521  0.5933  0.0871
   54MOL0     H 7410  11.288   3.697  12.677  0.6525  2.4631  1.6108
   54MOL0     H 7411  11.588   3.685  12.858 -0.7576  0.5519  0.8568
   54MOL0     H 7412  11.587   3.547  12.740 -0.9329 -0.5041 -1.0566
   54MOL0     H 7413  11.432   3.605  12.816 -1.4392  0.6047 -3.3593
   54MOL0     H 7414  12.027   3.900  12.496 -3.1612 -1.0620  0.0180
   54MOL0     H 7415  12.274   3.863  12.484  0.2839  0.3196  1.5586
   54MOL0     H 7416  12.459   3.687  12.303 -1.2598 -4.0359  0.0391
   54MOL0     H 7417  12.497   3.787  12.448 -0.6241 -0.3413  0.2878
   54MOL0     H 7418  12.579   3.498  12.384  1.2972 -0.0111 -1.2417
   54MOL0     H 7419  12.684   3.631  12.348  0.2372  0.6754  1.0599
   54MOL0     H 7420  12.584   3.567  12.635  1.8701 -0.7435  1.2117
   54MOL0     H 7421  12.701   3.690  12.595  1.5982 -1.3312  1.0910
   54MOL0     H 7422  12.822   3.507  12.677  1.7398  2.7542 -0.3151
   54MOL0     H 7423  12.852   3.544  12.503  1.0194  2.1788  2.5858
   54MOL0     H 7424  12.652   3.332  12.605 -0.1413 -1.0522 -1.8700
   54MOL0     H 7425  12.728   3.321  12.449  0.7590 -2.9887  0.1427
   54MOL0     H 7426  12.798   3.163  12.645 -0.0207 -0.0892  0.1670
   54MOL0     H 7427  12.912   3.291  12.688  2.1976 -1.5289 -1.2995
   54MOL0     H 7428  12.982   3.308  12.449 -0.1511 -0.5147 -0.6064
   54MOL0     H 7429  12.890   3.163  12.409  2.5374 -1.4719 -0.0424
   54MOL0     H 7430  13.142   3.183  12.578 -1.5070  1.2961  1.3772
   54MOL0     H 7431  13.126   3.105  12.430 -1.0894 -0.1700 -0.9053
   54MOL0     H 7432  12.195   3.450  12.441 -0.7417  0.0291  0.6690
   54MOL0     H 7433  11.956   3.483  12.430  1.4705 -1.4503  2.2693
   54MOL0     H 7434  11.647   3.852  12.377 -0.8583 -0.4826 -0.0261
   54MOL0     H 7435  11.402   3.884  12.328 -3.0807 -0.7944 -0.0535
   54MOL0     H 7436   9.511   4.036  11.312 -1.9872 -1.4137 -0.7959
   54MOL0     H 7437   9.402   3.881  11.188 -0.4876 -1.2549 -0.2785
   54MOL0     H 7438   9.415   3.418  11.048 -0.5004  2.1796 -1.7927
   54MOL0     H 7439   9.308   3.220  10.961 -0.0309 -3.0964  0.8908
   54MOL0     H 7440   9.000   2.957  11.108 -1.8193  0.7804  1.4653
   54MOL0     H 7441   8.921   3.114  11.108  0.8156 -1.6182  3.7891
   54MOL0     H 7442   8.813   2.969  10.939  0.8399 -0.0952 -0.5016
   54MOL0     H 7443   8.972   2.965  10.847  0.6513  1.7783 -0.5868
   54MOL0     H 7444   8.855   3.229  10.947 -0.5426  0.2049 -0.6197
   54MOL0     H 7445   8.953   3.198  10.804  1.4397 -2.4743 -0.3198
   54MOL0     H 7446   8.671   3.102  10.798  0.5244 -1.0102 -2.2041
   54MOL0     H 7447   8.783   3.134  10.667 -0.4777 -1.0084  0.0675
   54MOL0     H 7448   8.668   3.529  10.805  1.1363  0.4243  1.0059
   54MOL0     H 7449   9.015   3.233  11.262 -1.3484  1.6240 -1.1672
   54MOL0     H 7450   9.117   3.404  11.488 -0.8245 -0.7422  0.7049
   54MOL0     H 7451   9.111   3.555  11.404 -0.1902 -0.5951  0.1221
   54MOL0     H 7452   8.978   3.436  11.386  0.3174  0.5739 -0.5526
   55MOL0     O 7453   5.666   1.084   1.828 -0.1304 -0.1126 -0.2727
   55MOL0     C 7454   5.605   0.979   1.834 -0.0626 -0.6483  0.4764
   55MOL0     O 7455   5.657   0.859   1.848 -0.4703 -0.3169  0.1072
   55MOL0     C 7456   5.791   0.837   1.836  0.5525 -0.1772  0.1711
   55MOL0     C 7457   5.847   0.734   1.913  0.1009  0.1733  0.3227
   55MOL0     C 7458   5.982   0.715   1.901  0.0069  0.3795  0.6563
   55MOL0     C 7459   6.064   0.787   1.811 -0.1963  0.4546 -0.6988
   55MOL0     O 7460   6.194   0.739   1.803  0.0947 -0.5831  0.0199
   55MOL0     C 7461   6.287   0.850   1.797 -0.0169 -0.5299 -0.0654
   55MOL0     C 7462   6.430   0.808   1.805 -0.0236 -0.5627  0.2307
   55MOL0     C 7463   6.526   0.928   1.782 -0.2227 -0.1919 -0.1686
   55MOL0     C 7464   6.495   1.010   1.659  0.1656  0.7234  0.1874
   55MOL0     C 7465   6.607   1.099   1.606 -0.2138 -0.2282 -0.0375
   55MOL0     C 7466   6.717   1.009   1.557 -0.0218 -0.9251  0.1062
   55MOL0     C 7467   6.813   1.079   1.460  0.1498  0.0256  0.6445
   55MOL0     C 7468   6.896   1.187   1.521  1.0496 -0.1141  0.1890
   55MOL0     N 7469   7.032   1.202   1.475 -0.7114  0.0602 -0.3642
   55MOL0     C 7470   7.069   1.269   1.359  0.2925 -0.5961 -0.3066
   55MOL0     C 7471   7.206   1.286   1.365  0.7054  0.9756 -0.3581
   55MOL0     C 7472   7.296   1.335   1.261  0.0920 -0.0353  0.2182
   55MOL0     C 7473   7.441   1.341   1.302  0.1656 -0.5696  0.3989
   55MOL0     C 7474   7.517   1.459   1.240  0.1842  0.1409  0.6715
   55MOL0     C 7475   7.666   1.441   1.258  0.6674  0.4491 -0.2907
   55MOL0     O 7476   7.742   1.552   1.207  0.0458 -0.3075 -0.6088
   55MOL0     C 7477   7.874   1.553   1.241  0.7899  0.3188 -0.7391
   55MOL0     C 7478   7.939   1.483   1.340  0.0478 -0.2852  0.1949
   55MOL0     C 7479   8.069   1.517   1.392 -0.4846 -0.3159  0.1952
   55MOL0     C 7480   8.127   1.428   1.509  0.0165  0.5957 -0.0176
   55MOL0     C 7481   8.140   1.619   1.326 -0.5858  0.3244 -0.5314
   55MOL0     C 7482   8.271   1.675   1.372  0.0042  0.2218 -0.1459
   55MOL0     O 7483   8.310   1.797   1.324  0.3222 -0.5559 -0.4318
   55MOL0     C 7484   8.442   1.836   1.340 -0.5045  0.6891 -0.1963
   55MOL0     C 7485   8.552   1.756   1.307 -0.5340  0.7278  0.4807
   55MOL0     C 7486   8.683   1.797   1.324  0.9725  0.1185  0.6761
   55MOL0     C 7487   8.702   1.915   1.400 -0.4343  0.0157  0.1607
   55MOL0     O 7488   8.835   1.951   1.425  0.0817  0.2585  0.4699
   55MOL0     C 7489   8.869   2.079   1.480  0.1275  0.0145  0.2336
   55MOL0     C 7490   8.874   2.068   1.636  0.5568 -0.3826 -0.9386
   55MOL0     C 7491   8.973   1.975   1.705  0.3043 -0.3700  0.2754
   55MOL0     C 7492   9.111   2.025   1.709 -0.8560 -0.3963 -0.4208
   55MOL0     C 7493   9.199   1.943   1.803 -0.2542  0.1463  0.1317
   55MOL0     C 7494   9.348   1.965   1.792  0.1902 -0.1168  0.3905
   55MOL0     C 7495   9.426   1.889   1.891 -0.1874 -0.4250  0.2428
   55MOL0     C 7496   9.568   1.871   1.860 -0.5193  0.5801 -0.2800
   55MOL0    Cl 7497   9.655   2.027   1.859  0.2800 -0.3210 -0.1846
   55MOL0     C 7498   8.593   1.996   1.434 -0.1602  0.0410 -0.2763
   55MOL0     C 7499   8.461   1.954   1.402  0.1192 -0.1298  0.0886
   55MOL0     O 7500   8.335   1.608   1.453  0.1126  0.1388  1.0376
   55MOL0     C 7501   8.072   1.684   1.220 -0.0492  0.7885  0.4968
   55MOL0     C 7502   7.945   1.649   1.173  0.3722 -0.2312 -0.3325
   55MOL0     N 7503   7.242   1.223   1.483 -0.9751 -0.0948  0.4492
   55MOL0     N 7504   7.139   1.181   1.550 -0.1452  0.7882 -0.1144
   55MOL0     C 7505   5.995   0.878   1.729  0.3703 -0.2889 -0.3173
   55MOL0     C 7506   5.863   0.906   1.745 -0.5545 -0.4550  0.6167
   55MOL0     C 7507   5.465   0.980   1.788 -0.0041  0.5028 -0.5719
   55MOL0     C 7508   5.388   1.091   1.826  0.6696 -0.9340  0.4973
   55MOL0     C 7509   5.247   1.094   1.812  0.3167 -0.4268 -1.0120
   55MOL0     C 7510   5.176   0.987   1.753 -0.7508  0.1149 -0.1437
   55MOL0     O 7511   5.040   0.986   1.746 -0.9074  0.2616 -0.6855
   55MOL0     C 7512   4.963   1.105   1.741  0.3413  0.4208 -0.2463
   55MOL0     C 7513   4.834   1.077   1.657 -0.2923  0.3468  0.2047
   55MOL0     C 7514   4.738   1.183   1.634  0.3404 -0.2416 -0.3359
   55MOL0     C 7515   4.673   1.236   1.755 -0.3871 -0.0312 -0.6172
   55MOL0     C 7516   4.623   1.365   1.714 -0.2403 -0.8368  0.1906
   55MOL0     C 7517   4.562   1.460   1.667 -0.0736  0.6084  0.0442
   55MOL0     C 7518   5.249   0.884   1.699  0.7980 -0.0866 -0.1589
   55MOL0     C 7519   5.391   0.875   1.723 -0.4086  0.5229 -0.0884
   55MOL0     C 7520   5.456   0.741   1.688  0.4802 -0.7543 -0.1610
   55MOL0     H 7521   5.799   0.666   1.982  1.5983 -0.6865  0.5656
   55MOL0     H 7522   6.036   0.650   1.969  1.4611 -0.3847 -1.1397
   55MOL0     H 7523   6.277   0.926   1.875  1.6373 -0.6195  0.2725
   55MOL0     H 7524   6.278   0.910   1.705 -0.2338  1.3382  1.1219
   55MOL0     H 7525   6.447   0.765   1.904  0.4392  1.2887  0.9966
   55MOL0     H 7526   6.450   0.726   1.735  1.8294 -1.5807  1.8345
   55MOL0     H 7527   6.524   0.991   1.871 -0.6895  1.3335 -1.2025
   55MOL0     H 7528   6.627   0.887   1.782  0.2004  0.7028  2.1569
   55MOL0     H 7529   6.469   0.944   1.576  2.0968  0.4798 -0.2762
   55MOL0     H 7530   6.415   1.081   1.681 -0.8065  0.8445 -3.2595
   55MOL0     H 7531   6.646   1.159   1.689  1.4860 -2.4037  0.8287
   55MOL0     H 7532   6.569   1.162   1.525  0.3316  1.2124  0.7832
   55MOL0     H 7533   6.769   0.977   1.648 -0.0022  0.1802  0.4927
   55MOL0     H 7534   6.672   0.923   1.506 -0.2027 -0.3947 -0.6452
   55MOL0     H 7535   6.759   1.118   1.373  1.2916 -0.5671 -0.3566
   55MOL0     H 7536   6.885   1.008   1.421  2.8376  2.2854  1.1829
   55MOL0     H 7537   6.837   1.275   1.492 -2.7225 -2.3992  0.3343
   55MOL0     H 7538   6.897   1.179   1.630 -2.2369 -1.2212  0.2558
   55MOL0     H 7539   7.006   1.294   1.275 -2.5956 -1.4472  1.4649
   55MOL0     H 7540   7.258   1.432   1.227  1.7002  0.6132  0.1837
   55MOL0     H 7541   7.281   1.269   1.175  1.4055  0.4659 -0.4099
   55MOL0     H 7542   7.446   1.354   1.411 -0.1419 -1.1468  0.4863
   55MOL0     H 7543   7.493   1.251   1.268  1.8445  1.0226 -1.4570
   55MOL0     H 7544   7.506   1.469   1.131  1.0222  0.4778  0.6120
   55MOL0     H 7545   7.491   1.548   1.297  0.8189  0.4912  0.4223
   55MOL0     H 7546   7.682   1.428   1.366  3.4081 -0.6008 -0.7273
   55MOL0     H 7547   7.696   1.346   1.212  1.4756  1.4613 -1.9286
   55MOL0     H 7548   7.886   1.404   1.393  0.9593 -0.1064  1.4167
   55MOL0     H 7549   8.204   1.357   1.477 -0.7765  0.2136 -1.1426
   55MOL0     H 7550   8.043   1.369   1.548 -0.9247  0.0469 -2.7049
   55MOL0     H 7551   8.175   1.489   1.586  2.1225 -1.2623  0.2446
   55MOL0     H 7552   8.527   1.662   1.259  3.1464 -0.4510  0.5724
   55MOL0     H 7553   8.764   1.733   1.293  0.3699  0.5523 -2.0046
   55MOL0     H 7554   8.968   2.106   1.441 -1.3734  0.1137 -4.0733
   55MOL0     H 7555   8.799   2.152   1.436  0.7633  2.3094  2.7224
   55MOL0     H 7556   8.891   2.167   1.678 -0.5464 -0.8852  0.7847
   55MOL0     H 7557   8.770   2.048   1.662  0.7132 -0.8995 -0.6987
   55MOL0     H 7558   8.964   1.880   1.652  0.0852 -0.3239  0.2266
   55MOL0     H 7559   8.930   1.954   1.803  1.3156 -1.2074  0.5650
   55MOL0     H 7560   9.116   2.126   1.751 -0.2270 -1.0940  1.2853
   55MOL0     H 7561   9.155   2.030   1.609  0.1590  5.4590 -0.0814
   55MOL0     H 7562   9.160   1.961   1.904 -4.1508 -2.8147 -0.6226
   55MOL0     H 7563   9.193   1.835   1.789 -1.0571  0.3986 -1.8560
   55MOL0     H 7564   9.368   2.071   1.814  3.3954  0.2386 -3.1708
   55MOL0     H 7565   9.364   1.942   1.686 -1.5482  3.2157 -0.7632
   55MOL0     H 7566   9.390   1.787   1.905  1.0179 -0.7480  1.1525
   55MOL0     H 7567   9.417   1.936   1.989 -0.3790 -0.9032  0.4548
   55MOL0     H 7568   9.568   1.826   1.760 -2.0981  1.0635 -0.5306
   55MOL0     H 7569   9.601   1.806   1.941 -0.2467 -0.0710 -0.9077
   55MOL0     H 7570   8.608   2.090   1.487  0.5395 -0.9669  1.3575
   55MOL0     H 7571   8.380   2.019   1.432 -0.7204 -0.7319 -0.7795
   55MOL0     H 7572   8.133   1.742   1.152 -1.9597  0.7260 -1.3733
   55MOL0     H 7573   7.886   1.710   1.106 -2.6017  0.3793  2.5675
   55MOL0     H 7574   6.048   0.914   1.642  1.4340 -1.7654 -0.3315
   55MOL0     H 7575   5.819   0.976   1.674  1.2336 -1.8535 -2.0667
   55MOL0     H 7576   5.444   1.178   1.860  2.1045 -0.4826 -2.6293
   55MOL0     H 7577   5.201   1.178   1.862  2.5353 -0.2076  0.8217
   55MOL0     H 7578   4.932   1.130   1.843 -1.4498 -0.0974 -0.6303
   55MOL0     H 7579   5.023   1.175   1.683 -0.6120  1.3659 -0.1228
   55MOL0     H 7580   4.777   1.000   1.711  1.6048  0.5208  2.6572
   55MOL0     H 7581   4.873   1.031   1.566 -0.3337  1.1392 -0.2191
   55MOL0     H 7582   4.800   1.255   1.581  1.3100  0.5430  1.7658
   55MOL0     H 7583   4.659   1.148   1.566 -1.7343  0.1894  1.7241
   55MOL0     H 7584   4.740   1.247   1.841 -0.3393 -2.0311 -0.3501
   55MOL0     H 7585   4.602   1.160   1.790  1.4574 -0.3656  2.9215
   55MOL0     H 7586   4.517   1.550   1.632  1.9459  2.1493  1.1872
   55MOL0     H 7587   5.208   0.792   1.660  2.6301 -1.8268  1.7764
   55MOL0     H 7588   5.488   0.709   1.788  1.8281  1.3959  0.1870
   55MOL0     H 7589   5.391   0.667   1.641 -1.4954  0.4981  0.4546
   55MOL0     H 7590   5.551   0.747   1.633  0.3403  3.0461 -0.3004
   56MOL0     O 7591   4.389  10.501   0.670 -0.4620  0.1856 -0.1559
   56MOL0     C 7592   4.403  10.378   0.652 -0.3351  0.2725 -0.2766
   56MOL0     O 7593   4.524  10.311   0.627  0.3086 -0.4452 -0.2982
   56MOL0     C 7594   4.626  10.398   0.608 -0.3866 -0.3346 -0.0743
   56MOL0     C 7595   4.645  10.453   0.479 -0.0553 -0.1468  0.5542
   56MOL0     C 7596   4.741  10.562   0.459 -0.1241 -0.0375  0.1267
   56MOL0     C 7597   4.826  10.600   0.569  0.0329  0.6695 -0.8676
   56MOL0     O 7598   4.912  10.709   0.579  0.1732 -0.0001  0.2585
   56MOL0     C 7599   4.925  10.783   0.459  0.0299  0.0651 -0.6148
   56MOL0     C 7600   4.994  10.917   0.489 -0.1892 -0.2559 -1.0104
   56MOL0     C 7601   5.149  10.921   0.495 -0.4025 -0.2593  0.3243
   56MOL0     C 7602   5.203  10.900   0.351  0.1862 -0.1261  0.8412
   56MOL0     C 7603   5.356  10.900   0.350 -0.3819 -0.3762  0.1479
   56MOL0     C 7604   5.426  11.041   0.353 -0.0505  0.0647 -0.4813
   56MOL0     C 7605   5.384  11.139   0.236 -0.0160  0.2651 -0.0000
   56MOL0     C 7606   5.498  11.232   0.194  0.5252 -0.1745 -0.8261
   56MOL0     N 7607   5.553  11.330   0.292 -0.4392 -0.3933  0.3571
   56MOL0     C 7608   5.616  11.291   0.409  0.3900 -0.4980  0.5841
   56MOL0     C 7609   5.696  11.396   0.449 -0.0451 -0.1707 -0.0307
   56MOL0     C 7610   5.805  11.400   0.553 -0.1366  1.0728 -0.2037
   56MOL0     C 7611   5.939  11.392   0.480  0.6347 -0.2987 -0.0999
   56MOL0     C 7612   6.058  11.357   0.580 -0.2954  0.0146  0.6080
   56MOL0     C 7613   6.195  11.374   0.512  0.4120  0.1225 -1.1831
   56MOL0     O 7614   6.230  11.259   0.440 -0.9909 -0.2362 -0.2768
   56MOL0     C 7615   6.365  11.237   0.420  1.0665  0.3960  0.8330
   56MOL0     C 7616   6.465  11.332   0.414 -0.2222 -0.0868  0.3123
   56MOL0     C 7617   6.598  11.296   0.396  0.0233  0.0637 -1.2719
   56MOL0     C 7618   6.706  11.402   0.400 -1.4322 -0.2292 -0.4511
   56MOL0     C 7619   6.634  11.159   0.379 -0.5181  0.1030 -0.3661
   56MOL0     C 7620   6.774  11.115   0.350 -0.7900  0.2952  0.4807
   56MOL0     O 7621   6.882  11.188   0.403 -0.6966 -0.7228  0.8084
   56MOL0     C 7622   7.004  11.140   0.390  0.1188 -0.2538  0.6179
   56MOL0     C 7623   7.061  11.111   0.266  0.4109  0.4377 -0.1799
   56MOL0     C 7624   7.193  11.061   0.256 -0.4627 -0.2406  0.0710
   56MOL0     C 7625   7.270  11.049   0.374 -0.5011  0.9163 -0.8996
   56MOL0     O 7626   7.392  10.992   0.350 -0.2812 -0.3152 -0.5235
   56MOL0     C 7627   7.482  11.005   0.456 -0.7559  0.4595  0.6887
   56MOL0     C 7628   7.606  10.919   0.435 -0.4861  0.6931 -0.4414
   56MOL0     C 7629   7.716  10.992   0.355 -0.1424  0.6107  0.1033
   56MOL0     C 7630   7.779  11.118   0.425  0.4795 -0.7888  0.0542
   56MOL0     C 7631   7.873  11.184   0.331  0.1741  0.9566  0.0604
   56MOL0     C 7632   7.956  11.298   0.382 -0.2832 -0.2337 -0.4978
   56MOL0     C 7633   8.023  11.374   0.269 -0.3324  0.3424  0.3556
   56MOL0     C 7634   8.124  11.474   0.316 -1.2167 -0.1262 -0.2639
   56MOL0    Cl 7635   8.220  11.543   0.178 -0.0293 -0.2336 -0.2924
   56MOL0     C 7636   7.215  11.097   0.493 -0.6571  0.0235  0.2835
   56MOL0     C 7637   7.079  11.143   0.505 -0.0064  1.0943 -0.4377
   56MOL0     O 7638   6.787  11.000   0.291 -0.2217 -0.3672 -0.3568
   56MOL0     C 7639   6.535  11.062   0.396 -0.0487 -0.5680  0.0423
   56MOL0     C 7640   6.401  11.099   0.411  0.2845  0.6916  0.1477
   56MOL0     N 7641   5.662  11.498   0.360 -0.3764 -0.4230 -0.0071
   56MOL0     N 7642   5.577  11.459   0.270 -0.0963 -0.1930  0.2268
   56MOL0     C 7643   4.808  10.534   0.691 -0.0370 -0.4504 -0.1970
   56MOL0     C 7644   4.710  10.437   0.711 -0.1687  0.0048  0.6408
   56MOL0     C 7645   4.279  10.305   0.666 -0.0385 -0.4542  0.1947
   56MOL0     C 7646   4.184  10.335   0.767  0.9353 -0.4546  0.1404
   56MOL0     C 7647   4.050  10.277   0.765 -0.3647 -0.8365 -0.0012
   56MOL0     C 7648   4.016  10.183   0.674 -0.4117  0.4000  0.1533
   56MOL0     O 7649   3.892  10.133   0.681 -0.0105  0.1802  0.8097
   56MOL0     C 7650   3.863  10.001   0.619  0.8508 -0.2292  0.3336
   56MOL0     C 7651   3.715   9.967   0.607 -0.3182  0.5355 -0.7270
   56MOL0     C 7652   3.656   9.934   0.752  0.1848 -0.6913  0.3933
   56MOL0     C 7653   3.506   9.916   0.728  0.0559 -0.5620 -0.5653
   56MOL0     C 7654   3.468   9.783   0.680 -0.4800 -0.5304  0.0042
   56MOL0     C 7655   3.440   9.692   0.612  0.2408  0.7492  0.3455
   56MOL0     C 7656   4.118  10.150   0.578  0.3628 -0.4632 -0.7725
   56MOL0     C 7657   4.246  10.213   0.571  0.1495  0.2745 -0.7336
   56MOL0     C 7658   4.329  10.176   0.448 -0.4253  0.1277  0.5335
   56MOL0     H 7659   4.564  10.433   0.410  0.3271  1.6472 -0.4797
   56MOL0     H 7660   4.722  10.624   0.372  0.1050 -1.9784 -1.3809
   56MOL0     H 7661   4.824  10.802   0.422 -0.1011  1.5011  0.3681
   56MOL0     H 7662   4.991  10.747   0.380 -0.1683 -0.8753 -0.3641
   56MOL0     H 7663   4.957  10.991   0.417 -2.1110  0.0366  0.1885
   56MOL0     H 7664   4.962  10.952   0.587  1.4602  0.0503 -0.5565
   56MOL0     H 7665   5.190  11.019   0.518  1.0319 -0.8945  0.5545
   56MOL0     H 7666   5.197  10.851   0.564 -0.0510  0.2064  0.5567
   56MOL0     H 7667   5.181  10.809   0.295  2.7321 -0.0650 -0.4172
   56MOL0     H 7668   5.171  10.986   0.290 -1.1055  0.0075  1.6708
   56MOL0     H 7669   5.402  10.840   0.270  3.0843  0.9301  0.9541
   56MOL0     H 7670   5.395  10.847   0.437  1.0384  0.8950  0.3345
   56MOL0     H 7671   5.406  11.094   0.447  0.9169  3.1121 -1.8539
   56MOL0     H 7672   5.534  11.027   0.340  0.1978  0.6893  0.7381
   56MOL0     H 7673   5.298  11.196   0.273  2.3455  1.3249  4.6572
   56MOL0     H 7674   5.356  11.079   0.150 -1.7107  1.4747 -0.3488
   56MOL0     H 7675   5.584  11.173   0.161 -1.2694 -2.3900 -1.8405
   56MOL0     H 7676   5.467  11.294   0.109  3.2280  1.3952 -0.7940
   56MOL0     H 7677   5.614  11.192   0.454  0.1318 -1.0041 -0.5204
   56MOL0     H 7678   5.787  11.315   0.620  1.2622 -0.6263 -1.8502
   56MOL0     H 7679   5.806  11.491   0.612 -0.7304  2.0068 -1.5772
   56MOL0     H 7680   5.936  11.316   0.402 -0.6477 -0.5039  0.1304
   56MOL0     H 7681   5.962  11.486   0.428  3.3873 -1.0804 -0.4938
   56MOL0     H 7682   6.049  11.429   0.663 -1.6764 -0.2201  0.6854
   56MOL0     H 7683   6.050  11.254   0.615 -1.7597 -0.2073 -0.2936
   56MOL0     H 7684   6.180  11.461   0.446 -0.4839  1.2733  0.4434
   56MOL0     H 7685   6.270  11.400   0.588 -1.1003 -1.3176  0.9301
   56MOL0     H 7686   6.441  11.438   0.424  1.3148  0.5115 -1.5978
   56MOL0     H 7687   6.778  11.379   0.479  1.3991  4.7709 -1.1756
   56MOL0     H 7688   6.667  11.504   0.411  2.1464  1.4118 -1.5797
   56MOL0     H 7689   6.752  11.412   0.301  0.0317 -0.7867  0.1444
   56MOL0     H 7690   7.008  11.116   0.172 -2.6068  2.1450  1.4371
   56MOL0     H 7691   7.243  11.045   0.161 -0.4128  1.1914 -0.1731
   56MOL0     H 7692   7.508  11.111   0.468 -1.0300  0.4827  1.1005
   56MOL0     H 7693   7.443  10.971   0.552 -1.7905 -0.4028 -0.0149
   56MOL0     H 7694   7.645  10.887   0.532  0.6754 -2.5514 -1.8524
   56MOL0     H 7695   7.570  10.833   0.378 -2.4925  0.3686  1.2144
   56MOL0     H 7696   7.673  11.029   0.261  0.1311  0.6088 -0.0242
   56MOL0     H 7697   7.778  10.911   0.316 -2.8486 -1.0588 -1.0394
   56MOL0     H 7698   7.820  11.077   0.517 -2.3136  2.0644  2.8304
   56MOL0     H 7699   7.701  11.191   0.452 -0.0703 -0.1330 -2.9301
   56MOL0     H 7700   7.943  11.106   0.301 -2.0004 -1.6141  1.1854
   56MOL0     H 7701   7.814  11.211   0.242 -0.9093 -0.9323  0.1275
   56MOL0     H 7702   8.033  11.266   0.454 -0.1373 -0.6598 -0.8396
   56MOL0     H 7703   7.902  11.382   0.426 -0.9348 -0.2624 -1.2259
   56MOL0     H 7704   7.950  11.442   0.224  0.4737 -0.0913 -1.7368
   56MOL0     H 7705   8.063  11.306   0.193 -1.0249 -1.8200  1.8301
   56MOL0     H 7706   8.206  11.417   0.360 -1.0851 -0.3505 -0.7949
   56MOL0     H 7707   8.091  11.551   0.387  1.8185  0.6986  0.4005
   56MOL0     H 7708   7.274  11.094   0.584 -1.4690  1.0226  0.8670
   56MOL0     H 7709   7.027  11.169   0.596 -1.8865 -0.5543 -0.9768
   56MOL0     H 7710   6.557  10.956   0.388 -0.1021 -0.4421 -4.7410
   56MOL0     H 7711   6.324  11.024   0.427  0.3950  0.2124 -1.4290
   56MOL0     H 7712   4.876  10.558   0.772  1.4869 -0.1625 -1.5178
   56MOL0     H 7713   4.700  10.399   0.812  1.7124 -0.6228  0.6208
   56MOL0     H 7714   4.195  10.414   0.840  2.0172 -0.5154  0.0570
   56MOL0     H 7715   3.972  10.297   0.838 -1.4237  0.5892 -1.4472
   56MOL0     H 7716   3.907  10.008   0.519  2.7385  2.3140  1.2066
   56MOL0     H 7717   3.919   9.928   0.678 -0.2092  0.0702  1.7554
   56MOL0     H 7718   3.719   9.878   0.543 -0.0265 -0.5999  0.8276
   56MOL0     H 7719   3.661  10.053   0.566 -0.8540  0.5214 -0.0588
   56MOL0     H 7720   3.700   9.849   0.806 -0.9784 -1.7477 -0.2465
   56MOL0     H 7721   3.674  10.024   0.812  0.5336  1.2395 -2.4437
   56MOL0     H 7722   3.465   9.982   0.652 -1.8145 -0.5291  0.4364
   56MOL0     H 7723   3.445   9.944   0.814  2.7307  3.3667  0.2929
   56MOL0     H 7724   3.408   9.606   0.556 -4.2054  2.5142 -0.2368
   56MOL0     H 7725   4.095  10.073   0.506  0.0285 -1.5798  0.4907
   56MOL0     H 7726   4.379  10.263   0.405  1.7402 -1.7742 -1.0140
   56MOL0     H 7727   4.401  10.100   0.479 -0.2056 -0.8821 -2.1916
   56MOL0     H 7728   4.274  10.123   0.370  1.6445 -1.4652  0.0780
   57MOL0     O 7729   1.676   5.063  10.239  0.1197 -0.2343 -0.0358
   57MOL0     C 7730   1.711   5.110  10.131  0.5206  1.0035 -0.1684
   57MOL0     O 7731   1.668   5.065  10.011  0.4532  0.2825  0.5720
   57MOL0     C 7732   1.586   4.959  10.000  0.8000  0.0520  0.8754
   57MOL0     C 7733   1.638   4.829  10.027  0.6249  0.9081  0.1439
   57MOL0     C 7734   1.563   4.706   9.991 -0.1963 -0.4842 -0.0991
   57MOL0     C 7735   1.431   4.723   9.948 -0.0859  2.6722 -0.0026
   57MOL0     O 7736   1.336   4.620   9.928  0.2746 -0.5460  0.5341
   57MOL0     C 7737   1.311   4.533  10.036 -0.1695 -0.6362 -0.3199
   57MOL0     C 7738   1.165   4.513  10.070 -0.3292 -0.8279  0.3091
   57MOL0     C 7739   1.102   4.645  10.122  0.3859 -0.3982  0.3766
   57MOL0     C 7740   1.164   4.694  10.257  0.9346  0.6301  0.1867
   57MOL0     C 7741   1.104   4.829  10.295  0.1814 -0.2863 -0.1769
   57MOL0     C 7742   1.180   4.915  10.395  0.3746  0.5578 -0.0543
   57MOL0     C 7743   1.162   4.855  10.534 -0.4988 -0.0140 -0.2106
   57MOL0     C 7744   1.025   4.874  10.601  0.1707 -0.3008  0.8024
   57MOL0     N 7745   0.980   5.015  10.613  0.7542  0.3131 -0.5335
   57MOL0     C 7746   1.047   5.107  10.687 -1.2078 -0.6799 -0.2086
   57MOL0     C 7747   0.981   5.224  10.661 -0.1877  0.4030  0.4081
   57MOL0     C 7748   1.008   5.354  10.733 -0.1266 -0.2838  0.9754
   57MOL0     C 7749   0.964   5.347  10.880 -0.2520 -0.5670 -0.1373
   57MOL0     C 7750   0.981   5.479  10.962 -0.0600  0.4869  0.1842
   57MOL0     C 7751   0.931   5.457  11.107  0.1473  0.5990  0.4147
   57MOL0     O 7752   1.017   5.383  11.186 -0.2724  0.1933 -0.5709
   57MOL0     C 7753   1.112   5.444  11.262  0.3745 -0.1799  0.3543
   57MOL0     C 7754   1.162   5.377  11.369 -0.8132 -0.3936  0.2225
   57MOL0     C 7755   1.272   5.414  11.443 -0.5823 -0.1166 -0.3369
   57MOL0     C 7756   1.329   5.307  11.540 -0.2218 -0.4917  0.2827
   57MOL0     C 7757   1.344   5.536  11.408 -0.5136 -0.5510  0.4447
   57MOL0     C 7758   1.466   5.581  11.478  0.3276 -0.8272 -0.7953
   57MOL0     O 7759   1.564   5.640  11.398 -0.4768  0.0320  0.1422
   57MOL0     C 7760   1.677   5.674  11.475  0.0582 -0.3673 -0.2260
   57MOL0     C 7761   1.789   5.595  11.481 -0.8871  0.6058 -0.1587
   57MOL0     C 7762   1.905   5.628  11.549  0.0922 -0.1453 -0.1770
   57MOL0     C 7763   1.908   5.744  11.631 -0.1564  0.3254  0.2490
   57MOL0     O 7764   2.014   5.798  11.693  0.8676  0.3899  0.5356
   57MOL0     C 7765   2.111   5.708  11.748  0.3087 -1.0386 -0.3738
   57MOL0     C 7766   2.167   5.773  11.872  0.6774 -0.0617 -0.0204
   57MOL0     C 7767   2.286   5.686  11.909  0.3102  0.2054  0.7198
   57MOL0     C 7768   2.374   5.781  11.993  0.3503 -0.4858 -0.1512
   57MOL0     C 7769   2.511   5.726  12.017  0.6432  1.0135 -0.4676
   57MOL0     C 7770   2.579   5.813  12.131 -0.2173  0.4596 -0.3713
   57MOL0     C 7771   2.726   5.769  12.141  0.3051 -0.2807  0.2346
   57MOL0     C 7772   2.789   5.805  12.276  0.7408  0.2049 -0.2368
   57MOL0    Cl 7773   2.969   5.782  12.276 -0.5095  0.0046  0.0184
   57MOL0     C 7774   1.792   5.817  11.633 -0.4785  0.1921  0.1328
   57MOL0     C 7775   1.680   5.785  11.561  0.2273  0.6698 -0.6039
   57MOL0     O 7776   1.466   5.581  11.601 -0.1702 -0.2774  0.1314
   57MOL0     C 7777   1.293   5.613  11.300  0.0648  0.3671  0.5187
   57MOL0     C 7778   1.173   5.570  11.232  0.3195  0.5528 -0.5793
   57MOL0     N 7779   0.860   5.195  10.581  0.1949 -0.3433  0.4313
   57MOL0     N 7780   0.867   5.072  10.556 -0.4974 -1.0128  0.1778
   57MOL0     C 7781   1.385   4.857   9.921 -0.1606  0.9640 -0.6366
   57MOL0     C 7782   1.459   4.972   9.948  0.4090  0.5488  0.3678
   57MOL0     C 7783   1.810   5.222  10.133  0.3248  0.0831 -0.4752
   57MOL0     C 7784   1.826   5.304  10.016 -0.2302  0.0271  0.7777
   57MOL0     C 7785   1.920   5.407  10.012  0.4954  0.3750 -0.2799
   57MOL0     C 7786   1.988   5.445  10.127 -0.4011 -0.2955  0.3231
   57MOL0     O 7787   2.077   5.544  10.108 -0.1289  0.3934 -0.5164
   57MOL0     C 7788   2.150   5.593  10.226 -0.5474  0.7324 -1.0735
   57MOL0     C 7789   2.256   5.692  10.194  0.3379 -0.1749 -0.3262
   57MOL0     C 7790   2.230   5.832  10.241 -0.1933 -0.5258  0.3609
   57MOL0     C 7791   2.138   5.905  10.132  0.1477  0.8239 -0.3067
   57MOL0     C 7792   1.999   5.861  10.140  0.1802 -0.1942 -0.2400
   57MOL0     C 7793   1.883   5.811  10.160 -0.4620 -0.6273  0.0860
   57MOL0     C 7794   1.956   5.381  10.249  0.0669 -0.8339 -0.3756
   57MOL0     C 7795   1.874   5.266  10.255  0.6871  0.2450  0.4716
   57MOL0     C 7796   1.872   5.201  10.392  0.0245 -0.4723  0.1357
   57MOL0     H 7797   1.742   4.814  10.053  0.9206 -2.5507 -2.3516
   57MOL0     H 7798   1.593   4.605  10.014 -0.1766 -0.0201  2.2076
   57MOL0     H 7799   1.373   4.541  10.126  2.1255 -3.2878 -1.5300
   57MOL0     H 7800   1.351   4.439   9.996 -1.1448 -0.2779 -2.2554
   57MOL0     H 7801   1.113   4.493   9.976 -1.1628  3.5834 -0.4067
   57MOL0     H 7802   1.147   4.436  10.146 -1.0346 -0.1214  0.8757
   57MOL0     H 7803   1.119   4.720  10.045 -0.4417  0.2699  0.8190
   57MOL0     H 7804   0.996   4.629  10.143 -0.2633  1.2920 -1.2859
   57MOL0     H 7805   1.141   4.619  10.333  0.9492  0.1076 -0.3163
   57MOL0     H 7806   1.272   4.713  10.245  0.4848  2.5941 -1.3345
   57MOL0     H 7807   0.997   4.825  10.317  0.2283  1.3669  0.5284
   57MOL0     H 7808   1.101   4.891  10.205  0.4977 -0.3468 -0.2309
   57MOL0     H 7809   1.285   4.917  10.365  0.4680  0.9097  0.2924
   57MOL0     H 7810   1.160   5.022  10.389  1.7468  0.8412  0.0843
   57MOL0     H 7811   1.243   4.887  10.600  0.7133 -0.7765 -1.2665
   57MOL0     H 7812   1.185   4.748  10.537  1.5154  0.3692  3.7259
   57MOL0     H 7813   0.942   4.830  10.545 -0.3533  3.3093 -1.6108
   57MOL0     H 7814   1.027   4.840  10.705  0.4028 -2.7229  0.0755
   57MOL0     H 7815   1.136   5.087  10.746 -0.8405  1.6043  0.0788
   57MOL0     H 7816   0.938   5.426  10.688  0.7975  0.7609  1.1701
   57MOL0     H 7817   1.107   5.399  10.722  0.5465 -1.9925 -0.4588
   57MOL0     H 7818   0.856   5.329  10.885 -0.6083  0.5727 -2.6077
   57MOL0     H 7819   1.021   5.265  10.924  0.8457 -1.7428 -3.4512
   57MOL0     H 7820   1.087   5.508  10.969  1.2184 -2.9325 -2.5284
   57MOL0     H 7821   0.928   5.568  10.926 -1.3206 -0.3977 -0.2051
   57MOL0     H 7822   0.907   5.551  11.158 -3.5444  0.4344 -0.7560
   57MOL0     H 7823   0.840   5.397  11.101  0.3761  0.3730 -1.2122
   57MOL0     H 7824   1.124   5.275  11.376  1.1769 -1.3204 -1.4739
   57MOL0     H 7825   1.251   5.234  11.564  0.4663 -0.9484  1.1624
   57MOL0     H 7826   1.364   5.360  11.630  1.5097 -2.1167  0.6117
   57MOL0     H 7827   1.417   5.258  11.498 -0.8399 -0.7231 -0.7673
   57MOL0     H 7828   1.790   5.503  11.423  1.8997 -0.3607  1.2040
   57MOL0     H 7829   1.991   5.561  11.551 -0.5247 -0.9953  2.7941
   57MOL0     H 7830   2.066   5.614  11.780  0.4334 -0.1539  2.7433
   57MOL0     H 7831   2.195   5.690  11.680  0.0951  1.0892 -1.2994
   57MOL0     H 7832   2.200   5.876  11.854 -0.0126  0.8697  3.3766
   57MOL0     H 7833   2.090   5.772  11.949 -0.9881  4.5935 -1.2490
   57MOL0     H 7834   2.350   5.652  11.827 -0.9852  2.0115 -1.1540
   57MOL0     H 7835   2.250   5.612  11.981  1.6678  0.0260  1.2484
   57MOL0     H 7836   2.324   5.800  12.089 -0.9256 -2.6341 -0.3265
   57MOL0     H 7837   2.388   5.874  11.937 -0.9161  1.0771  1.9865
   57MOL0     H 7838   2.510   5.622  12.051 -0.9333  1.4715  1.0397
   57MOL0     H 7839   2.560   5.737  11.920  0.8872 -0.6373 -0.5545
   57MOL0     H 7840   2.523   5.797  12.224  1.5140 -0.0309  0.6422
   57MOL0     H 7841   2.577   5.920  12.104 -1.1981 -0.1108 -2.8165
   57MOL0     H 7842   2.791   5.814  12.065  1.5070  1.8454  2.3876
   57MOL0     H 7843   2.734   5.660  12.138 -2.0435 -0.4943 -1.7424
   57MOL0     H 7844   2.739   5.736  12.345  0.0669  0.5014 -0.4121
   57MOL0     H 7845   2.766   5.906  12.310 -1.0499 -0.3060  0.1824
   57MOL0     H 7846   1.790   5.915  11.679  2.2995  1.2159 -1.7206
   57MOL0     H 7847   1.593   5.849  11.574  0.6959  0.8469  2.4010
   57MOL0     H 7848   1.340   5.708  11.275 -1.6429  2.1713  3.5228
   57MOL0     H 7849   1.127   5.637  11.161 -2.0231  0.2632  0.5763
   57MOL0     H 7850   1.283   4.861   9.883 -0.3839  1.4428 -0.0001
   57MOL0     H 7851   1.425   5.074   9.929  0.1125  0.5835  1.0839
   57MOL0     H 7852   1.775   5.291   9.921  1.0547  1.5936 -0.1852
   57MOL0     H 7853   1.931   5.465   9.920  1.5443 -0.6854 -0.8443
   57MOL0     H 7854   2.078   5.637  10.297 -1.3216  0.3730 -1.6223
   57MOL0     H 7855   2.196   5.508  10.277 -1.5513  1.9191  2.0551
   57MOL0     H 7856   2.281   5.691  10.088  1.2767  1.2599 -0.1636
   57MOL0     H 7857   2.345   5.661  10.250 -0.4279 -1.1801  0.3651
   57MOL0     H 7858   2.189   5.836  10.342  0.3683  4.8360  0.6413
   57MOL0     H 7859   2.328   5.880  10.247 -0.0558 -0.8893  1.0649
   57MOL0     H 7860   2.176   5.891  10.030  0.1487 -3.2313  0.1031
   57MOL0     H 7861   2.130   6.013  10.146  0.8112  1.3224 -3.0409
   57MOL0     H 7862   1.786   5.768  10.173 -1.5376  1.3684 -0.8594
   57MOL0     H 7863   2.007   5.425  10.334 -1.5829  6.3811 -2.4745
   57MOL0     H 7864   1.852   5.096  10.371 -2.2839  0.2575 -1.8311
   57MOL0     H 7865   1.971   5.207  10.439  0.4934 -1.8380 -0.6198
   57MOL0     H 7866   1.789   5.239  10.451 -0.4304  2.3557 -2.0971
   58MOL0     O 7867   9.624   7.012   0.859 -0.7442 -0.5269  0.2069
   58MOL0     C 7868   9.703   7.014   0.766  0.3538  0.1328  0.2223
   58MOL0     O 7869   9.672   6.997   0.636 -0.8246 -0.4699 -0.5635
   58MOL0     C 7870   9.542   7.012   0.593 -0.5618  0.5670  0.3529
   58MOL0     C 7871   9.484   6.899   0.534 -0.1243  0.1081  0.2660
   58MOL0     C 7872   9.352   6.892   0.489  1.2834 -0.2323 -0.1563
   58MOL0     C 7873   9.261   6.990   0.520  1.9401 -1.5747  0.3170
   58MOL0     O 7874   9.128   6.976   0.482 -0.2057  0.1809  0.4212
   58MOL0     C 7875   9.043   7.084   0.519  0.8408 -0.5661  0.0118
   58MOL0     C 7876   8.903   7.036   0.475  0.1360 -0.0811 -0.2587
   58MOL0     C 7877   8.889   7.022   0.325 -0.0815  0.3056  0.7581
   58MOL0     C 7878   8.744   6.999   0.275  0.1031 -0.2945 -0.3441
   58MOL0     C 7879   8.666   7.136   0.277 -0.9016 -0.0869 -0.1310
   58MOL0     C 7880   8.522   7.125   0.231  0.1904  0.2304  0.8409
   58MOL0     C 7881   8.456   7.263   0.231 -0.8615  0.1137 -0.0029
   58MOL0     C 7882   8.313   7.269   0.172 -0.1882 -0.4309 -0.5299
   58MOL0     N 7883   8.265   7.404   0.208 -0.0363  0.4227 -0.3050
   58MOL0     C 7884   8.156   7.432   0.293 -0.3604  0.2541  0.6974
   58MOL0     C 7885   8.173   7.565   0.307 -0.1105 -0.7166  0.8726
   58MOL0     C 7886   8.089   7.662   0.385 -0.6579 -0.9009  0.2530
   58MOL0     C 7887   8.149   7.690   0.518  0.0661  0.1910 -0.1393
   58MOL0     C 7888   8.072   7.817   0.574  1.1980  0.2417  1.1630
   58MOL0     C 7889   8.170   7.922   0.611  0.7634 -0.1986 -0.1948
   58MOL0     O 7890   8.272   7.874   0.702  0.1922 -0.5405  0.0498
   58MOL0     C 7891   8.388   7.941   0.717 -0.7916  0.8857  0.2586
   58MOL0     C 7892   8.465   7.903   0.823 -0.2250  0.3406 -0.6672
   58MOL0     C 7893   8.595   7.941   0.847 -0.7202 -1.0221  0.9711
   58MOL0     C 7894   8.664   7.898   0.968  0.1565 -0.8990  0.0029
   58MOL0     C 7895   8.654   8.035   0.762 -0.1009  0.5016  0.1589
   58MOL0     C 7896   8.798   8.072   0.756 -0.6849 -0.4265 -0.6160
   58MOL0     O 7897   8.892   7.974   0.775 -0.3449  0.9329  0.4675
   58MOL0     C 7898   9.028   8.008   0.760 -0.1003  0.3817  0.0100
   58MOL0     C 7899   9.076   8.074   0.646 -0.3038  0.3846 -0.5639
   58MOL0     C 7900   9.214   8.110   0.640  0.3805 -0.1368  0.1950
   58MOL0     C 7901   9.300   8.061   0.739  0.7862  0.4322 -0.0584
   58MOL0     O 7902   9.435   8.083   0.746  0.1073 -0.5540 -0.5871
   58MOL0     C 7903   9.484   8.212   0.696 -0.2588 -0.2299 -0.0210
   58MOL0     C 7904   9.631   8.246   0.738 -0.5701 -0.5965 -0.0573
   58MOL0     C 7905   9.697   8.359   0.657  0.1380 -0.2885 -0.1343
   58MOL0     C 7906   9.832   8.399   0.719 -0.2103  0.2176  0.6663
   58MOL0     C 7907   9.902   8.520   0.667  0.2814  0.3990  0.0017
   58MOL0     C 7908  10.018   8.560   0.759  0.1800 -0.2858  0.7119
   58MOL0     C 7909  10.142   8.587   0.672  0.4666 -0.2174 -0.1328
   58MOL0     C 7910  10.134   8.711   0.586  0.0770 -0.8426  0.3343
   58MOL0    Cl 7911  10.277   8.728   0.474  0.3046 -0.0463  0.1513
   58MOL0     C 7912   9.258   7.986   0.843  0.0447 -0.3151 -1.2958
   58MOL0     C 7913   9.117   7.964   0.860 -0.4490  0.1643 -1.0288
   58MOL0     O 7914   8.820   8.184   0.707 -0.4483  0.1263 -0.7881
   58MOL0     C 7915   8.573   8.074   0.652 -0.4745 -0.0083 -0.2851
   58MOL0     C 7916   8.449   8.025   0.628  0.0561  0.7598  0.0184
   58MOL0     N 7917   8.275   7.613   0.232 -0.5226  0.0066 -0.3386
   58MOL0     N 7918   8.329   7.516   0.170 -0.2526  0.1968 -0.2377
   58MOL0     C 7919   9.317   7.110   0.576 -0.2856 -0.3741 -0.9835
   58MOL0     C 7920   9.457   7.119   0.618 -0.2191  0.3315  0.2545
   58MOL0     C 7921   9.845   7.015   0.803  0.9898 -0.5383  0.2905
   58MOL0     C 7922   9.892   7.058   0.929  0.1920 -0.1821  0.2339
   58MOL0     C 7923  10.026   7.062   0.964 -0.3527  0.0787 -0.6977
   58MOL0     C 7924  10.132   7.016   0.883 -0.0360 -0.0501 -0.3251
   58MOL0     O 7925  10.260   7.027   0.922  0.3904 -0.2862  0.5155
   58MOL0     C 7926  10.363   6.991   0.827 -0.3184 -0.5413 -0.3107
   58MOL0     C 7927  10.484   7.035   0.904 -0.3825 -0.0624  0.3428
   58MOL0     C 7928  10.527   6.950   1.019 -0.8850  0.3455  0.5381
   58MOL0     C 7929  10.671   6.985   1.079  0.4263 -0.1380  0.6961
   58MOL0     C 7930  10.783   6.991   0.984 -0.6381 -0.2937 -0.3317
   58MOL0     C 7931  10.868   6.990   0.893  0.2188 -0.3255  0.5511
   58MOL0     C 7932  10.088   6.953   0.763 -0.0273  0.5760 -1.3784
   58MOL0     C 7933   9.952   6.956   0.732  0.1822  0.3837  0.1510
   58MOL0     C 7934   9.916   6.874   0.604 -0.7168  0.4023 -0.2240
   58MOL0     H 7935   9.548   6.823   0.492  0.2288  1.1337 -1.1621
   58MOL0     H 7936   9.313   6.820   0.419 -1.5278  2.6083 -1.7709
   58MOL0     H 7937   9.069   7.178   0.470  1.4382  0.0872  1.4958
   58MOL0     H 7938   9.048   7.097   0.628  0.2291 -0.8774  0.0818
   58MOL0     H 7939   8.883   6.941   0.524  0.1806  1.3461  2.7740
   58MOL0     H 7940   8.835   7.117   0.505 -2.7751 -1.7834 -1.8740
   58MOL0     H 7941   8.921   7.117   0.280  2.4856 -0.7126  0.2800
   58MOL0     H 7942   8.960   6.948   0.289  0.4015  1.0070  0.2233
   58MOL0     H 7943   8.743   6.965   0.172 -2.1937  1.3214 -0.9328
   58MOL0     H 7944   8.697   6.933   0.349  0.0796  0.9171  0.7626
   58MOL0     H 7945   8.716   7.210   0.214 -0.7633  1.5500  1.8119
   58MOL0     H 7946   8.661   7.175   0.379  3.0284 -0.3202  0.3032
   58MOL0     H 7947   8.526   7.086   0.129 -0.9975  3.5369 -0.6157
   58MOL0     H 7948   8.456   7.057   0.286 -1.2825 -0.8268 -2.0292
   58MOL0     H 7949   8.526   7.327   0.177 -1.0391  0.6144  0.3521
   58MOL0     H 7950   8.452   7.288   0.338  1.0202  0.3421  0.0393
   58MOL0     H 7951   8.310   7.256   0.063 -1.4224  1.0978 -0.7203
   58MOL0     H 7952   8.243   7.195   0.213 -0.3415 -0.5954 -1.0834
   58MOL0     H 7953   8.092   7.373   0.358 -0.4339  0.4519  0.8069
   58MOL0     H 7954   7.992   7.613   0.397 -0.4509 -2.0591 -2.1350
   58MOL0     H 7955   8.085   7.749   0.318  1.6215 -1.1692 -0.3061
   58MOL0     H 7956   8.138   7.604   0.584 -0.2561  0.3311 -0.0104
   58MOL0     H 7957   8.257   7.707   0.519 -0.2612  2.7181 -0.2283
   58MOL0     H 7958   7.998   7.855   0.504  0.7868 -0.9003  0.9668
   58MOL0     H 7959   8.014   7.784   0.661  1.5662 -1.1925  0.8856
   58MOL0     H 7960   8.222   7.955   0.520  3.6873 -1.3227  0.9471
   58MOL0     H 7961   8.118   8.014   0.639  2.2804  2.0462 -3.9289
   58MOL0     H 7962   8.420   7.839   0.898 -2.0170  2.0145 -0.2241
   58MOL0     H 7963   8.593   7.863   1.043  2.6859 -3.3800  1.4181
   58MOL0     H 7964   8.724   7.977   1.013 -2.0134  0.6426  0.3529
   58MOL0     H 7965   8.726   7.808   0.953 -1.0946 -1.7316 -0.3352
   58MOL0     H 7966   9.020   8.108   0.560  1.0814 -0.8462 -2.0256
   58MOL0     H 7967   9.230   8.167   0.549 -2.4181 -2.0910 -1.6884
   58MOL0     H 7968   9.486   8.204   0.587  1.8811 -1.6318  0.0682
   58MOL0     H 7969   9.423   8.300   0.719  0.6678  0.8310 -1.4626
   58MOL0     H 7970   9.652   8.249   0.846  2.4641 -0.3393 -0.5725
   58MOL0     H 7971   9.680   8.155   0.701  2.5559  1.4050 -1.2739
   58MOL0     H 7972   9.634   8.448   0.671  0.4657 -0.1240  0.3231
   58MOL0     H 7973   9.701   8.324   0.554  0.2438 -0.0092 -0.2269
   58MOL0     H 7974   9.902   8.320   0.690  1.9731  1.6238  1.8545
   58MOL0     H 7975   9.827   8.412   0.828 -0.6808  1.6254  0.4905
   58MOL0     H 7976   9.936   8.523   0.563 -0.1695 -0.2726 -0.1695
   58MOL0     H 7977   9.826   8.598   0.670 -1.7899 -1.4169 -1.6345
   58MOL0     H 7978  10.024   8.482   0.836 -3.1091 -1.3797  0.0152
   58MOL0     H 7979   9.993   8.650   0.816 -0.8228 -1.1640  1.7113
   58MOL0     H 7980  10.156   8.502   0.604 -1.0491 -1.1496  0.6623
   58MOL0     H 7981  10.228   8.589   0.739 -0.3891 -2.1590  1.0914
   58MOL0     H 7982  10.117   8.806   0.637 -0.0353  0.8200 -2.5844
   58MOL0     H 7983  10.048   8.700   0.518  1.8332 -0.0049 -2.1632
   58MOL0     H 7984   9.327   7.964   0.923 -1.0403 -1.7043 -0.7034
   58MOL0     H 7985   9.065   7.918   0.944 -0.1809  1.9303  0.1467
   58MOL0     H 7986   8.621   8.140   0.581  0.0843 -0.5895 -0.4559
   58MOL0     H 7987   8.402   8.045   0.532 -1.0393 -0.5388  0.2546
   58MOL0     H 7988   9.255   7.196   0.601  1.3788  0.6972 -0.3905
   58MOL0     H 7989   9.503   7.207   0.662 -0.9498  3.0294 -3.8299
   58MOL0     H 7990   9.816   7.080   1.003  1.3018  1.0488  1.0656
   58MOL0     H 7991  10.063   7.096   1.060  3.6664 -2.4847 -1.0774
   58MOL0     H 7992  10.366   6.882   0.815 -1.8865 -0.6577  0.1824
   58MOL0     H 7993  10.345   7.044   0.732 -2.5499 -1.0530 -0.2368
   58MOL0     H 7994  10.455   7.134   0.941 -2.7779 -0.3087 -0.7108
   58MOL0     H 7995  10.568   7.049   0.835 -0.1009 -0.1712  0.6594
   58MOL0     H 7996  10.470   6.963   1.112  1.4669  1.5843  1.9041
   58MOL0     H 7997  10.528   6.848   0.981  1.3720  0.5205 -0.0172
   58MOL0     H 7998  10.688   6.909   1.156 -0.6383 -0.1515  0.9361
   58MOL0     H 7999  10.669   7.088   1.116 -2.1235  0.3869 -0.6567
   58MOL0     H 8000  10.929   6.988   0.805 -1.7587 -2.7085 -0.8756
   58MOL0     H 8001  10.159   6.912   0.691  1.7633  4.4464 -2.0898
   58MOL0     H 8002   9.815   6.834   0.611 -0.2680 -0.5087  2.1652
   58MOL0     H 8003   9.930   6.943   0.520  0.9543 -1.5474 -1.6764
   58MOL0     H 8004   9.994   6.796   0.601 -0.1966  0.8329  1.2624
   59MOL0     O 8005   1.017  11.287   4.342 -0.4596  0.1211  0.3856
   59MOL0     C 8006   1.002  11.394   4.284 -0.2628  0.2260 -0.8431
   59MOL0     O 8007   0.880  11.459   4.283 -0.1501  0.0228 -0.1624
   59MOL0     C 8008   0.760  11.401   4.316 -0.4775  0.5564  0.1564
   59MOL0     C 8009   0.645  11.436   4.246 -0.3469  0.2140  0.1464
   59MOL0     C 8010   0.518  11.396   4.287  0.2210  0.0736  0.2601
   59MOL0     C 8011   0.497  11.316   4.396  0.0122  0.6683  0.5831
   59MOL0     O 8012   0.373  11.292   4.435 -0.1573  0.2757 -0.8966
   59MOL0     C 8013   0.329  11.309   4.569 -0.6431  0.4612 -0.5900
   59MOL0     C 8014   0.215  11.415   4.581 -0.5575 -0.5254  0.0557
   59MOL0     C 8015   0.093  11.383   4.491 -0.3464  0.1873  0.6052
   59MOL0     C 8016  -0.001  11.502   4.470  0.7832 -0.6628 -0.1073
   59MOL0     C 8017   0.039  11.596   4.358 -0.1463 -0.0936 -0.7934
   59MOL0     C 8018  -0.062  11.712   4.341  0.4270 -0.1934  0.2180
   59MOL0     C 8019  -0.009  11.803   4.230  0.3535 -0.0977  0.4652
   59MOL0     C 8020  -0.125  11.891   4.198  0.1783 -0.0594  0.6261
   59MOL0     N 8021  -0.086  11.984   4.093 -0.1166  0.2681  0.0526
   59MOL0     C 8022  -0.152  12.112   4.081 -0.0940 -0.0637 -0.2828
   59MOL0     C 8023  -0.127  12.164   3.960 -0.5834 -0.1018  0.7066
   59MOL0     C 8024  -0.159  12.296   3.916 -0.3536 -0.3970 -0.8193
   59MOL0     C 8025  -0.041  12.394   3.937 -0.5469  0.4354 -0.2381
   59MOL0     C 8026  -0.069  12.493   4.044 -0.3201 -0.8169 -0.0361
   59MOL0     C 8027   0.064  12.534   4.115 -0.2179 -0.0661  0.5891
   59MOL0     O 8028   0.169  12.556   4.022  0.6812  0.5430  0.0099
   59MOL0     C 8029   0.285  12.608   4.072  0.0311  0.3674 -0.4490
   59MOL0     C 8030   0.295  12.681   4.190 -0.0747 -0.6359  0.5270
   59MOL0     C 8031   0.418  12.738   4.223  0.7079  0.3920  1.1213
   59MOL0     C 8032   0.415  12.820   4.345  0.4363 -0.0425  0.1475
   59MOL0     C 8033   0.538  12.723   4.142  0.2837  0.4013  0.7002
   59MOL0     C 8034   0.676  12.762   4.181  0.3937 -0.0039  0.5114
   59MOL0     O 8035   0.771  12.747   4.092  0.4237 -0.4447  0.3460
   59MOL0     C 8036   0.895  12.796   4.108 -0.3192 -0.6693 -0.9504
   59MOL0     C 8037   0.930  12.935   4.100 -0.1295  0.1731  0.0956
   59MOL0     C 8038   1.053  12.995   4.103  0.5836  0.5939 -0.6834
   59MOL0     C 8039   1.158  12.904   4.119  0.6998  0.2113 -0.6848
   59MOL0     O 8040   1.292  12.936   4.108 -0.0068 -0.3776 -0.1972
   59MOL0     C 8041   1.329  13.079   4.087 -0.5510  0.5384 -0.7381
   59MOL0     C 8042   1.481  13.084   4.061 -0.9559 -0.0496 -0.4267
   59MOL0     C 8043   1.521  13.082   3.917  0.4910  0.0297  0.3210
   59MOL0     C 8044   1.677  13.099   3.901 -0.0980 -0.3790  0.6808
   59MOL0     C 8045   1.754  12.982   3.962  0.2529  0.5429  0.9407
   59MOL0     C 8046   1.816  12.998   4.103  0.4740  0.0638 -0.4114
   59MOL0     C 8047   1.890  13.132   4.121 -0.0027  0.2412 -0.6712
   59MOL0     C 8048   1.979  13.131   4.240  0.1837  0.0540  1.2412
   59MOL0    Cl 8049   2.122  13.022   4.194 -0.1293 -0.0916 -0.0767
   59MOL0     C 8050   1.137  12.770   4.120 -0.1330 -0.1866 -0.4610
   59MOL0     C 8051   1.010  12.709   4.115 -0.0937 -0.4940 -0.1895
   59MOL0     O 8052   0.697  12.803   4.296 -0.0824 -0.7133  0.4881
   59MOL0     C 8053   0.517  12.660   4.017  0.1908 -0.2419  0.2013
   59MOL0     C 8054   0.396  12.595   3.990 -1.0021 -0.1921 -0.1196
   59MOL0     N 8055  -0.054  12.074   3.895 -1.1831  1.0511  0.1583
   59MOL0     N 8056  -0.029  11.965   3.967 -0.7810 -0.3294  0.6692
   59MOL0     C 8057   0.615  11.265   4.466 -0.8516  0.0190  0.2564
   59MOL0     C 8058   0.741  11.313   4.426 -1.0127 -0.2222  0.6128
   59MOL0     C 8059   1.120  11.472   4.230 -0.4255  0.1351 -0.0453
   59MOL0     C 8060   1.093  11.606   4.183 -0.0394 -0.3620 -0.1348
   59MOL0     C 8061   1.194  11.679   4.122 -0.5697  0.1732 -0.5230
   59MOL0     C 8062   1.325  11.627   4.110  0.1818  0.0891 -0.3510
   59MOL0     O 8063   1.424  11.688   4.040  0.9867 -0.2382  0.3956
   59MOL0     C 8064   1.406  11.822   3.980  0.6783  0.0322 -0.2632
   59MOL0     C 8065   1.525  11.882   3.904 -0.8472  0.0171  0.1971
   59MOL0     C 8066   1.656  11.830   3.958 -0.4671  0.1098 -0.2733
   59MOL0     C 8067   1.779  11.878   3.875 -0.3234  0.1175  1.3871
   59MOL0     C 8068   1.896  11.785   3.884  0.2567 -0.7845 -0.1977
   59MOL0     C 8069   1.995  11.713   3.878  0.4088 -0.1796  0.2729
   59MOL0     C 8070   1.346  11.498   4.160  1.0675 -0.1991 -0.1019
   59MOL0     C 8071   1.250  11.418   4.227 -1.0870  0.2629 -0.7158
   59MOL0     C 8072   1.296  11.278   4.283  0.2820 -0.2575  0.5868
   59MOL0     H 8073   0.663  11.491   4.154 -1.2082 -0.6604 -0.5656
   59MOL0     H 8074   0.438  11.440   4.228 -0.2572 -1.1667 -0.0360
   59MOL0     H 8075   0.408  11.333   4.641 -0.7522  1.8579 -0.9017
   59MOL0     H 8076   0.286  11.210   4.589 -0.5382  0.1532 -1.8514
   59MOL0     H 8077   0.182  11.430   4.684  2.0166 -1.3726  1.0585
   59MOL0     H 8078   0.252  11.515   4.556  0.6781 -0.1506  3.0748
   59MOL0     H 8079   0.121  11.347   4.391 -1.6526 -2.0822  0.9916
   59MOL0     H 8080   0.046  11.299   4.543 -3.5699  1.0339 -0.6883
   59MOL0     H 8081  -0.102  11.461   4.460  0.8855 -0.9329 -0.0513
   59MOL0     H 8082  -0.006  11.558   4.563 -0.4409 -0.5002 -0.2541
   59MOL0     H 8083   0.039  11.530   4.270 -0.8129 -0.9800 -0.1377
   59MOL0     H 8084   0.137  11.638   4.383 -0.2200  0.0688 -0.7786
   59MOL0     H 8085  -0.161  11.669   4.323  0.6133 -1.4361  1.8585
   59MOL0     H 8086  -0.060  11.760   4.440  1.6796  0.9825 -0.3512
   59MOL0     H 8087   0.032  11.750   4.143  3.8760  0.5172  1.5747
   59MOL0     H 8088   0.075  11.856   4.275 -0.7621  1.3847  0.8676
   59MOL0     H 8089  -0.221  11.846   4.175 -0.9331  2.0685  0.8361
   59MOL0     H 8090  -0.158  11.942   4.289 -2.8117  1.1705 -1.0138
   59MOL0     H 8091  -0.211  12.158   4.160 -3.0616 -0.1191 -2.3135
   59MOL0     H 8092  -0.250  12.328   3.968 -1.1238  0.3907 -2.5723
   59MOL0     H 8093  -0.181  12.294   3.809 -1.0660 -0.9959 -0.6684
   59MOL0     H 8094   0.047  12.334   3.963 -0.6190  0.7857  0.8409
   59MOL0     H 8095  -0.019  12.435   3.838  2.3202  0.4325  0.3094
   59MOL0     H 8096  -0.115  12.583   4.004 -0.2652 -0.6564  0.2660
   59MOL0     H 8097  -0.136  12.445   4.115 -1.9783 -3.1941 -2.9563
   59MOL0     H 8098   0.044  12.625   4.172 -0.7427 -1.0100  1.9644
   59MOL0     H 8099   0.091  12.450   4.181  0.8955  2.1458  3.1206
   59MOL0     H 8100   0.213  12.705   4.257  0.1415 -0.2841  0.6667
   59MOL0     H 8101   0.441  12.753   4.428 -1.5181 -2.1840 -0.8330
   59MOL0     H 8102   0.314  12.857   4.365  0.8593  1.3719 -0.2226
   59MOL0     H 8103   0.475  12.910   4.330 -3.0926  2.8860  1.9349
   59MOL0     H 8104   0.843  12.998   4.084  0.1222  0.6940  0.7312
   59MOL0     H 8105   1.061  13.101   4.082  0.0761  0.5166 -1.2514
   59MOL0     H 8106   1.277  13.121   4.000 -0.9339 -0.0027 -0.7720
   59MOL0     H 8107   1.306  13.137   4.177  2.0506 -0.1363  0.4401
   59MOL0     H 8108   1.519  13.171   4.115 -0.5363 -0.3690 -0.2048
   59MOL0     H 8109   1.528  12.997   4.108  1.8190  0.0938 -2.6535
   59MOL0     H 8110   1.481  13.167   3.861 -2.1825 -0.7171  0.9847
   59MOL0     H 8111   1.481  12.994   3.866 -0.3262  0.4696  0.1805
   59MOL0     H 8112   1.717  13.188   3.951  1.4602  0.4731 -1.9195
   59MOL0     H 8113   1.694  13.122   3.796 -0.6065  2.8039  1.1846
   59MOL0     H 8114   1.692  12.893   3.947 -0.2279  1.1457 -0.8247
   59MOL0     H 8115   1.836  12.967   3.891 -1.3768  2.1571 -1.4279
   59MOL0     H 8116   1.870  12.906   4.128 -1.7912 -1.2162  0.0046
   59MOL0     H 8117   1.734  12.996   4.175 -0.5299  1.5085 -1.4732
   59MOL0     H 8118   1.805  13.198   4.141 -1.0924 -1.2082 -0.3887
   59MOL0     H 8119   1.946  13.160   4.031 -0.1523 -2.3409 -1.6553
   59MOL0     H 8120   1.930  13.083   4.325 -0.7144 -1.6952 -0.1937
   59MOL0     H 8121   2.017  13.231   4.263 -0.1506  0.1479  1.3901
   59MOL0     H 8122   1.224  12.710   4.142  0.2675  1.2807  2.3585
   59MOL0     H 8123   0.991  12.603   4.124 -1.8009 -0.1087  1.2437
   59MOL0     H 8124   0.602  12.650   3.951  0.9047  0.5409  0.9844
   59MOL0     H 8125   0.401  12.536   3.899  1.0340  1.0511 -0.8819
   59MOL0     H 8126   0.616  11.207   4.557  0.4652 -1.2286 -0.5029
   59MOL0     H 8127   0.828  11.290   4.488 -2.0613  0.0737  2.2625
   59MOL0     H 8128   0.995  11.653   4.182 -0.5503 -1.3883 -0.2718
   59MOL0     H 8129   1.177  11.776   4.076 -0.8361  0.2215 -0.3251
   59MOL0     H 8130   1.320  11.817   3.912  0.2214 -0.5505  0.3470
   59MOL0     H 8131   1.378  11.896   4.055  0.1059  2.1344 -2.4272
   59MOL0     H 8132   1.529  11.991   3.919  1.9910  0.0549 -0.3602
   59MOL0     H 8133   1.511  11.861   3.797 -0.6757  2.0161 -0.2547
   59MOL0     H 8134   1.667  11.858   4.064  0.7983 -1.9314  0.1934
   59MOL0     H 8135   1.664  11.722   3.949 -0.0590  0.2698 -2.2649
   59MOL0     H 8136   1.812  11.980   3.899  0.2321  0.5618 -1.0026
   59MOL0     H 8137   1.754  11.873   3.769  1.9028  1.0803  0.7624
   59MOL0     H 8138   2.081  11.654   3.854 -1.9053 -2.4185 -3.5544
   59MOL0     H 8139   1.445  11.459   4.140  0.8658 -0.3652 -0.8124
   59MOL0     H 8140   1.230  11.197   4.252  1.4128 -0.1497 -2.4164
   59MOL0     H 8141   1.388  11.245   4.234  0.1422  1.6688 -1.1028
   59MOL0     H 8142   1.305  11.271   4.392  0.8038  0.7232  0.6243
   60MOL0     O 8143   4.794   7.783   4.069 -0.3551 -0.4215 -0.3045
   60MOL0     C 8144   4.692   7.850   4.074  0.0258  0.2782  0.1160
   60MOL0     O 8145   4.685   7.990   4.078  0.3006 -0.5107 -0.5772
   60MOL0     C 8146   4.798   8.075   4.077 -0.8789 -0.5773 -0.3257
   60MOL0     C 8147   4.788   8.205   4.027 -0.6576  0.4050  0.3186
   60MOL0     C 8148   4.893   8.292   4.031  0.3816  0.0213  0.5158
   60MOL0     C 8149   5.022   8.264   4.082 -0.4980 -0.0963  0.5993
   60MOL0     O 8150   5.122   8.350   4.057  0.0990 -0.2302  0.0053
   60MOL0     C 8151   5.210   8.376   4.164 -0.3906 -0.8566 -0.8734
   60MOL0     C 8152   5.275   8.518   4.171  0.0763 -0.0063 -0.2834
   60MOL0     C 8153   5.324   8.533   4.318 -0.6301 -0.1607  0.3043
   60MOL0     C 8154   5.414   8.658   4.333 -0.1625 -0.6458  0.6157
   60MOL0     C 8155   5.475   8.679   4.469  1.4686 -0.1379 -0.5911
   60MOL0     C 8156   5.367   8.728   4.581  0.7522 -0.1634  0.0552
   60MOL0     C 8157   5.435   8.739   4.720  0.0326 -0.9739  0.2302
   60MOL0     C 8158   5.322   8.769   4.822 -0.9313  0.2520  1.0092
   60MOL0     N 8159   5.268   8.634   4.863 -0.4351 -0.4852  0.0704
   60MOL0     C 8160   5.323   8.535   4.941  0.4432 -0.8095  0.2432
   60MOL0     C 8161   5.225   8.449   4.961 -0.2132  0.5637 -0.0072
   60MOL0     C 8162   5.234   8.322   5.034  0.4805 -0.1494 -0.1851
   60MOL0     C 8163   5.139   8.315   5.161  0.1522  0.4519 -0.8616
   60MOL0     C 8164   5.064   8.178   5.174 -0.4329 -0.1016  0.1771
   60MOL0     C 8165   4.973   8.178   5.294  0.7289  0.4180 -0.1160
   60MOL0     O 8166   4.896   8.051   5.303  0.3863 -0.3647 -0.0791
   60MOL0     C 8167   4.771   8.071   5.358  0.0460 -0.1517 -0.0472
   60MOL0     C 8168   4.661   8.101   5.276 -0.1817 -0.5527  0.6709
   60MOL0     C 8169   4.531   8.108   5.331 -0.0462  0.6602 -0.3578
   60MOL0     C 8170   4.420   8.149   5.239 -0.7797  0.5461 -0.1374
   60MOL0     C 8171   4.504   8.103   5.475  0.4852 -0.3180 -0.0075
   60MOL0     C 8172   4.376   8.130   5.546 -0.1363 -0.0521 -0.2144
   60MOL0     O 8173   4.263   8.172   5.477 -0.2804 -0.1994  0.2697
   60MOL0     C 8174   4.142   8.154   5.538 -0.3765 -0.4104 -0.4547
   60MOL0     C 8175   4.062   8.054   5.492  0.5264  0.3470 -0.7277
   60MOL0     C 8176   3.939   8.026   5.558 -0.0642  0.4728  0.1041
   60MOL0     C 8177   3.896   8.105   5.668  0.3709 -0.6042 -0.7748
   60MOL0     O 8178   3.783   8.076   5.746  0.2242  0.5744  0.2151
   60MOL0     C 8179   3.740   7.941   5.749 -0.0853  0.7963  0.4678
   60MOL0     C 8180   3.610   7.909   5.827 -0.2117  0.2848  0.0268
   60MOL0     C 8181   3.623   7.977   5.965 -0.2794 -0.2729  0.2843
   60MOL0     C 8182   3.523   7.930   6.069  0.3181  0.0515  0.0430
   60MOL0     C 8183   3.557   7.999   6.205  0.1995 -0.0925 -0.0164
   60MOL0     C 8184   3.463   7.961   6.324  0.3286  0.2925  0.0629
   60MOL0     C 8185   3.456   7.813   6.357 -0.2633 -0.9676  0.6392
   60MOL0     C 8186   3.328   7.795   6.442  0.5580  0.3868 -0.6979
   60MOL0    Cl 8187   3.180   7.810   6.340 -0.3459 -0.3191 -0.2482
   60MOL0     C 8188   3.973   8.220   5.702 -0.1881 -0.7226 -0.0940
   60MOL0     C 8189   4.094   8.236   5.643 -0.8696 -0.3168 -0.0810
   60MOL0     O 8190   4.388   8.130   5.662  1.0437  0.2741 -0.6374
   60MOL0     C 8191   4.617   8.069   5.559  0.4286  0.9246 -0.1807
   60MOL0     C 8192   4.743   8.037   5.494  0.4087 -1.2739  0.1950
   60MOL0     N 8193   5.106   8.499   4.916 -0.7380  0.1189  0.0220
   60MOL0     N 8194   5.133   8.617   4.869 -0.2496  0.0420 -0.3888
   60MOL0     C 8195   5.037   8.133   4.132  0.7420 -0.3085 -0.2266
   60MOL0     C 8196   4.928   8.041   4.126  0.6504 -0.1402 -1.1853
   60MOL0     C 8197   4.557   7.779   4.087  0.3214  0.0593 -0.6659
   60MOL0     C 8198   4.440   7.859   4.083  0.1344 -1.1579 -0.6064
   60MOL0     C 8199   4.310   7.804   4.087  0.5110  0.1179 -0.2433
   60MOL0     C 8200   4.298   7.662   4.092 -0.4347  0.2420  0.6755
   60MOL0     O 8201   4.186   7.584   4.088  0.3263 -0.7814 -0.2431
   60MOL0     C 8202   4.063   7.658   4.098  0.4675  0.0220  0.1984
   60MOL0     C 8203   4.027   7.725   3.958  0.0852  0.2437  0.1197
   60MOL0     C 8204   3.902   7.800   3.980 -0.0898  0.1282 -0.6861
   60MOL0     C 8205   3.783   7.712   4.031  0.5774 -0.0792  0.1250
   60MOL0     C 8206   3.661   7.780   3.990  0.7631 -0.1963  0.8281
   60MOL0     C 8207   3.566   7.854   3.980 -0.1081 -0.3274  0.0127
   60MOL0     C 8208   4.410   7.584   4.079 -0.0436  0.1582 -0.2596
   60MOL0     C 8209   4.539   7.640   4.100  0.0849  0.1134  0.1892
   60MOL0     C 8210   4.651   7.540   4.120 -0.3324 -0.3812  0.2587
   60MOL0     H 8211   4.693   8.226   3.979 -2.2856 -3.4427  1.4498
   60MOL0     H 8212   4.883   8.387   3.979  1.0711 -0.0481  0.2521
   60MOL0     H 8213   5.301   8.318   4.147 -1.5717 -2.7261 -1.1176
   60MOL0     H 8214   5.168   8.343   4.260 -1.7835 -0.1902 -1.2238
   60MOL0     H 8215   5.359   8.525   4.102  0.8120 -1.6624  0.4018
   60MOL0     H 8216   5.205   8.599   4.149  1.8345  1.4333 -0.7098
   60MOL0     H 8217   5.237   8.550   4.383 -1.8264  0.4270 -1.3906
   60MOL0     H 8218   5.379   8.442   4.344  1.1611  1.8003  4.5010
   60MOL0     H 8219   5.492   8.641   4.258  0.4897 -2.7324  1.6706
   60MOL0     H 8220   5.359   8.749   4.309 -0.2818 -0.1096  2.7191
   60MOL0     H 8221   5.547   8.761   4.470  0.2056  1.0264  1.5171
   60MOL0     H 8222   5.518   8.584   4.502 -0.0463 -0.8858 -0.6785
   60MOL0     H 8223   5.324   8.824   4.551  1.4107  0.6012  1.4833
   60MOL0     H 8224   5.282   8.660   4.578 -0.9986  1.9493 -1.8788
   60MOL0     H 8225   5.500   8.826   4.716 -2.3257  0.8461 -1.7543
   60MOL0     H 8226   5.494   8.651   4.745 -0.6032 -1.1698  1.0971
   60MOL0     H 8227   5.373   8.814   4.908  3.4348 -2.1451 -0.0161
   60MOL0     H 8228   5.250   8.843   4.786 -1.2315 -1.4217 -2.1287
   60MOL0     H 8229   5.424   8.528   4.982 -0.0286 -0.4402  1.5212
   60MOL0     H 8230   5.335   8.307   5.072  1.5654 -0.0428 -2.7914
   60MOL0     H 8231   5.215   8.244   4.959 -1.9944 -0.2316  0.4309
   60MOL0     H 8232   5.196   8.334   5.252  1.1278  0.7330 -1.5171
   60MOL0     H 8233   5.062   8.393   5.161  0.7274  1.2886  3.7365
   60MOL0     H 8234   5.006   8.155   5.084 -0.6732  2.5090 -0.4220
   60MOL0     H 8235   5.139   8.099   5.184 -0.5149  0.0369  2.3121
   60MOL0     H 8236   5.027   8.197   5.388 -0.1348 -0.5463  0.6057
   60MOL0     H 8237   4.905   8.261   5.275  1.0772  0.8789  0.6007
   60MOL0     H 8238   4.672   8.108   5.168 -1.9855 -1.7228  0.3637
   60MOL0     H 8239   4.333   8.083   5.250 -0.9428  0.7889  0.0614
   60MOL0     H 8240   4.451   8.144   5.135 -1.3329  0.7405 -0.3157
   60MOL0     H 8241   4.395   8.252   5.263 -1.1586  0.6194 -0.8343
   60MOL0     H 8242   4.092   7.972   5.428  4.2719 -2.3506  3.8529
   60MOL0     H 8243   3.889   7.936   5.523  2.0159 -0.6975 -0.0299
   60MOL0     H 8244   3.735   7.901   5.647 -0.6287 -4.4206  2.2054
   60MOL0     H 8245   3.821   7.888   5.801  1.2614 -0.6398 -2.7607
   60MOL0     H 8246   3.524   7.946   5.771 -0.5156 -1.2237 -0.5590
   60MOL0     H 8247   3.614   7.799   5.835 -0.7518  0.3051  0.6086
   60MOL0     H 8248   3.616   8.086   5.959  0.6604 -0.1074  1.8103
   60MOL0     H 8249   3.719   7.947   6.008 -0.4751 -1.4482 -0.0707
   60MOL0     H 8250   3.517   7.825   6.098 -2.7088  0.3524  0.8555
   60MOL0     H 8251   3.425   7.969   6.039  1.0312  0.9097 -1.2937
   60MOL0     H 8252   3.658   7.974   6.238  1.3486  3.5524 -0.3334
   60MOL0     H 8253   3.571   8.107   6.195  1.2810 -0.0591  1.4617
   60MOL0     H 8254   3.365   7.984   6.282  1.3040  3.5172 -0.7784
   60MOL0     H 8255   3.474   8.023   6.413 -2.1327 -0.0251  0.6633
   60MOL0     H 8256   3.541   7.784   6.420 -0.4750 -0.6147  1.0925
   60MOL0     H 8257   3.452   7.741   6.274 -1.9292  0.7163 -0.8273
   60MOL0     H 8258   3.324   7.864   6.526 -1.9713  0.2257 -0.6087
   60MOL0     H 8259   3.320   7.692   6.480  2.4712  0.1773 -0.7595
   60MOL0     H 8260   3.937   8.291   5.775 -2.6270 -0.0517 -1.8228
   60MOL0     H 8261   4.156   8.321   5.669 -0.0563 -1.2830  1.3005
   60MOL0     H 8262   4.613   8.068   5.667  1.3650  1.3469 -0.1375
   60MOL0     H 8263   4.817   7.987   5.555  0.5312 -0.6472  0.5637
   60MOL0     H 8264   5.135   8.099   4.165  1.2067 -0.7855 -1.9729
   60MOL0     H 8265   4.960   7.944   4.164  0.3526  0.3769  0.4643
   60MOL0     H 8266   4.436   7.967   4.065 -0.3105 -0.8726  1.0546
   60MOL0     H 8267   4.223   7.869   4.086 -0.0862 -0.5982  1.3054
   60MOL0     H 8268   3.987   7.581   4.116  0.4094 -0.5415 -2.1559
   60MOL0     H 8269   4.064   7.732   4.179  1.9282  1.3974 -1.0345
   60MOL0     H 8270   4.018   7.645   3.885  0.6169  0.2994 -0.0090
   60MOL0     H 8271   4.106   7.789   3.919  0.3174 -1.4508 -2.4101
   60MOL0     H 8272   3.914   7.890   4.041 -0.9615  1.0394 -1.8116
   60MOL0     H 8273   3.876   7.849   3.886  1.1984  1.8694 -0.2005
   60MOL0     H 8274   3.785   7.699   4.140  2.9496 -1.8949 -0.0719
   60MOL0     H 8275   3.791   7.611   3.991  0.6963  1.1392 -3.2702
   60MOL0     H 8276   3.474   7.909   3.980 -0.0700 -0.2478  0.9478
   60MOL0     H 8277   4.400   7.477   4.072 -0.3917  0.1170  0.7523
   60MOL0     H 8278   4.711   7.523   4.031  0.5257 -1.2401  0.9764
   60MOL0     H 8279   4.718   7.568   4.201 -0.7251 -1.1394  0.8642
   60MOL0     H 8280   4.607   7.443   4.146 -2.2516  1.0594  2.8960
   61MOL0     O 8281   8.739  10.331   5.923 -0.3558 -1.6699 -0.1339
   61MOL0     C 8282   8.715  10.230   5.981  0.0115 -0.0001 -0.0977
   61MOL0     O 8283   8.794  10.181   6.083  0.0584 -0.1611 -0.4207
   61MOL0     C 8284   8.881  10.260   6.159 -0.6662  0.0619  0.1333
   61MOL0     C 8285   8.845  10.368   6.234  0.3134  0.3386  0.2995
   61MOL0     C 8286   8.932  10.450   6.304 -0.0461 -0.4292 -0.1503
   61MOL0     C 8287   9.069  10.415   6.286 -0.9445 -0.1980  0.2372
   61MOL0     O 8288   9.170  10.491   6.329 -0.2968 -0.1466 -0.5639
   61MOL0     C 8289   9.160  10.626   6.371 -0.0148  0.8506  0.2215
   61MOL0     C 8290   9.292  10.681   6.432 -0.2707  0.6161 -0.1616
   61MOL0     C 8291   9.421  10.658   6.349 -0.4455  0.3413 -0.0222
   61MOL0     C 8292   9.546  10.668   6.438  0.1900 -0.2422 -1.1235
   61MOL0     C 8293   9.607  10.527   6.473  0.0844 -0.3621  0.2106
   61MOL0     C 8294   9.740  10.543   6.539 -0.4268  0.0866  0.3149
   61MOL0     C 8295   9.844  10.564   6.426 -0.0057  0.6183 -0.2948
   61MOL0     C 8296   9.985  10.578   6.480 -0.0559 -0.7243 -0.6308
   61MOL0     N 8297  10.021  10.723   6.500  0.4285 -0.0634  0.2431
   61MOL0     C 8298  10.050  10.802   6.387  0.3840  0.0616  0.3157
   61MOL0     C 8299  10.109  10.916   6.432  1.0233  0.5429 -0.2903
   61MOL0     C 8300  10.186  11.003   6.341  0.4461 -0.6696  0.2193
   61MOL0     C 8301  10.269  11.114   6.405 -0.1402 -0.7018  0.0138
   61MOL0     C 8302  10.344  11.174   6.288 -0.3716  0.3204  0.1863
   61MOL0     C 8303  10.429  11.289   6.327 -0.4180 -1.0836  0.3646
   61MOL0     O 8304  10.522  11.236   6.416 -0.8665 -0.2139  0.6106
   61MOL0     C 8305  10.658  11.257   6.408  1.0533 -0.6547  0.0885
   61MOL0     C 8306  10.729  11.302   6.290  0.5313 -0.2137 -0.0029
   61MOL0     C 8307  10.868  11.303   6.285  0.7683  0.1108  0.2586
   61MOL0     C 8308  10.939  11.367   6.165 -1.3393 -0.3104  0.3595
   61MOL0     C 8309  10.939  11.256   6.400 -0.3704 -0.4111  0.2099
   61MOL0     C 8310  11.092  11.249   6.407  0.9042  0.6197 -0.2412
   61MOL0     O 8311  11.140  11.253   6.530  0.1781  0.1574  0.1520
   61MOL0     C 8312  11.267  11.227   6.554 -0.6459 -0.3812 -0.8253
   61MOL0     C 8313  11.333  11.315   6.645  0.0045 -0.1321  0.1236
   61MOL0     C 8314  11.458  11.292   6.697 -0.1460  0.2358 -0.0337
   61MOL0     C 8315  11.537  11.184   6.648 -0.1896 -1.1683  0.2775
   61MOL0     O 8316  11.660  11.142   6.698  0.6181  0.2087 -0.3414
   61MOL0     C 8317  11.681  11.174   6.843 -0.0365  0.3094  0.0692
   61MOL0     C 8318  11.797  11.098   6.910  0.2821 -0.0664 -0.1032
   61MOL0     C 8319  11.861  11.187   7.026  0.5939  1.2127  0.3055
   61MOL0     C 8320  11.966  11.098   7.101  0.1755 -0.7039 -0.5222
   61MOL0     C 8321  12.007  11.161   7.238 -0.7169  0.2091  0.9106
   61MOL0     C 8322  12.073  11.056   7.334  0.0255  0.7348 -0.0565
   61MOL0     C 8323  12.191  10.976   7.285 -0.3113  0.1857  0.4348
   61MOL0     C 8324  12.287  10.941   7.401  0.4893 -0.3021  0.5761
   61MOL0    Cl 8325  12.402  11.069   7.442  0.1233  0.0944 -0.2883
   61MOL0     C 8326  11.484  11.103   6.544  0.0589  0.2237  0.2382
   61MOL0     C 8327  11.347  11.118   6.502 -0.7409 -0.2114  0.1276
   61MOL0     O 8328  11.157  11.240   6.308 -0.5163  0.0628 -0.4342
   61MOL0     C 8329  10.874  11.225   6.518  0.0550 -1.1095  0.1440
   61MOL0     C 8330  10.732  11.218   6.514 -0.3356  0.6772 -0.6519
   61MOL0     N 8331  10.112  10.912   6.565  0.4740 -0.7070 -0.3086
   61MOL0     N 8332  10.056  10.801   6.614 -0.2850  0.3250 -0.3804
   61MOL0     C 8333   9.103  10.295   6.230 -0.2298  0.1950  0.4761
   61MOL0     C 8334   9.016  10.216   6.166  0.4303 -0.0525  0.6691
   61MOL0     C 8335   8.600  10.156   5.930  0.1271  0.7712 -0.0224
   61MOL0     C 8336   8.567  10.037   6.008 -0.4099 -0.4550 -0.2077
   61MOL0     C 8337   8.463   9.950   5.980  0.4243 -0.0172  0.0280
   61MOL0     C 8338   8.375   9.978   5.881  0.8950 -1.2449  0.0532
   61MOL0     O 8339   8.256   9.910   5.865 -0.4300  0.9550 -0.1866
   61MOL0     C 8340   8.245   9.765   5.881  0.5636 -0.2095 -0.2591
   61MOL0     C 8341   8.148   9.739   6.004 -0.0542 -0.3500 -0.5988
   61MOL0     C 8342   8.002   9.756   5.980 -0.0585  0.5136  0.6768
   61MOL0     C 8343   7.921   9.743   6.112 -0.4825 -0.3953 -0.1286
   61MOL0     C 8344   7.914   9.613   6.166  0.0343  0.2591  0.2595
   61MOL0     C 8345   7.904   9.505   6.223 -0.9357  0.1704 -0.3828
   61MOL0     C 8346   8.390  10.099   5.809 -0.0258 -0.0671 -0.1799
   61MOL0     C 8347   8.504  10.184   5.830 -0.4228 -1.0697 -0.4068
   61MOL0     C 8348   8.507  10.319   5.743  0.1982  0.1506  0.3875
   61MOL0     H 8349   8.739  10.390   6.234  0.2147 -0.1230  0.0635
   61MOL0     H 8350   8.898  10.534   6.363  1.9596 -0.9548  1.8607
   61MOL0     H 8351   9.084  10.629   6.449 -0.5485  1.5077 -0.3231
   61MOL0     H 8352   9.134  10.686   6.284  0.0672 -1.6299 -1.6214
   61MOL0     H 8353   9.286  10.789   6.449  0.2401  0.5669  0.3253
   61MOL0     H 8354   9.304  10.635   6.530  1.4530 -0.8281 -0.9924
   61MOL0     H 8355   9.411  10.561   6.299  1.8653 -1.9647  3.5455
   61MOL0     H 8356   9.434  10.730   6.267 -0.4910 -1.4000 -1.6147
   61MOL0     H 8357   9.622  10.724   6.383  0.4412 -0.2440 -0.7755
   61MOL0     H 8358   9.516  10.725   6.526 -0.0665  1.8737 -2.5191
   61MOL0     H 8359   9.619  10.476   6.377 -1.6351 -0.1804 -0.1492
   61MOL0     H 8360   9.536  10.472   6.535 -1.8223  0.7340 -0.8775
   61MOL0     H 8361   9.741  10.625   6.611 -1.8171  2.3677 -2.1183
   61MOL0     H 8362   9.758  10.457   6.606 -2.6372 -0.7599 -0.1037
   61MOL0     H 8363   9.810  10.651   6.371  0.3996 -0.7064 -2.7775
   61MOL0     H 8364   9.839  10.480   6.356 -1.5940  0.4302  0.0235
   61MOL0     H 8365  10.004  10.514   6.567  0.7240  0.7535  0.3348
   61MOL0     H 8366  10.062  10.552   6.407  1.8436  1.1871  0.5454
   61MOL0     H 8367  10.022  10.780   6.284 -0.9064  2.8275 -0.0262
   61MOL0     H 8368  10.102  11.045   6.286  0.6825 -0.5430 -0.0441
   61MOL0     H 8369  10.254  10.945   6.277 -0.1704 -0.7428 -0.3805
   61MOL0     H 8370  10.209  11.188   6.459  0.5093 -0.4046  0.3324
   61MOL0     H 8371  10.342  11.064   6.469  0.9488 -0.3452 -0.9177
   61MOL0     H 8372  10.421  11.103   6.259  0.5593  1.3987 -0.0843
   61MOL0     H 8373  10.272  11.193   6.208 -2.0426 -0.7019  1.3652
   61MOL0     H 8374  10.473  11.328   6.235 -0.8639  1.2548  1.0721
   61MOL0     H 8375  10.371  11.370   6.372  0.5349 -0.6700  0.8920
   61MOL0     H 8376  10.677  11.316   6.196 -2.2942  0.1390  1.4938
   61MOL0     H 8377  11.010  11.446   6.195 -1.0199  0.3263 -1.8997
   61MOL0     H 8378  10.872  11.418   6.095  1.6742 -0.7524 -3.1923
   61MOL0     H 8379  10.981  11.289   6.101  0.0564  0.8931 -0.2492
   61MOL0     H 8380  11.273  11.395   6.688 -0.7570 -0.9118  0.5311
   61MOL0     H 8381  11.501  11.359   6.771  0.0601  2.3180 -1.9378
   61MOL0     H 8382  11.695  11.281   6.857 -0.9379  0.2624  1.4497
   61MOL0     H 8383  11.588  11.149   6.894 -0.1533  0.0102 -0.2831
   61MOL0     H 8384  11.761  11.004   6.952  0.2747 -1.3998 -2.8525
   61MOL0     H 8385  11.886  11.081   6.848  0.0188 -0.5478 -0.3498
   61MOL0     H 8386  11.784  11.212   7.100 -1.3379 -2.1908 -0.3412
   61MOL0     H 8387  11.903  11.278   6.983  1.2856  1.6069  1.7448
   61MOL0     H 8388  12.056  11.108   7.040  1.6263 -0.7978  1.5021
   61MOL0     H 8389  11.939  10.992   7.109 -3.7526  0.1843 -0.1736
   61MOL0     H 8390  12.072  11.246   7.214 -1.7873  0.7594 -0.1340
   61MOL0     H 8391  11.916  11.187   7.294 -0.5159  1.4384  0.7093
   61MOL0     H 8392  11.993  10.986   7.358 -0.7462  1.1845 -1.1972
   61MOL0     H 8393  12.091  11.117   7.424 -1.1241 -1.2589  1.6117
   61MOL0     H 8394  12.241  11.042   7.214 -1.7945  0.7367 -0.1378
   61MOL0     H 8395  12.164  10.885   7.230  1.5520 -1.1130  1.5296
   61MOL0     H 8396  12.353  10.859   7.372  0.0087 -0.6087  0.3436
   61MOL0     H 8397  12.235  10.904   7.490 -1.7597  0.9124 -0.1468
   61MOL0     H 8398  11.536  11.015   6.510 -1.4976  0.1816 -2.2850
   61MOL0     H 8399  11.308  11.048   6.430 -0.3625 -1.5163  1.1495
   61MOL0     H 8400  10.935  11.195   6.603  3.1179  2.5221 -0.5061
   61MOL0     H 8401  10.685  11.185   6.607 -1.5260  0.7178 -1.2225
   61MOL0     H 8402   9.208  10.266   6.231 -0.3658 -0.3896  2.6874
   61MOL0     H 8403   9.052  10.125   6.120  0.2999 -1.2551  2.7910
   61MOL0     H 8404   8.631   9.995   6.084  0.1699  0.5859 -0.1049
   61MOL0     H 8405   8.447   9.856   6.034 -1.3280  0.5809  0.6312
   61MOL0     H 8406   8.206   9.719   5.790 -0.1182 -3.6988  1.6288
   61MOL0     H 8407   8.337   9.710   5.905 -2.1949 -3.4946  4.6124
   61MOL0     H 8408   8.179   9.800   6.089 -3.3312  1.9205 -0.8686
   61MOL0     H 8409   8.164   9.632   6.021 -1.5177 -0.7783 -1.7775
   61MOL0     H 8410   7.982   9.853   5.932 -1.8777 -1.1597 -2.2925
   61MOL0     H 8411   7.966   9.686   5.903  0.9040  1.9227 -1.1349
   61MOL0     H 8412   7.817   9.776   6.106 -0.0191  1.2076  0.1429
   61MOL0     H 8413   7.967   9.803   6.192  1.9573 -2.6889  0.3234
   61MOL0     H 8414   7.910   9.409   6.271 -1.0670 -0.0721 -0.8403
   61MOL0     H 8415   8.319  10.130   5.734  0.1331  0.2898 -0.1882
   61MOL0     H 8416   8.610  10.333   5.709  0.3354 -1.9055 -0.2376
   61MOL0     H 8417   8.451  10.308   5.650  2.8638  0.6667 -1.4043
   61MOL0     H 8418   8.478  10.404   5.805 -1.6778 -0.5975  0.5834
   62MOL0     O 8419   9.467   5.032   5.301  0.1958 -0.7163 -0.0377
   62MOL0     C 8420   9.432   5.120   5.380 -0.6647 -0.0782  0.4423
   62MOL0     O 8421   9.513   5.205   5.442 -0.5921 -0.3925 -0.1264
   62MOL0     C 8422   9.654   5.196   5.429  1.3577 -0.1772 -0.5439
   62MOL0     C 8423   9.736   5.295   5.363  0.2017 -0.0744 -0.2550
   62MOL0     C 8424   9.874   5.279   5.346 -0.2636  0.5629  0.1258
   62MOL0     C 8425   9.942   5.167   5.383  0.6265 -1.1004 -0.8532
   62MOL0     O 8426  10.072   5.154   5.381 -0.2011  0.6346  0.3016
   62MOL0     C 8427  10.134   5.178   5.256 -0.2784 -0.2632 -0.1044
   62MOL0     C 8428  10.280   5.162   5.269  0.4277  0.0069 -0.3831
   62MOL0     C 8429  10.342   5.233   5.389  0.6615 -0.4103 -0.2265
   62MOL0     C 8430  10.359   5.388   5.384  0.7238  0.0288  0.3676
   62MOL0     C 8431  10.475   5.423   5.296 -0.0505 -0.2292  0.7662
   62MOL0     C 8432  10.604   5.422   5.372  0.7169 -0.9111  0.2024
   62MOL0     C 8433  10.725   5.386   5.287 -0.1203  0.2971 -1.0703
   62MOL0     C 8434  10.741   5.476   5.165 -0.0548  0.4001 -0.4763
   62MOL0     N 8435  10.844   5.566   5.181  0.0207 -0.7744  0.0263
   62MOL0     C 8436  10.855   5.631   5.301 -0.1500  0.3071 -0.1796
   62MOL0     C 8437  10.966   5.709   5.272  0.0887  0.2537  0.6353
   62MOL0     C 8438  11.033   5.796   5.369 -0.0204 -0.0584 -0.7250
   62MOL0     C 8439  11.173   5.749   5.400  0.5506 -1.0506  0.0883
   62MOL0     C 8440  11.271   5.815   5.304  0.8650  0.2541 -0.3837
   62MOL0     C 8441  11.409   5.811   5.358 -0.4388  0.5440 -0.1163
   62MOL0     O 8442  11.494   5.861   5.249  0.3286 -0.1811 -0.6187
   62MOL0     C 8443  11.631   5.890   5.277  0.3561  0.1932 -0.1662
   62MOL0     C 8444  11.694   5.940   5.168 -0.5092  0.0945  0.3305
   62MOL0     C 8445  11.823   5.988   5.164  0.3452 -0.3124 -0.4101
   62MOL0     C 8446  11.862   6.043   5.030 -0.6274 -0.2517  0.2209
   62MOL0     C 8447  11.899   5.985   5.279 -1.2393 -0.9078  0.0996
   62MOL0     C 8448  12.046   6.025   5.281  0.3257  0.2194 -0.6643
   62MOL0     O 8449  12.105   6.078   5.173  0.0977 -0.2828  0.2618
   62MOL0     C 8450  12.240   6.091   5.174 -0.3072  0.5050 -0.5196
   62MOL0     C 8451  12.322   5.991   5.133  0.0967  0.1782  1.6691
   62MOL0     C 8452  12.456   6.014   5.137 -0.3391  0.0658 -0.2640
   62MOL0     C 8453  12.510   6.136   5.176 -0.8307  0.2806  0.2159
   62MOL0     O 8454  12.652   6.148   5.190 -0.0697  0.5398  0.1358
   62MOL0     C 8455  12.716   6.270   5.218  0.5261 -0.3317 -0.2514
   62MOL0     C 8456  12.872   6.261   5.222 -0.1335  0.3012  0.5427
   62MOL0     C 8457  12.930   6.166   5.119  0.9602 -0.0511 -0.0854
   62MOL0     C 8458  13.070   6.213   5.069 -0.4629 -0.1319 -0.7551
   62MOL0     C 8459  13.137   6.123   4.961  0.1560 -0.3533 -0.5101
   62MOL0     C 8460  13.273   6.180   4.904 -0.3199 -0.6798  0.4699
   62MOL0     C 8461  13.342   6.075   4.817 -0.4715  0.3491 -0.4752
   62MOL0     C 8462  13.397   5.958   4.895 -0.1525 -0.6157 -0.1902
   62MOL0    Cl 8463  13.517   6.030   5.014 -0.4664  0.1597  0.0714
   62MOL0     C 8464  12.427   6.234   5.214  0.2433  0.0559 -0.4170
   62MOL0     C 8465  12.287   6.215   5.209 -0.5183 -0.2189  0.1913
   62MOL0     O 8466  12.107   5.993   5.387  0.3757  0.0407  0.3710
   62MOL0     C 8467  11.838   5.938   5.393  0.3112 -0.4904  0.0829
   62MOL0     C 8468  11.707   5.890   5.392 -0.0325 -0.1284  0.3355
   62MOL0     N 8469  11.008   5.686   5.146 -0.3934 -0.8970  0.1202
   62MOL0     N 8470  10.935   5.597   5.094  0.2306 -0.9360  0.5053
   62MOL0     C 8471   9.866   5.074   5.448 -0.2259  0.4282  0.2428
   62MOL0     C 8472   9.727   5.085   5.477  0.7179  0.7415  0.6017
   62MOL0     C 8473   9.288   5.146   5.412 -0.1050  0.3277 -0.3965
   62MOL0     C 8474   9.263   5.238   5.516 -0.1752 -0.4489 -0.5604
   62MOL0     C 8475   9.145   5.276   5.565 -0.6556  0.4713  0.0313
   62MOL0     C 8476   9.037   5.204   5.529  1.0500 -0.4157 -0.0359
   62MOL0     O 8477   8.919   5.230   5.594 -0.3299 -0.2373  0.5042
   62MOL0     C 8478   8.829   5.312   5.513  0.0203 -0.4191 -0.0767
   62MOL0     C 8479   8.696   5.263   5.567  0.2066  0.0711  0.4479
   62MOL0     C 8480   8.667   5.322   5.707 -0.0488  0.0287 -0.3528
   62MOL0     C 8481   8.526   5.307   5.748  0.2317  0.4956 -0.7397
   62MOL0     C 8482   8.511   5.367   5.879 -0.9968 -0.2763 -0.7481
   62MOL0     C 8483   8.508   5.439   5.981  0.4120  0.3927  0.2430
   62MOL0     C 8484   9.051   5.107   5.428 -0.3297  0.1488 -0.7766
   62MOL0     C 8485   9.174   5.075   5.368 -0.8978 -0.1408  0.1914
   62MOL0     C 8486   9.178   4.950   5.288  0.3837  0.0769 -0.5514
   62MOL0     H 8487   9.682   5.376   5.315  0.3602 -0.6352 -1.4041
   62MOL0     H 8488   9.936   5.361   5.310  0.3453  1.7428  3.4773
   62MOL0     H 8489  10.116   5.279   5.219 -1.3566 -0.3274  0.2229
   62MOL0     H 8490  10.108   5.102   5.182  1.7495 -0.6168 -0.5194
   62MOL0     H 8491  10.293   5.054   5.286 -1.8732 -0.2368  0.2778
   62MOL0     H 8492  10.323   5.193   5.174 -0.7866 -0.8829 -1.2572
   62MOL0     H 8493  10.274   5.203   5.470  0.5033  0.5843  0.0305
   62MOL0     H 8494  10.434   5.178   5.410  1.8156  1.5423  0.0815
   62MOL0     H 8495  10.266   5.434   5.351  0.4175  0.1373  1.3457
   62MOL0     H 8496  10.365   5.422   5.488 -2.7663  1.9906  0.0716
   62MOL0     H 8497  10.454   5.528   5.273  0.5856  0.1411  1.8242
   62MOL0     H 8498  10.488   5.365   5.204  0.5455 -3.1621  2.5456
   62MOL0     H 8499  10.625   5.519   5.417  1.3557 -1.2100  0.5747
   62MOL0     H 8500  10.592   5.353   5.456 -1.8380 -1.1729 -0.3174
   62MOL0     H 8501  10.706   5.285   5.251 -2.2091  0.0243  0.6003
   62MOL0     H 8502  10.821   5.384   5.341  0.4572  0.7423 -2.0590
   62MOL0     H 8503  10.754   5.421   5.071 -1.5423 -0.8764  0.0315
   62MOL0     H 8504  10.641   5.519   5.148 -0.6883 -1.5598 -2.1152
   62MOL0     H 8505  10.796   5.640   5.392 -0.6967  2.6113 -0.6790
   62MOL0     H 8506  10.983   5.800   5.466  0.3534  1.7762 -0.5756
   62MOL0     H 8507  11.036   5.901   5.339 -1.6531  0.8864  2.0692
   62MOL0     H 8508  11.192   5.791   5.499  1.2054  0.6401 -0.7201
   62MOL0     H 8509  11.180   5.640   5.394 -2.7473 -1.2901 -2.5308
   62MOL0     H 8510  11.278   5.756   5.212  1.9324 -1.2592  0.6128
   62MOL0     H 8511  11.232   5.915   5.284 -0.7277 -0.1399  0.6078
   62MOL0     H 8512  11.421   5.868   5.450 -1.9459  0.6409  0.0455
   62MOL0     H 8513  11.424   5.705   5.383 -1.4423  0.6436  1.0140
   62MOL0     H 8514  11.639   5.960   5.077  1.1502  0.9057 -0.5598
   62MOL0     H 8515  11.924   6.132   5.040 -3.0439  1.4723  0.4885
   62MOL0     H 8516  11.776   6.080   4.974 -0.2810  0.6987  0.2999
   62MOL0     H 8517  11.918   5.972   4.968 -1.3108 -0.8027  0.2218
   62MOL0     H 8518  12.270   5.903   5.095 -1.1171  0.9317  1.5030
   62MOL0     H 8519  12.522   5.938   5.095  0.9289  1.2627 -0.5160
   62MOL0     H 8520  12.709   6.335   5.131  1.5847  0.5078  0.2671
   62MOL0     H 8521  12.667   6.314   5.306 -1.5956 -1.4270 -0.8113
   62MOL0     H 8522  12.903   6.363   5.200 -2.9074  0.6312 -2.5734
   62MOL0     H 8523  12.907   6.222   5.318  0.2996  2.0351  1.1138
   62MOL0     H 8524  12.867   6.167   5.030 -0.6385  1.0396  1.0144
   62MOL0     H 8525  12.938   6.062   5.154 -1.2802  0.2690  1.6366
   62MOL0     H 8526  13.139   6.225   5.153  0.9684  0.3577 -1.9394
   62MOL0     H 8527  13.051   6.313   5.029 -1.5978  0.0402  0.1510
   62MOL0     H 8528  13.153   6.023   5.003  0.6030 -2.0237 -4.2111
   62MOL0     H 8529  13.070   6.104   4.876 -1.6404  0.4377  0.6790
   62MOL0     H 8530  13.327   6.221   4.990 -0.4103  3.2775 -1.1610
   62MOL0     H 8531  13.254   6.271   4.847  0.8278 -1.2062 -0.8070
   62MOL0     H 8532  13.424   6.122   4.763 -0.2724  0.8795  0.2619
   62MOL0     H 8533  13.272   6.043   4.740 -1.0971  1.2078 -0.2831
   62MOL0     H 8534  13.441   5.876   4.836  1.7697 -1.1471  1.8552
   62MOL0     H 8535  13.312   5.912   4.946  0.3210 -0.6643  0.5750
   62MOL0     H 8536  12.453   6.333   5.249  0.7103 -0.6301  1.2908
   62MOL0     H 8537  12.223   6.301   5.228 -1.3797 -0.9660  0.7603
   62MOL0     H 8538  11.892   5.939   5.487 -0.4070 -0.5341  0.4969
   62MOL0     H 8539  11.667   5.835   5.476  1.2686 -3.8242 -1.2371
   62MOL0     H 8540   9.912   4.987   5.496  0.7405  1.8792  2.0978
   62MOL0     H 8541   9.670   5.004   5.521 -0.5653  0.9733 -0.5681
   62MOL0     H 8542   9.348   5.290   5.559  1.0345 -2.0024 -0.9931
   62MOL0     H 8543   9.136   5.349   5.645 -3.1136 -0.7035  0.9419
   62MOL0     H 8544   8.836   5.417   5.542  0.7323 -0.7299  0.9254
   62MOL0     H 8545   8.844   5.299   5.405  4.3593  0.8560  0.1783
   62MOL0     H 8546   8.705   5.154   5.566  0.3377  0.0765  0.9832
   62MOL0     H 8547   8.619   5.279   5.490 -0.7167  0.3853  1.4169
   62MOL0     H 8548   8.721   5.246   5.764 -1.3244 -3.7935 -3.8343
   62MOL0     H 8549   8.711   5.422   5.719  0.5929 -0.5080  2.7896
   62MOL0     H 8550   8.505   5.200   5.745 -0.4350  0.5950 -0.0456
   62MOL0     H 8551   8.460   5.361   5.680 -0.3389  1.1252  0.2733
   62MOL0     H 8552   8.519   5.495   6.072  1.5529 -1.9031  1.6275
   62MOL0     H 8553   8.966   5.044   5.407 -3.2980  4.1110 -1.8633
   62MOL0     H 8554   9.237   4.950   5.196  0.0288 -2.2669 -0.8195
   62MOL0     H 8555   9.221   4.870   5.350  1.3260 -0.0757 -1.3793
   62MOL0     H 8556   9.079   4.922   5.251 -0.4964  1.0928  0.9293
   63MOL0     O 8557  10.114  11.173   2.695  0.2286  0.1231 -0.5902
   63MOL0     C 8558  10.154  11.085   2.771  0.1460 -0.3884  0.2303
   63MOL0     O 8559  10.284  11.028   2.768  0.2710  0.1512 -0.2084
   63MOL0     C 8560  10.383  11.051   2.678 -0.4472 -0.3909 -0.0560
   63MOL0     C 8561  10.471  10.941   2.654  0.5356  0.2011  0.3787
   63MOL0     C 8562  10.566  10.960   2.553 -0.1965  0.3762 -0.1060
   63MOL0     C 8563  10.583  11.083   2.479  0.2679  0.2323 -0.5345
   63MOL0     O 8564  10.686  11.096   2.395  0.1299 -0.1642  0.2011
   63MOL0     C 8565  10.706  11.225   2.329  0.3975 -0.3596 -0.2612
   63MOL0     C 8566  10.834  11.239   2.251  0.5154  0.5550 -0.0080
   63MOL0     C 8567  10.944  11.288   2.341 -0.1944  0.2496  0.0664
   63MOL0     C 8568  11.083  11.259   2.283  0.0974 -0.6918 -0.2663
   63MOL0     C 8569  11.196  11.306   2.376 -0.9028  0.5293  0.0890
   63MOL0     C 8570  11.325  11.293   2.299  0.3072  0.1316  0.3898
   63MOL0     C 8571  11.448  11.306   2.397  0.7991 -0.1818 -0.4869
   63MOL0     C 8572  11.576  11.284   2.322 -0.2363  0.3143  0.0346
   63MOL0     N 8573  11.694  11.272   2.412 -0.0307  0.1691  0.4552
   63MOL0     C 8574  11.705  11.187   2.518 -0.4822  0.3338 -0.2665
   63MOL0     C 8575  11.830  11.208   2.572 -0.4162 -0.0377  0.7174
   63MOL0     C 8576  11.885  11.133   2.697  0.1475  0.4336  1.0258
   63MOL0     C 8577  12.036  11.126   2.722  0.0785  0.1216  0.0670
   63MOL0     C 8578  12.053  11.031   2.839 -0.3427  0.4084 -0.2155
   63MOL0     C 8579  12.194  10.964   2.842 -0.6605 -0.3566 -0.2100
   63MOL0     O 8580  12.203  10.889   2.959  0.5507 -0.5048  0.0867
   63MOL0     C 8581  12.317  10.811   2.984 -0.0103 -0.0213 -0.1554
   63MOL0     C 8582  12.442  10.810   2.914  0.0146  0.8096 -0.9649
   63MOL0     C 8583  12.546  10.730   2.962 -0.2247 -0.7618  0.5164
   63MOL0     C 8584  12.691  10.771   2.924  0.3894 -0.1914 -0.8381
   63MOL0     C 8585  12.520  10.628   3.055 -0.1581  0.3316  0.2074
   63MOL0     C 8586  12.617  10.519   3.085 -0.4194 -0.8723 -0.3380
   63MOL0     O 8587  12.597  10.463   3.202  0.2697  0.2265  0.1661
   63MOL0     C 8588  12.664  10.343   3.219 -0.7244 -0.5914  0.0262
   63MOL0     C 8589  12.780  10.343   3.300 -1.1943  0.3790  0.3900
   63MOL0     C 8590  12.843  10.220   3.328 -0.1433 -0.8447  0.0193
   63MOL0     C 8591  12.813  10.113   3.254  0.2225  0.2550  0.8187
   63MOL0     O 8592  12.890  10.000   3.268 -0.0023  0.3895 -0.6973
   63MOL0     C 8593  12.851   9.922   3.374 -0.2983  0.4503 -0.0125
   63MOL0     C 8594  12.902   9.778   3.381 -0.1764 -0.0618 -0.4154
   63MOL0     C 8595  13.056   9.777   3.386  0.1855 -0.7660 -0.0497
   63MOL0     C 8596  13.115   9.639   3.386  0.2618 -0.1331 -0.6422
   63MOL0     C 8597  13.272   9.630   3.392  0.5864 -0.0079 -0.6706
   63MOL0     C 8598  13.328   9.671   3.536 -1.0780 -0.0604 -0.3389
   63MOL0     C 8599  13.476   9.713   3.543 -0.4541 -0.0889 -0.7710
   63MOL0     C 8600  13.507   9.740   3.692 -0.4158  0.1669 -0.2208
   63MOL0    Cl 8601  13.432   9.880   3.762 -0.0391  0.3471  0.1377
   63MOL0     C 8602  12.689  10.111   3.189 -1.1053 -0.4513 -1.0194
   63MOL0     C 8603  12.615  10.225   3.166  0.0012  0.3208  0.7339
   63MOL0     O 8604  12.700  10.486   3.000 -0.2830  0.3844  0.4785
   63MOL0     C 8605  12.398  10.636   3.121 -0.3899 -0.5264 -0.3027
   63MOL0     C 8606  12.299  10.729   3.090 -0.7178 -0.1443 -0.5958
   63MOL0     N 8607  11.888  11.310   2.497  0.5101 -0.3886 -0.0229
   63MOL0     N 8608  11.805  11.349   2.403 -0.6567 -0.7961  0.0611
   63MOL0     C 8609  10.490  11.184   2.505 -0.7707  0.3030 -0.3653
   63MOL0     C 8610  10.391  11.168   2.605 -0.1337  0.0110 -0.0681
   63MOL0     C 8611  10.056  11.041   2.868 -0.3897 -0.0899  0.2989
   63MOL0     C 8612  10.064  10.901   2.892  0.1320  0.6923 -0.5158
   63MOL0     C 8613   9.982  10.849   2.992 -0.9758  0.2377  0.1841
   63MOL0     C 8614   9.886  10.919   3.066 -0.0347  0.3296 -0.3033
   63MOL0     O 8615   9.811  10.850   3.161 -0.3370  0.7220  0.3753
   63MOL0     C 8616   9.695  10.904   3.225 -0.0306 -0.6804 -1.1767
   63MOL0     C 8617   9.730  11.003   3.334  0.1125 -0.0616 -0.0132
   63MOL0     C 8618   9.821  10.942   3.434 -0.0430  0.4807 -0.2818
   63MOL0     C 8619   9.898  11.052   3.512 -0.2906  1.0130 -0.2268
   63MOL0     C 8620   9.826  11.111   3.628  0.3279  0.4791  0.8952
   63MOL0     C 8621   9.772  11.169   3.717  0.0351 -0.5735 -0.3803
   63MOL0     C 8622   9.869  11.056   3.036 -0.2018  0.5556 -0.4389
   63MOL0     C 8623   9.954  11.116   2.935  0.3783  0.2922 -0.5285
   63MOL0     C 8624   9.947  11.273   2.915  0.4170  0.0524 -0.3000
   63MOL0     H 8625  10.451  10.853   2.713 -0.1190 -0.8067 -1.2553
   63MOL0     H 8626  10.641  10.882   2.556 -0.3161  0.2727  0.3098
   63MOL0     H 8627  10.711  11.301   2.407  3.2529  1.4166 -1.9797
   63MOL0     H 8628  10.622  11.250   2.263  0.2871 -0.1868 -0.0554
   63MOL0     H 8629  10.862  11.138   2.220 -0.6103 -0.0610  0.9034
   63MOL0     H 8630  10.825  11.307   2.166 -0.1569  0.3637 -0.0958
   63MOL0     H 8631  10.929  11.388   2.381 -1.6909 -0.9038  2.6292
   63MOL0     H 8632  10.944  11.242   2.440  3.1898  1.3735  0.7457
   63MOL0     H 8633  11.098  11.154   2.254  2.6565 -0.3469 -0.3540
   63MOL0     H 8634  11.087  11.312   2.187  1.9548 -0.9805 -0.3854
   63MOL0     H 8635  11.191  11.258   2.474 -1.3035 -0.2505 -0.3033
   63MOL0     H 8636  11.168  11.411   2.391  1.3683  1.0872  0.8173
   63MOL0     H 8637  11.336  11.191   2.263 -3.5608 -1.2253  2.4085
   63MOL0     H 8638  11.328  11.372   2.222 -0.5090  0.6126  0.8326
   63MOL0     H 8639  11.444  11.233   2.477 -1.6399  1.4702  1.0509
   63MOL0     H 8640  11.451  11.403   2.447 -1.0677  0.2816 -1.1895
   63MOL0     H 8641  11.568  11.192   2.264 -2.4436  1.5311 -1.7298
   63MOL0     H 8642  11.595  11.368   2.254  0.4447 -1.0413 -1.5185
   63MOL0     H 8643  11.636  11.122   2.570  1.8926 -1.2089  1.1008
   63MOL0     H 8644  11.868  11.027   2.674 -1.8754  1.2504 -1.6887
   63MOL0     H 8645  11.818  11.154   2.780  0.0870 -0.1589  1.1346
   63MOL0     H 8646  12.089  11.087   2.635  1.7352  1.5258  0.4062
   63MOL0     H 8647  12.084  11.221   2.746  1.8230 -0.4966 -0.8390
   63MOL0     H 8648  12.016  11.077   2.931 -1.4661  0.1828 -0.5366
   63MOL0     H 8649  11.984  10.947   2.824 -0.2617  0.2157  0.4439
   63MOL0     H 8650  12.220  10.902   2.756  0.3194  0.6689 -0.6797
   63MOL0     H 8651  12.258  11.053   2.844 -0.6020 -0.4175  1.2014
   63MOL0     H 8652  12.468  10.883   2.839  0.8691  2.6753  1.0303
   63MOL0     H 8653  12.762  10.759   3.006  1.0608 -0.7719 -1.4798
   63MOL0     H 8654  12.707  10.872   2.883  0.7869  0.1351  0.1083
   63MOL0     H 8655  12.719  10.700   2.845 -2.5700  0.8812 -3.0215
   63MOL0     H 8656  12.819  10.435   3.342 -0.2837 -0.7847  2.2383
   63MOL0     H 8657  12.928  10.214   3.397  1.4371 -1.6174 -1.9041
   63MOL0     H 8658  12.892   9.978   3.459 -2.0369  2.0290 -0.1760
   63MOL0     H 8659  12.742   9.916   3.381 -0.2826  1.6609  4.5921
   63MOL0     H 8660  12.854   9.730   3.466  1.8932 -0.1869  0.7328
   63MOL0     H 8661  12.871   9.725   3.291 -0.2074 -0.5231 -0.1335
   63MOL0     H 8662  13.101   9.838   3.464 -0.4652 -0.3098 -0.0243
   63MOL0     H 8663  13.097   9.814   3.291 -0.8465 -2.6244 -1.3113
   63MOL0     H 8664  13.063   9.580   3.310 -3.6728  2.4576 -0.2354
   63MOL0     H 8665  13.092   9.588   3.480  0.2977 -1.4553 -1.3273
   63MOL0     H 8666  13.307   9.529   3.366  1.2365  0.9506 -4.0056
   63MOL0     H 8667  13.321   9.688   3.313  0.2066 -0.6996 -1.4259
   63MOL0     H 8668  13.302   9.595   3.610 -0.8820 -0.3057 -0.5194
   63MOL0     H 8669  13.280   9.765   3.564  2.5999  1.7473  0.3487
   63MOL0     H 8670  13.491   9.809   3.492  1.0599 -0.9466 -2.0225
   63MOL0     H 8671  13.541   9.631   3.514 -1.7453 -2.2075  1.8689
   63MOL0     H 8672  13.614   9.763   3.695 -0.3071 -0.3527  0.1800
   63MOL0     H 8673  13.489   9.650   3.751  1.6508 -0.4994 -0.5144
   63MOL0     H 8674  12.652  10.022   3.139 -0.8580 -0.5831 -0.9696
   63MOL0     H 8675  12.522  10.207   3.113 -0.4143 -3.2299  2.3785
   63MOL0     H 8676  12.380  10.552   3.187 -2.5591 -0.6011 -0.9196
   63MOL0     H 8677  12.199  10.728   3.130 -0.2987 -0.4838  0.4828
   63MOL0     H 8678  10.478  11.284   2.463 -2.4145  0.8801  1.3130
   63MOL0     H 8679  10.314  11.242   2.626 -2.7661 -2.3090 -0.9386
   63MOL0     H 8680  10.134  10.835   2.842  0.7379  0.4553  0.5951
   63MOL0     H 8681   9.998  10.744   3.013 -1.3889  0.3259  0.9674
   63MOL0     H 8682   9.646  10.961   3.145  1.1746  1.3195 -0.5864
   63MOL0     H 8683   9.632  10.830   3.275 -1.2299  1.9136  1.4629
   63MOL0     H 8684   9.642  11.048   3.379 -1.8440 -0.4869 -3.1209
   63MOL0     H 8685   9.788  11.085   3.293  2.2574 -3.3219 -4.2904
   63MOL0     H 8686   9.767  10.873   3.499  1.5976 -0.5090  0.0804
   63MOL0     H 8687   9.900  10.884   3.385  1.1651  1.2524  0.7106
   63MOL0     H 8688   9.941  11.131   3.451  0.7514 -0.4317 -1.4389
   63MOL0     H 8689   9.986  11.013   3.562  0.7224  1.8278 -1.3241
   63MOL0     H 8690   9.715  11.236   3.779  0.1001  0.3007 -1.2353
   63MOL0     H 8691   9.802  11.121   3.090  1.3018  1.0006  0.9672
   63MOL0     H 8692  10.044  11.321   2.934  1.5013 -2.1023 -0.1815
   63MOL0     H 8693   9.915  11.285   2.811  1.9736  3.4685 -0.5262
   63MOL0     H 8694   9.870  11.322   2.975 -0.2726 -0.9233 -0.3645
   64MOL0     O 8695   7.251   8.581   8.307 -0.4803 -0.7527 -0.0684
   64MOL0     C 8696   7.239   8.657   8.405  0.7483 -0.6955  0.2837
   64MOL0     O 8697   7.332   8.682   8.497  1.0272 -0.1199  0.0778
   64MOL0     C 8698   7.418   8.579   8.517  0.3589 -0.2870 -0.2198
   64MOL0     C 8699   7.544   8.568   8.467 -0.2545  1.0503  0.4251
   64MOL0     C 8700   7.635   8.460   8.500 -0.1755  0.3067 -0.2835
   64MOL0     C 8701   7.593   8.361   8.584 -0.2944 -0.2089  0.7600
   64MOL0     O 8702   7.684   8.264   8.605  0.0725  0.4980  0.1094
   64MOL0     C 8703   7.689   8.214   8.739 -0.0346 -0.4566 -0.3395
   64MOL0     C 8704   7.693   8.321   8.845  0.2689 -0.3591  0.2231
   64MOL0     C 8705   7.806   8.418   8.824 -0.3247  0.2692  0.6494
   64MOL0     C 8706   7.825   8.507   8.940  0.2167 -0.2062  0.2189
   64MOL0     C 8707   7.970   8.555   8.978 -0.0063  0.0964 -0.0262
   64MOL0     C 8708   8.053   8.436   9.036  0.6508  0.6153  0.6885
   64MOL0     C 8709   8.203   8.464   9.039 -0.1869  0.0027 -0.1828
   64MOL0     C 8710   8.292   8.342   9.055 -0.1760 -0.2599  1.0857
   64MOL0     N 8711   8.438   8.361   9.016  0.7746  0.2595  0.1648
   64MOL0     C 8712   8.532   8.430   9.084 -0.5798  0.6595  0.0332
   64MOL0     C 8713   8.640   8.425   8.999  0.9286 -0.6879 -0.2895
   64MOL0     C 8714   8.782   8.484   9.040 -0.6561 -0.3434 -0.1860
   64MOL0     C 8715   8.895   8.410   8.976 -0.1045 -0.5105  0.1841
   64MOL0     C 8716   9.033   8.466   9.021  0.0542 -0.1915  0.0347
   64MOL0     C 8717   9.124   8.459   8.901  0.0161 -0.0393 -0.4753
   64MOL0     O 8718   9.243   8.520   8.943 -0.6546 -0.2530 -0.0756
   64MOL0     C 8719   9.339   8.543   8.851 -0.1984  0.2355  0.4007
   64MOL0     C 8720   9.330   8.526   8.708  0.0977 -0.1302  0.8776
   64MOL0     C 8721   9.448   8.535   8.628  0.0859  0.6060 -0.1771
   64MOL0     C 8722   9.447   8.493   8.485  0.4607  0.6378  1.1248
   64MOL0     C 8723   9.564   8.585   8.681 -0.7534  0.1723 -0.2492
   64MOL0     C 8724   9.694   8.622   8.597  0.2357 -0.2448 -0.3230
   64MOL0     O 8725   9.797   8.675   8.672  0.2674  0.5371  0.7452
   64MOL0     C 8726   9.932   8.663   8.649  0.3414 -0.3861 -0.5887
   64MOL0     C 8727  10.011   8.685   8.764 -0.6379  0.0805  0.2310
   64MOL0     C 8728  10.147   8.683   8.760  0.5696  0.1750  0.4930
   64MOL0     C 8729  10.214   8.647   8.647 -0.0806  0.5845  0.5216
   64MOL0     O 8730  10.346   8.661   8.633 -0.2216  0.2591 -0.0662
   64MOL0     C 8731  10.430   8.586   8.729  0.1354  0.6704 -0.3177
   64MOL0     C 8732  10.577   8.632   8.731  0.1906  0.1238 -0.3127
   64MOL0     C 8733  10.679   8.528   8.775 -0.2761  0.2338  0.0506
   64MOL0     C 8734  10.695   8.425   8.666  1.1688  0.8300 -0.1968
   64MOL0     C 8735  10.796   8.323   8.706 -0.5882  0.6827  0.5641
   64MOL0     C 8736  10.831   8.213   8.607  0.1937 -0.6469 -0.3442
   64MOL0     C 8737  10.946   8.126   8.661 -0.0126 -0.0130  0.2145
   64MOL0     C 8738  10.981   8.007   8.567  0.1544  0.0083  0.7246
   64MOL0    Cl 8739  10.858   7.885   8.567  0.2257  0.2874 -0.2694
   64MOL0     C 8740  10.139   8.607   8.537  0.3330  0.1898 -0.8529
   64MOL0     C 8741  10.002   8.621   8.534  0.4781  0.0260  0.3375
   64MOL0     O 8742   9.707   8.591   8.480  0.5251 -0.0416 -0.4697
   64MOL0     C 8743   9.572   8.614   8.824  1.0449 -0.4319 -0.1098
   64MOL0     C 8744   9.462   8.583   8.906  0.8128 -0.1116 -0.0270
   64MOL0     N 8745   8.614   8.353   8.886  0.2594  0.1710 -0.0402
   64MOL0     N 8746   8.490   8.316   8.899 -0.5046 -0.4730 -0.5202
   64MOL0     C 8747   7.466   8.371   8.632  0.8179  0.2238 -0.5029
   64MOL0     C 8748   7.377   8.479   8.602  0.2698 -0.2294  0.0946
   64MOL0     C 8749   7.099   8.693   8.445  0.5032  0.4184 -0.3555
   64MOL0     C 8750   7.057   8.694   8.577 -0.8495  0.6363 -0.2264
   64MOL0     C 8751   6.914   8.695   8.612 -0.5517 -0.0003  0.1698
   64MOL0     C 8752   6.813   8.724   8.520  1.0171 -0.8658 -0.2995
   64MOL0     O 8753   6.680   8.757   8.541  0.5148  0.1752  0.5135
   64MOL0     C 8754   6.638   8.752   8.674 -0.0287  0.7801  0.2939
   64MOL0     C 8755   6.490   8.782   8.680  0.7728 -0.5965  0.7115
   64MOL0     C 8756   6.388   8.676   8.636  0.2279 -0.4492 -0.2071
   64MOL0     C 8757   6.403   8.638   8.485 -0.0614 -0.2351 -0.1883
   64MOL0     C 8758   6.293   8.551   8.447 -0.0471 -0.5795  0.3219
   64MOL0     C 8759   6.194   8.485   8.421 -0.0162  0.4086 -0.3226
   64MOL0     C 8760   6.856   8.736   8.388 -0.8249  0.1948  0.0289
   64MOL0     C 8761   6.993   8.720   8.349 -0.9920  0.3824 -0.5014
   64MOL0     C 8762   7.025   8.725   8.201 -0.0343  0.4175 -0.2335
   64MOL0     H 8763   7.584   8.654   8.414  1.8661  0.0244  0.2595
   64MOL0     H 8764   7.737   8.450   8.465  0.0944 -1.8717  0.9528
   64MOL0     H 8765   7.769   8.141   8.754  0.3770 -0.2059 -1.2666
   64MOL0     H 8766   7.596   8.157   8.739  1.2974 -2.7267 -0.9218
   64MOL0     H 8767   7.607   8.388   8.850  0.7515  0.2110  3.4986
   64MOL0     H 8768   7.698   8.272   8.943  1.2282 -1.5080 -0.3738
   64MOL0     H 8769   7.901   8.372   8.795 -0.7914 -0.9114  0.9223
   64MOL0     H 8770   7.781   8.480   8.738  0.6752 -0.5593 -0.2646
   64MOL0     H 8771   7.755   8.591   8.932 -1.3193 -1.4638 -0.2179
   64MOL0     H 8772   7.777   8.462   9.028 -1.3924  1.1308  0.0828
   64MOL0     H 8773   7.959   8.637   9.050 -1.1772  0.3511 -0.4810
   64MOL0     H 8774   8.025   8.593   8.891 -1.9489  1.7021 -0.6289
   64MOL0     H 8775   8.012   8.409   9.134  0.4741 -2.5234 -0.1559
   64MOL0     H 8776   8.040   8.352   8.968  2.9900  1.5101 -1.0006
   64MOL0     H 8777   8.228   8.532   9.122 -2.1153  0.0681  0.3795
   64MOL0     H 8778   8.233   8.504   8.942  0.7260  1.9154  0.8380
   64MOL0     H 8779   8.286   8.285   9.148  1.6664 -0.9146  0.8397
   64MOL0     H 8780   8.246   8.270   8.987  0.1517  1.2690 -0.8260
   64MOL0     H 8781   8.519   8.472   9.183  3.7607 -0.1734  1.1714
   64MOL0     H 8782   8.791   8.461   9.147  2.8431 -2.0237 -0.7207
   64MOL0     H 8783   8.789   8.592   9.024 -0.3700 -0.5460 -1.5198
   64MOL0     H 8784   8.887   8.304   9.003  0.5481  0.0037  2.6329
   64MOL0     H 8785   8.886   8.431   8.869  0.5866 -1.6706 -0.1244
   64MOL0     H 8786   9.021   8.568   9.057  0.1230 -0.7158  1.6530
   64MOL0     H 8787   9.079   8.423   9.111  0.9063  0.8932  0.1334
   64MOL0     H 8788   9.151   8.355   8.883  1.1633  0.1533  0.0672
   64MOL0     H 8789   9.086   8.507   8.811 -0.2125  1.6145  0.4689
   64MOL0     H 8790   9.240   8.506   8.650 -0.5801 -1.8547  2.4314
   64MOL0     H 8791   9.364   8.422   8.480 -0.1155  1.3463  0.3887
   64MOL0     H 8792   9.532   8.434   8.450 -1.4736 -0.9302 -1.1995
   64MOL0     H 8793   9.439   8.576   8.415 -2.2310  1.1659  1.9616
   64MOL0     H 8794   9.957   8.695   8.858 -2.9249 -1.6107 -0.8107
   64MOL0     H 8795  10.206   8.705   8.849  1.9513  2.3879 -0.8518
   64MOL0     H 8796  10.400   8.603   8.833 -0.1692  3.2343 -0.7700
   64MOL0     H 8797  10.421   8.479   8.709 -1.0542  0.9274 -1.3108
   64MOL0     H 8798  10.596   8.684   8.636  1.4159 -0.2087 -0.2662
   64MOL0     H 8799  10.579   8.711   8.806 -1.2525 -0.4328  0.3643
   64MOL0     H 8800  10.649   8.480   8.868  1.1398  2.6104  1.8721
   64MOL0     H 8801  10.773   8.581   8.794 -0.1875 -0.1537  0.7134
   64MOL0     H 8802  10.737   8.465   8.573  2.6332 -1.3737 -0.5625
   64MOL0     H 8803  10.597   8.380   8.649  0.2899  1.6855  2.2101
   64MOL0     H 8804  10.887   8.380   8.728 -0.4476  0.4631  0.5567
   64MOL0     H 8805  10.763   8.272   8.797 -0.4254 -2.3655 -0.9490
   64MOL0     H 8806  10.852   8.251   8.506  1.0838 -1.9441 -0.6753
   64MOL0     H 8807  10.737   8.159   8.593 -1.7965  1.4778  3.3689
   64MOL0     H 8808  10.926   8.097   8.765 -3.5104 -3.7621 -1.2367
   64MOL0     H 8809  11.039   8.184   8.670 -0.6128  0.6297  3.2763
   64MOL0     H 8810  11.073   7.960   8.602  1.0790  0.7012 -0.6710
   64MOL0     H 8811  10.997   8.045   8.465  0.0591  0.3874  0.8479
   64MOL0     H 8812  10.187   8.577   8.445  1.6132 -0.7596  0.0785
   64MOL0     H 8813   9.950   8.602   8.441  1.7989 -0.8595 -0.2531
   64MOL0     H 8814   9.667   8.648   8.865  1.3745 -2.4793  0.9424
   64MOL0     H 8815   9.474   8.591   9.014  0.3638  1.5128 -0.0667
   64MOL0     H 8816   7.435   8.300   8.709 -1.8034  2.4786  0.6828
   64MOL0     H 8817   7.278   8.481   8.647  1.4156 -0.9187  2.8956
   64MOL0     H 8818   7.125   8.667   8.657  1.9690  3.4472 -1.4522
   64MOL0     H 8819   6.892   8.687   8.718  1.1323 -3.4083  0.4014
   64MOL0     H 8820   6.656   8.658   8.727  0.9430  0.4469 -0.5801
   64MOL0     H 8821   6.691   8.824   8.739 -0.1608  0.5462  0.6633
   64MOL0     H 8822   6.470   8.880   8.636  0.6611 -1.0115 -0.1921
   64MOL0     H 8823   6.472   8.786   8.788  0.1353 -0.6902  0.6103
   64MOL0     H 8824   6.395   8.586   8.698 -0.5228 -0.4847 -0.1593
   64MOL0     H 8825   6.289   8.720   8.653  1.8239  2.5098  2.5111
   64MOL0     H 8826   6.484   8.567   8.469 -0.1769 -0.3007 -0.5022
   64MOL0     H 8827   6.416   8.723   8.418  0.1511 -0.8942 -0.9965
   64MOL0     H 8828   6.123   8.409   8.394 -0.2371  0.5089 -0.0376
   64MOL0     H 8829   6.784   8.757   8.310  0.2047  0.5768 -0.8390
   64MOL0     H 8830   7.128   8.754   8.179 -0.4141  0.4237 -2.1554
   64MOL0     H 8831   7.004   8.630   8.150  0.3257 -0.1129  0.5780
   64MOL0     H 8832   6.959   8.796   8.151 -3.3030 -2.2261 -0.0318
   65MOL0     O 8833   5.803   3.523   4.604 -0.3522 -0.9330 -0.0683
   65MOL0     C 8834   5.829   3.418   4.650  0.0786  0.3425  0.4306
   65MOL0     O 8835   5.805   3.303   4.581  0.0978 -0.1553  0.4359
   65MOL0     C 8836   5.830   3.295   4.449 -0.5424  0.1486 -0.3448
   65MOL0     C 8837   5.930   3.362   4.378  0.5632 -0.6954  0.2502
   65MOL0     C 8838   5.954   3.325   4.244 -0.2429  0.5047 -0.7692
   65MOL0     C 8839   5.881   3.223   4.185 -0.4232 -0.4396 -0.9556
   65MOL0     O 8840   5.925   3.196   4.060 -0.3205 -0.5206 -0.1886
   65MOL0     C 8841   5.848   3.114   3.983  0.5693  0.1295 -0.1324
   65MOL0     C 8842   5.894   3.125   3.833  0.5119  0.1294  0.3806
   65MOL0     C 8843   6.042   3.124   3.816 -0.1759  0.4835  0.2757
   65MOL0     C 8844   6.113   2.997   3.862 -0.6391 -0.2388  0.6116
   65MOL0     C 8845   6.263   3.018   3.875  0.2241  0.0218  0.3246
   65MOL0     C 8846   6.332   3.047   3.741  0.4643 -0.3802  0.5242
   65MOL0     C 8847   6.308   2.941   3.629  0.0404  0.2462 -0.6784
   65MOL0     C 8848   6.375   2.981   3.497 -0.4528 -0.0850 -0.7643
   65MOL0     N 8849   6.512   3.032   3.514 -0.2554 -0.3773 -0.2458
   65MOL0     C 8850   6.616   2.967   3.576  0.4375 -0.0477  1.0448
   65MOL0     C 8851   6.723   3.051   3.565  0.6837 -0.4143 -0.4024
   65MOL0     C 8852   6.863   3.024   3.619  0.8282 -0.4890  0.0102
   65MOL0     C 8853   6.919   3.136   3.715 -0.0843 -0.3618  0.8055
   65MOL0     C 8854   7.063   3.096   3.766  0.6417 -0.5094  0.3495
   65MOL0     C 8855   7.052   2.976   3.869  0.1728  0.3710  0.3585
   65MOL0     O 8856   7.008   3.015   3.998 -0.2235  0.4730 -0.3101
   65MOL0     C 8857   7.100   3.073   4.089 -0.2993  0.7965  0.2392
   65MOL0     C 8858   7.046   3.136   4.200 -1.3010  0.4584  0.0638
   65MOL0     C 8859   7.124   3.186   4.304  0.0398 -0.3049  0.5167
   65MOL0     C 8860   7.052   3.254   4.417  1.4475 -0.8874  0.1673
   65MOL0     C 8861   7.268   3.171   4.300 -1.2373  1.1273  0.5203
   65MOL0     C 8862   7.354   3.190   4.413  0.0138 -0.4334 -0.0734
   65MOL0     O 8863   7.291   3.219   4.528 -0.0002  0.0051  0.2001
   65MOL0     C 8864   7.345   3.226   4.652  0.6686 -0.0024 -0.7143
   65MOL0     C 8865   7.273   3.302   4.750 -0.4741 -0.2359  0.0921
   65MOL0     C 8866   7.311   3.319   4.882  0.3685  0.3613 -0.0146
   65MOL0     C 8867   7.424   3.241   4.928  0.9635  0.2930 -0.0908
   65MOL0     O 8868   7.485   3.254   5.055  0.5342 -0.5532  0.6220
   65MOL0     C 8869   7.409   3.339   5.137 -0.1042  0.4917 -0.5311
   65MOL0     C 8870   7.471   3.365   5.269 -0.2611 -0.4932 -0.3600
   65MOL0     C 8871   7.515   3.252   5.366 -0.0521  0.1947 -0.4660
   65MOL0     C 8872   7.566   3.280   5.505 -1.0434  0.3557  0.2088
   65MOL0     C 8873   7.677   3.381   5.498  0.2257 -0.5521  0.0457
   65MOL0     C 8874   7.724   3.417   5.642  0.0555 -0.0948  0.0831
   65MOL0     C 8875   7.814   3.548   5.638 -0.6630  1.0138 -0.6507
   65MOL0     C 8876   7.957   3.515   5.587  0.0169 -0.4629 -0.5423
   65MOL0    Cl 8877   8.041   3.670   5.572 -0.1967 -0.3229  0.3359
   65MOL0     C 8878   7.492   3.162   4.838  0.5910  0.7648  0.2451
   65MOL0     C 8879   7.456   3.159   4.704  0.0749  0.1968 -0.0941
   65MOL0     O 8880   7.474   3.197   4.392 -0.4322  0.1346  0.2243
   65MOL0     C 8881   7.328   3.130   4.177  0.2869 -0.0027 -0.3195
   65MOL0     C 8882   7.239   3.069   4.080 -0.2158  0.4388 -0.9865
   65MOL0     N 8883   6.679   3.162   3.500  0.3480 -0.5176  0.6833
   65MOL0     N 8884   6.561   3.154   3.466  0.0942  0.4542 -0.7240
   65MOL0     C 8885   5.781   3.166   4.254 -0.1965 -0.0416 -0.4129
   65MOL0     C 8886   5.760   3.201   4.388 -0.3047  0.3850  0.0028
   65MOL0     C 8887   5.880   3.416   4.788 -0.2903 -0.2953 -0.1797
   65MOL0     C 8888   5.950   3.302   4.843  0.7138 -0.0502  0.1098
   65MOL0     C 8889   5.987   3.291   4.977 -0.1385 -1.1725 -0.7852
   65MOL0     C 8890   5.977   3.410   5.057 -0.4795 -0.5804  0.2613
   65MOL0     O 8891   6.028   3.426   5.182  0.1260  0.0391  0.0679
   65MOL0     C 8892   6.038   3.313   5.264  0.2731 -0.4069 -0.1374
   65MOL0     C 8893   6.118   3.352   5.382 -0.7267  0.0315 -0.3450
   65MOL0     C 8894   6.139   3.242   5.485 -0.5583  0.6315 -0.6363
   65MOL0     C 8895   6.227   3.287   5.597  0.0718 -0.3928 -0.9814
   65MOL0     C 8896   6.165   3.385   5.691 -0.0588 -0.0180  0.0535
   65MOL0     C 8897   6.092   3.442   5.773 -0.4752 -0.3667  0.2602
   65MOL0     C 8898   5.918   3.523   5.007 -0.0173  0.5375 -0.0303
   65MOL0     C 8899   5.854   3.521   4.885 -0.5197  0.3977  0.1241
   65MOL0     C 8900   5.758   3.635   4.861  0.2054  0.4143  0.0053
   65MOL0     H 8901   5.984   3.450   4.414 -0.8477  0.0204  0.6995
   65MOL0     H 8902   6.037   3.373   4.193 -0.4144 -2.8644 -4.6688
   65MOL0     H 8903   5.744   3.146   3.997 -0.4540 -3.2254  0.8205
   65MOL0     H 8904   5.861   3.009   4.009 -0.4485  0.3193  1.2301
   65MOL0     H 8905   5.850   3.042   3.777  0.2476  2.4972 -3.3088
   65MOL0     H 8906   5.849   3.213   3.786 -2.1858 -1.2408  0.2274
   65MOL0     H 8907   6.061   3.132   3.709 -1.2523  1.3841  0.1211
   65MOL0     H 8908   6.085   3.213   3.863 -1.0147  2.6468 -2.6997
   65MOL0     H 8909   6.071   2.971   3.960  2.6125  1.4941  2.6314
   65MOL0     H 8910   6.084   2.925   3.785 -0.9146  0.2830  0.2189
   65MOL0     H 8911   6.299   2.926   3.920  1.1201  0.5141  0.6365
   65MOL0     H 8912   6.288   3.105   3.937 -1.4868  1.1087 -0.4375
   65MOL0     H 8913   6.303   3.150   3.717  0.6083 -0.2018  1.0858
   65MOL0     H 8914   6.441   3.054   3.749  0.5638  0.9482 -1.4367
   65MOL0     H 8915   6.203   2.926   3.606  0.2143 -1.5739 -0.4047
   65MOL0     H 8916   6.351   2.847   3.665 -0.5826  0.5517  0.9358
   65MOL0     H 8917   6.367   2.892   3.433  0.3511 -0.3932 -0.4407
   65MOL0     H 8918   6.315   3.058   3.447 -0.8083  1.7173  2.1970
   65MOL0     H 8919   6.614   2.872   3.629  2.5331 -1.7851 -1.7154
   65MOL0     H 8920   6.927   3.010   3.532 -0.5611  2.4568 -1.6270
   65MOL0     H 8921   6.857   2.930   3.673  0.9645 -1.5687 -1.7824
   65MOL0     H 8922   6.916   3.231   3.662 -2.6913  0.2186  1.8202
   65MOL0     H 8923   6.846   3.147   3.796  2.1898 -2.7110  3.3881
   65MOL0     H 8924   7.139   3.068   3.693  2.6273  1.0301  1.7238
   65MOL0     H 8925   7.106   3.188   3.806  3.4978 -0.6675 -1.9945
   65MOL0     H 8926   6.981   2.903   3.831 -4.3537  4.2578  0.3772
   65MOL0     H 8927   7.153   2.934   3.878 -0.5987 -1.9808 -1.0849
   65MOL0     H 8928   6.938   3.150   4.205 -1.5319 -1.3115  0.7064
   65MOL0     H 8929   6.942   3.255   4.408  1.3413  2.9297  0.1766
   65MOL0     H 8930   7.101   3.349   4.439 -0.4175 -0.0698  1.0695
   65MOL0     H 8931   7.064   3.202   4.512  1.0462  2.1295  1.9904
   65MOL0     H 8932   7.183   3.354   4.718 -0.6401 -1.2014 -1.0783
   65MOL0     H 8933   7.254   3.386   4.945 -0.3024 -2.0443  2.1131
   65MOL0     H 8934   7.403   3.440   5.095  1.1997  1.0503  0.5572
   65MOL0     H 8935   7.307   3.303   5.144 -0.0321 -0.7095 -3.8543
   65MOL0     H 8936   7.556   3.434   5.263 -0.7260 -0.0019 -1.5086
   65MOL0     H 8937   7.383   3.413   5.313 -0.2529  0.5736 -1.4656
   65MOL0     H 8938   7.596   3.193   5.321  2.7314  3.1988  0.2116
   65MOL0     H 8939   7.430   3.186   5.380  1.2638 -0.9334  3.4553
   65MOL0     H 8940   7.606   3.193   5.559  4.5075  2.3698 -0.0524
   65MOL0     H 8941   7.487   3.316   5.571  1.5232  3.1888  1.9910
   65MOL0     H 8942   7.758   3.336   5.440  0.1324 -1.8959  0.9136
   65MOL0     H 8943   7.634   3.468   5.448  1.7794 -0.8823 -1.9938
   65MOL0     H 8944   7.783   3.337   5.687 -2.3651 -0.7437  2.3501
   65MOL0     H 8945   7.633   3.436   5.700  0.2624 -2.3912  1.2905
   65MOL0     H 8946   7.815   3.596   5.736 -2.4648  0.2826 -0.2417
   65MOL0     H 8947   7.760   3.611   5.566 -2.7916 -0.3354 -0.3157
   65MOL0     H 8948   7.948   3.462   5.492 -0.2106  1.9909 -1.9530
   65MOL0     H 8949   8.017   3.455   5.657  0.8647 -0.7503 -1.4835
   65MOL0     H 8950   7.577   3.101   4.870 -0.4866  0.1473  2.0891
   65MOL0     H 8951   7.519   3.088   4.652 -1.1081  0.3544 -1.7940
   65MOL0     H 8952   7.435   3.131   4.160  0.3640  1.3747  0.1684
   65MOL0     H 8953   7.297   3.021   4.002 -1.2547 -3.5344  0.4257
   65MOL0     H 8954   5.724   3.088   4.205 -0.1657  1.6373 -3.3924
   65MOL0     H 8955   5.694   3.151   4.459  2.4269  0.2355  2.6337
   65MOL0     H 8956   5.971   3.212   4.787  1.9803 -1.0405  2.0568
   65MOL0     H 8957   6.029   3.200   5.018  2.9851  1.8217  3.5623
   65MOL0     H 8958   5.932   3.298   5.289  0.2215  1.7980  1.1611
   65MOL0     H 8959   6.080   3.222   5.220 -2.4412 -1.5990 -0.4942
   65MOL0     H 8960   6.072   3.432   5.441  0.0550  1.7687 -1.9792
   65MOL0     H 8961   6.221   3.382   5.360 -1.1533  0.8825 -1.2642
   65MOL0     H 8962   6.042   3.213   5.526 -0.1461  0.7356  0.4409
   65MOL0     H 8963   6.193   3.154   5.448  1.8406  0.5514  2.6560
   65MOL0     H 8964   6.315   3.327   5.546 -1.1151  0.6826 -2.2582
   65MOL0     H 8965   6.259   3.203   5.659 -2.2125 -0.1440  0.6657
   65MOL0     H 8966   6.029   3.492   5.845  0.4719  1.9010 -0.3759
   65MOL0     H 8967   5.916   3.610   5.072  0.3856  0.1328  0.5269
   65MOL0     H 8968   5.676   3.593   4.801  0.3431 -1.1271  0.8499
   65MOL0     H 8969   5.712   3.668   4.954 -0.4955 -1.8079  0.4985
   65MOL0     H 8970   5.822   3.702   4.802  1.7914 -2.5279 -1.8838
   66MOL0     O 8971  10.549  11.242   3.149 -0.0510 -0.0490 -0.9844
   66MOL0     C 8972  10.461  11.184   3.220 -0.1749 -0.6443 -0.0030
   66MOL0     O 8973  10.474  11.069   3.292  0.0407 -0.0578  0.8411
   66MOL0     C 8974  10.600  11.013   3.306 -0.8858  0.1729  0.1314
   66MOL0     C 8975  10.686  10.996   3.196 -0.0178  0.4573  0.8650
   66MOL0     C 8976  10.804  10.925   3.225  0.2700 -0.9929 -0.2558
   66MOL0     C 8977  10.836  10.874   3.355 -0.1466  0.5821  0.8713
   66MOL0     O 8978  10.944  10.788   3.371  0.1494 -0.2650 -0.3874
   66MOL0     C 8979  10.964  10.716   3.494 -0.2701 -0.9241  0.1802
   66MOL0     C 8980  11.052  10.593   3.468  0.0218  0.5766 -0.7106
   66MOL0     C 8981  11.190  10.642   3.424  0.3078  0.0143  0.1927
   66MOL0     C 8982  11.280  10.531   3.363 -0.2081 -0.2362  0.2528
   66MOL0     C 8983  11.326  10.415   3.454  0.7286 -0.3364 -0.5510
   66MOL0     C 8984  11.444  10.458   3.531  0.3301 -0.1279 -0.3223
   66MOL0     C 8985  11.540  10.357   3.577  0.2655  0.3850  0.3732
   66MOL0     C 8986  11.660  10.422   3.651 -0.4787  0.0367 -0.5210
   66MOL0     N 8987  11.759  10.322   3.699 -0.8159 -0.5803  1.0407
   66MOL0     C 8988  11.853  10.263   3.619 -0.2925  0.0196  0.9712
   66MOL0     C 8989  11.889  10.153   3.699 -0.0101 -0.5475  0.6872
   66MOL0     C 8990  11.990  10.051   3.660 -0.2293 -0.5235  0.4524
   66MOL0     C 8991  12.129  10.045   3.740 -0.1356 -0.2234 -0.1358
   66MOL0     C 8992  12.150   9.927   3.820 -0.5818 -0.2183  0.8874
   66MOL0     C 8993  12.279   9.931   3.907 -0.6868 -0.1029 -0.4384
   66MOL0     O 8994  12.285  10.014   4.022  0.7350  0.5862 -0.5546
   66MOL0     C 8995  12.400  10.022   4.096  0.2795 -0.7542 -0.6021
   66MOL0     C 8996  12.501   9.926   4.098  0.7528  0.8278 -1.2171
   66MOL0     C 8997  12.617   9.932   4.163 -0.1790  0.2139 -1.2238
   66MOL0     C 8998  12.708   9.813   4.151  0.5929  0.0462  0.5293
   66MOL0     C 8999  12.639  10.043   4.250 -0.2328  0.1827  0.8085
   66MOL0     C 9000  12.765  10.069   4.310 -0.4468 -0.2676 -0.4072
   66MOL0     O 9001  12.756  10.128   4.433  0.1523  0.2127 -0.1500
   66MOL0     C 9002  12.868  10.156   4.503 -0.1105  0.7038  0.2462
   66MOL0     C 9003  12.896  10.290   4.526 -0.7839  0.0722  0.6376
   66MOL0     C 9004  13.012  10.325   4.598  0.2669  0.5743 -1.0008
   66MOL0     C 9005  13.103  10.219   4.635 -0.3499  0.2187  0.4771
   66MOL0     O 9006  13.215  10.252   4.715  0.3050  0.2671  0.3882
   66MOL0     C 9007  13.336  10.191   4.676 -0.1994 -0.0619 -0.3339
   66MOL0     C 9008  13.422  10.133   4.788 -0.6050  0.1737  0.3893
   66MOL0     C 9009  13.572  10.151   4.755 -0.2444  0.4388  0.4650
   66MOL0     C 9010  13.655  10.027   4.799  0.5661  0.3234  0.2038
   66MOL0     C 9011  13.793  10.026   4.757  0.3911  0.0221 -0.7361
   66MOL0     C 9012  13.878  10.126   4.845  0.7878  0.9511  0.8197
   66MOL0     C 9013  14.026  10.099   4.840 -0.9593 -0.1588  1.0276
   66MOL0     C 9014  14.098  10.184   4.941  0.4945 -0.1794  0.3484
   66MOL0    Cl 9015  14.280  10.167   4.931  0.4111 -0.0917  0.4888
   66MOL0     C 9016  13.077  10.090   4.602  0.1568 -0.3600 -0.3501
   66MOL0     C 9017  12.954  10.057   4.539 -0.0418  0.2828 -0.3976
   66MOL0     O 9018  12.870  10.035   4.255 -0.7709  0.1188 -0.1368
   66MOL0     C 9019  12.536  10.136   4.257 -0.3990  0.3629  0.2428
   66MOL0     C 9020  12.421  10.130   4.181  0.3831 -0.6338  0.0063
   66MOL0     N 9021  11.815  10.146   3.815  0.1623  0.3662 -0.0493
   66MOL0     N 9022  11.748  10.252   3.818  0.1871 -0.5691  0.6989
   66MOL0     C 9023  10.741  10.882   3.456  0.0931  2.1603  0.0861
   66MOL0     C 9024  10.620  10.949   3.432 -0.1418 -0.3371  0.9015
   66MOL0     C 9025  10.316  11.229   3.214  0.2051 -0.9019 -0.3389
   66MOL0     C 9026  10.217  11.131   3.223  0.1219 -0.0396 -0.0286
   66MOL0     C 9027  10.087  11.174   3.243  0.3484  0.1305 -0.7292
   66MOL0     C 9028  10.044  11.307   3.235  0.4879 -0.2656  0.3272
   66MOL0     O 9029   9.907  11.331   3.244 -0.5180  0.9130  0.5601
   66MOL0     C 9030   9.870  11.466   3.243 -0.8924  0.2189 -0.3666
   66MOL0     C 9031   9.725  11.477   3.279  0.1764  0.1352 -0.2791
   66MOL0     C 9032   9.681  11.393   3.404 -0.2992 -0.4318  0.0417
   66MOL0     C 9033   9.554  11.446   3.470 -0.1289 -0.3487 -0.7641
   66MOL0     C 9034   9.479  11.345   3.547 -0.6609  0.3119 -1.2349
   66MOL0     C 9035   9.414  11.271   3.620  0.4361 -0.3009 -0.5407
   66MOL0     C 9036  10.137  11.402   3.204 -0.3962  0.2965 -0.4719
   66MOL0     C 9037  10.273  11.362   3.186 -0.8754 -0.2440  0.2736
   66MOL0     C 9038  10.376  11.471   3.161  0.3368 -0.4862 -0.4555
   66MOL0     H 9039  10.668  11.034   3.096  2.7293  1.6566  0.7316
   66MOL0     H 9040  10.868  10.898   3.142 -0.2594  0.0701 -1.0270
   66MOL0     H 9041  10.870  10.680   3.537  0.0273  0.3329  1.9535
   66MOL0     H 9042  11.008  10.784   3.568 -1.3820 -0.2793  0.2574
   66MOL0     H 9043  11.067  10.526   3.554 -3.2776 -1.6507 -1.7160
   66MOL0     H 9044  11.010  10.528   3.391 -1.3183  0.2996  0.2204
   66MOL0     H 9045  11.185  10.728   3.356 -0.5506  0.0552  0.2995
   66MOL0     H 9046  11.231  10.668   3.522 -3.1014  1.0910  1.4690
   66MOL0     H 9047  11.231  10.480   3.280  0.0542  0.1462 -0.1378
   66MOL0     H 9048  11.364  10.580   3.313 -1.2948  0.4050 -0.9941
   66MOL0     H 9049  11.376  10.346   3.386 -1.0007  0.7268 -3.0637
   66MOL0     H 9050  11.246  10.372   3.514 -0.2851  0.5268 -1.2452
   66MOL0     H 9051  11.503  10.521   3.464 -0.6110  1.4574  0.2798
   66MOL0     H 9052  11.418  10.525   3.614 -0.6465 -1.1701  0.2369
   66MOL0     H 9053  11.571  10.303   3.487 -0.1761 -0.6900  0.8511
   66MOL0     H 9054  11.472  10.291   3.632  1.3970 -0.1127  1.2179
   66MOL0     H 9055  11.711  10.497   3.591 -1.1185  0.0201 -1.0913
   66MOL0     H 9056  11.612  10.486   3.725  1.4174  3.6190 -2.1683
   66MOL0     H 9057  11.902  10.282   3.524 -1.4722 -2.5388 -0.2568
   66MOL0     H 9058  12.020  10.072   3.557 -1.2131 -1.6586 -0.0776
   66MOL0     H 9059  11.946   9.951   3.655 -2.0508  0.2251  0.7857
   66MOL0     H 9060  12.211  10.050   3.667  0.8620  0.4569  1.0065
   66MOL0     H 9061  12.138  10.128   3.810  2.0946 -1.6576  1.3780
   66MOL0     H 9062  12.055   9.923   3.874 -0.4916  0.3373  1.0857
   66MOL0     H 9063  12.157   9.842   3.751 -1.1687 -1.0786  1.8623
   66MOL0     H 9064  12.300   9.832   3.948  0.3084 -0.5275 -1.8992
   66MOL0     H 9065  12.361   9.962   3.841  2.7525 -2.4703  2.3540
   66MOL0     H 9066  12.488   9.835   4.040  2.4165 -1.1186  1.2208
   66MOL0     H 9067  12.795   9.819   4.085 -1.8294  0.2658 -2.8335
   66MOL0     H 9068  12.650   9.730   4.110  1.0017  1.1825 -2.5551
   66MOL0     H 9069  12.724   9.772   4.252 -3.1693 -0.9275  0.8676
   66MOL0     H 9070  12.825  10.358   4.479 -1.1429 -0.3958  0.5009
   66MOL0     H 9071  13.029  10.429   4.624 -0.6164  0.6217 -0.5806
   66MOL0     H 9072  13.335  10.117   4.595  0.2667 -0.6749  0.2122
   66MOL0     H 9073  13.394  10.276   4.637 -1.1728  1.9872  2.4085
   66MOL0     H 9074  13.399  10.187   4.880  1.6717 -0.4226  1.3704
   66MOL0     H 9075  13.400  10.026   4.800  2.8300 -0.7327 -0.1380
   66MOL0     H 9076  13.609  10.246   4.794 -0.7927  0.3127  1.3244
   66MOL0     H 9077  13.586  10.162   4.647 -0.8492 -1.3256  0.1770
   66MOL0     H 9078  13.604   9.933   4.773  1.8134 -0.4999  0.6423
   66MOL0     H 9079  13.659  10.032   4.908 -0.7923 -3.5966  0.5961
   66MOL0     H 9080  13.842   9.931   4.776  0.7098  0.1970 -0.6727
   66MOL0     H 9081  13.794  10.048   4.649 -0.8157 -0.4009 -0.8507
   66MOL0     H 9082  13.850  10.134   4.950  0.6406  1.0957  0.7711
   66MOL0     H 9083  13.867  10.231   4.817 -0.0540  0.7464  0.3261
   66MOL0     H 9084  14.063  10.116   4.739  0.6473 -0.9850  1.4333
   66MOL0     H 9085  14.034   9.991   4.857  1.0517 -0.3049 -0.4615
   66MOL0     H 9086  14.056  10.143   5.033 -0.6953  0.2336  0.0202
   66MOL0     H 9087  14.067  10.287   4.919  1.6358  0.0918 -0.0394
   66MOL0     H 9088  13.144  10.007   4.623  0.6779 -0.6461 -2.8002
   66MOL0     H 9089  12.935   9.951   4.520  1.8421 -0.4435  1.3956
   66MOL0     H 9090  12.555  10.236   4.295  0.5043  0.6997 -1.0318
   66MOL0     H 9091  12.356  10.218   4.183 -0.9636 -1.6023  0.5922
   66MOL0     H 9092  10.751  10.848   3.559 -2.6674  0.1500 -0.1991
   66MOL0     H 9093  10.552  10.971   3.514  0.4189  2.9917  0.6157
   66MOL0     H 9094  10.237  11.024   3.228  2.7301  0.4444  1.4753
   66MOL0     H 9095  10.012  11.099   3.267  1.3952 -0.7417 -0.0855
   66MOL0     H 9096   9.930  11.520   3.317  1.8638 -1.5274 -1.1824
   66MOL0     H 9097   9.895  11.523   3.153  1.0744  1.3108  0.8014
   66MOL0     H 9098   9.663  11.455   3.192 -0.7998 -1.7956  0.8409
   66MOL0     H 9099   9.706  11.583   3.301  1.6359  0.5795 -1.0259
   66MOL0     H 9100   9.676  11.285   3.386 -1.6376 -0.4689  0.4959
   66MOL0     H 9101   9.763  11.405   3.475 -0.3340  0.7858 -0.0951
   66MOL0     H 9102   9.480  11.480   3.398 -0.2000  1.2307  0.0245
   66MOL0     H 9103   9.588  11.532   3.529  0.8180 -0.2600 -1.4156
   66MOL0     H 9104   9.353  11.210   3.683  1.8762  3.0497  4.7644
   66MOL0     H 9105  10.116  11.509   3.208  2.4685  0.9450  3.5776
   66MOL0     H 9106  10.423  11.457   3.063  2.3229 -1.2250  0.5423
   66MOL0     H 9107  10.334  11.572   3.159  0.3265 -0.4172  1.5085
   66MOL0     H 9108  10.445  11.456   3.244  1.3737 -1.9216 -1.5213
   67MOL0     O 9109   1.375   5.683   6.786  0.4883  0.2606  0.1205
   67MOL0     C 9110   1.279   5.633   6.731 -0.4671  0.1660 -0.0569
   67MOL0     O 9111   1.258   5.627   6.593  0.0054  0.2585  0.0639
   67MOL0     C 9112   1.341   5.704   6.521  0.8909 -0.0314 -0.0176
   67MOL0     C 9113   1.477   5.668   6.484 -0.1348  0.2406  0.1468
   67MOL0     C 9114   1.550   5.758   6.409  0.4404 -1.1324 -0.2669
   67MOL0     C 9115   1.497   5.883   6.369  0.1345 -0.4032 -0.8155
   67MOL0     O 9116   1.577   5.965   6.302  0.1463 -0.1909  0.3861
   67MOL0     C 9117   1.544   6.104   6.280 -1.0559 -0.6664  0.6292
   67MOL0     C 9118   1.645   6.165   6.191 -0.4705 -0.4344 -1.3458
   67MOL0     C 9119   1.779   6.177   6.270 -0.2177 -0.2150 -1.4451
   67MOL0     C 9120   1.892   6.208   6.176 -0.8060 -0.2792 -0.3333
   67MOL0     C 9121   2.029   6.232   6.253 -0.0839  0.8373  0.0865
   67MOL0     C 9122   2.131   6.279   6.148  0.8655 -0.7287  0.4911
   67MOL0     C 9123   2.278   6.296   6.198  0.4665 -0.6487 -0.2462
   67MOL0     C 9124   2.353   6.163   6.205  0.2706 -0.0088  0.1375
   67MOL0     N 9125   2.483   6.171   6.268 -1.1845  1.1348  0.5670
   67MOL0     C 9126   2.557   6.283   6.294  0.1029 -0.4316  0.6091
   67MOL0     C 9127   2.669   6.244   6.351  0.7921  0.4121  0.6476
   67MOL0     C 9128   2.783   6.326   6.389 -0.2270  0.0483  0.2011
   67MOL0     C 9129   2.836   6.415   6.280 -0.3218  0.2123  0.2913
   67MOL0     C 9130   2.888   6.335   6.159  0.5933  0.0506 -0.3305
   67MOL0     C 9131   3.033   6.283   6.184  0.6784 -0.6012  1.1774
   67MOL0     O 9132   3.126   6.396   6.183  0.1386  0.6579 -0.2331
   67MOL0     C 9133   3.262   6.354   6.206  0.4709 -0.3742 -0.2714
   67MOL0     C 9134   3.311   6.246   6.287  1.2331  0.4588  0.5059
   67MOL0     C 9135   3.448   6.211   6.307  0.5170 -0.0097  0.6435
   67MOL0     C 9136   3.485   6.083   6.378  0.5286 -0.2890 -0.2735
   67MOL0     C 9137   3.542   6.288   6.231  0.1474 -0.6620 -0.1850
   67MOL0     C 9138   3.687   6.262   6.238  0.4208  0.1244 -0.3202
   67MOL0     O 9139   3.742   6.291   6.119 -1.0030 -0.5177 -0.0497
   67MOL0     C 9140   3.876   6.256   6.101  0.1160  0.1731 -0.5897
   67MOL0     C 9141   3.962   6.352   6.042 -0.2232  0.1892  0.0413
   67MOL0     C 9142   4.089   6.308   6.006 -0.5902  0.9340  0.0097
   67MOL0     C 9143   4.138   6.186   6.045  0.1369 -0.5212 -0.8918
   67MOL0     O 9144   4.269   6.173   6.016 -0.2400 -0.2258  0.6876
   67MOL0     C 9145   4.335   6.045   6.040  0.4498  0.1867  0.1582
   67MOL0     C 9146   4.466   6.053   5.971  0.6737  0.2711 -0.9679
   67MOL0     C 9147   4.458   6.079   5.819  0.3448  0.9372 -0.1371
   67MOL0     C 9148   4.590   6.067   5.753 -0.5323  0.2173  0.5080
   67MOL0     C 9149   4.585   6.114   5.603  0.0600 -0.1217  0.1413
   67MOL0     C 9150   4.711   6.090   5.516 -0.3814  0.2846 -0.5231
   67MOL0     C 9151   4.838   6.145   5.575 -0.3563 -0.6981 -0.0837
   67MOL0     C 9152   4.943   6.173   5.460  0.1524 -0.1107 -0.5732
   67MOL0    Cl 9153   4.975   6.015   5.373 -0.2743 -0.5854  0.2352
   67MOL0     C 9154   4.065   6.101   6.118 -0.7189  0.6723  0.4816
   67MOL0     C 9155   3.929   6.131   6.136 -1.0558  0.2650 -0.6389
   67MOL0     O 9156   3.744   6.240   6.343  0.1241 -0.4814 -0.0873
   67MOL0     C 9157   3.487   6.399   6.157 -1.8034  1.2180  0.2487
   67MOL0     C 9158   3.358   6.432   6.144  0.4310  0.1160  0.5415
   67MOL0     N 9159   2.659   6.107   6.365  0.0333  0.0454  0.2441
   67MOL0     N 9160   2.550   6.065   6.315  0.2608 -0.2706 -0.1611
   67MOL0     C 9161   1.373   5.922   6.417 -0.3017 -0.5448 -0.6258
   67MOL0     C 9162   1.296   5.834   6.482 -0.1274 -0.0538 -0.9271
   67MOL0     C 9163   1.175   5.578   6.825 -0.3065  0.3389  0.8131
   67MOL0     C 9164   1.061   5.514   6.763  0.1418  0.2052 -0.0048
   67MOL0     C 9165   0.957   5.462   6.836 -0.7166 -0.8846 -0.3278
   67MOL0     C 9166   0.963   5.462   6.976  0.5718 -0.5133 -0.4101
   67MOL0     O 9167   0.862   5.413   7.051  0.5439 -0.7457 -0.0710
   67MOL0     C 9168   0.758   5.335   6.988 -0.2373 -0.0587  0.0121
   67MOL0     C 9169   0.651   5.322   7.101 -0.7314  0.0580  0.3987
   67MOL0     C 9170   0.514   5.304   7.021 -0.0188 -0.5471  0.3723
   67MOL0     C 9171   0.401   5.297   7.124  0.3040  0.7263  0.1889
   67MOL0     C 9172   0.294   5.226   7.049  0.1163  1.3990 -0.5953
   67MOL0     C 9173   0.202   5.170   6.992 -0.4061  0.0429  0.9861
   67MOL0     C 9174   1.066   5.525   7.042  0.3688 -0.2564  0.5664
   67MOL0     C 9175   1.173   5.584   6.964  0.0363 -0.7710  0.0543
   67MOL0     C 9176   1.275   5.646   7.053 -0.1158  0.7632  0.2819
   67MOL0     H 9177   1.530   5.578   6.510  0.8614  1.0117  0.8777
   67MOL0     H 9178   1.656   5.752   6.388  0.2940  0.9992 -1.9601
   67MOL0     H 9179   1.544   6.164   6.371 -0.7949 -1.1870  0.9832
   67MOL0     H 9180   1.444   6.125   6.243  0.1062  1.9588 -1.3437
   67MOL0     H 9181   1.666   6.108   6.100  2.5140 -1.3005 -0.2290
   67MOL0     H 9182   1.615   6.266   6.161  1.6363  0.5260 -0.4353
   67MOL0     H 9183   1.772   6.249   6.352  1.4288 -2.5565  0.9261
   67MOL0     H 9184   1.792   6.078   6.315  0.3941  0.1931 -0.6962
   67MOL0     H 9185   1.909   6.131   6.100  1.5588 -1.9375  1.6885
   67MOL0     H 9186   1.868   6.304   6.130  1.2112  0.3986 -0.0639
   67MOL0     H 9187   2.058   6.133   6.290 -0.3782  0.2591 -1.1797
   67MOL0     H 9188   2.017   6.309   6.330 -0.2614 -1.7077  2.7913
   67MOL0     H 9189   2.132   6.215   6.059  0.2253  1.4554 -1.2023
   67MOL0     H 9190   2.106   6.375   6.100  2.1219  0.7899  2.6722
   67MOL0     H 9191   2.262   6.340   6.297  1.4845 -0.4490 -0.1684
   67MOL0     H 9192   2.330   6.368   6.134  0.0283 -1.3525 -1.4129
   67MOL0     H 9193   2.282   6.097   6.255 -2.7312  0.5432 -3.0528
   67MOL0     H 9194   2.371   6.126   6.104  1.9470 -0.2677  0.5023
   67MOL0     H 9195   2.537   6.386   6.270  0.8770 -0.7123 -1.4353
   67MOL0     H 9196   2.858   6.254   6.422 -2.7036 -1.7799  2.2815
   67MOL0     H 9197   2.748   6.380   6.478 -2.6057 -1.0672  0.0273
   67MOL0     H 9198   2.754   6.482   6.251 -0.1574  0.1723 -0.2740
   67MOL0     H 9199   2.906   6.485   6.327 -0.5498  0.6281  0.0273
   67MOL0     H 9200   2.828   6.249   6.130 -0.9135  1.4408 -1.5364
   67MOL0     H 9201   2.894   6.403   6.073  2.9383 -0.6183 -0.7883
   67MOL0     H 9202   3.026   6.229   6.279 -2.0113 -0.8260  0.9318
   67MOL0     H 9203   3.067   6.206   6.114 -0.7275 -0.7995  0.6943
   67MOL0     H 9204   3.234   6.180   6.325  1.0131 -0.8600 -2.0036
   67MOL0     H 9205   3.394   6.027   6.400  0.2731 -0.7210 -2.2674
   67MOL0     H 9206   3.541   6.107   6.469  3.1436  2.4927 -2.4141
   67MOL0     H 9207   3.542   6.014   6.316  0.0083 -2.9620  2.0136
   67MOL0     H 9208   3.936   6.455   6.017  1.2939  0.7887  0.7927
   67MOL0     H 9209   4.142   6.376   5.940  0.2777  1.6303  1.3664
   67MOL0     H 9210   4.348   6.048   6.148  1.2488  4.3407  0.0987
   67MOL0     H 9211   4.274   5.962   6.002 -1.2135 -0.4542  3.7560
   67MOL0     H 9212   4.527   6.120   6.032 -1.3193 -0.3426  1.9053
   67MOL0     H 9213   4.512   5.954   5.982 -1.2390 -0.6463 -0.6327
   67MOL0     H 9214   4.422   6.180   5.795  1.3192  0.6542 -3.1507
   67MOL0     H 9215   4.381   6.011   5.782 -0.5430  2.3322 -0.9854
   67MOL0     H 9216   4.623   5.963   5.762 -0.8424  0.1061  0.3844
   67MOL0     H 9217   4.662   6.129   5.806 -2.5281  1.8375  1.4751
   67MOL0     H 9218   4.495   6.065   5.564  1.1336 -3.3385  1.3490
   67MOL0     H 9219   4.559   6.220   5.595 -1.9020 -0.6904 -2.2844
   67MOL0     H 9220   4.681   6.127   5.417  0.3640 -0.5340 -1.0742
   67MOL0     H 9221   4.736   5.984   5.506  2.7682  0.9132 -0.3891
   67MOL0     H 9222   4.884   6.091   5.659  1.0266  0.9555  0.2836
   67MOL0     H 9223   4.818   6.239   5.626 -0.2181 -0.9298  0.4129
   67MOL0     H 9224   5.032   6.223   5.499  0.9133  0.0784 -2.4664
   67MOL0     H 9225   4.904   6.257   5.402 -1.5507 -0.5950 -0.1689
   67MOL0     H 9226   4.101   6.009   6.162 -0.0224  0.0671 -1.2568
   67MOL0     H 9227   3.859   6.059   6.177 -0.0950  1.3276  3.3367
   67MOL0     H 9228   3.553   6.456   6.092 -0.2121 -0.6615  0.1411
   67MOL0     H 9229   3.326   6.524   6.096 -2.4160 -0.2157  1.6155
   67MOL0     H 9230   1.335   6.022   6.398 -0.4911 -0.8567 -2.0077
   67MOL0     H 9231   1.199   5.852   6.528 -0.6296 -1.2874 -1.4719
   67MOL0     H 9232   1.056   5.515   6.655 -1.5719 -2.0961 -0.0282
   67MOL0     H 9233   0.886   5.400   6.782  1.4849 -1.8718 -2.2568
   67MOL0     H 9234   0.725   5.390   6.900  0.3710  0.6847  0.2344
   67MOL0     H 9235   0.793   5.235   6.963  2.6121  0.1169  2.7054
   67MOL0     H 9236   0.641   5.406   7.170  4.3234  0.6980  0.7392
   67MOL0     H 9237   0.685   5.235   7.158  1.0068 -1.2656 -2.4029
   67MOL0     H 9238   0.516   5.388   6.951  1.4051  0.1630  1.2267
   67MOL0     H 9239   0.522   5.212   6.962  0.9539 -0.7415  0.7795
   67MOL0     H 9240   0.373   5.395   7.163  1.7715  0.3942  2.1839
   67MOL0     H 9241   0.427   5.238   7.212 -1.2193  0.8424  0.7395
   67MOL0     H 9242   0.118   5.123   6.946 -1.8232  2.6314  0.7743
   67MOL0     H 9243   1.062   5.531   7.150 -2.4437 -0.4962  0.5648
   67MOL0     H 9244   1.251   5.617   7.156 -1.0461  0.9593  0.1213
   67MOL0     H 9245   1.376   5.616   7.024 -0.9831  0.3392 -2.5423
   67MOL0     H 9246   1.280   5.755   7.046 -2.0301  0.8942  0.3961
   68MOL0     O 9247   0.880   4.293   2.912 -0.4815  0.0982  0.6765
   68MOL0     C 9248   0.834   4.376   2.826  0.3845  0.4311  0.5666
   68MOL0     O 9249   0.909   4.459   2.746  0.6460  0.2419 -0.1599
   68MOL0     C 9250   1.034   4.473   2.793 -0.1049 -0.3213 -0.5147
   68MOL0     C 9251   1.142   4.382   2.759 -0.2317 -0.0803 -0.1373
   68MOL0     C 9252   1.278   4.407   2.806 -0.9114 -0.0848 -0.9200
   68MOL0     C 9253   1.306   4.530   2.866 -0.0738  0.0862 -0.2986
   68MOL0     O 9254   1.435   4.583   2.888 -0.5518 -0.1169 -0.7423
   68MOL0     C 9255   1.553   4.507   2.836 -0.5350  0.6212 -0.2134
   68MOL0     C 9256   1.680   4.578   2.879 -0.6488 -0.0974 -0.0921
   68MOL0     C 9257   1.697   4.702   2.801 -0.0998  0.4727  0.0644
   68MOL0     C 9258   1.830   4.777   2.840 -0.1046  0.5874 -0.5076
   68MOL0     C 9259   1.851   4.884   2.733 -0.8081 -0.1346  0.5332
   68MOL0     C 9260   1.963   4.977   2.790 -0.4323  0.2593 -0.4887
   68MOL0     C 9261   2.100   4.904   2.775  0.4358  0.4791  0.9267
   68MOL0     C 9262   2.218   4.991   2.812  0.7000 -1.0736  0.8881
   68MOL0     N 9263   2.344   4.912   2.809 -0.6584  0.7835  0.9126
   68MOL0     C 9264   2.459   4.924   2.725 -0.3556 -0.4150  0.1359
   68MOL0     C 9265   2.551   4.838   2.765  0.5061 -0.0353  0.0614
   68MOL0     C 9266   2.681   4.803   2.713 -0.3681  0.2030  0.7288
   68MOL0     C 9267   2.792   4.869   2.797  1.0254 -0.4634  0.3317
   68MOL0     C 9268   2.926   4.812   2.753 -0.4783 -0.4841  0.5524
   68MOL0     C 9269   2.977   4.682   2.813 -0.3389 -0.8507 -0.5027
   68MOL0     O 9270   3.107   4.647   2.781 -0.5454  0.2281  0.1504
   68MOL0     C 9271   3.147   4.518   2.801  0.3696  0.0109 -1.1338
   68MOL0     C 9272   3.072   4.407   2.852 -0.1178 -0.0576  0.6086
   68MOL0     C 9273   3.130   4.275   2.862  0.0861  0.4500  0.1685
   68MOL0     C 9274   3.038   4.175   2.917 -0.1678  0.5183 -0.0069
   68MOL0     C 9275   3.275   4.263   2.849  0.6229 -0.1544 -0.1252
   68MOL0     C 9276   3.355   4.139   2.880  1.3548 -0.4858 -0.5877
   68MOL0     O 9277   3.489   4.157   2.885  1.0919 -0.6778  0.2453
   68MOL0     C 9278   3.567   4.051   2.863  0.0835 -0.6066 -0.3105
   68MOL0     C 9279   3.599   3.960   2.970  0.6435 -0.3153 -0.0837
   68MOL0     C 9280   3.690   3.861   2.951 -0.4839 -0.1454 -0.4401
   68MOL0     C 9281   3.757   3.844   2.829 -0.1888 -0.2565  0.1354
   68MOL0     O 9282   3.840   3.745   2.799 -0.0998  0.5929  0.1353
   68MOL0     C 9283   3.930   3.688   2.900  0.5633  0.4528 -1.2727
   68MOL0     C 9284   3.907   3.532   2.902 -0.0226 -0.4607  0.5712
   68MOL0     C 9285   3.982   3.470   3.017  0.3367  0.4112 -0.3430
   68MOL0     C 9286   4.128   3.456   2.973  0.1976  0.3289 -0.3635
   68MOL0     C 9287   4.226   3.400   3.077  0.6364 -0.1246 -0.8627
   68MOL0     C 9288   4.263   3.485   3.193  0.2252 -0.1785 -0.3183
   68MOL0     C 9289   4.335   3.416   3.307 -0.0550  0.1007 -0.0616
   68MOL0     C 9290   4.377   3.519   3.412 -0.0754 -0.5471 -0.1709
   68MOL0    Cl 9291   4.235   3.570   3.514  0.4258  0.3073 -0.1057
   68MOL0     C 9292   3.729   3.945   2.723  0.4140  1.0956 -0.4986
   68MOL0     C 9293   3.633   4.046   2.738 -0.0926  0.2802 -0.3227
   68MOL0     O 9294   3.287   4.033   2.895 -0.1988 -0.0582  0.0769
   68MOL0     C 9295   3.343   4.379   2.805  0.9952  0.3858 -0.4231
   68MOL0     C 9296   3.281   4.497   2.768 -0.4574  0.4863 -0.0067
   68MOL0     N 9297   2.494   4.777   2.875 -0.2445 -0.9370  0.3583
   68MOL0     N 9298   2.373   4.818   2.900  0.1230  0.2477  0.0908
   68MOL0     C 9299   1.198   4.616   2.903 -0.2254  0.6200  0.5753
   68MOL0     C 9300   1.065   4.590   2.869 -0.0803  0.5190 -0.0619
   68MOL0     C 9301   0.688   4.395   2.817  0.0051  1.0711 -0.0795
   68MOL0     C 9302   0.605   4.328   2.908  0.1080  0.4787 -0.1716
   68MOL0     C 9303   0.466   4.347   2.916  0.1244  1.1727  1.2545
   68MOL0     C 9304   0.399   4.437   2.828 -0.2103  0.7475  0.2081
   68MOL0     O 9305   0.266   4.454   2.837  0.1664  0.7704 -0.2859
   68MOL0     C 9306   0.215   4.592   2.836  0.2656  0.7926 -0.0562
   68MOL0     C 9307   0.112   4.614   2.946 -0.1326  0.0564 -0.2107
   68MOL0     C 9308   0.152   4.545   3.071 -0.3766 -0.8017 -0.0448
   68MOL0     C 9309   0.057   4.605   3.177  0.4320 -0.1291  0.2865
   68MOL0     C 9310   0.053   4.526   3.306 -0.4390  0.4418  1.2783
   68MOL0     C 9311   0.045   4.469   3.415 -0.7811 -0.0895 -0.4959
   68MOL0     C 9312   0.474   4.507   2.742 -0.1335  0.0099  0.5204
   68MOL0     C 9313   0.611   4.488   2.727 -0.1099  0.5840 -0.5437
   68MOL0     C 9314   0.676   4.568   2.620  0.2653  0.1845  0.4757
   68MOL0     H 9315   1.116   4.291   2.705  1.5638 -1.5417  1.2966
   68MOL0     H 9316   1.356   4.335   2.788 -0.1068 -0.0278  1.8257
   68MOL0     H 9317   1.545   4.493   2.728 -0.2628 -2.7766  0.1045
   68MOL0     H 9318   1.552   4.407   2.879 -0.1004 -0.6525 -2.9770
   68MOL0     H 9319   1.691   4.596   2.987  3.4870 -1.2862 -0.1240
   68MOL0     H 9320   1.761   4.509   2.855 -1.6878 -1.9999  1.5581
   68MOL0     H 9321   1.716   4.676   2.696  0.6158 -0.2833  0.3699
   68MOL0     H 9322   1.615   4.775   2.808 -1.1544 -0.4000 -2.1243
   68MOL0     H 9323   1.800   4.825   2.934 -0.2602 -1.0047  0.2988
   68MOL0     H 9324   1.914   4.709   2.857  0.0518  1.2990  1.9138
   68MOL0     H 9325   1.766   4.949   2.709  0.9521  1.4016 -2.0450
   68MOL0     H 9326   1.875   4.840   2.636 -1.0150 -0.4001  0.6012
   68MOL0     H 9327   1.969   5.073   2.737  4.7718 -0.3851 -1.6236
   68MOL0     H 9328   1.936   4.997   2.894  3.0339 -1.3014  0.8619
   68MOL0     H 9329   2.116   4.876   2.670  1.2892 -0.7824  1.3624
   68MOL0     H 9330   2.109   4.813   2.835 -0.9964 -1.2956 -1.4090
   68MOL0     H 9331   2.231   5.083   2.754  2.6632  0.9750  4.2863
   68MOL0     H 9332   2.201   5.024   2.915  1.5381  2.2499  0.0713
   68MOL0     H 9333   2.465   4.993   2.641 -0.4971 -0.1558  0.3355
   68MOL0     H 9334   2.691   4.842   2.611  0.4104 -0.6377  0.4715
   68MOL0     H 9335   2.695   4.696   2.699  2.1505  0.2390  2.3875
   68MOL0     H 9336   2.785   4.976   2.775  0.2913 -0.6210 -0.2449
   68MOL0     H 9337   2.776   4.843   2.902 -0.8664  0.7765  0.4143
   68MOL0     H 9338   2.920   4.802   2.644  1.4205 -0.6404  0.4301
   68MOL0     H 9339   2.999   4.890   2.772  1.2526 -1.3975 -1.8258
   68MOL0     H 9340   2.968   4.689   2.921  3.9835  1.9707 -0.0835
   68MOL0     H 9341   2.912   4.608   2.765 -0.1216 -1.4733  0.1514
   68MOL0     H 9342   2.970   4.423   2.886  0.2645  3.9254  0.2938
   68MOL0     H 9343   2.949   4.217   2.963 -2.6305 -0.4309 -3.4829
   68MOL0     H 9344   3.088   4.112   2.992  1.4113  0.7153 -0.8427
   68MOL0     H 9345   2.992   4.116   2.837  0.0514 -0.2116  0.3862
   68MOL0     H 9346   3.545   3.974   3.064 -1.6781 -0.3925 -1.3308
   68MOL0     H 9347   3.692   3.778   3.020  2.1235 -2.0814 -2.6523
   68MOL0     H 9348   4.035   3.714   2.881  1.1137 -0.7595 -0.0888
   68MOL0     H 9349   3.911   3.727   3.000  0.0374  0.1659 -1.2557
   68MOL0     H 9350   3.800   3.510   2.917 -0.8556  2.5825 -0.2669
   68MOL0     H 9351   3.932   3.497   2.802  2.4807  0.5375  0.7845
   68MOL0     H 9352   3.937   3.371   3.029  0.0837  0.2716 -2.1948
   68MOL0     H 9353   3.975   3.525   3.111  1.9975  0.5604 -0.2888
   68MOL0     H 9354   4.165   3.555   2.944 -0.1162  0.9920  1.3710
   68MOL0     H 9355   4.134   3.389   2.888  0.8235  0.0484 -0.1036
   68MOL0     H 9356   4.197   3.305   3.123 -1.3108  0.5617 -0.6156
   68MOL0     H 9357   4.320   3.385   3.022  0.1606 -2.4471 -1.1592
   68MOL0     H 9358   4.178   3.545   3.226  1.1801  1.6334 -0.9883
   68MOL0     H 9359   4.327   3.561   3.147 -1.5571  1.5259 -0.1301
   68MOL0     H 9360   4.428   3.371   3.271  0.8104 -0.4751  2.6607
   68MOL0     H 9361   4.280   3.333   3.352 -0.0364 -0.7593 -1.5644
   68MOL0     H 9362   4.427   3.606   3.369  1.4163 -1.3706 -0.1850
   68MOL0     H 9363   4.456   3.491   3.482 -0.8476  1.9438  1.8790
   68MOL0     H 9364   3.798   3.933   2.640 -1.3525  1.4412 -2.0867
   68MOL0     H 9365   3.599   4.121   2.669 -2.2835  0.6434  1.0525
   68MOL0     H 9366   3.450   4.378   2.790  0.9992  1.1978 -0.5138
   68MOL0     H 9367   3.342   4.573   2.719  1.4831 -2.4932 -2.6252
   68MOL0     H 9368   1.232   4.706   2.952  1.9969  0.9207 -1.3072
   68MOL0     H 9369   0.992   4.665   2.896 -0.1289  0.5695 -0.3298
   68MOL0     H 9370   0.646   4.255   2.977  2.0679  0.6980 -1.0202
   68MOL0     H 9371   0.415   4.292   2.994  1.4905 -1.0637  0.6841
   68MOL0     H 9372   0.295   4.666   2.846 -0.9013  1.8458  2.4884
   68MOL0     H 9373   0.165   4.613   2.741 -1.0762  1.8801  0.8567
   68MOL0     H 9374   0.017   4.575   2.910  0.8637 -0.8875 -1.9118
   68MOL0     H 9375   0.102   4.723   2.956 -2.0987  0.1458 -2.3329
   68MOL0     H 9376   0.130   4.438   3.058  0.6323 -0.7671 -2.6726
   68MOL0     H 9377   0.258   4.557   3.095 -0.4533 -1.1599  0.4871
   68MOL0     H 9378  -0.046   4.600   3.141  0.6337 -1.3350 -0.1771
   68MOL0     H 9379   0.067   4.711   3.202 -3.4944  0.3164  0.6007
   68MOL0     H 9380   0.048   4.421   3.510 -0.3789  1.9332  0.5713
   68MOL0     H 9381   0.424   4.578   2.677  0.1304  0.8881  1.2456
   68MOL0     H 9382   0.608   4.632   2.563  0.2037 -1.5912 -1.5446
   68MOL0     H 9383   0.765   4.614   2.665  1.8119 -1.3745 -0.8381
   68MOL0     H 9384   0.711   4.507   2.536 -0.6613 -2.0949  1.6679
   69MOL0     O 9385   7.188   0.346   4.298  0.0264 -0.1321 -0.1084
   69MOL0     C 9386   7.089   0.384   4.239  0.0878  0.1657  0.2999
   69MOL0     O 9387   7.093   0.453   4.113  0.1015 -0.1561  0.3843
   69MOL0     C 9388   7.216   0.507   4.096 -0.3465  0.4626  0.0714
   69MOL0     C 9389   7.318   0.423   4.043 -0.5507  0.7119  0.6326
   69MOL0     C 9390   7.438   0.472   4.004 -0.2333 -0.5425  0.3680
   69MOL0     C 9391   7.466   0.611   4.026 -0.6036 -0.2148 -0.0267
   69MOL0     O 9392   7.584   0.656   3.982 -0.1733  0.2521 -0.6985
   69MOL0     C 9393   7.602   0.789   3.919  0.5223  0.9070 -0.3600
   69MOL0     C 9394   7.670   0.886   4.014 -0.3962 -0.5356  0.4795
   69MOL0     C 9395   7.640   1.026   3.978  0.6838 -0.6647  0.0069
   69MOL0     C 9396   7.721   1.138   4.053 -0.5364 -0.1396 -0.0900
   69MOL0     C 9397   7.672   1.275   4.022  1.3183 -1.1610 -0.3567
   69MOL0     C 9398   7.721   1.386   4.115  1.1794  0.5497 -0.4633
   69MOL0     C 9399   7.640   1.515   4.105  0.6748 -0.9719 -0.2648
   69MOL0     C 9400   7.645   1.564   3.956 -0.4747  0.2183 -0.3473
   69MOL0     N 9401   7.654   1.714   3.959  0.3648  0.0951  0.4487
   69MOL0     C 9402   7.764   1.787   3.990 -0.5633 -0.4961 -0.0602
   69MOL0     C 9403   7.717   1.907   3.998  0.1006 -0.6491 -0.9598
   69MOL0     C 9404   7.806   2.023   4.037 -0.1031 -0.4312 -0.0877
   69MOL0     C 9405   7.806   2.129   3.935  0.4302 -0.3493 -0.2250
   69MOL0     C 9406   7.869   2.261   3.984  0.1504  0.1211 -0.2279
   69MOL0     C 9407   7.999   2.264   4.053  0.2216  0.5931 -0.0746
   69MOL0     O 9408   8.094   2.191   3.976  0.6329 -0.0740  0.1589
   69MOL0     C 9409   8.228   2.208   4.004 -0.1757  0.0734 -0.0185
   69MOL0     C 9410   8.280   2.276   4.118  0.3533 -1.1079 -0.5295
   69MOL0     C 9411   8.416   2.294   4.138  0.1988  0.4041 -0.1307
   69MOL0     C 9412   8.440   2.359   4.266  0.4097  0.6294 -0.5213
   69MOL0     C 9413   8.505   2.242   4.042  0.5487  0.9168 -0.7184
   69MOL0     C 9414   8.651   2.272   4.042  0.0161 -1.2041 -0.2912
   69MOL0     O 9415   8.730   2.175   3.975  0.7515  0.0553 -0.1895
   69MOL0     C 9416   8.865   2.194   3.982 -0.2244  0.7843  0.3359
   69MOL0     C 9417   8.935   2.245   3.870  0.2127 -0.1811 -0.7070
   69MOL0     C 9418   9.075   2.258   3.875  0.4489 -0.0472  0.1389
   69MOL0     C 9419   9.134   2.212   4.000  0.6255 -0.2704  0.3138
   69MOL0     O 9420   9.273   2.209   4.018 -1.3563  0.3670 -0.1880
   69MOL0     C 9421   9.363   2.198   3.900 -0.1120 -0.1372 -0.3839
   69MOL0     C 9422   9.363   2.063   3.836  0.4533 -0.5799 -0.7271
   69MOL0     C 9423   9.417   1.962   3.941 -0.0309 -0.2155 -0.2978
   69MOL0     C 9424   9.576   1.952   3.931  0.0175  0.1904 -0.1506
   69MOL0     C 9425   9.624   1.839   4.022  0.3614 -0.0391  0.0521
   69MOL0     C 9426   9.759   1.792   3.977  0.1918 -0.0477  1.2081
   69MOL0     C 9427   9.826   1.671   4.045 -0.1195  0.2981  0.1190
   69MOL0     C 9428   9.740   1.543   4.053 -0.3480  0.1609 -0.8258
   69MOL0    Cl 9429   9.821   1.423   4.163 -0.4195  0.0892 -0.1963
   69MOL0     C 9430   9.064   2.150   4.100 -0.4720  0.3428 -0.1406
   69MOL0     C 9431   8.931   2.146   4.092  0.0237  0.5179 -0.1636
   69MOL0     O 9432   8.690   2.376   4.095  0.0999  0.0869 -0.3464
   69MOL0     C 9433   8.456   2.163   3.932 -0.3195  0.4422 -0.1811
   69MOL0     C 9434   8.317   2.153   3.908  0.1391  0.2939 -0.9535
   69MOL0     N 9435   7.582   1.911   3.980  0.5116 -0.2426  0.8318
   69MOL0     N 9436   7.543   1.796   3.948  0.2979  0.2851  0.0764
   69MOL0     C 9437   7.370   0.694   4.087 -0.1693  0.0812  0.0782
   69MOL0     C 9438   7.241   0.642   4.111 -0.7078  0.0019  0.0010
   69MOL0     C 9439   6.955   0.359   4.295  0.2010 -0.2357 -0.5432
   69MOL0     C 9440   6.947   0.263   4.407 -1.0175  0.1395  1.0114
   69MOL0     C 9441   6.829   0.241   4.479 -0.9697 -0.2013  0.6234
   69MOL0     C 9442   6.712   0.312   4.451 -0.4329  0.1763  1.2976
   69MOL0     O 9443   6.597   0.261   4.513 -0.0436 -0.1586  0.0252
   69MOL0     C 9444   6.462   0.305   4.475  0.6622  0.2842 -1.3491
   69MOL0     C 9445   6.410   0.448   4.516 -0.0053 -0.1817  0.7990
   69MOL0     C 9446   6.390   0.469   4.669 -0.4441  1.0151 -0.0495
   69MOL0     C 9447   6.379   0.617   4.705 -0.1014  0.2467  0.2521
   69MOL0     C 9448   6.247   0.677   4.664 -0.5866 -1.1232  0.6832
   69MOL0     C 9449   6.145   0.737   4.626 -0.3268 -0.3996 -0.1251
   69MOL0     C 9450   6.715   0.405   4.342 -0.3467  0.8954  0.4973
   69MOL0     C 9451   6.841   0.434   4.271 -0.1052  0.2587  0.0146
   69MOL0     C 9452   6.832   0.547   4.163 -0.2849 -0.4632 -0.3844
   69MOL0     H 9453   7.294   0.318   4.031 -0.0094  0.4342  1.8812
   69MOL0     H 9454   7.512   0.414   3.950  2.8734  2.2939  1.2193
   69MOL0     H 9455   7.503   0.830   3.896 -0.2751 -0.4654  0.4919
   69MOL0     H 9456   7.655   0.774   3.824  0.2344 -1.4173 -0.2196
   69MOL0     H 9457   7.648   0.865   4.119  3.2566  0.9241  1.7174
   69MOL0     H 9458   7.777   0.870   4.029 -0.8704 -1.2674  4.2708
   69MOL0     H 9459   7.655   1.029   3.870 -0.1779  1.1126 -0.1017
   69MOL0     H 9460   7.537   1.043   4.010  0.7391  0.8954 -0.6056
   69MOL0     H 9461   7.718   1.122   4.162  0.3698 -2.8863 -0.3880
   69MOL0     H 9462   7.827   1.132   4.025 -0.3366 -0.8603  0.7672
   69MOL0     H 9463   7.562   1.276   4.017  1.2364  1.7701  0.3283
   69MOL0     H 9464   7.700   1.287   3.917  0.1219  0.9767 -0.4942
   69MOL0     H 9465   7.706   1.350   4.217 -0.9984  0.8574 -0.6373
   69MOL0     H 9466   7.828   1.407   4.099  1.4312  1.0891  1.6290
   69MOL0     H 9467   7.677   1.587   4.178  1.2394 -1.2294 -0.2933
   69MOL0     H 9468   7.536   1.492   4.129  0.6035 -2.3131 -1.6632
   69MOL0     H 9469   7.735   1.521   3.911 -0.9261  2.2774 -3.5463
   69MOL0     H 9470   7.552   1.525   3.913 -1.6196  1.6997  0.6696
   69MOL0     H 9471   7.865   1.761   4.020  0.4893  1.3231 -1.8177
   69MOL0     H 9472   7.908   1.988   4.054  1.9819  4.0775 -1.6538
   69MOL0     H 9473   7.756   2.057   4.128 -2.8209 -1.9773 -0.9034
   69MOL0     H 9474   7.868   2.103   3.849 -0.0171  0.5285 -0.8231
   69MOL0     H 9475   7.703   2.151   3.905 -0.6808  0.6298  3.7136
   69MOL0     H 9476   7.885   2.328   3.899 -0.2874  0.5178 -0.0033
   69MOL0     H 9477   7.793   2.312   4.043 -0.4452 -0.0103 -0.8656
   69MOL0     H 9478   8.023   2.370   4.070  0.3100  0.6416 -0.4982
   69MOL0     H 9479   7.981   2.214   4.149  2.2598  0.8500  0.4897
   69MOL0     H 9480   8.215   2.320   4.193  1.1350 -1.1282  0.1797
   69MOL0     H 9481   8.416   2.293   4.350 -0.2071  1.4227 -0.0588
   69MOL0     H 9482   8.377   2.447   4.282  2.8054  2.3614  0.0084
   69MOL0     H 9483   8.545   2.388   4.281  0.2825  2.3548 -2.4595
   69MOL0     H 9484   8.872   2.286   3.792 -3.8421 -2.2024  1.2053
   69MOL0     H 9485   9.135   2.302   3.795  0.2407  2.8085  1.4252
   69MOL0     H 9486   9.336   2.274   3.826 -2.6370  1.6370  2.1295
   69MOL0     H 9487   9.458   2.226   3.946  0.4168 -1.9783 -0.2977
   69MOL0     H 9488   9.271   2.024   3.794  1.0524 -3.6651  0.5539
   69MOL0     H 9489   9.430   2.071   3.750  1.4261  2.7680  0.1812
   69MOL0     H 9490   9.363   1.868   3.925 -1.1581  0.4142 -0.2435
   69MOL0     H 9491   9.397   1.993   4.044  3.0631 -0.5310  0.5233
   69MOL0     H 9492   9.628   2.041   3.967  1.7732 -0.8059 -0.0871
   69MOL0     H 9493   9.612   1.943   3.828  3.1154  1.1741  0.7398
   69MOL0     H 9494   9.625   1.872   4.127 -0.9817 -0.4469  0.2111
   69MOL0     H 9495   9.555   1.754   4.025  0.3250 -0.1499 -2.3359
   69MOL0     H 9496   9.827   1.875   3.996 -1.4111  1.4728  0.5253
   69MOL0     H 9497   9.751   1.769   3.870  2.5860 -0.4057  1.0495
   69MOL0     H 9498   9.851   1.702   4.147  1.4766 -2.5872  0.7187
   69MOL0     H 9499   9.923   1.646   4.000  0.1656 -1.7252  1.7045
   69MOL0     H 9500   9.720   1.497   3.955  1.3192 -1.3244 -0.5251
   69MOL0     H 9501   9.642   1.557   4.100  1.4754  0.6460  3.1303
   69MOL0     H 9502   9.117   2.104   4.183  0.3074  3.8891  1.5622
   69MOL0     H 9503   8.880   2.095   4.174  0.0380  0.0270 -0.4592
   69MOL0     H 9504   8.517   2.114   3.857 -2.1112  0.9047 -2.0295
   69MOL0     H 9505   8.284   2.104   3.817  1.3199  0.0245 -1.2525
   69MOL0     H 9506   7.380   0.802   4.088  1.3842 -0.0056 -1.2471
   69MOL0     H 9507   7.158   0.697   4.154 -1.5563 -1.3961  0.2100
   69MOL0     H 9508   7.032   0.215   4.454 -2.4516 -2.5025  1.0665
   69MOL0     H 9509   6.827   0.171   4.562  0.4734 -0.4562  0.4702
   69MOL0     H 9510   6.446   0.296   4.367 -2.2797  2.3278 -1.1821
   69MOL0     H 9511   6.395   0.231   4.518 -0.0516  1.6731  0.0223
   69MOL0     H 9512   6.315   0.472   4.468  0.7237  0.4286 -0.3898
   69MOL0     H 9513   6.470   0.524   4.465  0.1395 -0.9076 -0.1543
   69MOL0     H 9514   6.304   0.415   4.708  1.4870 -2.3105 -0.0417
   69MOL0     H 9515   6.480   0.435   4.721 -0.0863  0.5684 -0.9314
   69MOL0     H 9516   6.464   0.668   4.659  0.1066  2.4896  2.8932
   69MOL0     H 9517   6.404   0.635   4.810 -2.0101 -0.1388  0.8124
   69MOL0     H 9518   6.073   0.804   4.584 -0.2582  0.2608  0.7866
   69MOL0     H 9519   6.624   0.459   4.319 -1.9818 -1.1086  1.9887
   69MOL0     H 9520   6.876   0.536   4.064 -0.0446  1.1779 -0.4756
   69MOL0     H 9521   6.728   0.579   4.155  0.2653  1.5075 -0.1217
   69MOL0     H 9522   6.867   0.638   4.213 -0.0562 -1.4733  1.4059
   70MOL0     O 9523   2.019   8.539   3.599  0.2437  0.3218 -0.1801
   70MOL0     C 9524   1.928   8.568   3.528  0.7199 -0.4752  0.1921
   70MOL0     O 9525   1.808   8.501   3.518 -0.7352  0.0198 -0.4934
   70MOL0     C 9526   1.821   8.369   3.546 -0.4834 -0.2122 -0.1759
   70MOL0     C 9527   1.776   8.312   3.667 -0.5373 -0.8790 -0.1471
   70MOL0     C 9528   1.808   8.184   3.705 -0.8437  0.4325  0.3920
   70MOL0     C 9529   1.887   8.101   3.623  0.5923  0.4838  0.4091
   70MOL0     O 9530   1.932   7.979   3.646 -0.5875  0.3161 -0.8480
   70MOL0     C 9531   1.910   7.915   3.774 -0.4340 -0.4449 -0.4142
   70MOL0     C 9532   1.977   7.786   3.785  0.4320  0.3468 -0.5174
   70MOL0     C 9533   2.134   7.798   3.797 -0.3829  0.2113  0.6019
   70MOL0     C 9534   2.176   7.841   3.940 -0.4040  0.1726  0.2762
   70MOL0     C 9535   2.326   7.833   3.971 -0.0226 -0.2208  0.3533
   70MOL0     C 9536   2.391   7.705   3.919  0.8062  0.2164  0.1220
   70MOL0     C 9537   2.535   7.682   3.960  0.1445 -0.5227  0.0934
   70MOL0     C 9538   2.568   7.539   3.906 -0.3636  0.6777  0.2601
   70MOL0     N 9539   2.723   7.525   3.920 -0.6038 -0.1988  0.5432
   70MOL0     C 9540   2.778   7.518   4.038 -0.4544  0.1932 -0.1950
   70MOL0     C 9541   2.911   7.534   4.009 -0.0703  0.8909  0.8453
   70MOL0     C 9542   3.037   7.530   4.099  0.2208 -0.1471  0.2925
   70MOL0     C 9543   3.087   7.381   4.117 -0.6950  0.0063 -1.1388
   70MOL0     C 9544   3.140   7.335   3.975  0.1673  0.3470 -0.3140
   70MOL0     C 9545   3.258   7.242   3.999  0.0617  0.0683  0.4059
   70MOL0     O 9546   3.376   7.316   4.043 -0.1689  0.2013 -0.8905
   70MOL0     C 9547   3.496   7.285   3.976  0.5858  0.4548  0.8512
   70MOL0     C 9548   3.517   7.153   3.929 -0.1465  0.0128 -0.0512
   70MOL0     C 9549   3.638   7.108   3.868 -0.0283 -0.0722 -0.7239
   70MOL0     C 9550   3.666   6.963   3.863  0.5731 -0.1083 -0.3800
   70MOL0     C 9551   3.741   7.209   3.858 -0.1648  0.7056  0.5666
   70MOL0     C 9552   3.875   7.177   3.796 -0.5695 -0.3680 -0.7833
   70MOL0     O 9553   3.972   7.277   3.810 -0.0249 -0.4455 -0.9851
   70MOL0     C 9554   4.101   7.268   3.764  0.3005 -0.3363 -0.4214
   70MOL0     C 9555   4.185   7.178   3.825  0.0672  0.0650 -0.7760
   70MOL0     C 9556   4.319   7.165   3.785 -0.3206 -0.7616  0.6111
   70MOL0     C 9557   4.379   7.250   3.685 -0.5943  1.3329 -0.3753
   70MOL0     O 9558   4.516   7.226   3.664  0.2119 -0.3879  0.0494
   70MOL0     C 9559   4.595   7.312   3.571  0.8967  0.1009 -1.1863
   70MOL0     C 9560   4.630   7.462   3.626 -0.5862  0.3880  0.8470
   70MOL0     C 9561   4.755   7.455   3.712 -0.6752  0.8055 -0.2127
   70MOL0     C 9562   4.892   7.441   3.639 -0.0268 -0.0111  0.4715
   70MOL0     C 9563   4.923   7.552   3.544 -0.5270 -0.0211 -0.8495
   70MOL0     C 9564   5.067   7.531   3.488  0.0433 -0.9678  0.3067
   70MOL0     C 9565   5.167   7.606   3.582 -0.6881 -0.0061 -0.1911
   70MOL0     C 9566   5.293   7.632   3.496 -0.2723 -0.6400 -0.4045
   70MOL0    Cl 9567   5.412   7.706   3.614  0.3307  0.0041 -0.2456
   70MOL0     C 9568   4.294   7.338   3.621 -0.4272  0.1835 -0.8022
   70MOL0     C 9569   4.153   7.351   3.662 -0.7535  0.4139 -0.1852
   70MOL0     O 9570   3.891   7.072   3.732  0.6143 -0.5198  0.9609
   70MOL0     C 9571   3.715   7.339   3.905  0.4311 -0.5112  0.0875
   70MOL0     C 9572   3.595   7.374   3.957  0.8216 -0.1765  0.2444
   70MOL0     N 9573   2.933   7.561   3.879  0.5710 -0.7518  0.0053
   70MOL0     N 9574   2.816   7.555   3.821 -0.8987 -0.1033 -0.5920
   70MOL0     C 9575   1.936   8.154   3.500  0.5506 -0.4377 -0.1220
   70MOL0     C 9576   1.910   8.292   3.462  0.4658  0.7191 -0.2863
   70MOL0     C 9577   1.937   8.695   3.456  0.1242 -0.7716 -0.1857
   70MOL0     C 9578   2.019   8.797   3.515  0.0602  0.8538  0.5271
   70MOL0     C 9579   2.028   8.923   3.467 -1.1011 -0.0511 -0.2689
   70MOL0     C 9580   1.960   8.964   3.361  0.3835 -0.0765  0.3627
   70MOL0     O 9581   1.955   9.093   3.310  0.2778  0.3213 -0.4631
   70MOL0     C 9582   2.086   9.148   3.289 -0.2111 -0.2348  0.0788
   70MOL0     C 9583   2.126   9.242   3.404  1.0435 -0.2876  0.2366
   70MOL0     C 9584   2.279   9.253   3.419 -0.6510 -0.2559 -0.3727
   70MOL0     C 9585   2.358   9.143   3.496  0.1641  0.2614 -0.6294
   70MOL0     C 9586   2.495   9.181   3.552  0.9856 -0.1219  0.1580
   70MOL0     C 9587   2.602   9.214   3.592 -0.2231  0.3051 -0.6909
   70MOL0     C 9588   1.888   8.866   3.287 -0.1049  0.3532 -1.2798
   70MOL0     C 9589   1.869   8.731   3.335  0.2179 -0.3418 -0.7453
   70MOL0     C 9590   1.766   8.638   3.272  0.8462  0.4252  0.2857
   70MOL0     H 9591   1.738   8.373   3.749  0.5190 -1.3753  0.7332
   70MOL0     H 9592   1.779   8.150   3.805  0.3597  2.6498  1.5576
   70MOL0     H 9593   1.804   7.891   3.783 -0.4068  0.1594  2.2903
   70MOL0     H 9594   1.934   7.974   3.863  1.1296 -3.0768  1.0274
   70MOL0     H 9595   1.946   7.747   3.883 -0.1297  1.2465 -0.3253
   70MOL0     H 9596   1.939   7.719   3.707 -2.4228  0.3702  0.7393
   70MOL0     H 9597   2.166   7.698   3.768  0.5171  1.0712 -1.5844
   70MOL0     H 9598   2.172   7.866   3.721  0.9000  1.0046  1.9056
   70MOL0     H 9599   2.135   7.939   3.962 -1.1803 -0.1821  0.4470
   70MOL0     H 9600   2.136   7.766   4.009  0.1893 -0.0535  0.3817
   70MOL0     H 9601   2.350   7.848   4.077 -0.2007 -2.1360  0.6929
   70MOL0     H 9602   2.363   7.919   3.915 -3.5697  2.0892  1.1874
   70MOL0     H 9603   2.333   7.622   3.960  2.2813 -0.4889  0.8617
   70MOL0     H 9604   2.378   7.699   3.810  0.1328  0.9677  0.1509
   70MOL0     H 9605   2.554   7.688   4.068  0.3960  1.6267 -0.0135
   70MOL0     H 9606   2.604   7.758   3.923  1.4441 -0.5952  2.1691
   70MOL0     H 9607   2.514   7.466   3.967  0.0662  1.7376  1.9450
   70MOL0     H 9608   2.545   7.538   3.799 -1.2905  0.4017  0.4474
   70MOL0     H 9609   2.718   7.494   4.124 -1.2685 -0.7376 -1.0022
   70MOL0     H 9610   3.019   7.570   4.199  0.5755  0.6826  0.0322
   70MOL0     H 9611   3.110   7.588   4.042 -0.3407  0.2004 -0.0848
   70MOL0     H 9612   3.166   7.382   4.192 -1.8182  1.0868  0.0909
   70MOL0     H 9613   3.008   7.317   4.157 -1.3617  1.7773  0.5565
   70MOL0     H 9614   3.064   7.284   3.916 -0.9501  0.9247  0.5909
   70MOL0     H 9615   3.172   7.423   3.918  0.7825  0.1610 -0.2585
   70MOL0     H 9616   3.234   7.173   4.080  0.9158 -1.2094 -0.3978
   70MOL0     H 9617   3.268   7.181   3.909 -1.5116  2.2655 -1.3735
   70MOL0     H 9618   3.437   7.080   3.939 -0.6087  0.5681  0.3037
   70MOL0     H 9619   3.764   6.937   3.903  0.3993 -0.3987 -0.1433
   70MOL0     H 9620   3.650   6.922   3.763  1.8833 -2.2949  0.2338
   70MOL0     H 9621   3.603   6.921   3.942  2.5646 -0.1775  1.2563
   70MOL0     H 9622   4.139   7.111   3.897  0.3665 -1.2398 -1.7631
   70MOL0     H 9623   4.381   7.090   3.831  2.4432  1.2247  0.3932
   70MOL0     H 9624   4.693   7.266   3.557  2.3033  0.7840  4.1450
   70MOL0     H 9625   4.532   7.325   3.483 -0.0561  0.1071 -0.5231
   70MOL0     H 9626   4.647   7.525   3.538 -2.5145 -1.1549 -0.7202
   70MOL0     H 9627   4.541   7.504   3.674 -1.5353  0.1288 -0.6153
   70MOL0     H 9628   4.741   7.379   3.790  2.0091 -1.0354 -1.3746
   70MOL0     H 9629   4.769   7.552   3.762  0.2901  1.4595 -1.6649
   70MOL0     H 9630   4.885   7.349   3.582 -1.2654  1.0284 -1.1371
   70MOL0     H 9631   4.968   7.434   3.717 -0.8273 -0.3777  1.2460
   70MOL0     H 9632   4.858   7.551   3.455  1.2054  0.2383 -2.1773
   70MOL0     H 9633   4.928   7.649   3.595  0.6886  0.7323 -2.3077
   70MOL0     H 9634   5.065   7.556   3.382 -2.7669 -2.9865 -0.2218
   70MOL0     H 9635   5.092   7.425   3.482 -1.6135 -1.4021  0.7067
   70MOL0     H 9636   5.186   7.541   3.668 -1.1826 -1.7481 -1.3373
   70MOL0     H 9637   5.141   7.704   3.623 -0.6443 -0.3858  0.7562
   70MOL0     H 9638   5.274   7.703   3.415 -0.4816 -1.7093 -1.3219
   70MOL0     H 9639   5.345   7.542   3.462  1.0013  0.6964 -2.2242
   70MOL0     H 9640   4.332   7.387   3.532  1.1500 -0.4550 -0.5210
   70MOL0     H 9641   4.088   7.420   3.609  0.6692 -0.5410 -3.4369
   70MOL0     H 9642   3.789   7.415   3.885  0.4877 -0.5208  0.2610
   70MOL0     H 9643   3.590   7.470   4.007  2.6975  0.8145 -1.3472
   70MOL0     H 9644   1.999   8.097   3.434  0.6482  1.0477 -1.3607
   70MOL0     H 9645   1.946   8.328   3.366  1.0997  0.1888 -0.2502
   70MOL0     H 9646   2.075   8.773   3.605 -0.5792  1.2566  1.0336
   70MOL0     H 9647   2.101   8.984   3.519  0.7933  0.7639 -3.5640
   70MOL0     H 9648   2.160   9.068   3.277  2.4419  1.7922  1.8279
   70MOL0     H 9649   2.082   9.201   3.193 -0.7515  0.5814  0.5399
   70MOL0     H 9650   2.072   9.216   3.495  0.7611  4.1279  1.5835
   70MOL0     H 9651   2.072   9.337   3.391 -2.7141 -2.3506 -0.6811
   70MOL0     H 9652   2.333   9.274   3.326  1.7522 -2.0893  0.4949
   70MOL0     H 9653   2.298   9.342   3.479  0.9385 -0.9945  0.2737
   70MOL0     H 9654   2.369   9.065   3.419 -0.5845  1.0314 -1.5426
   70MOL0     H 9655   2.287   9.122   3.577  0.3126  1.2329 -0.2348
   70MOL0     H 9656   2.695   9.227   3.643 -0.4602  0.0399 -0.1775
   70MOL0     H 9657   1.836   8.904   3.200  1.6666  0.9299 -2.1368
   70MOL0     H 9658   1.732   8.684   3.179  1.8079  1.5658  0.4764
   70MOL0     H 9659   1.808   8.540   3.249 -2.0439 -0.5727 -1.3123
   70MOL0     H 9660   1.672   8.628   3.328  0.0195 -1.0339 -1.2607
   71MOL0     O 9661   8.296   1.105  11.155  0.7765 -0.1018  1.2832
   71MOL0     C 9662   8.344   0.997  11.111  0.3178 -0.7761 -0.2597
   71MOL0     O 9663   8.444   0.997  11.017 -0.5249  0.4443  0.6718
   71MOL0     C 9664   8.493   1.101  10.951  0.5879 -0.5556  0.6236
   71MOL0     C 9665   8.425   1.218  10.911  0.1853  0.1868  0.4188
   71MOL0     C 9666   8.496   1.315  10.832 -0.5212  0.3078 -0.7884
   71MOL0     C 9667   8.630   1.296  10.785  0.3948 -0.1345  0.6557
   71MOL0     O 9668   8.682   1.393  10.712  0.3930 -0.1894  0.0533
   71MOL0     C 9669   8.820   1.387  10.669  0.3542  0.4903 -0.0220
   71MOL0     C 9670   8.905   1.458  10.777 -1.0393 -0.8974 -0.7392
   71MOL0     C 9671   9.043   1.510  10.727 -0.9583 -0.0033  0.5133
   71MOL0     C 9672   9.135   1.397  10.675 -1.1219  0.2682 -0.2948
   71MOL0     C 9673   9.271   1.465  10.628 -0.2418  0.2779 -0.0315
   71MOL0     C 9674   9.364   1.481  10.746 -0.5293 -0.6661 -0.4419
   71MOL0     C 9675   9.480   1.574  10.708 -0.2313 -0.2792 -0.1076
   71MOL0     C 9676   9.577   1.615  10.814 -0.9778 -0.2203 -1.1793
   71MOL0     N 9677   9.667   1.725  10.773 -0.4195  0.0776  0.8347
   71MOL0     C 9678   9.764   1.717  10.677  0.4231  0.3929  0.0956
   71MOL0     C 9679   9.830   1.829  10.685 -0.1923 -0.1414  0.2373
   71MOL0     C 9680   9.961   1.866  10.606  0.2176 -1.0570  0.1791
   71MOL0     C 9681  10.084   1.840  10.687  0.0797  0.8140 -0.3958
   71MOL0     C 9682  10.201   1.907  10.627  0.0984 -0.4927  0.8487
   71MOL0     C 9683  10.331   1.886  10.702 -0.0269 -1.4996  1.4516
   71MOL0     O 9684  10.407   2.011  10.722 -0.3385 -0.9893  0.3755
   71MOL0     C 9685  10.538   1.988  10.757  0.5656 -0.7982  1.0761
   71MOL0     C 9686  10.630   2.087  10.725 -0.1364 -0.2792  0.7438
   71MOL0     C 9687  10.770   2.087  10.766 -0.6617  0.0374  0.3184
   71MOL0     C 9688  10.854   2.205  10.713  1.2814 -0.4544 -0.8570
   71MOL0     C 9689  10.817   1.969  10.828 -0.2632 -0.0438  0.1543
   71MOL0     C 9690  10.946   1.940  10.882 -0.1418  0.4553  0.2819
   71MOL0     O 9691  10.982   1.806  10.903  0.0366  0.3806 -0.2986
   71MOL0     C 9692  11.117   1.778  10.900 -0.0835 -0.3519  0.1782
   71MOL0     C 9693  11.198   1.786  11.010 -0.3003 -0.6354 -0.7035
   71MOL0     C 9694  11.326   1.743  11.001  0.4067  0.2000  0.7429
   71MOL0     C 9695  11.386   1.693  10.887  0.6039  0.4545 -0.9782
   71MOL0     O 9696  11.516   1.640  10.884 -0.2148  0.4270 -0.4689
   71MOL0     C 9697  11.528   1.523  10.970  0.3421 -1.1240  0.1774
   71MOL0     C 9698  11.675   1.477  10.982  0.2100 -0.6074  0.1863
   71MOL0     C 9699  11.766   1.596  11.016  0.7638 -0.9147 -1.3011
   71MOL0     C 9700  11.909   1.537  10.992 -0.7849 -0.5742 -0.5848
   71MOL0     C 9701  12.019   1.648  11.007  0.4341  0.4998  0.1051
   71MOL0     C 9702  12.160   1.628  10.967 -0.3595  0.4412  0.1707
   71MOL0     C 9703  12.220   1.495  11.029 -0.5024 -0.3504 -0.7434
   71MOL0     C 9704  12.378   1.493  11.033  0.3110  0.2857  0.4766
   71MOL0    Cl 9705  12.421   1.344  11.124 -0.1046 -0.0320  0.1728
   71MOL0     C 9706  11.312   1.695  10.772  0.0207  0.4295  0.6464
   71MOL0     C 9707  11.174   1.735  10.775  0.1562  0.2390 -0.0372
   71MOL0     O 9708  11.016   2.032  10.912  0.1585 -0.0256 -0.3578
   71MOL0     C 9709  10.719   1.870  10.867 -0.2269 -0.1274 -0.2006
   71MOL0     C 9710  10.589   1.878  10.825  0.1557 -0.3218 -0.4784
   71MOL0     N 9711   9.794   1.896  10.796  0.2885  0.1444 -0.1556
   71MOL0     N 9712   9.693   1.830  10.851  0.1580  0.7999 -0.5744
   71MOL0     C 9713   8.691   1.178  10.827 -0.6066 -0.3303 -0.2661
   71MOL0     C 9714   8.629   1.089  10.908  0.0477  0.9767 -0.1584
   71MOL0     C 9715   8.291   0.866  11.154 -0.1371 -0.1155  0.0457
   71MOL0     C 9716   8.349   0.749  11.105 -0.0147  0.5804 -0.3657
   71MOL0     C 9717   8.306   0.624  11.141 -0.1878  0.0971  0.1896
   71MOL0     C 9718   8.210   0.599  11.234 -0.2563 -0.4433  0.0680
   71MOL0     O 9719   8.168   0.476  11.280 -0.0599  0.1438  1.0625
   71MOL0     C 9720   8.134   0.373  11.182  0.1221  0.9848  0.9701
   71MOL0     C 9721   8.041   0.273  11.230  0.0647 -1.1680 -0.1941
   71MOL0     C 9722   7.898   0.328  11.262 -0.1988 -0.0660  0.0642
   71MOL0     C 9723   7.806   0.199  11.258 -0.2634 -1.1630  0.6156
   71MOL0     C 9724   7.661   0.246  11.252 -0.2673 -0.6438 -0.3936
   71MOL0     C 9725   7.549   0.279  11.262 -0.3177 -0.2587 -0.0450
   71MOL0     C 9726   8.148   0.716  11.287 -0.3082  0.1053  0.3978
   71MOL0     C 9727   8.193   0.848  11.253 -0.6503  0.6505  0.5376
   71MOL0     C 9728   8.114   0.959  11.313  0.0349  0.4391  0.4256
   71MOL0     H 9729   8.325   1.239  10.949  0.1288  0.8108 -0.0577
   71MOL0     H 9730   8.437   1.398  10.793  0.5822  1.3428 -0.3104
   71MOL0     H 9731   8.820   1.438  10.572 -0.8938 -1.3991 -1.0810
   71MOL0     H 9732   8.850   1.283  10.649  1.3624  0.6514  0.5670
   71MOL0     H 9733   8.853   1.546  10.816 -1.7804 -1.6117 -0.0585
   71MOL0     H 9734   8.902   1.382  10.856 -0.8670 -0.8936 -0.7286
   71MOL0     H 9735   9.033   1.585  10.648 -1.7006 -0.5824  0.0464
   71MOL0     H 9736   9.092   1.561  10.811 -0.7291  2.8390 -1.2017
   71MOL0     H 9737   9.159   1.314  10.742 -1.0017  1.2299  0.8782
   71MOL0     H 9738   9.088   1.341  10.593 -0.9622 -1.2743  0.6407
   71MOL0     H 9739   9.247   1.559  10.578 -2.5404 -0.8411 -1.1814
   71MOL0     H 9740   9.311   1.399  10.550 -0.1591 -0.3224  0.5110
   71MOL0     H 9741   9.304   1.531  10.822  0.4464 -2.0767  1.3280
   71MOL0     H 9742   9.401   1.388  10.789  0.8176  0.2952  0.5658
   71MOL0     H 9743   9.440   1.667  10.665  2.2957  0.1185 -1.8680
   71MOL0     H 9744   9.533   1.522  10.627  0.1118 -1.7817  1.0547
   71MOL0     H 9745   9.523   1.652  10.902  0.6233 -1.1073  0.2435
   71MOL0     H 9746   9.635   1.533  10.857  0.0649  0.7231 -0.7314
   71MOL0     H 9747   9.785   1.635  10.610  2.6904  0.9408  0.0460
   71MOL0     H 9748   9.943   1.971  10.582 -0.8150 -1.4038 -0.6047
   71MOL0     H 9749   9.963   1.814  10.510 -0.3717 -0.6823 -0.0410
   71MOL0     H 9750  10.070   1.880  10.788  0.1424  0.9339 -0.4332
   71MOL0     H 9751  10.098   1.732  10.695 -1.9822  0.4019 -1.5402
   71MOL0     H 9752  10.211   1.889  10.520  2.0935 -1.8576  1.2067
   71MOL0     H 9753  10.174   2.012  10.639 -1.1810 -0.2192 -3.1940
   71MOL0     H 9754  10.309   1.838  10.798 -0.9282 -1.3491  1.3300
   71MOL0     H 9755  10.389   1.823  10.634  0.2160 -0.0840  0.3149
   71MOL0     H 9756  10.588   2.162  10.660 -1.7565 -0.8185  1.1185
   71MOL0     H 9757  10.917   2.234  10.797  2.3444 -0.0694 -1.7537
   71MOL0     H 9758  10.801   2.299  10.697  2.5909  1.3626  3.8596
   71MOL0     H 9759  10.920   2.187  10.627 -0.2977 -1.3452 -1.9328
   71MOL0     H 9760  11.170   1.834  11.104  0.1705 -1.4618 -0.1266
   71MOL0     H 9761  11.386   1.749  11.092  0.5242  1.2672  0.5989
   71MOL0     H 9762  11.503   1.553  11.072  1.2418  4.2600 -0.8656
   71MOL0     H 9763  11.466   1.444  10.928 -2.5429  2.2575 -2.5103
   71MOL0     H 9764  11.673   1.399  11.059 -2.1757  0.5481  1.4280
   71MOL0     H 9765  11.703   1.426  10.890 -0.4802  1.3711 -1.1902
   71MOL0     H 9766  11.748   1.628  11.119 -1.8415 -2.6330 -1.1313
   71MOL0     H 9767  11.757   1.686  10.955  3.3103 -0.0624 -0.5597
   71MOL0     H 9768  11.923   1.510  10.887  0.2473 -2.3019 -0.0449
   71MOL0     H 9769  11.926   1.454  11.062  0.1559 -0.6345 -0.8641
   71MOL0     H 9770  11.980   1.744  10.971  2.3833  2.4127  2.6761
   71MOL0     H 9771  12.032   1.669  11.114  0.3177 -0.8108  0.3964
   71MOL0     H 9772  12.214   1.719  10.995 -0.5716  0.2090  1.3893
   71MOL0     H 9773  12.164   1.613  10.859 -0.7710 -1.6391  0.3962
   71MOL0     H 9774  12.175   1.411  10.976 -3.2339  0.1260  0.6324
   71MOL0     H 9775  12.182   1.489  11.131  1.9798 -0.8710  0.2123
   71MOL0     H 9776  12.413   1.585  11.079  1.0929  1.4227 -2.2316
   71MOL0     H 9777  12.419   1.484  10.932 -1.8469  1.4092 -0.5761
   71MOL0     H 9778  11.349   1.663  10.675 -1.9926  0.0947 -0.0631
   71MOL0     H 9779  11.116   1.722  10.684  1.5468  0.4276 -0.9897
   71MOL0     H 9780  10.744   1.781  10.924 -1.0419 -1.1563 -1.3884
   71MOL0     H 9781  10.529   1.795  10.862  2.3288 -2.5335 -1.6291
   71MOL0     H 9782   8.793   1.149  10.803 -0.9289  0.0264 -2.2482
   71MOL0     H 9783   8.689   1.008  10.948 -0.4324  0.6052 -0.1830
   71MOL0     H 9784   8.421   0.754  11.024  1.2246 -0.7118  0.6031
   71MOL0     H 9785   8.355   0.539  11.096  0.0188 -0.5746  1.6048
   71MOL0     H 9786   8.088   0.417  11.094  0.7586  0.6456  0.4568
   71MOL0     H 9787   8.231   0.329  11.155 -0.6229 -0.8032  1.1032
   71MOL0     H 9788   8.079   0.223  11.320 -3.1735  2.7098  3.7658
   71MOL0     H 9789   8.033   0.196  11.153  0.0513 -2.1014  0.7181
   71MOL0     H 9790   7.902   0.372  11.362  0.2963  1.1651 -0.4817
   71MOL0     H 9791   7.873   0.390  11.176  0.5343 -2.6857 -2.2040
   71MOL0     H 9792   7.807   0.155  11.358 -0.8900  1.1690  1.7062
   71MOL0     H 9793   7.837   0.131  11.178  0.4472 -0.0351 -0.1010
   71MOL0     H 9794   7.448   0.313  11.272  0.3420  2.1339 -0.9318
   71MOL0     H 9795   8.067   0.706  11.358 -1.2902  0.8161 -0.5844
   71MOL0     H 9796   8.025   0.923  11.365  0.7469 -1.0883  0.6567
   71MOL0     H 9797   8.174   1.014  11.385  0.4588 -1.1911  1.3722
   71MOL0     H 9798   8.064   1.024  11.241 -1.5304  0.9930  1.9605
   72MOL0     O 9799   1.537   5.344   6.221  0.1284  0.1818 -0.0175
   72MOL0     C 9800   1.508   5.235   6.275  0.2114  1.2686 -0.2173
   72MOL0     O 9801   1.598   5.139   6.323  0.6813 -0.3951 -0.4148
   72MOL0     C 9802   1.736   5.167   6.348 -0.5347  0.0278 -0.1177
   72MOL0     C 9803   1.806   5.068   6.412  0.7587  0.0028  0.1014
   72MOL0     C 9804   1.941   5.078   6.444 -0.6889  0.4300 -0.3928
   72MOL0     C 9805   2.016   5.185   6.397  0.6486  0.3811 -0.1426
   72MOL0     O 9806   2.152   5.199   6.423  0.0803 -0.1662 -1.0413
   72MOL0     C 9807   2.232   5.295   6.355 -0.9189  0.3744 -0.1630
   72MOL0     C 9808   2.378   5.276   6.401 -0.6876 -0.8327 -0.8940
   72MOL0     C 9809   2.475   5.356   6.306 -0.3386 -0.2338  0.8173
   72MOL0     C 9810   2.616   5.304   6.326  0.3959  0.0331 -0.5985
   72MOL0     C 9811   2.713   5.385   6.239 -0.0788  0.4199 -0.4545
   72MOL0     C 9812   2.850   5.307   6.241  0.6756 -0.8311 -0.7362
   72MOL0     C 9813   2.947   5.372   6.147 -0.0224  0.1886 -0.4882
   72MOL0     C 9814   3.073   5.286   6.157  0.2901  0.0416 -0.1797
   72MOL0     N 9815   3.189   5.328   6.075  0.2125 -0.1302  0.0694
   72MOL0     C 9816   3.304   5.257   6.063 -0.6502  0.2370  0.2033
   72MOL0     C 9817   3.398   5.347   6.010 -0.1774  0.4841 -0.0060
   72MOL0     C 9818   3.526   5.296   5.944 -0.2003 -0.3661 -0.0794
   72MOL0     C 9819   3.641   5.348   6.028 -0.5873 -0.2196 -0.6430
   72MOL0     C 9820   3.776   5.310   5.975  0.7002  0.2247 -0.7118
   72MOL0     C 9821   3.889   5.384   6.036  0.7733  0.0305 -0.4461
   72MOL0     O 9822   4.011   5.307   6.061  0.2839 -0.7637  0.0151
   72MOL0     C 9823   4.131   5.363   6.095  0.1889  0.4961  0.7638
   72MOL0     C 9824   4.146   5.498   6.114 -0.1370 -0.1493 -0.0316
   72MOL0     C 9825   4.270   5.558   6.152  0.8138  0.2174  0.6883
   72MOL0     C 9826   4.266   5.712   6.165 -1.0080 -0.2553 -0.6986
   72MOL0     C 9827   4.381   5.472   6.153  0.1994 -0.6466  0.5118
   72MOL0     C 9828   4.518   5.521   6.194  0.8260 -0.2011  0.0306
   72MOL0     O 9829   4.600   5.423   6.230 -0.5489  0.7769 -0.2265
   72MOL0     C 9830   4.732   5.439   6.208 -0.4421 -0.8955 -0.2051
   72MOL0     C 9831   4.803   5.414   6.085 -0.2572  0.1578  0.1795
   72MOL0     C 9832   4.935   5.446   6.067  0.0931  0.5371  0.2125
   72MOL0     C 9833   5.010   5.502   6.175 -1.3478  0.6126  0.1761
   72MOL0     O 9834   5.146   5.515   6.157  0.1246 -0.8701 -0.2090
   72MOL0     C 9835   5.226   5.521   6.281 -0.5494 -0.3662  0.3175
   72MOL0     C 9836   5.374   5.501   6.253 -0.4967  0.5975 -0.3327
   72MOL0     C 9837   5.460   5.528   6.380 -0.0998 -0.1698  0.3940
   72MOL0     C 9838   5.609   5.536   6.332  0.6281 -0.7545  0.3653
   72MOL0     C 9839   5.715   5.567   6.444  1.1103 -0.2030 -0.0356
   72MOL0     C 9840   5.850   5.545   6.388 -0.2923  0.8407  0.0697
   72MOL0     C 9841   5.951   5.575   6.501  0.1711 -0.9512 -0.0478
   72MOL0     C 9842   5.983   5.731   6.514  0.4089 -0.3075 -1.0422
   72MOL0    Cl 9843   6.021   5.762   6.680  0.3764  0.1523  0.3431
   72MOL0     C 9844   4.944   5.521   6.294  0.6297 -0.5164 -0.0325
   72MOL0     C 9845   4.806   5.489   6.318  0.8370  0.6408 -0.4499
   72MOL0     O 9846   4.548   5.638   6.168  0.1754 -0.5391  0.8004
   72MOL0     C 9847   4.362   5.335   6.140  1.0739 -0.4901  0.5565
   72MOL0     C 9848   4.234   5.284   6.109 -0.6760 -0.6517 -0.4695
   72MOL0     N 9849   3.340   5.471   6.004 -0.1273 -0.2323 -0.0975
   72MOL0     N 9850   3.216   5.465   6.052 -0.6320 -0.0880 -1.2262
   72MOL0     C 9851   1.946   5.282   6.331 -0.3643  0.1915  0.5265
   72MOL0     C 9852   1.806   5.283   6.308  0.4627  0.2332  0.3957
   72MOL0     C 9853   1.367   5.198   6.281  0.5873 -0.7881  0.4916
   72MOL0     C 9854   1.336   5.062   6.293 -0.4156  0.1030  0.0314
   72MOL0     C 9855   1.209   5.013   6.296  1.5473  0.3662 -0.2177
   72MOL0     C 9856   1.097   5.101   6.278 -0.2542  0.2758  0.1337
   72MOL0     O 9857   0.964   5.067   6.292 -0.6793  0.3223 -0.4001
   72MOL0     C 9858   0.928   4.932   6.257 -0.0464  0.2335 -0.0206
   72MOL0     C 9859   0.800   4.929   6.176 -0.4106  0.5737 -0.7193
   72MOL0     C 9860   0.824   4.992   6.045  0.9737 -0.2848  0.2092
   72MOL0     C 9861   0.718   4.945   5.947  0.6484  0.3053  1.0569
   72MOL0     C 9862   0.713   5.035   5.825 -0.5100  0.6178 -0.0866
   72MOL0     C 9863   0.696   5.105   5.728 -0.2438 -0.4304  0.3083
   72MOL0     C 9864   1.126   5.233   6.260 -0.0458 -0.9056 -0.4284
   72MOL0     C 9865   1.252   5.288   6.264 -0.0759 -0.9910 -1.0644
   72MOL0     C 9866   1.256   5.439   6.255  0.6107 -0.2629  0.1396
   72MOL0     H 9867   1.755   4.978   6.442  0.3602  0.7598  1.7991
   72MOL0     H 9868   1.998   5.008   6.506 -0.2184  0.7163 -0.4992
   72MOL0     H 9869   2.194   5.395   6.379 -0.1567  0.6345 -0.0304
   72MOL0     H 9870   2.231   5.276   6.247 -4.3546 -0.8219 -0.0563
   72MOL0     H 9871   2.380   5.322   6.500 -0.4910 -0.4061 -1.0896
   72MOL0     H 9872   2.402   5.171   6.414 -0.7287 -0.8961 -1.3120
   72MOL0     H 9873   2.444   5.331   6.204  0.7543 -1.6897  0.8067
   72MOL0     H 9874   2.459   5.461   6.332 -0.8106 -0.2142  0.4574
   72MOL0     H 9875   2.650   5.292   6.429 -1.4680  0.5432  0.1174
   72MOL0     H 9876   2.614   5.200   6.292 -0.2636 -0.1604  0.0037
   72MOL0     H 9877   2.711   5.489   6.276 -2.2232 -0.4765  2.2650
   72MOL0     H 9878   2.678   5.400   6.137 -1.1541  1.2374  0.0195
   72MOL0     H 9879   2.884   5.321   6.344  3.9164  1.9928 -1.9696
   72MOL0     H 9880   2.840   5.204   6.206  0.0077 -1.3228  0.8224
   72MOL0     H 9881   2.976   5.472   6.181 -0.0021 -0.3278  1.1068
   72MOL0     H 9882   2.907   5.379   6.046 -0.3449  3.1943 -0.2501
   72MOL0     H 9883   3.104   5.283   6.262 -0.0737  1.2798 -0.0193
   72MOL0     H 9884   3.044   5.184   6.129 -2.3770  1.5277 -3.5058
   72MOL0     H 9885   3.329   5.153   6.080 -0.0006  0.4517  0.6054
   72MOL0     H 9886   3.537   5.336   5.843  4.3940 -0.1255  0.3270
   72MOL0     H 9887   3.531   5.187   5.946  0.9816 -0.3228 -0.0052
   72MOL0     H 9888   3.632   5.457   6.031 -0.0985 -0.1857  2.4511
   72MOL0     H 9889   3.651   5.308   6.129  1.0202 -0.7447 -0.9719
   72MOL0     H 9890   3.800   5.204   5.990 -0.3859  0.1579  0.8282
   72MOL0     H 9891   3.774   5.321   5.866  0.0815 -1.2120 -0.8736
   72MOL0     H 9892   3.917   5.454   5.956  0.5349  2.6020  1.5886
   72MOL0     H 9893   3.857   5.433   6.128 -0.2408 -2.1843  0.4270
   72MOL0     H 9894   4.064   5.569   6.114  1.4855  1.8547  1.3102
   72MOL0     H 9895   4.162   5.743   6.177 -0.6535  1.4627 -1.6769
   72MOL0     H 9896   4.315   5.770   6.086  3.3527  1.2223  2.6200
   72MOL0     H 9897   4.326   5.736   6.254  1.5637  1.1406 -2.6843
   72MOL0     H 9898   4.742   5.380   6.003 -1.1954 -2.8010  1.9541
   72MOL0     H 9899   4.984   5.437   5.971 -0.8423  4.1336 -0.7739
   72MOL0     H 9900   5.211   5.622   6.319 -1.4452 -0.9616  1.6347
   72MOL0     H 9901   5.207   5.455   6.367  1.1604 -0.7686  0.4203
   72MOL0     H 9902   5.397   5.404   6.207  1.4021  1.0831 -0.4919
   72MOL0     H 9903   5.405   5.574   6.177  0.8520  0.5893  0.1885
   72MOL0     H 9904   5.460   5.460   6.466  0.6275 -2.2820 -1.1852
   72MOL0     H 9905   5.435   5.627   6.419 -2.1407 -0.3652 -0.3075
   72MOL0     H 9906   5.610   5.612   6.253 -3.6344 -0.0759  0.7350
   72MOL0     H 9907   5.616   5.438   6.283 -0.7497  0.0846 -1.6838
   72MOL0     H 9908   5.702   5.668   6.484  2.5274  0.0275 -0.1032
   72MOL0     H 9909   5.712   5.489   6.520  1.9303 -0.9616 -0.7587
   72MOL0     H 9910   5.863   5.609   6.301 -0.3953 -0.7884 -1.1910
   72MOL0     H 9911   5.853   5.442   6.353  0.4865  1.5464 -2.0925
   72MOL0     H 9912   6.039   5.512   6.480  0.1376 -0.5241 -1.5168
   72MOL0     H 9913   5.910   5.542   6.597 -0.5196  0.1696  0.0458
   72MOL0     H 9914   5.888   5.784   6.507  0.5260 -0.1971 -2.0094
   72MOL0     H 9915   6.051   5.777   6.441  1.4231  2.8076  1.6385
   72MOL0     H 9916   4.991   5.572   6.378  0.0202  2.7092 -1.5121
   72MOL0     H 9917   4.752   5.511   6.410  0.8891 -0.0583 -0.2444
   72MOL0     H 9918   4.441   5.262   6.154  0.3949 -1.6549 -1.3633
   72MOL0     H 9919   4.225   5.177   6.092  2.7266 -1.4128  1.5930
   72MOL0     H 9920   2.002   5.363   6.286  1.6537  0.4141  3.1827
   72MOL0     H 9921   1.761   5.362   6.248  0.3990  0.2475  0.4623
   72MOL0     H 9922   1.409   4.984   6.310 -0.4095  0.8431  4.7965
   72MOL0     H 9923   1.187   4.914   6.336  1.7467  1.0567  1.7012
   72MOL0     H 9924   1.012   4.872   6.219  0.3234  0.4160  0.5050
   72MOL0     H 9925   0.901   4.882   6.351  1.9627  3.2623  2.3681
   72MOL0     H 9926   0.716   4.969   6.234 -0.1274 -0.1671  0.2184
   72MOL0     H 9927   0.784   4.821   6.166  0.4663  0.4817 -1.1988
   72MOL0     H 9928   0.818   5.100   6.062  3.0658 -0.4462  2.5324
   72MOL0     H 9929   0.927   4.988   6.010  2.2747  6.9469  1.7570
   72MOL0     H 9930   0.621   4.953   5.996  1.0900  0.8502  1.8878
   72MOL0     H 9931   0.739   4.841   5.923  0.4780  0.8509 -1.8391
   72MOL0     H 9932   0.694   5.169   5.642  0.6435 -0.7327  0.0562
   72MOL0     H 9933   1.038   5.295   6.246 -0.6439 -1.4874  0.6501
   72MOL0     H 9934   1.190   5.487   6.182  0.4160  0.9960  1.1041
   72MOL0     H 9935   1.221   5.492   6.345 -1.6234 -0.5836 -0.4808
   72MOL0     H 9936   1.357   5.481   6.248  0.5055 -0.2555 -1.5838
   73MOL0     O 9937  11.369   5.515   0.166  0.2587  0.0647  0.3363
   73MOL0     C 9938  11.369   5.401   0.125 -0.6642  0.9744 -0.4335
   73MOL0     O 9939  11.479   5.328   0.084 -0.2789  0.7575 -0.2769
   73MOL0     C 9940  11.603   5.362   0.116 -0.2352  0.3320 -0.1131
   73MOL0     C 9941  11.690   5.362   0.011  0.3583  0.2795 -0.0597
   73MOL0     C 9942  11.821   5.413   0.035  0.6606 -0.2199 -0.1719
   73MOL0     C 9943  11.868   5.451   0.165 -0.5799  0.4993  0.4831
   73MOL0     O 9944  11.995   5.494   0.188 -0.3391 -0.3752  1.0826
   73MOL0     C 9945  12.099   5.501   0.089  0.7408  0.1204 -0.4737
   73MOL0     C 9946  12.223   5.551   0.163  0.0738  0.6817 -0.6109
   73MOL0     C 9947  12.300   5.448   0.256  0.3904 -0.9176 -0.4560
   73MOL0     C 9948  12.417   5.511   0.330  0.2411  0.4568 -1.0508
   73MOL0     C 9949  12.490   5.404   0.418 -0.3579 -0.1665 -0.1650
   73MOL0     C 9950  12.603   5.469   0.502  0.5258 -0.6493  0.5877
   73MOL0     C 9951  12.543   5.554   0.624 -0.1233 -0.6825 -1.3502
   73MOL0     C 9952  12.660   5.618   0.687 -0.6902  0.1366  0.1820
   73MOL0     N 9953  12.637   5.675   0.826  0.2023  0.1231  0.3488
   73MOL0     C 9954  12.627   5.812   0.847  0.4479 -0.5629 -0.0244
   73MOL0     C 9955  12.656   5.838   0.977  0.2892 -0.0665 -0.5201
   73MOL0     C 9956  12.647   5.970   1.040  0.1773  0.1763  0.3673
   73MOL0     C 9957  12.763   6.067   1.009  0.4131  0.1894 -0.1885
   73MOL0     C 9958  12.903   6.004   1.014 -0.0603  0.2004  0.2602
   73MOL0     C 9959  12.956   5.956   1.157  0.8111  0.0306 -0.8260
   73MOL0     O 9960  13.087   5.896   1.149 -0.2258  0.2912 -0.4445
   73MOL0     C 9961  13.179   5.897   1.247 -0.7035  0.9641 -0.2366
   73MOL0     C 9962  13.162   5.935   1.380 -0.5429 -0.2107  0.4778
   73MOL0     C 9963  13.275   5.941   1.465  0.0292 -0.1341 -0.2749
   73MOL0     C 9964  13.237   5.993   1.601 -0.0916 -0.6408 -0.1478
   73MOL0     C 9965  13.398   5.890   1.419 -0.5795  1.5374 -0.7313
   73MOL0     C 9966  13.531   5.867   1.495  0.3701  0.1908 -0.2936
   73MOL0     O 9967  13.636   5.843   1.426  0.0070  0.1727  0.3853
   73MOL0     C 9968  13.752   5.794   1.486  0.7189 -0.8596 -0.4132
   73MOL0     C 9969  13.813   5.686   1.436  0.4428 -1.1113  0.4550
   73MOL0     C 9970  13.935   5.635   1.484  0.1442 -0.0155  1.2088
   73MOL0     C 9971  14.004   5.704   1.586 -0.5417 -0.6954  0.0722
   73MOL0     O 9972  14.124   5.667   1.645  0.1179  0.0458  0.0502
   73MOL0     C 9973  14.170   5.532   1.622  0.2361  0.1535  0.2731
   73MOL0     C 9974  14.322   5.521   1.643  0.0160  0.5116 -0.7944
   73MOL0     C 9975  14.393   5.622   1.551  0.4602 -0.1642  0.0284
   73MOL0     C 9976  14.537   5.631   1.591  0.4422 -0.0293 -0.0835
   73MOL0     C 9977  14.592   5.765   1.521 -0.2582 -0.7201 -0.5045
   73MOL0     C 9978  14.737   5.770   1.549  0.1946  0.3931 -0.2261
   73MOL0     C 9979  14.797   5.889   1.481 -0.3564  0.7467  0.4107
   73MOL0     C 9980  14.951   5.875   1.452 -0.4647  0.4662 -0.5198
   73MOL0    Cl 9981  14.999   5.759   1.332  0.5260 -0.0469 -0.3366
   73MOL0     C 9982  13.944   5.814   1.651  0.5008  0.2297  0.4618
   73MOL0     C 9983  13.813   5.853   1.602 -0.2100 -0.6645 -0.7053
   73MOL0     O 9984  13.523   5.865   1.619  0.0639  0.0645 -0.5064
   73MOL0     C 9985  13.408   5.841   1.290  0.0846  0.1204  1.3037
   73MOL0     C 9986  13.304   5.846   1.204  0.6582  1.3180 -0.5218
   73MOL0     N 9987  12.679   5.722   1.041  0.9201  0.9444 -0.5530
   73MOL0     N 9988  12.665   5.625   0.954 -0.1819 -0.8006 -0.0822
   73MOL0     C 9989  11.775   5.431   0.269  0.5389 -0.3291 -0.5538
   73MOL0     C 9990  11.645   5.383   0.249  0.3538  0.2863  0.0755
   73MOL0     C 9991  11.238   5.333   0.099 -0.5172  0.2677 -0.2270
   73MOL0     C 9992  11.239   5.204   0.044  0.2859 -0.1064 -0.6208
   73MOL0     C 9993  11.124   5.146   0.001 -0.1947 -0.6406  0.0267
   73MOL0     C 9994  11.002   5.210   0.004  0.6482 -0.1679  0.4765
   73MOL0     O 9995  10.896   5.147  -0.055  0.7123 -0.3509  0.0975
   73MOL0     C 9996  10.770   5.217  -0.057 -0.0832  0.2371  0.0440
   73MOL0     C 9997  10.657   5.132  -0.111  0.1871  1.1711  0.2871
   73MOL0     C 9998  10.686   5.044  -0.229 -0.3581 -0.4761  0.1480
   73MOL0     C 9999  10.684   5.103  -0.376  0.1686 -0.3158  0.0390
   73MOL0     C10000  10.799   5.186  -0.393 -0.7052  0.7580  0.1418
   73MOL0     C10001  10.884   5.273  -0.407 -0.2846  1.1904  0.3811
   73MOL0     C10002  10.993   5.328   0.077 -0.0395  0.1346  1.0151
   73MOL0     C10003  11.111   5.392   0.129  0.6708  1.0619  1.0777
   73MOL0     C10004  11.089   5.515   0.218 -0.6409  0.5153  0.2504
   73MOL0     H10005  11.655   5.333  -0.087  0.5616 -0.5377  0.1038
   73MOL0     H10006  11.884   5.418  -0.053  0.6615 -0.2179 -0.1712
   73MOL0     H10007  12.074   5.572   0.009  1.2504 -1.7773 -2.3841
   73MOL0     H10008  12.124   5.400   0.056 -0.3095 -0.5435  0.6661
   73MOL0     H10009  12.296   5.588   0.091  1.8791 -2.6210 -0.6654
   73MOL0     H10010  12.199   5.640   0.221 -0.7174  1.0457 -1.4678
   73MOL0     H10011  12.226   5.404   0.324 -1.1399 -0.2082 -1.5941
   73MOL0     H10012  12.339   5.370   0.190 -0.9304 -0.3525 -1.9899
   73MOL0     H10013  12.489   5.561   0.265  0.7911  0.4252 -0.4749
   73MOL0     H10014  12.379   5.585   0.401 -0.6107 -2.4704  1.7672
   73MOL0     H10015  12.537   5.326   0.358  1.0612 -0.6520  1.5156
   73MOL0     H10016  12.424   5.351   0.486 -1.4648  1.5291  0.1564
   73MOL0     H10017  12.661   5.388   0.547  0.0905 -2.4760 -1.9478
   73MOL0     H10018  12.654   5.538   0.435 -2.6697  2.6967  1.2316
   73MOL0     H10019  12.483   5.498   0.696 -0.2167 -0.0937 -0.9594
   73MOL0     H10020  12.475   5.632   0.587 -2.3086 -2.4102 -1.1491
   73MOL0     H10021  12.729   5.533   0.693  0.2474  0.8008 -0.8390
   73MOL0     H10022  12.708   5.697   0.629 -2.3077  3.3822  2.9416
   73MOL0     H10023  12.613   5.896   0.780  1.3519 -2.4527 -2.7445
   73MOL0     H10024  12.638   5.961   1.148  2.3032 -1.8542  0.4496
   73MOL0     H10025  12.558   6.012   0.991  1.6712  1.5690 -1.3167
   73MOL0     H10026  12.756   6.112   0.909 -2.0060  0.0214 -0.1442
   73MOL0     H10027  12.750   6.148   1.081 -1.5336  3.5280 -3.8954
   73MOL0     H10028  12.918   5.913   0.955  0.4378 -1.3734  2.6365
   73MOL0     H10029  12.979   6.070   0.973  1.5030 -1.5098  0.2832
   73MOL0     H10030  12.938   6.038   1.227  0.6260  0.4157 -1.3175
   73MOL0     H10031  12.885   5.889   1.207  1.8971  1.1912  2.5413
   73MOL0     H10032  13.069   5.974   1.420 -0.4252 -2.4345  3.2730
   73MOL0     H10033  13.160   6.069   1.586 -0.8554 -0.8102  2.4965
   73MOL0     H10034  13.320   6.043   1.651  0.6675  0.0408 -1.9972
   73MOL0     H10035  13.182   5.919   1.660  0.1156 -1.0383 -0.4507
   73MOL0     H10036  13.768   5.640   1.348  1.3505 -0.3294 -0.4456
   73MOL0     H10037  13.977   5.553   1.425  3.5015  2.8249 -0.7380
   73MOL0     H10038  14.123   5.460   1.689 -1.3654  0.2329 -0.7194
   73MOL0     H10039  14.161   5.498   1.518  2.4244  0.0457  0.0790
   73MOL0     H10040  14.343   5.546   1.747 -0.2539  2.7570 -1.2309
   73MOL0     H10041  14.350   5.416   1.626 -0.1808  0.2643  0.2983
   73MOL0     H10042  14.346   5.718   1.576  0.3480 -0.4934  1.0899
   73MOL0     H10043  14.381   5.603   1.444 -0.4579 -0.0436  0.0960
   73MOL0     H10044  14.589   5.543   1.551  1.3876  0.2018  0.6080
   73MOL0     H10045  14.558   5.638   1.698 -0.9470  2.5069  0.0775
   73MOL0     H10046  14.562   5.769   1.416  1.1849  0.4118 -0.9207
   73MOL0     H10047  14.548   5.852   1.571  1.4039  1.3052 -2.3674
   73MOL0     H10048  14.775   5.674   1.513  0.5365  0.5107 -0.1887
   73MOL0     H10049  14.759   5.772   1.656  0.1390  1.5023 -0.2258
   73MOL0     H10050  14.788   5.967   1.558  1.9809  0.1441  1.3965
   73MOL0     H10051  14.749   5.907   1.385  1.5465 -0.0685 -0.7458
   73MOL0     H10052  15.007   5.849   1.543 -0.6252 -0.0157 -0.5583
   73MOL0     H10053  14.994   5.966   1.409  2.4504 -0.8087 -0.5012
   73MOL0     H10054  13.993   5.872   1.728  1.9541  1.5618 -1.3602
   73MOL0     H10055  13.778   5.936   1.662  3.6606  1.4741 -1.0734
   73MOL0     H10056  13.494   5.803   1.235 -0.0372 -1.1564  1.9588
   73MOL0     H10057  13.309   5.807   1.102  1.2350 -2.3503  0.7706
   73MOL0     H10058  11.802   5.465   0.369 -1.4406  1.1101 -0.4598
   73MOL0     H10059  11.578   5.358   0.331 -0.9258 -2.2863 -1.6092
   73MOL0     H10060  11.330   5.151   0.017 -0.1744 -0.4955 -1.4230
   73MOL0     H10061  11.139   5.050  -0.046 -0.7692 -1.7807  2.0496
   73MOL0     H10062  10.736   5.262   0.037 -0.2785 -0.8754  0.5240
   73MOL0     H10063  10.785   5.299  -0.127  1.8067  0.7020  0.9471
   73MOL0     H10064  10.571   5.196  -0.134  0.3913  2.0295  1.7306
   73MOL0     H10065  10.617   5.082  -0.022 -1.8967  4.4179  1.3654
   73MOL0     H10066  10.783   4.995  -0.222 -0.3455 -0.8839 -1.9520
   73MOL0     H10067  10.607   4.968  -0.237 -2.6261  1.7096  0.3594
   73MOL0     H10068  10.600   5.172  -0.389 -0.5464 -1.2423 -0.3631
   73MOL0     H10069  10.696   5.020  -0.446  3.3439  0.1587 -0.0940
   73MOL0     H10070  10.953   5.354  -0.416  0.8136  0.4341  1.6249
   73MOL0     H10071  10.900   5.382   0.094 -0.7042 -0.4809 -0.4881
   73MOL0     H10072  11.125   5.604   0.164  2.0926 -1.3332 -1.2624
   73MOL0     H10073  10.984   5.518   0.247 -0.6911 -2.2344  0.5773
   73MOL0     H10074  11.135   5.512   0.317  1.6485  2.4422 -0.6218
   74MOL0     O10075   3.880   0.768   4.337  0.5233  0.5402  0.3219
   74MOL0     C10076   3.873   0.647   4.371 -0.1774  0.4345  1.0643
   74MOL0     O10077   3.977   0.580   4.431 -0.0808 -0.0707 -0.1751
   74MOL0     C10078   4.082   0.653   4.484  0.4208 -0.5191 -0.7154
   74MOL0     C10079   4.096   0.668   4.623 -0.7617  0.6205  0.2404
   74MOL0     C10080   4.215   0.718   4.676  0.4684  0.7872  0.0527
   74MOL0     C10081   4.321   0.749   4.587  0.0122  0.7027 -0.3183
   74MOL0     O10082   4.436   0.809   4.629  0.3733 -0.2731  0.0226
   74MOL0     C10083   4.468   0.802   4.767 -0.3700 -0.6266  0.6704
   74MOL0     C10084   4.610   0.867   4.804  0.3360  1.0597  0.9088
   74MOL0     C10085   4.623   1.029   4.795 -0.3945 -0.5672  0.4435
   74MOL0     C10086   4.755   1.072   4.737 -0.3127 -0.1120  0.4149
   74MOL0     C10087   4.796   1.211   4.743 -1.0363 -0.2069  0.5393
   74MOL0     C10088   4.923   1.230   4.660  0.7403 -0.1028  0.3546
   74MOL0     C10089   4.894   1.269   4.512 -0.1266 -0.4018  0.5042
   74MOL0     C10090   5.014   1.234   4.422  0.1521  0.3649  0.1909
   74MOL0     N10091   5.133   1.310   4.467 -0.1258  0.0591 -0.4491
   74MOL0     C10092   5.133   1.448   4.475 -0.1265 -0.0734  0.4069
   74MOL0     C10093   5.263   1.473   4.503 -0.0934  1.0056 -0.5629
   74MOL0     C10094   5.326   1.606   4.491 -0.8283  0.2080  0.2068
   74MOL0     C10095   5.477   1.603   4.444  1.1026 -0.0553 -0.6702
   74MOL0     C10096   5.488   1.608   4.285 -0.3159  0.4903 -1.3367
   74MOL0     C10097   5.633   1.615   4.245 -0.1171 -0.5380  1.3448
   74MOL0     O10098   5.657   1.707   4.136 -0.2494  0.2887 -0.0439
   74MOL0     C10099   5.791   1.714   4.094 -0.0017 -0.3405 -1.0933
   74MOL0     C10100   5.814   1.780   3.980 -0.6262 -1.3689  0.1992
   74MOL0     C10101   5.944   1.783   3.921  1.1153  0.5181  0.2861
   74MOL0     C10102   5.955   1.868   3.800 -0.2688  0.2325  0.3220
   74MOL0     C10103   6.058   1.713   3.989  0.8561 -0.2091 -0.0044
   74MOL0     C10104   6.199   1.713   3.930  0.0202  0.3959 -0.8669
   74MOL0     O10105   6.231   1.788   3.825 -0.3984 -0.2415 -0.9839
   74MOL0     C10106   6.365   1.793   3.791  0.4764 -1.1918 -0.7363
   74MOL0     C10107   6.423   1.718   3.689  0.6437 -0.0625 -0.0186
   74MOL0     C10108   6.561   1.712   3.660 -0.1997  0.3735  0.6131
   74MOL0     C10109   6.640   1.785   3.741 -0.8418 -0.7377  0.3554
   74MOL0     O10110   6.777   1.793   3.731  0.2232  0.0701 -0.3690
   74MOL0     C10111   6.832   1.811   3.600  0.5661  0.6004  0.4216
   74MOL0     C10112   6.982   1.849   3.615 -0.1699  0.4934  0.2132
   74MOL0     C10113   7.009   1.978   3.681 -0.3143  0.6899 -0.9356
   74MOL0     C10114   7.146   2.008   3.733  0.1048  0.9359  0.2970
   74MOL0     C10115   7.151   2.127   3.820 -0.6012 -0.4397 -0.0655
   74MOL0     C10116   7.290   2.142   3.882 -0.1677 -0.0949  0.2445
   74MOL0     C10117   7.298   2.255   3.979  0.2192 -0.0493  0.2423
   74MOL0     C10118   7.441   2.271   4.040 -0.7701  0.5271  0.4529
   74MOL0    Cl10119   7.436   2.400   4.169  0.0346  0.0166 -0.1104
   74MOL0     C10120   6.590   1.864   3.842 -0.6912  0.2015  0.0192
   74MOL0     C10121   6.451   1.865   3.869  0.0398 -0.3655 -0.4903
   74MOL0     O10122   6.279   1.639   3.987 -0.0174 -0.2035  0.0977
   74MOL0     C10123   6.033   1.649   4.112 -0.4034 -0.3396 -0.9976
   74MOL0     C10124   5.901   1.649   4.166 -0.4223 -0.6305 -0.0250
   74MOL0     N10125   5.329   1.350   4.519 -0.1297  0.4242 -0.2351
   74MOL0     N10126   5.240   1.251   4.515 -0.4699  0.3746 -0.0945
   74MOL0     C10127   4.302   0.736   4.445 -0.0785 -0.1593 -0.0860
   74MOL0     C10128   4.186   0.677   4.400 -0.0248 -0.5602 -0.2967
   74MOL0     C10129   3.750   0.576   4.357  0.0424  0.4996 -0.0920
   74MOL0     C10130   3.743   0.461   4.436 -0.2918  0.5753 -0.1126
   74MOL0     C10131   3.629   0.380   4.449  0.9232 -0.2885  0.3106
   74MOL0     C10132   3.520   0.406   4.372  0.0474 -0.7296 -0.3759
   74MOL0     O10133   3.405   0.330   4.368  0.1630  0.7426  0.2834
   74MOL0     C10134   3.312   0.336   4.474 -0.0937 -1.2304  0.7954
   74MOL0     C10135   3.173   0.336   4.414  0.6672 -0.4743  0.3955
   74MOL0     C10136   3.070   0.341   4.528  0.1862  0.4792  0.2979
   74MOL0     C10137   2.922   0.362   4.480 -0.2581 -0.2438  0.5179
   74MOL0     C10138   2.831   0.348   4.602  0.5868  0.4362 -0.5714
   74MOL0     C10139   2.749   0.320   4.694 -0.9845  0.3715  0.0613
   74MOL0     C10140   3.521   0.521   4.286  0.0287 -0.0322 -0.8797
   74MOL0     C10141   3.632   0.609   4.283 -0.1833 -0.5606 -0.1412
   74MOL0     C10142   3.621   0.718   4.182 -0.2836  0.2080 -0.2408
   74MOL0     H10143   4.004   0.641   4.674 -2.2307  2.4608 -1.2533
   74MOL0     H10144   4.206   0.736   4.782 -0.3761 -1.3128  0.4064
   74MOL0     H10145   4.459   0.701   4.808  2.0932 -0.6812  1.2118
   74MOL0     H10146   4.397   0.862   4.824 -0.6478  0.2925 -0.5801
   74MOL0     H10147   4.617   0.837   4.909 -1.2144  0.3477  0.8230
   74MOL0     H10148   4.696   0.814   4.763 -1.5119 -1.0336 -0.4777
   74MOL0     H10149   4.537   1.069   4.742 -0.2024 -0.5297  0.1612
   74MOL0     H10150   4.618   1.052   4.902 -1.3536 -2.9903  1.0073
   74MOL0     H10151   4.840   1.025   4.786 -0.4180  0.9646  1.6638
   74MOL0     H10152   4.771   1.036   4.635  2.3474 -1.0438  1.1040
   74MOL0     H10153   4.820   1.237   4.847  1.4791 -0.9430  0.2056
   74MOL0     H10154   4.715   1.275   4.707  0.2148  1.2569  0.2650
   74MOL0     H10155   4.987   1.306   4.707  1.0834 -0.0093 -0.2542
   74MOL0     H10156   4.987   1.142   4.650  1.1581  0.1786  0.5265
   74MOL0     H10157   4.880   1.378   4.508  6.0921  0.8223  0.9757
   74MOL0     H10158   4.806   1.216   4.475  0.3652 -1.1696  0.4244
   74MOL0     H10159   5.030   1.127   4.410 -0.2617  0.3117  0.0945
   74MOL0     H10160   4.982   1.267   4.323  1.2149 -1.5514 -0.8263
   74MOL0     H10161   5.052   1.521   4.468  2.3129  2.7929 -0.4137
   74MOL0     H10162   5.348   1.644   4.591  0.7518 -3.0738  1.2349
   74MOL0     H10163   5.277   1.677   4.423 -2.8553 -0.8634  0.4573
   74MOL0     H10164   5.519   1.697   4.481  0.4797  0.9073 -2.2894
   74MOL0     H10165   5.526   1.518   4.492  3.7432  2.2594  1.0177
   74MOL0     H10166   5.433   1.518   4.254 -2.6709  1.5650 -0.5273
   74MOL0     H10167   5.435   1.699   4.255 -0.1323  1.1412  0.2004
   74MOL0     H10168   5.692   1.641   4.333  1.5239 -1.2835  0.5088
   74MOL0     H10169   5.675   1.523   4.205  0.3125 -0.4986  1.7018
   74MOL0     H10170   5.730   1.841   3.948 -0.6763 -0.0072  2.7053
   74MOL0     H10171   5.996   1.963   3.837 -0.2088 -1.2678  4.7708
   74MOL0     H10172   5.860   1.890   3.751  0.9573  2.1816 -1.3414
   74MOL0     H10173   6.027   1.817   3.735 -0.8037  0.3972 -0.4088
   74MOL0     H10174   6.354   1.651   3.639  2.7111 -3.0615  0.8188
   74MOL0     H10175   6.603   1.639   3.591  1.5355 -0.9904  2.9855
   74MOL0     H10176   6.833   1.720   3.540  0.1420  0.9659 -0.1428
   74MOL0     H10177   6.789   1.897   3.549  0.2192 -0.0769 -0.4547
   74MOL0     H10178   7.038   1.779   3.678 -0.9187 -0.0289  0.3109
   74MOL0     H10179   7.022   1.839   3.514 -0.7352 -0.0614  0.0382
   74MOL0     H10180   6.939   1.998   3.763  1.0477  2.2695 -0.1107
   74MOL0     H10181   6.977   2.054   3.608 -0.8876  0.0147 -1.3960
   74MOL0     H10182   7.216   2.020   3.650 -0.4765 -2.5377 -0.8528
   74MOL0     H10183   7.176   1.916   3.785  0.6537  1.6983  1.3792
   74MOL0     H10184   7.137   2.217   3.759 -1.9766 -1.7749 -1.8344
   74MOL0     H10185   7.066   2.125   3.888 -0.2975  0.4443  0.3624
   74MOL0     H10186   7.353   2.165   3.796 -2.3637  0.5202 -1.2803
   74MOL0     H10187   7.326   2.052   3.932  1.0133  1.2555  1.9919
   74MOL0     H10188   7.224   2.242   4.058 -0.7030  3.2039  0.0618
   74MOL0     H10189   7.291   2.358   3.941  1.8775  0.3297  0.8521
   74MOL0     H10190   7.512   2.301   3.962 -1.0403 -0.3913 -0.1731
   74MOL0     H10191   7.479   2.175   4.076  2.3752  2.1271  1.7061
   74MOL0     H10192   6.658   1.917   3.907 -2.8117 -0.9820  3.4864
   74MOL0     H10193   6.417   1.920   3.956  2.0130  0.8095 -0.4098
   74MOL0     H10194   6.118   1.610   4.166 -2.2275 -0.7085  1.8485
   74MOL0     H10195   5.875   1.591   4.254  0.5836  2.1314  2.2408
   74MOL0     H10196   4.387   0.753   4.379  1.1633 -2.6021  0.7445
   74MOL0     H10197   4.178   0.651   4.295 -1.7124 -0.6557 -0.1806
   74MOL0     H10198   3.830   0.424   4.489  0.1680 -1.5124 -2.1295
   74MOL0     H10199   3.626   0.294   4.515 -1.6408  0.0140  0.6932
   74MOL0     H10200   3.335   0.251   4.539  2.6458  0.9117  2.8561
   74MOL0     H10201   3.337   0.428   4.528 -0.4638 -0.8104  0.2603
   74MOL0     H10202   3.154   0.250   4.350 -3.1295  0.2152  0.3745
   74MOL0     H10203   3.157   0.426   4.354  2.4996  2.0485  3.3524
   74MOL0     H10204   3.068   0.243   4.576 -0.9167  0.0482 -0.5726
   74MOL0     H10205   3.103   0.406   4.610  0.5760  0.3979  0.2071
   74MOL0     H10206   2.906   0.279   4.411  0.2265  0.3550 -0.3387
   74MOL0     H10207   2.907   0.463   4.442 -2.3222 -0.4132  0.7442
   74MOL0     H10208   2.674   0.293   4.765  1.1855 -1.8663  1.6623
   74MOL0     H10209   3.434   0.538   4.224  0.2332  0.9902 -0.9041
   74MOL0     H10210   3.615   0.685   4.078 -0.8384  1.8173 -0.7533
   74MOL0     H10211   3.535   0.782   4.203  1.3573  1.8229  2.1054
   74MOL0     H10212   3.705   0.788   4.186  0.2739 -0.4701  0.2872
   75MOL0     O10213   6.311  10.892   5.571 -0.0504 -0.1959 -0.3438
   75MOL0     C10214   6.275  11.004   5.542 -0.3475  1.0044 -0.2643
   75MOL0     O10215   6.356  11.107   5.482 -0.0760  0.2674 -0.2866
   75MOL0     C10216   6.489  11.081   5.473 -1.1113  0.3419 -0.5556
   75MOL0     C10217   6.580  11.105   5.574  0.6480 -0.2640 -0.2216
   75MOL0     C10218   6.714  11.095   5.547 -0.9587  0.8010  0.2779
   75MOL0     C10219   6.762  11.049   5.422 -0.1982 -0.7424  0.7565
   75MOL0     O10220   6.886  11.033   5.380  0.2104 -0.6268  0.2763
   75MOL0     C10221   6.989  11.098   5.457 -1.0436  0.6866 -0.2428
   75MOL0     C10222   7.109  11.107   5.360  0.4905 -0.2203  0.5507
   75MOL0     C10223   7.200  11.216   5.398 -0.8974  0.4109 -0.1670
   75MOL0     C10224   7.317  11.222   5.303  0.4900 -0.1035  0.2408
   75MOL0     C10225   7.395  11.355   5.313  0.0585 -0.7604 -0.1952
   75MOL0     C10226   7.523  11.356   5.225 -0.5353 -0.1551  1.1253
   75MOL0     C10227   7.588  11.488   5.253 -0.0336 -0.6612  0.2165
   75MOL0     C10228   7.706  11.520   5.174 -0.8540  0.0832  0.5671
   75MOL0     N10229   7.815  11.426   5.200 -0.0777  0.6275  0.4373
   75MOL0     C10230   7.863  11.335   5.110  0.1570  0.8896  0.7021
   75MOL0     C10231   7.982  11.293   5.164 -0.4563 -0.0143  0.4893
   75MOL0     C10232   8.085  11.213   5.082  0.1692  0.7299  0.0685
   75MOL0     C10233   8.192  11.146   5.170  0.4092  0.1388 -1.1030
   75MOL0     C10234   8.135  11.035   5.267 -0.2627  0.0399 -0.0090
   75MOL0     C10235   8.241  10.951   5.330  0.4547  1.1707 -0.2810
   75MOL0     O10236   8.327  11.020   5.413  0.0398 -0.5253 -0.2872
   75MOL0     C10237   8.454  10.979   5.418  0.6110  0.6862 -1.3878
   75MOL0     C10238   8.490  10.873   5.500 -0.1278  0.4901  0.3509
   75MOL0     C10239   8.628  10.830   5.514  0.1563 -0.8233  0.1365
   75MOL0     C10240   8.652  10.731   5.615  0.5814  0.0956 -0.7773
   75MOL0     C10241   8.725  10.897   5.441 -0.2143  0.3601  0.7971
   75MOL0     C10242   8.871  10.873   5.444  0.3712  0.0211  0.7483
   75MOL0     O10243   8.954  10.969   5.401 -0.5083  0.4157  0.1109
   75MOL0     C10244   9.090  10.946   5.401  1.0126 -0.0828  0.1834
   75MOL0     C10245   9.165  10.921   5.279 -0.3290 -0.7021 -0.2290
   75MOL0     C10246   9.305  10.896   5.288 -0.7760 -0.1127 -0.1347
   75MOL0     C10247   9.372  10.882   5.409 -0.4492  0.3177 -0.4413
   75MOL0     O10248   9.502  10.832   5.419 -0.7880 -0.2111 -0.4937
   75MOL0     C10249   9.554  10.790   5.546  0.4954  0.0693  0.0697
   75MOL0     C10250   9.695  10.739   5.517  0.6149  0.0038 -0.3404
   75MOL0     C10251   9.697  10.611   5.432 -0.1525  0.1164 -0.6301
   75MOL0     C10252   9.692  10.483   5.509 -0.5137  0.3073  0.4505
   75MOL0     C10253   9.719  10.360   5.417  0.2640  1.1204  0.0352
   75MOL0     C10254   9.873  10.328   5.418  0.0046  0.2322 -0.6140
   75MOL0     C10255   9.908  10.198   5.352 -0.1801 -0.0530 -0.0720
   75MOL0     C10256  10.057  10.179   5.345 -0.3251 -0.2963 -0.1320
   75MOL0    Cl10257  10.132  10.165   5.510 -0.2189 -0.3854  0.0326
   75MOL0     C10258   9.298  10.920   5.528 -0.3927  0.3174  0.2246
   75MOL0     C10259   9.156  10.946   5.526  0.1821 -0.0121  0.3946
   75MOL0     O10260   8.915  10.769   5.490  0.7765 -0.5165 -0.0954
   75MOL0     C10261   8.689  11.007   5.360  0.1887 -0.2935 -1.4782
   75MOL0     C10262   8.555  11.045   5.358 -0.3682 -0.7400  0.6399
   75MOL0     N10263   8.005  11.365   5.276  0.0727  0.0527 -0.2669
   75MOL0     N10264   7.901  11.440   5.303 -0.1630 -0.2204  0.0078
   75MOL0     C10265   6.675  11.023   5.325  0.8835  0.0530 -0.4874
   75MOL0     C10266   6.538  11.027   5.350  0.0476  0.0043 -0.4114
   75MOL0     C10267   6.131  11.039   5.571  0.7483  0.0422  0.5937
   75MOL0     C10268   6.091  11.171   5.547 -0.4192  0.5992  0.7679
   75MOL0     C10269   5.958  11.210   5.551 -0.7917 -0.9989  0.1084
   75MOL0     C10270   5.862  11.121   5.592  0.9505  0.0999  0.3367
   75MOL0     O10271   5.729  11.161   5.608 -0.9805  0.7787  0.2144
   75MOL0     C10272   5.658  11.221   5.500 -0.4549  0.0309 -0.5405
   75MOL0     C10273   5.573  11.332   5.562 -0.3168  0.4626 -0.0096
   75MOL0     C10274   5.645  11.458   5.621 -1.3097 -0.3897 -0.2505
   75MOL0     C10275   5.698  11.547   5.504  0.1351 -0.3944 -0.2686
   75MOL0     C10276   5.592  11.631   5.462  0.4154 -0.0470  0.6147
   75MOL0     C10277   5.492  11.682   5.419 -0.3431 -0.2144  0.3041
   75MOL0     C10278   5.894  10.988   5.629 -1.2235  0.3394 -0.0899
   75MOL0     C10279   6.029  10.951   5.608  0.0218  0.0825 -0.5212
   75MOL0     C10280   6.048  10.798   5.606 -0.6079 -0.2516 -0.0791
   75MOL0     H10281   6.558  11.137   5.676 -1.4066 -0.8263 -0.4553
   75MOL0     H10282   6.783  11.126   5.624 -0.4873  0.9468 -0.1957
   75MOL0     H10283   7.020  11.033   5.539 -3.2372  0.1816  0.2577
   75MOL0     H10284   6.957  11.196   5.494 -1.8879  0.1739  0.4449
   75MOL0     H10285   7.150  11.006   5.348  0.4308 -0.0131 -1.9382
   75MOL0     H10286   7.082  11.131   5.257  0.6993 -0.2119  0.4975
   75MOL0     H10287   7.146  11.311   5.398  2.3026  2.3870  0.5424
   75MOL0     H10288   7.231  11.198   5.502 -4.6408 -0.8698  0.8970
   75MOL0     H10289   7.370  11.128   5.319 -3.3542 -2.8282 -1.3093
   75MOL0     H10290   7.285  11.217   5.198 -1.2762 -1.3475  0.7930
   75MOL0     H10291   7.424  11.364   5.418  2.2197 -2.1315 -0.6170
   75MOL0     H10292   7.330  11.436   5.280  0.2804 -1.3220 -2.1667
   75MOL0     H10293   7.593  11.275   5.247  0.4057  0.3527  0.1099
   75MOL0     H10294   7.497  11.343   5.119  0.1262  1.6649  0.7226
   75MOL0     H10295   7.626  11.488   5.356  3.8092 -4.4233 -0.9207
   75MOL0     H10296   7.510  11.564   5.247 -1.1714 -1.6594  1.7163
   75MOL0     H10297   7.686  11.525   5.066 -0.3438  0.6979  0.4931
   75MOL0     H10298   7.736  11.623   5.199 -1.0812  0.7362 -1.6478
   75MOL0     H10299   7.832  11.316   5.008  4.6844 -2.2939 -0.3857
   75MOL0     H10300   8.129  11.275   5.003  0.1310  2.3049  1.2319
   75MOL0     H10301   8.034  11.131   5.031  1.1453  0.3136 -0.2593
   75MOL0     H10302   8.275  11.102   5.114 -0.8765 -2.8523 -0.8732
   75MOL0     H10303   8.232  11.222   5.238  0.5732 -1.7983  1.1460
   75MOL0     H10304   8.084  11.078   5.354  2.6731 -0.1841  1.9735
   75MOL0     H10305   8.063  10.977   5.209  0.4840  0.0052 -0.9372
   75MOL0     H10306   8.201  10.868   5.389  1.3281  1.2161  0.3901
   75MOL0     H10307   8.298  10.906   5.248  0.3597  0.4417  0.0434
   75MOL0     H10308   8.410  10.820   5.551 -0.1707  1.3873  1.2541
   75MOL0     H10309   8.706  10.645   5.576  2.7852 -0.1439  2.4621
   75MOL0     H10310   8.558  10.697   5.660  0.8330  1.5738  0.9609
   75MOL0     H10311   8.710  10.777   5.695 -1.3549  3.1340 -0.9298
   75MOL0     H10312   9.127  10.938   5.178 -0.6023  0.0152 -0.0109
   75MOL0     H10313   9.371  10.894   5.202  2.6747 -1.5574  2.3406
   75MOL0     H10314   9.567  10.871   5.618  1.4654 -1.7511  2.0383
   75MOL0     H10315   9.498  10.706   5.587  0.3953 -0.3557 -0.9186
   75MOL0     H10316   9.752  10.822   5.474  1.4825  0.1264  0.9819
   75MOL0     H10317   9.751  10.726   5.610  0.5577 -1.5903 -0.4935
   75MOL0     H10318   9.801  10.611   5.398  0.3905 -0.9078  0.8769
   75MOL0     H10319   9.622  10.621   5.353 -1.5551 -0.4060  0.5760
   75MOL0     H10320   9.591  10.467   5.548 -1.4510  0.8849 -1.5984
   75MOL0     H10321   9.769  10.484   5.587  1.7896 -3.5303 -1.4641
   75MOL0     H10322   9.673  10.269   5.455 -0.9878  2.4606  1.9011
   75MOL0     H10323   9.677  10.377   5.317  4.0345 -0.8782 -2.1357
   75MOL0     H10324   9.919  10.336   5.517 -1.5449  0.6147  0.1089
   75MOL0     H10325   9.924  10.401   5.356 -0.3522  1.1557  0.1613
   75MOL0     H10326   9.873  10.191   5.248  0.9962 -1.1749 -0.4179
   75MOL0     H10327   9.872  10.105   5.397  2.3348 -2.0170 -1.7827
   75MOL0     H10328  10.106  10.246   5.273 -1.0044 -0.7528 -1.0418
   75MOL0     H10329  10.074  10.079   5.303 -0.3269 -0.3603  0.0175
   75MOL0     H10330   9.343  10.911   5.627  0.8578  0.6381 -0.3010
   75MOL0     H10331   9.110  10.959   5.624  2.4581 -0.0455  1.5381
   75MOL0     H10332   8.759  11.066   5.301  1.0293 -0.1013 -0.3338
   75MOL0     H10333   8.531  11.126   5.290 -0.2294 -1.4566 -0.2918
   75MOL0     H10334   6.724  10.986   5.235  1.1050  3.9158 -2.1207
   75MOL0     H10335   6.465  10.995   5.276 -0.4966 -1.1911  0.5972
   75MOL0     H10336   6.161  11.248   5.518 -1.5395  2.3642  2.5065
   75MOL0     H10337   5.916  11.306   5.522 -1.1917 -1.8387 -2.2297
   75MOL0     H10338   5.726  11.256   5.421 -0.5505 -1.8419 -1.5014
   75MOL0     H10339   5.598  11.145   5.449 -0.7001  1.3731 -2.3566
   75MOL0     H10340   5.508  11.285   5.635  0.1625 -0.5224 -0.2057
   75MOL0     H10341   5.513  11.374   5.481 -0.9129 -0.5131 -0.0868
   75MOL0     H10342   5.580  11.515   5.688  0.2213  0.6572  0.4034
   75MOL0     H10343   5.723  11.430   5.693 -0.5898  2.7068  0.3106
   75MOL0     H10344   5.727  11.486   5.419 -1.7699 -1.9446  0.1315
   75MOL0     H10345   5.774  11.618   5.540  2.0827 -2.9825  1.1117
   75MOL0     H10346   5.394  11.721   5.398  0.3937  1.0710 -0.8569
   75MOL0     H10347   5.821  10.915   5.659  0.3436 -0.9298  0.7564
   75MOL0     H10348   6.068  10.764   5.504  0.9686  2.4490 -0.7535
   75MOL0     H10349   6.124  10.763   5.677  0.6223  3.0534  0.4149
   75MOL0     H10350   5.955  10.751   5.638 -0.2640 -0.5275  0.5372
   76MOL0     O10351   2.291   7.269   5.163 -0.4871  0.2634 -0.8453
   76MOL0     C10352   2.311   7.349   5.077  1.0226 -0.4536 -0.2231
   76MOL0     O10353   2.431   7.408   5.047  0.4737 -0.1575  0.2038
   76MOL0     C10354   2.550   7.360   5.096  0.4074  1.1142  0.7207
   76MOL0     C10355   2.639   7.440   5.158  0.4966  0.2132 -0.2615
   76MOL0     C10356   2.763   7.398   5.222 -0.5687 -0.3777 -0.0171
   76MOL0     C10357   2.793   7.264   5.199  0.1682  0.6906  0.1411
   76MOL0     O10358   2.906   7.207   5.259 -0.1850  0.3698  0.1542
   76MOL0     C10359   2.881   7.141   5.390 -0.3840 -0.4329  0.0417
   76MOL0     C10360   3.005   7.063   5.424 -0.5915  0.0724  0.0968
   76MOL0     C10361   3.010   6.975   5.551 -0.1337  0.4452  0.1590
   76MOL0     C10362   3.079   6.843   5.521  0.0328  0.3649  0.2075
   76MOL0     C10363   3.063   6.748   5.631 -0.1559  0.4387  0.3305
   76MOL0     C10364   3.123   6.613   5.590 -0.8578 -0.2401  0.6491
   76MOL0     C10365   3.091   6.500   5.676 -0.3229  0.8320 -0.4375
   76MOL0     C10366   3.166   6.487   5.817  0.5071  0.2479 -0.7868
   76MOL0     N10367   3.299   6.433   5.808 -0.4638  0.3930  0.7091
   76MOL0     C10368   3.334   6.297   5.797 -0.1429  0.6710  0.5982
   76MOL0     C10369   3.462   6.288   5.757 -0.6506 -0.2041 -0.5237
   76MOL0     C10370   3.542   6.171   5.720 -0.0366  0.7645  0.1444
   76MOL0     C10371   3.558   6.167   5.569  0.6250 -0.2541 -0.1911
   76MOL0     C10372   3.646   6.061   5.521 -0.6013  0.0994 -1.0707
   76MOL0     C10373   3.630   6.052   5.372  0.1574 -0.5591  0.8576
   76MOL0     O10374   3.724   5.947   5.330 -0.7149  0.2221 -0.6737
   76MOL0     C10375   3.788   5.963   5.208  0.8354 -0.4063 -0.0506
   76MOL0     C10376   3.896   5.893   5.184 -0.3240 -0.0816  0.6805
   76MOL0     C10377   3.953   5.899   5.054 -1.2576  1.4359 -0.6323
   76MOL0     C10378   4.068   5.812   5.035 -0.6681  1.1562 -0.0577
   76MOL0     C10379   3.901   5.982   4.951 -0.1921  1.0686 -0.5645
   76MOL0     C10380   3.944   5.993   4.812 -0.6505 -0.3909  0.6464
   76MOL0     O10381   3.860   6.068   4.730  0.2499 -0.0882  0.3816
   76MOL0     C10382   3.913   6.126   4.623 -0.1048  0.7270 -0.5719
   76MOL0     C10383   3.940   6.266   4.618 -0.1492  0.5793 -0.1667
   76MOL0     C10384   3.991   6.321   4.503 -0.2861  0.4320 -0.4067
   76MOL0     C10385   4.016   6.243   4.391  0.0878 -0.3260 -0.6186
   76MOL0     O10386   4.068   6.293   4.273 -0.1831 -0.1197 -0.2297
   76MOL0     C10387   4.041   6.431   4.239  0.1015  0.2158  0.2020
   76MOL0     C10388   4.055   6.436   4.081 -0.2583 -0.4426 -1.1885
   76MOL0     C10389   3.956   6.334   4.014  0.6408  0.3277  0.7772
   76MOL0     C10390   3.944   6.349   3.853 -0.5449  0.2311  0.0274
   76MOL0     C10391   3.845   6.239   3.802  0.2420 -0.3012 -0.4590
   76MOL0     C10392   3.832   6.220   3.652 -0.5448  0.0509  0.5738
   76MOL0     C10393   3.746   6.112   3.599  0.3855  0.2041 -0.3768
   76MOL0     C10394   3.703   6.138   3.451 -0.1792  0.3812 -1.2884
   76MOL0    Cl10395   3.628   5.991   3.368 -0.0249  0.5835 -0.3559
   76MOL0     C10396   3.997   6.102   4.400  0.3370 -0.2465 -0.0077
   76MOL0     C10397   3.945   6.043   4.518 -0.1953  0.1303 -0.1047
   76MOL0     O10398   4.056   5.942   4.779 -0.1529 -0.3277 -0.0948
   76MOL0     C10399   3.792   6.068   4.991  0.1285  0.4408 -0.5517
   76MOL0     C10400   3.729   6.056   5.111  1.0329  0.1330  0.1987
   76MOL0     N10401   3.505   6.418   5.744 -0.1490 -0.1639 -0.3946
   76MOL0     N10402   3.411   6.505   5.769 -0.3328  0.0946 -1.1807
   76MOL0     C10403   2.701   7.181   5.134  0.9770 -0.2977 -0.3943
   76MOL0     C10404   2.584   7.221   5.085  0.2551  0.2630  0.1907
   76MOL0     C10405   2.185   7.378   4.995  0.1677  0.1094 -0.7250
   76MOL0     C10406   2.207   7.451   4.875 -0.2989  0.3017 -0.0231
   76MOL0     C10407   2.105   7.460   4.783 -0.5669 -1.0140  0.5667
   76MOL0     C10408   1.975   7.425   4.808  0.1223  0.5807 -0.6307
   76MOL0     O10409   1.883   7.444   4.713 -0.0785  0.6225 -0.4105
   76MOL0     C10410   1.742   7.418   4.727  0.5668 -0.1534 -0.2786
   76MOL0     C10411   1.643   7.501   4.644 -0.1041  0.4460  0.6045
   76MOL0     C10412   1.687   7.652   4.641  0.4900 -0.2753  0.4538
   76MOL0     C10413   1.554   7.733   4.634  0.3281 -0.1615 -0.1399
   76MOL0     C10414   1.489   7.704   4.514  0.6064  0.1335 -0.5041
   76MOL0     C10415   1.430   7.680   4.405  0.6755  0.4459  0.9723
   76MOL0     C10416   1.957   7.363   4.933  0.4363 -0.8451 -0.3834
   76MOL0     C10417   2.054   7.339   5.025 -0.1090 -0.3874 -0.4192
   76MOL0     C10418   2.008   7.261   5.148 -0.0879 -0.3220  1.0916
   76MOL0     H10419   2.625   7.548   5.162 -2.1977 -0.1147  2.3045
   76MOL0     H10420   2.827   7.466   5.277  2.6973 -1.3439 -2.3216
   76MOL0     H10421   2.798   7.073   5.370  0.7225 -0.5612 -5.8155
   76MOL0     H10422   2.867   7.223   5.462  1.1158 -0.6049  0.5456
   76MOL0     H10423   3.036   7.002   5.340 -0.3841 -1.8796  1.5202
   76MOL0     H10424   3.080   7.142   5.424  0.3930 -0.5793 -4.5941
   76MOL0     H10425   3.062   7.030   5.631 -0.8926  1.9157 -0.3160
   76MOL0     H10426   2.911   6.955   5.594 -0.3088 -0.7149 -0.7593
   76MOL0     H10427   3.042   6.795   5.430 -1.5981 -1.0996  1.5525
   76MOL0     H10428   3.184   6.867   5.501  1.2064 -4.5972 -0.9589
   76MOL0     H10429   2.957   6.730   5.645 -0.3559  1.7964  0.7385
   76MOL0     H10430   3.115   6.788   5.719  0.8027  1.4077 -0.6372
   76MOL0     H10431   3.084   6.577   5.494 -1.3375 -3.7160  2.0002
   76MOL0     H10432   3.228   6.633   5.570 -1.2915 -0.0561 -1.6673
   76MOL0     H10433   3.117   6.407   5.624  0.0804  0.3681  0.5656
   76MOL0     H10434   2.983   6.497   5.697  0.1066  2.2873  2.4159
   76MOL0     H10435   3.169   6.588   5.860 -0.6616 -0.3395  0.7484
   76MOL0     H10436   3.114   6.417   5.883  1.8623 -2.4860 -2.4645
   76MOL0     H10437   3.253   6.227   5.817  0.6418 -0.0794  1.2287
   76MOL0     H10438   3.496   6.084   5.768  1.4718  0.3517  0.8900
   76MOL0     H10439   3.639   6.177   5.769  0.7581  0.1778 -1.3084
   76MOL0     H10440   3.457   6.154   5.530  0.4308 -2.0800  0.8038
   76MOL0     H10441   3.598   6.263   5.536  0.0444  0.8057  1.9795
   76MOL0     H10442   3.753   6.081   5.535 -0.1764 -1.6248 -1.6741
   76MOL0     H10443   3.619   5.965   5.565  0.3024 -0.5351 -1.8645
   76MOL0     H10444   3.529   6.029   5.339  1.0580 -0.7195 -2.1132
   76MOL0     H10445   3.656   6.153   5.339 -1.0070 -0.8178 -0.9393
   76MOL0     H10446   3.929   5.828   5.264 -1.9997 -2.1406 -0.2048
   76MOL0     H10447   4.061   5.728   5.104 -3.9081 -0.1043 -1.7096
   76MOL0     H10448   4.158   5.872   5.050 -0.4662  0.9419 -0.4229
   76MOL0     H10449   4.079   5.772   4.935 -3.6881 -0.2422  0.0589
   76MOL0     H10450   3.901   6.337   4.690  0.4970 -3.1394  4.3818
   76MOL0     H10451   3.985   6.429   4.495  3.4358  0.6643 -1.8723
   76MOL0     H10452   3.938   6.466   4.254 -0.3307 -0.1536 -1.6397
   76MOL0     H10453   4.113   6.495   4.291 -0.7440  0.6700  0.8506
   76MOL0     H10454   4.028   6.540   4.058 -4.8208 -0.9426  0.8108
   76MOL0     H10455   4.155   6.405   4.050 -0.5916  0.0311 -2.8187
   76MOL0     H10456   3.853   6.357   4.042  0.7391  1.0291  0.5869
   76MOL0     H10457   3.967   6.228   4.038 -3.3961 -0.6510 -0.8669
   76MOL0     H10458   4.038   6.339   3.798 -0.7877  1.2081 -0.5979
   76MOL0     H10459   3.898   6.448   3.847  1.8345  1.5120  1.2791
   76MOL0     H10460   3.868   6.144   3.851  0.7475 -0.1914 -0.4784
   76MOL0     H10461   3.747   6.271   3.839  0.4238  0.9271 -0.9665
   76MOL0     H10462   3.932   6.210   3.609 -1.7096 -2.2873 -1.8735
   76MOL0     H10463   3.787   6.313   3.616 -0.6744 -0.2509 -0.0670
   76MOL0     H10464   3.659   6.095   3.662  1.6439 -1.4330  1.0139
   76MOL0     H10465   3.806   6.021   3.611  1.4832  1.2600  3.5391
   76MOL0     H10466   3.795   6.173   3.403  0.6802  0.9502  0.6583
   76MOL0     H10467   3.634   6.221   3.437  1.9888  2.1677 -1.8584
   76MOL0     H10468   4.024   6.051   4.308 -3.0091 -3.3658  0.5140
   76MOL0     H10469   3.928   5.936   4.524  0.2875  0.1254  1.7223
   76MOL0     H10470   3.754   6.131   4.911 -0.5003 -0.9175 -1.3854
   76MOL0     H10471   3.632   6.101   5.132  1.5214  1.4376 -0.2383
   76MOL0     H10472   2.733   7.078   5.132  1.4464 -0.1485 -0.8060
   76MOL0     H10473   2.512   7.151   5.043 -0.2429  0.2830  0.9807
   76MOL0     H10474   2.306   7.488   4.850  0.0430  0.5059  1.5589
   76MOL0     H10475   2.130   7.511   4.690 -0.1486  1.4892  1.9774
   76MOL0     H10476   1.728   7.309   4.723  0.5163 -0.3173  2.3563
   76MOL0     H10477   1.720   7.432   4.833  1.0642 -2.6785  0.2276
   76MOL0     H10478   1.542   7.485   4.683  0.9174 -2.5215  2.4016
   76MOL0     H10479   1.638   7.463   4.542 -1.5842  1.5080  0.2533
   76MOL0     H10480   1.735   7.682   4.735  1.4413 -0.8749  0.1707
   76MOL0     H10481   1.745   7.675   4.552 -0.0518 -3.7548 -0.9929
   76MOL0     H10482   1.572   7.841   4.639 -1.0264  0.2194 -2.0782
   76MOL0     H10483   1.481   7.711   4.713 -2.5244  3.6844 -1.3754
   76MOL0     H10484   1.394   7.641   4.312 -1.7264  0.4811  1.8265
   76MOL0     H10485   1.855   7.332   4.951 -0.2729  1.5199  0.0861
   76MOL0     H10486   2.053   7.162   5.139 -0.4741 -0.3471 -1.6716
   76MOL0     H10487   2.049   7.304   5.240  0.1293 -0.3385  1.0027
   76MOL0     H10488   1.899   7.252   5.145 -0.1112 -0.0631 -1.4980
   77MOL0     O10489   7.334   0.690  10.204  0.2159  0.1692 -0.4625
   77MOL0     C10490   7.377   0.667  10.314 -0.0835 -1.2722  0.6762
   77MOL0     O10491   7.510   0.649  10.335  1.0943  0.0943 -0.4428
   77MOL0     C10492   7.578   0.594  10.226 -0.2463 -0.1421  0.8826
   77MOL0     C10493   7.676   0.674  10.159  0.9853  0.4546 -0.0887
   77MOL0     C10494   7.754   0.623  10.057 -0.2551  0.3260 -0.8444
   77MOL0     C10495   7.742   0.489  10.023  0.6515 -0.1109 -0.2051
   77MOL0     O10496   7.818   0.426   9.927 -0.4250  0.2934  0.1687
   77MOL0     C10497   7.887   0.519   9.839  0.4570  0.4106  0.1429
   77MOL0     C10498   7.952   0.429   9.729 -0.2758 -1.0217  0.2500
   77MOL0     C10499   8.031   0.508   9.625  0.4260 -0.2918  0.1993
   77MOL0     C10500   8.069   0.405   9.516 -0.0477  0.0368  0.6522
   77MOL0     C10501   8.142   0.481   9.397 -0.7799 -0.1498  0.0301
   77MOL0     C10502   8.054   0.562   9.297 -0.3676 -0.4831  0.8907
   77MOL0     C10503   8.117   0.573   9.159  0.1040 -0.4365 -0.7544
   77MOL0     C10504   8.270   0.602   9.135 -0.9445 -0.0557  0.2489
   77MOL0     N10505   8.275   0.645   8.997 -0.4219 -0.1926  0.3222
   77MOL0     C10506   8.315   0.565   8.889 -0.5385 -0.0557  0.0126
   77MOL0     C10507   8.344   0.651   8.790 -1.1021 -0.5021  0.5066
   77MOL0     C10508   8.385   0.606   8.643 -0.0955 -0.5434 -0.3715
   77MOL0     C10509   8.532   0.636   8.624  0.6791 -0.4351  0.3332
   77MOL0     C10510   8.570   0.582   8.482 -1.0630 -0.6559 -0.8595
   77MOL0     C10511   8.718   0.565   8.461 -0.8192  0.0604  0.5959
   77MOL0     O10512   8.781   0.699   8.446  0.5567 -0.5109 -0.2092
   77MOL0     C10513   8.921   0.701   8.432 -0.0744 -0.9917  0.1980
   77MOL0     C10514   9.009   0.593   8.390  0.1886  0.4223  0.3476
   77MOL0     C10515   9.146   0.612   8.359  0.0771  0.0385  0.1031
   77MOL0     C10516   9.239   0.502   8.302  0.6379  0.6021 -0.3112
   77MOL0     C10517   9.210   0.743   8.384 -0.1902 -0.2531  0.1705
   77MOL0     C10518   9.348   0.790   8.356  0.0047 -0.2155  0.6079
   77MOL0     O10519   9.448   0.733   8.436 -0.2783  0.4140 -0.1866
   77MOL0     C10520   9.577   0.736   8.389  0.3129  0.4022  0.7763
   77MOL0     C10521   9.628   0.642   8.304 -0.0153 -0.4479  0.5963
   77MOL0     C10522   9.763   0.631   8.271  0.4518 -0.2672 -0.3747
   77MOL0     C10523   9.856   0.721   8.328  0.3141  0.1389 -0.4732
   77MOL0     O10524   9.995   0.704   8.301 -0.0948 -0.1586 -0.5592
   77MOL0     C10525  10.083   0.814   8.342  0.0832 -0.7544 -0.3912
   77MOL0     C10526  10.225   0.810   8.273 -0.4625  0.5532  0.1980
   77MOL0     C10527  10.312   0.937   8.305 -0.5221  0.0258 -0.3971
   77MOL0     C10528  10.463   0.908   8.277 -0.3056  1.1763  0.1135
   77MOL0     C10529  10.556   1.006   8.336 -0.1006  0.1118  0.0535
   77MOL0     C10530  10.703   0.996   8.293  0.1035 -0.6423 -0.6723
   77MOL0     C10531  10.780   0.876   8.368 -0.5036 -0.1570  0.6373
   77MOL0     C10532  10.928   0.888   8.379 -0.4560  0.4386  0.0556
   77MOL0    Cl10533  11.009   0.916   8.212  0.2689 -0.1453 -0.1101
   77MOL0     C10534   9.800   0.820   8.418 -0.0544 -0.6533 -0.1998
   77MOL0     C10535   9.666   0.830   8.446 -0.4483  0.0898 -1.0721
   77MOL0     O10536   9.369   0.855   8.254 -0.0977  0.1188  0.0237
   77MOL0     C10537   9.124   0.844   8.422  1.1806 -0.0987 -0.1983
   77MOL0     C10538   8.987   0.827   8.444  0.4090 -0.3143  0.6953
   77MOL0     N10539   8.316   0.779   8.841 -0.3564  0.6028 -0.4572
   77MOL0     N10540   8.258   0.774   8.951 -0.2898  0.3105 -0.4425
   77MOL0     C10541   7.648   0.409  10.090 -0.1226 -0.3861 -0.0871
   77MOL0     C10542   7.568   0.457  10.193 -0.7272  0.5688  0.2213
   77MOL0     C10543   7.300   0.683  10.433 -0.1494 -0.3025 -0.3222
   77MOL0     C10544   7.343   0.616  10.549 -0.2303 -0.1082 -1.1849
   77MOL0     C10545   7.271   0.619  10.667 -0.5044 -0.4257  0.3029
   77MOL0     C10546   7.147   0.682  10.668 -0.7150 -0.5721 -0.7077
   77MOL0     O10547   7.077   0.658  10.782  0.5624  0.6594  0.3411
   77MOL0     C10548   6.931   0.647  10.785  0.3514  0.7343  0.8665
   77MOL0     C10549   6.870   0.759  10.854  0.1440 -0.0016  0.5232
   77MOL0     C10550   6.714   0.760  10.838  0.4753  0.5669  0.6201
   77MOL0     C10551   6.659   0.895  10.871  0.2029  0.3167 -0.6575
   77MOL0     C10552   6.515   0.902  10.840 -0.6871 -0.1985 -0.3878
   77MOL0     C10553   6.394   0.905  10.819  0.7685 -0.3659  0.0134
   77MOL0     C10554   7.096   0.752  10.553 -0.7636 -0.7659 -0.0151
   77MOL0     C10555   7.168   0.753  10.437 -0.4440 -0.2686 -0.5019
   77MOL0     C10556   7.112   0.847  10.335  0.1733 -0.0505 -0.0527
   77MOL0     H10557   7.657   0.781  10.156 -1.8639  0.0122 -2.3545
   77MOL0     H10558   7.818   0.692  10.003  0.1888 -0.7042 -1.6717
   77MOL0     H10559   7.964   0.573   9.894 -1.1654  0.3642  2.6228
   77MOL0     H10560   7.814   0.590   9.800  0.0203  0.6916  1.4539
   77MOL0     H10561   8.029   0.365   9.773  0.0036 -1.6820 -1.1535
   77MOL0     H10562   7.869   0.384   9.675  0.0115 -0.8435 -0.3550
   77MOL0     H10563   7.973   0.591   9.585  0.7023  0.5919  1.5626
   77MOL0     H10564   8.117   0.558   9.670  0.8402 -1.7113  1.0585
   77MOL0     H10565   8.131   0.326   9.559  1.1148 -0.3792 -1.6508
   77MOL0     H10566   7.978   0.355   9.485 -0.5591  1.4774 -0.2642
   77MOL0     H10567   8.196   0.402   9.344 -2.2592 -0.4884 -1.0190
   77MOL0     H10568   8.224   0.542   9.437  0.0154 -1.3927  0.3607
   77MOL0     H10569   7.960   0.511   9.277 -1.2999  1.4923  0.0133
   77MOL0     H10570   8.010   0.654   9.338 -3.6488 -0.3576 -2.4381
   77MOL0     H10571   8.062   0.650   9.104  4.8873  2.8125 -1.6169
   77MOL0     H10572   8.092   0.477   9.113 -1.4643  0.0994 -1.0902
   77MOL0     H10573   8.298   0.681   9.206 -1.7471  0.9164 -0.4854
   77MOL0     H10574   8.324   0.510   9.161  2.6513  1.8423  0.1904
   77MOL0     H10575   8.328   0.457   8.885  1.8106  0.0795  1.5172
   77MOL0     H10576   8.340   0.663   8.560  2.5469  1.6026 -0.4830
   77MOL0     H10577   8.357   0.501   8.634  1.0957 -0.8059 -1.2702
   77MOL0     H10578   8.558   0.742   8.629 -2.3631  0.6768 -3.2921
   77MOL0     H10579   8.586   0.586   8.705  1.4426 -4.7009 -2.4761
   77MOL0     H10580   8.538   0.480   8.459 -0.5462 -0.6772 -1.5034
   77MOL0     H10581   8.525   0.647   8.406 -0.9057  1.2430  0.6086
   77MOL0     H10582   8.766   0.534   8.555  1.0764  0.9288 -0.0242
   77MOL0     H10583   8.737   0.491   8.383 -0.4164  0.6048  0.1680
   77MOL0     H10584   8.960   0.499   8.368  0.4284  0.7573 -1.8510
   77MOL0     H10585   9.338   0.498   8.348 -0.9499 -0.2326  3.3259
   77MOL0     H10586   9.257   0.535   8.199  3.9414  2.6933  0.7865
   77MOL0     H10587   9.195   0.402   8.300  1.1325  0.3796 -2.0350
   77MOL0     H10588   9.559   0.579   8.248 -0.4005 -1.2934  1.9630
   77MOL0     H10589   9.796   0.561   8.196  0.2649 -4.3088  2.9787
   77MOL0     H10590  10.035   0.908   8.315  1.3197 -0.0157 -0.0810
   77MOL0     H10591  10.093   0.822   8.450 -0.2966 -2.1215 -0.2324
   77MOL0     H10592  10.281   0.727   8.316  0.6806  0.0700 -2.0842
   77MOL0     H10593  10.206   0.785   8.168  0.3339 -0.2051  0.2225
   77MOL0     H10594  10.299   0.970   8.408 -0.5281 -0.1556 -0.3394
   77MOL0     H10595  10.284   1.028   8.251  1.4202  1.4930  0.9317
   77MOL0     H10596  10.473   0.913   8.168 -0.7859 -0.4326 -0.0239
   77MOL0     H10597  10.496   0.811   8.316 -0.3527  1.8103  1.8428
   77MOL0     H10598  10.517   1.101   8.298 -1.5669  0.2439  1.7663
   77MOL0     H10599  10.529   1.007   8.442 -0.3030  1.5435  0.0137
   77MOL0     H10600  10.754   1.085   8.331  0.2781 -0.2993 -1.6888
   77MOL0     H10601  10.725   0.998   8.186  2.2477 -0.9161 -0.2792
   77MOL0     H10602  10.767   0.788   8.304 -1.9234  1.0747 -0.8481
   77MOL0     H10603  10.737   0.863   8.467  1.3888 -2.3136  1.2606
   77MOL0     H10604  10.956   0.791   8.420 -1.7204  0.3102  0.6532
   77MOL0     H10605  10.959   0.971   8.443 -2.6432  0.6848  0.8925
   77MOL0     H10606   9.865   0.887   8.472  0.9587 -2.4249  0.8645
   77MOL0     H10607   9.624   0.899   8.519  0.8940  0.1950 -0.3649
   77MOL0     H10608   9.159   0.945   8.441 -1.5394  0.9105 -0.1940
   77MOL0     H10609   8.920   0.908   8.473 -0.8908 -0.9839 -0.3006
   77MOL0     H10610   7.633   0.308  10.053  2.1463  0.1161 -2.7604
   77MOL0     H10611   7.499   0.391  10.244 -0.6417 -1.4946 -2.1945
   77MOL0     H10612   7.442   0.574  10.559 -0.6433 -1.3756 -2.0651
   77MOL0     H10613   7.288   0.557  10.755 -1.3661  1.0492  1.5559
   77MOL0     H10614   6.895   0.632  10.683 -0.5113  1.3417  1.0719
   77MOL0     H10615   6.902   0.551  10.829  0.8873  0.1378 -0.0498
   77MOL0     H10616   6.906   0.859  10.827 -1.2077  0.4759  0.3757
   77MOL0     H10617   6.879   0.746  10.963  0.9545  1.3728  0.6524
   77MOL0     H10618   6.681   0.737  10.736 -2.1711 -2.0784  1.9090
   77MOL0     H10619   6.675   0.680  10.901 -0.4575  1.4980  1.2667
   77MOL0     H10620   6.712   0.981  10.829  1.1748  0.1859  0.2461
   77MOL0     H10621   6.668   0.894  10.980 -2.1202  1.5338 -0.3821
   77MOL0     H10622   6.290   0.927  10.807  1.0291  0.8152 -0.2063
   77MOL0     H10623   7.007   0.810  10.570  0.8675  1.3169  2.0143
   77MOL0     H10624   7.027   0.792  10.294  0.4304 -1.3867  1.1118
   77MOL0     H10625   7.078   0.944  10.371 -0.3206  0.6028 -2.1905
   77MOL0     H10626   7.189   0.864  10.259  0.2966  2.1738  0.5132
   78MOL0     O10627   4.009   8.042   4.264 -0.5182  0.1542  0.0221
   78MOL0     C10628   3.991   8.161   4.220 -0.6189  1.1317 -0.5467
   78MOL0     O10629   4.090   8.253   4.209 -0.0529 -0.1476  0.3795
   78MOL0     C10630   4.205   8.228   4.275  0.2007 -0.3451  0.3927
   78MOL0     C10631   4.324   8.248   4.203  0.2634  0.3410  0.6567
   78MOL0     C10632   4.451   8.212   4.252 -0.0144  0.1784 -0.5585
   78MOL0     C10633   4.459   8.153   4.374  0.5579 -0.2169  0.2939
   78MOL0     O10634   4.584   8.105   4.407 -0.0100  0.1429  0.3922
   78MOL0     C10635   4.572   7.968   4.461  0.7877  0.3737  0.3170
   78MOL0     C10636   4.717   7.915   4.478  0.3676 -0.3213 -0.6044
   78MOL0     C10637   4.719   7.759   4.478 -0.7442  0.9158  0.7768
   78MOL0     C10638   4.861   7.712   4.513 -0.2844  0.0410 -0.0213
   78MOL0     C10639   4.950   7.680   4.389  0.1013  0.8986  0.4142
   78MOL0     C10640   5.085   7.656   4.420 -0.3033 -0.7150 -0.2437
   78MOL0     C10641   5.173   7.780   4.453 -0.0891  0.6977 -0.7345
   78MOL0     C10642   5.310   7.751   4.505 -0.6518  0.0386  0.4387
   78MOL0     N10643   5.408   7.692   4.416  0.3729 -0.1360  0.8764
   78MOL0     C10644   5.428   7.558   4.403 -0.5481  0.4995 -0.6955
   78MOL0     C10645   5.475   7.548   4.272 -0.0797  0.5525 -0.0050
   78MOL0     C10646   5.510   7.412   4.202  0.2098  0.3690  0.2621
   78MOL0     C10647   5.664   7.392   4.165  0.0355  0.1451  0.4947
   78MOL0     C10648   5.693   7.463   4.031  0.2438  0.2313 -0.1216
   78MOL0     C10649   5.842   7.469   4.008  0.3150  0.5936  0.2329
   78MOL0     O10650   5.874   7.507   3.875  0.5134 -0.1526  0.1007
   78MOL0     C10651   6.001   7.557   3.848 -0.1787 -1.2504 -0.4785
   78MOL0     C10652   6.103   7.535   3.933  0.2326 -0.1238  0.3445
   78MOL0     C10653   6.236   7.590   3.906 -0.2699 -0.3145 -0.0631
   78MOL0     C10654   6.341   7.571   4.014  0.1037  0.0458  0.3017
   78MOL0     C10655   6.266   7.644   3.771  1.1802  0.9233 -0.0414
   78MOL0     C10656   6.396   7.673   3.710 -0.8528  0.0266 -0.4069
   78MOL0     O10657   6.392   7.722   3.584 -0.4664 -0.2566 -0.1624
   78MOL0     C10658   6.516   7.757   3.524 -0.0227 -0.1498 -0.6191
   78MOL0     C10659   6.614   7.843   3.581 -0.0613  0.5280  0.3921
   78MOL0     C10660   6.726   7.885   3.511 -0.7014  0.3939 -0.0505
   78MOL0     C10661   6.740   7.843   3.378  0.1592  0.3376  0.3311
   78MOL0     O10662   6.848   7.886   3.311  0.8857 -0.7399 -0.8307
   78MOL0     C10663   6.828   7.895   3.168 -0.3668  0.3002  0.1361
   78MOL0     C10664   6.964   7.953   3.122  0.0735  0.7686  0.5738
   78MOL0     C10665   6.961   7.980   2.975  0.0808  0.2966  0.3921
   78MOL0     C10666   7.095   8.045   2.924  0.0301 -0.6436 -0.8018
   78MOL0     C10667   7.125   8.029   2.780 -0.3907 -0.7533  1.2140
   78MOL0     C10668   7.266   8.100   2.747  0.5264 -0.2714  0.2203
   78MOL0     C10669   7.286   8.136   2.598  0.2572 -0.2737 -0.4109
   78MOL0     C10670   7.396   8.234   2.573 -0.4692 -0.5492 -0.3474
   78MOL0    Cl10671   7.315   8.389   2.578 -0.0749  0.2394 -0.2592
   78MOL0     C10672   6.645   7.753   3.318  0.1887  0.1521 -0.3766
   78MOL0     C10673   6.535   7.718   3.394  0.2282  0.2134 -0.8550
   78MOL0     O10674   6.493   7.646   3.784  0.1433 -0.2667 -0.6902
   78MOL0     C10675   6.150   7.658   3.693 -0.0416 -0.0127 -0.2860
   78MOL0     C10676   6.020   7.621   3.734 -0.2656  0.0657  0.3534
   78MOL0     N10677   5.496   7.675   4.217 -0.2605  0.2003  0.1133
   78MOL0     N10678   5.448   7.759   4.298 -0.0448 -0.3868 -1.9958
   78MOL0     C10679   4.347   8.134   4.455  0.3659 -0.4231  0.3765
   78MOL0     C10680   4.226   8.162   4.397 -0.1156 -1.2939 -0.5956
   78MOL0     C10681   3.852   8.196   4.181  0.0374  0.2505 -0.1962
   78MOL0     C10682   3.836   8.311   4.104 -0.4381  0.8387  0.2704
   78MOL0     C10683   3.714   8.371   4.071  0.4069  0.1572  0.0657
   78MOL0     C10684   3.591   8.315   4.091 -0.3197  0.0336  0.2143
   78MOL0     O10685   3.474   8.375   4.047  0.0497 -0.7080  1.1673
   78MOL0     C10686   3.349   8.311   4.067  0.6875 -0.3538  0.2495
   78MOL0     C10687   3.315   8.191   3.970  0.4487 -0.2509  0.4084
   78MOL0     C10688   3.259   8.237   3.831  0.2389 -0.8908 -0.0417
   78MOL0     C10689   3.114   8.299   3.842 -0.3328  0.5482  0.2094
   78MOL0     C10690   3.055   8.331   3.713 -0.9970 -0.2800 -0.1158
   78MOL0     C10691   3.014   8.363   3.604 -0.4791  1.1092  0.1737
   78MOL0     C10692   3.605   8.195   4.159  1.2081  0.8579 -0.5359
   78MOL0     C10693   3.723   8.139   4.213 -0.1364 -0.7987  0.0199
   78MOL0     C10694   3.713   8.024   4.308 -0.5870  0.4966  0.5093
   78MOL0     H10695   4.321   8.305   4.111  1.4899 -0.4141  0.1181
   78MOL0     H10696   4.523   8.249   4.180 -1.2698  2.2231 -0.8519
   78MOL0     H10697   4.520   7.903   4.390  1.4928 -1.3901  1.3609
   78MOL0     H10698   4.527   7.971   4.560  0.2085  2.5620  0.0318
   78MOL0     H10699   4.771   7.955   4.391 -1.9215  1.2692 -1.3888
   78MOL0     H10700   4.763   7.946   4.572 -1.8504 -1.2429  0.8770
   78MOL0     H10701   4.651   7.718   4.553 -0.5691 -0.7829  0.0551
   78MOL0     H10702   4.692   7.727   4.377 -1.4321  3.0582  0.2247
   78MOL0     H10703   4.906   7.781   4.585 -0.3110 -1.0206  1.0515
   78MOL0     H10704   4.843   7.619   4.569 -0.5051  0.7538  1.1132
   78MOL0     H10705   4.946   7.770   4.326 -0.2203  0.4147 -0.2688
   78MOL0     H10706   4.910   7.598   4.329  3.1110  1.0596 -2.0679
   78MOL0     H10707   5.076   7.592   4.508 -0.2246  1.0544  1.1151
   78MOL0     H10708   5.140   7.602   4.343  2.0671 -0.3521  1.0759
   78MOL0     H10709   5.110   7.833   4.526  0.4252  0.2703  0.0294
   78MOL0     H10710   5.183   7.839   4.361 -1.1329  0.9846 -0.6898
   78MOL0     H10711   5.365   7.844   4.524  1.0145 -0.4518 -1.5293
   78MOL0     H10712   5.302   7.684   4.591  2.9494  0.1028  1.0090
   78MOL0     H10713   5.403   7.479   4.473  0.1258  0.6343 -0.2944
   78MOL0     H10714   5.457   7.416   4.106 -0.6171 -2.4962  0.4955
   78MOL0     H10715   5.471   7.325   4.257  0.4547 -0.2196 -0.4845
   78MOL0     H10716   5.738   7.421   4.241 -1.0390  2.8261  0.6203
   78MOL0     H10717   5.690   7.288   4.147  3.0995  1.0985 -1.4867
   78MOL0     H10718   5.648   7.411   3.946  0.0206  0.4160 -0.1190
   78MOL0     H10719   5.648   7.563   4.034 -0.1444  0.0276  1.8083
   78MOL0     H10720   5.877   7.550   4.072 -1.0482  1.8640 -0.5774
   78MOL0     H10721   5.883   7.370   4.031 -5.5369 -2.0655  0.8787
   78MOL0     H10722   6.085   7.484   4.027  2.0490  2.9480  2.5705
   78MOL0     H10723   6.409   7.489   3.991  2.2137  1.6184  0.5487
   78MOL0     H10724   6.293   7.565   4.113 -0.5813  3.0421  0.2552
   78MOL0     H10725   6.403   7.662   4.018 -0.8125  0.7031 -0.1208
   78MOL0     H10726   6.603   7.875   3.684 -1.1505 -0.9970  0.7815
   78MOL0     H10727   6.797   7.957   3.550 -0.5178 -1.0739  2.5425
   78MOL0     H10728   6.811   7.793   3.134  0.7643 -0.1792  0.9406
   78MOL0     H10729   6.745   7.965   3.154 -0.0223  2.0453  4.9225
   78MOL0     H10730   6.986   8.047   3.174  2.0265  0.5473  0.2409
   78MOL0     H10731   7.034   7.872   3.145 -0.8981 -0.4572 -0.6390
   78MOL0     H10732   6.880   8.054   2.971  0.7953  1.1170  0.5864
   78MOL0     H10733   6.925   7.890   2.925  1.7810  0.3249 -0.9873
   78MOL0     H10734   7.179   8.001   2.979  0.3364  0.7478 -0.1214
   78MOL0     H10735   7.093   8.152   2.946  4.2170 -0.5331 -0.0931
   78MOL0     H10736   7.126   7.923   2.751 -0.3016 -0.2833 -0.6714
   78MOL0     H10737   7.048   8.085   2.727  1.7550  3.2806  1.9943
   78MOL0     H10738   7.349   8.032   2.767  1.5058  0.9904  0.5801
   78MOL0     H10739   7.273   8.195   2.801 -1.1436  1.2977 -2.0818
   78MOL0     H10740   7.192   8.170   2.554  0.0148 -1.1843 -0.6110
   78MOL0     H10741   7.312   8.049   2.537 -2.7673 -0.7835 -1.1251
   78MOL0     H10742   7.436   8.219   2.472  0.4357  0.7801 -0.2069
   78MOL0     H10743   7.474   8.246   2.648  0.7947  3.4205 -2.0514
   78MOL0     H10744   6.655   7.710   3.218 -0.3398  2.6047 -1.5451
   78MOL0     H10745   6.453   7.664   3.348  0.0965  1.8680 -2.6796
   78MOL0     H10746   6.151   7.697   3.592 -0.5021  4.3965  1.2054
   78MOL0     H10747   5.933   7.625   3.670 -0.8915  0.6945  1.2120
   78MOL0     H10748   4.350   8.113   4.561  0.5575 -2.5530 -0.0159
   78MOL0     H10749   4.148   8.139   4.469  1.3017  3.2158  2.8609
   78MOL0     H10750   3.922   8.366   4.068 -1.9094  3.3667  0.3803
   78MOL0     H10751   3.698   8.462   4.014 -2.6143  0.2273  0.8660
   78MOL0     H10752   3.337   8.292   4.174 -1.1402 -0.3952  0.0670
   78MOL0     H10753   3.273   8.390   4.061 -1.2866 -2.1334  0.2883
   78MOL0     H10754   3.239   8.140   4.029 -0.3903  0.9584  0.4258
   78MOL0     H10755   3.396   8.119   3.957 -0.1344 -0.7908 -0.3356
   78MOL0     H10756   3.329   8.317   3.804  0.1934 -0.6233  0.5995
   78MOL0     H10757   3.266   8.151   3.764  0.0875 -0.8167 -0.1502
   78MOL0     H10758   3.108   8.388   3.907  2.2029 -0.2460  1.6502
   78MOL0     H10759   3.063   8.208   3.874  0.7485  0.2613  1.1956
   78MOL0     H10760   2.993   8.384   3.502  4.0012 -3.1345 -2.0342
   78MOL0     H10761   3.512   8.145   4.182  1.4672  0.0639 -1.1622
   78MOL0     H10762   3.774   8.014   4.398 -1.7081  0.3784  1.2699
   78MOL0     H10763   3.609   8.012   4.338 -0.5430 -2.9779 -0.3394
   78MOL0     H10764   3.739   7.938   4.246  0.9222  0.9782  0.4254
   79MOL0     O10765   3.763   8.252   2.096 -0.2418  0.0964  0.2289
   79MOL0     C10766   3.666   8.314   2.054 -0.9152  0.9110 -0.2048
   79MOL0     O10767   3.634   8.341   1.915 -0.7841  1.0969  0.2223
   79MOL0     C10768   3.722   8.331   1.807 -0.3076  0.2444 -0.1167
   79MOL0     C10769   3.682   8.380   1.688 -0.0865  0.1215 -0.5511
   79MOL0     C10770   3.772   8.390   1.585  0.0812 -0.2289  0.2787
   79MOL0     C10771   3.908   8.358   1.595  0.7534  1.0038  0.2914
   79MOL0     O10772   3.982   8.385   1.481 -0.0823 -0.4149  0.1440
   79MOL0     C10773   4.132   8.387   1.482  0.3249  0.5985 -0.1104
   79MOL0     C10774   4.185   8.456   1.362  0.4480  0.1667 -0.2048
   79MOL0     C10775   4.335   8.464   1.343  0.1023  0.3624 -0.6561
   79MOL0     C10776   4.393   8.330   1.312  0.5847 -0.2978  0.4341
   79MOL0     C10777   4.539   8.353   1.273  0.7755  0.1126  0.7003
   79MOL0     C10778   4.614   8.227   1.258  0.3932  0.6648  0.5010
   79MOL0     C10779   4.736   8.239   1.170  0.2648  0.2675  0.5787
   79MOL0     C10780   4.842   8.325   1.229  0.4763 -0.3058  0.4926
   79MOL0     N10781   4.974   8.302   1.155  0.8215  0.4033 -0.7955
   79MOL0     C10782   5.015   8.357   1.039  0.3108  0.4570  0.8008
   79MOL0     C10783   5.119   8.276   1.005 -0.0513 -0.0539 -0.0378
   79MOL0     C10784   5.215   8.281   0.896 -0.3161  0.6801 -0.0562
   79MOL0     C10785   5.352   8.238   0.936 -0.4905  1.2930 -0.0519
   79MOL0     C10786   5.433   8.222   0.806 -0.1392 -0.5403  0.4720
   79MOL0     C10787   5.557   8.138   0.835  0.6718 -0.5364  0.0616
   79MOL0     O10788   5.634   8.181   0.946  0.1295  0.2444  0.0771
   79MOL0     C10789   5.732   8.271   0.932 -0.3383  0.1821 -0.9752
   79MOL0     C10790   5.847   8.255   0.858 -0.1978 -0.7338 -1.2223
   79MOL0     C10791   5.937   8.362   0.829  0.1583 -0.6798 -0.4930
   79MOL0     C10792   6.048   8.334   0.725  0.2916  0.5496  0.1516
   79MOL0     C10793   5.907   8.485   0.886 -0.0675 -0.3652 -0.9692
   79MOL0     C10794   5.988   8.608   0.861  0.5205  1.0735 -0.4989
   79MOL0     O10795   5.989   8.703   0.957 -0.4514 -0.4607  1.0743
   79MOL0     C10796   6.067   8.817   0.937 -0.2946  0.4813  0.0876
   79MOL0     C10797   6.014   8.942   0.908  0.3274  0.1626  0.3223
   79MOL0     C10798   6.102   9.057   0.896  0.0541  0.1607  0.0405
   79MOL0     C10799   6.242   9.042   0.899 -0.4079  0.5221  0.1423
   79MOL0     O10800   6.308   9.161   0.869 -0.0830 -0.1761 -0.2126
   79MOL0     C10801   6.446   9.171   0.905 -0.8150  0.3145  0.0965
   79MOL0     C10802   6.531   9.134   0.784 -0.3577 -0.1319 -0.6505
   79MOL0     C10803   6.499   9.234   0.671  0.1520 -0.6337  1.3683
   79MOL0     C10804   6.620   9.249   0.580  0.0335 -0.7430  0.5875
   79MOL0     C10805   6.602   9.362   0.467 -0.6080  0.2626 -0.2283
   79MOL0     C10806   6.736   9.380   0.376  0.0679  0.2197 -0.0514
   79MOL0     C10807   6.715   9.476   0.262  0.3660 -0.1837  0.9008
   79MOL0     C10808   6.848   9.518   0.206  0.2157  0.5551  0.3029
   79MOL0    Cl10809   6.878   9.685   0.245  0.1517  0.3717 -0.2785
   79MOL0     C10810   6.290   8.920   0.929  0.2805 -0.6596 -0.1268
   79MOL0     C10811   6.208   8.812   0.949  0.0946 -0.2320  0.5078
   79MOL0     O10812   6.047   8.618   0.754  0.1552  0.5541 -0.4418
   79MOL0     C10813   5.787   8.498   0.965  0.3279  0.4603 -0.4027
   79MOL0     C10814   5.700   8.399   0.990  0.4170  0.9065  0.3093
   79MOL0     N10815   5.137   8.179   1.100  0.3151  0.0361 -2.0085
   79MOL0     N10816   5.053   8.190   1.191  1.2660  0.0250  0.2926
   79MOL0     C10817   3.947   8.300   1.714  0.3663  0.3090  0.4472
   79MOL0     C10818   3.855   8.272   1.815  0.5997  0.3067  0.6954
   79MOL0     C10819   3.570   8.342   2.155  0.7170 -0.0860  0.0083
   79MOL0     C10820   3.487   8.449   2.120 -0.7695 -0.9849  0.5959
   79MOL0     C10821   3.382   8.482   2.199  0.5430 -0.6890  0.3072
   79MOL0     C10822   3.353   8.409   2.315 -0.6576 -0.3650  0.2283
   79MOL0     O10823   3.258   8.439   2.408 -0.4249 -0.2818  0.6094
   79MOL0     C10824   3.176   8.553   2.400 -0.3506 -0.6185 -0.4824
   79MOL0     C10825   3.059   8.540   2.490  0.3411  0.2765 -0.5156
   79MOL0     C10826   3.087   8.559   2.639 -0.1142  1.1150  0.2889
   79MOL0     C10827   3.176   8.448   2.710 -0.1347 -0.4930 -0.3482
   79MOL0     C10828   3.177   8.484   2.854 -0.3384  0.4592  0.3348
   79MOL0     C10829   3.175   8.527   2.964 -0.0381  0.4142  0.0118
   79MOL0     C10830   3.437   8.307   2.350 -0.0708  0.3219  0.1723
   79MOL0     C10831   3.546   8.267   2.271 -0.0526  0.0006  0.0792
   79MOL0     C10832   3.630   8.145   2.319 -0.2155 -0.8047  0.3464
   79MOL0     H10833   3.586   8.427   1.667 -0.2678 -0.0073 -0.0285
   79MOL0     H10834   3.749   8.444   1.494 -1.7876  0.5999  1.1781
   79MOL0     H10835   4.174   8.286   1.488  0.4133  0.7195  1.5208
   79MOL0     H10836   4.161   8.446   1.569 -1.4489  2.7785 -0.8654
   79MOL0     H10837   4.149   8.384   1.287  1.6295  0.4787 -1.1065
   79MOL0     H10838   4.138   8.548   1.328  0.3388 -0.6245 -2.3994
   79MOL0     H10839   4.358   8.544   1.272  1.5989  2.4921  2.0251
   79MOL0     H10840   4.385   8.490   1.437  1.0151 -0.5898 -0.8602
   79MOL0     H10841   4.395   8.260   1.395  0.0442 -0.3319  0.4192
   79MOL0     H10842   4.344   8.297   1.219  1.8336 -0.2442 -0.2733
   79MOL0     H10843   4.578   8.414   1.355  0.9135 -0.6123  1.1831
   79MOL0     H10844   4.542   8.413   1.182 -2.2994  1.9733  1.6943
   79MOL0     H10845   4.648   8.198   1.358  0.9819  1.2135  0.4631
   79MOL0     H10846   4.548   8.146   1.226  0.1934  0.3861  1.5739
   79MOL0     H10847   4.704   8.281   1.074  0.4036 -1.7206 -0.3774
   79MOL0     H10848   4.772   8.137   1.162  0.4430  0.4055 -0.5232
   79MOL0     H10849   4.805   8.427   1.214 -2.2285 -1.5854 -2.6687
   79MOL0     H10850   4.842   8.300   1.336  0.2681  3.5770  1.5652
   79MOL0     H10851   4.964   8.431   0.979  2.5048  0.5300 -1.0913
   79MOL0     H10852   5.227   8.380   0.851 -0.2734  0.1571 -1.2055
   79MOL0     H10853   5.184   8.208   0.821 -0.2415  0.2886  0.2886
   79MOL0     H10854   5.394   8.308   1.009  2.1021  1.7598 -1.8203
   79MOL0     H10855   5.354   8.145   0.993  1.0318  0.5722 -1.2080
   79MOL0     H10856   5.386   8.156   0.731  1.4280 -0.3294 -0.7509
   79MOL0     H10857   5.462   8.313   0.753 -0.6150 -2.7670 -4.0937
   79MOL0     H10858   5.520   8.037   0.854 -1.9763  0.1009 -1.2578
   79MOL0     H10859   5.608   8.124   0.739  1.3549 -1.9721  0.5958
   79MOL0     H10860   5.856   8.161   0.805  0.9897  0.6323 -3.5915
   79MOL0     H10861   6.020   8.343   0.619  0.7362  3.1400  0.1786
   79MOL0     H10862   6.104   8.242   0.746 -1.5376 -0.7547 -0.4770
   79MOL0     H10863   6.130   8.405   0.740 -1.3001  2.6507 -0.5456
   79MOL0     H10864   5.906   8.937   0.896  0.2335 -0.5314  1.3137
   79MOL0     H10865   6.056   9.153   0.873  0.6889  1.5823  3.8452
   79MOL0     H10866   6.475   9.276   0.916  1.7039  0.2316 -3.6671
   79MOL0     H10867   6.462   9.110   0.995 -0.6448 -0.2697 -0.3193
   79MOL0     H10868   6.635   9.138   0.817 -0.1668 -1.8386 -0.9557
   79MOL0     H10869   6.520   9.031   0.748 -0.5847 -0.9508  1.6162
   79MOL0     H10870   6.476   9.334   0.709  0.8359  0.1646 -0.2170
   79MOL0     H10871   6.414   9.206   0.608  1.0658 -1.9084  0.6318
   79MOL0     H10872   6.639   9.153   0.533  0.4766 -0.4587  0.1789
   79MOL0     H10873   6.708   9.274   0.640  0.3245  0.8775 -0.4450
   79MOL0     H10874   6.517   9.345   0.400  0.6835 -1.3684 -1.5701
   79MOL0     H10875   6.591   9.458   0.518 -2.2057  0.3160 -0.6236
   79MOL0     H10876   6.761   9.281   0.338 -1.6631 -0.5190  0.6152
   79MOL0     H10877   6.816   9.403   0.447 -2.0998  0.5368  2.4919
   79MOL0     H10878   6.650   9.561   0.287 -0.8434 -0.2661 -1.7092
   79MOL0     H10879   6.655   9.436   0.180 -0.6977  2.2941  0.3640
   79MOL0     H10880   6.841   9.509   0.097  1.3073  2.9146 -0.0298
   79MOL0     H10881   6.918   9.438   0.232  0.6808  0.7141 -0.4133
   79MOL0     H10882   6.397   8.906   0.939  0.4385  0.8918  0.6085
   79MOL0     H10883   6.243   8.712   0.973  1.7656  0.7193  2.3394
   79MOL0     H10884   5.770   8.599   1.003 -0.5460  1.5800 -3.5096
   79MOL0     H10885   5.611   8.420   1.050 -0.2464 -0.0898 -0.2936
   79MOL0     H10886   4.051   8.276   1.732  0.0775  0.4213  2.5185
   79MOL0     H10887   3.903   8.215   1.894  2.3916 -3.5158 -2.7914
   79MOL0     H10888   3.497   8.509   2.030 -0.1639 -2.6273 -0.4865
   79MOL0     H10889   3.323   8.569   2.173  0.2994 -1.0348 -0.3035
   79MOL0     H10890   3.235   8.636   2.439  1.4721 -0.7922 -2.6898
   79MOL0     H10891   3.143   8.565   2.296  1.9514 -0.2009 -1.2045
   79MOL0     H10892   3.014   8.441   2.477  0.9577  0.3049 -3.6950
   79MOL0     H10893   2.989   8.617   2.457  0.8022  0.2472 -1.6011
   79MOL0     H10894   3.126   8.660   2.656  2.6496  1.0797 -4.2287
   79MOL0     H10895   2.989   8.543   2.686 -0.0511 -1.0461 -0.1919
   79MOL0     H10896   3.280   8.441   2.676 -0.1765  2.4665 -1.3472
   79MOL0     H10897   3.122   8.353   2.709  0.1690 -0.7530  1.9004
   79MOL0     H10898   3.169   8.568   3.063 -2.5865 -1.6565  0.8159
   79MOL0     H10899   3.414   8.257   2.444 -0.2456  1.3914  0.7182
   79MOL0     H10900   3.729   8.190   2.330  0.3557 -1.8866 -0.2381
   79MOL0     H10901   3.606   8.093   2.412 -0.8899  0.7483  1.0830
   79MOL0     H10902   3.627   8.065   2.244  1.6803  1.4898 -2.4215
   80MOL0     O10903   8.767   2.835   7.524 -0.3690  0.0046  0.3887
   80MOL0     C10904   8.734   2.948   7.544  0.4189 -0.9046 -0.0804
   80MOL0     O10905   8.702   3.041   7.452  0.3823  0.0592  0.7167
   80MOL0     C10906   8.714   3.004   7.321 -0.5547  0.4112  0.0296
   80MOL0     C10907   8.602   3.003   7.250 -0.4110 -0.2223 -0.1794
   80MOL0     C10908   8.615   2.983   7.112 -1.0564  0.3548  0.7988
   80MOL0     C10909   8.741   2.967   7.039  0.1205  0.0282 -0.2486
   80MOL0     O10910   8.760   2.960   6.904  0.2173  0.4206 -0.0442
   80MOL0     C10911   8.646   2.958   6.817  0.2350 -0.0560  0.6512
   80MOL0     C10912   8.698   2.986   6.666  0.8136  0.2460  0.6352
   80MOL0     C10913   8.587   3.014   6.565  0.5296 -0.5896 -0.3039
   80MOL0     C10914   8.623   2.997   6.419 -0.8066 -0.3969  0.1686
   80MOL0     C10915   8.706   3.115   6.370 -0.5174 -0.0389 -0.3525
   80MOL0     C10916   8.736   3.103   6.218 -0.5411 -1.0949  0.2933
   80MOL0     C10917   8.824   2.984   6.198 -0.9770  0.2988  0.1754
   80MOL0     C10918   8.916   2.999   6.071  0.5389  0.3880 -0.2151
   80MOL0     N10919   8.988   3.126   6.062  0.2980 -0.5728 -0.5937
   80MOL0     C10920   9.049   3.187   6.172  0.0770 -0.0406 -0.1967
   80MOL0     C10921   9.105   3.302   6.120 -0.5440  0.5612  0.0969
   80MOL0     C10922   9.186   3.408   6.195  0.1482  0.0328  0.2174
   80MOL0     C10923   9.313   3.352   6.262  0.0663 -0.1031 -0.4127
   80MOL0     C10924   9.413   3.456   6.300 -0.3665  0.5585  0.2331
   80MOL0     C10925   9.479   3.538   6.189 -0.7004  0.2775  1.3024
   80MOL0     O10926   9.550   3.453   6.090  0.4145 -0.4716 -0.6876
   80MOL0     C10927   9.636   3.362   6.145 -0.2416  1.1078  0.2724
   80MOL0     C10928   9.644   3.247   6.076 -0.8214  0.1684 -0.3571
   80MOL0     C10929   9.730   3.150   6.118 -0.0251  0.0353 -0.6343
   80MOL0     C10930   9.750   3.026   6.025 -0.8317  0.1560 -0.3794
   80MOL0     C10931   9.806   3.175   6.235  0.0907 -0.4796 -0.4886
   80MOL0     C10932   9.921   3.090   6.290  0.1110 -0.2304 -1.1920
   80MOL0     O10933   9.962   3.103   6.423  0.3230 -0.8684 -0.0860
   80MOL0     C10934  10.070   3.022   6.468  0.5952 -0.1675  0.4451
   80MOL0     C10935  10.202   3.070   6.458 -0.2447 -0.4044  0.3675
   80MOL0     C10936  10.308   2.998   6.517  0.3265 -0.3880  0.4049
   80MOL0     C10937  10.280   2.878   6.581  0.0247 -1.4081  0.1141
   80MOL0     O10938  10.395   2.818   6.635  0.6917  0.9055 -0.1888
   80MOL0     C10939  10.377   2.683   6.684 -0.4005 -0.0811  0.0890
   80MOL0     C10940  10.495   2.643   6.765 -0.3690  0.8455  0.4934
   80MOL0     C10941  10.496   2.727   6.899 -0.2203 -0.0079 -0.5473
   80MOL0     C10942  10.586   2.669   7.018 -0.2927 -0.2431  0.3527
   80MOL0     C10943  10.584   2.768   7.137 -0.2809  0.0511 -0.0708
   80MOL0     C10944  10.655   2.899   7.105 -0.0207  0.2252  0.3570
   80MOL0     C10945  10.650   2.994   7.233 -0.2065 -0.1038  0.7256
   80MOL0     C10946  10.734   3.118   7.196 -0.1270 -0.5211 -0.1611
   80MOL0    Cl10947  10.908   3.071   7.214  0.0258  0.1425  0.2110
   80MOL0     C10948  10.150   2.824   6.571  0.2454 -0.3551  0.0699
   80MOL0     C10949  10.046   2.893   6.521 -0.6844 -0.4262  0.5731
   80MOL0     O10950   9.968   3.012   6.210  0.1517  0.0446  0.2406
   80MOL0     C10951   9.798   3.296   6.304  0.1806  0.3285 -0.1574
   80MOL0     C10952   9.717   3.390   6.260  0.2475 -0.3264  0.2895
   80MOL0     N10953   9.073   3.308   5.986 -0.1983  0.6716 -1.4532
   80MOL0     N10954   8.991   3.210   5.958 -0.1986 -0.2442  0.7635
   80MOL0     C10955   8.854   2.949   7.128 -0.0672  0.3613 -0.4305
   80MOL0     C10956   8.845   2.968   7.264  1.4330 -0.1361 -0.4044
   80MOL0     C10957   8.714   2.991   7.685  0.1155  0.4714  0.1929
   80MOL0     C10958   8.641   3.116   7.707 -0.3719 -0.6597 -0.7349
   80MOL0     C10959   8.619   3.169   7.837  0.4672 -0.3889  0.2036
   80MOL0     C10960   8.658   3.091   7.953 -0.6098 -0.0774  0.6783
   80MOL0     O10961   8.615   3.115   8.078  0.3874 -0.3052 -0.1207
   80MOL0     C10962   8.475   3.144   8.085  0.9283 -0.1870  0.8962
   80MOL0     C10963   8.460   3.253   8.191 -0.6469  0.2789 -1.8582
   80MOL0     C10964   8.527   3.387   8.151  0.3904  0.3450  0.7305
   80MOL0     C10965   8.539   3.490   8.266 -0.0458  0.0069  1.1463
   80MOL0     C10966   8.619   3.606   8.237  0.3984  0.1793 -0.0596
   80MOL0     C10967   8.692   3.702   8.219 -0.4066 -0.2750  0.4787
   80MOL0     C10968   8.732   2.973   7.931  0.1700  0.3670 -0.2497
   80MOL0     C10969   8.745   2.910   7.804 -0.0802 -0.9576 -0.5714
   80MOL0     C10970   8.813   2.777   7.792 -0.1875 -0.0667 -0.2269
   80MOL0     H10971   8.507   3.027   7.297 -0.9194 -1.3995 -0.5497
   80MOL0     H10972   8.518   2.988   7.062 -0.4850  0.8826 -0.2979
   80MOL0     H10973   8.590   3.049   6.838  1.9722  1.5319 -1.2064
   80MOL0     H10974   8.582   2.869   6.817 -2.7920  1.9918  0.6734
   80MOL0     H10975   8.766   3.071   6.669  0.6499  0.3994  0.0192
   80MOL0     H10976   8.754   2.902   6.624 -0.8851 -0.5453 -0.1694
   80MOL0     H10977   8.509   2.939   6.582  1.5039 -1.8707 -1.3253
   80MOL0     H10978   8.535   3.111   6.566  0.1163 -0.7039 -2.9079
   80MOL0     H10979   8.667   2.899   6.395 -3.3594 -1.2771 -1.2424
   80MOL0     H10980   8.541   2.993   6.347 -0.7813 -1.0158  0.1699
   80MOL0     H10981   8.798   3.117   6.428 -0.1151 -0.1306 -0.9743
   80MOL0     H10982   8.650   3.209   6.376 -0.8615 -0.0133 -2.7115
   80MOL0     H10983   8.648   3.103   6.153  0.3624  0.7957 -0.9860
   80MOL0     H10984   8.790   3.194   6.193 -1.8758 -0.3878 -0.0916
   80MOL0     H10985   8.761   2.896   6.181  2.2359 -2.4581  1.4486
   80MOL0     H10986   8.886   2.971   6.287 -0.1742  2.7285  0.0254
   80MOL0     H10987   8.979   2.910   6.079 -2.1431 -1.4697  2.0150
   80MOL0     H10988   8.861   2.976   5.980  2.7491 -1.9014 -1.1057
   80MOL0     H10989   9.066   3.141   6.269 -3.6254 -0.5446  0.3616
   80MOL0     H10990   9.121   3.448   6.274 -0.9989 -2.4869  0.6721
   80MOL0     H10991   9.222   3.477   6.119  0.4616  2.3107  2.3331
   80MOL0     H10992   9.285   3.293   6.349 -3.5094  2.3455  0.2993
   80MOL0     H10993   9.364   3.280   6.197  0.7228  1.4240 -1.6637
   80MOL0     H10994   9.353   3.531   6.353 -0.5473  2.7702 -2.8133
   80MOL0     H10995   9.488   3.417   6.369  0.2453 -1.3881 -1.4375
   80MOL0     H10996   9.411   3.606   6.136  3.2682  2.2500 -1.7895
   80MOL0     H10997   9.539   3.612   6.241  0.0943 -0.2030  1.0912
   80MOL0     H10998   9.577   3.225   5.994 -0.5790 -0.4523 -0.3901
   80MOL0     H10999   9.847   3.017   5.976 -0.9760  0.4266 -0.7137
   80MOL0     H11000   9.683   3.029   5.939 -2.7118  1.4200  1.0382
   80MOL0     H11001   9.741   2.931   6.079 -2.1520  0.5027  0.0582
   80MOL0     H11002  10.218   3.156   6.393  0.9832 -1.2333 -0.4681
   80MOL0     H11003  10.412   3.030   6.513  0.1815  0.1568  0.9225
   80MOL0     H11004  10.290   2.663   6.747  1.2417 -2.0211  1.8879
   80MOL0     H11005  10.374   2.621   6.594  1.0725 -0.8677  0.5414
   80MOL0     H11006  10.495   2.535   6.780 -0.8183  0.8073  0.2438
   80MOL0     H11007  10.586   2.664   6.709  1.4547 -2.5407  1.9030
   80MOL0     H11008  10.393   2.731   6.935  0.3830  2.3489  1.1559
   80MOL0     H11009  10.530   2.827   6.870  0.8927 -0.5811 -1.2964
   80MOL0     H11010  10.691   2.657   6.989 -0.6676  0.9726 -1.6824
   80MOL0     H11011  10.545   2.576   7.057 -0.4133 -0.6655 -0.7557
   80MOL0     H11012  10.479   2.799   7.135  0.1192  1.5324 -2.4116
   80MOL0     H11013  10.629   2.732   7.229  2.5448  0.3825 -1.2263
   80MOL0     H11014  10.606   2.944   7.019 -1.0842 -0.1806  0.7351
   80MOL0     H11015  10.762   2.880   7.090  0.5004  2.4824  0.9362
   80MOL0     H11016  10.670   2.929   7.319 -3.1342 -1.4187  0.5248
   80MOL0     H11017  10.547   3.027   7.244 -0.5698 -0.8340 -0.3921
   80MOL0     H11018  10.714   3.209   7.253  0.1490 -1.6006  1.7723
   80MOL0     H11019  10.699   3.144   7.096 -0.4316  2.8363  0.6862
   80MOL0     H11020  10.113   2.729   6.607  0.4627  0.2207  1.9140
   80MOL0     H11021   9.947   2.851   6.508 -0.6543  0.1181 -2.1337
   80MOL0     H11022   9.858   3.313   6.393  1.0658  0.4877 -0.7651
   80MOL0     H11023   9.714   3.484   6.315  1.0686 -0.9473  1.4363
   80MOL0     H11024   8.951   2.931   7.082 -0.1988  0.0502 -0.5956
   80MOL0     H11025   8.932   2.967   7.328  1.3524 -1.8745 -0.2798
   80MOL0     H11026   8.603   3.184   7.631 -0.0266  1.9684  1.3036
   80MOL0     H11027   8.597   3.274   7.854 -1.2689 -0.8171  0.7962
   80MOL0     H11028   8.427   3.172   7.991 -1.5724 -1.8437  1.5622
   80MOL0     H11029   8.426   3.052   8.118 -0.1777  0.1128  0.1717
   80MOL0     H11030   8.506   3.228   8.287  0.4726  0.9624 -2.2052
   80MOL0     H11031   8.352   3.270   8.200 -0.3067  1.6204  0.5778
   80MOL0     H11032   8.623   3.362   8.105  0.3588 -0.4583  1.0765
   80MOL0     H11033   8.464   3.423   8.070 -0.0117 -3.2716 -0.7408
   80MOL0     H11034   8.577   3.444   8.358 -0.2345 -0.6382  0.9110
   80MOL0     H11035   8.439   3.532   8.283 -0.7086 -0.4706 -1.1902
   80MOL0     H11036   8.749   3.786   8.184  1.5377 -1.3747  0.8676
   80MOL0     H11037   8.751   2.926   8.027 -3.6812  2.0981  1.5380
   80MOL0     H11038   8.823   2.724   7.887 -1.4175  2.4998  1.4354
   80MOL0     H11039   8.752   2.717   7.723 -2.3784  1.3899  0.3257
   80MOL0     H11040   8.916   2.791   7.758  0.9740 -0.7338  2.7783
   81MOL0     O11041   7.611   8.463   2.145  0.0338  0.3657  0.3317
   81MOL0     C11042   7.558   8.367   2.091 -0.2282 -0.2603  1.0927
   81MOL0     O11043   7.614   8.279   2.000  0.4423 -0.5209  0.1788
   81MOL0     C11044   7.750   8.298   1.959 -0.1419  0.5699 -0.3968
   81MOL0     C11045   7.816   8.411   1.921 -0.5409 -0.1249 -0.8484
   81MOL0     C11046   7.950   8.412   1.885 -0.4192  0.0625 -0.2990
   81MOL0     C11047   8.027   8.296   1.880 -0.4866  0.4351  0.8273
   81MOL0     O11048   8.146   8.281   1.817 -0.7300 -0.1858 -0.1664
   81MOL0     C11049   8.189   8.391   1.720 -0.0176  0.2427 -1.2574
   81MOL0     C11050   8.335   8.357   1.687 -0.1524  0.6617 -0.4427
   81MOL0     C11051   8.428   8.364   1.811  0.0150  1.1931 -0.1273
   81MOL0     C11052   8.572   8.390   1.787  0.1309  0.7519 -0.1980
   81MOL0     C11053   8.650   8.325   1.893 -0.8913 -0.4783 -0.5923
   81MOL0     C11054   8.783   8.404   1.899 -0.3538  0.1408  0.0290
   81MOL0     C11055   8.875   8.338   2.010 -0.6408  0.0755  0.2170
   81MOL0     C11056   9.006   8.396   2.001  0.1293  0.2900  0.1316
   81MOL0     N11057   9.108   8.355   2.099 -0.2985  0.5362 -0.4662
   81MOL0     C11058   9.169   8.235   2.093 -0.1328  0.6199  0.1272
   81MOL0     C11059   9.246   8.230   2.206  0.7974  0.6242 -0.5034
   81MOL0     C11060   9.338   8.124   2.255  0.4936 -0.5124  0.3073
   81MOL0     C11061   9.476   8.165   2.204  0.4662  0.5327  0.8969
   81MOL0     C11062   9.513   8.100   2.066 -0.1707  0.8418  0.0633
   81MOL0     C11063   9.672   8.113   2.033  0.5917  0.0944  0.6900
   81MOL0     O11064   9.765   8.039   2.115 -0.4186 -0.0148 -0.1542
   81MOL0     C11065   9.900   8.044   2.075  0.7196 -0.1485 -0.1982
   81MOL0     C11066   9.979   7.933   2.109 -0.1967 -0.9469 -1.4732
   81MOL0     C11067  10.116   7.923   2.076  0.4833 -0.4751  0.8093
   81MOL0     C11068  10.209   7.818   2.131 -0.0841 -0.4857 -0.1947
   81MOL0     C11069  10.177   8.034   2.003  0.0233 -0.1962  0.5027
   81MOL0     C11070  10.323   8.046   1.960 -0.0433  0.4398  0.5540
   81MOL0     O11071  10.397   7.927   1.953  0.0274 -0.3563 -0.9783
   81MOL0     C11072  10.531   7.922   1.942 -0.6223  0.1232 -0.3486
   81MOL0     C11073  10.592   7.807   1.886 -0.0605  0.4241  0.0046
   81MOL0     C11074  10.723   7.793   1.861 -1.0362 -1.2161 -0.1858
   81MOL0     C11075  10.812   7.899   1.894  0.6392  0.2376 -0.5876
   81MOL0     O11076  10.946   7.864   1.883  0.2360 -0.3402 -0.7333
   81MOL0     C11077  11.039   7.965   1.923  0.3995 -0.4712  0.3472
   81MOL0     C11078  11.180   7.903   1.942 -0.0202 -0.3887 -0.0066
   81MOL0     C11079  11.276   7.996   2.022 -0.2629 -0.4030  0.3238
   81MOL0     C11080  11.411   7.922   2.052 -0.0400  0.3392 -0.4118
   81MOL0     C11081  11.513   8.014   2.115 -0.3335  1.6172 -0.7639
   81MOL0     C11082  11.651   7.947   2.124  0.1457  0.1218  0.6103
   81MOL0     C11083  11.758   8.060   2.148 -0.0220 -0.3141  0.7651
   81MOL0     C11084  11.862   8.028   2.262  0.1054  0.1156 -0.1645
   81MOL0    Cl11085  11.800   7.973   2.421  0.2941  0.0395  0.0381
   81MOL0     C11086  10.755   8.014   1.956 -0.1962 -0.1119  0.1115
   81MOL0     C11087  10.613   8.030   1.977  0.3146  0.6907 -0.3274
   81MOL0     O11088  10.366   8.161   1.939 -0.3031  0.2577  0.3989
   81MOL0     C11089  10.093   8.146   1.977 -0.7445  0.7913  0.2286
   81MOL0     C11090   9.963   8.155   2.018 -0.3106  0.2246  0.4378
   81MOL0     N11091   9.224   8.348   2.280 -0.8249 -0.1398  0.7253
   81MOL0     N11092   9.145   8.425   2.210  0.3391  0.0127  0.6442
   81MOL0     C11093   7.965   8.178   1.937  0.4319  0.2812 -0.6782
   81MOL0     C11094   7.828   8.181   1.966  0.3445  0.2576 -0.5004
   81MOL0     C11095   7.417   8.348   2.145 -0.2452  0.4746  0.1014
   81MOL0     C11096   7.344   8.456   2.205  0.4456 -0.5102 -0.0724
   81MOL0     C11097   7.209   8.441   2.244 -0.1374  0.0206  0.1936
   81MOL0     C11098   7.147   8.315   2.229  0.2538 -0.2163  0.0132
   81MOL0     O11099   7.020   8.287   2.285  0.3913 -0.0551 -0.0088
   81MOL0     C11100   6.984   8.336   2.414  0.9419 -0.2387 -0.5125
   81MOL0     C11101   6.894   8.250   2.499 -0.5944 -0.1712  0.4490
   81MOL0     C11102   6.756   8.240   2.432  0.1829 -0.2984  0.3252
   81MOL0     C11103   6.639   8.236   2.534 -0.1004  0.0862 -0.0715
   81MOL0     C11104   6.513   8.225   2.460 -0.2899 -0.1115  0.5891
   81MOL0     C11105   6.415   8.231   2.392 -0.2449 -0.4750 -0.9430
   81MOL0     C11106   7.213   8.216   2.169 -0.9785 -0.3067  0.7559
   81MOL0     C11107   7.349   8.229   2.126 -0.8303  0.5677  0.2357
   81MOL0     C11108   7.407   8.110   2.058 -0.5667  0.2665  0.9520
   81MOL0     H11109   7.771   8.510   1.924  3.5697  1.9429 -1.0923
   81MOL0     H11110   7.993   8.505   1.849 -1.5086  0.8749  0.4355
   81MOL0     H11111   8.182   8.482   1.780 -1.6259 -0.9600  0.5473
   81MOL0     H11112   8.124   8.387   1.632 -1.5969  0.0460 -0.1370
   81MOL0     H11113   8.346   8.256   1.645 -1.2955 -0.8506  2.6074
   81MOL0     H11114   8.371   8.431   1.615  0.2219  0.0227 -0.9274
   81MOL0     H11115   8.394   8.442   1.879 -0.2490  0.4181  0.6469
   81MOL0     H11116   8.418   8.268   1.862  3.8159  0.3240 -0.6988
   81MOL0     H11117   8.598   8.353   1.687 -0.1028 -0.4122  0.1606
   81MOL0     H11118   8.593   8.497   1.790 -2.1535  1.2269  1.1091
   81MOL0     H11119   8.684   8.229   1.855 -2.2229 -1.7924  1.3555
   81MOL0     H11120   8.604   8.323   1.992  0.2113 -2.4888 -0.0849
   81MOL0     H11121   8.829   8.403   1.799 -1.2128 -0.1494 -0.3772
   81MOL0     H11122   8.762   8.504   1.937  2.4778  1.0245 -0.4409
   81MOL0     H11123   8.896   8.231   2.005 -0.5672  0.1285 -0.8572
   81MOL0     H11124   8.832   8.363   2.107 -2.5242 -0.9685 -0.2949
   81MOL0     H11125   9.049   8.370   1.904  1.8950  2.0596  0.3609
   81MOL0     H11126   9.003   8.505   2.004  0.5169  0.4087 -2.1743
   81MOL0     H11127   9.169   8.158   2.017 -0.4498 -0.0860  0.8311
   81MOL0     H11128   9.315   8.022   2.222  0.1818 -0.5021  0.4825
   81MOL0     H11129   9.331   8.128   2.364  0.1200 -0.6136  0.2889
   81MOL0     H11130   9.475   8.273   2.191 -0.5175  0.4265 -0.0112
   81MOL0     H11131   9.558   8.137   2.271 -0.7084  0.7621  2.4683
   81MOL0     H11132   9.500   7.991   2.063 -0.7653  0.8902 -3.1719
   81MOL0     H11133   9.458   8.139   1.980 -1.0322  2.5456  1.3283
   81MOL0     H11134   9.684   8.070   1.933 -1.7434 -2.4777  1.4021
   81MOL0     H11135   9.696   8.220   2.038 -3.2197  1.0213  2.6827
   81MOL0     H11136   9.939   7.850   2.166  0.2207  1.5025  2.7987
   81MOL0     H11137  10.159   7.754   2.203 -0.8215  1.8012  1.4560
   81MOL0     H11138  10.287   7.868   2.190 -0.2552 -0.5063  0.0481
   81MOL0     H11139  10.264   7.757   2.059  1.1186  0.8386 -0.4536
   81MOL0     H11140  10.521   7.730   1.856  0.3830  0.2605 -0.6380
   81MOL0     H11141  10.758   7.703   1.813  0.1308 -0.3952 -0.9381
   81MOL0     H11142  11.046   8.042   1.845 -1.4292 -0.8775 -0.2436
   81MOL0     H11143  11.009   8.020   2.014 -4.0262 -1.5559 -0.2451
   81MOL0     H11144  11.175   7.807   1.994  3.0718 -0.1798  0.9017
   81MOL0     H11145  11.219   7.876   1.843 -0.4429 -0.5554 -0.1304
   81MOL0     H11146  11.242   8.017   2.124  0.1603 -0.7998  0.5512
   81MOL0     H11147  11.286   8.083   1.956 -2.5355 -0.3841 -0.0826
   81MOL0     H11148  11.455   7.881   1.960  0.1768  2.7390 -1.4470
   81MOL0     H11149  11.389   7.838   2.118 -3.2129  1.4930  0.1895
   81MOL0     H11150  11.530   8.098   2.047  1.7901 -0.5663 -3.1271
   81MOL0     H11151  11.464   8.042   2.209  2.3385  3.3876  0.2170
   81MOL0     H11152  11.667   7.909   2.023  0.3002 -1.4599  1.2127
   81MOL0     H11153  11.649   7.867   2.198 -2.6442  0.8436  1.4271
   81MOL0     H11154  11.710   8.154   2.178  0.2543  0.0874 -0.0273
   81MOL0     H11155  11.814   8.079   2.056 -0.6174  3.4728  1.0140
   81MOL0     H11156  11.921   8.119   2.268  1.4864 -0.8520  2.0496
   81MOL0     H11157  11.934   7.953   2.226  0.2210  0.2744 -0.2651
   81MOL0     H11158  10.819   8.097   1.984  0.9708 -0.3515 -1.6548
   81MOL0     H11159  10.582   8.119   2.031 -1.8012 -0.3763  0.3236
   81MOL0     H11160  10.144   8.234   1.938 -0.0745  1.4502  2.4326
   81MOL0     H11161   9.912   8.250   2.007 -1.2820 -0.1775  1.3628
   81MOL0     H11162   8.015   8.083   1.923 -0.8105 -0.8136  1.8840
   81MOL0     H11163   7.777   8.089   1.989 -1.3946 -0.0295 -4.6915
   81MOL0     H11164   7.404   8.546   2.218  1.1674 -0.5179 -2.8172
   81MOL0     H11165   7.152   8.523   2.286  1.4526 -0.0452  2.6625
   81MOL0     H11166   7.065   8.361   2.483 -1.4757  3.2066  1.3761
   81MOL0     H11167   6.925   8.426   2.397  3.1899  1.5376  0.5919
   81MOL0     H11168   6.873   8.275   2.604 -4.6554 -0.8013 -0.0503
   81MOL0     H11169   6.948   8.156   2.494  0.6951  0.5340  0.6991
   81MOL0     H11170   6.737   8.318   2.358 -0.2367 -3.3464 -3.0900
   81MOL0     H11171   6.756   8.151   2.368 -3.4793  0.8095 -1.5315
   81MOL0     H11172   6.627   8.327   2.593 -0.2357 -0.0353  0.0905
   81MOL0     H11173   6.659   8.158   2.608 -0.4356 -0.8155 -0.9098
   81MOL0     H11174   6.322   8.233   2.338 -0.3898  0.0121 -0.6828
   81MOL0     H11175   7.166   8.123   2.139 -0.0059 -2.2717  4.6574
   81MOL0     H11176   7.337   8.027   2.064  0.7991 -0.8453  2.5169
   81MOL0     H11177   7.433   8.121   1.953  1.7608 -0.9480  1.3210
   81MOL0     H11178   7.504   8.084   2.103 -0.1918  2.7322  1.7115
   82MOL0     O11179   7.006  10.086   4.433 -0.1308  0.1367 -0.8694
   82MOL0     C11180   6.903  10.143   4.474  0.1753  0.2248 -0.1303
   82MOL0     O11181   6.890  10.287   4.490  0.0235  0.9641 -0.0941
   82MOL0     C11182   7.006  10.354   4.501 -0.1062 -0.1562 -0.0561
   82MOL0     C11183   7.019  10.471   4.422  0.0859  0.5730 -0.1330
   82MOL0     C11184   7.140  10.545   4.423  0.2454 -0.2912  0.1063
   82MOL0     C11185   7.244  10.502   4.500 -0.0372  0.2724 -0.1567
   82MOL0     O11186   7.366  10.569   4.497 -0.1523  0.4869 -0.3215
   82MOL0     C11187   7.427  10.629   4.378  0.4296  0.3506  0.7633
   82MOL0     C11188   7.418  10.782   4.396 -0.4953  0.8137 -0.4095
   82MOL0     C11189   7.545  10.838   4.464 -1.2559 -0.3314  0.5791
   82MOL0     C11190   7.547  10.772   4.604 -0.9300 -0.6189  0.3559
   82MOL0     C11191   7.661  10.839   4.681 -0.4342 -0.8667 -0.1917
   82MOL0     C11192   7.803  10.825   4.620  0.1747  0.6906 -0.0763
   82MOL0     C11193   7.919  10.883   4.711 -0.0838  0.0800  0.5759
   82MOL0     C11194   8.055  10.894   4.643 -1.1876  0.4071 -1.0976
   82MOL0     N11195   8.166  10.917   4.743 -0.5541 -0.2596 -0.2698
   82MOL0     C11196   8.249  11.029   4.760  0.8408  0.3477  0.6713
   82MOL0     C11197   8.346  10.986   4.845  0.3152  0.3856  0.2630
   82MOL0     C11198   8.463  11.071   4.894  0.3535 -0.3472  0.0339
   82MOL0     C11199   8.582  11.044   4.800  0.1925 -0.1622  0.5023
   82MOL0     C11200   8.684  11.154   4.801 -0.0889  0.4088  0.1239
   82MOL0     C11201   8.755  11.180   4.930  0.3094 -0.4951 -0.2166
   82MOL0     O11202   8.806  11.064   4.996  0.0764 -0.4774  0.1333
   82MOL0     C11203   8.934  11.035   4.953  0.4473  0.0388 -0.1485
   82MOL0     C11204   8.948  10.923   4.877  0.8817  0.1429 -0.1155
   82MOL0     C11205   9.071  10.881   4.831 -0.2889  1.0773 -0.8858
   82MOL0     C11206   9.078  10.758   4.736 -0.3963 -0.3190  0.8182
   82MOL0     C11207   9.187  10.950   4.867 -0.4934  0.9485  0.3731
   82MOL0     C11208   9.333  10.907   4.834 -0.4433  0.3392 -0.7715
   82MOL0     O11209   9.431  11.003   4.853  0.6347  0.2295  0.5454
   82MOL0     C11210   9.567  10.959   4.863  0.5046  0.2996  0.0638
   82MOL0     C11211   9.633  10.961   4.992  0.0319 -0.7717  0.6270
   82MOL0     C11212   9.768  10.936   5.001  0.1303 -1.1148 -0.1214
   82MOL0     C11213   9.846  10.916   4.886 -0.2448  0.2318  0.1624
   82MOL0     O11214   9.983  10.899   4.903  0.0714  0.0759  0.7447
   82MOL0     C11215  10.053  11.025   4.904  0.5619 -0.7151 -0.7157
   82MOL0     C11216  10.201  11.005   4.948 -0.3223 -0.3291  0.1769
   82MOL0     C11217  10.221  10.932   5.086 -0.2166 -0.4930 -0.2375
   82MOL0     C11218  10.348  10.850   5.070  0.8771 -0.4302  0.3996
   82MOL0     C11219  10.403  10.802   5.206 -0.6036 -0.3368  0.2028
   82MOL0     C11220  10.544  10.747   5.204  0.3609 -0.0220  0.2092
   82MOL0     C11221  10.569  10.677   5.343 -0.0333  0.8120  0.4732
   82MOL0     C11222  10.585  10.766   5.469 -0.0116  0.4109  0.4303
   82MOL0    Cl11223  10.746  10.850   5.466 -0.0744  0.1097 -0.7018
   82MOL0     C11224   9.777  10.902   4.759 -0.4724  0.7628 -0.7858
   82MOL0     C11225   9.641  10.929   4.754  0.6962  0.5906 -0.2275
   82MOL0     O11226   9.346  10.805   4.769 -0.4828 -0.9403 -0.4316
   82MOL0     C11227   9.166  11.076   4.938 -0.1546  0.8607 -0.0388
   82MOL0     C11228   9.040  11.112   4.977 -0.0960  0.0360  0.4499
   82MOL0     N11229   8.322  10.850   4.880 -0.4522 -1.0560  0.6096
   82MOL0     N11230   8.211  10.813   4.824  0.1888 -0.4925  0.1680
   82MOL0     C11231   7.230  10.390   4.585 -0.2240  0.7489  0.4067
   82MOL0     C11232   7.111  10.318   4.594 -0.1263  0.2282 -0.2947
   82MOL0     C11233   6.783  10.061   4.519 -0.0146 -0.3218 -0.1243
   82MOL0     C11234   6.697  10.127   4.612 -0.0881  0.5016  0.4615
   82MOL0     C11235   6.593  10.063   4.678 -0.2048  0.2141  0.5492
   82MOL0     C11236   6.556   9.931   4.644  0.1460 -0.1361  0.4677
   82MOL0     O11237   6.442   9.884   4.704  0.2689  0.2735  0.5400
   82MOL0     C11238   6.437   9.744   4.713  0.5468 -0.8312 -0.8586
   82MOL0     C11239   6.307   9.696   4.770  0.0972 -0.5039  0.1893
   82MOL0     C11240   6.301   9.711   4.923  0.8997 -0.6982  0.7791
   82MOL0     C11241   6.213   9.826   4.966  0.0414 -0.2503  0.4146
   82MOL0     C11242   6.068   9.821   4.946  0.7395 -0.2226 -0.8940
   82MOL0     C11243   5.947   9.826   4.938 -0.2771 -0.5198 -0.0564
   82MOL0     C11244   6.647   9.865   4.560 -0.0827 -0.2025  0.3206
   82MOL0     C11245   6.758   9.922   4.497 -0.5478  0.0056  0.1136
   82MOL0     C11246   6.843   9.852   4.402 -0.0569 -0.2322  0.1485
   82MOL0     H11247   6.944  10.501   4.350  0.6151 -3.3113 -2.6271
   82MOL0     H11248   7.148  10.618   4.343 -4.0863 -0.4719 -0.7343
   82MOL0     H11249   7.374  10.603   4.285  1.2628 -0.7665  0.5835
   82MOL0     H11250   7.525  10.586   4.358  0.2134  0.2994 -0.2403
   82MOL0     H11251   7.404  10.837   4.303  0.7661 -1.4322 -2.0129
   82MOL0     H11252   7.338  10.812   4.465 -0.8658 -2.2695  0.7026
   82MOL0     H11253   7.637  10.813   4.411 -1.6886 -2.3080  0.6655
   82MOL0     H11254   7.538  10.947   4.463 -1.7057 -0.3355  1.6805
   82MOL0     H11255   7.446  10.774   4.645 -1.6041 -1.1284 -1.1849
   82MOL0     H11256   7.579  10.667   4.603  3.6200  0.5619 -0.2224
   82MOL0     H11257   7.669  10.803   4.784 -1.1171  1.0711  0.5807
   82MOL0     H11258   7.641  10.947   4.675  1.5070 -0.5413 -2.0186
   82MOL0     H11259   7.834  10.724   4.593  1.8955  1.2205 -0.1752
   82MOL0     H11260   7.812  10.882   4.528  2.3805  0.3157 -0.1361
   82MOL0     H11261   7.928  10.827   4.804  0.0820 -1.0723 -0.1163
   82MOL0     H11262   7.890  10.986   4.735 -3.4704 -0.9241  1.4032
   82MOL0     H11263   8.072  10.799   4.592 -1.5455 -0.3203  0.0868
   82MOL0     H11264   8.056  10.984   4.580 -1.9757  1.6128  0.5236
   82MOL0     H11265   8.244  11.119   4.699 -2.8116 -0.2958 -0.2047
   82MOL0     H11266   8.482  11.048   4.999 -2.9785  1.2288  1.1290
   82MOL0     H11267   8.444  11.179   4.894  3.1127  0.2088 -0.4415
   82MOL0     H11268   8.620  10.942   4.799  1.4773  0.1459 -4.0366
   82MOL0     H11269   8.526  11.063   4.708 -2.3774 -0.2184  1.9419
   82MOL0     H11270   8.761  11.120   4.731  0.2346 -1.0124  1.1129
   82MOL0     H11271   8.637  11.248   4.771  1.1948  0.9790 -0.1574
   82MOL0     H11272   8.830  11.259   4.922 -0.5704  0.3642 -0.2064
   82MOL0     H11273   8.680  11.223   4.998 -0.4274 -0.1296 -1.2489
   82MOL0     H11274   8.856  10.870   4.852  1.1133  0.8934 -2.8275
   82MOL0     H11275   9.109  10.661   4.777  0.8038 -2.0259 -3.5886
   82MOL0     H11276   9.143  10.785   4.653 -1.0248  2.8623  1.2154
   82MOL0     H11277   8.982  10.741   4.686  0.4445  0.1856 -1.0248
   82MOL0     H11278   9.574  10.976   5.082  0.7192 -0.7126  1.0774
   82MOL0     H11279   9.823  10.945   5.094 -0.3993 -0.2004  0.1214
   82MOL0     H11280  10.055  11.082   4.810  0.3449  2.3506  1.0120
   82MOL0     H11281  10.011  11.092   4.980  1.6105 -0.3662 -0.4262
   82MOL0     H11282  10.264  10.957   4.872 -1.8484 -0.9461 -0.7547
   82MOL0     H11283  10.243  11.103   4.970  0.1984 -0.5516  0.1943
   82MOL0     H11284  10.138  10.866   5.111 -0.3879 -0.1508  0.1049
   82MOL0     H11285  10.229  10.999   5.172  3.5529  0.3992 -1.0785
   82MOL0     H11286  10.419  10.918   5.024 -0.5853  0.0008 -1.3304
   82MOL0     H11287  10.326  10.759   5.013 -2.4253 -0.1730  1.0566
   82MOL0     H11288  10.407  10.890   5.271  0.6593 -1.7742  2.1586
   82MOL0     H11289  10.336  10.725   5.245 -0.8777 -0.3316 -0.2448
   82MOL0     H11290  10.606  10.836   5.189 -0.3407  0.7667  1.7339
   82MOL0     H11291  10.555  10.677   5.121 -4.2385 -0.4147 -0.3342
   82MOL0     H11292  10.658  10.616   5.328 -0.5898 -0.0828  0.7401
   82MOL0     H11293  10.484  10.610   5.358 -2.5212  3.6751  0.3085
   82MOL0     H11294  10.579  10.709   5.562 -2.5158  1.0736  0.7446
   82MOL0     H11295  10.512  10.847   5.480  0.7752  0.8701  2.6173
   82MOL0     H11296   9.830  10.866   4.672 -0.8036 -1.7581 -0.0526
   82MOL0     H11297   9.576  10.914   4.668 -1.8914  1.5416  1.4642
   82MOL0     H11298   9.254  11.133   4.965 -0.1160 -0.6986  3.7415
   82MOL0     H11299   9.033  11.198   5.043  0.4920 -0.1142  0.7066
   82MOL0     H11300   7.319  10.364   4.641  1.0508 -1.2926 -2.3271
   82MOL0     H11301   7.090  10.236   4.662  0.0556 -1.5910 -2.3279
   82MOL0     H11302   6.712  10.231   4.640  0.9987  0.4831 -0.0255
   82MOL0     H11303   6.543  10.112   4.761  0.8062  0.3643  1.0909
   82MOL0     H11304   6.459   9.702   4.615  0.8796 -2.7306 -0.0267
   82MOL0     H11305   6.505   9.691   4.780  1.2544  1.2861  0.1742
   82MOL0     H11306   6.309   9.589   4.746  0.3472 -0.1451 -1.5674
   82MOL0     H11307   6.219   9.734   4.718  0.0242 -3.3412 -2.0453
   82MOL0     H11308   6.269   9.613   4.961  2.2553 -1.7173 -0.5703
   82MOL0     H11309   6.399   9.731   4.966 -0.1104  2.6261  1.8313
   82MOL0     H11310   6.252   9.911   4.910  0.1707 -1.6135 -1.6815
   82MOL0     H11311   6.229   9.847   5.072 -1.9354  2.2431  0.3072
   82MOL0     H11312   5.840   9.831   4.925 -0.6766  1.3662  2.8988
   82MOL0     H11313   6.618   9.767   4.523 -1.6656  0.2582  0.2589
   82MOL0     H11314   6.803   9.755   4.372 -4.4816  1.2530  0.5812
   82MOL0     H11315   6.851   9.919   4.316 -2.4309  0.7535  0.6172
   82MOL0     H11316   6.942   9.843   4.448  0.0844  1.2611  0.1684
   83MOL0     O11317  10.036   3.552   9.007  0.7161  0.4655  0.0572
   83MOL0     C11318  10.021   3.431   8.986 -0.3768 -0.7022  0.2169
   83MOL0     O11319  10.101   3.328   9.028 -0.2804  0.3464 -0.0335
   83MOL0     C11320  10.218   3.359   9.092 -0.3810 -0.2233 -0.5146
   83MOL0     C11321  10.317   3.440   9.026 -0.4799 -0.5879  0.3177
   83MOL0     C11322  10.443   3.466   9.088 -0.3623  0.6910  0.1587
   83MOL0     C11323  10.452   3.435   9.223  0.1952  0.3273 -0.3070
   83MOL0     O11324  10.561   3.473   9.296  0.3114  0.6779 -0.2685
   83MOL0     C11325  10.694   3.439   9.238  0.4744 -0.7560  0.8127
   83MOL0     C11326  10.807   3.462   9.343  0.2057 -0.3776 -0.1627
   83MOL0     C11327  10.816   3.353   9.436 -0.6470  0.1348  0.1355
   83MOL0     C11328  10.923   3.391   9.537  0.1660  0.5325 -0.7897
   83MOL0     C11329  10.941   3.292   9.657  0.1546 -0.5136 -1.2350
   83MOL0     C11330  11.046   3.332   9.764  0.5977 -0.3942  0.0074
   83MOL0     C11331  11.191   3.305   9.728 -1.0978  0.4682  0.0352
   83MOL0     C11332  11.281   3.297   9.857  0.8190  0.5549  0.4926
   83MOL0     N11333  11.427   3.279   9.837 -0.4351  0.4837  0.5233
   83MOL0     C11334  11.492   3.176   9.887  0.0798  0.1063  0.8667
   83MOL0     C11335  11.610   3.167   9.827 -0.1795  0.0232  0.4478
   83MOL0     C11336  11.703   3.060   9.846 -0.0783  0.3393  0.0095
   83MOL0     C11337  11.815   3.056   9.738 -0.0994  0.5224 -0.9115
   83MOL0     C11338  11.933   3.144   9.787 -0.3467 -0.0472  0.5488
   83MOL0     C11339  12.051   3.054   9.803  0.2113  0.3917 -0.5712
   83MOL0     O11340  12.056   2.978   9.925 -0.2524 -0.2781 -0.3546
   83MOL0     C11341  12.182   2.948   9.967  0.7563 -0.1909 -0.2258
   83MOL0     C11342  12.246   3.036  10.055  0.1705 -0.1453  0.1253
   83MOL0     C11343  12.379   3.001  10.092 -0.1856  0.4329 -0.4254
   83MOL0     C11344  12.434   3.091  10.205 -0.4488  0.5346 -0.2097
   83MOL0     C11345  12.448   2.883  10.055  0.0927 -0.7269 -0.1909
   83MOL0     C11346  12.582   2.835  10.101  0.3540 -0.3936  0.3684
   83MOL0     O11347  12.652   2.759  10.018  0.4363 -0.1547  0.1780
   83MOL0     C11348  12.773   2.701  10.056 -0.1565  0.2611 -0.2118
   83MOL0     C11349  12.778   2.566  10.085 -0.6920 -0.4312  0.1566
   83MOL0     C11350  12.902   2.500  10.107  0.0811  0.0585  0.0985
   83MOL0     C11351  13.028   2.564  10.100 -0.5209 -1.1530 -0.2147
   83MOL0     O11352  13.154   2.519  10.130 -0.7805 -0.3411  0.2595
   83MOL0     C11353  13.160   2.375  10.158 -0.0367  0.1132 -0.1786
   83MOL0     C11354  13.301   2.323  10.135 -0.0200 -0.4718 -1.4661
   83MOL0     C11355  13.389   2.366  10.254 -0.1613  0.2559 -0.0887
   83MOL0     C11356  13.533   2.327  10.235  0.5117  0.3930  0.3749
   83MOL0     C11357  13.611   2.335  10.358  0.0693 -0.2847  0.1431
   83MOL0     C11358  13.590   2.227  10.460 -1.0416  0.8368  0.8797
   83MOL0     C11359  13.667   2.263  10.584 -0.9703  0.5532 -0.7505
   83MOL0     C11360  13.657   2.176  10.702 -0.0952  0.9788  0.6508
   83MOL0    Cl11361  13.710   2.010  10.659  0.1837  0.3283  0.7584
   83MOL0     C11362  13.020   2.704  10.067  0.5106  0.7291 -0.5367
   83MOL0     C11363  12.896   2.773  10.049  0.3137  0.3246  0.9452
   83MOL0     O11364  12.609   2.859  10.222  0.4654  0.4112 -0.1545
   83MOL0     C11365  12.380   2.809   9.950  0.1232  0.7746  0.1604
   83MOL0     C11366  12.248   2.841   9.910 -0.2602 -0.1343 -0.8185
   83MOL0     N11367  11.611   3.270   9.735 -0.9455  0.0594  0.3885
   83MOL0     N11368  11.499   3.331   9.731  0.1804 -0.0411 -0.3823
   83MOL0     C11369  10.352   3.369   9.294  0.4834  0.2807 -0.0180
   83MOL0     C11370  10.236   3.330   9.228  0.2183  0.1879 -0.3302
   83MOL0     C11371   9.886   3.385   8.915 -1.1530 -0.1342  0.0717
   83MOL0     C11372   9.880   3.247   8.890  0.2509  0.6098  0.7365
   83MOL0     C11373   9.764   3.188   8.845  0.5758  0.2816 -0.5919
   83MOL0     C11374   9.649   3.268   8.839 -0.7391  0.7112  0.0866
   83MOL0     O11375   9.541   3.214   8.784 -0.4774 -0.0312 -0.6403
   83MOL0     C11376   9.548   3.133   8.668  0.4922  0.2093 -0.1488
   83MOL0     C11377   9.442   3.190   8.563 -0.0332 -0.5932 -1.0242
   83MOL0     C11378   9.431   3.095   8.446 -0.4183  0.8178 -0.1785
   83MOL0     C11379   9.318   3.116   8.346 -0.4190  0.2691 -0.4198
   83MOL0     C11380   9.208   3.015   8.358  0.6043 -0.0263  0.2914
   83MOL0     C11381   9.131   2.914   8.361  0.0473 -0.5989 -0.0423
   83MOL0     C11382   9.651   3.402   8.869 -0.5083 -0.4154 -0.3548
   83MOL0     C11383   9.764   3.466   8.907  0.2969  0.2385 -0.4228
   83MOL0     C11384   9.766   3.608   8.944  0.0738 -0.0642 -0.4108
   83MOL0     H11385  10.297   3.490   8.932  2.5289  0.3431  0.0799
   83MOL0     H11386  10.520   3.526   9.041 -1.2363 -0.1460 -2.4965
   83MOL0     H11387  10.723   3.505   9.156  2.3621 -0.2397  1.8354
   83MOL0     H11388  10.692   3.335   9.205 -3.0508  0.1033 -2.3925
   83MOL0     H11389  10.897   3.454   9.281 -0.9606 -0.9034 -1.8464
   83MOL0     H11390  10.799   3.555   9.401 -0.2336 -0.5630  0.0786
   83MOL0     H11391  10.718   3.333   9.482 -0.0772 -1.9911  0.5064
   83MOL0     H11392  10.848   3.265   9.380  0.8593  0.1103  0.9900
   83MOL0     H11393  11.017   3.412   9.485  0.2174 -1.6288 -1.6854
   83MOL0     H11394  10.891   3.489   9.575 -1.2272 -0.9000  2.0471
   83MOL0     H11395  10.960   3.199   9.604 -0.8975  0.7350 -4.0110
   83MOL0     H11396  10.845   3.288   9.709 -0.7234 -0.1340 -2.7556
   83MOL0     H11397  11.037   3.431   9.811  2.5635 -0.1219 -0.0940
   83MOL0     H11398  11.029   3.267   9.851  3.6549 -2.6216 -0.8949
   83MOL0     H11399  11.211   3.392   9.665 -3.5050 -2.5946 -5.6966
   83MOL0     H11400  11.214   3.217   9.668 -1.0950 -1.3193  2.5284
   83MOL0     H11401  11.265   3.391   9.910 -0.7125 -0.0425  1.1447
   83MOL0     H11402  11.243   3.215   9.918 -1.5538  1.6469  0.6114
   83MOL0     H11403  11.457   3.099   9.955  3.0757  0.7970  3.4133
   83MOL0     H11404  11.645   2.968   9.828 -1.2624  0.9898  0.3882
   83MOL0     H11405  11.743   3.061   9.947 -0.3120  2.5551  0.1176
   83MOL0     H11406  11.839   2.949   9.733  2.7265  0.9084  1.3262
   83MOL0     H11407  11.783   3.089   9.639  0.6869 -1.3515 -1.8433
   83MOL0     H11408  11.954   3.218   9.709 -2.6566 -0.5693 -0.6665
   83MOL0     H11409  11.923   3.193   9.885  1.1185 -0.4433  0.9162
   83MOL0     H11410  12.058   2.988   9.716 -0.0336  0.2943 -0.5192
   83MOL0     H11411  12.137   3.121   9.801  0.1449  0.4951 -0.0836
   83MOL0     H11412  12.199   3.125  10.095  1.6914  0.3735  0.8360
   83MOL0     H11413  12.447   3.040  10.301  1.2734  0.7361 -0.2991
   83MOL0     H11414  12.353   3.162  10.230 -3.9810 -1.8323 -3.7661
   83MOL0     H11415  12.521   3.149  10.172 -0.2886 -0.1084 -0.9222
   83MOL0     H11416  12.682   2.517  10.095 -0.7036 -0.0832  2.2494
   83MOL0     H11417  12.898   2.398  10.142 -3.3446 -0.0256 -0.1410
   83MOL0     H11418  13.110   2.351  10.252  0.2401  2.4092  0.6215
   83MOL0     H11419  13.099   2.326  10.081 -0.5376 -0.7367  0.7417
   83MOL0     H11420  13.292   2.214  10.133 -2.2400 -0.3719 -0.2769
   83MOL0     H11421  13.352   2.367  10.049  1.7218  1.7316  0.5355
   83MOL0     H11422  13.365   2.319  10.350  4.7294  0.3999  1.5136
   83MOL0     H11423  13.361   2.471  10.266 -1.2335 -0.0724  0.4120
   83MOL0     H11424  13.581   2.390  10.160  1.8465  0.4076  1.2252
   83MOL0     H11425  13.540   2.225  10.194 -1.2753  0.4019 -0.0447
   83MOL0     H11426  13.717   2.344  10.334 -0.3624  0.5232 -1.7014
   83MOL0     H11427  13.588   2.431  10.405  3.0571  0.5252  0.1123
   83MOL0     H11428  13.611   2.126  10.424  0.1563  0.9440  1.2468
   83MOL0     H11429  13.482   2.229  10.481 -1.3282  2.7843 -0.4348
   83MOL0     H11430  13.642   2.363  10.621  1.4047 -0.2624  3.8088
   83MOL0     H11431  13.772   2.277  10.559 -0.2429  1.1687  2.3306
   83MOL0     H11432  13.556   2.176  10.744 -0.1485  0.7866  0.5263
   83MOL0     H11433  13.721   2.214  10.781  1.2189 -1.5793  0.9458
   83MOL0     H11434  13.121   2.746  10.069  0.4921  0.7719  0.7453
   83MOL0     H11435  12.895   2.880  10.037  1.2508  0.2301 -0.0490
   83MOL0     H11436  12.427   2.726   9.898 -1.5340  0.7478 -1.3813
   83MOL0     H11437  12.194   2.766   9.854 -0.7378 -2.3087  2.2589
   83MOL0     H11438  10.380   3.323   9.388 -0.0725 -0.3005 -0.1351
   83MOL0     H11439  10.169   3.258   9.273  2.5905 -0.6099  2.1634
   83MOL0     H11440   9.954   3.175   8.923  1.7543  1.6124 -0.2782
   83MOL0     H11441   9.752   3.082   8.825 -0.6799  0.0286  1.3062
   83MOL0     H11442   9.649   3.145   8.626  1.3147  1.1915  1.9607
   83MOL0     H11443   9.536   3.026   8.682  1.6563  0.2421  1.3496
   83MOL0     H11444   9.471   3.289   8.527 -1.2263 -0.7065 -2.3596
   83MOL0     H11445   9.345   3.187   8.613  1.0470 -1.9910  1.1436
   83MOL0     H11446   9.521   3.110   8.384  0.2964 -0.7499  0.4068
   83MOL0     H11447   9.431   2.993   8.485 -1.3364 -0.0573 -2.2936
   83MOL0     H11448   9.367   3.114   8.248 -1.7494 -0.3099 -1.0965
   83MOL0     H11449   9.276   3.215   8.366  0.8618  0.4975  1.3962
   83MOL0     H11450   9.081   2.820   8.376 -1.3011  0.2906  1.3397
   83MOL0     H11451   9.554   3.451   8.861 -0.5913 -0.6037 -0.5081
   83MOL0     H11452   9.847   3.668   8.902 -0.5490 -0.5809 -2.4950
   83MOL0     H11453   9.667   3.649   8.918 -1.3825 -2.5444  0.8946
   83MOL0     H11454   9.766   3.614   9.053 -1.4667 -1.1095 -0.3201
   84MOL0     O11455   7.500   3.588   4.587  0.2042  0.4986  0.0260
   84MOL0     C11456   7.496   3.574   4.469  0.5918  0.1021 -0.5844
   84MOL0     O11457   7.603   3.542   4.393 -0.9252 -0.2459  0.0587
   84MOL0     C11458   7.727   3.553   4.453 -0.1683  0.7956 -0.4493
   84MOL0     C11459   7.787   3.669   4.471 -0.3248  0.5167 -0.0837
   84MOL0     C11460   7.915   3.679   4.531  0.3022 -0.9591 -0.0012
   84MOL0     C11461   7.981   3.561   4.560 -0.5820 -0.3224 -0.1807
   84MOL0     O11462   8.106   3.556   4.614  0.2978  0.1354 -0.5376
   84MOL0     C11463   8.163   3.682   4.669 -0.9785  0.3976  0.5190
   84MOL0     C11464   8.290   3.644   4.731 -0.3781  0.1833 -0.2384
   84MOL0     C11465   8.378   3.758   4.780 -0.1033 -0.4082  0.1363
   84MOL0     C11466   8.532   3.725   4.780 -0.5289 -0.1988 -0.1232
   84MOL0     C11467   8.618   3.818   4.870  0.2478  0.6692  0.5330
   84MOL0     C11468   8.598   3.821   5.017 -0.5867  0.0265 -0.0346
   84MOL0     C11469   8.725   3.876   5.085  1.0377 -0.2024  0.6969
   84MOL0     C11470   8.731   4.032   5.091 -0.2976  0.1179 -0.6923
   84MOL0     N11471   8.853   4.081   5.152  0.2220 -0.0160 -0.6939
   84MOL0     C11472   8.982   4.081   5.103 -0.0094  0.0063  0.1421
   84MOL0     C11473   9.052   4.131   5.204 -0.8376  0.5983  0.0497
   84MOL0     C11474   9.191   4.172   5.186  0.2632 -0.2162  0.5996
   84MOL0     C11475   9.275   4.062   5.125  0.1765  0.8855  0.2678
   84MOL0     C11476   9.424   4.106   5.144 -0.2193  0.1498 -0.0962
   84MOL0     C11477   9.531   4.019   5.074  0.4976 -0.3892  0.1739
   84MOL0     O11478   9.638   4.093   5.020 -0.6508 -0.2507  0.3120
   84MOL0     C11479   9.745   4.140   5.097  0.7105 -0.2374 -0.2196
   84MOL0     C11480   9.839   4.210   5.020  0.1330  0.3709 -0.1808
   84MOL0     C11481   9.970   4.239   5.070 -0.1024  0.5398 -0.6178
   84MOL0     C11482  10.068   4.292   4.979  0.2471  0.3200 -0.6677
   84MOL0     C11483  10.002   4.221   5.206  0.7853 -0.6395 -0.6527
   84MOL0     C11484  10.131   4.251   5.274  0.3242  0.8943  0.4884
   84MOL0     O11485  10.124   4.219   5.406  0.3634  0.7899 -0.4496
   84MOL0     C11486  10.243   4.236   5.479  0.3030  0.3988 -0.1568
   84MOL0     C11487  10.297   4.136   5.547  0.8175 -0.8891 -0.4819
   84MOL0     C11488  10.417   4.145   5.614 -1.2168 -0.3570 -0.0384
   84MOL0     C11489  10.493   4.265   5.618  0.3279  0.0930 -0.5400
   84MOL0     O11490  10.612   4.272   5.686 -0.0533 -0.6293  0.4437
   84MOL0     C11491  10.645   4.184   5.793  0.3703 -0.7964 -0.1055
   84MOL0     C11492  10.745   4.243   5.897 -0.1426 -0.5141  0.3620
   84MOL0     C11493  10.890   4.261   5.842  0.0835 -0.3925  0.3400
   84MOL0     C11494  10.986   4.269   5.952 -0.1025 -0.3446 -0.1417
   84MOL0     C11495  11.122   4.306   5.901  0.4429  0.2574  0.7188
   84MOL0     C11496  11.236   4.339   5.999  0.4974  0.1705 -0.9014
   84MOL0     C11497  11.364   4.374   5.923 -0.0783 -0.3377  0.8066
   84MOL0     C11498  11.473   4.397   6.019 -1.0215 -0.3313  0.3768
   84MOL0    Cl11499  11.496   4.250   6.122  0.1728  0.1164 -0.0772
   84MOL0     C11500  10.441   4.368   5.548 -0.4445 -0.5412 -0.2278
   84MOL0     C11501  10.317   4.358   5.484  0.2115  0.9727 -0.7314
   84MOL0     O11502  10.235   4.291   5.221  0.5578  0.5377 -0.1803
   84MOL0     C11503   9.895   4.165   5.287 -0.6170  0.4224 -0.5981
   84MOL0     C11504   9.777   4.120   5.229  0.7324 -1.3108 -0.8902
   84MOL0     N11505   8.971   4.160   5.317  0.0065 -0.1768  0.0130
   84MOL0     N11506   8.854   4.134   5.278 -0.0229  0.2501  0.0112
   84MOL0     C11507   7.915   3.444   4.535 -0.2731  0.2204  0.7079
   84MOL0     C11508   7.790   3.434   4.472  0.2259  0.0630 -0.0419
   84MOL0     C11509   7.371   3.590   4.401 -0.0850  0.7644 -0.0477
   84MOL0     C11510   7.366   3.564   4.259  0.0640 -0.3829  0.9518
   84MOL0     C11511   7.247   3.557   4.189  0.3462 -0.0341 -0.2100
   84MOL0     C11512   7.120   3.576   4.257  0.1391 -0.3788  0.1450
   84MOL0     O11513   6.993   3.573   4.205  0.3128 -0.0754 -0.3810
   84MOL0     C11514   6.957   3.522   4.078 -0.2824  0.4857  0.8913
   84MOL0     C11515   6.936   3.641   3.974 -0.2739  0.4702 -0.0782
   84MOL0     C11516   6.865   3.601   3.844 -0.2613  0.7461 -0.6597
   84MOL0     C11517   6.962   3.534   3.746 -0.4499  0.3117  0.2485
   84MOL0     C11518   7.085   3.610   3.730  0.0868  0.2305 -0.5089
   84MOL0     C11519   7.192   3.675   3.727  0.0135  0.1735  0.8336
   84MOL0     C11520   7.125   3.607   4.388  0.4488  0.4665  0.6308
   84MOL0     C11521   7.241   3.609   4.464  0.6889  0.3564  0.2122
   84MOL0     C11522   7.224   3.645   4.605  0.1478  0.0214 -0.9281
   84MOL0     H11523   7.731   3.754   4.433 -1.9213 -1.4093 -2.2853
   84MOL0     H11524   7.964   3.771   4.558  1.3425 -1.7544  0.9029
   84MOL0     H11525   8.107   3.732   4.748  0.4638 -1.3929  2.7951
   84MOL0     H11526   8.183   3.757   4.592  0.7408 -0.0428  0.5022
   84MOL0     H11527   8.267   3.579   4.816 -1.4469  1.0173  0.1379
   84MOL0     H11528   8.346   3.587   4.657  2.9782 -0.7515  2.7210
   84MOL0     H11529   8.356   3.844   4.717  2.4829 -0.5095 -1.0135
   84MOL0     H11530   8.343   3.787   4.880  1.2163 -1.2874  0.8795
   84MOL0     H11531   8.537   3.624   4.820 -1.5133 -1.1768 -2.3102
   84MOL0     H11532   8.572   3.720   4.678  2.1753 -1.1977  0.8842
   84MOL0     H11533   8.630   3.915   4.822  3.5377 -0.8334 -2.1680
   84MOL0     H11534   8.715   3.767   4.864  0.5834  1.3323  0.2545
   84MOL0     H11535   8.508   3.870   5.058  1.2463  1.5676  2.4194
   84MOL0     H11536   8.593   3.717   5.049  3.1123 -0.2475  0.0513
   84MOL0     H11537   8.812   3.848   5.025 -0.2562 -0.7986 -0.9725
   84MOL0     H11538   8.744   3.848   5.189  0.6468 -3.4557 -0.0069
   84MOL0     H11539   8.720   4.092   5.000 -1.0537  2.3257  0.7773
   84MOL0     H11540   8.646   4.060   5.154 -0.1666 -0.8984 -0.0376
   84MOL0     H11541   9.017   4.060   5.002 -0.4067 -1.7982  0.3525
   84MOL0     H11542   9.225   4.206   5.285  0.4828  2.4029 -0.3050
   84MOL0     H11543   9.198   4.264   5.127  2.3702 -0.1675  0.8356
   84MOL0     H11544   9.261   3.966   5.175  2.1066  0.2952 -0.2310
   84MOL0     H11545   9.245   4.051   5.020 -1.2427  2.1763  0.5047
   84MOL0     H11546   9.437   4.207   5.102  3.7317 -0.7022 -1.3526
   84MOL0     H11547   9.451   4.112   5.250 -0.3831 -0.4508 -0.0208
   84MOL0     H11548   9.562   3.939   5.142  1.2054  0.7254  1.2044
   84MOL0     H11549   9.481   3.974   4.989 -1.6292  2.6506 -0.3468
   84MOL0     H11550   9.820   4.224   4.914  1.5346 -1.4718 -0.7426
   84MOL0     H11551  10.096   4.392   5.012  2.1191 -0.3192 -0.2287
   84MOL0     H11552  10.023   4.299   4.879  1.1914  0.1971 -1.1103
   84MOL0     H11553  10.155   4.226   4.969  1.9849  2.1050  1.6755
   84MOL0     H11554  10.245   4.042   5.554  0.8841 -0.9052 -0.2016
   84MOL0     H11555  10.430   4.068   5.690  1.5961 -0.5859 -0.6428
   84MOL0     H11556  10.555   4.172   5.853 -0.0628  1.8928 -0.1104
   84MOL0     H11557  10.682   4.088   5.755  0.4704 -0.4569 -0.8608
   84MOL0     H11558  10.713   4.341   5.935  1.9625 -0.6421  2.6520
   84MOL0     H11559  10.757   4.172   5.978 -0.8020 -1.9891 -0.7902
   84MOL0     H11560  10.897   4.353   5.783 -0.4262 -1.7241 -1.9334
   84MOL0     H11561  10.927   4.183   5.774  1.9384 -0.1077  0.9463
   84MOL0     H11562  10.997   4.170   5.997  0.4215  0.7965  2.4336
   84MOL0     H11563  10.948   4.324   6.038  2.1146 -1.3018  1.5570
   84MOL0     H11564  11.161   4.222   5.842 -0.5109 -1.2859  2.1736
   84MOL0     H11565  11.111   4.399   5.845 -1.0485 -0.6675 -0.6033
   84MOL0     H11566  11.247   4.248   6.058 -0.2390 -1.7826 -3.5926
   84MOL0     H11567  11.197   4.423   6.057 -1.9396 -1.4864  0.0025
   84MOL0     H11568  11.341   4.472   5.879  0.5238 -0.2319  0.7243
   84MOL0     H11569  11.378   4.301   5.843 -2.0984  0.2473 -0.1455
   84MOL0     H11570  11.451   4.479   6.088  0.2208 -0.1618  0.5925
   84MOL0     H11571  11.574   4.417   5.982 -1.0276 -1.0582 -0.0525
   84MOL0     H11572  10.493   4.460   5.523 -0.9234 -0.7355 -2.0338
   84MOL0     H11573  10.274   4.443   5.431  2.4650  2.4269 -0.3556
   84MOL0     H11574   9.908   4.155   5.394  2.6604  1.6322 -0.7663
   84MOL0     H11575   9.707   4.066   5.291  2.8460 -1.8763  1.1400
   84MOL0     H11576   7.979   3.357   4.547 -0.7721 -0.1266  0.8624
   84MOL0     H11577   7.734   3.344   4.450  2.0818 -1.1766  0.0012
   84MOL0     H11578   7.457   3.541   4.205  0.3678 -2.1177  2.1414
   84MOL0     H11579   7.241   3.552   4.080  0.7643 -4.9494 -0.2174
   84MOL0     H11580   7.041   3.472   4.029  0.6654  1.2380  1.6966
   84MOL0     H11581   6.869   3.457   4.083 -0.4953  0.5576 -1.0035
   84MOL0     H11582   7.035   3.684   3.959  0.9908 -1.3238  2.4116
   84MOL0     H11583   6.879   3.722   4.021  0.1648  1.1478 -0.6878
   84MOL0     H11584   6.791   3.527   3.877  0.4364  0.1633 -0.3897
   84MOL0     H11585   6.821   3.682   3.785  3.4411  2.0286 -1.9642
   84MOL0     H11586   6.907   3.534   3.651 -1.3090  0.0576  0.7315
   84MOL0     H11587   6.996   3.433   3.770  3.3773  1.2396 -0.5829
   84MOL0     H11588   7.287   3.725   3.719 -1.0079  1.8913 -1.9519
   84MOL0     H11589   7.033   3.635   4.437  0.7998  0.9731  1.0185
   84MOL0     H11590   7.241   3.753   4.617  1.3099 -0.0770 -1.5992
   84MOL0     H11591   7.120   3.637   4.639  1.1781 -0.5241  2.4244
   84MOL0     H11592   7.281   3.583   4.674  3.5368  3.8561  0.1103
   85MOL0     O11593   9.227   0.889   5.449 -0.0707 -0.2332  0.0760
   85MOL0     C11594   9.231   0.905   5.327 -0.0386 -0.7568 -0.4779
   85MOL0     O11595   9.350   0.933   5.258  1.3006 -0.3200 -0.2152
   85MOL0     C11596   9.447   0.994   5.335 -0.1763 -0.0773 -0.1727
   85MOL0     C11597   9.436   1.135   5.343 -0.9201  0.8652 -0.6980
   85MOL0     C11598   9.533   1.198   5.418 -0.4650  0.4230 -0.5043
   85MOL0     C11599   9.635   1.129   5.491  0.2156  0.8749 -0.0179
   85MOL0     O11600   9.723   1.193   5.576  0.3327  0.8196 -0.3173
   85MOL0     C11601   9.735   1.334   5.571  0.0432 -0.1377  0.1162
   85MOL0     C11602   9.881   1.388   5.585 -0.8880 -0.0293 -0.0073
   85MOL0     C11603   9.945   1.329   5.713  0.2417 -0.5262  0.5616
   85MOL0     C11604  10.053   1.428   5.763  0.8029  0.0530 -0.0038
   85MOL0     C11605  10.174   1.364   5.837 -1.0132  0.3513  0.4171
   85MOL0     C11606  10.248   1.283   5.733  0.6482  0.1942  0.1273
   85MOL0     C11607  10.381   1.232   5.789  0.1394 -0.2740  0.5762
   85MOL0     C11608  10.448   1.134   5.688 -0.1773 -0.5622  0.1044
   85MOL0     N11609  10.569   1.081   5.752 -0.0021 -0.2364  0.1818
   85MOL0     C11610  10.686   1.154   5.765 -0.0933  0.0194 -0.7357
   85MOL0     C11611  10.758   1.059   5.841 -1.0872 -0.1648  0.1831
   85MOL0     C11612  10.909   1.069   5.883 -0.2799 -0.6634 -0.5172
   85MOL0     C11613  10.916   1.060   6.035 -0.9697 -0.1701 -0.1183
   85MOL0     C11614  10.871   1.181   6.118  0.1809  0.4019 -1.2680
   85MOL0     C11615  10.735   1.235   6.099  0.4885  0.1791 -0.3391
   85MOL0     O11616  10.729   1.350   6.183 -0.1630  0.6034 -0.4770
   85MOL0     C11617  10.601   1.406   6.195  0.3057  0.9094  0.1673
   85MOL0     C11618  10.572   1.513   6.109  0.5015 -0.8444 -0.5112
   85MOL0     C11619  10.436   1.563   6.091  0.1791 -0.6354 -0.7005
   85MOL0     C11620  10.409   1.694   6.025  0.3395 -0.4018  0.2972
   85MOL0     C11621  10.328   1.488   6.165  0.0480  0.4173  0.0401
   85MOL0     C11622  10.187   1.527   6.157 -0.4031 -0.2073  0.7334
   85MOL0     O11623  10.143   1.613   6.060 -0.4561  0.0109  0.0502
   85MOL0     C11624  10.015   1.657   6.058 -0.1030 -0.8223 -0.3259
   85MOL0     C11625   9.993   1.795   6.055 -0.4387  0.7368 -0.3527
   85MOL0     C11626   9.861   1.851   6.063  0.3124  0.6192 -0.4426
   85MOL0     C11627   9.749   1.767   6.070 -0.4290 -0.5633  0.2812
   85MOL0     O11628   9.620   1.808   6.076  0.3149  0.3414 -0.9239
   85MOL0     C11629   9.590   1.934   6.008 -0.3446  1.0761 -0.9126
   85MOL0     C11630   9.439   1.931   6.004  0.7192 -0.5837  0.9311
   85MOL0     C11631   9.394   2.032   5.902  0.0826 -0.1458  0.6157
   85MOL0     C11632   9.251   2.069   5.921 -0.2873 -0.0598 -0.6204
   85MOL0     C11633   9.201   2.123   5.783  0.1083 -1.3053 -0.5508
   85MOL0     C11634   9.051   2.166   5.802  0.9684 -0.5705 -0.3363
   85MOL0     C11635   8.975   2.197   5.668 -0.0866 -0.5429 -0.0741
   85MOL0     C11636   9.039   2.314   5.586 -0.8285 -0.5706  1.2632
   85MOL0    Cl11637   9.078   2.458   5.685  0.4575 -0.0830  0.0733
   85MOL0     C11638   9.771   1.628   6.080  0.7709 -0.2886  0.2649
   85MOL0     C11639   9.900   1.571   6.074 -0.0899 -0.2136  0.3581
   85MOL0     O11640  10.114   1.487   6.248 -0.1750 -0.0268  0.2281
   85MOL0     C11641  10.362   1.379   6.245 -0.7245 -0.4768  0.2148
   85MOL0     C11642  10.500   1.343   6.265  1.7229 -0.1635 -0.1129
   85MOL0     N11643  10.697   0.937   5.859  0.1892 -0.2150 -0.0673
   85MOL0     N11644  10.579   0.954   5.806 -0.2121 -0.1665 -0.1497
   85MOL0     C11645   9.638   0.987   5.488  0.5028  0.3991 -0.3880
   85MOL0     C11646   9.545   0.923   5.407 -0.1142  0.3744  0.0416
   85MOL0     C11647   9.094   0.892   5.262 -0.0291  0.6615 -0.9233
   85MOL0     C11648   9.097   0.858   5.133  0.3149 -0.0870  0.7590
   85MOL0     C11649   8.983   0.851   5.042 -0.2446 -0.1055 -0.2557
   85MOL0     C11650   8.864   0.876   5.100 -0.1056 -0.5395 -0.3703
   85MOL0     O11651   8.749   0.864   5.014 -0.6473  0.1452 -0.3932
   85MOL0     C11652   8.617   0.880   5.069 -0.0744  0.1328 -0.4353
   85MOL0     C11653   8.527   0.867   4.943 -0.0020 -0.4423 -0.5447
   85MOL0     C11654   8.385   0.845   4.989  0.5625 -0.1719  0.5544
   85MOL0     C11655   8.298   0.848   4.869 -0.6731 -0.5359 -0.1880
   85MOL0     C11656   8.154   0.817   4.892 -0.0542 -0.2069  0.8309
   85MOL0     C11657   8.040   0.790   4.923  0.1537 -0.2887 -0.5565
   85MOL0     C11658   8.849   0.906   5.239 -0.8380  0.5348 -0.7621
   85MOL0     C11659   8.963   0.916   5.320 -0.6678  1.1622 -0.4401
   85MOL0     C11660   8.937   0.934   5.473  0.4948  0.3285  0.6835
   85MOL0     H11661   9.362   1.183   5.280 -1.0825 -0.4402 -1.5426
   85MOL0     H11662   9.531   1.307   5.425 -0.0929  0.4871 -1.3451
   85MOL0     H11663   9.662   1.383   5.635  2.5324  2.4839  1.1306
   85MOL0     H11664   9.711   1.367   5.469 -4.8069  2.1717  1.6999
   85MOL0     H11665   9.939   1.344   5.504 -1.6763 -2.5049  0.6789
   85MOL0     H11666   9.883   1.497   5.575  0.0158 -0.1703 -1.6018
   85MOL0     H11667   9.874   1.314   5.794 -1.4386 -1.3206 -0.9830
   85MOL0     H11668  10.005   1.241   5.687  3.9312  1.5091  1.4518
   85MOL0     H11669  10.094   1.481   5.676  1.4655  0.8249  0.7676
   85MOL0     H11670  10.007   1.503   5.828  1.0764 -0.2245  0.5072
   85MOL0     H11671  10.138   1.305   5.922 -0.0827 -0.5040  0.2359
   85MOL0     H11672  10.246   1.445   5.855  3.6077 -2.6303 -2.6334
   85MOL0     H11673  10.191   1.199   5.694  1.3047  1.6354 -4.4988
   85MOL0     H11674  10.267   1.341   5.643 -2.0698  1.5860  0.3597
   85MOL0     H11675  10.356   1.170   5.876 -5.0227 -0.9998 -1.0271
   85MOL0     H11676  10.446   1.318   5.808 -3.1969  2.4415  0.6973
   85MOL0     H11677  10.383   1.048   5.671 -0.2019 -0.8891  1.7012
   85MOL0     H11678  10.472   1.181   5.592  3.3792 -1.0785  0.5845
   85MOL0     H11679  10.704   1.248   5.714 -0.4355  0.0730 -0.7586
   85MOL0     H11680  10.949   1.162   5.842 -3.4562  1.3224  0.5788
   85MOL0     H11681  10.969   0.986   5.845 -0.1401 -1.6405  1.6815
   85MOL0     H11682  10.869   0.966   6.066  0.4073 -0.0872  2.4402
   85MOL0     H11683  11.020   1.040   6.060 -1.0134 -0.3658 -0.0916
   85MOL0     H11684  10.865   1.144   6.221 -3.4354  0.6127 -1.3100
   85MOL0     H11685  10.941   1.265   6.115  0.8535 -0.0820  0.0259
   85MOL0     H11686  10.716   1.260   5.994 -0.5555 -1.3717 -0.5571
   85MOL0     H11687  10.657   1.169   6.138  1.4661 -0.2588  0.9552
   85MOL0     H11688  10.649   1.566   6.054 -1.8203  1.2725 -1.9516
   85MOL0     H11689  10.359   1.754   6.101 -0.9037  0.0542 -0.8383
   85MOL0     H11690  10.347   1.695   5.935 -0.5748 -1.8478  0.8679
   85MOL0     H11691  10.505   1.745   6.010  0.0936 -0.2438 -0.8097
   85MOL0     H11692  10.080   1.859   6.055  0.9361 -0.9951 -1.9950
   85MOL0     H11693   9.840   1.956   6.080  1.9119  0.5430  2.7444
   85MOL0     H11694   9.622   2.016   6.073 -2.4688  0.0634  1.6073
   85MOL0     H11695   9.640   1.940   5.912  1.1426 -0.9179 -0.3412
   85MOL0     H11696   9.401   1.828   5.995 -0.4368 -0.0630 -0.7707
   85MOL0     H11697   9.404   1.957   6.104 -2.7043  0.6061 -0.4040
   85MOL0     H11698   9.408   2.000   5.798 -1.3518 -0.1740  0.4144
   85MOL0     H11699   9.453   2.124   5.912 -0.7641  0.6538 -1.3267
   85MOL0     H11700   9.229   2.137   6.003  0.6655  0.3292 -0.6670
   85MOL0     H11701   9.191   1.982   5.949 -1.1637  1.6590  3.7082
   85MOL0     H11702   9.261   2.211   5.757 -0.8537 -0.2152  0.7477
   85MOL0     H11703   9.200   2.051   5.701  3.3277 -1.4866 -0.5550
   85MOL0     H11704   9.046   2.248   5.875 -0.5642 -0.8658 -0.0784
   85MOL0     H11705   9.000   2.080   5.845  1.3724 -1.4726 -1.6106
   85MOL0     H11706   8.873   2.223   5.699 -0.7922  0.5836 -3.0205
   85MOL0     H11707   8.971   2.113   5.598  2.5397  1.1846 -2.5075
   85MOL0     H11708   8.984   2.341   5.496  0.0149 -1.0661  0.5933
   85MOL0     H11709   9.132   2.274   5.545 -0.1383  3.1339 -1.2591
   85MOL0     H11710   9.688   1.559   6.088  0.4485 -0.3977 -2.8621
   85MOL0     H11711   9.912   1.463   6.070  0.0368 -0.3563  2.7881
   85MOL0     H11712  10.281   1.315   6.280 -2.3815  0.4133 -1.7640
   85MOL0     H11713  10.526   1.259   6.328  0.6659 -0.2781  0.1970
   85MOL0     H11714   9.708   0.929   5.548 -0.6752 -0.3952  0.2666
   85MOL0     H11715   9.544   0.815   5.396 -0.7687  0.4803 -1.0672
   85MOL0     H11716   9.191   0.838   5.082 -1.5000  1.3478 -3.6606
   85MOL0     H11717   8.990   0.831   4.935  0.6485 -1.8945  0.1048
   85MOL0     H11718   8.598   0.800   5.141  2.4064 -0.4575 -0.3543
   85MOL0     H11719   8.604   0.977   5.118 -2.5165 -1.1838  1.7781
   85MOL0     H11720   8.548   0.778   4.883 -1.2306  0.0752 -1.8026
   85MOL0     H11721   8.546   0.959   4.888 -0.0734  1.5870  2.5568
   85MOL0     H11722   8.365   0.751   5.041 -1.0411 -0.4334 -0.4884
   85MOL0     H11723   8.357   0.920   5.064  1.4594 -0.2803  1.0114
   85MOL0     H11724   8.338   0.784   4.790 -1.5292 -0.2809 -0.8526
   85MOL0     H11725   8.298   0.949   4.826  1.4026 -1.1151 -1.7704
   85MOL0     H11726   7.937   0.771   4.945 -0.8148  1.6857 -2.9549
   85MOL0     H11727   8.750   0.928   5.276 -0.6864  1.6711 -1.0209
   85MOL0     H11728   8.996   1.016   5.515  4.3825 -1.3848 -0.9495
   85MOL0     H11729   8.831   0.960   5.477  0.6808  0.9636  2.1620
   85MOL0     H11730   8.964   0.840   5.521  0.5541  0.6972  1.3780
   86MOL0     O11731   6.531   8.530   9.469  0.5241  0.2682 -0.2333
   86MOL0     C11732   6.559   8.473   9.365  0.0420 -0.7545  0.1841
   86MOL0     O11733   6.674   8.489   9.298  1.0212 -0.2980 -0.1590
   86MOL0     C11734   6.780   8.536   9.368  0.4044 -0.3719  0.3430
   86MOL0     C11735   6.819   8.671   9.365 -0.4219  0.2388  0.6387
   86MOL0     C11736   6.945   8.712   9.420  0.3932 -0.7614 -0.5422
   86MOL0     C11737   7.032   8.616   9.472  0.9025 -0.2441  0.4132
   86MOL0     O11738   7.158   8.668   9.506  0.1646  0.6129 -0.4109
   86MOL0     C11739   7.217   8.612   9.630 -0.0275  0.2955  0.1622
   86MOL0     C11740   7.326   8.705   9.670 -0.2409 -0.3408  0.6763
   86MOL0     C11741   7.379   8.661   9.809 -0.8385 -0.2984 -0.3230
   86MOL0     C11742   7.489   8.760   9.860  0.3130  0.9640 -0.0809
   86MOL0     C11743   7.597   8.714   9.964 -0.0407 -0.2474 -0.0175
   86MOL0     C11744   7.707   8.814   9.979 -0.2383 -0.4394 -0.2083
   86MOL0     C11745   7.791   8.794  10.106  0.4202  0.3163 -0.0757
   86MOL0     C11746   7.899   8.894  10.109  0.1732  0.4134  0.1724
   86MOL0     N11747   7.970   8.901  10.240  0.1909  0.5757  0.0734
   86MOL0     C11748   7.905   8.935  10.362 -0.2837 -0.5744  0.0917
   86MOL0     C11749   7.999   8.911  10.463  0.0210 -0.0814  0.2632
   86MOL0     C11750   7.981   8.932  10.611  0.0997  0.0166  0.1416
   86MOL0     C11751   8.081   9.035  10.647  0.0555 -0.1706  0.0096
   86MOL0     C11752   8.084   9.085  10.786  0.5941  0.0249  0.5916
   86MOL0     C11753   8.118   8.977  10.884 -0.1470  0.2558 -0.9669
   86MOL0     O11754   8.168   9.042  11.009 -0.1918 -0.0705 -0.1800
   86MOL0     C11755   8.187   8.963  11.121 -0.0288 -0.0426 -0.1779
   86MOL0     C11756   8.252   8.840  11.120  0.0236  0.3054  0.4496
   86MOL0     C11757   8.276   8.765  11.240  0.7832 -0.5188 -0.4384
   86MOL0     C11758   8.352   8.641  11.233 -0.5614  0.4402  0.5291
   86MOL0     C11759   8.232   8.820  11.366 -0.5997 -0.2896  0.2936
   86MOL0     C11760   8.255   8.762  11.500 -0.7163 -0.0480  0.0457
   86MOL0     O11761   8.359   8.678  11.505  0.8532  0.0335 -0.5283
   86MOL0     C11762   8.388   8.621  11.628 -0.4755  0.6465 -0.1669
   86MOL0     C11763   8.324   8.508  11.684 -0.7787 -0.3357 -1.1049
   86MOL0     C11764   8.350   8.467  11.818  0.2156 -0.2950  0.0790
   86MOL0     C11765   8.459   8.528  11.888 -0.0031 -0.4032  0.4810
   86MOL0     O11766   8.493   8.498  12.018 -0.0859 -0.5393  0.2765
   86MOL0     C11767   8.426   8.385  12.077  0.3989 -0.0232 -0.6167
   86MOL0     C11768   8.491   8.354  12.215 -0.4570  0.8016 -0.2518
   86MOL0     C11769   8.442   8.445  12.332 -0.1257 -0.2971  0.4395
   86MOL0     C11770   8.477   8.408  12.487 -0.4279  0.2925  0.1817
   86MOL0     C11771   8.613   8.422  12.540 -0.8389 -0.9598  0.0745
   86MOL0     C11772   8.710   8.331  12.465  0.5153  0.6934 -0.0069
   86MOL0     C11773   8.842   8.332  12.528  0.1348  0.3587  0.8871
   86MOL0     C11774   8.953   8.256  12.453  0.6052 -0.3789  0.7672
   86MOL0    Cl11775   9.104   8.264  12.538  0.0296  0.0836  0.0255
   86MOL0     C11776   8.525   8.630  11.821  0.3350  0.1027 -0.4354
   86MOL0     C11777   8.490   8.685  11.698  0.2242  0.0683 -0.0432
   86MOL0     O11778   8.196   8.803  11.601  0.7128  0.2429 -0.4086
   86MOL0     C11779   8.167   8.945  11.359 -1.0730  0.7009  0.0783
   86MOL0     C11780   8.144   9.013  11.240 -0.4645 -0.3048 -0.3968
   86MOL0     N11781   8.109   8.854  10.395  0.8792 -0.2063  0.0455
   86MOL0     N11782   8.088   8.847  10.269  0.8795  0.5849  0.3378
   86MOL0     C11783   6.984   8.482   9.487  0.2111  0.9580  0.6958
   86MOL0     C11784   6.862   8.441   9.431 -0.3249 -0.0711 -0.1534
   86MOL0     C11785   6.473   8.381   9.302  1.0762  0.1032 -0.7568
   86MOL0     C11786   6.481   8.243   9.333  0.2057 -0.0866 -0.6039
   86MOL0     C11787   6.378   8.164   9.280  0.0297 -0.9132  0.1855
   86MOL0     C11788   6.285   8.218   9.197 -0.0587  0.4165  0.9546
   86MOL0     O11789   6.171   8.157   9.138 -0.8299 -0.5450 -1.0271
   86MOL0     C11790   6.171   8.015   9.127 -0.0183 -0.1384  0.8871
   86MOL0     C11791   6.087   7.984   8.994 -0.5210  0.3882 -0.5279
   86MOL0     C11792   5.999   7.852   9.005 -0.9552  0.2778  0.0572
   86MOL0     C11793   5.890   7.836   8.904 -0.1194  0.6894 -0.0606
   86MOL0     C11794   5.855   7.688   8.886 -0.2774 -0.4548  0.5607
   86MOL0     C11795   5.826   7.573   8.880 -0.4382  0.4253 -0.7547
   86MOL0     C11796   6.279   8.356   9.168 -0.3936 -0.9388  0.1708
   86MOL0     C11797   6.377   8.432   9.212  0.1703 -0.1713 -0.2923
   86MOL0     C11798   6.375   8.582   9.180  1.0594  0.7607 -0.3072
   86MOL0     H11799   6.742   8.736   9.324  0.3301  0.2801 -0.7935
   86MOL0     H11800   6.965   8.819   9.427 -3.5752  0.0666  0.5699
   86MOL0     H11801   7.269   8.520   9.601  0.0804  0.4503 -0.1384
   86MOL0     H11802   7.145   8.590   9.709 -1.9462 -1.2456 -1.8869
   86MOL0     H11803   7.411   8.695   9.602 -0.6711 -1.4444  0.2708
   86MOL0     H11804   7.296   8.810   9.679 -0.3143 -0.3036  0.0010
   86MOL0     H11805   7.308   8.655   9.892  0.7258 -0.8417  1.0400
   86MOL0     H11806   7.418   8.559   9.808 -2.4766 -0.9697  0.3762
   86MOL0     H11807   7.545   8.785   9.769 -0.5841 -1.2055 -1.3114
   86MOL0     H11808   7.441   8.850   9.898 -2.3127 -0.8773  1.2896
   86MOL0     H11809   7.637   8.620   9.927 -0.6044 -0.5874  0.2191
   86MOL0     H11810   7.548   8.693  10.060  2.0600  0.5126  1.2843
   86MOL0     H11811   7.776   8.820   9.894  0.8858 -1.3614  0.6116
   86MOL0     H11812   7.657   8.912   9.974 -0.2447 -0.2523  2.3194
   86MOL0     H11813   7.843   8.698  10.105  1.2863  0.7522 -1.8389
   86MOL0     H11814   7.733   8.800  10.199  0.5915 -3.3544  0.4253
   86MOL0     H11815   7.964   8.874  10.023  1.7064 -0.2778  1.4434
   86MOL0     H11816   7.861   8.995  10.093  2.9953  1.2100 -2.8081
   86MOL0     H11817   7.805   8.975  10.373  0.3429  0.6841  1.4574
   86MOL0     H11818   7.998   8.837  10.663  0.0544 -0.0567  0.0212
   86MOL0     H11819   7.887   8.977  10.641  0.9093  1.6878  0.2625
   86MOL0     H11820   8.183   8.996  10.632 -0.1129 -1.0011  0.8908
   86MOL0     H11821   8.062   9.125  10.588 -1.7859  0.9954  2.2519
   86MOL0     H11822   8.163   9.161  10.788  2.4907 -1.8530  1.5348
   86MOL0     H11823   7.985   9.128  10.807  1.0929  1.6004 -0.1135
   86MOL0     H11824   8.027   8.921  10.908 -0.1031  1.1660  1.6701
   86MOL0     H11825   8.187   8.905  10.839  1.7193  1.0016  0.5228
   86MOL0     H11826   8.300   8.803  11.030 -0.0260 -2.7217  1.5446
   86MOL0     H11827   8.447   8.635  11.286 -1.7603 -3.3523  2.5449
   86MOL0     H11828   8.378   8.619  11.129  0.7714  0.0956  0.9206
   86MOL0     H11829   8.276   8.572  11.271  0.8813 -0.2810  2.1968
   86MOL0     H11830   8.256   8.454  11.620 -0.3176 -3.5176  0.8750
   86MOL0     H11831   8.302   8.379  11.860  1.9363 -1.4286 -0.2285
   86MOL0     H11832   8.319   8.405  12.086  0.1299  1.1211 -4.6308
   86MOL0     H11833   8.447   8.302  12.010  0.2303  1.5201 -2.6641
   86MOL0     H11834   8.462   8.253  12.247  0.8776  0.8311  1.1530
   86MOL0     H11835   8.599   8.365  12.201 -0.4416 -1.2310 -2.2199
   86MOL0     H11836   8.333   8.439  12.323 -0.2023  1.3872 -0.1416
   86MOL0     H11837   8.453   8.553  12.319  1.3630 -0.2444  1.8253
   86MOL0     H11838   8.441   8.307  12.509  1.1165 -0.1866  0.5982
   86MOL0     H11839   8.412   8.467  12.552 -0.3725 -0.4237  0.8935
   86MOL0     H11840   8.654   8.524  12.547  0.0388 -1.4184  2.3954
   86MOL0     H11841   8.616   8.384  12.642  2.8187  0.2826  0.5982
   86MOL0     H11842   8.710   8.354  12.358  1.2575 -0.4169 -0.2652
   86MOL0     H11843   8.670   8.229  12.475 -1.4304  1.5759  2.0739
   86MOL0     H11844   8.833   8.283  12.626  2.0352 -0.2946  0.7727
   86MOL0     H11845   8.871   8.437  12.534  0.6574  0.2534  0.1738
   86MOL0     H11846   8.967   8.297  12.352 -0.3200 -1.3479  0.2333
   86MOL0     H11847   8.914   8.156  12.433  0.4322 -0.1130 -0.2773
   86MOL0     H11848   8.615   8.665  11.870 -0.1116  0.3481  0.2233
   86MOL0     H11849   8.543   8.761  11.641 -1.7780 -0.5766 -2.9769
   86MOL0     H11850   8.132   8.994  11.450 -0.2658 -0.2928  0.9398
   86MOL0     H11851   8.104   9.114  11.241 -0.1725 -0.1674  1.6213
   86MOL0     H11852   7.047   8.416   9.546 -0.7673 -0.6148  0.0428
   86MOL0     H11853   6.827   8.338   9.427 -1.7914  0.2712  1.8769
   86MOL0     H11854   6.568   8.199   9.379  0.2816 -0.3610 -1.0060
   86MOL0     H11855   6.362   8.061   9.310  3.2168 -1.2420  1.1722
   86MOL0     H11856   6.265   7.962   9.113 -0.8685 -1.0650 -1.9583
   86MOL0     H11857   6.110   7.967   9.204  0.2186  0.8981  1.7403
   86MOL0     H11858   6.152   7.968   8.907 -1.1667  1.6861 -1.2779
   86MOL0     H11859   6.026   8.071   8.968 -0.0346  1.6553  2.1592
   86MOL0     H11860   6.072   7.771   8.996  1.6969  2.5910 -0.4592
   86MOL0     H11861   5.959   7.836   9.106  0.6729 -1.0531  0.5385
   86MOL0     H11862   5.920   7.875   8.807 -0.0113 -0.9279 -0.7195
   86MOL0     H11863   5.801   7.891   8.936  0.6596  3.1932 -1.8939
   86MOL0     H11864   5.791   7.472   8.883  3.3516 -1.0456  0.8303
   86MOL0     H11865   6.203   8.394   9.101  1.3368  0.0834 -1.2968
   86MOL0     H11866   6.323   8.639   9.258  0.4841  0.9709 -0.8363
   86MOL0     H11867   6.476   8.621   9.161  1.7645 -0.7511  0.2150
   86MOL0     H11868   6.324   8.597   9.084 -0.2858 -0.1377  0.2440
   87MOL0     O11869   8.540   6.014   8.664  0.1742 -0.9382  0.2768
   87MOL0     C11870   8.474   5.930   8.719  0.4014  0.0085  0.1195
   87MOL0     O11871   8.515   5.855   8.831  0.8362 -0.2291  0.3130
   87MOL0     C11872   8.641   5.828   8.875  0.0988 -1.0339  1.0818
   87MOL0     C11873   8.755   5.891   8.838 -0.2430  0.1455 -0.5154
   87MOL0     C11874   8.879   5.866   8.898  0.0919 -0.0038  0.3350
   87MOL0     C11875   8.874   5.775   9.007  0.4671  0.4563 -0.5447
   87MOL0     O11876   8.990   5.729   9.075  0.7255  0.8209 -0.1487
   87MOL0     C11877   9.116   5.769   9.032  0.5915 -1.2035  0.1469
   87MOL0     C11878   9.223   5.684   9.086 -0.1944  0.7051  0.7245
   87MOL0     C11879   9.371   5.746   9.057  0.1959  0.1890 -0.3086
   87MOL0     C11880   9.484   5.649   9.125  0.1481 -0.3946  1.2441
   87MOL0     C11881   9.619   5.689   9.067  0.4705 -0.8777  0.6297
   87MOL0     C11882   9.739   5.601   9.107 -0.3774  0.6369 -1.0567
   87MOL0     C11883   9.860   5.671   9.054  0.5317  0.5888 -0.6742
   87MOL0     C11884   9.991   5.580   9.053 -0.4406  0.7720 -0.1361
   87MOL0     N11885  10.060   5.559   9.186  0.6170  0.5375  0.9826
   87MOL0     C11886  10.018   5.498   9.295 -0.2299  0.5451  0.3511
   87MOL0     C11887  10.120   5.474   9.377 -0.0452  0.3867 -0.1668
   87MOL0     C11888  10.100   5.399   9.513  0.8995  0.6236 -0.7036
   87MOL0     C11889  10.022   5.486   9.617 -0.0877  0.1327  0.6232
   87MOL0     C11890  10.078   5.632   9.634 -0.2117 -0.2562  0.0567
   87MOL0     C11891  10.225   5.628   9.679  0.9251 -0.9719 -0.1507
   87MOL0     O11892  10.249   5.534   9.786  0.3868 -0.8125 -0.4275
   87MOL0     C11893  10.372   5.534   9.844 -0.8142  0.6143 -0.5024
   87MOL0     C11894  10.474   5.469   9.776 -0.8263 -0.9147 -0.1847
   87MOL0     C11895  10.610   5.482   9.818  0.7907 -1.1126 -0.1524
   87MOL0     C11896  10.717   5.435   9.724  0.3689 -0.0204 -0.3308
   87MOL0     C11897  10.632   5.553   9.944  0.3675 -0.2441 -0.8996
   87MOL0     C11898  10.775   5.591   9.992  0.6349  0.5158 -0.5448
   87MOL0     O11899  10.768   5.669  10.102 -0.8608 -0.1658  0.2221
   87MOL0     C11900  10.872   5.748  10.139 -0.4723 -0.2257 -0.0149
   87MOL0     C11901  10.930   5.836  10.041 -0.4493  0.1467  0.3901
   87MOL0     C11902  11.029   5.929  10.068 -0.3013  0.5163 -1.4985
   87MOL0     C11903  11.072   5.938  10.199 -0.0117 -0.3882  0.1002
   87MOL0     O11904  11.160   6.042  10.235  0.8806 -0.1842 -0.5533
   87MOL0     C11905  11.290   5.992  10.289  0.4396  0.6923  0.1516
   87MOL0     C11906  11.384   6.113  10.311 -0.3956  0.3498 -0.7960
   87MOL0     C11907  11.520   6.066  10.352  0.0092  0.1787 -0.2859
   87MOL0     C11908  11.619   6.180  10.384 -0.4264 -0.2921  0.3282
   87MOL0     C11909  11.757   6.125  10.425  0.3770  0.1618 -1.0036
   87MOL0     C11910  11.871   6.220  10.415 -0.3616  0.7885 -0.6292
   87MOL0     C11911  11.993   6.164  10.493 -0.4741  0.9951  0.2100
   87MOL0     C11912  12.127   6.208  10.442  0.1129  0.2509  0.1497
   87MOL0    Cl11913  12.258   6.140  10.539  0.0317  0.1113 -0.2310
   87MOL0     C11914  11.019   5.857  10.301  0.0683  0.4157  0.1955
   87MOL0     C11915  10.926   5.760  10.271  0.1854 -0.2421  0.5807
   87MOL0     O11916  10.872   5.569   9.926  0.9760  0.8297  0.5178
   87MOL0     C11917  10.518   5.594  10.022  0.1482 -0.0413 -0.3269
   87MOL0     C11918  10.387   5.589   9.970  0.3551  0.4764  0.4388
   87MOL0     N11919  10.236   5.524   9.319 -0.5642 -1.1875  0.7591
   87MOL0     N11920  10.194   5.572   9.204  0.9427  0.2946 -0.3439
   87MOL0     C11921   8.748   5.724   9.056  0.0014  0.3156  0.3488
   87MOL0     C11922   8.634   5.750   8.983  0.1359  1.2400  0.7658
   87MOL0     C11923   8.337   5.925   8.667 -0.5957  0.4652 -0.8998
   87MOL0     C11924   8.271   5.802   8.691  0.6971 -0.6177 -0.6563
   87MOL0     C11925   8.148   5.779   8.649  0.4537  0.0523 -0.6087
   87MOL0     C11926   8.083   5.869   8.571 -0.2176  0.0437 -0.2585
   87MOL0     O11927   7.962   5.840   8.499 -0.0886 -0.3952 -0.3124
   87MOL0     C11928   7.889   5.718   8.525  0.1447  0.1093 -0.2536
   87MOL0     C11929   7.770   5.740   8.432 -0.3998 -0.2684  0.5870
   87MOL0     C11930   7.672   5.623   8.447 -0.0518  0.7291  0.2220
   87MOL0     C11931   7.697   5.508   8.352 -0.2274  0.5833  0.3623
   87MOL0     C11932   7.611   5.387   8.367 -0.2818  0.5628 -0.6367
   87MOL0     C11933   7.545   5.289   8.386 -0.0654  0.4160 -0.3061
   87MOL0     C11934   8.138   6.000   8.556  0.6909  0.4472  0.2136
   87MOL0     C11935   8.265   6.022   8.599 -0.3504 -0.6476  0.2100
   87MOL0     C11936   8.313   6.168   8.583  0.6378  0.1329  0.3817
   87MOL0     H11937   8.746   5.955   8.750 -0.6474  0.9306  0.0817
   87MOL0     H11938   8.965   5.918   8.857 -0.6315 -0.3403 -1.7029
   87MOL0     H11939   9.133   5.873   9.060 -1.7815 -0.8196  0.3728
   87MOL0     H11940   9.116   5.763   8.923  0.2974  1.0497 -0.0096
   87MOL0     H11941   9.207   5.660   9.192  1.0303  0.9559  0.9835
   87MOL0     H11942   9.211   5.585   9.042 -2.7287 -0.8187  4.3444
   87MOL0     H11943   9.382   5.748   8.948 -2.8111  0.2085 -0.7081
   87MOL0     H11944   9.374   5.850   9.092 -2.6378  1.0747 -2.3308
   87MOL0     H11945   9.479   5.667   9.233 -0.2067  0.0526  1.1585
   87MOL0     H11946   9.457   5.545   9.105 -0.4561 -0.0331  0.0639
   87MOL0     H11947   9.638   5.795   9.084 -0.6283  0.2028 -3.6794
   87MOL0     H11948   9.609   5.691   8.958 -1.2552 -1.3248  0.7586
   87MOL0     H11949   9.737   5.589   9.216 -0.8861  0.4383 -1.0824
   87MOL0     H11950   9.736   5.500   9.065  3.6524  1.6050 -4.3928
   87MOL0     H11951   9.878   5.759   9.117  0.8801  0.6758 -0.8873
   87MOL0     H11952   9.837   5.695   8.949  0.2657 -0.4403 -0.8562
   87MOL0     H11953   9.967   5.482   9.011 -0.0763 -0.2021  1.8166
   87MOL0     H11954  10.074   5.615   8.991 -0.9046 -1.4575 -2.1899
   87MOL0     H11955   9.916   5.469   9.319 -0.1179 -0.7837 -0.6847
   87MOL0     H11956  10.200   5.371   9.549 -0.2150 -2.0954  0.4975
   87MOL0     H11957  10.037   5.310   9.509 -3.2613  3.3125 -1.1204
   87MOL0     H11958   9.917   5.492   9.587 -0.0190 -0.5439  0.2204
   87MOL0     H11959   9.999   5.433   9.709 -2.3396 -2.0323 -1.0453
   87MOL0     H11960  10.052   5.695   9.549 -0.3259  1.3693  1.2492
   87MOL0     H11961  10.022   5.676   9.717  1.2140 -0.2273  1.0444
   87MOL0     H11962  10.281   5.603   9.588 -0.3885 -2.1400 -0.6706
   87MOL0     H11963  10.251   5.731   9.705 -1.6797  0.0733 -1.3430
   87MOL0     H11964  10.446   5.437   9.676  2.3381  1.2955 -1.9518
   87MOL0     H11965  10.749   5.529   9.677  0.1623  0.6014  0.7412
   87MOL0     H11966  10.685   5.359   9.652  2.8864 -3.4256  1.8237
   87MOL0     H11967  10.798   5.383   9.775 -0.4647  0.4751  1.5746
   87MOL0     H11968  10.908   5.836   9.934 -0.5124 -1.1936  0.3814
   87MOL0     H11969  11.053   6.000   9.990  0.3435 -0.1882 -1.9534
   87MOL0     H11970  11.267   5.928  10.375 -0.5906  1.3962  0.4154
   87MOL0     H11971  11.339   5.931  10.212 -2.0236  2.0419 -2.6682
   87MOL0     H11972  11.403   6.154  10.211  0.3525 -1.1802 -1.3182
   87MOL0     H11973  11.335   6.186  10.375  0.6220  0.2223  0.1513
   87MOL0     H11974  11.562   6.002  10.274  2.5075  2.2814 -0.8207
   87MOL0     H11975  11.501   6.012  10.446 -0.3744  0.6796 -0.0740
   87MOL0     H11976  11.591   6.237  10.473  1.4381 -1.1076  1.5038
   87MOL0     H11977  11.627   6.247  10.297 -2.7213 -4.1153 -3.1867
   87MOL0     H11978  11.754   6.083  10.526  2.5441 -0.2726 -1.0646
   87MOL0     H11979  11.779   6.035  10.367 -1.9783 -1.0676 -0.1236
   87MOL0     H11980  11.840   6.309  10.469  0.1955  1.7214 -1.7917
   87MOL0     H11981  11.894   6.251  10.313 -0.3088  0.4984 -0.7060
   87MOL0     H11982  11.992   6.054  10.495  0.2928  0.9432 -1.1102
   87MOL0     H11983  11.985   6.202  10.596 -1.7509  1.6728 -0.1129
   87MOL0     H11984  12.127   6.317  10.445 -2.3425  0.2699  2.1960
   87MOL0     H11985  12.150   6.174  10.340  1.5035  0.8656  0.2321
   87MOL0     H11986  11.043   5.879  10.404 -3.2049  1.4112  0.8734
   87MOL0     H11987  10.877   5.706  10.351 -0.8902  2.2540  1.7044
   87MOL0     H11988  10.527   5.652  10.113 -2.0769 -0.8644  0.5001
   87MOL0     H11989  10.312   5.646  10.023  1.3281  3.0962 -0.8374
   87MOL0     H11990   8.752   5.660   9.144  1.1096  1.2369  0.9948
   87MOL0     H11991   8.534   5.716   9.006 -0.4162 -0.8025 -3.5415
   87MOL0     H11992   8.315   5.717   8.742 -1.6112 -0.6028  1.5665
   87MOL0     H11993   8.108   5.680   8.667  4.4842 -1.6075  0.4766
   87MOL0     H11994   7.955   5.642   8.483 -0.3063 -0.6940  0.4785
   87MOL0     H11995   7.868   5.706   8.631  2.8479 -3.1577  0.0451
   87MOL0     H11996   7.802   5.750   8.328  0.1024 -1.0291  0.6617
   87MOL0     H11997   7.719   5.832   8.460 -0.1589 -0.0475  0.3031
   87MOL0     H11998   7.668   5.592   8.552 -0.9220 -1.7266 -0.4595
   87MOL0     H11999   7.576   5.671   8.429  0.3767  2.3351  1.9370
   87MOL0     H12000   7.799   5.469   8.363 -1.1595 -2.4379 -0.6508
   87MOL0     H12001   7.699   5.550   8.250  0.1640 -0.2191  0.0295
   87MOL0     H12002   7.486   5.203   8.408 -0.6423  0.7999 -0.3502
   87MOL0     H12003   8.086   6.078   8.501  2.3032  2.2489  1.1193
   87MOL0     H12004   8.362   6.213   8.671 -0.4580  0.8262  0.6545
   87MOL0     H12005   8.380   6.178   8.497 -2.6537  1.2400 -2.2575
   87MOL0     H12006   8.232   6.236   8.555 -0.1802 -0.4512  1.2549
   88MOL0     O12007   9.922   1.371   8.530  0.2936  0.6666 -0.0298
   88MOL0     C12008   9.880   1.258   8.510 -0.7212 -0.0921 -0.6500
   88MOL0     O12009   9.964   1.149   8.505 -0.0155 -0.1711 -0.0425
   88MOL0     C12010  10.101   1.179   8.508 -0.8334 -0.3383 -0.6478
   88MOL0     C12011  10.174   1.112   8.596 -0.3110  0.8311 -0.0469
   88MOL0     C12012  10.310   1.129   8.612 -0.0168 -0.3923 -0.2611
   88MOL0     C12013  10.368   1.243   8.543  0.0734  0.1057  0.5490
   88MOL0     O12014  10.495   1.297   8.571 -0.3855  0.0171 -0.1540
   88MOL0     C12015  10.574   1.239   8.681 -0.6038 -0.0069  1.0507
   88MOL0     C12016  10.704   1.331   8.703  0.2262 -0.1716  0.9909
   88MOL0     C12017  10.786   1.306   8.576  0.0293  0.1594  0.3565
   88MOL0     C12018  10.900   1.410   8.555  0.4914  0.4503 -0.0876
   88MOL0     C12019  10.976   1.387   8.427  0.5364 -0.3596 -0.2432
   88MOL0     C12020  11.049   1.261   8.422 -0.4718  0.7890  0.7531
   88MOL0     C12021  11.142   1.231   8.544  1.0265  0.3921  0.3286
   88MOL0     C12022  11.240   1.347   8.589  0.7473 -0.9941 -0.4683
   88MOL0     N12023  11.333   1.290   8.690  0.0614  0.3813  0.1752
   88MOL0     C12024  11.442   1.368   8.732 -0.1259 -0.2545 -0.3938
   88MOL0     C12025  11.508   1.272   8.805 -0.4079 -0.5995 -0.3553
   88MOL0     C12026  11.641   1.282   8.888  1.0848 -0.0414  1.0197
   88MOL0     C12027  11.727   1.170   8.855  1.0191 -0.2641 -0.2254
   88MOL0     C12028  11.857   1.188   8.934 -0.7362 -0.3735  0.2734
   88MOL0     C12029  11.956   1.071   8.910 -0.0434  0.7450  0.2248
   88MOL0     O12030  12.026   1.027   9.029 -0.1390  0.5449  0.5113
   88MOL0     C12031  12.144   1.085   9.050 -0.2347  1.2964  0.1300
   88MOL0     C12032  12.249   1.000   9.093 -0.2952 -0.1510 -0.1708
   88MOL0     C12033  12.381   1.050   9.125  0.4482 -0.2434  0.3052
   88MOL0     C12034  12.495   0.956   9.132 -0.2655 -0.0731  0.3322
   88MOL0     C12035  12.399   1.190   9.131 -0.3508 -0.1015  0.2271
   88MOL0     C12036  12.528   1.259   9.167  0.3078 -0.8584 -0.9301
   88MOL0     O12037  12.536   1.396   9.139  0.2031  0.1314 -0.1452
   88MOL0     C12038  12.657   1.454   9.160  0.0073  0.8873  0.6468
   88MOL0     C12039  12.690   1.489   9.285  1.0257 -0.1131  0.4350
   88MOL0     C12040  12.814   1.546   9.318 -0.6860  0.4555  0.3137
   88MOL0     C12041  12.906   1.569   9.215  0.2040  0.1038  0.0405
   88MOL0     O12042  13.026   1.636   9.239 -0.0575  0.2871  0.0738
   88MOL0     C12043  13.075   1.636   9.372 -0.1478 -1.0657  0.2212
   88MOL0     C12044  13.204   1.717   9.387  0.3187  0.0134  0.0926
   88MOL0     C12045  13.274   1.709   9.519 -0.4078  0.2612 -0.4858
   88MOL0     C12046  13.325   1.570   9.553  0.2670 -0.4946  0.3503
   88MOL0     C12047  13.415   1.572   9.678 -0.2614  0.5099  0.2878
   88MOL0     C12048  13.343   1.565   9.808  0.3287 -0.0105  0.6416
   88MOL0     C12049  13.292   1.432   9.848  0.5189  0.5383 -0.0213
   88MOL0     C12050  13.212   1.442   9.980 -0.0092  0.3840  0.5597
   88MOL0    Cl12051  13.044   1.483   9.925  0.0444  0.0009 -0.1270
   88MOL0     C12052  12.870   1.532   9.087 -0.9510  0.4539  0.2255
   88MOL0     C12053  12.752   1.470   9.057  0.7996 -0.6010  0.0603
   88MOL0     O12054  12.611   1.195   9.228 -0.0975  0.3586  0.2753
   88MOL0     C12055  12.286   1.278   9.102 -0.0200  0.3335  0.0645
   88MOL0     C12056  12.164   1.222   9.072 -0.0512  0.1567  0.4561
   88MOL0     N12057  11.438   1.151   8.810 -0.3283  0.1782 -0.6527
   88MOL0     N12058  11.326   1.168   8.753 -0.3810  0.1561  0.1794
   88MOL0     C12059  10.297   1.298   8.438  0.4765  0.0457  1.0366
   88MOL0     C12060  10.162   1.268   8.418 -0.0238 -0.1353 -0.5932
   88MOL0     C12061   9.737   1.246   8.470 -0.5004 -0.3584  0.9108
   88MOL0     C12062   9.703   1.168   8.356 -0.5988 -0.1551 -0.0123
   88MOL0     C12063   9.574   1.155   8.307 -0.4182 -0.1337 -0.4287
   88MOL0     C12064   9.467   1.197   8.385  0.6158 -0.5458  1.0554
   88MOL0     O12065   9.334   1.175   8.370  0.4124 -0.0382  0.4641
   88MOL0     C12066   9.292   1.153   8.231 -0.1837 -0.2020 -0.2586
   88MOL0     C12067   9.275   1.295   8.159  0.4243 -1.0118 -0.2981
   88MOL0     C12068   9.170   1.386   8.233  0.1776  0.1258 -0.1951
   88MOL0     C12069   9.030   1.335   8.200  0.3439 -0.4115  0.6423
   88MOL0     C12070   8.975   1.394   8.074 -0.0328 -0.2662 -0.2251
   88MOL0     C12071   8.942   1.426   7.960 -0.4959 -0.1396 -0.7527
   88MOL0     C12072   9.497   1.281   8.492 -0.4663 -0.3014 -0.6170
   88MOL0     C12073   9.623   1.298   8.545 -0.6937 -0.1746 -0.2038
   88MOL0     C12074   9.636   1.383   8.669  0.0578  0.6255 -0.5606
   88MOL0     H12075  10.137   1.027   8.653 -1.5105  1.2289 -0.2086
   88MOL0     H12076  10.365   1.069   8.684 -1.4476  1.9636  3.0956
   88MOL0     H12077  10.594   1.135   8.650  2.0790 -0.1121  2.7908
   88MOL0     H12078  10.520   1.236   8.775 -3.3215 -2.8354 -0.4148
   88MOL0     H12079  10.677   1.436   8.713  0.3810 -0.1739  1.4596
   88MOL0     H12080  10.763   1.284   8.782 -2.6426 -3.7059  1.3099
   88MOL0     H12081  10.831   1.208   8.591  1.6206  0.5475 -1.4688
   88MOL0     H12082  10.733   1.301   8.480  1.1233 -1.6231 -0.1985
   88MOL0     H12083  10.867   1.514   8.559 -0.4229  0.1326  1.3062
   88MOL0     H12084  10.965   1.405   8.644 -1.1087 -2.0076  1.0578
   88MOL0     H12085  11.044   1.467   8.398 -0.1077 -0.3168 -1.7633
   88MOL0     H12086  10.904   1.396   8.344 -0.3265  2.6956  0.6992
   88MOL0     H12087  10.981   1.176   8.414  0.6766 -0.0337 -0.9878
   88MOL0     H12088  11.110   1.261   8.331 -0.6752  0.7841  0.6151
   88MOL0     H12089  11.199   1.140   8.527  0.5184  0.0656  0.3279
   88MOL0     H12090  11.068   1.204   8.621  0.5843 -0.5142 -0.3852
   88MOL0     H12091  11.303   1.389   8.510  0.3065 -0.1276 -0.3749
   88MOL0     H12092  11.178   1.425   8.636  1.4730 -0.7342  0.0788
   88MOL0     H12093  11.467   1.468   8.699  1.1954 -0.4958 -0.1848
   88MOL0     H12094  11.613   1.291   8.994  0.3263 -0.0266  0.8252
   88MOL0     H12095  11.685   1.377   8.857  1.1752  0.1477  1.7095
   88MOL0     H12096  11.676   1.077   8.882  0.6373  0.1785  0.6243
   88MOL0     H12097  11.756   1.170   8.750  1.5863 -0.4194 -0.0705
   88MOL0     H12098  11.902   1.280   8.896 -0.7892 -1.0930 -1.6938
   88MOL0     H12099  11.839   1.198   9.041  1.3943  2.9977  0.4324
   88MOL0     H12100  11.900   0.979   8.889  2.3035 -0.1978 -2.5849
   88MOL0     H12101  12.019   1.076   8.821  1.2062 -2.8745  0.7045
   88MOL0     H12102  12.232   0.893   9.102  0.4653 -0.7835 -4.2997
   88MOL0     H12103  12.469   0.870   9.070  1.5129 -0.0685 -0.5002
   88MOL0     H12104  12.501   0.924   9.236 -1.3858  3.2664  1.5695
   88MOL0     H12105  12.588   1.002   9.095 -1.7861  2.1074 -1.0303
   88MOL0     H12106  12.617   1.477   9.364 -1.6026  0.4951 -1.7530
   88MOL0     H12107  12.838   1.567   9.421  0.2929 -0.9235  0.3965
   88MOL0     H12108  13.000   1.675   9.441 -0.7598 -2.4535  0.3778
   88MOL0     H12109  13.100   1.532   9.397  0.3756 -0.7982  0.8647
   88MOL0     H12110  13.271   1.685   9.307 -0.0332 -5.4583  1.5514
   88MOL0     H12111  13.164   1.818   9.373 -0.4089 -0.4467 -1.3498
   88MOL0     H12112  13.206   1.748   9.596 -0.6273 -2.8925  1.0745
   88MOL0     H12113  13.367   1.767   9.517  0.9078 -1.6838  0.7010
   88MOL0     H12114  13.388   1.530   9.474  3.1853  1.2209  1.6306
   88MOL0     H12115  13.241   1.502   9.572  0.7328 -1.0667  0.3800
   88MOL0     H12116  13.494   1.497   9.673 -0.5067  0.0781  2.2630
   88MOL0     H12117  13.465   1.669   9.675 -0.8986  0.8281 -0.3597
   88MOL0     H12118  13.259   1.633   9.793 -0.2071 -0.9246 -0.6109
   88MOL0     H12119  13.405   1.607   9.888  0.3288 -1.7615  1.6022
   88MOL0     H12120  13.373   1.363   9.875 -2.2828 -2.7695  0.7362
   88MOL0     H12121  13.225   1.390   9.772  1.4610 -0.2802 -0.4366
   88MOL0     H12122  13.255   1.516  10.049  0.6403  1.3860 -0.8782
   88MOL0     H12123  13.206   1.350  10.039  0.1909  1.3621  2.1907
   88MOL0     H12124  12.933   1.546   9.000 -1.7613 -1.9228 -0.8485
   88MOL0     H12125  12.740   1.442   8.953 -0.1635 -1.0558  0.2839
   88MOL0     H12126  12.295   1.386   9.103  0.4572  0.4039 -2.6075
   88MOL0     H12127  12.088   1.296   9.049 -1.9871 -2.3366 -1.8068
   88MOL0     H12128  10.343   1.368   8.368 -1.1271 -0.8307 -0.9849
   88MOL0     H12129  10.091   1.314   8.351 -0.7778 -0.2334  0.1241
   88MOL0     H12130   9.791   1.133   8.304  0.5159  0.4159  1.3987
   88MOL0     H12131   9.553   1.101   8.215  1.2392 -0.1501 -0.8284
   88MOL0     H12132   9.358   1.085   8.176 -0.3726 -0.6779  0.0965
   88MOL0     H12133   9.197   1.100   8.228 -0.6007  0.5784 -2.6286
   88MOL0     H12134   9.236   1.294   8.057  0.3542  0.7316 -0.3223
   88MOL0     H12135   9.369   1.352   8.160  1.2506 -2.3027  1.3320
   88MOL0     H12136   9.193   1.376   8.340 -1.0399 -0.7493  0.0023
   88MOL0     H12137   9.187   1.491   8.208 -1.3695  0.5085  0.2601
   88MOL0     H12138   8.965   1.354   8.286  0.4568 -1.0056  0.8669
   88MOL0     H12139   9.030   1.226   8.190 -1.4265 -0.2668 -1.9279
   88MOL0     H12140   8.917   1.465   7.864  0.7623  1.3648 -0.5169
   88MOL0     H12141   9.412   1.325   8.543  0.3524  2.0220 -1.1414
   88MOL0     H12142   9.658   1.487   8.639 -0.3184  0.6338 -0.8137
   88MOL0     H12143   9.539   1.391   8.718  0.3207  1.6814 -0.1744
   88MOL0     H12144   9.718   1.338   8.726 -0.7677 -1.5516 -1.0214
   89MOL0     O12145   5.458   0.025   8.334  0.2394  0.3188 -0.5504
   89MOL0     C12146   5.422  -0.092   8.333 -0.5581  0.5659  0.1223
   89MOL0     O12147   5.501  -0.199   8.384  0.1810 -0.1053 -0.0640
   89MOL0     C12148   5.631  -0.207   8.429  0.1359  0.3210 -0.2243
   89MOL0     C12149   5.724  -0.097   8.414  0.0934  0.4218 -0.2036
   89MOL0     C12150   5.846  -0.103   8.474 -0.8756  0.3599  0.1955
   89MOL0     C12151   5.887  -0.224   8.540 -0.3579 -0.0647 -0.2112
   89MOL0     O12152   6.014  -0.238   8.593  0.0770  0.0396  0.7867
   89MOL0     C12153   6.113  -0.140   8.572 -0.2060 -0.4624 -0.8109
   89MOL0     C12154   6.257  -0.208   8.621  0.8720 -0.1796 -0.6935
   89MOL0     C12155   6.300  -0.327   8.532  0.2877  0.4024 -0.4556
   89MOL0     C12156   6.214  -0.457   8.573  0.0059 -0.7666  1.2369
   89MOL0     C12157   6.281  -0.588   8.525  0.3392 -0.0358 -0.1851
   89MOL0     C12158   6.200  -0.709   8.538  0.4105 -0.2393  0.2676
   89MOL0     C12159   6.258  -0.842   8.489  0.1653  1.0625 -0.2574
   89MOL0     C12160   6.273  -0.867   8.342  1.0027 -0.4514  0.3751
   89MOL0     N12161   6.324  -0.999   8.315  0.0398 -0.6181  0.0564
   89MOL0     C12162   6.435  -1.057   8.375  0.3561 -0.3666 -0.3802
   89MOL0     C12163   6.442  -1.183   8.331 -0.6033  0.0754 -0.0155
   89MOL0     C12164   6.552  -1.276   8.376 -0.2553 -0.2591  0.6886
   89MOL0     C12165   6.660  -1.281   8.268  0.1797 -0.5649 -0.7580
   89MOL0     C12166   6.725  -1.153   8.233  0.9351 -0.4957 -0.1294
   89MOL0     C12167   6.850  -1.181   8.158  0.1743  0.0892  0.1483
   89MOL0     O12168   6.918  -1.056   8.122  0.2539 -0.3627  0.3856
   89MOL0     C12169   7.053  -1.044   8.108  0.2296  0.0678 -0.4017
   89MOL0     C12170   7.102  -0.915   8.081  0.4342 -0.6035  0.7567
   89MOL0     C12171   7.240  -0.887   8.069  0.1112 -0.5003 -0.7262
   89MOL0     C12172   7.262  -0.746   8.027  0.6493  0.8464  0.2033
   89MOL0     C12173   7.337  -0.993   8.078  0.4980 -0.1221 -0.2851
   89MOL0     C12174   7.488  -0.974   8.056  0.5474 -0.7353 -0.1292
   89MOL0     O12175   7.569  -1.060   8.123 -1.0397  0.0179  0.7388
   89MOL0     C12176   7.704  -1.061   8.112  0.1701 -0.3964  0.8048
   89MOL0     C12177   7.770  -1.172   8.172  0.0810  0.0674 -0.9124
   89MOL0     C12178   7.908  -1.186   8.178 -0.6389  0.3619  0.7570
   89MOL0     C12179   7.990  -1.086   8.117  0.3265 -0.0645 -0.5215
   89MOL0     O12180   8.130  -1.105   8.097 -1.0068  0.1215  0.4226
   89MOL0     C12181   8.185  -1.183   8.210  0.6039 -0.2072  0.5273
   89MOL0     C12182   8.339  -1.171   8.214  0.4285  0.1407  0.9186
   89MOL0     C12183   8.400  -1.222   8.081  0.3466 -0.4762 -0.1423
   89MOL0     C12184   8.555  -1.219   8.065 -0.4508  0.0105 -0.5677
   89MOL0     C12185   8.635  -1.139   8.158  0.3562 -0.2804  0.3193
   89MOL0     C12186   8.785  -1.142   8.108 -0.4623 -0.1236 -0.0729
   89MOL0     C12187   8.866  -1.034   8.178 -0.0972 -0.7505  0.5353
   89MOL0     C12188   9.014  -1.060   8.164 -0.1293  0.0178  0.2376
   89MOL0    Cl12189   9.084  -1.078   7.996  0.2850  0.0388  0.5644
   89MOL0     C12190   7.925  -0.973   8.057  0.0355 -0.5031  0.6413
   89MOL0     C12191   7.784  -0.959   8.046  0.1342 -1.2782 -0.6085
   89MOL0     O12192   7.521  -0.892   7.973 -0.0418  0.0977  0.1324
   89MOL0     C12193   7.280  -1.120   8.105  0.1761 -0.1206  0.5429
   89MOL0     C12194   7.144  -1.149   8.112 -0.2906 -0.5670 -0.4944
   89MOL0     N12195   6.333  -1.206   8.251 -0.2890  0.3630  0.1105
   89MOL0     N12196   6.262  -1.097   8.247 -0.4345  0.4487  0.8321
   89MOL0     C12197   5.806  -0.323   8.549 -0.1326 -0.1965  1.0509
   89MOL0     C12198   5.676  -0.322   8.499  0.5561  0.7461  0.8179
   89MOL0     C12199   5.278  -0.131   8.294  0.7841 -0.6320 -0.6858
   89MOL0     C12200   5.235  -0.263   8.317 -0.1760  0.1052 -0.7605
   89MOL0     C12201   5.105  -0.309   8.305  0.3025  0.8658  0.6000
   89MOL0     C12202   5.003  -0.218   8.247  0.5462 -0.5278  0.1066
   89MOL0     O12203   4.878  -0.258   8.206  0.4269 -0.5547 -0.4417
   89MOL0     C12204   4.823  -0.384   8.242 -1.5075 -0.6649 -0.8969
   89MOL0     C12205   4.673  -0.378   8.248 -0.1777 -0.4797 -0.1475
   89MOL0     C12206   4.621  -0.519   8.287 -0.0194  0.5689  0.2182
   89MOL0     C12207   4.471  -0.507   8.269 -0.1473  0.3094 -0.2706
   89MOL0     C12208   4.409  -0.638   8.272  0.4849  0.0577  0.5125
   89MOL0     C12209   4.382  -0.758   8.266 -0.0373  0.1176 -0.4447
   89MOL0     C12210   5.051  -0.094   8.211  0.2876  0.6179  0.3713
   89MOL0     C12211   5.180  -0.051   8.234  0.2965 -0.1471 -0.0973
   89MOL0     C12212   5.209   0.083   8.187  0.1640  0.6138  0.1990
   89MOL0     H12213   5.676  -0.010   8.371 -3.7817 -1.7138 -0.6924
   89MOL0     H12214   5.911  -0.017   8.463  0.1775 -0.6722 -2.4879
   89MOL0     H12215   6.098  -0.053   8.637 -1.8324 -1.4679  0.2587
   89MOL0     H12216   6.113  -0.110   8.467 -0.2563 -1.7787 -1.2116
   89MOL0     H12217   6.336  -0.133   8.608  0.4875 -0.1637 -3.4215
   89MOL0     H12218   6.254  -0.238   8.726  1.7108 -0.3991 -0.7253
   89MOL0     H12219   6.291  -0.302   8.426  0.4801  0.9544 -0.3431
   89MOL0     H12220   6.405  -0.356   8.545 -0.0854 -0.9529 -0.3227
   89MOL0     H12221   6.203  -0.453   8.681  1.7992  0.4696  1.4226
   89MOL0     H12222   6.120  -0.449   8.518  0.8321 -4.7993 -1.1287
   89MOL0     H12223   6.375  -0.604   8.579  1.3535  2.3044 -1.1127
   89MOL0     H12224   6.304  -0.578   8.418 -0.7853  0.6132 -0.3785
   89MOL0     H12225   6.188  -0.719   8.646 -0.0597 -3.2921  0.0013
   89MOL0     H12226   6.102  -0.695   8.491  1.4304  2.6907 -1.2412
   89MOL0     H12227   6.197  -0.927   8.519  2.2074 -0.3863  0.0429
   89MOL0     H12228   6.354  -0.851   8.541 -0.5592 -0.0567  0.9108
   89MOL0     H12229   6.177  -0.854   8.291  2.2536 -2.5354 -2.8283
   89MOL0     H12230   6.332  -0.787   8.298  0.4228  0.4459  1.1983
   89MOL0     H12231   6.517  -1.018   8.434  2.2346 -2.7513 -1.2379
   89MOL0     H12232   6.502  -1.374   8.379  1.1582 -1.2735 -3.2788
   89MOL0     H12233   6.596  -1.260   8.475 -2.0558 -0.2143  1.5124
   89MOL0     H12234   6.731  -1.357   8.303 -0.7074 -1.1018 -0.0949
   89MOL0     H12235   6.605  -1.325   8.184 -2.7471 -1.5389  1.4982
   89MOL0     H12236   6.658  -1.090   8.175 -0.8711 -0.3929  1.9379
   89MOL0     H12237   6.748  -1.085   8.316  3.0350  1.0316 -1.8567
   89MOL0     H12238   6.920  -1.243   8.216 -0.0595  1.3605  1.8566
   89MOL0     H12239   6.824  -1.239   8.069 -2.1187  3.0250 -1.2521
   89MOL0     H12240   7.031  -0.834   8.080  1.1357  0.0696 -1.5109
   89MOL0     H12241   7.314  -0.681   8.099  1.1171 -1.4472  2.0545
   89MOL0     H12242   7.169  -0.695   8.000  0.1534  1.4228  2.7315
   89MOL0     H12243   7.331  -0.734   7.944  1.7094 -0.4934  0.8487
   89MOL0     H12244   7.709  -1.252   8.213 -0.9776  1.4078  0.1784
   89MOL0     H12245   7.955  -1.274   8.220 -0.3273  0.9181  1.5945
   89MOL0     H12246   8.155  -1.148   8.310  2.3918  0.4699  0.8744
   89MOL0     H12247   8.157  -1.288   8.212  1.4295 -0.4958  4.0640
   89MOL0     H12248   8.363  -1.066   8.233 -1.2721  1.0112 -1.2397
   89MOL0     H12249   8.367  -1.233   8.299 -3.2645 -0.6142  1.7652
   89MOL0     H12250   8.365  -1.155   8.002  0.2619  2.1084  1.9271
   89MOL0     H12251   8.349  -1.314   8.051 -1.1284  0.4959 -0.7221
   89MOL0     H12252   8.578  -1.194   7.961  1.9237 -0.5883 -0.2288
   89MOL0     H12253   8.591  -1.322   8.076 -1.8469 -0.6654 -1.8988
   89MOL0     H12254   8.611  -1.033   8.165  1.7126 -0.0362  1.7160
   89MOL0     H12255   8.634  -1.181   8.259 -0.9727  1.0350  0.8850
   89MOL0     H12256   8.794  -1.114   8.003  0.5124  0.1511  0.0685
   89MOL0     H12257   8.823  -1.244   8.119  0.9475  0.1002 -2.2159
   89MOL0     H12258   8.832  -1.016   8.281  0.6902  1.4653  0.4693
   89MOL0     H12259   8.848  -0.934   8.135  4.7450  0.8517  1.6386
   89MOL0     H12260   9.041  -1.154   8.212 -1.3519 -1.3036 -1.5512
   89MOL0     H12261   9.066  -0.980   8.218 -1.4499  0.8553  0.3306
   89MOL0     H12262   7.975  -0.891   8.006 -1.2532  0.1942  0.4509
   89MOL0     H12263   7.750  -0.868   7.996  0.6979 -1.2507 -0.9479
   89MOL0     H12264   7.352  -1.201   8.103  0.8220  0.4120 -1.9508
   89MOL0     H12265   7.116  -1.253   8.122 -0.5855 -0.5950 -1.4731
   89MOL0     H12266   5.850  -0.414   8.589  4.1328  0.7561 -0.9017
   89MOL0     H12267   5.591  -0.388   8.506 -0.2832  1.8874  1.6875
   89MOL0     H12268   5.309  -0.328   8.361  0.4901  0.7754 -0.8732
   89MOL0     H12269   5.095  -0.416   8.316 -2.1493  0.6765 -2.0970
   89MOL0     H12270   4.861  -0.467   8.181 -4.5098 -2.7224 -0.1933
   89MOL0     H12271   4.846  -0.408   8.346 -1.7160 -2.3725 -1.2105
   89MOL0     H12272   4.660  -0.347   8.144  0.7849  0.7725  0.0845
   89MOL0     H12273   4.633  -0.294   8.306  0.6680  0.1086 -0.4039
   89MOL0     H12274   4.668  -0.596   8.225 -1.2400  0.1172 -0.1909
   89MOL0     H12275   4.649  -0.527   8.393  3.8244  4.8581 -0.1753
   89MOL0     H12276   4.452  -0.467   8.169  1.6913  0.5881 -0.5461
   89MOL0     H12277   4.440  -0.437   8.347  0.3250 -0.1101  0.3040
   89MOL0     H12278   4.359  -0.861   8.249  1.7120 -0.5626  0.9303
   89MOL0     H12279   4.977  -0.032   8.162  0.5089 -0.3052 -1.1938
   89MOL0     H12280   5.312   0.100   8.154  0.1558  0.4806  0.1020
   89MOL0     H12281   5.132   0.113   8.116  1.5868  1.3186 -1.0998
   89MOL0     H12282   5.184   0.143   8.275 -2.2478 -0.5657  0.4085
   90MOL0     O12283   8.667   0.102   4.929  1.1776  0.4672  0.2778
   90MOL0     C12284   8.587   0.121   5.027 -1.4127 -0.1966 -0.2000
   90MOL0     O12285   8.625   0.097   5.159 -0.0644  0.0457 -0.1926
   90MOL0     C12286   8.749   0.050   5.193 -0.2805 -1.1006 -0.7550
   90MOL0     C12287   8.760  -0.039   5.300 -0.0276 -0.3273  0.2548
   90MOL0     C12288   8.888  -0.061   5.358 -0.1318 -0.2687 -0.5254
   90MOL0     C12289   9.002  -0.003   5.301  0.3788 -0.0436  0.0857
   90MOL0     O12290   9.128  -0.026   5.351 -0.0339  0.1933  0.0939
   90MOL0     C12291   9.147   0.039   5.479 -0.3103  1.0845 -0.0098
   90MOL0     C12292   9.295   0.061   5.515 -0.2321  0.8073  0.2678
   90MOL0     C12293   9.369  -0.073   5.503  0.1372 -0.4283 -0.0863
   90MOL0     C12294   9.518  -0.059   5.548 -0.1267 -0.1025  0.5898
   90MOL0     C12295   9.603  -0.182   5.529 -0.3125  0.5673 -0.0814
   90MOL0     C12296   9.751  -0.154   5.570  1.0478 -0.1618 -0.5218
   90MOL0     C12297   9.828  -0.285   5.579 -0.6097  0.7760  0.4215
   90MOL0     C12298   9.958  -0.270   5.658  0.1051 -0.1313 -0.3291
   90MOL0     N12299  10.062  -0.356   5.599  0.4243  0.1198 -0.1894
   90MOL0     C12300  10.053  -0.491   5.604  0.0225 -0.4659  0.0941
   90MOL0     C12301  10.175  -0.531   5.549  0.0049 -1.1654  0.7829
   90MOL0     C12302  10.222  -0.670   5.514 -0.3571  0.1859  0.3884
   90MOL0     C12303  10.253  -0.747   5.642 -0.2832 -0.6183 -0.9210
   90MOL0     C12304  10.299  -0.889   5.617 -0.4467 -0.2111  0.5549
   90MOL0     C12305  10.371  -0.951   5.734  0.4522 -0.8841  0.5407
   90MOL0     O12306  10.510  -0.926   5.725 -0.2607  0.1705  0.0283
   90MOL0     C12307  10.590  -0.924   5.841  0.2134  0.4215 -0.0119
   90MOL0     C12308  10.716  -0.856   5.843  0.4860  0.1320 -0.1954
   90MOL0     C12309  10.793  -0.864   5.964 -0.6116  0.1966  0.1568
   90MOL0     C12310  10.925  -0.794   5.961 -0.4344 -0.0324  0.0836
   90MOL0     C12311  10.741  -0.928   6.080 -0.1838 -0.0269 -0.4466
   90MOL0     C12312  10.817  -0.930   6.212  1.3558 -0.1054 -0.2200
   90MOL0     O12313  10.742  -0.905   6.328  0.1469  1.1017 -0.6004
   90MOL0     C12314  10.803  -0.908   6.457  0.4220 -0.4698 -0.0205
   90MOL0     C12315  10.733  -0.982   6.557 -0.1273 -0.0619 -0.2852
   90MOL0     C12316  10.779  -0.980   6.691  0.3888  0.5598 -0.1308
   90MOL0     C12317  10.893  -0.912   6.727 -0.4080 -0.4518  0.1098
   90MOL0     O12318  10.943  -0.914   6.853 -0.0622  0.7302 -0.1592
   90MOL0     C12319  10.939  -0.795   6.931  0.5364 -0.0978 -0.5304
   90MOL0     C12320  11.075  -0.794   7.005  0.3207  0.3330  0.3078
   90MOL0     C12321  11.188  -0.782   6.911  1.1834 -0.1310  0.0855
   90MOL0     C12322  11.319  -0.779   6.989  0.7029  0.5528  0.3117
   90MOL0     C12323  11.438  -0.733   6.904 -0.1529 -0.0873 -1.2874
   90MOL0     C12324  11.451  -0.791   6.774  0.2553  0.5178  0.2924
   90MOL0     C12325  11.594  -0.767   6.725 -1.0452  0.3405 -0.6118
   90MOL0     C12326  11.623  -0.619   6.725 -0.1493  0.7445 -0.4410
   90MOL0    Cl12327  11.792  -0.609   6.698  0.3549  0.0323  0.3605
   90MOL0     C12328  10.969  -0.842   6.625  0.3061 -0.0026 -0.0666
   90MOL0     C12329  10.920  -0.853   6.494  0.1166 -0.7400  0.2336
   90MOL0     O12330  10.933  -0.959   6.204  0.5951  0.5218  0.2841
   90MOL0     C12331  10.618  -0.978   6.081  0.6017 -0.3646  0.4964
   90MOL0     C12332  10.539  -0.986   5.963 -0.7623 -0.2069  1.1017
   90MOL0     N12333  10.246  -0.412   5.515  0.3652 -0.2906 -0.2144
   90MOL0     N12334  10.176  -0.312   5.554 -1.0883 -0.7047  0.3036
   90MOL0     C12335   8.993   0.078   5.188  0.4856  0.4861 -0.1824
   90MOL0     C12336   8.870   0.110   5.139  0.9474  0.7032  0.4982
   90MOL0     C12337   8.441   0.147   4.999 -0.2008 -0.4128  0.1457
   90MOL0     C12338   8.359   0.180   5.113 -0.0225 -0.3437  0.7222
   90MOL0     C12339   8.220   0.209   5.094 -0.4223 -0.4233  0.1462
   90MOL0     C12340   8.158   0.214   4.972  0.0209  0.0123  0.3719
   90MOL0     O12341   8.023   0.232   4.956 -1.1637 -0.3109 -0.1817
   90MOL0     C12342   7.968   0.346   5.021 -0.9290  0.9491 -0.7022
   90MOL0     C12343   7.850   0.389   4.935  0.2166  0.0019  1.0964
   90MOL0     C12344   7.776   0.513   4.988 -0.8296 -0.2894 -0.0302
   90MOL0     C12345   7.672   0.556   4.888 -0.0398  0.4414  0.2297
   90MOL0     C12346   7.582   0.665   4.929  0.3370  0.0269  0.3407
   90MOL0     C12347   7.512   0.757   4.950 -0.4678 -0.9198  0.8102
   90MOL0     C12348   8.234   0.188   4.857 -0.3029  0.2714  0.1258
   90MOL0     C12349   8.373   0.155   4.870 -0.1508  0.5460 -0.3403
   90MOL0     C12350   8.443   0.126   4.744 -0.0115  0.0858 -0.2027
   90MOL0     H12351   8.678  -0.091   5.349  0.3517 -3.2096 -1.9125
   90MOL0     H12352   8.886  -0.124   5.447  1.3559 -1.5482 -1.3510
   90MOL0     H12353   9.100  -0.023   5.556  1.0817  2.4785  2.0964
   90MOL0     H12354   9.091   0.132   5.475  1.0068  2.0546  2.2911
   90MOL0     H12355   9.338   0.133   5.445 -0.9874 -0.2665 -1.3632
   90MOL0     H12356   9.304   0.112   5.611 -0.6903 -1.0882  1.3538
   90MOL0     H12357   9.328  -0.123   5.591  1.3483  0.3684  0.9733
   90MOL0     H12358   9.347  -0.133   5.414 -3.9677  1.6443 -0.6923
   90MOL0     H12359   9.559   0.027   5.495 -0.8228 -0.1205  0.0099
   90MOL0     H12360   9.526  -0.026   5.652  0.8625 -1.0881  0.8439
   90MOL0     H12361   9.596  -0.225   5.429 -0.0336 -1.4744  0.7369
   90MOL0     H12362   9.556  -0.252   5.599  0.9002  0.4588  0.6595
   90MOL0     H12363   9.809  -0.095   5.498  0.3074  1.0419 -0.1680
   90MOL0     H12364   9.747  -0.107   5.668 -1.0818  0.4489 -0.8320
   90MOL0     H12365   9.854  -0.306   5.475 -0.8627  1.2198  0.2680
   90MOL0     H12366   9.767  -0.367   5.616  2.0662 -1.2862  0.5660
   90MOL0     H12367   9.993  -0.168   5.643 -1.5146  0.1245 -3.3666
   90MOL0     H12368   9.937  -0.293   5.762 -3.1006 -0.8257 -1.0141
   90MOL0     H12369   9.985  -0.563   5.650 -0.4328 -0.0254  0.1115
   90MOL0     H12370  10.317  -0.671   5.458 -0.4566  0.0657  0.2225
   90MOL0     H12371  10.144  -0.722   5.458  2.0175 -1.8811 -1.2256
   90MOL0     H12372  10.335  -0.688   5.684  0.4029 -1.2969 -1.2770
   90MOL0     H12373  10.163  -0.749   5.704  0.4718 -4.4627  0.2650
   90MOL0     H12374  10.210  -0.951   5.608 -1.5692  1.2967  0.9164
   90MOL0     H12375  10.358  -0.898   5.526 -1.8227 -1.0286 -0.2917
   90MOL0     H12376  10.328  -0.908   5.825  0.7473 -1.2526  0.8558
   90MOL0     H12377  10.355  -1.059   5.729 -0.2303 -0.7434 -1.9481
   90MOL0     H12378  10.766  -0.804   5.762  0.7784  2.7133  1.5252
   90MOL0     H12379  10.930  -0.726   6.046 -2.5003 -1.4315  1.4028
   90MOL0     H12380  10.946  -0.741   5.867  1.1932 -0.6597  0.0570
   90MOL0     H12381  11.002  -0.869   5.978 -1.8980 -1.3341  1.3117
   90MOL0     H12382  10.639  -1.031   6.533 -0.8925  1.1688  0.0672
   90MOL0     H12383  10.710  -1.022   6.764 -0.9792 -1.6042 -2.5167
   90MOL0     H12384  10.925  -0.706   6.870 -1.8651 -0.8259 -1.1807
   90MOL0     H12385  10.856  -0.800   7.002  2.6003  1.9983  2.2515
   90MOL0     H12386  11.078  -0.717   7.083 -2.1606  1.4039 -0.5716
   90MOL0     H12387  11.091  -0.891   7.052  1.6563  0.3617 -0.0336
   90MOL0     H12388  11.163  -0.692   6.855 -1.4603 -2.4024 -2.7735
   90MOL0     H12389  11.190  -0.865   6.840 -1.9255 -0.1142 -0.1495
   90MOL0     H12390  11.338  -0.880   7.028 -0.7697  0.9166  2.1330
   90MOL0     H12391  11.300  -0.714   7.075 -1.8003 -1.2119  1.2097
   90MOL0     H12392  11.432  -0.624   6.907  0.8267 -0.0228  0.6551
   90MOL0     H12393  11.528  -0.761   6.961 -1.2800  2.1946  1.8961
   90MOL0     H12394  11.399  -0.736   6.695  2.6541  1.6171 -0.6344
   90MOL0     H12395  11.426  -0.897   6.769 -2.4549  1.1011  0.0648
   90MOL0     H12396  11.608  -0.804   6.624  1.0263  0.8625 -0.5655
   90MOL0     H12397  11.663  -0.819   6.792  0.4151 -0.1653 -2.4285
   90MOL0     H12398  11.611  -0.572   6.824 -2.5289 -1.0281  0.1970
   90MOL0     H12399  11.567  -0.569   6.646  1.5963 -0.4391 -2.5409
   90MOL0     H12400  11.070  -0.804   6.634  0.7085 -0.1249 -2.9896
   90MOL0     H12401  10.986  -0.818   6.415 -1.2583  3.7047  0.8178
   90MOL0     H12402  10.587  -1.023   6.175 -0.4178  0.5850  0.6390
   90MOL0     H12403  10.449  -1.047   5.963  0.0476 -1.6141 -2.5765
   90MOL0     H12404   9.074   0.133   5.142 -0.5239  0.5593 -1.9442
   90MOL0     H12405   8.855   0.182   5.059  1.1533 -0.4771 -0.6290
   90MOL0     H12406   8.403   0.191   5.212 -0.3623  2.1625  0.6740
   90MOL0     H12407   8.155   0.231   5.178 -1.2962 -0.9505 -0.3865
   90MOL0     H12408   7.930   0.317   5.120  0.2381  1.2130 -0.1582
   90MOL0     H12409   8.040   0.429   5.025 -0.5976  0.6433  0.0474
   90MOL0     H12410   7.785   0.301   4.930  0.7749 -0.3602 -0.6326
   90MOL0     H12411   7.888   0.415   4.835 -1.2709  0.9553  0.7424
   90MOL0     H12412   7.748   0.497   5.093  3.0287 -0.6114  1.0908
   90MOL0     H12413   7.858   0.585   4.990  0.1702 -1.4050  0.5340
   90MOL0     H12414   7.605   0.469   4.886  2.8761 -1.9586  0.5010
   90MOL0     H12415   7.716   0.572   4.789 -1.2204  1.6050 -0.1387
   90MOL0     H12416   7.465   0.852   4.960 -2.1054 -1.9168  4.0194
   90MOL0     H12417   8.182   0.194   4.762  0.7643  1.3193 -0.4305
   90MOL0     H12418   8.367   0.119   4.666  0.7338 -3.1782 -0.7834
   90MOL0     H12419   8.526   0.191   4.716  1.7841 -2.0246 -0.0610
   90MOL0     H12420   8.496   0.031   4.753  2.1819  1.4032  1.7983
   91MOL0     O12421   9.642   9.089   3.356  1.2746 -0.6642  0.5887
   91MOL0     C12422   9.623   8.981   3.303  0.7382  0.5081 -0.2783
   91MOL0     O12423   9.718   8.909   3.226 -0.0154 -0.4935  0.2103
   91MOL0     C12424   9.852   8.943   3.195 -0.7908  0.4981 -0.1876
   91MOL0     C12425   9.925   8.860   3.113  0.4831 -0.3985  0.6187
   91MOL0     C12426  10.052   8.878   3.070  1.1988 -0.9823  0.4004
   91MOL0     C12427  10.118   8.980   3.127  0.0871 -0.9289  0.4236
   91MOL0     O12428  10.251   9.012   3.100 -0.0914 -0.2103  0.7418
   91MOL0     C12429  10.330   8.951   2.993  0.8036  0.1881  0.2044
   91MOL0     C12430  10.482   8.951   3.021  0.4516  0.3403  0.3150
   91MOL0     C12431  10.549   8.836   2.949  0.3153 -0.0634  0.3543
   91MOL0     C12432  10.702   8.858   2.958 -0.1331 -0.5628 -0.3604
   91MOL0     C12433  10.794   8.746   2.897  0.2470  0.5979  0.0171
   91MOL0     C12434  10.946   8.787   2.927  0.8648 -0.5215 -0.3665
   91MOL0     C12435  11.040   8.677   2.864 -0.6237 -0.2547 -0.3136
   91MOL0     C12436  11.184   8.717   2.856  0.5844  0.1736  0.4895
   91MOL0     N12437  11.272   8.607   2.791  0.4609  0.1678  0.0440
   91MOL0     C12438  11.322   8.504   2.870 -0.1997  0.4656 -0.3309
   91MOL0     C12439  11.411   8.444   2.789  0.4355  1.6549  0.1022
   91MOL0     C12440  11.495   8.320   2.819 -0.5455 -0.2941 -0.9273
   91MOL0     C12441  11.622   8.354   2.897  0.2656 -0.4961 -0.5046
   91MOL0     C12442  11.704   8.470   2.837  0.2100  0.3122  0.7228
   91MOL0     C12443  11.836   8.502   2.909 -0.3637  0.7249 -0.0019
   91MOL0     O12444  11.832   8.621   2.994 -0.4001  0.6136 -0.5302
   91MOL0     C12445  11.744   8.614   3.107 -0.5302  0.2942  0.3344
   91MOL0     C12446  11.756   8.520   3.206  0.3613  1.3276 -0.6966
   91MOL0     C12447  11.646   8.502   3.303 -0.1526  0.5165  0.6107
   91MOL0     C12448  11.672   8.408   3.412  0.2044  0.3323 -0.2306
   91MOL0     C12449  11.537   8.590   3.308  0.3273  0.0407  0.0888
   91MOL0     C12450  11.424   8.599   3.408  0.6011  0.0579  0.1911
   91MOL0     O12451  11.353   8.723   3.403  0.0669  0.1063 -0.0621
   91MOL0     C12452  11.273   8.760   3.507 -0.2050 -0.0286 -0.3361
   91MOL0     C12453  11.157   8.823   3.484  1.1202 -0.3937  0.1844
   91MOL0     C12454  11.080   8.865   3.596  0.3251  0.1673 -0.1167
   91MOL0     C12455  11.125   8.857   3.724 -0.1026 -0.5437  0.0069
   91MOL0     O12456  11.051   8.911   3.825  0.2636 -0.1632 -0.6761
   91MOL0     C12457  11.121   8.934   3.953  0.5674  0.0750 -0.0914
   91MOL0     C12458  11.042   9.037   4.032  0.8726  0.5527 -0.0086
   91MOL0     C12459  11.026   9.177   3.978  0.1403 -0.2199 -0.8571
   91MOL0     C12460  11.131   9.267   4.039 -0.0045  0.1217  0.4050
   91MOL0     C12461  11.130   9.403   3.973 -0.3957 -0.0016  0.2176
   91MOL0     C12462  11.227   9.500   4.045 -0.5165 -0.3073  1.0430
   91MOL0     C12463  11.218   9.645   3.976  0.1960  0.3854  0.5029
   91MOL0     C12464  11.121   9.731   4.040 -0.5970 -0.0116  0.9672
   91MOL0    Cl12465  11.201   9.772   4.194 -0.6128  0.5681  0.2831
   91MOL0     C12466  11.247   8.790   3.747  0.2645 -1.2647  0.0746
   91MOL0     C12467  11.328   8.752   3.636  0.2509  0.5543  0.1183
   91MOL0     O12468  11.394   8.499   3.470 -0.1289  0.3157  0.7044
   91MOL0     C12469  11.523   8.673   3.198 -0.1605 -0.0620  0.3295
   91MOL0     C12470  11.626   8.684   3.102  0.3586 -0.3674  0.5841
   91MOL0     N12471  11.406   8.515   2.664 -0.0126  0.3365 -0.3828
   91MOL0     N12472  11.326   8.610   2.670 -0.5924  0.0248 -0.2097
   91MOL0     C12473  10.055   9.067   3.222 -0.3846 -1.2054  0.3764
   91MOL0     C12474   9.925   9.047   3.259 -0.7143 -0.5922  0.7061
   91MOL0     C12475   9.484   8.931   3.292  0.0870  0.1690  0.4419
   91MOL0     C12476   9.459   8.847   3.184 -0.4309 -0.3604 -0.2540
   91MOL0     C12477   9.325   8.807   3.158 -0.7827  0.6205 -0.5825
   91MOL0     C12478   9.215   8.861   3.228 -1.0471 -0.2277 -0.0365
   91MOL0     O12479   9.093   8.811   3.188 -0.2173 -1.2143  0.1179
   91MOL0     C12480   8.970   8.845   3.255  0.0688 -0.0607 -0.5644
   91MOL0     C12481   8.945   8.752   3.378 -0.4852  0.7446 -0.3849
   91MOL0     C12482   8.947   8.599   3.353 -0.5451 -1.1788  0.8140
   91MOL0     C12483   8.931   8.529   3.485  0.3506 -0.1487  0.0561
   91MOL0     C12484   8.962   8.386   3.477  0.5940  0.6763 -0.1735
   91MOL0     C12485   8.958   8.263   3.490 -0.3741  0.5884  0.3672
   91MOL0     C12486   9.247   8.933   3.342 -0.1316 -0.8100  0.3588
   91MOL0     C12487   9.381   8.973   3.371 -0.3001 -0.3056 -0.5018
   91MOL0     C12488   9.399   9.055   3.496  0.3588 -0.7648  0.4603
   91MOL0     H12489   9.868   8.773   3.081 -1.6287  0.9643  0.4738
   91MOL0     H12490  10.090   8.802   3.001 -2.6052 -0.0949 -3.0638
   91MOL0     H12491  10.315   8.997   2.896  0.7758  1.5360  0.8227
   91MOL0     H12492  10.304   8.845   2.992  3.5881 -0.5647 -0.6618
   91MOL0     H12493  10.533   9.047   3.008  3.7556 -1.0834  1.5333
   91MOL0     H12494  10.502   8.926   3.126  0.1902 -1.9988 -0.1272
   91MOL0     H12495  10.525   8.737   2.988  3.5741 -1.7154 -1.4154
   91MOL0     H12496  10.528   8.822   2.843  0.7424 -1.5045  0.4444
   91MOL0     H12497  10.719   8.951   2.904 -0.7400 -0.2748 -0.0733
   91MOL0     H12498  10.725   8.890   3.060  1.6817  0.3554 -1.0240
   91MOL0     H12499  10.776   8.738   2.789 -0.8325 -0.2800  0.2513
   91MOL0     H12500  10.775   8.650   2.944  2.7749 -0.8022 -1.5668
   91MOL0     H12501  10.949   8.883   2.874 -2.0020 -0.4020 -0.5047
   91MOL0     H12502  10.962   8.799   3.035 -0.0061  2.0073 -0.4475
   91MOL0     H12503  11.006   8.645   2.765  1.0158  0.6640 -1.2146
   91MOL0     H12504  11.034   8.588   2.927  1.7863  0.8840  1.6883
   91MOL0     H12505  11.197   8.817   2.813 -0.7798 -0.3650 -1.3349
   91MOL0     H12506  11.214   8.728   2.960  1.2016 -0.7693  0.4220
   91MOL0     H12507  11.304   8.482   2.974 -2.1347  0.4491 -0.6389
   91MOL0     H12508  11.523   8.268   2.726 -1.7462 -2.8302  0.0244
   91MOL0     H12509  11.442   8.248   2.882  1.8553  0.2531  1.9500
   91MOL0     H12510  11.584   8.380   2.996 -0.3414 -1.5099 -0.4592
   91MOL0     H12511  11.691   8.269   2.905 -0.0905 -0.9380 -1.8413
   91MOL0     H12512  11.733   8.436   2.738 -0.7872  0.9970  0.1859
   91MOL0     H12513  11.647   8.562   2.825 -1.0394 -0.7153 -1.9102
   91MOL0     H12514  11.872   8.417   2.968 -2.7583 -1.0300 -0.8913
   91MOL0     H12515  11.913   8.524   2.835 -0.7616  2.5871  0.1009
   91MOL0     H12516  11.839   8.452   3.225 -2.7433 -2.2403  1.7019
   91MOL0     H12517  11.586   8.341   3.421  2.3912 -2.5838  0.4930
   91MOL0     H12518  11.673   8.465   3.506 -0.5440 -1.0034  0.6307
   91MOL0     H12519  11.767   8.355   3.397  0.2667 -0.5047  2.4456
   91MOL0     H12520  11.104   8.836   3.390 -1.9670 -3.2092  1.3039
   91MOL0     H12521  10.987   8.915   3.571  0.4142 -0.3748 -1.6845
   91MOL0     H12522  11.129   8.836   4.001  1.0786 -0.1399 -0.6026
   91MOL0     H12523  11.218   8.981   3.933  0.7064 -0.1665  0.0092
   91MOL0     H12524  10.942   8.993   4.028  1.2455 -0.4285  0.9055
   91MOL0     H12525  11.081   9.029   4.134 -0.7419 -2.0077  0.5064
   91MOL0     H12526  10.927   9.217   4.004 -0.0130 -0.5965 -0.8581
   91MOL0     H12527  11.040   9.177   3.869  1.2541  3.3939 -0.8473
   91MOL0     H12528  11.230   9.225   4.019 -0.6564 -1.0995 -0.3201
   91MOL0     H12529  11.115   9.288   4.145 -1.4039  1.1975  0.0040
   91MOL0     H12530  11.148   9.395   3.866 -1.1095 -0.2531  0.1119
   91MOL0     H12531  11.027   9.440   3.963  0.0391  1.0429 -0.6295
   91MOL0     H12532  11.322   9.451   4.026 -0.8050  0.2986 -2.6848
   91MOL0     H12533  11.206   9.506   4.153  0.1416  1.7480  1.1113
   91MOL0     H12534  11.187   9.622   3.873 -0.0677  2.1124  0.1714
   91MOL0     H12535  11.317   9.692   3.968 -0.6464  2.4615  1.5984
   91MOL0     H12536  11.022   9.689   4.059 -1.5533  0.7963 -1.7774
   91MOL0     H12537  11.108   9.824   3.984 -3.0247 -0.4476  0.7226
   91MOL0     H12538  11.295   8.765   3.842 -2.4606  0.4851  2.0789
   91MOL0     H12539  11.426   8.712   3.662  0.3602  2.3366  2.8660
   91MOL0     H12540  11.425   8.715   3.181 -0.8261 -0.7217  2.2425
   91MOL0     H12541  11.621   8.757   3.021  0.0165 -1.3150 -0.2678
   91MOL0     H12542  10.120   9.139   3.270 -0.1932 -1.8343  1.0799
   91MOL0     H12543   9.882   9.122   3.325  0.6877  2.0925 -1.2268
   91MOL0     H12544   9.537   8.811   3.118 -0.6025 -2.9307  0.8230
   91MOL0     H12545   9.319   8.751   3.064  3.5163 -1.8963  0.3586
   91MOL0     H12546   8.963   8.949   3.290  1.7327  0.3505 -1.3300
   91MOL0     H12547   8.897   8.839   3.174 -0.7498  1.4305  0.0156
   91MOL0     H12548   8.843   8.768   3.413 -1.6712  0.7910 -3.5760
   91MOL0     H12549   9.016   8.785   3.454  0.1272 -1.7867  0.2293
   91MOL0     H12550   8.866   8.566   3.288 -0.6273  1.0391 -0.2970
   91MOL0     H12551   9.040   8.574   3.302  1.0750  2.7832  1.4333
   91MOL0     H12552   8.829   8.536   3.524  0.3824 -0.7042  0.2466
   91MOL0     H12553   8.995   8.568   3.565  1.8659 -3.4005  0.5776
   91MOL0     H12554   8.963   8.157   3.505  1.1416  1.0174  4.1340
   91MOL0     H12555   9.169   8.967   3.411  2.3002  1.4545  2.2030
   91MOL0     H12556   9.485   9.023   3.555  0.0747 -0.3525  1.1155
   91MOL0     H12557   9.410   9.159   3.463 -3.1030 -0.7754 -1.1358
   91MOL0     H12558   9.313   9.055   3.564  0.2098 -4.3479  0.4433
   92MOL0     O12559  10.833  10.133   3.504  0.1024  0.4409  0.2187
   92MOL0     C12560  10.817  10.221   3.421  0.6127  0.0805 -0.4889
   92MOL0     O12561  10.887  10.249   3.307 -0.7413 -0.2341  0.4982
   92MOL0     C12562  10.993  10.166   3.271 -0.0158 -0.7468  0.1226
   92MOL0     C12563  11.066  10.080   3.363  0.3693 -0.1601 -0.0424
   92MOL0     C12564  11.167   9.988   3.320 -0.2110 -0.9786 -0.7314
   92MOL0     C12565  11.209   9.989   3.189 -0.7631 -0.4832  1.0696
   92MOL0     O12566  11.305   9.904   3.135  0.2459 -0.3596 -0.3431
   92MOL0     C12567  11.371   9.809   3.223  0.0296 -0.0525 -0.1692
   92MOL0     C12568  11.471   9.715   3.149  0.5226 -0.2256 -0.4970
   92MOL0     C12569  11.539   9.617   3.239 -0.1073  0.6865  0.2733
   92MOL0     C12570  11.640   9.524   3.161 -0.3373 -0.5467  0.1463
   92MOL0     C12571  11.696   9.412   3.245  0.3036  0.2766  1.2382
   92MOL0     C12572  11.597   9.296   3.262 -0.0681  1.0772 -0.0348
   92MOL0     C12573  11.669   9.184   3.337  0.5102  0.6445  1.0272
   92MOL0     C12574  11.605   9.046   3.314  0.0619 -0.4670 -0.0155
   92MOL0     N12575  11.648   8.952   3.414 -0.9584 -0.0982  0.1679
   92MOL0     C12576  11.752   8.859   3.399 -0.9053 -0.0698  0.2613
   92MOL0     C12577  11.754   8.786   3.514  0.7765 -0.6374 -0.8617
   92MOL0     C12578  11.855   8.682   3.559 -0.6520 -0.5478  0.2118
   92MOL0     C12579  11.968   8.758   3.629  0.8694 -0.2339  0.8329
   92MOL0     C12580  12.079   8.658   3.668 -0.0113  0.0932 -0.0939
   92MOL0     C12581  12.179   8.727   3.758  0.4225 -0.6478  0.3128
   92MOL0     O12582  12.198   8.863   3.711  0.0155 -0.2626  0.3813
   92MOL0     C12583  12.311   8.929   3.752  0.1147  0.1917  1.2336
   92MOL0     C12584  12.393   9.008   3.663  0.0770 -0.4359 -0.1585
   92MOL0     C12585  12.520   9.063   3.703  1.2901  0.2191 -0.3140
   92MOL0     C12586  12.588   9.150   3.589  0.5865 -0.3350  0.5397
   92MOL0     C12587  12.561   9.035   3.840 -0.4538 -0.0136  0.3605
   92MOL0     C12588  12.683   9.101   3.893 -0.3278  0.0106  0.2286
   92MOL0     O12589  12.700   9.100   4.028  0.7627 -0.0918 -0.0214
   92MOL0     C12590  12.818   9.140   4.078 -0.3172 -0.1306  0.4086
   92MOL0     C12591  12.931   9.066   4.047  0.2676 -0.4085  0.0541
   92MOL0     C12592  13.058   9.103   4.105  0.5705  0.4441 -1.0146
   92MOL0     C12593  13.071   9.201   4.203 -0.6968  0.0045 -0.2000
   92MOL0     O12594  13.190   9.225   4.276 -0.7533 -1.1475  0.8800
   92MOL0     C12595  13.319   9.188   4.221 -0.2434  0.0269 -0.2431
   92MOL0     C12596  13.438   9.246   4.301  0.1764  0.5864 -1.2677
   92MOL0     C12597  13.576   9.209   4.240 -0.7123 -0.1722 -0.1392
   92MOL0     C12598  13.674   9.299   4.296 -0.1214  0.5264  0.0009
   92MOL0     C12599  13.814   9.257   4.258 -0.2680 -0.0682 -1.3084
   92MOL0     C12600  13.861   9.338   4.141  0.0748 -0.3812  0.3614
   92MOL0     C12601  14.001   9.308   4.085  0.1677 -0.0546  0.0940
   92MOL0     C12602  14.006   9.164   4.029  0.3735 -0.1136 -0.1524
   92MOL0    Cl12603  14.159   9.120   3.963  0.1884 -0.1522 -0.1317
   92MOL0     C12604  12.956   9.274   4.233  0.6633 -0.2965  1.2031
   92MOL0     C12605  12.837   9.242   4.171  0.0163 -0.4947 -0.3080
   92MOL0     O12606  12.764   9.144   3.811  0.2500  0.6616 -0.1533
   92MOL0     C12607  12.476   8.963   3.928  0.0278 -0.6779  0.4428
   92MOL0     C12608  12.359   8.913   3.887  0.1651  0.4426 -0.2760
   92MOL0     N12609  11.644   8.825   3.590 -0.5926 -0.0433  0.2309
   92MOL0     N12610  11.574   8.910   3.522 -0.7633  0.3011  0.5586
   92MOL0     C12611  11.146  10.076   3.100 -0.0120 -0.0751 -0.1523
   92MOL0     C12612  11.042  10.165   3.138  0.1532 -0.5802 -0.1112
   92MOL0     C12613  10.711  10.324   3.446 -0.2249  0.0305 -0.7216
   92MOL0     C12614  10.710  10.441   3.356 -0.4985 -0.0348 -0.2329
   92MOL0     C12615  10.620  10.539   3.380  0.1273 -0.7844 -0.5137
   92MOL0     C12616  10.537  10.545   3.490  0.8663  0.1597  0.3664
   92MOL0     O12617  10.456  10.655   3.503 -0.3280  0.5323  0.6105
   92MOL0     C12618  10.311  10.629   3.521  0.3633  0.4856 -0.7940
   92MOL0     C12619  10.222  10.742   3.460  0.4398  0.4006 -0.8369
   92MOL0     C12620  10.188  10.717   3.305 -0.5262 -0.3683  0.1926
   92MOL0     C12621  10.107  10.586   3.278 -0.7134 -0.0394  0.1963
   92MOL0     C12622   9.969  10.582   3.338 -0.2473  0.0081  0.2209
   92MOL0     C12623   9.858  10.583   3.381 -0.8592  0.0827  0.8945
   92MOL0     C12624  10.533  10.432   3.575  0.8324  0.3749 -0.0804
   92MOL0     C12625  10.617  10.318   3.550 -0.4615 -0.2664 -0.6037
   92MOL0     C12626  10.609  10.206   3.646 -0.0536  0.3696 -0.1353
   92MOL0     H12627  11.042  10.082   3.469 -0.2381  1.0512 -0.1842
   92MOL0     H12628  11.215   9.932   3.400 -0.6221  0.7273  0.7714
   92MOL0     H12629  11.293   9.748   3.270  0.1346 -0.1916 -0.1758
   92MOL0     H12630  11.427   9.858   3.303  1.3172 -2.1222  0.2710
   92MOL0     H12631  11.416   9.660   3.072  0.1579  0.6038 -0.8374
   92MOL0     H12632  11.541   9.783   3.098  0.6430  2.0307  2.4243
   92MOL0     H12633  11.605   9.668   3.310 -1.9246  0.2278  2.3996
   92MOL0     H12634  11.471   9.558   3.301  0.0143  1.3314  1.0425
   92MOL0     H12635  11.579   9.486   3.079 -0.0221 -0.9576  0.0947
   92MOL0     H12636  11.720   9.586   3.119  0.6142 -0.4047  2.0250
   92MOL0     H12637  11.715   9.461   3.341 -0.9375 -0.7581  2.0437
   92MOL0     H12638  11.782   9.372   3.190  2.0339  2.6856  2.0362
   92MOL0     H12639  11.508   9.325   3.318 -2.1885  1.5215 -3.3288
   92MOL0     H12640  11.561   9.257   3.167  0.2769  0.8106 -0.0586
   92MOL0     H12641  11.658   9.205   3.444 -0.9408  1.7212  0.6909
   92MOL0     H12642  11.776   9.170   3.321  0.1751 -0.6786 -0.3348
   92MOL0     H12643  11.497   9.060   3.324  0.2195  0.4774  0.5509
   92MOL0     H12644  11.624   9.015   3.211 -1.7507 -1.0036 -0.2135
   92MOL0     H12645  11.824   8.855   3.317 -0.6361  1.2253  0.4200
   92MOL0     H12646  11.887   8.623   3.473 -1.2535 -1.8364  0.8327
   92MOL0     H12647  11.799   8.616   3.626 -1.3757  1.4985  1.7423
   92MOL0     H12648  12.006   8.829   3.555  1.1764 -2.7220 -1.5412
   92MOL0     H12649  11.941   8.809   3.722 -1.4401  0.8283 -0.3527
   92MOL0     H12650  12.039   8.585   3.739  3.5326  0.2967  2.3871
   92MOL0     H12651  12.128   8.620   3.578  0.1005  0.7987 -0.3329
   92MOL0     H12652  12.131   8.717   3.855 -2.4649  2.0817 -0.6787
   92MOL0     H12653  12.274   8.672   3.768  1.5051  1.1362  0.1795
   92MOL0     H12654  12.362   9.032   3.562  2.0829  0.9835 -0.5093
   92MOL0     H12655  12.671   9.093   3.547 -1.7174 -1.6063 -2.6720
   92MOL0     H12656  12.629   9.241   3.632  1.9724 -0.4723 -0.4182
   92MOL0     H12657  12.531   9.169   3.497  1.1813  1.7353  0.5616
   92MOL0     H12658  12.922   8.981   3.980 -0.2258  1.2543 -2.1050
   92MOL0     H12659  13.132   9.031   4.072 -1.9134 -2.0827 -1.4789
   92MOL0     H12660  13.334   9.080   4.214 -2.0786 -0.3313  0.7671
   92MOL0     H12661  13.313   9.226   4.118  1.9990  0.2724 -0.3223
   92MOL0     H12662  13.426   9.355   4.298  0.9172  0.6515 -2.4181
   92MOL0     H12663  13.431   9.208   4.404  1.0593  0.2872 -1.3145
   92MOL0     H12664  13.569   9.220   4.131 -1.8751  2.0607  0.1134
   92MOL0     H12665  13.610   9.107   4.264 -0.3426  0.4164  1.9999
   92MOL0     H12666  13.673   9.280   4.403  0.4499  3.3737  0.5988
   92MOL0     H12667  13.657   9.406   4.277 -1.7070  0.5462  1.3638
   92MOL0     H12668  13.884   9.275   4.341  0.1916 -0.3001 -1.6454
   92MOL0     H12669  13.810   9.149   4.240  2.9893 -0.9160  1.9048
   92MOL0     H12670  13.848   9.446   4.154 -3.7602 -0.3998 -1.8569
   92MOL0     H12671  13.788   9.314   4.063 -0.5667  0.9773  0.5256
   92MOL0     H12672  14.066   9.323   4.171 -3.2451 -0.3083  2.9939
   92MOL0     H12673  14.025   9.382   4.008  1.8416  2.9323  3.2275
   92MOL0     H12674  13.939   9.159   3.942 -2.0925  1.1183  1.5536
   92MOL0     H12675  13.979   9.094   4.108  0.9412  2.1360  2.1815
   92MOL0     H12676  12.952   9.346   4.314  1.2362 -0.0058  0.9817
   92MOL0     H12677  12.752   9.304   4.198  1.7165  1.5023  0.7532
   92MOL0     H12678  12.497   8.963   4.035 -1.8855 -1.6519  0.8566
   92MOL0     H12679  12.284   8.865   3.950 -0.3567  3.3581  1.5242
   92MOL0     H12680  11.174  10.064   2.996  1.2909  0.6799  0.0891
   92MOL0     H12681  10.990  10.221   3.061  0.9516 -0.1960 -0.3881
   92MOL0     H12682  10.773  10.444   3.268 -1.2928 -4.4836 -1.2081
   92MOL0     H12683  10.610  10.624   3.313 -2.6350  1.8236  2.7886
   92MOL0     H12684  10.277  10.530   3.488 -0.8842 -0.0247  1.8047
   92MOL0     H12685  10.299  10.637   3.629 -0.3999  1.9104 -0.9568
   92MOL0     H12686  10.276  10.836   3.475  1.2045 -0.3844  1.8568
   92MOL0     H12687  10.125  10.741   3.511  0.4762  0.3792 -0.7698
   92MOL0     H12688  10.140  10.806   3.264 -1.4173 -0.0340  1.8682
   92MOL0     H12689  10.279  10.715   3.243 -1.5331 -1.3406 -1.3185
   92MOL0     H12690  10.162  10.498   3.313 -0.4213 -1.2256 -2.9529
   92MOL0     H12691  10.102  10.579   3.169  0.3108 -1.3642  0.2190
   92MOL0     H12692   9.753  10.590   3.399 -0.6514 -0.5293  2.5016
   92MOL0     H12693  10.476  10.431   3.667  2.0111  0.7238  0.6758
   92MOL0     H12694  10.704  10.191   3.698  1.0189 -0.9737 -2.3354
   92MOL0     H12695  10.526  10.210   3.718 -1.1516  1.5062 -1.4197
   92MOL0     H12696  10.581  10.122   3.581 -0.4793  0.1442  0.3255
   93MOL0     O12697   0.304   0.349   8.504 -0.3339 -0.1104 -0.4659
   93MOL0     C12698   0.201   0.418   8.524  0.5168  0.0554  0.3811
   93MOL0     O12699   0.171   0.476   8.642 -0.1417 -1.0116  0.1222
   93MOL0     C12700   0.266   0.476   8.742  0.1073  0.5536 -0.1699
   93MOL0     C12701   0.323   0.595   8.789 -0.2688 -0.5652  0.0912
   93MOL0     C12702   0.433   0.586   8.883 -0.4678  0.0938 -0.7319
   93MOL0     C12703   0.483   0.465   8.934  0.0439  0.0661  0.3915
   93MOL0     O12704   0.594   0.473   9.018  0.6660 -0.0119  0.2349
   93MOL0     C12705   0.571   0.412   9.143  0.6454  0.8409 -0.1402
   93MOL0     C12706   0.699   0.420   9.222  0.5868 -0.5680 -1.3213
   93MOL0     C12707   0.728   0.548   9.300 -0.6901  0.5912 -0.5889
   93MOL0     C12708   0.853   0.530   9.384 -0.2889 -0.1295 -0.4300
   93MOL0     C12709   0.882   0.644   9.486  0.8597  0.2673 -0.5335
   93MOL0     C12710   0.942   0.764   9.412 -0.3897  0.8765 -0.4546
   93MOL0     C12711   0.935   0.903   9.487  0.2713  0.2447  0.7686
   93MOL0     C12712   1.012   0.922   9.609 -0.1362  0.0229 -0.0974
   93MOL0     N12713   1.150   0.885   9.579 -0.0581  1.2265  0.3089
   93MOL0     C12714   1.237   0.943   9.490 -0.1113  0.4066 -0.4265
   93MOL0     C12715   1.332   0.849   9.467  0.0821 -0.7949 -0.3990
   93MOL0     C12716   1.427   0.865   9.356  0.4582 -0.2244 -0.2644
   93MOL0     C12717   1.558   0.791   9.374 -0.4462 -0.3875  0.4123
   93MOL0     C12718   1.645   0.809   9.255  0.1798  0.5720 -0.4895
   93MOL0     C12719   1.786   0.734   9.266 -0.0682  0.0872  0.1243
   93MOL0     O12720   1.862   0.788   9.381  0.3499 -0.1024  0.5120
   93MOL0     C12721   1.999   0.757   9.399 -0.0087 -0.0125  0.7389
   93MOL0     C12722   2.081   0.691   9.300  0.3743  0.2558  0.7659
   93MOL0     C12723   2.217   0.668   9.327  0.2512  0.3188 -0.2395
   93MOL0     C12724   2.301   0.617   9.218 -1.1117 -0.7793  0.3248
   93MOL0     C12725   2.277   0.722   9.449 -0.5868  0.6126 -0.3816
   93MOL0     C12726   2.425   0.712   9.480  0.4061 -0.4253 -0.1041
   93MOL0     O12727   2.483   0.835   9.500  0.5437 -0.1339 -0.2312
   93MOL0     C12728   2.614   0.846   9.529 -0.0786  0.1558  0.7801
   93MOL0     C12729   2.644   0.895   9.657  0.5258 -0.1720  1.3229
   93MOL0     C12730   2.778   0.918   9.681 -0.1961  0.6843 -0.6843
   93MOL0     C12731   2.883   0.883   9.599 -0.5407  0.3837  0.0555
   93MOL0     O12732   3.006   0.913   9.651 -0.7045 -0.2047 -0.1765
   93MOL0     C12733   3.101   0.947   9.550 -0.2055 -1.0652 -0.9958
   93MOL0     C12734   3.236   1.006   9.614  0.2696 -0.6009 -0.4731
   93MOL0     C12735   3.356   0.971   9.525  0.5393  0.3169 -0.4315
   93MOL0     C12736   3.473   1.055   9.573  0.8873 -0.4564  0.6015
   93MOL0     C12737   3.602   1.019   9.503 -0.1577  0.2105 -0.2014
   93MOL0     C12738   3.706   1.107   9.559  0.2991 -0.5783 -0.5874
   93MOL0     C12739   3.841   1.090   9.493 -0.0569  0.4228  0.1651
   93MOL0     C12740   3.947   1.189   9.540 -0.5884 -0.2890 -0.7034
   93MOL0    Cl12741   4.101   1.138   9.465  0.1157 -0.1630  0.3454
   93MOL0     C12742   2.852   0.823   9.476 -0.4785  0.1997 -0.3090
   93MOL0     C12743   2.718   0.810   9.437 -0.4298 -0.5069  1.2782
   93MOL0     O12744   2.484   0.595   9.493  0.2040  0.0681 -0.2569
   93MOL0     C12745   2.194   0.785   9.537 -0.4034 -1.2023  0.5657
   93MOL0     C12746   2.061   0.799   9.517 -0.2986 -0.5076  0.0768
   93MOL0     N12747   1.317   0.741   9.556 -0.0244  0.7042  0.4673
   93MOL0     N12748   1.208   0.768   9.618  0.9377  0.0565 -0.1141
   93MOL0     C12749   0.412   0.353   8.899 -0.1298 -0.1633 -0.6686
   93MOL0     C12750   0.316   0.362   8.799 -0.6663  0.7408  0.5454
   93MOL0     C12751   0.098   0.428   8.417 -0.2922 -1.1041  0.8574
   93MOL0     C12752  -0.002   0.528   8.426 -0.8048 -0.4504 -0.1224
   93MOL0     C12753  -0.095   0.543   8.325  0.2032  0.1906 -0.3222
   93MOL0     C12754  -0.087   0.481   8.200  0.1315  0.0612 -0.7169
   93MOL0     O12755  -0.187   0.482   8.113  0.3397  0.3364 -0.4627
   93MOL0     C12756  -0.324   0.504   8.163 -0.2762  0.9178  0.6803
   93MOL0     C12757  -0.415   0.440   8.060  0.0818  0.0551  0.2851
   93MOL0     C12758  -0.556   0.453   8.113 -0.3120 -0.3521 -0.3844
   93MOL0     C12759  -0.662   0.457   8.001 -1.0450 -0.0469 -0.3816
   93MOL0     C12760  -0.794   0.473   8.050 -0.0695 -0.9074 -0.5988
   93MOL0     C12761  -0.915   0.484   8.074 -0.8095  0.3426  0.5033
   93MOL0     C12762   0.015   0.383   8.195 -0.2871 -0.2467  0.8399
   93MOL0     C12763   0.102   0.352   8.299 -0.5751 -0.4220 -0.4446
   93MOL0     C12764   0.209   0.258   8.265 -0.0517 -0.4860 -0.6463
   93MOL0     H12765   0.316   0.698   8.757  2.8641  0.4079  2.0841
   93MOL0     H12766   0.483   0.674   8.923 -2.0280  0.3319  0.8370
   93MOL0     H12767   0.528   0.312   9.132  0.4996  0.7213  1.3780
   93MOL0     H12768   0.506   0.485   9.193 -0.0605 -0.5094  0.9755
   93MOL0     H12769   0.706   0.340   9.295  4.6653  1.5038  0.8965
   93MOL0     H12770   0.777   0.412   9.146  2.6545 -2.8547  0.9219
   93MOL0     H12771   0.742   0.639   9.242  0.3568 -0.0358 -1.3497
   93MOL0     H12772   0.645   0.580   9.364  1.2798  1.0769  1.8310
   93MOL0     H12773   0.849   0.440   9.446  1.3220 -0.2051 -0.3743
   93MOL0     H12774   0.935   0.521   9.312 -0.0041  1.9422 -0.4509
   93MOL0     H12775   0.953   0.614   9.564 -0.7493 -4.8006 -0.6762
   93MOL0     H12776   0.785   0.673   9.526 -0.3308 -0.0658 -3.0272
   93MOL0     H12777   1.045   0.749   9.377 -0.3605 -0.2221  0.0645
   93MOL0     H12778   0.881   0.777   9.322 -0.8525  2.4790  0.0617
   93MOL0     H12779   0.830   0.918   9.516  0.1781 -2.3529  2.0783
   93MOL0     H12780   0.958   0.985   9.419 -1.8868 -1.8851 -2.8948
   93MOL0     H12781   1.007   1.029   9.634  0.9774  0.4922 -1.7142
   93MOL0     H12782   0.974   0.866   9.695  0.9488  1.9899  1.7728
   93MOL0     H12783   1.232   1.035   9.433 -1.3407  0.4221 -0.3304
   93MOL0     H12784   1.447   0.971   9.341  0.0724  0.3019  2.4541
   93MOL0     H12785   1.380   0.825   9.265  2.6234 -0.8231 -1.1952
   93MOL0     H12786   1.612   0.829   9.462 -0.7097  0.2433  0.3104
   93MOL0     H12787   1.534   0.686   9.392 -0.4290 -0.2766  1.0992
   93MOL0     H12788   1.596   0.778   9.163  1.9791  0.3562 -1.4200
   93MOL0     H12789   1.675   0.914   9.253  1.2212  0.3797  1.7264
   93MOL0     H12790   1.766   0.629   9.287  0.5011 -1.0982 -4.3313
   93MOL0     H12791   1.839   0.740   9.171  1.5604  1.8852  1.0665
   93MOL0     H12792   2.029   0.657   9.211 -0.1557  0.5447  0.9591
   93MOL0     H12793   2.335   0.515   9.239  1.6648 -0.0515 -0.2196
   93MOL0     H12794   2.392   0.677   9.215 -0.4927 -1.6764  0.8776
   93MOL0     H12795   2.261   0.630   9.117  1.1642 -1.5598 -0.7240
   93MOL0     H12796   2.568   0.909   9.732  0.5780  0.2629  1.2959
   93MOL0     H12797   2.800   0.963   9.778 -0.4499 -1.6403  0.5378
   93MOL0     H12798   3.128   0.859   9.491  2.4712 -2.5087  2.0985
   93MOL0     H12799   3.058   1.019   9.479 -0.6943  1.2786  1.4863
   93MOL0     H12800   3.232   1.116   9.608  0.0557 -0.6750 -2.0748
   93MOL0     H12801   3.253   0.966   9.714  0.1773 -0.2383 -0.3100
   93MOL0     H12802   3.343   1.006   9.422 -0.6380 -0.1321 -0.4530
   93MOL0     H12803   3.382   0.864   9.525  1.9942  0.6632 -0.1321
   93MOL0     H12804   3.493   1.048   9.680 -3.4414  0.7039  1.7020
   93MOL0     H12805   3.443   1.155   9.539  2.2209 -0.4752 -0.7437
   93MOL0     H12806   3.630   0.913   9.509  0.8758  0.3639 -1.6586
   93MOL0     H12807   3.586   1.028   9.395 -4.8296 -0.0464  0.2868
   93MOL0     H12808   3.723   1.090   9.666 -1.2333  0.0439 -0.2158
   93MOL0     H12809   3.682   1.213   9.543  0.3491 -0.8658 -2.9213
   93MOL0     H12810   3.823   1.107   9.386 -3.8704 -0.2537  0.5616
   93MOL0     H12811   3.886   0.996   9.524  2.1986  1.3228 -0.1371
   93MOL0     H12812   3.949   1.167   9.647 -1.0816 -1.8216 -0.9868
   93MOL0     H12813   3.923   1.289   9.503  0.6782 -0.4152 -1.9306
   93MOL0     H12814   2.930   0.796   9.405  0.4901 -0.0599  0.8273
   93MOL0     H12815   2.701   0.786   9.332  3.4748  3.1372 -0.5015
   93MOL0     H12816   2.233   0.835   9.625  1.3716  3.8861 -2.6923
   93MOL0     H12817   1.997   0.850   9.588  1.6726  1.7608  0.3838
   93MOL0     H12818   0.451   0.258   8.935 -1.0294 -0.4924 -0.5594
   93MOL0     H12819   0.289   0.266   8.755 -0.8996  1.6840 -1.4859
   93MOL0     H12820  -0.014   0.590   8.514 -1.1932  2.6090 -2.1767
   93MOL0     H12821  -0.179   0.610   8.341 -0.3952 -0.6471  0.0848
   93MOL0     H12822  -0.335   0.452   8.258 -1.8572 -0.0707 -0.0004
   93MOL0     H12823  -0.343   0.610   8.183 -1.2575  0.8302  0.2634
   93MOL0     H12824  -0.378   0.339   8.038  1.0598  0.0226  1.9440
   93MOL0     H12825  -0.396   0.503   7.972 -0.7191  1.0659  0.8124
   93MOL0     H12826  -0.577   0.367   8.176  5.9366 -1.7793  0.3844
   93MOL0     H12827  -0.572   0.550   8.162 -2.5215 -0.7321 -0.2401
   93MOL0     H12828  -0.650   0.363   7.947  3.9949  1.2753 -2.2090
   93MOL0     H12829  -0.647   0.531   7.921 -1.4413 -0.6325 -1.0075
   93MOL0     H12830  -1.019   0.475   8.099 -1.6932  1.7485 -2.2649
   93MOL0     H12831   0.021   0.337   8.097  0.0342 -1.7316  1.5282
   93MOL0     H12832   0.221   0.175   8.336 -0.1589  0.9729  1.1657
   93MOL0     H12833   0.180   0.208   8.172 -0.8068 -0.9058 -0.1981
   93MOL0     H12834   0.306   0.305   8.248  0.0917  0.1224  1.5312
   94MOL0     O12835   5.804   1.631   7.387  0.3962 -0.9460  0.6530
   94MOL0     C12836   5.743   1.573   7.303 -0.1732  0.6354 -0.9025
   94MOL0     O12837   5.792   1.528   7.186  0.1990  0.0832  0.1140
   94MOL0     C12838   5.915   1.575   7.147 -0.0174 -0.0507  0.0188
   94MOL0     C12839   6.013   1.480   7.123 -1.0636 -0.3251  0.6705
   94MOL0     C12840   6.137   1.538   7.075  0.6129 -0.0787  0.5724
   94MOL0     C12841   6.160   1.673   7.052  0.1306  0.0625  0.0786
   94MOL0     O12842   6.285   1.712   7.009 -0.5146  0.3888  0.1115
   94MOL0     C12843   6.337   1.850   7.034  0.0068 -0.8931 -0.1809
   94MOL0     C12844   6.471   1.861   6.951  1.2375  0.0222 -0.1513
   94MOL0     C12845   6.577   1.760   7.004  0.5044 -0.0577  0.0419
   94MOL0     C12846   6.713   1.773   6.922 -0.1368  0.0548 -0.2591
   94MOL0     C12847   6.706   1.742   6.771  0.4790 -0.0919  0.4196
   94MOL0     C12848   6.845   1.764   6.718  0.2209  1.0578  0.3693
   94MOL0     C12849   6.857   1.700   6.577  0.6448  0.1900  0.2125
   94MOL0     C12850   7.009   1.703   6.536 -0.2364 -0.1124 -0.7721
   94MOL0     N12851   7.097   1.597   6.593 -0.8683  0.1064  0.1168
   94MOL0     C12852   7.077   1.525   6.706  0.0789 -0.1226 -0.9655
   94MOL0     C12853   7.182   1.442   6.715  0.1165 -0.0923 -0.1634
   94MOL0     C12854   7.207   1.359   6.837  0.7387 -0.4018  0.2820
   94MOL0     C12855   7.341   1.280   6.831 -0.4962  1.5155 -0.4400
   94MOL0     C12856   7.470   1.367   6.848 -0.3757  0.9601  0.0826
   94MOL0     C12857   7.609   1.296   6.869  0.6139  0.0279  0.3600
   94MOL0     O12858   7.615   1.188   6.780 -0.1681 -0.3177 -0.6391
   94MOL0     C12859   7.738   1.123   6.775  0.3526  0.2624  0.0797
   94MOL0     C12860   7.752   1.014   6.691  0.8145 -0.6304 -0.0735
   94MOL0     C12861   7.872   0.950   6.669  1.2099  0.3327  0.1279
   94MOL0     C12862   7.868   0.818   6.595  0.1519 -0.2533 -0.0454
   94MOL0     C12863   7.991   1.006   6.727 -0.1071 -0.6272 -1.2042
   94MOL0     C12864   8.128   0.957   6.706  0.3194  0.0501 -0.5754
   94MOL0     O12865   8.224   0.989   6.801  0.0126 -0.0506  0.3809
   94MOL0     C12866   8.349   0.940   6.786 -0.0298 -0.0646 -0.0712
   94MOL0     C12867   8.448   1.029   6.737  0.4549 -0.0533 -0.9217
   94MOL0     C12868   8.575   0.987   6.718  0.5387 -0.4722 -0.9640
   94MOL0     C12869   8.609   0.857   6.752  0.1648 -0.4195  0.3476
   94MOL0     O12870   8.740   0.818   6.753  0.3514 -0.4108  0.4815
   94MOL0     C12871   8.831   0.892   6.677  0.1392 -0.3072  0.2374
   94MOL0     C12872   8.979   0.833   6.686 -0.0379 -0.5303  0.6872
   94MOL0     C12873   9.025   0.819   6.831 -0.1820  0.2002  0.0453
   94MOL0     C12874   9.145   0.717   6.856  0.7903 -0.4114 -0.3851
   94MOL0     C12875   9.196   0.743   6.998 -0.1885 -0.2066  0.1885
   94MOL0     C12876   9.310   0.651   7.025  0.5042 -0.6806  0.1352
   94MOL0     C12877   9.392   0.682   7.152 -0.4814 -0.6051 -0.0776
   94MOL0     C12878   9.419   0.560   7.236 -0.2486 -0.6634  0.1375
   94MOL0    Cl12879   9.489   0.428   7.146  0.1113  0.1778  0.0541
   94MOL0     C12880   8.523   0.770   6.807  0.3103 -0.1861 -0.4895
   94MOL0     C12881   8.390   0.807   6.819  0.7243  0.5486  0.6451
   94MOL0     O12882   8.155   0.889   6.611  0.2688  0.4706  0.5285
   94MOL0     C12883   7.981   1.119   6.810  0.4712  0.0678 -0.2700
   94MOL0     C12884   7.852   1.167   6.833 -0.2204 -0.4331  0.3314
   94MOL0     N12885   7.255   1.450   6.600 -0.7401 -0.2097  0.2123
   94MOL0     N12886   7.203   1.544   6.529 -0.5422 -0.3141  0.8033
   94MOL0     C12887   6.059   1.758   7.088  0.1412  0.1017 -0.5568
   94MOL0     C12888   5.936   1.714   7.132  0.2433  0.1242  0.1576
   94MOL0     C12889   5.600   1.544   7.324  0.2405  0.3701  0.5001
   94MOL0     C12890   5.523   1.488   7.218 -0.9022  0.0187 -0.0454
   94MOL0     C12891   5.388   1.461   7.219 -0.3833  0.1851  0.1349
   94MOL0     C12892   5.318   1.484   7.343  0.1283  0.4719  0.5512
   94MOL0     O12893   5.188   1.464   7.355 -0.1368  0.2801 -0.6489
   94MOL0     C12894   5.100   1.391   7.272  0.3832 -0.3536  1.3399
   94MOL0     C12895   4.949   1.390   7.316 -0.2630  0.1520 -0.0503
   94MOL0     C12896   4.856   1.309   7.222  0.3788 -0.2887 -0.3044
   94MOL0     C12897   4.704   1.308   7.250  0.3149 -0.5236 -0.5686
   94MOL0     C12898   4.658   1.444   7.227 -0.0342 -0.1515  0.3289
   94MOL0     C12899   4.606   1.546   7.185  0.3437  0.6392 -0.0119
   94MOL0     C12900   5.392   1.521   7.454  0.1710 -0.4981  0.0999
   94MOL0     C12901   5.528   1.553   7.448 -0.8464 -0.1458  0.2763
   94MOL0     C12902   5.588   1.604   7.581  0.3681 -0.3022 -1.0390
   94MOL0     H12903   5.996   1.377   7.152 -1.0496 -0.9086 -1.2574
   94MOL0     H12904   6.222   1.476   7.046  0.3774 -0.1349 -0.0198
   94MOL0     H12905   6.347   1.865   7.142  0.9034 -0.4495 -0.3170
   94MOL0     H12906   6.269   1.928   6.998 -1.5697 -1.1189  2.0689
   94MOL0     H12907   6.443   1.836   6.848  2.9352 -1.3409 -0.3311
   94MOL0     H12908   6.514   1.961   6.948 -0.1017  0.5976 -1.7986
   94MOL0     H12909   6.593   1.780   7.110 -0.4634 -1.8466  0.5570
   94MOL0     H12910   6.538   1.660   6.981  1.3000 -0.3282 -0.1803
   94MOL0     H12911   6.755   1.873   6.942  1.1988 -0.6331  0.5080
   94MOL0     H12912   6.791   1.710   6.965 -2.9222 -1.0124  3.6952
   94MOL0     H12913   6.622   1.796   6.725  1.5029  2.2484  1.2040
   94MOL0     H12914   6.687   1.635   6.756  1.4771 -0.4090  1.3154
   94MOL0     H12915   6.868   1.871   6.720  0.5889  1.0049 -0.6871
   94MOL0     H12916   6.915   1.710   6.783 -1.4267 -0.1268  1.2379
   94MOL0     H12917   6.801   1.776   6.522  0.4438  0.4581  0.7844
   94MOL0     H12918   6.803   1.606   6.564 -0.1993  0.1168  3.4478
   94MOL0     H12919   6.994   1.688   6.428 -1.0110 -3.3571 -0.2940
   94MOL0     H12920   7.045   1.805   6.552 -2.4724  0.9180 -1.8895
   94MOL0     H12921   7.012   1.538   6.792  2.2138 -0.1825  0.7391
   94MOL0     H12922   7.118   1.296   6.831  0.8015 -0.3801 -1.6844
   94MOL0     H12923   7.202   1.419   6.928  2.2437  1.4598 -0.7963
   94MOL0     H12924   7.330   1.223   6.924 -2.8699 -0.1012 -1.5922
   94MOL0     H12925   7.345   1.215   6.743 -0.0513  2.0658 -0.8257
   94MOL0     H12926   7.477   1.427   6.756  1.0224  0.1428 -0.3630
   94MOL0     H12927   7.455   1.435   6.933 -0.5599 -0.5191  1.2639
   94MOL0     H12928   7.686   1.371   6.851  0.6097  0.6053  2.4339
   94MOL0     H12929   7.615   1.256   6.971 -0.6378 -1.5046 -0.1243
   94MOL0     H12930   7.660   0.980   6.645  0.1959 -0.3300  0.9084
   94MOL0     H12931   7.963   0.792   6.548  0.2717  1.4087 -0.7903
   94MOL0     H12932   7.801   0.837   6.511  2.9231 -0.6317 -2.5094
   94MOL0     H12933   7.832   0.743   6.666 -1.0727 -1.8262 -2.2112
   94MOL0     H12934   8.421   1.130   6.710  1.3616  0.4675  0.0215
   94MOL0     H12935   8.638   1.065   6.677 -1.5661  0.8945 -1.7034
   94MOL0     H12936   8.809   0.894   6.569 -0.9261  2.6063  0.4247
   94MOL0     H12937   8.839   0.997   6.708  1.0426 -0.9436  2.3253
   94MOL0     H12938   8.986   0.730   6.649 -1.8273 -0.7536  0.8784
   94MOL0     H12939   9.040   0.890   6.615 -1.3943 -1.1241 -1.0370
   94MOL0     H12940   8.938   0.800   6.895  0.0641  2.5529  1.1830
   94MOL0     H12941   9.073   0.915   6.849 -0.8689  1.1950 -2.8391
   94MOL0     H12942   9.224   0.737   6.783  1.9142  0.2875  0.9774
   94MOL0     H12943   9.115   0.612   6.851  1.5423 -0.5728 -3.4398
   94MOL0     H12944   9.232   0.845   7.015  0.0281 -0.4678  1.3757
   94MOL0     H12945   9.120   0.728   7.074 -0.3008  1.8075  0.5149
   94MOL0     H12946   9.387   0.660   6.948  1.8888  2.4897  1.6533
   94MOL0     H12947   9.272   0.549   7.018 -2.9044  0.5724 -2.6972
   94MOL0     H12948   9.331   0.753   7.208 -0.3738 -0.0831 -0.6179
   94MOL0     H12949   9.488   0.727   7.126  0.0161 -1.2553  0.6051
   94MOL0     H12950   9.325   0.526   7.281 -1.2556 -0.1656 -1.5128
   94MOL0     H12951   9.482   0.595   7.319 -1.4981  1.6360  0.1990
   94MOL0     H12952   8.559   0.673   6.840  0.2110 -0.1166 -0.1707
   94MOL0     H12953   8.316   0.737   6.854  0.9445 -0.3440 -0.6206
   94MOL0     H12954   8.065   1.172   6.854  1.1693 -1.2953  0.0972
   94MOL0     H12955   7.854   1.255   6.895 -1.2486  0.8139 -1.3158
   94MOL0     H12956   6.075   1.865   7.080 -1.1606  0.2701 -1.0616
   94MOL0     H12957   5.849   1.776   7.152 -1.6343 -2.9302  2.3818
   94MOL0     H12958   5.581   1.461   7.130  0.7995 -0.5212  1.1804
   94MOL0     H12959   5.337   1.437   7.126  0.0212 -1.7156  0.3496
   94MOL0     H12960   5.108   1.456   7.185 -3.2452 -0.1947  0.9548
   94MOL0     H12961   5.141   1.291   7.258  0.5441 -0.0650 -0.4328
   94MOL0     H12962   4.916   1.494   7.325 -0.3057  0.0764  0.7554
   94MOL0     H12963   4.950   1.338   7.412  1.2596 -1.8664 -1.0751
   94MOL0     H12964   4.871   1.343   7.119  1.2781  1.1295  0.2697
   94MOL0     H12965   4.882   1.204   7.238 -1.3672 -0.7131 -0.0656
   94MOL0     H12966   4.685   1.287   7.356 -2.1593  2.4252 -0.2592
   94MOL0     H12967   4.654   1.230   7.192 -0.4285 -1.6363  1.4617
   94MOL0     H12968   4.554   1.630   7.143  0.6971  0.7350 -0.2625
   94MOL0     H12969   5.348   1.532   7.553  2.2345 -1.6502  1.2138
   94MOL0     H12970   5.584   1.713   7.584  1.0624 -0.2689 -1.1009
   94MOL0     H12971   5.520   1.572   7.660 -1.5779 -0.4378 -2.6903
   94MOL0     H12972   5.688   1.563   7.596 -0.5927 -2.2649  0.4920
   95MOL0     O12973   5.473   9.386   3.398 -0.3957 -0.0806 -0.6913
   95MOL0     C12974   5.448   9.451   3.500  0.2078 -0.9331 -0.1753
   95MOL0     O12975   5.536   9.532   3.566 -0.8709  0.2783 -0.3658
   95MOL0     C12976   5.668   9.547   3.545  0.3534 -0.6328 -0.4805
   95MOL0     C12977   5.751   9.462   3.470  0.9989  0.5515 -0.2426
   95MOL0     C12978   5.876   9.485   3.442  0.5212 -0.0894 -0.4317
   95MOL0     C12979   5.939   9.597   3.491  0.0515 -0.7811 -0.2154
   95MOL0     O12980   6.070   9.625   3.451  0.1303  0.0945 -0.0385
   95MOL0     C12981   6.125   9.746   3.496 -0.4610  0.2141  0.5427
   95MOL0     C12982   6.267   9.776   3.442  0.3282  0.7700  0.7700
   95MOL0     C12983   6.306   9.926   3.448  0.8236 -0.4010 -0.5513
   95MOL0     C12984   6.458   9.942   3.436  0.2201  0.2636 -0.1360
   95MOL0     C12985   6.522   9.946   3.574 -0.4668 -0.4419 -1.0912
   95MOL0     C12986   6.674   9.926   3.573  0.2927 -0.0400  0.5299
   95MOL0     C12987   6.749  10.061   3.514  0.5449 -0.3038 -0.5224
   95MOL0     C12988   6.900  10.032   3.494 -0.0753 -1.0385  0.4388
   95MOL0     N12989   6.973  10.162   3.462 -0.1590  0.0642  0.4405
   95MOL0     C12990   6.980  10.279   3.530  0.0206  0.1635 -0.7259
   95MOL0     C12991   7.064  10.361   3.467 -0.9949 -0.0410 -0.1824
   95MOL0     C12992   7.122  10.486   3.539 -0.7543  0.8303  0.0937
   95MOL0     C12993   7.257  10.532   3.474 -0.3860  0.1301 -0.1236
   95MOL0     C12994   7.271  10.683   3.502 -0.2601  0.0945 -0.4426
   95MOL0     C12995   7.413  10.732   3.463 -0.1265  0.0357 -0.0926
   95MOL0     O12996   7.420  10.875   3.483  0.2216 -0.2097 -0.1325
   95MOL0     C12997   7.550  10.935   3.459  0.1379  0.2163  1.4754
   95MOL0     C12998   7.548  11.067   3.429 -0.1503  0.4413  0.0955
   95MOL0     C12999   7.667  11.132   3.397 -0.0990  0.8327  0.5548
   95MOL0     C13000   7.667  11.291   3.390  0.0738 -0.4140  0.2220
   95MOL0     C13001   7.780  11.048   3.362  0.0722 -0.6385  0.1904
   95MOL0     C13002   7.900  11.105   3.315  0.2235  0.8766  0.5740
   95MOL0     O13003   8.016  11.027   3.327 -0.2683  0.0917  0.2159
   95MOL0     C13004   8.137  11.079   3.302 -0.0562 -0.7045 -0.2228
   95MOL0     C13005   8.214  11.150   3.394  0.1470  0.5543  0.2169
   95MOL0     C13006   8.338  11.192   3.370 -1.0002  0.4643 -0.3175
   95MOL0     C13007   8.400  11.163   3.251 -0.2145  0.0695  0.6387
   95MOL0     O13008   8.538  11.195   3.247 -0.0188  0.4104  0.4113
   95MOL0     C13009   8.607  11.134   3.139 -0.6212  0.2725 -0.1807
   95MOL0     C13010   8.749  11.190   3.144  0.6439 -0.3157 -0.1167
   95MOL0     C13011   8.810  11.160   3.284 -0.0787  0.1412 -0.4127
   95MOL0     C13012   8.963  11.121   3.276  0.9607  0.5514 -0.1980
   95MOL0     C13013   9.017  11.122   3.417 -0.3965 -0.6717  0.4276
   95MOL0     C13014   9.173  11.124   3.421  0.4948 -0.0849 -0.4897
   95MOL0     C13015   9.229  11.002   3.340  0.0404 -0.0888  0.0620
   95MOL0     C13016   9.371  11.020   3.298  0.5771  0.3083  0.1963
   95MOL0    Cl13017   9.420  11.181   3.237 -0.4055 -0.1968  0.0030
   95MOL0     C13018   8.320  11.088   3.151  0.2180 -0.9400  0.0807
   95MOL0     C13019   8.193  11.044   3.176  0.3920 -0.0463 -0.9609
   95MOL0     O13020   7.899  11.216   3.261  0.0465  0.2067 -0.9745
   95MOL0     C13021   7.771  10.912   3.396 -0.5623  0.3823  0.7335
   95MOL0     C13022   7.659  10.852   3.445 -0.0866 -0.4988  0.3828
   95MOL0     N13023   7.104  10.299   3.346 -0.5158 -0.3735 -0.2356
   95MOL0     N13024   7.054  10.175   3.346  0.1184 -0.5714  0.2469
   95MOL0     C13025   5.858   9.684   3.576 -0.1209 -0.2745 -0.1517
   95MOL0     C13026   5.719   9.658   3.596  0.6409 -0.4771  0.1475
   95MOL0     C13027   5.297   9.469   3.521 -0.2141  0.0667 -0.5296
   95MOL0     C13028   5.210   9.369   3.479 -0.2884 -0.7346  0.1212
   95MOL0     C13029   5.069   9.365   3.506  0.2100 -0.3413  0.0289
   95MOL0     C13030   5.018   9.475   3.575  0.2396  0.8110  0.1243
   95MOL0     O13031   4.884   9.453   3.615 -0.0867 -0.4898 -1.0320
   95MOL0     C13032   4.831   9.537   3.718  0.7376 -0.1014  0.2735
   95MOL0     C13033   4.691   9.503   3.771  0.6451  0.1838  0.0149
   95MOL0     C13034   4.591   9.466   3.653 -0.1117  0.1865 -0.4562
   95MOL0     C13035   4.454   9.527   3.694 -0.1556  0.8595  0.9124
   95MOL0     C13036   4.406   9.458   3.818  0.3157 -0.0228  0.9354
   95MOL0     C13037   4.372   9.392   3.915 -0.6404  0.7206  0.2649
   95MOL0     C13038   5.101   9.574   3.626 -0.8485  0.3200  0.3227
   95MOL0     C13039   5.243   9.566   3.612 -0.5478  0.3501 -0.4566
   95MOL0     C13040   5.327   9.675   3.673  0.7351 -0.7276 -0.1536
   95MOL0     H13041   5.709   9.372   3.425  0.4817  0.5663  0.2103
   95MOL0     H13042   5.932   9.417   3.378  3.6588 -0.5924  2.5370
   95MOL0     H13043   6.111   9.749   3.604 -2.3067 -3.4226  0.5431
   95MOL0     H13044   6.059   9.821   3.451  1.6767  2.2733  0.6418
   95MOL0     H13045   6.340   9.711   3.492 -1.1948 -2.9760 -1.4919
   95MOL0     H13046   6.254   9.749   3.337 -0.7101 -0.0077  1.0886
   95MOL0     H13047   6.263   9.985   3.367  0.5661  0.2361  0.0481
   95MOL0     H13048   6.273   9.963   3.545 -0.0126 -1.4000 -0.4363
   95MOL0     H13049   6.504   9.860   3.379  1.3664  1.0938 -0.4461
   95MOL0     H13050   6.459  10.031   3.373 -0.0470 -0.9716 -1.9390
   95MOL0     H13051   6.491   9.856   3.628 -0.0523  0.9051  1.5578
   95MOL0     H13052   6.490  10.042   3.617 -0.1721  0.4841 -2.8529
   95MOL0     H13053   6.699   9.890   3.673 -1.0281 -1.7718  0.2767
   95MOL0     H13054   6.690   9.851   3.495 -1.7841 -0.5049  0.5054
   95MOL0     H13055   6.736  10.144   3.584  0.7365 -0.7951  0.1078
   95MOL0     H13056   6.703  10.093   3.420  0.9065  2.3464  0.1236
   95MOL0     H13057   6.947   9.998   3.587  0.5261 -1.7448 -0.1168
   95MOL0     H13058   6.913   9.963   3.410  0.5195 -1.6266  0.9942
   95MOL0     H13059   6.951  10.302   3.632  4.0551 -0.0432  0.6422
   95MOL0     H13060   7.135  10.467   3.646  1.6319 -1.2530 -0.4763
   95MOL0     H13061   7.043  10.561   3.526 -1.2985  0.3360  0.4811
   95MOL0     H13062   7.340  10.491   3.532 -0.8614  2.6681  2.5793
   95MOL0     H13063   7.254  10.512   3.366 -4.3853 -0.9067  0.0158
   95MOL0     H13064   7.201  10.733   3.435  2.3456  3.0930 -1.1711
   95MOL0     H13065   7.246  10.696   3.608  1.1330 -0.5727 -0.0071
   95MOL0     H13066   7.488  10.677   3.521  1.9782 -0.3659 -2.9677
   95MOL0     H13067   7.437  10.707   3.360  4.1732  1.1856  0.3992
   95MOL0     H13068   7.461  11.125   3.455 -0.1491 -0.2489  1.7508
   95MOL0     H13069   7.743  11.336   3.453 -0.6783 -0.2956  1.0615
   95MOL0     H13070   7.572  11.324   3.432 -0.1044 -1.5080  0.7051
   95MOL0     H13071   7.670  11.317   3.283  1.6557  0.6936  0.5128
   95MOL0     H13072   8.170  11.169   3.491  0.0178 -0.1389  0.3047
   95MOL0     H13073   8.400  11.240   3.445 -2.5004 -0.7499  1.8425
   95MOL0     H13074   8.616  11.027   3.159  3.0622  0.6036  0.5506
   95MOL0     H13075   8.572  11.145   3.036  1.9187 -2.0591 -1.4071
   95MOL0     H13076   8.815  11.144   3.070  0.6623 -1.1590  0.4059
   95MOL0     H13077   8.746  11.298   3.128  3.6134 -0.4324 -2.3909
   95MOL0     H13078   8.761  11.076   3.333  0.5960  1.4043  2.6493
   95MOL0     H13079   8.791  11.253   3.339 -0.6167  0.6962 -1.5005
   95MOL0     H13080   9.018  11.189   3.210  3.0220 -1.9533 -1.2426
   95MOL0     H13081   8.966  11.021   3.232  1.0093  0.4663 -0.0029
   95MOL0     H13082   8.987  11.210   3.475  2.6703 -0.1368  1.4415
   95MOL0     H13083   8.982  11.031   3.466 -1.1882 -0.0769  0.9953
   95MOL0     H13084   9.209  11.111   3.524 -1.4369  0.4433  0.3188
   95MOL0     H13085   9.209  11.216   3.373  1.4207 -0.6074 -0.8123
   95MOL0     H13086   9.180  10.975   3.246 -1.2305  0.5303  0.5240
   95MOL0     H13087   9.219  10.914   3.405 -0.1814 -0.8669 -1.0093
   95MOL0     H13088   9.395  10.944   3.223  0.7247  0.9681 -0.4373
   95MOL0     H13089   9.434  11.000   3.386 -1.1204 -1.7517  1.0338
   95MOL0     H13090   8.377  11.040   3.072 -0.6737 -1.6640 -0.1313
   95MOL0     H13091   8.120  10.990   3.117 -0.9770  0.6422  0.0398
   95MOL0     H13092   7.862  10.852   3.398  0.9090  2.4635 -0.1555
   95MOL0     H13093   7.668  10.744   3.458 -2.7007 -1.2648 -2.9595
   95MOL0     H13094   5.900   9.767   3.632 -1.5691 -0.3483  1.1117
   95MOL0     H13095   5.662   9.731   3.653 -0.5987  0.2036 -1.8414
   95MOL0     H13096   5.242   9.304   3.398  0.9268 -1.8618  1.4697
   95MOL0     H13097   4.999   9.289   3.473 -1.3387 -0.0505  2.4020
   95MOL0     H13098   4.895   9.547   3.806 -2.1800  3.8704  2.2833
   95MOL0     H13099   4.826   9.637   3.675 -4.3543  0.2525  1.0856
   95MOL0     H13100   4.660   9.597   3.817 -1.1462 -0.1903 -0.3535
   95MOL0     H13101   4.685   9.423   3.844  1.2145 -0.1596 -0.3085
   95MOL0     H13102   4.627   9.512   3.560  0.1772  1.2403  0.1558
   95MOL0     H13103   4.586   9.358   3.642 -0.8647 -0.4010  4.0120
   95MOL0     H13104   4.383   9.518   3.612  0.5915  2.8720 -0.0132
   95MOL0     H13105   4.462   9.634   3.712 -2.1931  1.4717 -1.3338
   95MOL0     H13106   4.328   9.328   3.988  1.2352  0.9865  1.7068
   95MOL0     H13107   5.070   9.657   3.689 -2.1251 -1.5521  2.2624
   95MOL0     H13108   5.356   9.738   3.589 -0.6364 -1.9823 -1.6563
   95MOL0     H13109   5.261   9.735   3.736  2.3934  0.1676  0.7708
   95MOL0     H13110   5.414   9.639   3.728  0.0888 -2.1351  0.0126
   96MOL0     O13111   5.561   0.354   8.830  0.1570  0.6088  0.4664
   96MOL0     C13112   5.526   0.284   8.730 -0.7286 -0.7822 -0.3606
   96MOL0     O13113   5.611   0.248   8.630  0.1103  0.1497 -0.4572
   96MOL0     C13114   5.735   0.299   8.651  0.1288  0.7497  0.4340
   96MOL0     C13115   5.836   0.206   8.690  1.0856  0.4908 -1.0095
   96MOL0     C13116   5.970   0.243   8.699 -0.1048 -0.0354  0.0239
   96MOL0     C13117   6.011   0.371   8.680 -0.3878 -0.3182  0.6691
   96MOL0     O13118   6.139   0.417   8.706 -0.1222  0.7193 -0.1366
   96MOL0     C13119   6.248   0.331   8.730  1.4033  0.9862  0.0657
   96MOL0     C13120   6.368   0.422   8.735 -0.0416  0.9726  0.4728
   96MOL0     C13121   6.495   0.340   8.778  1.0720  0.2121 -0.5739
   96MOL0     C13122   6.532   0.238   8.669  0.7421 -0.3590 -0.2601
   96MOL0     C13123   6.660   0.168   8.713  0.0188  0.9813  0.0878
   96MOL0     C13124   6.702   0.053   8.615  0.3257 -0.6801 -0.7687
   96MOL0     C13125   6.833  -0.006   8.651  0.7595 -0.0892  0.3951
   96MOL0     C13126   6.831  -0.093   8.780  0.0747 -0.2613  0.5195
   96MOL0     N13127   6.963  -0.133   8.812 -0.4071  0.0755  0.0164
   96MOL0     C13128   7.045  -0.066   8.898  0.2770 -0.3823  0.3218
   96MOL0     C13129   7.165  -0.125   8.898 -0.3988  0.5599  0.3573
   96MOL0     C13130   7.276  -0.087   8.995  0.6941  0.5405  0.3111
   96MOL0     C13131   7.417  -0.077   8.943  0.7008  0.3879  0.3880
   96MOL0     C13132   7.520  -0.059   9.053  0.7970  0.1925  0.4206
   96MOL0     C13133   7.668  -0.061   9.003 -0.5522 -0.1379 -0.1755
   96MOL0     O13134   7.760  -0.028   9.112  0.7182 -0.0765 -0.6135
   96MOL0     C13135   7.894  -0.050   9.093  0.0599  0.3007 -0.4382
   96MOL0     C13136   7.975  -0.079   9.205 -0.0214 -0.2661 -0.9308
   96MOL0     C13137   8.116  -0.099   9.207  0.2072 -0.1197  0.6881
   96MOL0     C13138   8.174  -0.107   9.345 -0.4772 -0.0052 -0.2103
   96MOL0     C13139   8.184  -0.102   9.082 -0.1932 -0.1481 -0.8829
   96MOL0     C13140   8.335  -0.107   9.075 -0.9724 -0.7038  0.7952
   96MOL0     O13141   8.388  -0.153   8.961 -0.2387 -0.9212 -0.0122
   96MOL0     C13142   8.527  -0.157   8.946  0.0497  1.5082 -0.0677
   96MOL0     C13143   8.609  -0.047   8.954 -0.0091  1.1023 -0.7360
   96MOL0     C13144   8.744  -0.063   8.924 -0.3507  0.7518 -0.2409
   96MOL0     C13145   8.796  -0.191   8.893 -0.7482  0.4632 -0.6613
   96MOL0     O13146   8.929  -0.197   8.868 -0.4573  0.3259  1.2550
   96MOL0     C13147   8.985  -0.221   8.737 -0.1619  1.2101 -0.3201
   96MOL0     C13148   9.116  -0.139   8.714  0.5604 -0.4957  0.5527
   96MOL0     C13149   9.225  -0.165   8.821 -0.3280  0.8215 -0.0482
   96MOL0     C13150   9.362  -0.106   8.778  0.1639  0.5809 -0.0650
   96MOL0     C13151   9.467  -0.125   8.888 -0.5589 -0.2362  0.1722
   96MOL0     C13152   9.615  -0.127   8.838  0.1780 -0.0814  0.3410
   96MOL0     C13153   9.647  -0.010   8.743 -0.7878 -0.7327  0.0031
   96MOL0     C13154   9.799   0.007   8.756 -0.4170 -0.0865  0.3987
   96MOL0    Cl13155   9.852   0.116   8.885 -0.1731 -0.2502 -0.5108
   96MOL0     C13156   8.716  -0.304   8.883  0.1745 -0.4911  0.1474
   96MOL0     C13157   8.579  -0.288   8.917 -0.7945  0.1554  0.2073
   96MOL0     O13158   8.398  -0.035   9.157 -0.4029 -0.3625 -0.0263
   96MOL0     C13159   8.103  -0.103   8.961 -0.2565  0.4048 -0.1158
   96MOL0     C13160   7.963  -0.073   8.965 -0.0495 -0.2757  0.3106
   96MOL0     N13161   7.156  -0.225   8.801 -0.6200 -0.3642  0.7527
   96MOL0     N13162   7.044  -0.218   8.744  0.0119  0.4373 -0.4158
   96MOL0     C13163   5.917   0.466   8.641  1.1579  0.1272  0.2934
   96MOL0     C13164   5.780   0.426   8.617 -0.1678 -0.0659  0.7232
   96MOL0     C13165   5.380   0.234   8.726 -0.2706  0.4997 -0.5403
   96MOL0     C13166   5.355   0.125   8.634  0.1641 -0.6419 -0.0146
   96MOL0     C13167   5.224   0.072   8.621 -1.0040  0.1185 -0.4272
   96MOL0     C13168   5.120   0.110   8.709 -1.0439 -0.4696  0.1117
   96MOL0     O13169   5.000   0.055   8.698  0.4326  0.1266 -0.5644
   96MOL0     C13170   4.956  -0.023   8.586  1.1778  0.0011 -0.4951
   96MOL0     C13171   4.799  -0.033   8.575 -0.7965 -0.2175  0.3042
   96MOL0     C13172   4.731   0.101   8.550  0.8347  0.2831 -1.1174
   96MOL0     C13173   4.763   0.156   8.420 -0.6026 -0.1394  0.2930
   96MOL0     C13174   4.721   0.074   8.309  0.0013 -0.3947  0.0389
   96MOL0     C13175   4.655   0.017   8.221  0.1024  0.1611  0.5046
   96MOL0     C13176   5.152   0.209   8.809  0.3217 -0.2989  0.6069
   96MOL0     C13177   5.281   0.272   8.814 -0.1141 -0.1751 -0.0655
   96MOL0     C13178   5.291   0.387   8.916 -0.7752 -0.5044  1.0921
   96MOL0     H13179   5.801   0.104   8.705 -2.6996  1.3689 -2.5890
   96MOL0     H13180   6.019   0.152   8.731 -4.1273 -2.1829  0.7474
   96MOL0     H13181   6.254   0.271   8.639 -2.0103  2.1520 -1.0786
   96MOL0     H13182   6.242   0.279   8.827 -2.2372 -0.1830 -0.6202
   96MOL0     H13183   6.364   0.466   8.635 -0.8044 -0.1941 -0.0361
   96MOL0     H13184   6.366   0.510   8.800  2.0978  1.8766 -0.6018
   96MOL0     H13185   6.575   0.415   8.783  0.1894  1.0956  1.7534
   96MOL0     H13186   6.484   0.306   8.881 -2.3788  1.0831 -0.5277
   96MOL0     H13187   6.447   0.170   8.656  2.5205 -2.5188 -1.1962
   96MOL0     H13188   6.551   0.294   8.577  1.0770  0.2380  0.1659
   96MOL0     H13189   6.632   0.129   8.811 -2.4992  1.0302 -0.5346
   96MOL0     H13190   6.748   0.232   8.723  0.1078  1.0957 -1.2446
   96MOL0     H13191   6.631  -0.030   8.624  1.1260 -1.2845  0.3698
   96MOL0     H13192   6.701   0.100   8.517  0.6297 -0.9436 -0.9003
   96MOL0     H13193   6.906   0.076   8.649  1.9371 -1.0307  2.5252
   96MOL0     H13194   6.873  -0.071   8.573 -0.2456 -0.3221  0.0573
   96MOL0     H13195   6.785  -0.035   8.860 -0.5598  1.3893 -0.9758
   96MOL0     H13196   6.770  -0.184   8.775  0.5592 -0.5404 -1.1617
   96MOL0     H13197   7.016   0.017   8.962  1.0015  0.4236 -0.3650
   96MOL0     H13198   7.280  -0.170   9.065  3.0216 -1.0209 -1.5116
   96MOL0     H13199   7.245   0.001   9.053 -3.0444 -0.0149 -0.6084
   96MOL0     H13200   7.436  -0.161   8.876 -0.8331  0.8600 -0.7086
   96MOL0     H13201   7.411   0.010   8.876 -0.2049  1.1694  1.4411
   96MOL0     H13202   7.498   0.039   9.096 -0.6850  0.3355 -0.5628
   96MOL0     H13203   7.508  -0.136   9.130  1.4541 -0.6636 -0.3175
   96MOL0     H13204   7.669  -0.164   8.967  0.6067 -0.1784 -0.0442
   96MOL0     H13205   7.684   0.006   8.919  3.2007 -1.7105 -0.8960
   96MOL0     H13206   7.915  -0.066   9.294  1.4995  2.4836 -0.1732
   96MOL0     H13207   8.224  -0.202   9.366 -2.4308 -1.1067 -0.2859
   96MOL0     H13208   8.095  -0.089   9.419 -0.9141 -1.8553 -0.1794
   96MOL0     H13209   8.240  -0.020   9.348  1.9063 -1.6898 -1.2823
   96MOL0     H13210   8.548   0.040   8.974 -0.9648  0.1295  0.8501
   96MOL0     H13211   8.814   0.019   8.920  1.5564 -0.8338 -1.5670
   96MOL0     H13212   9.001  -0.329   8.728 -0.6819  1.0527  0.5541
   96MOL0     H13213   8.916  -0.204   8.653  0.2054 -2.7697 -1.6700
   96MOL0     H13214   9.165  -0.160   8.618  0.0489 -0.2544  0.2358
   96MOL0     H13215   9.099  -0.032   8.728 -0.2394 -0.7853  2.0294
   96MOL0     H13216   9.231  -0.273   8.831 -0.5505  0.9166  1.1711
   96MOL0     H13217   9.188  -0.119   8.913  0.9705  1.2639  0.2670
   96MOL0     H13218   9.348  -0.000   8.754  1.2285  0.5228 -1.0123
   96MOL0     H13219   9.392  -0.153   8.684 -0.5240  0.3532 -0.1825
   96MOL0     H13220   9.466  -0.036   8.951 -0.0082 -0.8975  1.1368
   96MOL0     H13221   9.442  -0.211   8.950  0.2842 -0.7272 -0.1383
   96MOL0     H13222   9.635  -0.224   8.791  3.9808  1.3059 -1.2254
   96MOL0     H13223   9.675  -0.118   8.929 -0.8483  0.2888  1.0106
   96MOL0     H13224   9.603   0.089   8.760 -2.0973 -1.4210  0.8153
   96MOL0     H13225   9.612  -0.038   8.643 -1.8154  0.1602  0.0822
   96MOL0     H13226   9.819   0.054   8.660  1.8493  1.6878  1.6392
   96MOL0     H13227   9.844  -0.092   8.765 -0.6660 -0.0325  4.9454
   96MOL0     H13228   8.753  -0.404   8.860  0.9817 -0.4239  1.1049
   96MOL0     H13229   8.515  -0.373   8.895  0.2202 -0.3416 -0.9521
   96MOL0     H13230   8.151  -0.109   8.864 -2.6852  1.0343 -1.4699
   96MOL0     H13231   7.907  -0.075   8.872  0.6636 -2.1400 -0.1184
   96MOL0     H13232   5.949   0.569   8.630  0.7983  0.0857 -1.3643
   96MOL0     H13233   5.704   0.501   8.600  1.4018  1.7714  1.3673
   96MOL0     H13234   5.437   0.094   8.570  0.3749  1.0517 -0.6266
   96MOL0     H13235   5.212  -0.003   8.544 -0.1777 -1.8941  1.3382
   96MOL0     H13236   5.003   0.014   8.494  1.7951 -1.8391 -0.9669
   96MOL0     H13237   5.006  -0.120   8.593  2.1901  0.4235 -1.5144
   96MOL0     H13238   4.756  -0.076   8.666 -0.5799 -1.6798 -0.2623
   96MOL0     H13239   4.776  -0.099   8.491 -0.6498  0.4554 -0.2693
   96MOL0     H13240   4.623   0.093   8.565  0.7224  2.9362 -0.0945
   96MOL0     H13241   4.761   0.176   8.623  0.2487 -1.7885  1.4364
   96MOL0     H13242   4.871   0.169   8.414 -0.3063 -1.3749  2.2874
   96MOL0     H13243   4.717   0.255   8.419  0.3824  0.3650  1.8757
   96MOL0     H13244   4.582  -0.021   8.153  0.2789 -2.2308  1.5377
   96MOL0     H13245   5.070   0.228   8.878 -1.0518 -0.1194 -0.9889
   96MOL0     H13246   5.373   0.374   8.986  1.7350  2.2211 -1.0554
   96MOL0     H13247   5.312   0.484   8.870  1.3137 -1.1152  0.6535
   96MOL0     H13248   5.197   0.397   8.971 -0.5957 -2.8898  1.9255
   97MOL0     O13249   0.327  10.907   4.974 -0.0736  0.0038  0.1377
   97MOL0     C13250   0.303  10.897   4.854 -0.2424  0.4492 -1.0724
   97MOL0     O13251   0.379  10.827   4.769 -0.0895 -0.0501 -0.8473
   97MOL0     C13252   0.489  10.763   4.821  0.5574 -0.8160 -0.3631
   97MOL0     C13253   0.473  10.644   4.887  0.5195  0.2036  0.1157
   97MOL0     C13254   0.583  10.574   4.927 -0.4771 -0.0416 -0.1255
   97MOL0     C13255   0.716  10.606   4.882  0.1616  0.3323 -0.5653
   97MOL0     O13256   0.830  10.529   4.904  0.7978 -0.5048  0.0889
   97MOL0     C13257   0.826  10.402   4.966 -1.0174  0.2095 -0.9987
   97MOL0     C13258   0.785  10.284   4.864  1.0188  0.1295 -0.6062
   97MOL0     C13259   0.762  10.150   4.933 -0.4372  0.4483  0.2390
   97MOL0     C13260   0.620  10.122   4.978  0.4492 -0.0287  0.1752
   97MOL0     C13261   0.613   9.981   5.045  1.0744  0.6302 -0.5277
   97MOL0     C13262   0.465   9.929   5.059  0.3277 -0.1014  0.4561
   97MOL0     C13263   0.456   9.774   5.079 -0.1445 -0.2847 -0.2655
   97MOL0     C13264   0.320   9.720   5.036  0.0327 -0.7355  0.3885
   97MOL0     N13265   0.305   9.571   5.024  0.7329 -0.8307  0.1116
   97MOL0     C13266   0.182   9.515   5.033 -0.1582  0.5114  0.4182
   97MOL0     C13267   0.205   9.386   5.057 -0.8190 -0.5312  0.8777
   97MOL0     C13268   0.112   9.270   5.075 -0.1524 -0.1860  0.7971
   97MOL0     C13269   0.167   9.141   5.016  0.9203  0.2786 -0.0953
   97MOL0     C13270   0.114   9.012   5.088  0.0809  0.0303 -0.4371
   97MOL0     C13271  -0.031   8.990   5.053  0.7258  0.0032 -0.1112
   97MOL0     O13272  -0.053   8.902   4.939  0.0474  0.4252 -0.2467
   97MOL0     C13273  -0.169   8.823   4.927  0.6049 -0.6085 -0.1998
   97MOL0     C13274  -0.287   8.830   5.006 -0.7479  0.2434 -0.0930
   97MOL0     C13275  -0.399   8.750   4.986 -0.6315 -0.1616  0.6162
   97MOL0     C13276  -0.510   8.759   5.089  0.0786  0.5564 -0.2317
   97MOL0     C13277  -0.396   8.648   4.883  0.5113  0.0868 -0.3443
   97MOL0     C13278  -0.514   8.552   4.853 -0.0299  0.0223  0.0609
   97MOL0     O13279  -0.639   8.599   4.859  0.1851  0.3109 -0.4174
   97MOL0     C13280  -0.743   8.514   4.859 -0.1023 -1.0236 -0.3472
   97MOL0     C13281  -0.838   8.533   4.755 -0.0996 -0.3636 -0.3881
   97MOL0     C13282  -0.950   8.453   4.751 -0.5677 -0.0996  0.2340
   97MOL0     C13283  -0.972   8.362   4.850  0.5439  0.2520  0.5103
   97MOL0     O13284  -1.093   8.298   4.834  0.3479  0.3903 -0.4460
   97MOL0     C13285  -1.169   8.277   4.959 -0.7250  0.1873 -0.3103
   97MOL0     C13286  -1.308   8.243   4.921  1.1588 -0.2372 -0.2053
   97MOL0     C13287  -1.386   8.333   4.824  0.2545  0.5526 -0.2321
   97MOL0     C13288  -1.404   8.472   4.876  0.0381  1.0736 -0.9219
   97MOL0     C13289  -1.448   8.566   4.762  0.6377  0.4958  1.1610
   97MOL0     C13290  -1.335   8.604   4.659  1.1208 -0.1367 -0.5253
   97MOL0     C13291  -1.232   8.712   4.721 -0.1746  0.4372 -0.2075
   97MOL0     C13292  -1.122   8.766   4.639  0.2349  0.0601 -0.0495
   97MOL0    Cl13293  -0.995   8.854   4.732  0.0647  0.0981 -0.0754
   97MOL0     C13294  -0.887   8.335   4.954 -0.3930  0.5270  0.0737
   97MOL0     C13295  -0.766   8.407   4.955  0.1929 -0.6231  0.7209
   97MOL0     O13296  -0.483   8.439   4.817 -0.1852 -0.3467 -1.0315
   97MOL0     C13297  -0.280   8.635   4.808 -0.2863 -0.2142  0.4291
   97MOL0     C13298  -0.169   8.724   4.825 -0.2828  0.0049 -0.4749
   97MOL0     N13299   0.341   9.361   5.051 -0.5886 -0.0106  0.1101
   97MOL0     N13300   0.398   9.477   5.044  0.1852  0.2196 -0.4031
   97MOL0     C13301   0.732  10.723   4.805  1.3333  0.3309 -0.0043
   97MOL0     C13302   0.618  10.805   4.772 -0.9990  0.3772 -0.3220
   97MOL0     C13303   0.172  10.957   4.816 -0.2667  0.2836  1.0018
   97MOL0     C13304   0.161  11.102   4.835 -0.3383  0.3928  0.0526
   97MOL0     C13305   0.038  11.158   4.805 -0.3055 -1.0340  0.8358
   97MOL0     C13306  -0.063  11.085   4.745  0.8840  0.5183  0.4322
   97MOL0     O13307  -0.174  11.143   4.692 -0.0537  0.7918  0.0921
   97MOL0     C13308  -0.205  11.274   4.742  0.3536 -0.0574  0.1829
   97MOL0     C13309  -0.346  11.318   4.701 -0.7635  0.1998 -0.4976
   97MOL0     C13310  -0.383  11.279   4.558 -0.0727  0.3637 -0.6497
   97MOL0     C13311  -0.523  11.332   4.532 -0.3372  0.1185 -0.0238
   97MOL0     C13312  -0.563  11.271   4.404 -0.7832 -0.8483  0.1065
   97MOL0     C13313  -0.580  11.240   4.285  0.1312  0.0724 -0.4971
   97MOL0     C13314  -0.046  10.952   4.724  0.8814  0.0383  0.8172
   97MOL0     C13315   0.068  10.882   4.757  0.7585  0.2136 -1.1368
   97MOL0     C13316   0.091  10.736   4.722  0.3511  0.2947 -0.1793
   97MOL0     H13317   0.376  10.603   4.913 -0.8759  3.6659  0.8941
   97MOL0     H13318   0.564  10.486   4.988 -1.1776 -0.5633 -1.0693
   97MOL0     H13319   0.752  10.408   5.047  0.3429 -1.0631  0.3859
   97MOL0     H13320   0.926  10.389   5.006 -1.9204  1.5825  2.0234
   97MOL0     H13321   0.704  10.318   4.799  3.2927 -0.5568 -4.1289
   97MOL0     H13322   0.875  10.279   4.801  2.0701 -2.0263  0.9535
   97MOL0     H13323   0.797  10.066   4.873  0.2720 -0.1529  1.4433
   97MOL0     H13324   0.823  10.162   5.023  0.4056  1.0834 -0.4110
   97MOL0     H13325   0.591  10.204   5.044 -0.1456 -0.4812  0.4849
   97MOL0     H13326   0.550  10.111   4.894  1.0015 -2.3334 -0.0708
   97MOL0     H13327   0.665   9.984   5.142 -0.1674  1.9334  0.1373
   97MOL0     H13328   0.669   9.904   4.991 -3.0187 -1.5306 -2.1297
   97MOL0     H13329   0.416   9.987   5.138 -2.1973  1.5013 -2.0821
   97MOL0     H13330   0.414   9.951   4.965 -0.4588 -1.9747  0.4000
   97MOL0     H13331   0.471   9.747   5.184  1.3530 -0.8998 -0.6099
   97MOL0     H13332   0.533   9.724   5.019 -0.6056  0.5661 -1.6250
   97MOL0     H13333   0.244   9.758   5.104  1.7480  1.2965  1.2844
   97MOL0     H13334   0.316   9.769   4.938  0.1234  0.6553  1.0615
   97MOL0     H13335   0.085   9.564   5.022 -1.0907 -1.0788  1.2821
   97MOL0     H13336   0.021   9.300   5.022  0.5586  0.5912 -0.0122
   97MOL0     H13337   0.092   9.260   5.182 -0.4802  1.2193  0.8969
   97MOL0     H13338   0.142   9.137   4.910 -0.2008 -1.6790  0.2150
   97MOL0     H13339   0.276   9.126   5.021  0.8958 -0.6232 -1.7295
   97MOL0     H13340   0.180   8.931   5.055  1.2727  1.5094 -1.8899
   97MOL0     H13341   0.141   9.017   5.194  1.0257 -1.9843 -0.5490
   97MOL0     H13342  -0.084   8.941   5.135 -1.7697  3.7816  0.8019
   97MOL0     H13343  -0.082   9.086   5.040  0.1677 -0.1468  0.8536
   97MOL0     H13344  -0.304   8.902   5.085  0.7790  0.8748 -0.3085
   97MOL0     H13345  -0.480   8.818   5.175  0.2756 -0.8259  0.6815
   97MOL0     H13346  -0.522   8.655   5.122  1.2802  0.1048 -1.1262
   97MOL0     H13347  -0.601   8.799   5.044  1.3212  1.0540 -2.4973
   97MOL0     H13348  -0.826   8.607   4.677 -0.5578 -0.7438 -0.8241
   97MOL0     H13349  -1.021   8.482   4.675 -2.6588 -2.3494  1.1834
   97MOL0     H13350  -1.125   8.188   5.003 -0.7600 -0.0203 -0.6965
   97MOL0     H13351  -1.160   8.364   5.025 -0.1784  1.0921 -1.5353
   97MOL0     H13352  -1.303   8.150   4.865 -0.7489 -0.7848  0.4346
   97MOL0     H13353  -1.374   8.234   5.008  0.2996 -0.2302 -0.8370
   97MOL0     H13354  -1.484   8.291   4.803  0.1662 -0.0574  1.3318
   97MOL0     H13355  -1.344   8.329   4.722  1.5256  1.0359  0.2488
   97MOL0     H13356  -1.309   8.506   4.919 -0.0103  0.1988 -0.0924
   97MOL0     H13357  -1.467   8.466   4.965  1.5679 -2.7050  0.0568
   97MOL0     H13358  -1.539   8.530   4.713  1.5368  0.5353 -0.6081
   97MOL0     H13359  -1.474   8.659   4.813  0.2019  0.8193  0.3526
   97MOL0     H13360  -1.386   8.659   4.580  2.2489  0.8769 -0.5784
   97MOL0     H13361  -1.281   8.520   4.614 -1.7450 -2.1101 -0.5407
   97MOL0     H13362  -1.193   8.651   4.803 -3.3268  1.9457  2.6479
   97MOL0     H13363  -1.288   8.785   4.779  1.0195 -1.3192  3.5452
   97MOL0     H13364  -1.167   8.840   4.573 -0.5749 -1.3704 -1.1625
   97MOL0     H13365  -1.077   8.689   4.575 -0.2746 -0.3789  0.1100
   97MOL0     H13366  -0.902   8.250   5.019  0.3412  1.1497  1.0829
   97MOL0     H13367  -0.691   8.384   5.029  0.6129 -1.2545  0.1094
   97MOL0     H13368  -0.258   8.556   4.737 -2.1178 -0.3081 -0.1024
   97MOL0     H13369  -0.087   8.714   4.755  0.2550 -0.1938  0.1675
   97MOL0     H13370   0.830  10.748   4.768  0.5386  1.3479 -1.5218
   97MOL0     H13371   0.629  10.890   4.705  0.1755 -0.9962 -1.9695
   97MOL0     H13372   0.243  11.155   4.881 -0.2308 -1.0860  1.6795
   97MOL0     H13373   0.027  11.263   4.828  1.5381 -0.6482  0.1732
   97MOL0     H13374  -0.184  11.277   4.850 -0.3574 -2.4663  0.4483
   97MOL0     H13375  -0.130  11.327   4.683  2.8082 -2.3428  1.0247
   97MOL0     H13376  -0.344  11.426   4.713  0.2295  0.2447 -0.9359
   97MOL0     H13377  -0.410  11.266   4.773  1.5367 -0.7300  1.0089
   97MOL0     H13378  -0.307  11.326   4.494  0.5015  3.2764  1.8936
   97MOL0     H13379  -0.393  11.171   4.566 -0.6541  0.4830  0.4919
   97MOL0     H13380  -0.521  11.442   4.529 -0.6879  0.1182 -0.4840
   97MOL0     H13381  -0.594  11.307   4.611 -2.2583 -0.6256 -1.8573
   97MOL0     H13382  -0.613  11.213   4.186 -3.0300  0.2758  0.3858
   97MOL0     H13383  -0.129  10.901   4.675  1.1727  0.2469  0.0866
   97MOL0     H13384   0.004  10.684   4.681 -0.2095 -0.3981  1.7854
   97MOL0     H13385   0.170  10.735   4.646 -0.4967  0.1032 -1.0759
   97MOL0     H13386   0.127  10.688   4.813 -1.2528 -0.6183  0.0161
   98MOL0     O13387   2.002  10.468   6.793 -0.2631  0.1484 -0.2932
   98MOL0     C13388   2.089  10.396   6.746 -0.2217  0.5828  0.8566
   98MOL0     O13389   2.225  10.429   6.736  0.3015  0.4996 -0.1231
   98MOL0     C13390   2.271  10.536   6.804 -0.2980 -0.6410 -0.1121
   98MOL0     C13391   2.346  10.637   6.737  0.6463  0.2298  0.1247
   98MOL0     C13392   2.424  10.730   6.815 -0.4687  0.1599  1.0144
   98MOL0     C13393   2.416  10.734   6.955  0.0432  0.2408  0.3078
   98MOL0     O13394   2.479  10.842   7.015 -0.6665  0.5692 -0.5677
   98MOL0     C13395   2.436  10.893   7.142 -0.0238  0.0879 -0.2430
   98MOL0     C13396   2.484  11.036   7.165  0.1394 -0.5403 -0.2654
   98MOL0     C13397   2.387  11.128   7.103 -0.4970 -0.1041  0.4524
   98MOL0     C13398   2.410  11.126   6.953 -0.5085 -0.9440  0.9227
   98MOL0     C13399   2.343  11.245   6.882  0.1869 -0.1278  0.5681
   98MOL0     C13400   2.352  11.215   6.733 -0.1807  0.8935 -0.4608
   98MOL0     C13401   2.375  11.351   6.659 -0.0703 -0.0988  0.1569
   98MOL0     C13402   2.369  11.320   6.509 -0.5429 -0.1698  0.7772
   98MOL0     N13403   2.408  11.433   6.429 -0.1562 -0.7764  0.2038
   98MOL0     C13404   2.335  11.551   6.418  0.3197  0.8905 -0.0009
   98MOL0     C13405   2.410  11.627   6.331  0.2008  0.5564 -0.6970
   98MOL0     C13406   2.387  11.767   6.260  0.6739  0.1143  0.7506
   98MOL0     C13407   2.291  11.743   6.138 -0.7945  0.2479 -0.6447
   98MOL0     C13408   2.147  11.791   6.159 -0.0285 -0.0569  0.0085
   98MOL0     C13409   2.073  11.791   6.027 -0.7885  0.0561 -0.0760
   98MOL0     O13410   2.072  11.655   5.968  0.6933  0.4429 -0.5699
   98MOL0     C13411   1.966  11.616   5.892  0.6776  0.6515 -0.5073
   98MOL0     C13412   1.902  11.703   5.809 -0.4471  0.3013 -0.5920
   98MOL0     C13413   1.794  11.655   5.729  0.8167 -0.5680 -0.2333
   98MOL0     C13414   1.749  11.758   5.619  0.7031  0.5358  0.0380
   98MOL0     C13415   1.756  11.516   5.741  0.2455  0.1299  0.5693
   98MOL0     C13416   1.651  11.459   5.656 -0.0213 -0.2586 -0.2840
   98MOL0     O13417   1.588  11.360   5.722 -0.0314 -0.1442  0.5762
   98MOL0     C13418   1.476  11.298   5.675 -0.4143  0.0295 -0.3770
   98MOL0     C13419   1.439  11.173   5.723  0.5053  0.7914  0.1149
   98MOL0     C13420   1.316  11.119   5.694  1.1582  0.2214  0.4976
   98MOL0     C13421   1.222  11.189   5.616 -0.1819  0.1526  0.2650
   98MOL0     O13422   1.101  11.146   5.584  0.3136  0.0321  0.2895
   98MOL0     C13423   1.043  11.028   5.653  0.4069 -0.2756  1.0093
   98MOL0     C13424   0.893  11.022   5.618  0.8386  0.0483  0.2000
   98MOL0     C13425   0.871  10.969   5.478  0.1430  0.4037  0.5247
   98MOL0     C13426   0.725  10.997   5.442  0.3086  0.8115  0.2790
   98MOL0     C13427   0.687  10.928   5.304 -0.7239  0.3442 -0.6126
   98MOL0     C13428   0.546  10.965   5.254 -0.0657  0.2287 -1.0371
   98MOL0     C13429   0.422  10.914   5.330  0.3340  0.2729  0.0168
   98MOL0     C13430   0.413  10.756   5.308  0.2734  0.4614  0.6887
   98MOL0    Cl13431   0.255  10.708   5.386 -0.0186 -0.2299 -0.2585
   98MOL0     C13432   1.264  11.319   5.569  0.2373  1.1484  0.2305
   98MOL0     C13433   1.386  11.375   5.598  0.5393  0.0162 -1.0191
   98MOL0     O13434   1.640  11.492   5.537  0.2913 -0.2475  0.2065
   98MOL0     C13435   1.808  11.441   5.840  0.0513  0.7649 -0.8666
   98MOL0     C13436   1.922  11.482   5.916  0.7140 -0.6413 -0.4356
   98MOL0     N13437   2.527  11.546   6.299  0.2906  0.5214  0.1289
   98MOL0     N13438   2.526  11.433   6.360  0.5727 -0.0787 -0.5954
   98MOL0     C13439   2.343  10.634   7.021  0.4725 -0.2626  0.5983
   98MOL0     C13440   2.276  10.536   6.946  0.4524 -0.9050 -0.2050
   98MOL0     C13441   2.054  10.253   6.720  0.6726  0.2031  0.4430
   98MOL0     C13442   2.147  10.153   6.726 -0.1036  0.1409  0.6633
   98MOL0     C13443   2.107  10.017   6.714  0.5319  0.7265 -0.5000
   98MOL0     C13444   1.975   9.969   6.681 -0.2489 -0.7960  0.1382
   98MOL0     O13445   1.937   9.846   6.663 -0.0576  1.1717  0.3711
   98MOL0     C13446   2.043   9.741   6.670 -1.0688 -0.7461  0.2011
   98MOL0     C13447   2.088   9.697   6.812 -0.5675 -0.4298  0.3036
   98MOL0     C13448   2.223   9.616   6.789  0.6175 -0.6299  0.0477
   98MOL0     C13449   2.311   9.643   6.921 -0.0130  0.4363  0.1263
   98MOL0     C13450   2.450   9.608   6.896  0.0953  1.0996 -0.9035
   98MOL0     C13451   2.563   9.565   6.893 -0.6164 -0.0672 -0.3220
   98MOL0     C13452   1.884  10.081   6.666  0.1879 -0.3526 -0.1723
   98MOL0     C13453   1.918  10.217   6.677 -0.9518  0.8067 -1.4712
   98MOL0     C13454   1.806  10.311   6.658 -0.8530 -0.2574 -0.6973
   98MOL0     H13455   2.354  10.641   6.629 -3.4602 -0.6032 -0.3678
   98MOL0     H13456   2.480  10.813   6.772 -2.0286  0.4159 -0.6465
   98MOL0     H13457   2.498  10.828   7.204 -0.2376  0.6384  0.5713
   98MOL0     H13458   2.327  10.892   7.156 -0.0476  0.2907 -0.4155
   98MOL0     H13459   2.501  11.068   7.268  2.5747  0.3834 -0.8876
   98MOL0     H13460   2.585  11.041   7.124  0.7794 -2.0784  1.0465
   98MOL0     H13461   2.288  11.106   7.143 -0.5868  0.3696  0.4918
   98MOL0     H13462   2.408  11.230   7.138 -1.2013 -0.9912  3.6906
   98MOL0     H13463   2.515  11.128   6.924 -1.2608 -0.7149 -2.1669
   98MOL0     H13464   2.366  11.040   6.902  0.7154 -1.3982  0.5880
   98MOL0     H13465   2.394  11.337   6.913  3.1714 -1.3678 -0.3146
   98MOL0     H13466   2.236  11.251   6.908 -0.7856  1.2983 -3.1201
   98MOL0     H13467   2.443  11.159   6.709 -1.4318 -0.7146 -1.6357
   98MOL0     H13468   2.273  11.158   6.683  1.5075 -0.3993 -1.7849
   98MOL0     H13469   2.471  11.397   6.681  0.0521 -0.6191  0.6962
   98MOL0     H13470   2.294  11.423   6.679 -1.0861 -1.2831  0.4086
   98MOL0     H13471   2.443  11.249   6.470  1.0125  1.6739  0.1864
   98MOL0     H13472   2.268  11.303   6.472 -0.9980  4.0983 -0.4532
   98MOL0     H13473   2.241  11.569   6.469  0.6201  0.2699  0.7886
   98MOL0     H13474   2.483  11.795   6.215  0.7927 -0.6083  0.5492
   98MOL0     H13475   2.353  11.845   6.329 -4.9083  0.7023 -2.0579
   98MOL0     H13476   2.323  11.796   6.047  1.6585 -0.5970 -0.3264
   98MOL0     H13477   2.300  11.637   6.114  3.4989 -0.5819  3.3443
   98MOL0     H13478   2.108  11.716   6.228  1.0727 -1.3209 -0.7075
   98MOL0     H13479   2.145  11.897   6.188 -1.0674  1.9360 -5.9528
   98MOL0     H13480   1.974  11.833   6.042 -1.3402 -1.4718  0.7314
   98MOL0     H13481   2.126  11.855   5.954  1.4952 -1.1494  0.4351
   98MOL0     H13482   1.932  11.806   5.799  1.3010  0.0732  1.3984
   98MOL0     H13483   1.775  11.723   5.519 -3.4338  2.0750 -1.7898
   98MOL0     H13484   1.785  11.861   5.632  2.3394 -0.0775  0.6180
   98MOL0     H13485   1.640  11.760   5.616  0.5965 -0.7128  1.5736
   98MOL0     H13486   1.509  11.116   5.784 -0.5717 -0.3802  0.2817
   98MOL0     H13487   1.305  11.016   5.726  2.3483  0.0126  0.2659
   98MOL0     H13488   1.085  10.938   5.607 -0.1404  0.2194 -0.5210
   98MOL0     H13489   1.072  11.029   5.758  2.8184 -0.4993  0.4060
   98MOL0     H13490   0.839  10.958   5.689  0.7372 -2.3286 -1.8861
   98MOL0     H13491   0.850  11.121   5.636 -0.1469 -0.2437 -0.4864
   98MOL0     H13492   0.892  10.862   5.474 -0.7186  0.2277  0.3311
   98MOL0     H13493   0.935  11.016   5.403 -2.0733  1.8599 -0.5766
   98MOL0     H13494   0.710  11.105   5.428 -3.3255  0.4918  0.8627
   98MOL0     H13495   0.657  10.952   5.515  0.4936 -0.5540 -0.3711
   98MOL0     H13496   0.768  10.948   5.234  1.9497  1.4961  2.5490
   98MOL0     H13497   0.685  10.820   5.317 -1.2755  0.4032 -0.1597
   98MOL0     H13498   0.542  10.936   5.149  0.4420 -0.6877 -0.8070
   98MOL0     H13499   0.537  11.074   5.255  0.2584  0.3203  1.8532
   98MOL0     H13500   0.333  10.964   5.293  1.2911  0.5126 -2.0924
   98MOL0     H13501   0.439  10.943   5.434  2.4100  2.8541 -0.9347
   98MOL0     H13502   0.491  10.709   5.368 -0.5241  0.9712  2.1544
   98MOL0     H13503   0.400  10.720   5.205 -1.1528 -5.8942  2.6462
   98MOL0     H13504   1.189  11.388   5.530  0.6074  1.1237 -0.5352
   98MOL0     H13505   1.401  11.475   5.559 -2.4909  0.2395 -1.8941
   98MOL0     H13506   1.760  11.348   5.870  1.8686  0.1946  0.4722
   98MOL0     H13507   1.955  11.408   5.988 -1.0537  0.1243  1.2746
   98MOL0     H13508   2.339  10.625   7.129  0.5710  2.1128  0.8545
   98MOL0     H13509   2.223  10.454   6.992 -0.1236 -1.3068 -1.5325
   98MOL0     H13510   2.251  10.178   6.747 -0.4721  4.8640 -1.9218
   98MOL0     H13511   2.188   9.945   6.721  2.0586  2.4319 -0.0632
   98MOL0     H13512   2.014   9.650   6.617  0.2468 -1.6448  0.9596
   98MOL0     H13513   2.128   9.784   6.615 -1.5065  1.8914  1.4158
   98MOL0     H13514   2.008   9.629   6.844  0.2416 -0.4972  2.3635
   98MOL0     H13515   2.080   9.780   6.883  0.5148 -0.5078  0.5429
   98MOL0     H13516   2.202   9.509   6.783  1.2798 -0.8137  0.7323
   98MOL0     H13517   2.285   9.638   6.702  0.6479 -0.9039 -0.0016
   98MOL0     H13518   2.269   9.595   7.010  1.6471  0.5497  1.0133
   98MOL0     H13519   2.306   9.751   6.940  0.6754  0.2735  1.4027
   98MOL0     H13520   2.667   9.539   6.903 -0.6702  0.0895  0.7150
   98MOL0     H13521   1.782  10.055   6.638  0.4488 -0.5998 -0.9387
   98MOL0     H13522   1.740  10.290   6.574 -0.6159 -1.4574 -0.5973
   98MOL0     H13523   1.747  10.312   6.750 -1.6280  3.1762 -1.0765
   98MOL0     H13524   1.828  10.418   6.646 -1.6075  0.0637  0.5959
   99MOL0     O13525   9.133   1.250   5.220  0.3827 -0.4367 -0.7754
   99MOL0     C13526   9.100   1.240   5.102 -0.3258  1.0849 -0.1823
   99MOL0     O13527   9.184   1.240   4.996  0.2460 -0.0105 -0.3724
   99MOL0     C13528   9.316   1.276   5.009  1.1151 -0.5603  0.7440
   99MOL0     C13529   9.344   1.406   5.055 -0.4170  0.4324  0.7206
   99MOL0     C13530   9.473   1.447   5.075 -0.5309 -0.3309 -0.4025
   99MOL0     C13531   9.580   1.363   5.047 -0.5627  0.4198 -0.2853
   99MOL0     O13532   9.717   1.387   5.058  0.0978  0.4304  0.6501
   99MOL0     C13533   9.770   1.466   5.158  0.4990 -0.4630 -0.6014
   99MOL0     C13534   9.916   1.514   5.131 -0.3227 -0.4840  0.2120
   99MOL0     C13535   9.999   1.501   5.258  0.2824 -0.1114 -0.0540
   99MOL0     C13536  10.140   1.583   5.254 -0.0957  0.4373 -0.5589
   99MOL0     C13537  10.227   1.530   5.371 -0.6563  0.4755 -0.5289
   99MOL0     C13538  10.370   1.584   5.353 -0.0567  0.2668  0.2062
   99MOL0     C13539  10.456   1.548   5.470 -0.0858  0.0473  0.1148
   99MOL0     C13540  10.592   1.632   5.464 -0.2856  0.0316 -0.5811
   99MOL0     N13541  10.692   1.566   5.555 -0.3547  0.6900  0.1296
   99MOL0     C13542  10.824   1.549   5.529  0.2415 -0.2227  0.6271
   99MOL0     C13543  10.881   1.490   5.637  0.1284  1.0951  0.8649
   99MOL0     C13544  11.022   1.427   5.657  0.0343  0.0662 -0.1613
   99MOL0     C13545  11.131   1.531   5.690  0.2340 -0.4073 -0.1553
   99MOL0     C13546  11.262   1.454   5.708  0.2435  0.4542 -0.1570
   99MOL0     C13547  11.372   1.547   5.762 -0.1658  0.1655  0.2947
   99MOL0     O13548  11.484   1.457   5.793  0.2456  0.0365  0.1533
   99MOL0     C13549  11.607   1.495   5.846 -0.0823  0.1243 -0.5993
   99MOL0     C13550  11.630   1.624   5.903 -0.0626  0.4734  0.0917
   99MOL0     C13551  11.755   1.651   5.959 -0.0329  0.3082  0.1561
   99MOL0     C13552  11.773   1.793   6.017  0.0413  0.3408  0.1521
   99MOL0     C13553  11.847   1.544   5.963 -0.4691 -0.2207 -0.9766
   99MOL0     C13554  11.965   1.554   6.044 -0.0931 -0.2058 -0.2453
   99MOL0     O13555  12.070   1.471   6.022 -0.4353  0.0770 -0.5822
   99MOL0     C13556  12.125   1.421   6.137 -0.1647 -0.2134 -0.6955
   99MOL0     C13557  12.251   1.462   6.162 -0.6127 -0.2860 -0.5271
   99MOL0     C13558  12.317   1.414   6.282  0.3656  0.2027 -0.4164
   99MOL0     C13559  12.249   1.322   6.370  0.6256 -0.3729  0.7453
   99MOL0     O13560  12.312   1.281   6.485 -0.1454 -0.7976 -0.1504
   99MOL0     C13561  12.456   1.257   6.490 -1.1200 -0.1855  0.3746
   99MOL0     C13562  12.516   1.379   6.565 -0.6005 -0.4982 -0.2140
   99MOL0     C13563  12.658   1.342   6.615  0.0516 -0.9320 -0.0982
   99MOL0     C13564  12.747   1.462   6.605 -0.2432 -0.1481 -0.4049
   99MOL0     C13565  12.893   1.436   6.632  0.2177  0.2585 -0.4349
   99MOL0     C13566  12.980   1.557   6.662 -0.3432 -0.0097  0.1555
   99MOL0     C13567  13.022   1.632   6.535 -0.0471 -1.4838 -0.2543
   99MOL0     C13568  13.095   1.764   6.560  0.2945 -0.0388  0.5984
   99MOL0    Cl13569  13.136   1.848   6.406 -0.0666 -0.3594 -0.0390
   99MOL0     C13570  12.122   1.280   6.340  0.1612 -0.3847 -0.1089
   99MOL0     C13571  12.057   1.332   6.223  0.0478 -0.4479  0.6017
   99MOL0     O13572  11.960   1.621   6.139 -0.0103 -0.6964  0.1682
   99MOL0     C13573  11.825   1.421   5.901 -0.4343 -0.1191  0.3473
   99MOL0     C13574  11.700   1.398   5.847  0.3057  0.4217 -0.2548
   99MOL0     N13575  10.781   1.480   5.735  0.3838 -0.2847 -0.3027
   99MOL0     N13576  10.668   1.526   5.685  0.2800 -0.0272  0.3443
   99MOL0     C13577   9.546   1.240   4.995 -0.4756  0.8734 -1.1305
   99MOL0     C13578   9.416   1.193   4.975 -0.5547  0.6414 -0.5065
   99MOL0     C13579   8.956   1.245   5.075  0.1633 -0.3266  0.1963
   99MOL0     C13580   8.913   1.248   4.939 -0.2881 -1.2125 -0.1865
   99MOL0     C13581   8.774   1.242   4.900 -0.3080  0.2882  0.1228
   99MOL0     C13582   8.673   1.247   4.997  0.5106  0.1108  0.5408
   99MOL0     O13583   8.538   1.238   4.956  0.7615  0.0779 -0.7519
   99MOL0     C13584   8.446   1.271   5.057  0.0429 -0.0645  0.6094
   99MOL0     C13585   8.307   1.239   4.995 -0.3106  0.2067 -0.4044
   99MOL0     C13586   8.275   1.317   4.864  0.6372 -0.5385 -0.1351
   99MOL0     C13587   8.146   1.281   4.795 -0.3850  0.0998 -0.8586
   99MOL0     C13588   8.032   1.313   4.890  0.2695 -0.2394  0.0152
   99MOL0     C13589   7.930   1.330   4.956 -0.6461  0.1939  0.0079
   99MOL0     C13590   8.715   1.265   5.129  0.2054  0.5410  0.2572
   99MOL0     C13591   8.850   1.255   5.169  0.7837  0.0139 -1.1720
   99MOL0     C13592   8.870   1.266   5.322 -0.2967 -0.4804 -0.2158
   99MOL0     H13593   9.265   1.471   5.091 -0.5644 -0.8543  2.9216
   99MOL0     H13594   9.485   1.546   5.117 -1.3764 -0.4162  0.0560
   99MOL0     H13595   9.766   1.411   5.252  1.5451 -2.0820 -1.4642
   99MOL0     H13596   9.705   1.553   5.170  0.5956 -0.4828  0.1330
   99MOL0     H13597   9.962   1.465   5.045 -1.3979  0.9473 -1.2452
   99MOL0     H13598   9.922   1.621   5.107  0.7741  0.8707  5.1553
   99MOL0     H13599   9.933   1.533   5.339 -1.2834 -2.9254 -0.0843
   99MOL0     H13600  10.032   1.398   5.271  0.3490 -0.1893 -0.8084
   99MOL0     H13601  10.194   1.564   5.161 -1.2213 -1.3229 -0.8937
   99MOL0     H13602  10.125   1.691   5.259  3.4957  1.0971 -0.9092
   99MOL0     H13603  10.229   1.421   5.379  1.1476  0.5048 -0.2601
   99MOL0     H13604  10.187   1.562   5.467 -0.1796 -0.4285 -0.0162
   99MOL0     H13605  10.413   1.550   5.258 -1.4574  2.1179 -1.1578
   99MOL0     H13606  10.357   1.693   5.348  0.6014  0.5168  2.5946
   99MOL0     H13607  10.475   1.440   5.471 -0.3200  0.0054  0.1556
   99MOL0     H13608  10.395   1.574   5.557 -0.0676  0.4410  0.0088
   99MOL0     H13609  10.629   1.623   5.361  0.6159 -2.4317 -0.1090
   99MOL0     H13610  10.570   1.736   5.492 -2.2896 -0.8091  1.2449
   99MOL0     H13611  10.856   1.557   5.426 -2.5842  0.3200 -0.2933
   99MOL0     H13612  11.047   1.374   5.565 -1.1056  0.2356 -0.5815
   99MOL0     H13613  11.032   1.355   5.739  1.9375  1.9438  1.3764
   99MOL0     H13614  11.145   1.608   5.613  2.9406  0.4081  1.0261
   99MOL0     H13615  11.111   1.575   5.788  0.8481 -2.4547  0.9392
   99MOL0     H13616  11.253   1.375   5.783 -3.3626 -0.6422 -1.5768
   99MOL0     H13617  11.302   1.417   5.614  2.5428 -1.3441  1.3959
   99MOL0     H13618  11.404   1.617   5.685  0.5043 -2.3688 -1.9032
   99MOL0     H13619  11.336   1.607   5.847 -3.2693 -0.2233 -0.6143
   99MOL0     H13620  11.555   1.701   5.898 -0.0195  0.4514 -1.6070
   99MOL0     H13621  11.734   1.869   5.949  1.6260 -1.7025 -3.3363
   99MOL0     H13622  11.881   1.810   6.012 -0.1226  1.2919 -0.3183
   99MOL0     H13623  11.735   1.790   6.120 -2.6979 -1.1120 -0.7981
   99MOL0     H13624  12.295   1.534   6.095  1.2303 -2.2716 -1.5762
   99MOL0     H13625  12.416   1.451   6.310 -0.4315  1.6842  0.5646
   99MOL0     H13626  12.473   1.160   6.538  3.2861 -1.3103 -2.7694
   99MOL0     H13627  12.507   1.237   6.395  0.2060 -4.2990  1.7033
   99MOL0     H13628  12.521   1.462   6.495 -3.1612  1.4466  1.7149
   99MOL0     H13629  12.457   1.420   6.647  0.3509 -0.2756  0.3740
   99MOL0     H13630  12.685   1.259   6.548 -0.2683 -1.8970  0.9326
   99MOL0     H13631  12.651   1.299   6.715 -0.2710  0.8975  0.6919
   99MOL0     H13632  12.712   1.529   6.684  1.6594  2.5239 -1.7054
   99MOL0     H13633  12.739   1.509   6.507  0.9810  1.8738  0.4115
   99MOL0     H13634  12.889   1.364   6.715  0.9939 -0.1487 -0.7456
   99MOL0     H13635  12.931   1.374   6.551  1.6087  0.0119  0.3716
   99MOL0     H13636  13.063   1.504   6.710 -0.1672  0.4629  0.3814
   99MOL0     H13637  12.926   1.611   6.739 -2.0568  1.2890 -1.8539
   99MOL0     H13638  12.930   1.660   6.483 -0.2672 -0.7741  0.4997
   99MOL0     H13639  13.088   1.571   6.471  1.5066 -1.7997  1.5702
   99MOL0     H13640  13.182   1.751   6.626 -0.2006  2.0715  1.7600
   99MOL0     H13641  13.020   1.829   6.607 -0.2011  1.1681 -1.7449
   99MOL0     H13642  12.063   1.208   6.396 -1.6977  0.7784 -0.4797
   99MOL0     H13643  11.958   1.298   6.193 -0.5733  0.2323  1.7942
   99MOL0     H13644  11.895   1.339   5.914 -1.2077 -0.5900  1.7088
   99MOL0     H13645  11.670   1.304   5.802  2.3486 -0.4500  0.1021
   99MOL0     H13646   9.627   1.174   4.963 -1.5445 -0.4945 -1.0988
   99MOL0     H13647   9.401   1.093   4.936  1.5046 -0.2203  0.7514
   99MOL0     H13648   8.986   1.230   4.862 -0.2150 -0.0872 -0.3922
   99MOL0     H13649   8.747   1.239   4.795 -2.3992  1.2090  0.5853
   99MOL0     H13650   8.458   1.216   5.151  0.1776 -1.6085 -0.2832
   99MOL0     H13651   8.456   1.378   5.080 -1.2586 -0.2641  2.2511
   99MOL0     H13652   8.223   1.248   5.064  0.1361 -2.9665  0.7062
   99MOL0     H13653   8.314   1.133   4.968  1.6161  0.5536 -1.4456
   99MOL0     H13654   8.288   1.424   4.879  2.5543 -0.5485 -1.4174
   99MOL0     H13655   8.354   1.299   4.791  1.6733 -1.8194  1.2523
   99MOL0     H13656   8.157   1.180   4.754  0.4925 -0.5316  0.8589
   99MOL0     H13657   8.136   1.347   4.708 -0.8543  0.2902 -0.6667
   99MOL0     H13658   7.855   1.332   5.033  0.9802 -2.1069  1.8089
   99MOL0     H13659   8.641   1.262   5.208 -2.3688  0.9377 -2.0149
   99MOL0     H13660   8.943   1.190   5.353 -0.4559  0.1433  1.8388
   99MOL0     H13661   8.913   1.365   5.338  0.1388 -0.5282 -1.0174
   99MOL0     H13662   8.780   1.264   5.384 -0.7502  1.9900 -0.6932
  100MOL0     O13663   1.253   2.132   7.870 -0.4244 -0.0259  0.6198
  100MOL0     C13664   1.185   2.172   7.962  0.4167 -0.5596  0.1036
  100MOL0     O13665   1.236   2.227   8.077  0.2636 -0.2876 -0.7704
  100MOL0     C13666   1.365   2.233   8.094 -0.4267  0.8813 -0.6326
  100MOL0     C13667   1.466   2.283   8.009  0.4588  0.3580  0.2214
  100MOL0     C13668   1.595   2.265   8.048  0.3815 -0.3439 -0.5938
  100MOL0     C13669   1.618   2.203   8.172 -1.2659 -0.0550 -0.6706
  100MOL0     O13670   1.753   2.202   8.206  0.8501  0.3502  0.8944
  100MOL0     C13671   1.804   2.090   8.281 -0.2074 -0.1240  0.1957
  100MOL0     C13672   1.955   2.098   8.282 -0.4611  0.3087 -0.0496
  100MOL0     C13673   2.013   2.224   8.345  0.3060  0.0570  0.5368
  100MOL0     C13674   2.165   2.219   8.324 -0.6854  0.2047  0.8075
  100MOL0     C13675   2.252   2.143   8.422 -0.7940  0.8364 -0.2687
  100MOL0     C13676   2.271   2.229   8.554  0.3211  0.0925  0.4919
  100MOL0     C13677   2.326   2.154   8.674  0.9301 -0.6818 -0.2327
  100MOL0     C13678   2.478   2.121   8.662  0.0662  0.0275  0.1694
  100MOL0     N13679   2.571   2.235   8.635  0.1666  0.1829  0.2829
  100MOL0     C13680   2.557   2.357   8.699 -0.1346 -0.2819  0.5193
  100MOL0     C13681   2.672   2.425   8.677 -0.5809  0.4847  1.7552
  100MOL0     C13682   2.703   2.563   8.727  0.1073  0.3341  0.5300
  100MOL0     C13683   2.766   2.656   8.623  1.0108 -0.3337 -0.1752
  100MOL0     C13684   2.652   2.718   8.537 -1.1689 -0.6603 -0.7645
  100MOL0     C13685   2.698   2.821   8.433  0.2720 -0.4270 -0.8404
  100MOL0     O13686   2.838   2.838   8.438  0.0936  0.1557 -0.7328
  100MOL0     C13687   2.905   2.919   8.346  0.0744  0.0007 -0.1741
  100MOL0     C13688   3.028   2.984   8.395  0.1870  0.7681  0.4326
  100MOL0     C13689   3.104   3.068   8.311  0.3108  0.3819 -0.4021
  100MOL0     C13690   3.220   3.137   8.370 -0.1477  0.2259 -0.4580
  100MOL0     C13691   3.062   3.089   8.179 -0.2344  0.0150 -0.1372
  100MOL0     C13692   3.134   3.188   8.091  0.6181  0.5621  0.3093
  100MOL0     O13693   3.067   3.284   8.026 -0.7643  0.0227 -0.2712
  100MOL0     C13694   3.139   3.369   7.948 -0.5085 -0.5776  0.2219
  100MOL0     C13695   3.207   3.477   8.001 -0.5870 -0.0983  0.1488
  100MOL0     C13696   3.282   3.569   7.933  0.2000 -0.1146  0.0297
  100MOL0     C13697   3.289   3.553   7.797  0.6254 -0.4250 -0.1681
  100MOL0     O13698   3.373   3.637   7.722  0.6172 -0.7447  0.4241
  100MOL0     C13699   3.512   3.609   7.735 -0.1691 -0.4986  0.0752
  100MOL0     C13700   3.608   3.723   7.681  0.1894 -0.4827 -0.5365
  100MOL0     C13701   3.605   3.848   7.766  0.0699  0.8801 -0.2944
  100MOL0     C13702   3.729   3.932   7.750 -0.3290 -0.6026 -0.3215
  100MOL0     C13703   3.744   3.980   7.606 -0.0045 -0.2116  0.4195
  100MOL0     C13704   3.815   4.104   7.592  0.0822  0.1781  0.3961
  100MOL0     C13705   3.956   4.089   7.646  0.7113  0.4116  0.3838
  100MOL0     C13706   4.050   4.183   7.565  0.8934  0.1674  0.4551
  100MOL0    Cl13707   4.012   4.358   7.589  0.1260  0.1218  0.1168
  100MOL0     C13708   3.206   3.454   7.737 -0.1823 -0.4638  0.0403
  100MOL0     C13709   3.129   3.363   7.814  0.1928  0.5813 -0.1060
  100MOL0     O13710   3.251   3.166   8.076 -0.3193 -0.1435  0.8222
  100MOL0     C13711   2.942   3.028   8.130 -0.0689  0.0198 -0.2888
  100MOL0     C13712   2.862   2.949   8.212 -0.0203 -0.3705 -0.0600
  100MOL0     N13713   2.757   2.338   8.619  0.0997 -0.1190 -0.2560
  100MOL0     N13714   2.699   2.225   8.584 -0.0482  0.4499  0.1598
  100MOL0     C13715   1.526   2.140   8.252  0.0389  0.2699  0.0202
  100MOL0     C13716   1.393   2.156   8.212  0.2233 -0.2676 -0.1865
  100MOL0     C13717   1.036   2.146   7.960 -0.5539  0.1905 -0.1416
  100MOL0     C13718   0.978   2.110   8.084 -0.6907  0.1815 -0.3463
  100MOL0     C13719   0.841   2.073   8.100  0.1758 -0.1476 -0.5432
  100MOL0     C13720   0.763   2.071   7.987 -0.5027  0.8662  0.3497
  100MOL0     O13721   0.634   2.030   7.990 -0.0510  0.2066  0.2024
  100MOL0     C13722   0.624   1.880   8.000 -0.9492 -0.3392  0.3358
  100MOL0     C13723   0.521   1.832   8.104  0.6500 -0.0253 -0.3120
  100MOL0     C13724   0.373   1.868   8.059 -1.0403  0.6048  0.3740
  100MOL0     C13725   0.273   1.808   8.151 -0.0323  0.3978  0.2372
  100MOL0     C13726   0.138   1.843   8.110 -0.4231  0.2477 -0.3635
  100MOL0     C13727   0.026   1.864   8.072 -0.1129 -0.5845  0.0612
  100MOL0     C13728   0.820   2.121   7.867  0.4007  0.0431  0.1009
  100MOL0     C13729   0.951   2.162   7.852 -0.1880 -0.9951 -0.5408
  100MOL0     C13730   0.997   2.213   7.722 -0.2316 -0.2200  0.2086
  100MOL0     H13731   1.446   2.320   7.909  3.7729 -1.4345 -1.2479
  100MOL0     H13732   1.683   2.297   7.993  1.2188 -0.1737  0.8135
  100MOL0     H13733   1.779   1.995   8.233  1.1985 -0.2771 -0.3049
  100MOL0     H13734   1.772   2.094   8.385  1.7317  1.4891  0.8117
  100MOL0     H13735   1.996   2.008   8.328  2.1133  1.2260 -0.3486
  100MOL0     H13736   1.984   2.100   8.176 -0.3826  1.2404 -0.0180
  100MOL0     H13737   1.975   2.311   8.290  2.8377 -1.0512 -3.2548
  100MOL0     H13738   1.984   2.230   8.451 -1.4550  1.7997  0.0379
  100MOL0     H13739   2.195   2.174   8.229  0.6271 -1.1524  1.8197
  100MOL0     H13740   2.186   2.326   8.332 -2.3010  0.4989  1.3838
  100MOL0     H13741   2.347   2.128   8.371 -0.8765  2.9637 -1.1668
  100MOL0     H13742   2.208   2.045   8.443  2.4941 -1.2761 -2.2861
  100MOL0     H13743   2.347   2.302   8.528  0.4640 -0.2745 -0.1300
  100MOL0     H13744   2.185   2.291   8.581  0.8709  1.0326  0.0906
  100MOL0     H13745   2.265   2.064   8.685 -1.7299  1.1231  1.0133
  100MOL0     H13746   2.317   2.208   8.768  2.0696  1.1998 -1.1445
  100MOL0     H13747   2.514   2.057   8.743 -1.2079 -2.3003 -0.9990
  100MOL0     H13748   2.474   2.067   8.567 -4.2877 -2.2981  1.3779
  100MOL0     H13749   2.478   2.395   8.764 -1.9823  0.0091 -1.7434
  100MOL0     H13750   2.780   2.558   8.804  1.1715  0.6332 -0.4737
  100MOL0     H13751   2.608   2.604   8.762  0.3582 -1.1172  3.1295
  100MOL0     H13752   2.814   2.745   8.664 -0.2295  0.2725  0.0347
  100MOL0     H13753   2.822   2.596   8.551 -1.7662 -0.9678 -1.9563
  100MOL0     H13754   2.606   2.638   8.479  2.5995 -1.7805 -2.5384
  100MOL0     H13755   2.585   2.768   8.607  1.5099  2.4984 -0.1719
  100MOL0     H13756   2.666   2.784   8.334  0.2103  0.3535 -1.1154
  100MOL0     H13757   2.654   2.919   8.449  0.4057 -0.7513  1.9793
  100MOL0     H13758   3.055   2.960   8.498  0.0048 -2.8117 -0.2354
  100MOL0     H13759   3.232   3.242   8.339 -0.5352  0.2906 -0.3853
  100MOL0     H13760   3.310   3.075   8.358 -0.2656  0.1523 -0.9807
  100MOL0     H13761   3.199   3.150   8.476  0.9065 -0.7199 -0.1198
  100MOL0     H13762   3.207   3.483   8.109 -0.6959  0.4240  0.1218
  100MOL0     H13763   3.344   3.640   7.986 -1.7904  1.1919  0.7564
  100MOL0     H13764   3.537   3.601   7.841 -1.5912 -1.8923  0.3560
  100MOL0     H13765   3.542   3.517   7.683 -0.0779  0.7270 -2.1731
  100MOL0     H13766   3.709   3.683   7.667 -0.4273 -1.2723 -3.4764
  100MOL0     H13767   3.582   3.748   7.578 -1.0297  1.9013  0.2794
  100MOL0     H13768   3.598   3.816   7.870  1.9718  0.9709 -0.1006
  100MOL0     H13769   3.516   3.906   7.741 -0.9865  0.0640  1.4440
  100MOL0     H13770   3.818   3.889   7.796 -0.7374  0.5184  1.6683
  100MOL0     H13771   3.702   4.020   7.810 -0.4849  0.8043 -2.3719
  100MOL0     H13772   3.788   3.902   7.544  0.5885 -2.3313  3.2944
  100MOL0     H13773   3.643   3.993   7.566 -0.4344  0.5462  1.6854
  100MOL0     H13774   3.753   4.185   7.633 -1.3129  0.3360 -1.8724
  100MOL0     H13775   3.826   4.128   7.486  1.6618 -0.4819  0.3882
  100MOL0     H13776   3.989   3.985   7.640  2.5745  0.8169  2.3399
  100MOL0     H13777   3.948   4.117   7.752 -0.9687 -0.9450  0.6447
  100MOL0     H13778   4.042   4.164   7.458  2.3492  2.0139 -0.0277
  100MOL0     H13779   4.156   4.177   7.592  2.1987  1.5451 -3.6559
  100MOL0     H13780   3.206   3.446   7.629  0.5946  0.0219 -0.0045
  100MOL0     H13781   3.067   3.292   7.760  0.3108 -0.9571  1.6899
  100MOL0     H13782   2.896   3.050   8.034  0.1290 -2.2799 -0.9634
  100MOL0     H13783   2.770   2.903   8.180 -2.1069  0.7622  3.6749
  100MOL0     H13784   1.560   2.086   8.339  0.7041 -2.8142 -1.9707
  100MOL0     H13785   1.317   2.105   8.270  0.7812 -1.0730 -0.1495
  100MOL0     H13786   1.037   2.109   8.175  1.1360 -1.3017 -1.4642
  100MOL0     H13787   0.802   2.049   8.198 -0.7469  2.7604 -0.1000
  100MOL0     H13788   0.598   1.846   7.900 -0.3995 -0.4329  0.2215
  100MOL0     H13789   0.724   1.840   8.018 -1.4159 -1.1142  1.3854
  100MOL0     H13790   0.551   1.881   8.197  1.6645  1.1788 -1.2375
  100MOL0     H13791   0.529   1.725   8.120 -0.3462  0.2264  2.2939
  100MOL0     H13792   0.365   1.976   8.052  0.3072  0.6380 -1.6244
  100MOL0     H13793   0.359   1.824   7.960  0.0258  1.6636 -0.2731
  100MOL0     H13794   0.291   1.851   8.250 -1.3518  0.3357  0.5222
  100MOL0     H13795   0.280   1.699   8.153 -2.7914  0.1224 -0.6318
  100MOL0     H13796  -0.075   1.893   8.048 -0.9771 -1.8277  1.9260
  100MOL0     H13797   0.751   2.128   7.784  2.2787  0.9996 -1.4678
  100MOL0     H13798   1.060   2.299   7.747 -0.9826  0.5773 -0.5520
  100MOL0     H13799   1.065   2.134   7.688 -2.0205 -1.7933  0.1648
  100MOL0     H13800   0.920   2.242   7.650 -2.5245  0.8938  2.9280
  101MOL0     O13801   5.299   9.727   7.916  0.0451  0.0095  0.1468
  101MOL0     C13802   5.218   9.767   7.827 -0.5487 -0.1734  0.5465
  101MOL0     O13803   5.239   9.874   7.746 -0.1503  0.5818 -0.2477
  101MOL0     C13804   5.369   9.918   7.720 -0.2532 -0.0949  0.0259
  101MOL0     C13805   5.379  10.061   7.705  0.5935 -0.1398 -0.0602
  101MOL0     C13806   5.502  10.115   7.666  1.0835 -0.0880 -0.1765
  101MOL0     C13807   5.616  10.036   7.649 -0.6415  0.2412  0.4471
  101MOL0     O13808   5.728  10.109   7.615  0.9963  0.3352 -0.7588
  101MOL0     C13809   5.842  10.046   7.643  0.4018 -0.2244  0.3091
  101MOL0     C13810   5.956  10.146   7.616  0.1362 -0.8066  0.1818
  101MOL0     C13811   6.095  10.074   7.619 -0.7719 -0.2482  0.3404
  101MOL0     C13812   6.192  10.135   7.523  0.6021 -0.2677 -0.3429
  101MOL0     C13813   6.317  10.051   7.486  0.0644  0.9335 -0.1802
  101MOL0     C13814   6.418  10.130   7.397  0.1784 -0.6726  0.5789
  101MOL0     C13815   6.544  10.047   7.361  0.2522  0.1613 -0.1557
  101MOL0     C13816   6.634  10.037   7.486 -0.7218  0.0414  0.6338
  101MOL0     N13817   6.760   9.974   7.450 -1.3431  0.4741 -0.4176
  101MOL0     C13818   6.856  10.027   7.358  0.1379 -0.4094 -1.0630
  101MOL0     C13819   6.970   9.965   7.391 -0.2568 -0.4571  0.4177
  101MOL0     C13820   7.104  10.000   7.339  1.1619 -0.0144  0.0151
  101MOL0     C13821   7.132   9.949   7.206 -0.3010  0.1791  0.4485
  101MOL0     C13822   7.248  10.034   7.138  0.3233  0.0318  0.6820
  101MOL0     C13823   7.374  10.032   7.209  0.3836  1.0674 -0.4790
  101MOL0     O13824   7.424   9.889   7.207 -0.2500 -0.8461 -0.0771
  101MOL0     C13825   7.535   9.865   7.288 -0.1152  0.3380 -0.2275
  101MOL0     C13826   7.565   9.739   7.309 -0.1258  0.0569 -0.0132
  101MOL0     C13827   7.675   9.695   7.386 -0.2663  0.0098 -0.3753
  101MOL0     C13828   7.684   9.545   7.414 -0.0970 -0.0188 -0.0320
  101MOL0     C13829   7.764   9.793   7.440 -0.1875  0.5003 -0.1520
  101MOL0     C13830   7.897   9.761   7.499 -0.5251 -0.4398 -1.2189
  101MOL0     O13831   7.944   9.631   7.481 -0.8339  0.5656 -0.2641
  101MOL0     C13832   8.072   9.586   7.498 -0.1347 -0.0520  0.2841
  101MOL0     C13833   8.078   9.447   7.528  0.3524 -0.2464 -0.2016
  101MOL0     C13834   8.200   9.389   7.554  0.5622 -0.2345  0.5325
  101MOL0     C13835   8.319   9.456   7.537 -0.8520 -0.1295  0.8140
  101MOL0     O13836   8.434   9.381   7.558  0.7913 -0.4249 -0.4654
  101MOL0     C13837   8.562   9.418   7.512 -0.4850  0.4453  0.2158
  101MOL0     C13838   8.658   9.335   7.609  0.0023  0.7478 -0.6110
  101MOL0     C13839   8.643   9.350   7.760  0.5393  0.8876  0.1889
  101MOL0     C13840   8.681   9.489   7.815  0.4950 -0.5132  0.4482
  101MOL0     C13841   8.832   9.494   7.857 -0.3431 -0.0516  1.2737
  101MOL0     C13842   8.939   9.493   7.743 -0.2137  0.3997 -0.4102
  101MOL0     C13843   9.073   9.520   7.799  0.4845 -0.2860  0.0755
  101MOL0     C13844   9.178   9.445   7.709  0.2608  0.4696 -0.5613
  101MOL0    Cl13845   9.146   9.526   7.556  0.0219 -0.1088 -0.2372
  101MOL0     C13846   8.320   9.590   7.489 -0.1718 -0.3968  0.1441
  101MOL0     C13847   8.197   9.652   7.479 -0.5271 -0.8889  0.2129
  101MOL0     O13848   7.951   9.853   7.558 -0.8005 -0.2421 -0.1171
  101MOL0     C13849   7.726   9.925   7.418 -0.2470 -0.3388  0.1590
  101MOL0     C13850   7.614   9.969   7.348 -0.2439  1.1461  0.5535
  101MOL0     N13851   6.946   9.871   7.493  0.8441 -0.1001  0.3379
  101MOL0     N13852   6.823   9.870   7.520 -0.0672 -0.0239 -0.1709
  101MOL0     C13853   5.604   9.893   7.663 -0.2422 -0.0377 -0.3103
  101MOL0     C13854   5.484   9.838   7.703 -0.2054  0.5777 -0.2427
  101MOL0     C13855   5.085   9.714   7.828 -1.1323  0.2505 -0.6291
  101MOL0     C13856   5.036   9.642   7.939 -0.2046 -0.0138 -0.7606
  101MOL0     C13857   4.919   9.584   7.957  0.4948 -0.4458  0.3320
  101MOL0     C13858   4.837   9.574   7.849 -0.6856 -0.5628  0.2265
  101MOL0     O13859   4.721   9.496   7.842 -0.3042  0.2471  0.0421
  101MOL0     C13860   4.670   9.438   7.962 -0.0134 -0.3771 -0.4249
  101MOL0     C13861   4.607   9.538   8.056  0.3251 -0.4782  0.2405
  101MOL0     C13862   4.501   9.622   7.991  0.1938 -0.3171  0.5114
  101MOL0     C13863   4.364   9.544   7.976  0.6432  0.1666 -0.1650
  101MOL0     C13864   4.275   9.633   7.903  0.5819  0.4487 -0.0042
  101MOL0     C13865   4.191   9.696   7.840 -0.0355  0.1810 -0.0453
  101MOL0     C13866   4.878   9.639   7.725 -1.2738 -0.7017  0.6102
  101MOL0     C13867   4.999   9.708   7.717 -0.8126 -1.0684 -1.0205
  101MOL0     C13868   5.038   9.771   7.583  0.0268 -0.0351  0.0307
  101MOL0     H13869   5.292  10.126   7.706 -0.0401 -0.9585 -0.7027
  101MOL0     H13870   5.502  10.223   7.655  3.2671 -0.1973 -2.1306
  101MOL0     H13871   5.853   9.956   7.582 -4.3166 -0.2843 -0.8434
  101MOL0     H13872   5.849  10.014   7.747  1.5297 -2.3239 -0.3480
  101MOL0     H13873   5.945  10.189   7.516  0.3223 -0.1418  0.4377
  101MOL0     H13874   5.962  10.233   7.682  0.4271 -0.1880 -0.6433
  101MOL0     H13875   6.147  10.081   7.715  0.8211  3.8931 -0.6261
  101MOL0     H13876   6.087   9.970   7.584 -0.3872  0.2204 -1.2103
  101MOL0     H13877   6.143  10.145   7.425  0.9133 -1.8069 -0.6737
  101MOL0     H13878   6.221  10.233   7.563 -0.7566  0.0136 -0.0091
  101MOL0     H13879   6.282   9.961   7.435 -0.0835  0.6292  0.4481
  101MOL0     H13880   6.365  10.026   7.581 -0.3724  4.2928  1.0419
  101MOL0     H13881   6.366  10.159   7.306 -3.9418 -0.3472  2.7630
  101MOL0     H13882   6.447  10.222   7.449 -1.2609  0.7183 -0.9834
  101MOL0     H13883   6.595  10.105   7.284 -0.6760 -0.0362 -0.9284
  101MOL0     H13884   6.512   9.953   7.315  1.0383 -0.3029  0.2161
  101MOL0     H13885   6.655  10.140   7.517 -0.0938  0.1435 -0.0957
  101MOL0     H13886   6.584   9.978   7.563  1.8888 -1.5442  1.2387
  101MOL0     H13887   6.857  10.112   7.290  3.2513 -0.5840 -1.3853
  101MOL0     H13888   7.176   9.957   7.409  1.0183  0.9901  0.8083
  101MOL0     H13889   7.114  10.109   7.343 -2.3192  0.3847  0.4030
  101MOL0     H13890   7.166   9.847   7.222  0.9022  0.3763 -0.6615
  101MOL0     H13891   7.043   9.961   7.143  0.2972  1.5907 -0.1815
  101MOL0     H13892   7.261   9.987   7.040 -0.0547  0.1046  0.5941
  101MOL0     H13893   7.202  10.133   7.131  2.2918  0.9069 -0.8691
  101MOL0     H13894   7.446  10.096   7.155  1.5709 -0.6462 -1.0081
  101MOL0     H13895   7.360  10.064   7.313 -1.4239 -1.6474  0.1999
  101MOL0     H13896   7.506   9.661   7.262 -1.0246  1.7789 -1.8848
  101MOL0     H13897   7.590   9.489   7.416 -0.8401  1.1704 -0.4435
  101MOL0     H13898   7.721   9.537   7.517  1.1298  0.4119 -0.4229
  101MOL0     H13899   7.753   9.505   7.339 -1.8317 -1.7308 -0.8004
  101MOL0     H13900   7.988   9.387   7.533  0.9960 -1.3734 -1.6439
  101MOL0     H13901   8.189   9.285   7.582 -2.8217  0.7074  3.3979
  101MOL0     H13902   8.582   9.398   7.406  0.4515 -0.3987  0.5296
  101MOL0     H13903   8.580   9.525   7.529  2.8088  0.1238 -0.4994
  101MOL0     H13904   8.653   9.230   7.579  0.6066  0.8685 -1.1827
  101MOL0     H13905   8.760   9.365   7.581  0.9541 -0.3847  1.3928
  101MOL0     H13906   8.708   9.275   7.807  0.9774  0.7703 -0.5845
  101MOL0     H13907   8.538   9.325   7.778  0.2858 -1.5744 -3.4801
  101MOL0     H13908   8.608   9.511   7.894  1.8577 -0.2443  1.6867
  101MOL0     H13909   8.663   9.571   7.744  2.5052  0.8656  1.4280
  101MOL0     H13910   8.848   9.585   7.917 -1.9693  2.2475 -1.5379
  101MOL0     H13911   8.851   9.405   7.918 -1.9000 -2.0553 -0.9705
  101MOL0     H13912   8.919   9.573   7.671 -1.2888  1.4506  0.9932
  101MOL0     H13913   8.933   9.399   7.687  0.4398 -0.6209  1.1855
  101MOL0     H13914   9.079   9.480   7.901  1.7428  1.5907  0.7881
  101MOL0     H13915   9.085   9.628   7.807 -2.6280  0.2962 -1.5098
  101MOL0     H13916   9.153   9.339   7.710 -1.8718  0.9202  0.9734
  101MOL0     H13917   9.278   9.460   7.750  0.6865  1.5344 -1.9184
  101MOL0     H13918   8.415   9.641   7.471 -0.6190 -0.0095 -1.2454
  101MOL0     H13919   8.192   9.756   7.449 -2.2769 -1.1432 -0.5128
  101MOL0     H13920   7.778  10.006   7.469 -0.6447 -0.3043  0.5184
  101MOL0     H13921   7.589  10.074   7.334 -0.4605  1.4043  2.6301
  101MOL0     H13922   5.682   9.823   7.635 -3.0633 -2.4970 -2.8098
  101MOL0     H13923   5.468   9.731   7.705  0.5233  0.2717  5.3438
  101MOL0     H13924   5.114   9.629   8.013  1.6405 -1.3729 -2.8231
  101MOL0     H13925   4.891   9.531   8.047 -0.7390  0.9372  0.8157
  101MOL0     H13926   4.592   9.365   7.938 -1.6660  1.3724 -0.6302
  101MOL0     H13927   4.744   9.375   8.011  0.3521 -0.2546 -0.8151
  101MOL0     H13928   4.684   9.601   8.101 -2.1771  0.1788  4.0867
  101MOL0     H13929   4.566   9.482   8.141  0.6135 -0.3009  0.5026
  101MOL0     H13930   4.494   9.714   8.050 -1.8707 -0.5175  0.6333
  101MOL0     H13931   4.531   9.653   7.891 -1.9328 -0.9095 -0.3616
  101MOL0     H13932   4.328   9.523   8.077  0.5188 -0.6848 -0.3815
  101MOL0     H13933   4.369   9.450   7.922 -0.6126 -0.8077  1.3452
  101MOL0     H13934   4.123   9.759   7.786 -0.7248 -0.9182 -0.5090
  101MOL0     H13935   4.809   9.639   7.642  1.0769  0.9702 -1.4932
  101MOL0     H13936   4.965   9.767   7.501  1.9088  1.1689 -1.8043
  101MOL0     H13937   5.060   9.877   7.599  0.4483 -0.3689  1.8937
  101MOL0     H13938   5.132   9.735   7.540  1.1908  2.5558  0.2096
  102MOL0     O13939  10.623   1.051   7.907 -0.0945  0.7037  0.4607
  102MOL0     C13940  10.599   1.172   7.918  0.9687 -0.0914 -0.1587
  102MOL0     O13941  10.685   1.275   7.912 -0.0323 -0.2076  0.5846
  102MOL0     C13942  10.814   1.236   7.871  0.1085  1.2372  1.3097
  102MOL0     C13943  10.905   1.185   7.959 -0.4434  0.6124 -1.1444
  102MOL0     C13944  11.032   1.160   7.928  0.6445  0.1907  0.1278
  102MOL0     C13945  11.084   1.204   7.807 -0.3407 -0.6391  0.0082
  102MOL0     O13946  11.208   1.167   7.799 -0.0840 -0.1599 -0.0634
  102MOL0     C13947  11.277   1.196   7.669 -0.4494  0.1505  0.1931
  102MOL0     C13948  11.420   1.122   7.674 -0.4567  0.1962  0.2726
  102MOL0     C13949  11.513   1.156   7.800  0.3447  0.0358  0.0854
  102MOL0     C13950  11.643   1.072   7.785 -0.1957 -0.2769 -0.6674
  102MOL0     C13951  11.745   1.116   7.893 -0.2610  0.0676  0.3458
  102MOL0     C13952  11.818   1.249   7.879  1.2344  0.2041 -0.0150
  102MOL0     C13953  11.925   1.266   7.982 -0.9449  0.8887 -0.2938
  102MOL0     C13954  11.983   1.401   7.970  0.3765 -0.1746 -0.4612
  102MOL0     N13955  12.107   1.411   8.049 -0.5367  0.2712  0.0244
  102MOL0     C13956  12.212   1.327   8.030  0.3951  0.9511 -0.5855
  102MOL0     C13957  12.290   1.348   8.138  0.2059 -0.5183  0.1229
  102MOL0     C13958  12.416   1.281   8.154 -0.1383  0.1417  0.2715
  102MOL0     C13959  12.511   1.351   8.262 -0.2676 -0.3641  0.7493
  102MOL0     C13960  12.639   1.263   8.282  0.6733  0.1822  0.5121
  102MOL0     C13961  12.733   1.316   8.391  0.2105  0.4101  0.1395
  102MOL0     O13962  12.846   1.232   8.376  0.2882  0.5475  0.4356
  102MOL0     C13963  12.946   1.265   8.455 -0.7045 -1.0465 -0.4853
  102MOL0     C13964  12.939   1.259   8.592  0.6433 -0.6659 -0.0803
  102MOL0     C13965  13.045   1.288   8.681 -0.6692  0.3824 -0.0488
  102MOL0     C13966  13.020   1.292   8.825  0.6048  0.2616  0.9068
  102MOL0     C13967  13.171   1.319   8.622 -0.4870 -0.4353 -0.3593
  102MOL0     C13968  13.294   1.375   8.703 -0.0761  0.1224 -0.2122
  102MOL0     O13969  13.402   1.425   8.624 -0.3664  0.2720  0.1936
  102MOL0     C13970  13.526   1.425   8.687  0.3618 -0.5770 -0.1201
  102MOL0     C13971  13.626   1.354   8.626 -0.0482 -0.8693 -0.3318
  102MOL0     C13972  13.759   1.362   8.680 -0.3127  0.8838 -0.2161
  102MOL0     C13973  13.782   1.431   8.807  0.2189  0.0204  0.6779
  102MOL0     O13974  13.907   1.440   8.855  0.0776  0.0489 -0.4410
  102MOL0     C13975  13.922   1.356   8.968 -0.1834  0.5796 -0.6826
  102MOL0     C13976  13.997   1.433   9.067  0.1023  0.3178  0.4796
  102MOL0     C13977  14.141   1.465   9.028  0.7333 -0.6786  0.1581
  102MOL0     C13978  14.234   1.529   9.127  0.2078  0.2880  0.5682
  102MOL0     C13979  14.380   1.546   9.064  0.0132 -0.4408  0.3325
  102MOL0     C13980  14.455   1.653   9.126  0.3210 -0.2097 -0.6697
  102MOL0     C13981  14.599   1.659   9.064 -0.2893  0.1781  0.6403
  102MOL0     C13982  14.669   1.771   9.137 -0.4083  0.2256  0.8115
  102MOL0    Cl13983  14.842   1.792   9.079 -0.1146  0.1349 -0.3147
  102MOL0     C13984  13.670   1.499   8.860 -0.9213 -0.9924  0.0657
  102MOL0     C13985  13.550   1.499   8.800 -0.0233  0.0958 -0.7002
  102MOL0     O13986  13.297   1.355   8.825 -0.2248  0.1137  0.0963
  102MOL0     C13987  13.181   1.320   8.488  0.0094  0.8973  0.1437
  102MOL0     C13988  13.075   1.294   8.402 -0.9386 -0.0618 -0.3684
  102MOL0     N13989  12.237   1.466   8.201 -0.6697  0.2672 -0.3196
  102MOL0     N13990  12.136   1.508   8.146  0.8371  0.2602  0.1938
  102MOL0     C13991  10.996   1.269   7.714  0.2220  0.5254  0.1537
  102MOL0     C13992  10.859   1.281   7.750 -0.4111  0.8215  0.6089
  102MOL0     C13993  10.460   1.223   7.949  0.2363  0.1236 -0.1033
  102MOL0     C13994  10.357   1.158   7.882 -0.3462 -0.0239 -0.0471
  102MOL0     C13995  10.224   1.193   7.907 -0.7285  0.0558  0.3996
  102MOL0     C13996  10.187   1.278   8.009  0.4357 -0.5689  0.1442
  102MOL0     O13997  10.056   1.314   8.041 -0.1786  0.2096 -0.3309
  102MOL0     C13998   9.950   1.275   7.949  0.3498 -0.2601 -0.1488
  102MOL0     C13999   9.823   1.342   7.999 -0.0364  0.4822  0.2183
  102MOL0     C14000   9.707   1.314   7.909 -0.1141  0.6357  0.3174
  102MOL0     C14001   9.571   1.344   7.974 -0.6497 -0.5913 -0.1193
  102MOL0     C14002   9.463   1.304   7.875  0.1668  0.1950 -0.1459
  102MOL0     C14003   9.357   1.279   7.818  0.2879  0.2230  0.3997
  102MOL0     C14004  10.288   1.339   8.088 -0.6496  0.3660  0.3234
  102MOL0     C14005  10.419   1.319   8.050 -0.4453 -0.6279  0.0085
  102MOL0     C14006  10.527   1.390   8.137  0.6532 -0.1383 -0.5304
  102MOL0     H14007  10.869   1.150   8.056  0.9459  1.8054 -0.1612
  102MOL0     H14008  11.094   1.110   8.003  1.3877  0.5679 -0.2184
  102MOL0     H14009  11.281   1.299   7.633 -1.6738 -0.3785 -1.6091
  102MOL0     H14010  11.223   1.155   7.583 -2.8112 -0.2243  1.7699
  102MOL0     H14011  11.415   1.015   7.651 -0.4209  0.1819  0.3320
  102MOL0     H14012  11.471   1.167   7.588  2.4111 -1.1098  1.1501
  102MOL0     H14013  11.528   1.265   7.802  0.5182  0.0279  2.3859
  102MOL0     H14014  11.464   1.133   7.895 -1.1529  0.3936 -0.5786
  102MOL0     H14015  11.631   0.964   7.789  1.3998 -0.4963  4.1584
  102MOL0     H14016  11.693   1.104   7.693  2.9226 -0.4490  0.8338
  102MOL0     H14017  11.824   1.042   7.875  1.2069  2.2183 -3.0861
  102MOL0     H14018  11.698   1.111   7.991  1.1524  0.8779  1.0984
  102MOL0     H14019  11.856   1.254   7.776  0.0386  0.3176 -0.4761
  102MOL0     H14020  11.753   1.335   7.898  0.9007  0.2808 -1.3663
  102MOL0     H14021  11.999   1.186   7.971 -2.7987 -0.6691 -2.4219
  102MOL0     H14022  11.876   1.254   8.079 -0.9703  0.4600 -0.3608
  102MOL0     H14023  11.997   1.425   7.864 -0.7471  2.9368 -0.0175
  102MOL0     H14024  11.912   1.478   8.003 -1.5436 -2.8463  2.1951
  102MOL0     H14025  12.239   1.260   7.949  4.0670 -1.4819  2.2886
  102MOL0     H14026  12.469   1.269   8.059 -1.0629 -0.2345 -0.2138
  102MOL0     H14027  12.392   1.178   8.184  2.2608 -0.4875  0.2139
  102MOL0     H14028  12.540   1.454   8.239  1.4463 -1.0279 -0.2624
  102MOL0     H14029  12.452   1.359   8.353 -0.8363 -0.6781  0.4158
  102MOL0     H14030  12.611   1.160   8.303  1.7464 -0.0589  0.8350
  102MOL0     H14031  12.697   1.269   8.189  1.0061  3.1770  0.7908
  102MOL0     H14032  12.764   1.418   8.368 -0.7057  0.9674  1.2336
  102MOL0     H14033  12.682   1.315   8.488  0.3995  4.2543  0.4492
  102MOL0     H14034  12.845   1.222   8.631  1.8521 -2.8914  0.9532
  102MOL0     H14035  13.078   1.212   8.872  1.0197 -1.0503 -1.6744
  102MOL0     H14036  12.916   1.262   8.842 -0.2790  1.2424 -2.1598
  102MOL0     H14037  13.025   1.394   8.865 -0.8768  0.9367 -0.5333
  102MOL0     H14038  13.614   1.305   8.530 -1.0254 -0.6778 -0.3156
  102MOL0     H14039  13.839   1.310   8.629 -0.4721 -0.1856  0.5855
  102MOL0     H14040  13.825   1.327   9.009  0.8577 -0.3392  1.3049
  102MOL0     H14041  13.987   1.271   8.942  1.4175  2.4227 -3.1485
  102MOL0     H14042  13.940   1.521   9.096 -2.5024 -0.3388 -2.0825
  102MOL0     H14043  14.000   1.373   9.158 -0.1904  0.5649  0.6512
  102MOL0     H14044  14.131   1.531   8.941 -1.2227 -0.8529  0.2182
  102MOL0     H14045  14.188   1.375   8.989 -0.4676  0.1958 -3.7306
  102MOL0     H14046  14.246   1.471   9.219  0.1323 -0.7696 -0.0728
  102MOL0     H14047  14.187   1.626   9.145  0.4839  0.2193  1.7412
  102MOL0     H14048  14.437   1.453   9.076 -1.2663 -1.1328  1.3330
  102MOL0     H14049  14.372   1.571   8.958  0.2177  1.1550  0.6662
  102MOL0     H14050  14.464   1.635   9.233 -0.6492 -0.1732 -0.5819
  102MOL0     H14051  14.404   1.745   9.097  0.6359 -0.0834 -0.8326
  102MOL0     H14052  14.599   1.669   8.956 -0.0259  1.6754  0.7569
  102MOL0     H14053  14.641   1.563   9.095 -1.6767 -0.8353 -0.5362
  102MOL0     H14054  14.663   1.753   9.245  0.8654  0.8185  0.9958
  102MOL0     H14055  14.615   1.864   9.118 -1.3819 -0.9542 -3.2920
  102MOL0     H14056  13.681   1.549   8.955  1.7384 -1.8164  0.2881
  102MOL0     H14057  13.470   1.549   8.853  0.3030 -0.6650  0.5520
  102MOL0     H14058  13.273   1.356   8.444 -0.4321  1.7061 -0.1432
  102MOL0     H14059  13.110   1.295   8.299  2.5005  2.7668  0.6384
  102MOL0     H14060  11.035   1.295   7.616 -1.1725  0.7479 -0.3645
  102MOL0     H14061  10.794   1.345   7.691 -0.5396  0.7691  0.6944
  102MOL0     H14062  10.383   1.083   7.808 -2.5876 -2.1502  1.2169
  102MOL0     H14063  10.151   1.144   7.843 -0.3658  1.1436 -0.8968
  102MOL0     H14064   9.981   1.306   7.849  3.3334 -0.9662  0.4794
  102MOL0     H14065   9.938   1.166   7.939  3.1878 -0.8199  1.5979
  102MOL0     H14066   9.834   1.451   8.003  1.2723  0.4827 -1.7924
  102MOL0     H14067   9.796   1.306   8.098  1.3135  1.2370  0.8987
  102MOL0     H14068   9.714   1.377   7.820  1.4596  1.0417  0.7025
  102MOL0     H14069   9.708   1.212   7.871 -1.1075  0.4189  0.8382
  102MOL0     H14070   9.555   1.448   8.006 -0.9511 -1.0195  1.1587
  102MOL0     H14071   9.555   1.282   8.062  1.4232 -1.4434 -0.2700
  102MOL0     H14072   9.265   1.269   7.765 -0.1229  2.1873  0.6590
  102MOL0     H14073  10.258   1.398   8.174  0.0095  2.2453 -0.6981
  102MOL0     H14074  10.592   1.455   8.078  3.6462 -3.0728 -0.8080
  102MOL0     H14075  10.477   1.453   8.211  1.2056  0.5800 -0.7569
  102MOL0     H14076  10.580   1.306   8.183 -2.0934 -1.0814  1.1684
  103MOL0     O14077   0.123   5.491   7.341 -0.1501 -0.0524 -0.1355
  103MOL0     C14078   0.189   5.575   7.280 -0.4770  0.1670  1.0332
  103MOL0     O14079   0.307   5.614   7.316  0.0657 -0.2659 -0.3665
  103MOL0     C14080   0.381   5.570   7.430 -0.1197 -0.6938  0.5504
  103MOL0     C14081   0.327   5.496   7.538  0.3292 -0.0751 -0.1009
  103MOL0     C14082   0.405   5.454   7.645  0.6305  0.1696 -0.7235
  103MOL0     C14083   0.539   5.479   7.636  0.0585  0.8186  0.0344
  103MOL0     O14084   0.632   5.454   7.734  0.0353 -0.1798  0.2689
  103MOL0     C14085   0.608   5.351   7.830 -0.3285  0.1598 -0.5602
  103MOL0     C14086   0.728   5.329   7.911 -0.3307 -0.0071 -0.2627
  103MOL0     C14087   0.838   5.276   7.825 -0.0536 -0.1723  0.1633
  103MOL0     C14088   0.960   5.241   7.902  0.5825 -0.5771  0.2620
  103MOL0     C14089   1.065   5.174   7.809  0.1995  0.6142  0.0147
  103MOL0     C14090   1.197   5.158   7.887  0.3025  0.0780  0.4257
  103MOL0     C14091   1.277   5.290   7.874  0.0068  0.8713  0.6233
  103MOL0     C14092   1.415   5.284   7.938 -0.5617  0.2513  0.0878
  103MOL0     N14093   1.506   5.359   7.851  0.1385 -0.9340 -0.1479
  103MOL0     C14094   1.556   5.490   7.870  0.8297  0.3048  0.0774
  103MOL0     C14095   1.633   5.508   7.761 -0.1968  0.0256  0.1334
  103MOL0     C14096   1.707   5.647   7.742  0.0243 -0.3212  0.0071
  103MOL0     C14097   1.838   5.637   7.823 -0.4271  0.5448  0.0087
  103MOL0     C14098   1.934   5.533   7.756  0.8098 -0.0593  0.1256
  103MOL0     C14099   2.063   5.505   7.841 -0.7646 -0.2905  0.1644
  103MOL0     O14100   2.132   5.632   7.854  0.0784  1.1154  0.5030
  103MOL0     C14101   2.267   5.618   7.887 -0.5607 -1.0003 -0.2226
  103MOL0     C14102   2.349   5.735   7.889  0.0817 -0.6754 -0.7480
  103MOL0     C14103   2.484   5.732   7.906  1.0531 -0.1983  0.3379
  103MOL0     C14104   2.552   5.863   7.894 -0.1484  0.3705  0.7772
  103MOL0     C14105   2.550   5.613   7.933 -0.0888  0.8291  0.4340
  103MOL0     C14106   2.699   5.600   7.940  0.2080  1.4262 -0.0742
  103MOL0     O14107   2.740   5.471   7.962  0.1329 -0.1238 -0.5003
  103MOL0     C14108   2.876   5.446   7.945  0.1218  0.1281 -0.2222
  103MOL0     C14109   2.949   5.435   8.064 -0.9592  0.2930  1.0463
  103MOL0     C14110   3.087   5.405   8.052  0.7567  0.9206 -0.2582
  103MOL0     C14111   3.148   5.393   7.930 -0.2696 -0.2247 -0.2545
  103MOL0     O14112   3.279   5.368   7.898  0.1263 -0.0995 -0.3038
  103MOL0     C14113   3.348   5.479   7.856 -0.2813  0.0637 -0.1570
  103MOL0     C14114   3.469   5.434   7.772 -1.0832  0.5508  0.2257
  103MOL0     C14115   3.427   5.389   7.623  0.1135 -0.2004 -0.2760
  103MOL0     C14116   3.375   5.247   7.628 -0.4150 -0.0088  0.3010
  103MOL0     C14117   3.484   5.135   7.649 -0.0766  0.2067  0.0040
  103MOL0     C14118   3.415   5.004   7.678 -0.6088  0.9622 -0.5682
  103MOL0     C14119   3.510   4.896   7.724 -1.1415  0.1937  0.1468
  103MOL0     C14120   3.445   4.789   7.816  0.0599  0.2713  0.8215
  103MOL0    Cl14121   3.300   4.732   7.735 -0.3502  0.1793  0.1523
  103MOL0     C14122   3.072   5.421   7.821 -0.8592  0.5224 -1.0853
  103MOL0     C14123   2.935   5.449   7.824 -0.7658  0.4242  0.6684
  103MOL0     O14124   2.771   5.699   7.926 -0.9402 -0.1739 -0.0720
  103MOL0     C14125   2.470   5.497   7.947  0.1985 -0.3292  0.3824
  103MOL0     C14126   2.325   5.498   7.923 -0.5278  0.3408  0.2624
  103MOL0     N14127   1.637   5.405   7.681 -0.4091 -0.3799 -0.3683
  103MOL0     N14128   1.563   5.314   7.738 -0.4097  0.5406 -0.3722
  103MOL0     C14129   0.598   5.545   7.524  0.1650  0.4165 -0.2643
  103MOL0     C14130   0.518   5.593   7.417  0.1052  0.5551  0.4021
  103MOL0     C14131   0.128   5.627   7.149  0.2832 -0.3806  0.5299
  103MOL0     C14132   0.037   5.540   7.082 -0.6444  0.7526  0.3811
  103MOL0     C14133  -0.018   5.568   6.960  0.0691 -0.0959 -0.9175
  103MOL0     C14134  -0.000   5.697   6.908 -0.3071  0.2255 -0.9803
  103MOL0     O14135  -0.072   5.722   6.798  0.7240 -0.0663  0.6380
  103MOL0     C14136  -0.064   5.839   6.711  0.0105 -0.2530 -0.2699
  103MOL0     C14137  -0.198   5.914   6.725 -0.7339  0.0708  0.4029
  103MOL0     C14138  -0.324   5.835   6.703 -0.4376 -0.3803  0.5083
  103MOL0     C14139  -0.461   5.910   6.694 -0.4630  0.3558  0.8442
  103MOL0     C14140  -0.502   5.976   6.819 -0.3050  0.2731 -0.2636
  103MOL0     C14141  -0.536   6.045   6.915 -0.8450  0.5614  0.4640
  103MOL0     C14142   0.080   5.790   6.969 -0.5872 -0.0045  0.2636
  103MOL0     C14143   0.147   5.752   7.090  0.7616 -0.6064 -0.5168
  103MOL0     C14144   0.225   5.862   7.159  0.6102  0.4496 -0.4806
  103MOL0     H14145   0.219   5.481   7.537 -0.1085  2.4403  1.0448
  103MOL0     H14146   0.369   5.414   7.739 -1.6019  0.1070 -1.5201
  103MOL0     H14147   0.585   5.256   7.779 -0.6784 -1.0081  1.6573
  103MOL0     H14148   0.531   5.379   7.902  1.0215  2.1667  0.1787
  103MOL0     H14149   0.755   5.420   7.965 -0.5632  1.4107 -2.4233
  103MOL0     H14150   0.709   5.251   7.986 -0.2194  0.6906  0.5059
  103MOL0     H14151   0.796   5.189   7.773  1.0477 -0.8255  0.3239
  103MOL0     H14152   0.856   5.358   7.754  0.9562 -1.6007 -1.3188
  103MOL0     H14153   0.991   5.336   7.946 -0.1907 -0.0655 -0.2605
  103MOL0     H14154   0.944   5.174   7.988  0.9036 -0.5504  0.3420
  103MOL0     H14155   1.066   5.235   7.718  1.2381  1.3514  0.4911
  103MOL0     H14156   1.034   5.073   7.782  3.8741 -0.3887 -1.0892
  103MOL0     H14157   1.156   5.128   7.984 -1.2220  0.2613 -0.1231
  103MOL0     H14158   1.256   5.075   7.849 -0.2788 -0.7382  1.2674
  103MOL0     H14159   1.231   5.376   7.923 -0.5495  1.3829 -0.7609
  103MOL0     H14160   1.283   5.307   7.766  1.1001 -0.2651  0.4782
  103MOL0     H14161   1.411   5.314   8.043 -1.6442 -2.3049  0.8463
  103MOL0     H14162   1.456   5.184   7.953  0.8372  0.6702 -0.6458
  103MOL0     H14163   1.533   5.558   7.950 -0.6423 -0.5749  0.4441
  103MOL0     H14164   1.641   5.727   7.775  0.7254  0.2072  0.1611
  103MOL0     H14165   1.728   5.674   7.638  2.6603  4.0633  1.4100
  103MOL0     H14166   1.881   5.736   7.838 -2.1328  1.2923  0.2763
  103MOL0     H14167   1.806   5.601   7.921 -0.5486  1.8347  0.4620
  103MOL0     H14168   1.886   5.435   7.754  2.5643 -1.0499 -3.7947
  103MOL0     H14169   1.962   5.555   7.653  1.9848  3.0869  0.9762
  103MOL0     H14170   2.039   5.462   7.938  1.6101 -1.5405  0.2779
  103MOL0     H14171   2.111   5.423   7.787 -2.7497 -0.6441 -1.1756
  103MOL0     H14172   2.289   5.821   7.864  2.2601  0.7211 -1.4562
  103MOL0     H14173   2.603   5.873   7.798  2.9883  1.0933  2.4230
  103MOL0     H14174   2.616   5.889   7.978 -0.0023  0.4339  0.6472
  103MOL0     H14175   2.474   5.940   7.894  0.5418  1.0815  0.6949
  103MOL0     H14176   2.903   5.435   8.162 -0.2710  0.5954  1.3768
  103MOL0     H14177   3.142   5.391   8.144 -0.4422 -0.0458  0.3463
  103MOL0     H14178   3.289   5.547   7.794  0.5061  2.4271  1.5214
  103MOL0     H14179   3.378   5.541   7.941  0.7621 -0.1095 -0.3777
  103MOL0     H14180   3.532   5.522   7.754  0.6641 -0.1040  2.6650
  103MOL0     H14181   3.524   5.357   7.827 -1.8088 -2.4963 -2.9482
  103MOL0     H14182   3.505   5.399   7.547  2.1147 -2.1393  1.3723
  103MOL0     H14183   3.346   5.449   7.583  0.6566  1.3571  0.8669
  103MOL0     H14184   3.314   5.223   7.540 -0.4029  0.9314  0.0322
  103MOL0     H14185   3.306   5.220   7.708 -1.3164 -1.1885 -0.8297
  103MOL0     H14186   3.554   5.114   7.568 -0.0494  1.4987 -0.3341
  103MOL0     H14187   3.537   5.163   7.741 -1.0785  1.5478  0.2082
  103MOL0     H14188   3.350   4.979   7.593 -0.9743 -2.2413  0.5106
  103MOL0     H14189   3.343   5.020   7.759 -0.2685 -1.1882  0.2245
  103MOL0     H14190   3.592   4.937   7.783 -0.4710 -0.9525  0.0414
  103MOL0     H14191   3.552   4.850   7.634  0.1717 -1.7237  1.6631
  103MOL0     H14192   3.422   4.829   7.915 -0.3368  0.5237  0.6275
  103MOL0     H14193   3.522   4.712   7.822  1.6789  1.7770  0.4483
  103MOL0     H14194   3.108   5.403   7.720  0.0831 -3.5241 -0.1952
  103MOL0     H14195   2.877   5.470   7.734  0.3023  0.6234  0.0122
  103MOL0     H14196   2.517   5.399   7.950  2.3143  0.6143  0.3217
  103MOL0     H14197   2.283   5.398   7.910  0.0482  0.2078 -0.7411
  103MOL0     H14198   0.707   5.546   7.520  0.2390 -1.8470 -0.2078
  103MOL0     H14199   0.561   5.651   7.336  1.4416 -0.1051  0.6083
  103MOL0     H14200   0.009   5.438   7.109 -1.2787  0.7957 -0.0941
  103MOL0     H14201  -0.075   5.492   6.907 -2.0685  0.8317 -0.0607
  103MOL0     H14202   0.010   5.912   6.742 -1.8548  1.3853  0.5386
  103MOL0     H14203  -0.036   5.806   6.611  1.4969 -3.6403  1.0908
  103MOL0     H14204  -0.194   5.995   6.651 -4.6324 -1.2625 -1.5764
  103MOL0     H14205  -0.212   5.951   6.827 -2.1722  0.4064  0.1093
  103MOL0     H14206  -0.325   5.771   6.614 -6.0671 -1.4373  0.9139
  103MOL0     H14207  -0.327   5.762   6.784  2.8881 -0.7245  0.4382
  103MOL0     H14208  -0.532   5.830   6.669  1.3069 -1.5790  1.6461
  103MOL0     H14209  -0.459   5.982   6.612  1.7360  0.2295  0.7443
  103MOL0     H14210  -0.581   6.094   6.999 -2.1578 -0.6534  0.5035
  103MOL0     H14211   0.094   5.890   6.929  3.1025  0.2552  1.7919
  103MOL0     H14212   0.187   5.881   7.259 -0.3294 -0.3819 -0.6666
  103MOL0     H14213   0.321   5.825   7.196 -0.7478  0.9714  4.1667
  103MOL0     H14214   0.225   5.950   7.093 -0.5020 -0.7583 -2.1843
  104MOL0     O14215  10.675   0.231   4.146 -0.3339  0.1596  0.2581
  104MOL0     C14216  10.716   0.345   4.152 -0.9896 -0.2599 -0.4626
  104MOL0     O14217  10.842   0.382   4.118 -0.5294 -0.3327  0.1669
  104MOL0     C14218  10.939   0.283   4.088 -0.0669 -0.3627 -0.0236
  104MOL0     C14219  11.028   0.322   3.981 -0.0606  0.6003 -0.3469
  104MOL0     C14220  11.139   0.232   3.955 -0.4135 -0.4644 -0.4768
  104MOL0     C14221  11.155   0.108   4.014  0.5004 -0.2853 -0.5428
  104MOL0     O14222  11.258   0.022   3.986 -0.1235 -0.1647 -0.0714
  104MOL0     C14223  11.382   0.074   3.943 -0.2477  0.4957  0.8428
  104MOL0     C14224  11.490  -0.024   3.974  1.3274  0.5511 -0.0809
  104MOL0     C14225  11.623   0.045   4.001  0.4908 -0.2259  0.5966
  104MOL0     C14226  11.664   0.135   3.880 -0.6724  0.5141  0.2146
  104MOL0     C14227  11.794   0.227   3.908  0.0349  0.7625 -0.6422
  104MOL0     C14228  11.777   0.328   4.018 -0.3307 -0.6201 -0.1175
  104MOL0     C14229  11.905   0.413   4.047 -0.3823 -0.0701  0.6796
  104MOL0     C14230  11.883   0.540   4.140 -0.2263 -0.0584 -0.4401
  104MOL0     N14231  11.856   0.490   4.282 -0.2027 -0.7151  0.0855
  104MOL0     C14232  11.953   0.430   4.356  0.0167 -1.3142 -0.1531
  104MOL0     C14233  11.898   0.408   4.473 -0.2203  0.7750  0.3879
  104MOL0     C14234  11.972   0.336   4.587 -1.0551 -0.9182  0.3908
  104MOL0     C14235  11.880   0.296   4.708  0.3165 -0.7560 -0.2521
  104MOL0     C14236  11.945   0.205   4.810 -0.0585 -0.5920 -0.0988
  104MOL0     C14237  12.085   0.240   4.854  0.6904 -0.2222 -0.5249
  104MOL0     O14238  12.179   0.225   4.747 -0.4963 -0.4759  0.3313
  104MOL0     C14239  12.308   0.175   4.768 -0.6774  0.0151 -0.2982
  104MOL0     C14240  12.373   0.170   4.897  0.1312 -0.4945  0.6859
  104MOL0     C14241  12.493   0.106   4.912 -0.1430  0.4534  0.5037
  104MOL0     C14242  12.553   0.125   5.055  0.2807  0.1538 -0.1150
  104MOL0     C14243  12.556   0.038   4.799  0.3504 -0.3951 -0.5743
  104MOL0     C14244  12.688  -0.041   4.803  0.3738 -0.0885  0.2261
  104MOL0     O14245  12.747  -0.061   4.928 -0.4274  0.4283  0.0309
  104MOL0     C14246  12.878  -0.121   4.926  0.0326  0.8181  0.6015
  104MOL0     C14247  12.911  -0.257   4.900  0.5171  0.6206 -0.0221
  104MOL0     C14248  13.039  -0.307   4.882  0.9840 -0.1655  0.1894
  104MOL0     C14249  13.145  -0.212   4.878  0.4688  0.6397 -0.2932
  104MOL0     O14250  13.268  -0.272   4.866  0.3104  0.0983 -0.1975
  104MOL0     C14251  13.377  -0.187   4.835  0.0068 -0.4304 -0.1690
  104MOL0     C14252  13.475  -0.265   4.755  0.3342  0.0499  0.0958
  104MOL0     C14253  13.623  -0.193   4.744  0.5719 -0.8689  0.6780
  104MOL0     C14254  13.706  -0.260   4.631  0.1018 -0.4281 -0.0029
  104MOL0     C14255  13.853  -0.260   4.663  0.8236  0.4933  0.1805
  104MOL0     C14256  13.942  -0.318   4.552  0.5131 -0.2405 -0.3540
  104MOL0     C14257  13.933  -0.471   4.546  0.1473 -0.3092 -0.1672
  104MOL0     C14258  14.054  -0.522   4.467  0.5597  0.7641 -0.0427
  104MOL0    Cl14259  14.187  -0.584   4.569 -0.1677 -0.1288 -0.0690
  104MOL0     C14260  13.120  -0.077   4.905  0.3939 -0.4716  0.8581
  104MOL0     C14261  12.991  -0.031   4.936 -0.1296 -0.1148 -0.4516
  104MOL0     O14262  12.722  -0.086   4.694  0.2670  0.0424  0.0716
  104MOL0     C14263  12.491   0.046   4.675  0.1988 -0.3400 -1.2387
  104MOL0     C14264  12.373   0.118   4.660 -0.7142  0.1607 -0.1072
  104MOL0     N14265  11.765   0.445   4.465  0.1920 -0.0745  0.0304
  104MOL0     N14266  11.743   0.495   4.353  0.1733  0.2590  0.1297
  104MOL0     C14267  11.050   0.061   4.104  0.1376 -0.7451 -0.2705
  104MOL0     C14268  10.948   0.156   4.140  0.1317 -0.0971 -0.4658
  104MOL0     C14269  10.624   0.456   4.200  0.4489  0.3167  0.8925
  104MOL0     C14270  10.669   0.590   4.212  0.0418 -0.3557 -0.6966
  104MOL0     C14271  10.586   0.682   4.280  0.4903  0.2217 -0.3865
  104MOL0     C14272  10.460   0.659   4.316  0.1226 -0.6815  0.1700
  104MOL0     O14273  10.384   0.768   4.363  0.1163 -0.2473 -0.3443
  104MOL0     C14274  10.252   0.745   4.416  0.4675  0.1939 -0.3470
  104MOL0     C14275  10.171   0.872   4.409  0.4766 -0.7462 -0.2152
  104MOL0     C14276  10.174   0.962   4.535 -0.2193 -0.8188 -0.9283
  104MOL0     C14277  10.079   1.086   4.530  0.0663 -0.3540 -0.3315
  104MOL0     C14278  10.132   1.190   4.440  1.0058 -0.0966  0.2989
  104MOL0     C14279  10.182   1.270   4.363  0.2310  1.0011 -0.2851
  104MOL0     C14280  10.405   0.529   4.301  0.5179 -0.9386 -0.2843
  104MOL0     C14281  10.486   0.430   4.244 -0.5980  0.8382 -0.1468
  104MOL0     C14282  10.430   0.288   4.246 -0.0519  0.5784  0.1398
  104MOL0     H14283  11.021   0.414   3.923  1.1091 -0.0148 -1.5255
  104MOL0     H14284  11.213   0.265   3.883 -1.6249 -1.2850 -2.1679
  104MOL0     H14285  11.400   0.169   3.993  1.7102  0.3697  0.4595
  104MOL0     H14286  11.379   0.088   3.834  0.2232 -0.6093  0.6691
  104MOL0     H14287  11.469  -0.073   4.069 -1.4163  0.6876 -0.5322
  104MOL0     H14288  11.479  -0.097   3.894 -0.5275  1.4466 -0.7128
  104MOL0     H14289  11.614   0.103   4.093  2.7805 -1.1217  1.4807
  104MOL0     H14290  11.696  -0.034   4.023 -0.7528 -1.2227  1.2858
  104MOL0     H14291  11.681   0.069   3.795 -0.9911 -3.1482  2.7426
  104MOL0     H14292  11.579   0.198   3.850 -2.4642 -0.4858  2.8266
  104MOL0     H14293  11.824   0.279   3.816  1.3275  0.7003 -0.2768
  104MOL0     H14294  11.869   0.156   3.945 -0.0743 -0.1389 -2.0277
  104MOL0     H14295  11.695   0.394   3.987  2.5910  3.2606 -0.3224
  104MOL0     H14296  11.757   0.271   4.110  0.1979 -1.9911 -0.8313
  104MOL0     H14297  11.941   0.451   3.951  0.1461  0.5694  1.1285
  104MOL0     H14298  11.987   0.356   4.092  0.5214  2.2069  2.0603
  104MOL0     H14299  11.974   0.601   4.144  1.8176 -2.9578  1.5687
  104MOL0     H14300  11.800   0.588   4.088 -0.4980 -1.2298 -1.1226
  104MOL0     H14301  12.054   0.412   4.320  0.9378  3.0512 -0.3227
  104MOL0     H14302  12.055   0.396   4.626 -0.9247  0.3799 -1.7407
  104MOL0     H14303  12.028   0.249   4.551  1.6648  1.0553 -0.4786
  104MOL0     H14304  11.848   0.387   4.760  1.4244 -2.4158  3.7007
  104MOL0     H14305  11.794   0.240   4.670  0.6457 -0.7988 -0.9538
  104MOL0     H14306  11.887   0.227   4.900 -0.1017  0.2131 -0.3090
  104MOL0     H14307  11.932   0.099   4.787 -0.8690 -0.6420  0.5321
  104MOL0     H14308  12.083   0.343   4.890 -2.3562 -0.1510 -0.6422
  104MOL0     H14309  12.106   0.167   4.932 -1.7391 -1.8195 -1.2362
  104MOL0     H14310  12.326   0.211   4.986  1.8433 -0.1283  1.4622
  104MOL0     H14311  12.480   0.170   5.123 -1.8069  0.1055 -2.1837
  104MOL0     H14312  12.646   0.181   5.062  0.3450 -0.0116  0.3724
  104MOL0     H14313  12.567   0.025   5.096 -1.5699  0.3527  1.1384
  104MOL0     H14314  12.834  -0.330   4.919 -2.0956  2.6356 -2.0755
  104MOL0     H14315  13.063  -0.413   4.882  0.5526 -0.3025  1.8293
  104MOL0     H14316  13.351  -0.103   4.770 -1.2767 -0.1447  0.6641
  104MOL0     H14317  13.403  -0.145   4.933 -3.9529 -0.1992  0.9610
  104MOL0     H14318  13.479  -0.366   4.796 -2.5863 -0.2668 -0.1813
  104MOL0     H14319  13.422  -0.267   4.659  2.0501  0.5749 -0.9009
  104MOL0     H14320  13.677  -0.207   4.839  1.5797 -2.6440 -0.1066
  104MOL0     H14321  13.615  -0.090   4.710 -0.7585 -1.7430 -1.9091
  104MOL0     H14322  13.684  -0.206   4.538  1.1640 -1.8535 -1.1340
  104MOL0     H14323  13.670  -0.362   4.616 -0.3981 -0.2656  0.0809
  104MOL0     H14324  13.891  -0.159   4.684  0.6041  0.7729 -0.7280
  104MOL0     H14325  13.871  -0.323   4.751 -1.5830 -2.6469 -1.3969
  104MOL0     H14326  14.042  -0.275   4.565  0.1872  0.6335 -0.6126
  104MOL0     H14327  13.910  -0.277   4.455  1.0898 -2.1453 -1.3956
  104MOL0     H14328  13.837  -0.507   4.509 -0.7503 -0.1077  1.8166
  104MOL0     H14329  13.949  -0.517   4.644 -1.5513 -0.6907 -0.0397
  104MOL0     H14330  14.089  -0.443   4.399  0.9461 -0.7343 -1.6791
  104MOL0     H14331  14.022  -0.609   4.409 -1.7496  0.6558  1.2791
  104MOL0     H14332  13.208  -0.015   4.918  0.8085 -0.8376 -0.1326
  104MOL0     H14333  12.974   0.072   4.966  1.0342 -0.4883  1.6825
  104MOL0     H14334  12.518   0.003   4.579  0.0700 -2.6637 -0.3069
  104MOL0     H14335  12.330   0.129   4.561  0.4259  1.9609 -0.4537
  104MOL0     H14336  11.061  -0.036   4.152 -0.4202  0.3826  2.3125
  104MOL0     H14337  10.888   0.114   4.221  1.9383 -1.6877  0.1290
  104MOL0     H14338  10.772   0.618   4.193 -0.1040  0.4756 -0.2964
  104MOL0     H14339  10.629   0.781   4.299 -0.6214  0.6555 -0.0609
  104MOL0     H14340  10.193   0.669   4.364  1.9831 -1.0759 -0.2976
  104MOL0     H14341  10.256   0.718   4.522 -0.6576 -0.9330 -0.5755
  104MOL0     H14342  10.065   0.844   4.406  0.2930 -0.3160  1.2665
  104MOL0     H14343  10.188   0.939   4.324 -1.2573  0.4465  0.3119
  104MOL0     H14344  10.153   0.899   4.622 -1.0723 -0.3938 -0.8172
  104MOL0     H14345  10.274   1.001   4.553  0.1473 -0.4610 -3.4538
  104MOL0     H14346  10.077   1.138   4.627  1.2439 -0.2252 -0.3631
  104MOL0     H14347   9.980   1.046   4.504  1.2529 -1.5936 -3.3764
  104MOL0     H14348  10.209   1.347   4.294  1.7454 -1.8315 -3.0884
  104MOL0     H14349  10.317   0.504   4.359 -1.3781  2.4410 -1.4381
  104MOL0     H14350  10.488   0.229   4.318  0.4900  0.7381 -0.1624
  104MOL0     H14351  10.324   0.291   4.274  0.4799  1.1686  2.2511
  104MOL0     H14352  10.436   0.239   4.149  2.8626  1.2604 -0.0993
  105MOL0     O14353   7.725   5.817  10.846  0.1720  0.3256  0.1741
  105MOL0     C14354   7.698   5.703  10.883  0.4329  0.2840  0.1276
  105MOL0     O14355   7.784   5.601  10.895  0.4154  0.1480 -0.3824
  105MOL0     C14356   7.911   5.631  10.852 -0.8112  1.2677 -1.4843
  105MOL0     C14357   7.952   5.586  10.731 -0.0512  0.8001  0.6482
  105MOL0     C14358   8.080   5.614  10.680 -0.6164  0.0250  0.5066
  105MOL0     C14359   8.175   5.674  10.761 -0.0224 -0.1814  0.5474
  105MOL0     O14360   8.305   5.698  10.714 -0.2962 -0.6185  0.4666
  105MOL0     C14361   8.343   5.646  10.586  0.1063  0.0319 -0.1073
  105MOL0     C14362   8.481   5.693  10.542 -0.1363 -0.1376  0.7299
  105MOL0     C14363   8.587   5.639  10.641 -0.2012 -0.2173 -0.3215
  105MOL0     C14364   8.705   5.734  10.652  0.4036 -0.8360  0.4130
  105MOL0     C14365   8.804   5.686  10.760 -0.9893  0.7181  0.1687
  105MOL0     C14366   8.931   5.777  10.763 -0.3397 -0.0590  0.2053
  105MOL0     C14367   9.040   5.723  10.855 -0.6972 -0.1242  0.2646
  105MOL0     C14368   9.094   5.596  10.790 -0.3735 -0.0590  0.1460
  105MOL0     N14369   9.229   5.570  10.843 -0.7692 -0.6732 -0.9574
  105MOL0     C14370   9.258   5.478  10.938  0.0190  0.7621 -0.5256
  105MOL0     C14371   9.385   5.490  10.966 -0.5452 -0.0050  0.8792
  105MOL0     C14372   9.469   5.436  11.077 -0.7547 -0.4734  0.8891
  105MOL0     C14373   9.544   5.308  11.025 -0.2409 -0.4839  0.6334
  105MOL0     C14374   9.636   5.238  11.127  0.3978 -0.4192  0.3244
  105MOL0     C14375   9.750   5.320  11.177 -0.4570  0.2802 -0.5881
  105MOL0     O14376   9.830   5.357  11.066  0.1171  0.1841 -0.3654
  105MOL0     C14377   9.956   5.404  11.088  1.1264  0.5220  0.3214
  105MOL0     C14378  10.044   5.384  10.980  0.5465 -0.0648 -0.4724
  105MOL0     C14379  10.177   5.425  10.988 -0.2928 -0.2499 -0.2996
  105MOL0     C14380  10.262   5.390  10.870 -0.6188  0.1239  1.0048
  105MOL0     C14381  10.229   5.479  11.105 -0.3668 -1.0593  0.1461
  105MOL0     C14382  10.365   5.523  11.116  1.2702 -0.9222 -0.1656
  105MOL0     O14383  10.452   5.456  11.196  0.7029 -0.0310  0.3038
  105MOL0     C14384  10.577   5.509  11.213 -0.2121  0.0689 -0.5061
  105MOL0     C14385  10.670   5.526  11.103 -0.3001  0.8137  0.5612
  105MOL0     C14386  10.804   5.563  11.119 -0.5196 -0.7150  0.8481
  105MOL0     C14387  10.842   5.601  11.248  0.4696  0.5093 -0.6182
  105MOL0     O14388  10.961   5.663  11.280  0.2096 -0.1339  0.2720
  105MOL0     C14389  11.068   5.685  11.187  0.4901  0.7195  0.1414
  105MOL0     C14390  11.145   5.551  11.153  0.4848  0.2545  0.0625
  105MOL0     C14391  11.252   5.599  11.045  0.1395 -0.0145 -0.1992
  105MOL0     C14392  11.390   5.554  11.091  0.1096 -0.0063  0.0701
  105MOL0     C14393  11.508   5.611  11.014 -0.7970 -0.4555 -0.5092
  105MOL0     C14394  11.644   5.566  11.076  0.5932 -0.0575  0.0505
  105MOL0     C14395  11.757   5.681  11.058  1.1075 -0.0318  0.0020
  105MOL0     C14396  11.877   5.666  11.144 -0.2643  1.1659 -1.1348
  105MOL0    Cl14397  11.981   5.518  11.098 -0.2064 -0.3548 -0.7043
  105MOL0     C14398  10.750   5.591  11.355 -0.0213  0.1286 -0.7148
  105MOL0     C14399  10.627   5.534  11.343 -0.1306 -0.1518  0.5314
  105MOL0     O14400  10.392   5.628  11.053 -0.1792  0.6307 -0.5481
  105MOL0     C14401  10.142   5.491  11.215  0.1299  0.7520 -0.0753
  105MOL0     C14402  10.006   5.448  11.207 -0.3495  0.1323  0.4337
  105MOL0     N14403   9.440   5.580  10.879 -0.6497  0.7349  0.3265
  105MOL0     N14404   9.348   5.629  10.804 -0.4582  0.1036 -0.2721
  105MOL0     C14405   8.141   5.720  10.894  0.6174  0.4557 -0.0579
  105MOL0     C14406   8.007   5.698  10.937 -0.4423  0.1391 -0.3687
  105MOL0     C14407   7.557   5.684  10.928  0.2441 -0.4270 -0.9934
  105MOL0     C14408   7.457   5.783  10.891 -0.0342  0.4194 -0.8336
  105MOL0     C14409   7.323   5.782  10.932  0.7744  0.3750 -0.5595
  105MOL0     C14410   7.271   5.673  10.999 -0.2334 -0.3630 -0.7829
  105MOL0     O14411   7.150   5.664  11.056  0.5100  0.7227 -0.0529
  105MOL0     C14412   7.053   5.751  10.993 -0.2351  0.3375 -0.4608
  105MOL0     C14413   6.917   5.712  11.045 -0.2637 -0.9248  0.3111
  105MOL0     C14414   6.900   5.747  11.194  0.3201 -0.8036  0.1136
  105MOL0     C14415   6.754   5.725  11.227  0.7491  0.1533 -0.6869
  105MOL0     C14416   6.726   5.756  11.366  0.2065 -0.2709  0.6927
  105MOL0     C14417   6.722   5.781  11.481  0.2453 -0.1091 -0.1220
  105MOL0     C14418   7.363   5.570  11.031  0.5617 -0.7288 -0.4829
  105MOL0     C14419   7.499   5.576  11.005 -0.3614 -0.6617  0.4364
  105MOL0     C14420   7.577   5.457  11.045 -0.2726 -0.6875 -0.2073
  105MOL0     H14421   7.880   5.535  10.668 -0.0781 -0.3468  1.5782
  105MOL0     H14422   8.094   5.583  10.577 -0.6471  0.4384  0.3751
  105MOL0     H14423   8.269   5.677  10.511  1.4945  3.7796 -0.0832
  105MOL0     H14424   8.345   5.536  10.583  0.2118  0.0443 -0.8675
  105MOL0     H14425   8.504   5.650  10.444  3.4012  1.4573  0.6972
  105MOL0     H14426   8.497   5.801  10.533 -0.9141  0.1450  2.4718
  105MOL0     H14427   8.544   5.622  10.740 -1.8122 -1.2866 -1.1588
  105MOL0     H14428   8.621   5.543  10.601  0.3373  1.1907 -3.5767
  105MOL0     H14429   8.757   5.744  10.556 -1.7853 -0.7872 -0.8260
  105MOL0     H14430   8.675   5.836  10.677  0.3860 -0.7697  0.1234
  105MOL0     H14431   8.834   5.584  10.734 -2.2238  0.1599  0.8294
  105MOL0     H14432   8.745   5.670  10.851 -1.7395 -0.6572 -0.5349
  105MOL0     H14433   8.974   5.795  10.664  0.7935 -0.7973  0.5447
  105MOL0     H14434   8.895   5.876  10.792  1.9869  0.9359 -0.0220
  105MOL0     H14435   8.993   5.701  10.951 -1.9902  0.8319 -0.1243
  105MOL0     H14436   9.123   5.792  10.866 -0.6925 -0.2579  1.1198
  105MOL0     H14437   9.027   5.511  10.805 -1.4203  0.3071 -2.0600
  105MOL0     H14438   9.112   5.605  10.682 -0.9561 -0.4424  0.0131
  105MOL0     H14439   9.187   5.417  10.992 -0.5248  1.7800 -0.0550
  105MOL0     H14440   9.409   5.416  11.166 -2.3111  1.1347  0.2607
  105MOL0     H14441   9.554   5.503  11.089  0.1171 -1.4121  0.1537
  105MOL0     H14442   9.472   5.231  10.998  0.2101 -1.4810  2.1445
  105MOL0     H14443   9.604   5.336  10.938 -0.6761  0.2390  0.5565
  105MOL0     H14444   9.570   5.193  11.202 -0.4347 -0.8668 -0.6602
  105MOL0     H14445   9.689   5.160  11.072  0.8009 -0.1301  0.2943
  105MOL0     H14446   9.713   5.403  11.238 -1.6161 -0.8488  0.3031
  105MOL0     H14447   9.807   5.251  11.239 -0.8939  1.0843  0.7368
  105MOL0     H14448   9.999   5.334  10.895 -1.1118  0.0226  0.2955
  105MOL0     H14449  10.263   5.286  10.833 -0.7655  0.3275  0.4079
  105MOL0     H14450  10.364   5.428  10.860  0.4997 -2.9141 -0.7833
  105MOL0     H14451  10.223   5.438  10.780  0.6671  1.0455  0.9016
  105MOL0     H14452  10.634   5.520  11.001 -1.5242  1.1424  0.9606
  105MOL0     H14453  10.869   5.579  11.034 -0.9514 -0.1909  0.6102
  105MOL0     H14454  11.030   5.720  11.091 -1.6467 -1.4557  0.0903
  105MOL0     H14455  11.136   5.757  11.235  0.9253  1.0000 -0.8718
  105MOL0     H14456  11.187   5.503  11.242 -1.5113 -1.8218 -0.0323
  105MOL0     H14457  11.076   5.476  11.112  0.9648 -0.0142 -0.2687
  105MOL0     H14458  11.244   5.705  11.017 -0.4138 -0.1160 -0.4381
  105MOL0     H14459  11.227   5.541  10.955  2.4873  1.0013 -1.5972
  105MOL0     H14460  11.391   5.445  11.086  1.0906 -0.0636  1.1351
  105MOL0     H14461  11.407   5.589  11.193  1.1120  0.1220 -0.1246
  105MOL0     H14462  11.492   5.582  10.910 -0.2420 -0.5507 -0.5741
  105MOL0     H14463  11.505   5.721  11.012  0.1282 -0.4168 -0.4254
  105MOL0     H14464  11.685   5.471  11.039  1.6933 -0.0911  1.2950
  105MOL0     H14465  11.624   5.542  11.180 -0.6628 -2.7175 -0.7115
  105MOL0     H14466  11.711   5.775  11.090  0.3428  0.2774 -1.8560
  105MOL0     H14467  11.770   5.691  10.950  2.4115 -0.4207  0.1126
  105MOL0     H14468  11.837   5.652  11.245 -0.2186 -0.1817 -1.2848
  105MOL0     H14469  11.940   5.755  11.152 -1.0699  1.8124 -1.8067
  105MOL0     H14470  10.774   5.637  11.451 -0.3181 -1.2650  0.0447
  105MOL0     H14471  10.562   5.514  11.427 -1.3371  1.1507 -0.0556
  105MOL0     H14472  10.170   5.528  11.313 -0.9910  0.2049  0.4802
  105MOL0     H14473   9.938   5.454  11.291  0.3210 -0.7829  1.0552
  105MOL0     H14474   8.221   5.763  10.952  1.6656 -3.4886  1.7912
  105MOL0     H14475   7.993   5.738  11.037  1.9988  3.4220 -1.1596
  105MOL0     H14476   7.486   5.871  10.835 -1.6003  0.9760 -0.8225
  105MOL0     H14477   7.260   5.864  10.900 -1.0393 -0.6663  0.2114
  105MOL0     H14478   7.075   5.855  11.019  1.5282  0.4787 -2.2077
  105MOL0     H14479   7.051   5.746  10.883  2.0445 -3.6793 -0.5222
  105MOL0     H14480   6.897   5.604  11.046 -1.4106 -0.7262  0.7475
  105MOL0     H14481   6.840   5.749  10.976 -0.1413  0.2717  0.7975
  105MOL0     H14482   6.956   5.684  11.264  0.1165  1.0487  2.0448
  105MOL0     H14483   6.937   5.848  11.212 -2.3378  0.2436  0.1214
  105MOL0     H14484   6.724   5.620  11.224 -2.7576  0.8149  2.8923
  105MOL0     H14485   6.691   5.772  11.151  0.4417  0.2316 -0.3871
  105MOL0     H14486   6.719   5.827  11.578  0.1891  0.5602 -0.4330
  105MOL0     H14487   7.325   5.480  11.078  0.4460 -0.5845 -0.2976
  105MOL0     H14488   7.518   5.375  11.086  0.7909 -0.7591  1.2730
  105MOL0     H14489   7.616   5.412  10.953  1.7302  0.0657  0.2238
  105MOL0     H14490   7.651   5.481  11.122 -3.4788  1.2841  2.5422
  106MOL0     O14491   6.908   8.591   9.017 -0.3037  0.5436  0.2723
  106MOL0     C14492   6.933   8.481   8.974  0.6111  0.2293  0.2874
  106MOL0     O14493   7.059   8.417   8.972 -0.2802 -0.0673 -0.1633
  106MOL0     C14494   7.168   8.469   9.032 -0.7045 -0.9759  0.2515
  106MOL0     C14495   7.297   8.427   8.981 -0.1228 -0.1993 -0.3142
  106MOL0     C14496   7.418   8.481   9.031  1.1456  0.3835 -0.5117
  106MOL0     C14497   7.421   8.570   9.129 -0.5168 -0.5615 -0.5512
  106MOL0     O14498   7.547   8.607   9.185 -0.2446 -0.1608 -0.3425
  106MOL0     C14499   7.557   8.733   9.258  0.3544 -0.3064  0.4252
  106MOL0     C14500   7.713   8.755   9.275  0.5990  0.0808  0.1646
  106MOL0     C14501   7.754   8.879   9.335  0.1979 -0.9959  0.8165
  106MOL0     C14502   7.701   8.881   9.476  0.9605  1.1586 -0.5200
  106MOL0     C14503   7.774   8.969   9.573  0.0557 -0.1166  0.6311
  106MOL0     C14504   7.916   8.926   9.607  0.1105 -0.6368  0.0918
  106MOL0     C14505   7.997   9.044   9.669  0.1782 -0.6289 -0.5793
  106MOL0     C14506   8.036   9.161   9.571  0.2067  0.0842 -0.4911
  106MOL0     N14507   8.112   9.109   9.452 -0.7806 -0.0111  0.3203
  106MOL0     C14508   8.063   9.083   9.330 -0.9301 -0.0129  0.8083
  106MOL0     C14509   8.173   9.030   9.263  0.1794 -0.5013  0.1210
  106MOL0     C14510   8.165   8.976   9.122  0.6442  0.0332 -0.9759
  106MOL0     C14511   8.297   8.928   9.056 -0.0459 -0.5648 -0.0788
  106MOL0     C14512   8.271   8.865   8.919  0.3126 -0.2570 -0.7092
  106MOL0     C14513   8.405   8.843   8.848  0.2924 -0.5218  0.4266
  106MOL0     O14514   8.493   8.762   8.923 -0.2061  0.5573  0.1390
  106MOL0     C14515   8.620   8.765   8.876 -0.4174  0.2735 -0.9267
  106MOL0     C14516   8.659   8.682   8.771 -1.0033 -0.2353 -0.4699
  106MOL0     C14517   8.790   8.687   8.715  0.4665  0.3737 -0.0533
  106MOL0     C14518   8.813   8.600   8.589  0.2000  0.0700 -0.5893
  106MOL0     C14519   8.885   8.772   8.772  0.5651  0.0872  0.9515
  106MOL0     C14520   9.023   8.802   8.723 -0.6859 -0.2026 -0.2052
  106MOL0     O14521   9.088   8.905   8.786  0.3454 -0.1811 -0.6730
  106MOL0     C14522   9.219   8.919   8.768 -0.8314  0.2357  0.5419
  106MOL0     C14523   9.266   8.977   8.647  0.6660 -0.1220  0.5225
  106MOL0     C14524   9.401   8.993   8.632 -0.2161 -0.4608 -0.0020
  106MOL0     C14525   9.494   8.970   8.736 -0.5343  0.3057 -0.2135
  106MOL0     O14526   9.630   8.973   8.723  0.9683  0.6073 -0.2404
  106MOL0     C14527   9.701   8.970   8.599 -0.0096  0.4568  0.7054
  106MOL0     C14528   9.853   8.981   8.634  0.4366 -0.3396 -0.2371
  106MOL0     C14529   9.920   9.113   8.584  0.4627 -0.3541  0.3923
  106MOL0     C14530  10.053   9.134   8.654  0.1361 -0.5937 -0.5508
  106MOL0     C14531  10.134   9.244   8.582 -0.4091  0.2386  0.1166
  106MOL0     C14532  10.258   9.258   8.670 -0.2078 -0.1159 -0.3922
  106MOL0     C14533  10.368   9.318   8.581 -0.2580 -0.1977  0.6675
  106MOL0     C14534  10.343   9.461   8.522  0.0133  0.5486  0.5975
  106MOL0    Cl14535  10.491   9.514   8.454 -0.4254 -0.6339  0.4209
  106MOL0     C14536   9.443   8.923   8.855 -0.5752  0.4269 -0.7214
  106MOL0     C14537   9.306   8.902   8.871 -0.1821 -0.1698  0.1310
  106MOL0     O14538   9.066   8.739   8.624  0.0486 -0.1565 -0.0843
  106MOL0     C14539   8.846   8.848   8.888 -0.0711 -0.0282 -1.2696
  106MOL0     C14540   8.710   8.846   8.927 -0.7867  0.2948 -0.5732
  106MOL0     N14541   8.287   9.039   9.338  0.0403 -0.0907  0.5879
  106MOL0     N14542   8.252   9.086   9.446  0.0460  0.2125 -0.5914
  106MOL0     C14543   7.297   8.611   9.180  1.4584 -0.1564  0.8725
  106MOL0     C14544   7.171   8.568   9.139  0.6464 -0.0139 -0.8863
  106MOL0     C14545   6.815   8.408   8.911 -0.2201 -0.7190  0.5065
  106MOL0     C14546   6.685   8.460   8.935 -0.1454  0.7702 -0.0419
  106MOL0     C14547   6.567   8.403   8.881  0.4364 -0.1063  0.6658
  106MOL0     C14548   6.578   8.287   8.800 -0.6335  0.0128  0.2838
  106MOL0     O14549   6.480   8.212   8.739  0.3442  0.3062 -0.2167
  106MOL0     C14550   6.353   8.272   8.731 -0.1773 -0.2232 -0.8798
  106MOL0     C14551   6.276   8.213   8.608  0.0941  0.7965 -0.0592
  106MOL0     C14552   6.112   8.195   8.626  0.9065 -0.1375 -0.3118
  106MOL0     C14553   6.049   8.104   8.520  0.5092 -0.7937 -0.0027
  106MOL0     C14554   6.073   7.956   8.554 -0.2323 -0.2158  0.3238
  106MOL0     C14555   6.090   7.838   8.570  0.2153  0.2522 -0.0300
  106MOL0     C14556   6.706   8.241   8.780 -1.1271  0.4290  0.3929
  106MOL0     C14557   6.826   8.291   8.834 -0.1770  0.2262  0.0240
  106MOL0     C14558   6.959   8.226   8.797  0.0633 -0.2106  0.0558
  106MOL0     H14559   7.288   8.344   8.912 -0.3992 -0.9827  0.6453
  106MOL0     H14560   7.512   8.432   9.007 -0.3907 -1.7818 -2.6055
  106MOL0     H14561   7.507   8.725   9.355  0.9179  1.4389  0.9114
  106MOL0     H14562   7.511   8.810   9.195  0.5916 -0.2944  0.2632
  106MOL0     H14563   7.753   8.669   9.328 -3.1984  0.0308  3.4077
  106MOL0     H14564   7.765   8.755   9.178  0.7245  1.0346  0.2256
  106MOL0     H14565   7.863   8.876   9.328  0.2479  1.7642 -1.2649
  106MOL0     H14566   7.720   8.961   9.271  0.4144 -2.0605 -0.7166
  106MOL0     H14567   7.600   8.923   9.472  0.4391 -0.1501 -3.0729
  106MOL0     H14568   7.692   8.779   9.517  0.9052  0.8586 -1.2609
  106MOL0     H14569   7.717   8.955   9.665 -1.4494 -0.7947 -0.3655
  106MOL0     H14570   7.777   9.069   9.530  2.6953  0.3523  1.7105
  106MOL0     H14571   7.916   8.844   9.679  0.9931 -0.8877 -0.1906
  106MOL0     H14572   7.969   8.884   9.521  1.1177 -0.1121  0.4380
  106MOL0     H14573   8.090   8.995   9.702 -0.1724 -0.0927  1.3302
  106MOL0     H14574   7.938   9.090   9.749  0.8163 -0.2460 -0.3225
  106MOL0     H14575   7.945   9.219   9.554 -1.3737 -0.9430  3.3086
  106MOL0     H14576   8.106   9.224   9.626 -1.3732  0.8935  0.6849
  106MOL0     H14577   7.959   9.096   9.303 -0.1628  2.3611 -1.3965
  106MOL0     H14578   8.137   9.061   9.059  2.5912 -0.4298 -2.5763
  106MOL0     H14579   8.089   8.898   9.116 -0.1555  0.7620 -0.4701
  106MOL0     H14580   8.360   9.017   9.050  0.6398 -0.6641  3.6221
  106MOL0     H14581   8.348   8.864   9.129  0.2789  0.7328  0.8546
  106MOL0     H14582   8.219   8.770   8.934 -3.3626  1.4077 -1.7315
  106MOL0     H14583   8.202   8.930   8.864 -0.7623 -2.6747 -2.3871
  106MOL0     H14584   8.394   8.800   8.748  2.5729  0.2761 -0.2060
  106MOL0     H14585   8.448   8.941   8.830 -2.6084  0.8612  0.3815
  106MOL0     H14586   8.577   8.621   8.734 -2.2208  2.3070 -2.2976
  106MOL0     H14587   8.809   8.670   8.505 -0.6799 -0.3507 -0.9110
  106MOL0     H14588   8.729   8.530   8.580 -2.8129  2.9990  1.9311
  106MOL0     H14589   8.908   8.547   8.588  0.7325  1.0088 -1.0049
  106MOL0     H14590   9.201   8.996   8.562  0.3526 -1.7167  0.3655
  106MOL0     H14591   9.421   9.018   8.528 -2.2905  1.5584 -0.0085
  106MOL0     H14592   9.678   8.884   8.536 -0.5206  1.2891 -0.2715
  106MOL0     H14593   9.659   9.046   8.533  2.5190 -0.9860 -2.8478
  106MOL0     H14594   9.860   8.973   8.743 -0.8687  2.2068  0.1071
  106MOL0     H14595   9.905   8.896   8.589  1.8994  0.5381 -0.2740
  106MOL0     H14596   9.865   9.201   8.618  0.3699  1.0677 -3.1122
  106MOL0     H14597   9.921   9.124   8.476 -1.6610  1.9070  0.4953
  106MOL0     H14598  10.110   9.040   8.656 -0.1362 -0.7577  0.5914
  106MOL0     H14599  10.039   9.167   8.757  1.6236  0.9442 -0.8053
  106MOL0     H14600  10.172   9.214   8.484 -0.1197  1.3687 -0.1339
  106MOL0     H14601  10.081   9.340   8.573 -1.4623 -0.5501 -3.5306
  106MOL0     H14602  10.296   9.163   8.708  2.5840  1.6066  1.4699
  106MOL0     H14603  10.236   9.320   8.757  0.6834 -1.2495  0.6528
  106MOL0     H14604  10.386   9.248   8.499  0.3327 -0.1928  0.7881
  106MOL0     H14605  10.463   9.316   8.636 -0.8898 -1.6965  1.7678
  106MOL0     H14606  10.298   9.521   8.602 -0.2060 -0.0244  0.9167
  106MOL0     H14607  10.272   9.459   8.439  0.1590 -0.0552  0.4800
  106MOL0     H14608   9.514   8.898   8.932 -1.5058  2.5235  0.9316
  106MOL0     H14609   9.268   8.869   8.967  0.2982  1.3447  0.8795
  106MOL0     H14610   8.915   8.909   8.944  0.4202 -0.6200 -1.2213
  106MOL0     H14611   8.673   8.909   9.008  0.1839  0.6648 -0.3918
  106MOL0     H14612   7.299   8.684   9.260 -1.1618 -0.9741  1.7826
  106MOL0     H14613   7.080   8.612   9.179  1.0972  0.8461 -0.7781
  106MOL0     H14614   6.665   8.546   8.997  0.2655 -0.0174  1.2288
  106MOL0     H14615   6.470   8.444   8.906  0.3559 -1.0239  1.9321
  106MOL0     H14616   6.287   8.257   8.817 -0.3155  0.7042 -0.8084
  106MOL0     H14617   6.365   8.381   8.725  0.5464 -0.1962  0.7087
  106MOL0     H14618   6.306   8.110   8.585 -1.0308  0.9109 -2.3252
  106MOL0     H14619   6.290   8.261   8.511 -2.3117 -0.4215 -1.1133
  106MOL0     H14620   6.078   8.160   8.724 -3.4543 -1.2867 -2.0192
  106MOL0     H14621   6.074   8.297   8.613  0.0799 -0.4627 -0.4575
  106MOL0     H14622   6.076   8.131   8.418  0.1584 -1.3321 -0.2402
  106MOL0     H14623   5.945   8.133   8.535  1.1737  0.8765  1.7876
  106MOL0     H14624   6.099   7.733   8.591  0.6922  0.4250  0.6634
  106MOL0     H14625   6.712   8.153   8.717 -1.3523  0.4851  0.2927
  106MOL0     H14626   7.033   8.301   8.769 -2.2009  2.1862  0.1872
  106MOL0     H14627   7.001   8.171   8.882 -0.3349 -0.7590 -0.0930
  106MOL0     H14628   6.953   8.151   8.718  0.2794 -0.2484  0.0756
  107MOL0     O14629   2.977   2.168   4.792 -0.0497 -0.1195  0.3454
  107MOL0     C14630   2.980   2.289   4.811 -0.5954  0.0343 -0.4757
  107MOL0     O14631   3.085   2.354   4.879  0.7166 -0.5050  0.0402
  107MOL0     C14632   3.198   2.283   4.901  0.5553  0.4432  1.1944
  107MOL0     C14633   3.228   2.231   5.023  0.2698  0.0899 -0.3647
  107MOL0     C14634   3.343   2.154   5.048  0.4537  0.2203 -0.2110
  107MOL0     C14635   3.425   2.121   4.935 -0.8307  0.3183 -0.4505
  107MOL0     O14636   3.530   2.030   4.964 -0.2749 -0.6159 -0.5997
  107MOL0     C14637   3.540   1.918   4.875 -0.0565  0.4588  0.2436
  107MOL0     C14638   3.598   1.786   4.930 -0.1024 -0.0640  0.6393
  107MOL0     C14639   3.722   1.806   5.026  0.1950  0.5396  0.0445
  107MOL0     C14640   3.762   1.678   5.099 -0.6863 -0.7195 -0.7541
  107MOL0     C14641   3.899   1.692   5.176 -0.2540  0.4998 -0.5929
  107MOL0     C14642   3.927   1.579   5.276 -0.3266  0.2395  0.1528
  107MOL0     C14643   3.918   1.439   5.211 -0.6669  0.3804 -0.5355
  107MOL0     C14644   4.027   1.413   5.107  0.6163  0.0770 -0.6983
  107MOL0     N14645   4.169   1.432   5.155 -0.5453  0.8145 -0.3271
  107MOL0     C14646   4.249   1.332   5.196  0.5976 -0.2353  0.5910
  107MOL0     C14647   4.357   1.389   5.232 -0.2995  0.3196 -0.5128
  107MOL0     C14648   4.475   1.318   5.288 -0.6387  0.2961  0.8900
  107MOL0     C14649   4.544   1.232   5.185  0.5079  1.5096  0.7012
  107MOL0     C14650   4.645   1.142   5.255 -0.1480 -0.9677  0.0663
  107MOL0     C14651   4.708   1.041   5.157  0.5573  0.5080  0.9091
  107MOL0     O14652   4.778   0.959   5.239  0.5849 -0.0024  0.1385
  107MOL0     C14653   4.890   0.896   5.189 -0.2779  0.7105  0.1115
  107MOL0     C14654   4.921   0.870   5.055  0.3448  0.0394 -0.1539
  107MOL0     C14655   5.035   0.797   5.020 -0.1793  0.4670  0.1095
  107MOL0     C14656   5.058   0.769   4.872 -0.1900  1.0758 -0.2548
  107MOL0     C14657   5.136   0.762   5.118 -0.1700 -0.2788 -0.4938
  107MOL0     C14658   5.269   0.707   5.078 -0.2992  0.3086  0.2339
  107MOL0     O14659   5.379   0.748   5.149 -0.0771  0.5209  0.4920
  107MOL0     C14660   5.490   0.679   5.119  0.3159  1.0983  0.2418
  107MOL0     C14661   5.604   0.741   5.054  0.3143  0.0260 -0.1534
  107MOL0     C14662   5.712   0.669   5.016  0.0527 -1.1851 -0.2723
  107MOL0     C14663   5.724   0.534   5.040 -0.5148 -0.7305 -0.1969
  107MOL0     O14664   5.830   0.455   5.009  0.5455  1.1137 -0.1046
  107MOL0     C14665   5.966   0.501   5.029  0.2041 -0.1709 -0.1823
  107MOL0     C14666   6.063   0.388   5.052  0.2020 -0.1657 -1.3520
  107MOL0     C14667   6.166   0.344   4.943 -0.6063 -0.1043  0.5728
  107MOL0     C14668   6.213   0.202   4.968  0.7289 -0.5017 -0.2118
  107MOL0     C14669   6.347   0.178   4.903 -0.6353  0.2573 -0.1386
  107MOL0     C14670   6.454   0.218   5.000 -0.5829 -0.5540 -0.6219
  107MOL0     C14671   6.597   0.209   4.932 -0.1009 -0.8910  0.7958
  107MOL0     C14672   6.701   0.300   4.990 -0.7329  0.6690 -0.2358
  107MOL0    Cl14673   6.668   0.470   4.954  0.4358 -0.5274  0.1008
  107MOL0     C14674   5.607   0.471   5.100 -0.1095 -0.2890 -0.7555
  107MOL0     C14675   5.502   0.541   5.141 -0.0250 -0.1668  0.0156
  107MOL0     O14676   5.254   0.609   4.999 -0.2249  0.0124 -0.0277
  107MOL0     C14677   5.106   0.792   5.257  0.3814  1.0291  0.7851
  107MOL0     C14678   4.983   0.851   5.287  0.1790 -0.0910  0.2035
  107MOL0     N14679   4.343   1.530   5.237  0.1233  0.0782  0.2478
  107MOL0     N14680   4.232   1.552   5.171 -0.4489  0.6046  0.1002
  107MOL0     C14681   3.394   2.169   4.806  0.0305  0.0600 -0.3444
  107MOL0     C14682   3.281   2.250   4.792  0.3638 -0.3500 -0.6539
  107MOL0     C14683   2.869   2.378   4.765 -0.1124  0.4262 -0.0433
  107MOL0     C14684   2.740   2.330   4.790 -0.1007  0.5229  0.3143
  107MOL0     C14685   2.631   2.406   4.758 -0.6057 -0.8102 -0.3893
  107MOL0     C14686   2.640   2.536   4.703  0.9431 -1.1344 -0.1165
  107MOL0     O14687   2.530   2.613   4.673  0.3313  0.5066  0.2526
  107MOL0     C14688   2.537   2.733   4.602 -0.0432  1.0841 -0.8978
  107MOL0     C14689   2.393   2.771   4.579  0.1380 -0.2632 -0.0289
  107MOL0     C14690   2.382   2.904   4.505 -0.2676 -0.4965  0.5396
  107MOL0     C14691   2.248   2.975   4.539  0.0454 -0.1347 -0.2808
  107MOL0     C14692   2.141   2.932   4.456  0.1311  0.1354  0.8656
  107MOL0     C14693   2.056   2.902   4.380  0.6355 -0.2178 -0.0190
  107MOL0     C14694   2.769   2.589   4.696  0.1234  0.9634  0.2051
  107MOL0     C14695   2.883   2.507   4.707 -0.5666  0.3148 -0.4490
  107MOL0     C14696   3.021   2.578   4.689  0.5041 -0.3419 -0.6903
  107MOL0     H14697   3.165   2.263   5.105  0.6317  3.2731 -1.1971
  107MOL0     H14698   3.363   2.116   5.148 -1.7857 -1.7557 -0.4200
  107MOL0     H14699   3.612   1.951   4.799 -0.9746  2.6125  0.2240
  107MOL0     H14700   3.442   1.901   4.830 -0.0518 -2.5225  1.1812
  107MOL0     H14701   3.521   1.739   4.992 -2.9849  1.6906 -1.3792
  107MOL0     H14702   3.638   1.723   4.850 -0.5868  1.0125 -0.4808
  107MOL0     H14703   3.800   1.841   4.957 -1.1766  3.3147 -0.2457
  107MOL0     H14704   3.696   1.878   5.104  1.9169  0.5432  0.6528
  107MOL0     H14705   3.685   1.652   5.172  0.4966  2.0744  1.6844
  107MOL0     H14706   3.770   1.598   5.024  1.4079  0.2362 -1.6446
  107MOL0     H14707   3.918   1.783   5.234 -1.3267 -0.1313  0.8046
  107MOL0     H14708   3.978   1.705   5.102 -1.6943  1.4863 -2.0270
  107MOL0     H14709   4.024   1.591   5.324  0.6131 -1.0699 -1.3123
  107MOL0     H14710   3.848   1.579   5.352 -1.7877 -1.9662 -1.2359
  107MOL0     H14711   3.820   1.413   5.170 -0.6925  0.0883 -0.2886
  107MOL0     H14712   3.925   1.369   5.295 -0.9731 -0.1013 -0.9077
  107MOL0     H14713   4.023   1.306   5.084 -1.3138 -0.0576  0.1011
  107MOL0     H14714   4.019   1.464   5.011  0.0631  1.3338 -0.0023
  107MOL0     H14715   4.239   1.224   5.188 -0.5955 -0.1505  0.7297
  107MOL0     H14716   4.435   1.242   5.356 -1.7029 -0.5945 -0.6724
  107MOL0     H14717   4.550   1.387   5.327 -1.4233  1.0007  1.2005
  107MOL0     H14718   4.471   1.172   5.130  2.7853  0.5506 -1.4531
  107MOL0     H14719   4.584   1.291   5.101 -1.1172  1.2498 -0.3075
  107MOL0     H14720   4.719   1.203   5.307  0.0043 -1.3985  0.3609
  107MOL0     H14721   4.590   1.087   5.331  2.0347 -0.7324  1.9237
  107MOL0     H14722   4.625   0.992   5.106  1.2379  2.6490 -2.6901
  107MOL0     H14723   4.766   1.081   5.072 -1.4133 -0.4415 -0.9743
  107MOL0     H14724   4.859   0.906   4.973 -1.5510  1.9065  1.9546
  107MOL0     H14725   4.985   0.822   4.810  0.3609  0.3323 -1.5850
  107MOL0     H14726   5.041   0.664   4.847 -2.0517  0.8837  1.5172
  107MOL0     H14727   5.158   0.788   4.831  0.4147  1.0792  1.1949
  107MOL0     H14728   5.596   0.849   5.049 -0.3576  0.2604  3.3027
  107MOL0     H14729   5.799   0.724   4.982 -0.3418 -0.4408 -0.1028
  107MOL0     H14730   5.999   0.554   4.940 -1.4673  2.2533  0.5126
  107MOL0     H14731   5.962   0.567   5.117 -0.8071  1.4281 -1.3824
  107MOL0     H14732   6.117   0.399   5.146 -0.0144  1.4718 -1.3987
  107MOL0     H14733   5.997   0.303   5.073 -0.4253  0.2877 -1.4596
  107MOL0     H14734   6.250   0.413   4.946 -1.9054  1.7427 -1.6524
  107MOL0     H14735   6.120   0.361   4.845 -2.8813 -0.7113  1.4647
  107MOL0     H14736   6.137   0.134   4.927  2.5726 -2.8657  0.0912
  107MOL0     H14737   6.227   0.178   5.074  0.3269  0.9061  0.1847
  107MOL0     H14738   6.354   0.071   4.886  0.0290  0.0448  1.3547
  107MOL0     H14739   6.351   0.231   4.807  0.2129 -1.1800 -0.9273
  107MOL0     H14740   6.450   0.166   5.096  0.8036  3.7415  2.0738
  107MOL0     H14741   6.431   0.321   5.030 -1.6205 -0.2789 -2.2203
  107MOL0     H14742   6.566   0.233   4.830 -0.1751  0.8343  1.1873
  107MOL0     H14743   6.627   0.104   4.942 -2.9594 -1.8039  0.7697
  107MOL0     H14744   6.798   0.274   4.946 -0.3158  0.0900  0.9707
  107MOL0     H14745   6.710   0.289   5.099 -1.8962 -0.5952 -0.2475
  107MOL0     H14746   5.612   0.363   5.113 -1.2831 -0.1547  1.1347
  107MOL0     H14747   5.416   0.480   5.170 -0.8622  1.7032  1.7133
  107MOL0     H14748   5.178   0.761   5.332  1.7300 -1.0215 -1.2038
  107MOL0     H14749   4.952   0.866   5.390 -0.2415 -0.1510  0.0872
  107MOL0     H14750   3.453   2.152   4.716  1.5541 -0.7262  0.7734
  107MOL0     H14751   3.259   2.303   4.700 -0.9942  1.1144  0.4604
  107MOL0     H14752   2.728   2.231   4.834  0.1980  1.0803  1.7060
  107MOL0     H14753   2.528   2.372   4.759 -1.2463  1.0084  0.8230
  107MOL0     H14754   2.587   2.818   4.651 -0.6108 -0.2730  2.3467
  107MOL0     H14755   2.582   2.711   4.505 -2.1058  0.4849 -1.7545
  107MOL0     H14756   2.337   2.773   4.673 -2.5723 -0.1151 -1.5175
  107MOL0     H14757   2.340   2.697   4.518  1.9080 -1.6666  0.0639
  107MOL0     H14758   2.464   2.966   4.543 -0.2317 -0.1194 -0.1347
  107MOL0     H14759   2.385   2.881   4.398  0.1230  2.4594 -0.1756
  107MOL0     H14760   2.260   3.084   4.533  3.2908 -0.1766  2.5084
  107MOL0     H14761   2.213   2.948   4.639  2.6864 -0.7747  0.5259
  107MOL0     H14762   1.988   2.871   4.303  3.5870 -0.7602 -2.6240
  107MOL0     H14763   2.789   2.695   4.682  2.6159  0.6873  1.1576
  107MOL0     H14764   3.036   2.628   4.785 -1.6286 -0.5157 -0.2242
  107MOL0     H14765   3.099   2.502   4.672  0.2979 -0.3858 -1.4377
  107MOL0     H14766   3.019   2.646   4.604 -1.5883  0.0889 -0.3333
  108MOL0     O14767   5.996  10.310   6.608 -0.3360 -0.1612  0.1631
  108MOL0     C14768   5.888  10.252   6.609 -0.6652 -0.7137  0.4984
  108MOL0     O14769   5.869  10.131   6.672 -0.2152  0.1442  0.3892
  108MOL0     C14770   5.988  10.068   6.705 -0.2935  0.5678 -0.1473
  108MOL0     C14771   6.040   9.958   6.627 -0.5746 -0.5440  0.0685
  108MOL0     C14772   6.169   9.899   6.659  0.1059 -0.3795  0.4840
  108MOL0     C14773   6.236   9.950   6.763 -0.1391  0.8766  0.1230
  108MOL0     O14774   6.362   9.914   6.805  0.4758 -0.0698  0.2759
  108MOL0     C14775   6.409   9.788   6.746  0.5113  0.3922  0.1623
  108MOL0     C14776   6.548   9.766   6.808 -0.5932  0.0663  1.0526
  108MOL0     C14777   6.537   9.734   6.961  0.5470  0.0187 -0.0293
  108MOL0     C14778   6.669   9.663   7.011  0.1662  0.6231  0.0774
  108MOL0     C14779   6.687   9.674   7.159  0.3802  0.5478 -0.8427
  108MOL0     C14780   6.581   9.579   7.225 -0.4253  0.2456 -0.2896
  108MOL0     C14781   6.622   9.569   7.377  0.2889 -0.1015 -0.1057
  108MOL0     C14782   6.532   9.459   7.435  0.0896 -0.0983 -0.2652
  108MOL0     N14783   6.548   9.315   7.392 -0.1242 -0.4524  0.2896
  108MOL0     C14784   6.463   9.211   7.430  0.1497  0.1323 -0.1209
  108MOL0     C14785   6.524   9.096   7.389  0.7798  0.3873 -0.0252
  108MOL0     C14786   6.468   8.959   7.413  0.1756  0.0542 -0.2437
  108MOL0     C14787   6.553   8.839   7.358 -0.2813  0.2886 -0.2589
  108MOL0     C14788   6.673   8.793   7.452 -0.0600  0.3176 -0.5474
  108MOL0     C14789   6.795   8.893   7.457 -0.2554  0.3281  0.4071
  108MOL0     O14790   6.902   8.813   7.525  0.1619 -0.2963 -0.1369
  108MOL0     C14791   7.032   8.853   7.505  0.2586 -0.3331  0.1735
  108MOL0     C14792   7.068   8.970   7.442 -0.1972 -0.0775 -0.2953
  108MOL0     C14793   7.204   9.015   7.429 -0.2467 -0.2450  0.6709
  108MOL0     C14794   7.229   9.148   7.355 -0.3864 -0.5499  0.7159
  108MOL0     C14795   7.303   8.920   7.470  0.1780 -0.2800 -0.4647
  108MOL0     C14796   7.451   8.937   7.454  0.5698 -0.3700 -0.8397
  108MOL0     O14797   7.537   8.867   7.535  0.7866  0.5997  0.3896
  108MOL0     C14798   7.662   8.920   7.561 -0.6086  0.4495  0.8370
  108MOL0     C14799   7.697   9.050   7.557  0.2637  0.2628  0.2133
  108MOL0     C14800   7.835   9.087   7.586  0.2365 -0.5903 -0.6638
  108MOL0     C14801   7.924   8.988   7.628 -0.3807 -0.9249 -0.2595
  108MOL0     O14802   8.057   9.014   7.670  1.0383 -0.1045  0.3632
  108MOL0     C14803   8.078   8.996   7.809  0.7578  0.3781  0.5046
  108MOL0     C14804   8.223   9.035   7.836  0.3989  0.2710 -0.2173
  108MOL0     C14805   8.319   8.927   7.796 -0.9426  0.3733  0.9563
  108MOL0     C14806   8.471   8.976   7.812  0.9677  0.1811 -0.3527
  108MOL0     C14807   8.570   8.894   7.731  0.4624  0.1991 -0.5652
  108MOL0     C14808   8.707   8.943   7.758 -0.2852 -0.2154  0.0702
  108MOL0     C14809   8.799   8.903   7.644 -0.2148 -0.5748 -1.5172
  108MOL0     C14810   8.947   8.952   7.671 -0.2271  1.0492 -0.3334
  108MOL0    Cl14811   8.962   9.129   7.665  0.0231 -0.0245 -0.4983
  108MOL0     C14812   7.890   8.859   7.618 -0.3020  0.1302  0.3103
  108MOL0     C14813   7.758   8.818   7.582  0.1037 -0.8179 -0.1391
  108MOL0     O14814   7.483   9.015   7.366  0.3973  0.2378  0.0479
  108MOL0     C14815   7.269   8.797   7.525  0.5653 -0.4391 -0.0417
  108MOL0     C14816   7.133   8.762   7.544  0.3727  0.5775 -0.5307
  108MOL0     N14817   6.646   9.131   7.339  1.0828 -0.1764 -0.1341
  108MOL0     N14818   6.655   9.257   7.336  0.0217 -0.7818  0.2915
  108MOL0     C14819   6.179  10.042   6.843  0.0813  0.1750 -0.1837
  108MOL0     C14820   6.060  10.103   6.824 -0.1898  0.2984 -0.0781
  108MOL0     C14821   5.769  10.318   6.543  0.3714  0.8258 -0.4675
  108MOL0     C14822   5.639  10.286   6.601 -0.6074  0.7220 -0.4660
  108MOL0     C14823   5.527  10.366   6.572 -0.1539  0.1166 -0.0614
  108MOL0     C14824   5.542  10.466   6.475  1.1711 -0.1671  0.2247
  108MOL0     O14825   5.445  10.561   6.440  0.1570  0.1491  0.1878
  108MOL0     C14826   5.311  10.555   6.485  0.3713  0.6219 -0.3601
  108MOL0     C14827   5.224  10.630   6.372  0.2752  0.5973  0.2166
  108MOL0     C14828   5.267  10.770   6.351 -0.7913  0.0319 -0.4633
  108MOL0     C14829   5.164  10.834   6.259 -0.6549 -0.8493 -0.8769
  108MOL0     C14830   5.175  10.976   6.245 -0.8905 -0.4151 -0.3469
  108MOL0     C14831   5.176  11.096   6.207  0.1113  0.5232 -0.6186
  108MOL0     C14832   5.663  10.483   6.405 -0.1672 -0.2647 -0.5119
  108MOL0     C14833   5.781  10.415   6.446  0.5438 -1.1818 -0.7983
  108MOL0     C14834   5.906  10.439   6.371  0.2435 -0.5808  0.0555
  108MOL0     H14835   5.976   9.929   6.544 -1.5055 -0.7147  0.8222
  108MOL0     H14836   6.207   9.816   6.600 -0.9535  0.6264 -1.7643
  108MOL0     H14837   6.420   9.785   6.637  0.4538 -0.5984  0.1717
  108MOL0     H14838   6.340   9.708   6.773 -0.1315  0.4767 -1.1329
  108MOL0     H14839   6.588   9.679   6.754 -3.0051  1.6458 -3.9633
  108MOL0     H14840   6.609   9.855   6.790 -1.3732  0.5606  0.8052
  108MOL0     H14841   6.516   9.818   7.029 -2.1594  0.8435 -1.7441
  108MOL0     H14842   6.453   9.664   6.963  1.1124 -0.6596  1.3357
  108MOL0     H14843   6.653   9.562   6.973 -1.0965  0.7716  0.1865
  108MOL0     H14844   6.753   9.707   6.956  0.2699 -0.3446 -0.5577
  108MOL0     H14845   6.680   9.778   7.192  0.0891  0.1313  0.4689
  108MOL0     H14846   6.787   9.643   7.191  0.1444  0.1883 -0.4504
  108MOL0     H14847   6.486   9.632   7.216  0.5017  2.0124 -0.0167
  108MOL0     H14848   6.592   9.481   7.178 -2.6712 -0.4210  0.4648
  108MOL0     H14849   6.592   9.662   7.426  0.5858 -0.2867  0.4307
  108MOL0     H14850   6.728   9.543   7.379 -0.5096 -3.9545  1.9599
  108MOL0     H14851   6.531   9.465   7.545 -2.9009 -3.5420  0.0755
  108MOL0     H14852   6.428   9.483   7.411 -0.3907  1.2110  2.6453
  108MOL0     H14853   6.364   9.226   7.471 -0.9130  0.3223 -2.5505
  108MOL0     H14854   6.371   8.936   7.366 -0.2519 -2.6668  1.6864
  108MOL0     H14855   6.453   8.948   7.521 -1.5886 -0.1907 -0.4735
  108MOL0     H14856   6.489   8.754   7.333 -1.2940 -0.0654  3.0570
  108MOL0     H14857   6.605   8.876   7.269  1.5064  1.1456  1.0905
  108MOL0     H14858   6.634   8.784   7.553  1.2538 -0.7599 -0.0951
  108MOL0     H14859   6.701   8.690   7.425 -0.1470  1.3437 -5.5579
  108MOL0     H14860   6.822   8.914   7.353  2.9852 -2.4720  0.4973
  108MOL0     H14861   6.764   8.977   7.519  2.8071  1.0945  1.0686
  108MOL0     H14862   6.992   9.042   7.412 -0.8144 -1.0321 -1.0944
  108MOL0     H14863   7.138   9.190   7.311  1.3082 -0.6264 -3.3867
  108MOL0     H14864   7.298   9.127   7.272 -1.6449  0.9875 -0.7934
  108MOL0     H14865   7.280   9.218   7.421 -0.5769 -0.5311  0.8421
  108MOL0     H14866   7.629   9.126   7.520 -1.1972 -0.8184  0.5912
  108MOL0     H14867   7.859   9.190   7.560 -0.8508 -0.9607 -3.4905
  108MOL0     H14868   8.007   9.049   7.873 -1.0513  1.0368 -1.9076
  108MOL0     H14869   8.064   8.889   7.828 -0.4472 -0.1846 -2.9360
  108MOL0     H14870   8.252   9.121   7.776  1.0473 -1.6604 -2.8165
  108MOL0     H14871   8.231   9.038   7.945  2.0520 -5.1658  0.0899
  108MOL0     H14872   8.296   8.895   7.694 -0.2823 -0.5794  1.0955
  108MOL0     H14873   8.296   8.839   7.857 -0.8257 -0.2076  0.1752
  108MOL0     H14874   8.492   8.973   7.920 -0.1699 -0.9689 -0.1366
  108MOL0     H14875   8.477   9.077   7.772  0.0967  0.8708  1.1744
  108MOL0     H14876   8.556   8.788   7.753  0.1294  0.0796 -1.2917
  108MOL0     H14877   8.549   8.910   7.625  1.6755  0.7305 -0.7384
  108MOL0     H14878   8.737   8.897   7.853 -4.2596  2.5440  2.9626
  108MOL0     H14879   8.695   9.051   7.773 -2.1767 -0.2551 -0.9352
  108MOL0     H14880   8.771   8.953   7.551  1.2000  3.1061 -0.1704
  108MOL0     H14881   8.803   8.794   7.642  0.3520 -0.6799  1.2583
  108MOL0     H14882   9.007   8.901   7.596 -2.6905 -1.2548 -0.8933
  108MOL0     H14883   8.971   8.911   7.769 -2.2056 -2.6915 -1.2251
  108MOL0     H14884   7.968   8.784   7.631  0.1095  0.7923  1.8361
  108MOL0     H14885   7.731   8.713   7.576 -0.6804 -0.6300  0.0516
  108MOL0     H14886   7.338   8.717   7.551  1.1359  0.1440  0.2577
  108MOL0     H14887   7.094   8.674   7.594 -0.3979 -0.8791 -3.4990
  108MOL0     H14888   6.242  10.064   6.928 -1.7962 -2.3831  2.0473
  108MOL0     H14889   6.015  10.170   6.896 -0.9877 -0.3183  0.0119
  108MOL0     H14890   5.625  10.223   6.688  1.4183  1.0898  0.1725
  108MOL0     H14891   5.435  10.360   6.629  0.9480 -0.2719  1.7653
  108MOL0     H14892   5.279  10.450   6.481 -2.1964  1.3358 -0.2743
  108MOL0     H14893   5.310  10.592   6.588  2.0065  0.6867 -0.3422
  108MOL0     H14894   5.120  10.632   6.407  0.5028  1.1897  0.8730
  108MOL0     H14895   5.230  10.566   6.284 -2.1882 -0.7486  0.9289
  108MOL0     H14896   5.286  10.824   6.444 -0.0432 -2.2506  0.8166
  108MOL0     H14897   5.365  10.767   6.302  0.6954 -2.9420  2.2543
  108MOL0     H14898   5.060  10.804   6.275 -0.8088 -0.6042 -1.3885
  108MOL0     H14899   5.192  10.793   6.162  2.8676 -1.5444  0.2666
  108MOL0     H14900   5.161  11.192   6.162  0.0243 -0.5547 -3.0616
  108MOL0     H14901   5.668  10.556   6.325  1.1108  0.2396  0.0094
  108MOL0     H14902   5.975  10.355   6.385 -0.9957 -1.7251 -0.5090
  108MOL0     H14903   5.878  10.427   6.266 -0.1869  0.6693  0.0163
  108MOL0     H14904   5.954  10.536   6.384  1.7255 -1.0209 -1.6363
  109MOL0     O14905   2.683   3.148   4.110 -0.2884 -0.3487  0.2424
  109MOL0     C14906   2.578   3.081   4.093  0.4823 -0.1864  0.0724
  109MOL0     O14907   2.569   2.942   4.126  0.2941 -0.2680  0.2683
  109MOL0     C14908   2.683   2.868   4.129 -0.1033  1.8582  0.5392
  109MOL0     C14909   2.678   2.774   4.240 -0.0415 -0.5451  0.4924
  109MOL0     C14910   2.797   2.705   4.274 -0.3507  0.5504  0.0381
  109MOL0     C14911   2.909   2.721   4.200 -0.4990  1.0361 -0.3636
  109MOL0     O14912   3.022   2.658   4.248  0.0446  0.1471  0.3062
  109MOL0     C14913   3.159   2.690   4.204  0.3059  0.3680 -0.2465
  109MOL0     C14914   3.244   2.578   4.277 -0.6755  0.3223  0.0534
  109MOL0     C14915   3.386   2.560   4.218 -0.2548  0.1770  0.5668
  109MOL0     C14916   3.448   2.451   4.287 -0.0582 -0.3250 -0.0612
  109MOL0     C14917   3.591   2.431   4.256 -1.1815  0.9826 -0.7281
  109MOL0     C14918   3.609   2.374   4.112 -0.2175 -0.9450 -0.0348
  109MOL0     C14919   3.753   2.339   4.069 -0.3091  0.2952 -0.2068
  109MOL0     C14920   3.748   2.275   3.931  0.7603  0.0623  0.2944
  109MOL0     N14921   3.877   2.232   3.885 -0.0206  0.2651 -0.1197
  109MOL0     C14922   3.953   2.128   3.923  0.5975  0.0226  0.8600
  109MOL0     C14923   4.068   2.145   3.848 -0.1654 -0.2010 -1.0102
  109MOL0     C14924   4.185   2.050   3.850  0.4791 -0.2111  0.3578
  109MOL0     C14925   4.200   1.954   3.731  0.2507 -0.3228  0.2472
  109MOL0     C14926   4.078   1.860   3.726  1.0202 -0.2340  0.3532
  109MOL0     C14927   4.056   1.766   3.840 -0.0567  0.2196 -0.1819
  109MOL0     O14928   3.933   1.690   3.830 -0.6785  0.4094  0.3687
  109MOL0     C14929   3.888   1.625   3.941 -0.5262 -0.2527  0.1808
  109MOL0     C14930   3.754   1.597   3.948  0.5963  0.2940 -0.1700
  109MOL0     C14931   3.696   1.567   4.074  0.1117 -0.6597 -0.2591
  109MOL0     C14932   3.549   1.531   4.091 -0.1921  0.6455  0.5697
  109MOL0     C14933   3.774   1.555   4.194 -0.2979 -0.3236  0.3231
  109MOL0     C14934   3.718   1.525   4.329 -0.1053 -0.1932  0.0079
  109MOL0     O14935   3.782   1.429   4.394 -0.3165  0.6586 -0.1588
  109MOL0     C14936   3.767   1.409   4.528 -0.1203  0.6651 -0.4558
  109MOL0     C14937   3.687   1.314   4.584 -0.3657 -0.4821  0.4852
  109MOL0     C14938   3.687   1.284   4.712 -0.0941 -1.0807 -0.4884
  109MOL0     C14939   3.761   1.363   4.802  0.6385  0.9136 -0.0099
  109MOL0     O14940   3.760   1.349   4.940  0.3820 -0.3850 -0.1672
  109MOL0     C14941   3.638   1.299   5.001  0.5555  1.1123 -0.7577
  109MOL0     C14942   3.514   1.391   4.981 -0.8482 -0.8200 -0.5474
  109MOL0     C14943   3.393   1.363   5.070  0.3454  0.0620  0.8363
  109MOL0     C14944   3.336   1.223   5.049  0.7292 -1.0231  0.1969
  109MOL0     C14945   3.206   1.198   5.130  0.3177  0.1434  0.1594
  109MOL0     C14946   3.145   1.062   5.104  0.7526 -0.4187 -0.3985
  109MOL0     C14947   3.002   1.050   5.161  0.2646  0.3809 -0.4059
  109MOL0     C14948   2.946   0.910   5.175  0.6308  0.4711  0.9500
  109MOL0    Cl14949   3.052   0.818   5.285 -0.2529  0.2902  0.2105
  109MOL0     C14950   3.837   1.467   4.751  0.0630 -0.2102  0.1730
  109MOL0     C14951   3.847   1.482   4.609 -0.4422  0.5293  0.5910
  109MOL0     O14952   3.634   1.602   4.376 -0.0660  0.5157  0.0126
  109MOL0     C14953   3.914   1.565   4.170 -0.3825  0.5204 -0.5909
  109MOL0     C14954   3.970   1.606   4.053 -0.1313  0.5393 -0.3148
  109MOL0     N14955   4.047   2.254   3.761 -0.0721 -0.2006 -0.7822
  109MOL0     N14956   3.930   2.297   3.784  0.6396  0.3692  0.6488
  109MOL0     C14957   2.916   2.808   4.094  0.0909 -0.5214  0.2508
  109MOL0     C14958   2.797   2.873   4.050 -0.6285 -0.3292  0.6173
  109MOL0     C14959   2.456   3.150   4.046  0.0969 -0.8220 -1.0354
  109MOL0     C14960   2.461   3.286   4.038 -0.0227 -0.4660  0.6965
  109MOL0     C14961   2.343   3.366   4.022 -0.7831  0.1625  0.1004
  109MOL0     C14962   2.219   3.311   4.000 -0.1119  0.0569  1.0872
  109MOL0     O14963   2.107   3.383   3.975 -0.2112 -0.1985 -0.5212
  109MOL0     C14964   2.115   3.518   3.924 -0.0923  0.0736 -0.1912
  109MOL0     C14965   2.002   3.538   3.824 -0.0026  0.2842 -0.2568
  109MOL0     C14966   1.867   3.505   3.882  0.5181 -0.4817  0.3445
  109MOL0     C14967   1.797   3.382   3.816  0.0206 -0.0722 -0.8691
  109MOL0     C14968   1.651   3.395   3.837 -0.5837 -0.0393  0.2261
  109MOL0     C14969   1.544   3.455   3.855 -0.3288  0.9790 -0.9021
  109MOL0     C14970   2.215   3.172   3.995  0.1391 -0.3679 -0.1147
  109MOL0     C14971   2.327   3.090   4.024 -0.0759 -0.2058  0.0320
  109MOL0     C14972   2.293   2.953   4.046 -0.3406  0.9782 -0.7644
  109MOL0     H14973   2.591   2.773   4.304 -0.7894  2.7730 -0.2815
  109MOL0     H14974   2.803   2.645   4.364  0.9640  3.0507  1.7270
  109MOL0     H14975   3.185   2.792   4.234 -0.3725 -0.1008  2.1470
  109MOL0     H14976   3.175   2.679   4.096  2.9763 -0.4962  0.1816
  109MOL0     H14977   3.249   2.594   4.385  3.2871 -1.3650  0.2956
  109MOL0     H14978   3.199   2.479   4.265 -0.7899  0.2240  1.1608
  109MOL0     H14979   3.366   2.531   4.115 -1.7872 -0.7388  1.0853
  109MOL0     H14980   3.441   2.654   4.229 -0.0302  0.3482 -1.6258
  109MOL0     H14981   3.445   2.459   4.396  0.8080 -1.6915  0.0856
  109MOL0     H14982   3.390   2.363   4.257  0.3648  0.1374 -2.4084
  109MOL0     H14983   3.632   2.359   4.326 -1.4582  0.1944 -1.3621
  109MOL0     H14984   3.640   2.527   4.276  0.2604  1.0114 -3.7745
  109MOL0     H14985   3.543   2.288   4.099 -2.3290  0.6715 -0.4476
  109MOL0     H14986   3.557   2.443   4.045 -2.3368 -1.2106  1.2300
  109MOL0     H14987   3.799   2.269   4.139 -0.3826 -1.1120 -1.5144
  109MOL0     H14988   3.812   2.431   4.061  2.5113 -1.4621 -0.8330
  109MOL0     H14989   3.688   2.184   3.940 -1.1694  0.9478 -2.3792
  109MOL0     H14990   3.704   2.339   3.854 -0.5639 -0.4789  0.5808
  109MOL0     H14991   3.923   2.050   3.991  1.4738  0.2443  1.5245
  109MOL0     H14992   4.202   1.998   3.945  1.3686  0.2029  0.4367
  109MOL0     H14993   4.268   2.120   3.841  0.4348 -0.1631  0.3289
  109MOL0     H14994   4.203   2.017   3.641  1.6052 -0.5153  0.1327
  109MOL0     H14995   4.295   1.900   3.727 -1.2286 -3.0633 -2.0324
  109MOL0     H14996   3.990   1.920   3.702  0.1640 -2.4497 -2.7072
  109MOL0     H14997   4.090   1.793   3.640 -0.6823 -0.1568  0.0361
  109MOL0     H14998   4.144   1.701   3.838 -0.5517 -0.4487 -2.6310
  109MOL0     H14999   4.045   1.835   3.925 -0.6458 -0.4655  0.3071
  109MOL0     H15000   3.678   1.606   3.871 -1.5164  1.9703  1.9565
  109MOL0     H15001   3.505   1.494   3.998  0.4071 -2.0090  1.2626
  109MOL0     H15002   3.489   1.616   4.126 -1.8592  0.6880 -2.0979
  109MOL0     H15003   3.540   1.448   4.161  0.2188  0.5447  0.5075
  109MOL0     H15004   3.622   1.257   4.519  1.0524 -1.8739  0.2347
  109MOL0     H15005   3.630   1.194   4.735  1.2633 -2.7647 -3.1194
  109MOL0     H15006   3.619   1.197   4.966 -0.1077 -0.6423  4.0050
  109MOL0     H15007   3.647   1.287   5.109 -1.6151 -0.3989 -0.6789
  109MOL0     H15008   3.539   1.494   5.009 -1.0377 -0.3703 -1.9882
  109MOL0     H15009   3.488   1.402   4.876 -0.4457  0.4822 -0.5317
  109MOL0     H15010   3.311   1.433   5.054  0.0890 -0.0835  1.4809
  109MOL0     H15011   3.424   1.369   5.175 -0.0352  1.1230  0.9008
  109MOL0     H15012   3.416   1.151   5.068 -0.2351 -2.4375 -0.8960
  109MOL0     H15013   3.306   1.217   4.944 -0.2628 -2.3764  0.5339
  109MOL0     H15014   3.227   1.209   5.237 -2.4050 -2.3435  1.0767
  109MOL0     H15015   3.134   1.277   5.107 -2.0715 -2.1158 -0.5375
  109MOL0     H15016   3.207   0.978   5.136 -1.1218 -0.2702  4.3595
  109MOL0     H15017   3.142   1.042   4.996  2.1310 -2.5793 -0.0975
  109MOL0     H15018   2.933   1.108   5.099 -1.1251 -0.9651 -0.1685
  109MOL0     H15019   2.996   1.097   5.260  0.4700 -0.0062 -0.2075
  109MOL0     H15020   2.942   0.864   5.076 -3.5069 -1.5916  1.8890
  109MOL0     H15021   2.846   0.928   5.213  0.2984  0.2588  0.1934
  109MOL0     H15022   3.905   1.525   4.812  2.1288 -0.8365 -1.4187
  109MOL0     H15023   3.920   1.550   4.566 -2.8467  2.8409 -0.1479
  109MOL0     H15024   3.981   1.546   4.254 -0.0742 -0.0899 -0.9685
  109MOL0     H15025   4.077   1.616   4.039 -0.2761  1.1172 -1.0594
  109MOL0     H15026   3.007   2.833   4.041 -0.6709  0.7254 -0.5237
  109MOL0     H15027   2.788   2.944   3.967 -0.3832 -0.5087  0.4349
  109MOL0     H15028   2.551   3.346   4.049 -1.2515  1.3288  1.3632
  109MOL0     H15029   2.356   3.474   4.025  0.6994 -0.0231  0.9669
  109MOL0     H15030   2.105   3.583   4.011  1.1921 -0.1923  0.1841
  109MOL0     H15031   2.209   3.540   3.872  2.3814 -1.1766  3.3225
  109MOL0     H15032   2.026   3.490   3.729 -0.4294  3.3802 -2.0374
  109MOL0     H15033   2.016   3.644   3.801  1.7094  1.0258  3.3459
  109MOL0     H15034   1.872   3.510   3.991  1.2937  0.6875  0.2728
  109MOL0     H15035   1.805   3.591   3.854 -0.9137 -1.3224  0.8381
  109MOL0     H15036   1.823   3.287   3.865 -2.1938  0.4455  1.5095
  109MOL0     H15037   1.819   3.375   3.709 -0.9392  0.1250 -1.0880
  109MOL0     H15038   1.449   3.495   3.884  0.2620  1.3439  0.6344
  109MOL0     H15039   2.120   3.126   3.972  1.6592 -3.0700 -1.4824
  109MOL0     H15040   2.315   2.930   4.151  3.1676 -1.1393 -1.7595
  109MOL0     H15041   2.195   2.921   4.011  0.5028 -0.1321 -2.2354
  109MOL0     H15042   2.355   2.885   3.986 -1.7448 -0.8433 -0.2515
  110MOL0     O15043   3.319   5.161   1.829  0.3659 -0.4539  0.0711
  110MOL0     C15044   3.213   5.097   1.834 -0.0668 -0.6903 -0.1268
  110MOL0     O15045   3.201   4.987   1.911  0.4508 -0.3505 -0.4549
  110MOL0     C15046   3.313   4.944   1.967 -1.0020  0.6127  0.5666
  110MOL0     C15047   3.424   4.895   1.893  0.0483  0.2985  0.5265
  110MOL0     C15048   3.550   4.859   1.947  0.4249  0.3721 -0.1078
  110MOL0     C15049   3.571   4.870   2.085 -0.8054 -0.3849  0.0590
  110MOL0     O15050   3.699   4.842   2.138  0.3792  0.7023 -0.0218
  110MOL0     C15051   3.727   4.861   2.279 -0.2677 -0.6089  0.0924
  110MOL0     C15052   3.876   4.841   2.294 -0.4559 -0.0442 -0.6676
  110MOL0     C15053   3.962   4.953   2.228 -0.0197 -0.2623  0.0955
  110MOL0     C15054   4.109   4.942   2.261 -0.1689  0.1053 -0.8586
  110MOL0     C15055   4.198   5.046   2.217 -0.9764  0.1765  0.2983
  110MOL0     C15056   4.347   5.015   2.264  0.3471 -0.7048 -0.5610
  110MOL0     C15057   4.457   5.114   2.214  0.0051 -0.7988 -0.4074
  110MOL0     C15058   4.606   5.100   2.255 -0.2827  0.5111  0.2491
  110MOL0     N15059   4.693   5.214   2.219 -0.6315  0.0077  0.2978
  110MOL0     C15060   4.710   5.338   2.277  0.4274  0.2424  0.9264
  110MOL0     C15061   4.789   5.413   2.195  0.0611  0.8362 -1.2808
  110MOL0     C15062   4.840   5.547   2.229  0.2791  0.9199 -0.1392
  110MOL0     C15063   4.889   5.613   2.092  0.0402 -0.2473 -0.2366
  110MOL0     C15064   4.979   5.737   2.129  0.3641  0.4364  0.2432
  110MOL0     C15065   5.134   5.725   2.112  0.8230  0.6081  0.9763
  110MOL0     O15066   5.204   5.812   2.205  0.4047 -0.0377 -0.1136
  110MOL0     C15067   5.269   5.923   2.151  0.0355  0.6509 -1.0280
  110MOL0     C15068   5.236   5.985   2.037 -0.1063 -0.6131 -0.1899
  110MOL0     C15069   5.288   6.107   1.989 -1.2154  0.1525 -0.2183
  110MOL0     C15070   5.233   6.165   1.866  0.2865 -0.3366  0.0100
  110MOL0     C15071   5.389   6.170   2.062 -0.6810 -0.1489  0.7480
  110MOL0     C15072   5.446   6.295   2.015  0.0819 -0.0172  0.2948
  110MOL0     O15073   5.494   6.301   1.894 -0.4393 -0.2082  0.5682
  110MOL0     C15074   5.510   6.417   1.824 -0.3026  0.1694 -0.0890
  110MOL0     C15075   5.589   6.404   1.714 -0.3011  0.5593 -0.3201
  110MOL0     C15076   5.634   6.516   1.643 -0.2119  0.8708 -0.2504
  110MOL0     C15077   5.597   6.647   1.679  0.8490  0.4862 -0.3327
  110MOL0     O15078   5.650   6.754   1.604  0.0052 -0.3469 -0.2794
  110MOL0     C15079   5.616   6.884   1.644 -1.3428  0.7619 -0.1356
  110MOL0     C15080   5.696   6.981   1.563  0.5294  0.1747 -1.1589
  110MOL0     C15081   5.709   7.115   1.619 -0.2791 -0.4478 -0.6264
  110MOL0     C15082   5.800   7.207   1.543  0.5012 -0.8383 -0.1788
  110MOL0     C15083   5.791   7.356   1.577  0.4864 -0.0453  0.6431
  110MOL0     C15084   5.678   7.421   1.495 -0.3993  0.3283  0.0315
  110MOL0     C15085   5.656   7.560   1.549 -0.1910  0.7538  0.1189
  110MOL0     C15086   5.777   7.642   1.582  0.6115  1.1168  0.6314
  110MOL0    Cl15087   5.874   7.671   1.431 -0.0214 -0.0596 -0.1098
  110MOL0     C15088   5.514   6.666   1.792  0.4836  0.2475  0.1789
  110MOL0     C15089   5.472   6.552   1.859  0.4114 -0.7516 -0.4025
  110MOL0     O15090   5.444   6.390   2.099 -0.1947 -0.5506  0.4540
  110MOL0     C15091   5.423   6.110   2.184 -0.0660  0.3486  0.0946
  110MOL0     C15092   5.370   5.985   2.228  0.1582 -0.4845  0.0353
  110MOL0     N15093   4.821   5.339   2.087 -0.3072 -0.5509  0.7035
  110MOL0     N15094   4.756   5.228   2.099  0.1126 -0.1393  0.9560
  110MOL0     C15095   3.459   4.929   2.160 -0.1437  0.2711 -0.5024
  110MOL0     C15096   3.333   4.963   2.101 -1.1768  0.1379 -0.2468
  110MOL0     C15097   3.103   5.111   1.732 -0.6374 -0.4072 -0.0635
  110MOL0     C15098   2.971   5.128   1.777  0.6988  1.1024 -0.7957
  110MOL0     C15099   2.865   5.140   1.685  0.1539  0.1166  0.6886
  110MOL0     C15100   2.891   5.131   1.550 -1.2097 -0.3544 -0.2324
  110MOL0     O15101   2.779   5.141   1.476 -0.3805  1.1867  0.2214
  110MOL0     C15102   2.773   5.098   1.335 -0.6065 -0.6762 -0.8544
  110MOL0     C15103   2.632   5.078   1.282  0.6162  0.2563 -0.0707
  110MOL0     C15104   2.653   5.045   1.129 -0.8224 -0.3499  0.6715
  110MOL0     C15105   2.520   4.987   1.076 -0.4331 -0.0570 -0.6302
  110MOL0     C15106   2.534   4.932   0.939 -0.4816  0.9309  0.7807
  110MOL0     C15107   2.552   4.889   0.828 -0.4978 -0.5671  0.1392
  110MOL0     C15108   3.021   5.123   1.501  0.8810 -0.5015  0.3107
  110MOL0     C15109   3.120   5.106   1.593 -0.0256 -0.5551  0.4663
  110MOL0     C15110   3.263   5.076   1.537  0.4454 -0.1915 -0.1501
  110MOL0     H15111   3.410   4.904   1.786  1.8489  1.8670  0.3705
  110MOL0     H15112   3.634   4.828   1.885  0.6250  0.1460  0.2711
  110MOL0     H15113   3.670   4.786   2.336 -2.2713  1.3641  0.8516
  110MOL0     H15114   3.696   4.962   2.308  1.3994 -0.0862  0.1609
  110MOL0     H15115   3.901   4.834   2.400 -0.2637 -0.0019 -0.7098
  110MOL0     H15116   3.907   4.742   2.260 -0.2935 -1.4620  3.1265
  110MOL0     H15117   3.941   4.932   2.123 -0.3143 -1.4401  0.3757
  110MOL0     H15118   3.915   5.047   2.257  0.9885  0.3256 -0.1327
  110MOL0     H15119   4.120   4.931   2.369  0.0323 -1.2583 -0.9971
  110MOL0     H15120   4.161   4.849   2.233  3.6084  1.7809 -0.1088
  110MOL0     H15121   4.160   5.143   2.251 -2.1497 -0.0600 -0.2951
  110MOL0     H15122   4.192   5.054   2.108 -3.0890 -0.0269  0.3647
  110MOL0     H15123   4.333   5.026   2.372 -5.0933  0.7403 -1.0985
  110MOL0     H15124   4.371   4.909   2.252  0.2693 -0.5809 -1.9182
  110MOL0     H15125   4.419   5.208   2.255  3.9849  1.3311 -1.0900
  110MOL0     H15126   4.452   5.126   2.105  0.1349  0.7904 -0.2685
  110MOL0     H15127   4.594   5.098   2.364 -3.3979  2.4859  0.0697
  110MOL0     H15128   4.640   5.006   2.212 -1.3257  1.1299 -2.0695
  110MOL0     H15129   4.662   5.363   2.371 -0.6053 -1.9020  1.0268
  110MOL0     H15130   4.919   5.525   2.302  0.5809 -1.5390 -1.1012
  110MOL0     H15131   4.748   5.592   2.269 -0.1877  0.3101 -0.5071
  110MOL0     H15132   4.942   5.537   2.032  0.2354  0.0694 -0.4677
  110MOL0     H15133   4.799   5.645   2.038  0.1782 -1.4294 -1.2461
  110MOL0     H15134   4.949   5.820   2.064 -3.3912  0.6543  2.0038
  110MOL0     H15135   4.968   5.760   2.236  0.5627 -2.2281  0.9150
  110MOL0     H15136   5.164   5.624   2.142  0.2521 -0.0942 -0.7047
  110MOL0     H15137   5.166   5.739   2.009  2.1423  0.4251  1.3494
  110MOL0     H15138   5.157   5.945   1.974 -1.5649  1.3447  0.2965
  110MOL0     H15139   5.144   6.116   1.824 -1.3926  1.0096  1.7914
  110MOL0     H15140   5.306   6.158   1.785 -0.4918 -2.6537 -0.5889
  110MOL0     H15141   5.199   6.267   1.886  0.8653 -0.6335  2.8513
  110MOL0     H15142   5.627   6.305   1.691 -0.9784  0.0257  0.7392
  110MOL0     H15143   5.707   6.504   1.564  0.3089 -0.0456  0.3484
  110MOL0     H15144   5.508   6.901   1.630 -1.1656  0.7914 -1.6784
  110MOL0     H15145   5.642   6.900   1.749  0.9908  0.7814 -0.6716
  110MOL0     H15146   5.795   6.936   1.548 -0.0480 -0.9920 -1.6000
  110MOL0     H15147   5.642   7.003   1.470  2.5205  1.1477 -2.1517
  110MOL0     H15148   5.763   7.115   1.714 -0.1179  2.0854 -0.6647
  110MOL0     H15149   5.612   7.163   1.634  0.5341  1.9049 -2.3274
  110MOL0     H15150   5.768   7.203   1.438  0.5947  0.3735 -0.2684
  110MOL0     H15151   5.901   7.165   1.554  0.8654 -0.6216 -2.1841
  110MOL0     H15152   5.769   7.366   1.684  2.3436  1.1775  0.9439
  110MOL0     H15153   5.889   7.401   1.567  1.3202 -0.9133  3.7730
  110MOL0     H15154   5.591   7.359   1.518  3.4338 -4.5591  3.7232
  110MOL0     H15155   5.700   7.410   1.389  0.6680 -2.2349  0.4473
  110MOL0     H15156   5.592   7.549   1.637 -0.2560 -1.0477 -0.1204
  110MOL0     H15157   5.595   7.626   1.487 -0.4807  0.3093 -0.0645
  110MOL0     H15158   5.844   7.593   1.653  0.0141  1.3251  1.3473
  110MOL0     H15159   5.743   7.740   1.617 -1.6142  0.4332  0.5659
  110MOL0     H15160   5.473   6.762   1.823  0.2512 -0.3121  1.7252
  110MOL0     H15161   5.414   6.562   1.950 -0.8382 -1.4862 -1.0897
  110MOL0     H15162   5.504   6.159   2.236  1.3172 -0.6822 -0.9870
  110MOL0     H15163   5.390   5.942   2.326 -3.9798 -2.6562  0.1723
  110MOL0     H15164   3.474   4.939   2.267  1.2645  1.9277 -0.8102
  110MOL0     H15165   3.254   5.013   2.156  2.3523  2.7102  3.0058
  110MOL0     H15166   2.953   5.122   1.883  1.8339 -0.0905 -0.6320
  110MOL0     H15167   2.763   5.150   1.722  0.5801  0.8270  1.7275
  110MOL0     H15168   2.817   5.181   1.280 -0.4111 -0.5133 -0.4481
  110MOL0     H15169   2.838   5.010   1.324  2.3604  1.4067 -0.9959
  110MOL0     H15170   2.569   5.163   1.309 -2.0674 -2.5476  3.3821
  110MOL0     H15171   2.582   4.995   1.331 -0.2156  1.0235  0.4149
  110MOL0     H15172   2.686   5.133   1.073  2.6798 -2.1426 -0.3345
  110MOL0     H15173   2.728   4.968   1.112  0.4511  0.9565  0.1046
  110MOL0     H15174   2.443   5.064   1.087  0.8559  1.5918 -2.4311
  110MOL0     H15175   2.497   4.901   1.140 -1.9582  0.5184 -0.3544
  110MOL0     H15176   2.571   4.854   0.728  1.0733 -0.1904  0.2652
  110MOL0     H15177   3.038   5.127   1.394  2.2281 -0.3554  0.5200
  110MOL0     H15178   3.309   5.007   1.608  0.8937  0.5245  0.2648
  110MOL0     H15179   3.269   5.027   1.439  1.2944  2.7659 -1.6964
  110MOL0     H15180   3.320   5.169   1.523 -2.6164  1.5645 -2.0635
  111MOL0     O15181   8.407   7.787   9.161 -0.6025 -0.3979 -0.3625
  111MOL0     C15182   8.514   7.842   9.164 -0.6378  0.6211 -0.4831
  111MOL0     O15183   8.636   7.788   9.105 -0.1057  0.0895 -0.4417
  111MOL0     C15184   8.650   7.665   9.060  1.2842  0.6466  0.5704
  111MOL0     C15185   8.773   7.614   9.082 -0.3667  0.6647  0.3428
  111MOL0     C15186   8.814   7.486   9.051 -1.2735 -0.8014  0.4005
  111MOL0     C15187   8.724   7.401   8.992 -0.0220  0.6253 -0.3076
  111MOL0     O15188   8.784   7.281   8.985 -0.0980 -0.2135 -0.0495
  111MOL0     C15189   8.710   7.177   8.919  0.3537  0.3770 -0.0055
  111MOL0     C15190   8.797   7.057   8.901  0.5324 -0.5820 -0.7152
  111MOL0     C15191   8.923   7.079   8.823  0.0714 -0.4842  0.1556
  111MOL0     C15192   8.992   6.954   8.796  0.6587  0.0121 -0.1361
  111MOL0     C15193   9.133   6.978   8.748 -0.5266  1.0738  0.3191
  111MOL0     C15194   9.226   6.859   8.726  0.0012  0.6243 -0.3555
  111MOL0     C15195   9.174   6.749   8.630 -0.8671 -0.0677  0.2928
  111MOL0     C15196   9.277   6.632   8.621  0.1393 -0.1705  0.3180
  111MOL0     N15197   9.397   6.669   8.555  0.6922 -0.9761  0.3186
  111MOL0     C15198   9.391   6.736   8.429  0.4022 -0.2382  0.9905
  111MOL0     C15199   9.522   6.763   8.398  0.6628  0.1867 -0.0086
  111MOL0     C15200   9.572   6.854   8.286  0.4968  0.7778 -0.8423
  111MOL0     C15201   9.578   6.772   8.155  0.2439  0.1318  0.4570
  111MOL0     C15202   9.637   6.847   8.031 -0.3312 -0.0021  0.4971
  111MOL0     C15203   9.598   6.992   8.020  0.2780 -0.4552  0.6733
  111MOL0     O15204   9.612   7.036   7.880 -0.3013  0.7001  0.1629
  111MOL0     C15205   9.740   7.053   7.843  0.3184  0.4834  0.8067
  111MOL0     C15206   9.829   7.135   7.912 -0.5983  0.5487  0.8868
  111MOL0     C15207   9.959   7.159   7.872 -0.1686  0.7300 -0.5912
  111MOL0     C15208  10.042   7.241   7.957  0.6329 -0.2067 -0.1795
  111MOL0     C15209  10.014   7.071   7.768  0.9289 -0.5772  0.4741
  111MOL0     C15210  10.156   7.073   7.725 -0.0468  0.6320 -0.6383
  111MOL0     O15211  10.182   6.972   7.646 -0.4570  0.3999  0.1891
  111MOL0     C15212  10.309   6.955   7.602 -0.0361 -0.1565 -0.9910
  111MOL0     C15213  10.426   6.948   7.688  1.4626  0.0321  0.0841
  111MOL0     C15214  10.549   6.962   7.630  0.5425 -0.1143  0.5046
  111MOL0     C15215  10.569   6.952   7.495  1.0566 -0.2995  0.1206
  111MOL0     O15216  10.695   6.970   7.441 -0.6026  0.1050  0.2594
  111MOL0     C15217  10.730   6.876   7.341 -0.5619 -0.0731  0.8628
  111MOL0     C15218  10.878   6.842   7.336 -0.5773  0.4168 -0.2468
  111MOL0     C15219  10.907   6.732   7.227  0.2109 -0.0402 -0.0907
  111MOL0     C15220  11.056   6.683   7.259  0.5724  0.1425 -0.6642
  111MOL0     C15221  11.098   6.573   7.172  0.0226  0.5392  0.6977
  111MOL0     C15222  11.244   6.543   7.186  0.0425 -0.3238 -0.4569
  111MOL0     C15223  11.298   6.447   7.076  0.1818 -0.1173  0.6796
  111MOL0     C15224  11.452   6.444   7.058 -0.2404  0.4092  0.1490
  111MOL0    Cl15225  11.545   6.378   7.196 -0.0674  0.3670  0.9579
  111MOL0     C15226  10.453   6.934   7.406  0.9309 -0.4888  0.1554
  111MOL0     C15227  10.321   6.942   7.465 -0.0025 -0.3780 -0.0355
  111MOL0     O15228  10.234   7.154   7.776  0.3462 -0.6795  0.5527
  111MOL0     C15229   9.916   6.990   7.693  0.2136  0.8628 -0.4995
  111MOL0     C15230   9.779   6.985   7.736  0.3039 -0.5108 -0.2053
  111MOL0     N15231   9.599   6.724   8.505  0.0157  0.2690  0.0732
  111MOL0     N15232   9.522   6.682   8.608 -0.3759 -0.1145 -0.2595
  111MOL0     C15233   8.597   7.454   8.967 -0.4977  0.3223 -0.8666
  111MOL0     C15234   8.554   7.581   9.006  0.0329 -0.3957 -0.0178
  111MOL0     C15235   8.525   7.982   9.226 -0.4764  0.3853  0.9406
  111MOL0     C15236   8.635   8.050   9.181  0.4197 -1.0211 -0.5150
  111MOL0     C15237   8.672   8.172   9.233 -0.3679 -0.5132 -0.6699
  111MOL0     C15238   8.597   8.220   9.335  0.6876  0.3244  0.3130
  111MOL0     O15239   8.650   8.331   9.385 -0.1416  0.8686  0.1084
  111MOL0     C15240   8.582   8.387   9.501 -0.5382 -0.3142  0.6185
  111MOL0     C15241   8.678   8.511   9.535  0.4372  0.0572  0.3117
  111MOL0     C15242   8.672   8.616   9.425 -0.1678 -0.4243  0.3219
  111MOL0     C15243   8.779   8.728   9.451  0.1205  0.1884  0.7288
  111MOL0     C15244   8.760   8.851   9.368 -0.4541  0.0569 -0.0334
  111MOL0     C15245   8.735   8.940   9.293  0.1982 -0.2923  1.0121
  111MOL0     C15246   8.480   8.154   9.382  0.6432  0.1289  0.5230
  111MOL0     C15247   8.437   8.036   9.325  0.2285 -0.0213  0.2426
  111MOL0     C15248   8.316   7.972   9.380 -0.7294  1.0889  0.0603
  111MOL0     H15249   8.833   7.676   9.148  0.1932 -0.5507  1.0056
  111MOL0     H15250   8.914   7.455   9.077 -1.9862 -1.6653  2.2326
  111MOL0     H15251   8.683   7.194   8.814 -2.5531 -1.2410  0.3750
  111MOL0     H15252   8.619   7.150   8.974  0.3102  1.0381  0.2564
  111MOL0     H15253   8.810   7.014   9.001  2.7389  1.6357  0.0551
  111MOL0     H15254   8.733   6.985   8.849 -2.3678  1.4406 -0.2127
  111MOL0     H15255   8.888   7.123   8.729 -3.0155 -0.4225  1.1956
  111MOL0     H15256   9.002   7.138   8.870  0.4873 -0.0474 -1.0594
  111MOL0     H15257   8.997   6.891   8.885  0.6056  0.7603  0.4056
  111MOL0     H15258   8.940   6.895   8.719  1.8438 -2.3042  0.7564
  111MOL0     H15259   9.185   7.037   8.824  2.4802 -0.7387 -0.1431
  111MOL0     H15260   9.125   7.035   8.655  1.1245  0.8745  0.0157
  111MOL0     H15261   9.324   6.895   8.693  1.8301 -2.6298  0.9873
  111MOL0     H15262   9.249   6.819   8.825  1.7339 -5.3061 -2.7054
  111MOL0     H15263   9.157   6.790   8.530 -0.9536  0.7860  0.6484
  111MOL0     H15264   9.082   6.703   8.665 -0.8592 -1.1556 -1.0379
  111MOL0     H15265   9.313   6.600   8.719  0.7157 -1.3448 -0.2610
  111MOL0     H15266   9.222   6.547   8.579 -0.4428 -0.7295  2.0797
  111MOL0     H15267   9.303   6.762   8.371 -0.5774 -0.5849  2.2895
  111MOL0     H15268   9.667   6.902   8.308  1.3751 -1.0971 -0.2726
  111MOL0     H15269   9.499   6.936   8.281 -0.5877 -0.1185 -0.3417
  111MOL0     H15270   9.646   6.688   8.171  2.9899  1.7885 -1.7427
  111MOL0     H15271   9.481   6.734   8.119 -0.1498  0.9834  0.6011
  111MOL0     H15272   9.746   6.844   8.039  0.0205  3.3042 -1.4149
  111MOL0     H15273   9.611   6.790   7.941 -2.2657 -0.1882  1.1376
  111MOL0     H15274   9.495   7.009   8.052  0.5376 -0.6630  1.6338
  111MOL0     H15275   9.665   7.041   8.091  1.5829  0.5556 -1.1373
  111MOL0     H15276   9.789   7.185   8.000  0.5070  1.1696  1.0449
  111MOL0     H15277  10.102   7.171   8.017 -1.5138 -1.3992  0.6594
  111MOL0     H15278   9.972   7.287   8.027  2.8921  2.1473  0.7316
  111MOL0     H15279  10.106   7.316   7.909  1.5906 -1.1207 -0.3803
  111MOL0     H15280  10.414   6.936   7.795 -1.5593 -2.6480 -0.3969
  111MOL0     H15281  10.646   6.971   7.680  1.6307 -3.8481 -0.6127
  111MOL0     H15282  10.681   6.781   7.360  0.1726 -0.7953 -0.6324
  111MOL0     H15283  10.704   6.923   7.245  0.3623  1.0851  1.1558
  111MOL0     H15284  10.935   6.934   7.327 -3.4876  2.6821  2.2647
  111MOL0     H15285  10.891   6.802   7.437 -1.1280  1.2032  0.1455
  111MOL0     H15286  10.897   6.773   7.126  2.0954  2.6454  0.7255
  111MOL0     H15287  10.830   6.654   7.238  0.0165  0.0437 -0.8180
  111MOL0     H15288  11.045   6.651   7.363 -0.1631  0.5355 -0.6126
  111MOL0     H15289  11.122   6.769   7.247  0.8301  0.3464  1.6745
  111MOL0     H15290  11.046   6.482   7.203  0.8588  0.5141  2.0566
  111MOL0     H15291  11.095   6.587   7.063  0.4910 -1.7715  0.3316
  111MOL0     H15292  11.265   6.516   7.290  0.2826  0.2251 -0.3605
  111MOL0     H15293  11.289   6.640   7.162 -1.6162 -0.1768 -3.3860
  111MOL0     H15294  11.261   6.478   6.977 -0.9719  0.2759  1.2207
  111MOL0     H15295  11.257   6.348   7.097 -0.4420 -0.0472 -0.1655
  111MOL0     H15296  11.480   6.549   7.042 -2.6511  1.5713  2.7129
  111MOL0     H15297  11.483   6.383   6.973  0.3164 -0.2521  0.8120
  111MOL0     H15298  10.462   6.929   7.298  2.2974 -1.4585  0.2796
  111MOL0     H15299  10.233   6.939   7.400 -0.9553 -0.3731  1.2135
  111MOL0     H15300   9.943   6.925   7.611 -0.1547  0.9152 -0.6647
  111MOL0     H15301   9.708   6.917   7.690  1.2927 -3.0562  1.7787
  111MOL0     H15302   8.532   7.387   8.912 -1.0495  0.2439 -0.1261
  111MOL0     H15303   8.456   7.616   8.976  1.0326  1.5015 -1.2374
  111MOL0     H15304   8.704   8.019   9.103 -0.1188 -0.2064 -1.3471
  111MOL0     H15305   8.763   8.224   9.205 -1.0610  1.5125  0.6150
  111MOL0     H15306   8.481   8.424   9.479 -0.5610 -0.4523  0.4875
  111MOL0     H15307   8.580   8.314   9.582 -0.4495 -0.7841  0.2095
  111MOL0     H15308   8.776   8.463   9.537 -0.5699 -2.1420  0.5017
  111MOL0     H15309   8.649   8.559   9.628 -2.1929 -0.5624 -0.0896
  111MOL0     H15310   8.692   8.581   9.324  2.6430 -1.3113  1.1012
  111MOL0     H15311   8.569   8.651   9.413 -0.4516 -1.5285 -0.6597
  111MOL0     H15312   8.876   8.686   9.423  1.1190  1.2681  2.4420
  111MOL0     H15313   8.785   8.743   9.559  0.3199 -0.4581  0.8126
  111MOL0     H15314   8.720   9.016   9.219  1.5160 -0.5888  0.3927
  111MOL0     H15315   8.425   8.193   9.468  0.3904 -0.8773  0.8251
  111MOL0     H15316   8.252   7.945   9.295  1.5182 -2.8832 -0.6364
  111MOL0     H15317   8.341   7.873   9.420 -0.2686  1.1206 -0.1386
  111MOL0     H15318   8.262   8.030   9.455  0.4527 -0.2852  2.0531
  112MOL0     O15319  10.284   1.087   9.009  0.7786 -0.5223 -0.4538
  112MOL0     C15320  10.385   1.026   8.982 -0.0369 -0.1720  0.1031
  112MOL0     O15321  10.399   0.894   8.931  0.5796 -0.3885  0.1608
  112MOL0     C15322  10.282   0.823   8.923  0.3217  0.6843 -1.2548
  112MOL0     C15323  10.222   0.768   9.040  0.1265 -0.9067  0.3030
  112MOL0     C15324  10.102   0.705   9.047  0.1202 -0.0396 -0.1602
  112MOL0     C15325  10.039   0.683   8.922  0.1221  0.1911  0.1232
  112MOL0     O15326   9.928   0.611   8.897  0.8827  0.1040 -0.3553
  112MOL0     C15327   9.828   0.587   9.000 -0.6198 -0.1444  0.4978
  112MOL0     C15328   9.747   0.485   8.927  0.4432  0.4716 -0.3493
  112MOL0     C15329   9.644   0.425   9.027  0.1139  0.6283 -0.2887
  112MOL0     C15330   9.534   0.344   8.954 -0.0780 -0.3016  0.6804
  112MOL0     C15331   9.445   0.279   9.061 -0.1295 -0.4198 -0.1695
  112MOL0     C15332   9.315   0.205   9.022 -0.7068  0.2011  0.5946
  112MOL0     C15333   9.197   0.305   9.024 -0.4615  0.0381  0.9491
  112MOL0     C15334   9.067   0.223   8.978 -0.0002 -0.4959  0.2595
  112MOL0     N15335   9.034   0.134   9.086  0.8656  0.4096 -0.0161
  112MOL0     C15336   8.968   0.178   9.196 -0.2467 -0.1550 -0.1367
  112MOL0     C15337   8.967   0.061   9.267  0.8634 -0.7613 -0.6132
  112MOL0     C15338   8.912   0.064   9.412 -0.5392 -0.2614 -0.3512
  112MOL0     C15339   9.013   0.126   9.511  0.1022 -0.2580 -0.0395
  112MOL0     C15340   9.159   0.071   9.518  0.4049  0.2819  0.0765
  112MOL0     C15341   9.161  -0.079   9.535  0.4302 -0.5131  0.2840
  112MOL0     O15342   9.279  -0.134   9.580 -0.4737 -0.1142  0.0542
  112MOL0     C15343   9.388  -0.154   9.500  0.0882  0.2584  0.5384
  112MOL0     C15344   9.507  -0.203   9.554 -0.4992 -0.5294 -0.7225
  112MOL0     C15345   9.624  -0.216   9.487  0.0723  0.2229 -0.5134
  112MOL0     C15346   9.759  -0.251   9.556 -0.1063 -0.3776 -0.1376
  112MOL0     C15347   9.620  -0.199   9.346 -0.2689  0.2418  0.2261
  112MOL0     C15348   9.741  -0.223   9.254 -0.3697 -0.2766 -0.3847
  112MOL0     O15349   9.874  -0.215   9.293  0.6798 -0.9430 -0.5012
  112MOL0     C15350   9.969  -0.233   9.198  0.3203 -0.6211  0.1582
  112MOL0     C15351  10.068  -0.324   9.225 -0.7688 -0.2095 -0.2836
  112MOL0     C15352  10.173  -0.353   9.135  0.6045 -0.7672 -0.3213
  112MOL0     C15353  10.175  -0.286   9.014 -0.0414  0.3218 -0.0439
  112MOL0     O15354  10.285  -0.289   8.936 -0.4122 -0.1338 -0.5941
  112MOL0     C15355  10.410  -0.346   8.985  0.1193 -0.4367 -0.6367
  112MOL0     C15356  10.502  -0.250   9.067  0.3939 -0.7535 -0.3935
  112MOL0     C15357  10.625  -0.316   9.143  0.1508  0.4052  0.8749
  112MOL0     C15358  10.713  -0.209   9.217 -0.0520  0.0501 -0.6109
  112MOL0     C15359  10.816  -0.297   9.296  0.1532 -0.1907  0.5679
  112MOL0     C15360  10.911  -0.197   9.371  0.4609 -0.1462 -0.0465
  112MOL0     C15361  11.056  -0.257   9.400  0.1257 -0.4345 -0.2932
  112MOL0     C15362  11.129  -0.162   9.492  0.2759 -0.6762 -0.4687
  112MOL0    Cl15363  11.081  -0.177   9.660 -0.0396  0.2754  0.0160
  112MOL0     C15364  10.067  -0.200   8.980 -0.2530 -0.4581  0.0463
  112MOL0     C15365   9.960  -0.174   9.067  0.6515  0.0926  0.2905
  112MOL0     O15366   9.708  -0.254   9.140  0.0823 -0.9105 -0.7541
  112MOL0     C15367   9.497  -0.158   9.287  0.2235  0.2156 -0.2904
  112MOL0     C15368   9.386  -0.131   9.367 -0.1286 -0.3061  0.0880
  112MOL0     N15369   9.011  -0.051   9.197  0.5202 -0.2010 -0.1829
  112MOL0     N15370   9.056  -0.001   9.086 -0.9934 -0.4335  0.0512
  112MOL0     C15371  10.100   0.718   8.807  0.2950  0.3243  0.7011
  112MOL0     C15372  10.214   0.792   8.806 -0.0272 -0.1537 -0.2519
  112MOL0     C15373  10.518   1.088   9.008 -0.5278 -1.0570 -0.3713
  112MOL0     C15374  10.638   1.016   8.975  0.0841 -0.1266 -0.2782
  112MOL0     C15375  10.766   1.065   8.995 -0.1767  0.3407  0.6939
  112MOL0     C15376  10.788   1.191   9.053 -0.5846  0.6514 -0.1684
  112MOL0     O15377  10.914   1.244   9.063 -0.2385 -0.2138 -0.0085
  112MOL0     C15378  11.029   1.170   9.012 -0.1995  0.2540  0.1145
  112MOL0     C15379  11.157   1.230   9.077 -0.7298  0.1406  0.1597
  112MOL0     C15380  11.186   1.369   9.033 -0.0080 -0.7532  0.4619
  112MOL0     C15381  11.302   1.425   9.108 -0.3834  0.1069  0.2306
  112MOL0     C15382  11.268   1.476   9.248  0.2763 -0.6150  0.9440
  112MOL0     C15383  11.239   1.534   9.356  0.7036  1.2219  0.5096
  112MOL0     C15384  10.679   1.257   9.088  0.0437  0.7458 -0.6871
  112MOL0     C15385  10.541   1.215   9.069  0.3607 -0.7094  0.1330
  112MOL0     C15386  10.429   1.316   9.103  0.0207 -0.9040 -1.2968
  112MOL0     H15387  10.261   0.791   9.139  2.0892 -1.5896 -0.2623
  112MOL0     H15388  10.070   0.660   9.140 -0.9863  4.3726  1.8611
  112MOL0     H15389   9.766   0.673   9.025  0.0593  0.4787  0.0948
  112MOL0     H15390   9.868   0.544   9.092  1.1973 -4.4878 -1.9964
  112MOL0     H15391   9.702   0.541   8.844  1.8214  2.2671  0.0482
  112MOL0     H15392   9.803   0.404   8.879  0.9485  0.0411  0.9244
  112MOL0     H15393   9.698   0.357   9.094 -3.0199 -0.4271  1.3443
  112MOL0     H15394   9.596   0.503   9.087  0.7784  0.6760  0.1946
  112MOL0     H15395   9.489   0.426   8.897 -2.1780 -0.9000  1.3553
  112MOL0     H15396   9.577   0.264   8.893  1.0269 -2.1986  3.7269
  112MOL0     H15397   9.424   0.351   9.141  1.9493  0.6697 -0.5322
  112MOL0     H15398   9.510   0.210   9.115 -0.5177  0.2564  1.2008
  112MOL0     H15399   9.334   0.164   8.922 -0.2200  1.4425  0.1592
  112MOL0     H15400   9.301   0.123   9.093  1.1090 -0.6496  0.0357
  112MOL0     H15401   9.217   0.389   8.957 -1.2728 -0.7524 -0.3207
  112MOL0     H15402   9.181   0.346   9.124  1.1910  1.4519  0.6906
  112MOL0     H15403   8.979   0.284   8.954  0.8282  0.0971 -1.3816
  112MOL0     H15404   9.084   0.162   8.889  3.1079 -0.1611  0.5342
  112MOL0     H15405   8.952   0.280   9.229  2.0219  0.1847  0.0264
  112MOL0     H15406   8.885  -0.037   9.445 -0.7369 -0.0661  0.0963
  112MOL0     H15407   8.825   0.129   9.421 -1.0401 -0.6365 -2.0520
  112MOL0     H15408   9.011   0.235   9.500  0.1313 -0.1530  0.9460
  112MOL0     H15409   8.960   0.118   9.606 -0.2572 -1.2925 -0.3203
  112MOL0     H15410   9.217   0.105   9.431 -0.6149  2.5775  0.2058
  112MOL0     H15411   9.205   0.114   9.607 -2.0613  1.1851  1.0022
  112MOL0     H15412   9.090  -0.109   9.613 -0.6250  1.3852  0.1050
  112MOL0     H15413   9.126  -0.130   9.445  2.4226  0.0493 -0.8716
  112MOL0     H15414   9.511  -0.219   9.662  1.0221  2.7097 -0.1875
  112MOL0     H15415   9.823  -0.162   9.555 -0.8629  0.1689 -0.5261
  112MOL0     H15416   9.812  -0.340   9.521 -1.3966 -2.3133  2.5253
  112MOL0     H15417   9.736  -0.266   9.662 -0.4163  1.0954  0.0166
  112MOL0     H15418  10.058  -0.368   9.324  0.6949  2.5564  1.2110
  112MOL0     H15419  10.255  -0.417   9.166  2.3526 -0.2397 -3.3672
  112MOL0     H15420  10.397  -0.441   9.038  1.9759  1.2137  3.1064
  112MOL0     H15421  10.463  -0.367   8.891 -0.3240 -0.9043 -0.7874
  112MOL0     H15422  10.527  -0.167   9.000  0.0499  1.5882  2.1889
  112MOL0     H15423  10.429  -0.202   9.132 -0.2251  0.8790 -2.1702
  112MOL0     H15424  10.681  -0.377   9.070  1.3397  2.8496 -0.3942
  112MOL0     H15425  10.590  -0.383   9.222  0.0764 -0.6023  0.0085
  112MOL0     H15426  10.639  -0.156   9.277 -2.4855 -2.0990 -1.5315
  112MOL0     H15427  10.749  -0.139   9.142 -0.4055 -0.1255 -0.9431
  112MOL0     H15428  10.769  -0.355   9.376 -2.9782 -0.2905 -1.1908
  112MOL0     H15429  10.867  -0.364   9.226  0.9490 -0.1741  1.1152
  112MOL0     H15430  10.863  -0.176   9.467  0.0827 -1.8053  0.1652
  112MOL0     H15431  10.919  -0.099   9.323  0.0100  0.1822  0.5347
  112MOL0     H15432  11.105  -0.267   9.302 -0.8132  0.8209 -0.9227
  112MOL0     H15433  11.045  -0.360   9.437  1.5935 -0.7305 -0.6037
  112MOL0     H15434  11.107  -0.059   9.462 -2.2159 -0.4119  1.8594
  112MOL0     H15435  11.236  -0.182   9.487  0.4370 -0.2108  0.8022
  112MOL0     H15436  10.077  -0.154   8.883 -1.0552  1.3236  0.7663
  112MOL0     H15437   9.882  -0.102   9.042 -0.0304 -0.9266 -0.6279
  112MOL0     H15438   9.477  -0.156   9.181 -0.5896  2.1289 -0.1523
  112MOL0     H15439   9.293  -0.092   9.327  0.2510 -0.8641 -1.4035
  112MOL0     H15440  10.058   0.676   8.716 -0.8694  0.9090  0.9457
  112MOL0     H15441  10.271   0.809   8.715 -0.1619  1.0161 -0.1340
  112MOL0     H15442  10.634   0.913   8.941  0.6374 -0.8957  1.8555
  112MOL0     H15443  10.842   0.997   8.958 -0.3619  0.9287 -0.8461
  112MOL0     H15444  11.022   1.064   9.040 -1.8895  0.5481  0.9349
  112MOL0     H15445  11.025   1.189   8.904 -4.9132 -2.2813 -0.4539
  112MOL0     H15446  11.241   1.163   9.060 -1.4844 -0.4689 -1.4363
  112MOL0     H15447  11.147   1.232   9.186  0.4323  0.0708  0.2812
  112MOL0     H15448  11.218   1.374   8.928 -0.8125  0.8641  0.2713
  112MOL0     H15449  11.101   1.436   9.037  1.8931  2.1997 -2.6032
  112MOL0     H15450  11.366   1.499   9.060  0.7046  0.7229  2.4801
  112MOL0     H15451  11.363   1.340   9.137  0.5861  1.7624  3.5564
  112MOL0     H15452  11.204   1.590   9.440 -0.8566  1.5443 -0.3070
  112MOL0     H15453  10.694   1.362   9.111 -2.1792  0.9562  0.1034
  112MOL0     H15454  10.350   1.272   9.165 -0.5888 -0.7054 -1.9182
  112MOL0     H15455  10.473   1.400   9.158 -2.4945 -1.2026  1.4289
  112MOL0     H15456  10.380   1.353   9.012 -2.4047  0.2300  0.3415
  113MOL0     O15457   9.819  10.298   1.571 -0.0374 -0.0941 -0.5189
  113MOL0     C15458   9.724  10.228   1.603  0.1120  0.1093 -0.5064
  113MOL0     O15459   9.736  10.102   1.638 -0.3524 -0.2607 -0.1980
  113MOL0     C15460   9.853  10.043   1.673  0.3142  0.0970  0.2791
  113MOL0     C15461   9.850   9.907   1.674  0.9474 -0.3418 -0.5972
  113MOL0     C15462   9.964   9.829   1.707  0.4232 -0.2055  0.3115
  113MOL0     C15463  10.073   9.886   1.770 -0.3269 -0.8636 -0.0081
  113MOL0     O15464  10.188   9.831   1.814 -0.1956  0.8159  0.4891
  113MOL0     C15465  10.185   9.727   1.916 -0.0361  0.0182  0.0638
  113MOL0     C15466  10.201   9.790   2.053  0.5885 -0.0508  0.2676
  113MOL0     C15467  10.347   9.819   2.071  0.5023  0.2637  0.2094
  113MOL0     C15468  10.367   9.909   2.191  0.0474  0.0964 -0.3568
  113MOL0     C15469  10.504   9.908   2.251  1.1445 -0.3667  0.1386
  113MOL0     C15470  10.595  10.011   2.182 -0.9277 -0.6606  0.2832
  113MOL0     C15471  10.737   9.984   2.235  0.0570  0.3370 -0.7772
  113MOL0     C15472  10.801   9.875   2.155  0.0079  0.2470 -1.2012
  113MOL0     N15473  10.922   9.832   2.221 -0.0146  0.3177 -0.6116
  113MOL0     C15474  10.933   9.752   2.330 -0.7499 -0.1310  0.3965
  113MOL0     C15475  11.063   9.743   2.361  0.5805  0.3967 -0.3683
  113MOL0     C15476  11.124   9.678   2.484  0.1596 -0.2297 -0.3062
  113MOL0     C15477  11.156   9.780   2.598 -0.9662  0.1875  0.0673
  113MOL0     C15478  11.278   9.729   2.678  0.8896 -0.1586 -0.0427
  113MOL0     C15479  11.314   9.823   2.803  0.9972 -0.0959 -0.6174
  113MOL0     O15480  11.398   9.931   2.780  0.0179  0.4973 -0.2952
  113MOL0     C15481  11.533   9.918   2.776 -0.4193  1.0715  0.7458
  113MOL0     C15482  11.609  10.033   2.773  0.1321  0.4504  0.5750
  113MOL0     C15483  11.747  10.036   2.784  0.4043  0.5836  0.2967
  113MOL0     C15484  11.805  10.168   2.789  0.0792  0.1126 -0.1566
  113MOL0     C15485  11.820   9.915   2.784  0.3250 -0.6015  0.4310
  113MOL0     C15486  11.966   9.913   2.788  1.2023 -0.5498 -0.5348
  113MOL0     O15487  12.009   9.796   2.851  0.8370 -0.0664 -0.5066
  113MOL0     C15488  12.140   9.766   2.880 -1.5430  0.6374 -1.2645
  113MOL0     C15489  12.247   9.862   2.894  0.2429 -0.1894  0.1030
  113MOL0     C15490  12.376   9.821   2.931  0.4759 -0.0491  0.3450
  113MOL0     C15491  12.410   9.686   2.967  0.1900 -0.0380  0.4557
  113MOL0     O15492  12.535   9.630   3.008  0.7902 -0.6767  0.2833
  113MOL0     C15493  12.652   9.716   3.005  0.0009 -0.0049  0.2407
  113MOL0     C15494  12.783   9.639   2.992  0.6510 -0.1544 -0.0494
  113MOL0     C15495  12.886   9.746   2.985 -0.1293  0.4308  0.3030
  113MOL0     C15496  13.029   9.695   3.002 -0.1457 -0.0180 -0.2389
  113MOL0     C15497  13.129   9.807   2.978  0.1085 -0.7180  0.0737
  113MOL0     C15498  13.270   9.740   2.950  0.5258  0.1440 -0.2711
  113MOL0     C15499  13.388   9.841   2.912 -0.3254 -0.5904 -0.0626
  113MOL0     C15500  13.360   9.915   2.779  0.5439  0.4785  0.5784
  113MOL0    Cl15501  13.502   9.998   2.723  0.4651  0.9697  0.2007
  113MOL0     C15502  12.302   9.598   2.965  0.4093  0.3536  0.8136
  113MOL0     C15503  12.173   9.633   2.928  0.6772  0.2249  0.4376
  113MOL0     O15504  12.036   9.990   2.723  0.0297 -0.0967 -0.0443
  113MOL0     C15505  11.745   9.797   2.796 -0.8176 -1.0310 -1.1974
  113MOL0     C15506  11.608   9.799   2.788  0.3307 -0.4782  0.3173
  113MOL0     N15507  11.131   9.818   2.263  0.3555  0.5019 -0.0366
  113MOL0     N15508  11.048   9.871   2.179 -0.4011 -0.0297 -0.2434
  113MOL0     C15509  10.067  10.027   1.793 -0.1662  0.4943  0.3667
  113MOL0     C15510   9.965  10.107   1.739 -0.4187  0.5463 -0.3041
  113MOL0     C15511   9.586  10.287   1.573  0.1472 -1.2058  0.3114
  113MOL0     C15512   9.582  10.411   1.507  0.2971 -0.6367  0.3729
  113MOL0     C15513   9.461  10.470   1.470 -0.2497 -0.6428  0.6512
  113MOL0     C15514   9.337  10.404   1.497 -0.8513  1.0607  0.9005
  113MOL0     O15515   9.232  10.465   1.440 -0.6915 -0.5397  0.3963
  113MOL0     C15516   9.108  10.405   1.426 -0.0207  0.3279  1.2477
  113MOL0     C15517   9.090  10.298   1.314  0.0565 -0.2632 -0.7999
  113MOL0     C15518   9.131  10.359   1.183 -0.3798  0.2118 -0.3207
  113MOL0     C15519   9.071  10.300   1.058 -0.3963 -0.5508 -0.6313
  113MOL0     C15520   9.072  10.155   1.056  2.1730 -0.3664  0.6451
  113MOL0     C15521   9.078  10.034   1.048 -1.1544  0.2117  0.0964
  113MOL0     C15522   9.343  10.284   1.562  0.1926  0.6098  0.3184
  113MOL0     C15523   9.457  10.220   1.599 -0.4822 -0.7931 -0.2656
  113MOL0     C15524   9.442  10.095   1.683 -0.4311  0.4496 -0.8460
  113MOL0     H15525   9.755   9.863   1.645 -1.1022  0.1979  4.2935
  113MOL0     H15526   9.964   9.720   1.704 -1.0751 -0.1979 -0.2688
  113MOL0     H15527  10.264   9.652   1.909 -2.3365 -2.5825  0.3345
  113MOL0     H15528  10.090   9.674   1.929 -1.1555  2.4087  2.8578
  113MOL0     H15529  10.142   9.882   2.051  1.4653  0.5400 -1.6745
  113MOL0     H15530  10.153   9.721   2.122 -0.3182 -2.4034 -2.5135
  113MOL0     H15531  10.401   9.725   2.088  4.5676  2.4024  0.3760
  113MOL0     H15532  10.380   9.857   1.974 -0.4999  1.9637  0.5067
  113MOL0     H15533  10.344  10.009   2.152  0.3461  0.4413  0.3272
  113MOL0     H15534  10.296   9.877   2.267  1.4523  0.7426  1.3003
  113MOL0     H15535  10.554   9.811   2.250  0.0391 -0.9806 -1.7425
  113MOL0     H15536  10.483   9.934   2.355 -1.2128  2.8839 -0.9812
  113MOL0     H15537  10.591  10.000   2.073  0.7173  1.5596 -0.0801
  113MOL0     H15538  10.560  10.113   2.202 -2.7056 -1.0746 -0.5754
  113MOL0     H15539  10.720   9.950   2.338  0.2588  2.2103 -0.0815
  113MOL0     H15540  10.804  10.070   2.244  1.4759 -0.9275  2.5855
  113MOL0     H15541  10.734   9.790   2.146 -2.2257  2.0593 -3.0718
  113MOL0     H15542  10.828   9.922   2.060  2.4000  1.5449  0.0243
  113MOL0     H15543  10.860   9.695   2.386  1.1060 -0.4583  2.6265
  113MOL0     H15544  11.221   9.630   2.469  1.0139  1.1192  0.7730
  113MOL0     H15545  11.049   9.608   2.522 -1.9288  2.3942  0.7462
  113MOL0     H15546  11.196   9.869   2.548 -1.6938  0.1448 -0.6172
  113MOL0     H15547  11.072   9.800   2.664 -1.0070  1.6279 -0.3867
  113MOL0     H15548  11.243   9.632   2.716  0.1724 -0.4977 -1.4727
  113MOL0     H15549  11.367   9.717   2.615  0.7975  1.2223 -0.4718
  113MOL0     H15550  11.224   9.871   2.844  1.3739  0.6837 -0.6912
  113MOL0     H15551  11.358   9.769   2.887 -0.6990  2.2848  1.9944
  113MOL0     H15552  11.548  10.121   2.758  0.1287  0.3264 -0.1371
  113MOL0     H15553  11.882  10.167   2.866 -0.6383 -4.5726  0.8325
  113MOL0     H15554  11.738  10.248   2.822  3.3059  1.8552  2.8443
  113MOL0     H15555  11.846  10.189   2.690 -3.6853 -3.7451 -2.8863
  113MOL0     H15556  12.221   9.967   2.883 -0.7534 -0.6357 -3.0975
  113MOL0     H15557  12.439   9.909   2.940 -3.2981  2.7987  1.6271
  113MOL0     H15558  12.651   9.794   2.927  0.1709  0.1242  0.3681
  113MOL0     H15559  12.656   9.775   3.097  0.8831  1.3451 -0.6192
  113MOL0     H15560  12.799   9.571   3.076  0.4129 -0.2248 -0.0614
  113MOL0     H15561  12.778   9.583   2.898  0.2086 -1.5287  0.7681
  113MOL0     H15562  12.860   9.829   3.051 -2.7916  0.0141 -0.1338
  113MOL0     H15563  12.886   9.793   2.886 -0.0065  0.8913  0.5171
  113MOL0     H15564  13.047   9.601   2.949 -0.4947 -1.1153  1.5260
  113MOL0     H15565  13.030   9.673   3.109 -0.0379 -0.5335 -0.3439
  113MOL0     H15566  13.104   9.857   2.883  4.1434  1.6616  0.0123
  113MOL0     H15567  13.131   9.873   3.065  0.3036 -1.8109  0.9165
  113MOL0     H15568  13.264   9.662   2.873  0.3959 -3.2772  2.8922
  113MOL0     H15569  13.306   9.683   3.037 -0.2687 -0.6161 -0.4283
  113MOL0     H15570  13.489   9.801   2.916  0.1602  0.6031 -0.2127
  113MOL0     H15571  13.396   9.917   2.990  2.1814 -0.3254 -0.5014
  113MOL0     H15572  13.278   9.987   2.784  0.5640  0.4552  1.4065
  113MOL0     H15573  13.347   9.840   2.701 -0.3328  0.1274  1.0481
  113MOL0     H15574  12.324   9.493   2.983  1.9304  0.2462 -1.2626
  113MOL0     H15575  12.082   9.576   2.943  0.1096  1.2894  1.1711
  113MOL0     H15576  11.793   9.701   2.809 -2.4405 -1.6135  1.2674
  113MOL0     H15577  11.550   9.708   2.783  1.3188 -1.2333  1.8269
  113MOL0     H15578  10.147  10.073   1.850  0.5061 -0.8879  0.5705
  113MOL0     H15579   9.966  10.216   1.742 -0.2572  0.5239  0.4448
  113MOL0     H15580   9.672  10.468   1.487  0.8625 -1.5566  0.2289
  113MOL0     H15581   9.467  10.556   1.405  3.3099 -0.4800  0.9859
  113MOL0     H15582   9.076  10.378   1.527  0.2417  1.2218  1.5777
  113MOL0     H15583   9.039  10.487   1.406 -0.6970  0.1332  2.6501
  113MOL0     H15584   8.990  10.254   1.322 -0.2929  0.5438 -0.6930
  113MOL0     H15585   9.150  10.210   1.339 -0.7209 -0.4577  0.4994
  113MOL0     H15586   9.106  10.465   1.185  1.1600  0.6686 -2.0626
  113MOL0     H15587   9.240  10.370   1.186 -0.5237  2.0080  2.1128
  113MOL0     H15588   9.133  10.332   0.974 -0.4137 -3.3285 -1.7853
  113MOL0     H15589   8.968  10.332   1.042 -0.7503 -1.7696 -0.8363
  113MOL0     H15590   9.090   9.929   1.064 -0.3830  0.4680  1.3602
  113MOL0     H15591   9.252  10.226   1.579 -0.5239  1.8323  0.7547
  113MOL0     H15592   9.473  10.019   1.610 -0.8291  0.5534 -1.1254
  113MOL0     H15593   9.509  10.088   1.769  1.6023  1.6097 -2.2384
  113MOL0     H15594   9.343  10.076   1.726 -1.2055  3.5850 -0.9903
  114MOL0     O15595   0.122  10.523   1.566 -0.1585  0.1238  0.3276
  114MOL0     C15596   0.037  10.533   1.653 -0.0602  1.0920  0.4162
  114MOL0     O15597   0.060  10.553   1.793  0.1804 -0.2115  0.0031
  114MOL0     C15598   0.184  10.554   1.857 -0.7499  0.6896  0.5290
  114MOL0     C15599   0.303  10.499   1.802 -0.4388  0.2148  0.5384
  114MOL0     C15600   0.421  10.519   1.870  0.1583  0.0695  0.0078
  114MOL0     C15601   0.423  10.567   2.001  0.3907  0.0277  0.3782
  114MOL0     O15602   0.548  10.571   2.066  0.1379 -0.2021  0.3925
  114MOL0     C15603   0.560  10.630   2.195  0.4971  0.2158 -0.4130
  114MOL0     C15604   0.708  10.650   2.240 -0.1656 -0.3201  0.1309
  114MOL0     C15605   0.779  10.527   2.283 -0.7504  0.1378 -0.1944
  114MOL0     C15606   0.925  10.559   2.308 -0.3058 -0.4318  0.9486
  114MOL0     C15607   1.005  10.442   2.348  0.0581  0.5789  0.4166
  114MOL0     C15608   1.149  10.484   2.354 -0.2608  0.4110 -0.2430
  114MOL0     C15609   1.245  10.380   2.413 -0.3289  0.3221 -0.3667
  114MOL0     C15610   1.329  10.291   2.310  0.9601  0.1085 -0.4940
  114MOL0     N15611   1.416  10.199   2.375 -0.0784  0.3168 -0.8434
  114MOL0     C15612   1.530  10.218   2.444  0.4489  0.2955  0.5173
  114MOL0     C15613   1.561  10.096   2.489  0.1293 -0.4842  0.1378
  114MOL0     C15614   1.678  10.077   2.580 -0.9161  0.5078  0.1283
  114MOL0     C15615   1.816  10.077   2.503 -0.3006  0.4118 -0.8740
  114MOL0     C15616   1.849   9.935   2.443  0.0924 -0.4975 -0.2797
  114MOL0     C15617   1.980   9.941   2.374  0.1601  0.4822  0.2120
  114MOL0     O15618   1.983   9.811   2.307 -0.7562 -0.1726 -0.4420
  114MOL0     C15619   2.111   9.799   2.252  0.7289  0.9518 -0.1115
  114MOL0     C15620   2.127   9.824   2.116  0.1012  0.6926 -0.1663
  114MOL0     C15621   2.249   9.804   2.059 -0.6424  0.0323  0.2851
  114MOL0     C15622   2.261   9.814   1.914  0.6753 -0.3646  0.2504
  114MOL0     C15623   2.357   9.746   2.133  0.3513  0.1502  0.2246
  114MOL0     C15624   2.489   9.707   2.077 -0.5854 -0.3048  0.4452
  114MOL0     O15625   2.596   9.702   2.157 -0.1919 -0.1293  0.3826
  114MOL0     C15626   2.716   9.652   2.122  0.4655  1.4169 -0.3684
  114MOL0     C15627   2.770   9.663   1.994  0.1034  0.3375 -0.1934
  114MOL0     C15628   2.894   9.611   1.963 -0.0189  0.7662 -0.2497
  114MOL0     C15629   2.960   9.535   2.054 -0.1221  0.4179  0.4611
  114MOL0     O15630   3.079   9.478   2.010 -0.7041 -0.4129  0.6773
  114MOL0     C15631   3.184   9.432   2.097  0.5237 -0.7366 -0.3084
  114MOL0     C15632   3.292   9.360   2.019  0.0768  0.5831  0.4216
  114MOL0     C15633   3.384   9.464   1.950 -0.6261  1.0116  0.0358
  114MOL0     C15634   3.525   9.404   1.940  0.2388 -0.6542 -0.5010
  114MOL0     C15635   3.620   9.487   1.864  0.0139 -0.1251  0.1998
  114MOL0     C15636   3.759   9.420   1.859 -0.1424  0.0112 -0.8051
  114MOL0     C15637   3.835   9.483   1.750 -0.4052 -0.5716  0.3488
  114MOL0     C15638   3.963   9.410   1.722  1.2267  0.6071 -0.0901
  114MOL0    Cl15639   4.060   9.390   1.868  0.0560 -0.3980 -0.1794
  114MOL0     C15640   2.904   9.518   2.188 -0.4204  0.5541  0.4265
  114MOL0     C15641   2.793   9.583   2.222  0.3957  0.1244  0.8374
  114MOL0     O15642   2.496   9.677   1.955  0.0078  0.1803 -0.4891
  114MOL0     C15643   2.338   9.726   2.270 -0.3598  1.0108  0.4281
  114MOL0     C15644   2.213   9.749   2.329  0.4883 -0.0939  0.2340
  114MOL0     N15645   1.461  10.000   2.444 -0.7094 -0.0245 -0.1895
  114MOL0     N15646   1.381  10.065   2.374  0.1103 -0.7521 -0.2034
  114MOL0     C15647   0.303  10.609   2.054  1.2056 -0.8750 -0.2389
  114MOL0     C15648   0.182  10.606   1.986  0.2438 -0.5837  0.6921
  114MOL0     C15649  -0.103  10.540   1.596 -0.2814 -0.0682 -0.7000
  114MOL0     C15650  -0.136  10.447   1.492 -0.1779  0.4658 -0.6708
  114MOL0     C15651  -0.269  10.448   1.446 -0.1210  0.8586 -0.0452
  114MOL0     C15652  -0.370  10.520   1.505 -0.3240 -0.8247 -0.1252
  114MOL0     O15653  -0.507  10.514   1.457 -0.0669  0.2038  0.1912
  114MOL0     C15654  -0.543  10.426   1.352 -0.8961  0.1037  0.7692
  114MOL0     C15655  -0.676  10.459   1.290 -0.2860 -0.0233  0.0978
  114MOL0     C15656  -0.651  10.535   1.154 -0.1620  0.1340  0.2765
  114MOL0     C15657  -0.773  10.600   1.088  0.1970  0.1378 -0.0098
  114MOL0     C15658  -0.839  10.696   1.182 -0.0119 -0.2012  0.6830
  114MOL0     C15659  -0.891  10.781   1.249 -0.3978  0.1395 -0.1256
  114MOL0     C15660  -0.336  10.614   1.604  0.4711  0.5195  0.3302
  114MOL0     C15661  -0.202  10.635   1.648  0.4521  0.7170 -0.0818
  114MOL0     C15662  -0.191  10.748   1.753 -0.8732  0.1886 -0.6913
  114MOL0     H15663   0.294  10.445   1.708  1.2049  1.6849 -0.5449
  114MOL0     H15664   0.506  10.468   1.825  1.2434 -1.8437  3.7678
  114MOL0     H15665   0.500  10.571   2.265  0.5780 -1.6224 -1.8215
  114MOL0     H15666   0.519  10.731   2.198 -1.6174 -0.5819  2.0961
  114MOL0     H15667   0.753  10.698   2.152  0.8219  2.1552  1.8659
  114MOL0     H15668   0.713  10.730   2.315  3.2348 -1.1540  0.9786
  114MOL0     H15669   0.741  10.489   2.378 -2.9610  1.7075 -0.3516
  114MOL0     H15670   0.769  10.458   2.199  1.2139 -0.0746 -0.2921
  114MOL0     H15671   0.978  10.600   2.222  0.8788  0.2343  1.9422
  114MOL0     H15672   0.926  10.642   2.379  0.8334  1.4270 -1.1427
  114MOL0     H15673   0.989  10.352   2.287  1.8451  0.2597  0.3620
  114MOL0     H15674   0.978  10.425   2.452  0.9044  2.8649  1.0819
  114MOL0     H15675   1.176  10.507   2.250  2.2832 -0.6285  0.1180
  114MOL0     H15676   1.154  10.580   2.406 -1.6754  1.2593 -1.5865
  114MOL0     H15677   1.187  10.319   2.482 -0.1786  1.5815  0.9265
  114MOL0     H15678   1.315  10.431   2.480 -0.1589  0.3608 -0.5692
  114MOL0     H15679   1.256  10.227   2.261  0.0027  0.0975  0.8678
  114MOL0     H15680   1.381  10.362   2.245 -1.2626  1.8322 -0.5295
  114MOL0     H15681   1.585  10.305   2.477  2.2557 -0.5990  0.0025
  114MOL0     H15682   1.669  10.003   2.659 -1.3327 -0.6542 -0.9793
  114MOL0     H15683   1.684  10.171   2.636 -0.4175  0.0598  0.8460
  114MOL0     H15684   1.820  10.150   2.423 -0.2131  0.7103 -0.6001
  114MOL0     H15685   1.896  10.107   2.572  0.6321 -1.3298 -1.1252
  114MOL0     H15686   1.843   9.861   2.523  0.6303 -0.0205  0.2081
  114MOL0     H15687   1.766   9.915   2.375 -1.0151  2.4304  0.0883
  114MOL0     H15688   1.984  10.028   2.307  1.1191  1.0876  1.0304
  114MOL0     H15689   2.056   9.960   2.451  0.4568  1.1434 -0.2308
  114MOL0     H15690   2.044   9.860   2.056  1.1368  1.4737 -1.1744
  114MOL0     H15691   2.348   9.872   1.882 -2.2131  2.1587 -4.1261
  114MOL0     H15692   2.180   9.870   1.866  1.6107 -0.2403 -1.2387
  114MOL0     H15693   2.276   9.714   1.873  0.1723 -0.5122  0.4122
  114MOL0     H15694   2.725   9.721   1.914  1.3447  1.7207  0.0556
  114MOL0     H15695   2.924   9.616   1.859 -1.6049  0.5441 -0.7582
  114MOL0     H15696   3.218   9.508   2.169 -2.8124  0.2308  0.4537
  114MOL0     H15697   3.135   9.360   2.164 -1.5753  1.3343  0.5362
  114MOL0     H15698   3.353   9.300   2.087 -0.7517  0.7174  1.3050
  114MOL0     H15699   3.235   9.297   1.950 -1.1592  0.4446  1.5341
  114MOL0     H15700   3.390   9.564   1.993  0.2761  2.3975 -3.0241
  114MOL0     H15701   3.346   9.478   1.848 -1.2677  1.1977  0.2976
  114MOL0     H15702   3.519   9.309   1.886  2.1547 -0.8670 -0.4367
  114MOL0     H15703   3.552   9.371   2.041 -3.4919 -0.6361  0.6398
  114MOL0     H15704   3.583   9.507   1.763 -3.0414 -2.6683  0.6616
  114MOL0     H15705   3.616   9.589   1.903 -1.2236 -0.0285 -0.1430
  114MOL0     H15706   3.751   9.312   1.846  1.2223 -0.5349  2.1332
  114MOL0     H15707   3.807   9.445   1.954 -2.4268  1.1113  0.1171
  114MOL0     H15708   3.851   9.587   1.778  1.7483 -0.5570 -0.7300
  114MOL0     H15709   3.774   9.482   1.659  0.9508 -0.1078 -0.6106
  114MOL0     H15710   4.019   9.467   1.647  1.5754 -2.0759 -2.0561
  114MOL0     H15711   3.954   9.307   1.685  0.3485  0.3882  0.7016
  114MOL0     H15712   2.956   9.462   2.265  0.2204  2.1051  1.1834
  114MOL0     H15713   2.752   9.570   2.322  3.3053  0.9305  2.2349
  114MOL0     H15714   2.420   9.692   2.332  1.5747  2.9949 -0.9225
  114MOL0     H15715   2.195   9.727   2.434 -0.5540  0.4785  0.1899
  114MOL0     H15716   0.280  10.656   2.149 -3.1589  2.7850 -2.7310
  114MOL0     H15717   0.091  10.650   2.025  0.3467 -0.1110  0.4130
  114MOL0     H15718  -0.061  10.379   1.452  0.0739  2.3562 -3.6517
  114MOL0     H15719  -0.291  10.379   1.366  2.8612  2.2630 -2.3009
  114MOL0     H15720  -0.469  10.417   1.272 -2.2575 -1.8365 -0.3402
  114MOL0     H15721  -0.542  10.329   1.402  1.8215 -0.5896 -0.4272
  114MOL0     H15722  -0.731  10.518   1.364  2.0690  1.4904  0.7506
  114MOL0     H15723  -0.726  10.363   1.269  1.4372 -0.9777  0.1935
  114MOL0     H15724  -0.574  10.611   1.167  0.6380 -1.1410  4.2130
  114MOL0     H15725  -0.626  10.462   1.077 -5.9847 -0.0375 -1.9485
  114MOL0     H15726  -0.850  10.525   1.067 -0.4879  0.5709  0.8747
  114MOL0     H15727  -0.742  10.651   0.996 -1.0334  0.8188 -0.0657
  114MOL0     H15728  -0.947  10.854   1.304 -2.0098 -1.7026  0.8106
  114MOL0     H15729  -0.418  10.670   1.649 -1.4453 -3.0032  1.6948
  114MOL0     H15730  -0.279  10.758   1.817 -0.3021 -2.2964  0.6225
  114MOL0     H15731  -0.118  10.722   1.830 -2.0066  1.4647  0.8724
  114MOL0     H15732  -0.149  10.844   1.719 -0.4108  0.9813  1.9058
  115MOL0     O15733   6.682  10.152   1.614  0.1240 -0.1669  0.0943
  115MOL0     C15734   6.701  10.052   1.551 -0.8222  0.6798 -0.2962
  115MOL0     O15735   6.829  10.003   1.517 -0.5497 -0.1785  0.5188
  115MOL0     C15736   6.931  10.094   1.520  0.2857 -0.1906  0.2772
  115MOL0     C15737   6.926  10.221   1.450  0.7657 -0.4968 -0.8058
  115MOL0     C15738   7.029  10.312   1.472 -0.6885  0.2609  0.0803
  115MOL0     C15739   7.141  10.285   1.553 -0.2733  0.9085  0.4615
  115MOL0     O15740   7.220  10.392   1.577 -0.5011 -0.4765 -0.2340
  115MOL0     C15741   7.337  10.361   1.654  0.2756 -0.2119 -0.5954
  115MOL0     C15742   7.451  10.287   1.580  0.4271 -0.7333 -0.6819
  115MOL0     C15743   7.570  10.380   1.533  0.3478  0.4562 -0.0294
  115MOL0     C15744   7.647  10.435   1.652  0.0957 -0.2535 -0.1121
  115MOL0     C15745   7.780  10.503   1.613  0.5225  0.4748 -0.0047
  115MOL0     C15746   7.893  10.413   1.545 -0.1537  0.3388  0.1421
  115MOL0     C15747   7.907  10.271   1.597  0.5827 -0.0229  0.8694
  115MOL0     C15748   8.000  10.185   1.512 -0.3300 -0.5506 -1.0606
  115MOL0     N15749   8.038  10.057   1.573 -0.1792  0.1402  0.1259
  115MOL0     C15750   7.943   9.966   1.602  0.8215  1.0579 -0.7519
  115MOL0     C15751   8.015   9.849   1.630 -0.0591 -0.0020  0.7312
  115MOL0     C15752   7.978   9.718   1.689 -0.0977 -0.0158 -0.0133
  115MOL0     C15753   7.906   9.622   1.598 -0.5590  0.0657  0.8354
  115MOL0     C15754   7.971   9.587   1.464 -0.0657 -0.4327 -1.1791
  115MOL0     C15755   8.117   9.525   1.472  0.7044 -0.0685  0.1436
  115MOL0     O15756   8.219   9.609   1.518 -0.7854 -0.4542 -0.2262
  115MOL0     C15757   8.324   9.542   1.580 -0.9293 -0.2356  0.3890
  115MOL0     C15758   8.343   9.407   1.584 -0.3835 -0.3486  0.0984
  115MOL0     C15759   8.462   9.344   1.631  0.1795  0.2056 -0.4769
  115MOL0     C15760   8.495   9.193   1.624  0.5173 -0.2837  0.6292
  115MOL0     C15761   8.558   9.431   1.688 -1.0733  0.0485 -0.9558
  115MOL0     C15762   8.700   9.384   1.726 -0.3908  0.9437  0.6529
  115MOL0     O15763   8.754   9.429   1.838 -0.1863 -0.0776  0.1704
  115MOL0     C15764   8.852   9.338   1.888  0.5474  0.0950 -0.4152
  115MOL0     C15765   8.811   9.212   1.915 -0.7006  0.2426 -0.2546
  115MOL0     C15766   8.883   9.137   2.009 -0.1286 -0.4463  0.1726
  115MOL0     C15767   8.994   9.197   2.084 -0.1364  0.4348 -0.8219
  115MOL0     O15768   9.060   9.126   2.180 -0.5006  0.4035  0.3922
  115MOL0     C15769   9.034   8.986   2.209 -0.0836 -0.0218 -0.0448
  115MOL0     C15770   9.127   8.934   2.320  0.3548  0.7648  0.4139
  115MOL0     C15771   9.113   8.778   2.337  0.1210  0.5138  0.2734
  115MOL0     C15772   8.976   8.735   2.390  0.9423 -0.0541  0.5103
  115MOL0     C15773   8.933   8.796   2.529 -0.6533  0.8261 -0.2699
  115MOL0     C15774   9.004   8.722   2.638  0.1053  0.6666 -0.0621
  115MOL0     C15775   8.942   8.730   2.770 -0.5824 -0.5365  0.3238
  115MOL0     C15776   8.958   8.858   2.844 -0.3239 -0.3026  0.2096
  115MOL0    Cl15777   9.125   8.895   2.855 -0.1495 -0.5565  0.2362
  115MOL0     C15778   9.036   9.324   2.054 -0.0064 -0.2725  0.2248
  115MOL0     C15779   8.968   9.396   1.950 -0.5396  0.2455 -0.0006
  115MOL0     O15780   8.761   9.320   1.639 -0.1981  0.3137 -0.2549
  115MOL0     C15781   8.532   9.565   1.703  0.5329  0.6047  0.4494
  115MOL0     C15782   8.417   9.623   1.637 -0.7052 -0.1237  0.5836
  115MOL0     N15783   8.154   9.869   1.604  0.1711  0.1896 -0.3235
  115MOL0     N15784   8.164   9.992   1.569 -0.1980 -0.5739 -0.1289
  115MOL0     C15785   7.150  10.149   1.606  0.0320 -1.0303  0.2922
  115MOL0     C15786   7.042  10.054   1.588 -0.6991  0.2823  0.4721
  115MOL0     C15787   6.576   9.978   1.495 -0.1254  0.4114  0.6789
  115MOL0     C15788   6.448  10.024   1.528 -0.2188 -0.5249 -0.9397
  115MOL0     C15789   6.329   9.954   1.484 -0.7863 -0.7757  0.0241
  115MOL0     C15790   6.342   9.845   1.403  0.2882 -0.9333  0.0765
  115MOL0     O15791   6.237   9.773   1.352 -0.0272 -0.0201  0.0940
  115MOL0     C15792   6.109   9.793   1.416  0.0204  0.0788  0.1432
  115MOL0     C15793   6.013   9.680   1.364  0.6265 -0.0434 -0.4670
  115MOL0     C15794   5.879   9.689   1.435 -0.2398  0.0473  0.0348
  115MOL0     C15795   5.774   9.768   1.354  0.4916 -0.7911 -0.6788
  115MOL0     C15796   5.659   9.797   1.445 -0.7355 -0.3352  0.0629
  115MOL0     C15797   5.564   9.820   1.506 -0.1780 -0.8550 -0.9552
  115MOL0     C15798   6.462   9.812   1.353 -0.5809  0.1256 -0.6338
  115MOL0     C15799   6.581   9.873   1.396 -0.1890 -0.5259 -0.4496
  115MOL0     C15800   6.714   9.828   1.335  0.3621  0.5951  0.0298
  115MOL0     H15801   6.837  10.249   1.394 -1.4107 -1.3728  2.0238
  115MOL0     H15802   7.017  10.414   1.436  0.1507 -0.0274 -1.0593
  115MOL0     H15803   7.319  10.304   1.746  2.8405 -2.3146 -1.2793
  115MOL0     H15804   7.373  10.456   1.693  0.5964 -0.6507  0.2190
  115MOL0     H15805   7.486  10.215   1.655  2.2233 -0.6495 -1.3987
  115MOL0     H15806   7.411  10.230   1.495 -1.1540 -2.0070  0.8287
  115MOL0     H15807   7.638  10.325   1.469 -0.3092 -0.6986  0.2422
  115MOL0     H15808   7.519  10.461   1.480 -2.2220 -0.4402  0.9162
  115MOL0     H15809   7.586  10.514   1.697  0.5613 -0.3875  0.7848
  115MOL0     H15810   7.662  10.358   1.728 -0.0677  2.3702  2.7883
  115MOL0     H15811   7.820  10.550   1.703 -0.3226  1.3201 -0.0550
  115MOL0     H15812   7.754  10.584   1.544 -1.8410 -0.4013 -0.2334
  115MOL0     H15813   7.854  10.394   1.444 -0.8625  1.9521  0.0722
  115MOL0     H15814   7.991  10.461   1.549  0.0996  0.1190 -2.0949
  115MOL0     H15815   7.811  10.219   1.603  0.1283  0.8962  2.2927
  115MOL0     H15816   7.948  10.278   1.698  2.8694 -1.0521  0.0712
  115MOL0     H15817   7.961  10.168   1.411  0.7191  0.4259 -1.6499
  115MOL0     H15818   8.093  10.240   1.497  0.8074 -2.3406 -0.8685
  115MOL0     H15819   7.836   9.978   1.618  1.1320  0.3509  2.6895
  115MOL0     H15820   7.925   9.739   1.782  0.1874  2.9574 -0.4244
  115MOL0     H15821   8.067   9.670   1.729  1.4608  2.6659 -0.0307
  115MOL0     H15822   7.894   9.532   1.659 -0.9769  2.1277  4.0388
  115MOL0     H15823   7.810   9.671   1.576 -1.3143 -0.6688  2.3348
  115MOL0     H15824   7.898   9.519   1.419 -1.3703  1.2535 -1.7021
  115MOL0     H15825   7.976   9.673   1.397 -0.6701  1.3252  0.8949
  115MOL0     H15826   8.098   9.436   1.533  0.5892  0.6520  1.1765
  115MOL0     H15827   8.143   9.490   1.371 -0.2060  0.2665 -0.2158
  115MOL0     H15828   8.267   9.339   1.549 -1.9301  1.4974 -0.3058
  115MOL0     H15829   8.532   9.158   1.721 -2.9735  0.6050  2.4182
  115MOL0     H15830   8.572   9.169   1.549 -0.1453 -0.2679 -0.0653
  115MOL0     H15831   8.405   9.142   1.590  1.5181 -0.2411 -2.4512
  115MOL0     H15832   8.721   9.172   1.870  0.1143 -2.7084  0.5308
  115MOL0     H15833   8.843   9.044   2.047  0.6190  0.8406  4.7057
  115MOL0     H15834   8.933   8.975   2.250  0.4341  2.8972  2.3200
  115MOL0     H15835   9.057   8.933   2.116  0.1813  1.2651 -0.7348
  115MOL0     H15836   9.231   8.936   2.285  0.5268 -1.6797  0.5783
  115MOL0     H15837   9.112   8.996   2.408 -0.8603  1.5959 -0.3380
  115MOL0     H15838   9.197   8.740   2.396 -0.9095 -1.0267  0.8239
  115MOL0     H15839   9.118   8.723   2.242 -2.3055  0.0388  0.3492
  115MOL0     H15840   8.970   8.626   2.395  0.8814 -0.0326  0.9184
  115MOL0     H15841   8.891   8.767   2.329 -0.0600 -1.7117  0.9534
  115MOL0     H15842   8.967   8.900   2.537 -2.4480  1.3341  1.3864
  115MOL0     H15843   8.829   8.796   2.560  0.1238  0.9957  2.6521
  115MOL0     H15844   9.113   8.731   2.633  0.3333 -1.7128 -0.6901
  115MOL0     H15845   8.977   8.620   2.608 -1.0434  1.3149 -1.3646
  115MOL0     H15846   8.992   8.664   2.841 -0.2190  1.8506  2.4167
  115MOL0     H15847   8.836   8.705   2.763 -0.6281  0.0360 -2.0557
  115MOL0     H15848   8.928   8.845   2.948  1.5697 -0.8930  0.7222
  115MOL0     H15849   8.906   8.938   2.790  0.6892 -0.3232 -0.8666
  115MOL0     H15850   9.119   9.356   2.117  1.0335 -4.1531  1.1386
  115MOL0     H15851   8.999   9.495   1.918  0.7030 -0.8178 -2.2893
  115MOL0     H15852   8.613   9.628   1.739 -0.6598  1.7042  1.2650
  115MOL0     H15853   8.395   9.729   1.628 -2.1577 -0.5093 -0.6947
  115MOL0     H15854   7.233  10.110   1.664 -0.4373 -0.4997  1.3505
  115MOL0     H15855   7.061   9.956   1.630  2.2721  1.2524  1.6701
  115MOL0     H15856   6.438  10.113   1.590 -0.2954 -0.1616 -1.4673
  115MOL0     H15857   6.236   9.997   1.518  0.8560  1.3338  2.1842
  115MOL0     H15858   6.119   9.785   1.524  1.8797  0.5501  0.0299
  115MOL0     H15859   6.071   9.893   1.394  0.5330  0.6923  1.8827
  115MOL0     H15860   6.052   9.579   1.374 -3.1620 -1.9409 -2.6017
  115MOL0     H15861   6.004   9.697   1.256  0.0650 -0.3984 -0.4824
  115MOL0     H15862   5.841   9.586   1.438  1.9247 -0.8444 -0.9546
  115MOL0     H15863   5.893   9.725   1.537 -1.8449  2.2081 -0.4549
  115MOL0     H15864   5.749   9.720   1.259  1.1494  2.7362 -2.8144
  115MOL0     H15865   5.828   9.863   1.342  0.1409 -0.2531  1.6213
  115MOL0     H15866   5.475   9.851   1.557  0.8286 -2.2730  1.8793
  115MOL0     H15867   6.454   9.732   1.279 -1.4868 -1.0985  0.7375
  115MOL0     H15868   6.764   9.902   1.272 -0.6691  0.9443 -0.3999
  115MOL0     H15869   6.784   9.802   1.415  1.8421  0.5454 -1.2211
  115MOL0     H15870   6.697   9.737   1.277 -2.4938  0.2033  1.3363
  116MOL0     O15871   4.558   9.011   3.776 -0.6705  0.3483 -0.6328
  116MOL0     C15872   4.507   9.063   3.677 -0.0490  0.4481 -0.6278
  116MOL0     O15873   4.572   9.082   3.555 -0.3736 -0.5507 -0.3317
  116MOL0     C15874   4.706   9.046   3.554  0.4683  0.4571 -0.1580
  116MOL0     C15875   4.796   9.118   3.640 -0.3857 -0.3953 -1.1904
  116MOL0     C15876   4.934   9.079   3.632 -0.4325  0.4372  0.7077
  116MOL0     C15877   4.982   8.968   3.556 -0.2159 -0.7405 -0.2745
  116MOL0     O15878   5.111   8.931   3.563  0.2125  0.0037 -0.4561
  116MOL0     C15879   5.170   8.963   3.435  0.4940  0.0112 -0.8642
  116MOL0     C15880   5.320   8.991   3.461  0.4379 -0.2826  0.3005
  116MOL0     C15881   5.398   9.008   3.327  0.9901 -0.0874 -0.3780
  116MOL0     C15882   5.547   9.021   3.353  0.2974 -1.0958  0.1294
  116MOL0     C15883   5.602   9.098   3.234 -1.1510  0.6112  0.2822
  116MOL0     C15884   5.761   9.114   3.230  0.1403  0.6030  0.5734
  116MOL0     C15885   5.834   8.981   3.211 -0.4387  0.8844 -0.5310
  116MOL0     C15886   5.984   8.994   3.217  0.2178  0.1814  0.9865
  116MOL0     N15887   6.028   9.106   3.131 -0.3729  0.3475  0.1337
  116MOL0     C15888   6.062   9.234   3.174  0.3325 -0.2128  0.2791
  116MOL0     C15889   6.148   9.286   3.079 -0.6256 -0.5674  0.4429
  116MOL0     C15890   6.215   9.419   3.080 -0.7043 -0.7144 -0.6859
  116MOL0     C15891   6.359   9.403   3.123 -0.6972 -0.3660  0.5403
  116MOL0     C15892   6.419   9.541   3.156  0.4476  0.6110 -0.1061
  116MOL0     C15893   6.572   9.536   3.158  0.2474 -0.4423 -0.1950
  116MOL0     O15894   6.614   9.669   3.171 -1.0125  0.3093 -0.2788
  116MOL0     C15895   6.744   9.708   3.162 -0.3262  0.5722 -1.1042
  116MOL0     C15896   6.848   9.620   3.156 -0.2206  0.1385  0.5378
  116MOL0     C15897   6.985   9.654   3.134  0.9571 -0.2335  0.8372
  116MOL0     C15898   7.089   9.552   3.104  0.5884 -0.5324 -0.8387
  116MOL0     C15899   7.011   9.799   3.122  0.2396  0.1159 -0.3584
  116MOL0     C15900   7.147   9.857   3.103 -0.3422 -0.2740  0.1357
  116MOL0     O15901   7.152   9.962   3.014  0.5947 -0.2751 -0.2049
  116MOL0     C15902   7.277  10.030   3.004  0.2835 -0.3896 -0.7390
  116MOL0     C15903   7.297  10.142   3.080 -1.3376 -0.5357 -0.2846
  116MOL0     C15904   7.423  10.207   3.078  0.2701 -0.0507  0.1340
  116MOL0     C15905   7.529  10.148   3.010  0.0161  0.4269  0.4928
  116MOL0     O15906   7.646  10.226   3.005  0.6767 -0.2058  0.3716
  116MOL0     C15907   7.763  10.163   2.950  0.4598 -0.1660 -0.4836
  116MOL0     C15908   7.873  10.232   3.023 -0.0131 -0.2843  0.4507
  116MOL0     C15909   8.014  10.199   2.971 -0.7571  0.6263 -0.4570
  116MOL0     C15910   8.044  10.257   2.837  0.6632  0.1922  0.7821
  116MOL0     C15911   8.190  10.262   2.810  1.0611  0.6520 -1.1674
  116MOL0     C15912   8.245  10.329   2.679 -0.8350  0.9522  0.8721
  116MOL0     C15913   8.158  10.287   2.561 -0.1593 -0.8611  0.9604
  116MOL0     C15914   8.222  10.329   2.430  0.1035  0.6188 -0.2047
  116MOL0    Cl15915   8.370  10.247   2.377  0.0255 -0.6913 -0.5173
  116MOL0     C15916   7.511  10.027   2.934  0.0216 -0.1886 -0.3064
  116MOL0     C15917   7.385   9.970   2.934 -0.0851 -0.4540  0.1582
  116MOL0     O15918   7.236   9.828   3.180  0.0260  0.6472  0.6313
  116MOL0     C15919   6.901   9.888   3.139 -0.5359 -1.0478  0.6199
  116MOL0     C15920   6.775   9.840   3.152 -0.0546  0.1192 -0.6002
  116MOL0     N15921   6.167   9.189   2.984 -0.0124 -0.2432 -0.2809
  116MOL0     N15922   6.098   9.089   3.018  0.0757  0.4493  0.1559
  116MOL0     C15923   4.891   8.887   3.480  0.3712  0.5867 -0.6817
  116MOL0     C15924   4.754   8.924   3.483  0.2183 -0.4830 -0.7883
  116MOL0     C15925   4.366   9.113   3.697  0.4272 -0.2491  1.0530
  116MOL0     C15926   4.329   9.208   3.598 -0.5548 -0.7464  0.4195
  116MOL0     C15927   4.206   9.277   3.610  0.1210  0.2500  0.9411
  116MOL0     C15928   4.116   9.255   3.721 -0.4762 -0.6117  0.1705
  116MOL0     O15929   4.008   9.339   3.724  0.6095  0.1313 -0.3461
  116MOL0     C15930   3.911   9.322   3.832  0.1186 -0.1088  0.2710
  116MOL0     C15931   3.800   9.419   3.834 -0.5689  0.3856 -0.1781
  116MOL0     C15932   3.702   9.415   3.715 -0.2709 -0.2679  0.6392
  116MOL0     C15933   3.619   9.543   3.724 -0.0349 -0.7554 -0.2860
  116MOL0     C15934   3.496   9.519   3.641  0.2673 -0.2796 -0.0332
  116MOL0     C15935   3.390   9.499   3.586  0.1575  0.6340 -0.2767
  116MOL0     C15936   4.149   9.153   3.813 -0.8179 -0.2249  0.5717
  116MOL0     C15937   4.278   9.094   3.809 -0.2659 -0.1868 -0.8005
  116MOL0     C15938   4.303   8.981   3.916  0.5615 -1.0126  0.6201
  116MOL0     H15939   4.757   9.206   3.692 -1.6943 -1.3748 -0.4380
  116MOL0     H15940   5.000   9.140   3.692 -1.8120  3.2508 -0.4416
  116MOL0     H15941   5.113   9.051   3.402 -1.0682 -1.3453 -1.9141
  116MOL0     H15942   5.156   8.884   3.362  0.6834 -0.5000 -0.3549
  116MOL0     H15943   5.335   9.087   3.512 -0.3887 -0.3736  0.7345
  116MOL0     H15944   5.363   8.920   3.533 -1.9390  0.2568  2.4190
  116MOL0     H15945   5.386   8.918   3.267  1.9274  0.4422 -1.3849
  116MOL0     H15946   5.357   9.091   3.269 -1.4542 -0.7169  0.3044
  116MOL0     H15947   5.575   9.073   3.445  0.3942  0.4605 -0.7351
  116MOL0     H15948   5.590   8.921   3.363  1.3318 -0.4363  3.7626
  116MOL0     H15949   5.558   9.198   3.235 -1.2811  0.5771 -0.9649
  116MOL0     H15950   5.571   9.052   3.140 -1.2277  0.8324  0.1984
  116MOL0     H15951   5.788   9.194   3.161  1.3230  0.2872  0.6537
  116MOL0     H15952   5.793   9.158   3.325  3.8032  0.7214 -0.5472
  116MOL0     H15953   5.810   8.952   3.109  1.0274 -0.0015 -0.6551
  116MOL0     H15954   5.802   8.903   3.281  2.7321  1.5709  1.9351
  116MOL0     H15955   6.012   9.001   3.323  2.4365  3.4166  0.3058
  116MOL0     H15956   6.024   8.901   3.176  1.9718  1.4764 -0.3673
  116MOL0     H15957   6.040   9.285   3.268 -1.7738  0.0875 -0.3333
  116MOL0     H15958   6.186   9.488   3.159  2.0243 -1.0468  0.7237
  116MOL0     H15959   6.213   9.468   2.982 -0.9034  0.2411 -0.2157
  116MOL0     H15960   6.366   9.327   3.202 -1.9510 -0.2246  0.8165
  116MOL0     H15961   6.407   9.356   3.037 -1.6066 -2.5044  1.1274
  116MOL0     H15962   6.394   9.614   3.078 -1.7570  1.0328  0.9168
  116MOL0     H15963   6.391   9.569   3.258  1.1128 -0.1543  0.3002
  116MOL0     H15964   6.597   9.486   3.252  0.0926  1.9007  1.1790
  116MOL0     H15965   6.607   9.483   3.069 -3.6649 -2.4161 -0.7569
  116MOL0     H15966   6.837   9.512   3.149  1.7604 -0.1261  0.8243
  116MOL0     H15967   7.172   9.604   3.055 -0.3254  0.9660 -0.8470
  116MOL0     H15968   7.041   9.479   3.038 -2.5807  0.5945  0.0518
  116MOL0     H15969   7.134   9.507   3.193 -1.3598 -0.5053  0.2160
  116MOL0     H15970   7.214  10.189   3.132 -0.9755  3.8767 -3.1393
  116MOL0     H15971   7.441  10.296   3.137 -1.6264  0.7050 -0.3578
  116MOL0     H15972   7.775  10.057   2.972  0.3789 -1.0207 -3.9175
  116MOL0     H15973   7.766  10.178   2.842 -2.3089  1.8872 -0.3635
  116MOL0     H15974   7.857  10.337   2.998 -0.7149 -0.7879 -1.2929
  116MOL0     H15975   7.875  10.219   3.132  0.3809 -1.7408  0.2960
  116MOL0     H15976   8.024  10.091   2.966  0.0492  0.6914 -0.4805
  116MOL0     H15977   8.092  10.232   3.040  2.3293 -0.8664 -2.9389
  116MOL0     H15978   8.029  10.365   2.841  1.1172  0.2319  1.8018
  116MOL0     H15979   7.984  10.200   2.765  0.6488 -0.7324  1.5097
  116MOL0     H15980   8.231  10.321   2.892 -2.9363  0.6115  1.1478
  116MOL0     H15981   8.216  10.157   2.823 -4.8510 -0.8962  1.3069
  116MOL0     H15982   8.348  10.295   2.661 -2.0119 -1.2309 -3.3799
  116MOL0     H15983   8.248  10.434   2.706  1.1006  1.1161  0.1908
  116MOL0     H15984   8.063  10.342   2.557  1.0954  1.3597 -0.1523
  116MOL0     H15985   8.140  10.179   2.568 -0.8295 -0.9588 -1.2815
  116MOL0     H15986   8.241  10.436   2.440  2.5906  0.2168 -0.0032
  116MOL0     H15987   8.147  10.318   2.351  2.2771 -2.7178 -2.0167
  116MOL0     H15988   7.591   9.989   2.871 -2.0826 -1.7444 -2.2179
  116MOL0     H15989   7.363   9.881   2.876  1.7816  0.2303 -1.7194
  116MOL0     H15990   6.918   9.994   3.126  1.9536 -1.6378 -1.8962
  116MOL0     H15991   6.688   9.906   3.150 -0.9071 -0.9655 -3.3657
  116MOL0     H15992   4.912   8.798   3.422 -1.1021 -0.2998  0.0917
  116MOL0     H15993   4.682   8.876   3.418  0.3316 -1.0535 -0.4936
  116MOL0     H15994   4.388   9.233   3.510 -0.5095  1.4771  1.0353
  116MOL0     H15995   4.181   9.343   3.527  0.0211 -0.3719  0.4696
  116MOL0     H15996   3.864   9.224   3.822 -0.5245  0.2345 -0.2670
  116MOL0     H15997   3.961   9.327   3.928  2.1111 -3.6861 -0.4071
  116MOL0     H15998   3.852   9.515   3.828 -2.2816  1.3607  0.0062
  116MOL0     H15999   3.753   9.418   3.933  0.7379 -0.3858  0.4587
  116MOL0     H16000   3.763   9.420   3.624  2.7519  0.1404  2.5541
  116MOL0     H16001   3.637   9.327   3.723 -0.6575 -0.0145  0.3179
  116MOL0     H16002   3.664   9.626   3.669 -3.2649  1.3804  0.0554
  116MOL0     H16003   3.596   9.582   3.823 -1.1601  0.0813 -0.8632
  116MOL0     H16004   3.299   9.458   3.548  0.2669  0.8492 -0.7880
  116MOL0     H16005   4.079   9.130   3.892 -0.5273  0.8498  1.1648
  116MOL0     H16006   4.211   8.973   3.975 -0.1287  3.0348  0.3941
  116MOL0     H16007   4.325   8.888   3.862 -1.1585 -1.9190  1.3752
  116MOL0     H16008   4.376   9.009   3.992  2.4036  1.8687 -1.9734
  117MOL0     O16009   3.161   2.153   7.437 -0.6594 -0.0709  0.4983
  117MOL0     C16010   3.141   2.175   7.321 -0.0553 -0.8269 -0.0344
  117MOL0     O16011   3.231   2.209   7.230 -0.2732 -0.3307  1.0762
  117MOL0     C16012   3.369   2.223   7.248  1.1012  0.5940 -0.3856
  117MOL0     C16013   3.447   2.124   7.318  0.1526 -0.2676 -0.0782
  117MOL0     C16014   3.586   2.138   7.338 -0.2543 -0.5596 -0.5238
  117MOL0     C16015   3.654   2.248   7.276  0.1707  0.3059  0.5463
  117MOL0     O16016   3.790   2.260   7.267  0.0998 -0.4529 -0.6639
  117MOL0     C16017   3.838   2.264   7.402 -0.5939 -0.2291  0.1886
  117MOL0     C16018   3.954   2.348   7.427 -0.5988 -0.2529  0.4002
  117MOL0     C16019   4.073   2.305   7.345  0.0938 -0.4450 -0.8479
  117MOL0     C16020   4.202   2.375   7.395  0.6721  0.1596 -0.1885
  117MOL0     C16021   4.329   2.331   7.313 -0.4950 -0.5481  1.4066
  117MOL0     C16022   4.462   2.368   7.374 -0.0037 -0.8982 -1.0214
  117MOL0     C16023   4.575   2.324   7.268  0.3191  0.1123  0.4345
  117MOL0     C16024   4.706   2.359   7.320  0.2778  0.0623  0.1482
  117MOL0     N16025   4.794   2.378   7.203 -0.0332  0.1398  0.4984
  117MOL0     C16026   4.864   2.277   7.139 -0.1293  0.0076  0.4849
  117MOL0     C16027   4.978   2.337   7.092  0.5287  0.4413  1.0364
  117MOL0     C16028   5.070   2.253   7.013 -0.0957 -1.0129  0.1463
  117MOL0     C16029   5.216   2.244   7.057 -0.4577 -0.3541  0.5150
  117MOL0     C16030   5.283   2.381   7.049 -0.6530 -0.2894  0.5405
  117MOL0     C16031   5.420   2.384   7.112 -0.7791  0.0179  0.1518
  117MOL0     O16032   5.487   2.498   7.063  0.0817 -0.3397 -0.3732
  117MOL0     C16033   5.628   2.508   7.065 -0.5075 -0.3450  0.9052
  117MOL0     C16034   5.667   2.621   6.988  0.0088  0.6840 -0.6783
  117MOL0     C16035   5.802   2.656   6.991 -0.2304  0.0410  0.7468
  117MOL0     C16036   5.841   2.784   6.912 -0.0991 -0.7084 -0.5304
  117MOL0     C16037   5.896   2.584   7.064 -0.2646 -0.3919 -0.3363
  117MOL0     C16038   6.044   2.604   7.065 -0.4536  0.5652  0.1243
  117MOL0     O16039   6.112   2.577   7.182 -0.1796  1.0341 -0.9599
  117MOL0     C16040   6.246   2.602   7.173  0.0029 -0.0061 -0.2045
  117MOL0     C16041   6.333   2.498   7.146  0.1960 -0.0249 -0.1531
  117MOL0     C16042   6.471   2.520   7.145  1.4786  0.7219  0.6419
  117MOL0     C16043   6.518   2.651   7.166  0.2578 -0.4179 -0.2193
  117MOL0     O16044   6.647   2.687   7.170  0.3500 -0.4057  0.1659
  117MOL0     C16045   6.734   2.581   7.126 -0.5417  0.1986  0.3795
  117MOL0     C16046   6.867   2.628   7.139 -0.2115  0.1371  0.2776
  117MOL0     C16047   6.975   2.551   7.062  0.4555  0.3390  0.0159
  117MOL0     C16048   7.119   2.564   7.112 -0.1718 -0.1884 -0.3642
  117MOL0     C16049   7.205   2.453   7.052 -0.4528 -0.5248  0.3282
  117MOL0     C16050   7.354   2.481   7.075  0.2957  0.2665 -0.2378
  117MOL0     C16051   7.426   2.374   6.994 -1.0365  0.1388  0.1874
  117MOL0     C16052   7.569   2.368   7.046 -0.6913 -0.3272 -0.1214
  117MOL0    Cl16053   7.650   2.227   6.984 -0.9340  0.1461 -0.6480
  117MOL0     C16054   6.430   2.756   7.193 -0.1786  0.9433  1.1544
  117MOL0     C16055   6.289   2.736   7.191  0.4580 -0.6418  0.4408
  117MOL0     O16056   6.097   2.646   6.961 -0.6081  0.4247  0.1782
  117MOL0     C16057   5.851   2.475   7.143 -0.0860 -0.4485  0.1694
  117MOL0     C16058   5.720   2.432   7.142  0.4896 -0.1682  0.4929
  117MOL0     N16059   4.965   2.474   7.106 -0.5466 -0.2647  0.0586
  117MOL0     N16060   4.869   2.491   7.186 -0.0816 -0.4571  0.3039
  117MOL0     C16061   3.578   2.344   7.205  0.6230  0.6193  0.1797
  117MOL0     C16062   3.437   2.325   7.188  0.0546 -0.6941 -0.2199
  117MOL0     C16063   3.004   2.146   7.265  0.6159  0.1668 -0.0850
  117MOL0     C16064   2.984   2.151   7.129  0.9684  0.1723  0.1460
  117MOL0     C16065   2.858   2.121   7.061  0.7024 -0.6707 -1.2347
  117MOL0     C16066   2.745   2.102   7.146  0.2663  0.6826 -0.5515
  117MOL0     O16067   2.618   2.069   7.113  0.0902  0.4684  0.8169
  117MOL0     C16068   2.610   2.012   6.979  0.3775 -0.5248  0.5240
  117MOL0     C16069   2.464   1.966   6.962 -0.0724  0.1317  0.0821
  117MOL0     C16070   2.380   2.076   6.907  0.1487  0.1549 -0.1503
  117MOL0     C16071   2.387   2.206   6.983  0.0391 -0.0275  0.0555
  117MOL0     C16072   2.300   2.306   6.923  1.0084 -0.4274 -1.2010
  117MOL0     C16073   2.225   2.384   6.878  0.6307  0.8503 -0.1977
  117MOL0     C16074   2.763   2.081   7.286  0.8426 -0.6571 -0.3196
  117MOL0     C16075   2.890   2.112   7.352  0.2645 -0.4058 -0.2345
  117MOL0     C16076   2.883   2.114   7.501 -0.0677  0.0667 -0.2859
  117MOL0     H16077   3.404   2.034   7.361  0.8719  0.2177  1.7568
  117MOL0     H16078   3.646   2.068   7.394 -1.5490 -1.3941 -0.1268
  117MOL0     H16079   3.871   2.165   7.433 -1.0280  0.3198  2.5635
  117MOL0     H16080   3.765   2.296   7.476 -2.4402 -2.5547 -0.5115
  117MOL0     H16081   3.923   2.451   7.407  2.5080  0.8149  0.6069
  117MOL0     H16082   3.981   2.344   7.533  0.5830 -1.5627  0.0709
  117MOL0     H16083   4.081   2.196   7.351  0.7185 -0.3388  0.9450
  117MOL0     H16084   4.061   2.309   7.236  3.6873 -0.7177 -1.3635
  117MOL0     H16085   4.197   2.485   7.396  1.2108  0.1892 -0.1151
  117MOL0     H16086   4.217   2.340   7.497 -1.0092 -1.0248 -0.3153
  117MOL0     H16087   4.332   2.372   7.211  1.2486 -1.7631  0.9285
  117MOL0     H16088   4.330   2.222   7.303  0.0042 -0.6344  2.2940
  117MOL0     H16089   4.471   2.475   7.396  0.3320 -0.3391 -3.5519
  117MOL0     H16090   4.463   2.309   7.466 -2.8545  0.1300 -0.2172
  117MOL0     H16091   4.560   2.392   7.185 -0.4030  1.8418  1.9158
  117MOL0     H16092   4.560   2.218   7.243 -0.6871 -0.1183  1.8869
  117MOL0     H16093   4.701   2.453   7.376  3.4432  0.0415  0.6365
  117MOL0     H16094   4.744   2.279   7.384 -0.3075  0.3261  0.8418
  117MOL0     H16095   4.834   2.173   7.133 -1.2964  0.3201  0.8051
  117MOL0     H16096   5.078   2.289   6.910 -2.5736 -0.6763  0.0019
  117MOL0     H16097   5.039   2.148   7.015 -0.8121 -0.7917  0.7508
  117MOL0     H16098   5.225   2.201   7.157 -2.3129 -0.6208  0.5848
  117MOL0     H16099   5.250   2.171   6.983 -0.8124  1.6042 -1.7200
  117MOL0     H16100   5.283   2.413   6.944  0.9333 -3.3634 -0.5203
  117MOL0     H16101   5.221   2.458   7.097  0.1848  1.2270 -0.6840
  117MOL0     H16102   5.413   2.383   7.221  0.7018 -2.1918  0.2968
  117MOL0     H16103   5.488   2.306   7.076 -2.5968 -0.9274 -1.4479
  117MOL0     H16104   5.591   2.685   6.945 -1.0434  0.3896  0.6568
  117MOL0     H16105   5.911   2.834   6.979 -0.4695  1.5689 -1.7426
  117MOL0     H16106   5.762   2.855   6.887  0.5503 -0.2623 -1.3798
  117MOL0     H16107   5.885   2.755   6.816  1.8452  1.3799 -0.3749
  117MOL0     H16108   6.297   2.396   7.148  0.1186 -0.0045 -0.5891
  117MOL0     H16109   6.541   2.440   7.121  0.5593  0.8284 -2.9707
  117MOL0     H16110   6.737   2.485   7.180  1.4405 -0.2771 -0.4679
  117MOL0     H16111   6.724   2.554   7.021 -0.0027  0.6475  0.2111
  117MOL0     H16112   6.873   2.725   7.088  0.6393  0.3004  0.6707
  117MOL0     H16113   6.896   2.638   7.244  1.3468 -0.0122 -0.1177
  117MOL0     H16114   6.973   2.566   6.953 -2.2567 -1.6603 -0.3123
  117MOL0     H16115   6.950   2.445   7.078  3.3389 -0.5302 -0.5174
  117MOL0     H16116   7.135   2.554   7.220  5.0659  0.5515 -0.8089
  117MOL0     H16117   7.171   2.657   7.087  0.7121  0.2216  2.5115
  117MOL0     H16118   7.170   2.354   7.080  0.7464 -0.7824  0.9524
  117MOL0     H16119   7.190   2.470   6.945  0.0997 -0.4328  0.2604
  117MOL0     H16120   7.369   2.482   7.183  1.1696  0.2381 -0.3551
  117MOL0     H16121   7.365   2.584   7.040  1.6478  0.9169  1.9270
  117MOL0     H16122   7.431   2.400   6.888 -4.5460  2.1065  0.3660
  117MOL0     H16123   7.385   2.275   7.015 -0.8234  0.1670  0.7690
  117MOL0     H16124   7.581   2.362   7.155  0.4249 -0.2721 -0.2253
  117MOL0     H16125   7.610   2.463   7.011 -0.6949 -0.7609 -1.3462
  117MOL0     H16126   6.467   2.857   7.187  1.4654  0.3132  0.2026
  117MOL0     H16127   6.233   2.829   7.197  2.0578  0.6558 -2.4022
  117MOL0     H16128   5.923   2.415   7.199  2.5633  0.0485 -2.4253
  117MOL0     H16129   5.691   2.337   7.186 -1.9001  1.4998  2.8201
  117MOL0     H16130   3.613   2.431   7.150 -1.4747  4.0125  3.7399
  117MOL0     H16131   3.384   2.403   7.133 -0.6690 -0.4006  0.8601
  117MOL0     H16132   3.066   2.195   7.072  1.1568 -0.9656 -0.4830
  117MOL0     H16133   2.864   2.120   6.953 -0.9173  0.0320 -1.3721
  117MOL0     H16134   2.637   2.087   6.905 -1.6767 -0.8849 -0.6812
  117MOL0     H16135   2.678   1.927   6.972  2.5293  1.2279 -1.5230
  117MOL0     H16136   2.426   1.929   7.058  0.5288 -0.4709  0.0944
  117MOL0     H16137   2.461   1.885   6.889 -1.6370  1.2562 -1.1675
  117MOL0     H16138   2.418   2.093   6.806  0.5528  0.6494  0.0802
  117MOL0     H16139   2.278   2.037   6.917  0.3448  0.1934  3.1617
  117MOL0     H16140   2.486   2.252   6.985  0.6738 -1.3746  2.2810
  117MOL0     H16141   2.352   2.195   7.086 -1.5239  1.9063 -0.1954
  117MOL0     H16142   2.150   2.453   6.845 -1.9172 -1.0661  1.1907
  117MOL0     H16143   2.677   2.042   7.339  2.2976 -1.0231  1.9029
  117MOL0     H16144   2.883   2.216   7.541 -0.4863  0.2661 -0.8004
  117MOL0     H16145   2.793   2.058   7.528 -0.3104  1.6168  2.6184
  117MOL0     H16146   2.962   2.059   7.554 -1.6447 -3.0940 -1.0202
  118MOL0     O16147   0.904   2.948   0.862  0.1315  0.3539  0.1259
  118MOL0     C16148   0.893   3.055   0.804  0.0011  0.2938  0.3145
  118MOL0     O16149   0.991   3.127   0.737  0.8070 -0.1061 -0.3103
  118MOL0     C16150   1.116   3.068   0.720  0.7748 -0.4384  0.4294
  118MOL0     C16151   1.170   3.030   0.590 -0.0364  0.5067 -0.2205
  118MOL0     C16152   1.299   2.972   0.590 -0.6899 -0.1635 -0.1636
  118MOL0     C16153   1.373   2.949   0.704 -0.9096 -0.1073 -0.7059
  118MOL0     O16154   1.486   2.867   0.712  0.6082  0.2440  0.2289
  118MOL0     C16155   1.504   2.788   0.600 -1.0401 -0.1540  0.6501
  118MOL0     C16156   1.616   2.695   0.623 -0.7969 -1.5184  0.1681
  118MOL0     C16157   1.694   2.686   0.491 -0.4614  0.6325  0.5755
  118MOL0     C16158   1.812   2.589   0.506 -0.4572  0.7968 -0.1279
  118MOL0     C16159   1.918   2.593   0.392  0.7287  0.6771  0.7589
  118MOL0     C16160   1.855   2.542   0.257  0.0365  1.0459  0.3122
  118MOL0     C16161   1.967   2.491   0.173 -0.6788 -1.2257  0.2595
  118MOL0     C16162   2.067   2.589   0.106  0.3812  0.2274  0.7118
  118MOL0     N16163   2.152   2.662   0.197 -0.6958  0.6114 -0.3849
  118MOL0     C16164   2.237   2.593   0.278 -0.5329 -0.5704  0.0209
  118MOL0     C16165   2.319   2.688   0.328 -0.7162 -1.9721 -0.9030
  118MOL0     C16166   2.439   2.678   0.423 -0.2965  0.3629 -0.1422
  118MOL0     C16167   2.567   2.724   0.363 -0.0990 -0.0808 -0.0808
  118MOL0     C16168   2.683   2.652   0.434  0.3604 -0.0130 -0.1313
  118MOL0     C16169   2.820   2.689   0.381  0.6638 -0.8941 -0.2970
  118MOL0     O16170   2.920   2.617   0.453  0.1609  0.4265  0.3385
  118MOL0     C16171   3.050   2.660   0.432  1.3655 -0.2123  0.4925
  118MOL0     C16172   3.143   2.582   0.497 -0.7110  0.4793 -0.7795
  118MOL0     C16173   3.281   2.619   0.488  0.3413 -0.8517  0.4610
  118MOL0     C16174   3.372   2.523   0.556  0.3754 -0.8918  0.4852
  118MOL0     C16175   3.322   2.731   0.414  0.2647  0.1130  0.3142
  118MOL0     C16176   3.459   2.785   0.406  0.5075  0.4591  0.4999
  118MOL0     O16177   3.493   2.855   0.301 -0.4534  0.2551  0.0670
  118MOL0     C16178   3.621   2.905   0.297  0.3466 -0.2308  0.2391
  118MOL0     C16179   3.739   2.830   0.294  0.5659 -0.0394  0.0436
  118MOL0     C16180   3.866   2.897   0.291  0.2633  0.3443  0.2739
  118MOL0     C16181   3.876   3.037   0.277 -0.2019  0.2284  0.4714
  118MOL0     O16182   4.003   3.101   0.272  1.3433  0.2670  0.2479
  118MOL0     C16183   4.012   3.223   0.197  0.4372 -0.3369 -0.2792
  118MOL0     C16184   4.153   3.262   0.179  0.1579  0.4460  0.7014
  118MOL0     C16185   4.229   3.158   0.090 -0.3640  0.5639  0.0670
  118MOL0     C16186   4.375   3.192   0.091  0.5907  0.3937  0.5984
  118MOL0     C16187   4.449   3.096  -0.012 -0.0442 -0.5670 -0.5204
  118MOL0     C16188   4.597   3.113  -0.006 -0.3239 -0.5034  0.5922
  118MOL0     C16189   4.681   3.008  -0.090  0.6118 -0.3104 -0.1447
  118MOL0     C16190   4.794   3.074  -0.164 -0.8249  0.7025 -0.3047
  118MOL0    Cl16191   4.909   2.939  -0.206 -0.1513  0.3746  0.0422
  118MOL0     C16192   3.752   3.108   0.269 -0.7394 -0.7057 -0.1757
  118MOL0     C16193   3.632   3.046   0.280  0.7323  0.0510 -0.3720
  118MOL0     O16194   3.532   2.773   0.511 -0.0619  0.1749  0.6391
  118MOL0     C16195   3.226   2.803   0.341  0.1143 -0.3749 -0.5227
  118MOL0     C16196   3.099   2.764   0.350  0.0015 -0.5200  0.0572
  118MOL0     N16197   2.265   2.814   0.282  0.0770  0.5215 -0.3691
  118MOL0     N16198   2.158   2.793   0.212 -1.2181  0.3792  0.3582
  118MOL0     C16199   1.332   2.990   0.826  0.1088 -0.4777  0.0657
  118MOL0     C16200   1.202   3.057   0.830  0.3311 -0.3481  0.6476
  118MOL0     C16201   0.763   3.134   0.818 -0.9917  0.2917  0.6302
  118MOL0     C16202   0.743   3.255   0.746 -0.1954 -0.5542  0.0726
  118MOL0     C16203   0.631   3.332   0.761  0.7165  0.1784 -0.3633
  118MOL0     C16204   0.526   3.286   0.841 -0.0536  0.0913  0.7298
  118MOL0     O16205   0.396   3.338   0.846 -0.3201 -0.5832  0.6060
  118MOL0     C16206   0.371   3.465   0.788  0.0967  0.2637  0.3673
  118MOL0     C16207   0.245   3.510   0.845 -0.3824 -0.9065  0.5769
  118MOL0     C16208   0.131   3.463   0.752  0.0163  0.2532  0.3728
  118MOL0     C16209  -0.004   3.537   0.793  0.0400  0.0835  0.3898
  118MOL0     C16210  -0.123   3.506   0.713  0.0879 -0.1525  0.5284
  118MOL0     C16211  -0.208   3.488   0.618 -0.2717  0.1143 -1.2218
  118MOL0     C16212   0.543   3.167   0.907  0.2915  0.3752 -1.2057
  118MOL0     C16213   0.659   3.085   0.898  0.1300  0.4474 -0.0428
  118MOL0     C16214   0.662   2.963   0.990 -0.4044  0.4839  0.2448
  118MOL0     H16215   1.114   3.053   0.500  0.7560  1.5347 -0.4720
  118MOL0     H16216   1.326   2.935   0.492 -0.3928 -1.3314  0.3425
  118MOL0     H16217   1.516   2.853   0.514 -1.8540  0.7127  1.1703
  118MOL0     H16218   1.414   2.731   0.576 -1.0600 -0.4542  1.4094
  118MOL0     H16219   1.687   2.737   0.696 -0.5047 -2.3823  0.4061
  118MOL0     H16220   1.587   2.597   0.664 -4.0293 -0.7550 -0.0720
  118MOL0     H16221   1.622   2.647   0.418 -0.6582  0.2982  0.9437
  118MOL0     H16222   1.736   2.784   0.466 -0.0255  0.2610 -0.2126
  118MOL0     H16223   1.863   2.620   0.598 -2.3514  1.2965  0.8281
  118MOL0     H16224   1.783   2.484   0.517  0.3731  0.6629  0.9290
  118MOL0     H16225   2.007   2.535   0.419  1.2840  0.4071 -1.4867
  118MOL0     H16226   1.952   2.696   0.381 -0.1243  0.9448  0.5873
  118MOL0     H16227   1.784   2.463   0.282 -1.0213  0.3390 -4.1338
  118MOL0     H16228   1.790   2.612   0.203 -1.2480 -0.5348 -0.2681
  118MOL0     H16229   1.920   2.431   0.096  1.3049 -2.0514 -0.3827
  118MOL0     H16230   2.032   2.429   0.235  1.6686 -0.6908 -1.5270
  118MOL0     H16231   2.122   2.524   0.039 -0.2586 -0.2620  0.6506
  118MOL0     H16232   2.014   2.664   0.046 -0.6714  0.3334  1.7176
  118MOL0     H16233   2.240   2.486   0.300 -2.4441 -0.6652 -0.0543
  118MOL0     H16234   2.453   2.572   0.448  0.0279  0.8047  1.6556
  118MOL0     H16235   2.416   2.727   0.518  2.3573  1.2724  0.1216
  118MOL0     H16236   2.571   2.711   0.255  0.1124 -1.1533  0.0347
  118MOL0     H16237   2.570   2.833   0.369 -1.7783 -0.0330  0.1763
  118MOL0     H16238   2.673   2.672   0.541  0.5315 -2.1370  0.3285
  118MOL0     H16239   2.677   2.543   0.427  0.9699 -0.0077 -0.8248
  118MOL0     H16240   2.819   2.656   0.276 -0.0261  1.3409 -1.0533
  118MOL0     H16241   2.830   2.797   0.395 -0.5768 -1.1181  3.2657
  118MOL0     H16242   3.111   2.488   0.542  1.3984 -0.4730 -1.1519
  118MOL0     H16243   3.462   2.520   0.494 -0.5399 -1.5894 -0.8296
  118MOL0     H16244   3.326   2.424   0.548 -2.5448  0.5060 -1.7610
  118MOL0     H16245   3.393   2.543   0.662 -0.3248  0.2255  0.4330
  118MOL0     H16246   3.730   2.724   0.315 -0.7726  0.2851  1.3200
  118MOL0     H16247   3.966   2.856   0.291  0.3751  0.5795  1.4358
  118MOL0     H16248   3.971   3.212   0.096  0.4058 -0.8149 -0.2165
  118MOL0     H16249   3.956   3.307   0.239  0.5572  1.1130 -2.7572
  118MOL0     H16250   4.152   3.363   0.137 -1.5979 -0.0221 -0.4764
  118MOL0     H16251   4.196   3.270   0.279  0.0360  0.4843  0.7507
  118MOL0     H16252   4.184   3.151  -0.010 -1.0515  0.4530  0.3803
  118MOL0     H16253   4.221   3.056   0.129  0.1896 -0.5895 -2.5664
  118MOL0     H16254   4.417   3.181   0.191 -0.8576  0.4445  1.2309
  118MOL0     H16255   4.389   3.298   0.066 -0.6979  1.2358  3.1691
  118MOL0     H16256   4.427   2.990   0.008  2.8329 -0.9357  1.2986
  118MOL0     H16257   4.417   3.112  -0.116 -0.2568 -0.0530 -0.3793
  118MOL0     H16258   4.631   3.098   0.097 -1.6444  0.0770  1.1438
  118MOL0     H16259   4.629   3.215  -0.031  0.3236 -0.8086  0.1664
  118MOL0     H16260   4.608   2.954  -0.151  0.5493  0.7202 -1.0094
  118MOL0     H16261   4.725   2.930  -0.028  1.1787 -0.3208 -0.5589
  118MOL0     H16262   4.846   3.143  -0.098  1.6621 -0.4903 -0.8678
  118MOL0     H16263   4.745   3.139  -0.237 -0.9064  2.1504  0.9975
  118MOL0     H16264   3.757   3.215   0.254 -0.2217 -0.9325 -1.8768
  118MOL0     H16265   3.538   3.099   0.274  0.3392 -0.7907 -2.2065
  118MOL0     H16266   3.254   2.894   0.289  2.6153  0.3360  1.8403
  118MOL0     H16267   3.023   2.827   0.306 -0.2597 -1.1008 -0.3254
  118MOL0     H16268   1.390   2.984   0.918  0.5647  2.5297  0.0569
  118MOL0     H16269   1.161   3.090   0.925 -0.8090 -0.4662  0.2075
  118MOL0     H16270   0.815   3.293   0.675  2.6649 -1.9668  1.9943
  118MOL0     H16271   0.610   3.431   0.721 -0.8307  1.4696  3.2156
  118MOL0     H16272   0.454   3.530   0.819 -1.5623  2.5388  0.2316
  118MOL0     H16273   0.370   3.464   0.679 -2.2508 -1.6232  0.3264
  118MOL0     H16274   0.246   3.617   0.821 -1.5718 -1.0722 -0.3368
  118MOL0     H16275   0.238   3.488   0.952  1.3553  1.7982  1.3231
  118MOL0     H16276   0.163   3.488   0.650  3.7315  2.6837  1.8963
  118MOL0     H16277   0.120   3.355   0.759  4.8585 -0.3770  2.1164
  118MOL0     H16278   0.026   3.642   0.788 -0.1596  0.0906 -0.9248
  118MOL0     H16279  -0.031   3.510   0.896 -0.6888 -2.7605 -0.4556
  118MOL0     H16280  -0.292   3.462   0.557 -2.3206  0.4849  1.2541
  118MOL0     H16281   0.466   3.138   0.978  3.7316  2.0023  3.7457
  118MOL0     H16282   0.752   2.979   1.049 -0.1976  0.3995 -0.0477
  118MOL0     H16283   0.580   2.973   1.062 -0.1109  1.6934  0.4303
  118MOL0     H16284   0.671   2.869   0.934 -1.4277  0.6994 -0.3118
  119MOL0     O16285  11.139   6.446   3.813  0.2665 -0.0732  0.1447
  119MOL0     C16286  11.065   6.546   3.798  0.7316  1.0313 -0.1192
  119MOL0     O16287  11.086   6.670   3.841 -0.1330  0.3481 -0.0331
  119MOL0     C16288  11.192   6.690   3.933  1.5462  0.2734  0.5916
  119MOL0     C16289  11.322   6.704   3.899 -0.1963 -0.2354 -0.1260
  119MOL0     C16290  11.427   6.724   3.978 -0.3120  0.1001  0.3406
  119MOL0     C16291  11.404   6.734   4.115 -0.7544  0.2143 -0.2365
  119MOL0     O16292  11.510   6.710   4.195 -0.3203 -0.4394 -0.1792
  119MOL0     C16293  11.490   6.667   4.331  0.5468  0.1727 -0.1339
  119MOL0     C16294  11.617   6.597   4.388  0.3167  0.6222  0.7486
  119MOL0     C16295  11.731   6.687   4.409  0.0739 -0.0108  0.5068
  119MOL0     C16296  11.856   6.627   4.465  0.0981  0.2845  0.1211
  119MOL0     C16297  11.836   6.576   4.614 -0.1318 -0.2348  0.3541
  119MOL0     C16298  11.979   6.547   4.677  0.4316 -1.0887 -0.1689
  119MOL0     C16299  11.978   6.426   4.778 -0.1574 -0.9136 -0.3542
  119MOL0     C16300  12.014   6.297   4.712 -0.2263  0.3653 -0.3115
  119MOL0     N16301  12.154   6.299   4.704 -0.5360 -0.5222  0.0542
  119MOL0     C16302  12.233   6.258   4.808 -0.1475 -0.9138 -0.4465
  119MOL0     C16303  12.354   6.268   4.751  0.4036 -0.0361 -0.1031
  119MOL0     C16304  12.473   6.224   4.830 -0.5404 -0.2492  0.2410
  119MOL0     C16305  12.586   6.319   4.805  0.3146 -0.0824 -0.6222
  119MOL0     C16306  12.680   6.281   4.682  0.2421  0.1043 -0.6091
  119MOL0     C16307  12.687   6.398   4.581  0.4197 -0.3906 -0.8809
  119MOL0     O16308  12.783   6.503   4.607 -0.3381  0.0375 -0.4888
  119MOL0     C16309  12.919   6.472   4.591 -0.0553 -0.4897  0.3643
  119MOL0     C16310  12.971   6.365   4.527 -0.9351  0.0148  0.8543
  119MOL0     C16311  13.110   6.340   4.518  0.3376  0.1435  0.1872
  119MOL0     C16312  13.164   6.210   4.458  0.0734  0.8547 -0.3010
  119MOL0     C16313  13.198   6.428   4.584 -0.4225 -0.3738  0.2581
  119MOL0     C16314  13.346   6.409   4.597  0.5218  0.1876 -0.0479
  119MOL0     O16315  13.401   6.489   4.701 -0.1860 -0.4581  0.3064
  119MOL0     C16316  13.534   6.470   4.727  0.0079  0.2410  0.1455
  119MOL0     C16317  13.566   6.378   4.833  0.1700 -0.1072  0.0575
  119MOL0     C16318  13.698   6.337   4.861 -0.2152 -0.0125 -0.7534
  119MOL0     C16319  13.798   6.403   4.786  0.3106  0.6535 -0.3886
  119MOL0     O16320  13.936   6.383   4.795 -0.5670  0.5727  0.2080
  119MOL0     C16321  13.988   6.330   4.914 -0.7308  0.3421  0.1083
  119MOL0     C16322  14.142   6.345   4.929 -0.2382 -0.5197  0.1290
  119MOL0     C16323  14.228   6.289   4.815 -0.7545 -0.5091  1.3812
  119MOL0     C16324  14.247   6.404   4.710 -0.5197  0.3983  0.0987
  119MOL0     C16325  14.359   6.376   4.611  0.1977  0.2035 -0.2624
  119MOL0     C16326  14.354   6.475   4.490 -0.7889  0.1042 -0.9593
  119MOL0     C16327  14.482   6.475   4.406  0.3108 -0.2798 -0.3220
  119MOL0     C16328  14.493   6.363   4.308  0.1966 -0.3461 -0.1480
  119MOL0    Cl16329  14.500   6.198   4.380  0.0603 -0.0971 -0.0100
  119MOL0     C16330  13.773   6.503   4.690 -0.9292  0.8552 -0.2609
  119MOL0     C16331  13.640   6.540   4.661 -0.0888  0.1876  0.2581
  119MOL0     O16332  13.412   6.322   4.537 -0.4041  0.2868  0.1831
  119MOL0     C16333  13.146   6.546   4.648  0.9214 -0.2944  0.2350
  119MOL0     C16334  13.010   6.564   4.648  0.2105  0.2100  0.1107
  119MOL0     N16335  12.348   6.321   4.619 -0.0365  0.1725 -0.2614
  119MOL0     N16336  12.223   6.335   4.591  0.0684  0.1251 -0.2254
  119MOL0     C16337  11.268   6.733   4.155 -0.2953 -0.1713 -0.9951
  119MOL0     C16338  11.165   6.713   4.066 -0.5782 -0.9499  0.2251
  119MOL0     C16339  10.938   6.510   3.731  0.6063 -0.1026  0.4857
  119MOL0     C16340  10.829   6.587   3.775  0.1854  0.7523 -0.2810
  119MOL0     C16341  10.702   6.571   3.726  0.3032  0.4835 -0.0350
  119MOL0     C16342  10.682   6.480   3.617 -1.5579  0.1878 -0.1158
  119MOL0     O16343  10.573   6.474   3.541  0.6222  0.7414  0.7008
  119MOL0     C16344  10.456   6.549   3.582  0.5179 -0.0192  0.0399
  119MOL0     C16345  10.332   6.515   3.510  1.0511 -0.8242  0.4023
  119MOL0     C16346  10.279   6.364   3.512 -0.3477 -0.9690  0.1721
  119MOL0     C16347  10.187   6.330   3.393 -1.3592  0.4411 -0.1695
  119MOL0     C16348  10.147   6.188   3.384  0.3390  0.2812 -0.3983
  119MOL0     C16349  10.099   6.075   3.370 -0.4407  0.6730 -0.2908
  119MOL0     C16350  10.787   6.409   3.566 -0.1896  0.2679  0.3946
  119MOL0     C16351  10.913   6.415   3.624 -0.4560  0.2605  0.4951
  119MOL0     C16352  11.025   6.333   3.553 -0.1255 -0.7323 -0.2264
  119MOL0     H16353  11.340   6.687   3.793 -1.7316 -2.3393 -0.1006
  119MOL0     H16354  11.531   6.714   3.949 -0.2960 -0.2540  0.5232
  119MOL0     H16355  11.410   6.595   4.346 -3.8821  4.0955 -2.2172
  119MOL0     H16356  11.452   6.746   4.396  1.1950 -1.9991  3.0827
  119MOL0     H16357  11.587   6.545   4.480 -0.4322 -0.5728 -0.1416
  119MOL0     H16358  11.654   6.524   4.316 -0.6597  1.6036 -0.7869
  119MOL0     H16359  11.763   6.732   4.314  2.1315 -1.8222  0.2462
  119MOL0     H16360  11.711   6.776   4.468 -0.3976  0.9595 -1.0711
  119MOL0     H16361  11.895   6.538   4.415 -0.6093 -1.1277  1.9408
  119MOL0     H16362  11.936   6.701   4.467  1.6022 -1.3016  1.3021
  119MOL0     H16363  11.777   6.484   4.605 -2.5464  1.1195  1.2228
  119MOL0     H16364  11.777   6.650   4.670 -2.3741 -0.2612 -1.7800
  119MOL0     H16365  12.053   6.526   4.599 -1.1089 -1.7654 -1.5198
  119MOL0     H16366  12.008   6.635   4.736  0.2304 -2.0940  1.4708
  119MOL0     H16367  11.879   6.424   4.825 -0.5975 -2.0140 -1.2680
  119MOL0     H16368  12.046   6.457   4.857 -1.8166  0.7357  0.5054
  119MOL0     H16369  11.985   6.209   4.771 -1.5881  0.3036 -1.0335
  119MOL0     H16370  11.961   6.303   4.617 -0.8999 -0.2059  0.0168
  119MOL0     H16371  12.210   6.222   4.908 -1.4784  1.6484  0.2732
  119MOL0     H16372  12.508   6.124   4.803  1.2301  1.1614 -3.2727
  119MOL0     H16373  12.452   6.222   4.937  3.1250 -1.0206  1.0801
  119MOL0     H16374  12.544   6.417   4.782  1.4056 -0.0981 -2.9977
  119MOL0     H16375  12.642   6.327   4.899 -0.5590  1.0443 -0.1828
  119MOL0     H16376  12.783   6.266   4.714  0.6103  0.9053 -1.3550
  119MOL0     H16377  12.640   6.192   4.633 -0.5805  0.6540 -0.9733
  119MOL0     H16378  12.707   6.359   4.481 -1.6077 -0.1507 -1.4296
  119MOL0     H16379  12.590   6.447   4.570  1.2152  0.8171 -3.2955
  119MOL0     H16380  12.910   6.293   4.474  0.2286 -0.4147  0.0412
  119MOL0     H16381  13.096   6.169   4.383 -3.6090  4.4229  0.7523
  119MOL0     H16382  13.189   6.138   4.536 -0.0939  0.5478 -0.5275
  119MOL0     H16383  13.254   6.239   4.403 -0.2834  1.8753 -0.3663
  119MOL0     H16384  13.475   6.355   4.888  0.0652 -0.1635 -0.1400
  119MOL0     H16385  13.716   6.268   4.943 -3.3619  0.4737  0.4778
  119MOL0     H16386  13.937   6.384   4.995 -0.9037 -1.5274  1.3126
  119MOL0     H16387  13.962   6.224   4.924  1.5220 -0.1722  1.0843
  119MOL0     H16388  14.162   6.448   4.959 -0.0332  0.2654 -2.5125
  119MOL0     H16389  14.170   6.287   5.018 -4.6006 -0.5470  1.7732
  119MOL0     H16390  14.180   6.202   4.768  0.2852 -0.8514  0.9336
  119MOL0     H16391  14.327   6.266   4.855  0.0540  2.0304  1.0182
  119MOL0     H16392  14.268   6.495   4.766 -3.3452  1.2568 -0.0614
  119MOL0     H16393  14.156   6.423   4.651  0.3739  1.2737 -1.0308
  119MOL0     H16394  14.454   6.380   4.665  1.0476 -3.2103 -1.2783
  119MOL0     H16395  14.346   6.272   4.580 -2.6448  0.7493 -1.2141
  119MOL0     H16396  14.336   6.577   4.527 -0.2736  0.0558 -0.5649
  119MOL0     H16397  14.262   6.453   4.437  0.4511 -2.3977 -2.2245
  119MOL0     H16398  14.578   6.483   4.458  1.6604  0.8913 -2.7713
  119MOL0     H16399  14.474   6.566   4.345 -3.0491 -0.6556 -0.6220
  119MOL0     H16400  14.589   6.373   4.258  0.8842 -3.3360  0.4074
  119MOL0     H16401  14.418   6.379   4.230  2.5142  1.2607 -2.1537
  119MOL0     H16402  13.856   6.557   4.644 -2.2954  0.8438 -2.8821
  119MOL0     H16403  13.597   6.616   4.596  0.9107  0.1918 -0.4110
  119MOL0     H16404  13.201   6.619   4.706  0.6922 -0.0889  0.1927
  119MOL0     H16405  12.962   6.649   4.696 -3.5810 -2.0944  0.7885
  119MOL0     H16406  11.243   6.744   4.260 -1.4022 -1.1053 -1.1354
  119MOL0     H16407  11.061   6.697   4.092 -0.1822 -2.5499  1.0079
  119MOL0     H16408  10.833   6.667   3.848 -0.0904 -0.6260  1.2788
  119MOL0     H16409  10.617   6.630   3.759 -0.1087  0.8382 -1.6257
  119MOL0     H16410  10.438   6.530   3.688 -0.0478 -0.9552 -0.2191
  119MOL0     H16411  10.468   6.658   3.573 -3.0478  0.6721  1.6486
  119MOL0     H16412  10.354   6.526   3.403 -1.4145  0.6619 -0.0249
  119MOL0     H16413  10.251   6.584   3.535 -0.3141 -0.2948 -4.4743
  119MOL0     H16414  10.366   6.298   3.513  1.3171  1.1269 -0.2021
  119MOL0     H16415  10.228   6.359   3.609 -2.4118  0.1712 -0.8009
  119MOL0     H16416  10.246   6.353   3.304  1.3012 -1.8107  0.8352
  119MOL0     H16417  10.093   6.386   3.393 -0.9530  1.1678  0.8210
  119MOL0     H16418  10.037   5.987   3.368 -2.1643  1.8395 -2.8301
  119MOL0     H16419  10.779   6.347   3.477 -2.5501  2.3053 -0.9499
  119MOL0     H16420  11.004   6.325   3.446 -0.0104  0.1119 -0.3197
  119MOL0     H16421  11.124   6.377   3.570 -0.9272  0.5021  1.5496
  119MOL0     H16422  11.014   6.231   3.592 -3.0240  0.4736  2.5136
  120MOL0     O16423  11.376   0.720   6.194 -0.3075 -0.2428 -0.0336
  120MOL0     C16424  11.316   0.706   6.297 -0.2107 -0.8720 -0.0123
  120MOL0     O16425  11.369   0.663   6.413 -0.0493  0.4436  0.3265
  120MOL0     C16426  11.499   0.651   6.435 -0.6848 -0.6651  0.8068
  120MOL0     C16427  11.577   0.568   6.349 -0.1369  0.6288 -0.1459
  120MOL0     C16428  11.713   0.538   6.381 -0.5347 -0.3799 -0.1674
  120MOL0     C16429  11.787   0.607   6.482  0.7800 -0.7326 -0.3218
  120MOL0     O16430  11.920   0.578   6.508  0.6751  0.2319  0.4759
  120MOL0     C16431  11.948   0.434   6.515  0.2558  1.0831 -0.0687
  120MOL0     C16432  12.098   0.407   6.528 -0.6901  1.0312 -0.2054
  120MOL0     C16433  12.155   0.463   6.658  0.4442 -0.5969 -0.6519
  120MOL0     C16434  12.297   0.414   6.680 -0.3851 -0.3403 -1.1935
  120MOL0     C16435  12.362   0.486   6.798  0.0201 -0.1272  0.5681
  120MOL0     C16436  12.507   0.445   6.816 -0.5271  0.4214 -0.7692
  120MOL0     C16437  12.570   0.483   6.951 -0.5180  0.2296 -0.5672
  120MOL0     C16438  12.519   0.397   7.069  0.2486  0.2023 -0.2077
  120MOL0     N16439  12.592   0.404   7.190  0.1993  0.9484 -0.5735
  120MOL0     C16440  12.598   0.507   7.271  0.7762 -0.2173 -0.3048
  120MOL0     C16441  12.671   0.461   7.374 -1.1206 -0.3344 -0.0120
  120MOL0     C16442  12.719   0.559   7.472  1.0357  0.2874 -0.2399
  120MOL0     C16443  12.832   0.647   7.423 -0.3327 -0.4512  0.2390
  120MOL0     C16444  12.968   0.576   7.452 -0.6031 -0.2447 -0.0084
  120MOL0     C16445  13.093   0.661   7.427 -0.4534 -0.2442 -0.3383
  120MOL0     O16446  13.208   0.577   7.449  0.2387 -0.2847 -0.4416
  120MOL0     C16447  13.328   0.643   7.470  0.2440  0.5225 -0.5529
  120MOL0     C16448  13.375   0.754   7.401 -0.0781  0.4444 -0.2149
  120MOL0     C16449  13.493   0.827   7.445 -0.0043 -1.1199 -0.2377
  120MOL0     C16450  13.544   0.928   7.348 -0.1778  0.6792 -0.6270
  120MOL0     C16451  13.560   0.789   7.563 -0.4183  0.0665  0.1279
  120MOL0     C16452  13.697   0.842   7.598  0.4954 -0.1833 -0.4386
  120MOL0     O16453  13.748   0.805   7.721  0.5662  0.1922  0.3442
  120MOL0     C16454  13.854   0.876   7.766  0.2876 -0.6440  0.1611
  120MOL0     C16455  13.985   0.821   7.789  0.0408  0.6164  0.1408
  120MOL0     C16456  14.095   0.893   7.848  0.0702 -0.6624 -0.4562
  120MOL0     C16457  14.078   1.028   7.887 -0.9595  0.1796 -0.1762
  120MOL0     O16458  14.172   1.112   7.934 -0.5008  0.1723  0.2056
  120MOL0     C16459  14.305   1.071   7.972 -1.0070 -0.8933 -0.1978
  120MOL0     C16460  14.323   0.996   8.107 -0.4792 -0.2163  0.9144
  120MOL0     C16461  14.469   0.965   8.130  0.0004 -0.7521  0.1907
  120MOL0     C16462  14.503   0.919   8.275 -0.0736  0.2813  0.3040
  120MOL0     C16463  14.637   0.959   8.320  0.2956  0.6814  0.4528
  120MOL0     C16464  14.687   0.854   8.432  0.2335 -0.1213  0.3135
  120MOL0     C16465  14.838   0.876   8.460 -0.2606  0.5600  0.6544
  120MOL0     C16466  14.898   0.767   8.541 -0.7117 -0.1103  0.0649
  120MOL0    Cl16467  15.036   0.824   8.635  0.0710 -0.2597 -0.2442
  120MOL0     C16468  13.949   1.079   7.875  0.4564 -0.2261 -0.1227
  120MOL0     C16469  13.841   1.008   7.820 -0.1085  1.1514 -0.3215
  120MOL0     O16470  13.757   0.921   7.527  0.5981 -0.2379  0.4520
  120MOL0     C16471  13.509   0.688   7.637  0.2182  0.3248 -1.2157
  120MOL0     C16472  13.396   0.613   7.588 -0.1745  0.1316  0.1417
  120MOL0     N16473  12.714   0.332   7.352 -0.5024 -0.0089  0.1792
  120MOL0     N16474  12.657   0.292   7.244 -0.4911 -0.0739 -0.2769
  120MOL0     C16475  11.711   0.691   6.567  0.0924 -0.2192  0.7481
  120MOL0     C16476  11.571   0.711   6.543  0.4129  1.3262 -1.3796
  120MOL0     C16477  11.164   0.702   6.294 -0.7570 -0.1643  0.6180
  120MOL0     C16478  11.088   0.772   6.384  0.3394  0.4265  0.4308
  120MOL0     C16479  10.955   0.760   6.388  0.4812  0.9064  0.0258
  120MOL0     C16480  10.892   0.678   6.295  0.5592 -1.1229  0.7334
  120MOL0     O16481  10.751   0.683   6.296 -0.3984 -0.4259  0.1997
  120MOL0     C16482  10.695   0.699   6.166 -0.2565 -1.1128 -0.1748
  120MOL0     C16483  10.554   0.742   6.167  0.2961  0.0308 -0.1896
  120MOL0     C16484  10.550   0.898   6.198  0.5120  0.3184 -0.3734
  120MOL0     C16485  10.404   0.953   6.210 -0.1907 -0.2021  0.6450
  120MOL0     C16486  10.313   0.902   6.106 -0.3409 -0.0784 -0.5202
  120MOL0     C16487  10.238   0.861   6.018 -1.1043  0.0050 -0.7690
  120MOL0     C16488  10.962   0.609   6.198  0.9189 -0.2170  0.5259
  120MOL0     C16489  11.103   0.617   6.203  0.5135  0.3803  0.1118
  120MOL0     C16490  11.160   0.515   6.115  1.0896  0.5215  0.9112
  120MOL0     H16491  11.518   0.526   6.267 -0.6787  1.0101  0.0478
  120MOL0     H16492  11.767   0.461   6.326 -0.2883  0.1195 -0.6295
  120MOL0     H16493  11.920   0.375   6.427  0.2259 -0.5588  1.0059
  120MOL0     H16494  11.904   0.394   6.606  2.7970 -0.9117  0.3749
  120MOL0     H16495  12.126   0.302   6.521  2.2695  1.7008  0.0238
  120MOL0     H16496  12.159   0.450   6.448  0.3545  1.5214  0.8269
  120MOL0     H16497  12.149   0.572   6.651 -3.2175 -0.2614  3.5712
  120MOL0     H16498  12.096   0.435   6.746 -2.3005  5.3194 -0.1599
  120MOL0     H16499  12.309   0.306   6.696  3.2530 -0.1899 -2.1336
  120MOL0     H16500  12.356   0.424   6.588  0.0930 -1.9960 -1.1106
  120MOL0     H16501  12.302   0.467   6.887  1.3496  0.1192  1.5494
  120MOL0     H16502  12.369   0.591   6.767  2.4103 -0.3093  0.3040
  120MOL0     H16503  12.503   0.336   6.806 -2.6786  0.2393  1.2417
  120MOL0     H16504  12.563   0.488   6.732 -0.0179 -0.8441 -1.0899
  120MOL0     H16505  12.555   0.590   6.971 -0.1537  0.2149 -0.2091
  120MOL0     H16506  12.678   0.463   6.948  0.2253  3.1127  1.8433
  120MOL0     H16507  12.414   0.425   7.084  0.2228  1.6443 -2.5366
  120MOL0     H16508  12.512   0.292   7.038 -0.8149 -0.7276  2.8026
  120MOL0     H16509  12.544   0.601   7.267 -1.9021 -1.5986  1.0445
  120MOL0     H16510  12.750   0.510   7.565 -0.8903 -1.0923 -0.2734
  120MOL0     H16511  12.636   0.625   7.500 -1.1936 -1.8329 -1.4926
  120MOL0     H16512  12.830   0.656   7.314  4.2608 -0.8132 -0.0481
  120MOL0     H16513  12.826   0.744   7.474  0.8084 -1.6013  2.7498
  120MOL0     H16514  12.973   0.538   7.554  3.5376 -2.6659 -0.8546
  120MOL0     H16515  12.978   0.490   7.384  2.2684  0.3798 -0.5133
  120MOL0     H16516  13.079   0.689   7.322  2.4317 -1.6668 -1.1907
  120MOL0     H16517  13.102   0.752   7.486  1.4917  0.8139 -2.1493
  120MOL0     H16518  13.328   0.774   7.306  1.8235  0.2019 -1.2681
  120MOL0     H16519  13.550   1.029   7.391 -2.4165  1.4686 -1.9716
  120MOL0     H16520  13.470   0.927   7.267  0.8887  0.0068 -1.6225
  120MOL0     H16521  13.640   0.895   7.309 -0.2713  0.6864 -0.8648
  120MOL0     H16522  14.001   0.719   7.757  1.1068  2.2144 -5.5778
  120MOL0     H16523  14.187   0.839   7.867  0.5248  1.0266  2.8024
  120MOL0     H16524  14.348   1.006   7.895 -0.2698  0.3839 -0.8854
  120MOL0     H16525  14.376   1.154   7.977 -2.3971  0.3165  4.2513
  120MOL0     H16526  14.284   1.053   8.191  0.8021 -0.0593  1.4345
  120MOL0     H16527  14.260   0.907   8.115 -0.0376 -0.4703  1.7616
  120MOL0     H16528  14.515   1.061   8.105 -0.6981 -0.8067 -1.4432
  120MOL0     H16529  14.509   0.890   8.062  0.8480  0.5532 -0.8159
  120MOL0     H16530  14.489   0.811   8.285 -1.8872  0.4183 -0.3371
  120MOL0     H16531  14.424   0.955   8.341  1.4897  1.8667  1.4108
  120MOL0     H16532  14.713   0.963   8.240 -0.3603  0.2552 -0.2048
  120MOL0     H16533  14.631   1.054   8.374 -0.2982  0.8113  0.1689
  120MOL0     H16534  14.680   0.755   8.385 -0.4615  0.8792 -1.8035
  120MOL0     H16535  14.626   0.859   8.522 -1.6831  1.5811 -1.0023
  120MOL0     H16536  14.856   0.971   8.511 -0.6401  0.6908  0.5460
  120MOL0     H16537  14.893   0.892   8.367  1.9789  4.4324  2.3945
  120MOL0     H16538  14.942   0.702   8.465 -0.8746  0.7936 -0.8287
  120MOL0     H16539  14.828   0.710   8.602 -0.4908  0.1107  0.5254
  120MOL0     H16540  13.940   1.181   7.911  0.2022 -0.4062  0.3421
  120MOL0     H16541  13.743   1.053   7.812  0.0509  1.7330  0.7969
  120MOL0     H16542  13.561   0.659   7.727 -2.7865  1.2786  0.9995
  120MOL0     H16543  13.359   0.527   7.642 -1.9007 -1.0489 -2.6848
  120MOL0     H16544  11.751   0.742   6.654 -0.5530  0.2435  0.7786
  120MOL0     H16545  11.510   0.763   6.616  2.5676 -2.9426  4.2104
  120MOL0     H16546  11.134   0.844   6.451 -0.4031  1.9377 -0.6156
  120MOL0     H16547  10.893   0.818   6.456  0.1418  1.9780 -1.1593
  120MOL0     H16548  10.752   0.767   6.102 -0.1154 -2.1833 -1.2152
  120MOL0     H16549  10.704   0.599   6.123 -0.0899 -0.4120 -1.8733
  120MOL0     H16550  10.495   0.690   6.243  0.7938  1.6951  1.4095
  120MOL0     H16551  10.517   0.729   6.065  2.7127 -0.0575 -1.1161
  120MOL0     H16552  10.610   0.926   6.285  1.6758 -2.8189 -0.0291
  120MOL0     H16553  10.604   0.947   6.116  1.5267 -0.1210  0.0216
  120MOL0     H16554  10.409   1.062   6.210  1.7181 -0.2625  0.2236
  120MOL0     H16555  10.362   0.925   6.308 -1.2553  3.2941  1.3390
  120MOL0     H16556  10.184   0.840   5.928 -0.2865  2.1132 -1.8303
  120MOL0     H16557  10.900   0.543   6.137 -0.6113 -1.1121  2.8736
  120MOL0     H16558  11.092   0.438   6.078  2.0671  0.8461 -1.8335
  120MOL0     H16559  11.211   0.567   6.033  1.8950 -1.0222  0.3884
  120MOL0     H16560  11.242   0.468   6.171  0.5492 -1.5167  0.1075
  121MOL0     O16561  10.265   1.270   2.064  0.2159  0.4974 -0.5190
  121MOL0     C16562  10.153   1.311   2.055 -0.0235 -0.3304 -0.4993
  121MOL0     O16563  10.123   1.440   2.029  0.1358  0.4582  0.1721
  121MOL0     C16564  10.222   1.527   1.992  0.3978 -0.2175  0.5416
  121MOL0     C16565  10.295   1.582   2.097  0.0168  0.2135 -0.1037
  121MOL0     C16566  10.389   1.684   2.077 -0.2796 -0.0178  0.8960
  121MOL0     C16567  10.427   1.717   1.948  0.1579 -0.1539 -0.0446
  121MOL0     O16568  10.509   1.819   1.924 -0.0829 -0.4290  0.3546
  121MOL0     C16569  10.625   1.793   1.845 -0.1553 -0.2520 -1.3774
  121MOL0     C16570  10.743   1.755   1.934 -0.3087 -0.0982  0.4523
  121MOL0     C16571  10.778   1.871   2.030  0.5473 -0.2764 -0.1828
  121MOL0     C16572  10.840   1.991   1.951 -0.3710  0.6253 -0.4821
  121MOL0     C16573  10.882   2.111   2.044 -0.1455  0.0276  0.2564
  121MOL0     C16574  10.961   2.213   1.958  0.2131  0.6915 -0.1277
  121MOL0     C16575  11.015   2.325   2.046  0.3364  0.3040  0.2755
  121MOL0     C16576  11.134   2.278   2.128 -0.4084 -0.3247 -0.3296
  121MOL0     N16577  11.203   2.391   2.202 -0.8885  0.8196  0.4295
  121MOL0     C16578  11.150   2.465   2.301  0.1623 -0.1372 -0.4289
  121MOL0     C16579  11.247   2.551   2.336  0.0199 -0.3278  0.1608
  121MOL0     C16580  11.233   2.646   2.450  0.3982 -0.4149 -0.1126
  121MOL0     C16581  11.294   2.604   2.585  0.3079  0.1806 -0.4700
  121MOL0     C16582  11.441   2.549   2.563  0.5453 -0.2609  0.0261
  121MOL0     C16583  11.519   2.543   2.695 -0.4430 -0.0525 -0.5009
  121MOL0     O16584  11.481   2.435   2.791  0.0739 -0.2151 -0.0034
  121MOL0     C16585  11.579   2.401   2.887 -0.7914  0.3455  0.5890
  121MOL0     C16586  11.668   2.301   2.861 -0.1407 -0.6046 -0.0575
  121MOL0     C16587  11.776   2.264   2.941 -0.0690 -0.0211  0.3286
  121MOL0     C16588  11.850   2.135   2.914  0.6747  0.0903  0.0358
  121MOL0     C16589  11.794   2.338   3.062 -0.2838 -0.6991 -0.7072
  121MOL0     C16590  11.909   2.325   3.160  0.2560  0.1956  1.1862
  121MOL0     O16591  12.019   2.272   3.105 -0.2252 -0.6768  0.3428
  121MOL0     C16592  12.127   2.260   3.189  0.7721  1.2155  1.0475
  121MOL0     C16593  12.218   2.359   3.193 -0.2212 -0.3444  0.1379
  121MOL0     C16594  12.343   2.342   3.259  0.8721  0.2514 -0.4334
  121MOL0     C16595  12.374   2.220   3.325  0.8014  0.2400  0.9868
  121MOL0     O16596  12.502   2.207   3.369  0.5691 -0.0648 -0.8613
  121MOL0     C16597  12.537   2.080   3.426 -0.3733  0.1452  1.1055
  121MOL0     C16598  12.683   2.090   3.450 -0.0657  0.1214 -0.8657
  121MOL0     C16599  12.737   1.969   3.534 -0.5944 -0.2613  0.1740
  121MOL0     C16600  12.868   2.023   3.596  0.1847  0.0068  0.1219
  121MOL0     C16601  12.990   1.951   3.514  0.7403 -0.2471 -0.0208
  121MOL0     C16602  13.125   2.003   3.575 -0.3329 -0.5491 -0.7248
  121MOL0     C16603  13.248   1.916   3.537  0.1579 -0.1357 -0.3808
  121MOL0     C16604  13.380   1.929   3.625  0.3550  0.5953 -1.0103
  121MOL0    Cl16605  13.333   1.876   3.793  0.2193  0.0542 -0.4338
  121MOL0     C16606  12.279   2.121   3.326  0.0799  0.9296 -0.7659
  121MOL0     C16607  12.160   2.139   3.255 -0.0304 -0.9535  0.1202
  121MOL0     O16608  11.893   2.363   3.277  0.0059 -0.2785 -0.3050
  121MOL0     C16609  11.707   2.448   3.088  0.2915  0.5147 -0.3166
  121MOL0     C16610  11.601   2.477   3.000  0.2530 -0.3821 -0.9650
  121MOL0     N16611  11.357   2.528   2.260  0.3077 -0.3621 -0.3438
  121MOL0     N16612  11.335   2.433   2.174  0.2234  0.4788 -0.5345
  121MOL0     C16613  10.365   1.637   1.836 -0.5305 -0.2192 -0.3660
  121MOL0     C16614  10.263   1.539   1.859 -0.5670  0.1020 -0.1137
  121MOL0     C16615  10.031   1.218   2.057  0.3399 -0.5836 -0.5881
  121MOL0     C16616   9.907   1.271   2.071 -1.0005 -0.1668  0.2678
  121MOL0     C16617   9.795   1.192   2.068  0.5416 -0.3999  0.5419
  121MOL0     C16618   9.800   1.055   2.038 -0.3829 -0.0888 -0.5948
  121MOL0     O16619   9.691   0.966   2.027  0.4763 -0.3424 -0.4377
  121MOL0     C16620   9.566   1.040   2.048  0.1530  1.1614 -0.3233
  121MOL0     C16621   9.446   0.939   2.043  0.3819  0.2365 -0.1229
  121MOL0     C16622   9.471   0.830   2.154  0.4073  0.2316 -0.1000
  121MOL0     C16623   9.370   0.711   2.152  0.5330 -0.8448 -0.4602
  121MOL0     C16624   9.234   0.756   2.191  0.6497  1.0197 -0.1522
  121MOL0     C16625   9.124   0.804   2.225 -0.8954 -0.1073  0.9591
  121MOL0     C16626   9.930   0.996   2.042  0.4026  0.1854 -0.0103
  121MOL0     C16627  10.046   1.075   2.045  0.0265 -0.2481 -0.3218
  121MOL0     C16628  10.184   1.011   2.052  0.6585  0.1982  0.4751
  121MOL0     H16629  10.266   1.555   2.198 -0.9739  0.6180 -0.2693
  121MOL0     H16630  10.435   1.728   2.165  2.6875 -1.6575  0.3019
  121MOL0     H16631  10.653   1.868   1.771  0.7276 -0.0018 -0.8088
  121MOL0     H16632  10.601   1.711   1.778  1.0885  0.3938 -2.6705
  121MOL0     H16633  10.729   1.663   1.991 -0.5738  0.6504  1.6316
  121MOL0     H16634  10.831   1.755   1.869  0.7806  5.4846  1.4234
  121MOL0     H16635  10.698   1.912   2.091 -0.0342 -0.1528 -1.0162
  121MOL0     H16636  10.853   1.833   2.100  1.7937  3.3533  0.6609
  121MOL0     H16637  10.923   1.947   1.895 -0.8391 -2.9900  1.3466
  121MOL0     H16638  10.758   2.019   1.884 -0.5863  2.0498  0.3325
  121MOL0     H16639  10.951   2.075   2.121 -1.7049 -2.7331  0.4499
  121MOL0     H16640  10.797   2.161   2.091  0.7223 -0.3382  2.3229
  121MOL0     H16641  11.037   2.164   1.897 -1.8411  0.0964 -2.3478
  121MOL0     H16642  10.893   2.246   1.879 -0.6006 -3.7841 -1.5597
  121MOL0     H16643  10.938   2.351   2.119 -1.5595 -3.1049 -0.2875
  121MOL0     H16644  11.055   2.409   1.989  0.6928 -0.7504 -1.0690
  121MOL0     H16645  11.112   2.199   2.200  0.8826 -1.2272 -0.8896
  121MOL0     H16646  11.208   2.240   2.058 -0.0473  1.1467 -0.7787
  121MOL0     H16647  11.046   2.470   2.333  0.1111  3.6756 -0.6481
  121MOL0     H16648  11.125   2.659   2.465  0.5124  3.7005 -1.4809
  121MOL0     H16649  11.271   2.743   2.415  1.4447 -0.5835  0.5305
  121MOL0     H16650  11.294   2.687   2.657 -0.3092 -0.1177 -0.1107
  121MOL0     H16651  11.233   2.533   2.642 -1.5526  1.0207 -1.3091
  121MOL0     H16652  11.435   2.457   2.505 -0.9881  0.8997 -1.7698
  121MOL0     H16653  11.493   2.620   2.497 -0.2558 -1.9909 -2.6054
  121MOL0     H16654  11.625   2.525   2.678  0.3092  1.9683  1.6141
  121MOL0     H16655  11.511   2.639   2.747  1.4541  0.6402 -1.4066
  121MOL0     H16656  11.632   2.242   2.777  1.1342 -0.9425 -0.3977
  121MOL0     H16657  11.816   2.092   2.819 -0.2215  0.2474  0.2716
  121MOL0     H16658  11.836   2.065   2.997 -2.4204  2.8700  2.1155
  121MOL0     H16659  11.958   2.148   2.903  0.7306 -0.5241 -0.1812
  121MOL0     H16660  12.198   2.457   3.149  0.9817  0.6653  1.7271
  121MOL0     H16661  12.417   2.421   3.271  3.8941 -2.5159  0.8754
  121MOL0     H16662  12.478   2.059   3.516 -2.7941  1.8067  0.0084
  121MOL0     H16663  12.522   1.999   3.354  1.0850 -0.8919  1.9181
  121MOL0     H16664  12.727   2.109   3.352  0.9404  1.3802 -0.2073
  121MOL0     H16665  12.699   2.184   3.504  0.5290 -0.7449  0.5367
  121MOL0     H16666  12.752   1.880   3.471  4.5204 -0.3559  1.0477
  121MOL0     H16667  12.664   1.949   3.613  1.8287 -2.1393  2.1056
  121MOL0     H16668  12.882   1.995   3.701  1.1289  1.9674  0.5580
  121MOL0     H16669  12.882   2.130   3.578  0.2709 -0.2931 -1.8549
  121MOL0     H16670  12.978   1.843   3.526 -2.2570 -0.1171 -1.0367
  121MOL0     H16671  12.983   1.995   3.414 -2.6594  2.6646  1.2671
  121MOL0     H16672  13.120   2.008   3.684  0.8537 -0.0754 -0.6734
  121MOL0     H16673  13.133   2.108   3.546 -0.9507 -0.3623 -0.2450
  121MOL0     H16674  13.284   1.956   3.442 -1.0985  2.9721  0.3508
  121MOL0     H16675  13.218   1.811   3.531 -0.4783  0.0091  0.1595
  121MOL0     H16676  13.413   2.033   3.623  1.8850  0.2357  1.4567
  121MOL0     H16677  13.465   1.865   3.599  2.2922  2.0443  1.2716
  121MOL0     H16678  12.302   2.021   3.360  0.4019  1.2119 -0.1332
  121MOL0     H16679  12.085   2.060   3.246  0.2876 -1.4804  1.7281
  121MOL0     H16680  11.706   2.514   3.174 -0.5490 -0.2840  0.3081
  121MOL0     H16681  11.536   2.560   3.026  0.3276 -0.4114 -0.6848
  121MOL0     H16682  10.397   1.644   1.733 -0.6271 -1.2562 -0.4768
  121MOL0     H16683  10.225   1.468   1.787  2.7191 -0.8248 -1.1082
  121MOL0     H16684   9.883   1.377   2.078  0.2074  0.3246 -2.2064
  121MOL0     H16685   9.699   1.236   2.093 -1.6656 -5.5538  2.6085
  121MOL0     H16686   9.576   1.092   2.144  1.2414  0.8864 -0.2795
  121MOL0     H16687   9.544   1.108   1.965 -0.4986  1.1553 -0.1622
  121MOL0     H16688   9.433   0.904   1.940  2.7439  1.5561 -0.9551
  121MOL0     H16689   9.357   0.989   2.082  0.0580 -1.5757  1.6177
  121MOL0     H16690   9.569   0.784   2.149  0.4805  0.4623 -1.4673
  121MOL0     H16691   9.470   0.890   2.245  0.8994  4.0503 -2.3734
  121MOL0     H16692   9.407   0.645   2.231  0.5275 -1.6809 -1.1452
  121MOL0     H16693   9.373   0.662   2.054  1.5823 -1.5809 -0.0803
  121MOL0     H16694   9.029   0.847   2.252 -0.9328 -0.0291  0.7083
  121MOL0     H16695   9.944   0.889   2.035  1.5571 -0.0937  4.0369
  121MOL0     H16696  10.236   1.027   1.957  0.0187  0.9433  0.2400
  121MOL0     H16697  10.231   1.050   2.142 -1.7088 -2.0101  2.8718
  121MOL0     H16698  10.168   0.904   2.068  2.5237  0.2951  4.0889
  122MOL0     O16699   4.447  11.284   0.162  0.4035 -1.0325  0.7896
  122MOL0     C16700   4.365  11.273   0.068 -0.2541 -0.3014 -0.2633
  122MOL0     O16701   4.372  11.324  -0.062 -0.3592 -0.4670  0.4592
  122MOL0     C16702   4.464  11.427  -0.085 -0.5408 -0.4741  0.0271
  122MOL0     C16703   4.419  11.559  -0.089  0.0587 -0.4996 -0.6441
  122MOL0     C16704   4.505  11.670  -0.096 -0.0652 -0.2923 -0.9312
  122MOL0     C16705   4.645  11.635  -0.072 -0.2759  0.7109  1.0403
  122MOL0     O16706   4.725  11.737  -0.030  0.0129 -0.2678  0.4088
  122MOL0     C16707   4.864  11.716  -0.023 -0.3575 -1.5543 -0.0304
  122MOL0     C16708   4.918  11.843   0.039 -0.5745  0.1124  1.1607
  122MOL0     C16709   4.869  11.874   0.188 -0.2511  0.1217  0.4073
  122MOL0     C16710   4.811  11.761   0.271 -0.4960  0.2484  0.4652
  122MOL0     C16711   4.764  11.799   0.411  0.1472  0.7706  0.2148
  122MOL0     C16712   4.736  11.664   0.489  0.2847  0.3078 -0.9845
  122MOL0     C16713   4.637  11.564   0.426  0.9099  0.5035  0.3152
  122MOL0     C16714   4.562  11.491   0.534 -0.2720  0.3639 -0.2092
  122MOL0     N16715   4.629  11.376   0.601 -0.4682 -0.2030  0.1696
  122MOL0     C16716   4.609  11.246   0.578  0.4578 -0.2781 -0.7024
  122MOL0     C16717   4.686  11.169   0.671 -0.3299 -0.2442  0.3223
  122MOL0     C16718   4.691  11.018   0.670 -0.0013 -0.8407  0.2683
  122MOL0     C16719   4.562  10.970   0.723  0.3880  0.9971  0.3303
  122MOL0     C16720   4.560  10.816   0.753  0.2906 -0.4955 -0.1596
  122MOL0     C16721   4.425  10.768   0.810 -0.1689  0.2161 -0.0038
  122MOL0     O16722   4.406  10.836   0.932  0.1562  0.3545  0.4467
  122MOL0     C16723   4.303  10.806   1.026  0.3142 -0.9712  0.6201
  122MOL0     C16724   4.209  10.701   1.018  0.0623  0.0127  0.2758
  122MOL0     C16725   4.105  10.665   1.111  0.1834 -0.7952  0.6955
  122MOL0     C16726   4.023  10.543   1.070 -0.3736 -0.7475 -0.4477
  122MOL0     C16727   4.103  10.749   1.222  0.5478  0.5773 -0.6228
  122MOL0     C16728   4.016  10.728   1.337  1.2179 -0.5415 -0.3745
  122MOL0     O16729   3.992  10.841   1.428 -0.7186  0.9765 -0.5275
  122MOL0     C16730   3.887  10.827   1.515  0.7588  0.6686 -0.2988
  122MOL0     C16731   3.756  10.784   1.473 -0.3465  0.6596  0.2439
  122MOL0     C16732   3.641  10.777   1.555  0.0754 -0.6632  0.9495
  122MOL0     C16733   3.654  10.822   1.685  0.4679 -0.4151  0.3531
  122MOL0     O16734   3.544  10.846   1.774  0.2698 -0.7263  0.2119
  122MOL0     C16735   3.417  10.800   1.718 -0.5465 -0.1698 -0.4820
  122MOL0     C16736   3.304  10.850   1.806  0.0821  0.0514 -0.2116
  122MOL0     C16737   3.168  10.791   1.767 -0.9753  0.2350  0.7544
  122MOL0     C16738   3.050  10.846   1.841  0.7387 -0.6892 -0.0475
  122MOL0     C16739   2.917  10.801   1.769 -0.2064 -0.5981 -0.7462
  122MOL0     C16740   2.873  10.659   1.781  0.3610  0.6215 -0.1463
  122MOL0     C16741   2.842  10.601   1.922 -0.6721  0.5218  0.2636
  122MOL0     C16742   2.838  10.454   1.912 -0.1199  0.3454  0.0634
  122MOL0    Cl16743   2.998  10.387   1.888 -0.2763  0.0294 -0.0598
  122MOL0     C16744   3.783  10.867   1.730  0.2577  0.7813 -0.1569
  122MOL0     C16745   3.887  10.878   1.642  0.9588 -0.0827  0.1872
  122MOL0     O16746   3.950  10.626   1.342  0.7332 -0.5113  0.2001
  122MOL0     C16747   4.193  10.863   1.230  0.6192 -0.2233 -0.5513
  122MOL0     C16748   4.288  10.889   1.134  0.5047  0.4192  0.4524
  122MOL0     N16749   4.762  11.264   0.737 -0.1011 -0.6998  0.0765
  122MOL0     N16750   4.735  11.384   0.692 -0.4963 -0.0710 -0.4373
  122MOL0     C16751   4.691  11.508  -0.100  0.3939  0.2874  0.7424
  122MOL0     C16752   4.598  11.405  -0.099 -0.0603 -0.0552  0.7164
  122MOL0     C16753   4.241  11.208   0.097  0.3052  0.6496 -0.0952
  122MOL0     C16754   4.197  11.101   0.012 -0.1320 -0.4437 -0.5157
  122MOL0     C16755   4.086  11.032   0.033  0.2390  0.6341 -0.4352
  122MOL0     C16756   4.006  11.068   0.145 -0.2970 -0.5214 -0.5113
  122MOL0     O16757   3.902  10.990   0.192  0.6016  0.6514 -0.0046
  122MOL0     C16758   3.894  10.846   0.159  0.1987  0.2198 -0.7097
  122MOL0     C16759   3.764  10.782   0.230 -0.2067 -0.8664 -0.1847
  122MOL0     C16760   3.633  10.834   0.174  0.2053 -0.0780  0.2338
  122MOL0     C16761   3.510  10.770   0.249 -0.4012  0.6796  0.0906
  122MOL0     C16762   3.389  10.773   0.169  0.7075  0.9026  0.0091
  122MOL0     C16763   3.283  10.758   0.109 -0.0472 -0.7749  2.2517
  122MOL0     C16764   4.037  11.179   0.216 -0.5790 -0.7878  0.5971
  122MOL0     C16765   4.158  11.239   0.202  0.6338  0.2100 -0.2579
  122MOL0     C16766   4.202  11.331   0.313  0.5591 -0.4617  0.1423
  122MOL0     H16767   4.312  11.576  -0.091  0.5923  3.8846 -0.9152
  122MOL0     H16768   4.470  11.772  -0.088 -0.5309 -0.4825 -0.5297
  122MOL0     H16769   4.921  11.698  -0.114 -0.6688 -2.0870 -0.1240
  122MOL0     H16770   4.882  11.629   0.041  2.0482 -0.3742  1.0307
  122MOL0     H16771   5.027  11.844   0.026 -0.7285 -0.7688 -0.5524
  122MOL0     H16772   4.887  11.929  -0.021  0.8669 -1.0962 -1.4797
  122MOL0     H16773   4.956  11.908   0.245  1.2082  0.9154 -2.1325
  122MOL0     H16774   4.796  11.956   0.180  1.2161  1.4289 -0.1934
  122MOL0     H16775   4.725  11.720   0.219  0.1728 -0.4320 -0.1297
  122MOL0     H16776   4.888  11.683   0.280 -2.8954 -2.3219  0.2045
  122MOL0     H16777   4.683  11.869   0.389  1.2958  2.5532  1.3608
  122MOL0     H16778   4.840  11.859   0.462  2.5740 -1.4401 -0.5335
  122MOL0     H16779   4.827  11.606   0.508  0.8573  1.9325  1.7243
  122MOL0     H16780   4.702  11.698   0.587 -1.0038  1.0439 -1.6524
  122MOL0     H16781   4.692  11.500   0.356  0.7661 -0.7004  1.2823
  122MOL0     H16782   4.562  11.622   0.370 -0.9762 -0.5736  1.6079
  122MOL0     H16783   4.531  11.558   0.614  1.8491  0.8433  0.2880
  122MOL0     H16784   4.470  11.450   0.491 -0.7901 -0.2951  1.4734
  122MOL0     H16785   4.541  11.208   0.502 -0.8561 -0.7426  0.6441
  122MOL0     H16786   4.768  10.985   0.740 -1.0393 -0.5316  1.5870
  122MOL0     H16787   4.722  10.983   0.571 -1.7305 -1.1797 -0.1872
  122MOL0     H16788   4.547  11.018   0.820 -1.4416  1.1688 -0.0028
  122MOL0     H16789   4.482  10.999   0.655  0.4638 -0.9907 -0.7030
  122MOL0     H16790   4.575  10.759   0.660 -0.3085  0.4834 -0.8643
  122MOL0     H16791   4.641  10.778   0.816  0.2331  0.6155  0.6015
  122MOL0     H16792   4.343  10.795   0.743 -0.6066  0.2963  0.5563
  122MOL0     H16793   4.426  10.660   0.826  0.7091  0.3537  1.0033
  122MOL0     H16794   4.224  10.638   0.931 -0.6654 -1.5996  1.2794
  122MOL0     H16795   4.026  10.530   0.962  0.5158  0.4555 -0.5918
  122MOL0     H16796   3.917  10.551   1.095  0.2957  0.6774  2.4747
  122MOL0     H16797   4.071  10.461   1.124  2.5916  0.5953 -0.8522
  122MOL0     H16798   3.754  10.748   1.370  0.3543  0.2711  0.3577
  122MOL0     H16799   3.544  10.742   1.520 -1.4411  3.1238  0.8573
  122MOL0     H16800   3.383  10.828   1.618 -1.6027 -1.9172 -0.6625
  122MOL0     H16801   3.426  10.692   1.736 -0.5878 -0.0663  0.1736
  122MOL0     H16802   3.326  10.826   1.910 -1.6123  1.5397  0.5484
  122MOL0     H16803   3.300  10.959   1.806  0.9312  0.0890  0.3021
  122MOL0     H16804   3.166  10.685   1.795  3.8524  0.4260  2.7032
  122MOL0     H16805   3.146  10.799   1.660 -0.1799 -1.9110  0.3673
  122MOL0     H16806   3.061  10.955   1.842  0.3900 -0.6235  2.2063
  122MOL0     H16807   3.063  10.802   1.940  2.1824 -0.2076  0.0030
  122MOL0     H16808   2.838  10.864   1.809  0.0186 -2.1986  2.5170
  122MOL0     H16809   2.925  10.827   1.663 -0.6136  0.2572 -0.5738
  122MOL0     H16810   2.946  10.592   1.733  3.4214  2.9989  0.8392
  122MOL0     H16811   2.784  10.655   1.718 -1.3753  0.3158  2.1863
  122MOL0     H16812   2.745  10.624   1.966 -0.1392 -1.5920  2.7751
  122MOL0     H16813   2.923  10.631   1.989  0.1907  2.8680 -1.6637
  122MOL0     H16814   2.776  10.422   1.828 -1.0654 -1.3650  1.3457
  122MOL0     H16815   2.805  10.409   2.006  0.5214 -0.1004  0.0870
  122MOL0     H16816   3.795  10.902   1.832  0.3047 -3.0667  1.2823
  122MOL0     H16817   3.968  10.941   1.679  0.4081  1.0036 -0.4390
  122MOL0     H16818   4.187  10.936   1.310  1.1945 -1.9840  1.1769
  122MOL0     H16819   4.358  10.972   1.135 -0.3976  1.2241 -0.5159
  122MOL0     H16820   4.797  11.491  -0.115  0.2493  0.7041 -0.9375
  122MOL0     H16821   4.628  11.301  -0.107 -0.0942 -0.0366  0.2980
  122MOL0     H16822   4.255  11.084  -0.078  0.3117  3.7628 -1.2374
  122MOL0     H16823   4.064  10.939  -0.017  1.3038 -2.4426  4.1536
  122MOL0     H16824   3.883  10.832   0.051  2.0025 -2.5545 -0.6450
  122MOL0     H16825   3.985  10.790   0.184 -0.7474 -0.5422  1.2194
  122MOL0     H16826   3.769  10.807   0.337 -1.3594  1.5306 -0.6249
  122MOL0     H16827   3.752  10.673   0.223 -0.2360 -0.8311 -0.6987
  122MOL0     H16828   3.624  10.942   0.190  0.8651  0.0146 -0.0034
  122MOL0     H16829   3.622  10.812   0.067  0.8704  0.3660  0.0711
  122MOL0     H16830   3.502  10.833   0.338 -1.5705 -0.4875  0.8334
  122MOL0     H16831   3.529  10.670   0.288  0.8178  0.4937 -0.9178
  122MOL0     H16832   3.187  10.737   0.065  0.8500  0.0750 -0.2767
  122MOL0     H16833   3.968  11.207   0.296 -2.2549  1.0321 -1.3644
  122MOL0     H16834   4.114  11.352   0.375  0.7219 -0.6452  0.4391
  122MOL0     H16835   4.277  11.269   0.363  0.2493 -3.0077 -2.3011
  122MOL0     H16836   4.244  11.426   0.280  1.3124 -0.5118  0.9318
  123MOL0     O16837   3.074   8.631   5.057  0.0650  0.3191 -0.0216
  123MOL0     C16838   3.083   8.510   5.044 -0.2214  0.1439 -0.6552
  123MOL0     O16839   3.198   8.445   5.020 -0.3121  0.1567  0.0474
  123MOL0     C16840   3.310   8.502   4.974 -0.5277  0.4039 -0.6424
  123MOL0     C16841   3.315   8.608   4.882  0.4321 -0.6126 -0.3409
  123MOL0     C16842   3.434   8.660   4.828  0.1604 -0.9263 -0.6636
  123MOL0     C16843   3.555   8.599   4.855  0.2641  0.2321  0.9820
  123MOL0     O16844   3.671   8.648   4.807  1.1667  0.2146 -0.2071
  123MOL0     C16845   3.680   8.782   4.769 -0.3378 -0.6078  0.0281
  123MOL0     C16846   3.833   8.795   4.735  0.5674 -0.5516  0.1261
  123MOL0     C16847   3.878   8.944   4.728  0.6151 -0.3607 -0.2882
  123MOL0     C16848   4.030   8.939   4.699  0.2999  0.0052  0.4367
  123MOL0     C16849   4.082   9.075   4.651  0.0777  0.4428 -0.9209
  123MOL0     C16850   4.237   9.069   4.677 -0.5023 -0.5833 -0.3349
  123MOL0     C16851   4.286   9.212   4.692  0.3076  0.2911 -0.0595
  123MOL0     C16852   4.435   9.236   4.684  0.8326 -0.7699 -0.5127
  123MOL0     N16853   4.502   9.178   4.566  0.8785  0.0094  0.1586
  123MOL0     C16854   4.487   9.219   4.432  0.5453  0.4561 -0.1196
  123MOL0     C16855   4.561   9.133   4.358 -0.4645 -0.1459  0.2058
  123MOL0     C16856   4.572   9.134   4.205  0.5291  0.1616 -0.1706
  123MOL0     C16857   4.718   9.148   4.179  0.3520  0.0939  0.3599
  123MOL0     C16858   4.735   9.154   4.022  0.2025 -0.1186  0.3163
  123MOL0     C16859   4.873   9.214   3.993 -0.0736 -0.4950 -0.1160
  123MOL0     O16860   4.867   9.357   4.015  0.4514 -0.1402 -0.8347
  123MOL0     C16861   4.992   9.414   4.043  0.1139  0.4237  0.0237
  123MOL0     C16862   4.999   9.545   4.075  0.4296  0.0258 -0.1949
  123MOL0     C16863   5.118   9.614   4.087 -0.3818 -0.9531 -0.5375
  123MOL0     C16864   5.103   9.754   4.145  0.6064  0.5286  0.0244
  123MOL0     C16865   5.242   9.562   4.049 -0.6400  0.0015  0.0872
  123MOL0     C16866   5.368   9.637   4.049 -0.5981 -0.0274  0.4190
  123MOL0     O16867   5.475   9.557   4.028  0.0273 -0.0675 -0.0964
  123MOL0     C16868   5.605   9.590   4.049  0.1057  0.2345  0.2636
  123MOL0     C16869   5.668   9.717   4.025  0.3163  0.2211 -0.2526
  123MOL0     C16870   5.811   9.720   4.036 -0.4257  0.2373 -0.6273
  123MOL0     C16871   5.888   9.604   4.068  0.5842  0.5928 -0.2602
  123MOL0     O16872   6.024   9.607   4.065  0.1758  0.0003  0.0067
  123MOL0     C16873   6.089   9.498   3.996 -0.1556 -0.0053 -0.2806
  123MOL0     C16874   6.210   9.555   3.927 -0.2850 -0.7038  0.6147
  123MOL0     C16875   6.286   9.456   3.845  0.3714  0.4980  0.4493
  123MOL0     C16876   6.419   9.520   3.812 -0.0613  0.5253 -0.8986
  123MOL0     C16877   6.526   9.451   3.723 -0.2421  0.2549  0.1204
  123MOL0     C16878   6.606   9.566   3.655 -0.1005 -0.5761 -0.5006
  123MOL0     C16879   6.714   9.531   3.554 -0.0500 -0.1214  0.4157
  123MOL0     C16880   6.837   9.459   3.610  0.2980 -0.4049 -0.4397
  123MOL0    Cl16881   6.914   9.559   3.723 -0.2089 -0.2659 -0.0535
  123MOL0     C16882   5.819   9.486   4.106 -0.1303  0.2721  0.4626
  123MOL0     C16883   5.681   9.475   4.100 -0.4999  0.6312 -0.0287
  123MOL0     O16884   5.369   9.759   4.071  0.9757  0.7563 -0.0717
  123MOL0     C16885   5.237   9.424   4.016 -0.2428  0.0998  0.5130
  123MOL0     C16886   5.114   9.355   4.013 -0.2422  0.2102 -0.1875
  123MOL0     N16887   4.600   9.028   4.434 -0.8719 -0.1870 -0.3694
  123MOL0     N16888   4.570   9.059   4.559  0.1011 -0.0680  0.2959
  123MOL0     C16889   3.549   8.481   4.931 -0.3730  0.6231 -0.7319
  123MOL0     C16890   3.435   8.432   4.999 -0.1594 -0.4511 -0.3844
  123MOL0     C16891   2.965   8.420   5.050  0.7880 -0.0127 -0.2841
  123MOL0     C16892   2.979   8.285   5.008 -0.3687 -0.0891 -0.3575
  123MOL0     C16893   2.876   8.197   4.986 -0.8671  0.0016  0.8610
  123MOL0     C16894   2.750   8.233   5.010 -0.2695  0.6439  0.7043
  123MOL0     O16895   2.648   8.143   4.980 -0.1946  0.7119 -0.4297
  123MOL0     C16896   2.521   8.197   4.978 -0.4862 -0.1463  0.4889
  123MOL0     C16897   2.419   8.099   4.906 -0.3877 -0.0122 -0.0582
  123MOL0     C16898   2.438   8.128   4.761  0.7637  0.0470  0.8105
  123MOL0     C16899   2.349   8.041   4.665 -0.5077 -0.5908 -0.8535
  123MOL0     C16900   2.419   8.026   4.534  0.1877  0.8270 -0.0342
  123MOL0     C16901   2.470   8.004   4.427 -0.2632  0.0907 -0.0980
  123MOL0     C16902   2.723   8.368   5.060 -0.0222  0.9089 -0.1427
  123MOL0     C16903   2.830   8.461   5.069  1.1294  1.1014 -0.9430
  123MOL0     C16904   2.797   8.596   5.124 -0.7011  0.4038  0.2955
  123MOL0     H16905   3.221   8.652   4.852 -1.4263 -3.7186  0.5081
  123MOL0     H16906   3.417   8.743   4.760  1.0448 -0.8580 -0.8077
  123MOL0     H16907   3.658   8.849   4.852 -1.7277  0.6135 -1.2620
  123MOL0     H16908   3.629   8.813   4.677  1.4431  2.3175 -0.0914
  123MOL0     H16909   3.889   8.750   4.818  1.3815 -0.4239 -0.3458
  123MOL0     H16910   3.871   8.736   4.652  0.0386 -2.8939  1.4695
  123MOL0     H16911   3.832   9.003   4.649  0.7578  1.1581  0.7333
  123MOL0     H16912   3.862   8.993   4.824 -2.1321  0.8768 -1.2771
  123MOL0     H16913   4.085   8.905   4.787  0.3493 -2.9394 -0.6154
  123MOL0     H16914   4.063   8.873   4.618  2.2922  0.3801  0.8950
  123MOL0     H16915   4.040   9.150   4.719  0.3631 -0.7744  0.6539
  123MOL0     H16916   4.041   9.099   4.553 -1.0734 -0.4808 -0.7011
  123MOL0     H16917   4.267   9.014   4.767  0.2245 -1.3225 -1.0150
  123MOL0     H16918   4.276   9.020   4.587  3.8146  1.3034  0.2587
  123MOL0     H16919   4.253   9.232   4.794 -0.7584  0.3800 -0.4126
  123MOL0     H16920   4.239   9.279   4.619  4.2641  1.3973 -1.8778
  123MOL0     H16921   4.452   9.344   4.685  1.0271 -0.7951  0.8848
  123MOL0     H16922   4.491   9.205   4.772  0.1893 -0.2603  0.0815
  123MOL0     H16923   4.426   9.302   4.398  0.9337  1.4162  1.3831
  123MOL0     H16924   4.510   9.212   4.160  1.5579 -0.2236 -2.3923
  123MOL0     H16925   4.541   9.037   4.164 -2.5180  1.2903 -0.7855
  123MOL0     H16926   4.755   9.243   4.219 -0.8514  0.6771  0.1451
  123MOL0     H16927   4.776   9.065   4.220  0.6758  0.1264 -0.0310
  123MOL0     H16928   4.729   9.050   3.988 -1.9080  0.0998 -0.0982
  123MOL0     H16929   4.654   9.210   3.975  0.5670  0.6697  0.6055
  123MOL0     H16930   4.937   9.163   4.065 -0.1274 -0.2522  0.1091
  123MOL0     H16931   4.914   9.202   3.893 -0.4152  0.2874 -0.3603
  123MOL0     H16932   4.903   9.593   4.063  0.2327  0.4062  2.3657
  123MOL0     H16933   5.123   9.829   4.068  1.2751 -1.4031 -1.7967
  123MOL0     H16934   5.171   9.776   4.228  0.6262  1.7121 -0.2862
  123MOL0     H16935   5.003   9.761   4.188  0.9566  1.1069  0.7643
  123MOL0     H16936   5.610   9.799   3.985  0.8236  1.1044  0.8078
  123MOL0     H16937   5.872   9.808   4.018 -0.3978  1.0429  2.7726
  123MOL0     H16938   6.106   9.418   4.068 -3.3783  0.1671  0.8039
  123MOL0     H16939   6.024   9.459   3.918  1.0263 -1.2414 -0.6806
  123MOL0     H16940   6.181   9.641   3.866  2.4553  1.5546  2.2501
  123MOL0     H16941   6.264   9.590   4.015 -1.4426 -2.1243  1.9456
  123MOL0     H16942   6.224   9.432   3.758  1.4750 -1.1758  0.0658
  123MOL0     H16943   6.300   9.366   3.907 -3.2343  0.7854  1.9047
  123MOL0     H16944   6.476   9.538   3.904 -0.2741 -0.4795 -0.5548
  123MOL0     H16945   6.388   9.617   3.773 -2.4999  0.5962  0.9803
  123MOL0     H16946   6.585   9.380   3.782  0.8045  0.3663 -0.7679
  123MOL0     H16947   6.463   9.399   3.650  1.2766 -3.2830  1.0939
  123MOL0     H16948   6.651   9.617   3.741  0.4873 -2.2762  0.2358
  123MOL0     H16949   6.538   9.636   3.605 -2.3725 -1.3155  1.3559
  123MOL0     H16950   6.745   9.623   3.505 -0.8813 -0.4932 -0.8593
  123MOL0     H16951   6.673   9.465   3.477  0.3739  0.5962 -0.4278
  123MOL0     H16952   6.898   9.426   3.525  1.0291 -1.3636  0.4276
  123MOL0     H16953   6.810   9.366   3.660 -0.4966 -0.1352 -0.3546
  123MOL0     H16954   5.874   9.395   4.128 -1.4985 -0.5926  0.4263
  123MOL0     H16955   5.618   9.388   4.117 -2.4186  2.0812  0.7148
  123MOL0     H16956   5.330   9.370   4.002  0.2203  1.4975 -2.6282
  123MOL0     H16957   5.119   9.248   4.003  1.5600  0.2659 -0.3244
  123MOL0     H16958   3.645   8.436   4.957 -1.0157  0.4179  1.4649
  123MOL0     H16959   3.446   8.356   5.075  3.3103  0.1157 -0.1756
  123MOL0     H16960   3.079   8.249   4.986 -0.7790 -1.6759  0.2516
  123MOL0     H16961   2.893   8.099   4.944 -1.4855  0.2580 -0.0300
  123MOL0     H16962   2.493   8.204   5.084  0.5734  4.0296  0.6755
  123MOL0     H16963   2.507   8.290   4.922 -1.5876 -2.3095 -3.1580
  123MOL0     H16964   2.315   8.111   4.937 -0.1684  1.0205  0.3456
  123MOL0     H16965   2.438   7.995   4.930 -2.2798 -0.5584 -0.7498
  123MOL0     H16966   2.434   8.235   4.738  1.1670  0.1398  1.1451
  123MOL0     H16967   2.536   8.100   4.721 -0.4936 -1.1835 -1.6483
  123MOL0     H16968   2.256   8.095   4.652  0.9534  2.0534 -1.0418
  123MOL0     H16969   2.329   7.941   4.705  1.0476 -0.5557  0.1171
  123MOL0     H16970   2.513   7.991   4.329  1.0063  1.2828  0.2715
  123MOL0     H16971   2.623   8.398   5.091 -0.1819  0.3460 -0.0982
  123MOL0     H16972   2.814   8.667   5.043 -0.2440 -1.5975 -1.4562
  123MOL0     H16973   2.695   8.596   5.164 -1.0270 -0.3829 -0.4871
  123MOL0     H16974   2.869   8.612   5.205 -0.2880  0.2584 -0.0431
  124MOL0     O16975   4.529   1.262   8.364 -0.8945  0.5776  0.0135
  124MOL0     C16976   4.575   1.315   8.469  0.6986 -0.1345  1.0082
  124MOL0     O16977   4.694   1.377   8.479 -0.8039 -0.0313  0.4423
  124MOL0     C16978   4.775   1.425   8.372  0.5243  0.4179 -0.8790
  124MOL0     C16979   4.868   1.525   8.390 -0.7118  0.8349  0.8180
  124MOL0     C16980   4.950   1.578   8.284  0.4086 -0.1719  0.2650
  124MOL0     C16981   4.933   1.514   8.159 -0.2299 -0.1752  0.8786
  124MOL0     O16982   5.016   1.535   8.050 -0.1854  0.2696  0.1415
  124MOL0     C16983   5.157   1.568   8.075  0.0262 -0.0770 -0.7308
  124MOL0     C16984   5.189   1.717   8.053 -0.0648  0.8201 -0.2428
  124MOL0     C16985   5.335   1.731   8.029  0.4402 -0.7768 -0.2156
  124MOL0     C16986   5.365   1.885   8.010 -0.1287  0.4955 -0.5715
  124MOL0     C16987   5.514   1.921   7.971 -0.0037  0.2627 -0.2870
  124MOL0     C16988   5.567   1.848   7.841 -0.7061  0.4292 -0.7866
  124MOL0     C16989   5.707   1.901   7.805 -1.3143  0.5616 -0.3220
  124MOL0     C16990   5.823   1.834   7.880 -0.8737  0.4012 -0.0245
  124MOL0     N16991   5.949   1.854   7.797  0.5689  0.7688  0.0970
  124MOL0     C16992   5.959   1.797   7.673  0.2155  0.0012  1.2667
  124MOL0     C16993   6.069   1.861   7.620  0.3113  0.6162  0.2973
  124MOL0     C16994   6.115   1.831   7.476 -0.2168  0.0008 -0.0182
  124MOL0     C16995   6.167   1.690   7.444  0.9859 -0.8504  0.9383
  124MOL0     C16996   6.303   1.651   7.503  0.3071 -0.6909 -0.0556
  124MOL0     C16997   6.413   1.755   7.445 -0.9556 -0.3384 -0.4501
  124MOL0     O16998   6.553   1.717   7.472  0.4672  0.5579  0.0523
  124MOL0     C16999   6.623   1.635   7.389  0.4278  0.5733  0.5253
  124MOL0     C17000   6.552   1.556   7.295 -0.4635 -1.0512 -0.7357
  124MOL0     C17001   6.614   1.483   7.192  0.4249  0.3709 -0.2534
  124MOL0     C17002   6.526   1.411   7.092  0.1651  0.3764 -0.5420
  124MOL0     C17003   6.751   1.496   7.176  0.1781  0.4736 -0.7722
  124MOL0     C17004   6.824   1.410   7.086 -0.6878 -0.7752  0.9673
  124MOL0     O17005   6.804   1.275   7.087  0.0949  0.0447  0.0999
  124MOL0     C17006   6.910   1.203   7.039 -0.8137 -0.8388 -0.8335
  124MOL0     C17007   7.027   1.204   7.110  0.1004 -0.5223  0.0336
  124MOL0     C17008   7.126   1.113   7.076 -0.2071 -0.5799  0.2095
  124MOL0     C17009   7.109   1.017   6.975  0.3276 -0.3931 -0.0417
  124MOL0     O17010   7.195   0.913   6.939 -0.6258  0.7110  0.0150
  124MOL0     C17011   7.309   0.891   7.025  0.7059  0.0289 -0.1385
  124MOL0     C17012   7.376   0.762   6.975 -0.7995 -0.4288 -0.1973
  124MOL0     C17013   7.422   0.793   6.828  0.2253 -0.4203  0.1067
  124MOL0     C17014   7.551   0.715   6.791  0.8259 -0.6589  0.0897
  124MOL0     C17015   7.501   0.575   6.768 -0.1731 -0.9434  0.1972
  124MOL0     C17016   7.460   0.541   6.624  0.1901 -0.2922 -0.4825
  124MOL0     C17017   7.461   0.383   6.613  0.1946  0.8662 -0.8069
  124MOL0     C17018   7.404   0.342   6.479  0.1812  0.5047 -0.1125
  124MOL0    Cl17019   7.227   0.339   6.488 -0.3855  0.1809 -0.2463
  124MOL0     C17020   6.988   1.025   6.909 -0.6695  0.1147 -0.1478
  124MOL0     C17021   6.887   1.118   6.933 -0.6162  0.6420  0.0335
  124MOL0     O17022   6.905   1.468   7.015  0.6875 -0.2313  0.0365
  124MOL0     C17023   6.825   1.583   7.263 -0.9035 -0.5730  0.1083
  124MOL0     C17024   6.764   1.648   7.369  0.7151 -0.0698 -0.2031
  124MOL0     N17025   6.118   1.957   7.709  0.0442  0.6244 -0.0068
  124MOL0     N17026   6.041   1.950   7.814  0.2486  0.3311 -0.5760
  124MOL0     C17027   4.851   1.402   8.140 -0.6691  1.0751 -0.1830
  124MOL0     C17028   4.772   1.360   8.246 -0.2574 -0.3209 -0.7038
  124MOL0     C17029   4.481   1.316   8.586 -0.1870  0.0635  0.2380
  124MOL0     C17030   4.546   1.313   8.709  0.7910  0.7778 -0.7083
  124MOL0     C17031   4.480   1.289   8.833  0.1325  0.3111 -0.2576
  124MOL0     C17032   4.344   1.288   8.828  0.4781  0.5980 -0.0136
  124MOL0     O17033   4.252   1.274   8.929  0.6822 -0.8850  0.0495
  124MOL0     C17034   4.307   1.264   9.059 -0.3255 -0.9325  0.3422
  124MOL0     C17035   4.205   1.283   9.172 -0.0179  0.2612 -0.6324
  124MOL0     C17036   4.133   1.415   9.157  0.2332 -0.0603  0.0104
  124MOL0     C17037   4.030   1.428   9.270 -0.0840  0.0899  0.0419
  124MOL0     C17038   3.957   1.552   9.290 -0.3246 -0.6502  0.1626
  124MOL0     C17039   3.884   1.652   9.307 -0.2871  0.5346  0.8676
  124MOL0     C17040   4.276   1.298   8.707  0.5975 -0.6484  0.0332
  124MOL0     C17041   4.345   1.314   8.590  0.3239  1.0434  0.0292
  124MOL0     C17042   4.262   1.320   8.462 -0.6861  0.4430  0.1602
  124MOL0     H17043   4.888   1.576   8.483  2.1225  1.3504  0.0120
  124MOL0     H17044   5.029   1.651   8.300 -1.4259  1.4406  2.5905
  124MOL0     H17045   5.224   1.509   8.013  0.4424 -0.5293  0.1259
  124MOL0     H17046   5.180   1.542   8.179 -1.0999  2.7487  0.3176
  124MOL0     H17047   5.135   1.755   7.966  1.6961  1.2486 -1.1896
  124MOL0     H17048   5.155   1.770   8.142 -1.0327  0.1573 -0.1996
  124MOL0     H17049   5.396   1.699   8.114  1.8376  0.0245 -0.8766
  124MOL0     H17050   5.362   1.683   7.935 -0.8078 -0.4634 -0.7520
  124MOL0     H17051   5.308   1.917   7.922 -2.4279 -0.0414  0.6633
  124MOL0     H17052   5.332   1.946   8.094 -0.2666  1.4767 -1.3191
  124MOL0     H17053   5.589   1.900   8.048  1.5453 -1.9541 -2.2648
  124MOL0     H17054   5.510   2.030   7.962 -2.0764  0.8058  4.4030
  124MOL0     H17055   5.565   1.740   7.856 -1.0623  0.4222 -0.8838
  124MOL0     H17056   5.494   1.869   7.762 -2.0980 -0.1044  0.3164
  124MOL0     H17057   5.705   2.009   7.827  1.5547  0.4741  0.7979
  124MOL0     H17058   5.725   1.901   7.697 -1.1457 -0.6662 -0.2993
  124MOL0     H17059   5.837   1.874   7.981  0.6626 -3.9233  1.7102
  124MOL0     H17060   5.797   1.730   7.900 -1.3294  0.7178  1.1288
  124MOL0     H17061   5.894   1.725   7.626 -0.3274  2.2130 -1.6820
  124MOL0     H17062   6.192   1.907   7.456 -0.7756  0.9656  1.3375
  124MOL0     H17063   6.027   1.841   7.413 -1.8835  0.2849  2.2339
  124MOL0     H17064   6.088   1.619   7.471 -2.2508  0.7528 -3.1324
  124MOL0     H17065   6.172   1.689   7.334 -0.4541  2.9009  0.7069
  124MOL0     H17066   6.295   1.667   7.611 -0.6402  0.6015 -0.2936
  124MOL0     H17067   6.331   1.546   7.490 -1.9287 -1.0301 -3.4140
  124MOL0     H17068   6.405   1.765   7.336 -1.2695 -0.2066 -0.4154
  124MOL0     H17069   6.399   1.853   7.491  0.2649  0.4311 -1.6522
  124MOL0     H17070   6.444   1.562   7.286 -0.4063  0.1528 -0.8164
  124MOL0     H17071   6.419   1.416   7.114 -0.5454  1.4813 -3.7210
  124MOL0     H17072   6.550   1.304   7.083 -2.4092 -0.1194 -3.0778
  124MOL0     H17073   6.539   1.436   6.986  0.7773  1.2960 -0.2650
  124MOL0     H17074   7.038   1.270   7.195  0.4349 -0.0620 -0.3634
  124MOL0     H17075   7.217   1.126   7.134  0.6661  2.1631 -1.6059
  124MOL0     H17076   7.374   0.978   7.015 -0.1336  0.7318  0.3852
  124MOL0     H17077   7.276   0.877   7.128 -0.5100  1.3739 -0.3153
  124MOL0     H17078   7.465   0.744   7.036  0.6498  0.3886 -1.9964
  124MOL0     H17079   7.306   0.679   6.990 -1.2516 -0.0659 -0.2758
  124MOL0     H17080   7.447   0.899   6.817  3.2647 -1.1052 -0.4752
  124MOL0     H17081   7.345   0.757   6.759 -0.1759 -1.8008  1.2329
  124MOL0     H17082   7.624   0.714   6.873  1.7506 -1.1892 -0.7155
  124MOL0     H17083   7.606   0.750   6.703  0.7931  2.0556  1.0630
  124MOL0     H17084   7.581   0.505   6.796 -0.8371 -1.9116 -0.2635
  124MOL0     H17085   7.418   0.534   6.827 -1.5092  2.0156  0.5254
  124MOL0     H17086   7.527   0.572   6.543  1.0380 -0.5126  0.1139
  124MOL0     H17087   7.360   0.578   6.600  0.0421 -1.0778 -1.1398
  124MOL0     H17088   7.410   0.327   6.692  1.7149  0.4486 -0.0843
  124MOL0     H17089   7.564   0.348   6.627 -0.4644 -0.8155  0.0702
  124MOL0     H17090   7.429   0.239   6.452  0.7869  0.0381  2.0646
  124MOL0     H17091   7.444   0.398   6.394 -1.3830  1.2019 -0.4180
  124MOL0     H17092   6.966   0.950   6.834 -0.6415  1.2381 -1.3301
  124MOL0     H17093   6.789   1.131   6.888  0.1580  0.4332 -1.8174
  124MOL0     H17094   6.932   1.600   7.252 -1.1007  0.4202 -0.4509
  124MOL0     H17095   6.820   1.697   7.448  0.3192 -0.9762  0.6598
  124MOL0     H17096   4.845   1.352   8.044 -1.5941 -1.6439  1.1833
  124MOL0     H17097   4.722   1.268   8.218  2.1610 -1.9785  0.1891
  124MOL0     H17098   4.655   1.319   8.704  0.7898  0.3669 -1.3942
  124MOL0     H17099   4.543   1.292   8.920 -0.2846  2.0424  0.0103
  124MOL0     H17100   4.345   1.162   9.071  0.8968 -0.9184 -2.4689
  124MOL0     H17101   4.386   1.340   9.062 -0.6446 -0.5913  0.1975
  124MOL0     H17102   4.251   1.276   9.271 -2.3367 -0.3982  0.4538
  124MOL0     H17103   4.122   1.212   9.173 -0.9270  1.2467  1.8469
  124MOL0     H17104   4.206   1.496   9.151 -0.3167  0.5363  1.0110
  124MOL0     H17105   4.085   1.430   9.060  1.7710 -0.6128 -0.8672
  124MOL0     H17106   4.101   1.421   9.353  1.2249  3.1549 -0.6706
  124MOL0     H17107   3.949   1.355   9.266 -1.5061  1.5483  1.0813
  124MOL0     H17108   3.817   1.735   9.299 -0.4557  0.3045 -0.2104
  124MOL0     H17109   4.168   1.306   8.710  0.5991 -0.8980  1.1087
  124MOL0     H17110   4.280   1.418   8.418  0.1162  0.4307  0.4342
  124MOL0     H17111   4.287   1.246   8.385 -0.0384  2.5844 -1.7952
  124MOL0     H17112   4.158   1.295   8.486 -0.7134 -1.3087 -1.4961
  125MOL0     O17113   2.858   6.963  10.457  0.5877 -0.2196  0.7289
  125MOL0     C17114   2.866   6.879  10.545  0.1615 -0.8848 -0.2736
  125MOL0     O17115   2.969   6.875  10.636 -0.1835  0.5660 -0.1810
  125MOL0     C17116   3.091   6.926  10.613 -0.3411  0.5940 -0.2691
  125MOL0     C17117   3.148   6.951  10.494 -0.1467 -0.7288  0.8456
  125MOL0     C17118   3.273   7.014  10.487 -0.5336 -0.0098  0.4194
  125MOL0     C17119   3.338   7.051  10.596 -0.7035 -0.0080  0.1384
  125MOL0     O17120   3.458   7.108  10.577 -0.3750 -0.2490 -0.2562
  125MOL0     C17121   3.557   7.121  10.689  0.3082 -0.9325  0.5054
  125MOL0     C17122   3.679   7.184  10.630 -0.2378 -0.7216  1.0440
  125MOL0     C17123   3.812   7.151  10.718 -0.1027 -0.3043  0.9218
  125MOL0     C17124   3.919   7.257  10.677  0.5336  0.2223  0.2774
  125MOL0     C17125   4.049   7.210  10.737  0.0251  0.6239  0.5010
  125MOL0     C17126   4.168   7.293  10.685 -0.0709  0.4272  0.0439
  125MOL0     C17127   4.194   7.277  10.539  0.1614  0.2754  0.2422
  125MOL0     C17128   4.329   7.335  10.492 -0.2800  0.3895 -1.1087
  125MOL0     N17129   4.338   7.314  10.341 -0.1794  0.7678  0.1679
  125MOL0     C17130   4.284   7.394  10.243  0.3823  0.3909 -0.4400
  125MOL0     C17131   4.319   7.335  10.125 -0.6722  0.0317  0.2117
  125MOL0     C17132   4.277   7.357   9.981  0.0016  0.6513 -0.1036
  125MOL0     C17133   4.232   7.509   9.954 -0.3631  0.3548 -0.0215
  125MOL0     C17134   4.356   7.605   9.932  0.1526  0.1342 -1.0481
  125MOL0     C17135   4.437   7.579   9.808 -0.0244 -0.4613  0.0875
  125MOL0     O17136   4.545   7.670   9.793  0.1706 -0.4039 -0.3213
  125MOL0     C17137   4.666   7.638   9.849 -0.6960 -0.7054 -0.1251
  125MOL0     C17138   4.692   7.527   9.930 -0.2737  0.2168  0.3855
  125MOL0     C17139   4.817   7.504   9.988  0.0781  0.1296  0.6693
  125MOL0     C17140   4.822   7.380  10.070  0.1667 -0.1951  0.0332
  125MOL0     C17141   4.929   7.587   9.946  0.2620  0.0856 -0.0563
  125MOL0     C17142   5.064   7.567   9.987 -0.9559 -0.1806 -0.0820
  125MOL0     O17143   5.164   7.629   9.918  0.3104 -0.0806  0.5819
  125MOL0     C17144   5.294   7.632   9.955  0.3922  0.2800 -0.0787
  125MOL0     C17145   5.332   7.679  10.083  0.6393  0.3882  0.5697
  125MOL0     C17146   5.464   7.710  10.109  0.0946 -0.2255 -0.5143
  125MOL0     C17147   5.563   7.687  10.007 -0.8070 -0.4371  0.1319
  125MOL0     O17148   5.694   7.716  10.019 -0.5750 -0.6899  0.4381
  125MOL0     C17149   5.735   7.805  10.119 -0.1669 -0.0099 -0.0339
  125MOL0     C17150   5.892   7.826  10.121  0.2664  0.5720 -0.2483
  125MOL0     C17151   5.951   7.897  10.247 -0.6298 -0.1164 -0.3205
  125MOL0     C17152   6.110   7.912  10.242 -0.4632 -0.0059 -0.1793
  125MOL0     C17153   6.167   7.943  10.383  1.0409  0.2380  0.5181
  125MOL0     C17154   6.320   7.972  10.391  0.5420  0.3975  0.9858
  125MOL0     C17155   6.366   7.971  10.538 -0.1045  0.2375  1.2803
  125MOL0     C17156   6.506   8.030  10.556 -0.0333  0.5018  0.0206
  125MOL0    Cl17157   6.634   7.896  10.528  0.2079 -0.1581 -0.0330
  125MOL0     C17158   5.527   7.634   9.881  0.6713 -0.1362  0.3205
  125MOL0     C17159   5.395   7.603   9.857  0.6031  0.1546  0.6576
  125MOL0     O17160   5.085   7.501  10.089 -0.2841 -0.0457  0.0131
  125MOL0     C17161   4.898   7.699   9.863  0.1843 -0.3804 -0.0236
  125MOL0     C17162   4.770   7.719   9.812  0.0544  0.0202 -0.8353
  125MOL0     N17163   4.399   7.223  10.152 -0.1599 -0.0339 -0.7291
  125MOL0     N17164   4.410   7.211  10.282  0.0973  0.4103  0.0223
  125MOL0     C17165   3.278   7.029  10.719 -0.8077 -0.3081 -0.2955
  125MOL0     C17166   3.151   6.969  10.726 -0.1623 -1.3168  0.7479
  125MOL0     C17167   2.738   6.794  10.573 -0.4082 -0.3000  0.5424
  125MOL0     C17168   2.613   6.831  10.531  0.4291  0.4679 -0.4448
  125MOL0     C17169   2.492   6.758  10.539 -0.1136  1.2220 -0.4605
  125MOL0     C17170   2.502   6.633  10.604 -0.0084  0.6629 -0.7780
  125MOL0     O17171   2.397   6.543  10.598 -0.1496 -0.1545  0.2843
  125MOL0     C17172   2.408   6.406  10.626 -0.5564  0.4626 -0.4470
  125MOL0     C17173   2.284   6.325  10.581  0.0220 -0.0726 -0.0628
  125MOL0     C17174   2.151   6.385  10.591  0.6532 -0.6748  0.5971
  125MOL0     C17175   2.081   6.369  10.463 -0.4785 -0.4961  0.3933
  125MOL0     C17176   1.935   6.408  10.481 -0.3218  0.7999 -0.1258
  125MOL0     C17177   1.816   6.428  10.472 -0.0978  0.5223  0.2402
  125MOL0     C17178   2.624   6.592  10.670  0.4401 -0.5910 -0.6313
  125MOL0     C17179   2.737   6.666  10.645  1.1762 -0.9137 -0.1141
  125MOL0     C17180   2.860   6.594  10.689  0.2279 -0.5736 -0.0129
  125MOL0     H17181   3.095   6.938  10.400  3.0164  2.8157 -1.7414
  125MOL0     H17182   3.316   7.033  10.389 -1.8311  2.1474  0.1952
  125MOL0     H17183   3.590   7.029  10.738  5.4176  0.4231  0.1583
  125MOL0     H17184   3.516   7.184  10.768 -0.5294 -1.1099  0.2191
  125MOL0     H17185   3.686   7.151  10.525 -0.1793 -0.2355  0.8903
  125MOL0     H17186   3.668   7.293  10.626  3.4071 -0.2531 -0.7487
  125MOL0     H17187   3.788   7.160  10.824  0.0169  0.2124  0.9051
  125MOL0     H17188   3.841   7.049  10.688 -0.6238 -0.6259  1.4861
  125MOL0     H17189   3.922   7.266  10.568  0.6335  2.4859  0.4173
  125MOL0     H17190   3.895   7.357  10.713 -0.3722  0.3755 -0.6988
  125MOL0     H17191   4.078   7.108  10.712  0.7248  0.6336  1.2498
  125MOL0     H17192   4.047   7.220  10.846 -3.1200  3.1665  0.3787
  125MOL0     H17193   4.147   7.396  10.716  1.2501  0.2483  1.6572
  125MOL0     H17194   4.257   7.253  10.735 -0.6636 -2.4557 -1.0184
  125MOL0     H17195   4.119   7.339  10.488 -0.8196 -0.0509  1.2499
  125MOL0     H17196   4.184   7.173  10.507  0.8182  0.2496  0.1113
  125MOL0     H17197   4.328   7.443  10.511 -0.7300  0.2319 -0.1685
  125MOL0     H17198   4.405   7.292  10.557 -0.7775  2.8807  1.3100
  125MOL0     H17199   4.220   7.481  10.260 -1.7201 -1.1428 -0.1056
  125MOL0     H17200   4.193   7.288   9.970 -1.2212  2.0059  0.4528
  125MOL0     H17201   4.348   7.326   9.903  1.2872  1.7336  0.6059
  125MOL0     H17202   4.168   7.511   9.865  0.3117  0.6833 -0.5099
  125MOL0     H17203   4.177   7.542  10.043 -2.1753 -2.9800  0.2457
  125MOL0     H17204   4.320   7.709   9.924 -4.3880 -1.2753 -1.9056
  125MOL0     H17205   4.415   7.591  10.023  0.3887 -2.2484 -1.5010
  125MOL0     H17206   4.469   7.475   9.800 -0.8314 -0.6920 -0.2150
  125MOL0     H17207   4.379   7.586   9.716  0.6321 -0.0362 -0.3064
  125MOL0     H17208   4.614   7.455   9.952 -1.1726  1.3873  1.1016
  125MOL0     H17209   4.920   7.332  10.064  1.4678  2.5619 -3.1992
  125MOL0     H17210   4.756   7.306  10.024  1.2835  0.8708 -3.5543
  125MOL0     H17211   4.800   7.404  10.175 -1.8969 -1.4929 -0.0299
  125MOL0     H17212   5.259   7.696  10.161  1.3598  2.3308  0.8711
  125MOL0     H17213   5.499   7.763  10.197  3.7574  0.7146 -2.3423
  125MOL0     H17214   5.687   7.903  10.106 -1.3648 -0.1520  2.7087
  125MOL0     H17215   5.707   7.761  10.215  0.7174 -0.6150 -0.0405
  125MOL0     H17216   5.937   7.726  10.116 -2.0365 -0.4906 -1.5008
  125MOL0     H17217   5.924   7.881  10.033 -0.5880  1.5069  0.0103
  125MOL0     H17218   5.920   7.828  10.327  1.7965 -2.5637 -1.3352
  125MOL0     H17219   5.906   7.996  10.253  1.0736  0.6877 -0.3295
  125MOL0     H17220   6.137   7.998  10.179 -1.5862 -0.7247 -1.7094
  125MOL0     H17221   6.152   7.816  10.210 -0.9593 -0.8476  1.6031
  125MOL0     H17222   6.102   8.011  10.438  0.6753  1.5271 -1.3891
  125MOL0     H17223   6.162   7.852  10.442  2.1848 -0.7387 -0.8174
  125MOL0     H17224   6.347   8.061  10.334  3.2241 -0.0410  1.4324
  125MOL0     H17225   6.364   7.889  10.335 -0.1270  0.7498 -0.0949
  125MOL0     H17226   6.365   7.866  10.568 -3.2565 -0.0423  0.5987
  125MOL0     H17227   6.287   8.017  10.598 -1.9550 -3.0150  1.5571
  125MOL0     H17228   6.521   8.054  10.662 -0.2896 -3.5923  1.1563
  125MOL0     H17229   6.524   8.114  10.489 -0.4330  1.4697  1.0834
  125MOL0     H17230   5.604   7.637   9.805  1.7344  1.6365  1.4065
  125MOL0     H17231   5.364   7.588   9.754  0.1368 -0.7323  0.9165
  125MOL0     H17232   4.988   7.751   9.831 -0.7295  1.0130 -0.4324
  125MOL0     H17233   4.745   7.789   9.733  1.1637  1.0347 -0.3253
  125MOL0     H17234   3.342   7.044  10.806 -0.1474 -2.4703 -0.3573
  125MOL0     H17235   3.104   6.950  10.821 -0.6479 -1.1521  0.5429
  125MOL0     H17236   2.612   6.931  10.490 -0.5371  0.6054 -0.1233
  125MOL0     H17237   2.403   6.789  10.485 -1.4938 -2.0139 -0.2606
  125MOL0     H17238   2.498   6.361  10.585  0.2286  0.0724  1.5846
  125MOL0     H17239   2.417   6.396  10.735 -2.0475 -2.2562 -0.4776
  125MOL0     H17240   2.286   6.224  10.622 -0.0587 -1.5182 -3.2498
  125MOL0     H17241   2.319   6.297  10.481  1.3128 -1.3060  0.6949
  125MOL0     H17242   2.097   6.334  10.672 -0.3056  1.3296  1.3073
  125MOL0     H17243   2.156   6.492  10.614 -1.4854 -0.3944 -0.0972
  125MOL0     H17244   2.090   6.265  10.431  2.3720 -0.2691  0.2545
  125MOL0     H17245   2.115   6.431  10.380  0.9043 -0.9941  0.5731
  125MOL0     H17246   1.711   6.430  10.449 -0.3435 -1.0140  1.0596
  125MOL0     H17247   2.627   6.502  10.730  0.6053 -0.0341  0.2059
  125MOL0     H17248   2.835   6.513  10.758 -2.3681  1.5435  1.7169
  125MOL0     H17249   2.916   6.555  10.603  2.1039 -2.4246  1.9240
  125MOL0     H17250   2.917   6.668  10.747 -2.7032 -0.7768  3.4038
  126MOL0     O17251   2.745   5.767   7.130 -1.1591  0.3006 -0.5486
  126MOL0     C17252   2.660   5.855   7.137 -0.2781  0.1572  0.4231
  126MOL0     O17253   2.686   5.981   7.182  0.7593 -0.2791 -0.0656
  126MOL0     C17254   2.818   6.023   7.194 -0.3267 -0.4497 -0.0746
  126MOL0     C17255   2.842   6.109   7.300  0.8821  0.8066  0.2978
  126MOL0     C17256   2.969   6.155   7.328  0.0009 -0.3424 -0.0947
  126MOL0     C17257   3.073   6.129   7.241 -0.3117  0.7956 -0.5259
  126MOL0     O17258   3.209   6.172   7.254 -0.0957  0.1434  0.4355
  126MOL0     C17259   3.240   6.229   7.386 -0.3501 -0.4636  0.3247
  126MOL0     C17260   3.390   6.249   7.426 -0.4494 -0.2136 -0.4943
  126MOL0     C17261   3.455   6.347   7.328  0.5064 -0.1916  0.0768
  126MOL0     C17262   3.571   6.409   7.405 -0.9789  0.2244  0.5414
  126MOL0     C17263   3.637   6.516   7.325  0.2427  0.0729 -0.3078
  126MOL0     C17264   3.709   6.486   7.198 -0.4424 -0.3465  0.9801
  126MOL0     C17265   3.721   6.606   7.097  0.2270 -0.7753  0.3983
  126MOL0     C17266   3.761   6.745   7.155 -0.1533 -0.2058  0.3174
  126MOL0     N17267   3.904   6.740   7.154 -0.3199 -0.4459 -0.7257
  126MOL0     C17268   3.999   6.666   7.222  0.2290  0.4371  0.0111
  126MOL0     C17269   4.120   6.697   7.176 -0.2791  0.5695 -0.5630
  126MOL0     C17270   4.254   6.642   7.218 -0.0051  0.4708  0.9760
  126MOL0     C17271   4.347   6.751   7.276  0.3252  0.7025 -0.1419
  126MOL0     C17272   4.339   6.771   7.421 -0.4759  0.9903  0.0732
  126MOL0     C17273   4.436   6.886   7.454  0.3501 -0.4490 -0.3642
  126MOL0     O17274   4.566   6.831   7.469 -0.5355  0.0721  0.2776
  126MOL0     C17275   4.658   6.918   7.514  0.7264 -0.2649 -0.1831
  126MOL0     C17276   4.644   6.995   7.624  0.0020 -1.5305 -1.0363
  126MOL0     C17277   4.747   7.083   7.670  0.1266  0.0083 -0.8128
  126MOL0     C17278   4.735   7.148   7.807  0.2335  0.2301  0.9835
  126MOL0     C17279   4.860   7.107   7.581  0.8896  0.0396  0.2005
  126MOL0     C17280   4.969   7.210   7.607  0.5666  0.3177  0.4999
  126MOL0     O17281   5.090   7.185   7.545 -0.3591 -0.0836  0.4041
  126MOL0     C17282   5.198   7.259   7.594  0.8672  0.9116 -0.2178
  126MOL0     C17283   5.234   7.273   7.731  0.4288  0.4272 -0.1940
  126MOL0     C17284   5.351   7.330   7.765 -0.4704  0.7987  0.3283
  126MOL0     C17285   5.440   7.371   7.668 -0.2242  1.1309  0.4256
  126MOL0     O17286   5.555   7.444   7.703  0.4462 -0.2590  0.2732
  126MOL0     C17287   5.628   7.392   7.812  0.1182 -0.0883 -1.0629
  126MOL0     C17288   5.675   7.508   7.910  0.0653  0.1055  0.4241
  126MOL0     C17289   5.749   7.620   7.833  0.0356 -0.0490 -0.0459
  126MOL0     C17290   5.822   7.727   7.925 -0.1709 -0.4367 -0.4183
  126MOL0     C17291   5.718   7.833   7.971  0.0637  0.8986  0.2852
  126MOL0     C17292   5.763   7.947   8.061 -1.0304  0.0970 -0.0490
  126MOL0     C17293   5.645   8.006   8.134 -0.4644 -0.0788 -0.6282
  126MOL0     C17294   5.612   7.960   8.272 -0.1027  0.2414  0.0650
  126MOL0    Cl17295   5.742   8.027   8.381  0.0655  0.2162 -0.3393
  126MOL0     C17296   5.414   7.351   7.533  0.0884  0.1617 -0.2813
  126MOL0     C17297   5.291   7.291   7.503 -0.5602 -0.1478  0.3589
  126MOL0     O17298   4.943   7.311   7.673 -0.4493  0.5212 -0.8479
  126MOL0     C17299   4.872   7.024   7.470  0.3139  0.0595  0.6157
  126MOL0     C17300   4.774   6.936   7.434 -0.6345 -0.4884 -0.0046
  126MOL0     N17301   4.102   6.807   7.092 -0.5566 -0.4882 -0.0319
  126MOL0     N17302   3.979   6.832   7.085 -0.3520  0.9132 -0.1350
  126MOL0     C17303   3.048   6.054   7.124 -1.5145 -0.5677  0.5782
  126MOL0     C17304   2.919   6.004   7.103  0.1809 -0.2521 -0.2705
  126MOL0     C17305   2.515   5.833   7.104  0.4235 -0.2426 -0.3287
  126MOL0     C17306   2.437   5.944   7.064  0.3502  0.1894  0.1465
  126MOL0     C17307   2.301   5.940   7.034  0.2001 -0.9210  1.5059
  126MOL0     C17308   2.234   5.817   7.040  0.1641 -0.2056 -1.0829
  126MOL0     O17309   2.102   5.797   7.010  0.0646  0.1161  0.2527
  126MOL0     C17310   2.010   5.908   7.011 -0.1255 -0.4378 -0.4389
  126MOL0     C17311   1.879   5.825   7.042  0.9742 -0.3290  0.1567
  126MOL0     C17312   1.750   5.911   7.027  0.1671  0.5700 -0.9889
  126MOL0     C17313   1.629   5.837   7.087 -0.3275  0.3617  0.0415
  126MOL0     C17314   1.510   5.922   7.093 -0.7449  0.5296 -0.9340
  126MOL0     C17315   1.404   5.980   7.108 -0.2235  0.7271 -1.1245
  126MOL0     C17316   2.311   5.702   7.079  2.0242 -0.2748  0.1897
  126MOL0     C17317   2.446   5.706   7.110 -0.0074  0.7240  0.6907
  126MOL0     C17318   2.531   5.578   7.134  1.3659  0.1793  0.3669
  126MOL0     H17319   2.762   6.118   7.373  0.7555 -1.0338  0.4397
  126MOL0     H17320   2.982   6.214   7.418 -1.7606  1.2700 -0.8345
  126MOL0     H17321   3.196   6.169   7.466 -0.7782  2.1492  2.1747
  126MOL0     H17322   3.206   6.333   7.387  0.6715 -0.0712 -1.5831
  126MOL0     H17323   3.396   6.279   7.531 -0.5586 -1.8383  0.0091
  126MOL0     H17324   3.437   6.150   7.431 -1.3870 -0.6753 -0.5778
  126MOL0     H17325   3.490   6.296   7.238  2.6255  0.3265  0.5358
  126MOL0     H17326   3.387   6.425   7.292  1.5981  0.6343 -0.2848
  126MOL0     H17327   3.541   6.443   7.504  0.2801 -1.1017  1.4163
  126MOL0     H17328   3.649   6.334   7.423 -0.6338  0.8357  1.6477
  126MOL0     H17329   3.716   6.560   7.385  1.5623  0.6395 -2.3623
  126MOL0     H17330   3.554   6.584   7.304  0.3247  0.0867 -0.5903
  126MOL0     H17331   3.806   6.446   7.230 -0.9218 -0.5536  2.2452
  126MOL0     H17332   3.640   6.421   7.145 -1.4802  0.1948  1.6359
  126MOL0     H17333   3.623   6.629   7.055 -1.2033  0.0538  3.7980
  126MOL0     H17334   3.792   6.579   7.019 -1.4405  1.7059 -2.1789
  126MOL0     H17335   3.721   6.827   7.095 -0.8351 -1.8371 -1.5371
  126MOL0     H17336   3.726   6.747   7.259 -0.9150 -0.6592  0.0769
  126MOL0     H17337   3.988   6.591   7.299  3.7613  1.2111  1.4597
  126MOL0     H17338   4.304   6.582   7.143  0.0098  0.8487  0.6785
  126MOL0     H17339   4.237   6.579   7.306 -2.9060 -0.4076 -0.1051
  126MOL0     H17340   4.449   6.722   7.249  0.0946  2.1046 -2.8078
  126MOL0     H17341   4.325   6.846   7.228  0.1109 -1.2352 -4.3299
  126MOL0     H17342   4.233   6.796   7.434 -0.4667  0.7317  0.7047
  126MOL0     H17343   4.354   6.680   7.479 -2.1490  1.2724  1.0276
  126MOL0     H17344   4.446   6.964   7.377 -0.8919  0.1411  0.0363
  126MOL0     H17345   4.397   6.925   7.549  2.4691 -0.5680  0.6025
  126MOL0     H17346   4.555   6.980   7.684 -1.8815  2.5941 -2.4311
  126MOL0     H17347   4.836   7.155   7.849  0.7160  1.5894 -0.3096
  126MOL0     H17348   4.673   7.089   7.874 -2.0667 -1.3952 -2.3392
  126MOL0     H17349   4.691   7.248   7.801  1.2340  0.5952 -1.9959
  126MOL0     H17350   5.147   7.262   7.794 -0.2329 -3.0745 -1.5285
  126MOL0     H17351   5.358   7.366   7.867 -1.1683 -0.9379  1.0290
  126MOL0     H17352   5.579   7.311   7.866  0.0774  0.5413 -0.1252
  126MOL0     H17353   5.720   7.345   7.777  0.6771 -1.6252  2.1247
  126MOL0     H17354   5.587   7.547   7.962  0.5930  1.5433  0.2740
  126MOL0     H17355   5.754   7.473   7.977  2.5464  4.0765 -0.1197
  126MOL0     H17356   5.693   7.677   7.759 -0.8901 -1.3351 -0.3650
  126MOL0     H17357   5.833   7.574   7.780  2.2770  0.8192  2.5047
  126MOL0     H17358   5.900   7.786   7.875 -0.0098 -1.6733 -1.7037
  126MOL0     H17359   5.865   7.692   8.019  1.6517 -1.1033 -1.4540
  126MOL0     H17360   5.683   7.885   7.881  0.6884  2.4804  0.9191
  126MOL0     H17361   5.630   7.780   8.009  0.1729  1.4057  1.2915
  126MOL0     H17362   5.824   8.022   8.010 -1.3916 -0.5806 -1.5052
  126MOL0     H17363   5.827   7.912   8.143 -1.8618  2.4284  1.7394
  126MOL0     H17364   5.557   7.993   8.071  1.0746  0.1787 -2.9962
  126MOL0     H17365   5.668   8.113   8.144  0.8252 -0.5487  3.0808
  126MOL0     H17366   5.613   7.851   8.278 -1.5496  0.0362 -2.1861
  126MOL0     H17367   5.516   7.997   8.308 -0.2536 -1.1919  1.2129
  126MOL0     H17368   5.481   7.385   7.455 -2.1370  2.6865 -1.2420
  126MOL0     H17369   5.271   7.273   7.398 -1.9517  0.9121  0.4169
  126MOL0     H17370   4.944   7.028   7.389  0.3226 -2.8771  0.3670
  126MOL0     H17371   4.777   6.876   7.344 -0.1305  0.9296 -0.9573
  126MOL0     H17372   3.131   6.031   7.057 -0.2484  1.6886  1.2974
  126MOL0     H17373   2.906   5.942   7.015  0.7635 -0.2203 -0.3825
  126MOL0     H17374   2.487   6.040   7.058 -0.2300  0.4854 -0.0552
  126MOL0     H17375   2.261   6.036   7.002 -0.7458 -1.2614  1.6339
  126MOL0     H17376   2.042   5.973   7.093  1.0371 -0.1554 -1.1007
  126MOL0     H17377   2.003   5.957   6.913  1.5501  0.5301 -0.1102
  126MOL0     H17378   1.880   5.787   7.144 -1.9970  0.5038  0.5938
  126MOL0     H17379   1.861   5.743   6.971 -0.3310 -1.2392  1.4544
  126MOL0     H17380   1.757   6.006   7.081 -0.4278  0.6535 -1.0523
  126MOL0     H17381   1.724   5.947   6.927 -3.2859  0.8990 -0.0739
  126MOL0     H17382   1.649   5.795   7.186 -0.1259 -0.0032 -0.1557
  126MOL0     H17383   1.601   5.758   7.018  3.5862 -0.9918 -0.2330
  126MOL0     H17384   1.307   6.026   7.110 -1.0398 -0.9284  0.7656
  126MOL0     H17385   2.274   5.601   7.066  0.0476  0.7305 -3.7236
  126MOL0     H17386   2.603   5.599   7.213  0.6340  0.5822  0.9335
  126MOL0     H17387   2.477   5.485   7.153  2.0374 -0.3778 -0.3594
  126MOL0     H17388   2.594   5.562   7.045  0.4687 -2.3430  0.0964
  127MOL0     O17389  11.064   8.081   0.533  0.0871  0.2552  0.5351
  127MOL0     C17390  11.032   7.989   0.463 -0.3166  0.5687  0.4238
  127MOL0     O17391  11.112   7.923   0.377  0.4992  0.5714  0.3546
  127MOL0     C17392  11.247   7.929   0.367 -0.8370 -0.4309 -0.0787
  127MOL0     C17393  11.306   7.823   0.301 -0.6132  0.2392 -1.0866
  127MOL0     C17394  11.442   7.816   0.276 -0.0597 -1.0884  0.4166
  127MOL0     C17395  11.529   7.927   0.310  0.5476  0.5235  0.4831
  127MOL0     O17396  11.663   7.939   0.305  0.5427 -0.4857 -0.3567
  127MOL0     C17397  11.725   7.828   0.243 -0.0039 -0.1063  0.2995
  127MOL0     C17398  11.869   7.853   0.249 -0.3519  0.6484 -0.2384
  127MOL0     C17399  11.943   7.806   0.118  0.7539 -0.4709 -0.3061
  127MOL0     C17400  12.094   7.824   0.128  0.3148  0.2934 -0.4734
  127MOL0     C17401  12.153   7.795  -0.008 -0.0342 -0.3778  0.0262
  127MOL0     C17402  12.305   7.780  -0.005  1.1215  0.1434  0.1637
  127MOL0     C17403  12.382   7.896   0.058 -0.2320 -0.1418 -0.2798
  127MOL0     C17404  12.529   7.861   0.032 -0.5680 -0.3918 -0.6777
  127MOL0     N17405  12.617   7.970   0.081  0.0702 -0.0547 -0.5551
  127MOL0     C17406  12.607   8.106   0.054  0.1144 -0.2844 -0.7225
  127MOL0     C17407  12.715   8.155   0.113  0.0349  0.6049 -0.5264
  127MOL0     C17408  12.754   8.298   0.113 -0.5324 -0.1606 -0.4077
  127MOL0     C17409  12.758   8.372   0.262 -0.1379 -0.5059 -0.2246
  127MOL0     C17410  12.831   8.507   0.252  0.0062  0.1345 -1.2852
  127MOL0     C17411  12.830   8.590   0.380 -0.4684 -0.5283  0.0268
  127MOL0     O17412  12.862   8.522   0.501 -0.1649  0.5374 -0.0808
  127MOL0     C17413  12.996   8.500   0.513 -0.7319 -0.0491  0.0194
  127MOL0     C17414  13.078   8.604   0.539  0.1256  0.7241  0.3794
  127MOL0     C17415  13.215   8.592   0.546 -0.4801 -0.4035 -0.1187
  127MOL0     C17416  13.295   8.728   0.569  0.7109 -0.0174  0.1487
  127MOL0     C17417  13.274   8.461   0.543 -0.6776 -0.8351  1.3325
  127MOL0     C17418  13.416   8.422   0.564  0.7999 -0.7412 -0.0643
  127MOL0     O17419  13.457   8.300   0.518 -0.0579  0.3522  0.0726
  127MOL0     C17420  13.585   8.253   0.535  0.0515 -0.5764 -0.4344
  127MOL0     C17421  13.618   8.182   0.650 -1.1809 -0.3853 -0.3975
  127MOL0     C17422  13.758   8.151   0.675 -0.6297  0.8351  0.5238
  127MOL0     C17423  13.862   8.198   0.590 -0.1481 -0.2926  0.1496
  127MOL0     O17424  13.996   8.182   0.617  0.3199 -0.3945  0.4994
  127MOL0     C17425  14.037   8.141   0.741  0.0459 -0.2956  0.1226
  127MOL0     C17426  14.181   8.124   0.720 -0.4525  0.7298  0.2550
  127MOL0     C17427  14.227   8.005   0.640  0.4258  0.2769 -0.2061
  127MOL0     C17428  14.378   7.995   0.617 -0.1929  0.2873  0.0721
  127MOL0     C17429  14.443   7.962   0.755 -1.0937 -0.1082  0.1740
  127MOL0     C17430  14.587   7.920   0.757  0.7227 -0.6635 -0.7196
  127MOL0     C17431  14.632   7.868   0.893 -0.2236  0.2354 -0.5403
  127MOL0     C17432  14.755   7.781   0.878 -0.1553 -0.0288 -0.2787
  127MOL0    Cl17433  14.896   7.873   0.816 -0.5766  0.1845 -0.3063
  127MOL0     C17434  13.822   8.274   0.476 -0.7537  0.7367 -0.3002
  127MOL0     C17435  13.692   8.302   0.460  0.0701 -0.4874  0.5166
  127MOL0     O17436  13.486   8.500   0.626 -0.0097 -0.2194  0.1092
  127MOL0     C17437  13.184   8.355   0.510 -0.6952 -0.4263 -0.7418
  127MOL0     C17438  13.043   8.370   0.496 -0.6005 -0.4175  0.0004
  127MOL0     N17439  12.784   8.054   0.173 -0.0416 -0.5273  0.2795
  127MOL0     N17440  12.723   7.943   0.160 -0.6218  0.2147 -0.2284
  127MOL0     C17441  11.468   8.034   0.372  0.0303  0.2029 -0.8399
  127MOL0     C17442  11.329   8.038   0.401  0.9796 -0.5255  0.8131
  127MOL0     C17443  10.892   7.941   0.479  0.2698 -0.0967  0.8043
  127MOL0     C17444  10.791   8.022   0.522 -0.3108 -0.5222 -0.1040
  127MOL0     C17445  10.667   7.973   0.558 -1.1738  0.2600 -0.6113
  127MOL0     C17446  10.629   7.837   0.541 -0.3863 -0.1755  0.6811
  127MOL0     O17447  10.509   7.781   0.556  0.6102 -0.4683 -0.4241
  127MOL0     C17448  10.403   7.877   0.567 -0.7329  0.1957 -0.4461
  127MOL0     C17449  10.276   7.800   0.532 -0.1437  0.0479  0.2515
  127MOL0     C17450  10.254   7.674   0.621 -0.1027  0.0530  0.3411
  127MOL0     C17451  10.131   7.603   0.563  0.5140 -0.8753 -0.1752
  127MOL0     C17452  10.113   7.476   0.628 -0.4968  1.1272  0.0160
  127MOL0     C17453  10.119   7.358   0.670  0.5133  0.1984 -0.2174
  127MOL0     C17454  10.723   7.760   0.479 -0.0201 -0.2996  0.9163
  127MOL0     C17455  10.849   7.809   0.449 -0.1800 -0.5829  0.8435
  127MOL0     C17456  10.938   7.716   0.378 -0.2145 -0.3646  0.3583
  127MOL0     H17457  11.248   7.736   0.270  0.2004 -1.8363  2.6046
  127MOL0     H17458  11.479   7.723   0.234  1.6840 -0.2676  0.0464
  127MOL0     H17459  11.680   7.823   0.144 -0.2521 -1.6141  0.4569
  127MOL0     H17460  11.698   7.733   0.289 -1.6442  0.8364  1.3871
  127MOL0     H17461  11.888   7.961   0.245  0.7590  0.4784  0.1145
  127MOL0     H17462  11.923   7.810   0.334  1.0962  1.7760 -0.5305
  127MOL0     H17463  11.902   7.705   0.110 -2.8173  0.8744 -1.1080
  127MOL0     H17464  11.904   7.856   0.028  0.1246 -3.1877 -1.6588
  127MOL0     H17465  12.133   7.923   0.156 -2.4361  0.8700  1.7788
  127MOL0     H17466  12.124   7.757   0.208  2.0982  1.8354  0.2313
  127MOL0     H17467  12.117   7.875  -0.074 -0.7555  1.8123  2.8383
  127MOL0     H17468  12.111   7.708  -0.059  0.3966 -1.2916  1.1815
  127MOL0     H17469  12.328   7.682   0.038  0.5258  1.0829  2.8049
  127MOL0     H17470  12.334   7.765  -0.110 -0.5223 -1.8866 -0.0590
  127MOL0     H17471  12.358   7.904   0.165 -0.8487  1.4012 -0.5187
  127MOL0     H17472  12.350   7.990   0.013  1.5754  0.5053 -0.3046
  127MOL0     H17473  12.560   7.766   0.077  0.1090  0.1972  0.1414
  127MOL0     H17474  12.549   7.857  -0.075  0.9641  0.6573 -0.4706
  127MOL0     H17475  12.533   8.150  -0.011  0.2624 -0.7435 -1.2036
  127MOL0     H17476  12.686   8.353   0.048  0.3622  2.0415  0.4478
  127MOL0     H17477  12.848   8.315   0.061 -0.6051  2.5346  0.2308
  127MOL0     H17478  12.654   8.384   0.296 -0.4041 -2.9818 -0.0033
  127MOL0     H17479  12.800   8.312   0.343 -2.9053 -0.8161  1.1322
  127MOL0     H17480  12.934   8.474   0.235  0.1342 -0.8656  0.9766
  127MOL0     H17481  12.785   8.569   0.175 -2.6308  1.3082  1.0795
  127MOL0     H17482  12.893   8.675   0.353 -4.8965  3.0635 -0.2001
  127MOL0     H17483  12.730   8.633   0.385 -1.0889 -1.3036 -3.1515
  127MOL0     H17484  13.026   8.699   0.544 -1.7386 -0.3019  1.6201
  127MOL0     H17485  13.240   8.812   0.526  0.0400 -0.5736 -0.0843
  127MOL0     H17486  13.390   8.712   0.518  0.6365 -0.5056  0.1535
  127MOL0     H17487  13.306   8.758   0.674 -3.4104 -1.0815  1.0597
  127MOL0     H17488  13.537   8.159   0.719 -1.0977 -0.8418 -0.4517
  127MOL0     H17489  13.778   8.096   0.766  0.4062 -0.0056 -0.1854
  127MOL0     H17490  14.024   8.219   0.815 -0.6531 -0.2384 -0.0569
  127MOL0     H17491  13.984   8.046   0.759  0.7755 -1.0988 -1.6705
  127MOL0     H17492  14.237   8.209   0.679 -0.1589  0.1878 -0.4880
  127MOL0     H17493  14.225   8.111   0.819 -0.9791 -0.1863  0.3789
  127MOL0     H17494  14.183   8.003   0.540 -0.5205  1.3346  0.1712
  127MOL0     H17495  14.186   7.921   0.696  1.3133  1.9468  3.2495
  127MOL0     H17496  14.428   8.086   0.582  1.2658 -0.5116  0.0236
  127MOL0     H17497  14.408   7.916   0.548  2.4759  1.0082  0.3139
  127MOL0     H17498  14.433   8.044   0.828 -0.5191  0.5789 -0.5009
  127MOL0     H17499  14.382   7.879   0.793 -1.4511  0.5809  1.1503
  127MOL0     H17500  14.654   8.006   0.745 -0.3094  0.2053 -0.5015
  127MOL0     H17501  14.604   7.851   0.675  1.2637  1.9080 -2.9170
  127MOL0     H17502  14.564   7.794   0.937  2.2223 -1.9817 -0.1796
  127MOL0     H17503  14.657   7.945   0.967  0.0275 -0.2662 -0.0860
  127MOL0     H17504  14.752   7.692   0.815  1.9228  1.4949 -2.7479
  127MOL0     H17505  14.766   7.748   0.981 -1.5547  0.2142 -0.0274
  127MOL0     H17506  13.903   8.312   0.414  3.6958 -1.6643  3.4092
  127MOL0     H17507  13.674   8.373   0.380  3.9085 -1.2230 -1.2295
  127MOL0     H17508  13.220   8.253   0.523 -1.8036 -0.5159  2.7562
  127MOL0     H17509  12.971   8.293   0.472  0.4097 -1.1037 -0.9231
  127MOL0     H17510  11.524   8.126   0.368  0.4982  0.0068  0.6433
  127MOL0     H17511  11.288   8.129   0.444  0.1626 -1.5106  2.1731
  127MOL0     H17512  10.805   8.127   0.544 -3.2209 -0.0609  0.0451
  127MOL0     H17513  10.599   8.045   0.603 -0.8166  2.0862 -2.8062
  127MOL0     H17514  10.411   7.930   0.663 -0.3911  2.0782 -1.4596
  127MOL0     H17515  10.415   7.964   0.502  1.9802 -0.4135 -0.8911
  127MOL0     H17516  10.294   7.767   0.430  1.6019  1.3540  0.0924
  127MOL0     H17517  10.183   7.858   0.536 -0.6194 -0.6342 -0.5261
  127MOL0     H17518  10.342   7.609   0.625 -0.0986  0.0348  4.1467
  127MOL0     H17519  10.245   7.693   0.729  2.3579 -0.8903  0.7786
  127MOL0     H17520  10.148   7.589   0.457  0.1791 -2.0914 -0.0766
  127MOL0     H17521  10.039   7.659   0.587 -1.0237 -3.6823  0.9313
  127MOL0     H17522  10.121   7.254   0.695  2.5770 -0.6086 -3.2313
  127MOL0     H17523  10.708   7.658   0.443 -0.5141 -0.0617  0.4320
  127MOL0     H17524  10.966   7.746   0.277 -0.2795  0.2182  0.5087
  127MOL0     H17525  11.029   7.707   0.438  1.4113  0.1603 -1.8785
  127MOL0     H17526  10.898   7.615   0.369 -1.4054  0.0029  1.2119
  128MOL0     O17527   8.812   0.508   9.031 -0.2155  0.1379 -0.1346
  128MOL0     C17528   8.737   0.603   9.027 -0.5322  0.1758 -0.6246
  128MOL0     O17529   8.625   0.609   9.095 -0.7237 -0.3011  0.5430
  128MOL0     C17530   8.606   0.511   9.197  0.1045 -1.0562  0.1760
  128MOL0     C17531   8.587   0.377   9.161  1.0751 -0.1823 -0.6596
  128MOL0     C17532   8.560   0.278   9.259  0.1304  1.0048 -0.5877
  128MOL0     C17533   8.550   0.312   9.394 -1.0946  0.0039 -0.2811
  128MOL0     O17534   8.549   0.219   9.496  0.1031  0.0259 -0.4110
  128MOL0     C17535   8.519   0.084   9.469 -0.3703 -0.1897  0.4158
  128MOL0     C17536   8.497   0.015   9.596  0.5574 -0.5968  0.1271
  128MOL0     C17537   8.461  -0.128   9.575  0.5062 -0.2413  0.3618
  128MOL0     C17538   8.586  -0.219   9.545 -0.3997  0.3410 -0.5292
  128MOL0     C17539   8.547  -0.362   9.509  0.9992  0.3504 -0.4851
  128MOL0     C17540   8.472  -0.364   9.371  0.2396 -0.1554  0.8395
  128MOL0     C17541   8.560  -0.417   9.259  0.3676 -0.7978 -0.5408
  128MOL0     C17542   8.689  -0.343   9.245 -0.2622 -0.8969 -0.5705
  128MOL0     N17543   8.791  -0.411   9.154 -0.5817 -0.1580 -0.3014
  128MOL0     C17544   8.909  -0.349   9.137  0.1063 -0.3887  0.2203
  128MOL0     C17545   8.988  -0.447   9.087  0.1604  0.4648 -0.7541
  128MOL0     C17546   9.134  -0.431   9.065  0.5461 -0.1176  0.9230
  128MOL0     C17547   9.204  -0.481   9.177 -0.2213  0.7610  0.0117
  128MOL0     C17548   9.362  -0.458   9.172 -0.1101  0.5895  0.7544
  128MOL0     C17549   9.411  -0.486   9.311  0.0796  0.0972 -0.9850
  128MOL0     O17550   9.391  -0.617   9.363  0.5392  0.0108 -0.7026
  128MOL0     C17551   9.451  -0.656   9.473  0.1459 -0.6199  0.5775
  128MOL0     C17552   9.381  -0.741   9.557  0.2954  0.2509 -0.0425
  128MOL0     C17553   9.437  -0.781   9.677 -0.5634  0.0903  0.1257
  128MOL0     C17554   9.338  -0.835   9.773  0.4613  0.7506 -0.2630
  128MOL0     C17555   9.577  -0.749   9.716  0.7795  0.1201  0.2458
  128MOL0     C17556   9.645  -0.779   9.844  0.1308  0.3883  0.7490
  128MOL0     O17557   9.782  -0.771   9.846 -0.0371 -0.4425  0.6152
  128MOL0     C17558   9.834  -0.736   9.967 -0.3005 -0.4973 -1.4355
  128MOL0     C17559   9.791  -0.612  10.021 -0.0217  0.3632 -0.7366
  128MOL0     C17560   9.869  -0.561  10.127  0.1396 -0.6124  0.6264
  128MOL0     C17561   9.972  -0.635  10.182  0.3744  0.4012  0.8023
  128MOL0     O17562  10.046  -0.596  10.286  1.1433 -0.0340  0.1390
  128MOL0     C17563  10.068  -0.459  10.324  0.1421  0.2906  0.1958
  128MOL0     C17564  10.203  -0.453  10.394  0.2499 -0.3130 -0.2109
  128MOL0     C17565  10.315  -0.428  10.301  0.1324  0.6694 -0.0513
  128MOL0     C17566  10.329  -0.530  10.185 -0.9676  0.1831 -0.1171
  128MOL0     C17567  10.462  -0.486  10.104  0.4102  0.0969 -0.1022
  128MOL0     C17568  10.470  -0.554   9.966  0.2558 -0.2873 -0.5985
  128MOL0     C17569  10.608  -0.544   9.898 -0.2560 -0.2657  0.5426
  128MOL0     C17570  10.634  -0.425   9.818  0.5323 -0.4243  0.4577
  128MOL0    Cl17571  10.798  -0.439   9.762  0.2607  0.4343 -0.0539
  128MOL0     C17572  10.009  -0.758  10.124  0.0937 -0.3204 -0.4829
  128MOL0     C17573   9.949  -0.801  10.006  0.2877  0.0883 -0.3725
  128MOL0     O17574   9.575  -0.815   9.936 -0.1603 -0.3783 -0.0773
  128MOL0     C17575   9.642  -0.671   9.623 -0.3117  0.8659  0.1238
  128MOL0     C17576   9.587  -0.630   9.502 -0.0393  1.1334 -0.9624
  128MOL0     N17577   8.917  -0.566   9.072  0.5890  0.4297 -0.0965
  128MOL0     N17578   8.794  -0.546   9.118  0.6756  0.6679 -0.1575
  128MOL0     C17579   8.573   0.450   9.431  0.3962 -0.3932  0.5092
  128MOL0     C17580   8.592   0.551   9.331  0.4807  0.2721  0.5407
  128MOL0     C17581   8.773   0.718   8.944  0.1008 -0.2839  0.1820
  128MOL0     C17582   8.680   0.828   8.929 -0.3484  0.5648  0.5258
  128MOL0     C17583   8.696   0.934   8.839 -0.2541 -0.4099 -0.4662
  128MOL0     C17584   8.805   0.935   8.758  0.3598 -0.2353  0.7206
  128MOL0     O17585   8.823   1.035   8.664  0.1650  0.2334 -0.2207
  128MOL0     C17586   8.723   1.129   8.641  0.2233 -1.1115 -0.9499
  128MOL0     C17587   8.756   1.206   8.521 -0.2298 -0.3012  1.0088
  128MOL0     C17588   8.640   1.306   8.484 -0.1100  0.4590 -0.7546
  128MOL0     C17589   8.642   1.349   8.334 -0.0530 -0.3447  0.1215
  128MOL0     C17590   8.533   1.446   8.316 -0.1553 -0.5149  0.3163
  128MOL0     C17591   8.438   1.521   8.303  0.4455 -0.2671  0.0432
  128MOL0     C17592   8.906   0.841   8.776  0.6199 -0.4382  0.3062
  128MOL0     C17593   8.894   0.734   8.866  0.3282 -0.2782 -0.3761
  128MOL0     C17594   9.012   0.637   8.876  0.0849  0.3507 -0.0048
  128MOL0     H17595   8.604   0.353   9.057  1.2551 -1.7438 -0.3030
  128MOL0     H17596   8.552   0.175   9.226  0.6618  1.3403 -1.8043
  128MOL0     H17597   8.601   0.037   9.414  0.5806  0.1132  1.5360
  128MOL0     H17598   8.429   0.073   9.408  0.2072  0.4518 -0.5847
  128MOL0     H17599   8.583   0.016   9.664 -0.6949 -1.5163  1.8190
  128MOL0     H17600   8.421   0.075   9.647 -2.1488  0.6640 -4.7943
  128MOL0     H17601   8.418  -0.165   9.668 -0.0214  1.2388  0.7237
  128MOL0     H17602   8.389  -0.148   9.495  1.5304  1.9388 -1.2097
  128MOL0     H17603   8.646  -0.170   9.468  1.3275 -0.6164  0.1656
  128MOL0     H17604   8.646  -0.211   9.636  0.2935  2.9695 -1.1297
  128MOL0     H17605   8.480  -0.399   9.587 -1.9962  2.0488 -2.0808
  128MOL0     H17606   8.635  -0.427   9.505 -1.2610 -2.9305 -0.7087
  128MOL0     H17607   8.386  -0.430   9.377 -0.0876  0.0001 -1.2883
  128MOL0     H17608   8.449  -0.263   9.337  1.3754 -0.7623 -2.1223
  128MOL0     H17609   8.509  -0.405   9.163 -1.5678  1.8991  0.7031
  128MOL0     H17610   8.582  -0.523   9.275 -0.0357 -1.2742 -2.7584
  128MOL0     H17611   8.679  -0.248   9.191  1.3506 -0.6765 -0.5307
  128MOL0     H17612   8.744  -0.330   9.339 -1.2097  0.6578 -0.1955
  128MOL0     H17613   8.945  -0.248   9.153  1.8441 -0.7775 -0.9968
  128MOL0     H17614   9.162  -0.327   9.045  0.8402 -0.0787  1.4998
  128MOL0     H17615   9.154  -0.469   8.965  1.3431  1.6118  0.3831
  128MOL0     H17616   9.162  -0.439   9.268 -0.2886  1.2252 -0.2328
  128MOL0     H17617   9.190  -0.590   9.175  3.1628  0.2075  0.4264
  128MOL0     H17618   9.402  -0.530   9.100  0.2114  1.5850 -0.0993
  128MOL0     H17619   9.375  -0.355   9.139  0.1897  0.4672  0.4831
  128MOL0     H17620   9.517  -0.459   9.319 -0.5747  3.3723 -2.0729
  128MOL0     H17621   9.360  -0.415   9.376 -0.9618 -0.4090 -1.2324
  128MOL0     H17622   9.280  -0.761   9.521 -0.0940  2.9366 -0.6917
  128MOL0     H17623   9.326  -0.749   9.840  2.0148  3.6725 -3.4611
  128MOL0     H17624   9.370  -0.925   9.826 -1.4646  0.8898  1.2582
  128MOL0     H17625   9.243  -0.855   9.723  0.2685 -1.0807  0.7506
  128MOL0     H17626   9.712  -0.546   9.987 -0.4047  0.3884  0.1672
  128MOL0     H17627   9.839  -0.460  10.152  0.5474  0.4581 -2.7876
  128MOL0     H17628  10.067  -0.387  10.240 -1.4817  0.4362  0.2953
  128MOL0     H17629   9.979  -0.438  10.384  0.0815 -2.6990  1.2984
  128MOL0     H17630  10.190  -0.367  10.459 -1.7047 -0.0992 -0.8141
  128MOL0     H17631  10.226  -0.540  10.457 -0.6550 -0.8000 -0.5255
  128MOL0     H17632  10.404  -0.409  10.360 -0.0554  0.7293  0.2128
  128MOL0     H17633  10.292  -0.333  10.253 -0.9485  0.0618 -0.8033
  128MOL0     H17634  10.246  -0.531  10.114 -1.2348 -0.1541  0.2022
  128MOL0     H17635  10.342  -0.634  10.217 -1.2201  0.5406  1.1884
  128MOL0     H17636  10.452  -0.381  10.077 -0.6632 -0.0333 -0.2656
  128MOL0     H17637  10.556  -0.500  10.158 -1.2658  0.1548  3.0485
  128MOL0     H17638  10.394  -0.514   9.899 -0.3362  1.9305  1.2945
  128MOL0     H17639  10.446  -0.658   9.990  1.8993 -0.2343  1.6084
  128MOL0     H17640  10.629  -0.629   9.832 -0.2346 -0.6556  1.0458
  128MOL0     H17641  10.685  -0.544   9.976  0.3429  2.0364  0.0313
  128MOL0     H17642  10.616  -0.333   9.875 -0.3797  0.8603 -1.7749
  128MOL0     H17643  10.561  -0.417   9.737  0.9847  0.2505  0.1036
  128MOL0     H17644  10.087  -0.817  10.171  0.5578 -0.0509 -0.9109
  128MOL0     H17645   9.980  -0.894   9.961 -0.8310 -0.4565 -0.0656
  128MOL0     H17646   9.748  -0.652   9.633 -0.3206  2.6803 -2.3753
  128MOL0     H17647   9.649  -0.586   9.424  1.9482 -3.6393 -2.4207
  128MOL0     H17648   8.575   0.468   9.537  2.2956  0.3706  0.3816
  128MOL0     H17649   8.594   0.654   9.364  0.6516  0.4851 -0.1282
  128MOL0     H17650   8.583   0.824   8.976 -1.7355  2.6038 -1.9204
  128MOL0     H17651   8.622   1.013   8.844 -1.1060 -1.2476  0.6396
  128MOL0     H17652   8.628   1.078   8.624  0.3211 -1.1611 -1.3668
  128MOL0     H17653   8.709   1.203   8.720 -2.7313 -2.5700  0.0088
  128MOL0     H17654   8.747   1.131   8.442 -0.1484  0.1136  0.6038
  128MOL0     H17655   8.856   1.251   8.523 -1.1496  1.8069  1.1549
  128MOL0     H17656   8.549   1.255   8.518  1.0917  0.3074  2.7035
  128MOL0     H17657   8.651   1.392   8.551 -1.4278  2.5289 -3.0305
  128MOL0     H17658   8.625   1.263   8.268 -2.5264  0.4437 -0.3661
  128MOL0     H17659   8.742   1.384   8.308  0.1893 -0.2464  1.1425
  128MOL0     H17660   8.349   1.580   8.308 -0.0802 -0.9379 -0.9705
  128MOL0     H17661   8.998   0.843   8.719  2.3276  2.8938  2.7773
  128MOL0     H17662   9.099   0.669   8.819  1.6948 -4.5696 -0.7827
  128MOL0     H17663   9.037   0.639   8.983  1.7206  4.4636 -0.3152
  128MOL0     H17664   8.992   0.535   8.842 -1.4039  0.1549  1.3235
  129MOL0     O17665   9.857   9.073  10.485  0.7471  0.7123 -0.5808
  129MOL0     C17666   9.875   9.194  10.453 -0.0473 -0.0177  0.8390
  129MOL0     O17667   9.995   9.242  10.416  0.6981  0.4879  0.2336
  129MOL0     C17668  10.105   9.158  10.429 -0.3178 -0.1848  0.1047
  129MOL0     C17669  10.187   9.158  10.320 -0.3183  0.1547 -0.5353
  129MOL0     C17670  10.302   9.077  10.320 -0.4617 -0.0889  0.1334
  129MOL0     C17671  10.338   8.994  10.429  0.2789  1.0795 -0.8720
  129MOL0     O17672  10.455   8.935  10.416 -0.3570  0.2206  0.1226
  129MOL0     C17673  10.538   8.890  10.525  0.3162 -0.7298  0.1272
  129MOL0     C17674  10.675   8.871  10.478  0.3298  0.3543  0.2799
  129MOL0     C17675  10.700   8.783  10.354 -0.2909 -0.5769 -0.2929
  129MOL0     C17676  10.829   8.704  10.358 -0.6219  0.8095 -0.2864
  129MOL0     C17677  10.953   8.791  10.323  0.6998  0.2777  0.5708
  129MOL0     C17678  11.087   8.713  10.321  0.0047  0.0948  0.4764
  129MOL0     C17679  11.201   8.795  10.262  0.0666 -0.1985 -0.6440
  129MOL0     C17680  11.332   8.711  10.276 -0.4937  0.2477 -0.0159
  129MOL0     N17681  11.448   8.778  10.222  1.0203 -0.1405 -0.0210
  129MOL0     C17682  11.502   8.888  10.274  0.0580  0.2634 -0.4805
  129MOL0     C17683  11.616   8.917  10.203  0.0471  0.5566  0.8356
  129MOL0     C17684  11.699   9.033  10.237  0.2723  0.4548 -0.2573
  129MOL0     C17685  11.797   9.063  10.121  0.0672  0.6674 -0.3693
  129MOL0     C17686  11.870   9.196  10.135  0.0501 -0.8378 -0.4667
  129MOL0     C17687  11.946   9.234  10.011 -1.3217  0.5888 -0.2731
  129MOL0     O17688  12.052   9.145   9.979 -0.4952 -0.5820  0.2545
  129MOL0     C17689  12.181   9.187   9.972 -0.8007 -0.1098 -0.1558
  129MOL0     C17690  12.208   9.301   9.892 -0.5673 -0.0136  0.2259
  129MOL0     C17691  12.338   9.360   9.900 -0.0824  0.9356  0.3309
  129MOL0     C17692  12.357   9.494   9.834  0.0171 -0.1546 -0.2223
  129MOL0     C17693  12.438   9.291   9.969  0.4368  0.0896 -0.4453
  129MOL0     C17694  12.575   9.343   9.978 -0.0344 -0.5839  0.8427
  129MOL0     O17695  12.669   9.247   9.993  0.1417 -0.1938  0.1875
  129MOL0     C17696  12.790   9.279  10.056  0.2887  0.8137  0.0086
  129MOL0     C17697  12.835   9.199  10.163 -0.0865  0.2293  0.4783
  129MOL0     C17698  12.964   9.221  10.220 -0.4794  0.3803 -0.1311
  129MOL0     C17699  13.043   9.327  10.183  0.9879 -0.2597 -0.5142
  129MOL0     O17700  13.166   9.338  10.239  0.5477  0.2607  0.3680
  129MOL0     C17701  13.217   9.475  10.258 -0.5420  0.8028 -0.2219
  129MOL0     C17702  13.364   9.453  10.304  1.4082 -0.2062 -0.1371
  129MOL0     C17703  13.434   9.584  10.338 -0.2394 -0.7510 -0.0243
  129MOL0     C17704  13.581   9.562  10.367 -0.0039  0.2677  1.1032
  129MOL0     C17705  13.643   9.678  10.431 -0.5173 -0.5672  0.1524
  129MOL0     C17706  13.792   9.672  10.464 -0.5000  0.4062 -0.0478
  129MOL0     C17707  13.825   9.808  10.526 -0.0581 -0.3155  0.4499
  129MOL0     C17708  13.978   9.813  10.548 -1.0078 -1.2189  0.0115
  129MOL0    Cl17709  14.038   9.984  10.553  0.1039 -0.6025 -0.1636
  129MOL0     C17710  12.995   9.416  10.089  0.4994  0.2495 -0.1694
  129MOL0     C17711  12.875   9.388  10.022 -0.1757  0.2278 -0.0478
  129MOL0     O17712  12.601   9.461   9.975  0.3349 -0.1786 -0.5244
  129MOL0     C17713  12.411   9.170  10.037  0.1722 -0.7526 -1.0604
  129MOL0     C17714  12.281   9.121  10.039 -0.8581  1.3525  0.7456
  129MOL0     N17715  11.624   8.825  10.106  0.5294  0.4803 -0.4212
  129MOL0     N17716  11.517   8.747  10.116  0.6577  0.9415  0.3350
  129MOL0     C17717  10.254   8.987  10.542 -0.0942  0.3615  0.0552
  129MOL0     C17718  10.139   9.074  10.541 -0.1508  0.1652  0.1044
  129MOL0     C17719   9.761   9.285  10.452  0.1174  0.1629 -0.0943
  129MOL0     C17720   9.630   9.232  10.429 -0.6518 -0.7791 -0.0798
  129MOL0     C17721   9.513   9.310  10.417 -0.3053 -0.1516  1.0531
  129MOL0     C17722   9.519   9.448  10.433 -0.3291 -0.0517  0.5008
  129MOL0     O17723   9.422   9.540  10.433  0.3546  0.2773 -0.0808
  129MOL0     C17724   9.288   9.493  10.466 -0.0635  0.3417 -1.0652
  129MOL0     C17725   9.283   9.465  10.621 -0.1837  0.6906  1.1266
  129MOL0     C17726   9.316   9.581  10.702  0.4743 -0.4925 -0.5172
  129MOL0     C17727   9.296   9.558  10.854 -0.4158  0.7835  0.4195
  129MOL0     C17728   9.282   9.670  10.937 -1.3761 -0.4659  0.2415
  129MOL0     C17729   9.279   9.778  10.996  0.7094 -0.3266  0.5575
  129MOL0     C17730   9.651   9.501  10.460 -0.3729  0.9350  0.6811
  129MOL0     C17731   9.763   9.420  10.482  0.2679  0.6841  0.3994
  129MOL0     C17732   9.882   9.487  10.538  0.3799  0.2494  0.1693
  129MOL0     H17733  10.158   9.201  10.225  0.1943  4.1360  0.9396
  129MOL0     H17734  10.363   9.076  10.231 -0.0043 -0.8845  0.4473
  129MOL0     H17735  10.498   8.799  10.572  0.0303 -0.3630  0.6012
  129MOL0     H17736  10.546   8.972  10.597  1.5243  2.0144 -2.9085
  129MOL0     H17737  10.725   8.968  10.464 -1.5679  1.3531  0.1268
  129MOL0     H17738  10.728   8.828  10.564  2.0303  2.8418  0.5925
  129MOL0     H17739  10.618   8.711  10.346 -0.8724  0.2892 -3.2705
  129MOL0     H17740  10.701   8.861  10.277  1.3243  0.5031  0.7640
  129MOL0     H17741  10.856   8.656  10.453 -1.1103  1.8225  0.3845
  129MOL0     H17742  10.821   8.628  10.280  0.7849 -0.1972  0.5082
  129MOL0     H17743  10.959   8.887  10.375  0.9509  1.4680 -1.5278
  129MOL0     H17744  10.939   8.819  10.218 -1.1877 -0.5791  0.5547
  129MOL0     H17745  11.112   8.695  10.426  0.9760  1.5105  0.5269
  129MOL0     H17746  11.068   8.620  10.268 -3.5038  0.8094  0.2212
  129MOL0     H17747  11.214   8.883  10.325  1.9864 -0.0311 -1.2292
  129MOL0     H17748  11.185   8.826  10.158 -0.3760  2.1311  0.0633
  129MOL0     H17749  11.352   8.686  10.380  1.0558  0.5663 -0.2203
  129MOL0     H17750  11.316   8.615  10.225 -0.1432  0.1754  0.0142
  129MOL0     H17751  11.471   8.931  10.369  3.4981 -0.5231  1.1575
  129MOL0     H17752  11.748   9.017  10.334 -1.2716 -0.7106  0.3733
  129MOL0     H17753  11.627   9.115  10.251 -1.2218 -1.1219  2.0267
  129MOL0     H17754  11.869   8.981  10.114 -0.6864 -0.1506  0.9412
  129MOL0     H17755  11.744   9.062  10.025 -0.7092  0.4790  0.0475
  129MOL0     H17756  11.798   9.272  10.168 -0.9977 -2.3665  0.9983
  129MOL0     H17757  11.948   9.192  10.211  3.6227  1.8245 -3.6422
  129MOL0     H17758  11.874   9.250   9.930 -0.5841  0.3441 -0.9844
  129MOL0     H17759  11.996   9.329  10.031  0.7905 -0.6015  0.3587
  129MOL0     H17760  12.126   9.350   9.841 -1.0458  0.7182  1.6674
  129MOL0     H17761  12.255   9.528   9.817 -0.8244 -2.1812  0.4788
  129MOL0     H17762  12.424   9.480   9.749  1.5136 -0.7051  0.9881
  129MOL0     H17763  12.390   9.573   9.903  0.7170 -0.7721  0.1799
  129MOL0     H17764  12.765   9.123  10.197 -1.4736  1.0161 -0.4823
  129MOL0     H17765  12.985   9.149  10.298  0.1158 -1.6318 -2.0243
  129MOL0     H17766  13.212   9.535  10.167  1.0719  0.7081 -0.3867
  129MOL0     H17767  13.173   9.533  10.341  1.2903 -1.2115  2.3090
  129MOL0     H17768  13.358   9.393  10.394  0.1814  0.2141  0.0794
  129MOL0     H17769  13.415   9.405  10.220  2.1576  2.5508 -1.3897
  129MOL0     H17770  13.394   9.634  10.427  2.4380 -0.6281  1.2290
  129MOL0     H17771  13.433   9.649  10.251 -0.0142 -1.3417 -0.4765
  129MOL0     H17772  13.641   9.530  10.281  0.8652 -0.4092  1.9329
  129MOL0     H17773  13.595   9.480  10.437 -0.3460 -0.2762  0.5450
  129MOL0     H17774  13.630   9.766  10.368  3.2393  0.6227  0.7705
  129MOL0     H17775  13.597   9.690  10.530 -0.6198 -1.3202  0.2015
  129MOL0     H17776  13.852   9.650  10.375 -0.4714  0.4408 -0.0368
  129MOL0     H17777  13.812   9.596  10.540 -0.9410 -0.6793 -0.9939
  129MOL0     H17778  13.774   9.818  10.622 -1.8872 -0.2096 -0.4916
  129MOL0     H17779  13.793   9.894  10.466 -1.9222  0.7961  2.8660
  129MOL0     H17780  14.040   9.755  10.478  0.1016  2.7477 -2.5938
  129MOL0     H17781  13.994   9.779  10.651 -0.7259  0.0109  0.3864
  129MOL0     H17782  13.039   9.502  10.040 -2.0047  1.0209 -1.2586
  129MOL0     H17783  12.834   9.452   9.945  0.0400  1.6736  0.9909
  129MOL0     H17784  12.489   9.119  10.093  0.7953  3.1194  2.1313
  129MOL0     H17785  12.265   9.034  10.103 -1.9044  1.0244  0.0533
  129MOL0     H17786  10.290   8.932  10.628  1.4029  1.9564  0.5086
  129MOL0     H17787  10.071   9.073  10.626  2.7547  3.5979  2.8059
  129MOL0     H17788   9.628   9.124  10.427  0.6985 -0.9112  1.9469
  129MOL0     H17789   9.415   9.275  10.388 -0.9456  1.1238  1.5773
  129MOL0     H17790   9.211   9.565  10.435 -0.0634  0.7222 -0.2183
  129MOL0     H17791   9.258   9.401  10.416  0.4411 -0.5623  0.2549
  129MOL0     H17792   9.353   9.383  10.641 -1.1479 -1.8317 -4.1428
  129MOL0     H17793   9.181   9.429  10.640 -0.1355 -0.3350 -0.4334
  129MOL0     H17794   9.423   9.607  10.702  0.1208  1.0691  0.3448
  129MOL0     H17795   9.248   9.661  10.672  0.8903 -0.6421 -1.9530
  129MOL0     H17796   9.370   9.484  10.887  1.2998  1.0628 -2.4887
  129MOL0     H17797   9.205   9.498  10.864 -0.8024  1.0985 -1.0063
  129MOL0     H17798   9.277   9.873  11.046  2.4899 -1.2181  2.4835
  129MOL0     H17799   9.653   9.609  10.469  1.0563  1.4124 -3.4175
  129MOL0     H17800   9.862   9.589  10.572  0.4490  0.3187  0.0041
  129MOL0     H17801   9.916   9.421  10.618  1.7744  1.2061  0.3967
  129MOL0     H17802   9.964   9.484  10.466 -0.2485 -0.5318 -0.5434
  130MOL0     O17803   9.255  10.022   8.867  0.5025  0.8289  0.0087
  130MOL0     C17804   9.215   9.908   8.834  0.1091  0.0287  1.0675
  130MOL0     O17805   9.270   9.840   8.732 -0.1150 -0.5085  0.6150
  130MOL0     C17806   9.368   9.888   8.645  0.3974  0.4374  0.4483
  130MOL0     C17807   9.423  10.017   8.635  0.5376 -0.0887 -0.0841
  130MOL0     C17808   9.531  10.049   8.546 -0.1205 -0.8335 -0.0215
  130MOL0     C17809   9.584   9.950   8.460  0.1085 -0.4547 -0.6350
  130MOL0     O17810   9.675   9.977   8.364 -0.3896 -0.0210 -0.3766
  130MOL0     C17811   9.748  10.101   8.355 -0.2562  0.9464 -0.1293
  130MOL0     C17812   9.831  10.111   8.234  0.2170  0.2917  0.4437
  130MOL0     C17813   9.918   9.989   8.222 -0.0382  0.4166  0.2047
  130MOL0     C17814  10.048  10.023   8.149 -0.3843  0.1421 -0.1508
  130MOL0     C17815  10.127   9.892   8.119 -0.6104  0.4577 -0.0076
  130MOL0     C17816  10.270   9.928   8.056 -0.0704 -0.5168 -0.6555
  130MOL0     C17817  10.360   9.806   8.040  0.5827 -0.1970  0.8386
  130MOL0     C17818  10.414   9.746   8.171 -0.2587  0.3939  0.3613
  130MOL0     N17819  10.550   9.796   8.190  0.0144 -0.0840 -0.2984
  130MOL0     C17820  10.607   9.920   8.189  0.7029 -0.1661  1.0116
  130MOL0     C17821  10.732   9.923   8.238  0.2073 -0.0919  0.3379
  130MOL0     C17822  10.832  10.028   8.258  0.3654 -1.8101  0.3051
  130MOL0     C17823  10.811  10.089   8.403  0.0259 -0.3938  0.0270
  130MOL0     C17824  10.863  10.229   8.410  0.2500 -0.6355  0.0731
  130MOL0     C17825  10.858  10.283   8.556 -0.5380 -0.0984  0.5767
  130MOL0     O17826  10.948  10.396   8.564  0.3068 -0.0723  1.1032
  130MOL0     C17827  11.062  10.390   8.643  0.1322 -0.8128 -0.2613
  130MOL0     C17828  11.168  10.462   8.590  0.1912  0.0397 -0.3207
  130MOL0     C17829  11.294  10.464   8.650 -0.1141  0.2218  0.0531
  130MOL0     C17830  11.398  10.532   8.564  0.8153 -0.0268  0.7257
  130MOL0     C17831  11.309  10.403   8.782 -0.3577 -0.0382 -0.7660
  130MOL0     C17832  11.436  10.416   8.852  0.0175 -0.1286 -0.4240
  130MOL0     O17833  11.430  10.372   8.979 -0.4080  0.2264 -0.4726
  130MOL0     C17834  11.540  10.384   9.061 -0.9485 -0.5713  0.0322
  130MOL0     C17835  11.559  10.499   9.138 -0.5084 -0.0517  0.5632
  130MOL0     C17836  11.676  10.514   9.211  0.3406 -0.7002  1.1371
  130MOL0     C17837  11.776  10.414   9.201 -0.6713 -0.1597 -0.4073
  130MOL0     O17838  11.896  10.413   9.271  0.4225 -0.0799  0.4005
  130MOL0     C17839  11.949  10.544   9.296  0.1935 -0.2492 -0.8055
  130MOL0     C17840  12.096  10.534   9.322 -0.0775  0.1097 -0.2430
  130MOL0     C17841  12.133  10.442   9.443  0.1608  0.2617  0.1293
  130MOL0     C17842  12.279  10.469   9.485 -0.0566 -0.2861  0.7307
  130MOL0     C17843  12.328  10.367   9.588 -0.2707  0.6856  0.4491
  130MOL0     C17844  12.463  10.401   9.645 -0.2195 -0.0593  0.0317
  130MOL0     C17845  12.541  10.280   9.700 -0.4690  0.2918 -0.0784
  130MOL0     C17846  12.466  10.205   9.822  0.3620 -0.2159  0.0438
  130MOL0    Cl17847  12.433  10.315   9.958 -0.3590  0.2038  0.0532
  130MOL0     C17848  11.751  10.298   9.135 -0.3351  0.1311  0.6483
  130MOL0     C17849  11.634  10.276   9.066 -0.2150 -0.2429  0.3147
  130MOL0     O17850  11.530  10.462   8.797  0.8325 -0.0527  0.0382
  130MOL0     C17851  11.199  10.334   8.833  0.9707 -0.6203  0.1561
  130MOL0     C17852  11.073  10.326   8.761 -0.1449  0.1781  0.0168
  130MOL0     N17853  10.757   9.792   8.270  0.7254  0.0256  0.3431
  130MOL0     N17854  10.650   9.723   8.241 -0.2090  0.4713 -0.1560
  130MOL0     C17855   9.541   9.817   8.479  1.2591  0.1530 -0.9980
  130MOL0     C17856   9.426   9.789   8.562  0.5944 -0.7048  0.9029
  130MOL0     C17857   9.110   9.845   8.922 -0.1263 -0.3359 -1.3375
  130MOL0     C17858   9.087   9.706   8.914  1.3859 -0.8366 -0.2246
  130MOL0     C17859   8.988   9.645   8.978  1.2028  0.5116  0.1790
  130MOL0     C17860   8.909   9.714   9.072  0.3247  0.2875 -0.3419
  130MOL0     O17861   8.816   9.659   9.162  0.9819 -0.3911  0.0509
  130MOL0     C17862   8.786   9.522   9.146 -0.3005 -0.5425 -0.2044
  130MOL0     C17863   8.898   9.447   9.225  0.0744  0.1025 -0.4059
  130MOL0     C17864   8.895   9.484   9.384 -0.5147 -0.7778  0.3025
  130MOL0     C17865   8.996   9.407   9.466  0.1609 -0.2863  0.2747
  130MOL0     C17866   8.978   9.265   9.470  0.6763  0.0292 -0.4923
  130MOL0     C17867   8.955   9.148   9.478 -0.1026  0.3106 -0.1798
  130MOL0     C17868   8.927   9.849   9.080  0.8722 -0.2138 -0.8464
  130MOL0     C17869   9.022   9.918   9.008 -0.2305 -0.5245  0.5177
  130MOL0     C17870   9.014  10.065   9.010  0.1948  0.3110 -0.1179
  130MOL0     H17871   9.366  10.102   8.669 -0.4031  0.3608 -2.5278
  130MOL0     H17872   9.573  10.149   8.541  0.3431 -1.0430 -4.3736
  130MOL0     H17873   9.818  10.105   8.439  2.4673 -1.5634 -2.0910
  130MOL0     H17874   9.675  10.183   8.363 -2.4892 -1.0506  1.3606
  130MOL0     H17875   9.773  10.132   8.143  1.4341  1.5184 -0.0888
  130MOL0     H17876   9.894  10.200   8.246  2.9313 -1.5898  0.8858
  130MOL0     H17877   9.950   9.952   8.320 -0.4108 -1.5488 -0.3781
  130MOL0     H17878   9.872   9.903   8.174  3.7388 -0.6020 -2.0481
  130MOL0     H17879  10.038  10.081   8.057  0.1196 -0.2749 -0.4790
  130MOL0     H17880  10.117  10.092   8.199  0.6807  1.9191 -3.6977
  130MOL0     H17881  10.072   9.820   8.059 -0.4390 -1.9173  2.5056
  130MOL0     H17882  10.139   9.850   8.219 -3.3800 -2.7671 -0.8395
  130MOL0     H17883  10.245   9.980   7.963 -2.4436 -1.1887 -0.4556
  130MOL0     H17884  10.329   9.995   8.118 -2.1266  1.3234 -0.5675
  130MOL0     H17885  10.436   9.825   7.964 -0.4721  0.7889 -0.0010
  130MOL0     H17886  10.297   9.727   7.999  2.2615 -1.4929  0.6288
  130MOL0     H17887  10.353   9.768   8.259  1.2388 -2.4104  2.2543
  130MOL0     H17888  10.431   9.638   8.165  4.3865  0.9197  0.3131
  130MOL0     H17889  10.555  10.009   8.156 -0.2130 -1.3054 -0.8066
  130MOL0     H17890  10.813  10.103   8.180  0.7649  0.4063  2.2169
  130MOL0     H17891  10.921   9.979   8.220  0.9155 -0.0698 -0.7679
  130MOL0     H17892  10.705  10.091   8.429  0.2760  0.8159  1.0150
  130MOL0     H17893  10.864  10.024   8.472 -1.0879 -0.5840  0.7323
  130MOL0     H17894  10.968  10.217   8.383 -0.4204 -1.9414 -2.2608
  130MOL0     H17895  10.822  10.306   8.343  3.1838  1.0462  0.0352
  130MOL0     H17896  10.756  10.312   8.580 -1.3507  1.4517 -3.8926
  130MOL0     H17897  10.889  10.210   8.632  3.0730  1.1941  0.5763
  130MOL0     H17898  11.142  10.517   8.500 -0.9758  0.0561  0.0021
  130MOL0     H17899  11.351  10.587   8.481 -0.0784 -1.2988  0.3635
  130MOL0     H17900  11.465  10.456   8.523 -1.8670 -1.5606 -1.1199
  130MOL0     H17901  11.456  10.605   8.621 -0.8713  1.2085  0.9414
  130MOL0     H17902  11.477  10.570   9.132 -1.3419 -0.9730  0.6969
  130MOL0     H17903  11.688  10.610   9.258  2.5466 -0.2466 -0.2244
  130MOL0     H17904  11.930  10.621   9.221  0.6305 -0.4496 -1.1277
  130MOL0     H17905  11.899  10.577   9.387  0.9429  0.3880 -0.6109
  130MOL0     H17906  12.149  10.502   9.232 -0.2748 -0.9477  0.0037
  130MOL0     H17907  12.128  10.636   9.342 -0.3528 -0.3668  3.2133
  130MOL0     H17908  12.133  10.337   9.414  1.3726 -0.1316  1.4427
  130MOL0     H17909  12.074  10.450   9.535  3.0507  2.2860  1.9681
  130MOL0     H17910  12.290  10.570   9.524 -0.9294 -0.3762  1.2468
  130MOL0     H17911  12.334  10.463   9.391 -2.6487 -1.8084 -0.8235
  130MOL0     H17912  12.259  10.348   9.671 -0.1365 -1.8601  0.0569
  130MOL0     H17913  12.333  10.269   9.541 -0.0516  0.0550  1.7500
  130MOL0     H17914  12.446  10.478   9.722 -0.8748  0.0782 -0.2377
  130MOL0     H17915  12.522  10.442   9.563  0.2353  2.7163  1.5839
  130MOL0     H17916  12.641  10.313   9.731 -0.2535 -2.2990  2.4299
  130MOL0     H17917  12.551  10.210   9.616  0.7964  0.4519 -0.0820
  130MOL0     H17918  12.524  10.116   9.847 -0.4971 -1.8233 -3.1140
  130MOL0     H17919  12.371  10.162   9.788  0.8960 -2.3929  1.1364
  130MOL0     H17920  11.827  10.220   9.127 -0.8440 -0.5198  1.8705
  130MOL0     H17921  11.608  10.185   9.014  2.6498 -3.3030  3.7285
  130MOL0     H17922  11.205  10.287   8.930  1.2088  3.3819  2.3246
  130MOL0     H17923  10.987  10.266   8.788  0.7403 -1.0997  0.0681
  130MOL0     H17924   9.573   9.732   8.420 -2.4519 -1.2949 -1.1930
  130MOL0     H17925   9.388   9.688   8.550  2.0229 -1.2084  0.2864
  130MOL0     H17926   9.152   9.649   8.849  2.3786 -2.5689  2.1686
  130MOL0     H17927   8.974   9.538   8.967 -1.5756  0.5081  2.6109
  130MOL0     H17928   8.689   9.500   9.192  1.6710 -2.0209  3.6633
  130MOL0     H17929   8.781   9.487   9.042 -1.5445  1.4978 -0.8857
  130MOL0     H17930   8.997   9.471   9.187  0.8325 -1.2609  0.6318
  130MOL0     H17931   8.873   9.341   9.214  0.0825 -0.1885  1.9333
  130MOL0     H17932   8.927   9.586   9.405 -1.2174 -0.4983  0.0542
  130MOL0     H17933   8.793   9.468   9.420 -0.5033 -0.2777  0.5548
  130MOL0     H17934   8.992   9.444   9.568 -2.0806 -0.4580  0.3123
  130MOL0     H17935   9.094   9.422   9.420 -0.3941  1.0063 -0.5451
  130MOL0     H17936   8.914   9.049   9.487  0.9994  0.0003  2.0315
  130MOL0     H17937   8.857   9.905   9.141  1.1673 -0.8494  0.0929
  130MOL0     H17938   8.915  10.092   9.046 -0.2484 -1.4554  0.1003
  130MOL0     H17939   9.086  10.099   9.085  0.9500 -3.4827  1.0701
  130MOL0     H17940   9.020  10.106   8.909 -0.6124  2.5225  0.6830
  131MOL0     O17941   8.700   5.959   7.091  0.1570 -0.1201 -0.3500
  131MOL0     C17942   8.622   6.013   7.017 -0.2557 -0.2826 -0.1763
  131MOL0     O17943   8.634   6.017   6.880 -0.3150 -0.2429 -0.8030
  131MOL0     C17944   8.741   5.954   6.824  0.8820 -0.0169 -0.6561
  131MOL0     C17945   8.870   5.990   6.858  0.8974 -0.1376  0.1645
  131MOL0     C17946   8.986   5.936   6.811  0.1346 -0.9373  0.8474
  131MOL0     C17947   8.971   5.826   6.733  0.2279  0.1026  1.5428
  131MOL0     O17948   9.094   5.776   6.703  0.4967  0.5119  0.3124
  131MOL0     C17949   9.111   5.651   6.639  0.5877  0.1390 -0.9095
  131MOL0     C17950   9.260   5.617   6.661  1.2090 -0.4922 -0.3451
  131MOL0     C17951   9.274   5.537   6.796  0.2059 -0.2658  0.2282
  131MOL0     C17952   9.416   5.532   6.845 -0.4726  0.6363 -0.3645
  131MOL0     C17953   9.446   5.409   6.926 -0.7575 -0.8239  0.0453
  131MOL0     C17954   9.589   5.401   6.968 -0.7470  0.6215  0.1456
  131MOL0     C17955   9.618   5.263   7.043 -0.7514  0.0701 -0.3040
  131MOL0     C17956   9.635   5.146   6.936  0.7718  0.1763  0.1823
  131MOL0     N17957   9.742   5.057   6.966  0.1861  0.5148 -0.4966
  131MOL0     C17958   9.870   5.060   6.924  0.1429 -0.9760 -0.2572
  131MOL0     C17959   9.931   4.945   6.957  0.1307  0.2528 -0.8884
  131MOL0     C17960  10.074   4.885   6.939  0.9813  0.3717  0.6495
  131MOL0     C17961  10.187   4.956   7.024  0.9688 -0.6876 -0.3917
  131MOL0     C17962  10.327   4.906   6.999 -0.1885 -0.1501 -0.3060
  131MOL0     C17963  10.337   4.760   7.024 -0.5622 -0.0985 -0.1884
  131MOL0     O17964  10.475   4.728   7.028  0.6431 -0.0051  0.2578
  131MOL0     C17965  10.545   4.748   7.148  0.1899 -0.2304 -0.8200
  131MOL0     C17966  10.665   4.815   7.150 -0.3437  0.5402  0.6792
  131MOL0     C17967  10.751   4.819   7.260  0.2221  0.3443 -0.5018
  131MOL0     C17968  10.885   4.883   7.238 -0.5712  0.0132 -0.4625
  131MOL0     C17969  10.716   4.757   7.381 -0.1599 -0.1954  0.1245
  131MOL0     C17970  10.802   4.758   7.506 -0.3937 -0.2544 -0.1367
  131MOL0     O17971  10.904   4.851   7.517  0.4226 -0.0963  0.3701
  131MOL0     C17972  11.004   4.821   7.613  0.6026 -1.1861 -0.0873
  131MOL0     C17973  11.131   4.858   7.566  0.0619  0.3437  0.8757
  131MOL0     C17974  11.244   4.815   7.636 -0.0292  0.0284  0.7875
  131MOL0     C17975  11.231   4.738   7.757 -0.5432  0.8959  0.1317
  131MOL0     O17976  11.335   4.668   7.817 -0.5037  0.0695 -0.1995
  131MOL0     C17977  11.371   4.711   7.952  0.5099 -0.0910 -0.3096
  131MOL0     C17978  11.520   4.740   7.977  0.8407 -0.4179  0.8897
  131MOL0     C17979  11.554   4.789   8.120  0.0067  0.7294 -0.0728
  131MOL0     C17980  11.668   4.697   8.184  0.1200  0.3980 -0.6690
  131MOL0     C17981  11.802   4.725   8.106 -0.0576  0.0909 -0.2382
  131MOL0     C17982  11.907   4.614   8.122 -0.4043 -0.0223  0.3110
  131MOL0     C17983  12.028   4.625   8.020 -0.5890  0.1342  0.9681
  131MOL0     C17984  12.138   4.724   8.062  0.6021 -0.4330  0.0811
  131MOL0    Cl17985  12.292   4.704   7.978  0.1940  0.5679  0.4421
  131MOL0     C17986  11.103   4.717   7.804 -0.2352 -0.1126 -0.3873
  131MOL0     C17987  10.989   4.771   7.742  0.3163  0.3435 -0.3895
  131MOL0     O17988  10.778   4.664   7.590  0.4483  0.3384 -0.7826
  131MOL0     C17989  10.589   4.692   7.381  0.9843 -0.1900 -0.0150
  131MOL0     C17990  10.507   4.681   7.267  0.2499  1.6900  0.5455
  131MOL0     N17991   9.830   4.863   7.018 -0.2318  0.0150  0.8675
  131MOL0     N17992   9.723   4.934   7.026 -0.3335 -0.3154 -0.1286
  131MOL0     C17993   8.848   5.779   6.698  0.1909  0.5352  0.2495
  131MOL0     C17994   8.733   5.852   6.736  0.7844  0.3401 -0.8279
  131MOL0     C17995   8.497   6.069   7.073  0.8590 -0.3100  0.2885
  131MOL0     C17996   8.402   6.129   6.987 -0.1796 -0.1782 -0.2539
  131MOL0     C17997   8.286   6.177   7.039  0.5022 -0.6030 -0.0769
  131MOL0     C17998   8.259   6.175   7.169  0.4181  0.3193 -0.1025
  131MOL0     O17999   8.140   6.224   7.202  0.1619  0.4957  1.1525
  131MOL0     C18000   8.086   6.219   7.337  0.6044  0.5474  0.3699
  131MOL0     C18001   8.018   6.087   7.361  0.0606  0.6648  0.8373
  131MOL0     C18002   7.888   6.062   7.269  0.1278 -1.2778  0.4351
  131MOL0     C18003   7.785   6.180   7.277 -0.4409 -0.2939 -0.3199
  131MOL0     C18004   7.726   6.218   7.406 -0.6238 -0.1302  0.3370
  131MOL0     C18005   7.685   6.252   7.513 -0.0484  0.1608  0.0001
  131MOL0     C18006   8.354   6.120   7.265  0.3107 -0.4429 -0.2439
  131MOL0     C18007   8.468   6.060   7.210  0.1671  0.5194  0.1998
  131MOL0     C18008   8.548   5.993   7.318 -0.2332  0.2613  0.0486
  131MOL0     H18009   8.896   6.068   6.929  2.7302 -2.6584  2.4849
  131MOL0     H18010   9.084   5.966   6.848  0.5818 -2.1867  0.7492
  131MOL0     H18011   9.092   5.671   6.533  2.4202  2.1600 -0.9137
  131MOL0     H18012   9.054   5.572   6.689  1.9002 -0.3316 -0.0967
  131MOL0     H18013   9.288   5.547   6.582  0.5103  0.3656 -1.3860
  131MOL0     H18014   9.329   5.699   6.642  1.4648 -0.4853  0.5505
  131MOL0     H18015   9.208   5.582   6.871  0.8531  1.1826 -0.0436
  131MOL0     H18016   9.241   5.434   6.779 -0.1576  0.0996 -1.4258
  131MOL0     H18017   9.484   5.531   6.759  1.1968  0.8834  0.9123
  131MOL0     H18018   9.440   5.620   6.906  2.4265  0.4045 -1.0013
  131MOL0     H18019   9.424   5.319   6.868 -3.4952  0.5772 -1.2629
  131MOL0     H18020   9.382   5.417   7.015 -1.8304  1.0387 -0.8511
  131MOL0     H18021   9.665   5.403   6.890  1.4099  2.5163  2.1526
  131MOL0     H18022   9.619   5.483   7.034  1.8088  0.5793 -0.8552
  131MOL0     H18023   9.534   5.238   7.109  1.1692  1.4523  2.9235
  131MOL0     H18024   9.713   5.262   7.097 -2.1279 -0.5723  2.2921
  131MOL0     H18025   9.539   5.095   6.921  1.0682 -0.0970 -0.8265
  131MOL0     H18026   9.646   5.202   6.843 -0.8052  2.2034  1.1056
  131MOL0     H18027   9.920   5.147   6.881  1.4862 -1.1946  0.7698
  131MOL0     H18028  10.104   4.892   6.834 -1.0316 -0.8877 -0.0541
  131MOL0     H18029  10.069   4.777   6.952  1.2961 -0.1374 -2.5750
  131MOL0     H18030  10.179   5.063   7.002 -2.5943 -0.5778  0.7141
  131MOL0     H18031  10.155   4.952   7.129  3.1306  1.0887  0.4210
  131MOL0     H18032  10.357   4.927   6.896  0.5947 -1.2311 -0.3145
  131MOL0     H18033  10.394   4.970   7.056 -1.5295  0.1206  1.0364
  131MOL0     H18034  10.285   4.730   7.116  0.8755 -5.9371 -0.8667
  131MOL0     H18035  10.297   4.705   6.938 -0.7386 -0.0678 -0.1269
  131MOL0     H18036  10.703   4.842   7.052  0.7634  3.5940  1.8079
  131MOL0     H18037  10.966   4.812   7.256 -1.9551 -1.4101  0.3608
  131MOL0     H18038  10.897   4.965   7.309 -4.3045  1.4508 -1.2465
  131MOL0     H18039  10.896   4.930   7.139 -0.1043 -0.6670 -0.7438
  131MOL0     H18040  11.144   4.915   7.475 -2.8676  0.0822  0.1795
  131MOL0     H18041  11.343   4.826   7.593 -0.3771 -0.0720 -0.0676
  131MOL0     H18042  11.307   4.796   7.974  0.4828 -0.2997  0.4680
  131MOL0     H18043  11.338   4.638   8.028  0.2958  2.3909  2.1442
  131MOL0     H18044  11.566   4.645   7.947  4.0676  1.5737 -1.0822
  131MOL0     H18045  11.553   4.814   7.903 -0.9696 -0.1727  0.2735
  131MOL0     H18046  11.466   4.777   8.184 -0.5640 -2.0599 -1.2067
  131MOL0     H18047  11.583   4.894   8.110  2.9248 -0.1675 -3.1547
  131MOL0     H18048  11.633   4.594   8.179  1.0141  0.0045  0.6147
  131MOL0     H18049  11.682   4.707   8.292  0.0762 -0.7145 -0.5467
  131MOL0     H18050  11.784   4.736   7.999 -1.0830  0.5259 -0.0266
  131MOL0     H18051  11.856   4.814   8.140  1.1707  0.3006 -2.5202
  131MOL0     H18052  11.863   4.516   8.105 -3.7591  1.4930 -0.6858
  131MOL0     H18053  11.951   4.608   8.222 -0.8738  3.0025  0.7941
  131MOL0     H18054  11.995   4.654   7.920  1.3412 -0.6707  0.0677
  131MOL0     H18055  12.067   4.523   8.018  1.3056  0.8190  1.1137
  131MOL0     H18056  12.151   4.733   8.170  2.0727 -1.1794 -0.0218
  131MOL0     H18057  12.102   4.819   8.019  1.5674 -0.5562 -1.0566
  131MOL0     H18058  11.095   4.663   7.898 -0.7252  1.0696  0.2716
  131MOL0     H18059  10.896   4.740   7.788  0.9658 -2.1271 -0.5982
  131MOL0     H18060  10.543   4.635   7.461 -2.5560  0.9024 -1.0977
  131MOL0     H18061  10.415   4.623   7.264  2.0320 -1.2829 -1.1052
  131MOL0     H18062   8.843   5.695   6.629  1.1756 -0.1029  0.9327
  131MOL0     H18063   8.639   5.806   6.706  2.4918 -1.8950 -3.0821
  131MOL0     H18064   8.420   6.118   6.880  2.4671 -1.4269  0.2457
  131MOL0     H18065   8.217   6.216   6.964  2.4802 -0.8565 -2.1294
  131MOL0     H18066   8.159   6.235   7.417  1.0388 -0.7462  0.2476
  131MOL0     H18067   8.011   6.299   7.341  0.2113  0.1980  0.0784
  131MOL0     H18068   7.969   6.094   7.459  3.1020  0.5978  2.4780
  131MOL0     H18069   8.088   6.004   7.375 -0.7710  0.1701  2.2577
  131MOL0     H18070   7.910   6.052   7.162 -0.4735 -1.6835  0.3442
  131MOL0     H18071   7.836   5.973   7.305  0.0947 -0.6723  1.9479
  131MOL0     H18072   7.705   6.160   7.205 -0.5236  0.5839 -0.4878
  131MOL0     H18073   7.825   6.276   7.243 -4.0939  1.8212  0.8389
  131MOL0     H18074   7.643   6.289   7.604 -0.3745  1.2957 -0.5870
  131MOL0     H18075   8.337   6.108   7.371 -0.5840 -4.2830 -0.6815
  131MOL0     H18076   8.649   6.035   7.318 -0.4366  0.8593  2.1337
  131MOL0     H18077   8.509   6.022   7.416  1.2502  1.4793  0.3286
  131MOL0     H18078   8.551   5.884   7.308 -0.2861  0.4039 -1.8227
  132MOL0     O18079   4.510   1.612   0.160  0.1598  0.1639 -0.9773
  132MOL0     C18080   4.537   1.494   0.131 -0.1537 -0.2040 -0.6300
  132MOL0     O18081   4.654   1.453   0.075  0.6298 -0.2743  0.8748
  132MOL0     C18082   4.742   1.535   0.015  0.0931 -0.4663 -0.2207
  132MOL0     C18083   4.779   1.666   0.061 -0.0518  0.9015  0.2535
  132MOL0     C18084   4.887   1.734  -0.011 -0.3986  0.3984 -0.9776
  132MOL0     C18085   4.958   1.672  -0.111  1.2025 -0.2083  0.3370
  132MOL0     O18086   5.058   1.746  -0.170 -1.0069  0.2494 -0.3701
  132MOL0     C18087   5.166   1.666  -0.204 -0.1645 -0.6039 -0.8713
  132MOL0     C18088   5.286   1.759  -0.226 -0.5707  0.2855 -0.2584
  132MOL0     C18089   5.387   1.685  -0.312 -0.7544  0.4509  0.4642
  132MOL0     C18090   5.522   1.681  -0.241 -0.9001 -0.8464  0.2584
  132MOL0     C18091   5.637   1.589  -0.307 -0.0323  0.3359  0.2525
  132MOL0     C18092   5.679   1.656  -0.445 -0.1749 -0.1450 -0.2486
  132MOL0     C18093   5.802   1.613  -0.526 -0.1101 -0.2091 -0.4343
  132MOL0     C18094   5.920   1.703  -0.471  0.2969 -0.2867 -0.0889
  132MOL0     N18095   6.046   1.638  -0.506  0.1237 -0.1388 -0.1384
  132MOL0     C18096   6.074   1.505  -0.477 -0.3529 -0.0006  0.6787
  132MOL0     C18097   6.201   1.485  -0.518 -0.1351 -0.1758 -1.1722
  132MOL0     C18098   6.285   1.365  -0.514  0.4251  0.1718 -0.3035
  132MOL0     C18099   6.408   1.366  -0.605  0.2664 -0.4687  0.0902
  132MOL0     C18100   6.476   1.230  -0.618 -0.0653  0.1374 -0.2790
  132MOL0     C18101   6.597   1.239  -0.712  0.4360  0.2105 -0.4370
  132MOL0     O18102   6.696   1.330  -0.661 -0.6221 -0.1121 -0.3023
  132MOL0     C18103   6.818   1.334  -0.728 -1.3545  0.2949  0.2371
  132MOL0     C18104   6.883   1.458  -0.732 -0.7010 -0.6662  0.0404
  132MOL0     C18105   7.000   1.475  -0.808 -0.1739 -0.3561  0.4463
  132MOL0     C18106   7.051   1.622  -0.793 -0.4755  0.6078 -0.2798
  132MOL0     C18107   7.069   1.374  -0.875  0.4417 -0.0679  0.4977
  132MOL0     C18108   7.195   1.391  -0.952  1.1560  1.0094 -0.1793
  132MOL0     O18109   7.264   1.275  -0.985 -0.2928 -0.2419  0.4668
  132MOL0     C18110   7.367   1.281  -1.084  0.7052  0.3232 -0.6198
  132MOL0     C18111   7.437   1.161  -1.093  0.3291 -0.0239  0.1045
  132MOL0     C18112   7.566   1.155  -1.161  0.0852  0.4794  0.1314
  132MOL0     C18113   7.624   1.261  -1.233 -0.5155  0.2005  0.1034
  132MOL0     O18114   7.742   1.247  -1.306 -0.1165 -0.1299 -0.2716
  132MOL0     C18115   7.825   1.361  -1.338 -0.0087  0.1560 -0.8124
  132MOL0     C18116   7.956   1.314  -1.403 -0.1570 -0.5486  0.2971
  132MOL0     C18117   8.076   1.378  -1.346  0.6289 -0.0219  0.0696
  132MOL0     C18118   8.198   1.345  -1.435 -1.0990 -0.3962 -0.1987
  132MOL0     C18119   8.329   1.354  -1.358 -0.6905  0.5671 -0.9555
  132MOL0     C18120   8.449   1.332  -1.454  0.3133 -0.3241 -1.1967
  132MOL0     C18121   8.458   1.206  -1.532 -0.0539  0.2740 -0.1184
  132MOL0     C18122   8.518   1.092  -1.463 -1.0149 -0.0777 -0.8109
  132MOL0    Cl18123   8.423   1.014  -1.333 -0.1489  0.1086  0.1086
  132MOL0     C18124   7.542   1.387  -1.222 -0.3495  0.6306  0.0505
  132MOL0     C18125   7.415   1.389  -1.155 -0.2433 -0.2434 -0.4798
  132MOL0     O18126   7.232   1.501  -0.970  0.5255 -0.3300  0.2498
  132MOL0     C18127   7.001   1.245  -0.863 -1.3241 -0.5265  0.1325
  132MOL0     C18128   6.890   1.227  -0.777 -0.6417 -0.4275  0.5616
  132MOL0     N18129   6.249   1.611  -0.565  0.6139  0.1501  0.1565
  132MOL0     N18130   6.152   1.698  -0.563  0.3217  0.0301 -0.9713
  132MOL0     C18131   4.921   1.541  -0.146 -0.1514  0.0199  0.4510
  132MOL0     C18132   4.811   1.482  -0.095 -0.1736  0.1107  0.9412
  132MOL0     C18133   4.436   1.394   0.181  0.0987  0.3662  0.4927
  132MOL0     C18134   4.305   1.451   0.220  0.3387 -0.1568  0.7593
  132MOL0     C18135   4.204   1.365   0.266 -0.1669  0.0328  0.0724
  132MOL0     C18136   4.225   1.223   0.282  0.8575  0.5064 -0.3142
  132MOL0     O18137   4.120   1.143   0.327  0.8228 -0.0613 -0.2182
  132MOL0     C18138   4.162   1.012   0.385  0.3585 -0.4754  0.3589
  132MOL0     C18139   4.051   0.934   0.449 -0.1018 -0.0896 -0.4132
  132MOL0     C18140   3.948   0.880   0.348 -0.1206  0.6061  0.6671
  132MOL0     C18141   3.823   0.828   0.435 -0.1487 -0.2551  0.0650
  132MOL0     C18142   3.856   0.700   0.491  0.2913 -1.3022 -0.7398
  132MOL0     C18143   3.894   0.588   0.529  0.4435  0.4075  0.1765
  132MOL0     C18144   4.350   1.174   0.233 -0.6357  0.6931 -0.3207
  132MOL0     C18145   4.458   1.257   0.193  0.6188  0.3777 -0.2226
  132MOL0     C18146   4.586   1.195   0.147  0.1839 -0.7152 -0.1287
  132MOL0     H18147   4.734   1.700   0.153  0.9292  0.1399  1.0462
  132MOL0     H18148   4.920   1.832   0.023  0.2778  0.1333 -0.8502
  132MOL0     H18149   5.139   1.632  -0.304  0.5457  0.5220 -1.4617
  132MOL0     H18150   5.189   1.579  -0.143 -0.1856 -0.3124 -0.4394
  132MOL0     H18151   5.245   1.847  -0.276  0.9928  3.0929  2.9746
  132MOL0     H18152   5.332   1.785  -0.130  3.2161  3.2841 -2.6427
  132MOL0     H18153   5.351   1.588  -0.346 -0.9783  0.2611  1.2296
  132MOL0     H18154   5.417   1.741  -0.401  2.3137 -0.2008  0.9712
  132MOL0     H18155   5.559   1.784  -0.241 -1.3892 -0.6493 -0.9434
  132MOL0     H18156   5.505   1.642  -0.140 -6.3556  0.3922  0.1097
  132MOL0     H18157   5.589   1.491  -0.307 -0.4797  0.5156  1.8517
  132MOL0     H18158   5.726   1.568  -0.247  3.2170 -1.4168 -4.5851
  132MOL0     H18159   5.594   1.647  -0.513 -2.3853  3.7626  1.6424
  132MOL0     H18160   5.697   1.762  -0.424  2.2314 -0.8778  1.9414
  132MOL0     H18161   5.795   1.643  -0.631  2.2402  0.2852 -0.4857
  132MOL0     H18162   5.813   1.507  -0.499 -1.0066 -0.2789 -0.2932
  132MOL0     H18163   5.910   1.801  -0.519 -0.1497 -1.7508 -3.2910
  132MOL0     H18164   5.923   1.713  -0.362  2.2294  0.3967 -0.1634
  132MOL0     H18165   6.005   1.432  -0.436 -0.3568  0.6917  1.9633
  132MOL0     H18166   6.219   1.279  -0.528  0.2194  0.2975 -0.1069
  132MOL0     H18167   6.318   1.374  -0.410 -1.9006  0.7647  0.4315
  132MOL0     H18168   6.358   1.388  -0.699 -1.2129  3.3135  1.5567
  132MOL0     H18169   6.470   1.454  -0.585 -2.1623  2.5600 -4.0526
  132MOL0     H18170   6.516   1.198  -0.521  2.9263 -0.5756 -1.6245
  132MOL0     H18171   6.412   1.148  -0.650  3.3415 -2.6389 -0.6902
  132MOL0     H18172   6.648   1.145  -0.734 -0.3028 -0.6742  1.4159
  132MOL0     H18173   6.566   1.276  -0.810  0.9045  1.3258 -0.1787
  132MOL0     H18174   6.835   1.548  -0.696  0.7801  0.2820 -0.2418
  132MOL0     H18175   7.054   1.673  -0.889 -0.1826  1.4797  0.1788
  132MOL0     H18176   7.151   1.641  -0.751  0.7644 -1.7117 -1.9587
  132MOL0     H18177   6.988   1.686  -0.731 -1.1481  1.1255 -1.4725
  132MOL0     H18178   7.405   1.072  -1.039  3.8906 -2.8944 -2.0574
  132MOL0     H18179   7.619   1.060  -1.150 -2.8308 -1.1117  2.0155
  132MOL0     H18180   7.772   1.432  -1.401  0.3507  0.0986 -1.1859
  132MOL0     H18181   7.847   1.417  -1.247  0.3170 -0.0018 -0.7924
  132MOL0     H18182   7.960   1.206  -1.386 -2.4688 -0.6934  0.3109
  132MOL0     H18183   7.942   1.327  -1.511 -4.1381 -2.6557  0.3757
  132MOL0     H18184   8.097   1.347  -1.243 -1.0314  1.2966  0.8659
  132MOL0     H18185   8.060   1.486  -1.343 -0.8819 -0.2082  3.6901
  132MOL0     H18186   8.193   1.417  -1.517 -1.6384  1.9232  1.7573
  132MOL0     H18187   8.190   1.241  -1.467  1.3846 -0.7366  0.0619
  132MOL0     H18188   8.332   1.444  -1.296 -0.0332  1.2590 -1.9417
  132MOL0     H18189   8.342   1.268  -1.293 -3.8016  1.0277  0.4537
  132MOL0     H18190   8.549   1.336  -1.409  0.5650  1.5867 -1.8441
  132MOL0     H18191   8.444   1.419  -1.519 -0.1046  0.0585 -0.6620
  132MOL0     H18192   8.519   1.238  -1.616 -0.4810 -2.7658 -1.7239
  132MOL0     H18193   8.358   1.178  -1.567 -0.8383  0.9676  1.4440
  132MOL0     H18194   8.617   1.117  -1.423  0.1411 -2.9466 -1.6309
  132MOL0     H18195   8.530   1.019  -1.543 -2.6195  0.3402 -1.4815
  132MOL0     H18196   7.568   1.471  -1.286  0.6366 -0.7481 -1.4325
  132MOL0     H18197   7.357   1.481  -1.166 -0.6979 -0.6611 -1.7402
  132MOL0     H18198   7.037   1.153  -0.908  1.3524  1.4763 -2.2040
  132MOL0     H18199   6.844   1.129  -0.768 -3.7783  0.9250  0.7540
  132MOL0     H18200   4.977   1.479  -0.216 -0.7971 -2.1371  1.7547
  132MOL0     H18201   4.782   1.383  -0.128  2.6135 -0.3943 -0.2691
  132MOL0     H18202   4.286   1.557   0.229 -2.5936 -0.3564 -1.2671
  132MOL0     H18203   4.107   1.404   0.296  0.3499  1.6282 -0.2146
  132MOL0     H18204   4.196   0.943   0.307  0.7130  0.3041 -0.1883
  132MOL0     H18205   4.239   1.018   0.463 -1.1676  0.9114  1.8556
  132MOL0     H18206   4.001   1.010   0.510  2.7098 -0.1657  2.2541
  132MOL0     H18207   4.090   0.853   0.511 -1.2385 -1.3961 -1.3643
  132MOL0     H18208   3.919   0.956   0.275  3.0818 -0.3832 -1.9055
  132MOL0     H18209   3.989   0.801   0.284 -3.0684 -0.7715  0.3548
  132MOL0     H18210   3.724   0.834   0.387 -1.3838 -2.9125  2.0231
  132MOL0     H18211   3.826   0.897   0.520  1.3122  1.6477 -1.4345
  132MOL0     H18212   3.915   0.488   0.560 -2.8624 -1.0233 -1.7000
  132MOL0     H18213   4.373   1.069   0.246  0.7943  1.0519  0.1458
  132MOL0     H18214   4.600   1.203   0.039 -0.4585 -0.4434 -0.1975
  132MOL0     H18215   4.670   1.243   0.196 -1.0065  0.4640  0.8254
  132MOL0     H18216   4.587   1.088   0.172 -2.1861 -0.5952  0.8082
  133MOL0     O18217   0.968   7.243   0.985 -0.1937 -0.2762  0.0006
  133MOL0     C18218   0.911   7.292   0.884 -0.5049 -0.2510 -0.5524
  133MOL0     O18219   0.974   7.375   0.796  0.3750 -0.4441  0.0932
  133MOL0     C18220   1.116   7.384   0.784  0.2927  0.3931  0.0520
  133MOL0     C18221   1.158   7.515   0.764  0.3222  0.0797  0.0532
  133MOL0     C18222   1.291   7.539   0.760 -0.8181 -0.2611  0.2868
  133MOL0     C18223   1.387   7.442   0.771 -0.2499  0.3994  0.4522
  133MOL0     O18224   1.523   7.458   0.762 -0.5379 -0.1471 -0.0415
  133MOL0     C18225   1.590   7.583   0.750 -0.1536 -0.6109 -0.3739
  133MOL0     C18226   1.698   7.585   0.858 -0.0417  0.5775 -0.4199
  133MOL0     C18227   1.796   7.466   0.840 -0.2576 -0.0725  0.1451
  133MOL0     C18228   1.941   7.508   0.847  0.9362  0.1414 -0.4630
  133MOL0     C18229   2.046   7.397   0.834  0.7493 -0.1363 -0.2051
  133MOL0     C18230   2.036   7.326   0.705  0.1667 -0.4316  0.3346
  133MOL0     C18231   2.152   7.227   0.697 -0.2371 -0.5293  0.2787
  133MOL0     C18232   2.142   7.168   0.560  0.4574 -0.2315  0.3914
  133MOL0     N18233   2.217   7.044   0.555 -0.2564 -0.7375  0.8132
  133MOL0     C18234   2.345   7.035   0.496 -0.9838 -0.6110  0.6354
  133MOL0     C18235   2.381   6.905   0.500 -0.7479 -0.7750 -0.2027
  133MOL0     C18236   2.506   6.850   0.442 -0.7979 -0.8804  1.1347
  133MOL0     C18237   2.546   6.712   0.495 -0.0438 -1.1548 -0.2722
  133MOL0     C18238   2.632   6.724   0.623 -0.3720  0.7574 -0.4952
  133MOL0     C18239   2.548   6.768   0.744  0.4085 -0.0746 -0.0949
  133MOL0     O18240   2.561   6.909   0.746  0.2768 -0.3537 -0.6453
  133MOL0     C18241   2.504   6.975   0.853 -0.4354  0.5684  0.4588
  133MOL0     C18242   2.422   6.918   0.947  0.3399  0.2664  0.6528
  133MOL0     C18243   2.346   7.003   1.031 -0.1590  0.2714 -0.2152
  133MOL0     C18244   2.243   6.922   1.103  0.0662 -0.5578 -0.4774
  133MOL0     C18245   2.369   7.142   1.051 -0.1471 -0.4174  1.1043
  133MOL0     C18246   2.302   7.232   1.153  0.4963  0.5209 -0.4794
  133MOL0     O18247   2.328   7.363   1.139 -0.4406 -0.6851 -0.0990
  133MOL0     C18248   2.298   7.444   1.251 -0.2373  0.2599  0.3340
  133MOL0     C18249   2.396   7.457   1.349  0.1947 -0.0509 -0.4280
  133MOL0     C18250   2.359   7.535   1.464  0.0499 -0.2750  0.4469
  133MOL0     C18251   2.229   7.582   1.477 -0.3455 -0.4948 -0.0905
  133MOL0     O18252   2.201   7.652   1.593  0.7343  0.3817  0.0166
  133MOL0     C18253   2.068   7.659   1.644  0.2366  0.4704  0.1347
  133MOL0     C18254   2.073   7.769   1.742  0.5639 -0.1795 -0.8115
  133MOL0     C18255   2.074   7.907   1.673 -0.8544 -0.2732 -0.1001
  133MOL0     C18256   2.016   8.015   1.767 -0.4507 -0.3862  0.1912
  133MOL0     C18257   2.127   8.104   1.819 -0.3457 -0.0246  0.0087
  133MOL0     C18258   2.226   8.028   1.914  0.0657 -0.3787  0.0266
  133MOL0     C18259   2.300   8.145   1.990  0.5010  0.1527 -0.2710
  133MOL0     C18260   2.406   8.098   2.087 -0.5966  0.2767  0.1034
  133MOL0    Cl18261   2.328   7.995   2.209  0.4558 -0.0432  0.5934
  133MOL0     C18262   2.147   7.575   1.374  0.1485  0.4643 -0.1526
  133MOL0     C18263   2.180   7.506   1.261 -0.5501  0.0405  0.4913
  133MOL0     O18264   2.222   7.186   1.231  0.0375 -0.2281  0.0974
  133MOL0     C18265   2.465   7.195   0.957 -0.0470  0.8094  0.3210
  133MOL0     C18266   2.525   7.111   0.851 -0.0965 -1.0306 -0.5433
  133MOL0     N18267   2.274   6.838   0.548 -0.0857 -0.4573  0.0151
  133MOL0     N18268   2.180   6.919   0.584  0.2721  0.8691 -0.2596
  133MOL0     C18269   1.339   7.305   0.789 -0.8771  0.0119 -0.3243
  133MOL0     C18270   1.209   7.277   0.791  0.3882  0.6272 -0.3928
  133MOL0     C18271   0.765   7.259   0.860 -0.5674 -0.4803  0.1514
  133MOL0     C18272   0.707   7.165   0.947  0.0489 -0.7643  0.5928
  133MOL0     C18273   0.573   7.123   0.940  0.1037 -0.7243  0.4051
  133MOL0     C18274   0.493   7.177   0.842  0.7354 -0.3290  0.6441
  133MOL0     O18275   0.351   7.170   0.828 -1.2867  0.1507 -0.6102
  133MOL0     C18276   0.280   7.126   0.945  0.0823 -0.1727 -0.8442
  133MOL0     C18277   0.128   7.169   0.937  0.3337  0.4691  0.1153
  133MOL0     C18278   0.046   7.090   0.828 -0.8708 -0.2924 -0.1788
  133MOL0     C18279  -0.102   7.123   0.825 -0.4904 -0.1591  1.1759
  133MOL0     C18280  -0.157   7.109   0.964  0.0824  0.3822 -0.7700
  133MOL0     C18281  -0.198   7.103   1.080  0.9230  0.7944  0.1396
  133MOL0     C18282   0.555   7.270   0.746 -0.7552  0.8511 -0.0385
  133MOL0     C18283   0.687   7.312   0.754 -0.8577 -0.3121 -0.7935
  133MOL0     C18284   0.735   7.416   0.649  0.7838  0.5796 -0.0789
  133MOL0     H18285   1.085   7.595   0.761  1.0901  0.7761 -0.5964
  133MOL0     H18286   1.322   7.641   0.742  0.1449 -0.8991 -2.0649
  133MOL0     H18287   1.529   7.671   0.775  1.8527  0.1602  2.2508
  133MOL0     H18288   1.635   7.586   0.651 -3.5178  0.8965 -2.0245
  133MOL0     H18289   1.758   7.677   0.856 -0.8917  1.3198  2.8841
  133MOL0     H18290   1.650   7.587   0.956  0.0054 -1.9454 -0.2672
  133MOL0     H18291   1.783   7.398   0.925 -2.1878 -0.5707 -0.5058
  133MOL0     H18292   1.777   7.406   0.751  0.9964 -1.1689  0.5696
  133MOL0     H18293   1.950   7.580   0.765 -0.1392  1.6258  0.6623
  133MOL0     H18294   1.971   7.565   0.936 -2.0907 -0.0763  0.8343
  133MOL0     H18295   2.022   7.327   0.914  1.0822 -1.2244 -1.0394
  133MOL0     H18296   2.144   7.444   0.843  0.2447  1.6194 -2.5992
  133MOL0     H18297   1.944   7.268   0.692 -0.4197  0.5151  0.2040
  133MOL0     H18298   2.031   7.405   0.629 -3.0293 -0.8448 -0.0101
  133MOL0     H18299   2.135   7.142   0.764  3.7912 -0.4919  1.6422
  133MOL0     H18300   2.253   7.260   0.723  0.9617 -2.6713 -1.2744
  133MOL0     H18301   2.040   7.148   0.526  0.8487  0.9129 -1.6525
  133MOL0     H18302   2.187   7.235   0.485  1.1642 -2.4789 -1.3045
  133MOL0     H18303   2.404   7.119   0.461  1.4915 -1.9505  1.3456
  133MOL0     H18304   2.584   6.922   0.469 -1.3020 -0.2408  0.9298
  133MOL0     H18305   2.495   6.841   0.334 -1.2429 -3.7587  1.3519
  133MOL0     H18306   2.451   6.669   0.529 -0.9943  1.4625  0.5673
  133MOL0     H18307   2.601   6.650   0.423 -0.9888 -0.7611 -1.3620
  133MOL0     H18308   2.680   6.626   0.636  0.9887  1.7019  2.4911
  133MOL0     H18309   2.718   6.787   0.601  1.4393 -1.7468 -1.0668
  133MOL0     H18310   2.447   6.726   0.745  0.5817 -0.5031 -0.3442
  133MOL0     H18311   2.603   6.737   0.833  0.2118  0.9442  0.3919
  133MOL0     H18312   2.409   6.810   0.948  2.1126  0.0189  0.1337
  133MOL0     H18313   2.228   6.817   1.075  0.9874 -0.3381 -1.8844
  133MOL0     H18314   2.150   6.975   1.082  0.2361  0.7398  1.7698
  133MOL0     H18315   2.260   6.912   1.211 -0.6860  1.1223 -0.1822
  133MOL0     H18316   2.494   7.413   1.336  0.7488  1.2653 -0.9090
  133MOL0     H18317   2.434   7.563   1.538 -1.1054  1.2819  1.0803
  133MOL0     H18318   1.982   7.679   1.579 -0.8680  3.3583  2.2676
  133MOL0     H18319   2.060   7.561   1.692  1.5591  0.4595  0.3790
  133MOL0     H18320   1.988   7.760   1.811  0.9218 -0.6658 -0.4237
  133MOL0     H18321   2.163   7.759   1.804 -0.1843 -0.1193  0.3216
  133MOL0     H18322   2.016   7.894   1.581  1.4165 -1.7553 -1.4222
  133MOL0     H18323   2.177   7.923   1.639 -0.8466  0.1446  0.1120
  133MOL0     H18324   1.967   7.982   1.859 -0.0690  1.3338  1.0673
  133MOL0     H18325   1.949   8.085   1.715  0.0755  1.5541  1.9528
  133MOL0     H18326   2.180   8.141   1.731 -0.1068 -1.8822 -0.6847
  133MOL0     H18327   2.090   8.191   1.873  1.2389 -1.6739  4.1152
  133MOL0     H18328   2.286   7.952   1.864  0.0300 -1.2884  1.3296
  133MOL0     H18329   2.180   7.979   2.000  3.7098 -0.3619  2.1784
  133MOL0     H18330   2.239   8.199   2.063  4.3820  0.2547  3.2806
  133MOL0     H18331   2.332   8.213   1.910 -1.7977 -0.0985 -1.5055
  133MOL0     H18332   2.441   8.185   2.142  0.7686 -1.5852  2.3563
  133MOL0     H18333   2.484   8.041   2.035 -1.3308  0.0390 -0.7721
  133MOL0     H18334   2.047   7.617   1.381  0.5929  1.2922  1.9963
  133MOL0     H18335   2.111   7.497   1.178  0.0772 -1.8706  0.1193
  133MOL0     H18336   2.475   7.302   0.944  1.1649  0.5469 -1.1832
  133MOL0     H18337   2.585   7.155   0.773 -0.1654 -1.6711 -0.9603
  133MOL0     H18338   1.416   7.238   0.825 -1.9224 -0.0131  2.0547
  133MOL0     H18339   1.161   7.181   0.809 -0.4455  0.9883 -0.6027
  133MOL0     H18340   0.753   7.117   1.033 -0.3797 -3.0249 -0.3499
  133MOL0     H18341   0.538   7.060   1.021  0.6606  0.8550  1.9618
  133MOL0     H18342   0.286   7.016   0.948  0.4195 -0.1315  0.5109
  133MOL0     H18343   0.322   7.163   1.038 -0.2922 -0.0620 -0.7194
  133MOL0     H18344   0.119   7.277   0.921  0.9593  0.5406  0.2078
  133MOL0     H18345   0.088   7.147   1.036 -1.1614 -2.8556 -1.0758
  133MOL0     H18346   0.086   7.123   0.731  2.4812  1.4270  1.6092
  133MOL0     H18347   0.066   6.983   0.835 -0.8486 -0.2567  0.3459
  133MOL0     H18348  -0.155   7.053   0.760  1.5420 -0.0120 -0.7528
  133MOL0     H18349  -0.128   7.226   0.801  2.4819  0.7870  1.5767
  133MOL0     H18350  -0.248   7.085   1.173 -0.3805 -1.4166 -0.9185
  133MOL0     H18351   0.491   7.306   0.667 -4.6977 -4.5349  0.1367
  133MOL0     H18352   0.810   7.373   0.582  0.7912  0.2574  0.1338
  133MOL0     H18353   0.661   7.448   0.574  1.3414  2.1485 -0.0048
  133MOL0     H18354   0.776   7.502   0.704  1.4382 -0.6379  1.3987
  134MOL0     O18355   6.335   1.093   3.923  0.5059  0.1083 -0.0929
  134MOL0     C18356   6.268   1.162   3.848  0.4272 -0.1511  0.3729
  134MOL0     O18357   6.310   1.271   3.786 -0.6418  0.1271 -0.0356
  134MOL0     C18358   6.442   1.269   3.760 -0.6440 -0.5952 -0.2669
  134MOL0     C18359   6.501   1.387   3.783  0.5796  0.3649 -0.1251
  134MOL0     C18360   6.632   1.408   3.767 -0.9637  0.1806 -1.1063
  134MOL0     C18361   6.709   1.302   3.706 -0.1245 -0.1310  0.5481
  134MOL0     O18362   6.840   1.324   3.680  0.4468  0.2100 -0.3935
  134MOL0     C18363   6.874   1.309   3.540 -0.9062  0.1722  0.1620
  134MOL0     C18364   6.966   1.425   3.497 -0.5984 -0.0337 -0.3921
  134MOL0     C18365   7.098   1.415   3.556  0.1801  0.2664  0.4022
  134MOL0     C18366   7.184   1.534   3.532  0.4068 -0.3575 -0.5051
  134MOL0     C18367   7.333   1.505   3.586  0.1943  0.7144 -0.1773
  134MOL0     C18368   7.409   1.417   3.492 -0.1518 -0.5404 -0.0965
  134MOL0     C18369   7.548   1.379   3.541  0.4211  0.4585 -0.1818
  134MOL0     C18370   7.647   1.500   3.549 -0.1076  0.2782 -0.8413
  134MOL0     N18371   7.778   1.451   3.563  0.0817  0.4529  0.6449
  134MOL0     C18372   7.865   1.428   3.461 -0.4370 -0.3171 -0.5216
  134MOL0     C18373   7.983   1.387   3.509 -0.0239  0.6172 -0.4856
  134MOL0     C18374   8.106   1.333   3.447 -0.4163 -0.1285 -0.6653
  134MOL0     C18375   8.224   1.427   3.485 -0.6204 -0.0296 -0.3612
  134MOL0     C18376   8.299   1.408   3.616 -0.1018 -0.1339  0.0173
  134MOL0     C18377   8.396   1.295   3.615 -0.5557 -0.3006 -0.0604
  134MOL0     O18378   8.509   1.332   3.540  0.0778  0.2511 -0.6913
  134MOL0     C18379   8.612   1.241   3.543  0.2054  0.1129  0.0332
  134MOL0     C18380   8.607   1.108   3.575 -0.4384  0.1869  0.5075
  134MOL0     C18381   8.722   1.032   3.575 -0.7711  0.2917  0.8113
  134MOL0     C18382   8.704   0.881   3.604 -0.0291 -0.3589 -0.3769
  134MOL0     C18383   8.852   1.092   3.558 -0.1500 -0.6657 -0.1778
  134MOL0     C18384   8.986   1.020   3.558 -0.1549  0.5038 -0.2788
  134MOL0     O18385   9.095   1.101   3.550  0.0413  0.0786  0.5252
  134MOL0     C18386   9.218   1.043   3.535 -0.2062  0.4797 -0.2771
  134MOL0     C18387   9.280   0.967   3.642 -0.3086  1.2072 -0.3082
  134MOL0     C18388   9.415   0.925   3.626  0.8364 -0.4542 -0.3152
  134MOL0     C18389   9.486   0.975   3.516 -0.3574 -0.4637  0.3539
  134MOL0     O18390   9.620   0.940   3.515  0.6601  0.0539 -0.3698
  134MOL0     C18391   9.714   0.967   3.416 -0.3327  0.0448  0.2760
  134MOL0     C18392   9.857   0.939   3.458 -0.5668  0.5351  0.2315
  134MOL0     C18393   9.959   0.987   3.358  0.4745 -0.9689 -0.3512
  134MOL0     C18394  10.103   0.931   3.379  0.4196  0.1657 -0.2413
  134MOL0     C18395  10.187   0.951   3.244 -0.6901  0.1456  0.4957
  134MOL0     C18396  10.307   0.859   3.244 -1.0099 -0.0010  0.2468
  134MOL0     C18397  10.417   0.903   3.354  0.6836  0.1237  0.8310
  134MOL0     C18398  10.539   0.826   3.311 -0.2929 -0.2056  0.3344
  134MOL0    Cl18399  10.609   0.895   3.163 -0.1658  0.2893  0.2597
  134MOL0     C18400   9.430   1.057   3.417  0.1291  0.0182 -0.3184
  134MOL0     C18401   9.292   1.081   3.421  0.0088  0.2321  0.2188
  134MOL0     O18402   8.989   0.899   3.576 -0.1919 -0.2417  0.4306
  134MOL0     C18403   8.852   1.230   3.529 -0.0195  0.0797  0.2708
  134MOL0     C18404   8.738   1.304   3.522  1.0352 -0.1734 -0.3954
  134MOL0     N18405   7.965   1.364   3.638  0.1198  0.5081  0.1125
  134MOL0     N18406   7.839   1.390   3.673 -1.1203 -0.3133 -0.1115
  134MOL0     C18407   6.648   1.182   3.672  0.0232  0.4957  0.4877
  134MOL0     C18408   6.516   1.162   3.705  0.5548  1.6220  0.1218
  134MOL0     C18409   6.126   1.120   3.835 -0.5952  0.4386  0.1193
  134MOL0     C18410   6.037   1.211   3.877 -1.0089 -0.6490 -0.2030
  134MOL0     C18411   5.904   1.182   3.904  0.3160  0.4155  1.2299
  134MOL0     C18412   5.850   1.055   3.874  0.3344 -0.1109 -0.3850
  134MOL0     O18413   5.716   1.024   3.897  0.2050  0.4125  0.1274
  134MOL0     C18414   5.629   1.125   3.965 -0.2736 -0.5203  0.3895
  134MOL0     C18415   5.557   1.220   3.858 -0.2606  0.6274 -0.3573
  134MOL0     C18416   5.482   1.336   3.919  0.1818  0.4193 -0.0631
  134MOL0     C18417   5.387   1.307   4.032 -0.0031 -0.3342  0.2844
  134MOL0     C18418   5.273   1.218   3.997 -0.4152 -0.6312  0.3253
  134MOL0     C18419   5.172   1.173   3.938  0.3125  0.9252 -0.0680
  134MOL0     C18420   5.942   0.955   3.835  0.0134 -0.3142  0.6530
  134MOL0     C18421   6.081   0.989   3.821  0.1091 -0.1171  0.2512
  134MOL0     C18422   6.173   0.881   3.775 -0.2140  0.2868 -0.1383
  134MOL0     H18423   6.431   1.469   3.791  1.7249  1.6082 -2.0404
  134MOL0     H18424   6.687   1.498   3.796  0.0959  0.0302 -2.5447
  134MOL0     H18425   6.787   1.303   3.474 -0.9996  2.1663  0.0226
  134MOL0     H18426   6.919   1.211   3.524 -4.2786 -1.6104  0.8212
  134MOL0     H18427   6.988   1.428   3.389  2.8619 -0.5663  0.1846
  134MOL0     H18428   6.924   1.521   3.529 -0.6194 -0.4673  0.9282
  134MOL0     H18429   7.081   1.397   3.662  0.9031  0.6316  0.5879
  134MOL0     H18430   7.149   1.322   3.529  1.4640  0.9867  0.2413
  134MOL0     H18431   7.185   1.559   3.425  2.6154  0.1823 -0.4182
  134MOL0     H18432   7.133   1.620   3.577 -0.9111 -1.2247 -0.2911
  134MOL0     H18433   7.332   1.451   3.681 -0.0340  3.1589  1.3207
  134MOL0     H18434   7.382   1.602   3.602 -0.9826  1.6393 -1.7976
  134MOL0     H18435   7.349   1.326   3.479  1.3987 -1.6047 -0.1018
  134MOL0     H18436   7.408   1.460   3.392 -0.6298  1.4717  0.7201
  134MOL0     H18437   7.590   1.311   3.466  0.5758  3.7635 -3.3547
  134MOL0     H18438   7.538   1.323   3.635 -0.0919 -1.5269 -1.3603
  134MOL0     H18439   7.634   1.554   3.454 -2.2844  0.0250 -0.7498
  134MOL0     H18440   7.607   1.561   3.630  0.0150 -1.6766  0.7498
  134MOL0     H18441   7.837   1.449   3.358 -2.5665 -0.4727 -0.0215
  134MOL0     H18442   8.100   1.344   3.338 -1.7637  2.0450 -0.4293
  134MOL0     H18443   8.124   1.228   3.474 -1.3196  0.2098  1.4686
  134MOL0     H18444   8.304   1.422   3.411  2.2914  0.4960  2.4870
  134MOL0     H18445   8.176   1.525   3.475 -0.2894  0.7216  3.6370
  134MOL0     H18446   8.353   1.500   3.641 -2.0165  0.9478  0.4145
  134MOL0     H18447   8.227   1.381   3.694  0.3016 -1.7182 -0.1257
  134MOL0     H18448   8.425   1.260   3.714  0.7256  1.5018  0.2440
  134MOL0     H18449   8.347   1.215   3.558 -0.5768  0.0698 -0.5663
  134MOL0     H18450   8.517   1.058   3.608 -1.2595  1.6770  0.5968
  134MOL0     H18451   8.715   0.825   3.510 -2.0205 -0.1919 -0.7715
  134MOL0     H18452   8.600   0.858   3.631  0.7995 -3.0109  0.9405
  134MOL0     H18453   8.777   0.847   3.677 -0.6180 -0.0744  0.3542
  134MOL0     H18454   9.227   0.947   3.734 -1.1492 -1.8251 -1.3396
  134MOL0     H18455   9.473   0.872   3.701 -1.6137 -1.0043  1.2977
  134MOL0     H18456   9.688   0.903   3.331 -1.1378 -1.4614  1.6122
  134MOL0     H18457   9.713   1.073   3.388  2.3341 -0.4658 -2.2477
  134MOL0     H18458   9.878   0.992   3.551  1.2311  1.9244 -0.8707
  134MOL0     H18459   9.872   0.833   3.477  0.2281  0.9311  2.0409
  134MOL0     H18460   9.960   1.096   3.364  1.3664 -0.9795 -0.2153
  134MOL0     H18461   9.921   0.941   3.267 -2.7047 -1.5990  1.1531
  134MOL0     H18462  10.089   0.828   3.413  0.5457  0.3416  0.3603
  134MOL0     H18463  10.145   0.997   3.456  2.0496  0.2713 -1.1597
  134MOL0     H18464  10.142   0.947   3.145  0.2730  0.3757  0.0375
  134MOL0     H18465  10.224   1.054   3.248 -1.6397  0.4612  2.4009
  134MOL0     H18466  10.352   0.854   3.144  1.8504 -0.2168  1.4404
  134MOL0     H18467  10.265   0.760   3.264  0.3621 -1.0491 -1.7150
  134MOL0     H18468  10.388   0.868   3.453  0.2878 -2.1948 -0.0383
  134MOL0     H18469  10.435   1.011   3.359  0.6978  0.5293 -3.5349
  134MOL0     H18470  10.514   0.722   3.290  1.8161 -0.4635 -1.2664
  134MOL0     H18471  10.619   0.838   3.385 -1.8427  2.7296  1.6966
  134MOL0     H18472   9.487   1.091   3.332 -0.8256 -0.1279 -1.0374
  134MOL0     H18473   9.242   1.135   3.341  0.0094  2.1590  1.4467
  134MOL0     H18474   8.947   1.276   3.508 -0.0976  0.4601  0.7247
  134MOL0     H18475   8.736   1.411   3.504 -1.5652 -0.3476 -1.6246
  134MOL0     H18476   6.711   1.108   3.623 -0.0705  0.4018  0.5095
  134MOL0     H18477   6.468   1.066   3.691  1.4519  1.1338  0.3210
  134MOL0     H18478   6.072   1.312   3.895 -0.5993 -0.0219 -3.7998
  134MOL0     H18479   5.836   1.264   3.928 -3.1988 -0.5615 -3.7290
  134MOL0     H18480   5.553   1.063   4.013 -0.5007  0.1078  0.8624
  134MOL0     H18481   5.683   1.184   4.039 -0.8124  1.5405 -0.7661
  134MOL0     H18482   5.484   1.157   3.807 -0.3024 -0.6473  1.1719
  134MOL0     H18483   5.632   1.266   3.794 -0.3142  1.2955  0.0553
  134MOL0     H18484   5.562   1.402   3.953  0.8651  0.3521 -1.4513
  134MOL0     H18485   5.426   1.390   3.843  1.5896  1.1563 -0.6116
  134MOL0     H18486   5.347   1.405   4.061  1.5078  0.5470 -0.4898
  134MOL0     H18487   5.436   1.266   4.121  1.5026  1.4077  0.3271
  134MOL0     H18488   5.083   1.149   3.882 -0.2029  2.9538 -0.2026
  134MOL0     H18489   5.906   0.852   3.827  1.6885 -0.8708 -0.0866
  134MOL0     H18490   6.215   0.822   3.856  0.1791 -1.2175 -1.3864
  134MOL0     H18491   6.123   0.802   3.718 -0.1880 -1.6337  2.3060
  134MOL0     H18492   6.259   0.909   3.714  1.5904 -1.5813  1.4071
  135MOL0     O18493   5.102   7.794   9.110 -0.2211  0.0177 -0.0069
  135MOL0     C18494   5.056   7.819   9.003  0.0668 -0.2204 -0.4312
  135MOL0     O18495   5.108   7.906   8.917 -0.0860  0.1710 -0.1475
  135MOL0     C18496   5.204   7.990   8.969  0.4213 -0.0037 -0.2472
  135MOL0     C18497   5.333   7.935   8.987 -0.9025  0.3709  0.9650
  135MOL0     C18498   5.442   8.022   9.030 -0.1953 -0.0766 -0.3004
  135MOL0     C18499   5.419   8.164   9.042  0.0510  0.4454  0.1113
  135MOL0     O18500   5.525   8.246   9.072 -0.2562  0.3162  0.0162
  135MOL0     C18501   5.596   8.223   9.193  0.4197 -0.5830 -1.0412
  135MOL0     C18502   5.706   8.331   9.217  0.1202  0.3746 -0.4145
  135MOL0     C18503   5.646   8.472   9.231  0.1070  0.1030 -1.2092
  135MOL0     C18504   5.730   8.565   9.307 -0.2475 -0.6986  0.7906
  135MOL0     C18505   5.865   8.601   9.242 -0.5370 -0.2955 -1.1164
  135MOL0     C18506   5.970   8.651   9.343 -0.4803 -0.1579  0.0696
  135MOL0     C18507   6.037   8.534   9.421  0.2116 -0.7225  0.1849
  135MOL0     C18508   6.066   8.571   9.563 -0.0617 -0.4881 -0.7713
  135MOL0     N18509   6.133   8.706   9.584  0.4980 -0.3559 -0.3638
  135MOL0     C18510   6.264   8.732   9.541  0.4428  0.3669 -1.5778
  135MOL0     C18511   6.286   8.863   9.557  0.7605 -0.0792 -0.2953
  135MOL0     C18512   6.399   8.949   9.517  0.6356  0.5893 -0.6534
  135MOL0     C18513   6.531   8.875   9.526  0.1068 -0.0126 -0.5057
  135MOL0     C18514   6.555   8.818   9.667 -0.3029  0.3921 -0.0243
  135MOL0     C18515   6.703   8.769   9.685 -0.1800 -1.1269  0.0282
  135MOL0     O18516   6.721   8.743   9.823  0.5592 -0.3324 -0.3151
  135MOL0     C18517   6.837   8.772   9.896  0.3848 -0.1094  0.2799
  135MOL0     C18518   6.818   8.769  10.030  0.6196  0.8650 -0.1130
  135MOL0     C18519   6.916   8.818  10.124 -0.0041  0.9697 -0.4826
  135MOL0     C18520   6.889   8.823  10.278  0.6115 -0.5668  0.4866
  135MOL0     C18521   7.044   8.847  10.073 -0.4587 -0.2727 -0.1614
  135MOL0     C18522   7.169   8.871  10.160  0.1891  1.2616  0.2289
  135MOL0     O18523   7.148   8.886  10.297 -0.1274 -0.1403  0.4157
  135MOL0     C18524   7.257   8.895  10.385  1.1527  0.2870 -0.9180
  135MOL0     C18525   7.390   8.926  10.364 -1.0118  0.4304  0.3148
  135MOL0     C18526   7.473   8.929  10.473  0.5513  0.3801  0.5538
  135MOL0     C18527   7.431   8.924  10.608 -0.6098  0.0897  0.1639
  135MOL0     O18528   7.533   8.927  10.701 -0.1070 -0.3398 -0.2127
  135MOL0     C18529   7.507   8.984  10.834  0.2952  0.0599 -0.5572
  135MOL0     C18530   7.642   8.988  10.900  0.8188  0.0235 -0.0825
  135MOL0     C18531   7.628   8.979  11.059  0.0437  0.0519  1.2693
  135MOL0     C18532   7.768   8.970  11.129 -0.2085 -0.0579  0.4416
  135MOL0     C18533   7.761   9.023  11.271  0.8337  0.4327 -0.5401
  135MOL0     C18534   7.666   8.934  11.352  0.2713  0.6487  0.8918
  135MOL0     C18535   7.676   8.964  11.496 -0.0621  0.6036 -0.4472
  135MOL0     C18536   7.564   8.887  11.566 -0.1039  0.3030 -0.4230
  135MOL0    Cl18537   7.536   8.957  11.729 -0.1772 -0.2342 -0.6637
  135MOL0     C18538   7.295   8.906  10.626  0.2068  0.5637  0.7199
  135MOL0     C18539   7.214   8.901  10.517 -0.1300  1.1850  0.6069
  135MOL0     O18540   7.277   8.873  10.101 -0.6229  0.3917 -0.2037
  135MOL0     C18541   7.061   8.842   9.935 -0.0214 -0.5790  0.7184
  135MOL0     C18542   6.959   8.816   9.846  0.5363  0.1972 -0.6855
  135MOL0     N18543   6.162   8.914   9.587 -0.3939 -0.2200  0.3311
  135MOL0     N18544   6.079   8.823   9.602 -0.4807  0.0228 -0.8994
  135MOL0     C18545   5.286   8.214   9.015 -0.5696 -0.5791 -0.5213
  135MOL0     C18546   5.188   8.131   8.973  0.6075  0.4555  0.6491
  135MOL0     C18547   4.929   7.737   8.977  0.0840 -0.9348 -0.3470
  135MOL0     C18548   4.911   7.614   9.042 -0.4622 -0.0047  0.1944
  135MOL0     C18549   4.791   7.544   9.045 -0.0417 -0.2790 -0.3851
  135MOL0     C18550   4.696   7.574   8.953 -0.1183 -0.0392  0.2554
  135MOL0     O18551   4.574   7.504   8.947  0.0344 -0.2136  0.2457
  135MOL0     C18552   4.500   7.498   8.830  0.2266  0.1221 -0.2051
  135MOL0     C18553   4.373   7.433   8.868 -0.4696 -0.3358  0.4504
  135MOL0     C18554   4.387   7.301   8.951 -0.2053 -0.2010 -0.3145
  135MOL0     C18555   4.250   7.230   8.965 -0.4971  0.1480 -0.0726
  135MOL0     C18556   4.246   7.094   9.008  0.4715  0.3193 -0.5193
  135MOL0     C18557   4.225   6.975   9.035  0.2420  0.1496  0.0423
  135MOL0     C18558   4.721   7.687   8.871  0.0527 -0.6208 -0.1681
  135MOL0     C18559   4.833   7.771   8.885  0.0754 -0.6789 -0.6222
  135MOL0     C18560   4.838   7.904   8.805  0.9353 -0.3375 -0.1809
  135MOL0     H18561   5.354   7.829   8.979  1.4849  0.9361 -2.8676
  135MOL0     H18562   5.541   7.979   9.042  0.2141  1.4355  2.4456
  135MOL0     H18563   5.635   8.121   9.189 -1.0784 -1.4167  1.9315
  135MOL0     H18564   5.525   8.235   9.276  0.4248  0.3553 -1.1672
  135MOL0     H18565   5.754   8.310   9.313  0.2512 -0.4023 -0.6414
  135MOL0     H18566   5.771   8.324   9.129 -0.6644  2.1665 -1.1863
  135MOL0     H18567   5.629   8.509   9.129 -1.5980  0.7272 -0.7284
  135MOL0     H18568   5.553   8.457   9.285  0.0008  0.5517 -1.2602
  135MOL0     H18569   5.672   8.655   9.331 -0.8279 -1.2019  1.3254
  135MOL0     H18570   5.752   8.515   9.402 -0.9521  0.3566  1.5308
  135MOL0     H18571   5.855   8.676   9.164 -0.5923 -1.8009 -2.6094
  135MOL0     H18572   5.910   8.517   9.188  2.5907  1.6045 -1.7462
  135MOL0     H18573   6.051   8.691   9.282 -1.3929  0.0836 -1.0171
  135MOL0     H18574   5.925   8.731   9.402 -0.9224  0.8477 -1.5587
  135MOL0     H18575   6.124   8.486   9.374  0.2723 -2.9656  2.3500
  135MOL0     H18576   5.970   8.449   9.430  0.5008 -1.1405 -1.3728
  135MOL0     H18577   5.970   8.576   9.616  2.1029  1.7892  3.3468
  135MOL0     H18578   6.128   8.492   9.605  0.8316  0.1018 -0.9691
  135MOL0     H18579   6.327   8.652   9.505 -0.9785 -1.7086  0.3268
  135MOL0     H18580   6.406   9.038   9.581 -2.4948  1.1502 -0.9470
  135MOL0     H18581   6.396   8.989   9.415  1.2915 -2.3799 -1.9522
  135MOL0     H18582   6.540   8.792   9.455  0.9568  1.6929 -2.5078
  135MOL0     H18583   6.612   8.946   9.504  0.3147  0.1820  0.8098
  135MOL0     H18584   6.540   8.893   9.745  1.1381 -0.2642  0.9272
  135MOL0     H18585   6.485   8.736   9.688 -0.5118  0.3635 -0.7932
  135MOL0     H18586   6.724   8.687   9.615  0.7569 -0.1518 -0.8647
  135MOL0     H18587   6.770   8.850   9.655 -1.1807 -0.2346  0.1437
  135MOL0     H18588   6.714   8.752  10.058  0.0235  3.5902 -0.4181
  135MOL0     H18589   6.919   8.918  10.324 -0.5504 -0.5182  1.1652
  135MOL0     H18590   6.940   8.736  10.321 -0.2008 -2.2157 -1.6972
  135MOL0     H18591   6.781   8.820  10.290  0.5175  0.2313 -0.0991
  135MOL0     H18592   7.436   8.938  10.267 -0.8910  2.0097  0.5370
  135MOL0     H18593   7.578   8.943  10.448  0.7624 -1.1912  0.4623
  135MOL0     H18594   7.457   9.081  10.829  0.7513  0.3124 -0.1704
  135MOL0     H18595   7.433   8.920  10.882 -0.9751  2.0601  0.2522
  135MOL0     H18596   7.704   8.904  10.867 -3.3277 -3.5137  0.1760
  135MOL0     H18597   7.680   9.087  10.877  1.2478 -0.0753  0.1865
  135MOL0     H18598   7.575   8.890  11.093  3.4203 -1.8422  1.9664
  135MOL0     H18599   7.567   9.061  11.099  0.2305  1.8199 -1.7204
  135MOL0     H18600   7.835   9.036  11.074 -0.5156 -0.1337 -0.0308
  135MOL0     H18601   7.805   8.867  11.131  1.1396  0.4067  0.3332
  135MOL0     H18602   7.861   9.027  11.314  0.6877  0.2804 -0.1870
  135MOL0     H18603   7.716   9.123  11.272 -0.5214 -0.1467  1.3847
  135MOL0     H18604   7.691   8.829  11.333  2.8821  1.2620  0.5096
  135MOL0     H18605   7.562   8.948  11.322  0.5093 -0.8388 -0.8154
  135MOL0     H18606   7.666   9.069  11.526  1.8199  0.4513  0.9080
  135MOL0     H18607   7.777   8.945  11.532  0.2401 -0.5332 -1.7950
  135MOL0     H18608   7.587   8.781  11.574  3.6001  0.7801 -2.5059
  135MOL0     H18609   7.470   8.897  11.511 -0.9721 -0.3887  0.8776
  135MOL0     H18610   7.246   8.902  10.722  1.2484 -0.5826  1.2220
  135MOL0     H18611   7.112   8.887  10.551  0.3631  1.2736  2.1862
  135MOL0     H18612   7.159   8.872   9.900  0.5406 -1.5946  1.3616
  135MOL0     H18613   6.994   8.829   9.745 -1.2032 -0.8992 -1.4923
  135MOL0     H18614   5.280   8.322   9.016  1.8870 -0.3301  2.0460
  135MOL0     H18615   5.092   8.165   8.935  0.7714 -0.1099 -0.3206
  135MOL0     H18616   4.989   7.573   9.105 -0.9415 -0.0709  0.7473
  135MOL0     H18617   4.778   7.453   9.103  0.8218 -1.6250 -2.2110
  135MOL0     H18618   4.477   7.598   8.792  0.3645  0.6474  1.0718
  135MOL0     H18619   4.547   7.441   8.749 -2.0721 -2.7119  0.2459
  135MOL0     H18620   4.314   7.416   8.778 -2.1270  0.1823  1.3925
  135MOL0     H18621   4.324   7.510   8.928  3.9788  2.6549  0.6646
  135MOL0     H18622   4.460   7.241   8.896  1.1250 -0.2296  1.3911
  135MOL0     H18623   4.435   7.319   9.047  0.5286  1.3291 -0.9367
  135MOL0     H18624   4.194   7.241   8.872  1.3507  0.5821 -1.1893
  135MOL0     H18625   4.212   7.284   9.053 -1.4076 -1.2273  0.4175
  135MOL0     H18626   4.218   6.872   9.063  0.1268  0.0648 -0.2949
  135MOL0     H18627   4.643   7.723   8.806 -0.3027 -0.3793  0.3845
  135MOL0     H18628   4.919   7.912   8.732  1.5223  2.4287  0.6631
  135MOL0     H18629   4.750   7.907   8.739  0.7571  1.2994  0.0803
  135MOL0     H18630   4.818   7.983   8.878 -2.3471 -0.2962 -0.9520
  136MOL0     O18631   7.506   9.693  10.771  0.3510  0.4176 -0.7027
  136MOL0     C18632   7.510   9.729  10.651 -0.0954  0.0486 -0.6211
  136MOL0     O18633   7.612   9.789  10.597 -0.4629 -0.7305  0.5025
  136MOL0     C18634   7.700   9.847  10.685 -0.5016  0.2147 -0.2254
  136MOL0     C18635   7.831   9.808  10.671  0.9275 -0.8291 -0.6340
  136MOL0     C18636   7.939   9.864  10.744 -0.6407  0.2902 -0.9744
  136MOL0     C18637   7.913   9.966  10.848  0.0475  0.0707  0.2567
  136MOL0     O18638   8.003  10.046  10.914 -0.0478 -0.6485  0.4685
  136MOL0     C18639   8.139  10.010  10.908 -0.6988 -0.1586 -0.9470
  136MOL0     C18640   8.219  10.071  11.031  0.2079  0.2187  0.4201
  136MOL0     C18641   8.368  10.076  10.999 -0.6297 -0.3756 -0.9051
  136MOL0     C18642   8.447  10.131  11.116  0.5610 -0.5908 -0.4766
  136MOL0     C18643   8.598  10.170  11.092  0.1021  0.2228  0.5571
  136MOL0     C18644   8.611  10.290  11.003 -1.0777  0.1102  0.6280
  136MOL0     C18645   8.748  10.351  11.013 -1.1859  0.1489  0.1819
  136MOL0     C18646   8.753  10.495  10.960 -0.9540  0.2480  0.4700
  136MOL0     N18647   8.896  10.545  10.982  0.2562  0.1211 -0.1004
  136MOL0     C18648   8.932  10.645  11.065 -0.5689  0.0017 -0.5700
  136MOL0     C18649   9.064  10.658  11.061 -0.3354  0.1244  0.6294
  136MOL0     C18650   9.158  10.760  11.121  0.8418 -1.5564  0.0750
  136MOL0     C18651   9.118  10.780  11.277 -0.4114  0.8072  0.8297
  136MOL0     C18652   9.219  10.884  11.340 -0.2017 -0.6851  0.4852
  136MOL0     C18653   9.369  10.844  11.333 -0.6603 -0.4063  1.1777
  136MOL0     O18654   9.390  10.703  11.330  0.5055 -0.1118  0.0697
  136MOL0     C18655   9.419  10.623  11.435  0.2477 -0.5600  0.5397
  136MOL0     C18656   9.403  10.488  11.430 -0.0500  0.1625  0.2107
  136MOL0     C18657   9.438  10.404  11.538 -0.0295 -0.2161  0.0561
  136MOL0     C18658   9.424  10.249  11.530  0.1294 -0.7083  0.2376
  136MOL0     C18659   9.483  10.463  11.658  0.6327  0.1748 -0.4199
  136MOL0     C18660   9.527  10.384  11.770 -0.0425  0.7432 -0.9530
  136MOL0     O18661   9.436  10.381  11.879 -0.2319 -0.2476  0.5655
  136MOL0     C18662   9.454  10.289  11.974  0.1237  0.5921 -0.1153
  136MOL0     C18663   9.564  10.262  12.054  0.2583 -0.4825  0.0993
  136MOL0     C18664   9.561  10.172  12.156 -0.3972 -0.3621  0.4375
  136MOL0     C18665   9.444  10.121  12.193  0.5978  0.1926  0.8053
  136MOL0     O18666   9.426  10.040  12.299 -0.4217  0.0474 -0.1648
  136MOL0     C18667   9.466  10.090  12.429 -0.0550  0.2296 -0.0920
  136MOL0     C18668   9.433  10.002  12.545  0.2647  0.4592  0.2204
  136MOL0     C18669   9.495  10.033  12.677 -0.1509  0.1274 -0.2473
  136MOL0     C18670   9.633   9.970  12.696 -0.1303  0.8895  0.2652
  136MOL0     C18671   9.631   9.817  12.738 -0.2832 -0.7586 -0.3634
  136MOL0     C18672   9.762   9.745  12.703 -0.2822 -0.3568  0.0457
  136MOL0     C18673   9.748   9.597  12.735 -0.2974  0.5599  0.6073
  136MOL0     C18674   9.858   9.520  12.663 -0.6416 -0.3852  0.2642
  136MOL0    Cl18675   9.916   9.396  12.784 -0.3117 -0.3169  0.5069
  136MOL0     C18676   9.330  10.129  12.112  0.1634 -0.1289 -0.1929
  136MOL0     C18677   9.333  10.219  12.006  0.0559  0.6260 -0.2036
  136MOL0     O18678   9.633  10.323  11.764  0.0993 -0.1977 -0.5992
  136MOL0     C18679   9.495  10.604  11.671  1.5592 -0.5204  1.3034
  136MOL0     C18680   9.452  10.679  11.561 -0.3913 -0.1226 -0.0343
  136MOL0     N18681   9.108  10.564  10.969 -0.4109 -0.7075 -0.3952
  136MOL0     N18682   9.005  10.494  10.931 -0.1996 -0.1750  0.1256
  136MOL0     C18683   7.783  10.001  10.857  0.6616 -0.0728  0.6018
  136MOL0     C18684   7.681   9.952  10.775 -0.6298  0.5666 -0.7763
  136MOL0     C18685   7.396   9.693  10.568 -0.6655  0.0262  0.8581
  136MOL0     C18686   7.413   9.712  10.421 -0.7934 -0.3114 -0.0548
  136MOL0     C18687   7.315   9.685  10.325  0.5330  0.2141  0.6711
  136MOL0     C18688   7.204   9.619  10.357 -0.4443 -0.2982 -0.2529
  136MOL0     O18689   7.094   9.590  10.277 -0.2128 -0.7799  0.1506
  136MOL0     C18690   7.106   9.637  10.144 -0.0998 -0.8602  0.0562
  136MOL0     C18691   6.978   9.610  10.069  0.6830 -0.3228  1.0718
  136MOL0     C18692   6.951   9.456  10.061 -0.0177 -0.3840  0.5768
  136MOL0     C18693   6.844   9.430   9.952  0.1581 -0.1905 -0.2425
  136MOL0     C18694   6.822   9.288   9.925 -0.0623  0.7742  0.7136
  136MOL0     C18695   6.794   9.173   9.897 -1.2233 -0.4876  0.0204
  136MOL0     C18696   7.187   9.589  10.495  0.2403  0.2178  0.5886
  136MOL0     C18697   7.270   9.638  10.600  0.3174  0.0964  0.3276
  136MOL0     C18698   7.227   9.602  10.729  0.4632  0.8595 -0.0803
  136MOL0     H18699   7.853   9.742  10.588 -1.9219 -1.3056 -1.1360
  136MOL0     H18700   8.036   9.823  10.717  0.0578  0.7122  0.7618
  136MOL0     H18701   8.178  10.037  10.810  1.7614 -2.2381 -0.6367
  136MOL0     H18702   8.154   9.902  10.913 -0.1149 -0.0389  3.1828
  136MOL0     H18703   8.177  10.171  11.038 -1.3456 -0.5073  2.2726
  136MOL0     H18704   8.215  10.015  11.125  1.1538 -1.1623 -0.3181
  136MOL0     H18705   8.405   9.973  10.992  1.2022 -0.2821  3.6258
  136MOL0     H18706   8.378  10.137  10.909 -1.5102  2.7469  0.9640
  136MOL0     H18707   8.404  10.225  11.153 -1.7916 -2.3775  1.7215
  136MOL0     H18708   8.438  10.059  11.198  0.2249  1.3131  1.2580
  136MOL0     H18709   8.644  10.077  11.060 -2.1881 -0.8525  0.2125
  136MOL0     H18710   8.635  10.193  11.193  1.4385  3.8140 -0.5632
  136MOL0     H18711   8.583  10.274  10.898  0.5953 -2.4346  0.5101
  136MOL0     H18712   8.553  10.373  11.047  0.1476  0.6708  1.2218
  136MOL0     H18713   8.809  10.285  10.951 -0.5595  3.3506 -2.8987
  136MOL0     H18714   8.784  10.346  11.116 -0.1692 -0.6681 -0.1920
  136MOL0     H18715   8.734  10.487  10.853 -1.4878 -1.5783  0.6589
  136MOL0     H18716   8.677  10.557  11.008  0.1777  2.8487 -0.9140
  136MOL0     H18717   8.867  10.713  11.119  2.1975  1.2053  1.5249
  136MOL0     H18718   9.142  10.856  11.070 -0.7649 -1.0681  1.4021
  136MOL0     H18719   9.258  10.720  11.100  0.9964 -1.1742  0.0815
  136MOL0     H18720   9.013  10.802  11.301 -1.3608 -1.9621 -0.3399
  136MOL0     H18721   9.130  10.684  11.329  0.5823  0.7290  0.4657
  136MOL0     H18722   9.202  10.979  11.287  1.6153 -0.3473  0.4493
  136MOL0     H18723   9.196  10.904  11.445  0.7932  2.9339  0.1491
  136MOL0     H18724   9.411  10.875  11.237 -1.4805 -0.9380  0.6310
  136MOL0     H18725   9.432  10.891  11.409  1.0738 -0.5759 -0.0994
  136MOL0     H18726   9.368  10.436  11.341  1.4994 -1.8572  0.7145
  136MOL0     H18727   9.437  10.201  11.627  4.0276  1.1415  0.8277
  136MOL0     H18728   9.508  10.221  11.467  0.5670  1.1004 -0.0472
  136MOL0     H18729   9.328  10.219  11.487 -0.0919 -0.9967  0.9180
  136MOL0     H18730   9.659  10.306  12.024 -0.0360 -0.6480 -1.1239
  136MOL0     H18731   9.649  10.175  12.220 -0.2679 -0.2444  0.2567
  136MOL0     H18732   9.575  10.100  12.434  0.2263 -2.5046  1.4804
  136MOL0     H18733   9.429  10.191  12.446  1.9706  0.9454  0.3604
  136MOL0     H18734   9.324   9.988  12.552  0.1577 -0.1640 -1.9955
  136MOL0     H18735   9.466   9.903  12.513 -2.3584  0.4179 -2.9601
  136MOL0     H18736   9.440   9.992  12.762  1.8413 -0.4839  0.8146
  136MOL0     H18737   9.500  10.140  12.699  1.9346 -0.0584  0.3637
  136MOL0     H18738   9.687  10.025  12.773  1.9519  2.2615 -2.0357
  136MOL0     H18739   9.693   9.977  12.605 -0.0981  0.8773  0.2854
  136MOL0     H18740   9.618   9.834  12.845 -0.6485  3.7345 -0.9345
  136MOL0     H18741   9.545   9.761  12.701  0.9671 -2.5359 -0.6891
  136MOL0     H18742   9.844   9.796  12.754 -1.0594  0.5814  0.3923
  136MOL0     H18743   9.769   9.762  12.595 -1.0812  1.3894  0.2449
  136MOL0     H18744   9.650   9.560  12.704 -0.5696 -1.3727  3.4293
  136MOL0     H18745   9.767   9.582  12.842 -0.3057 -0.5610  0.4591
  136MOL0     H18746   9.944   9.585  12.647 -1.0119  0.0070 -0.1564
  136MOL0     H18747   9.833   9.477  12.566  1.0210 -2.7080  0.7688
  136MOL0     H18748   9.238  10.080  12.142  1.5989 -1.8165  1.6834
  136MOL0     H18749   9.253  10.251  11.941  0.9318  0.7144 -1.2735
  136MOL0     H18750   9.540  10.648  11.759  2.1046  0.1592  0.6876
  136MOL0     H18751   9.468  10.786  11.570  0.5313 -0.3691  1.6694
  136MOL0     H18752   7.750  10.075  10.929 -1.0157 -0.5941  0.4183
  136MOL0     H18753   7.581   9.994  10.769 -1.7984 -1.8977  0.1182
  136MOL0     H18754   7.503   9.758  10.382 -1.1845  1.6456  1.2045
  136MOL0     H18755   7.340   9.717  10.225 -1.8839  1.4085  0.3822
  136MOL0     H18756   7.121   9.744  10.130  3.2768 -1.4542 -1.8144
  136MOL0     H18757   7.192   9.586  10.100  0.6636 -0.0289  0.5517
  136MOL0     H18758   6.996   9.651   9.969 -0.5077 -3.4176 -0.5627
  136MOL0     H18759   6.896   9.656  10.123 -0.7057  0.7416 -1.7510
  136MOL0     H18760   7.045   9.404  10.041  0.7546 -0.3198  3.5860
  136MOL0     H18761   6.903   9.429  10.155 -0.6351 -2.3362 -0.2324
  136MOL0     H18762   6.882   9.473   9.859  2.8297  1.7070  1.5606
  136MOL0     H18763   6.749   9.472   9.986  0.9374 -0.3059  2.2982
  136MOL0     H18764   6.765   9.073   9.874 -0.1868 -1.1678  1.5264
  136MOL0     H18765   7.102   9.523  10.515  0.8167 -0.4525  0.8646
  136MOL0     H18766   7.252   9.497  10.746 -1.9516 -0.4483 -3.4639
  136MOL0     H18767   7.270   9.657  10.814 -0.1333  0.3411  0.5671
  136MOL0     H18768   7.119   9.614  10.735  0.4445  0.2251  4.5590
  137MOL0     O18769   7.715   1.751  10.099  0.3975 -0.6702 -0.3932
  137MOL0     C18770   7.737   1.867  10.140  0.1820  0.5840  0.7379
  137MOL0     O18771   7.858   1.941  10.116  0.3855  0.2275 -0.1706
  137MOL0     C18772   7.943   1.879  10.028  0.6232 -0.2230  0.2061
  137MOL0     C18773   8.046   1.817  10.088  0.5655  0.3315  0.2369
  137MOL0     C18774   8.153   1.769  10.013  0.0425 -0.4006 -0.8422
  137MOL0     C18775   8.153   1.777   9.868 -0.8233 -0.0411  0.7425
  137MOL0     O18776   8.254   1.739   9.783  0.4142 -0.0811  0.0797
  137MOL0     C18777   8.378   1.722   9.850  0.4517  0.2727 -0.8229
  137MOL0     C18778   8.487   1.697   9.750 -0.7452 -0.0065 -0.7651
  137MOL0     C18779   8.624   1.668   9.815  0.3079 -0.0663 -0.4474
  137MOL0     C18780   8.742   1.710   9.727 -0.0806  0.2155 -0.3495
  137MOL0     C18781   8.760   1.631   9.596 -0.3862 -0.1352 -0.8801
  137MOL0     C18782   8.737   1.484   9.603 -0.2966  0.5626  1.1499
  137MOL0     C18783   8.806   1.415   9.483  0.1871  0.8594 -0.2200
  137MOL0     C18784   8.772   1.266   9.475 -0.1692  0.9517 -0.5481
  137MOL0     N18785   8.842   1.191   9.580 -0.5067 -0.3393  0.1278
  137MOL0     C18786   8.963   1.133   9.568  0.0608  0.3619 -0.0354
  137MOL0     C18787   8.984   1.078   9.693  0.4974  0.2617  0.2236
  137MOL0     C18788   9.097   0.986   9.742  0.2140 -1.2824 -0.1963
  137MOL0     C18789   9.236   1.045   9.683 -0.1702  0.2884  0.2063
  137MOL0     C18790   9.348   1.003   9.778 -0.2456 -0.4985  0.3930
  137MOL0     C18791   9.484   1.036   9.714  0.3896  1.1177  0.1262
  137MOL0     O18792   9.524   0.934   9.628 -0.3475 -0.5429  0.5385
  137MOL0     C18793   9.657   0.925   9.584  0.6686 -0.4134 -0.8225
  137MOL0     C18794   9.705   0.817   9.507 -0.5225  0.4402  0.5896
  137MOL0     C18795   9.841   0.798   9.465  0.4244  0.3657  0.4637
  137MOL0     C18796   9.865   0.665   9.382 -0.7214  0.1777  0.1356
  137MOL0     C18797   9.927   0.893   9.509 -0.0315  0.1115  0.6158
  137MOL0     C18798  10.071   0.869   9.494  0.0580  0.5371  0.1891
  137MOL0     O18799  10.142   0.906   9.604 -0.2781 -0.3852  0.1098
  137MOL0     C18800  10.269   0.940   9.589  0.2956 -0.0295 -0.2032
  137MOL0     C18801  10.370   0.870   9.657 -0.5084 -0.2502  0.6637
  137MOL0     C18802  10.501   0.895   9.628 -1.1605 -0.0796  0.1602
  137MOL0     C18803  10.537   1.010   9.536  0.4997 -0.2179 -1.6624
  137MOL0     O18804  10.671   1.032   9.522 -0.0916 -0.6218 -0.1043
  137MOL0     C18805  10.705   1.102   9.405  0.7939  0.2242  0.3520
  137MOL0     C18806  10.858   1.121   9.398  0.0151 -0.1480 -0.0366
  137MOL0     C18807  10.934   0.993   9.363  0.5501  0.3194  0.8512
  137MOL0     C18808  11.072   1.007   9.422 -0.0282 -0.4705 -0.4967
  137MOL0     C18809  11.174   0.905   9.369  0.3653  0.5642  0.6303
  137MOL0     C18810  11.245   0.807   9.458 -0.8212  0.8978 -0.3951
  137MOL0     C18811  11.321   0.878   9.567 -0.9011 -0.9280 -0.1193
  137MOL0     C18812  11.416   0.790   9.649 -0.1736  1.0448  0.3930
  137MOL0    Cl18813  11.329   0.640   9.715 -0.1408 -0.4471  0.0390
  137MOL0     C18814  10.435   1.084   9.479  0.3523 -0.0964  0.8627
  137MOL0     C18815  10.301   1.048   9.502  0.8176  0.3530  0.5039
  137MOL0     O18816  10.124   0.840   9.382  0.3774  0.4794  0.2643
  137MOL0     C18817   9.889   1.000   9.585  0.0873  0.4624 -1.6099
  137MOL0     C18818   9.760   1.010   9.626 -1.0812  0.1561  0.4468
  137MOL0     N18819   8.883   1.123   9.774 -0.4247 -0.1177  0.5589
  137MOL0     N18820   8.794   1.173   9.703  0.8310  0.1029 -0.4708
  137MOL0     C18821   8.040   1.836   9.808  0.7959 -0.2354 -0.3089
  137MOL0     C18822   7.929   1.887   9.886 -0.2984 -0.1727 -0.4918
  137MOL0     C18823   7.633   1.945  10.227  0.0959  0.8033 -0.3284
  137MOL0     C18824   7.638   2.082  10.232 -0.6661 -0.1997 -0.7815
  137MOL0     C18825   7.534   2.152  10.301 -0.2717  1.2113  0.3498
  137MOL0     C18826   7.440   2.094  10.382 -0.0829  0.5155  0.1271
  137MOL0     O18827   7.349   2.165  10.458  0.4713  0.5605  0.0066
  137MOL0     C18828   7.218   2.164  10.407  0.0827 -0.2160 -0.1795
  137MOL0     C18829   7.143   2.292  10.438  0.4071 -0.0862 -0.2368
  137MOL0     C18830   7.203   2.420  10.362 -0.3798 -0.2073  1.2330
  137MOL0     C18831   7.149   2.551  10.424  0.8815  0.5585  0.6903
  137MOL0     C18832   7.001   2.550  10.417  0.3151 -0.1469  0.7397
  137MOL0     C18833   6.884   2.560  10.412  0.3322 -0.3260 -0.4834
  137MOL0     C18834   7.438   1.953  10.387 -1.3911 -0.6763 -0.3547
  137MOL0     C18835   7.526   1.881  10.305  0.5373  0.8419  0.7153
  137MOL0     C18836   7.514   1.730  10.303  0.8274  0.1761 -0.1193
  137MOL0     H18837   8.054   1.805  10.195  0.0548 -0.3625  0.2013
  137MOL0     H18838   8.229   1.713  10.067  1.2564  0.6467 -1.4229
  137MOL0     H18839   8.371   1.629   9.906 -0.4718 -0.0986 -1.5411
  137MOL0     H18840   8.404   1.804   9.917  0.4293  0.4423 -1.0201
  137MOL0     H18841   8.461   1.611   9.687  1.3597  1.1471 -3.3690
  137MOL0     H18842   8.490   1.785   9.686  1.6781  0.8660  0.4254
  137MOL0     H18843   8.637   1.725   9.907  1.5315  2.9247 -2.3209
  137MOL0     H18844   8.624   1.561   9.837  1.5674  0.0810  0.4072
  137MOL0     H18845   8.717   1.813   9.698  0.2105  0.3779 -0.0264
  137MOL0     H18846   8.839   1.708   9.779 -1.9327 -0.5670  3.4040
  137MOL0     H18847   8.865   1.643   9.566  0.1116 -0.9066  0.4933
  137MOL0     H18848   8.691   1.666   9.518 -0.6950 -0.8659 -0.9355
  137MOL0     H18849   8.771   1.449   9.701  0.6495  0.6019  0.8421
  137MOL0     H18850   8.630   1.459   9.599 -0.0484 -0.7618  2.0810
  137MOL0     H18851   8.915   1.417   9.491  0.1151  0.6423  1.2621
  137MOL0     H18852   8.778   1.464   9.390 -3.0290  0.5843  0.4757
  137MOL0     H18853   8.663   1.254   9.479  0.0246 -0.6004  1.3862
  137MOL0     H18854   8.800   1.224   9.378 -0.5716 -1.3517  0.2777
  137MOL0     H18855   9.031   1.130   9.482  0.1977 -1.7073  0.0938
  137MOL0     H18856   9.081   0.884   9.708 -0.8961 -0.4528 -2.3708
  137MOL0     H18857   9.090   0.995   9.851  0.2288  1.3568 -0.3437
  137MOL0     H18858   9.251   1.005   9.582 -2.6081  1.6666 -0.7889
  137MOL0     H18859   9.242   1.153   9.669 -1.1473  0.0828 -2.3427
  137MOL0     H18860   9.339   1.060   9.871  1.4488 -0.8575  0.8038
  137MOL0     H18861   9.337   0.897   9.806  1.9870 -0.5048  1.4905
  137MOL0     H18862   9.489   1.130   9.659 -0.2751  0.8080 -0.4681
  137MOL0     H18863   9.554   1.044   9.798 -1.3174 -1.1302  1.9079
  137MOL0     H18864   9.627   0.749   9.473  1.4470 -2.4702  1.4937
  137MOL0     H18865   9.864   0.694   9.276  2.7055  0.2669 -0.0034
  137MOL0     H18866   9.794   0.585   9.406 -1.3327 -0.6553 -3.6882
  137MOL0     H18867   9.958   0.609   9.401 -0.0897  1.8273  2.2568
  137MOL0     H18868  10.337   0.784   9.714 -0.6402  0.7675  2.1922
  137MOL0     H18869  10.577   0.827   9.666 -1.8157  0.3242  2.3413
  137MOL0     H18870  10.680   1.052   9.311 -0.3704 -0.2726  0.9045
  137MOL0     H18871  10.667   1.204   9.411  1.2625  0.3368  1.5644
  137MOL0     H18872  10.875   1.213   9.341 -2.7726  0.0482 -0.7134
  137MOL0     H18873  10.891   1.145   9.499 -0.0456 -3.3577  0.8480
  137MOL0     H18874  10.936   0.973   9.255 -2.9515 -2.3458  1.0932
  137MOL0     H18875  10.888   0.900   9.398 -1.5649  0.8387 -0.3633
  137MOL0     H18876  11.063   0.998   9.530 -1.2509 -1.7033 -0.6684
  137MOL0     H18877  11.109   1.109   9.408 -0.1641  0.0444  2.2880
  137MOL0     H18878  11.131   0.847   9.287  0.5889  2.2152 -0.7187
  137MOL0     H18879  11.256   0.956   9.317  1.6052 -2.6767 -0.8982
  137MOL0     H18880  11.322   0.745   9.412 -1.2084 -0.2433  0.4510
  137MOL0     H18881  11.168   0.743   9.501  1.0165  0.0461  1.8461
  137MOL0     H18882  11.251   0.926   9.635 -0.1105  2.1564 -1.3246
  137MOL0     H18883  11.387   0.957   9.530  0.7191 -0.5020  3.2715
  137MOL0     H18884  11.461   0.849   9.728 -0.0275  0.7699  0.5178
  137MOL0     H18885  11.496   0.749   9.585  1.2814 -2.0435  3.8297
  137MOL0     H18886  10.450   1.170   9.415  0.1192  0.4458  1.5225
  137MOL0     H18887  10.227   1.096   9.439 -0.2485 -0.1039  1.3850
  137MOL0     H18888   9.956   1.083   9.607  0.7255  0.0671 -2.0095
  137MOL0     H18889   9.729   1.095   9.686  1.3279  0.6356  1.0975
  137MOL0     H18890   8.039   1.850   9.700 -1.4320  0.7222 -0.2264
  137MOL0     H18891   7.841   1.933   9.842  0.3056  0.0149 -1.5361
  137MOL0     H18892   7.721   2.134  10.186  1.4625 -1.0383  1.8610
  137MOL0     H18893   7.533   2.261  10.303 -2.0797  1.2108  1.2960
  137MOL0     H18894   7.211   2.136  10.301  0.6177 -1.3913  0.0734
  137MOL0     H18895   7.169   2.092  10.473 -1.7346  0.5944 -0.5728
  137MOL0     H18896   7.150   2.309  10.546  0.6612  1.0512 -0.4196
  137MOL0     H18897   7.037   2.278  10.417  0.3904 -1.1813  0.4979
  137MOL0     H18898   7.310   2.425  10.385 -0.2224  2.2637  0.1758
  137MOL0     H18899   7.176   2.413  10.257 -1.3721  2.5358  1.2264
  137MOL0     H18900   7.173   2.634  10.356  2.7505 -3.2837 -3.9351
  137MOL0     H18901   7.194   2.572  10.521 -0.7036 -1.3211  1.9270
  137MOL0     H18902   6.777   2.566  10.410  0.3429 -0.3432 -2.2302
  137MOL0     H18903   7.359   1.914  10.449 -1.6592  3.6415  2.4872
  137MOL0     H18904   7.433   1.690  10.365 -0.0456 -0.2989 -1.5321
  137MOL0     H18905   7.508   1.700  10.198 -2.7844  2.2304 -0.6587
  137MOL0     H18906   7.607   1.701  10.352 -0.4489  2.5544  4.3428
  138MOL0     O18907  10.234   8.216   4.417 -0.1691  0.3943 -0.0608
  138MOL0     C18908  10.135   8.154   4.456  0.0878  0.2092 -0.0602
  138MOL0     O18909  10.136   8.027   4.507  0.1765 -0.8363 -0.1591
  138MOL0     C18910  10.260   7.977   4.537 -0.7468  0.1215 -0.5189
  138MOL0     C18911  10.338   8.029   4.636 -0.6542 -0.4576  0.2488
  138MOL0     C18912  10.467   7.988   4.655 -0.1844 -0.4266  0.2626
  138MOL0     C18913  10.523   7.890   4.570  0.2720  0.4615 -0.2747
  138MOL0     O18914  10.648   7.841   4.609 -0.7992  0.2047  0.2862
  138MOL0     C18915  10.708   7.728   4.549 -0.7200 -0.4108 -0.7174
  138MOL0     C18916  10.862   7.718   4.584 -0.4123  0.7865  0.2904
  138MOL0     C18917  10.872   7.687   4.734  1.0538  0.7083  1.4481
  138MOL0     C18918  11.017   7.646   4.763  0.3979  0.4998  0.5432
  138MOL0     C18919  11.045   7.661   4.920 -0.4529  1.1527 -0.0146
  138MOL0     C18920  11.120   7.794   4.960  0.6454  0.6428  0.3052
  138MOL0     C18921  11.152   7.777   5.109 -0.6285 -0.0471  0.1580
  138MOL0     C18922  11.219   7.901   5.165 -0.3674 -0.2249 -0.4937
  138MOL0     N18923  11.285   7.866   5.290 -1.1167  0.1033  0.0054
  138MOL0     C18924  11.247   7.908   5.416  0.6900 -0.9750 -0.5215
  138MOL0     C18925  11.344   7.864   5.504 -0.0990 -0.3641  0.0713
  138MOL0     C18926  11.352   7.889   5.655 -0.8196 -0.1575  0.4876
  138MOL0     C18927  11.390   8.039   5.685 -0.2629 -0.5693 -0.4386
  138MOL0     C18928  11.531   8.056   5.627 -0.3208  0.1809  0.4690
  138MOL0     C18929  11.593   8.172   5.689 -0.3025 -0.2813 -0.1752
  138MOL0     O18930  11.726   8.179   5.635 -0.8840 -0.5830  0.0408
  138MOL0     C18931  11.800   8.290   5.661  0.5334 -0.1041 -0.3091
  138MOL0     C18932  11.744   8.397   5.723  0.0700  0.0903 -0.5012
  138MOL0     C18933  11.822   8.504   5.768  1.3179  0.6577 -1.0780
  138MOL0     C18934  11.747   8.613   5.843 -0.5208  0.2622 -0.6654
  138MOL0     C18935  11.957   8.508   5.729 -0.1171  0.2611 -0.5371
  138MOL0     C18936  12.052   8.628   5.761 -0.2666 -0.2064  0.3639
  138MOL0     O18937  12.184   8.605   5.736 -0.0307 -0.8406  0.6915
  138MOL0     C18938  12.278   8.699   5.706  0.0371 -0.4012  0.0765
  138MOL0     C18939  12.413   8.676   5.728  0.1744  0.1420  0.1545
  138MOL0     C18940  12.508   8.775   5.718 -0.5648 -0.7704 -0.6443
  138MOL0     C18941  12.472   8.903   5.683 -0.6125 -0.2424 -0.0786
  138MOL0     O18942  12.562   8.998   5.637 -0.0346  0.3508 -0.8060
  138MOL0     C18943  12.618   9.056   5.755  0.4109 -0.1701  0.2680
  138MOL0     C18944  12.624   9.203   5.749  0.3121  0.1698  1.6180
  138MOL0     C18945  12.672   9.274   5.874 -0.8074 -0.4379 -0.1320
  138MOL0     C18946  12.665   9.431   5.848  0.4951  0.3493  0.0496
  138MOL0     C18947  12.731   9.520   5.959  0.2690  0.8009  0.6764
  138MOL0     C18948  12.662   9.516   6.086  1.2848  0.3585 -0.2189
  138MOL0     C18949  12.734   9.593   6.192  0.3249 -0.8424 -0.0584
  138MOL0     C18950  12.695   9.558   6.338  0.2953  0.3601  0.3706
  138MOL0    Cl18951  12.818   9.625   6.447  0.2565  0.1405  0.0060
  138MOL0     C18952  12.341   8.933   5.655  0.3887  0.0481 -0.8874
  138MOL0     C18953  12.245   8.831   5.671 -0.6945  0.6521 -0.0282
  138MOL0     O18954  12.006   8.738   5.809  0.2107  0.6664  0.9043
  138MOL0     C18955  12.013   8.397   5.657  0.1197  0.6050 -0.3348
  138MOL0     C18956  11.929   8.290   5.627  0.2524 -0.7617  1.1104
  138MOL0     N18957  11.441   7.803   5.427 -0.7063 -0.4333 -0.9002
  138MOL0     N18958  11.394   7.787   5.307  0.0877 -0.4800  0.0235
  138MOL0     C18959  10.444   7.836   4.468  0.1975  0.4190 -0.4742
  138MOL0     C18960  10.307   7.868   4.462  0.3215 -0.2483 -0.3260
  138MOL0     C18961   9.997   8.225   4.450 -0.5643  1.2813  0.0303
  138MOL0     C18962   9.882   8.160   4.505 -0.0181  0.5814 -0.0693
  138MOL0     C18963   9.757   8.220   4.501  1.2205  0.4352 -0.4737
  138MOL0     C18964   9.738   8.346   4.459  0.1328  0.2573 -0.1688
  138MOL0     O18965   9.609   8.402   4.473 -0.3953 -0.0265  0.4745
  138MOL0     C18966   9.583   8.532   4.413  0.2946 -0.2954  0.0235
  138MOL0     C18967   9.441   8.557   4.389  0.1922  0.3859  0.2379
  138MOL0     C18968   9.349   8.531   4.503 -0.1249  0.9202  0.2855
  138MOL0     C18969   9.216   8.594   4.478  0.2141  0.0126  0.4824
  138MOL0     C18970   9.142   8.532   4.365 -0.4265 -0.0416  0.6173
  138MOL0     C18971   9.104   8.472   4.269 -0.6782  0.3776 -0.6255
  138MOL0     C18972   9.853   8.416   4.410 -0.0039 -0.4798 -0.3514
  138MOL0     C18973   9.978   8.355   4.392  0.1873 -0.2882 -0.0100
  138MOL0     C18974  10.083   8.437   4.323 -0.5210 -0.3981 -0.3779
  138MOL0     H18975  10.298   8.107   4.700 -2.2445 -1.2858  0.3171
  138MOL0     H18976  10.529   8.047   4.722 -1.2627  2.9274 -1.4575
  138MOL0     H18977  10.696   7.734   4.440  0.1858  0.4930 -0.7791
  138MOL0     H18978  10.657   7.638   4.584 -1.5442  1.1593  2.5168
  138MOL0     H18979  10.900   7.636   4.522  0.1810 -0.2417  1.9328
  138MOL0     H18980  10.904   7.814   4.556 -1.9891  1.0883 -1.1599
  138MOL0     H18981  10.824   7.772   4.785 -1.7180  0.6696 -0.8755
  138MOL0     H18982  10.811   7.597   4.749  0.5534  0.6056 -0.8040
  138MOL0     H18983  11.040   7.548   4.722 -0.2270  1.4870 -2.4230
  138MOL0     H18984  11.075   7.721   4.708  0.4960  0.4495  0.5773
  138MOL0     H18985  11.108   7.580   4.958 -0.9201  0.5061 -0.5881
  138MOL0     H18986  10.950   7.655   4.975 -0.8936  0.6043 -0.8102
  138MOL0     H18987  11.211   7.809   4.901  0.2569 -2.0445 -1.1325
  138MOL0     H18988  11.050   7.877   4.951 -1.7073 -1.4480 -3.5252
  138MOL0     H18989  11.223   7.693   5.106  0.0567  0.3542  2.8979
  138MOL0     H18990  11.057   7.752   5.156 -1.9916 -2.1884 -3.3430
  138MOL0     H18991  11.300   7.948   5.108 -0.9919  0.7694 -0.5917
  138MOL0     H18992  11.143   7.974   5.193 -0.2627  0.4850 -1.9703
  138MOL0     H18993  11.159   7.965   5.444  0.9594 -0.4342 -0.7480
  138MOL0     H18994  11.431   7.822   5.693  1.4930  1.5213 -1.0463
  138MOL0     H18995  11.255   7.868   5.700 -2.2945  2.3590 -1.3108
  138MOL0     H18996  11.318   8.104   5.636 -0.4546 -0.1231  0.4136
  138MOL0     H18997  11.389   8.058   5.793 -3.7979  1.3126 -0.6751
  138MOL0     H18998  11.590   7.966   5.648  0.0384 -0.6201 -3.2892
  138MOL0     H18999  11.540   8.055   5.518 -2.9850 -2.0227  0.1938
  138MOL0     H19000  11.534   8.259   5.658  2.2707  0.9822 -1.9528
  138MOL0     H19001  11.601   8.162   5.797  0.8775 -0.4748 -0.2661
  138MOL0     H19002  11.638   8.389   5.743  0.0026 -1.0601 -1.2371
  138MOL0     H19003  11.771   8.615   5.949  2.1278 -0.7745 -1.1616
  138MOL0     H19004  11.640   8.596   5.828 -0.5089  0.3397 -0.8469
  138MOL0     H19005  11.778   8.700   5.785 -0.0363 -0.4908 -1.5831
  138MOL0     H19006  12.435   8.574   5.759  0.3146  0.4974  1.2691
  138MOL0     H19007  12.616   8.777   5.726 -0.6351  1.0343  6.7665
  138MOL0     H19008  12.569   9.015   5.845  2.5843 -3.7500  0.0381
  138MOL0     H19009  12.718   9.012   5.764 -0.5927 -4.2623 -4.2146
  138MOL0     H19010  12.706   9.236   5.684  1.8805 -2.7036  1.9394
  138MOL0     H19011  12.530   9.248   5.716  2.1906  2.4535 -1.0321
  138MOL0     H19012  12.776   9.249   5.894 -0.4674  0.2116 -1.0492
  138MOL0     H19013  12.613   9.247   5.963 -0.2193  1.3440  0.8450
  138MOL0     H19014  12.560   9.459   5.838 -0.5228 -2.8481  0.7501
  138MOL0     H19015  12.716   9.457   5.755  2.5029 -0.6009  0.8093
  138MOL0     H19016  12.834   9.486   5.969 -0.6085 -2.0050  1.1521
  138MOL0     H19017  12.718   9.621   5.919  3.1590  1.8256  2.0862
  138MOL0     H19018  12.645   9.412   6.114 -2.8719  0.2945 -2.2721
  138MOL0     H19019  12.560   9.553   6.078  0.6424 -0.9218  1.5474
  138MOL0     H19020  12.708   9.697   6.173 -1.5162 -1.0601  1.1000
  138MOL0     H19021  12.841   9.576   6.176  0.6518  0.9383  0.0339
  138MOL0     H19022  12.691   9.449   6.346  1.2080  0.2317 -0.7129
  138MOL0     H19023  12.597   9.592   6.373  0.2591 -1.9126  2.8121
  138MOL0     H19024  12.303   9.029   5.622 -0.5319  0.8167  2.0454
  138MOL0     H19025  12.147   8.860   5.632  0.0423  1.7793 -1.1109
  138MOL0     H19026  12.120   8.389   5.640  0.3136 -0.9111  1.2462
  138MOL0     H19027  11.968   8.200   5.583 -0.1157 -0.6998  0.6487
  138MOL0     H19028  10.486   7.760   4.402 -1.3121 -1.4305  0.5882
  138MOL0     H19029  10.238   7.841   4.383 -0.7926  1.1235  0.1271
  138MOL0     H19030   9.902   8.058   4.539 -1.0305  0.7945  1.2798
  138MOL0     H19031   9.665   8.167   4.522  0.4386  1.5500 -1.0478
  138MOL0     H19032   9.613   8.606   4.487 -1.7934  0.1235  0.5271
  138MOL0     H19033   9.634   8.556   4.319 -1.4307 -0.6593 -1.0566
  138MOL0     H19034   9.400   8.504   4.303 -2.7084  0.1452  1.6448
  138MOL0     H19035   9.427   8.663   4.366  1.4152  0.1976 -1.5703
  138MOL0     H19036   9.341   8.423   4.518 -0.2940  1.0670  1.3776
  138MOL0     H19037   9.402   8.563   4.594 -0.5774 -0.4123  1.0503
  138MOL0     H19038   9.231   8.702   4.464 -0.6462 -0.0513 -1.2083
  138MOL0     H19039   9.157   8.590   4.570 -1.0966 -0.6571 -0.3559
  138MOL0     H19040   9.064   8.405   4.196 -0.0379 -0.2898 -0.3786
  138MOL0     H19041   9.838   8.516   4.370  0.6221 -1.1681 -2.4151
  138MOL0     H19042  10.119   8.365   4.248  2.9700 -0.4759  1.1457
  138MOL0     H19043  10.048   8.526   4.270  1.5569  0.6155 -0.1468
  138MOL0     H19044  10.170   8.454   4.388  0.1109 -3.2411 -0.3400
  139MOL0     O19045   7.270   8.034   9.459 -0.4159  0.3628 -0.7465
  139MOL0     C19046   7.196   8.123   9.413  0.4733  0.3023  0.1355
  139MOL0     O19047   7.226   8.255   9.417 -0.1616  0.3239 -0.7507
  139MOL0     C19048   7.341   8.287   9.483  0.4489  0.2288  1.4905
  139MOL0     C19049   7.427   8.357   9.410 -1.5094 -0.5020 -0.0726
  139MOL0     C19050   7.542   8.408   9.473 -0.3797  0.2461 -0.0577
  139MOL0     C19051   7.568   8.378   9.608  0.0884  1.6109  0.2640
  139MOL0     O19052   7.679   8.433   9.669  0.0336  0.5683 -0.3573
  139MOL0     C19053   7.718   8.383   9.805 -0.1299  0.5757  0.0075
  139MOL0     C19054   7.849   8.446   9.854  0.3188 -0.0053  0.9743
  139MOL0     C19055   7.878   8.408   9.995  0.6457  0.3910  0.7107
  139MOL0     C19056   8.012   8.473  10.031  0.1221  0.3187 -0.0665
  139MOL0     C19057   8.030   8.439  10.181 -0.8542  0.4678  0.3450
  139MOL0     C19058   8.160   8.507  10.236 -0.0798 -1.0688  1.1987
  139MOL0     C19059   8.155   8.528  10.384 -0.9361  0.0128 -0.3424
  139MOL0     C19060   8.293   8.574  10.442  0.2642 -0.0066  0.1708
  139MOL0     N19061   8.312   8.575  10.586  0.6005  0.2744  0.7699
  139MOL0     C19062   8.308   8.459  10.661 -1.2616  0.1767 -0.2891
  139MOL0     C19063   8.290   8.501  10.789 -0.2019  0.3071  0.3362
  139MOL0     C19064   8.302   8.409  10.910 -0.4008  0.5770  1.0286
  139MOL0     C19065   8.452   8.377  10.927 -0.2677  0.0833 -0.6574
  139MOL0     C19066   8.484   8.270  11.029 -0.3233 -0.3398  0.0342
  139MOL0     C19067   8.640   8.253  11.049  0.2656  0.1494 -0.3736
  139MOL0     O19068   8.700   8.199  10.931  0.1733 -0.2065 -0.3066
  139MOL0     C19069   8.829   8.204  10.897  1.1479 -0.0934  0.0591
  139MOL0     C19070   8.927   8.235  10.987  0.5771 -0.6819 -0.0281
  139MOL0     C19071   9.057   8.257  10.951 -0.0488  0.8065 -0.9986
  139MOL0     C19072   9.154   8.295  11.062 -0.1542  0.0428  0.3530
  139MOL0     C19073   9.096   8.235  10.819 -0.5428 -0.8336 -0.0820
  139MOL0     C19074   9.242   8.230  10.766 -0.8855  0.4907  0.2622
  139MOL0     O19075   9.341   8.213  10.858  0.2230  0.5321 -0.8134
  139MOL0     C19076   9.466   8.174  10.827  0.4679  0.7208 -0.1373
  139MOL0     C19077   9.539   8.224  10.723  0.1152 -0.2082 -0.0652
  139MOL0     C19078   9.676   8.188  10.698 -0.0571  0.1683  0.1780
  139MOL0     C19079   9.735   8.095  10.788  0.0415  0.1121  0.8372
  139MOL0     O19080   9.865   8.062  10.779 -0.1019  0.2065 -0.6050
  139MOL0     C19081   9.951   8.140  10.863 -0.1444  0.5342 -0.2834
  139MOL0     C19082  10.086   8.172  10.793  0.4939 -0.4428 -0.7929
  139MOL0     C19083  10.195   8.071  10.849  0.0482 -0.8292  0.9682
  139MOL0     C19084  10.332   8.119  10.813  0.3487 -0.8809  0.0502
  139MOL0     C19085  10.453   8.032  10.853 -0.3876 -0.9093 -0.1712
  139MOL0     C19086  10.474   7.913  10.764  0.1093 -0.3754  0.8264
  139MOL0     C19087  10.601   7.847  10.802 -0.1309 -0.3094  0.5769
  139MOL0     C19088  10.626   7.709  10.756  0.5308  0.5168 -0.0273
  139MOL0    Cl19089  10.690   7.712  10.588 -0.2111 -0.4874  0.1434
  139MOL0     C19090   9.655   8.032  10.884  0.0559 -1.4847  0.1209
  139MOL0     C19091   9.521   8.070  10.901  0.5169 -0.1360  0.2881
  139MOL0     O19092   9.251   8.221  10.646 -0.3756 -0.2009  0.1527
  139MOL0     C19093   8.997   8.193  10.731 -0.2702 -0.2919 -0.2090
  139MOL0     C19094   8.858   8.198  10.762  0.1671  1.6124 -0.2913
  139MOL0     N19095   8.261   8.638  10.789 -0.6571  0.1791 -0.0530
  139MOL0     N19096   8.277   8.680  10.669  0.0757  0.5141  0.0317
  139MOL0     C19097   7.465   8.311   9.685 -0.2759 -0.6850 -0.5854
  139MOL0     C19098   7.356   8.259   9.623  0.1354 -1.3629  0.1928
  139MOL0     C19099   7.074   8.081   9.347  1.0322 -0.4943  0.0331
  139MOL0     C19100   7.012   8.177   9.265 -0.1843 -0.0143  0.1709
  139MOL0     C19101   6.895   8.162   9.200  0.5204 -0.3040 -0.2411
  139MOL0     C19102   6.834   8.039   9.205  0.1966 -0.2559 -0.0122
  139MOL0     O19103   6.708   8.032   9.148 -0.1106 -0.2354  0.5047
  139MOL0     C19104   6.622   7.908   9.163 -0.4419  0.0344  0.0816
  139MOL0     C19105   6.533   7.885   9.041  0.3827 -0.4625 -0.6832
  139MOL0     C19106   6.603   7.844   8.914  0.3426 -1.0331 -0.5311
  139MOL0     C19107   6.516   7.860   8.793  0.2222 -0.0560 -0.0267
  139MOL0     C19108   6.400   7.773   8.811  0.2558  0.8261  0.0078
  139MOL0     C19109   6.306   7.698   8.796 -0.5219  0.5445 -0.0720
  139MOL0     C19110   6.888   7.932   9.284 -0.6192 -0.6024  0.6952
  139MOL0     C19111   7.007   7.958   9.358 -0.5484 -0.2608  0.0485
  139MOL0     C19112   7.051   7.839   9.442 -1.0731 -0.5169  0.7991
  139MOL0     H19113   7.403   8.383   9.308 -1.4941 -0.2895 -0.0231
  139MOL0     H19114   7.602   8.477   9.414 -2.3651  0.3703 -2.0835
  139MOL0     H19115   7.731   8.275   9.792  0.9234  0.8556 -1.5538
  139MOL0     H19116   7.641   8.399   9.881 -0.5383 -3.0876  0.5801
  139MOL0     H19117   7.932   8.417   9.789 -1.5467  0.4706 -1.7943
  139MOL0     H19118   7.842   8.555   9.850  2.1790  0.3817  4.2886
  139MOL0     H19119   7.802   8.443  10.066 -1.9766 -0.4952 -1.4800
  139MOL0     H19120   7.900   8.302   9.987 -1.1131  0.0172  0.3709
  139MOL0     H19121   8.089   8.436   9.963 -0.3868  0.2795 -0.6206
  139MOL0     H19122   8.014   8.582  10.024  3.6774  0.5187  1.8710
  139MOL0     H19123   8.053   8.333  10.198 -0.1737  0.3820 -0.9576
  139MOL0     H19124   7.945   8.474  10.239 -1.4341 -1.7952  0.9756
  139MOL0     H19125   8.253   8.457  10.207 -0.3510 -0.3569 -1.1783
  139MOL0     H19126   8.169   8.601  10.181  2.5477 -1.2119  1.2695
  139MOL0     H19127   8.133   8.425  10.416  1.6995  0.1511  2.2925
  139MOL0     H19128   8.074   8.594  10.416 -0.6164  1.0885 -1.6556
  139MOL0     H19129   8.360   8.499  10.399  0.7868  0.3888  0.2779
  139MOL0     H19130   8.315   8.671  10.395  1.0846  0.5458  1.6340
  139MOL0     H19131   8.329   8.360  10.623 -1.0845 -0.3486  1.1238
  139MOL0     H19132   8.242   8.318  10.894 -1.8120  1.6371 -0.0193
  139MOL0     H19133   8.267   8.457  11.002 -2.3832 -0.4150  0.8550
  139MOL0     H19134   8.497   8.349  10.832 -1.1439  1.9987 -1.6778
  139MOL0     H19135   8.498   8.469  10.966 -3.7268  1.1583  1.4124
  139MOL0     H19136   8.441   8.289  11.128 -2.0155 -3.2677 -0.0280
  139MOL0     H19137   8.436   8.176  11.000 -0.2294 -0.2167 -0.5324
  139MOL0     H19138   8.681   8.354  11.059  1.8920 -0.3943 -1.1879
  139MOL0     H19139   8.664   8.189  11.134 -0.7659  1.3091  0.8162
  139MOL0     H19140   8.908   8.241  11.093  0.7786 -0.5512  0.0011
  139MOL0     H19141   9.218   8.211  11.089 -0.8687 -1.0280 -1.1474
  139MOL0     H19142   9.102   8.333  11.150 -1.1650 -2.0917  0.7363
  139MOL0     H19143   9.218   8.379  11.032  0.8021  0.4062  3.1207
  139MOL0     H19144   9.491   8.295  10.657  0.7992  0.2141 -0.1185
  139MOL0     H19145   9.725   8.229  10.611 -0.5556  0.6827  0.1283
  139MOL0     H19146   9.904   8.238  10.877 -2.1031 -0.3891 -0.0108
  139MOL0     H19147   9.967   8.097  10.962 -1.3701 -1.7317 -1.0027
  139MOL0     H19148  10.074   8.173  10.685 -0.4307  0.0915 -0.6905
  139MOL0     H19149  10.111   8.271  10.831  1.7485 -1.9846  2.8778
  139MOL0     H19150  10.173   7.973  10.807 -1.5787 -0.5151  1.0211
  139MOL0     H19151  10.190   8.057  10.957 -0.2208  1.3776  1.2909
  139MOL0     H19152  10.344   8.213  10.866 -2.4923 -1.8686  2.7987
  139MOL0     H19153  10.341   8.131  10.705 -1.5251 -1.1027 -0.1716
  139MOL0     H19154  10.541   8.094  10.837 -2.4911  2.5829  0.5980
  139MOL0     H19155  10.455   8.010  10.960  1.3703 -0.5543 -0.1074
  139MOL0     H19156  10.476   7.943  10.659  2.9887 -2.1294  0.2832
  139MOL0     H19157  10.395   7.838  10.775  0.2711 -0.2800  3.3151
  139MOL0     H19158  10.613   7.863  10.910 -0.3046  1.1840  0.3925
  139MOL0     H19159  10.677   7.919  10.771 -0.2991  0.1739  1.2609
  139MOL0     H19160  10.536   7.647  10.759 -0.9808  2.2908 -3.0542
  139MOL0     H19161  10.691   7.658  10.827 -0.6947 -0.9849  0.0521
  139MOL0     H19162   9.694   7.962  10.957 -1.1405 -0.6318  1.6642
  139MOL0     H19163   9.466   8.029  10.986 -0.9865  1.5361  0.1773
  139MOL0     H19164   9.033   8.159  10.634 -0.0568 -0.4846 -0.0632
  139MOL0     H19165   8.780   8.177  10.689  0.8398 -0.3112 -0.5288
  139MOL0     H19166   7.489   8.300   9.790 -0.3402 -0.8351 -0.5863
  139MOL0     H19167   7.280   8.207   9.681 -1.0804  0.8081  0.6622
  139MOL0     H19168   7.066   8.268   9.238 -0.0139 -0.4817 -1.1749
  139MOL0     H19169   6.849   8.247   9.151 -0.6259  0.9857  2.8256
  139MOL0     H19170   6.690   7.823   9.172  0.3825  0.6557 -0.1010
  139MOL0     H19171   6.559   7.922   9.251  0.7163  3.5725  0.4927
  139MOL0     H19172   6.485   7.982   9.026 -0.0332 -0.3442  1.1485
  139MOL0     H19173   6.451   7.818   9.068 -1.0895  1.2949 -0.5648
  139MOL0     H19174   6.697   7.897   8.899 -2.1322  3.7671 -1.1125
  139MOL0     H19175   6.628   7.740   8.936 -1.0207 -1.3333 -0.2952
  139MOL0     H19176   6.575   7.835   8.704 -1.8292 -2.2013 -0.8989
  139MOL0     H19177   6.472   7.959   8.782 -2.4796 -1.2742 -1.2274
  139MOL0     H19178   6.217   7.638   8.798 -1.7203  2.2463  1.9798
  139MOL0     H19179   6.845   7.832   9.285 -0.5429 -0.7376 -2.2134
  139MOL0     H19180   6.980   7.756   9.439 -2.7675  0.8939  0.0802
  139MOL0     H19181   7.145   7.807   9.396 -1.8005 -1.5772  0.0082
  139MOL0     H19182   7.072   7.862   9.547 -0.5933 -0.8244  0.7738
  140MOL0     O19183   5.525   0.907   7.306  0.3127 -0.1566 -0.4156
  140MOL0     C19184   5.459   0.997   7.364 -0.5715 -0.4856  0.2273
  140MOL0     O19185   5.522   1.097   7.431  0.1190 -0.3285  0.2050
  140MOL0     C19186   5.659   1.109   7.442 -0.5030  0.9689 -0.0741
  140MOL0     C19187   5.749   1.006   7.474 -0.0378  0.3561 -0.5751
  140MOL0     C19188   5.885   1.042   7.493  0.1078  0.0050  0.2899
  140MOL0     C19189   5.926   1.167   7.483 -0.2909  0.1848  0.0275
  140MOL0     O19190   6.060   1.180   7.495  0.1691 -0.9625 -0.0093
  140MOL0     C19191   6.119   1.183   7.365 -0.1092 -0.8100 -0.5419
  140MOL0     C19192   6.263   1.219   7.366 -0.3183 -0.0294 -0.0543
  140MOL0     C19193   6.351   1.131   7.450 -0.5468 -0.6191  0.1642
  140MOL0     C19194   6.498   1.157   7.404 -0.9885  0.5242  0.0160
  140MOL0     C19195   6.599   1.088   7.486 -0.4928  0.2729 -0.2955
  140MOL0     C19196   6.739   1.140   7.455  0.7203 -0.1222 -0.7329
  140MOL0     C19197   6.837   1.067   7.537 -0.4823  0.1624  0.4877
  140MOL0     C19198   6.979   1.071   7.498  0.7439 -0.4393  0.1070
  140MOL0     N19199   7.032   1.205   7.528 -0.0146  0.5765 -0.0979
  140MOL0     C19200   7.130   1.237   7.628 -0.6712  0.2289  0.2967
  140MOL0     C19201   7.156   1.369   7.609 -0.4940 -0.0876  0.0307
  140MOL0     C19202   7.273   1.445   7.672  0.0497 -0.1585 -0.2188
  140MOL0     C19203   7.254   1.490   7.817  0.5685  0.3646  0.0866
  140MOL0     C19204   7.359   1.586   7.868  0.2850  0.2296  0.6450
  140MOL0     C19205   7.400   1.569   8.014  0.4560 -0.2216 -1.0635
  140MOL0     O19206   7.538   1.604   8.028  0.3263 -0.2861 -0.3065
  140MOL0     C19207   7.639   1.523   7.996 -0.2334  0.1812  0.3421
  140MOL0     C19208   7.618   1.410   7.920  0.4491 -0.8577  0.4754
  140MOL0     C19209   7.727   1.326   7.889 -0.5309  0.4963 -0.3448
  140MOL0     C19210   7.701   1.201   7.799  0.5268 -0.4074  0.1617
  140MOL0     C19211   7.851   1.350   7.947 -0.5335 -0.3885 -0.0279
  140MOL0     C19212   7.971   1.270   7.913 -0.3392 -0.3233 -0.2641
  140MOL0     O19213   7.959   1.140   7.882 -0.0630 -0.3120 -0.0559
  140MOL0     C19214   8.059   1.058   7.833 -0.1841 -0.3287  0.3152
  140MOL0     C19215   8.177   1.034   7.892 -0.3481 -0.7134  0.1517
  140MOL0     C19216   8.283   0.961   7.837 -0.5335  0.9512 -0.0976
  140MOL0     C19217   8.256   0.906   7.711  0.8890  1.4195 -0.7030
  140MOL0     O19218   8.333   0.826   7.633 -0.5914 -0.5211  0.1457
  140MOL0     C19219   8.449   0.769   7.698 -0.6347 -0.4683 -0.2834
  140MOL0     C19220   8.520   0.677   7.594 -0.5008 -0.5536 -0.4307
  140MOL0     C19221   8.644   0.601   7.649 -0.0651 -0.2418  0.2510
  140MOL0     C19222   8.770   0.681   7.687  0.1624 -0.6390  0.4883
  140MOL0     C19223   8.796   0.800   7.588 -0.3629 -0.9537  0.4701
  140MOL0     C19224   8.929   0.860   7.605 -0.6637  1.0395  0.3438
  140MOL0     C19225   8.956   0.961   7.495 -0.3589  0.6851  0.5311
  140MOL0     C19226   9.089   1.032   7.536 -0.9291  0.1222  0.0670
  140MOL0    Cl19227   9.225   0.926   7.537  0.2338  0.3781 -0.0877
  140MOL0     C19228   8.132   0.915   7.655 -0.1653 -0.2541 -0.2250
  140MOL0     C19229   8.027   0.980   7.721 -0.6610 -0.1088 -0.1281
  140MOL0     O19230   8.077   1.325   7.931 -0.2986 -0.5074  0.9073
  140MOL0     C19231   7.859   1.471   8.023 -0.4333 -0.7009 -0.2764
  140MOL0     C19232   7.759   1.556   8.045  0.4074  0.2592 -0.0605
  140MOL0     N19233   7.064   1.422   7.524 -0.0198 -0.0797 -0.1256
  140MOL0     N19234   6.992   1.320   7.475  0.2942 -0.6235 -0.2670
  140MOL0     C19235   5.838   1.270   7.454  0.0223 -0.5718 -0.3785
  140MOL0     C19236   5.705   1.238   7.431  0.1989 -0.1836 -1.0414
  140MOL0     C19237   5.303   0.996   7.348 -0.4424  0.4328  0.0884
  140MOL0     C19238   5.242   1.071   7.447  0.1931  0.0476 -0.6520
  140MOL0     C19239   5.107   1.061   7.467 -0.0893  0.2218  0.0914
  140MOL0     C19240   5.022   0.985   7.384 -0.2389  0.1282 -0.3349
  140MOL0     O19241   4.893   0.987   7.411  0.2688  0.2996  0.3803
  140MOL0     C19242   4.801   0.944   7.302 -0.3528  0.6899 -0.2224
  140MOL0     C19243   4.660   0.962   7.346 -0.6010 -0.3260 -0.0513
  140MOL0     C19244   4.562   0.911   7.236 -0.3560  0.2098 -0.0156
  140MOL0     C19245   4.487   0.792   7.304  0.1867 -0.3005  0.3025
  140MOL0     C19246   4.383   0.739   7.216 -0.3321  0.1583 -0.4558
  140MOL0     C19247   4.318   0.663   7.152 -1.0403  0.6505  0.0069
  140MOL0     C19248   5.085   0.924   7.275  0.7564 -1.0329 -1.1404
  140MOL0     C19249   5.221   0.930   7.259 -0.3558 -0.4479 -0.7082
  140MOL0     C19250   5.280   0.861   7.140  0.4258 -0.8392  0.6585
  140MOL0     H19251   5.730   0.900   7.484 -2.1661  0.7423 -0.0989
  140MOL0     H19252   5.967   0.977   7.521  0.5305  1.1035  1.7361
  140MOL0     H19253   6.059   1.246   7.299 -0.6694 -1.2345 -0.4409
  140MOL0     H19254   6.117   1.084   7.318 -1.1404 -0.3586 -1.4721
  140MOL0     H19255   6.296   1.218   7.262 -3.1649 -1.9192 -1.0505
  140MOL0     H19256   6.265   1.321   7.405  0.9998 -0.9210  2.4277
  140MOL0     H19257   6.343   1.167   7.553 -1.4279  2.8092 -0.9602
  140MOL0     H19258   6.329   1.024   7.444 -0.0494 -0.6829 -0.7942
  140MOL0     H19259   6.520   1.141   7.298  0.3851 -0.1869  0.3785
  140MOL0     H19260   6.529   1.262   7.414  0.8539  0.0402 -0.1697
  140MOL0     H19261   6.595   0.980   7.468  0.2697  0.2172 -0.1609
  140MOL0     H19262   6.573   1.097   7.592 -3.0394 -1.9300 -0.6040
  140MOL0     H19263   6.767   1.125   7.351  0.4480 -1.6128 -0.6026
  140MOL0     H19264   6.740   1.246   7.483  0.1489 -0.2539 -0.1959
  140MOL0     H19265   6.819   0.960   7.523  0.7808  0.2553 -2.7507
  140MOL0     H19266   6.825   1.093   7.642 -4.3307  3.8607 -0.5899
  140MOL0     H19267   7.032   0.987   7.543  2.7762  1.9862  2.5707
  140MOL0     H19268   6.995   1.051   7.391  1.2150 -3.7865  0.6900
  140MOL0     H19269   7.189   1.168   7.687  2.3554  1.7593 -0.7615
  140MOL0     H19270   7.300   1.530   7.610 -2.7204  1.8101  1.0680
  140MOL0     H19271   7.356   1.373   7.677 -0.2192 -0.4081  1.0906
  140MOL0     H19272   7.153   1.531   7.822  0.1482 -0.3873 -1.6013
  140MOL0     H19273   7.253   1.401   7.882 -3.4040  1.4482  1.8184
  140MOL0     H19274   7.445   1.572   7.801 -1.0627 -1.0880 -0.9073
  140MOL0     H19275   7.317   1.684   7.840 -2.6295 -0.4830  2.1642
  140MOL0     H19276   7.336   1.628   8.081 -0.7581 -2.9643  0.3376
  140MOL0     H19277   7.384   1.466   8.047 -0.5020  0.1293 -0.3813
  140MOL0     H19278   7.530   1.370   7.869  1.9027 -3.7536 -0.0070
  140MOL0     H19279   7.750   1.192   7.702  0.3294 -4.9776  0.2616
  140MOL0     H19280   7.594   1.195   7.774  0.4330  1.9193 -0.2143
  140MOL0     H19281   7.720   1.106   7.849  1.1982 -0.9918 -1.1652
  140MOL0     H19282   8.190   1.084   7.987  3.1061  0.7017 -0.9164
  140MOL0     H19283   8.379   0.946   7.887 -1.2710 -1.6753  0.6934
  140MOL0     H19284   8.525   0.840   7.731  1.0265 -2.3711  0.1766
  140MOL0     H19285   8.412   0.712   7.783 -1.0519  0.5664  0.2466
  140MOL0     H19286   8.435   0.615   7.565 -2.1073  1.0749  0.5648
  140MOL0     H19287   8.559   0.735   7.510  1.2821 -0.8189  0.1626
  140MOL0     H19288   8.676   0.522   7.580  0.6298  0.6669 -0.5002
  140MOL0     H19289   8.622   0.540   7.737  0.3761 -1.5125 -0.4809
  140MOL0     H19290   8.852   0.610   7.673 -1.2718 -2.3343  0.2533
  140MOL0     H19291   8.762   0.714   7.791 -3.3626 -0.2941  0.2453
  140MOL0     H19292   8.799   0.771   7.483  2.4746  0.8395 -0.0627
  140MOL0     H19293   8.717   0.876   7.592  0.9923  0.6393 -1.4444
  140MOL0     H19294   8.995   0.773   7.603  0.7676  1.8057  4.3734
  140MOL0     H19295   8.945   0.913   7.699  0.4828  1.8203 -0.2702
  140MOL0     H19296   8.879   1.037   7.478 -0.4384  0.3203 -0.9364
  140MOL0     H19297   8.964   0.908   7.399  2.1364  1.1631  0.3901
  140MOL0     H19298   9.077   1.078   7.635  1.6834  2.1819 -0.4706
  140MOL0     H19299   9.115   1.109   7.463  0.5873 -1.0906 -0.7499
  140MOL0     H19300   8.108   0.865   7.562 -0.0179 -0.8724  0.0641
  140MOL0     H19301   7.930   0.985   7.674 -0.8646  0.0440  0.2990
  140MOL0     H19302   7.950   1.507   8.070 -1.2248  1.2690 -0.1852
  140MOL0     H19303   7.753   1.642   8.111  2.6766 -1.0013  1.9831
  140MOL0     H19304   5.879   1.370   7.445 -1.7264  0.0646 -1.9076
  140MOL0     H19305   5.628   1.313   7.414  0.5107 -0.0510 -1.8686
  140MOL0     H19306   5.280   1.144   7.518 -0.9974 -0.6713  0.7862
  140MOL0     H19307   5.053   1.115   7.545 -0.6107 -0.2953  0.0997
  140MOL0     H19308   4.811   1.008   7.214 -1.7257  0.2715 -0.7083
  140MOL0     H19309   4.802   0.839   7.270  1.1149  0.2124  1.2591
  140MOL0     H19310   4.651   1.069   7.367  0.0117 -0.1906 -0.4580
  140MOL0     H19311   4.646   0.897   7.433 -0.5247  1.2152  1.1440
  140MOL0     H19312   4.495   0.993   7.210  0.3757  0.9245  0.2891
  140MOL0     H19313   4.617   0.879   7.148  0.7146 -1.0378  1.0625
  140MOL0     H19314   4.451   0.821   7.403  1.3119 -4.5026  2.1585
  140MOL0     H19315   4.554   0.706   7.312 -0.1911 -0.8327 -1.5869
  140MOL0     H19316   4.263   0.607   7.079  0.9248 -1.5501  0.0646
  140MOL0     H19317   5.016   0.870   7.210 -0.5425  2.5614 -2.9851
  140MOL0     H19318   5.212   0.857   7.054  1.4563 -2.0018 -0.1409
  140MOL0     H19319   5.368   0.921   7.113  1.9973 -3.9833 -1.9540
  140MOL0     H19320   5.313   0.757   7.151  1.4200 -0.5449  0.5705
  141MOL0     O19321  11.022  11.013   1.643 -0.4766 -0.0677 -0.2031
  141MOL0     C19322  11.007  11.133   1.620 -0.3195  0.6921 -0.0247
  141MOL0     O19323  11.108  11.215   1.562  0.8079 -0.7406  0.2073
  141MOL0     C19324  11.236  11.159   1.550 -0.0536 -0.0442 -0.0637
  141MOL0     C19325  11.259  11.042   1.470 -0.1203  0.2197 -0.5672
  141MOL0     C19326  11.379  10.974   1.461  0.1733 -0.1830  0.4751
  141MOL0     C19327  11.484  11.021   1.541  0.2417 -0.7680 -0.8709
  141MOL0     O19328  11.617  10.971   1.552  0.2967 -0.5273 -0.7338
  141MOL0     C19329  11.626  10.834   1.537  0.0709 -0.3209  0.2762
  141MOL0     C19330  11.767  10.795   1.584  0.3269 -0.0351  0.9449
  141MOL0     C19331  11.876  10.832   1.488 -0.0870 -0.2499 -0.3150
  141MOL0     C19332  12.016  10.784   1.544 -0.0524  0.7095 -0.1260
  141MOL0     C19333  12.121  10.859   1.467  0.5320 -0.3147  0.1290
  141MOL0     C19334  12.268  10.850   1.513 -0.7340  0.2532  0.1025
  141MOL0     C19335  12.347  10.938   1.422 -0.2766 -0.2942  0.6741
  141MOL0     C19336  12.499  10.916   1.433 -0.0147 -0.7955  0.0848
  141MOL0     N19337  12.563  10.950   1.555  0.0132  0.2547  0.2248
  141MOL0     C19338  12.588  10.865   1.658  0.3107 -0.3183 -0.1581
  141MOL0     C19339  12.653  10.940   1.744 -0.0364 -0.3567  0.0556
  141MOL0     C19340  12.672  10.907   1.892 -0.6859  0.0522  0.0717
  141MOL0     C19341  12.629  10.773   1.944 -0.1493  0.5050 -0.7616
  141MOL0     C19342  12.656  10.757   2.093 -0.3889  0.0507 -0.0774
  141MOL0     C19343  12.783  10.682   2.128 -0.0079  0.4008  0.4075
  141MOL0     O19344  12.807  10.692   2.263  0.3466  0.4576  0.4955
  141MOL0     C19345  12.919  10.623   2.304  0.4919  0.4389 -0.5467
  141MOL0     C19346  12.921  10.620   2.440 -0.0578  0.9139 -0.2880
  141MOL0     C19347  13.028  10.557   2.512 -0.1980  0.0466 -0.5151
  141MOL0     C19348  13.014  10.534   2.660  0.6738  0.3948  0.1401
  141MOL0     C19349  13.137  10.516   2.437 -0.0256  0.1581  0.0564
  141MOL0     C19350  13.268  10.473   2.499  0.5253  0.0315  0.1072
  141MOL0     O19351  13.280  10.477   2.632 -0.2586 -0.3402 -0.1021
  141MOL0     C19352  13.413  10.506   2.673  0.7739  0.0488 -0.8931
  141MOL0     C19353  13.469  10.392   2.738 -0.5426  0.2950 -0.5131
  141MOL0     C19354  13.607  10.390   2.779 -0.6574  0.1356 -0.7074
  141MOL0     C19355  13.681  10.508   2.765 -0.7678  0.2001  0.1180
  141MOL0     O19356  13.815  10.519   2.808 -0.2218 -0.2748 -0.4292
  141MOL0     C19357  13.878  10.404   2.882 -0.3811 -0.8667 -0.2421
  141MOL0     C19358  14.032  10.418   2.876 -0.4828 -0.3597 -0.5403
  141MOL0     C19359  14.108  10.293   2.927 -0.6164 -0.1061 -0.5852
  141MOL0     C19360  14.259  10.288   2.899 -0.0138 -1.0673 -0.8145
  141MOL0     C19361  14.314  10.159   2.951 -0.1393  0.6893 -0.2568
  141MOL0     C19362  14.464  10.147   2.954 -0.1786 -0.5366  0.1425
  141MOL0     C19363  14.530  10.241   3.045 -0.3666 -0.4873 -0.0672
  141MOL0     C19364  14.659  10.193   3.105 -0.1977 -0.2157  0.6821
  141MOL0    Cl19365  14.787  10.159   2.976  0.1861  0.1271  0.2813
  141MOL0     C19366  13.620  10.628   2.709  0.7953 -0.1787  0.7036
  141MOL0     C19367  13.490  10.626   2.664 -0.1273 -0.7062 -0.5055
  141MOL0     O19368  13.364  10.460   2.423 -0.0770  0.1429 -0.2974
  141MOL0     C19369  13.131  10.513   2.294 -0.0723  0.1695  0.4762
  141MOL0     C19370  13.022  10.567   2.229  0.5065 -0.4026 -0.4914
  141MOL0     N19371  12.679  11.059   1.691  0.4731  0.0967 -0.5000
  141MOL0     N19372  12.623  11.066   1.572  0.1952 -0.2285  0.0800
  141MOL0     C19373  11.471  11.145   1.606  0.7851 -0.2620  0.4931
  141MOL0     C19374  11.353  11.220   1.609  1.4605 -0.1586 -0.1278
  141MOL0     C19375  10.870  11.187   1.628 -0.3114  0.1728 -1.4008
  141MOL0     C19376  10.837  11.282   1.522  0.0398  0.1166 -0.3331
  141MOL0     C19377  10.726  11.365   1.531 -1.0217 -0.3702  0.2482
  141MOL0     C19378  10.644  11.358   1.642 -0.1553 -0.3298  0.6668
  141MOL0     O19379  10.545  11.450   1.660  0.2741  0.5519  0.5972
  141MOL0     C19380  10.427  11.434   1.575  0.3491  0.2248 -0.1294
  141MOL0     C19381  10.312  11.499   1.646  0.4040 -0.8925  0.4877
  141MOL0     C19382  10.274  11.421   1.779  0.8448 -1.0719 -0.3521
  141MOL0     C19383  10.148  11.474   1.835  0.4516 -0.0901  0.2159
  141MOL0     C19384  10.030  11.430   1.760  0.0892  0.3931  0.7921
  141MOL0     C19385   9.928  11.403   1.697 -0.1891 -0.0418  0.7919
  141MOL0     C19386  10.671  11.261   1.734  0.0958  0.0471 -0.2743
  141MOL0     C19387  10.783  11.177   1.741 -0.2812  0.1044  0.2250
  141MOL0     C19388  10.814  11.103   1.868 -0.2657 -0.3103  0.1920
  141MOL0     H19389  11.177  11.013   1.406 -1.2043 -1.6664  1.5627
  141MOL0     H19390  11.395  10.889   1.396 -2.1011 -0.2361 -0.1119
  141MOL0     H19391  11.612  10.805   1.433 -0.8585  0.0486  0.2857
  141MOL0     H19392  11.545  10.787   1.593 -1.0996  1.4140  0.1276
  141MOL0     H19393  11.796  10.825   1.685 -1.8709 -0.3038  1.7292
  141MOL0     H19394  11.776  10.687   1.598  2.8389  0.2271  1.7592
  141MOL0     H19395  11.855  10.787   1.391  1.5307 -1.1325 -0.2914
  141MOL0     H19396  11.877  10.940   1.471  2.0635 -0.3331 -0.9883
  141MOL0     H19397  12.033  10.802   1.651 -0.8391 -0.1710  0.1658
  141MOL0     H19398  12.030  10.676   1.530 -1.7711  0.7164 -2.3461
  141MOL0     H19399  12.098  10.966   1.471  2.7362  0.2711 -1.0026
  141MOL0     H19400  12.109  10.831   1.362 -0.3597  2.9870 -0.7702
  141MOL0     H19401  12.281  10.888   1.615 -1.9173  0.6448  0.1156
  141MOL0     H19402  12.309  10.749   1.515 -1.3155  0.0196  1.1679
  141MOL0     H19403  12.323  11.043   1.442  4.5830  0.8116  2.0027
  141MOL0     H19404  12.317  10.934   1.317  0.5375  2.2090  0.3000
  141MOL0     H19405  12.515  10.809   1.417  0.5313 -0.7143  0.0990
  141MOL0     H19406  12.550  10.970   1.353 -0.2594 -1.3408 -0.4459
  141MOL0     H19407  12.552  10.763   1.670 -1.6238  0.3149 -0.2449
  141MOL0     H19408  12.633  10.990   1.952  0.8998  1.0731 -0.2563
  141MOL0     H19409  12.781  10.901   1.895 -0.6059  0.6957 -1.1596
  141MOL0     H19410  12.520  10.772   1.929 -0.4176 -0.7962  1.0393
  141MOL0     H19411  12.671  10.690   1.887 -1.5534  0.7673 -2.2544
  141MOL0     H19412  12.654  10.850   2.149  4.0285  1.1979 -1.4240
  141MOL0     H19413  12.572  10.696   2.127 -0.7903  0.1859 -0.8122
  141MOL0     H19414  12.755  10.580   2.101  0.5294 -0.4129  2.7412
  141MOL0     H19415  12.862  10.719   2.061  0.2221  0.1479  0.5397
  141MOL0     H19416  12.834  10.657   2.493 -1.7432 -1.4531 -1.2490
  141MOL0     H19417  12.919  10.576   2.696  0.8100 -1.2562  2.6507
  141MOL0     H19418  13.086  10.595   2.716 -1.1728  3.6313 -0.7276
  141MOL0     H19419  13.021  10.431   2.694 -1.8682  0.3413  0.7017
  141MOL0     H19420  13.410  10.303   2.755  2.3953 -1.5741  0.6042
  141MOL0     H19421  13.645  10.304   2.834 -0.4205  1.3204  1.0690
  141MOL0     H19422  13.852  10.385   2.986  3.2876  1.2596  1.2577
  141MOL0     H19423  13.876  10.316   2.817  3.6487  0.5991 -2.7958
  141MOL0     H19424  14.064  10.441   2.774 -0.9366 -0.6011 -0.7368
  141MOL0     H19425  14.059  10.509   2.930 -1.1449  0.9689 -2.3517
  141MOL0     H19426  14.059  10.210   2.876 -0.6494  0.1365 -0.9544
  141MOL0     H19427  14.098  10.290   3.036  1.3336  1.3501 -0.3099
  141MOL0     H19428  14.314  10.367   2.953  0.7846  0.0726 -3.1281
  141MOL0     H19429  14.275  10.291   2.791  0.5561 -1.3764 -0.7464
  141MOL0     H19430  14.279  10.133   3.052  3.1140 -0.5672  0.7005
  141MOL0     H19431  14.271  10.079   2.891  1.4619  0.1333 -0.7104
  141MOL0     H19432  14.488  10.169   2.850 -4.0790  0.2884 -0.7544
  141MOL0     H19433  14.498  10.044   2.969 -1.8693 -1.2532 -0.6728
  141MOL0     H19434  14.458  10.256   3.126  0.0858  3.5393 -0.2296
  141MOL0     H19435  14.550  10.337   2.997  2.8387 -0.6243  0.8058
  141MOL0     H19436  14.633  10.100   3.156  2.3071 -2.1037 -1.2102
  141MOL0     H19437  14.700  10.256   3.184 -0.6331  1.3610 -0.3119
  141MOL0     H19438  13.688  10.712   2.705  1.7263 -0.9273  0.5547
  141MOL0     H19439  13.456  10.717   2.616  2.1849  1.2816  1.3960
  141MOL0     H19440  13.214  10.474   2.236 -1.3815 -1.9671 -0.0594
  141MOL0     H19441  13.013  10.569   2.121  2.6132  2.4767 -0.7419
  141MOL0     H19442  11.564  11.188   1.641  0.5133  0.7776 -0.0245
  141MOL0     H19443  11.349  11.316   1.658  2.4449  0.5179 -1.3227
  141MOL0     H19444  10.900  11.303   1.436  0.8471  2.0816  0.6595
  141MOL0     H19445  10.700  11.445   1.463 -2.1925 -0.9673 -0.0393
  141MOL0     H19446  10.445  11.482   1.479  0.5923 -0.0781 -0.2374
  141MOL0     H19447  10.405  11.328   1.556 -1.4359  0.5255  0.0495
  141MOL0     H19448  10.227  11.501   1.577 -0.9266 -3.2194  1.9252
  141MOL0     H19449  10.346  11.599   1.673  0.1738 -1.0862  1.5329
  141MOL0     H19450  10.266  11.313   1.764  1.1587 -0.9579 -1.4207
  141MOL0     H19451  10.359  11.445   1.844  1.1621 -0.8414 -0.8453
  141MOL0     H19452  10.133  11.582   1.845 -1.4559 -0.4229  1.3227
  141MOL0     H19453  10.134  11.432   1.935  1.2125  0.7781  0.7034
  141MOL0     H19454   9.831  11.385   1.654 -0.0593 -0.1632  0.5459
  141MOL0     H19455  10.606  11.251   1.820 -0.7740 -1.2596 -1.0305
  141MOL0     H19456  10.824  10.996   1.848  0.2571 -0.1673 -0.3431
  141MOL0     H19457  10.898  11.153   1.917 -1.4736  2.0911 -0.0611
  141MOL0     H19458  10.729  11.096   1.937  1.1041 -1.8390  1.8375
  142MOL0     O19459   9.781   7.062   1.563 -0.4949  0.1196  0.6424
  142MOL0     C19460   9.730   7.061   1.452 -0.7076 -0.6679  0.0757
  142MOL0     O19461   9.804   7.057   1.331 -0.4040  0.4078 -0.6067
  142MOL0     C19462   9.941   7.088   1.335  0.4938 -0.3452 -0.2375
  142MOL0     C19463   9.980   7.219   1.317 -0.1499  0.7294 -0.7911
  142MOL0     C19464  10.113   7.264   1.348 -0.1461 -0.2671  0.0206
  142MOL0     C19465  10.205   7.168   1.402 -0.4751  0.6719 -0.6833
  142MOL0     O19466  10.333   7.203   1.432 -0.3021  0.4871 -0.5404
  142MOL0     C19467  10.386   7.338   1.431 -0.7022 -0.5691 -0.4434
  142MOL0     C19468  10.544   7.338   1.457  0.3608  0.6371 -0.0865
  142MOL0     C19469  10.574   7.284   1.600  0.3888  0.0838  0.7804
  142MOL0     C19470  10.709   7.337   1.655 -0.4291 -0.7545  0.4589
  142MOL0     C19471  10.701   7.305   1.806  0.0535 -0.0379 -0.3144
  142MOL0     C19472  10.805   7.382   1.891 -0.0379  0.2001  0.6500
  142MOL0     C19473  10.952   7.382   1.837  0.7528 -0.0560  0.0349
  142MOL0     C19474  11.043   7.446   1.943  0.7825 -0.2027  0.4140
  142MOL0     N19475  11.183   7.434   1.911  0.9759  0.1478  0.4499
  142MOL0     C19476  11.244   7.520   1.820  0.2692 -0.2569 -0.4468
  142MOL0     C19477  11.358   7.453   1.783  0.0185 -1.4557 -0.0478
  142MOL0     C19478  11.440   7.497   1.674 -0.3093  0.7420 -0.0799
  142MOL0     C19479  11.590   7.507   1.716  0.2790 -0.0233  0.4468
  142MOL0     C19480  11.664   7.593   1.608  0.5075  0.7800 -1.0419
  142MOL0     C19481  11.809   7.594   1.651  0.5743  0.5442  0.0808
  142MOL0     O19482  11.820   7.692   1.755 -0.4039  0.1067 -0.2718
  142MOL0     C19483  11.916   7.664   1.853  0.4281  0.5689  0.4559
  142MOL0     C19484  12.036   7.589   1.822  0.7502  0.0154 -0.3737
  142MOL0     C19485  12.128   7.543   1.911 -0.5335 -0.1941  0.9411
  142MOL0     C19486  12.230   7.441   1.858  0.3398 -0.2343 -0.6506
  142MOL0     C19487  12.111   7.587   2.040 -0.3754  0.0085  0.6183
  142MOL0     C19488  12.204   7.568   2.149 -0.1871  0.2245  0.7948
  142MOL0     O19489  12.191   7.650   2.262 -0.5152  0.3218  0.3112
  142MOL0     C19490  12.294   7.658   2.346 -0.1188  0.2579  0.1368
  142MOL0     C19491  12.266   7.667   2.485  0.0320 -0.3518 -0.3249
  142MOL0     C19492  12.376   7.698   2.572  0.5861 -0.2616  0.2344
  142MOL0     C19493  12.511   7.718   2.531  0.5837  0.1176  0.1702
  142MOL0     O19494  12.609   7.750   2.620 -0.6063  0.0900  0.9417
  142MOL0     C19495  12.577   7.828   2.738  0.6327  0.0672  0.3064
  142MOL0     C19496  12.535   7.966   2.699  0.1148 -0.2411  0.1556
  142MOL0     C19497  12.663   8.026   2.640 -0.2316 -0.7791 -0.5130
  142MOL0     C19498  12.637   8.164   2.585 -0.2278 -0.1203  0.0828
  142MOL0     C19499  12.757   8.223   2.497  0.7962 -1.3256 -0.8663
  142MOL0     C19500  12.889   8.245   2.573 -0.1804 -0.0229 -0.3515
  142MOL0     C19501  12.871   8.313   2.711  0.1680 -0.3951 -1.1921
  142MOL0     C19502  12.824   8.459   2.709 -0.5521 -0.7683 -0.0571
  142MOL0    Cl19503  12.925   8.582   2.610 -0.2973 -0.1412  0.0338
  142MOL0     C19504  12.538   7.690   2.396  1.1911 -0.6141 -0.2270
  142MOL0     C19505  12.430   7.668   2.305  0.0131  0.1837  0.2513
  142MOL0     O19506  12.291   7.484   2.142  0.3630  0.3153 -0.3894
  142MOL0     C19507  11.997   7.654   2.072 -0.3427 -0.9764 -0.1194
  142MOL0     C19508  11.899   7.691   1.981 -0.2024 -0.1406 -0.6446
  142MOL0     N19509  11.357   7.334   1.849 -0.4127  0.2052 -0.9945
  142MOL0     N19510  11.248   7.320   1.921 -0.0990  0.7941 -0.4198
  142MOL0     C19511  10.156   7.037   1.420 -0.2850 -0.4598  0.7356
  142MOL0     C19512  10.027   6.998   1.390  0.6925 -0.2820  0.7798
  142MOL0     C19513   9.581   7.039   1.428  0.1189  0.4958 -0.1647
  142MOL0     C19514   9.525   7.006   1.298 -0.5742  0.4883 -0.1694
  142MOL0     C19515   9.393   6.988   1.269  0.4231  0.0516 -0.0732
  142MOL0     C19516   9.300   7.027   1.366 -0.5090  0.7235 -0.0189
  142MOL0     O19517   9.160   7.035   1.342 -0.2011 -0.2067  0.7531
  142MOL0     C19518   9.106   6.988   1.219 -0.0774 -0.1987  0.3712
  142MOL0     C19519   8.955   6.977   1.208  0.4187 -0.1449 -0.6065
  142MOL0     C19520   8.888   7.113   1.198 -0.2643 -0.3643  0.5407
  142MOL0     C19521   8.751   7.136   1.127  0.6424  0.0372  0.8077
  142MOL0     C19522   8.767   7.085   0.988 -0.0489  0.1098 -0.8934
  142MOL0     C19523   8.799   7.018   0.887  0.9015 -0.9353 -0.6633
  142MOL0     C19524   9.349   7.066   1.496 -0.1018  0.1989  0.4448
  142MOL0     C19525   9.483   7.067   1.524  1.3361  0.4357  0.2608
  142MOL0     C19526   9.514   7.108   1.666  0.9187  1.0248 -0.4990
  142MOL0     H19527   9.900   7.285   1.287 -0.5348  1.7832  2.2501
  142MOL0     H19528  10.148   7.365   1.328 -1.9535  0.2413 -0.7845
  142MOL0     H19529  10.334   7.399   1.506  0.2359  0.0505 -0.2780
  142MOL0     H19530  10.359   7.392   1.340  0.6510 -1.2022 -1.2608
  142MOL0     H19531  10.596   7.281   1.379 -2.3007 -2.3609  0.1493
  142MOL0     H19532  10.570   7.444   1.454 -2.2239  1.3347 -0.2515
  142MOL0     H19533  10.494   7.319   1.666  1.5667  3.5161  0.6055
  142MOL0     H19534  10.569   7.175   1.602 -3.6757  0.1457  1.0540
  142MOL0     H19535  10.794   7.300   1.598 -1.6669 -0.2028 -1.8734
  142MOL0     H19536  10.695   7.446   1.657 -4.1984 -1.0913 -0.1488
  142MOL0     H19537  10.725   7.199   1.818  0.6668  0.1417  0.1027
  142MOL0     H19538  10.602   7.329   1.847  0.2657  2.1982 -0.9984
  142MOL0     H19539  10.783   7.489   1.887  0.5581  0.3833  1.9176
  142MOL0     H19540  10.806   7.348   1.995  3.8855 -1.1292  0.3468
  142MOL0     H19541  10.958   7.434   1.741 -0.5759 -2.0174 -1.1725
  142MOL0     H19542  10.993   7.282   1.820  3.1838  1.1419 -1.8665
  142MOL0     H19543  11.021   7.552   1.962 -1.5817 -0.5553 -0.0231
  142MOL0     H19544  11.026   7.395   2.038 -1.3020  2.6507  1.7298
  142MOL0     H19545  11.198   7.610   1.780 -2.3385 -1.3479 -0.1294
  142MOL0     H19546  11.399   7.585   1.625 -1.9831  0.6247  1.0402
  142MOL0     H19547  11.426   7.416   1.601 -0.6069  0.6522  0.0746
  142MOL0     H19548  11.598   7.563   1.809 -0.1628  2.1604 -0.7409
  142MOL0     H19549  11.633   7.408   1.732  0.8399  0.1849  0.2453
  142MOL0     H19550  11.641   7.553   1.509  0.6129 -2.7195  0.2013
  142MOL0     H19551  11.620   7.693   1.614 -1.4702 -0.0382 -1.1235
  142MOL0     H19552  11.837   7.493   1.682  0.1406  0.3962  0.0006
  142MOL0     H19553  11.880   7.632   1.577  1.0837  2.5157  1.5100
  142MOL0     H19554  12.051   7.569   1.717 -1.1713  0.6767 -0.8246
  142MOL0     H19555  12.208   7.411   1.755 -0.9092  0.0568 -0.4874
  142MOL0     H19556  12.240   7.347   1.913  2.2347 -0.1039 -0.7032
  142MOL0     H19557  12.328   7.488   1.852 -0.2438  1.4094  1.6272
  142MOL0     H19558  12.169   7.653   2.532  0.8264 -0.0260  1.5315
  142MOL0     H19559  12.352   7.716   2.676 -1.5845 -0.0095 -0.2582
  142MOL0     H19560  12.503   7.781   2.802 -0.4315 -2.1010 -2.2995
  142MOL0     H19561  12.666   7.834   2.802  1.0002  3.4720 -0.3450
  142MOL0     H19562  12.450   7.957   2.632  1.5559  0.3787 -1.8619
  142MOL0     H19563  12.494   8.016   2.787 -3.2278 -1.6016 -0.4867
  142MOL0     H19564  12.686   7.966   2.551  1.3277 -2.3485  0.8820
  142MOL0     H19565  12.754   8.037   2.700  1.6339 -0.0513 -3.2775
  142MOL0     H19566  12.618   8.239   2.663  1.6755  1.0028 -0.4631
  142MOL0     H19567  12.546   8.159   2.525 -1.2211 -0.8956  1.6133
  142MOL0     H19568  12.772   8.165   2.406 -0.2681 -2.0550 -0.6012
  142MOL0     H19569  12.718   8.323   2.474  0.5652 -1.5461 -1.4425
  142MOL0     H19570  12.965   8.299   2.516  1.6194 -1.5665  0.4798
  142MOL0     H19571  12.930   8.144   2.581  3.8645  1.5079  0.0736
  142MOL0     H19572  12.959   8.309   2.776 -0.9109  1.3847  0.4710
  142MOL0     H19573  12.802   8.253   2.770  3.3899 -3.6235 -0.3806
  142MOL0     H19574  12.829   8.484   2.816 -1.0232 -1.3535  0.1048
  142MOL0     H19575  12.719   8.467   2.681 -0.0706 -2.4560 -2.7072
  142MOL0     H19576  12.643   7.690   2.369  1.0025 -1.8527 -1.0049
  142MOL0     H19577  12.462   7.651   2.203  0.0252  2.4719 -0.1789
  142MOL0     H19578  11.981   7.694   2.171 -1.7660  1.9836 -1.4141
  142MOL0     H19579  11.813   7.747   2.015  2.1172  3.0366  0.4655
  142MOL0     H19580  10.230   6.971   1.464  0.1440  0.2986  1.1944
  142MOL0     H19581   9.990   6.898   1.408  1.1461 -0.8208 -1.0740
  142MOL0     H19582   9.602   6.985   1.223  0.7835  0.2589  1.2354
  142MOL0     H19583   9.352   6.946   1.178 -1.4822 -2.1287  1.6447
  142MOL0     H19584   9.143   7.043   1.131 -0.4046  0.6084  0.7261
  142MOL0     H19585   9.144   6.887   1.206  1.9343  0.8367 -3.5874
  142MOL0     H19586   8.922   6.936   1.304  1.2572  1.2893  0.3300
  142MOL0     H19587   8.934   6.912   1.123  3.2660 -1.5859 -0.3259
  142MOL0     H19588   8.887   7.157   1.298  1.7421  1.4101 -0.1499
  142MOL0     H19589   8.960   7.177   1.146 -0.5944 -1.9257 -2.0153
  142MOL0     H19590   8.714   7.239   1.120 -0.3674 -0.4023 -1.0959
  142MOL0     H19591   8.681   7.073   1.182  0.0454  1.7646  2.1214
  142MOL0     H19592   8.827   6.972   0.794 -0.9629 -2.6775 -0.4215
  142MOL0     H19593   9.277   7.104   1.569 -1.9620 -0.4230 -0.9994
  142MOL0     H19594   9.595   7.181   1.681  0.3052  1.3957  1.2166
  142MOL0     H19595   9.425   7.142   1.720  2.2473  1.3761  1.5878
  142MOL0     H19596   9.537   7.010   1.708 -3.7546 -0.0303  0.1359
  143MOL0     O19597   4.824   0.248   7.217 -0.2717 -0.1790  0.2514
  143MOL0     C19598   4.781   0.131   7.228 -0.2143  0.3738 -0.5851
  143MOL0     O19599   4.834   0.037   7.303  0.0010  0.0723  0.1629
  143MOL0     C19600   4.969   0.030   7.336 -0.7622 -0.6764  0.0307
  143MOL0     C19601   5.048  -0.070   7.287 -0.4299 -0.0885 -0.6229
  143MOL0     C19602   5.192  -0.073   7.305 -0.1391  1.6338 -0.7138
  143MOL0     C19603   5.252   0.027   7.369  0.0969  0.2630  0.4510
  143MOL0     O19604   5.387   0.027   7.364  0.4396  0.8441  0.0298
  143MOL0     C19605   5.437   0.150   7.315  0.0210 -1.5066  0.3328
  143MOL0     C19606   5.582   0.127   7.258 -0.5750  0.4498 -0.8333
  143MOL0     C19607   5.631   0.247   7.160  0.7010 -0.0906 -0.8664
  143MOL0     C19608   5.774   0.270   7.193 -0.2898 -0.9435 -0.1308
  143MOL0     C19609   5.838   0.386   7.116  0.1543  0.0448  0.2869
  143MOL0     C19610   5.831   0.525   7.171  0.6707 -0.1752  0.3888
  143MOL0     C19611   5.881   0.622   7.060 -0.0545  0.5744 -0.0781
  143MOL0     C19612   5.916   0.756   7.119 -0.8304 -0.1241 -0.4975
  143MOL0     N19613   6.032   0.765   7.208 -0.1371  0.2768  0.1220
  143MOL0     C19614   6.160   0.725   7.173  0.2358  0.7862  0.1189
  143MOL0     C19615   6.230   0.723   7.292 -0.4213  0.0760  0.1310
  143MOL0     C19616   6.372   0.679   7.308 -0.5962 -0.4761 -0.7891
  143MOL0     C19617   6.470   0.776   7.241 -0.4203 -0.3142 -0.5787
  143MOL0     C19618   6.617   0.755   7.280  0.4646 -0.0493 -0.0070
  143MOL0     C19619   6.713   0.859   7.211  0.6698  0.1522 -0.4395
  143MOL0     O19620   6.843   0.847   7.273  0.7214  0.1809  0.6419
  143MOL0     C19621   6.940   0.757   7.234 -0.1030 -0.4687  0.4850
  143MOL0     C19622   6.913   0.632   7.164  0.9992 -0.1233 -0.7848
  143MOL0     C19623   7.004   0.523   7.136 -0.0976 -0.0239 -0.7757
  143MOL0     C19624   6.972   0.404   7.052  0.3681  0.5056  0.8492
  143MOL0     C19625   7.138   0.548   7.168  0.9900  0.3114 -0.2109
  143MOL0     C19626   7.254   0.448   7.144  0.1579 -0.9115 -0.6837
  143MOL0     O19627   7.379   0.489   7.190  0.2659  0.7247  0.3180
  143MOL0     C19628   7.493   0.419   7.162  0.3335  0.4582  0.3584
  143MOL0     C19629   7.596   0.405   7.259 -0.0149  0.0989  0.0960
  143MOL0     C19630   7.713   0.345   7.236 -0.7751  0.5232  0.6166
  143MOL0     C19631   7.741   0.286   7.116 -0.1292 -0.0627 -0.6736
  143MOL0     O19632   7.855   0.209   7.114 -0.3108  0.2320  0.1793
  143MOL0     C19633   7.863   0.096   7.021  0.5038  0.0463  0.3278
  143MOL0     C19634   7.992   0.014   7.047 -0.1473  0.8571 -0.9263
  143MOL0     C19635   8.124   0.092   7.014  0.1075  0.3972 -0.2506
  143MOL0     C19636   8.250   0.007   7.033 -0.8246  0.5659  0.5466
  143MOL0     C19637   8.383   0.067   6.990 -0.4404  0.0079  0.2775
  143MOL0     C19638   8.501  -0.030   7.036 -0.3539  0.3272  0.3151
  143MOL0     C19639   8.644   0.007   6.993  0.5275  0.2046 -0.5055
  143MOL0     C19640   8.697   0.145   7.048 -0.1774  0.0342 -0.4006
  143MOL0    Cl19641   8.750   0.128   7.209 -0.4797  0.2013 -0.3358
  143MOL0     C19642   7.644   0.296   7.010 -0.4863  0.5424  0.0871
  143MOL0     C19643   7.522   0.364   7.039  0.2753  0.9527  1.0366
  143MOL0     O19644   7.233   0.340   7.087  0.3795  0.4206  0.3768
  143MOL0     C19645   7.164   0.667   7.241  0.2580  0.0771  0.2802
  143MOL0     C19646   7.075   0.768   7.267  0.1524  0.2859 -0.0639
  143MOL0     N19647   6.145   0.745   7.397  0.3787  0.1534 -0.2459
  143MOL0     N19648   6.025   0.768   7.345 -0.6734 -0.0825  0.3374
  143MOL0     C19649   5.169   0.140   7.412 -0.6069  0.0609 -0.3925
  143MOL0     C19650   5.030   0.135   7.404  0.0514  0.6018 -0.1973
  143MOL0     C19651   4.652   0.087   7.181  0.6011 -0.4654  0.4025
  143MOL0     C19652   4.619  -0.056   7.179  0.2924 -0.7574 -0.6059
  143MOL0     C19653   4.495  -0.104   7.123  0.1659 -0.4497 -0.2915
  143MOL0     C19654   4.403  -0.008   7.075 -0.1013  0.5963  1.0586
  143MOL0     O19655   4.299  -0.044   6.992 -0.3275  0.4432  0.4467
  143MOL0     C19656   4.176  -0.029   7.050  0.6063  0.1116 -0.3141
  143MOL0     C19657   4.114  -0.167   7.096 -0.5336 -0.4282  0.0409
  143MOL0     C19658   4.043  -0.235   6.974  0.1824 -0.3150  0.0236
  143MOL0     C19659   4.012  -0.383   6.979 -1.2802  0.0529 -0.3001
  143MOL0     C19660   3.908  -0.415   6.880  0.1819 -0.1844 -0.0126
  143MOL0     C19661   3.810  -0.435   6.809 -0.1388  0.0602 -0.2665
  143MOL0     C19662   4.422   0.126   7.102  0.6708 -0.0139 -0.1057
  143MOL0     C19663   4.547   0.179   7.144  0.8071 -1.0436 -1.0375
  143MOL0     C19664   4.563   0.332   7.167  0.2336 -0.1288 -0.5571
  143MOL0     H19665   5.011  -0.160   7.239 -1.6747 -0.5092  1.0443
  143MOL0     H19666   5.249  -0.150   7.253  2.0114  1.4951  1.6240
  143MOL0     H19667   5.455   0.233   7.384  2.5486 -1.4711 -0.2762
  143MOL0     H19668   5.373   0.189   7.236 -3.4998 -0.4910  3.4134
  143MOL0     H19669   5.652   0.129   7.342  0.9976 -0.0287 -2.0706
  143MOL0     H19670   5.599   0.029   7.213 -1.1087 -0.5701  1.0865
  143MOL0     H19671   5.616   0.206   7.059 -0.5408 -1.9292  0.0045
  143MOL0     H19672   5.574   0.340   7.169  1.3981  0.1018  3.5873
  143MOL0     H19673   5.785   0.280   7.301  1.2371 -2.9500 -0.0449
  143MOL0     H19674   5.826   0.181   7.155  2.0020 -0.1055  0.8967
  143MOL0     H19675   5.799   0.384   7.013  0.9511 -0.9711 -0.0201
  143MOL0     H19676   5.944   0.368   7.097  0.5380  1.7599  0.6503
  143MOL0     H19677   5.729   0.552   7.201  0.8152 -0.3786  1.0930
  143MOL0     H19678   5.899   0.530   7.257 -1.6936 -0.1734  2.3636
  143MOL0     H19679   5.804   0.639   6.984  0.3742 -2.7720 -1.4236
  143MOL0     H19680   5.964   0.580   7.003 -0.4118  0.0973 -0.2488
  143MOL0     H19681   5.936   0.816   7.029  1.5631  2.4407  1.5723
  143MOL0     H19682   5.835   0.804   7.173 -0.9550  0.1522 -0.9282
  143MOL0     H19683   6.189   0.692   7.074  2.9117 -2.5862  1.7887
  143MOL0     H19684   6.389   0.576   7.277  1.4588 -0.7093  0.9068
  143MOL0     H19685   6.387   0.685   7.416 -0.5744 -1.6957 -0.7085
  143MOL0     H19686   6.469   0.760   7.133 -3.3077 -1.0874 -0.4979
  143MOL0     H19687   6.427   0.871   7.273  1.1467 -0.3817  2.1082
  143MOL0     H19688   6.627   0.768   7.388 -0.4261 -1.1124  0.2277
  143MOL0     H19689   6.645   0.652   7.255  0.6176 -0.1491  0.5597
  143MOL0     H19690   6.723   0.845   7.103 -1.7224 -0.1061 -0.6887
  143MOL0     H19691   6.677   0.961   7.225  1.2388  0.3459 -0.3724
  143MOL0     H19692   6.814   0.619   7.122  0.2394 -1.3477  1.2518
  143MOL0     H19693   6.875   0.412   7.002  0.8417  1.1847  0.0247
  143MOL0     H19694   6.969   0.314   7.115 -3.2669 -0.0259  0.1371
  143MOL0     H19695   7.036   0.403   6.964  2.4349 -0.9902  2.2695
  143MOL0     H19696   7.583   0.451   7.356  2.9597  0.4548  0.4247
  143MOL0     H19697   7.783   0.330   7.318 -1.0415 -0.2791  0.7052
  143MOL0     H19698   7.783   0.022   7.032  1.6175 -1.5926 -1.8867
  143MOL0     H19699   7.873   0.137   6.920  1.1814 -0.2277  0.2735
  143MOL0     H19700   7.990  -0.032   7.147 -0.9221 -2.9306 -2.4996
  143MOL0     H19701   7.983  -0.071   6.979  0.1834 -1.0962  1.3569
  143MOL0     H19702   8.128   0.181   7.077 -1.4409 -0.3172  0.9422
  143MOL0     H19703   8.139   0.119   6.909  3.8130  0.6118  0.2039
  143MOL0     H19704   8.244  -0.079   6.967  0.9813  0.5287  0.3782
  143MOL0     H19705   8.248  -0.032   7.136  0.1150 -1.1709 -0.0531
  143MOL0     H19706   8.390   0.071   6.881  1.9421 -0.1942  0.3747
  143MOL0     H19707   8.391   0.169   7.026  0.3376  0.3242 -0.7377
  143MOL0     H19708   8.482  -0.134   7.007  0.4648 -0.2279  1.6477
  143MOL0     H19709   8.501  -0.031   7.145 -1.3487  0.8875  0.3291
  143MOL0     H19710   8.652   0.010   6.884  0.5109  0.6930 -0.4917
  143MOL0     H19711   8.706  -0.079   7.021 -0.5212 -0.1499  0.8582
  143MOL0     H19712   8.620   0.222   7.040 -0.5886 -0.4749 -1.6943
  143MOL0     H19713   8.773   0.182   6.979  0.4185 -0.7839 -0.1957
  143MOL0     H19714   7.649   0.243   6.915  1.1763 -0.2474  0.5795
  143MOL0     H19715   7.448   0.368   6.960  1.8903  0.0238 -0.6251
  143MOL0     H19716   7.264   0.693   7.272  0.0960  0.9349  0.1118
  143MOL0     H19717   7.112   0.857   7.316  0.0777 -0.1867  0.8709
  143MOL0     H19718   5.224   0.223   7.455  2.5044 -1.3492 -1.3011
  143MOL0     H19719   4.968   0.209   7.453  1.6184  1.6735  0.2202
  143MOL0     H19720   4.700  -0.125   7.201 -0.1410 -0.5566  1.8744
  143MOL0     H19721   4.483  -0.210   7.105 -0.7468 -0.9066  2.4684
  143MOL0     H19722   4.171   0.035   7.138  1.0238  0.4385 -0.5257
  143MOL0     H19723   4.107   0.018   6.979 -0.3055 -1.8813 -0.8266
  143MOL0     H19724   4.045  -0.144   7.178 -0.8274  1.1177 -0.6020
  143MOL0     H19725   4.197  -0.231   7.128 -0.3687  0.5794  1.7078
  143MOL0     H19726   3.954  -0.178   6.944 -0.2255 -0.3479  1.1436
  143MOL0     H19727   4.124  -0.230   6.900  2.1691 -0.8589  2.0406
  143MOL0     H19728   3.956  -0.387   7.072 -1.0622  0.1712 -0.1644
  143MOL0     H19729   4.099  -0.448   6.971 -1.4421  0.0776 -3.5157
  143MOL0     H19730   3.727  -0.454   6.744 -0.5608  1.9729 -0.3375
  143MOL0     H19731   4.354   0.203   7.067  2.1251  0.9435 -0.8760
  143MOL0     H19732   4.599   0.389   7.081  1.5648 -0.6801 -0.3904
  143MOL0     H19733   4.463   0.373   7.182  1.3699  2.9666 -0.7371
  143MOL0     H19734   4.610   0.340   7.265 -2.1021  2.0003  0.4918
  144MOL0     O19735   3.145   4.375   0.908 -0.2553 -0.3732 -0.4778
  144MOL0     C19736   3.119   4.314   1.008  0.4259  0.3348  0.0935
  144MOL0     O19737   3.200   4.311   1.118  0.3789 -0.2461 -0.2263
  144MOL0     C19738   3.336   4.305   1.119  0.1621  0.6140 -0.1213
  144MOL0     C19739   3.393   4.324   1.242  0.0481  0.3395 -0.2827
  144MOL0     C19740   3.528   4.335   1.260  0.7884 -0.2279 -0.5226
  144MOL0     C19741   3.618   4.327   1.146 -0.0834  0.6281 -0.3052
  144MOL0     O19742   3.753   4.342   1.175  0.1031 -0.6012 -0.2831
  144MOL0     C19743   3.848   4.287   1.084 -0.0209  0.2557 -0.1427
  144MOL0     C19744   3.990   4.279   1.131  0.5944 -0.3486  0.2328
  144MOL0     C19745   4.060   4.214   1.012 -0.0373 -0.0689  0.5407
  144MOL0     C19746   4.216   4.191   1.036 -0.3541 -0.0678 -0.6984
  144MOL0     C19747   4.297   4.152   0.912 -0.5287 -0.3179 -0.7075
  144MOL0     C19748   4.437   4.103   0.958  0.2558 -0.2959  0.5992
  144MOL0     C19749   4.532   4.080   0.838 -0.7217  0.3471  0.4076
  144MOL0     C19750   4.669   4.144   0.878 -0.5075  0.0937 -0.4602
  144MOL0     N19751   4.774   4.112   0.775 -0.0557 -0.5668 -0.4826
  144MOL0     C19752   4.775   4.173   0.651 -0.5776 -0.1268 -0.3606
  144MOL0     C19753   4.892   4.117   0.602  0.0229 -0.5296 -0.4679
  144MOL0     C19754   4.969   4.173   0.486 -0.6437  0.3797 -0.2749
  144MOL0     C19755   5.076   4.080   0.425 -0.3071 -0.2862 -0.5382
  144MOL0     C19756   5.027   3.973   0.346  0.3955  0.2223  0.6907
  144MOL0     C19757   5.143   3.894   0.292  0.1327  1.3334  0.4172
  144MOL0     O19758   5.210   3.978   0.190 -0.6174 -0.0700  0.8069
  144MOL0     C19759   5.348   3.988   0.180 -0.5962  0.1164 -0.2304
  144MOL0     C19760   5.382   4.100   0.110 -0.3304  0.1307  0.2544
  144MOL0     C19761   5.522   4.127   0.093  0.2545 -0.2919  0.0639
  144MOL0     C19762   5.558   4.266   0.041 -0.6066  0.4665  0.0083
  144MOL0     C19763   5.617   4.028   0.138  0.7629  0.3473 -0.6460
  144MOL0     C19764   5.760   4.038   0.101 -0.5416  0.2244 -0.0283
  144MOL0     O19765   5.791   4.107  -0.013  0.5679  0.1823  0.6976
  144MOL0     C19766   5.921   4.081  -0.047 -0.2945 -0.2779 -0.2337
  144MOL0     C19767   6.024   4.169  -0.006 -0.1982  0.2595  0.6279
  144MOL0     C19768   6.153   4.155  -0.061  0.1645  0.3246 -0.4619
  144MOL0     C19769   6.180   4.048  -0.158  0.3263 -0.2742  0.4859
  144MOL0     O19770   6.305   4.037  -0.216  0.1850  0.1514 -0.8903
  144MOL0     C19771   6.349   3.914  -0.284 -0.2530  0.1171 -0.0764
  144MOL0     C19772   6.505   3.908  -0.266  0.1534 -0.6488 -0.1542
  144MOL0     C19773   6.582   4.035  -0.315  0.5045 -0.6747 -0.0547
  144MOL0     C19774   6.719   4.000  -0.355 -0.3038  0.3469 -0.7581
  144MOL0     C19775   6.805   4.121  -0.397 -0.5207  0.1733  0.1453
  144MOL0     C19776   6.952   4.080  -0.435  0.1208  0.0637  0.3701
  144MOL0     C19777   7.037   4.202  -0.482  0.4090 -0.2182  0.1324
  144MOL0     C19778   7.090   4.280  -0.354  0.5073  0.7127  0.5580
  144MOL0    Cl19779   7.233   4.373  -0.409 -0.2781 -0.4532 -0.1335
  144MOL0     C19780   6.079   3.957  -0.187 -1.2257  0.0810  0.0335
  144MOL0     C19781   5.957   3.968  -0.118  0.5186  0.4094 -0.2134
  144MOL0     O19782   5.836   3.969   0.166 -0.3387  0.5010  0.2638
  144MOL0     C19783   5.568   3.913   0.211 -0.0739  0.9622  0.0272
  144MOL0     C19784   5.437   3.897   0.235  0.4189 -0.2707 -0.4166
  144MOL0     N19785   4.939   4.016   0.680 -0.7245 -0.1453  0.2323
  144MOL0     N19786   4.868   4.014   0.788  0.4499 -0.1136 -0.2023
  144MOL0     C19787   3.562   4.297   1.018 -1.0398  0.1966 -1.2493
  144MOL0     C19788   3.420   4.288   1.005  0.3402  0.5823  0.2466
  144MOL0     C19789   2.974   4.281   1.024 -0.2626  0.0585  1.0506
  144MOL0     C19790   2.919   4.273   1.151  0.3711  0.1330 -0.8732
  144MOL0     C19791   2.785   4.240   1.173 -0.9523 -0.2394  0.4388
  144MOL0     C19792   2.703   4.214   1.066  0.0262 -0.3805 -0.4965
  144MOL0     O19793   2.573   4.195   1.102  0.2882  0.2431  0.0261
  144MOL0     C19794   2.477   4.170   1.004  0.5481  0.1319  0.1155
  144MOL0     C19795   2.350   4.130   1.083  0.1062 -0.1598 -0.0578
  144MOL0     C19796   2.283   4.255   1.160 -0.6483  0.2260 -0.5117
  144MOL0     C19797   2.191   4.228   1.278 -0.2257  0.3413 -0.6078
  144MOL0     C19798   2.074   4.145   1.244  0.0262 -1.0957  0.4401
  144MOL0     C19799   1.969   4.081   1.228 -0.9702  0.0730 -0.2468
  144MOL0     C19800   2.763   4.204   0.937  0.0728 -0.5836  0.3599
  144MOL0     C19801   2.891   4.233   0.913  0.1112 -0.9998 -0.3403
  144MOL0     C19802   2.940   4.217   0.767  0.8768 -0.3528 -0.0241
  144MOL0     H19803   3.327   4.330   1.328  1.6556  0.2566  1.0035
  144MOL0     H19804   3.564   4.331   1.362 -0.4790  1.4522  0.0484
  144MOL0     H19805   3.853   4.357   1.000  0.3658  1.1298  0.5966
  144MOL0     H19806   3.812   4.192   1.043  0.5843  1.0936 -2.8188
  144MOL0     H19807   4.028   4.381   1.132 -2.3870  0.9799 -3.1867
  144MOL0     H19808   4.005   4.216   1.220  2.6771 -1.9473 -1.1479
  144MOL0     H19809   4.007   4.122   0.989 -2.8985  1.4204  0.7523
  144MOL0     H19810   4.067   4.268   0.917  4.4774  0.3062  0.8291
  144MOL0     H19811   4.262   4.281   1.079  1.5597 -2.3135  2.4394
  144MOL0     H19812   4.230   4.116   1.115 -0.0182  2.7362  2.1349
  144MOL0     H19813   4.303   4.243   0.852 -0.8611  0.7073  0.7646
  144MOL0     H19814   4.241   4.072   0.863 -3.7688 -1.1261  3.6475
  144MOL0     H19815   4.481   4.183   1.018 -0.4569  1.2623 -0.8314
  144MOL0     H19816   4.420   4.014   1.018 -2.6216  0.7350  1.4919
  144MOL0     H19817   4.487   4.125   0.748 -0.6727  1.4348  0.9124
  144MOL0     H19818   4.540   3.972   0.819 -1.1073  0.2896  0.5516
  144MOL0     H19819   4.659   4.252   0.883  0.9745  0.2099  0.4411
  144MOL0     H19820   4.710   4.111   0.973  2.3030  1.3715 -1.1315
  144MOL0     H19821   4.714   4.249   0.604 -0.7199  0.9048  1.4063
  144MOL0     H19822   5.009   4.272   0.512 -1.2735  0.5049  0.2342
  144MOL0     H19823   4.892   4.195   0.412 -1.5851 -0.1365  0.5395
  144MOL0     H19824   5.134   4.146   0.360  0.6666  0.7287  1.2913
  144MOL0     H19825   5.140   4.041   0.504 -2.3005 -1.6068  0.5192
  144MOL0     H19826   4.966   3.900   0.400  1.5407 -1.4437 -0.1861
  144MOL0     H19827   4.963   4.006   0.263  0.0017 -0.8893  0.5320
  144MOL0     H19828   5.199   3.862   0.380 -1.7201 -0.2545  1.1139
  144MOL0     H19829   5.115   3.810   0.227  1.8908  0.4030  0.7987
  144MOL0     H19830   5.305   4.164   0.067  0.2916  0.1667 -0.8417
  144MOL0     H19831   5.648   4.313   0.081  0.9979 -1.3304 -1.2945
  144MOL0     H19832   5.470   4.329   0.059  0.9823  2.4760  1.2171
  144MOL0     H19833   5.573   4.249  -0.066 -2.2673 -0.9650 -0.0440
  144MOL0     H19834   5.990   4.252   0.056 -0.4599  1.0371 -0.5204
  144MOL0     H19835   6.239   4.214  -0.030  0.8984 -1.7764  1.8997
  144MOL0     H19836   6.313   3.830  -0.224 -1.2276  1.7382  1.7252
  144MOL0     H19837   6.306   3.915  -0.384 -0.2204  0.2762 -0.0885
  144MOL0     H19838   6.526   3.895  -0.159 -0.1654 -1.0260 -0.1347
  144MOL0     H19839   6.539   3.812  -0.308  0.8887 -1.3306  1.8823
  144MOL0     H19840   6.576   4.103  -0.230 -1.8382 -0.3202 -0.4291
  144MOL0     H19841   6.522   4.086  -0.392 -1.5889  0.7807  2.3917
  144MOL0     H19842   6.706   3.935  -0.442 -2.2035  0.3008 -0.4744
  144MOL0     H19843   6.757   3.950  -0.266  1.5425  1.3839 -0.9165
  144MOL0     H19844   6.760   4.178  -0.479 -0.1022 -1.1674 -1.0826
  144MOL0     H19845   6.816   4.186  -0.310  5.3506 -1.2541  0.9218
  144MOL0     H19846   6.944   4.009  -0.519 -1.7505 -0.9677  1.3529
  144MOL0     H19847   7.006   4.028  -0.355 -0.5143 -1.7778 -0.3232
  144MOL0     H19848   6.987   4.260  -0.561  0.5591 -1.5455 -0.9852
  144MOL0     H19849   7.124   4.163  -0.536  0.9982 -3.8257  3.2716
  144MOL0     H19850   7.128   4.214  -0.275  3.5756  2.8735  1.0736
  144MOL0     H19851   7.017   4.354  -0.319  1.2921  1.5223  0.5332
  144MOL0     H19852   6.099   3.882  -0.263  0.1205  1.1559 -0.7147
  144MOL0     H19853   5.884   3.894  -0.150  1.8632 -0.9274 -0.3005
  144MOL0     H19854   5.635   3.833   0.241 -1.6141 -0.4228 -0.0756
  144MOL0     H19855   5.391   3.814   0.289  0.0737  0.9823  1.2957
  144MOL0     H19856   3.629   4.285   0.934  0.5985  2.1241 -0.2968
  144MOL0     H19857   3.373   4.253   0.914  3.4791  2.2075 -2.1933
  144MOL0     H19858   2.973   4.288   1.244  0.8249 -1.1523 -0.9081
  144MOL0     H19859   2.735   4.252   1.269  0.4579  1.1609  1.0505
  144MOL0     H19860   2.454   4.266   0.957  0.7816  0.8131  1.3442
  144MOL0     H19861   2.503   4.097   0.927 -0.8422 -0.7601  0.4614
  144MOL0     H19862   2.382   4.050   1.150  5.2914  1.3273 -0.3574
  144MOL0     H19863   2.277   4.100   1.007 -0.2532  1.7542 -0.5281
  144MOL0     H19864   2.361   4.324   1.195 -0.3975 -0.9570  1.3743
  144MOL0     H19865   2.225   4.322   1.095 -1.9812 -0.7843 -0.3936
  144MOL0     H19866   2.160   4.325   1.317  0.5543 -0.1992  1.4858
  144MOL0     H19867   2.251   4.180   1.356  0.3248  0.0851 -1.1737
  144MOL0     H19868   1.877   4.026   1.229 -0.0807 -1.4455 -0.1921
  144MOL0     H19869   2.699   4.183   0.852 -0.2882 -0.7477  0.6727
  144MOL0     H19870   3.045   4.186   0.762  0.6997 -0.8694 -3.3821
  144MOL0     H19871   2.889   4.133   0.719  1.0681  0.4104 -1.6331
  144MOL0     H19872   2.923   4.308   0.709 -1.0925  0.5297  1.8084
  145MOL0     O19873   3.539   8.310   6.604  0.0977 -0.3758 -0.2666
  145MOL0     C19874   3.465   8.223   6.645 -0.8075  0.3646  0.1132
  145MOL0     O19875   3.494   8.131   6.739 -0.3696 -0.2645  0.7150
  145MOL0     C19876   3.619   8.122   6.787  0.2629 -0.2309  0.9478
  145MOL0     C19877   3.658   8.202   6.891 -0.1585  0.0094 -0.3817
  145MOL0     C19878   3.788   8.189   6.952 -0.0411 -0.6433  0.2482
  145MOL0     C19879   3.881   8.091   6.906  0.8218  0.0105  0.6763
  145MOL0     O19880   4.007   8.059   6.951 -0.0737 -0.2127  0.5041
  145MOL0     C19881   4.039   8.108   7.084  0.8653 -0.0360  0.5509
  145MOL0     C19882   4.183   8.083   7.134  0.4357  0.2762 -0.0864
  145MOL0     C19883   4.300   8.086   7.028 -0.4046  0.0554 -0.3911
  145MOL0     C19884   4.436   8.042   7.097  0.1817  0.7239  0.3006
  145MOL0     C19885   4.542   8.013   6.986  0.3053  0.2179 -0.8374
  145MOL0     C19886   4.593   8.111   6.887 -0.1439 -1.1337 -1.0029
  145MOL0     C19887   4.650   8.241   6.942  0.7556  0.4480  0.6737
  145MOL0     C19888   4.788   8.205   6.997 -0.1861 -0.7598 -0.4031
  145MOL0     N19889   4.889   8.161   6.894 -0.2614  0.4052 -0.0519
  145MOL0     C19890   4.936   8.031   6.883 -1.1644 -0.0720 -0.2180
  145MOL0     C19891   5.060   8.040   6.817  0.3161 -1.1043 -0.2080
  145MOL0     C19892   5.135   7.914   6.797  0.0578 -0.3976 -0.5940
  145MOL0     C19893   5.279   7.944   6.724 -0.1754  0.4761 -0.4455
  145MOL0     C19894   5.367   7.820   6.724  0.2203 -0.2757  0.5954
  145MOL0     C19895   5.494   7.851   6.651  0.1072 -0.2729 -0.8422
  145MOL0     O19896   5.590   7.743   6.678  0.0752 -0.0241  0.1167
  145MOL0     C19897   5.716   7.759   6.625 -0.3885  0.0417 -0.4459
  145MOL0     C19898   5.750   7.854   6.536 -0.0196 -0.3787 -0.2037
  145MOL0     C19899   5.883   7.863   6.483  0.3625  0.7720 -0.4670
  145MOL0     C19900   5.920   7.992   6.415  0.7393 -0.1967 -0.0484
  145MOL0     C19901   5.976   7.759   6.518  0.0670 -0.4339  0.8465
  145MOL0     C19902   6.121   7.744   6.468  0.3992 -0.8536  0.0089
  145MOL0     O19903   6.152   7.800   6.349 -0.0176 -0.0043 -0.1865
  145MOL0     C19904   6.289   7.796   6.318 -0.1399 -0.0957  0.1941
  145MOL0     C19905   6.348   7.684   6.250 -0.6984 -0.2400 -0.3556
  145MOL0     C19906   6.485   7.676   6.239 -0.1651 -0.3639 -0.7128
  145MOL0     C19907   6.558   7.788   6.282 -0.0816  0.4204 -0.3985
  145MOL0     O19908   6.696   7.776   6.290  0.1699  0.2303  0.1237
  145MOL0     C19909   6.753   7.811   6.173 -1.0696 -0.2592 -0.3595
  145MOL0     C19910   6.763   7.698   6.067  0.5912 -0.2845 -0.7245
  145MOL0     C19911   6.891   7.697   5.982  0.0651 -0.0765  0.3014
  145MOL0     C19912   7.004   7.625   6.046 -0.0844 -0.2880  0.3422
  145MOL0     C19913   7.127   7.610   5.947 -0.7019 -0.1147  0.5662
  145MOL0     C19914   7.237   7.723   5.933 -0.0560  0.4014 -0.3922
  145MOL0     C19915   7.324   7.748   6.059  0.2245 -0.3741 -0.4578
  145MOL0     C19916   7.323   7.889   6.113  0.3385 -0.1408  0.0711
  145MOL0    Cl19917   7.415   8.002   6.002  0.2387  0.5580  0.5967
  145MOL0     C19918   6.503   7.903   6.335  0.1681  0.0979 -0.0661
  145MOL0     C19919   6.359   7.913   6.356 -0.7372  0.6981 -0.6164
  145MOL0     O19920   6.192   7.673   6.537 -0.2681 -0.7140 -0.1827
  145MOL0     C19921   5.931   7.653   6.603 -0.5554 -0.8317 -0.1451
  145MOL0     C19922   5.806   7.657   6.655 -0.5471 -0.2669  0.2766
  145MOL0     N19923   5.071   8.177   6.786 -0.1613 -0.5363  0.3649
  145MOL0     N19924   4.970   8.244   6.826 -0.4991 -0.4482 -0.2299
  145MOL0     C19925   3.843   8.021   6.786 -0.0795  0.7333  0.3855
  145MOL0     C19926   3.716   8.033   6.733  0.4682  0.6326 -0.0457
  145MOL0     C19927   3.326   8.227   6.600  0.4721  0.9481  0.9069
  145MOL0     C19928   3.235   8.134   6.650 -0.2377  0.3415  0.9075
  145MOL0     C19929   3.107   8.122   6.603 -0.2820 -0.0771 -0.1438
  145MOL0     C19930   3.057   8.207   6.507 -0.0583  0.8969  0.9022
  145MOL0     O19931   2.928   8.198   6.464 -0.7097 -0.1495  0.2064
  145MOL0     C19932   2.834   8.096   6.513 -0.2140  0.1281 -0.4170
  145MOL0     C19933   2.767   8.143   6.636  0.5645  0.3211 -0.2990
  145MOL0     C19934   2.680   8.264   6.609  0.0661  0.6449  0.0114
  145MOL0     C19935   2.592   8.298   6.728  0.1487 -0.0165 -0.2984
  145MOL0     C19936   2.465   8.345   6.667  0.7072 -0.1724 -0.4787
  145MOL0     C19937   2.362   8.396   6.636 -0.5592  0.1382  0.1471
  145MOL0     C19938   3.139   8.300   6.457  0.1781  0.2861  0.9241
  145MOL0     C19939   3.272   8.313   6.501 -0.5556  0.6132  0.2996
  145MOL0     C19940   3.355   8.418   6.430  0.1912 -0.5640 -0.6772
  145MOL0     H19941   3.586   8.280   6.911  0.4817  0.5416 -0.1198
  145MOL0     H19942   3.821   8.259   7.028 -0.2344  0.0132 -0.2591
  145MOL0     H19943   3.966   8.067   7.154  1.2900 -0.9329  0.4852
  145MOL0     H19944   4.029   8.217   7.085 -0.9781 -0.1504 -0.8949
  145MOL0     H19945   4.209   8.163   7.204 -0.5847  0.5500  0.0019
  145MOL0     H19946   4.161   7.991   7.190 -1.7087  0.7130 -0.1206
  145MOL0     H19947   4.285   8.021   6.941  3.2465  0.9552 -1.8926
  145MOL0     H19948   4.313   8.190   6.999  1.2648  0.3555  1.2406
  145MOL0     H19949   4.469   8.122   7.164 -0.1772  0.2478  1.0540
  145MOL0     H19950   4.420   7.949   7.151 -1.7763  1.3218  0.8420
  145MOL0     H19951   4.512   7.924   6.929  0.1853  0.3639 -1.0014
  145MOL0     H19952   4.637   7.986   7.033 -0.3731  0.7964  0.9041
  145MOL0     H19953   4.669   8.052   6.837 -0.5268 -3.1516  0.6478
  145MOL0     H19954   4.518   8.136   6.811  0.3279  0.5885 -0.9531
  145MOL0     H19955   4.576   8.278   7.013 -2.2644 -2.3889 -0.7275
  145MOL0     H19956   4.658   8.306   6.854  2.9159 -0.0059  0.4751
  145MOL0     H19957   4.839   8.294   7.034  0.9723 -0.1491 -3.2186
  145MOL0     H19958   4.790   8.135   7.081  2.4323 -0.8499 -0.4586
  145MOL0     H19959   4.888   7.944   6.926  0.3817 -1.0393 -0.3864
  145MOL0     H19960   5.072   7.849   6.736 -0.6092  1.4461 -1.9807
  145MOL0     H19961   5.150   7.862   6.892 -1.1626 -1.6309 -1.0364
  145MOL0     H19962   5.236   7.972   6.627 -0.5117  0.8334 -0.1928
  145MOL0     H19963   5.332   8.024   6.775  0.1099  0.6768 -1.0489
  145MOL0     H19964   5.394   7.779   6.822  0.5329 -0.0468  0.6061
  145MOL0     H19965   5.309   7.739   6.680  0.2346  0.7981 -1.5308
  145MOL0     H19966   5.470   7.867   6.545 -1.8252  0.9714 -0.2649
  145MOL0     H19967   5.521   7.945   6.699 -1.0621 -0.6114  0.5651
  145MOL0     H19968   5.678   7.930   6.507 -0.6111  0.1918  2.5220
  145MOL0     H19969   5.859   8.070   6.461  1.8803 -0.9201  2.9336
  145MOL0     H19970   5.903   7.970   6.309  0.4695 -4.5543  0.7080
  145MOL0     H19971   6.023   8.025   6.431  0.4436  1.2935 -1.0397
  145MOL0     H19972   6.283   7.610   6.204 -0.5739  0.3425 -1.5061
  145MOL0     H19973   6.524   7.583   6.199  0.0674  1.2444 -4.6644
  145MOL0     H19974   6.700   7.903   6.146  0.0426  0.6710  0.5276
  145MOL0     H19975   6.854   7.840   6.205 -1.2757  1.1476 -0.9162
  145MOL0     H19976   6.751   7.598   6.108  2.0196 -0.8401 -1.5785
  145MOL0     H19977   6.680   7.711   5.997 -1.7058 -0.1218  1.8959
  145MOL0     H19978   6.912   7.797   5.941  3.2887 -1.5474 -2.1215
  145MOL0     H19979   6.861   7.635   5.897 -1.1302 -0.9315  1.3251
  145MOL0     H19980   6.966   7.528   6.080 -2.4200 -0.6535 -2.8380
  145MOL0     H19981   7.036   7.676   6.137 -0.2204 -0.7495  0.6536
  145MOL0     H19982   7.181   7.517   5.967 -0.7160 -0.7989 -2.2633
  145MOL0     H19983   7.088   7.603   5.845 -0.6905 -1.2229  0.6254
  145MOL0     H19984   7.179   7.811   5.901  0.3934  0.3392 -1.3949
  145MOL0     H19985   7.300   7.698   5.848  0.9012 -0.2382  0.4836
  145MOL0     H19986   7.429   7.726   6.036  0.3456 -1.3690  0.9174
  145MOL0     H19987   7.304   7.669   6.131 -0.2257 -0.1207 -0.3021
  145MOL0     H19988   7.365   7.893   6.214  0.4487  0.8872 -0.0076
  145MOL0     H19989   7.220   7.923   6.128  0.9652  1.3045  1.3659
  145MOL0     H19990   6.577   7.971   6.376  1.5704 -2.8016  2.6468
  145MOL0     H19991   6.306   7.994   6.406 -4.2889 -1.1601 -1.0542
  145MOL0     H19992   5.996   7.573   6.637 -0.1016 -0.6766 -0.6385
  145MOL0     H19993   5.772   7.575   6.717  0.4849 -1.4851 -0.7305
  145MOL0     H19994   3.915   7.961   6.732 -0.6108 -0.3008  0.7815
  145MOL0     H19995   3.695   7.973   6.646 -1.5850 -2.6771  2.4900
  145MOL0     H19996   3.264   8.067   6.730 -0.4494 -0.0439  0.6640
  145MOL0     H19997   3.042   8.049   6.650 -2.2435  1.2409 -0.6364
  145MOL0     H19998   2.758   8.096   6.434  2.7811 -0.6333 -3.5579
  145MOL0     H19999   2.885   7.999   6.508 -0.8970 -0.3950  1.7582
  145MOL0     H20000   2.839   8.168   6.715  0.2267 -2.2853  0.9291
  145MOL0     H20001   2.720   8.059   6.687  1.3590 -0.1166 -0.2781
  145MOL0     H20002   2.747   8.350   6.600 -0.4066  0.9873 -0.2576
  145MOL0     H20003   2.625   8.246   6.516  1.4315  2.7114 -1.2970
  145MOL0     H20004   2.630   8.375   6.795  1.1749 -1.6022  1.0187
  145MOL0     H20005   2.566   8.204   6.778  2.3055 -1.7770 -2.2415
  145MOL0     H20006   2.272   8.438   6.595 -0.3590 -1.4917 -2.1837
  145MOL0     H20007   3.102   8.353   6.370 -0.3454 -1.7930 -0.1757
  145MOL0     H20008   3.372   8.508   6.489 -0.3844 -0.7916 -0.1563
  145MOL0     H20009   3.452   8.381   6.397  1.6927  2.4714  0.0200
  145MOL0     H20010   3.303   8.454   6.340 -0.3454 -1.8244 -0.8916
  146MOL0     O20011  11.051  10.757   9.401 -0.0101 -0.0746 -0.4933
  146MOL0     C20012  10.954  10.730   9.474 -0.5427 -0.5789  0.0192
  146MOL0     O20013  10.958  10.710   9.607  0.0728 -0.6942 -0.1610
  146MOL0     C20014  11.079  10.738   9.671  0.6578 -0.1504  0.7089
  146MOL0     C20015  11.134  10.869   9.670 -0.5473  0.9757 -0.0942
  146MOL0     C20016  11.261  10.899   9.721  0.8539  0.4395  0.0532
  146MOL0     C20017  11.334  10.788   9.782 -0.2057 -0.3263  0.2527
  146MOL0     O20018  11.450  10.826   9.845  0.5537  0.5879 -0.4688
  146MOL0     C20019  11.547  10.730   9.845  0.6559  0.6168 -0.2544
  146MOL0     C20020  11.682  10.800   9.873  0.6950 -0.0241 -0.6594
  146MOL0     C20021  11.803  10.705   9.889  0.3499  0.3697  0.2201
  146MOL0     C20022  11.923  10.795   9.907 -0.8891 -0.9366 -0.5028
  146MOL0     C20023  12.055  10.725   9.887  0.4144  0.4151 -0.3876
  146MOL0     C20024  12.169  10.811   9.940  0.0089  1.2309  0.6373
  146MOL0     C20025  12.290  10.720   9.973 -0.7089 -0.3288  0.4995
  146MOL0     C20026  12.418  10.808   9.992 -0.0864  0.3075  0.2439
  146MOL0     N20027  12.532  10.736  10.053  0.3610  0.3928  0.4116
  146MOL0     C20028  12.594  10.629   9.997  0.4862 -0.1612  0.6796
  146MOL0     C20029  12.669  10.570  10.097 -0.7748 -0.5222 -0.0921
  146MOL0     C20030  12.781  10.464  10.092 -0.0562  0.2746 -0.5689
  146MOL0     C20031  12.824  10.415   9.953 -0.0655 -0.1928  0.6481
  146MOL0     C20032  12.907  10.288   9.980  0.2790  1.2373  0.3658
  146MOL0     C20033  12.946  10.202   9.853 -0.2538  0.2819 -0.5575
  146MOL0     O20034  13.023  10.279   9.767 -0.3101 -0.2291 -0.5648
  146MOL0     C20035  13.152  10.229   9.749  0.0420  0.1335  0.2725
  146MOL0     C20036  13.255  10.304   9.802 -0.5181 -0.5801  0.1231
  146MOL0     C20037  13.389  10.272   9.766  0.0279 -0.4859 -1.2852
  146MOL0     C20038  13.491  10.368   9.820  0.2923 -0.5707  1.0397
  146MOL0     C20039  13.422  10.150   9.706 -0.1398 -0.1135  0.3698
  146MOL0     C20040  13.564  10.104   9.695 -0.0916  0.0128 -0.7575
  146MOL0     O20041  13.636  10.114   9.806  0.0647  0.1991 -0.0028
  146MOL0     C20042  13.761  10.057   9.806 -0.3027  0.1644  0.3485
  146MOL0     C20043  13.774   9.919   9.813  0.5971  0.5683 -0.2704
  146MOL0     C20044  13.892   9.860   9.818 -0.8366  0.1714 -0.3185
  146MOL0     C20045  14.011   9.933   9.791 -0.4650  0.5561 -0.2897
  146MOL0     O20046  14.118   9.858   9.803  0.1520  0.0650  0.0844
  146MOL0     C20047  14.251   9.920   9.810  0.6096  0.1959 -0.2348
  146MOL0     C20048  14.354   9.804   9.834  0.0036  0.5685  0.2257
  146MOL0     C20049  14.341   9.759   9.979 -0.4215  0.0020 -0.2624
  146MOL0     C20050  14.400   9.621  10.000 -0.3932  0.1703  0.0088
  146MOL0     C20051  14.375   9.569  10.141  0.0788 -1.0927  0.3828
  146MOL0     C20052  14.232   9.566  10.178 -0.1287 -0.4893 -0.5049
  146MOL0     C20053  14.149   9.486  10.077 -0.6826  0.8079  0.8092
  146MOL0     C20054  14.026   9.430  10.138  0.6437  1.0716  0.0917
  146MOL0    Cl20055  13.962   9.292  10.046  0.1458 -0.1960 -0.0971
  146MOL0     C20056  14.002  10.072   9.783  0.4472  0.3287  0.8205
  146MOL0     C20057  13.875  10.133   9.783  0.4650 -0.8301  0.2645
  146MOL0     O20058  13.603  10.053   9.591 -0.3299 -0.4114 -0.5522
  146MOL0     C20059  13.317  10.070   9.651 -0.4699  0.4618  0.3159
  146MOL0     C20060  13.186  10.108   9.677  0.1215 -0.1379  0.1800
  146MOL0     N20061  12.626  10.637  10.210 -0.0840 -0.4410  0.4143
  146MOL0     N20062  12.569  10.743  10.183  0.0962  0.1582  0.2720
  146MOL0     C20063  11.275  10.656   9.781  0.5605  0.0879  0.9159
  146MOL0     C20064  11.145  10.630   9.722 -0.3904 -0.1147  0.0333
  146MOL0     C20065  10.823  10.715   9.403  0.1379  0.3403 -0.6637
  146MOL0     C20066  10.715  10.691   9.489  1.0850 -0.3751  0.3567
  146MOL0     C20067  10.593  10.651   9.437  0.5166  0.0092 -0.3771
  146MOL0     C20068  10.572  10.628   9.304 -1.1141  0.3023  0.6442
  146MOL0     O20069  10.451  10.571   9.279  0.1708 -0.4924  0.5209
  146MOL0     C20070  10.399  10.570   9.155 -0.2908 -0.3900  0.5028
  146MOL0     C20071  10.257  10.518   9.145 -0.0531  0.3201  0.8347
  146MOL0     C20072  10.239  10.403   9.245  0.4094  0.3402  0.7554
  146MOL0     C20073  10.102  10.332   9.228  0.0028  0.4374 -0.3739
  146MOL0     C20074  10.124  10.237   9.118 -0.2714 -0.1929 -0.0708
  146MOL0     C20075  10.121  10.156   9.024  0.0173  0.6356 -0.8348
  146MOL0     C20076  10.671  10.663   9.214  0.0013  1.4520 -0.8970
  146MOL0     C20077  10.797  10.706   9.259 -0.4392  0.5653 -1.3684
  146MOL0     C20078  10.898  10.754   9.156  0.7806 -0.2015 -1.1819
  146MOL0     H20079  11.085  10.956   9.626 -0.2239  1.1110 -0.1923
  146MOL0     H20080  11.292  11.002   9.734 -0.3152  0.7801  0.1906
  146MOL0     H20081  11.542  10.680   9.748  1.4248  0.4400 -0.2093
  146MOL0     H20082  11.518  10.654   9.918  0.8016 -2.1121 -2.8429
  146MOL0     H20083  11.699  10.850   9.777  0.5447  2.8390  0.6896
  146MOL0     H20084  11.672  10.877   9.951  3.9055 -2.5093  2.5421
  146MOL0     H20085  11.796  10.640   9.977  1.4941 -1.4487 -0.9854
  146MOL0     H20086  11.815  10.633   9.808  4.3221  1.6430 -0.5223
  146MOL0     H20087  11.920  10.886   9.847  0.2145 -0.7762 -0.3526
  146MOL0     H20088  11.926  10.834  10.009  0.2969 -1.0648 -0.4695
  146MOL0     H20089  12.066  10.708   9.779 -1.3224  0.0247 -0.5380
  146MOL0     H20090  12.055  10.629   9.938 -2.8290  0.3432 -0.2985
  146MOL0     H20091  12.202  10.888   9.869 -1.5879  1.2740 -0.1013
  146MOL0     H20092  12.146  10.861  10.034  3.9235  2.3098  1.2158
  146MOL0     H20093  12.304  10.665   9.879  1.1780  0.1703  0.4571
  146MOL0     H20094  12.273  10.651  10.056  1.0952 -1.0968  0.2709
  146MOL0     H20095  12.451  10.852   9.898 -0.2315  0.5071  0.2860
  146MOL0     H20096  12.398  10.890  10.062  1.4959 -1.5538  3.0394
  146MOL0     H20097  12.608  10.612   9.891  1.5868  3.8610  0.0328
  146MOL0     H20098  12.735  10.382  10.150 -2.7492  1.6135 -0.6449
  146MOL0     H20099  12.865  10.493  10.156  1.4515  0.1228 -2.4207
  146MOL0     H20100  12.736  10.393   9.891  0.3402  0.9622 -0.3784
  146MOL0     H20101  12.879  10.489   9.895  2.3041 -0.1854  2.7510
  146MOL0     H20102  13.001  10.312  10.030 -1.7830  3.7978  3.4111
  146MOL0     H20103  12.843  10.230  10.047  0.1634 -0.5097 -1.1794
  146MOL0     H20104  12.994  10.108   9.882  1.1343  0.5560 -1.8395
  146MOL0     H20105  12.855  10.164   9.807  0.6023 -0.5315 -1.6246
  146MOL0     H20106  13.236  10.401   9.848 -1.0951 -1.4977  1.9481
  146MOL0     H20107  13.502  10.347   9.926  1.6428 -1.2599  0.7864
  146MOL0     H20108  13.461  10.472   9.806  2.0474 -0.3911 -2.3938
  146MOL0     H20109  13.583  10.346   9.765 -1.9118  0.2014 -3.4235
  146MOL0     H20110  13.685   9.857   9.822 -1.2196  3.0401 -0.2370
  146MOL0     H20111  13.898   9.753   9.835  2.4827  0.5088  1.5345
  146MOL0     H20112  14.274   9.975   9.718 -0.8994  0.2064 -0.6249
  146MOL0     H20113  14.256   9.999   9.886  0.1220 -0.9037  0.9691
  146MOL0     H20114  14.337   9.721   9.766  0.2464 -1.0224  2.0120
  146MOL0     H20115  14.454   9.844   9.813  0.1847 -1.0240 -2.2836
  146MOL0     H20116  14.234   9.754  10.003 -0.1220 -2.6978  0.8671
  146MOL0     H20117  14.401   9.823  10.044  0.5348  0.1700 -1.2737
  146MOL0     H20118  14.508   9.633   9.998  0.0318 -2.9091 -1.5546
  146MOL0     H20119  14.369   9.538   9.934  1.6953 -1.2918  0.7640
  146MOL0     H20120  14.410   9.466  10.145  0.1172 -1.0991 -0.0852
  146MOL0     H20121  14.428   9.625  10.218 -2.3784 -1.7395  2.7022
  146MOL0     H20122  14.188   9.664  10.197  1.4313  0.3492 -1.1273
  146MOL0     H20123  14.235   9.507  10.270  0.1675 -0.1824 -0.3198
  146MOL0     H20124  14.208   9.397  10.055 -1.4519  0.3134  0.7144
  146MOL0     H20125  14.121   9.550   9.993 -1.7329  0.3244  0.7746
  146MOL0     H20126  13.943   9.500  10.150 -2.4043 -2.5695  3.0189
  146MOL0     H20127  14.045   9.393  10.239  1.3140  1.7457  0.2212
  146MOL0     H20128  14.092  10.132   9.772  1.0384 -0.2540  2.2153
  146MOL0     H20129  13.861  10.240   9.774 -0.6478 -0.9105  0.8991
  146MOL0     H20130  13.329   9.988   9.581  0.0789  1.9872 -1.4599
  146MOL0     H20131  13.107  10.055   9.625 -2.2755  2.0150  1.3472
  146MOL0     H20132  11.322  10.572   9.831  0.8684 -0.5037 -0.3307
  146MOL0     H20133  11.106  10.529   9.727  2.4475 -1.2899  0.2449
  146MOL0     H20134  10.739  10.703   9.594  1.8339  1.6301 -0.0045
  146MOL0     H20135  10.527  10.615   9.515  2.5048  0.0259  1.4070
  146MOL0     H20136  10.399  10.674   9.120  2.8138 -1.1197 -2.1610
  146MOL0     H20137  10.466  10.516   9.088  2.7509  1.8033  1.5611
  146MOL0     H20138  10.242  10.483   9.042  1.0865  2.6611 -0.2060
  146MOL0     H20139  10.189  10.602   9.162 -2.7262 -0.3169 -4.6363
  146MOL0     H20140  10.329  10.340   9.241  2.2402  2.8207  0.6175
  146MOL0     H20141  10.230  10.448   9.344  0.9768  2.0453  0.0571
  146MOL0     H20142  10.021  10.401   9.205  2.8090  3.3377 -2.5646
  146MOL0     H20143  10.075  10.284   9.322 -3.3929  3.7009  0.5317
  146MOL0     H20144  10.100  10.073   8.959 -1.2792  0.5732 -0.3701
  146MOL0     H20145  10.644  10.639   9.112  1.3662 -1.3807 -0.6912
  146MOL0     H20146  10.951  10.663   9.127  1.7341 -0.0889  0.1380
  146MOL0     H20147  10.855  10.801   9.066  0.5310 -1.4794 -1.7587
  146MOL0     H20148  10.973  10.821   9.198 -1.3150  1.2786  0.4206
  147MOL0     O20149   2.263   6.503   9.196  0.0958  0.9795 -0.2274
  147MOL0     C20150   2.355   6.478   9.129 -0.6606 -0.0502  0.9242
  147MOL0     O20151   2.471   6.550   9.134 -0.4946  0.3169 -0.1207
  147MOL0     C20152   2.491   6.650   9.226 -1.2177 -0.9811 -0.2889
  147MOL0     C20153   2.388   6.740   9.262  0.0926  0.2673  0.4137
  147MOL0     C20154   2.427   6.855   9.339  0.1156  0.3644 -0.0595
  147MOL0     C20155   2.558   6.868   9.396  0.1173 -0.2604  0.5651
  147MOL0     O20156   2.578   6.967   9.485  0.0389  0.2333 -0.0113
  147MOL0     C20157   2.680   7.061   9.453 -0.0044  0.6098  0.9206
  147MOL0     C20158   2.620   7.204   9.459 -0.0164  0.9231  0.0037
  147MOL0     C20159   2.546   7.221   9.590 -0.7189 -0.9092  0.2961
  147MOL0     C20160   2.633   7.212   9.716 -0.5161 -0.1803 -0.0779
  147MOL0     C20161   2.747   7.320   9.708  0.5070 -0.2265  0.9524
  147MOL0     C20162   2.823   7.312   9.837  0.6408  0.0079  0.1411
  147MOL0     C20163   2.929   7.410   9.840 -0.0633 -0.9202 -0.2949
  147MOL0     C20164   3.012   7.419   9.974  0.2593 -0.1557  0.5581
  147MOL0     N20165   3.129   7.335   9.974 -0.5758  0.5280 -0.6242
  147MOL0     C20166   3.224   7.336   9.875  0.4920  0.0757 -0.3416
  147MOL0     C20167   3.321   7.251   9.923 -0.7412 -0.4326  0.0248
  147MOL0     C20168   3.443   7.231   9.847 -0.2726 -0.2328 -0.0698
  147MOL0     C20169   3.479   7.085   9.828 -0.0188 -1.0099 -0.9325
  147MOL0     C20170   3.597   7.081   9.735  0.3966 -0.3636  0.1144
  147MOL0     C20171   3.648   6.940   9.716  0.1786  0.1279 -0.2283
  147MOL0     O20172   3.723   6.921   9.596 -0.0087 -0.1754 -0.1822
  147MOL0     C20173   3.846   6.987   9.598 -0.4417  0.5857 -0.0130
  147MOL0     C20174   3.904   7.027   9.477 -0.0695  0.3312  0.8880
  147MOL0     C20175   4.026   7.104   9.464  0.3296  0.5757 -0.8706
  147MOL0     C20176   4.076   7.153   9.332 -0.6965 -0.4004  0.3900
  147MOL0     C20177   4.095   7.134   9.583 -0.6360 -0.4475  0.2600
  147MOL0     C20178   4.223   7.200   9.580  0.6911 -0.0549  0.0287
  147MOL0     O20179   4.327   7.147   9.509 -0.6961  0.1416  0.0566
  147MOL0     C20180   4.455   7.180   9.530  0.5896 -0.7959 -0.0210
  147MOL0     C20181   4.532   7.201   9.422 -1.2032 -0.2351  0.7257
  147MOL0     C20182   4.663   7.249   9.434  0.7954 -0.1043  0.0179
  147MOL0     C20183   4.726   7.246   9.552 -0.0022 -0.4803 -0.5751
  147MOL0     O20184   4.857   7.294   9.553 -0.7991 -0.0223  0.1128
  147MOL0     C20185   4.905   7.353   9.675 -1.1167  0.3358  0.3475
  147MOL0     C20186   5.048   7.418   9.639  0.5889  0.2046  0.6297
  147MOL0     C20187   5.033   7.543   9.549  0.4612  0.1399  0.2870
  147MOL0     C20188   5.175   7.620   9.537  0.7529  1.1639 -0.6810
  147MOL0     C20189   5.146   7.743   9.447 -0.2658 -0.4389 -0.7994
  147MOL0     C20190   5.252   7.858   9.443 -0.1869  0.1277 -0.8287
  147MOL0     C20191   5.393   7.807   9.434 -0.4197 -0.0458  0.4173
  147MOL0     C20192   5.485   7.920   9.401  0.2951 -0.2281  0.1555
  147MOL0    Cl20193   5.629   7.859   9.332  0.2350  0.0995  0.0033
  147MOL0     C20194   4.649   7.221   9.668  1.0203  0.7316  0.8776
  147MOL0     C20195   4.513   7.184   9.659  1.2527 -0.2557  0.4665
  147MOL0     O20196   4.231   7.302   9.647 -0.1578  0.5187  0.0287
  147MOL0     C20197   4.034   7.100   9.708 -0.5981 -0.2686  0.4192
  147MOL0     C20198   3.919   7.016   9.717 -0.3563  0.5887 -0.1793
  147MOL0     N20199   3.286   7.191  10.046  0.0372 -0.0295  0.6885
  147MOL0     N20200   3.168   7.252  10.077 -0.0779  0.0048  0.0632
  147MOL0     C20201   2.654   6.782   9.356 -0.9579  0.4656 -0.6977
  147MOL0     C20202   2.619   6.672   9.285 -0.3539  0.1012  0.4297
  147MOL0     C20203   2.340   6.365   9.027 -0.3048  0.3872  0.2968
  147MOL0     C20204   2.446   6.352   8.935  0.1445  0.4708  0.6594
  147MOL0     C20205   2.446   6.250   8.844  0.5121  0.6141  0.1568
  147MOL0     C20206   2.343   6.149   8.842  0.2296 -0.6612 -0.4994
  147MOL0     O20207   2.329   6.064   8.735 -0.1958  0.8648 -0.8523
  147MOL0     C20208   2.210   6.107   8.654 -0.7225 -0.2715 -0.4565
  147MOL0     C20209   2.105   5.997   8.632 -0.5577  0.5786  0.0765
  147MOL0     C20210   2.160   5.855   8.651 -0.5938  0.1561  0.1917
  147MOL0     C20211   2.058   5.745   8.611  1.4418 -0.2925 -0.5955
  147MOL0     C20212   2.102   5.610   8.640 -0.3040 -0.0890 -0.4546
  147MOL0     C20213   2.126   5.506   8.692  0.1866 -0.1098  0.0857
  147MOL0     C20214   2.238   6.173   8.924  0.2682  0.2632 -0.1588
  147MOL0     C20215   2.234   6.274   9.027 -0.2003  0.4666 -0.4842
  147MOL0     C20216   2.119   6.258   9.123 -0.7635  0.6632  0.0925
  147MOL0     H20217   2.286   6.723   9.228 -0.4598  0.9511  1.6691
  147MOL0     H20218   2.361   6.934   9.374  1.5662  2.8067 -2.3825
  147MOL0     H20219   2.713   7.045   9.349 -1.5491 -0.4328  0.5717
  147MOL0     H20220   2.767   7.046   9.518 -1.1655  1.1515  2.6454
  147MOL0     H20221   2.691   7.284   9.440  0.0636  0.6524 -0.8775
  147MOL0     H20222   2.544   7.204   9.380 -1.2618  0.7656  1.1606
  147MOL0     H20223   2.502   7.321   9.594  1.4058  0.0274  1.6717
  147MOL0     H20224   2.462   7.151   9.593 -2.0957  0.4382 -2.6421
  147MOL0     H20225   2.575   7.230   9.807  0.6264  1.9732  0.2914
  147MOL0     H20226   2.676   7.112   9.718 -0.9895 -0.3865  0.0286
  147MOL0     H20227   2.704   7.415   9.674 -0.1326 -0.8551 -0.0824
  147MOL0     H20228   2.815   7.296   9.626  0.2451 -0.8463  0.9065
  147MOL0     H20229   2.751   7.327   9.917 -0.3535  1.3205 -0.9577
  147MOL0     H20230   2.859   7.210   9.856 -0.5366  0.1690  4.1137
  147MOL0     H20231   2.889   7.511   9.829 -0.5769 -1.1611 -0.6610
  147MOL0     H20232   2.995   7.394   9.754  2.6262  1.6963  1.0808
  147MOL0     H20233   3.049   7.521   9.985 -1.6601  0.5916  0.4174
  147MOL0     H20234   2.952   7.397  10.063  1.7760  0.6945  1.8519
  147MOL0     H20235   3.221   7.397   9.785  0.3302  2.0258  0.9250
  147MOL0     H20236   3.529   7.284   9.889 -0.4289 -1.5491  2.0368
  147MOL0     H20237   3.430   7.277   9.749  0.6169  0.5009  0.1471
  147MOL0     H20238   3.495   7.039   9.925  1.9935  0.9467 -0.2388
  147MOL0     H20239   3.396   7.028   9.785 -1.1358 -1.2164  1.3915
  147MOL0     H20240   3.562   7.113   9.637  0.7372  0.1467  0.1562
  147MOL0     H20241   3.677   7.152   9.759  0.0172  0.4608 -0.9856
  147MOL0     H20242   3.697   6.894   9.802  1.7076  2.0819  0.0085
  147MOL0     H20243   3.558   6.881   9.698  0.4032 -0.0116 -0.9241
  147MOL0     H20244   3.877   6.983   9.381  0.6974 -1.0191  1.2741
  147MOL0     H20245   4.003   7.173   9.253  0.3640  2.5057  0.0296
  147MOL0     H20246   4.148   7.091   9.278 -0.1966  1.3340 -1.0303
  147MOL0     H20247   4.125   7.250   9.347 -3.4630  1.5476 -1.9289
  147MOL0     H20248   4.488   7.198   9.323 -1.3421 -2.0776  0.8045
  147MOL0     H20249   4.700   7.283   9.338  0.5682  0.6511  0.1942
  147MOL0     H20250   4.833   7.428   9.708  1.5883  3.2585  0.1585
  147MOL0     H20251   4.932   7.283   9.755 -0.3546  1.6714  1.2999
  147MOL0     H20252   5.101   7.455   9.727  0.6767 -2.4130  1.7606
  147MOL0     H20253   5.115   7.344   9.596  1.7056  1.7316 -0.3841
  147MOL0     H20254   4.953   7.608   9.589 -0.7461 -1.2199  0.1584
  147MOL0     H20255   5.016   7.510   9.446  0.7837  0.1555  0.2298
  147MOL0     H20256   5.251   7.552   9.497  1.8086  0.3459  2.4638
  147MOL0     H20257   5.198   7.652   9.639 -3.9911 -1.1841  1.4240
  147MOL0     H20258   5.134   7.707   9.344  1.4647 -3.0462 -0.1934
  147MOL0     H20259   5.055   7.796   9.475  1.6046  1.7166  1.6906
  147MOL0     H20260   5.239   7.942   9.512 -0.2684  1.2585 -2.1617
  147MOL0     H20261   5.242   7.918   9.351 -1.0527  0.2614 -0.6567
  147MOL0     H20262   5.403   7.737   9.351 -1.7247  1.8797 -1.4674
  147MOL0     H20263   5.419   7.758   9.528 -0.3043 -1.3067 -0.2520
  147MOL0     H20264   5.512   7.966   9.496 -1.7413  1.2143  0.0997
  147MOL0     H20265   5.435   7.988   9.331 -0.2222  0.2800  1.0030
  147MOL0     H20266   4.696   7.219   9.766  1.9000 -0.5689  0.4439
  147MOL0     H20267   4.453   7.159   9.746 -0.6514 -0.6003 -0.8680
  147MOL0     H20268   4.070   7.139   9.802  0.8314  2.3765 -1.1281
  147MOL0     H20269   3.875   6.988   9.812  0.3620 -1.7729 -0.4937
  147MOL0     H20270   2.755   6.782   9.394 -0.4879  0.9241 -1.8963
  147MOL0     H20271   2.696   6.598   9.271 -1.1880 -0.6319 -0.4755
  147MOL0     H20272   2.528   6.423   8.925  0.8542 -0.4416 -0.3155
  147MOL0     H20273   2.514   6.246   8.760 -0.7230  2.3376 -1.0169
  147MOL0     H20274   2.157   6.193   8.696  1.5375 -0.1572  2.4665
  147MOL0     H20275   2.249   6.143   8.558 -0.6249 -0.9562 -0.6764
  147MOL0     H20276   2.078   5.998   8.526  0.8823  1.9162 -0.3287
  147MOL0     H20277   2.018   6.012   8.696 -0.5859  0.2871  0.1043
  147MOL0     H20278   2.255   5.845   8.600 -0.9041 -4.9179  0.0602
  147MOL0     H20279   2.187   5.833   8.755 -0.1857 -1.0990 -0.1680
  147MOL0     H20280   2.036   5.757   8.505  0.3828 -0.2202 -0.3781
  147MOL0     H20281   1.969   5.760   8.674  1.4121 -0.2248 -0.6556
  147MOL0     H20282   2.145   5.402   8.709 -0.5812 -0.6424 -1.9482
  147MOL0     H20283   2.161   6.097   8.918 -0.1004  0.5509  0.7944
  147MOL0     H20284   2.036   6.326   9.104 -0.8250  0.4743 -0.3225
  147MOL0     H20285   2.094   6.152   9.136 -2.4210  1.1044  0.7200
  147MOL0     H20286   2.150   6.283   9.225  3.6735 -0.4625 -0.7632
  148MOL0     O20287   9.243   8.179   3.209  0.0177 -1.5188 -0.1773
  148MOL0     C20288   9.188   8.271   3.143  0.8683 -0.1074  0.0726
  148MOL0     O20289   9.236   8.399   3.113 -0.6426  0.5192 -0.2835
  148MOL0     C20290   9.371   8.413   3.135 -0.0150 -0.6509 -0.7095
  148MOL0     C20291   9.466   8.357   3.051 -0.5894 -0.4123 -0.4924
  148MOL0     C20292   9.608   8.388   3.076  0.4554 -0.1238  0.4823
  148MOL0     C20293   9.650   8.474   3.173 -0.8080 -0.2611 -0.8934
  148MOL0     O20294   9.779   8.490   3.217  0.3705 -0.1534 -0.1834
  148MOL0     C20295   9.883   8.486   3.124 -0.0948  0.1571 -0.4915
  148MOL0     C20296  10.017   8.518   3.181 -0.6229 -0.0541  0.1576
  148MOL0     C20297  10.133   8.500   3.080  0.5068 -0.3260  0.8518
  148MOL0     C20298  10.269   8.519   3.148 -0.3119 -0.6531  0.1377
  148MOL0     C20299  10.380   8.479   3.054  0.9586 -0.2237  0.9604
  148MOL0     C20300  10.518   8.467   3.121  0.4686 -0.3970  0.2341
  148MOL0     C20301  10.636   8.437   3.025  0.8216 -0.2896 -0.2773
  148MOL0     C20302  10.651   8.288   3.000 -0.5674  0.2752 -0.1279
  148MOL0     N20303  10.760   8.262   2.909  0.0474  0.3730 -0.5913
  148MOL0     C20304  10.769   8.328   2.786 -0.5831 -0.2993  0.1088
  148MOL0     C20305  10.903   8.327   2.756 -0.6807 -0.0105 -0.2072
  148MOL0     C20306  10.972   8.379   2.639 -0.2709  0.3737  1.2675
  148MOL0     C20307  11.017   8.258   2.551  0.2825  0.4537  0.3336
  148MOL0     C20308  11.105   8.312   2.438 -0.5309 -0.0919 -0.4131
  148MOL0     C20309  11.171   8.195   2.363 -0.3209 -0.1200 -0.0786
  148MOL0     O20310  11.233   8.238   2.241  0.3045  0.2187 -0.7611
  148MOL0     C20311  11.357   8.294   2.249 -0.6353  0.0380 -0.2622
  148MOL0     C20312  11.444   8.315   2.356  0.2911  0.7920 -0.7108
  148MOL0     C20313  11.571   8.367   2.348  0.5910  0.6511  0.6311
  148MOL0     C20314  11.663   8.332   2.462  0.3106  0.1236 -0.0028
  148MOL0     C20315  11.605   8.426   2.227 -0.4298  0.7910 -0.0879
  148MOL0     C20316  11.733   8.502   2.208  0.1886  0.5458 -0.4208
  148MOL0     O20317  11.809   8.543   2.315 -0.6150 -0.5200 -0.4144
  148MOL0     C20318  11.920   8.622   2.308  0.5847 -0.5912 -0.4068
  148MOL0     C20319  11.975   8.687   2.194  0.6703  0.9771 -0.0740
  148MOL0     C20320  12.093   8.753   2.190  1.1469  0.5555  0.1069
  148MOL0     C20321  12.174   8.754   2.303 -0.0776  0.0671  0.1805
  148MOL0     O20322  12.296   8.817   2.305 -0.8120  0.0053 -0.2377
  148MOL0     C20323  12.312   8.950   2.255  0.8292  0.2206 -0.4984
  148MOL0     C20324  12.453   8.997   2.230 -0.5841  0.0557 -0.9750
  148MOL0     C20325  12.533   8.994   2.360 -0.0507 -0.1194  0.2430
  148MOL0     C20326  12.673   9.047   2.343  0.2365  0.4720  0.1527
  148MOL0     C20327  12.746   9.009   2.469  0.0051  0.0755 -0.4089
  148MOL0     C20328  12.886   9.058   2.461 -0.2199 -0.4186 -0.0809
  148MOL0     C20329  12.968   9.011   2.587  0.5202  0.0146 -0.0807
  148MOL0     C20330  13.118   9.037   2.567 -0.6656  0.1926 -0.3551
  148MOL0    Cl20331  13.215   8.981   2.710 -0.1171  0.0205  0.1247
  148MOL0     C20332  12.131   8.680   2.419  0.0611 -0.2493 -0.3588
  148MOL0     C20333  12.004   8.619   2.418  0.9577  0.7120  0.1792
  148MOL0     O20334  11.764   8.518   2.088  0.0905  0.1192 -0.7648
  148MOL0     C20335  11.520   8.405   2.116  0.3135 -0.0495  0.8249
  148MOL0     C20336  11.398   8.348   2.129 -0.3486 -0.2541  0.0719
  148MOL0     N20337  10.971   8.256   2.862 -0.4299  0.1616 -0.0339
  148MOL0     N20338  10.884   8.220   2.953 -0.4425 -0.0699  0.1443
  148MOL0     C20339   9.548   8.524   3.261 -0.8739  0.7635  0.8996
  148MOL0     C20340   9.415   8.493   3.237  0.2254 -0.9226 -0.3761
  148MOL0     C20341   9.048   8.253   3.082 -0.0133 -0.3371  0.0492
  148MOL0     C20342   8.975   8.367   3.051 -0.2931 -0.7274 -0.3830
  148MOL0     C20343   8.844   8.363   3.007  0.4000  0.3217 -0.2664
  148MOL0     C20344   8.781   8.238   2.982  0.7114 -0.5376 -0.2600
  148MOL0     O20345   8.657   8.240   2.919  0.4314 -0.3020  0.0604
  148MOL0     C20346   8.561   8.138   2.935  0.2171 -0.5783 -0.8864
  148MOL0     C20347   8.547   8.061   2.805  0.2917  0.0763 -0.4787
  148MOL0     C20348   8.473   7.922   2.826 -0.5038 -0.3657 -0.1770
  148MOL0     C20349   8.493   7.822   2.720 -1.1839 -0.8137 -0.2397
  148MOL0     C20350   8.423   7.845   2.594  0.5727 -0.2989  0.6229
  148MOL0     C20351   8.376   7.870   2.481  1.6678  0.1982 -0.6539
  148MOL0     C20352   8.861   8.124   3.005  0.0865  0.3420 -0.0964
  148MOL0     C20353   8.996   8.126   3.050  0.3947  0.4951  0.4275
  148MOL0     C20354   9.067   7.997   3.050 -0.7160 -0.3120 -0.3132
  148MOL0     H20355   9.419   8.303   2.969  0.0122  1.9501 -2.5111
  148MOL0     H20356   9.680   8.345   3.007  0.2381  1.0165 -0.4768
  148MOL0     H20357   9.872   8.545   3.033  0.8101 -0.4129 -0.9895
  148MOL0     H20358   9.897   8.384   3.088 -1.4347 -0.1701 -0.1366
  148MOL0     H20359  10.023   8.618   3.223  0.7519 -0.6613  1.5102
  148MOL0     H20360  10.029   8.438   3.254 -1.2247  0.4205  0.7855
  148MOL0     H20361  10.130   8.396   3.047 -1.0449  0.3164 -1.1794
  148MOL0     H20362  10.110   8.568   2.997 -0.6746  0.3333  1.6832
  148MOL0     H20363  10.291   8.623   3.172  3.4883 -1.3787  0.3843
  148MOL0     H20364  10.265   8.461   3.241 -0.5763  3.8040  3.2183
  148MOL0     H20365  10.392   8.564   2.987 -3.0924 -1.1430 -1.2335
  148MOL0     H20366  10.350   8.386   3.005 -3.0901  1.0609  0.6952
  148MOL0     H20367  10.533   8.560   3.176  1.0649 -0.4294  0.1370
  148MOL0     H20368  10.517   8.393   3.202 -2.4174 -2.6080 -1.6090
  148MOL0     H20369  10.721   8.477   3.080 -1.0404  1.7311  1.3481
  148MOL0     H20370  10.616   8.492   2.932 -0.5835 -1.4447 -0.6834
  148MOL0     H20371  10.673   8.239   3.096  0.0460 -3.4675 -2.0145
  148MOL0     H20372  10.565   8.240   2.953  0.3125  1.9443 -3.7496
  148MOL0     H20373  10.699   8.384   2.726  0.0934  0.2555 -0.1807
  148MOL0     H20374  11.045   8.458   2.655 -1.6423  1.5499  1.9826
  148MOL0     H20375  10.893   8.428   2.581  0.2701  1.2144  1.2378
  148MOL0     H20376  11.068   8.187   2.617  0.4037  1.8267  1.7707
  148MOL0     H20377  10.925   8.210   2.515  0.7223  0.2370 -0.5345
  148MOL0     H20378  11.045   8.367   2.365 -0.5261  1.8456  0.9842
  148MOL0     H20379  11.179   8.383   2.474 -0.8277 -1.4443  3.3070
  148MOL0     H20380  11.246   8.144   2.424  0.2260 -0.6381 -1.1565
  148MOL0     H20381  11.096   8.121   2.335 -0.4167  0.1636 -0.5818
  148MOL0     H20382  11.421   8.266   2.450  0.9691 -0.8479 -1.3485
  148MOL0     H20383  11.676   8.423   2.522  1.1964  0.3613 -0.5376
  148MOL0     H20384  11.758   8.292   2.425  1.3782  2.5435 -0.0628
  148MOL0     H20385  11.627   8.248   2.522  2.0209 -2.1642 -1.9950
  148MOL0     H20386  11.925   8.670   2.099  1.8826  1.0192 -0.7403
  148MOL0     H20387  12.131   8.780   2.092 -0.4077 -0.1758 -0.7223
  148MOL0     H20388  12.261   8.967   2.160 -0.0438  1.1641  0.1149
  148MOL0     H20389  12.266   9.013   2.332 -0.5663 -2.7921  1.3430
  148MOL0     H20390  12.495   8.919   2.167  0.4901 -1.1336  1.0927
  148MOL0     H20391  12.451   9.098   2.189 -2.0669 -0.9821 -3.7145
  148MOL0     H20392  12.539   8.891   2.394  0.2429 -0.8347 -1.7990
  148MOL0     H20393  12.482   9.057   2.433  0.5590  3.0929 -1.8864
  148MOL0     H20394  12.667   9.156   2.336 -1.7884  0.3657 -0.6651
  148MOL0     H20395  12.715   9.011   2.249  0.0743 -1.9555  0.9385
  148MOL0     H20396  12.698   9.063   2.551 -0.6962 -0.0766 -0.7167
  148MOL0     H20397  12.745   8.900   2.479 -0.9716  0.2559  2.2512
  148MOL0     H20398  12.885   9.167   2.456  0.1912 -0.3691  0.9075
  148MOL0     H20399  12.924   9.021   2.365 -1.7927 -0.1564 -0.8520
  148MOL0     H20400  12.959   8.903   2.605  0.1444 -0.4192 -2.5398
  148MOL0     H20401  12.937   9.071   2.673 -2.0851  1.0920 -1.6522
  148MOL0     H20402  13.143   9.141   2.544 -0.4049  0.3030  0.3952
  148MOL0     H20403  13.147   8.978   2.480 -0.4889 -0.4452  0.1304
  148MOL0     H20404  12.194   8.694   2.506  1.3502 -1.0575 -1.1223
  148MOL0     H20405  11.976   8.558   2.503 -0.2577  1.4291  0.3062
  148MOL0     H20406  11.543   8.453   2.022  3.3895  1.4068  2.1957
  148MOL0     H20407  11.331   8.329   2.046  1.0686 -2.8733 -0.6067
  148MOL0     H20408   9.579   8.581   3.348  2.3034 -4.1467  3.4275
  148MOL0     H20409   9.338   8.552   3.285 -1.0910 -3.7014  1.1121
  148MOL0     H20410   9.015   8.465   3.076 -1.3352 -0.7479  1.5864
  148MOL0     H20411   8.784   8.448   2.977 -3.4197 -1.6270  1.0220
  148MOL0     H20412   8.594   8.075   3.019 -0.2843  1.0416  0.5866
  148MOL0     H20413   8.459   8.173   2.956  0.6241  0.8665 -1.2374
  148MOL0     H20414   8.648   8.047   2.767  0.3024 -3.1701  0.4586
  148MOL0     H20415   8.488   8.125   2.739  0.8491  1.2235  0.1062
  148MOL0     H20416   8.510   7.876   2.918 -1.6888 -0.1298  0.4328
  148MOL0     H20417   8.366   7.939   2.841 -0.3116 -0.2545  1.2003
  148MOL0     H20418   8.468   7.724   2.763 -0.0147 -0.6637  0.8520
  148MOL0     H20419   8.601   7.826   2.701 -1.3837 -1.5561 -1.6395
  148MOL0     H20420   8.346   7.906   2.385  1.5360 -0.1386 -0.7416
  148MOL0     H20421   8.822   8.025   2.984  0.2440  0.4043 -0.6888
  148MOL0     H20422   9.103   7.971   3.150  0.3452 -1.5198 -0.9702
  148MOL0     H20423   9.002   7.916   3.014  2.6510 -3.5647  0.2329
  148MOL0     H20424   9.162   7.984   2.998  0.0439 -0.0016  0.9357
  149MOL0     O20425   4.888   3.277   3.208 -0.0471 -0.2633  0.2001
  149MOL0     C20426   4.800   3.261   3.122 -0.1884  0.2224  0.2862
  149MOL0     O20427   4.808   3.294   2.989  0.5357 -0.3142  0.0906
  149MOL0     C20428   4.894   3.391   2.937 -0.7590 -0.4741  0.3865
  149MOL0     C20429   4.980   3.367   2.827  0.4096  0.1083 -1.5335
  149MOL0     C20430   5.054   3.473   2.766 -0.3753  0.4161  0.8879
  149MOL0     C20431   5.040   3.602   2.815 -0.0721 -0.8552  0.0357
  149MOL0     O20432   5.098   3.707   2.752  0.0219  0.1198 -0.0455
  149MOL0     C20433   5.149   3.830   2.812 -0.3853  0.8034 -0.2691
  149MOL0     C20434   5.269   3.804   2.907 -0.3876  0.2388 -0.0639
  149MOL0     C20435   5.383   3.719   2.850  0.1339 -1.2289  0.0404
  149MOL0     C20436   5.522   3.791   2.841  0.2956  0.0042 -0.3299
  149MOL0     C20437   5.630   3.678   2.845  0.5884 -0.7799 -0.3859
  149MOL0     C20438   5.606   3.586   2.727 -0.3109  0.3975 -0.4398
  149MOL0     C20439   5.732   3.500   2.702  0.8173 -0.5659 -0.2093
  149MOL0     C20440   5.720   3.435   2.566 -0.2031 -0.2056  0.8126
  149MOL0     N20441   5.836   3.364   2.512 -0.9272  0.9068 -0.2523
  149MOL0     C20442   5.917   3.415   2.411 -0.1409 -0.2418 -0.8768
  149MOL0     C20443   6.004   3.315   2.394 -0.5071 -0.7225 -0.4395
  149MOL0     C20444   6.117   3.313   2.289  0.1144 -1.3065 -0.8246
  149MOL0     C20445   6.242   3.371   2.341 -0.4854  0.2505 -0.3351
  149MOL0     C20446   6.367   3.337   2.259 -0.3849 -0.7268 -0.8060
  149MOL0     C20447   6.494   3.402   2.318  0.2238  0.3196  0.5465
  149MOL0     O20448   6.599   3.349   2.235  0.9475 -0.1709 -0.1097
  149MOL0     C20449   6.724   3.388   2.252  0.8775  0.2119 -0.1281
  149MOL0     C20450   6.801   3.364   2.137 -0.7773 -0.6381 -0.8819
  149MOL0     C20451   6.932   3.410   2.133  0.1171 -0.0876 -0.0237
  149MOL0     C20452   7.005   3.377   2.011 -0.7679  0.3595 -0.1220
  149MOL0     C20453   6.986   3.491   2.242 -0.5391  0.3831  0.1089
  149MOL0     C20454   7.119   3.551   2.253  0.0579  1.0358  0.8902
  149MOL0     O20455   7.225   3.463   2.223 -0.8121  0.1282 -0.3042
  149MOL0     C20456   7.343   3.518   2.193  0.0346 -0.5148 -0.8740
  149MOL0     C20457   7.438   3.553   2.289 -0.1625 -0.8012 -0.1842
  149MOL0     C20458   7.561   3.605   2.249  1.0183  0.8238  0.1525
  149MOL0     C20459   7.593   3.623   2.112  0.4924 -0.1523 -0.1095
  149MOL0     O20460   7.713   3.664   2.071 -0.5630 -0.0666  0.3694
  149MOL0     C20461   7.724   3.806   2.049 -0.5000  0.1044  0.3908
  149MOL0     C20462   7.805   3.874   2.159  0.1907 -0.3953 -0.2933
  149MOL0     C20463   7.947   3.809   2.171 -0.1128 -0.3829  0.0199
  149MOL0     C20464   8.022   3.879   2.277 -0.0369  0.1540 -1.0981
  149MOL0     C20465   8.167   3.838   2.281 -0.0336 -0.1587 -0.8410
  149MOL0     C20466   8.246   3.920   2.385 -0.0890 -0.5392  0.0314
  149MOL0     C20467   8.382   3.848   2.402 -0.2444 -0.5088  0.0620
  149MOL0     C20468   8.471   3.923   2.498  0.5871  0.1789  0.6407
  149MOL0    Cl20469   8.626   3.836   2.485  0.4233  0.0297 -0.2711
  149MOL0     C20470   7.495   3.586   2.018  0.0595  0.9674  0.1221
  149MOL0     C20471   7.372   3.532   2.056 -0.0394  0.3722  0.9330
  149MOL0     O20472   7.138   3.665   2.289  0.1345  0.6688  0.5852
  149MOL0     C20473   6.910   3.512   2.352  0.1649 -0.3963  0.3292
  149MOL0     C20474   6.780   3.458   2.360  0.4078  0.4291 -0.2895
  149MOL0     N20475   5.982   3.208   2.480 -0.0746 -0.2586 -0.2767
  149MOL0     N20476   5.884   3.249   2.554 -0.2460 -0.5590  0.2834
  149MOL0     C20477   4.961   3.620   2.930 -0.2913  0.2874  0.2391
  149MOL0     C20478   4.881   3.519   2.990  0.0710  0.0861  0.1781
  149MOL0     C20479   4.668   3.196   3.155 -0.4443 -0.0816 -0.0420
  149MOL0     C20480   4.572   3.188   3.046  0.1417  0.4104 -0.2885
  149MOL0     C20481   4.455   3.139   3.067  1.5124  0.3144  0.0311
  149MOL0     C20482   4.410   3.095   3.188  0.6979 -0.1194 -1.2904
  149MOL0     O20483   4.276   3.055   3.203  0.1055 -0.2699  0.4387
  149MOL0     C20484   4.227   2.995   3.319  0.2496 -0.4842 -0.3294
  149MOL0     C20485   4.071   2.987   3.318  0.4944 -0.2466  0.2175
  149MOL0     C20486   4.013   3.135   3.312 -0.5898  0.6896  0.8252
  149MOL0     C20487   3.863   3.150   3.316 -0.4457  0.0579  0.1038
  149MOL0     C20488   3.791   3.040   3.255  0.1286 -0.6460  0.4489
  149MOL0     C20489   3.731   2.943   3.209 -0.5464  0.8428  0.1451
  149MOL0     C20490   4.498   3.094   3.295 -0.7933  0.7944  0.3588
  149MOL0     C20491   4.628   3.148   3.279 -0.5325  0.9675 -0.0162
  149MOL0     C20492   4.726   3.154   3.399  0.4009  0.8444 -0.7005
  149MOL0     H20493   4.982   3.266   2.788  0.0052 -0.5010 -0.0500
  149MOL0     H20494   5.115   3.438   2.683 -0.2195 -1.3628  1.6942
  149MOL0     H20495   5.071   3.884   2.866  0.4695  1.1363  0.6631
  149MOL0     H20496   5.170   3.905   2.735  1.8161  0.9316  0.3765
  149MOL0     H20497   5.307   3.901   2.942 -1.0237  0.1195  1.0103
  149MOL0     H20498   5.222   3.759   2.995 -0.3823 -0.0211 -0.1935
  149MOL0     H20499   5.386   3.633   2.919 -0.7764 -0.7319  0.7255
  149MOL0     H20500   5.353   3.683   2.752 -1.5604  1.0720 -0.3563
  149MOL0     H20501   5.524   3.856   2.753  0.1389  0.6666  0.1470
  149MOL0     H20502   5.547   3.857   2.925 -0.9214  0.0188  0.0463
  149MOL0     H20503   5.626   3.611   2.932 -1.9924 -1.2607 -0.7967
  149MOL0     H20504   5.730   3.722   2.841  0.0601  0.4007 -0.9987
  149MOL0     H20505   5.521   3.518   2.743 -0.6322 -0.3148 -4.1604
  149MOL0     H20506   5.581   3.636   2.632 -0.9660 -3.5856 -2.6082
  149MOL0     H20507   5.738   3.418   2.774  0.3019 -0.5766 -0.1765
  149MOL0     H20508   5.825   3.558   2.714 -0.0069  0.4091  1.9324
  149MOL0     H20509   5.646   3.355   2.564 -1.4992  0.9008  2.2136
  149MOL0     H20510   5.696   3.511   2.490  2.3287 -1.4890 -1.4282
  149MOL0     H20511   5.901   3.513   2.368  0.5817  0.1580 -0.2681
  149MOL0     H20512   6.082   3.365   2.199  1.6186 -1.4862 -1.5412
  149MOL0     H20513   6.130   3.208   2.259  1.1434 -1.8076  1.2424
  149MOL0     H20514   6.249   3.480   2.349 -1.1466  0.3419 -1.0001
  149MOL0     H20515   6.255   3.329   2.441  1.8221 -1.9353 -1.4268
  149MOL0     H20516   6.384   3.229   2.254  2.1471 -0.4389  0.2173
  149MOL0     H20517   6.358   3.363   2.153 -1.9698  1.8931 -0.1296
  149MOL0     H20518   6.481   3.510   2.310 -0.3978  0.2202  0.0953
  149MOL0     H20519   6.506   3.367   2.421  2.2170  0.5354  0.4310
  149MOL0     H20520   6.760   3.322   2.046 -3.7534  1.1032 -0.4603
  149MOL0     H20521   6.945   3.403   1.924 -1.3371 -0.2227  0.0951
  149MOL0     H20522   7.036   3.272   2.011 -0.3627  0.4570  1.4283
  149MOL0     H20523   7.093   3.442   2.003 -2.2415  2.2493 -2.5108
  149MOL0     H20524   7.421   3.542   2.396  2.3648 -0.7199  0.2960
  149MOL0     H20525   7.643   3.622   2.318  0.8925  2.1108  0.0031
  149MOL0     H20526   7.785   3.817   1.958  2.1685  1.6848  2.2250
  149MOL0     H20527   7.626   3.851   2.031 -0.8456 -0.2294  1.3781
  149MOL0     H20528   7.810   3.982   2.144 -1.5903 -0.4188 -1.2772
  149MOL0     H20529   7.749   3.861   2.252 -0.5938 -0.5519 -0.7776
  149MOL0     H20530   7.998   3.812   2.074  1.3702 -1.6420  0.7179
  149MOL0     H20531   7.927   3.704   2.194 -3.2387  0.1509  0.2344
  149MOL0     H20532   7.968   3.877   2.372  1.1756  0.2706 -0.3965
  149MOL0     H20533   8.024   3.985   2.247  2.8786  0.4481 -0.1129
  149MOL0     H20534   8.170   3.730   2.295 -2.1335  0.0887  2.6249
  149MOL0     H20535   8.220   3.866   2.189  3.4647  0.4033  1.2065
  149MOL0     H20536   8.200   3.928   2.483  0.2648  2.7657  0.0610
  149MOL0     H20537   8.260   4.024   2.352 -1.3814  0.0353  1.2137
  149MOL0     H20538   8.435   3.837   2.307  0.0887  1.5869 -0.0424
  149MOL0     H20539   8.362   3.749   2.446 -0.3724  0.8392  3.3337
  149MOL0     H20540   8.429   3.923   2.599 -0.1654  1.0524  0.3421
  149MOL0     H20541   8.488   4.029   2.474 -1.1495  0.2533 -0.3834
  149MOL0     H20542   7.519   3.603   1.914  0.1684  0.2508  0.0263
  149MOL0     H20543   7.297   3.509   1.981 -1.4375  3.0750  1.4001
  149MOL0     H20544   6.952   3.574   2.431  0.5265  2.7585 -2.1575
  149MOL0     H20545   6.718   3.483   2.447 -1.3136 -1.2350 -0.9545
  149MOL0     H20546   4.938   3.715   2.977  0.7535  0.2191  0.9286
  149MOL0     H20547   4.811   3.546   3.068 -2.0580 -0.0318 -1.5925
  149MOL0     H20548   4.603   3.211   2.944  3.0610 -2.7152 -0.3005
  149MOL0     H20549   4.389   3.137   2.981  3.3882 -0.8600 -1.4382
  149MOL0     H20550   4.262   2.892   3.328  2.8805  0.4762  1.9848
  149MOL0     H20551   4.257   3.062   3.400 -0.7656  1.3310 -1.3775
  149MOL0     H20552   4.039   2.931   3.407 -0.6519 -1.5257 -0.9541
  149MOL0     H20553   4.035   2.934   3.230 -2.9185  0.0383  1.2892
  149MOL0     H20554   4.046   3.183   3.405  1.8715  0.6464  0.0431
  149MOL0     H20555   4.055   3.180   3.222 -0.5462 -1.5896 -0.3610
  149MOL0     H20556   3.827   3.244   3.273 -2.2762  0.4588  2.3148
  149MOL0     H20557   3.831   3.146   3.420 -0.4511 -0.2606  0.0909
  149MOL0     H20558   3.682   2.858   3.167  0.1489  1.2877 -1.6568
  149MOL0     H20559   4.459   3.058   3.389 -2.6643  4.1114  1.0123
  149MOL0     H20560   4.828   3.118   3.379  0.7495  0.9608  0.7259
  149MOL0     H20561   4.711   3.252   3.445 -0.4145  1.1439 -1.5788
  149MOL0     H20562   4.687   3.078   3.467  1.9800  0.4821 -0.1624
  150MOL0     O20563   3.657   7.656   8.017 -0.2608 -0.3338 -0.4515
  150MOL0     C20564   3.618   7.713   7.916 -0.3941 -0.0353  0.3945
  150MOL0     O20565   3.702   7.791   7.833  0.3125  1.3047  0.0841
  150MOL0     C20566   3.826   7.825   7.884 -0.5973  0.4133  0.5814
  150MOL0     C20567   3.944   7.802   7.803  0.3439  0.2435 -1.3883
  150MOL0     C20568   4.069   7.848   7.854  0.3105  0.2016  0.5425
  150MOL0     C20569   4.081   7.919   7.974 -0.6175  0.0728 -1.2442
  150MOL0     O20570   4.198   7.971   8.022 -0.1001 -0.0756 -0.5050
  150MOL0     C20571   4.323   7.927   7.972 -0.5961 -0.4059 -1.3941
  150MOL0     C20572   4.421   8.032   7.978 -0.2149  0.0751 -0.3097
  150MOL0     C20573   4.561   7.994   7.927  0.4053 -0.1074 -0.2575
  150MOL0     C20574   4.649   8.095   7.972 -0.2821  0.1258 -0.2295
  150MOL0     C20575   4.801   8.069   7.929 -0.2815 -0.5889 -0.5733
  150MOL0     C20576   4.823   8.119   7.787 -0.2850  0.5213  0.6723
  150MOL0     C20577   4.968   8.139   7.754  0.4506  0.7127 -0.6495
  150MOL0     C20578   5.019   8.258   7.817 -0.2837 -0.2720  0.1725
  150MOL0     N20579   5.169   8.264   7.825 -0.0963 -0.3483 -0.3987
  150MOL0     C20580   5.251   8.324   7.731 -0.3223  0.1165  0.3925
  150MOL0     C20581   5.376   8.315   7.786 -1.0585  0.3085 -0.7080
  150MOL0     C20582   5.499   8.377   7.729 -0.0803  0.2373  0.6097
  150MOL0     C20583   5.485   8.525   7.721  0.0992 -0.3753  0.1150
  150MOL0     C20584   5.516   8.592   7.858  0.0212 -0.0907  0.1843
  150MOL0     C20585   5.655   8.576   7.900 -0.2528  0.8655  0.0692
  150MOL0     O20586   5.748   8.628   7.803 -0.9083 -0.3306  0.8400
  150MOL0     C20587   5.882   8.608   7.817 -0.5862  0.9514  0.6133
  150MOL0     C20588   5.943   8.560   7.930 -0.1060 -0.0013 -0.5209
  150MOL0     C20589   6.086   8.551   7.939 -0.5063 -0.0370  0.0813
  150MOL0     C20590   6.140   8.501   8.063  0.4876  0.9190 -0.1873
  150MOL0     C20591   6.168   8.611   7.830 -0.5332 -0.2244 -0.1347
  150MOL0     C20592   6.321   8.620   7.818  0.3759  0.4824  0.1246
  150MOL0     O20593   6.406   8.533   7.880 -1.0005  0.1933 -0.0963
  150MOL0     C20594   6.541   8.551   7.881  0.3067  0.2201 -0.0589
  150MOL0     C20595   6.601   8.570   8.008  0.1894 -0.3543 -0.1807
  150MOL0     C20596   6.739   8.563   8.017  0.4590  0.5969 -0.0306
  150MOL0     C20597   6.818   8.519   7.913 -1.0760  0.5198 -0.4666
  150MOL0     O20598   6.951   8.502   7.935  0.3193  0.2502 -0.1056
  150MOL0     C20599   7.032   8.416   7.849  1.4189  0.7203 -0.0401
  150MOL0     C20600   7.154   8.367   7.915 -0.9285 -0.0751  0.5249
  150MOL0     C20601   7.261   8.472   7.956 -0.0828 -0.0155  0.7406
  150MOL0     C20602   7.341   8.501   7.823 -0.9528  0.2965 -0.4154
  150MOL0     C20603   7.467   8.581   7.858  0.0688  0.3882 -0.1637
  150MOL0     C20604   7.442   8.726   7.901  0.3348  0.3071  0.6376
  150MOL0     C20605   7.570   8.798   7.900 -0.1547 -1.1939 -0.0963
  150MOL0     C20606   7.550   8.951   7.873 -0.7119  0.0645 -0.3190
  150MOL0    Cl20607   7.714   9.030   7.910 -0.2080  0.0939 -0.0145
  150MOL0     C20608   6.760   8.510   7.785 -0.4742 -0.4491  0.0111
  150MOL0     C20609   6.624   8.530   7.773 -0.0901  0.7869 -0.3641
  150MOL0     O20610   6.361   8.715   7.749  0.3472 -0.0130 -0.8990
  150MOL0     C20611   6.096   8.655   7.716  0.2706 -0.1749  0.2409
  150MOL0     C20612   5.958   8.645   7.712  0.0902  0.4994 -0.2337
  150MOL0     N20613   5.369   8.256   7.913 -0.4868 -0.0263  0.0294
  150MOL0     N20614   5.243   8.229   7.933  1.1064  0.8362  0.2987
  150MOL0     C20615   3.960   7.940   8.047 -1.0620 -0.4445  0.1003
  150MOL0     C20616   3.834   7.903   8.002 -0.8407  0.0413 -0.1572
  150MOL0     C20617   3.474   7.694   7.879 -0.1447  0.6891  0.4453
  150MOL0     C20618   3.438   7.736   7.747  0.6669 -0.5790 -1.1164
  150MOL0     C20619   3.311   7.705   7.698  0.0335 -0.2551  0.0276
  150MOL0     C20620   3.210   7.656   7.776  0.0582  0.5941 -0.4374
  150MOL0     O20621   3.078   7.660   7.725 -0.0707 -0.3536 -0.3699
  150MOL0     C20622   2.972   7.579   7.779  0.5497 -0.1141 -0.7408
  150MOL0     C20623   2.953   7.457   7.682  0.2281 -0.1416  0.0164
  150MOL0     C20624   3.067   7.357   7.666  0.1037 -0.6109  0.2718
  150MOL0     C20625   3.039   7.255   7.551  1.0993 -0.0125  0.0882
  150MOL0     C20626   2.912   7.189   7.574  0.0635 -0.1051 -0.5875
  150MOL0     C20627   2.816   7.121   7.583  0.5111 -0.2625  0.0221
  150MOL0     C20628   3.245   7.628   7.911  0.2838 -0.6668 -0.6874
  150MOL0     C20629   3.370   7.637   7.959  0.4691 -0.1468 -0.1737
  150MOL0     C20630   3.389   7.578   8.096  0.2146  0.0652 -0.7676
  150MOL0     H20631   3.935   7.744   7.712  1.9337  0.7862 -1.9367
  150MOL0     H20632   4.155   7.830   7.790 -0.6815 -1.8236 -0.3025
  150MOL0     H20633   4.326   7.902   7.866  0.5991  0.9383 -1.7057
  150MOL0     H20634   4.359   7.843   8.032 -0.1657  0.9927  0.3973
  150MOL0     H20635   4.372   8.119   7.932  1.8330  1.5545  0.1667
  150MOL0     H20636   4.433   8.066   8.081  1.1479 -1.2097 -0.0035
  150MOL0     H20637   4.593   7.896   7.962 -2.2008 -1.8638 -2.3464
  150MOL0     H20638   4.558   7.996   7.817 -0.9304  2.0745 -0.2500
  150MOL0     H20639   4.621   8.197   7.943 -0.8443  1.3369  3.9909
  150MOL0     H20640   4.654   8.096   8.081  0.1188  0.6734 -0.2504
  150MOL0     H20641   4.829   7.965   7.946  1.1837 -0.0569  0.4869
  150MOL0     H20642   4.865   8.119   8.003  0.3052 -2.9077  0.5688
  150MOL0     H20643   4.797   8.036   7.721  1.2330 -0.0933  0.8232
  150MOL0     H20644   4.768   8.211   7.762  0.7991  0.8950 -0.3769
  150MOL0     H20645   4.992   8.147   7.647  0.4606  0.3418 -0.6784
  150MOL0     H20646   5.026   8.053   7.789  0.4854  0.8680 -0.3339
  150MOL0     H20647   4.985   8.346   7.761 -2.0549 -1.9152 -1.4943
  150MOL0     H20648   4.980   8.260   7.919 -1.1455  0.4146 -0.1595
  150MOL0     H20649   5.210   8.367   7.640  0.1808 -1.7215 -0.7451
  150MOL0     H20650   5.507   8.342   7.625  1.4807  1.8109  0.1536
  150MOL0     H20651   5.591   8.348   7.781 -0.1222 -1.8221 -0.3567
  150MOL0     H20652   5.557   8.562   7.648  0.0295  2.0968  1.1999
  150MOL0     H20653   5.385   8.555   7.689  0.3178  1.1597  0.7700
  150MOL0     H20654   5.483   8.696   7.856 -0.4097 -0.2318 -0.3308
  150MOL0     H20655   5.459   8.552   7.943  0.0448  0.4345  0.4523
  150MOL0     H20656   5.678   8.631   7.992  2.9763 -1.3071  0.7533
  150MOL0     H20657   5.665   8.470   7.924 -1.0144  0.0824 -2.7141
  150MOL0     H20658   5.884   8.543   8.019  3.2674  3.4249  2.7580
  150MOL0     H20659   6.229   8.440   8.043 -0.1179  1.1029 -4.0894
  150MOL0     H20660   6.072   8.435   8.118 -0.0139  0.3642 -1.4493
  150MOL0     H20661   6.173   8.584   8.127  0.5325  0.8134 -0.0708
  150MOL0     H20662   6.538   8.587   8.095 -0.2253 -2.7186  0.0413
  150MOL0     H20663   6.780   8.579   8.116  0.9199  0.0248 -0.1270
  150MOL0     H20664   6.977   8.331   7.808  0.0536  2.0456 -1.1040
  150MOL0     H20665   7.064   8.478   7.764  0.3269  0.8354 -0.3916
  150MOL0     H20666   7.131   8.324   8.013  1.4628 -0.8171  0.8279
  150MOL0     H20667   7.202   8.290   7.854 -1.0924  1.0758 -1.1415
  150MOL0     H20668   7.327   8.439   8.036 -0.6954 -0.5344  1.0399
  150MOL0     H20669   7.200   8.549   8.004  0.4509 -1.0067  3.1372
  150MOL0     H20670   7.276   8.555   7.754 -1.9701  0.5185  0.6843
  150MOL0     H20671   7.377   8.410   7.776 -0.0998  0.1057  0.5548
  150MOL0     H20672   7.527   8.543   7.941 -0.2158  0.4097  0.0526
  150MOL0     H20673   7.528   8.568   7.769 -0.8452 -3.1491 -0.4245
  150MOL0     H20674   7.404   8.739   8.003 -1.6390  1.8497 -0.2005
  150MOL0     H20675   7.367   8.781   7.842 -0.9881  0.8260  2.6654
  150MOL0     H20676   7.631   8.762   7.817  1.0700 -2.9655  1.4816
  150MOL0     H20677   7.632   8.782   7.989 -0.3442 -2.6849 -0.2158
  150MOL0     H20678   7.479   8.991   7.946  1.4097 -0.3389  2.1018
  150MOL0     H20679   7.525   8.982   7.771  0.0280  1.9013  0.0082
  150MOL0     H20680   6.836   8.492   7.709  2.1858  0.7887  2.2099
  150MOL0     H20681   6.572   8.520   7.678 -2.9873  1.1195  1.0960
  150MOL0     H20682   6.161   8.687   7.635  1.5161 -1.4422  0.7058
  150MOL0     H20683   5.908   8.670   7.619  1.5766  0.0618 -1.1917
  150MOL0     H20684   3.970   7.987   8.145 -0.2351 -0.2660 -0.0591
  150MOL0     H20685   3.753   7.931   8.069  0.8965  2.4816  1.0863
  150MOL0     H20686   3.505   7.782   7.674  1.8440  0.7043  0.6935
  150MOL0     H20687   3.306   7.719   7.591  1.5157 -0.7535 -0.1255
  150MOL0     H20688   2.998   7.552   7.882  1.0885  1.0936 -0.5458
  150MOL0     H20689   2.879   7.635   7.784  0.1140 -0.8803  0.0753
  150MOL0     H20690   2.921   7.490   7.583  2.6968 -0.5266 -0.9655
  150MOL0     H20691   2.864   7.404   7.717 -0.2965 -1.5575 -3.1983
  150MOL0     H20692   3.153   7.421   7.642 -0.5951  0.4622  0.5468
  150MOL0     H20693   3.097   7.291   7.748  1.5034 -2.6247 -1.7500
  150MOL0     H20694   3.125   7.188   7.561  2.3496  1.7226  1.8174
  150MOL0     H20695   3.040   7.307   7.455  0.6929 -0.0635  0.0581
  150MOL0     H20696   2.733   7.055   7.598 -0.4843  0.3470 -2.4192
  150MOL0     H20697   3.165   7.596   7.977 -0.2643 -2.5713 -2.1598
  150MOL0     H20698   3.441   7.649   8.161  2.1810  0.2036 -2.3702
  150MOL0     H20699   3.294   7.560   8.148  0.5638  1.3311  0.3554
  150MOL0     H20700   3.444   7.484   8.090  1.3635  0.7789 -1.7915
  151MOL0     O20701   4.562   9.220   9.331  0.3360 -0.4655  0.2061
  151MOL0     C20702   4.566   9.227   9.210  0.3231 -0.3394 -0.2075
  151MOL0     O20703   4.666   9.291   9.138  0.4370  0.0141  0.1328
  151MOL0     C20704   4.788   9.294   9.193 -0.3034 -0.3183 -0.3794
  151MOL0     C20705   4.863   9.179   9.203 -0.3272  0.7790 -0.0549
  151MOL0     C20706   4.992   9.183   9.259 -0.4086  0.0657  0.2156
  151MOL0     C20707   5.041   9.305   9.297  0.3116 -0.1707  0.3470
  151MOL0     O20708   5.172   9.301   9.353  0.2668  0.1563 -0.1795
  151MOL0     C20709   5.240   9.428   9.373  0.6251  0.0300  1.0756
  151MOL0     C20710   5.381   9.414   9.420 -0.4008  0.7975 -0.2986
  151MOL0     C20711   5.405   9.321   9.536 -0.6819  0.2242  0.1234
  151MOL0     C20712   5.544   9.332   9.614  0.5089 -0.3153  0.1692
  151MOL0     C20713   5.657   9.311   9.512 -0.0463 -0.2389 -0.3023
  151MOL0     C20714   5.795   9.319   9.587  0.1754 -0.5992  0.6587
  151MOL0     C20715   5.916   9.329   9.484 -0.1267  0.3192 -0.0842
  151MOL0     C20716   6.056   9.310   9.548  0.0085 -0.5249 -0.5454
  151MOL0     N20717   6.160   9.352   9.459  0.0033  0.2023 -0.1525
  151MOL0     C20718   6.241   9.264   9.381  0.2251  0.2559 -0.6108
  151MOL0     C20719   6.333   9.339   9.331  0.9922  0.1398  0.0490
  151MOL0     C20720   6.443   9.277   9.249 -0.7925  0.0055 -0.4316
  151MOL0     C20721   6.570   9.238   9.321  0.7724  0.3805  0.2890
  151MOL0     C20722   6.652   9.363   9.346 -0.7389 -0.1923 -0.0896
  151MOL0     C20723   6.766   9.331   9.437 -0.4438  0.0463 -0.0630
  151MOL0     O20724   6.855   9.231   9.379  0.2145 -0.4971  0.2422
  151MOL0     C20725   6.962   9.205   9.456  0.2455  0.0884 -0.8213
  151MOL0     C20726   7.056   9.132   9.389  0.3273  0.0420  1.0642
  151MOL0     C20727   7.172   9.098   9.447 -0.2948  0.0757  1.0430
  151MOL0     C20728   7.261   9.018   9.359 -0.3514  0.7743  0.7699
  151MOL0     C20729   7.204   9.137   9.577 -0.0036  0.4980  0.5971
  151MOL0     C20730   7.333   9.116   9.648 -0.5421 -0.2746 -0.1800
  151MOL0     O20731   7.366   9.204   9.750  0.1319  0.6455  0.3475
  151MOL0     C20732   7.496   9.202   9.798 -1.1456  0.7879 -0.0756
  151MOL0     C20733   7.519   9.162   9.937  0.1673  0.5661  0.1617
  151MOL0     C20734   7.641   9.173   9.998 -0.2523 -0.2185 -0.1884
  151MOL0     C20735   7.744   9.238   9.924 -0.7626  0.5144 -0.3176
  151MOL0     O20736   7.861   9.250   9.992  0.1055 -0.0180 -0.2230
  151MOL0     C20737   7.962   9.347   9.947  0.6194  0.2851 -0.2861
  151MOL0     C20738   8.075   9.323  10.040 -0.7384  0.2319 -0.7508
  151MOL0     C20739   8.171   9.222   9.977 -0.8368 -0.8004  0.6492
  151MOL0     C20740   8.257   9.171  10.095  0.3279  0.0139 -0.2502
  151MOL0     C20741   8.400   9.158  10.061  0.4221  0.5369  0.8384
  151MOL0     C20742   8.482   9.116  10.184  0.1638  0.0648  0.2710
  151MOL0     C20743   8.439   8.986  10.245 -0.0691  1.3176  0.0953
  151MOL0     C20744   8.479   8.860  10.164 -0.8261  0.4801  0.3123
  151MOL0    Cl20745   8.663   8.856  10.143 -0.0956  0.1060 -0.0700
  151MOL0     C20746   7.724   9.263   9.788  0.1030  0.4754  0.2864
  151MOL0     C20747   7.600   9.247   9.723  0.4785 -0.6207  0.1053
  151MOL0     O20748   7.407   9.021   9.616  0.0203 -0.1113  0.2150
  151MOL0     C20749   7.110   9.201   9.654 -0.5945 -0.0738 -0.2500
  151MOL0     C20750   6.985   9.229   9.596  0.6243  0.7789  0.1786
  151MOL0     N20751   6.327   9.463   9.385  0.3369 -0.6470  0.6466
  151MOL0     N20752   6.228   9.471   9.467  0.1659  0.2905 -0.1597
  151MOL0     C20753   4.966   9.424   9.291  0.4189  0.9692  0.6338
  151MOL0     C20754   4.841   9.416   9.239 -0.4932 -0.2040  0.1521
  151MOL0     C20755   4.464   9.157   9.121  0.6780  0.2455 -0.7724
  151MOL0     C20756   4.489   9.120   8.991 -0.5624  0.4496  0.5066
  151MOL0     C20757   4.404   9.044   8.919 -0.0988 -0.3386  0.6555
  151MOL0     C20758   4.283   8.997   8.970 -0.2898 -0.6772 -0.6938
  151MOL0     O20759   4.212   8.911   8.889 -0.0465 -0.2127  0.0376
  151MOL0     C20760   4.117   8.818   8.948  0.5583 -0.2576  0.0794
  151MOL0     C20761   4.104   8.690   8.881 -0.4557  0.6508  1.0199
  151MOL0     C20762   4.250   8.634   8.860 -0.6799 -0.3478 -0.1833
  151MOL0     C20763   4.298   8.664   8.722  0.0463 -0.9826 -0.7290
  151MOL0     C20764   4.422   8.598   8.687  0.2337  0.1241  0.9114
  151MOL0     C20765   4.527   8.543   8.668  0.2543  0.2145  0.4082
  151MOL0     C20766   4.248   9.043   9.104  0.7022 -0.3503  0.5494
  151MOL0     C20767   4.337   9.126   9.177 -0.2416  0.5443  0.4355
  151MOL0     C20768   4.293   9.161   9.322  0.2888  0.1508  0.1742
  151MOL0     H20769   4.820   9.082   9.180 -1.2015  1.3942 -1.0866
  151MOL0     H20770   5.039   9.088   9.279 -2.1076 -0.3521  2.5829
  151MOL0     H20771   5.181   9.482   9.447 -3.0844 -4.0401  1.4546
  151MOL0     H20772   5.250   9.491   9.284  1.2476 -0.6285  0.6628
  151MOL0     H20773   5.433   9.385   9.329  0.8324 -0.7857  0.8530
  151MOL0     H20774   5.418   9.509   9.460 -0.7362  0.7512  0.1309
  151MOL0     H20775   5.326   9.334   9.610 -0.9533  2.1803 -0.4535
  151MOL0     H20776   5.406   9.218   9.498  1.3228  0.7449 -1.4294
  151MOL0     H20777   5.550   9.432   9.657  2.5247  0.9691 -2.7372
  151MOL0     H20778   5.570   9.260   9.692 -1.1959 -0.2682  0.8252
  151MOL0     H20779   5.643   9.387   9.434  0.3441  2.0224  1.7063
  151MOL0     H20780   5.640   9.208   9.478 -0.7832 -0.3838  0.4656
  151MOL0     H20781   5.807   9.410   9.647  1.4397  0.6140 -1.3121
  151MOL0     H20782   5.793   9.229   9.649 -0.3246 -0.2772  1.1294
  151MOL0     H20783   5.925   9.429   9.441  2.5360 -0.2798 -1.0839
  151MOL0     H20784   5.910   9.265   9.395 -1.7651  0.9766 -0.4843
  151MOL0     H20785   6.065   9.374   9.636  0.1017  2.2500 -2.4580
  151MOL0     H20786   6.056   9.205   9.580 -0.7649  0.3042  2.5110
  151MOL0     H20787   6.216   9.164   9.350  0.9136  0.3880 -1.6367
  151MOL0     H20788   6.469   9.361   9.184 -2.3131  0.7624 -0.0837
  151MOL0     H20789   6.406   9.194   9.188 -3.6599 -0.7047  2.0556
  151MOL0     H20790   6.544   9.189   9.415  0.9330 -0.5605 -0.1500
  151MOL0     H20791   6.639   9.175   9.265  1.5590  2.0024 -0.6352
  151MOL0     H20792   6.694   9.402   9.253  2.2952 -1.9416  0.4221
  151MOL0     H20793   6.587   9.430   9.402 -1.6944 -1.9708  1.0190
  151MOL0     H20794   6.816   9.425   9.463  1.1051 -0.1625 -2.0534
  151MOL0     H20795   6.734   9.292   9.534 -2.8155  0.2367 -0.7148
  151MOL0     H20796   7.036   9.115   9.284 -0.0865  0.5738  1.0555
  151MOL0     H20797   7.220   9.001   9.259 -1.9294  2.8029  1.0192
  151MOL0     H20798   7.280   8.927   9.417  1.4813 -0.6222 -1.7871
  151MOL0     H20799   7.354   9.074   9.349 -0.2337  0.6577  1.1973
  151MOL0     H20800   7.437   9.130  10.000  0.4202  2.5389  1.5774
  151MOL0     H20801   7.653   9.141  10.102 -0.0669  1.3717  0.3038
  151MOL0     H20802   7.991   9.317   9.846  0.2405 -3.1847  0.5405
  151MOL0     H20803   7.931   9.450   9.968  2.1476  0.6002  0.5873
  151MOL0     H20804   8.119   9.420  10.063  0.3645 -0.5057  0.4202
  151MOL0     H20805   8.039   9.283  10.135  0.5403 -2.6432 -1.3347
  151MOL0     H20806   8.235   9.267   9.901 -1.0985 -1.1414  0.2238
  151MOL0     H20807   8.128   9.138   9.921 -0.1421 -1.7894  1.5436
  151MOL0     H20808   8.223   9.070  10.120  4.7953 -1.9469 -1.0984
  151MOL0     H20809   8.258   9.234  10.184  1.7637  2.1585 -1.7025
  151MOL0     H20810   8.420   9.090   9.977  1.5811  2.4831 -0.5387
  151MOL0     H20811   8.436   9.251  10.018 -1.4442  0.7088 -0.4926
  151MOL0     H20812   8.470   9.189  10.265  0.9367 -1.2809  1.6699
  151MOL0     H20813   8.590   9.117  10.168  0.0400  1.0129 -0.6078
  151MOL0     H20814   8.333   8.989  10.270 -0.7405 -1.9553 -1.8051
  151MOL0     H20815   8.493   8.984  10.340 -1.2727 -3.5137  0.9640
  151MOL0     H20816   8.422   8.868  10.071 -0.3919  3.5433  0.2049
  151MOL0     H20817   8.445   8.773  10.220 -2.9739  0.4102 -0.9712
  151MOL0     H20818   7.816   9.293   9.738  0.7646 -1.8039  0.0104
  151MOL0     H20819   7.592   9.274   9.619 -1.8699  0.5626  0.5381
  151MOL0     H20820   7.136   9.235   9.754  1.4365  1.2653 -1.1481
  151MOL0     H20821   6.913   9.276   9.663 -0.1866  0.6633 -0.5835
  151MOL0     H20822   5.008   9.520   9.321  4.5645  0.3101 -2.2452
  151MOL0     H20823   4.788   9.511   9.240  0.1141  0.1422 -0.3415
  151MOL0     H20824   4.580   9.147   8.939 -1.2192  0.5180 -0.6321
  151MOL0     H20825   4.439   9.017   8.820  1.7780 -0.7781  1.4013
  151MOL0     H20826   4.141   8.795   9.052  2.6964  1.5629  0.0711
  151MOL0     H20827   4.024   8.876   8.951  0.8228  0.1272  1.1546
  151MOL0     H20828   4.058   8.702   8.783  1.2337 -1.0382 -0.0596
  151MOL0     H20829   4.034   8.622   8.931 -1.5031 -0.0809 -1.3082
  151MOL0     H20830   4.322   8.675   8.932 -0.8986  1.9088 -1.1798
  151MOL0     H20831   4.243   8.526   8.881 -1.1780 -0.0007  1.6042
  151MOL0     H20832   4.308   8.771   8.704 -0.3988  0.4518  5.3661
  151MOL0     H20833   4.218   8.631   8.655 -1.3391  0.0145  0.3821
  151MOL0     H20834   4.621   8.515   8.627 -0.6409 -0.2415 -1.4297
  151MOL0     H20835   4.151   9.024   9.148  0.8118 -0.3572  0.7934
  151MOL0     H20836   4.361   9.107   9.389  0.1933 -0.4044 -0.1757
  151MOL0     H20837   4.311   9.268   9.342  1.9920  0.2740 -1.6590
  151MOL0     H20838   4.187   9.137   9.327  0.2015 -0.0779 -1.9219
  152MOL0     O20839   3.527   9.312  10.053 -0.1808  0.2192 -0.4058
  152MOL0     C20840   3.565   9.385   9.967 -0.6113  0.2143 -0.9025
  152MOL0     O20841   3.665   9.358   9.877 -0.1555  0.1566 -0.2707
  152MOL0     C20842   3.734   9.241   9.908  0.3170 -0.0740 -0.2486
  152MOL0     C20843   3.698   9.125   9.847 -0.3069 -0.9489  0.1494
  152MOL0     C20844   3.784   9.009   9.867  0.1904 -0.1737  0.0520
  152MOL0     C20845   3.894   9.015   9.939 -0.1495 -0.1934 -0.6549
  152MOL0     O20846   3.991   8.917   9.939 -0.4428 -0.1443 -0.0071
  152MOL0     C20847   4.037   8.863   9.820 -0.1353  0.8542  0.3418
  152MOL0     C20848   4.182   8.921   9.794 -0.1200  0.2239 -0.9814
  152MOL0     C20849   4.176   9.061   9.733 -0.9123 -0.4131 -0.5924
  152MOL0     C20850   4.323   9.098   9.688 -0.1049  0.4980 -0.3714
  152MOL0     C20851   4.338   9.250   9.663  0.0572 -0.8261  0.1937
  152MOL0     C20852   4.483   9.287   9.676 -0.2101 -0.7178 -0.0746
  152MOL0     C20853   4.509   9.437   9.650 -0.7045 -0.4273 -1.2130
  152MOL0     C20854   4.658   9.462   9.621 -0.1932  0.1147  0.2351
  152MOL0     N20855   4.664   9.595   9.567  0.1391 -0.3491 -0.1417
  152MOL0     C20856   4.647   9.632   9.439 -0.1928  0.1069  0.0532
  152MOL0     C20857   4.677   9.767   9.438 -0.2683  0.4249  0.0416
  152MOL0     C20858   4.661   9.847   9.322 -0.5873  0.0387  0.5551
  152MOL0     C20859   4.507   9.867   9.290 -0.8410 -0.4836  0.7113
  152MOL0     C20860   4.490   9.980   9.189  0.8205  0.3404 -0.1212
  152MOL0     C20861   4.340  10.017   9.168  0.4168 -1.7918  0.5712
  152MOL0     O20862   4.288   9.913   9.082  0.0422  0.3036  0.1388
  152MOL0     C20863   4.147   9.897   9.071 -0.5123 -0.3745  0.3644
  152MOL0     C20864   4.101   9.783   8.995  0.4266 -0.6381 -0.1334
  152MOL0     C20865   3.969   9.751   8.971 -0.3909 -0.2419 -0.6517
  152MOL0     C20866   3.930   9.625   8.897  0.0906  0.5261  0.4438
  152MOL0     C20867   3.867   9.844   9.019 -0.2889 -0.2601  0.4779
  152MOL0     C20868   3.717   9.833   9.000 -0.0121  0.4102  0.7646
  152MOL0     O20869   3.660   9.949   8.946 -0.1338  0.3395 -0.7846
  152MOL0     C20870   3.525   9.953   8.941 -0.2218  1.3088 -0.5802
  152MOL0     C20871   3.459   9.904   8.826  0.5254 -0.4880  1.0482
  152MOL0     C20872   3.323   9.929   8.797  0.0356 -0.0453 -0.8149
  152MOL0     C20873   3.254   9.995   8.899 -0.3034  0.4749  0.1500
  152MOL0     O20874   3.118  10.006   8.891  0.1147 -0.1058 -0.4955
  152MOL0     C20875   3.041   9.961   9.000  0.3548  0.7064 -0.9829
  152MOL0     C20876   2.895   9.938   8.946 -0.3768  0.4870 -0.4427
  152MOL0     C20877   2.833  10.078   8.909 -0.1839 -0.5592  0.1736
  152MOL0     C20878   2.683  10.089   8.923 -0.4407  0.0993 -0.5052
  152MOL0     C20879   2.613   9.974   8.852 -0.0419  0.1810  0.1384
  152MOL0     C20880   2.465   9.965   8.896  0.6579 -0.4145 -0.0084
  152MOL0     C20881   2.394   9.839   8.848 -0.1828 -0.4383 -0.0289
  152MOL0     C20882   2.258   9.830   8.921  0.5195  0.6031  0.5018
  152MOL0    Cl20883   2.192   9.678   8.872  0.1484  0.1393  0.0049
  152MOL0     C20884   3.316  10.036   9.018  0.7273  0.3924 -0.3818
  152MOL0     C20885   3.455  10.023   9.039  0.1053  0.7215 -0.9009
  152MOL0     O20886   3.656   9.730   9.032 -0.1448 -0.3368 -0.0355
  152MOL0     C20887   3.912   9.959   9.089 -0.6961  0.0792  0.5769
  152MOL0     C20888   4.049   9.986   9.120  0.2522  0.7263 -0.1614
  152MOL0     N20889   4.707   9.803   9.567 -0.3356 -0.3117  0.2779
  152MOL0     N20890   4.687   9.703   9.647  0.3587 -0.0889  0.9572
  152MOL0     C20891   3.921   9.135  10.006  0.2580  0.4272 -0.3472
  152MOL0     C20892   3.839   9.250   9.989 -0.5921  0.4792 -0.0079
  152MOL0     C20893   3.495   9.514   9.943  0.1301 -0.0495 -0.0333
  152MOL0     C20894   3.514   9.579   9.821 -0.0445  0.4199  0.4207
  152MOL0     C20895   3.447   9.704   9.799 -0.3133  0.5019 -0.6426
  152MOL0     C20896   3.376   9.775   9.905  0.8712  0.3229 -0.6306
  152MOL0     O20897   3.325   9.900   9.887 -0.5679 -0.3268  0.3935
  152MOL0     C20898   3.371   9.983   9.777 -0.1386  0.3578  0.1540
  152MOL0     C20899   3.324  10.122   9.814 -0.2662  0.3718  0.3309
  152MOL0     C20900   3.171  10.138   9.795 -0.0607  0.1749 -0.1803
  152MOL0     C20901   3.155  10.284   9.750 -0.2894 -0.8115  1.3368
  152MOL0     C20902   3.025  10.284   9.684 -1.6401  0.2666 -0.2984
  152MOL0     C20903   2.921  10.290   9.621 -0.7558  0.1513 -0.6308
  152MOL0     C20904   3.379   9.702  10.025  0.4025 -0.7466 -0.2734
  152MOL0     C20905   3.425   9.578  10.046  0.0548 -0.1505 -0.3162
  152MOL0     C20906   3.443   9.544  10.190 -0.5419 -0.1510  0.1024
  152MOL0     H20907   3.604   9.104   9.796  1.2197 -3.7064 -1.7738
  152MOL0     H20908   3.759   8.922   9.806 -0.9125  0.6249 -0.6669
  152MOL0     H20909   3.980   8.877   9.727  1.4348  1.9254 -0.5293
  152MOL0     H20910   4.048   8.757   9.842 -0.0668  0.6361 -0.6646
  152MOL0     H20911   4.243   8.942   9.883  0.2655  1.7868 -1.5886
  152MOL0     H20912   4.241   8.853   9.731 -2.0149  0.6521 -3.3518
  152MOL0     H20913   4.105   9.060   9.650  0.4167 -0.6828 -1.7823
  152MOL0     H20914   4.140   9.123   9.815  0.8166 -1.3514  0.9434
  152MOL0     H20915   4.387   9.067   9.772  1.1302  2.4593 -0.5224
  152MOL0     H20916   4.351   9.048   9.595  0.2494  1.0104 -0.5446
  152MOL0     H20917   4.285   9.305   9.741 -0.1088  1.5830 -1.4961
  152MOL0     H20918   4.289   9.280   9.570  0.8804 -0.4287 -0.1257
  152MOL0     H20919   4.527   9.255   9.771  1.9710 -0.1630 -0.8278
  152MOL0     H20920   4.546   9.233   9.604  2.8947  2.0814  0.2957
  152MOL0     H20921   4.483   9.496   9.739  0.6346  0.4487 -1.3763
  152MOL0     H20922   4.447   9.465   9.565 -1.8883 -0.7509 -0.4799
  152MOL0     H20923   4.715   9.451   9.714  1.4045 -1.1559 -0.8315
  152MOL0     H20924   4.703   9.389   9.552  3.6528  0.5822  1.9780
  152MOL0     H20925   4.626   9.558   9.362  0.2422  0.2871 -0.2429
  152MOL0     H20926   4.709   9.798   9.237 -2.5634  1.3379 -1.4158
  152MOL0     H20927   4.714   9.942   9.332 -1.6003  0.8953 -1.5403
  152MOL0     H20928   4.458   9.776   9.255 -0.4947 -0.6513  0.6617
  152MOL0     H20929   4.451   9.901   9.377 -1.2009  3.4447 -0.8206
  152MOL0     H20930   4.530  10.070   9.238 -0.0207  0.0847  1.0837
  152MOL0     H20931   4.537   9.966   9.091 -0.9283  0.8988 -1.0753
  152MOL0     H20932   4.282  10.031   9.260  1.4367 -0.7248  1.0825
  152MOL0     H20933   4.339  10.110   9.110  3.3094 -1.4708  0.9270
  152MOL0     H20934   4.166   9.723   8.932 -1.4837 -2.6471 -0.3132
  152MOL0     H20935   3.831   9.638   8.851 -0.9412 -0.8163  2.1374
  152MOL0     H20936   3.932   9.536   8.961  0.6317  0.1837 -0.0474
  152MOL0     H20937   3.999   9.596   8.818 -1.5567 -3.0803  0.1192
  152MOL0     H20938   3.528   9.851   8.762 -0.5890  0.3166 -0.9136
  152MOL0     H20939   3.268   9.890   8.712 -1.0315  2.2940 -1.2943
  152MOL0     H20940   3.075   9.865   9.041  0.7096  0.4562 -1.8544
  152MOL0     H20941   3.041  10.037   9.078 -0.5976  0.0134 -0.2732
  152MOL0     H20942   2.900   9.872   8.859 -1.2362 -1.5773  0.9853
  152MOL0     H20943   2.832   9.879   9.013 -0.3852 -0.5130 -1.3217
  152MOL0     H20944   2.859  10.100   8.805 -0.0522 -0.8730  0.1379
  152MOL0     H20945   2.867  10.162   8.970 -0.5949  0.6332 -1.1785
  152MOL0     H20946   2.639  10.186   8.899  0.2544  1.7235  3.8864
  152MOL0     H20947   2.660  10.088   9.029  1.3755 -1.0594 -0.0790
  152MOL0     H20948   2.623   9.990   8.745 -1.3156  0.9884  0.1247
  152MOL0     H20949   2.663   9.881   8.882 -0.6415 -0.1748  0.0544
  152MOL0     H20950   2.423  10.061   8.862  1.7014  1.2175  2.9305
  152MOL0     H20951   2.448   9.969   9.004 -0.7984 -4.3274  0.0496
  152MOL0     H20952   2.450   9.746   8.862  0.9319  0.3263  0.8339
  152MOL0     H20953   2.387   9.849   8.740  1.0320  0.2574 -0.0587
  152MOL0     H20954   2.191   9.911   8.891 -0.5396 -1.1550 -2.3026
  152MOL0     H20955   2.279   9.832   9.028 -2.6891  0.6272  1.2198
  152MOL0     H20956   3.266  10.089   9.098 -1.3043 -3.3660  1.1063
  152MOL0     H20957   3.505  10.063   9.126  1.8375 -1.2435 -0.9253
  152MOL0     H20958   3.836  10.023   9.130  1.0181  1.4357  1.7856
  152MOL0     H20959   4.078  10.084   9.158  1.7547 -0.9041  3.3221
  152MOL0     H20960   4.011   9.153  10.063 -1.5653  0.5310  2.7586
  152MOL0     H20961   3.870   9.344  10.034  2.7936 -0.8045  0.6543
  152MOL0     H20962   3.559   9.535   9.732 -1.6573 -1.2972  0.3892
  152MOL0     H20963   3.457   9.743   9.698  1.4452 -3.1285 -2.0346
  152MOL0     H20964   3.480   9.981   9.775 -0.1601 -1.3869 -1.0982
  152MOL0     H20965   3.343   9.946   9.678  0.7806 -1.0292  0.3871
  152MOL0     H20966   3.378  10.196   9.754  2.3597 -0.2438  1.8089
  152MOL0     H20967   3.360  10.131   9.917  1.2646 -1.9562  0.0586
  152MOL0     H20968   3.132  10.065   9.724  0.3515  0.7365 -0.9991
  152MOL0     H20969   3.115  10.121   9.888 -0.7671 -1.2543 -0.8410
  152MOL0     H20970   3.230  10.319   9.678  1.0858  0.1595  3.1463
  152MOL0     H20971   3.151  10.360   9.829  1.4332 -0.2579  0.9200
  152MOL0     H20972   2.826  10.305   9.574 -0.9125  4.8448  0.7132
  152MOL0     H20973   3.335   9.752  10.111  2.1212  0.6962 -0.1862
  152MOL0     H20974   3.390   9.608  10.261  1.7648  0.0311  1.7767
  152MOL0     H20975   3.407   9.443  10.210 -0.2411 -0.2653  0.0738
  152MOL0     H20976   3.548   9.558  10.218 -1.0656  2.5557  1.0107
  153MOL0     O20977   0.860   2.179   1.301 -0.2887 -0.2972 -0.0103
  153MOL0     C20978   0.896   2.294   1.274 -0.6889  0.9383  0.1615
  153MOL0     O20979   1.019   2.331   1.306 -0.9474  0.1112  0.2741
  153MOL0     C20980   1.110   2.246   1.391  0.8019 -0.0410  0.7052
  153MOL0     C20981   1.127   2.105   1.384  0.4162 -0.6781  0.3537
  153MOL0     C20982   1.214   2.040   1.471 -0.4677  0.0235 -0.4072
  153MOL0     C20983   1.282   2.110   1.574  0.9138 -0.1202  1.0175
  153MOL0     O20984   1.352   2.043   1.667 -0.3305 -0.0888 -0.3150
  153MOL0     C20985   1.404   2.106   1.785 -0.2832 -0.2167  0.1354
  153MOL0     C20986   1.455   2.010   1.889  0.0261  0.2061 -0.9133
  153MOL0     C20987   1.547   1.900   1.836  0.1769 -0.3670 -0.5798
  153MOL0     C20988   1.673   1.954   1.756  0.2860 -0.7862 -0.3804
  153MOL0     C20989   1.768   1.845   1.710 -0.2110  0.1514  0.2233
  153MOL0     C20990   1.701   1.718   1.652 -0.0404 -0.1640  0.5841
  153MOL0     C20991   1.811   1.640   1.575 -1.2447  1.2447 -0.6710
  153MOL0     C20992   1.878   1.552   1.688  0.0771 -0.1007 -0.2073
  153MOL0     N20993   1.968   1.453   1.635  0.3385 -0.3138  0.2214
  153MOL0     C20994   2.093   1.443   1.673 -0.2451  0.8642 -0.1947
  153MOL0     C20995   2.152   1.336   1.607  0.7466  0.5272 -0.2709
  153MOL0     C20996   2.297   1.288   1.629  0.0423 -0.2278  0.2518
  153MOL0     C20997   2.383   1.331   1.516 -0.7296  0.1811  0.6093
  153MOL0     C20998   2.518   1.257   1.533  0.0868  0.3074  0.4911
  153MOL0     C20999   2.620   1.272   1.412 -0.5596  0.1380 -0.3680
  153MOL0     O21000   2.756   1.260   1.451 -0.4811  0.6460 -0.2604
  153MOL0     C21001   2.840   1.307   1.357 -0.8410  0.1991  0.6236
  153MOL0     C21002   2.976   1.314   1.401 -0.1620 -0.1937 -0.6527
  153MOL0     C21003   3.089   1.351   1.330 -0.3253 -0.4233 -0.9085
  153MOL0     C21004   3.222   1.328   1.405  0.8219 -0.0836  0.7262
  153MOL0     C21005   3.067   1.386   1.192  0.1258 -0.7726 -0.2701
  153MOL0     C21006   3.178   1.445   1.096  0.1670  0.3862 -0.5560
  153MOL0     O21007   3.155   1.467   0.965 -0.2870  0.2212 -0.2118
  153MOL0     C21008   3.257   1.503   0.880 -0.5175  0.3802  0.1642
  153MOL0     C21009   3.222   1.569   0.759  0.0752  0.1782 -1.2341
  153MOL0     C21010   3.318   1.606   0.663 -0.2961  0.5441 -0.0986
  153MOL0     C21011   3.453   1.592   0.686 -0.5461  0.4370 -0.2112
  153MOL0     O21012   3.531   1.636   0.582 -0.0169  0.6625  0.3652
  153MOL0     C21013   3.678   1.617   0.578 -0.5168  0.9610  0.8136
  153MOL0     C21014   3.740   1.734   0.499 -0.1152  0.0994 -0.2815
  153MOL0     C21015   3.883   1.692   0.452  0.6740 -0.1521  0.2218
  153MOL0     C21016   3.960   1.813   0.392 -0.1936  0.1771 -0.1395
  153MOL0     C21017   4.107   1.781   0.379  0.2889 -0.4119  0.3801
  153MOL0     C21018   4.196   1.908   0.345  1.1438 -1.0875  0.3197
  153MOL0     C21019   4.335   1.865   0.302 -0.5020 -0.3223  0.4249
  153MOL0     C21020   4.420   1.990   0.286  0.7418 -0.1632 -0.4233
  153MOL0    Cl21021   4.585   1.943   0.277  0.0131 -0.2897 -0.1505
  153MOL0     C21022   3.490   1.530   0.806  0.5992  0.9901 -0.0657
  153MOL0     C21023   3.393   1.476   0.891 -1.2815  0.2812 -0.5136
  153MOL0     O21024   3.276   1.473   1.156 -0.4233  0.3538 -0.1554
  153MOL0     C21025   2.935   1.368   1.143 -0.5996  0.1020  0.7281
  153MOL0     C21026   2.815   1.332   1.224 -0.5463 -0.0224  0.1567
  153MOL0     N21027   2.054   1.267   1.533 -0.4255  0.0230 -0.0195
  153MOL0     N21028   1.945   1.341   1.551  0.1366  0.1176 -0.7619
  153MOL0     C21029   1.271   2.251   1.576 -0.0995 -0.3427 -0.6112
  153MOL0     C21030   1.191   2.317   1.482  0.4044 -0.5816 -0.1046
  153MOL0     C21031   0.799   2.380   1.222 -0.2174 -0.0767  0.3496
  153MOL0     C21032   0.667   2.339   1.232  0.4665  0.1880 -0.3068
  153MOL0     C21033   0.562   2.414   1.172  1.0373 -0.1765 -0.9498
  153MOL0     C21034   0.591   2.530   1.106 -0.6537  0.3919 -0.2802
  153MOL0     O21035   0.505   2.620   1.058 -0.2982  0.2426 -0.2542
  153MOL0     C21036   0.368   2.610   1.074  0.4758 -0.6155 -0.4031
  153MOL0     C21037   0.304   2.731   1.003  0.8540  0.0424  0.2289
  153MOL0     C21038   0.369   2.761   0.867 -0.4604  0.3053 -0.7863
  153MOL0     C21039   0.285   2.838   0.763  0.2284  0.3461  0.7431
  153MOL0     C21040   0.235   2.966   0.829 -0.9814 -0.7438 -0.3882
  153MOL0     C21041   0.184   3.071   0.861 -0.1232  0.1783  0.3516
  153MOL0     C21042   0.724   2.569   1.095  0.6867  0.4791 -0.9964
  153MOL0     C21043   0.834   2.496   1.144 -0.2334  0.9384  0.4005
  153MOL0     C21044   0.973   2.553   1.112  0.6953 -0.4335  0.8741
  153MOL0     H21045   1.088   2.042   1.305 -0.2362  1.0587 -0.7599
  153MOL0     H21046   1.225   1.933   1.459 -5.5125 -1.1524  2.5261
  153MOL0     H21047   1.329   2.163   1.841  1.1109 -0.5275  2.4255
  153MOL0     H21048   1.485   2.174   1.755 -0.5101 -0.1402 -0.3125
  153MOL0     H21049   1.508   2.061   1.970  1.1531 -2.2884  0.0455
  153MOL0     H21050   1.371   1.955   1.933 -0.3224  2.1937  1.0673
  153MOL0     H21051   1.584   1.841   1.920 -1.6381 -1.0548 -0.2333
  153MOL0     H21052   1.485   1.829   1.780  1.7459 -1.6658 -0.7625
  153MOL0     H21053   1.643   2.004   1.663 -0.3212 -1.1945 -0.4104
  153MOL0     H21054   1.739   2.013   1.820  3.3138 -1.2093 -2.8452
  153MOL0     H21055   1.817   1.809   1.801 -0.3635  1.7570  0.9665
  153MOL0     H21056   1.848   1.890   1.649 -1.4641 -1.1834 -2.5768
  153MOL0     H21057   1.637   1.657   1.716 -1.0354  0.6260  0.3806
  153MOL0     H21058   1.626   1.762   1.584  0.8332  1.2801  0.5196
  153MOL0     H21059   1.883   1.698   1.517 -0.4627 -0.9235 -2.0159
  153MOL0     H21060   1.769   1.570   1.501 -1.5413  1.3593 -0.6124
  153MOL0     H21061   1.927   1.620   1.759 -2.4530  1.3219  0.3086
  153MOL0     H21062   1.806   1.495   1.748  1.1786  0.0287  1.2909
  153MOL0     H21063   2.134   1.508   1.751 -1.4670 -1.2268  2.3452
  153MOL0     H21064   2.298   1.180   1.646  0.0408 -0.4124 -0.8198
  153MOL0     H21065   2.334   1.333   1.722  0.0914 -1.8157  1.0288
  153MOL0     H21066   2.324   1.292   1.433 -0.4004 -1.2257  1.0063
  153MOL0     H21067   2.390   1.440   1.518  1.5837  0.0928  0.8249
  153MOL0     H21068   2.560   1.291   1.629  2.4888 -1.0476 -0.0031
  153MOL0     H21069   2.492   1.150   1.529  0.0427  0.3508 -0.5783
  153MOL0     H21070   2.589   1.200   1.335  2.1004 -2.1970  0.5794
  153MOL0     H21071   2.604   1.374   1.374 -1.2415  0.2034  0.0832
  153MOL0     H21072   2.992   1.286   1.505  1.0914  1.3264 -0.3866
  153MOL0     H21073   3.203   1.296   1.508  0.3650 -1.6803  0.1725
  153MOL0     H21074   3.277   1.421   1.421  0.9493 -0.1306  0.5653
  153MOL0     H21075   3.289   1.260   1.351  1.8346  1.0608  0.4905
  153MOL0     H21076   3.117   1.581   0.735 -0.7362 -1.9728  0.7905
  153MOL0     H21077   3.287   1.646   0.566 -0.2140 -0.4762 -0.5589
  153MOL0     H21078   3.732   1.625   0.673  1.0872  2.9218 -0.1843
  153MOL0     H21079   3.706   1.525   0.526  2.6996  2.5474 -0.5611
  153MOL0     H21080   3.675   1.773   0.420 -2.0026 -1.8142  0.2378
  153MOL0     H21081   3.750   1.802   0.584  1.8109 -0.5771  0.0940
  153MOL0     H21082   3.876   1.610   0.380  0.2650  2.6003 -3.1377
  153MOL0     H21083   3.935   1.663   0.543 -0.9913  0.5393  1.4494
  153MOL0     H21084   3.945   1.902   0.455  1.8207 -0.8367  1.8945
  153MOL0     H21085   3.915   1.829   0.294  1.6930  0.6181 -0.9731
  153MOL0     H21086   4.142   1.740   0.475  0.8944 -0.6599  0.0656
  153MOL0     H21087   4.120   1.700   0.306 -1.1989 -0.2001 -0.1406
  153MOL0     H21088   4.204   1.966   0.437 -4.8742 -1.2369  1.3583
  153MOL0     H21089   4.149   1.953   0.257  2.3009 -0.6250 -0.0777
  153MOL0     H21090   4.326   1.811   0.207  1.1418  0.3356 -0.1373
  153MOL0     H21091   4.380   1.811   0.386  0.8740  2.2429  1.4381
  153MOL0     H21092   4.408   2.056   0.372  4.3697 -0.3728  0.4055
  153MOL0     H21093   4.399   2.048   0.195  0.8516 -1.7841 -1.5205
  153MOL0     H21094   3.596   1.514   0.823  0.3739 -1.7726 -0.8025
  153MOL0     H21095   3.424   1.407   0.969 -0.1799  0.7670 -0.5102
  153MOL0     H21096   2.915   1.373   1.037 -2.0471  0.6540  1.0100
  153MOL0     H21097   2.715   1.323   1.183 -1.1327 -0.0145  1.5251
  153MOL0     H21098   1.324   2.308   1.652 -1.6233  0.3794 -0.0494
  153MOL0     H21099   1.197   2.424   1.468  4.5168 -0.7726 -1.0614
  153MOL0     H21100   0.637   2.251   1.288  2.0437 -0.6142 -0.6689
  153MOL0     H21101   0.459   2.383   1.186  1.0619  0.5580  1.2495
  153MOL0     H21102   0.336   2.513   1.035 -1.8929 -0.0262 -0.0707
  153MOL0     H21103   0.345   2.615   1.180  3.2808  1.4641  0.2318
  153MOL0     H21104   0.313   2.819   1.067 -1.5875 -0.8881  1.9970
  153MOL0     H21105   0.200   2.704   0.987  0.4724  0.0592  2.3974
  153MOL0     H21106   0.461   2.819   0.882 -0.6930 -0.0851  3.1925
  153MOL0     H21107   0.401   2.665   0.827  1.6587 -0.2623  1.9436
  153MOL0     H21108   0.203   2.774   0.729 -0.9225  1.8055  0.6601
  153MOL0     H21109   0.350   2.868   0.680  2.4679  1.9456  2.9282
  153MOL0     H21110   0.175   3.176   0.883  2.0541  0.4834  0.0131
  153MOL0     H21111   0.746   2.660   1.041  0.2395  0.2139 -1.6308
  153MOL0     H21112   0.968   2.643   1.050 -1.6690 -1.5219 -0.6072
  153MOL0     H21113   1.030   2.579   1.202  0.4258  0.2051  0.8681
  153MOL0     H21114   1.037   2.484   1.056  1.2457 -0.1765  1.1729
  154MOL0     O21115   0.154   5.375   7.881 -0.3534 -0.1240  0.3607
  154MOL0     C21116   0.104   5.266   7.845 -1.3322 -0.7268  0.4710
  154MOL0     O21117   0.168   5.151   7.869 -0.2055  0.2358  0.4046
  154MOL0     C21118   0.275   5.161   7.956  0.3030 -0.4740 -0.4922
  154MOL0     C21119   0.397   5.109   7.913 -0.2469  0.2679 -0.2553
  154MOL0     C21120   0.498   5.068   8.007 -0.0274 -0.2600  0.4508
  154MOL0     C21121   0.480   5.080   8.146  0.2378  0.5184 -0.6730
  154MOL0     O21122   0.575   5.023   8.231 -0.6804 -0.4349 -0.4530
  154MOL0     C21123   0.603   5.087   8.357  0.0636  0.2986 -0.6748
  154MOL0     C21124   0.723   5.006   8.415 -0.5805 -0.2412  0.0403
  154MOL0     C21125   0.842   5.025   8.317  0.0494  0.0735  0.2075
  154MOL0     C21126   0.969   4.978   8.377  0.9452  0.5910 -0.3923
  154MOL0     C21127   1.092   5.003   8.298 -0.2874  0.3624 -0.2957
  154MOL0     C21128   1.216   4.938   8.365  0.0289  0.5469 -0.5189
  154MOL0     C21129   1.330   4.967   8.269 -0.2237  0.7493 -0.5069
  154MOL0     C21130   1.325   4.858   8.162 -0.0694  0.1645 -0.1919
  154MOL0     N21131   1.424   4.879   8.052  0.0201 -1.2384 -0.6054
  154MOL0     C21132   1.409   4.834   7.921 -0.5754  0.2328 -0.9381
  154MOL0     C21133   1.524   4.872   7.857  0.1972  0.4944  0.3587
  154MOL0     C21134   1.543   4.833   7.716 -0.5416 -0.2621  0.3353
  154MOL0     C21135   1.481   4.937   7.623 -0.3484 -0.0870  0.1534
  154MOL0     C21136   1.504   4.887   7.480  0.2868  0.5381  0.1747
  154MOL0     C21137   1.657   4.898   7.454  0.0947 -0.3451 -0.0295
  154MOL0     O21138   1.677   4.890   7.310  0.0686  0.8201  0.0852
  154MOL0     C21139   1.797   4.931   7.248  0.1403 -0.4657  0.4458
  154MOL0     C21140   1.792   4.976   7.117 -0.6088  0.8420  0.3187
  154MOL0     C21141   1.895   5.047   7.058  0.5365 -0.2879 -0.1373
  154MOL0     C21142   1.859   5.109   6.922  0.3832  0.0520  0.1566
  154MOL0     C21143   2.015   5.070   7.125 -0.2756  0.2574  0.9932
  154MOL0     C21144   2.131   5.148   7.081 -0.1354  0.1626  0.1450
  154MOL0     O21145   2.171   5.146   6.963 -0.4935 -0.3126  0.6411
  154MOL0     C21146   2.293   5.202   6.935  0.9174  0.0677  0.7848
  154MOL0     C21147   2.407   5.126   6.933 -0.2669  0.0606 -0.1299
  154MOL0     C21148   2.534   5.182   6.916 -0.6138 -0.2188  0.0175
  154MOL0     C21149   2.553   5.312   6.888 -0.3720 -0.1114  0.9836
  154MOL0     O21150   2.681   5.354   6.846 -0.4193  0.0306 -0.0259
  154MOL0     C21151   2.688   5.388   6.708 -0.2236 -0.3241  0.1841
  154MOL0     C21152   2.833   5.386   6.677  0.0857 -0.0197 -1.2771
  154MOL0     C21153   2.892   5.244   6.666 -0.0518 -0.0828 -0.1624
  154MOL0     C21154   3.026   5.247   6.601 -0.3293  0.5243  0.4906
  154MOL0     C21155   3.102   5.118   6.603  0.1054 -0.1054  0.3816
  154MOL0     C21156   3.165   5.090   6.740 -0.4729  0.7381 -0.3073
  154MOL0     C21157   3.256   4.970   6.747  0.1989  0.1959  0.1672
  154MOL0     C21158   3.392   4.994   6.697  0.0929 -0.5095 -0.7327
  154MOL0    Cl21159   3.494   5.102   6.792  0.2147  0.3197 -0.3182
  154MOL0     C21160   2.440   5.396   6.886 -0.6028  0.4171  0.5912
  154MOL0     C21161   2.313   5.336   6.903 -0.6990 -0.2279  0.4257
  154MOL0     O21162   2.190   5.212   7.172 -0.2041  1.4398 -0.4971
  154MOL0     C21163   2.020   5.014   7.256 -0.6458  0.2023  0.2914
  154MOL0     C21164   1.919   4.940   7.314 -0.5016  0.6529  0.1929
  154MOL0     N21165   1.607   4.938   7.939  0.2917 -0.9674 -0.2168
  154MOL0     N21166   1.538   4.957   8.057  0.1800  0.1294 -0.8818
  154MOL0     C21167   0.363   5.152   8.187  1.0507  0.2707 -0.5190
  154MOL0     C21168   0.256   5.178   8.093 -0.3127 -0.2978  1.0333
  154MOL0     C21169  -0.022   5.279   7.776 -0.3009  0.1505  0.2367
  154MOL0     C21170  -0.055   5.393   7.703  0.2839 -0.4252  0.4701
  154MOL0     C21171  -0.167   5.398   7.621  0.4833 -0.0686 -0.1176
  154MOL0     C21172  -0.269   5.307   7.636  0.6349 -0.3720  0.2022
  154MOL0     O21173  -0.378   5.333   7.566  0.7558  0.0934  0.6739
  154MOL0     C21174  -0.497   5.264   7.607  0.3503  0.1092  0.4315
  154MOL0     C21175  -0.617   5.347   7.561 -0.2275  0.1315 -0.6831
  154MOL0     C21176  -0.626   5.488   7.630  0.1810  0.5129 -0.0827
  154MOL0     C21177  -0.754   5.562   7.586  0.3205 -0.4687 -0.1895
  154MOL0     C21178  -0.766   5.684   7.662  0.2924  0.8441  1.3513
  154MOL0     C21179  -0.781   5.791   7.717  1.3135 -0.2691 -0.6052
  154MOL0     C21180  -0.237   5.195   7.720  0.1966 -0.6460 -0.0259
  154MOL0     C21181  -0.115   5.175   7.787 -1.0533 -0.6430 -1.1582
  154MOL0     C21182  -0.100   5.057   7.881 -1.0826 -0.1311 -0.8396
  154MOL0     H21183   0.406   5.104   7.805  1.2883 -1.6279 -0.0859
  154MOL0     H21184   0.594   5.037   7.967  0.0056  0.3063  0.0921
  154MOL0     H21185   0.516   5.085   8.424 -0.2244 -0.1523 -1.0542
  154MOL0     H21186   0.622   5.192   8.334  0.4474  0.8878  2.0592
  154MOL0     H21187   0.753   5.047   8.512 -0.4135  1.2130 -0.6007
  154MOL0     H21188   0.691   4.902   8.424  0.2535 -0.5378 -0.3184
  154MOL0     H21189   0.821   4.978   8.220 -0.3948 -0.9461  0.7884
  154MOL0     H21190   0.845   5.131   8.289  0.2605 -0.3437 -1.4861
  154MOL0     H21191   0.981   5.024   8.476  0.8040  0.9623 -0.5454
  154MOL0     H21192   0.960   4.872   8.402 -0.0049  1.2175  2.3532
  154MOL0     H21193   1.108   5.111   8.286 -0.0779  0.2959 -0.6453
  154MOL0     H21194   1.069   4.962   8.200 -0.5379 -1.1692  0.3784
  154MOL0     H21195   1.238   4.986   8.461 -0.9273 -0.0035 -0.0091
  154MOL0     H21196   1.194   4.832   8.380 -0.6551  0.6336 -0.8870
  154MOL0     H21197   1.424   4.963   8.325 -0.3573 -1.9876 -0.3507
  154MOL0     H21198   1.313   5.065   8.224 -2.9498  0.5502 -0.0499
  154MOL0     H21199   1.350   4.763   8.211  2.9339  1.2770  0.6765
  154MOL0     H21200   1.225   4.840   8.122 -1.5366 -1.3815  3.7118
  154MOL0     H21201   1.318   4.795   7.878 -1.9894 -1.2265  2.9441
  154MOL0     H21202   1.502   4.733   7.700  3.0314 -2.0449  1.1905
  154MOL0     H21203   1.651   4.818   7.707 -0.8413 -2.3971 -0.1890
  154MOL0     H21204   1.375   4.953   7.646 -0.3741  3.2496 -1.5975
  154MOL0     H21205   1.536   5.029   7.644  1.9147 -1.2352 -0.4227
  154MOL0     H21206   1.480   4.780   7.476 -2.5215  1.1329 -2.6826
  154MOL0     H21207   1.440   4.937   7.408  0.3212  1.2153  0.6088
  154MOL0     H21208   1.696   4.994   7.488 -0.4782  0.1704 -0.7891
  154MOL0     H21209   1.718   4.819   7.498  0.2112 -0.8570 -1.0659
  154MOL0     H21210   1.696   4.968   7.067 -0.6494 -2.5143  0.7187
  154MOL0     H21211   1.892   5.211   6.900 -1.0008  0.0554 -2.3073
  154MOL0     H21212   1.751   5.110   6.905  0.3356  1.1253  0.4056
  154MOL0     H21213   1.913   5.051   6.848  2.5942  0.3686  1.4403
  154MOL0     H21214   2.396   5.020   6.950 -1.2735  0.2384  0.3847
  154MOL0     H21215   2.620   5.116   6.919  1.0800  1.9305  1.1255
  154MOL0     H21216   2.631   5.329   6.636  0.7439  1.8977 -2.6086
  154MOL0     H21217   2.650   5.489   6.691  2.3769  0.4781 -1.5697
  154MOL0     H21218   2.840   5.440   6.582  2.2958  1.1445 -0.5371
  154MOL0     H21219   2.889   5.447   6.749 -3.1545 -0.9993  2.4106
  154MOL0     H21220   2.820   5.179   6.614  0.1847 -2.6294  2.4616
  154MOL0     H21221   2.903   5.202   6.766  1.0481  3.7753  1.4971
  154MOL0     H21222   3.085   5.329   6.643  0.9470  0.8116 -1.6927
  154MOL0     H21223   3.007   5.273   6.497  1.8750  1.5137  0.2870
  154MOL0     H21224   3.033   5.039   6.570  0.0261  0.4955 -0.9520
  154MOL0     H21225   3.175   5.124   6.522  1.4333  1.3786  1.6126
  154MOL0     H21226   3.089   5.090   6.818 -2.0686  0.3536 -1.8072
  154MOL0     H21227   3.235   5.169   6.768  1.0998 -1.0996  1.2026
  154MOL0     H21228   3.214   4.885   6.692  0.0595 -0.5302  1.3445
  154MOL0     H21229   3.263   4.935   6.851 -3.0586  0.2591  0.5354
  154MOL0     H21230   3.393   5.047   6.601  0.7096  2.5493  0.8423
  154MOL0     H21231   3.431   4.892   6.687 -1.4443 -1.0815 -1.2700
  154MOL0     H21232   2.446   5.503   6.867  0.4251  0.4311  0.9243
  154MOL0     H21233   2.232   5.408   6.896 -1.6330 -1.1652  1.3262
  154MOL0     H21234   2.112   5.026   7.313  0.1398 -1.0905 -0.6424
  154MOL0     H21235   1.936   4.907   7.416  1.5997  3.3816  0.8498
  154MOL0     H21236   0.350   5.174   8.292 -3.0287  2.3126 -1.2780
  154MOL0     H21237   0.157   5.211   8.122 -0.4016  0.0961  0.2993
  154MOL0     H21238   0.020   5.472   7.691  1.3108 -1.6445 -1.9573
  154MOL0     H21239  -0.182   5.486   7.560 -3.3062 -0.7126 -0.3247
  154MOL0     H21240  -0.511   5.168   7.557 -2.2638 -0.4018  1.9553
  154MOL0     H21241  -0.491   5.249   7.715 -0.6879 -0.7641  0.3779
  154MOL0     H21242  -0.714   5.301   7.581 -1.0029  1.9783  0.0670
  154MOL0     H21243  -0.614   5.373   7.455 -2.3461  0.0230 -0.8162
  154MOL0     H21244  -0.641   5.473   7.738 -2.4366  0.6145 -0.3681
  154MOL0     H21245  -0.544   5.557   7.608 -0.6092  1.8262  0.9193
  154MOL0     H21246  -0.841   5.502   7.616 -0.7150  1.9518  2.0517
  154MOL0     H21247  -0.761   5.576   7.477  1.4347 -2.3047 -0.5496
  154MOL0     H21248  -0.800   5.884   7.768  1.0374 -0.0639 -1.0772
  154MOL0     H21249  -0.308   5.113   7.725 -0.9697  0.2820 -0.7570
  154MOL0     H21250  -0.182   4.985   7.879  0.1835 -1.7888  1.5854
  154MOL0     H21251  -0.007   5.004   7.857 -0.8592  0.3904 -1.1519
  154MOL0     H21252  -0.092   5.085   7.986  0.7141 -1.6555 -0.5250
  155MOL0     O21253   7.818   6.852   6.741  0.0795  0.0866  0.0466
  155MOL0     C21254   7.714   6.793   6.744 -0.0468 -0.9093 -0.5704
  155MOL0     O21255   7.704   6.666   6.718 -0.7986  0.1759  0.1335
  155MOL0     C21256   7.823   6.594   6.702 -1.1405  0.8492  0.1772
  155MOL0     C21257   7.846   6.484   6.791 -0.1907 -0.1769 -0.0352
  155MOL0     C21258   7.961   6.395   6.795  0.3399 -0.5237 -0.3654
  155MOL0     C21259   8.064   6.419   6.706  0.0867 -0.8071 -0.3475
  155MOL0     O21260   8.180   6.352   6.733 -0.1045  0.0499 -0.0882
  155MOL0     C21261   8.287   6.386   6.648  0.6779  0.0023  0.6106
  155MOL0     C21262   8.402   6.288   6.664  0.0427 -0.0107 -0.3385
  155MOL0     C21263   8.504   6.289   6.539 -0.6997 -0.6693  0.1730
  155MOL0     C21264   8.618   6.198   6.563 -0.1950 -0.6843 -0.1262
  155MOL0     C21265   8.714   6.174   6.447 -0.5069  0.1010 -0.4712
  155MOL0     C21266   8.809   6.060   6.468  0.1619 -0.1839 -0.3831
  155MOL0     C21267   8.911   6.040   6.353  0.3397 -0.3171  0.4779
  155MOL0     C21268   9.029   5.962   6.405  0.2814 -0.5329  0.6493
  155MOL0     N21269   9.144   5.970   6.306  0.1110 -0.4731 -0.1318
  155MOL0     C21270   9.203   5.855   6.254  0.0527 -0.8851  0.2890
  155MOL0     C21271   9.290   5.903   6.161 -0.5420  0.2175  0.6543
  155MOL0     C21272   9.383   5.819   6.082  0.5450 -0.1315 -0.0600
  155MOL0     C21273   9.445   5.704   6.163  0.1034  0.8519 -0.5831
  155MOL0     C21274   9.523   5.741   6.292 -0.7846  0.0576 -0.0355
  155MOL0     C21275   9.592   5.618   6.348 -0.0338 -0.2407  0.0623
  155MOL0     O21276   9.500   5.515   6.399  0.3795  0.4105 -0.0271
  155MOL0     C21277   9.550   5.388   6.429  0.0955  0.9920  0.1998
  155MOL0     C21278   9.468   5.282   6.443  0.5553 -0.4325  0.5933
  155MOL0     C21279   9.505   5.151   6.464 -0.3690  1.0320 -0.3073
  155MOL0     C21280   9.403   5.041   6.492 -0.6098  0.0991 -0.6249
  155MOL0     C21281   9.645   5.125   6.481  0.4225  0.1826  0.7825
  155MOL0     C21282   9.700   5.000   6.497  0.1320  0.1670  0.2440
  155MOL0     O21283   9.767   4.976   6.607  0.1063 -0.0786 -0.0236
  155MOL0     C21284   9.868   4.886   6.612  0.1191 -0.3019  1.0383
  155MOL0     C21285   9.989   4.935   6.553  0.0663 -0.4316 -0.6460
  155MOL0     C21286  10.103   4.862   6.542  0.0817 -0.6701 -1.2136
  155MOL0     C21287  10.103   4.732   6.588 -0.2862  0.1733  0.7146
  155MOL0     O21288  10.211   4.645   6.570  0.1402 -0.4589 -0.3729
  155MOL0     C21289  10.337   4.709   6.541 -0.3850 -0.2598 -0.2711
  155MOL0     C21290  10.438   4.589   6.548  0.6061 -0.9500 -0.6388
  155MOL0     C21291  10.600   4.616   6.552 -0.8033 -1.2478  0.6298
  155MOL0     C21292  10.645   4.699   6.671  0.2868  0.5183 -0.4298
  155MOL0     C21293  10.797   4.714   6.663 -0.3190 -0.0501  0.2720
  155MOL0     C21294  10.859   4.795   6.769  0.1251 -0.3680 -0.6983
  155MOL0     C21295  11.009   4.813   6.743 -0.4189 -0.0597  0.4424
  155MOL0     C21296  11.065   4.938   6.810 -0.2871 -0.0257  0.1508
  155MOL0    Cl21297  11.243   4.951   6.772  0.2926 -0.3965 -0.2418
  155MOL0     C21298   9.987   4.683   6.653  0.0474  0.3797 -0.8376
  155MOL0     C21299   9.864   4.759   6.658 -0.3326  0.4713  0.1766
  155MOL0     O21300   9.671   4.912   6.422  0.6576 -0.8166  0.6429
  155MOL0     C21301   9.733   5.227   6.470 -0.9516  0.0553 -0.5828
  155MOL0     C21302   9.687   5.351   6.439  0.3197  0.3727  1.0890
  155MOL0     N21303   9.275   6.045   6.150 -0.1265  0.2057  0.0172
  155MOL0     N21304   9.192   6.083   6.237  0.3854  0.0961  0.8047
  155MOL0     C21305   8.043   6.521   6.602  0.4014  0.5193 -0.0786
  155MOL0     C21306   7.921   6.604   6.602  0.3621 -0.2395 -0.0112
  155MOL0     C21307   7.584   6.862   6.749  0.0334 -0.4112  0.8543
  155MOL0     C21308   7.461   6.793   6.730 -0.5265 -0.3890 -0.1729
  155MOL0     C21309   7.341   6.853   6.741 -0.0322 -0.2246  1.0668
  155MOL0     C21310   7.327   6.992   6.757 -0.4764  0.5583  0.3028
  155MOL0     O21311   7.211   7.068   6.755  0.3684  0.6108 -0.0785
  155MOL0     C21312   7.088   7.008   6.790  0.7993 -0.1225 -1.0777
  155MOL0     C21313   6.985   7.126   6.778 -0.2827 -0.9354  0.0607
  155MOL0     C21314   6.835   7.074   6.789 -0.3733  0.9567 -0.9674
  155MOL0     C21315   6.716   7.176   6.773 -0.3792 -0.2538  0.2938
  155MOL0     C21316   6.608   7.144   6.865  0.2263  0.0162 -0.0938
  155MOL0     C21317   6.525   7.120   6.949  0.6089 -0.6742  0.5414
  155MOL0     C21318   7.444   7.064   6.769 -0.0270 -0.7164 -0.1034
  155MOL0     C21319   7.574   7.001   6.780  1.0656  0.5172 -0.5762
  155MOL0     C21320   7.681   7.078   6.849  0.1902 -0.5891  0.9237
  155MOL0     H21321   7.761   6.458   6.854  0.0274 -1.3474 -0.1944
  155MOL0     H21322   7.974   6.313   6.864 -0.4811  0.7810  1.4070
  155MOL0     H21323   8.327   6.485   6.674  1.0042 -0.2408  1.0565
  155MOL0     H21324   8.239   6.376   6.551 -0.1712 -0.8110  1.0992
  155MOL0     H21325   8.461   6.314   6.753 -0.2137 -0.8344  0.0860
  155MOL0     H21326   8.362   6.188   6.678  2.7415 -1.1210  0.1639
  155MOL0     H21327   8.454   6.242   6.454 -2.5213  0.8518  0.3286
  155MOL0     H21328   8.537   6.389   6.511  0.0937 -0.4002  1.9546
  155MOL0     H21329   8.673   6.259   6.635 -1.7446 -0.0961  0.6089
  155MOL0     H21330   8.589   6.105   6.614 -1.9427 -0.5363 -0.7808
  155MOL0     H21331   8.771   6.267   6.436 -0.0632 -0.1471 -0.2821
  155MOL0     H21332   8.651   6.160   6.359  0.8809  1.1634 -1.6999
  155MOL0     H21333   8.867   6.079   6.558  0.9191  0.7287 -1.0448
  155MOL0     H21334   8.753   5.968   6.487  0.0542  0.0206  0.2978
  155MOL0     H21335   8.945   6.140   6.322 -1.0353 -0.4767 -1.6802
  155MOL0     H21336   8.871   6.005   6.258  2.2798  2.0108 -1.3496
  155MOL0     H21337   9.068   5.988   6.504 -1.2612  0.5022  1.0212
  155MOL0     H21338   8.992   5.859   6.413 -0.6798 -0.2516 -0.0464
  155MOL0     H21339   9.180   5.751   6.275  0.8228 -0.6414  2.5469
  155MOL0     H21340   9.461   5.874   6.029  1.7035 -1.4728  0.2025
  155MOL0     H21341   9.322   5.777   6.002  0.0278  0.3300  0.0855
  155MOL0     H21342   9.364   5.639   6.199 -0.4731  1.1306 -1.3392
  155MOL0     H21343   9.502   5.635   6.099 -0.0038  0.5175 -0.3199
  155MOL0     H21344   9.603   5.812   6.268  0.2734 -1.4236 -1.0176
  155MOL0     H21345   9.454   5.790   6.362 -1.2963 -0.7825  0.0548
  155MOL0     H21346   9.648   5.584   6.261  2.0997 -3.4377  2.4417
  155MOL0     H21347   9.660   5.646   6.428  0.0905  2.0530 -0.7891
  155MOL0     H21348   9.362   5.297   6.424  0.7317  1.6269  1.0182
  155MOL0     H21349   9.404   5.016   6.598 -1.0522  0.8252 -0.4350
  155MOL0     H21350   9.426   4.952   6.433  0.2102  0.9823 -1.6704
  155MOL0     H21351   9.296   5.065   6.483 -1.4412 -2.5072  1.2676
  155MOL0     H21352   9.983   5.036   6.512 -2.6536 -0.1707  0.1567
  155MOL0     H21353  10.194   4.902   6.497  0.5794 -0.0379  0.2895
  155MOL0     H21354  10.338   4.754   6.441 -2.1814  0.2618 -0.0739
  155MOL0     H21355  10.356   4.789   6.612 -3.8681 -0.3803  0.9803
  155MOL0     H21356  10.417   4.528   6.636  0.1903 -0.3857 -0.3431
  155MOL0     H21357  10.419   4.521   6.464  1.3269 -0.9187 -0.8355
  155MOL0     H21358  10.622   4.669   6.459 -0.7251  0.3115  1.5025
  155MOL0     H21359  10.659   4.524   6.548  0.6267 -0.4960 -5.4527
  155MOL0     H21360  10.619   4.645   6.763 -0.6157 -0.1049 -1.0318
  155MOL0     H21361  10.593   4.796   6.665 -1.4515 -0.3853 -0.5679
  155MOL0     H21362  10.846   4.616   6.649  3.4170  1.9392 -2.6536
  155MOL0     H21363  10.810   4.771   6.571 -4.7510 -2.3611 -2.1393
  155MOL0     H21364  10.847   4.746   6.865 -0.9380  0.9462 -0.1237
  155MOL0     H21365  10.809   4.893   6.773 -1.1419 -1.0347  0.7785
  155MOL0     H21366  11.015   4.835   6.636  0.1458  0.9309  0.6689
  155MOL0     H21367  11.063   4.721   6.768 -2.6262 -0.9935  2.0568
  155MOL0     H21368  11.053   4.923   6.918  2.7989  1.0206  0.7383
  155MOL0     H21369  11.011   5.030   6.785  1.5689  0.8910 -0.6679
  155MOL0     H21370   9.992   4.579   6.684 -2.0164  0.4221 -0.2471
  155MOL0     H21371   9.777   4.712   6.703 -0.4588  0.8402  0.3212
  155MOL0     H21372   9.839   5.210   6.478 -0.9027  0.8525  0.8825
  155MOL0     H21373   9.762   5.429   6.430  0.1983  0.3523 -0.2964
  155MOL0     H21374   8.113   6.546   6.523 -0.2304  1.5380 -0.3457
  155MOL0     H21375   7.920   6.683   6.528  0.8801 -0.6346 -0.4454
  155MOL0     H21376   7.472   6.685   6.722  3.1386 -0.2079  0.7084
  155MOL0     H21377   7.257   6.794   6.706  2.3339 -1.5971 -2.9412
  155MOL0     H21378   7.056   6.929   6.721  0.8659 -0.4903 -0.6862
  155MOL0     H21379   7.079   6.975   6.893 -3.6040  1.9628 -0.5563
  155MOL0     H21380   6.979   7.173   6.679 -1.1602 -0.4287  0.3499
  155MOL0     H21381   7.000   7.207   6.850  1.0819 -0.7057 -0.4420
  155MOL0     H21382   6.813   6.994   6.718  0.3676 -0.4071  0.2606
  155MOL0     H21383   6.828   7.031   6.889 -0.1833 -0.0720 -1.3843
  155MOL0     H21384   6.684   7.168   6.669 -0.1619  0.1913  0.1936
  155MOL0     H21385   6.748   7.275   6.805  1.1811 -0.2387 -1.1890
  155MOL0     H21386   6.445   7.092   7.015  2.7191 -0.2436  3.4832
  155MOL0     H21387   7.427   7.168   6.794 -0.3554 -0.6931 -0.4217
  155MOL0     H21388   7.733   7.015   6.923  1.9210  0.6435  0.8040
  155MOL0     H21389   7.751   7.106   6.769 -3.4074  1.0077 -1.9457
  155MOL0     H21390   7.635   7.169   6.886 -2.2599 -0.7778 -1.3382
  156MOL0     O21391   0.258   9.501   8.870 -0.9473  0.1056  0.6285
  156MOL0     C21392   0.204   9.437   8.954  0.4134 -0.3726 -0.2424
  156MOL0     O21393   0.267   9.339   9.033 -0.4196  0.1338 -0.1139
  156MOL0     C21394   0.388   9.281   8.995  0.4927 -0.0848 -0.3127
  156MOL0     C21395   0.410   9.236   8.859  0.1309  0.8979 -0.0078
  156MOL0     C21396   0.520   9.148   8.838 -0.1887 -0.1956  0.0381
  156MOL0     C21397   0.594   9.102   8.951 -0.4903 -1.1559 -0.1098
  156MOL0     O21398   0.686   9.004   8.949  0.4390  0.0165 -0.6246
  156MOL0     C21399   0.753   8.970   8.828 -0.4597 -0.2956  0.8491
  156MOL0     C21400   0.825   8.837   8.829  0.2930 -0.5147 -0.1563
  156MOL0     C21401   0.930   8.823   8.717  0.0750 -0.4634 -0.1053
  156MOL0     C21402   1.070   8.875   8.739 -0.4436 -0.9529 -0.5757
  156MOL0     C21403   1.158   8.831   8.626 -0.0693  0.9162  0.2473
  156MOL0     C21404   1.303   8.847   8.678 -0.0265 -0.0190  0.2566
  156MOL0     C21405   1.407   8.885   8.574  0.3199 -0.1094  0.4750
  156MOL0     C21406   1.534   8.921   8.639  0.2640  0.0937  0.0078
  156MOL0     N21407   1.640   8.953   8.544  0.6076 -1.3958  0.3856
  156MOL0     C21408   1.686   9.085   8.539  0.2119 -0.3155  0.3386
  156MOL0     C21409   1.807   9.078   8.476  0.2759 -0.1542  0.5171
  156MOL0     C21410   1.898   9.196   8.449  0.3448  0.2175  0.1026
  156MOL0     C21411   1.820   9.307   8.378  0.2220  0.1074 -0.3306
  156MOL0     C21412   1.905   9.429   8.333  0.1234 -0.2378  0.5003
  156MOL0     C21413   1.985   9.495   8.443 -0.5634 -0.5537 -0.3895
  156MOL0     O21414   2.103   9.426   8.481 -0.1360 -0.0734  0.4616
  156MOL0     C21415   2.209   9.428   8.399 -0.0926 -0.3567 -0.9475
  156MOL0     C21416   2.310   9.345   8.445  0.2184 -0.5094 -0.2657
  156MOL0     C21417   2.411   9.314   8.364  0.6847  0.9422  0.3352
  156MOL0     C21418   2.525   9.242   8.420  0.2015 -0.3228  0.1479
  156MOL0     C21419   2.423   9.377   8.235 -0.4291  0.9023 -0.4221
  156MOL0     C21420   2.535   9.359   8.137 -0.0506 -0.3041 -0.5123
  156MOL0     O21421   2.621   9.253   8.144  0.2233 -0.3207  0.1209
  156MOL0     C21422   2.727   9.238   8.064 -0.8642 -0.0416  0.3110
  156MOL0     C21423   2.826   9.154   8.120  0.1783 -0.6818 -1.4204
  156MOL0     C21424   2.937   9.124   8.047  0.3552 -0.0871 -0.7975
  156MOL0     C21425   2.963   9.180   7.920  0.5417  0.1656  0.0750
  156MOL0     O21426   3.087   9.151   7.858  0.1224 -0.3393  0.0437
  156MOL0     C21427   3.120   9.224   7.737 -0.5334 -0.1178  0.1610
  156MOL0     C21428   3.265   9.225   7.708 -0.3402  0.0199  0.2756
  156MOL0     C21429   3.329   9.077   7.701 -0.5578 -0.3772 -0.1928
  156MOL0     C21430   3.485   9.090   7.700 -0.0212 -0.3819 -0.7792
  156MOL0     C21431   3.551   9.128   7.837  0.6803  0.4007 -0.9784
  156MOL0     C21432   3.710   9.129   7.829 -0.3900 -1.3501  0.3442
  156MOL0     C21433   3.764   9.001   7.763  0.2120  0.1291 -0.3011
  156MOL0     C21434   3.906   8.987   7.797 -0.5598 -0.2252 -0.3578
  156MOL0    Cl21435   3.968   8.832   7.725  0.4093 -0.3013  0.1268
  156MOL0     C21436   2.867   9.260   7.863 -0.1363  0.1695  0.1458
  156MOL0     C21437   2.744   9.283   7.928 -0.6433 -0.3791 -0.2288
  156MOL0     O21438   2.559   9.462   8.067  0.0607  0.5383  0.3320
  156MOL0     C21439   2.325   9.467   8.197  0.4043 -0.1277  0.4094
  156MOL0     C21440   2.218   9.492   8.276 -0.4465 -0.6766  0.0753
  156MOL0     N21441   1.830   8.944   8.451  0.3373  0.2930  0.3094
  156MOL0     N21442   1.737   8.869   8.501 -0.1753 -1.0699  0.4737
  156MOL0     C21443   0.562   9.140   9.077  0.3464 -0.1024  0.3903
  156MOL0     C21444   0.466   9.231   9.101 -0.5902  0.1065 -0.9162
  156MOL0     C21445   0.063   9.457   8.988 -0.5415 -0.0830  0.2897
  156MOL0     C21446  -0.000   9.373   9.073 -0.1486  0.2456  0.2940
  156MOL0     C21447  -0.139   9.374   9.099  0.0620  0.1263  0.1729
  156MOL0     C21448  -0.215   9.462   9.026  0.6219 -0.6966  0.8987
  156MOL0     O21449  -0.355   9.448   9.037 -0.6511 -0.3363  0.4803
  156MOL0     C21450  -0.443   9.509   8.942  0.1821  0.8614  0.1964
  156MOL0     C21451  -0.581   9.463   8.981  0.3976 -0.0286  0.2124
  156MOL0     C21452  -0.696   9.527   8.896 -0.3770 -0.3730 -0.2450
  156MOL0     C21453  -0.838   9.483   8.938 -0.9669  0.7207  0.4548
  156MOL0     C21454  -0.868   9.343   8.914  0.1079  0.2580 -0.1473
  156MOL0     C21455  -0.914   9.228   8.909  0.1970  0.5554 -0.8011
  156MOL0     C21456  -0.152   9.559   8.942 -0.0526  0.7374  0.1383
  156MOL0     C21457  -0.017   9.561   8.927  0.9737 -0.2598  0.4828
  156MOL0     C21458   0.046   9.675   8.845  0.1421  0.1795 -0.5171
  156MOL0     H21459   0.343   9.259   8.777 -1.5491 -1.6619  0.5178
  156MOL0     H21460   0.538   9.122   8.735 -0.2169  0.2490 -0.0796
  156MOL0     H21461   0.825   9.045   8.796 -2.2976  0.4232 -1.9059
  156MOL0     H21462   0.681   8.965   8.746 -1.7404 -0.1251  1.9117
  156MOL0     H21463   0.870   8.837   8.929 -1.2695 -1.0999  0.5663
  156MOL0     H21464   0.752   8.756   8.827 -0.0175 -0.3322  2.0218
  156MOL0     H21465   0.932   8.716   8.693 -0.8145 -0.4500 -0.2505
  156MOL0     H21466   0.892   8.882   8.633  0.4408  1.4156  1.0054
  156MOL0     H21467   1.071   8.984   8.744  0.3131 -1.0192  2.5110
  156MOL0     H21468   1.109   8.835   8.833 -0.6758  1.3699  0.5872
  156MOL0     H21469   1.146   8.896   8.538 -0.6300  1.6008  0.8160
  156MOL0     H21470   1.143   8.728   8.593  0.7183  1.4722 -2.0402
  156MOL0     H21471   1.298   8.933   8.746 -1.0298  0.6366 -0.6078
  156MOL0     H21472   1.333   8.764   8.742  1.7918 -0.0603 -0.5929
  156MOL0     H21473   1.360   8.961   8.511 -1.6672 -1.7232 -0.1218
  156MOL0     H21474   1.420   8.793   8.516 -2.8843  0.4401 -1.3462
  156MOL0     H21475   1.501   9.003   8.704  1.4977 -2.4963  4.2853
  156MOL0     H21476   1.573   8.846   8.709  0.6942  1.4943  1.3311
  156MOL0     H21477   1.630   9.177   8.554 -1.6560 -1.3169 -0.2160
  156MOL0     H21478   1.972   9.161   8.376 -0.3508  0.6732 -0.8471
  156MOL0     H21479   1.943   9.241   8.538  3.0891  0.1056 -1.1283
  156MOL0     H21480   1.769   9.256   8.296  0.0310 -1.7913  0.9161
  156MOL0     H21481   1.742   9.345   8.445 -1.9190 -2.7898 -0.9973
  156MOL0     H21482   1.962   9.398   8.245 -0.1820  0.6571 -0.0182
  156MOL0     H21483   1.841   9.506   8.290  1.8338  1.1429  0.3306
  156MOL0     H21484   2.014   9.592   8.404  2.7799 -1.5042 -0.5617
  156MOL0     H21485   1.925   9.530   8.528 -0.6662  3.5594 -1.9587
  156MOL0     H21486   2.303   9.300   8.543  0.4533  1.3952  0.6676
  156MOL0     H21487   2.524   9.241   8.529 -0.1854 -1.4935  0.1473
  156MOL0     H21488   2.617   9.300   8.408 -0.7700  2.0926  3.0412
  156MOL0     H21489   2.533   9.138   8.388 -1.7220 -1.0547  1.8318
  156MOL0     H21490   2.816   9.111   8.219  2.1795  0.9319 -0.4318
  156MOL0     H21491   3.011   9.055   8.087 -0.8434 -1.9908 -1.6886
  156MOL0     H21492   3.076   9.179   7.647 -0.5140  1.6774 -0.7930
  156MOL0     H21493   3.102   9.332   7.747  1.4825  0.0876  2.1402
  156MOL0     H21494   3.273   9.284   7.617 -4.8787 -0.0355 -0.4115
  156MOL0     H21495   3.319   9.282   7.784 -1.8251  0.8981  0.7268
  156MOL0     H21496   3.304   9.030   7.606 -3.4537  1.7756 -0.6652
  156MOL0     H21497   3.302   9.022   7.792 -1.6785  0.4682  0.0166
  156MOL0     H21498   3.496   9.185   7.646 -0.1086 -0.3928 -0.8178
  156MOL0     H21499   3.533   9.000   7.660 -1.2298 -0.8592 -1.1732
  156MOL0     H21500   3.513   9.229   7.856 -1.3737 -0.0516 -2.3399
  156MOL0     H21501   3.516   9.068   7.921 -1.3412  2.4498 -0.2589
  156MOL0     H21502   3.765   9.141   7.923 -1.7163 -2.7217  1.3451
  156MOL0     H21503   3.743   9.217   7.771  0.0262 -1.6982  0.0444
  156MOL0     H21504   3.743   8.992   7.656 -1.7737  2.2571 -0.1663
  156MOL0     H21505   3.710   8.915   7.804  0.1934  0.1090 -0.3698
  156MOL0     H21506   3.918   8.985   7.906  0.4480  0.3936 -0.4448
  156MOL0     H21507   3.971   9.064   7.755  0.5157 -0.9354 -0.0699
  156MOL0     H21508   2.891   9.298   7.765  2.5159 -0.1061  0.6184
  156MOL0     H21509   2.674   9.348   7.878  0.0366  1.9569  1.6535
  156MOL0     H21510   2.336   9.527   8.107 -0.8815  0.8505  0.8763
  156MOL0     H21511   2.148   9.567   8.242  1.5100  1.0574 -0.3552
  156MOL0     H21512   0.615   9.103   9.164 -0.7357 -0.4478  0.9217
  156MOL0     H21513   0.446   9.265   9.202  0.6758  0.3137 -0.7076
  156MOL0     H21514   0.048   9.290   9.123  0.1218 -2.1889 -3.5867
  156MOL0     H21515  -0.194   9.302   9.159 -1.4018  2.0533  1.2315
  156MOL0     H21516  -0.444   9.618   8.956 -1.2175  0.5249  3.8236
  156MOL0     H21517  -0.408   9.489   8.841 -0.0851  0.1332  0.2438
  156MOL0     H21518  -0.597   9.485   9.087 -1.8749  0.7404 -0.2170
  156MOL0     H21519  -0.587   9.357   8.959  0.8988 -0.0508  0.1761
  156MOL0     H21520  -0.699   9.634   8.917 -0.8020 -0.5601  0.7173
  156MOL0     H21521  -0.678   9.530   8.788  0.5899  2.2087 -0.0864
  156MOL0     H21522  -0.901   9.545   8.873 -0.1685 -0.3513 -1.4191
  156MOL0     H21523  -0.845   9.502   9.045  2.4852  2.2263  0.5117
  156MOL0     H21524  -0.951   9.128   8.924 -2.1195  1.7790  2.7994
  156MOL0     H21525  -0.210   9.632   8.886 -1.9231 -1.2763 -0.7454
  156MOL0     H21526   0.080   9.645   8.745 -0.4266 -2.3710 -0.0388
  156MOL0     H21527  -0.034   9.746   8.824 -0.0585  0.3741  0.8298
  156MOL0     H21528   0.122   9.727   8.903  0.2182  0.7325 -1.1004
  157MOL0     O21529   9.916   4.143   6.531 -0.0164 -0.2285  0.6745
  157MOL0     C21530   9.878   4.247   6.469 -0.2300 -0.3722  0.5050
  157MOL0     O21531   9.957   4.300   6.375  0.1143 -0.1472 -0.1218
  157MOL0     C21532  10.075   4.247   6.329  0.0390 -0.0721 -0.5837
  157MOL0     C21533  10.191   4.320   6.351 -0.4939 -0.6255 -0.2635
  157MOL0     C21534  10.311   4.268   6.303  0.1454 -0.1407 -0.0014
  157MOL0     C21535  10.314   4.147   6.229 -0.4540  0.7159 -0.0614
  157MOL0     O21536  10.424   4.107   6.155  0.2507  0.6748  0.1091
  157MOL0     C21537  10.475   3.973   6.169 -0.3801 -0.2632  0.4175
  157MOL0     C21538  10.440   3.895   6.047  0.9639  0.2356  0.1110
  157MOL0     C21539  10.511   3.757   6.049  0.6718  0.1929 -0.2358
  157MOL0     C21540  10.521   3.692   5.914 -1.0119  0.5410  0.2003
  157MOL0     C21541  10.622   3.571   5.920 -0.2482  0.4826 -0.1372
  157MOL0     C21542  10.638   3.492   5.781  1.2399  0.5734 -0.2109
  157MOL0     C21543  10.778   3.427   5.787 -0.6208 -0.5758 -0.4009
  157MOL0     C21544  10.821   3.358   5.652  0.0313 -0.1808 -0.1058
  157MOL0     N21545  10.963   3.333   5.626  0.1016 -0.2723  0.0533
  157MOL0     C21546  11.045   3.433   5.575 -0.2446 -0.2541 -0.4707
  157MOL0     C21547  11.165   3.369   5.558  0.3019 -0.0024 -0.3639
  157MOL0     C21548  11.282   3.431   5.502 -0.0198 -0.6032  1.2125
  157MOL0     C21549  11.393   3.413   5.611  0.1511 -0.2810  0.1745
  157MOL0     C21550  11.516   3.495   5.572 -0.2881 -0.3844  0.1300
  157MOL0     C21551  11.619   3.458   5.674 -0.7850  0.1218  0.2149
  157MOL0     O21552  11.662   3.322   5.653  0.2011 -0.3816 -0.0789
  157MOL0     C21553  11.799   3.311   5.668  0.4577 -0.0236 -0.4762
  157MOL0     C21554  11.864   3.383   5.773  0.2124 -1.2184  0.9854
  157MOL0     C21555  11.999   3.364   5.783 -0.2953 -1.1564 -0.3842
  157MOL0     C21556  12.078   3.471   5.870 -0.1469 -0.0793  0.7145
  157MOL0     C21557  12.072   3.274   5.702 -0.2067  0.3219  0.4383
  157MOL0     C21558  12.224   3.253   5.714  0.8558  0.9153  0.6401
  157MOL0     O21559  12.276   3.284   5.830  0.1717 -0.3347 -0.0883
  157MOL0     C21560  12.408   3.271   5.871  0.4420  0.1052 -0.2313
  157MOL0     C21561  12.518   3.224   5.792  1.1738 -0.9411 -0.6639
  157MOL0     C21562  12.645   3.202   5.849  0.4468  0.4776 -0.3681
  157MOL0     C21563  12.669   3.237   5.980  0.4613 -0.0257  0.2980
  157MOL0     O21564  12.802   3.220   6.017  0.3171 -0.0792 -0.2821
  157MOL0     C21565  12.827   3.175   6.149 -0.2545  0.1238 -0.5348
  157MOL0     C21566  12.958   3.115   6.141  0.1080  0.0167  0.2254
  157MOL0     C21567  13.019   3.109   6.275  0.3879 -0.3281  0.5487
  157MOL0     C21568  13.161   3.054   6.271 -0.1714 -0.1500  0.4765
  157MOL0     C21569  13.230   3.089   6.400 -0.0072  0.1734  0.6689
  157MOL0     C21570  13.378   3.069   6.384 -0.2556 -0.7176 -0.5676
  157MOL0     C21571  13.456   3.102   6.510  0.4708 -0.2328  0.1492
  157MOL0     C21572  13.452   3.257   6.546  0.0351 -0.1314 -0.4428
  157MOL0    Cl21573  13.552   3.281   6.695 -0.0582  0.2985 -0.4534
  157MOL0     C21574  12.566   3.308   6.046 -0.3648 -0.0159  0.0213
  157MOL0     C21575  12.441   3.313   5.995  0.0111 -0.1304  0.3228
  157MOL0     O21576  12.281   3.208   5.615  0.4214 -0.2942  0.4192
  157MOL0     C21577  12.003   3.196   5.602  0.0386 -0.0293  0.0654
  157MOL0     C21578  11.863   3.213   5.593 -0.4994  0.7202  0.2781
  157MOL0     N21579  11.156   3.231   5.594  1.0363 -0.1151  0.6976
  157MOL0     N21580  11.037   3.217   5.639 -0.2521  0.7117 -0.7413
  157MOL0     C21581  10.200   4.066   6.240 -0.7257  0.1682  0.2551
  157MOL0     C21582  10.086   4.117   6.293  0.5115 -1.1953  0.2695
  157MOL0     C21583   9.762   4.328   6.524  0.3384  0.7503  0.4263
  157MOL0     C21584   9.755   4.465   6.493  0.2674  0.3067  0.4690
  157MOL0     C21585   9.642   4.533   6.523  0.7897  0.3126  0.2623
  157MOL0     C21586   9.548   4.484   6.608 -0.0741  0.1327  0.2443
  157MOL0     O21587   9.427   4.543   6.640  0.5430 -0.6961  0.2396
  157MOL0     C21588   9.390   4.671   6.581 -0.2814  0.3284  0.3145
  157MOL0     C21589   9.299   4.754   6.683  0.1172 -0.3908  0.5741
  157MOL0     C21590   9.372   4.787   6.812  0.4424  0.3994 -1.2457
  157MOL0     C21591   9.288   4.877   6.909  0.0985  0.4217  0.6525
  157MOL0     C21592   9.265   5.005   6.845  0.1972 -0.1767 -0.3611
  157MOL0     C21593   9.263   5.115   6.795  0.0443 -0.3303  0.9283
  157MOL0     C21594   9.563   4.350   6.654  0.2735  0.0606  0.1081
  157MOL0     C21595   9.660   4.266   6.607  0.3337 -0.6264 -0.2453
  157MOL0     C21596   9.658   4.118   6.656 -0.4004 -0.1683 -0.2467
  157MOL0     H21597  10.193   4.418   6.398  1.1760 -0.6409 -0.2661
  157MOL0     H21598  10.397   4.330   6.328 -1.5738  2.5841 -0.4258
  157MOL0     H21599  10.437   3.924   6.259  2.1415  1.8777  2.8683
  157MOL0     H21600  10.582   3.976   6.191 -0.4751 -3.6247  1.9072
  157MOL0     H21601  10.333   3.880   6.034  1.1284  0.1721 -1.3391
  157MOL0     H21602  10.472   3.949   5.957  1.3953 -0.8241 -0.3978
  157MOL0     H21603  10.610   3.761   6.095 -0.3449 -2.0553  2.4040
  157MOL0     H21604  10.447   3.700   6.116  0.6462 -0.8299 -1.0998
  157MOL0     H21605  10.420   3.665   5.884  0.0489 -0.0310 -3.3026
  157MOL0     H21606  10.559   3.764   5.841  0.7793 -0.8779 -0.3488
  157MOL0     H21607  10.593   3.501   5.999  0.9424  2.0401  1.7713
  157MOL0     H21608  10.724   3.605   5.942  0.4429 -1.3966 -0.2368
  157MOL0     H21609  10.558   3.418   5.775  0.5822  1.2977 -0.5963
  157MOL0     H21610  10.636   3.552   5.689 -0.6302  1.7213  0.5197
  157MOL0     H21611  10.791   3.356   5.869 -0.8880  0.8406  0.9128
  157MOL0     H21612  10.849   3.503   5.818 -1.4119 -0.5514  1.4775
  157MOL0     H21613  10.763   3.267   5.633  1.7911 -0.6828 -4.0740
  157MOL0     H21614  10.793   3.425   5.569 -1.3902 -2.1586 -1.3138
  157MOL0     H21615  11.027   3.539   5.568  1.5242  0.2757  1.7173
  157MOL0     H21616  11.269   3.538   5.486  4.7345 -0.2021 -1.9176
  157MOL0     H21617  11.301   3.379   5.408 -1.3203  0.7446  0.1570
  157MOL0     H21618  11.364   3.447   5.711 -1.7527  0.7250 -0.6590
  157MOL0     H21619  11.414   3.306   5.626 -2.1281 -0.6276  1.5451
  157MOL0     H21620  11.553   3.466   5.473 -0.1821 -1.5022  0.4872
  157MOL0     H21621  11.496   3.602   5.575  0.0650 -0.3121  3.4771
  157MOL0     H21622  11.693   3.539   5.666  0.2374 -0.8654 -0.6327
  157MOL0     H21623  11.577   3.464   5.774 -0.3707  1.6257  0.3238
  157MOL0     H21624  11.811   3.441   5.847 -0.3391  0.5377 -0.7094
  157MOL0     H21625  12.156   3.513   5.806  0.3000 -1.7014  0.1380
  157MOL0     H21626  12.115   3.413   5.955  0.2353  0.7106  1.0919
  157MOL0     H21627  12.007   3.545   5.909 -1.4881 -0.7856 -0.2676
  157MOL0     H21628  12.503   3.196   5.689 -0.9054 -1.0124 -0.3850
  157MOL0     H21629  12.713   3.141   5.790 -0.4768 -3.0581  1.9130
  157MOL0     H21630  12.819   3.250   6.228 -0.4155  0.1222 -0.5508
  157MOL0     H21631  12.754   3.097   6.173  0.2799 -0.5360 -1.0202
  157MOL0     H21632  12.936   3.013   6.110  1.4017  0.3254 -1.8356
  157MOL0     H21633  13.027   3.159   6.070  1.0419 -3.4705 -1.2404
  157MOL0     H21634  12.973   3.029   6.334 -0.9762  0.5201  0.6729
  157MOL0     H21635  13.006   3.202   6.332  1.2406  2.7445 -3.7570
  157MOL0     H21636  13.218   3.085   6.183  0.2848 -1.5116  0.2836
  157MOL0     H21637  13.149   2.947   6.256  1.7075 -0.3432  0.1393
  157MOL0     H21638  13.204   3.194   6.420 -2.1767  0.3413 -2.3493
  157MOL0     H21639  13.186   3.026   6.478 -2.2213  3.0800  1.9383
  157MOL0     H21640  13.415   3.143   6.312 -0.2014 -0.4096 -0.2257
  157MOL0     H21641  13.401   2.967   6.351 -0.8229 -0.9843 -0.1291
  157MOL0     H21642  13.559   3.069   6.496  0.3917 -0.6056  0.4261
  157MOL0     H21643  13.416   3.048   6.597  0.0339 -1.9627 -1.0524
  157MOL0     H21644  13.350   3.288   6.573  0.8743  0.6397  2.2360
  157MOL0     H21645  13.495   3.319   6.466  1.8422 -0.1196  0.4820
  157MOL0     H21646  12.589   3.331   6.150 -1.3313 -2.5225  0.8846
  157MOL0     H21647  12.364   3.361   6.055  0.8721  0.5953  0.8839
  157MOL0     H21648  12.051   3.142   5.521  2.4301 -1.5093  2.3212
  157MOL0     H21649  11.805   3.151   5.525 -1.5689 -1.4767  2.9586
  157MOL0     H21650  10.198   3.961   6.212 -2.2964 -1.0413  4.1857
  157MOL0     H21651  10.006   4.044   6.287  0.1984 -1.1038  2.5625
  157MOL0     H21652   9.832   4.511   6.432  0.4383 -1.1297 -0.4578
  157MOL0     H21653   9.635   4.634   6.485 -0.1964 -0.1794 -0.9022
  157MOL0     H21654   9.478   4.730   6.554 -1.4962  1.3921 -1.5790
  157MOL0     H21655   9.324   4.648   6.496 -0.2206 -1.1196  0.6286
  157MOL0     H21656   9.221   4.689   6.723 -0.0879 -0.2880  0.3455
  157MOL0     H21657   9.259   4.844   6.635  0.9295  0.5291  1.5890
  157MOL0     H21658   9.396   4.700   6.874  1.3910  0.8668 -0.9249
  157MOL0     H21659   9.471   4.832   6.795  1.6838 -0.7183  2.0960
  157MOL0     H21660   9.346   4.901   6.999 -0.3003  1.5555  0.6242
  157MOL0     H21661   9.198   4.825   6.943 -1.0817  1.0773 -1.3193
  157MOL0     H21662   9.261   5.210   6.746 -0.7404 -1.2426 -0.9114
  157MOL0     H21663   9.483   4.304   6.711 -1.2609  0.4544 -1.6190
  157MOL0     H21664   9.561   4.089   6.698 -0.4341 -3.0901 -2.0219
  157MOL0     H21665   9.681   4.055   6.569 -2.7203  0.0349 -1.0611
  157MOL0     H21666   9.738   4.091   6.726  0.4969  0.6437 -0.9183
  158MOL0     O21667   2.839   7.802   6.720 -0.7093 -0.0645 -0.6596
  158MOL0     C21668   2.805   7.746   6.826  0.1967  0.0258  1.0026
  158MOL0     O21669   2.870   7.758   6.950  0.1522  0.8262 -0.8901
  158MOL0     C21670   2.940   7.872   6.963 -0.5507  0.0530 -0.7489
  158MOL0     C21671   3.083   7.873   6.943  0.0285  0.2470 -0.3361
  158MOL0     C21672   3.155   7.981   6.971 -0.8246 -0.4939 -0.4106
  158MOL0     C21673   3.101   8.107   6.986 -0.3348  0.3516 -0.0549
  158MOL0     O21674   3.183   8.217   6.968  0.4845  1.1786  0.4051
  158MOL0     C21675   3.137   8.338   6.916 -0.1135 -0.4789 -0.4784
  158MOL0     C21676   3.260   8.425   6.895  0.6889  0.1793 -0.3768
  158MOL0     C21677   3.324   8.482   7.029 -0.2005  0.4300 -0.1270
  158MOL0     C21678   3.443   8.568   7.000 -0.2185  0.1484  0.6486
  158MOL0     C21679   3.510   8.612   7.132  0.3301  0.1032  0.0769
  158MOL0     C21680   3.616   8.716   7.093  0.2519 -0.3591 -0.1378
  158MOL0     C21681   3.557   8.854   7.074  0.4360  0.1288  0.1315
  158MOL0     C21682   3.666   8.954   7.036  0.7160  0.0007  0.0714
  158MOL0     N21683   3.693   9.042   7.147 -0.0774 -0.2000  0.4430
  158MOL0     C21684   3.753   9.011   7.268 -0.9864 -0.7024  0.1332
  158MOL0     C21685   3.782   9.137   7.316 -0.9080  0.2578  0.0262
  158MOL0     C21686   3.866   9.162   7.438 -0.7081 -0.3076 -0.1867
  158MOL0     C21687   3.948   9.293   7.443 -0.8641  0.4136  0.0618
  158MOL0     C21688   4.009   9.330   7.583  0.5765 -0.4985  0.6682
  158MOL0     C21689   4.117   9.440   7.583  0.6768 -0.1710 -0.3503
  158MOL0     O21690   4.214   9.390   7.485  0.0777 -0.0410 -0.1210
  158MOL0     C21691   4.330   9.463   7.459 -0.3498 -0.1040 -0.5115
  158MOL0     C21692   4.359   9.593   7.503  0.1952 -0.2842  0.1690
  158MOL0     C21693   4.477   9.658   7.450  0.2789  0.2035 -0.0729
  158MOL0     C21694   4.514   9.803   7.498 -0.0013  0.7310 -0.0736
  158MOL0     C21695   4.549   9.592   7.344  0.3077  0.7261  0.2033
  158MOL0     C21696   4.680   9.629   7.282  0.1318  0.0819  1.0510
  158MOL0     O21697   4.734   9.562   7.182  0.4251  0.2808 -0.2353
  158MOL0     C21698   4.855   9.603   7.124 -0.4606 -0.0502 -0.4156
  158MOL0     C21699   4.973   9.544   7.162  0.9897 -0.3255 -0.0557
  158MOL0     C21700   5.090   9.592   7.099  0.4420  0.1831 -0.2532
  158MOL0     C21701   5.083   9.683   6.993 -0.2431  0.0945  0.8715
  158MOL0     O21702   5.203   9.728   6.931  0.4101 -0.1296 -0.4051
  158MOL0     C21703   5.208   9.738   6.786  0.5413  0.2541 -0.2109
  158MOL0     C21704   5.328   9.667   6.744  0.1081  0.0537 -0.5648
  158MOL0     C21705   5.449   9.700   6.831  0.3613  1.3085 -0.1296
  158MOL0     C21706   5.571   9.647   6.761 -0.5008 -0.6744  0.4881
  158MOL0     C21707   5.694   9.645   6.852  0.1248  0.0214  0.3927
  158MOL0     C21708   5.821   9.617   6.774  0.1094 -1.2745 -0.8890
  158MOL0     C21709   5.951   9.601   6.862 -0.1424 -0.9305  0.0378
  158MOL0     C21710   6.056   9.512   6.788  0.4991 -0.6800  0.2973
  158MOL0    Cl21711   6.212   9.517   6.862 -0.4800 -0.0477  0.2731
  158MOL0     C21712   4.958   9.722   6.945  0.3418 -0.5491  0.5500
  158MOL0     C21713   4.846   9.685   7.011  0.9832 -0.3503  0.0169
  158MOL0     O21714   4.723   9.733   7.333 -0.3691 -0.1031  0.6191
  158MOL0     C21715   4.510   9.457   7.310 -0.3130 -0.3960 -0.0712
  158MOL0     C21716   4.405   9.396   7.366  0.0201 -0.1300 -0.1894
  158MOL0     N21717   3.734   9.233   7.227 -0.2034  0.1138 -0.1480
  158MOL0     N21718   3.668   9.178   7.128  0.0356  0.4908  0.4325
  158MOL0     C21719   2.963   8.114   7.008  0.3124 -0.3664 -0.0805
  158MOL0     C21720   2.884   7.998   6.996 -0.5781 -0.4455  0.1297
  158MOL0     C21721   2.695   7.642   6.827 -0.4053 -0.4515  0.7502
  158MOL0     C21722   2.643   7.600   6.951 -0.0410  0.5783 -0.7203
  158MOL0     C21723   2.531   7.521   6.953 -0.3590  0.2511  0.3948
  158MOL0     C21724   2.464   7.483   6.839 -0.1114  0.4429 -0.0772
  158MOL0     O21725   2.350   7.413   6.832  0.1160  0.1429  0.8457
  158MOL0     C21726   2.237   7.474   6.893  0.4343  0.2827  0.4211
  158MOL0     C21727   2.106   7.416   6.841  0.0327  1.3112  0.1683
  158MOL0     C21728   2.096   7.260   6.853  0.3457 -0.3370  0.4625
  158MOL0     C21729   2.122   7.200   6.984 -0.1553 -0.0807 -0.1746
  158MOL0     C21730   2.046   7.266   7.097  0.7962  0.1159 -0.7912
  158MOL0     C21731   1.976   7.318   7.181  0.7339  0.6102  0.1087
  158MOL0     C21732   2.527   7.505   6.719 -0.5875  0.8896 -0.3622
  158MOL0     C21733   2.642   7.584   6.703 -0.7063  0.0991  0.5721
  158MOL0     C21734   2.681   7.615   6.557  0.1050  0.0778 -0.1337
  158MOL0     H21735   3.137   7.786   6.907  2.0821  0.5221  1.8273
  158MOL0     H21736   3.262   7.980   6.958 -0.8047 -0.6370 -0.2232
  158MOL0     H21737   3.062   8.385   6.980  1.1805  0.1074  0.6635
  158MOL0     H21738   3.074   8.322   6.829  1.7218 -2.5545 -1.5310
  158MOL0     H21739   3.337   8.379   6.834 -0.5827 -0.2803 -1.6825
  158MOL0     H21740   3.220   8.506   6.833  1.1632  1.3817  0.8325
  158MOL0     H21741   3.244   8.533   7.083 -0.2701  1.2608 -0.9714
  158MOL0     H21742   3.349   8.395   7.090  1.6417  1.4116  0.5814
  158MOL0     H21743   3.513   8.517   6.933  0.9181  1.3071  0.9103
  158MOL0     H21744   3.412   8.658   6.946  0.0381  0.5695  1.1987
  158MOL0     H21745   3.546   8.526   7.189 -1.0217  0.7367  1.9952
  158MOL0     H21746   3.433   8.659   7.194  0.6298 -1.7716  1.9882
  158MOL0     H21747   3.682   8.727   7.179 -1.3558 -2.6773  1.5041
  158MOL0     H21748   3.675   8.683   7.007  1.8098 -0.0298  0.7795
  158MOL0     H21749   3.516   8.874   7.173 -0.3696  1.2025 -0.3962
  158MOL0     H21750   3.476   8.852   7.000  0.3827  0.6709  0.1702
  158MOL0     H21751   3.758   8.901   7.010  1.6366  1.8670 -0.7309
  158MOL0     H21752   3.627   9.021   6.958 -3.3621 -1.1741  0.8780
  158MOL0     H21753   3.783   8.920   7.317 -0.4090  0.1026  1.3132
  158MOL0     H21754   3.931   9.075   7.455  0.1846  0.4946  0.5977
  158MOL0     H21755   3.797   9.155   7.523  1.6955  3.2475  2.3300
  158MOL0     H21756   4.025   9.276   7.368 -0.6201 -1.2679  0.6535
  158MOL0     H21757   3.881   9.376   7.415 -0.1479  1.6238  1.7620
  158MOL0     H21758   3.921   9.361   7.639 -1.2187 -1.1509 -1.6170
  158MOL0     H21759   4.051   9.237   7.623 -2.5130 -2.5751 -0.4737
  158MOL0     H21760   4.085   9.538   7.548  1.8196  0.0545 -0.8063
  158MOL0     H21761   4.163   9.443   7.682  1.8879 -4.4339 -0.5980
  158MOL0     H21762   4.304   9.644   7.581 -1.7340  0.5347 -1.6326
  158MOL0     H21763   4.525   9.870   7.412 -3.8978  0.2012 -1.1734
  158MOL0     H21764   4.605   9.799   7.558 -1.3981  1.8748  2.2738
  158MOL0     H21765   4.435   9.836   7.566 -2.3051 -0.8365 -1.8287
  158MOL0     H21766   4.987   9.468   7.238  1.1522 -0.1645  0.0772
  158MOL0     H21767   5.191   9.560   7.122  0.6697 -0.5495 -2.1078
  158MOL0     H21768   5.118   9.700   6.737  0.2882 -0.6791  0.9144
  158MOL0     H21769   5.212   9.842   6.753  1.7302  0.4471  0.4767
  158MOL0     H21770   5.315   9.560   6.765  0.8054 -0.0351 -0.5902
  158MOL0     H21771   5.352   9.702   6.643  0.9450  0.2818 -0.2900
  158MOL0     H21772   5.449   9.646   6.927 -0.1373 -1.1056 -1.3945
  158MOL0     H21773   5.459   9.808   6.837 -0.3318  1.6564 -3.5772
  158MOL0     H21774   5.599   9.717   6.682  0.5966  0.1692  1.5774
  158MOL0     H21775   5.549   9.548   6.718 -1.6947  0.5288 -1.8421
  158MOL0     H21776   5.707   9.740   6.904 -1.5289 -0.3673  1.5899
  158MOL0     H21777   5.682   9.562   6.922  0.5908 -0.9395 -0.6240
  158MOL0     H21778   5.833   9.711   6.719  1.0882 -0.1667  1.0883
  158MOL0     H21779   5.797   9.527   6.717 -0.0487 -0.5794 -1.9523
  158MOL0     H21780   5.914   9.554   6.954  0.5737  0.8161  1.2620
  158MOL0     H21781   5.992   9.695   6.897  2.5755 -1.2824 -1.9092
  158MOL0     H21782   6.070   9.541   6.683  3.6060 -0.7476  0.6053
  158MOL0     H21783   6.014   9.411   6.783  0.1911 -0.5128 -0.9683
  158MOL0     H21784   4.948   9.783   6.856  1.1874 -0.0357  0.7898
  158MOL0     H21785   4.753   9.728   6.977  1.7764  0.2211 -1.4911
  158MOL0     H21786   4.561   9.396   7.236  1.8795 -0.0129  1.0630
  158MOL0     H21787   4.374   9.299   7.329 -1.1727 -0.2129  0.9513
  158MOL0     H21788   2.914   8.208   7.029 -0.1281 -0.4442 -0.7318
  158MOL0     H21789   2.778   8.008   7.014 -0.3794  2.3678  0.1472
  158MOL0     H21790   2.680   7.641   7.044  1.0094 -0.4493 -0.6604
  158MOL0     H21791   2.500   7.494   7.054  3.1759  0.9482  1.8046
  158MOL0     H21792   2.239   7.446   6.999 -1.2415 -0.9974  0.1698
  158MOL0     H21793   2.226   7.582   6.879 -1.5710  0.0495 -0.1938
  158MOL0     H21794   2.095   7.441   6.735 -2.3843  1.8719  0.4849
  158MOL0     H21795   2.023   7.465   6.894 -2.6180 -3.0877  0.5153
  158MOL0     H21796   1.992   7.235   6.830  0.4447 -0.4464  0.1353
  158MOL0     H21797   2.148   7.209   6.772 -1.0739 -1.6277  0.3259
  158MOL0     H21798   2.227   7.190   7.014 -0.8328  1.7207  3.4428
  158MOL0     H21799   2.085   7.097   6.977  0.6381 -0.3766 -0.1031
  158MOL0     H21800   1.901   7.352   7.249 -2.3485 -1.6253 -1.8690
  158MOL0     H21801   2.481   7.461   6.632  0.9108 -2.3274  0.3116
  158MOL0     H21802   2.788   7.636   6.546 -0.0029 -0.7076 -3.5119
  158MOL0     H21803   2.666   7.528   6.493 -0.4149 -2.3153  2.9756
  158MOL0     H21804   2.625   7.700   6.518 -0.6384 -1.1646 -1.9185
  159MOL0     O21805   6.885   1.723  10.214  0.4597  0.2844  0.2432
  159MOL0     C21806   6.942   1.624  10.180  0.2671 -0.4958  0.6872
  159MOL0     O21807   7.067   1.620  10.124  0.1508  0.3159 -0.5072
  159MOL0     C21808   7.122   1.724  10.058 -0.8131  0.3255  0.0196
  159MOL0     C21809   7.177   1.835  10.131  0.6652 -0.4553  0.4857
  159MOL0     C21810   7.238   1.933  10.052 -1.0511  0.0603 -0.0461
  159MOL0     C21811   7.242   1.922   9.912 -1.0387  0.3312 -0.0853
  159MOL0     O21812   7.298   2.016   9.828  0.5457  0.8097 -0.0791
  159MOL0     C21813   7.327   2.149   9.885 -0.3719 -0.7514 -0.3369
  159MOL0     C21814   7.379   2.234   9.772  0.1108 -0.2577 -0.0150
  159MOL0     C21815   7.524   2.215   9.737  0.5537 -0.0464  0.6479
  159MOL0     C21816   7.576   2.342   9.661 -0.4143 -0.2872  0.0683
  159MOL0     C21817   7.706   2.308   9.584 -0.0824  0.2778  0.2073
  159MOL0     C21818   7.819   2.296   9.682 -0.0547  0.4449 -0.4473
  159MOL0     C21819   7.950   2.275   9.600  0.6046 -0.8491  0.7008
  159MOL0     C21820   8.082   2.289   9.682  0.9159  0.3891 -0.5763
  159MOL0     N21821   8.198   2.262   9.609 -0.0029  0.0413  0.6331
  159MOL0     C21822   8.272   2.144   9.622 -0.3233 -0.5754 -0.7435
  159MOL0     C21823   8.380   2.162   9.544 -0.2062 -0.0834 -0.2397
  159MOL0     C21824   8.486   2.052   9.531 -0.6831 -0.0385 -0.0958
  159MOL0     C21825   8.538   2.045   9.389 -0.2616  0.3614  1.0220
  159MOL0     C21826   8.663   1.958   9.388  0.0274  0.5398  0.0184
  159MOL0     C21827   8.730   1.974   9.251  0.0951  0.4102 -0.4824
  159MOL0     O21828   8.839   1.882   9.248  0.2019 -0.0132 -0.2395
  159MOL0     C21829   8.938   1.926   9.332 -0.2094  0.2158 -0.9524
  159MOL0     C21830   9.025   1.824   9.381 -0.3879  0.6629 -0.1806
  159MOL0     C21831   9.143   1.851   9.450 -0.0361  0.1227  0.0433
  159MOL0     C21832   9.233   1.732   9.478 -0.2364 -0.0920  0.4229
  159MOL0     C21833   9.177   1.984   9.474  0.0974  0.1819 -0.2455
  159MOL0     C21834   9.286   2.036   9.557 -0.3060  0.0980  0.4404
  159MOL0     O21835   9.288   2.172   9.574 -0.2974 -0.1572  0.3538
  159MOL0     C21836   9.401   2.226   9.628  0.5438 -0.0800  0.0797
  159MOL0     C21837   9.405   2.260   9.768 -0.0956 -0.5646 -0.3138
  159MOL0     C21838   9.512   2.311   9.833  1.2448 -0.3051  0.1085
  159MOL0     C21839   9.633   2.314   9.767  0.4187 -0.4715  0.4703
  159MOL0     O21840   9.746   2.348   9.836 -0.0478  0.8557 -0.2243
  159MOL0     C21841   9.751   2.465   9.919  0.0348  0.1827  0.8962
  159MOL0     C21842   9.797   2.584   9.825 -0.7547  0.5263 -0.1225
  159MOL0     C21843   9.930   2.555   9.753  0.8256  0.5398  0.6938
  159MOL0     C21844   9.996   2.681   9.685 -0.3584 -0.9310 -1.2716
  159MOL0     C21845  10.146   2.642   9.659  0.6776  0.3756 -0.0138
  159MOL0     C21846  10.227   2.760   9.608  0.2056 -0.0129 -0.5831
  159MOL0     C21847  10.382   2.731   9.624  0.3440 -0.5979 -0.6220
  159MOL0     C21848  10.458   2.795   9.509  0.4261  0.4631 -0.6958
  159MOL0    Cl21849  10.404   2.964   9.479  0.0726 -0.1680 -0.4344
  159MOL0     C21850   9.644   2.279   9.634 -0.0585  0.2353  0.6141
  159MOL0     C21851   9.530   2.231   9.562  0.1881 -0.0692 -0.3918
  159MOL0     O21852   9.355   1.956   9.628  0.4857 -0.3888 -0.5178
  159MOL0     C21853   9.088   2.079   9.425  0.6967  0.1335  0.0392
  159MOL0     C21854   8.970   2.054   9.357 -0.0461 -0.6596 -0.1971
  159MOL0     N21855   8.373   2.285   9.476  0.5065 -0.7257  0.1870
  159MOL0     N21856   8.265   2.350   9.520  0.6017  0.3103  0.1327
  159MOL0     C21857   7.198   1.813   9.844  0.5999  0.0700 -0.4871
  159MOL0     C21858   7.135   1.715   9.916  0.6508  0.5239 -0.2187
  159MOL0     C21859   6.882   1.487  10.203 -0.2813  0.3919  1.0571
  159MOL0     C21860   6.762   1.483  10.280  0.6357  0.5457  0.9172
  159MOL0     C21861   6.700   1.365  10.315  0.6948  0.9929  0.1117
  159MOL0     C21862   6.751   1.243  10.267  0.1488  0.2281  0.3012
  159MOL0     O21863   6.697   1.124  10.317  0.4713 -0.3355  0.4390
  159MOL0     C21864   6.753   0.995  10.307  0.6439 -0.1978 -0.4405
  159MOL0     C21865   6.657   0.887  10.381  0.2453 -0.3649  0.5931
  159MOL0     C21866   6.527   0.887  10.311  0.2385 -0.0170  0.2443
  159MOL0     C21867   6.413   0.942  10.400 -0.2062 -0.0687  0.3620
  159MOL0     C21868   6.279   0.921  10.335 -0.1678  0.8391  0.1220
  159MOL0     C21869   6.170   0.911  10.280 -0.4696  0.1068 -0.4841
  159MOL0     C21870   6.868   1.237  10.190  0.4089 -0.8416  0.8185
  159MOL0     C21871   6.930   1.359  10.154  0.1080 -0.6490 -0.5018
  159MOL0     C21872   7.051   1.342  10.071 -1.3105 -0.8476 -0.8674
  159MOL0     H21873   7.188   1.841  10.239  0.2051  1.8658  0.4434
  159MOL0     H21874   7.265   2.025  10.104 -3.0735  0.2981  0.7094
  159MOL0     H21875   7.404   2.143   9.963 -0.6274  1.7561  0.1842
  159MOL0     H21876   7.243   2.202   9.931  1.2182  0.0249  1.8027
  159MOL0     H21877   7.313   2.227   9.684 -1.5450  2.8652  0.8246
  159MOL0     H21878   7.366   2.338   9.804 -0.0253  0.1568 -1.3334
  159MOL0     H21879   7.577   2.199   9.831  1.0854 -0.3668  0.2984
  159MOL0     H21880   7.534   2.123   9.678 -1.6669  0.7928 -1.1648
  159MOL0     H21881   7.499   2.384   9.596  0.9142  0.9552 -0.7719
  159MOL0     H21882   7.595   2.428   9.725  0.7428 -1.4060  1.3072
  159MOL0     H21883   7.724   2.390   9.514  4.5036  0.7262  1.6021
  159MOL0     H21884   7.701   2.213   9.530  0.6199  1.1798 -1.5368
  159MOL0     H21885   7.836   2.391   9.733  3.9566 -1.0295  1.3831
  159MOL0     H21886   7.803   2.208   9.745 -1.4306  0.9724 -0.0310
  159MOL0     H21887   7.957   2.348   9.518 -2.0177 -2.1802 -0.8492
  159MOL0     H21888   7.936   2.186   9.537 -3.2486  0.7760 -1.0714
  159MOL0     H21889   8.085   2.389   9.725 -2.9210 -0.6603  2.7681
  159MOL0     H21890   8.074   2.213   9.760  1.3412 -0.7870 -1.6410
  159MOL0     H21891   8.262   2.055   9.684 -1.1602  0.9989  1.5317
  159MOL0     H21892   8.436   1.958   9.553 -0.1253 -0.2677  0.2334
  159MOL0     H21893   8.571   2.071   9.598  1.7622  0.7061 -3.1910
  159MOL0     H21894   8.458   2.005   9.325  1.6612  1.7489 -2.5057
  159MOL0     H21895   8.559   2.142   9.344  2.4138  0.2479  1.8757
  159MOL0     H21896   8.729   1.998   9.466  2.6593 -0.8815 -1.3228
  159MOL0     H21897   8.640   1.853   9.408 -1.3050  1.1243  1.7949
  159MOL0     H21898   8.663   1.941   9.171 -1.6936 -1.5446  1.6763
  159MOL0     H21899   8.745   2.078   9.220 -3.4053  0.7737 -1.4087
  159MOL0     H21900   9.001   1.730   9.331 -0.6873  0.8766 -0.4470
  159MOL0     H21901   9.237   1.710   9.586  1.2323  5.6428  1.8552
  159MOL0     H21902   9.335   1.755   9.447 -0.6506  1.0777 -0.1364
  159MOL0     H21903   9.198   1.644   9.423 -2.3862  0.7904  0.3026
  159MOL0     H21904   9.316   2.248   9.829 -1.2259  1.7918 -1.3667
  159MOL0     H21905   9.515   2.334   9.939  2.3520  1.4364 -0.2556
  159MOL0     H21906   9.661   2.496   9.972  1.4394  2.0032  2.3744
  159MOL0     H21907   9.820   2.442  10.000 -1.9441 -2.6972  1.9227
  159MOL0     H21908   9.714   2.609   9.758  0.8182  0.1019 -2.3504
  159MOL0     H21909   9.818   2.676   9.880  0.5461 -0.6020  1.3588
  159MOL0     H21910   9.925   2.479   9.674  3.6560  0.2278  0.7101
  159MOL0     H21911  10.003   2.523   9.828 -0.9302 -1.4538  1.6753
  159MOL0     H21912   9.988   2.762   9.758  1.9339  0.0449 -1.9992
  159MOL0     H21913   9.949   2.722   9.595  2.5063  2.1722 -1.5668
  159MOL0     H21914  10.190   2.607   9.753  1.5877 -0.0111 -0.5793
  159MOL0     H21915  10.154   2.565   9.582  0.3508 -0.4165  0.7220
  159MOL0     H21916  10.196   2.851   9.658  1.9944  0.3932 -0.1312
  159MOL0     H21917  10.203   2.780   9.504 -0.3786  0.5080 -0.3504
  159MOL0     H21918  10.383   2.621   9.618 -1.3087 -0.7788  1.3084
  159MOL0     H21919  10.423   2.770   9.718 -2.4510 -1.5623  1.1385
  159MOL0     H21920  10.450   2.740   9.414  3.2272 -0.9660 -0.1846
  159MOL0     H21921  10.564   2.793   9.534  0.3564 -1.2798 -0.4143
  159MOL0     H21922   9.745   2.274   9.595  0.8957 -1.3113  3.0545
  159MOL0     H21923   9.540   2.205   9.458 -0.8697 -4.6110  0.4349
  159MOL0     H21924   9.109   2.185   9.436 -0.1459  0.2399  0.7113
  159MOL0     H21925   8.917   2.147   9.338  2.4556  0.7820 -0.6255
  159MOL0     H21926   7.202   1.802   9.736 -1.1946 -0.7461 -0.5172
  159MOL0     H21927   7.102   1.628   9.861 -1.2800  1.6064 -0.8725
  159MOL0     H21928   6.703   1.570  10.305 -2.5521  0.0755 -3.7407
  159MOL0     H21929   6.615   1.354  10.380  0.0433  1.2939 -0.6730
  159MOL0     H21930   6.770   0.977  10.200  0.9709 -1.6334 -0.1671
  159MOL0     H21931   6.855   1.001  10.346  1.2630 -1.0608 -1.8301
  159MOL0     H21932   6.652   0.911  10.487  1.1833 -3.2729  1.3781
  159MOL0     H21933   6.710   0.792  10.373  0.7493 -0.0366 -0.0846
  159MOL0     H21934   6.526   0.931  10.210 -0.2425 -0.2257  0.1515
  159MOL0     H21935   6.500   0.784  10.284 -1.8165  0.5516 -0.0099
  159MOL0     H21936   6.427   1.047  10.428 -3.2911 -0.1072  2.6135
  159MOL0     H21937   6.406   0.889  10.496 -2.9108  2.9314  2.0428
  159MOL0     H21938   6.073   0.903  10.235 -0.7365  0.2727  0.0537
  159MOL0     H21939   6.908   1.143  10.153 -1.6566 -1.5623  0.2728
  159MOL0     H21940   7.136   1.355  10.139 -1.8064  0.1817 -0.4143
  159MOL0     H21941   7.065   1.247  10.019  1.8640  0.0006 -1.8114
  159MOL0     H21942   7.043   1.412   9.987 -0.6161  1.2455  0.7106
  160MOL0     O21943   1.544   5.137   7.011  0.1059 -0.2587  0.4547
  160MOL0     C21944   1.445   5.155   7.076  0.5790  0.2535 -0.4708
  160MOL0     O21945   1.441   5.244   7.178 -0.3138 -0.9959  0.0882
  160MOL0     C21946   1.549   5.319   7.195 -0.3120 -0.6773 -0.4495
  160MOL0     C21947   1.602   5.415   7.101  0.0726  0.1619 -0.4849
  160MOL0     C21948   1.729   5.470   7.130  0.0860  0.8694 -0.0008
  160MOL0     C21949   1.799   5.444   7.254 -0.6591 -1.3377 -0.3493
  160MOL0     O21950   1.917   5.513   7.267 -0.6097 -0.5943 -1.0202
  160MOL0     C21951   2.008   5.462   7.362 -0.6501 -0.0940 -0.2356
  160MOL0     C21952   2.115   5.565   7.383 -0.2200 -0.2394  0.0972
  160MOL0     C21953   2.252   5.523   7.436 -0.9990 -0.3081 -0.5678
  160MOL0     C21954   2.332   5.641   7.490  0.5977 -1.3569 -0.7355
  160MOL0     C21955   2.476   5.604   7.506  0.3519 -0.1273 -0.3934
  160MOL0     C21956   2.556   5.727   7.513 -0.6710 -0.4436 -0.0593
  160MOL0     C21957   2.704   5.689   7.533  0.1673 -0.0923  0.4207
  160MOL0     C21958   2.783   5.819   7.536  0.6228  0.0164  0.0675
  160MOL0     N21959   2.929   5.778   7.522  1.1219  0.3877  0.2693
  160MOL0     C21960   3.011   5.785   7.409  0.2046  0.6286 -0.3400
  160MOL0     C21961   3.134   5.740   7.453 -0.1649  0.1453  0.4474
  160MOL0     C21962   3.258   5.710   7.362  0.5538 -0.1426 -0.1174
  160MOL0     C21963   3.339   5.835   7.332 -0.3118  0.1922 -0.2379
  160MOL0     C21964   3.437   5.808   7.212 -0.2708 -0.3884  1.3236
  160MOL0     C21965   3.500   5.940   7.183 -0.1448  0.0950  0.7563
  160MOL0     O21966   3.582   5.974   7.295 -1.0429  0.0376  0.4957
  160MOL0     C21967   3.703   6.034   7.277 -0.3748 -0.1874 -0.9047
  160MOL0     C21968   3.805   6.006   7.363 -0.1983  0.1854 -0.4248
  160MOL0     C21969   3.937   6.055   7.351  0.1122 -0.2163 -1.0318
  160MOL0     C21970   4.036   6.020   7.460 -0.6246 -1.1442  0.1144
  160MOL0     C21971   3.968   6.143   7.241  0.3682  0.4819  0.5820
  160MOL0     C21972   4.093   6.202   7.216  0.7071 -0.1121 -0.1504
  160MOL0     O21973   4.182   6.132   7.139  0.2188  1.1346 -0.2785
  160MOL0     C21974   4.310   6.168   7.122 -1.3238  0.1848  0.0592
  160MOL0     C21975   4.385   6.222   7.225 -0.7495  0.0904 -0.2525
  160MOL0     C21976   4.516   6.268   7.196  0.4060  1.0875 -0.2174
  160MOL0     C21977   4.572   6.259   7.068 -0.0130  0.3326  0.3736
  160MOL0     O21978   4.695   6.311   7.022  0.3245  0.0922 -0.2081
  160MOL0     C21979   4.790   6.354   7.122  0.8076  0.1064 -0.6143
  160MOL0     C21980   4.930   6.356   7.061  0.3937 -0.1313  0.1395
  160MOL0     C21981   4.960   6.462   6.947  0.6203 -0.1102  0.2624
  160MOL0     C21982   4.939   6.609   6.986 -0.3527  0.2215  0.5204
  160MOL0     C21983   4.975   6.710   6.875  0.5109 -0.2170  0.2698
  160MOL0     C21984   5.049   6.660   6.753 -0.1092 -0.5960  0.8985
  160MOL0     C21985   5.079   6.779   6.657 -0.0602  0.0082 -0.6896
  160MOL0     C21986   5.172   6.747   6.545 -0.6724 -0.4845 -0.3356
  160MOL0    Cl21987   5.142   6.602   6.443 -0.3200  0.2801  0.6655
  160MOL0     C21988   4.490   6.207   6.961  0.5580 -0.8285  0.0031
  160MOL0     C21989   4.364   6.162   6.989  1.4046  0.4562 -0.6526
  160MOL0     O21990   4.108   6.312   7.260  0.4046  0.0608  0.2564
  160MOL0     C21991   3.862   6.177   7.155 -0.7294  0.0781  0.2087
  160MOL0     C21992   3.729   6.119   7.169 -0.3072 -0.5101  0.3775
  160MOL0     N21993   3.127   5.727   7.588  0.0416  0.1489 -0.6255
  160MOL0     N21994   3.008   5.759   7.630  0.3948  0.3656 -0.5574
  160MOL0     C21995   1.740   5.355   7.340  1.4163  0.4821 -0.3008
  160MOL0     C21996   1.622   5.293   7.308 -0.4336  0.6896 -0.8941
  160MOL0     C21997   1.313   5.085   7.068  0.9348 -0.1331  0.1270
  160MOL0     C21998   1.189   5.155   7.108 -0.4339  0.3267 -0.1649
  160MOL0     C21999   1.064   5.092   7.107  0.0290  0.4952 -0.6348
  160MOL0     C22000   1.048   4.966   7.053  1.4489 -0.6631  0.5588
  160MOL0     O22001   0.923   4.910   7.052  0.3903 -0.4719 -0.2336
  160MOL0     C22002   0.923   4.771   7.084  0.2984  0.6688  0.2258
  160MOL0     C22003   0.783   4.739   7.127  0.4595  0.6684 -0.7782
  160MOL0     C22004   0.741   4.782   7.271 -0.5897  0.2575 -0.2465
  160MOL0     C22005   0.668   4.919   7.277  0.5150  0.0934 -0.6323
  160MOL0     C22006   0.537   4.907   7.218 -0.3909 -0.3902  0.0967
  160MOL0     C22007   0.425   4.894   7.171  0.3360  0.1697 -0.4707
  160MOL0     C22008   1.168   4.897   7.013  0.2535  0.1999 -0.9183
  160MOL0     C22009   1.294   4.956   7.020  0.3183 -0.0280  0.1560
  160MOL0     C22010   1.410   4.872   6.967 -0.2691  0.0424 -0.4291
  160MOL0     H22011   1.546   5.447   7.013  0.9118  2.9603 -0.1192
  160MOL0     H22012   1.774   5.535   7.056 -0.3874  2.6198  1.2023
  160MOL0     H22013   2.043   5.374   7.307 -2.0203  0.2795 -1.7880
  160MOL0     H22014   1.957   5.438   7.456 -2.2803  0.3207 -0.9796
  160MOL0     H22015   2.136   5.624   7.293  1.3269 -1.0615 -0.1224
  160MOL0     H22016   2.060   5.629   7.452 -2.7950 -4.2970  2.1791
  160MOL0     H22017   2.248   5.444   7.512  1.0146 -1.5280 -1.6424
  160MOL0     H22018   2.304   5.475   7.353  0.3319 -1.1331  0.6855
  160MOL0     H22019   2.317   5.727   7.425 -3.4455  1.0021  2.7597
  160MOL0     H22020   2.285   5.679   7.582  0.7985  0.3504 -1.2992
  160MOL0     H22021   2.512   5.541   7.424  1.2311 -2.3352  1.5685
  160MOL0     H22022   2.485   5.540   7.594 -0.5832  0.9531  0.5141
  160MOL0     H22023   2.539   5.776   7.417  2.0333  0.2456 -0.2800
  160MOL0     H22024   2.526   5.797   7.591  0.3622 -0.6849  0.5792
  160MOL0     H22025   2.748   5.628   7.454  1.0556 -2.3050  2.5169
  160MOL0     H22026   2.733   5.639   7.626  0.7623 -0.1322  0.2228
  160MOL0     H22027   2.770   5.877   7.444  1.1285  1.8977  1.1257
  160MOL0     H22028   2.749   5.870   7.626 -3.4772  2.0723 -2.3574
  160MOL0     H22029   2.975   5.799   7.308 -1.7350 -1.4606 -0.0164
  160MOL0     H22030   3.235   5.660   7.268 -1.3130  1.2521 -0.4637
  160MOL0     H22031   3.326   5.643   7.416 -0.6105 -1.1236  0.1584
  160MOL0     H22032   3.276   5.920   7.304  1.4107  1.5280 -0.2180
  160MOL0     H22033   3.397   5.852   7.422 -0.0608 -1.5429 -0.0464
  160MOL0     H22034   3.518   5.739   7.233  1.1772  0.5535 -0.8568
  160MOL0     H22035   3.378   5.766   7.130 -0.9490  1.8547  0.5637
  160MOL0     H22036   3.553   5.933   7.087 -1.6376 -0.5056 -0.0466
  160MOL0     H22037   3.426   6.019   7.169  2.3735  2.3284 -1.0321
  160MOL0     H22038   3.774   5.935   7.439  2.1864  0.8955  1.3101
  160MOL0     H22039   4.112   6.099   7.460  0.1675 -1.8537 -2.1058
  160MOL0     H22040   4.081   5.924   7.436  0.0851 -0.4917 -1.2418
  160MOL0     H22041   3.996   6.008   7.561  4.1117  0.7836  2.5476
  160MOL0     H22042   4.345   6.220   7.326 -0.5668 -0.3892 -0.1845
  160MOL0     H22043   4.577   6.309   7.275  3.6184 -0.9952 -1.3875
  160MOL0     H22044   4.748   6.447   7.163  0.7185 -0.5362  0.8286
  160MOL0     H22045   4.799   6.278   7.201 -1.5675  0.1283 -0.2653
  160MOL0     H22046   4.991   6.389   7.145  1.6134 -0.7072 -0.4934
  160MOL0     H22047   4.969   6.260   7.026  0.1638 -0.0998 -0.2153
  160MOL0     H22048   4.891   6.440   6.865  0.0861  2.4672 -0.0539
  160MOL0     H22049   5.063   6.449   6.913  2.1201  2.3884  3.4208
  160MOL0     H22050   5.014   6.618   7.065 -1.6298 -0.9231  1.9374
  160MOL0     H22051   4.840   6.621   7.033 -0.9867  2.0428 -1.1729
  160MOL0     H22052   4.888   6.760   6.833  1.4740  0.9644 -0.3859
  160MOL0     H22053   5.020   6.795   6.927 -0.2627 -0.3188  1.1412
  160MOL0     H22054   4.988   6.591   6.694  1.8223 -0.2586 -1.6549
  160MOL0     H22055   5.142   6.626   6.799  0.1889 -3.1232 -1.3540
  160MOL0     H22056   5.122   6.866   6.707  0.1879 -1.1266  1.1785
  160MOL0     H22057   4.993   6.831   6.614  0.6433  1.3925 -0.4617
  160MOL0     H22058   5.264   6.729   6.601 -0.5433 -0.1105 -0.4213
  160MOL0     H22059   5.188   6.838   6.486 -0.7768 -0.2450 -0.0006
  160MOL0     H22060   4.531   6.210   6.861  0.6846 -1.4497  0.0342
  160MOL0     H22061   4.297   6.133   6.908 -1.4937  0.7235  1.4734
  160MOL0     H22062   3.884   6.242   7.072  1.8100 -1.4975 -0.4807
  160MOL0     H22063   3.656   6.143   7.093 -0.6524 -0.2232  0.7945
  160MOL0     H22064   1.801   5.330   7.427  0.4999  1.5047  0.6721
  160MOL0     H22065   1.593   5.210   7.371  2.5171  0.5636  0.4523
  160MOL0     H22066   1.180   5.255   7.148 -0.0607 -0.0543  0.9152
  160MOL0     H22067   0.977   5.152   7.131 -0.6406 -1.3599  2.0283
  160MOL0     H22068   0.940   4.723   6.987 -1.4721  0.5032 -0.0530
  160MOL0     H22069   1.000   4.747   7.158  0.3674 -1.5541 -0.5070
  160MOL0     H22070   0.779   4.630   7.129 -0.2010  0.7023  0.9830
  160MOL0     H22071   0.704   4.776   7.062 -0.7037 -0.2064  0.1037
  160MOL0     H22072   0.671   4.707   7.309  0.2162 -1.7745 -2.5255
  160MOL0     H22073   0.829   4.784   7.336 -1.8032 -1.8765  1.6131
  160MOL0     H22074   0.734   4.993   7.231  1.9420 -0.0406  1.1068
  160MOL0     H22075   0.659   4.943   7.383 -2.2220 -2.3796 -0.1752
  160MOL0     H22076   0.326   4.875   7.136  0.1781 -3.7952  1.6246
  160MOL0     H22077   1.155   4.793   6.983  1.3653 -1.1244  2.6830
  160MOL0     H22078   1.506   4.872   7.019  0.0445 -1.8254 -0.9338
  160MOL0     H22079   1.375   4.769   6.970  1.6039 -0.7215 -2.0848
  160MOL0     H22080   1.427   4.906   6.864  0.6197  2.6664  0.4967
  161MOL0     O22081   4.951   2.555   2.789  0.4173 -0.2639  0.3377
  161MOL0     C22082   4.999   2.472   2.866  0.0256 -0.5721 -0.1095
  161MOL0     O22083   5.124   2.431   2.868 -0.3198 -0.1880 -0.0558
  161MOL0     C22084   5.214   2.475   2.771  0.2314  0.4172  0.9867
  161MOL0     C22085   5.314   2.568   2.801 -0.7211  0.7069  0.3338
  161MOL0     C22086   5.408   2.600   2.705  0.4176  0.3395  0.2470
  161MOL0     C22087   5.391   2.557   2.571 -1.0616  0.1271  0.2640
  161MOL0     O22088   5.484   2.610   2.484 -0.8856  0.8118 -0.3044
  161MOL0     C22089   5.543   2.501   2.400 -0.1067 -0.2559 -0.1679
  161MOL0     C22090   5.684   2.543   2.364 -0.1375  0.6905  0.8103
  161MOL0     C22091   5.741   2.462   2.242 -0.1311 -0.9095  0.4240
  161MOL0     C22092   5.863   2.536   2.185 -0.5150 -0.3938 -0.1803
  161MOL0     C22093   5.963   2.461   2.083  0.6302  0.4881  0.0968
  161MOL0     C22094   6.099   2.518   2.085  0.7332  0.2570  0.2968
  161MOL0     C22095   6.177   2.433   1.986 -0.9195  1.5455 -0.5230
  161MOL0     C22096   6.326   2.474   1.998  0.1562  0.1735  0.0837
  161MOL0     N22097   6.344   2.607   1.949  0.1510  0.9104  0.6600
  161MOL0     C22098   6.342   2.727   2.014 -0.4335 -0.0395 -0.3550
  161MOL0     C22099   6.358   2.814   1.913 -0.1089  0.0089 -1.0606
  161MOL0     C22100   6.363   2.958   1.953 -0.1451 -0.9250 -0.0951
  161MOL0     C22101   6.484   3.004   2.041  0.0276 -0.0757  1.1628
  161MOL0     C22102   6.608   3.027   1.959 -0.1547  0.4646 -1.0052
  161MOL0     C22103   6.729   3.044   2.055 -0.5945 -0.5497  0.2409
  161MOL0     O22104   6.772   2.920   2.133  0.4795 -0.9154  0.1673
  161MOL0     C22105   6.877   2.923   2.223  0.0582 -0.0924 -0.3764
  161MOL0     C22106   6.938   3.040   2.275  0.6715 -0.5901  0.6073
  161MOL0     C22107   7.040   3.048   2.369  0.4292 -1.6335 -0.7640
  161MOL0     C22108   7.086   3.190   2.394 -0.2399 -0.0354 -0.5694
  161MOL0     C22109   7.094   2.931   2.418  0.6438  0.3517  0.5060
  161MOL0     C22110   7.212   2.913   2.500 -0.4066 -1.3781 -0.1955
  161MOL0     O22111   7.250   3.017   2.579  0.4831 -0.5092 -0.5099
  161MOL0     C22112   7.375   3.034   2.632  0.9035  0.2131  0.3229
  161MOL0     C22113   7.401   3.167   2.687 -0.7160  0.6438  0.8779
  161MOL0     C22114   7.512   3.196   2.759 -0.5296 -0.2621 -0.2685
  161MOL0     C22115   7.596   3.091   2.800 -0.2272 -0.1096  0.3966
  161MOL0     O22116   7.696   3.106   2.895  0.4943  0.0723 -0.1220
  161MOL0     C22117   7.673   3.184   3.010 -0.3294 -0.7326 -0.1192
  161MOL0     C22118   7.703   3.098   3.136 -0.5437 -0.2763 -0.6091
  161MOL0     C22119   7.700   3.195   3.261 -0.2602  0.6745 -0.2667
  161MOL0     C22120   7.724   3.111   3.391  0.1802  0.1290  0.5330
  161MOL0     C22121   7.727   3.184   3.527  1.0102  0.5044 -0.4535
  161MOL0     C22122   7.837   3.288   3.526 -0.3756 -0.6769 -0.6893
  161MOL0     C22123   7.802   3.397   3.633  0.9107  0.1974 -0.1397
  161MOL0     C22124   7.929   3.476   3.667  0.0794 -1.2991 -0.6439
  161MOL0    Cl22125   8.049   3.498   3.531  0.0563 -0.0950  0.1744
  161MOL0     C22126   7.579   2.964   2.747 -0.5569  0.0885  0.3676
  161MOL0     C22127   7.470   2.930   2.665 -0.9662 -0.2661 -0.2200
  161MOL0     O22128   7.271   2.812   2.501  0.2784  0.3012 -0.2017
  161MOL0     C22129   7.035   2.810   2.371  0.4222  0.2555  0.7609
  161MOL0     C22130   6.927   2.808   2.276  0.4500  0.0478 -0.2862
  161MOL0     N22131   6.371   2.753   1.794  0.2988  0.8870 -0.0933
  161MOL0     N22132   6.361   2.630   1.817 -0.3110 -0.0038  0.1394
  161MOL0     C22133   5.288   2.467   2.536  0.0061 -0.2277  0.6184
  161MOL0     C22134   5.197   2.429   2.637 -0.6248  0.4228  0.3418
  161MOL0     C22135   4.902   2.422   2.975 -0.4959 -0.5900 -0.0917
  161MOL0     C22136   4.760   2.433   2.942 -0.5406  0.4072  0.5977
  161MOL0     C22137   4.666   2.389   3.030 -0.3778  0.6158 -0.2769
  161MOL0     C22138   4.705   2.323   3.144 -0.0222 -0.4046 -0.9345
  161MOL0     O22139   4.617   2.261   3.230  0.3593 -0.5071 -0.2781
  161MOL0     C22140   4.476   2.244   3.199 -0.4951 -0.7508  1.2147
  161MOL0     C22141   4.417   2.141   3.288 -0.2908  0.4694 -0.5758
  161MOL0     C22142   4.303   2.071   3.204  0.0105 -0.2257  0.3140
  161MOL0     C22143   4.209   2.011   3.302  0.9655  0.3564 -0.3070
  161MOL0     C22144   4.125   2.098   3.379 -0.0063  0.0038 -0.3360
  161MOL0     C22145   4.030   2.146   3.452 -0.7633  0.7507 -1.2697
  161MOL0     C22146   4.840   2.312   3.183 -1.0023  0.0773  0.3862
  161MOL0     C22147   4.941   2.366   3.100 -0.6955 -0.4670  0.2707
  161MOL0     C22148   5.089   2.354   3.153  0.1435 -0.5150  0.2745
  161MOL0     H22149   5.338   2.600   2.902 -0.6814  0.4057  0.4229
  161MOL0     H22150   5.493   2.656   2.742  1.5279  0.2378 -1.9355
  161MOL0     H22151   5.468   2.489   2.321 -2.1227 -1.2643  1.7711
  161MOL0     H22152   5.552   2.410   2.461 -1.2416  0.6308  1.3839
  161MOL0     H22153   5.676   2.644   2.323 -3.9199  0.0809 -0.3501
  161MOL0     H22154   5.765   2.537   2.438  0.6898 -0.3388 -0.1421
  161MOL0     H22155   5.770   2.364   2.281 -0.1135 -0.5059  1.4589
  161MOL0     H22156   5.666   2.438   2.166  0.3004 -0.3726 -0.1861
  161MOL0     H22157   5.827   2.627   2.136  1.2471  0.6185  0.2780
  161MOL0     H22158   5.930   2.565   2.267 -0.0218 -1.9910  0.0218
  161MOL0     H22159   5.915   2.457   1.985 -1.5210 -0.6648  1.1154
  161MOL0     H22160   5.977   2.355   2.108 -0.4230  0.7093  1.8242
  161MOL0     H22161   6.111   2.623   2.058 -1.0543  0.3527 -0.2928
  161MOL0     H22162   6.143   2.505   2.184 -0.1985 -0.8992  0.5897
  161MOL0     H22163   6.149   2.442   1.881  0.1759 -3.0006 -1.4065
  161MOL0     H22164   6.175   2.328   2.017 -1.1258  1.1819 -1.7262
  161MOL0     H22165   6.355   2.468   2.104  0.7433 -0.4911 -0.1081
  161MOL0     H22166   6.389   2.402   1.945 -0.3382  0.1795 -0.5169
  161MOL0     H22167   6.337   2.757   2.119  0.1269  0.7452 -0.5416
  161MOL0     H22168   6.281   2.978   2.023  2.5907  4.7141  2.0275
  161MOL0     H22169   6.341   3.023   1.868 -2.1012  1.0660  1.8014
  161MOL0     H22170   6.465   3.097   2.095  0.1243  0.9736 -0.5295
  161MOL0     H22171   6.513   2.919   2.103  0.6176 -0.6284  0.1581
  161MOL0     H22172   6.618   2.941   1.891 -3.5786 -1.2659  0.4297
  161MOL0     H22173   6.595   3.116   1.898 -0.3522  0.6524 -0.6875
  161MOL0     H22174   6.820   3.086   2.009 -0.6532  2.0052  2.2474
  161MOL0     H22175   6.704   3.127   2.122  0.9336  1.0599 -1.0771
  161MOL0     H22176   6.888   3.135   2.260  2.5561  0.5159  0.9991
  161MOL0     H22177   7.133   3.194   2.493  2.6627 -0.6265 -1.8015
  161MOL0     H22178   7.010   3.267   2.380  1.0697  1.5114  0.3423
  161MOL0     H22179   7.164   3.224   2.325  0.5006  2.0241  1.1366
  161MOL0     H22180   7.325   3.241   2.661  0.1155  0.6679 -1.7550
  161MOL0     H22181   7.528   3.300   2.787  2.7619 -1.0669  1.2979
  161MOL0     H22182   7.741   3.269   3.003 -1.3949  0.0725 -0.8695
  161MOL0     H22183   7.570   3.222   3.011 -0.2162 -0.0889 -3.3020
  161MOL0     H22184   7.620   3.028   3.147 -2.7632  2.0279 -1.7077
  161MOL0     H22185   7.799   3.047   3.119 -0.9320 -0.3423 -2.8948
  161MOL0     H22186   7.597   3.230   3.259 -0.4691  0.1103  0.2286
  161MOL0     H22187   7.779   3.271   3.258  0.3716  0.0529  0.2234
  161MOL0     H22188   7.818   3.058   3.370 -0.2281  0.2636 -2.0014
  161MOL0     H22189   7.646   3.035   3.401 -0.1292  0.5770  1.6197
  161MOL0     H22190   7.629   3.230   3.544  1.0686 -0.1459  1.8574
  161MOL0     H22191   7.756   3.112   3.604  0.5449 -2.3240 -2.7367
  161MOL0     H22192   7.859   3.335   3.430 -1.4515 -1.7457 -1.4943
  161MOL0     H22193   7.931   3.240   3.557  0.9353  1.5759 -0.9555
  161MOL0     H22194   7.767   3.344   3.722 -3.8902 -0.5539 -2.1614
  161MOL0     H22195   7.721   3.457   3.591  1.2912  1.4288  0.8569
  161MOL0     H22196   7.973   3.423   3.752 -1.8662  1.6793  2.5031
  161MOL0     H22197   7.913   3.571   3.720  0.1125 -2.5386  1.7473
  161MOL0     H22198   7.649   2.887   2.779  0.8029 -0.1041 -2.7177
  161MOL0     H22199   7.472   2.828   2.628  3.2755 -0.4062 -0.0372
  161MOL0     H22200   7.085   2.719   2.402  2.7980  0.4736 -1.9799
  161MOL0     H22201   6.888   2.711   2.247  2.5417 -0.9595  0.0282
  161MOL0     H22202   5.282   2.421   2.439  0.2565 -2.7144  1.7144
  161MOL0     H22203   5.123   2.353   2.611  0.8414 -0.2974 -2.1518
  161MOL0     H22204   4.732   2.481   2.849  1.3084  2.4483  0.9972
  161MOL0     H22205   4.559   2.396   3.010 -1.3028 -3.4531  2.0075
  161MOL0     H22206   4.415   2.334   3.192  1.7261  0.7423 -2.0048
  161MOL0     H22207   4.470   2.206   3.096  0.7578  0.9075  0.4836
  161MOL0     H22208   4.374   2.182   3.379  0.1517 -2.7008  1.2127
  161MOL0     H22209   4.493   2.068   3.317 -2.7485 -1.0109  2.7551
  161MOL0     H22210   4.257   2.149   3.142  2.7584  1.9647  0.8204
  161MOL0     H22211   4.342   1.995   3.135  0.6753 -1.3141  1.8424
  161MOL0     H22212   4.258   1.935   3.364 -2.0673 -3.2107 -1.9020
  161MOL0     H22213   4.135   1.951   3.249  0.5259 -1.4797  2.1677
  161MOL0     H22214   3.953   2.187   3.515 -1.7771 -3.1148  0.3127
  161MOL0     H22215   4.868   2.283   3.283 -1.4598  2.0710  1.1403
  161MOL0     H22216   5.081   2.336   3.261 -0.3952 -2.5260 -0.0516
  161MOL0     H22217   5.138   2.264   3.115 -0.5248 -1.9596  2.6498
  161MOL0     H22218   5.149   2.446   3.154 -1.6698  0.7951 -1.8139
  162MOL0     O22219   1.965   0.636   6.494  0.5169 -0.2298  0.0497
  162MOL0     C22220   1.960   0.714   6.397  0.2670  0.2192 -0.3091
  162MOL0     O22221   2.065   0.790   6.349 -0.1272  0.2414 -0.2555
  162MOL0     C22222   2.195   0.781   6.393  0.4889 -0.0625  0.2841
  162MOL0     C22223   2.246   0.677   6.467  0.1004 -0.1785 -0.7327
  162MOL0     C22224   2.388   0.667   6.491  0.4356  0.2230  0.0561
  162MOL0     C22225   2.480   0.758   6.444 -0.0010  0.0209 -0.2476
  162MOL0     O22226   2.611   0.747   6.470 -0.0565  0.0840 -0.6151
  162MOL0     C22227   2.661   0.609   6.460 -0.0734  0.6425  0.7538
  162MOL0     C22228   2.814   0.619   6.452  0.0813 -0.2830  0.1526
  162MOL0     C22229   2.854   0.677   6.321 -0.6246  0.0459 -0.2629
  162MOL0     C22230   3.005   0.687   6.301 -0.3422  0.9867 -0.3657
  162MOL0     C22231   3.030   0.740   6.160 -0.5132 -0.1728 -0.9797
  162MOL0     C22232   3.172   0.716   6.110 -0.1779 -0.0589  0.6159
  162MOL0     C22233   3.188   0.788   5.975  0.4115 -0.3976 -0.1956
  162MOL0     C22234   3.312   0.739   5.911 -0.3294 -0.5988 -0.5927
  162MOL0     N22235   3.437   0.803   5.969 -0.2754 -0.5372  0.1759
  162MOL0     C22236   3.503   0.907   5.907 -0.8947 -0.2177  0.3397
  162MOL0     C22237   3.613   0.923   5.993  0.0940  0.0132 -0.1943
  162MOL0     C22238   3.724   1.025   5.987  0.2924 -0.0007 -0.3209
  162MOL0     C22239   3.856   0.971   5.960  0.0556 -0.1696  0.3031
  162MOL0     C22240   3.876   0.958   5.812 -0.1081 -0.4325  0.7440
  162MOL0     C22241   3.791   0.858   5.740  0.1710  0.1478 -0.0957
  162MOL0     O22242   3.829   0.727   5.775 -0.1674  0.1586 -0.4824
  162MOL0     C22243   3.863   0.638   5.676  1.0533  0.1158  0.2801
  162MOL0     C22244   3.822   0.656   5.537  0.1425  0.6953 -0.7699
  162MOL0     C22245   3.875   0.571   5.436  0.1164  0.0067  0.3583
  162MOL0     C22246   3.808   0.578   5.303 -0.6284 -0.0723 -0.4923
  162MOL0     C22247   3.975   0.466   5.472  1.0031 -0.2225  0.1310
  162MOL0     C22248   4.044   0.378   5.369 -1.0218  0.2039  0.1266
  162MOL0     O22249   4.151   0.314   5.427 -0.4704  0.8298  0.5861
  162MOL0     C22250   4.248   0.248   5.354 -0.7785 -0.0099 -0.6364
  162MOL0     C22251   4.214   0.153   5.266  0.4697  0.0254 -0.1573
  162MOL0     C22252   4.307   0.095   5.178  0.1417  0.5917 -0.5387
  162MOL0     C22253   4.450   0.132   5.189  0.5646  0.7652  0.5398
  162MOL0     O22254   4.536   0.072   5.098 -0.7461 -0.0711 -0.7490
  162MOL0     C22255   4.675   0.094   5.120 -0.4481  0.2820 -0.2335
  162MOL0     C22256   4.746   0.003   5.015 -0.1473 -0.2469  0.3995
  162MOL0     C22257   4.888  -0.036   5.045 -0.2478 -0.0804 -0.3761
  162MOL0     C22258   4.922  -0.171   4.986 -0.3270  0.5023 -0.4148
  162MOL0     C22259   5.069  -0.200   4.988  0.2822  0.5265  0.5611
  162MOL0     C22260   5.137  -0.189   5.125  0.2793 -0.4796  0.0387
  162MOL0     C22261   5.276  -0.251   5.118  0.7323  0.3375  0.7178
  162MOL0     C22262   5.351  -0.254   5.245 -0.6077  0.1119  0.3846
  162MOL0    Cl22263   5.508  -0.317   5.209 -0.1271  0.3005 -0.0615
  162MOL0     C22264   4.488   0.218   5.291 -0.0773 -0.2794 -0.5967
  162MOL0     C22265   4.389   0.284   5.367 -0.0992 -0.1610 -0.4795
  162MOL0     O22266   4.012   0.378   5.245  0.0970 -0.2676  0.3882
  162MOL0     C22267   4.014   0.462   5.601 -0.7907  0.4706  0.0391
  162MOL0     C22268   3.961   0.544   5.701 -0.4710  0.0553  0.7117
  162MOL0     N22269   3.601   0.840   6.106 -0.8936 -0.2519 -0.3229
  162MOL0     N22270   3.491   0.777   6.092  0.1147  0.0145  0.1011
  162MOL0     C22271   2.424   0.878   6.395 -0.6625  0.4680  0.0175
  162MOL0     C22272   2.289   0.881   6.363 -0.2243  0.1371 -0.2717
  162MOL0     C22273   1.839   0.728   6.312 -0.5624  0.0055  0.1090
  162MOL0     C22274   1.856   0.759   6.175  0.4316  0.5316 -0.6359
  162MOL0     C22275   1.758   0.782   6.088 -0.2854 -0.0908  0.0989
  162MOL0     C22276   1.623   0.764   6.128 -0.2168  0.0446 -0.6599
  162MOL0     O22277   1.525   0.799   6.033 -0.1616 -0.7493 -0.8847
  162MOL0     C22278   1.390   0.769   6.076 -1.1490 -0.7386 -0.6881
  162MOL0     C22279   1.310   0.789   5.945 -0.6313  0.1962  0.2214
  162MOL0     C22280   1.164   0.759   5.985  0.7266  0.3071 -1.0510
  162MOL0     C22281   1.052   0.804   5.893 -0.3568  0.1726  0.0077
  162MOL0     C22282   1.057   0.743   5.755  0.1742 -0.7417  0.2018
  162MOL0     C22283   1.050   0.675   5.653  0.1820 -0.0110 -0.0158
  162MOL0     C22284   1.598   0.736   6.270 -0.0815  0.1320 -0.0441
  162MOL0     C22285   1.707   0.719   6.356 -0.3346 -0.3776  0.5364
  162MOL0     C22286   1.664   0.707   6.500  0.1467  0.0154 -0.2285
  162MOL0     H22287   2.191   0.587   6.494 -0.2850 -0.1340 -1.3582
  162MOL0     H22288   2.432   0.587   6.549 -2.3640 -1.7833 -0.4080
  162MOL0     H22289   2.632   0.552   6.371 -0.2976  1.4218  0.3142
  162MOL0     H22290   2.646   0.548   6.550  1.2117 -1.2244 -0.2370
  162MOL0     H22291   2.858   0.673   6.536 -0.3182 -1.5242  1.2000
  162MOL0     H22292   2.855   0.518   6.460 -2.0048 -1.5422 -3.0377
  162MOL0     H22293   2.817   0.613   6.241 -0.4453 -0.2747 -0.0919
  162MOL0     H22294   2.808   0.776   6.320  1.0461  0.8337 -1.4760
  162MOL0     H22295   3.053   0.754   6.374 -2.6196  0.8693  1.3261
  162MOL0     H22296   3.056   0.592   6.317  1.9694  1.9866 -1.1835
  162MOL0     H22297   3.005   0.847   6.160  0.6549  0.1200  0.1357
  162MOL0     H22298   2.962   0.683   6.095  0.6755 -1.0617 -1.4790
  162MOL0     H22299   3.239   0.752   6.189 -1.6550 -1.0470  2.4079
  162MOL0     H22300   3.188   0.609   6.093 -3.6844 -0.2482 -2.7095
  162MOL0     H22301   3.179   0.897   5.969 -1.4792 -0.5940 -2.1273
  162MOL0     H22302   3.109   0.763   5.904 -0.4472  2.1712 -0.2212
  162MOL0     H22303   3.322   0.632   5.929 -0.6343 -0.4872  0.2700
  162MOL0     H22304   3.310   0.753   5.802  2.9912  2.0174 -0.4464
  162MOL0     H22305   3.467   0.959   5.819 -3.8588 -2.3529  0.1229
  162MOL0     H22306   3.725   1.070   6.087 -2.2783  2.5502 -1.3068
  162MOL0     H22307   3.693   1.110   5.925 -2.1148  1.9322  3.1929
  162MOL0     H22308   3.930   1.036   6.007  0.3252  1.5362 -2.2401
  162MOL0     H22309   3.866   0.870   6.001 -0.7865 -0.0884  0.7288
  162MOL0     H22310   3.869   1.057   5.765 -0.8505  0.0133  1.7602
  162MOL0     H22311   3.976   0.917   5.797 -0.5592 -0.4120 -3.3989
  162MOL0     H22312   3.683   0.874   5.746 -0.3853 -3.2987  0.6302
  162MOL0     H22313   3.819   0.870   5.634  3.1926 -0.4369  0.5466
  162MOL0     H22314   3.741   0.728   5.528 -0.3991  0.5611  2.0671
  162MOL0     H22315   3.731   0.501   5.300 -0.5926 -0.3562  2.4561
  162MOL0     H22316   3.879   0.563   5.222  2.3535  1.6197  1.6152
  162MOL0     H22317   3.767   0.679   5.299  0.8609  0.5796 -0.1033
  162MOL0     H22318   4.114   0.110   5.267  0.5398 -0.1666  1.7943
  162MOL0     H22319   4.275   0.015   5.111 -1.5328  1.0457 -0.3218
  162MOL0     H22320   4.708   0.199   5.110  2.1796 -0.4370  0.0650
  162MOL0     H22321   4.707   0.056   5.217  1.7062 -0.3178 -1.1095
  162MOL0     H22322   4.695  -0.094   5.012 -0.6039 -0.1606  3.1767
  162MOL0     H22323   4.739   0.055   4.919  1.0057  0.1321  0.5040
  162MOL0     H22324   4.909  -0.042   5.152  0.6597  1.5887 -0.4194
  162MOL0     H22325   4.948   0.051   5.014 -1.4509  0.3782 -1.5311
  162MOL0     H22326   4.883  -0.185   4.885  0.1985  0.8768 -0.6796
  162MOL0     H22327   4.875  -0.247   5.049 -2.0782 -0.8568 -3.1637
  162MOL0     H22328   5.072  -0.303   4.952 -3.5902  0.2058  0.7866
  162MOL0     H22329   5.125  -0.137   4.918  2.3694 -0.6352  1.0789
  162MOL0     H22330   5.085  -0.231   5.211  0.8654  1.9331  1.6668
  162MOL0     H22331   5.141  -0.082   5.149  0.6751 -0.2787 -0.8754
  162MOL0     H22332   5.330  -0.194   5.042 -1.9504  1.9698 -0.1353
  162MOL0     H22333   5.261  -0.356   5.092  1.7895  0.4164 -0.2752
  162MOL0     H22334   5.308  -0.320   5.321  1.4367  0.6620  2.0882
  162MOL0     H22335   5.355  -0.156   5.293 -0.9947  0.5305 -0.4219
  162MOL0     H22336   4.588   0.257   5.310  0.5220 -1.2440 -1.6511
  162MOL0     H22337   4.423   0.363   5.432  2.8148  1.4072 -3.6188
  162MOL0     H22338   4.078   0.381   5.637  2.0539  2.3788 -0.4340
  162MOL0     H22339   3.987   0.530   5.805 -0.6346  0.7797  0.8556
  162MOL0     H22340   2.501   0.952   6.379 -0.1964  0.1380  0.6884
  162MOL0     H22341   2.250   0.963   6.303  1.0092  1.6262  0.8589
  162MOL0     H22342   1.954   0.764   6.129 -0.1131 -0.7348 -2.0108
  162MOL0     H22343   1.778   0.803   5.983 -1.5523 -0.5158 -0.2420
  162MOL0     H22344   1.388   0.665   6.110 -1.4210  0.5411  3.8005
  162MOL0     H22345   1.359   0.843   6.151 -0.3085  0.1986 -1.2355
  162MOL0     H22346   1.350   0.721   5.869  1.0213  0.3915  0.8791
  162MOL0     H22347   1.316   0.894   5.913 -2.0982  0.0515 -0.6256
  162MOL0     H22348   1.158   0.653   6.011 -1.4219  1.0801  2.2221
  162MOL0     H22349   1.147   0.800   6.085 -2.4488 -3.1583  0.0713
  162MOL0     H22350   1.047   0.913   5.888 -0.2859  0.1430 -3.5683
  162MOL0     H22351   0.954   0.773   5.930 -0.4917  0.4883 -0.0792
  162MOL0     H22352   1.038   0.621   5.561 -0.7436  0.2652 -0.0697
  162MOL0     H22353   1.498   0.748   6.310  0.8073 -1.5889  2.9805
  162MOL0     H22354   1.676   0.601   6.525 -0.1351 -0.5689 -2.3481
  162MOL0     H22355   1.734   0.767   6.559 -0.8428  1.1881 -0.2065
  162MOL0     H22356   1.568   0.750   6.530  0.2590 -0.2935  0.5953
  163MOL0     O22357   2.897   4.983   9.377 -0.2354 -0.2679  0.0143
  163MOL0     C22358   2.832   4.879   9.363  0.5555 -0.2621 -0.1771
  163MOL0     O22359   2.883   4.769   9.313 -0.3836  0.7305  0.4029
  163MOL0     C22360   3.009   4.731   9.345 -0.0475 -0.1253 -0.7839
  163MOL0     C22361   3.026   4.648   9.452  0.5749  0.0187 -0.1251
  163MOL0     C22362   3.156   4.610   9.501 -0.0134  0.5389 -0.6140
  163MOL0     C22363   3.270   4.659   9.426 -0.1857 -0.1287 -0.1946
  163MOL0     O22364   3.390   4.622   9.470  0.0862  0.1197  0.1453
  163MOL0     C22365   3.436   4.494   9.429  0.4776 -0.4315  0.0176
  163MOL0     C22366   3.581   4.473   9.458 -0.1947 -0.1346  0.5228
  163MOL0     C22367   3.677   4.546   9.365 -0.7998  0.3952  0.4370
  163MOL0     C22368   3.820   4.586   9.422  0.2352 -0.1871  0.2866
  163MOL0     C22369   3.901   4.451   9.441  0.2146 -0.7320 -0.6126
  163MOL0     C22370   4.051   4.486   9.467 -0.1618  0.1785  0.7242
  163MOL0     C22371   4.133   4.372   9.522  0.3755  0.0976 -0.8084
  163MOL0     C22372   4.180   4.270   9.423 -0.1643 -0.2887 -0.1154
  163MOL0     N22373   4.258   4.338   9.317 -0.3175  0.4849  0.3109
  163MOL0     C22374   4.216   4.351   9.187  0.0150  0.4343  1.0137
  163MOL0     C22375   4.304   4.434   9.125 -0.2010  0.4222  0.5829
  163MOL0     C22376   4.330   4.477   8.988  0.0455  0.2491 -0.4559
  163MOL0     C22377   4.456   4.416   8.946  0.0968 -0.6602  1.5005
  163MOL0     C22378   4.577   4.511   8.973  0.8249  0.1184 -0.5484
  163MOL0     C22379   4.703   4.434   8.981 -0.6085  0.1237  0.4334
  163MOL0     O22380   4.731   4.376   8.855  0.2494  0.2884  0.3233
  163MOL0     C22381   4.833   4.441   8.775 -0.1358  0.7852 -0.5218
  163MOL0     C22382   4.900   4.566   8.786 -0.0482  0.4049  0.4306
  163MOL0     C22383   5.008   4.611   8.708 -0.5108  0.3334 -1.4804
  163MOL0     C22384   5.064   4.743   8.729  0.0618 -0.9652 -0.3872
  163MOL0     C22385   5.047   4.532   8.598  0.3474 -0.5176  0.7995
  163MOL0     C22386   5.162   4.561   8.508  0.4673  0.0293 -0.1067
  163MOL0     O22387   5.237   4.669   8.532  0.1668  0.3304  0.7516
  163MOL0     C22388   5.322   4.704   8.429  0.1649  0.0607 -0.2283
  163MOL0     C22389   5.451   4.652   8.428  0.1556  0.4502 -0.6301
  163MOL0     C22390   5.534   4.705   8.327 -0.1961 -0.4205  0.0979
  163MOL0     C22391   5.504   4.813   8.246  0.2537 -0.1492  0.6536
  163MOL0     O22392   5.592   4.879   8.160 -0.2014  0.4372 -0.3800
  163MOL0     C22393   5.717   4.816   8.130 -0.0852  0.1775  0.4271
  163MOL0     C22394   5.780   4.907   8.027  0.3480  0.1429  0.6411
  163MOL0     C22395   5.851   5.022   8.089 -0.5819 -0.9119  0.0644
  163MOL0     C22396   5.894   5.130   7.982  0.5519  0.4125 -0.7201
  163MOL0     C22397   6.000   5.228   8.038 -0.5354 -0.3122 -0.6304
  163MOL0     C22398   6.142   5.165   8.056  0.6499  0.1879 -0.2741
  163MOL0     C22399   6.200   5.224   8.183 -0.7211  0.2731  1.0599
  163MOL0     C22400   6.346   5.171   8.209 -0.0106 -0.7198 -0.2615
  163MOL0    Cl22401   6.456   5.218   8.083 -0.1946 -0.0809  0.2280
  163MOL0     C22402   5.379   4.870   8.263 -0.0483 -0.3973 -0.1099
  163MOL0     C22403   5.284   4.816   8.354  0.6827  0.0977  0.4863
  163MOL0     O22404   5.162   4.487   8.409 -0.6189  0.2952 -0.3678
  163MOL0     C22405   4.973   4.417   8.579  0.0253  0.1813  0.0514
  163MOL0     C22406   4.865   4.367   8.664  0.6590  0.0459  1.1014
  163MOL0     N22407   4.396   4.465   9.226  0.6711 -0.5526  0.3474
  163MOL0     N22408   4.379   4.399   9.331 -0.3335 -0.5481 -0.3531
  163MOL0     C22409   3.253   4.745   9.314  0.0274  0.8094 -0.4787
  163MOL0     C22410   3.124   4.767   9.271  0.1491 -0.0965 -0.3436
  163MOL0     C22411   2.682   4.902   9.341  0.0384  0.7350  0.5946
  163MOL0     C22412   2.612   4.815   9.253  0.2694 -0.6825 -0.3028
  163MOL0     C22413   2.476   4.829   9.222 -0.0857 -0.9157  0.6948
  163MOL0     C22414   2.407   4.940   9.267 -0.9201  0.0754 -0.1642
  163MOL0     O22415   2.277   4.976   9.236 -0.1766 -0.3501  0.0615
  163MOL0     C22416   2.214   4.897   9.135 -0.3204 -0.4846 -0.8285
  163MOL0     C22417   2.161   4.762   9.192 -0.1020  0.0267  0.3722
  163MOL0     C22418   2.061   4.787   9.307 -0.0410  0.4632 -0.6714
  163MOL0     C22419   2.052   4.677   9.411  0.1773  0.4644  0.3924
  163MOL0     C22420   2.170   4.666   9.495  0.0137 -0.6740  0.0827
  163MOL0     C22421   2.263   4.655   9.585 -0.2709 -0.6504  0.3821
  163MOL0     C22422   2.470   5.028   9.355 -0.1232  0.4388 -0.2426
  163MOL0     C22423   2.603   5.007   9.392 -0.4760 -0.3635 -0.3129
  163MOL0     C22424   2.660   5.096   9.499  0.2661  0.0513  0.1680
  163MOL0     H22425   2.942   4.611   9.510  0.5264  1.8794  1.0647
  163MOL0     H22426   3.153   4.543   9.586 -1.2076  1.8749  0.4562
  163MOL0     H22427   3.415   4.479   9.323 -1.4351 -0.4392  0.3569
  163MOL0     H22428   3.370   4.422   9.479 -0.2338 -0.7079 -1.2677
  163MOL0     H22429   3.611   4.506   9.558  2.6176  1.9881 -0.8965
  163MOL0     H22430   3.591   4.365   9.462  2.4814 -0.1048 -2.1657
  163MOL0     H22431   3.714   4.487   9.281  5.0753  1.2505  1.9601
  163MOL0     H22432   3.624   4.634   9.329 -1.4883 -0.4450 -0.6325
  163MOL0     H22433   3.869   4.654   9.352 -1.7602  0.7919 -0.2424
  163MOL0     H22434   3.803   4.638   9.517 -0.2578 -0.0727  0.1372
  163MOL0     H22435   3.890   4.379   9.360  0.0983  0.2315 -1.4839
  163MOL0     H22436   3.862   4.404   9.532  1.5045  1.4816  1.2097
  163MOL0     H22437   4.093   4.527   9.375 -1.1526 -1.1120 -0.3456
  163MOL0     H22438   4.060   4.567   9.540 -0.7482  0.5860  0.3504
  163MOL0     H22439   4.082   4.320   9.604 -0.0669  3.9827  1.6587
  163MOL0     H22440   4.218   4.422   9.570  0.4394  0.3222 -1.1543
  163MOL0     H22441   4.242   4.199   9.478 -0.8260 -0.6676  0.1615
  163MOL0     H22442   4.095   4.213   9.385 -0.5409 -0.6498  1.2184
  163MOL0     H22443   4.132   4.299   9.141 -1.9967  1.0237  3.7483
  163MOL0     H22444   4.345   4.585   8.993  3.0289 -0.0043 -1.9449
  163MOL0     H22445   4.242   4.463   8.926 -1.7949  1.1037  1.7925
  163MOL0     H22446   4.472   4.316   8.988 -1.8819 -1.8417 -0.3165
  163MOL0     H22447   4.448   4.402   8.837  0.8576  0.0047  1.3486
  163MOL0     H22448   4.597   4.585   8.895  1.3681  0.6495  0.0828
  163MOL0     H22449   4.562   4.564   9.067 -3.6077 -1.7295  0.0119
  163MOL0     H22450   4.773   4.511   9.016 -0.9264  0.7539 -0.2943
  163MOL0     H22451   4.701   4.346   9.046  2.3200 -0.6164 -0.3078
  163MOL0     H22452   4.872   4.626   8.872 -1.8718  0.6949 -0.3167
  163MOL0     H22453   5.015   4.793   8.812  3.9778  0.3763  1.3920
  163MOL0     H22454   5.057   4.804   8.639  1.0807 -0.1486  0.0551
  163MOL0     H22455   5.169   4.742   8.761  0.3042 -0.0573 -1.1088
  163MOL0     H22456   5.484   4.577   8.500  1.7361 -0.1774 -1.9466
  163MOL0     H22457   5.637   4.669   8.334  0.6234  0.6019 -4.2305
  163MOL0     H22458   5.774   4.790   8.220 -1.0149  0.6683  1.1732
  163MOL0     H22459   5.698   4.722   8.077  0.2703  0.4059 -0.1092
  163MOL0     H22460   5.855   4.856   7.966 -1.1232 -2.2102  0.6511
  163MOL0     H22461   5.707   4.938   7.952  1.0451 -2.4871 -1.2628
  163MOL0     H22462   5.929   4.996   8.161 -0.4731 -3.1881 -0.7924
  163MOL0     H22463   5.774   5.071   8.150 -2.7412 -0.1110 -3.0701
  163MOL0     H22464   5.812   5.195   7.953 -0.2349 -0.0185  0.4714
  163MOL0     H22465   5.925   5.083   7.888 -1.0188  0.5024 -1.3075
  163MOL0     H22466   6.005   5.310   7.966 -0.5718  1.1688  0.9992
  163MOL0     H22467   5.960   5.269   8.131  0.4953 -0.6455 -0.0188
  163MOL0     H22468   6.212   5.187   7.975  2.7896 -0.6594  1.2621
  163MOL0     H22469   6.126   5.057   8.057  0.6900  0.1856  0.9687
  163MOL0     H22470   6.137   5.191   8.267 -2.1933  2.3055  0.8079
  163MOL0     H22471   6.193   5.333   8.177  0.3931  0.5306  3.2892
  163MOL0     H22472   6.341   5.062   8.216  3.4308 -0.9622  0.5655
  163MOL0     H22473   6.376   5.205   8.309 -2.2394 -1.4962  0.7461
  163MOL0     H22474   5.347   4.958   8.209  1.5454  1.1051  1.2896
  163MOL0     H22475   5.186   4.862   8.361  0.6364  0.1138 -0.2378
  163MOL0     H22476   5.007   4.341   8.510 -0.3878 -0.3018  0.3657
  163MOL0     H22477   4.819   4.270   8.650  1.0438 -0.0990  0.8601
  163MOL0     H22478   3.342   4.779   9.262 -0.8374  0.1722 -2.4756
  163MOL0     H22479   3.099   4.819   9.179 -1.3517 -0.6137 -0.2557
  163MOL0     H22480   2.660   4.728   9.209 -0.2336 -1.4924  0.7281
  163MOL0     H22481   2.430   4.768   9.145 -0.3933  1.0760 -0.7557
  163MOL0     H22482   2.136   4.961   9.092 -0.1876 -0.5044 -1.0992
  163MOL0     H22483   2.282   4.886   9.050 -0.5066 -0.4465 -0.9841
  163MOL0     H22484   2.246   4.702   9.226  0.4222 -0.3084 -1.4551
  163MOL0     H22485   2.122   4.701   9.111  0.9325 -1.7412  1.1575
  163MOL0     H22486   2.100   4.873   9.363 -0.0255  0.9562 -1.4253
  163MOL0     H22487   1.960   4.823   9.284 -0.3697  1.6353  2.2359
  163MOL0     H22488   2.039   4.577   9.368  2.5343 -0.7537  2.2445
  163MOL0     H22489   1.965   4.701   9.473 -2.2512 -0.7387 -2.3575
  163MOL0     H22490   2.332   4.648   9.667  1.3436 -4.1354 -1.0605
  163MOL0     H22491   2.404   5.104   9.396  1.0802 -0.1255  3.1195
  163MOL0     H22492   2.712   5.176   9.446 -3.5766  1.6430 -1.6189
  163MOL0     H22493   2.574   5.123   9.561 -1.0476 -1.5165 -0.8730
  163MOL0     H22494   2.720   5.042   9.573 -1.1402  1.8844  2.8384
  164MOL0     O22495   2.006  11.230   5.195 -0.3943  0.3533 -0.6768
  164MOL0     C22496   1.969  11.111   5.185  0.2721  1.1592  0.8938
  164MOL0     O22497   2.054  10.999   5.157  0.7517 -0.2066 -1.4166
  164MOL0     C22498   2.190  11.019   5.173 -0.6620  0.5063  0.7189
  164MOL0     C22499   2.232  11.074   5.292 -0.2668 -0.3549  0.5207
  164MOL0     C22500   2.376  11.081   5.315  0.5429 -0.4899 -0.0825
  164MOL0     C22501   2.470  11.043   5.215  0.9211  0.3792 -0.2172
  164MOL0     O22502   2.597  11.069   5.246 -0.2039 -0.6862  0.4726
  164MOL0     C22503   2.700  11.062   5.143  0.4142  0.3812  0.0177
  164MOL0     C22504   2.823  11.082   5.227  0.7499  0.2874  0.1774
  164MOL0     C22505   2.947  11.087   5.147 -0.1836  0.2195  0.0462
  164MOL0     C22506   3.058  11.147   5.235  0.9076  0.6959  0.2452
  164MOL0     C22507   3.194  11.159   5.164  0.2217 -0.0584 -0.0735
  164MOL0     C22508   3.306  11.235   5.240 -0.2539  0.6075  0.1811
  164MOL0     C22509   3.344  11.158   5.367 -0.1091 -0.0104 -0.2548
  164MOL0     C22510   3.424  11.246   5.455  0.0660 -0.2569 -0.5834
  164MOL0     N22511   3.468  11.164   5.572 -0.5614 -0.5358 -0.0696
  164MOL0     C22512   3.435  11.205   5.699  0.1882 -0.0018 -0.0906
  164MOL0     C22513   3.479  11.097   5.773  0.3882 -0.3470  0.2968
  164MOL0     C22514   3.470  11.088   5.925 -0.4984 -0.1329  0.4346
  164MOL0     C22515   3.592  11.171   5.976 -0.4765 -0.2576  0.0718
  164MOL0     C22516   3.721  11.084   5.987  0.2136 -0.6805  0.3312
  164MOL0     C22517   3.827  11.149   6.073  1.0383  0.3963  0.0819
  164MOL0     O22518   3.945  11.066   6.061  0.0358  0.1070 -0.5325
  164MOL0     C22519   4.055  11.103   6.129 -0.2025  0.3919  0.1418
  164MOL0     C22520   4.161  11.018   6.115 -0.3108 -0.0443 -0.5912
  164MOL0     C22521   4.282  11.040   6.177 -0.4307  0.4033 -0.3468
  164MOL0     C22522   4.394  10.944   6.149  0.5941 -0.2678  0.3042
  164MOL0     C22523   4.295  11.153   6.267 -0.5361  0.4584  0.8185
  164MOL0     C22524   4.409  11.174   6.359  0.2811  0.5206 -0.1342
  164MOL0     O22525   4.452  11.305   6.377  0.6895 -0.3341 -0.3020
  164MOL0     C22526   4.555  11.323   6.458  0.6579  0.1656  0.0921
  164MOL0     C22527   4.681  11.257   6.455 -0.4794  0.2942  0.6815
  164MOL0     C22528   4.782  11.292   6.535 -0.6566  0.4585  0.5974
  164MOL0     C22529   4.769  11.380   6.640  1.2409  0.8197 -0.0967
  164MOL0     O22530   4.872  11.415   6.712 -0.5928 -0.3790 -0.3889
  164MOL0     C22531   4.847  11.433   6.854  0.0058  0.0624  0.0149
  164MOL0     C22532   4.986  11.461   6.921 -0.4059  0.6611  0.0278
  164MOL0     C22533   5.063  11.569   6.840 -0.0869  0.5893 -0.1069
  164MOL0     C22534   5.166  11.633   6.935 -0.2123 -0.7835  0.6121
  164MOL0     C22535   5.234  11.752   6.876 -0.7456 -0.4127 -0.2574
  164MOL0     C22536   5.365  11.784   6.950  0.0623  0.2674  0.5246
  164MOL0     C22537   5.408  11.922   6.902  0.2369 -0.6073 -0.6100
  164MOL0     C22538   5.451  11.928   6.756  0.8816  0.0572 -0.9748
  164MOL0    Cl22539   5.569  11.800   6.713  0.0354  0.1624 -0.0425
  164MOL0     C22540   4.638  11.428   6.659  0.3665 -0.0201  0.6474
  164MOL0     C22541   4.537  11.412   6.566 -0.4073  0.4641  0.1469
  164MOL0     O22542   4.456  11.073   6.412  0.3647  0.3969 -0.4709
  164MOL0     C22543   4.187  11.232   6.290 -0.6847  0.3566 -0.3774
  164MOL0     C22544   4.066  11.207   6.218  0.4031 -0.7763 -0.3082
  164MOL0     N22545   3.556  11.008   5.695  0.4511  0.0707 -0.6761
  164MOL0     N22546   3.543  11.052   5.576  0.3100 -0.3522  0.2518
  164MOL0     C22547   2.426  10.985   5.096  0.0408 -0.1653 -0.2757
  164MOL0     C22548   2.287  10.993   5.075  1.2435  1.1572 -0.3353
  164MOL0     C22549   1.821  11.095   5.194 -0.4826 -0.2689  0.0429
  164MOL0     C22550   1.770  10.963   5.182 -0.2182  0.0075 -0.1804
  164MOL0     C22551   1.640  10.938   5.220  0.9625  0.4111  0.9778
  164MOL0     C22552   1.546  11.025   5.265 -0.1045 -1.1436 -0.3150
  164MOL0     O22553   1.423  10.986   5.307 -0.0132 -0.2210 -0.6729
  164MOL0     C22554   1.318  11.068   5.256  0.6222 -0.7604  0.2253
  164MOL0     C22555   1.185  10.991   5.249  0.6626 -0.3608  0.3062
  164MOL0     C22556   1.180  10.910   5.114 -0.8032  0.7974 -0.4013
  164MOL0     C22557   1.053  10.818   5.101  0.0348 -0.3867 -0.2511
  164MOL0     C22558   1.084  10.676   5.157 -0.9604 -0.8747 -0.0730
  164MOL0     C22559   1.108  10.565   5.204 -0.5714  0.3703  0.3308
  164MOL0     C22560   1.594  11.154   5.287 -0.0284  0.2606  0.5001
  164MOL0     C22561   1.726  11.192   5.253 -0.0605  0.3206 -0.2647
  164MOL0     C22562   1.758  11.337   5.258  0.3264 -0.4537  0.3026
  164MOL0     H22563   2.161  11.100   5.369 -4.3276  2.1648 -3.5352
  164MOL0     H22564   2.412  11.136   5.402 -0.2679  1.6357 -1.0286
  164MOL0     H22565   2.697  11.143   5.069  3.8107  0.7753  0.1151
  164MOL0     H22566   2.699  10.961   5.102 -2.9679 -0.3171  1.4997
  164MOL0     H22567   2.812  11.174   5.286  1.0038 -0.6144  1.6934
  164MOL0     H22568   2.842  11.004   5.302 -0.1733 -2.0985 -1.9196
  164MOL0     H22569   2.995  10.996   5.110  0.7986  0.3784  0.9081
  164MOL0     H22570   2.937  11.155   5.062  5.4126  0.6274 -0.6631
  164MOL0     H22571   3.032  11.246   5.272 -0.1677 -0.0456  1.5780
  164MOL0     H22572   3.057  11.085   5.326 -0.6102  0.9006  0.3977
  164MOL0     H22573   3.188  11.197   5.061  0.0948 -1.5641 -0.6488
  164MOL0     H22574   3.237  11.060   5.144  1.7967  0.8037 -1.2355
  164MOL0     H22575   3.394  11.242   5.175  0.5783 -0.0249  1.2116
  164MOL0     H22576   3.267  11.332   5.273 -0.2550  1.3758 -1.9244
  164MOL0     H22577   3.401  11.069   5.339 -2.2921 -1.0095 -1.8218
  164MOL0     H22578   3.256  11.131   5.425 -0.1991 -0.6252 -0.6707
  164MOL0     H22579   3.505  11.295   5.401 -2.4634  2.2047 -2.3726
  164MOL0     H22580   3.362  11.334   5.475  1.6208  0.6151  0.6478
  164MOL0     H22581   3.382  11.289   5.742 -2.2953 -2.1466  1.3873
  164MOL0     H22582   3.474  10.986   5.965 -2.4495  0.1400  1.4473
  164MOL0     H22583   3.378  11.136   5.959 -0.4502  3.6734 -3.7820
  164MOL0     H22584   3.622  11.254   5.911  0.2496  0.5202  1.3503
  164MOL0     H22585   3.569  11.190   6.081  0.4417  0.6399  0.1288
  164MOL0     H22586   3.684  10.993   6.034  0.7981 -0.8782  0.4163
  164MOL0     H22587   3.764  11.065   5.888 -1.4361  0.8496 -0.7445
  164MOL0     H22588   3.851  11.254   6.053  1.6944  0.3291  0.4985
  164MOL0     H22589   3.801  11.145   6.179 -2.1627  0.8938 -0.5738
  164MOL0     H22590   4.139  10.934   6.050 -1.2194 -0.5522  0.3376
  164MOL0     H22591   4.374  10.899   6.052 -0.1958 -2.4138  1.3957
  164MOL0     H22592   4.404  10.872   6.231  0.9118 -1.1786 -0.5212
  164MOL0     H22593   4.488  10.997   6.130  0.2914 -0.6081 -2.4856
  164MOL0     H22594   4.705  11.185   6.378  0.8633 -0.3050  1.6256
  164MOL0     H22595   4.881  11.260   6.504  0.9207  2.9426  2.6461
  164MOL0     H22596   4.774  11.513   6.870 -1.8680 -1.2166 -1.7508
  164MOL0     H22597   4.811  11.336   6.888  2.2564 -0.5232  0.9344
  164MOL0     H22598   4.986  11.507   7.020  2.4171  1.8805 -0.4441
  164MOL0     H22599   5.046  11.372   6.935 -0.7973  0.5909  1.3498
  164MOL0     H22600   4.993  11.642   6.801 -0.5123 -0.5264 -1.4996
  164MOL0     H22601   5.113  11.530   6.751 -0.7825 -0.7026  0.0333
  164MOL0     H22602   5.237  11.550   6.945 -0.8584 -1.6905 -1.6532
  164MOL0     H22603   5.117  11.670   7.025  0.0919 -1.0122  0.8736
  164MOL0     H22604   5.264  11.730   6.773  4.0861  0.7957  0.6506
  164MOL0     H22605   5.167  11.838   6.866 -1.4319 -1.1114 -2.0346
  164MOL0     H22606   5.447  11.713   6.934 -0.1496  0.1320 -0.0009
  164MOL0     H22607   5.342  11.793   7.056  0.3866  0.4236  0.5834
  164MOL0     H22608   5.492  11.946   6.967 -0.2653 -1.6142  0.4580
  164MOL0     H22609   5.321  11.988   6.917  0.8822  0.6561 -2.2125
  164MOL0     H22610   5.488  12.031   6.747  0.6033  0.0523 -2.5040
  164MOL0     H22611   5.362  11.912   6.695 -0.1552  0.1995  0.4630
  164MOL0     H22612   4.632  11.506   6.733  0.6929  0.8007 -0.1757
  164MOL0     H22613   4.437  11.455   6.572 -1.0133 -1.1170  2.7996
  164MOL0     H22614   4.190  11.317   6.357  0.8840  1.4296 -1.7223
  164MOL0     H22615   3.989  11.283   6.224  1.2094  0.1737 -1.3852
  164MOL0     H22616   2.481  10.946   5.011 -2.0738  1.1310 -2.3817
  164MOL0     H22617   2.244  10.949   4.986 -0.4925  1.1379  0.4701
  164MOL0     H22618   1.826  10.881   5.139 -1.0129 -0.0957 -1.0530
  164MOL0     H22619   1.602  10.838   5.205 -0.4687  1.0666 -0.1064
  164MOL0     H22620   1.301  11.156   5.318 -0.3511  0.0914 -1.1688
  164MOL0     H22621   1.351  11.104   5.158 -1.4961  0.0328 -0.2587
  164MOL0     H22622   1.093  11.049   5.243  0.8399 -0.2787 -2.5944
  164MOL0     H22623   1.176  10.932   5.341 -0.4242 -0.6687  0.0147
  164MOL0     H22624   1.184  10.981   5.031 -0.0718  0.7837 -0.3811
  164MOL0     H22625   1.274  10.857   5.100 -0.8224  0.9169 -1.0250
  164MOL0     H22626   1.009  10.822   5.001 -0.1559  0.5938 -0.1335
  164MOL0     H22627   0.978  10.868   5.163 -0.4076 -1.1880 -0.1155
  164MOL0     H22628   1.100  10.461   5.231  0.3911  0.4560  0.9627
  164MOL0     H22629   1.542  11.231   5.343  1.0857  1.9443 -0.6742
  164MOL0     H22630   1.853  11.352   5.310  1.0871 -2.8657 -0.2584
  164MOL0     H22631   1.789  11.379   5.162  3.0291 -1.1808  0.7676
  164MOL0     H22632   1.676  11.398   5.297  3.4550  3.5123  1.2592
  165MOL0     O22633   4.243   4.316   2.871 -0.5823 -0.6965 -0.2956
  165MOL0     C22634   4.293   4.227   2.934 -0.2001  0.2552  0.3828
  165MOL0     O22635   4.431   4.199   2.940 -0.4049 -0.4900  0.7193
  165MOL0     C22636   4.523   4.278   2.879  0.6437 -0.3268 -0.2662
  165MOL0     C22637   4.642   4.303   2.945  0.4950 -0.4661  0.1276
  165MOL0     C22638   4.742   4.375   2.878  0.7607 -0.3988 -0.3629
  165MOL0     C22639   4.726   4.413   2.742  0.3611  0.4511  0.4832
  165MOL0     O22640   4.833   4.471   2.670  0.0409 -0.1476  0.7072
  165MOL0     C22641   4.932   4.549   2.736  0.1174 -0.8091  0.0569
  165MOL0     C22642   4.964   4.665   2.634 -0.3024  0.1390 -0.3873
  165MOL0     C22643   5.076   4.762   2.674  0.1104 -0.1051  0.5635
  165MOL0     C22644   5.208   4.693   2.729  0.6621 -1.0033 -0.6368
  165MOL0     C22645   5.315   4.795   2.764 -1.0323 -0.6567  0.3836
  165MOL0     C22646   5.459   4.748   2.769 -0.4076 -0.5304  1.5295
  165MOL0     C22647   5.540   4.846   2.857  0.6724 -0.4585 -0.5673
  165MOL0     C22648   5.685   4.839   2.850 -0.6808  0.2542  0.0020
  165MOL0     N22649   5.739   4.953   2.934  0.8680  0.2484 -0.7266
  165MOL0     C22650   5.765   5.068   2.872 -0.2914  0.1178  0.5433
  165MOL0     C22651   5.870   5.124   2.942 -0.1328  0.8107 -0.5438
  165MOL0     C22652   5.938   5.255   2.900  0.1813  0.7578  0.1643
  165MOL0     C22653   6.030   5.222   2.789 -0.1058  0.1365  0.4460
  165MOL0     C22654   6.119   5.343   2.756  0.4994  0.2860  0.4848
  165MOL0     C22655   6.245   5.303   2.667 -0.0592 -0.4185  0.6308
  165MOL0     O22656   6.347   5.386   2.709  0.0737  0.8411  0.1445
  165MOL0     C22657   6.439   5.428   2.617  0.1954  0.1135  0.6862
  165MOL0     C22658   6.519   5.333   2.546  0.6121  0.9550  0.2157
  165MOL0     C22659   6.617   5.371   2.453  0.6233 -0.0129 -0.6386
  165MOL0     C22660   6.691   5.263   2.386  0.5646 -0.4342  0.0982
  165MOL0     C22661   6.636   5.511   2.427  0.2206 -0.5699 -1.1684
  165MOL0     C22662   6.736   5.571   2.330  0.9617  0.0820 -0.4494
  165MOL0     O22663   6.744   5.709   2.321 -0.0068  0.2714 -0.5746
  165MOL0     C22664   6.851   5.751   2.249 -0.1952  0.2642  0.0040
  165MOL0     C22665   6.976   5.785   2.307  0.3129 -0.1044 -1.1073
  165MOL0     C22666   7.082   5.815   2.227 -0.0917  0.2128 -0.1360
  165MOL0     C22667   7.085   5.806   2.092  0.7731  0.0879  0.4723
  165MOL0     O22668   7.202   5.841   2.032  0.2497 -0.1151  0.2695
  165MOL0     C22669   7.205   5.826   1.885 -0.6245 -0.2955  0.3050
  165MOL0     C22670   7.356   5.843   1.831 -0.1621 -0.2421  0.0644
  165MOL0     C22671   7.420   5.971   1.878 -0.0562 -0.0984  1.3085
  165MOL0     C22672   7.544   6.007   1.791 -0.3737 -0.2301 -0.0223
  165MOL0     C22673   7.605   6.141   1.830  0.1447  0.7774 -0.0718
  165MOL0     C22674   7.533   6.253   1.757  0.1166 -0.0385  0.0244
  165MOL0     C22675   7.596   6.391   1.795  0.2024  0.3348  0.0238
  165MOL0     C22676   7.519   6.491   1.713 -0.8484 -0.2063 -0.0717
  165MOL0    Cl22677   7.351   6.517   1.770  0.2281 -0.0197 -0.4672
  165MOL0     C22678   6.962   5.759   2.030 -0.6693  0.2650 -0.1933
  165MOL0     C22679   6.852   5.741   2.111  0.1002 -0.5890 -0.6254
  165MOL0     O22680   6.805   5.495   2.262  0.8966 -0.4479 -0.4923
  165MOL0     C22681   6.553   5.604   2.495 -0.2811 -0.4220  0.3609
  165MOL0     C22682   6.452   5.561   2.581  0.3119  0.6431  0.3308
  165MOL0     N22683   5.881   5.050   3.061 -0.2034  0.4820  0.1536
  165MOL0     N22684   5.807   4.943   3.052 -1.0643  0.3848 -0.2747
  165MOL0     C22685   4.607   4.371   2.666  0.0027  0.1339  0.2602
  165MOL0     C22686   4.507   4.308   2.744  0.4837 -0.2759  0.0663
  165MOL0     C22687   4.209   4.127   3.009 -0.0641  0.5440 -0.3710
  165MOL0     C22688   4.283   4.045   3.101  0.6032  0.1356  0.0412
  165MOL0     C22689   4.216   3.953   3.182 -0.0076  0.5974 -0.3958
  165MOL0     C22690   4.076   3.931   3.179  0.0557 -0.7661  0.4056
  165MOL0     O22691   3.991   3.855   3.255 -0.4754 -0.3672 -0.6686
  165MOL0     C22692   3.994   3.900   3.392 -0.5918  0.7894  0.2732
  165MOL0     C22693   3.889   3.811   3.471  0.2660  0.4151 -0.0253
  165MOL0     C22694   3.748   3.825   3.410 -0.4688  0.0704  0.8978
  165MOL0     C22695   3.649   3.740   3.486 -0.2020  1.0197 -0.6007
  165MOL0     C22696   3.652   3.756   3.632  0.6055  0.3624  0.8236
  165MOL0     C22697   3.657   3.776   3.752  0.2221 -0.0631 -0.2677
  165MOL0     C22698   4.006   4.003   3.090 -0.2245  0.4448  0.4918
  165MOL0     C22699   4.073   4.099   3.002  0.9366 -0.9099 -1.1574
  165MOL0     C22700   3.980   4.178   2.916 -0.4366 -0.5903 -0.1386
  165MOL0     H22701   4.652   4.272   3.049 -3.3019 -1.2801  0.3880
  165MOL0     H22702   4.832   4.402   2.932  1.5733  2.4436 -2.8281
  165MOL0     H22703   5.020   4.487   2.756  2.1390  0.7626 -3.1672
  165MOL0     H22704   4.908   4.590   2.835 -0.2737 -2.3253  0.6231
  165MOL0     H22705   4.991   4.629   2.534  0.5212  0.2529 -0.2144
  165MOL0     H22706   4.872   4.722   2.619 -1.0724  0.0266  3.0246
  165MOL0     H22707   5.108   4.822   2.588  0.7222 -1.1517  0.0370
  165MOL0     H22708   5.043   4.819   2.760  1.6447  0.0626  1.0785
  165MOL0     H22709   5.176   4.638   2.818 -0.4316  1.2462  0.4342
  165MOL0     H22710   5.251   4.626   2.653  0.8930  0.2684 -1.6636
  165MOL0     H22711   5.287   4.846   2.857 -2.3661  0.7922 -0.7654
  165MOL0     H22712   5.307   4.870   2.685 -0.8806 -1.3477 -0.2952
  165MOL0     H22713   5.456   4.644   2.801 -0.0531 -1.2641 -0.6741
  165MOL0     H22714   5.490   4.765   2.665 -0.8777 -1.9930  1.1327
  165MOL0     H22715   5.513   4.813   2.958  0.7815  1.4566  0.1234
  165MOL0     H22716   5.506   4.948   2.835  2.5309 -0.0598 -1.8828
  165MOL0     H22717   5.715   4.745   2.896 -2.1606  0.8103  2.2886
  165MOL0     H22718   5.722   4.856   2.749  3.1616  1.8387  1.4727
  165MOL0     H22719   5.713   5.102   2.783 -0.0766  1.2010  0.8155
  165MOL0     H22720   5.994   5.301   2.981  0.8778  0.7068 -0.2821
  165MOL0     H22721   5.855   5.320   2.868 -0.4789 -1.0041 -2.0579
  165MOL0     H22722   6.091   5.137   2.820 -1.9220 -2.9673 -3.6068
  165MOL0     H22723   5.977   5.195   2.698  1.0984  0.0876 -0.2524
  165MOL0     H22724   6.062   5.409   2.690  0.1005 -0.2856  0.2505
  165MOL0     H22725   6.149   5.401   2.844 -1.3228  0.1399  1.2363
  165MOL0     H22726   6.277   5.204   2.701  2.1259  0.4418  1.2581
  165MOL0     H22727   6.229   5.285   2.560  0.7355  1.1365  0.2074
  165MOL0     H22728   6.501   5.234   2.586  2.2243 -0.7845 -2.9395
  165MOL0     H22729   6.695   5.282   2.279 -1.4058  3.8357  0.5645
  165MOL0     H22730   6.659   5.164   2.421  0.7450  0.2125  2.2318
  165MOL0     H22731   6.795   5.273   2.418 -0.2664  0.9966  2.7360
  165MOL0     H22732   6.978   5.782   2.416 -2.6538 -1.7444 -0.9911
  165MOL0     H22733   7.175   5.846   2.275 -0.0110  0.8874 -0.7076
  165MOL0     H22734   7.163   5.728   1.860 -1.3075 -0.7383  2.8871
  165MOL0     H22735   7.142   5.905   1.844 -0.5718  0.6104  1.8934
  165MOL0     H22736   7.416   5.768   1.883  1.6866 -0.4890 -2.2420
  165MOL0     H22737   7.372   5.843   1.723 -0.4116 -0.8750  0.0266
  165MOL0     H22738   7.457   5.952   1.979  2.6453  1.9754  0.7958
  165MOL0     H22739   7.344   6.050   1.869  1.4130  1.0772 -2.9041
  165MOL0     H22740   7.528   6.007   1.683  0.2327  0.2566 -0.1175
  165MOL0     H22741   7.617   5.930   1.819 -0.5666  0.5972  3.1090
  165MOL0     H22742   7.601   6.152   1.939 -0.3631  2.5573 -0.2301
  165MOL0     H22743   7.708   6.147   1.793  0.1606 -2.3508 -0.7907
  165MOL0     H22744   7.425   6.255   1.775 -0.1530  2.7820 -1.4110
  165MOL0     H22745   7.558   6.240   1.652 -0.7080 -2.8929  0.0831
  165MOL0     H22746   7.702   6.407   1.773  0.9102 -0.7803  2.3136
  165MOL0     H22747   7.577   6.415   1.900 -0.5568  0.3126 -0.1003
  165MOL0     H22748   7.515   6.461   1.608 -0.6246  2.5320 -0.9301
  165MOL0     H22749   7.577   6.582   1.728  0.8434 -1.6848  3.5924
  165MOL0     H22750   6.959   5.743   1.923  1.5897  0.7952 -0.4011
  165MOL0     H22751   6.760   5.697   2.072 -0.9965  2.2740 -1.5006
  165MOL0     H22752   6.570   5.711   2.488  3.1133 -0.7453  1.9188
  165MOL0     H22753   6.395   5.631   2.640 -1.5441 -1.2599  0.9487
  165MOL0     H22754   4.586   4.395   2.562 -1.5124 -2.2486 -0.0547
  165MOL0     H22755   4.416   4.280   2.692 -0.1784  1.5077  0.1962
  165MOL0     H22756   4.391   4.054   3.116  0.4896 -0.6317  1.4782
  165MOL0     H22757   4.273   3.887   3.247  3.3781  0.5475 -3.1197
  165MOL0     H22758   4.093   3.898   3.437 -0.2354  0.0362 -0.5140
  165MOL0     H22759   3.954   4.002   3.385 -0.7494  0.7815  0.9701
  165MOL0     H22760   3.895   3.848   3.574  3.9006  1.0157 -0.3329
  165MOL0     H22761   3.918   3.705   3.472 -2.1339 -0.3055  1.4592
  165MOL0     H22762   3.720   3.928   3.387  0.9001  0.0274 -1.2784
  165MOL0     H22763   3.745   3.771   3.315  1.5364  2.2384 -0.4840
  165MOL0     H22764   3.685   3.638   3.471 -2.4782 -0.1977  1.5244
  165MOL0     H22765   3.545   3.753   3.455 -1.0562 -0.9863  1.1760
  165MOL0     H22766   3.650   3.797   3.857 -0.8136 -3.8180  0.5613
  165MOL0     H22767   3.898   4.000   3.084 -0.1492 -0.0756 -1.5072
  165MOL0     H22768   4.028   4.203   2.820 -0.9727 -1.5120 -0.6496
  165MOL0     H22769   3.894   4.113   2.897 -0.2965 -0.2516 -2.2512
  165MOL0     H22770   3.956   4.270   2.970  0.2636 -0.4004 -0.1308
  166MOL0     O22771   3.376   9.769   2.111 -0.0044  0.1274  0.6005
  166MOL0     C22772   3.386   9.791   2.233  0.0078  0.5282  0.1980
  166MOL0     O22773   3.499   9.765   2.305  0.1814 -0.4401  0.9595
  166MOL0     C22774   3.613   9.748   2.229  0.4300 -0.3807 -0.3051
  166MOL0     C22775   3.694   9.642   2.272 -0.9219 -0.7207 -0.6156
  166MOL0     C22776   3.817   9.612   2.214 -0.5009 -0.5592 -0.4056
  166MOL0     C22777   3.860   9.697   2.107 -0.2225  0.5049  0.9384
  166MOL0     O22778   3.984   9.670   2.058 -0.6089  0.3940  0.0107
  166MOL0     C22779   4.069   9.771   2.025 -0.3311  0.0302 -0.6564
  166MOL0     C22780   4.198   9.696   1.973 -0.0092 -0.1487 -0.2088
  166MOL0     C22781   4.315   9.800   1.929  0.7439 -0.0555 -0.1224
  166MOL0     C22782   4.432   9.713   1.885  1.0887  0.2461  0.2496
  166MOL0     C22783   4.549   9.791   1.842  0.1668 -0.2618 -0.2684
  166MOL0     C22784   4.651   9.700   1.778  0.5198  0.3281  0.1173
  166MOL0     C22785   4.787   9.768   1.735  0.2673 -0.3330 -0.0082
  166MOL0     C22786   4.878   9.689   1.635 -0.0376 -0.3351 -0.6141
  166MOL0     N22787   5.005   9.755   1.595  0.0694  1.3966 -0.0186
  166MOL0     C22788   5.036   9.851   1.498  0.1872  0.0605  0.6196
  166MOL0     C22789   5.166   9.869   1.497 -0.8887 -0.1525 -0.0873
  166MOL0     C22790   5.243   9.962   1.397 -0.3673  0.1813 -0.2147
  166MOL0     C22791   5.268  10.100   1.457 -0.1348  0.2274 -0.2880
  166MOL0     C22792   5.137  10.182   1.461 -0.8500  0.5219 -0.1823
  166MOL0     C22793   5.152  10.318   1.524  0.0690  0.5533  0.1619
  166MOL0     O22794   5.253  10.399   1.463 -0.0051 -0.3107  0.2526
  166MOL0     C22795   5.210  10.491   1.361 -0.2206  0.0594  0.7198
  166MOL0     C22796   5.102  10.468   1.276 -0.0849 -0.2296 -0.0835
  166MOL0     C22797   5.075  10.563   1.173 -0.6272  0.0751 -0.0856
  166MOL0     C22798   4.945  10.539   1.087 -0.6856 -0.4250  0.1284
  166MOL0     C22799   5.155  10.671   1.147  0.5033 -0.3916 -0.2121
  166MOL0     C22800   5.133  10.768   1.040  0.1138 -0.2414  0.0068
  166MOL0     O22801   5.173  10.893   1.071 -0.1236 -0.2860  0.4409
  166MOL0     C22802   5.186  10.991   0.977 -0.1126  0.8931  0.2507
  166MOL0     C22803   5.085  11.004   0.877  0.3802  0.3498 -0.5296
  166MOL0     C22804   5.096  11.106   0.778  0.2998 -0.2599  0.7001
  166MOL0     C22805   5.211  11.187   0.774  0.8785  0.7709 -0.4936
  166MOL0     O22806   5.234  11.285   0.684 -0.3231  0.7761 -0.1345
  166MOL0     C22807   5.120  11.376   0.668 -1.1202  0.1745 -0.1045
  166MOL0     C22808   5.138  11.458   0.540  0.3322 -0.3261  0.3323
  166MOL0     C22809   5.265  11.537   0.544 -0.4205 -0.7858  0.4798
  166MOL0     C22810   5.283  11.606   0.417 -0.7254 -0.7319 -0.2156
  166MOL0     C22811   5.379  11.720   0.439 -0.7742  0.0908  0.1540
  166MOL0     C22812   5.310  11.846   0.493 -0.2945  0.6705 -0.4536
  166MOL0     C22813   5.265  11.955   0.388 -0.1151 -0.2034  0.0640
  166MOL0     C22814   5.200  12.062   0.468  0.0790 -0.5489  0.3103
  166MOL0    Cl22815   5.148  12.184   0.349 -0.0728 -1.0147 -0.5865
  166MOL0     C22816   5.315  11.161   0.871  0.1899 -0.1397  0.2106
  166MOL0     C22817   5.303  11.073   0.984 -0.0744 -0.6893  0.1190
  166MOL0     O22818   5.097  10.733   0.933 -0.4467 -0.1691  0.0641
  166MOL0     C22819   5.264  10.698   1.234  0.1926  0.8469  0.1993
  166MOL0     C22820   5.291  10.609   1.342 -0.0613  0.7917  0.2793
  166MOL0     N22821   5.215   9.779   1.591  0.4618  0.0542  0.0926
  166MOL0     N22822   5.120   9.714   1.650  0.6260 -0.5477 -0.0756
  166MOL0     C22823   3.770   9.796   2.059 -0.1696 -0.1867 -0.1729
  166MOL0     C22824   3.653   9.826   2.120 -0.4289 -1.0614  0.2091
  166MOL0     C22825   3.258   9.847   2.293 -0.3831 -0.4868 -0.1728
  166MOL0     C22826   3.133   9.828   2.229  0.5995 -0.5552  0.2178
  166MOL0     C22827   3.020   9.874   2.285  0.2412 -0.5209 -0.4004
  166MOL0     C22828   3.017   9.932   2.414 -0.5155  0.1273  0.3814
  166MOL0     O22829   2.909   9.975   2.492 -0.2431 -0.4770  0.2228
  166MOL0     C22830   2.778  10.006   2.437 -0.3883 -0.0209  0.3468
  166MOL0     C22831   2.685  10.066   2.545  0.2637  0.5687 -0.6290
  166MOL0     C22832   2.541  10.104   2.486  0.0765  0.1606  0.3568
  166MOL0     C22833   2.459  10.172   2.590  0.2910 -0.3730 -0.2965
  166MOL0     C22834   2.328  10.192   2.530 -1.0624  0.2746  0.9086
  166MOL0     C22835   2.222  10.216   2.477  0.1080  0.1279 -0.5837
  166MOL0     C22836   3.137   9.944   2.480 -0.7342 -0.8330  0.1978
  166MOL0     C22837   3.260   9.909   2.418  0.0772  0.5015 -0.3047
  166MOL0     C22838   3.390   9.929   2.489 -0.8350  0.4299 -0.1524
  166MOL0     H22839   3.658   9.576   2.350  1.4509 -1.6683 -0.2306
  166MOL0     H22840   3.873   9.532   2.262 -2.0082 -0.4497  1.7089
  166MOL0     H22841   4.092   9.825   2.117 -1.3268 -1.6317  0.6253
  166MOL0     H22842   4.032   9.841   1.950  1.3851  0.2522 -1.3559
  166MOL0     H22843   4.243   9.625   2.042  2.7635  0.0361 -1.6684
  166MOL0     H22844   4.174   9.641   1.881  2.9965  0.5166 -1.5328
  166MOL0     H22845   4.288   9.868   1.847 -0.5704 -1.9422 -1.3174
  166MOL0     H22846   4.346   9.865   2.012  0.3486 -0.9787  0.7629
  166MOL0     H22847   4.463   9.652   1.970  1.1959  1.8349  1.4050
  166MOL0     H22848   4.402   9.640   1.810  0.1500  0.1869  0.6704
  166MOL0     H22849   4.601   9.840   1.925  2.7081 -1.1645 -1.2409
  166MOL0     H22850   4.525   9.870   1.769  4.1626  0.0771 -1.4412
  166MOL0     H22851   4.670   9.606   1.831 -1.6275 -0.8006 -0.9817
  166MOL0     H22852   4.607   9.672   1.682  0.1932 -0.8008  0.5716
  166MOL0     H22853   4.859   9.781   1.817  2.6512 -1.2425 -1.8279
  166MOL0     H22854   4.767   9.865   1.687 -0.4360 -0.1291  0.6859
  166MOL0     H22855   4.905   9.593   1.681  3.0973 -0.3320 -2.1390
  166MOL0     H22856   4.820   9.666   1.545 -1.1559  1.4832 -0.3950
  166MOL0     H22857   4.961   9.890   1.429 -0.7937 -2.3888  0.1809
  166MOL0     H22858   5.192   9.964   1.301 -1.4358  2.0288  0.3278
  166MOL0     H22859   5.338   9.911   1.379 -1.0483 -1.5124  0.7373
  166MOL0     H22860   5.318  10.091   1.553  0.5599  0.2968 -0.6377
  166MOL0     H22861   5.339  10.156   1.395 -0.6606  0.3773 -0.7646
  166MOL0     H22862   5.097  10.197   1.360  0.2197 -1.3508 -0.9260
  166MOL0     H22863   5.069  10.117   1.517  0.7578 -1.1496 -0.0720
  166MOL0     H22864   5.055  10.366   1.509  0.6664  1.2631 -1.7059
  166MOL0     H22865   5.158  10.306   1.633 -0.0385  0.8273  0.1992
  166MOL0     H22866   5.034  10.387   1.300  1.9347 -2.3244 -1.1226
  166MOL0     H22867   4.973  10.471   1.005  1.0549  0.0727  0.2672
  166MOL0     H22868   4.903  10.633   1.050 -2.9412 -1.7662 -0.9455
  166MOL0     H22869   4.859  10.491   1.135  0.9581 -2.9742  0.7564
  166MOL0     H22870   4.988  10.956   0.880  1.6625 -2.3688  1.6233
  166MOL0     H22871   5.008  11.116   0.715  2.5090 -0.2044 -2.6315
  166MOL0     H22872   5.019  11.334   0.662 -1.2007  0.1973  0.8702
  166MOL0     H22873   5.124  11.457   0.742  0.7561 -0.9280  1.0876
  166MOL0     H22874   5.141  11.375   0.468  0.8884 -0.9697  1.0880
  166MOL0     H22875   5.056  11.525   0.515  1.4946  0.4170 -1.7134
  166MOL0     H22876   5.357  11.479   0.556  0.9146  1.2267  0.3880
  166MOL0     H22877   5.249  11.614   0.620  1.6270  0.0349  0.1319
  166MOL0     H22878   5.191  11.654   0.384 -0.3226  1.3826  1.5173
  166MOL0     H22879   5.322  11.531   0.348  0.6337 -1.5662  1.3934
  166MOL0     H22880   5.463  11.683   0.498 -1.0597 -0.8578 -0.0253
  166MOL0     H22881   5.424  11.745   0.342  2.8946  0.5942  1.8290
  166MOL0     H22882   5.388  11.897   0.551 -1.5882  2.6527 -0.3316
  166MOL0     H22883   5.235  11.821   0.569  0.6577  0.9680  0.6160
  166MOL0     H22884   5.194  11.906   0.320 -1.1099 -1.1140  1.6991
  166MOL0     H22885   5.356  11.995   0.341 -0.0475 -2.1822 -1.6313
  166MOL0     H22886   5.260  12.106   0.548  2.4228 -0.5381 -1.3374
  166MOL0     H22887   5.107  12.022   0.510 -1.7917 -0.8182 -3.6425
  166MOL0     H22888   5.403  11.220   0.848  0.2504 -1.1433 -2.4178
  166MOL0     H22889   5.373  11.069   1.067 -0.3258 -1.7641  0.2828
  166MOL0     H22890   5.328  10.785   1.222  0.8413  0.2350 -0.9793
  166MOL0     H22891   5.373  10.631   1.410  0.0916  0.4180  0.2208
  166MOL0     H22892   3.793   9.853   1.970  0.2422 -1.3359 -0.8125
  166MOL0     H22893   3.594   9.905   2.076 -1.6935 -2.1136 -0.0490
  166MOL0     H22894   3.133   9.771   2.137  0.9513  0.6633 -0.5659
  166MOL0     H22895   2.930   9.868   2.226 -0.8714 -1.4034  1.3220
  166MOL0     H22896   2.789  10.082   2.359 -1.5397  0.7578  0.9185
  166MOL0     H22897   2.733   9.919   2.390  0.8706 -0.3542 -0.2844
  166MOL0     H22898   2.726  10.158   2.588  2.6233 -1.4495  1.7115
  166MOL0     H22899   2.674   9.990   2.622  1.1413  0.1975 -0.8615
  166MOL0     H22900   2.553  10.179   2.407 -2.0309  0.4939  0.2839
  166MOL0     H22901   2.491  10.015   2.447  0.2330 -0.6346  1.8941
  166MOL0     H22902   2.514  10.258   2.627 -0.9918  1.6357 -2.7726
  166MOL0     H22903   2.443  10.110   2.679  0.6136  0.5323  0.4063
  166MOL0     H22904   2.125  10.248   2.447 -0.9161  0.9626  3.0313
  166MOL0     H22905   3.138   9.984   2.581  1.2935 -1.6426  0.5368
  166MOL0     H22906   3.459   9.983   2.424 -0.6703  1.5904  0.9480
  166MOL0     H22907   3.375   9.987   2.580 -0.4844 -1.7649  1.3880
  166MOL0     H22908   3.440   9.842   2.532  0.3726  1.0923 -0.1840
  167MOL0     O22909  10.371   8.553   9.409 -0.0088  0.1949  0.1691
  167MOL0     C22910  10.356   8.504   9.523  0.7293 -0.0385 -0.3832
  167MOL0     O22911  10.460   8.463   9.599  1.0436  0.1068 -0.1414
  167MOL0     C22912  10.585   8.492   9.548  0.5812  0.7329  1.2418
  167MOL0     C22913  10.661   8.392   9.472  0.1998  1.1369 -0.4940
  167MOL0     C22914  10.794   8.407   9.436 -0.0831 -0.6795  0.0578
  167MOL0     C22915  10.863   8.526   9.470  0.0916  0.5798  0.6761
  167MOL0     O22916  10.985   8.533   9.420  0.0804 -0.6356 -0.4081
  167MOL0     C22917  11.072   8.648   9.437  0.3111 -0.2415 -0.4408
  167MOL0     C22918  11.179   8.621   9.543 -0.1532  0.0381  0.1351
  167MOL0     C22919  11.119   8.635   9.678  0.6282 -0.2692 -0.0358
  167MOL0     C22920  11.210   8.593   9.794 -0.0611 -0.5484 -0.1501
  167MOL0     C22921  11.202   8.440   9.834 -0.4118 -0.0548  0.3708
  167MOL0     C22922  11.277   8.410   9.970  0.4615 -0.1507  0.3143
  167MOL0     C22923  11.431   8.462   9.969  1.3059 -0.6841 -0.1740
  167MOL0     C22924  11.511   8.395   9.863  0.4612  0.3465  0.1169
  167MOL0     N22925  11.654   8.419   9.897  0.2932 -0.2976  0.7441
  167MOL0     C22926  11.716   8.536   9.872 -0.7028 -0.0865 -0.5437
  167MOL0     C22927  11.842   8.517   9.900 -0.9505 -0.6498 -0.3636
  167MOL0     C22928  11.951   8.624   9.874 -1.0498  0.3309  0.5163
  167MOL0     C22929  12.086   8.585   9.950  0.0634  0.4073  0.1063
  167MOL0     C22930  12.190   8.703   9.961 -0.3860  0.7657  0.5396
  167MOL0     C22931  12.238   8.731   9.822 -1.4030  0.0736  0.0442
  167MOL0     O22932  12.315   8.852   9.820 -0.2491 -0.1405  0.3474
  167MOL0     C22933  12.449   8.848   9.859  0.4387  0.5592  0.1915
  167MOL0     C22934  12.521   8.736   9.904  0.1831  0.5467 -0.5138
  167MOL0     C22935  12.660   8.729   9.904  0.5389 -0.5460  0.5425
  167MOL0     C22936  12.713   8.586   9.923  0.3555  0.6079 -0.7052
  167MOL0     C22937  12.730   8.848   9.888 -0.6463 -0.0809 -0.1773
  167MOL0     C22938  12.880   8.859   9.903 -0.4656  1.0335  0.3288
  167MOL0     O22939  12.942   8.980   9.880  0.5399  1.1142  0.2505
  167MOL0     C22940  13.078   8.988   9.872  0.6964  0.2263  0.1628
  167MOL0     C22941  13.172   8.881   9.861  0.3301 -0.0974  0.5781
  167MOL0     C22942  13.309   8.913   9.882 -0.1496 -0.0797 -0.4902
  167MOL0     C22943  13.359   9.047   9.898  0.5560  0.2452 -0.0122
  167MOL0     O22944  13.489   9.084   9.916 -0.3264 -0.0825 -0.4783
  167MOL0     C22945  13.588   8.986   9.907  0.2435  0.6489 -0.1479
  167MOL0     C22946  13.724   9.059   9.875 -0.2305  0.0321 -0.1183
  167MOL0     C22947  13.847   8.973   9.854  0.5697 -0.4635  0.8374
  167MOL0     C22948  13.843   8.911   9.711 -0.6309  0.1408  0.0001
  167MOL0     C22949  13.973   8.814   9.684  0.5213 -0.0864 -0.5711
  167MOL0     C22950  13.961   8.755   9.546  0.4785 -0.0178 -0.2122
  167MOL0     C22951  14.069   8.641   9.538  0.4577  0.1205 -0.7601
  167MOL0     C22952  14.052   8.544   9.424  0.6759 -1.1628  0.0964
  167MOL0    Cl22953  14.194   8.443   9.406  0.2395  0.1492 -0.0204
  167MOL0     C22954  13.263   9.145   9.902  0.1401  0.1640  0.7977
  167MOL0     C22955  13.125   9.119   9.881 -0.6107 -0.4103 -0.8121
  167MOL0     O22956  12.940   8.765   9.943  0.0843  0.6679  0.0137
  167MOL0     C22957  12.659   8.961   9.842 -0.2809  0.1221 -0.1216
  167MOL0     C22958  12.523   8.961   9.822 -0.7495 -0.0672 -0.0353
  167MOL0     N22959  11.853   8.398   9.977 -0.4764  0.3021 -0.0899
  167MOL0     N22960  11.742   8.336   9.962  0.4507 -0.1664 -0.1962
  167MOL0     C22961  10.786   8.622   9.539 -0.2447  0.5551  0.3146
  167MOL0     C22962  10.657   8.605   9.590  0.8234 -0.2426 -0.0038
  167MOL0     C22963  10.221   8.500   9.585 -0.2973 -0.3342  0.4413
  167MOL0     C22964  10.106   8.511   9.499  0.0142  0.1227 -0.4788
  167MOL0     C22965   9.973   8.528   9.540 -0.6369 -0.3771  0.2947
  167MOL0     C22966   9.946   8.526   9.676  0.0434 -0.6947 -0.0460
  167MOL0     O22967   9.812   8.537   9.710  0.0943 -0.3637  0.3941
  167MOL0     C22968   9.794   8.584   9.846 -0.0354 -0.4036  0.2026
  167MOL0     C22969   9.656   8.622   9.882  0.6594 -0.7468 -0.2373
  167MOL0     C22970   9.576   8.699   9.770  0.8248 -0.8862 -0.2957
  167MOL0     C22971   9.432   8.719   9.814 -0.4751 -0.2220  0.5525
  167MOL0     C22972   9.361   8.811   9.715  0.1229  0.3232  0.5453
  167MOL0     C22973   9.302   8.879   9.625  0.6070 -0.0985  0.2502
  167MOL0     C22974  10.058   8.500   9.762  0.3806  0.1619  0.1747
  167MOL0     C22975  10.190   8.492   9.716 -0.3199 -0.1359 -0.2078
  167MOL0     C22976  10.301   8.475   9.830  0.3814 -0.1186 -0.2221
  167MOL0     H22977  10.616   8.298   9.440 -0.2152  1.3981 -0.6788
  167MOL0     H22978  10.843   8.320   9.393  2.4928  1.2245 -1.1203
  167MOL0     H22979  11.023   8.741   9.466  1.5469 -0.0470  1.1661
  167MOL0     H22980  11.118   8.664   9.338 -0.6968 -1.4028 -1.1270
  167MOL0     H22981  11.211   8.517   9.535 -0.0751  0.1268 -0.7526
  167MOL0     H22982  11.270   8.680   9.527  0.1673 -0.6760 -0.7089
  167MOL0     H22983  11.096   8.742   9.681 -1.7565 -0.6828 -1.1372
  167MOL0     H22984  11.026   8.578   9.691  0.4953  0.2243  1.2738
  167MOL0     H22985  11.315   8.612   9.768 -0.0741 -1.1071 -0.6418
  167MOL0     H22986  11.190   8.662   9.877 -1.4241  1.2401 -1.8678
  167MOL0     H22987  11.239   8.380   9.750  0.5249  0.6947  0.2324
  167MOL0     H22988  11.098   8.414   9.858  0.1467  0.0933  3.2979
  167MOL0     H22989  11.228   8.455  10.057 -0.9707 -2.4432  0.7699
  167MOL0     H22990  11.274   8.301   9.978 -0.5413 -0.6074 -3.7906
  167MOL0     H22991  11.468   8.435  10.068 -0.5255 -1.0233  0.4562
  167MOL0     H22992  11.432   8.571   9.961  0.8777 -0.5591  1.1855
  167MOL0     H22993  11.496   8.287   9.872  3.1903 -0.1583 -0.7074
  167MOL0     H22994  11.479   8.422   9.762 -0.8223  0.1798  0.4521
  167MOL0     H22995  11.670   8.617   9.815 -2.8404 -0.9145 -0.1060
  167MOL0     H22996  11.908   8.722   9.899 -5.7509 -1.1730 -0.5710
  167MOL0     H22997  11.958   8.633   9.766 -2.8653 -2.0485  0.1347
  167MOL0     H22998  12.046   8.555  10.047 -1.7937  1.9716 -0.1178
  167MOL0     H22999  12.143   8.502   9.907  2.3361  0.5315  2.6179
  167MOL0     H23000  12.138   8.791  10.001  0.0587  2.0290 -1.5033
  167MOL0     H23001  12.273   8.680  10.028  2.2183  4.2384 -1.1326
  167MOL0     H23002  12.299   8.642   9.803 -1.9476 -0.4337  0.6321
  167MOL0     H23003  12.155   8.750   9.754  0.3715  0.9728 -2.0299
  167MOL0     H23004  12.473   8.640   9.924  0.4437  0.5961  0.3942
  167MOL0     H23005  12.816   8.573   9.887 -0.0514 -2.0891 -1.0526
  167MOL0     H23006  12.658   8.511   9.867 -1.0776  0.7874  0.4192
  167MOL0     H23007  12.716   8.552  10.027 -1.0070 -0.3690 -0.9629
  167MOL0     H23008  13.142   8.780   9.837 -1.0627  0.6141 -0.9338
  167MOL0     H23009  13.385   8.838   9.899  3.2526  2.8730 -1.3444
  167MOL0     H23010  13.595   8.923   9.997 -4.0374  2.0440  1.4107
  167MOL0     H23011  13.562   8.926   9.820 -2.2752  1.1819  0.1656
  167MOL0     H23012  13.694   9.131   9.799 -1.1018 -0.9202 -0.7140
  167MOL0     H23013  13.756   9.120   9.959  1.6136 -0.5534 -0.3513
  167MOL0     H23014  13.845   8.898   9.934 -2.4728 -0.5091  0.8347
  167MOL0     H23015  13.934   9.038   9.862  1.8003 -1.6527 -1.7823
  167MOL0     H23016  13.836   8.999   9.647 -2.2300 -0.1207 -0.2504
  167MOL0     H23017  13.752   8.850   9.700 -1.5797  1.4689  0.1840
  167MOL0     H23018  14.071   8.862   9.699  0.6875  0.0843 -2.0367
  167MOL0     H23019  13.970   8.735   9.759 -0.0301  0.3931 -0.0840
  167MOL0     H23020  13.976   8.834   9.472 -1.3786  0.9505  0.3900
  167MOL0     H23021  13.865   8.710   9.518  0.2247  0.5558 -0.2743
  167MOL0     H23022  14.055   8.583   9.629 -2.6704  0.9591 -0.5936
  167MOL0     H23023  14.175   8.671   9.539  1.0398 -1.8042 -0.1560
  167MOL0     H23024  14.040   8.603   9.333  0.9068 -1.6077 -0.2249
  167MOL0     H23025  13.963   8.484   9.443  0.6423 -0.1989  3.8979
  167MOL0     H23026  13.297   9.248   9.914 -0.1191  0.3907 -0.3151
  167MOL0     H23027  13.047   9.195   9.887 -1.6699 -1.5418  0.9115
  167MOL0     H23028  12.721   9.043   9.808  0.4880 -0.1351  0.6443
  167MOL0     H23029  12.483   9.053   9.779 -0.1052  0.2716  0.0716
  167MOL0     H23030  10.837   8.712   9.572 -1.4086  1.2117  0.3751
  167MOL0     H23031  10.603   8.686   9.639  0.1098 -0.3696 -0.5711
  167MOL0     H23032  10.138   8.501   9.395  0.9775 -0.7980 -0.1126
  167MOL0     H23033   9.900   8.533   9.460  0.6358  1.7467 -0.8247
  167MOL0     H23034   9.818   8.514   9.926 -1.4155 -0.5729  0.5032
  167MOL0     H23035   9.841   8.682   9.855 -3.7350  1.4805  0.7597
  167MOL0     H23036   9.647   8.687   9.969 -3.3402 -1.4349  0.0384
  167MOL0     H23037   9.607   8.526   9.900 -0.7442  0.2763  1.7302
  167MOL0     H23038   9.624   8.796   9.757 -0.1847 -0.2854  0.3270
  167MOL0     H23039   9.581   8.642   9.677 -3.7134  0.5774 -1.7159
  167MOL0     H23040   9.413   8.761   9.913  2.2802  0.1710  0.9912
  167MOL0     H23041   9.390   8.618   9.803 -1.0786 -0.3117  3.1488
  167MOL0     H23042   9.244   8.932   9.553  1.8874 -0.1914 -0.8808
  167MOL0     H23043  10.025   8.471   9.861 -1.0177 -5.1407 -1.5215
  167MOL0     H23044  10.245   8.487   9.923  0.4883 -2.8741  0.2763
  167MOL0     H23045  10.331   8.370   9.827 -3.1786 -1.5071  3.4925
  167MOL0     H23046  10.377   8.553   9.817 -0.9465  1.4557  1.0346
  168MOL0     O23047   3.319   7.397   1.483 -0.3692  0.2040 -0.0029
  168MOL0     C23048   3.303   7.304   1.562  0.5860 -0.1047 -0.3756
  168MOL0     O23049   3.333   7.174   1.544 -0.0777 -0.0669 -0.2228
  168MOL0     C23050   3.426   7.145   1.448  0.8355 -0.4280  0.6299
  168MOL0     C23051   3.414   7.029   1.365 -0.3603 -0.1923 -0.6362
  168MOL0     C23052   3.520   6.997   1.277  0.5796 -0.1229 -0.1887
  168MOL0     C23053   3.634   7.081   1.266  0.8014  0.2933  0.8734
  168MOL0     O23054   3.720   7.057   1.161 -0.0124  0.3327  0.3422
  168MOL0     C23055   3.826   6.962   1.190  0.0546  0.0026  0.3156
  168MOL0     C23056   3.937   6.981   1.080  0.0042  0.5040  0.0528
  168MOL0     C23057   4.002   7.119   1.084  0.0490  1.0865  0.3076
  168MOL0     C23058   4.102   7.134   0.969 -0.6845 -0.1572  0.2746
  168MOL0     C23059   4.157   7.279   0.957 -0.7098  0.4200  0.1769
  168MOL0     C23060   4.292   7.279   0.873  0.3294 -0.3199  0.1798
  168MOL0     C23061   4.334   7.433   0.834  0.4744  0.0595  0.9761
  168MOL0     C23062   4.465   7.435   0.764 -0.5882  0.3929  0.3706
  168MOL0     N23063   4.488   7.562   0.691 -0.2042 -0.6841  0.3866
  168MOL0     C23064   4.393   7.643   0.626 -0.1651 -0.2244 -0.4874
  168MOL0     C23065   4.465   7.747   0.571  0.0098  0.0843 -0.0078
  168MOL0     C23066   4.402   7.868   0.497 -0.5047  0.1600 -0.3480
  168MOL0     C23067   4.349   7.981   0.586 -0.1400  0.6661 -0.2167
  168MOL0     C23068   4.455   8.043   0.677  0.7980  0.6211  0.7901
  168MOL0     C23069   4.522   8.176   0.619  0.3117  0.2819  0.1078
  168MOL0     O23070   4.631   8.219   0.703 -0.2422 -0.4179  0.6868
  168MOL0     C23071   4.701   8.325   0.655  0.0010 -0.9296  0.8339
  168MOL0     C23072   4.645   8.416   0.556  0.3744 -0.6967  0.3252
  168MOL0     C23073   4.712   8.533   0.528  0.1980  0.0953 -0.4146
  168MOL0     C23074   4.649   8.595   0.406 -0.1615  0.1652 -0.1176
  168MOL0     C23075   4.843   8.566   0.584 -0.4271 -0.4113 -0.0842
  168MOL0     C23076   4.915   8.690   0.543  0.4426  0.0339  0.1768
  168MOL0     O23077   5.049   8.680   0.572 -0.2333  0.1015  0.0059
  168MOL0     C23078   5.125   8.784   0.529 -0.2095  0.1963 -0.1438
  168MOL0     C23079   5.163   8.796   0.398  0.0126  0.0837  0.2394
  168MOL0     C23080   5.233   8.909   0.365  0.2991 -0.1848 -0.3814
  168MOL0     C23081   5.277   9.005   0.461  0.0959  0.4171  0.4262
  168MOL0     O23082   5.353   9.113   0.427  0.0774 -0.1667  0.7040
  168MOL0     C23083   5.431   9.129   0.309 -0.0753  0.8872 -0.3398
  168MOL0     C23084   5.513   9.260   0.295 -0.0743  0.0580  0.1960
  168MOL0     C23085   5.572   9.271   0.152  0.4409  0.4759 -0.6458
  168MOL0     C23086   5.697   9.354   0.164  0.8255  0.4681 -0.1690
  168MOL0     C23087   5.784   9.346   0.044  0.8845 -0.2037 -0.0811
  168MOL0     C23088   5.912   9.428   0.056 -0.2461  0.1767 -0.3489
  168MOL0     C23089   6.019   9.353   0.136  0.0872 -0.3292 -0.6039
  168MOL0     C23090   6.163   9.403   0.111 -0.0754 -0.2476  0.2094
  168MOL0    Cl23091   6.212   9.395  -0.063  0.1124 -0.3815  0.4793
  168MOL0     C23092   5.241   8.991   0.595  1.0014  0.1205  0.1989
  168MOL0     C23093   5.164   8.880   0.634 -0.8494  0.3302  0.0380
  168MOL0     O23094   4.863   8.784   0.486  0.1323 -1.2463 -0.5924
  168MOL0     C23095   4.901   8.471   0.675 -0.4076 -0.0639  0.3774
  168MOL0     C23096   4.827   8.355   0.701  0.1382  0.0221  0.1703
  168MOL0     N23097   4.605   7.726   0.597  0.5638 -0.2699  0.2379
  168MOL0     N23098   4.618   7.612   0.666 -0.7121  0.1186 -0.3731
  168MOL0     C23099   3.647   7.185   1.356  0.7299 -0.4051  0.1388
  168MOL0     C23100   3.543   7.224   1.448  0.0249  0.7206  0.6243
  168MOL0     C23101   3.250   7.335   1.693 -0.2459 -0.5321 -0.5916
  168MOL0     C23102   3.339   7.406   1.784  0.4731  0.3517  0.9972
  168MOL0     C23103   3.295   7.429   1.921 -0.0916 -0.6520  0.0061
  168MOL0     C23104   3.163   7.396   1.960 -0.8341  0.2354 -0.1505
  168MOL0     O23105   3.133   7.407   2.093  0.3432 -0.2612  0.4988
  168MOL0     C23106   2.990   7.407   2.127 -0.0428  0.3335 -0.7402
  168MOL0     C23107   2.919   7.537   2.078 -0.9557  0.1944 -0.0608
  168MOL0     C23108   2.960   7.665   2.153 -0.1166 -0.6093  1.2265
  168MOL0     C23109   2.874   7.787   2.118 -0.0089  0.1411  0.1786
  168MOL0     C23110   2.747   7.797   2.199 -0.8162  0.0621 -0.4162
  168MOL0     C23111   2.639   7.810   2.263 -0.3906 -0.4181  0.0772
  168MOL0     C23112   3.085   7.334   1.858 -0.5930 -0.3971 -0.3421
  168MOL0     C23113   3.124   7.303   1.731  0.6552 -0.6095 -0.3558
  168MOL0     C23114   3.022   7.265   1.630  0.9288 -0.5258  0.0471
  168MOL0     H23115   3.334   6.957   1.374 -0.9616  0.5984  0.7422
  168MOL0     H23116   3.509   6.915   1.207  1.0517 -1.1199  0.8688
  168MOL0     H23117   3.792   6.859   1.200  1.6740 -0.4255  1.8610
  168MOL0     H23118   3.868   6.996   1.285  1.2792 -1.5305  0.3556
  168MOL0     H23119   4.009   6.899   1.087  0.9829  1.4433  1.4348
  168MOL0     H23120   3.888   6.972   0.982 -0.0601 -0.0083  0.1295
  168MOL0     H23121   3.932   7.202   1.067  2.8674  3.9471  1.5911
  168MOL0     H23122   4.051   7.136   1.180 -0.3927 -0.4644  0.8393
  168MOL0     H23123   4.186   7.072   1.001 -1.5668 -0.8596  1.2919
  168MOL0     H23124   4.060   7.109   0.871 -0.1621  0.9195 -0.2434
  168MOL0     H23125   4.177   7.319   1.057 -0.1519 -1.8418  1.0417
  168MOL0     H23126   4.100   7.351   0.898  0.6907  1.9110  0.5674
  168MOL0     H23127   4.379   7.231   0.918  0.4087  1.1965  1.7864
  168MOL0     H23128   4.264   7.227   0.781  0.8775 -1.8437  0.8512
  168MOL0     H23129   4.329   7.501   0.920 -1.7440  1.2683 -0.0109
  168MOL0     H23130   4.256   7.477   0.771  2.3032  4.4878  1.4369
  168MOL0     H23131   4.547   7.421   0.835 -2.5309 -1.2434  2.4498
  168MOL0     H23132   4.473   7.351   0.694 -1.5004  0.7207 -0.1482
  168MOL0     H23133   4.285   7.639   0.617 -0.0617  0.0702 -2.3133
  168MOL0     H23134   4.324   7.840   0.426 -0.2091 -1.3651 -0.1050
  168MOL0     H23135   4.488   7.906   0.441 -0.3231 -0.9048 -0.8187
  168MOL0     H23136   4.311   8.065   0.526  2.6160  1.8565 -0.4548
  168MOL0     H23137   4.258   7.959   0.643 -1.6277 -1.5114 -3.1377
  168MOL0     H23138   4.403   8.073   0.769 -0.5820  0.1611  0.1916
  168MOL0     H23139   4.530   7.975   0.718 -0.7765 -1.9365 -0.3650
  168MOL0     H23140   4.551   8.163   0.515 -1.7423  0.9303 -0.6040
  168MOL0     H23141   4.445   8.253   0.610 -1.3733 -1.1918  1.0836
  168MOL0     H23142   4.556   8.399   0.496  0.3608  4.8391 -1.8240
  168MOL0     H23143   4.727   8.641   0.345  0.0434  0.4096  0.3252
  168MOL0     H23144   4.573   8.669   0.434 -1.0203 -0.5818 -0.4316
  168MOL0     H23145   4.591   8.525   0.345  1.1524 -0.2063 -0.9896
  168MOL0     H23146   5.135   8.721   0.325  0.4232 -0.1169  0.2843
  168MOL0     H23147   5.260   8.913   0.260  2.8883 -3.8452 -0.0624
  168MOL0     H23148   5.494   9.039   0.305 -0.8164  0.2126  1.8589
  168MOL0     H23149   5.361   9.122   0.225  0.8616 -0.4122 -1.0654
  168MOL0     H23150   5.443   9.342   0.315 -0.9254 -0.7354  0.5667
  168MOL0     H23151   5.592   9.264   0.370  2.4515  1.0999 -2.3501
  168MOL0     H23152   5.501   9.320   0.085  0.4254  1.8964  0.3744
  168MOL0     H23153   5.589   9.168   0.117 -1.1515  1.2944 -4.3524
  168MOL0     H23154   5.764   9.322   0.245  2.3822  1.6144 -0.9414
  168MOL0     H23155   5.671   9.457   0.191  1.2292  0.5735 -0.1785
  168MOL0     H23156   5.799   9.238   0.042 -1.3711 -0.5800  0.8231
  168MOL0     H23157   5.737   9.378  -0.050  1.0722  0.4254  0.0394
  168MOL0     H23158   5.900   9.521   0.111  0.9217 -0.3942  0.9452
  168MOL0     H23159   5.959   9.452  -0.039  3.2020 -2.7667  0.3792
  168MOL0     H23160   6.029   9.245   0.119  3.2636 -0.7134  2.6176
  168MOL0     H23161   5.991   9.355   0.241  0.6066 -0.2944 -0.4676
  168MOL0     H23162   6.232   9.355   0.181 -4.2152 -0.1111  5.0046
  168MOL0     H23163   6.157   9.509   0.139  0.1489  0.6064 -2.6696
  168MOL0     H23164   5.268   9.062   0.672 -0.7971  0.0171  0.9860
  168MOL0     H23165   5.136   8.872   0.738 -1.4944  1.3430 -0.0357
  168MOL0     H23166   4.997   8.477   0.727 -0.0475 -0.5650 -0.2110
  168MOL0     H23167   4.849   8.285   0.781 -2.2221 -0.3617  0.5761
  168MOL0     H23168   3.738   7.245   1.348  0.9582 -0.6962  0.5315
  168MOL0     H23169   3.553   7.310   1.513 -0.4989  3.2113 -2.3339
  168MOL0     H23170   3.443   7.417   1.755  0.5321  1.4807  1.5690
  168MOL0     H23171   3.371   7.484   1.976  0.1908  2.1400 -2.8542
  168MOL0     H23172   2.943   7.314   2.096 -0.7650  0.9195 -1.4737
  168MOL0     H23173   2.975   7.403   2.235  1.1870  0.7051 -0.5430
  168MOL0     H23174   2.810   7.529   2.091 -0.7936 -0.8159  0.8536
  168MOL0     H23175   2.940   7.550   1.971  3.8608  0.7079  0.7510
  168MOL0     H23176   2.971   7.650   2.261 -0.8556 -0.6890  1.2948
  168MOL0     H23177   3.059   7.687   2.112 -1.7455  1.2249 -2.1007
  168MOL0     H23178   2.845   7.775   2.013 -1.9539 -1.2486  0.8082
  168MOL0     H23179   2.933   7.879   2.122  1.5642 -0.8388  0.3433
  168MOL0     H23180   2.546   7.812   2.316 -1.6721  0.1835 -2.1010
  168MOL0     H23181   2.982   7.310   1.883 -0.8090  1.9396  1.3900
  168MOL0     H23182   2.933   7.241   1.690  0.8023 -1.0407 -0.3375
  168MOL0     H23183   3.003   7.337   1.550  2.3400 -0.6566 -0.4332
  168MOL0     H23184   3.050   7.171   1.582  0.0019 -0.1956 -1.2117
  169MOL0     O23185   2.995   9.111  10.248  0.3020  0.7362 -0.3556
  169MOL0     C23186   3.076   9.152  10.169 -0.4678 -0.7042 -0.2641
  169MOL0     O23187   3.203   9.190  10.198  0.2008 -0.3382 -0.1771
  169MOL0     C23188   3.235   9.254  10.314  0.3011  0.4730  0.1217
  169MOL0     C23189   3.141   9.327  10.394 -0.0397 -0.7887 -0.1879
  169MOL0     C23190   3.185   9.383  10.517  0.2190 -0.4386  0.6180
  169MOL0     C23191   3.306   9.346  10.567 -0.1347 -0.1346  0.6092
  169MOL0     O23192   3.350   9.386  10.691  0.5791  0.4272  0.1088
  169MOL0     C23193   3.283   9.303  10.786 -0.0441  0.8633  1.4289
  169MOL0     C23194   3.360   9.306  10.916  0.4740 -0.6702  0.0419
  169MOL0     C23195   3.467   9.193  10.912  0.3702  0.4383  0.4568
  169MOL0     C23196   3.565   9.212  11.023 -0.6367 -0.1385 -0.3185
  169MOL0     C23197   3.695   9.127  10.998 -0.2005 -0.6440 -0.1339
  169MOL0     C23198   3.809   9.175  11.097  0.4961  0.0321  1.1781
  169MOL0     C23199   3.917   9.065  11.112 -0.4944 -0.5554  0.4150
  169MOL0     C23200   4.035   9.096  11.012 -0.1175 -0.3770 -0.2452
  169MOL0     N23201   4.177   9.047  11.047  0.1540 -0.4290 -0.1277
  169MOL0     C23202   4.241   8.936  10.992  0.3072 -0.2842 -0.0042
  169MOL0     C23203   4.374   8.945  11.028 -0.0620 -0.4431  0.4903
  169MOL0     C23204   4.495   8.856  11.006 -0.1748 -0.0023  0.4546
  169MOL0     C23205   4.629   8.915  11.059  0.6626  0.2081 -0.1448
  169MOL0     C23206   4.749   8.827  11.021  0.3188  0.2651 -0.3077
  169MOL0     C23207   4.881   8.899  11.053 -0.1946  0.0573  0.0784
  169MOL0     O23208   4.993   8.813  11.017  0.1578  0.5910  0.6460
  169MOL0     C23209   5.111   8.872  11.052 -0.4700  0.1560  0.8657
  169MOL0     C23210   5.156   8.897  11.182 -0.3252  0.0562  0.0407
  169MOL0     C23211   5.283   8.964  11.209  0.5999  1.9579 -0.9351
  169MOL0     C23212   5.324   8.972  11.356 -0.4059  0.3604  0.1407
  169MOL0     C23213   5.366   9.015  11.098 -0.0142 -0.4227 -0.2796
  169MOL0     C23214   5.491   9.091  11.112 -0.5291 -0.7923 -0.0961
  169MOL0     O23215   5.549   9.134  10.992 -0.0307  0.1065  0.2648
  169MOL0     C23216   5.664   9.217  10.996  0.8809  0.3370 -0.6844
  169MOL0     C23217   5.776   9.172  11.069 -0.5407 -0.2084 -0.3094
  169MOL0     C23218   5.896   9.251  11.076  0.1088  0.4323 -0.7875
  169MOL0     C23219   5.904   9.371  11.011 -0.0511 -0.0183  0.1182
  169MOL0     O23220   6.018   9.453  11.013  0.1897  0.1268 -0.3154
  169MOL0     C23221   6.128   9.383  10.957  0.5361 -0.3065 -0.1073
  169MOL0     C23222   6.251   9.472  10.959  0.0373 -0.8169 -0.8692
  169MOL0     C23223   6.237   9.567  10.833 -0.3633  0.3134 -0.1085
  169MOL0     C23224   6.302   9.509  10.703  0.0706  0.7625 -0.0817
  169MOL0     C23225   6.290   9.610  10.593 -0.3072 -0.3532  0.3069
  169MOL0     C23226   6.336   9.753  10.631 -0.2999 -0.4047 -0.1211
  169MOL0     C23227   6.371   9.821  10.498  0.0099 -0.2676 -0.6437
  169MOL0     C23228   6.262   9.841  10.392  0.2502  0.3064 -0.3864
  169MOL0    Cl23229   6.124   9.926  10.457  0.2032  0.0091 -0.1920
  169MOL0     C23230   5.797   9.416  10.940  0.1231 -0.2327 -0.5346
  169MOL0     C23231   5.676   9.340  10.934  0.0883 -0.1959 -0.2817
  169MOL0     O23232   5.537   9.112  11.226 -0.2747 -0.4218 -0.0165
  169MOL0     C23233   5.324   8.981  10.968 -0.0578  0.4566 -0.3436
  169MOL0     C23234   5.198   8.915  10.947 -0.3066  0.3295 -0.6831
  169MOL0     N23235   4.389   9.058  11.100  1.1488 -0.0642  0.3560
  169MOL0     N23236   4.278   9.119  11.106 -0.0590 -0.5621  0.1761
  169MOL0     C23237   3.403   9.280  10.495 -0.1793  0.0636  1.3686
  169MOL0     C23238   3.363   9.240  10.360  1.0670 -0.7213  0.5548
  169MOL0     C23239   3.028   9.165  10.026  1.0440 -0.1640  0.9712
  169MOL0     C23240   3.114   9.234   9.932 -0.6802  0.2584  0.0524
  169MOL0     C23241   3.087   9.236   9.790  0.0154 -0.3577 -0.0456
  169MOL0     C23242   2.971   9.181   9.745 -0.1704  0.1693  0.1094
  169MOL0     O23243   2.919   9.196   9.617  0.2984 -0.2032 -0.2649
  169MOL0     C23244   2.874   9.322   9.575 -0.0455  1.1527 -0.7919
  169MOL0     C23245   2.723   9.333   9.607  0.5958 -0.0045  0.1254
  169MOL0     C23246   2.672   9.473   9.573  0.2160  0.0716  0.0502
  169MOL0     C23247   2.534   9.479   9.646  0.4156 -0.5225 -0.7211
  169MOL0     C23248   2.435   9.387   9.592 -0.4651 -0.3459  0.3284
  169MOL0     C23249   2.343   9.311   9.574  0.6748 -0.5447  0.0517
  169MOL0     C23250   2.879   9.130   9.837 -0.0879 -0.8297 -0.2392
  169MOL0     C23251   2.907   9.111   9.977  0.0867  0.6810  0.0915
  169MOL0     C23252   2.803   9.038  10.056  0.6963  0.0456  0.3413
  169MOL0     H23253   3.034   9.344  10.386 -0.1952 -0.0039  2.4735
  169MOL0     H23254   3.110   9.429  10.581  0.1414 -0.0028  0.2210
  169MOL0     H23255   3.286   9.200  10.749  0.3907  1.3252  0.1110
  169MOL0     H23256   3.178   9.331  10.798 -0.9847 -0.7356 -1.8141
  169MOL0     H23257   3.409   9.401  10.942  1.3785 -1.6895  2.3178
  169MOL0     H23258   3.288   9.281  10.995  0.3031 -3.5851 -0.9187
  169MOL0     H23259   3.419   9.095  10.914  3.1928 -1.0509 -0.5077
  169MOL0     H23260   3.517   9.195  10.815  1.8115 -1.0611  1.1300
  169MOL0     H23261   3.592   9.318  11.030  1.5373 -0.6199 -0.5703
  169MOL0     H23262   3.530   9.181  11.121 -1.2034  0.7140 -0.2391
  169MOL0     H23263   3.743   9.152  10.903 -0.7118  0.8397 -0.0284
  169MOL0     H23264   3.668   9.021  10.993  0.0925 -0.6786 -1.7470
  169MOL0     H23265   3.851   9.265  11.051 -0.7168  0.4774  0.8985
  169MOL0     H23266   3.767   9.185  11.197 -3.3512  0.1761 -0.2691
  169MOL0     H23267   3.886   8.962  11.095  3.0276 -1.6876 -0.1071
  169MOL0     H23268   3.956   9.076  11.214  0.9285  2.1429 -0.3033
  169MOL0     H23269   4.013   9.064  10.909 -1.1942  0.4489 -0.2810
  169MOL0     H23270   4.059   9.202  11.005  2.2124 -0.8840 -1.2526
  169MOL0     H23271   4.191   8.854  10.942  2.0220 -0.8754 -0.8426
  169MOL0     H23272   4.502   8.834  10.899  0.7932 -0.5944  0.6244
  169MOL0     H23273   4.486   8.761  11.060 -3.6263  1.2559  2.4190
  169MOL0     H23274   4.656   9.016  11.027 -2.2882  1.4872  0.9899
  169MOL0     H23275   4.615   8.919  11.168 -0.2965  0.7223 -0.2766
  169MOL0     H23276   4.745   8.736  11.081 -1.7545  1.1711  1.0489
  169MOL0     H23277   4.742   8.803  10.915  0.9195 -3.8485  0.4278
  169MOL0     H23278   4.877   8.993  10.997  1.2045  0.2980  0.3460
  169MOL0     H23279   4.886   8.910  11.161 -0.4796 -2.2304  0.3600
  169MOL0     H23280   5.103   8.853  11.266  2.9842 -1.1080  1.7061
  169MOL0     H23281   5.343   9.075  11.389  1.0696 -0.6287  2.6821
  169MOL0     H23282   5.408   8.909  11.385 -0.1796  0.1946 -0.8266
  169MOL0     H23283   5.242   8.944  11.423 -0.0987  0.2492  0.4720
  169MOL0     H23284   5.773   9.075  11.118 -2.5578  0.1460  0.3699
  169MOL0     H23285   5.981   9.215  11.134 -1.8958 -3.0943  0.3284
  169MOL0     H23286   6.159   9.307  11.029  2.0700  0.0711 -0.3326
  169MOL0     H23287   6.095   9.345  10.860 -2.9767 -0.1886  0.8981
  169MOL0     H23288   6.254   9.517  11.058  2.0241 -2.9292  0.1291
  169MOL0     H23289   6.347   9.420  10.959 -0.7857 -2.4431  0.9205
  169MOL0     H23290   6.277   9.667  10.850 -2.5271  1.8354 -3.0146
  169MOL0     H23291   6.131   9.578  10.809 -0.1035 -1.2564 -2.3311
  169MOL0     H23292   6.255   9.412  10.683  0.7926  0.1764  0.9627
  169MOL0     H23293   6.407   9.490  10.728 -0.5709  0.0534  2.3710
  169MOL0     H23294   6.350   9.566  10.513  0.3229 -0.8655  1.0528
  169MOL0     H23295   6.189   9.616  10.552 -0.5317  0.4373  0.9535
  169MOL0     H23296   6.424   9.758  10.697 -0.1605 -0.5333 -0.2951
  169MOL0     H23297   6.249   9.790  10.686 -0.0533 -1.3170  0.9192
  169MOL0     H23298   6.454   9.764  10.455 -1.8403 -2.0848 -2.0068
  169MOL0     H23299   6.403   9.919  10.534 -0.2332 -0.8365  1.2031
  169MOL0     H23300   6.225   9.749  10.346  3.8248 -0.0606 -2.9463
  169MOL0     H23301   6.312   9.901  10.315  0.3237  0.2579 -0.3777
  169MOL0     H23302   5.812   9.506  10.880  1.1993 -1.8624 -2.8905
  169MOL0     H23303   5.594   9.380  10.876 -0.8062 -1.1437  0.3038
  169MOL0     H23304   5.384   9.008  10.882  3.2226 -1.7796  1.0162
  169MOL0     H23305   5.176   8.909  10.841 -1.3098  3.8931 -0.7967
  169MOL0     H23306   3.509   9.259  10.510 -0.0020 -2.3540 -2.1011
  169MOL0     H23307   3.440   9.206  10.291  1.0496  2.6611 -1.3481
  169MOL0     H23308   3.208   9.280   9.961 -0.3820  0.7344 -1.5859
  169MOL0     H23309   3.151   9.275   9.712 -1.2003  1.5723 -0.1365
  169MOL0     H23310   2.931   9.402   9.625  2.2017 -0.7426 -0.1615
  169MOL0     H23311   2.889   9.321   9.467  0.0077 -2.6542 -0.8812
  169MOL0     H23312   2.713   9.304   9.713 -0.1240 -0.8982 -0.1716
  169MOL0     H23313   2.665   9.261   9.549 -0.2828  0.5556  0.2973
  169MOL0     H23314   2.745   9.550   9.600  2.5264 -1.5985 -1.0674
  169MOL0     H23315   2.643   9.485   9.469  2.4169  0.6988 -0.5486
  169MOL0     H23316   2.508   9.585   9.640  0.6115 -0.4741 -0.7372
  169MOL0     H23317   2.555   9.458   9.752  2.6627 -0.6034 -1.1294
  169MOL0     H23318   2.276   9.232   9.547 -0.6933  0.8187 -0.6573
  169MOL0     H23319   2.779   9.097   9.809 -0.1468  0.0132 -1.0704
  169MOL0     H23320   2.862   8.951  10.087  0.4889 -0.9177 -1.7833
  169MOL0     H23321   2.767   9.105  10.134  0.2527 -0.0868  0.2542
  169MOL0     H23322   2.717   9.003   9.996  0.3404  1.4865 -0.0153
  170MOL0     O23323   9.521   1.135   2.381 -0.1023  0.1958 -0.5335
  170MOL0     C23324   9.483   1.068   2.480 -0.2275 -0.8976  0.4365
  170MOL0     O23325   9.564   1.001   2.560 -0.7232  0.5070 -0.6196
  170MOL0     C23326   9.694   1.021   2.547 -0.2348  0.1783  0.0248
  170MOL0     C23327   9.760   1.067   2.657 -0.7205  0.3349 -0.3309
  170MOL0     C23328   9.897   1.081   2.652 -0.4980  0.4977 -0.2594
  170MOL0     C23329   9.970   1.069   2.534  0.1854  0.2784  0.5852
  170MOL0     O23330  10.103   1.095   2.531 -0.2108 -0.2637  0.3605
  170MOL0     C23331  10.196   1.049   2.435 -0.7212  0.1294 -0.1102
  170MOL0     C23332  10.339   1.094   2.472  0.0423  0.5731  0.1352
  170MOL0     C23333  10.450   0.993   2.446 -0.3988  0.5278 -0.4145
  170MOL0     C23334  10.591   1.049   2.472  0.9075  0.7801 -0.0931
  170MOL0     C23335  10.690   0.950   2.404 -0.5888  0.0974 -0.2123
  170MOL0     C23336  10.838   0.994   2.441 -0.2131  0.1956  0.2194
  170MOL0     C23337  10.942   0.889   2.403 -0.3124 -0.8560  0.3856
  170MOL0     C23338  11.088   0.936   2.424  0.5088 -0.4214  0.0231
  170MOL0     N23339  11.136   0.938   2.563 -0.5663 -0.0750 -0.4584
  170MOL0     C23340  11.224   0.838   2.620 -0.6786  1.2034 -0.6025
  170MOL0     C23341  11.272   0.907   2.723  0.1123 -0.6621  0.1755
  170MOL0     C23342  11.358   0.850   2.837  0.5626  0.5405  0.4200
  170MOL0     C23343  11.473   0.941   2.880 -0.6393 -0.1382  0.1521
  170MOL0     C23344  11.566   0.855   2.957 -1.0916 -0.8550 -0.3017
  170MOL0     C23345  11.677   0.949   3.011 -0.2415  0.3559  0.0121
  170MOL0     O23346  11.615   1.037   3.098  0.1306  0.0944 -0.5062
  170MOL0     C23347  11.693   1.125   3.171 -0.3172  1.0653 -0.3371
  170MOL0     C23348  11.635   1.163   3.293 -0.2991  0.6874  0.0372
  170MOL0     C23349  11.691   1.245   3.388  0.5368  0.5656  0.0398
  170MOL0     C23350  11.618   1.258   3.523 -0.1106 -0.6797 -0.0063
  170MOL0     C23351  11.809   1.308   3.356  0.6775 -0.5916  0.1603
  170MOL0     C23352  11.891   1.395   3.446 -0.3236  0.8215 -0.2332
  170MOL0     O23353  11.833   1.441   3.562  0.5532 -0.2611 -0.1006
  170MOL0     C23354  11.887   1.546   3.635 -0.1591  0.6159  0.1921
  170MOL0     C23355  12.020   1.548   3.681  0.3805  0.3210 -0.3722
  170MOL0     C23356  12.062   1.664   3.738 -0.0815  0.3199 -0.1130
  170MOL0     C23357  11.988   1.779   3.754 -0.3397  0.9753  0.1364
  170MOL0     O23358  12.040   1.889   3.821  0.2086 -0.2844  0.1543
  170MOL0     C23359  12.084   1.999   3.738  0.3559  0.2359 -0.0360
  170MOL0     C23360  12.228   2.004   3.718 -0.0102  1.1836  0.9061
  170MOL0     C23361  12.298   2.028   3.849 -0.8339 -0.2773  0.0068
  170MOL0     C23362  12.454   2.010   3.830 -0.0641 -0.1922 -0.2495
  170MOL0     C23363  12.526   2.026   3.959 -0.2490  0.0454 -0.1395
  170MOL0     C23364  12.675   2.053   3.925 -0.2254 -0.4168 -0.4470
  170MOL0     C23365  12.750   2.080   4.051  0.7010  0.6518 -0.5818
  170MOL0     C23366  12.896   2.119   4.017  0.1956 -0.8202  0.0586
  170MOL0    Cl23367  12.996   2.084   4.156 -0.1395  0.1434 -0.2289
  170MOL0     C23368  11.850   1.775   3.711  0.2981  0.1940 -0.1428
  170MOL0     C23369  11.807   1.657   3.655 -0.2370 -0.2222  0.0310
  170MOL0     O23370  12.010   1.410   3.411  0.4110 -0.1301  0.3875
  170MOL0     C23371  11.876   1.272   3.232 -0.0800 -0.1711 -1.0993
  170MOL0     C23372  11.817   1.182   3.141 -0.6037 -0.5811  0.0264
  170MOL0     N23373  11.224   1.038   2.726  0.2307  1.2270 -0.0554
  170MOL0     N23374  11.139   1.053   2.639  0.2551 -0.3267 -0.3745
  170MOL0     C23375   9.898   1.026   2.423 -0.6573 -0.6332  0.6043
  170MOL0     C23376   9.761   1.000   2.430  0.1426 -0.3242 -0.0418
  170MOL0     C23377   9.335   1.054   2.500 -0.1962 -0.5230  0.1569
  170MOL0     C23378   9.291   0.969   2.597 -0.1013 -0.7477  0.8345
  170MOL0     C23379   9.151   0.932   2.615 -0.9076  0.0257 -0.4990
  170MOL0     C23380   9.052   0.997   2.551  0.3600  0.5651 -0.1157
  170MOL0     O23381   8.924   0.955   2.579 -0.5952 -0.7079  0.6904
  170MOL0     C23382   8.824   1.030   2.508  0.1474  0.0724 -0.0767
  170MOL0     C23383   8.680   0.984   2.553  0.9438 -0.5813 -0.3786
  170MOL0     C23384   8.646   0.953   2.695 -0.9329  0.0347 -0.4997
  170MOL0     C23385   8.500   0.925   2.709  0.3493  0.0864 -0.4061
  170MOL0     C23386   8.453   0.936   2.848 -0.5335 -0.5921 -0.0450
  170MOL0     C23387   8.426   0.919   2.964  0.3844  0.4646 -0.6419
  170MOL0     C23388   9.096   1.094   2.455  1.1054  0.5215  0.0973
  170MOL0     C23389   9.232   1.119   2.424  0.2645  0.0029  0.2232
  170MOL0     C23390   9.260   1.232   2.325  0.7576 -0.2915  0.3314
  170MOL0     H23391   9.704   1.096   2.745 -2.4716 -1.7685 -0.6770
  170MOL0     H23392   9.970   1.113   2.726  1.0698 -1.2108 -0.9613
  170MOL0     H23393  10.162   1.073   2.334  1.3404 -1.5627 -1.2878
  170MOL0     H23394  10.196   0.939   2.441 -0.8718  0.1282 -0.1359
  170MOL0     H23395  10.364   1.184   2.413  1.3009 -0.4590 -0.9759
  170MOL0     H23396  10.332   1.124   2.577 -0.4214 -0.0383  0.2816
  170MOL0     H23397  10.424   0.903   2.502 -0.1790  0.3188 -0.6444
  170MOL0     H23398  10.449   0.960   2.341 -0.0663 -2.4367  0.4118
  170MOL0     H23399  10.580   1.147   2.425 -3.6418  0.5079 -0.1189
  170MOL0     H23400  10.614   1.062   2.578 -2.4122  0.9596  0.7392
  170MOL0     H23401  10.674   0.940   2.296 -0.1517  1.1381 -0.3865
  170MOL0     H23402  10.670   0.852   2.449  0.9008  0.1117  0.5440
  170MOL0     H23403  10.858   1.092   2.395 -0.1525 -0.9666 -2.4451
  170MOL0     H23404  10.843   1.011   2.548 -1.0659  2.6052 -0.0584
  170MOL0     H23405  10.938   0.866   2.296  2.7844 -0.2950  0.0364
  170MOL0     H23406  10.919   0.795   2.455  2.0516 -0.0052  3.2616
  170MOL0     H23407  11.157   0.876   2.362  0.7982  0.1034 -0.1671
  170MOL0     H23408  11.102   1.037   2.386  2.8703 -0.0845  1.5464
  170MOL0     H23409  11.241   0.739   2.578  2.1859  3.0958 -4.4836
  170MOL0     H23410  11.401   0.754   2.807 -0.8196 -0.7340  2.3744
  170MOL0     H23411  11.293   0.827   2.921  0.6986 -2.3061 -0.1424
  170MOL0     H23412  11.527   0.972   2.790  1.2965 -2.2910  0.4640
  170MOL0     H23413  11.442   1.027   2.939  0.5948  0.8556 -0.6085
  170MOL0     H23414  11.518   0.810   3.044 -1.3878  2.7515  1.6233
  170MOL0     H23415  11.614   0.782   2.892  0.4416  1.2987 -1.7319
  170MOL0     H23416  11.758   0.890   3.054  0.2923  1.6200  0.8296
  170MOL0     H23417  11.722   1.010   2.932 -1.3391  1.6435  0.3291
  170MOL0     H23418  11.536   1.123   3.310 -1.1037  2.6508  0.2507
  170MOL0     H23419  11.557   1.169   3.544  1.8617 -2.0351  0.2008
  170MOL0     H23420  11.569   1.356   3.521  1.9738  0.4759  1.9347
  170MOL0     H23421  11.686   1.253   3.608 -2.7381 -1.8238  2.1631
  170MOL0     H23422  12.089   1.465   3.665 -0.2554  0.2759 -3.6250
  170MOL0     H23423  12.159   1.671   3.787 -1.0703  5.8971  1.6978
  170MOL0     H23424  12.030   2.000   3.642 -2.3675 -0.0840  1.3822
  170MOL0     H23425  12.055   2.094   3.785  0.3478  0.1767  0.0781
  170MOL0     H23426  12.252   1.920   3.652  0.4041  2.5238 -0.7366
  170MOL0     H23427  12.241   2.095   3.659 -4.6463  1.3911 -0.2100
  170MOL0     H23428  12.265   1.959   3.927 -3.9424 -1.3965 -2.1117
  170MOL0     H23429  12.270   2.125   3.890 -2.7571  0.1980 -2.2277
  170MOL0     H23430  12.484   2.076   3.748 -0.5394 -0.7834 -0.9053
  170MOL0     H23431  12.471   1.907   3.799 -0.0985 -0.7692  1.5530
  170MOL0     H23432  12.488   2.118   4.006 -0.4272 -0.4665  0.7440
  170MOL0     H23433  12.518   1.939   4.025  0.3086  0.7539  0.8868
  170MOL0     H23434  12.683   2.128   3.846 -0.5176  0.3571  0.2436
  170MOL0     H23435  12.707   1.956   3.886  1.1743 -0.5331  0.8903
  170MOL0     H23436  12.754   1.993   4.118  1.1623  2.8067  2.3889
  170MOL0     H23437  12.703   2.157   4.112  2.6741  0.4426  1.3379
  170MOL0     H23438  12.904   2.221   3.979 -3.8460 -0.4001 -0.0238
  170MOL0     H23439  12.933   2.055   3.936  1.1276  0.1072 -0.2771
  170MOL0     H23440  11.785   1.861   3.721  0.6254  0.4024  0.2258
  170MOL0     H23441  11.710   1.655   3.605 -1.6771  0.4389  2.5982
  170MOL0     H23442  11.971   1.318   3.205  0.1460  0.7386  1.0613
  170MOL0     H23443  11.845   1.170   3.037 -0.7346  2.5146 -0.4751
  170MOL0     H23444   9.950   1.012   2.328 -2.5910 -1.5861 -0.3723
  170MOL0     H23445   9.709   0.968   2.341  0.6095 -1.1230 -0.0322
  170MOL0     H23446   9.354   0.920   2.671  1.0718  2.0798  1.8532
  170MOL0     H23447   9.121   0.855   2.686  1.2542 -0.2937  0.1454
  170MOL0     H23448   8.830   1.130   2.553 -2.0788 -0.5503  1.7605
  170MOL0     H23449   8.836   1.044   2.400  1.0031 -0.5246 -0.0650
  170MOL0     H23450   8.657   0.891   2.501  1.0355 -0.4622 -0.6354
  170MOL0     H23451   8.604   1.059   2.530 -1.6744 -3.1698 -0.6968
  170MOL0     H23452   8.685   0.860   2.737 -0.8668  0.3378  0.1194
  170MOL0     H23453   8.681   1.037   2.756 -0.5113 -0.6047  0.1535
  170MOL0     H23454   8.480   0.821   2.681 -1.1201  0.8571 -2.4449
  170MOL0     H23455   8.444   0.991   2.643 -1.0765 -0.0087  0.6430
  170MOL0     H23456   8.378   0.899   3.057 -1.3407  1.4373 -1.2884
  170MOL0     H23457   9.022   1.153   2.402  0.2156  0.6718  1.4604
  170MOL0     H23458   9.319   1.310   2.374  1.6790 -0.7684  0.0070
  170MOL0     H23459   9.302   1.189   2.234 -0.3775 -2.8178  0.9049
  170MOL0     H23460   9.157   1.265   2.305 -0.5430 -2.4000  2.8437
  171MOL0     O23461   0.106   1.263   1.951 -0.8484 -0.4210  0.1916
  171MOL0     C23462   0.184   1.229   1.869 -0.6407  0.0115  0.4841
  171MOL0     O23463   0.308   1.193   1.888  0.1714  0.2476  0.8030
  171MOL0     C23464   0.376   1.185   2.009 -0.0860  0.4026  0.0139
  171MOL0     C23465   0.364   1.285   2.104  0.4615 -0.7065  0.3365
  171MOL0     C23466   0.441   1.296   2.217 -0.5083  0.5061 -0.0876
  171MOL0     C23467   0.547   1.206   2.236 -0.1974 -0.3403  0.2388
  171MOL0     O23468   0.625   1.224   2.347  0.0736 -0.2967 -0.1825
  171MOL0     C23469   0.755   1.168   2.340 -0.6571  0.4904  0.2078
  171MOL0     C23470   0.833   1.212   2.468  0.1636 -0.2241  0.5429
  171MOL0     C23471   0.982   1.180   2.466  0.0396 -0.6882 -0.0790
  171MOL0     C23472   1.044   1.224   2.603  0.2409 -0.4258  0.0979
  171MOL0     C23473   1.187   1.179   2.631 -0.1935  0.5177 -0.1135
  171MOL0     C23474   1.279   1.205   2.508 -0.5366 -0.2217 -0.5538
  171MOL0     C23475   1.428   1.179   2.541 -0.3975  0.2938  0.0626
  171MOL0     C23476   1.504   1.175   2.411  0.2732  0.4797  0.5423
  171MOL0     N23477   1.649   1.189   2.451 -0.2077 -0.1956  0.4662
  171MOL0     C23478   1.716   1.108   2.537 -0.2284 -0.1978 -0.2674
  171MOL0     C23479   1.852   1.117   2.511 -0.2746  0.2358  0.0838
  171MOL0     C23480   1.964   1.054   2.587  0.2909  0.1388  0.4144
  171MOL0     C23481   1.987   0.916   2.537  0.1036 -0.0867 -0.3398
  171MOL0     C23482   2.127   0.861   2.567 -0.2911  0.0691 -0.5969
  171MOL0     C23483   2.178   0.855   2.713  0.3910 -0.2190  0.3705
  171MOL0     O23484   2.315   0.812   2.712 -0.0761 -0.4575 -0.3376
  171MOL0     C23485   2.402   0.852   2.805  0.0316 -0.0475 -0.2416
  171MOL0     C23486   2.538   0.807   2.787  0.9868  0.1061  0.2837
  171MOL0     C23487   2.635   0.837   2.880 -0.0071 -0.4460 -0.8473
  171MOL0     C23488   2.777   0.778   2.854  0.3011 -0.8901 -0.2622
  171MOL0     C23489   2.600   0.910   2.997 -0.3644  0.5027  0.4817
  171MOL0     C23490   2.685   0.928   3.111 -0.4214 -0.5544 -0.1660
  171MOL0     O23491   2.641   0.900   3.235 -0.0570  0.0178 -0.7745
  171MOL0     C23492   2.726   0.910   3.342 -0.4494  0.2238  0.1706
  171MOL0     C23493   2.868   0.897   3.346  0.9601 -0.0266  0.4500
  171MOL0     C23494   2.942   0.910   3.461 -0.0161 -0.2568  0.4816
  171MOL0     C23495   2.875   0.913   3.580  0.3194 -0.6273  0.2647
  171MOL0     O23496   2.939   0.939   3.701 -0.0463 -0.5367 -0.5119
  171MOL0     C23497   3.084   0.924   3.720 -1.1337  0.4897  0.4021
  171MOL0     C23498   3.103   0.956   3.868 -0.3304  0.0892 -0.7294
  171MOL0     C23499   3.061   0.839   3.955  1.0503 -0.4006 -0.9585
  171MOL0     C23500   2.910   0.857   3.985  0.6073 -0.2119  0.0910
  171MOL0     C23501   2.862   0.764   4.101 -0.4263  0.1072  0.0645
  171MOL0     C23502   2.845   0.618   4.055  0.1156 -0.9590 -0.2826
  171MOL0     C23503   2.832   0.535   4.178  0.4273 -1.0892 -0.3094
  171MOL0     C23504   2.784   0.406   4.122 -0.1178  0.7312 -0.2412
  171MOL0    Cl23505   2.919   0.336   4.027  0.2951  0.0716 -0.2231
  171MOL0     C23506   2.733   0.905   3.584  0.1441  0.1513  0.7563
  171MOL0     C23507   2.666   0.912   3.466  0.9540  0.4232 -0.2761
  171MOL0     O23508   2.797   0.977   3.078 -0.4767 -0.0572  0.3002
  171MOL0     C23509   2.463   0.934   3.014  0.0138 -0.1384 -0.4365
  171MOL0     C23510   2.358   0.900   2.927 -0.3414  1.2043 -0.2440
  171MOL0     N23511   1.862   1.204   2.397  1.1876 -0.6207  0.4034
  171MOL0     N23512   1.745   1.236   2.361 -0.3067  0.6518  0.0785
  171MOL0     C23513   0.566   1.103   2.135 -0.0831 -0.6213 -0.5912
  171MOL0     C23514   0.481   1.093   2.025  0.2739 -0.3680  0.2541
  171MOL0     C23515   0.132   1.189   1.740 -0.3528 -0.6290 -0.0384
  171MOL0     C23516   0.150   1.052   1.706 -0.1068  0.4151 -0.0549
  171MOL0     C23517   0.099   1.002   1.585 -0.6356 -0.0070  0.6508
  171MOL0     C23518   0.040   1.083   1.483 -0.2896  0.1213 -0.6490
  171MOL0     O23519  -0.007   1.048   1.359 -0.7077  0.4109  0.0724
  171MOL0     C23520  -0.039   0.913   1.335 -0.0588 -0.3111 -0.1294
  171MOL0     C23521  -0.079   0.890   1.195  0.0893  0.7523 -0.0998
  171MOL0     C23522  -0.194   0.959   1.153  0.5751 -0.2776  0.8566
  171MOL0     C23523  -0.233   0.922   1.013  0.2303  0.2715  0.5769
  171MOL0     C23524  -0.316   1.017   0.938 -0.3605  0.2095  0.5978
  171MOL0     C23525  -0.394   1.082   0.871 -0.7168  0.9983 -0.0010
  171MOL0     C23526   0.039   1.222   1.520  0.5356  0.2508  0.4657
  171MOL0     C23527   0.075   1.278   1.645 -1.3452  0.2158 -0.2802
  171MOL0     C23528   0.076   1.424   1.659  0.1976 -0.5536  0.2180
  171MOL0     H23529   0.292   1.363   2.086  1.2212 -0.0207  0.2262
  171MOL0     H23530   0.417   1.376   2.287 -2.7237 -0.4582  0.3618
  171MOL0     H23531   0.791   1.186   2.239 -0.3555 -0.3660  0.1554
  171MOL0     H23532   0.742   1.060   2.346 -3.3377  0.7998  3.9627
  171MOL0     H23533   0.815   1.317   2.489  1.3282 -0.3798  2.5079
  171MOL0     H23534   0.783   1.150   2.542 -3.0281  2.2395  0.6632
  171MOL0     H23535   1.004   1.073   2.458  2.5738 -0.3421  1.0235
  171MOL0     H23536   1.026   1.236   2.383  0.2155 -0.6689  0.0267
  171MOL0     H23537   1.042   1.333   2.606 -1.1002 -0.4065 -0.7695
  171MOL0     H23538   0.983   1.194   2.689 -0.6146  2.8121  0.7600
  171MOL0     H23539   1.189   1.079   2.675  1.0054  1.2695  1.6496
  171MOL0     H23540   1.226   1.228   2.720  1.2574 -2.6819  1.1973
  171MOL0     H23541   1.249   1.136   2.428  1.8535 -2.5778  0.4098
  171MOL0     H23542   1.258   1.310   2.490  0.5308 -0.2638 -2.2736
  171MOL0     H23543   1.447   1.085   2.594 -1.6151 -1.0297 -1.7249
  171MOL0     H23544   1.456   1.268   2.597 -1.1151  0.5170  0.0835
  171MOL0     H23545   1.485   1.077   2.367  1.9851  0.3639 -0.0039
  171MOL0     H23546   1.471   1.249   2.337  0.2785 -0.4367 -0.4026
  171MOL0     H23547   1.670   1.038   2.606 -0.7090 -1.2742 -1.6217
  171MOL0     H23548   1.953   1.053   2.695 -0.7573  1.3439  0.3405
  171MOL0     H23549   2.055   1.110   2.564  2.8378 -3.4746  0.8756
  171MOL0     H23550   1.913   0.846   2.576  0.5723 -0.8872 -0.8452
  171MOL0     H23551   1.974   0.910   2.428 -2.0177 -0.1176 -0.1228
  171MOL0     H23552   2.126   0.760   2.524 -0.4109  0.0084 -0.4543
  171MOL0     H23553   2.201   0.913   2.506  2.3814  0.1205  2.4462
  171MOL0     H23554   2.191   0.953   2.760  4.8361 -0.1351 -0.6176
  171MOL0     H23555   2.107   0.799   2.775  3.1354 -5.0226 -0.3371
  171MOL0     H23556   2.569   0.742   2.705  1.3381 -2.4084  2.2660
  171MOL0     H23557   2.794   0.700   2.929 -0.7982 -1.7408 -0.8706
  171MOL0     H23558   2.855   0.854   2.870 -0.2988 -0.1236 -0.8930
  171MOL0     H23559   2.790   0.733   2.755  2.5507  0.5619 -0.7264
  171MOL0     H23560   2.912   0.896   3.246 -1.8691  0.0875 -0.8991
  171MOL0     H23561   3.047   0.913   3.435 -0.4692 -1.9069 -1.8010
  171MOL0     H23562   3.123   0.824   3.698  2.1137  2.0165 -1.4876
  171MOL0     H23563   3.149   0.985   3.657  1.0967  0.9350  2.9433
  171MOL0     H23564   3.204   0.991   3.888 -0.6033 -0.6825  2.5881
  171MOL0     H23565   3.043   1.043   3.897  1.1334  0.2412  2.2133
  171MOL0     H23566   3.116   0.832   4.049 -1.3668 -2.2830  0.4512
  171MOL0     H23567   3.076   0.742   3.905 -0.3477 -1.6244  0.8324
  171MOL0     H23568   2.856   0.824   3.896  0.5078 -2.3438  0.8796
  171MOL0     H23569   2.887   0.960   4.013  0.4577 -0.0728 -0.5383
  171MOL0     H23570   2.935   0.762   4.183  1.6056 -2.1040 -1.6531
  171MOL0     H23571   2.763   0.804   4.126 -1.2746 -1.8079 -0.0858
  171MOL0     H23572   2.924   0.595   3.983 -0.3811  0.5807 -1.3836
  171MOL0     H23573   2.756   0.617   3.992 -1.0997  1.0236  1.2451
  171MOL0     H23574   2.747   0.576   4.235 -1.4085  3.4799 -5.3970
  171MOL0     H23575   2.927   0.528   4.231  0.7410 -0.1840 -0.7363
  171MOL0     H23576   2.693   0.419   4.062  0.2661  4.3975 -0.2698
  171MOL0     H23577   2.770   0.333   4.202 -0.0530 -0.4241 -1.2657
  171MOL0     H23578   2.678   0.900   3.678  0.2941 -0.6877  0.8044
  171MOL0     H23579   2.557   0.908   3.466  0.9068  1.2374  1.2150
  171MOL0     H23580   2.434   0.967   3.113 -1.0053 -0.1822 -0.7039
  171MOL0     H23581   2.255   0.900   2.961 -0.2379  1.6564  0.0759
  171MOL0     H23582   0.646   1.031   2.152 -0.6603 -0.7996  1.6703
  171MOL0     H23583   0.485   1.021   1.944  0.8150  2.3904 -2.3381
  171MOL0     H23584   0.192   0.989   1.784 -1.4262  2.2463  2.2794
  171MOL0     H23585   0.110   0.897   1.559  0.9651  0.6827 -1.7425
  171MOL0     H23586   0.050   0.852   1.348  1.9872  2.5285  0.1170
  171MOL0     H23587  -0.119   0.882   1.402 -0.6766  0.9630 -0.2402
  171MOL0     H23588  -0.103   0.784   1.186 -3.8235  1.5985 -2.2638
  171MOL0     H23589   0.009   0.913   1.133 -0.5224 -0.2182 -1.3683
  171MOL0     H23590  -0.275   0.921   1.217  0.2133 -0.8276  0.0843
  171MOL0     H23591  -0.188   1.068   1.159 -0.8633  0.2195 -3.4315
  171MOL0     H23592  -0.287   0.827   1.008 -1.8767  1.4789 -1.4019
  171MOL0     H23593  -0.140   0.914   0.956  0.2387 -1.0950  0.7431
  171MOL0     H23594  -0.450   1.134   0.796  0.3957  0.6323 -1.1150
  171MOL0     H23595  -0.007   1.296   1.455 -3.3748 -0.0315  2.5892
  171MOL0     H23596   0.161   1.462   1.602 -0.0806  2.1369  1.4123
  171MOL0     H23597  -0.022   1.461   1.626 -0.1189  0.1861  1.9043
  171MOL0     H23598   0.098   1.446   1.764 -1.4114 -0.3115  0.5278
  172MOL0     O23599   8.941   2.253   1.212  0.6712  0.2483  0.3889
  172MOL0     C23600   8.871   2.347   1.265 -1.3222 -0.0773  0.3582
  172MOL0     O23601   8.922   2.445   1.341 -0.3389 -0.0718 -0.2724
  172MOL0     C23602   9.045   2.443   1.395 -0.1791 -0.0839 -0.5469
  172MOL0     C23603   9.075   2.350   1.494  0.4989  0.5372 -0.1565
  172MOL0     C23604   9.208   2.354   1.554  0.0915  0.2081  0.4820
  172MOL0     C23605   9.311   2.433   1.501 -1.0325 -0.8357 -0.6544
  172MOL0     O23606   9.436   2.430   1.569  0.1614 -0.3773  0.1678
  172MOL0     C23607   9.538   2.511   1.507  0.1935 -0.2749  0.3840
  172MOL0     C23608   9.600   2.460   1.372  0.2643 -0.6453  0.2236
  172MOL0     C23609   9.687   2.573   1.311  0.1318  0.2300 -0.3553
  172MOL0     C23610   9.773   2.504   1.204  0.5455 -0.4547  0.2715
  172MOL0     C23611   9.827   2.604   1.103  0.2703 -0.2623  0.3618
  172MOL0     C23612   9.920   2.524   1.003 -0.3845 -0.1372 -0.0028
  172MOL0     C23613   9.948   2.606   0.881 -1.0234 -0.9636  0.4688
  172MOL0     C23614  10.026   2.743   0.888 -0.0630  0.2850 -0.3890
  172MOL0     N23615  10.168   2.723   0.926 -0.0422 -1.4278 -0.5556
  172MOL0     C23616  10.210   2.727   1.062 -0.8353 -0.0522  0.0734
  172MOL0     C23617  10.348   2.720   1.053 -0.5677 -0.2779 -0.0142
  172MOL0     C23618  10.440   2.745   1.166 -0.4036  1.0039 -0.4901
  172MOL0     C23619  10.582   2.687   1.140 -0.3906  0.4722  0.5074
  172MOL0     C23620  10.661   2.683   1.273 -0.2964 -0.7756 -0.7830
  172MOL0     C23621  10.801   2.640   1.259 -0.2326 -0.0082  0.4119
  172MOL0     O23622  10.809   2.512   1.195 -1.1002  0.5784  0.4077
  172MOL0     C23623  10.935   2.466   1.160 -0.6367 -0.0529 -0.2079
  172MOL0     C23624  10.950   2.337   1.105  0.2271  0.0089 -0.1185
  172MOL0     C23625  11.077   2.268   1.086 -0.8347 -0.1363  1.3622
  172MOL0     C23626  11.075   2.125   1.046 -0.5640 -0.4345 -0.4794
  172MOL0     C23627  11.190   2.341   1.117 -0.8405 -1.2470 -0.9681
  172MOL0     C23628  11.331   2.282   1.130 -0.0226 -0.3221 -0.1298
  172MOL0     O23629  11.338   2.147   1.162 -0.2775 -0.0538 -0.0802
  172MOL0     C23630  11.467   2.093   1.183  0.0095 -0.6184  0.1936
  172MOL0     C23631  11.513   2.066   1.312  0.3504  0.2336 -0.2832
  172MOL0     C23632  11.634   2.008   1.325  0.1183 -0.0059 -0.1346
  172MOL0     C23633  11.720   1.975   1.217 -0.0099  0.4522 -0.9344
  172MOL0     O23634  11.830   1.905   1.249  0.4512  0.3954  0.0121
  172MOL0     C23635  11.950   1.961   1.206  0.3373  0.0359  0.5400
  172MOL0     C23636  12.068   1.866   1.222 -0.8839  0.1350  0.1758
  172MOL0     C23637  12.076   1.793   1.363 -0.0037  0.5004 -0.3418
  172MOL0     C23638  12.170   1.684   1.370  0.4071  0.1597 -0.1815
  172MOL0     C23639  12.318   1.726   1.382  0.8826  0.4301 -0.3388
  172MOL0     C23640  12.417   1.611   1.371 -0.0745  0.6984 -0.6588
  172MOL0     C23641  12.561   1.650   1.393  0.1028 -0.7153 -0.4774
  172MOL0     C23642  12.667   1.548   1.403  1.0062  1.2142  0.0357
  172MOL0    Cl23643  12.838   1.602   1.387 -0.3991 -0.2345  0.3452
  172MOL0     C23644  11.666   1.998   1.086  0.0623 -0.2141  0.9278
  172MOL0     C23645  11.554   2.074   1.077 -0.0227  0.1403 -0.2623
  172MOL0     O23646  11.433   2.355   1.122  0.3802 -0.4595 -0.0691
  172MOL0     C23647  11.173   2.485   1.139 -0.0922  0.2803 -0.2865
  172MOL0     C23648  11.054   2.546   1.171  0.1785  0.5309  0.2847
  172MOL0     N23649  10.379   2.708   0.923 -0.3740 -0.2778  0.0574
  172MOL0     N23650  10.274   2.708   0.846  0.3425 -0.7896 -0.1452
  172MOL0     C23651   9.279   2.530   1.399 -0.4467  0.6698 -0.0497
  172MOL0     C23652   9.142   2.528   1.349 -0.2289 -0.6509 -0.6007
  172MOL0     C23653   8.729   2.360   1.222 -0.5292  1.1418 -0.3250
  172MOL0     C23654   8.661   2.475   1.256  1.2275  0.5286 -0.5648
  172MOL0     C23655   8.544   2.509   1.201 -0.1465  0.0642  1.0699
  172MOL0     C23656   8.476   2.417   1.118 -0.3055 -0.4319  0.1256
  172MOL0     O23657   8.350   2.436   1.070  1.2494 -0.1709 -0.1185
  172MOL0     C23658   8.299   2.567   1.078  0.5298  0.2632  0.0101
  172MOL0     C23659   8.193   2.580   0.966  0.2310  0.0463  0.5041
  172MOL0     C23660   8.080   2.481   0.981  0.3736  0.4353 -1.9724
  172MOL0     C23661   7.948   2.518   0.906  0.2571  0.2100 -0.2426
  172MOL0     C23662   7.857   2.402   0.925 -0.5484  0.1966  0.3907
  172MOL0     C23663   7.778   2.311   0.943  0.1093 -0.9088  1.0588
  172MOL0     C23664   8.537   2.300   1.086 -0.0470 -0.5422  0.2355
  172MOL0     C23665   8.658   2.263   1.138 -0.0672 -0.3669  0.0342
  172MOL0     C23666   8.718   2.129   1.093 -0.6452  0.1519 -0.4788
  172MOL0     H23667   8.993   2.289   1.532 -0.0484  1.4359  0.1239
  172MOL0     H23668   9.222   2.290   1.641 -0.5728  0.5793  0.8666
  172MOL0     H23669   9.617   2.507   1.582 -1.5831  0.8776  2.4226
  172MOL0     H23670   9.506   2.615   1.493  0.6739 -0.3494 -1.6513
  172MOL0     H23671   9.663   2.375   1.400  1.3763  0.0686 -0.0575
  172MOL0     H23672   9.519   2.426   1.307 -0.4724 -0.5904  1.1056
  172MOL0     H23673   9.625   2.652   1.269  1.1741  2.4731  2.0219
  172MOL0     H23674   9.753   2.619   1.386 -0.7090  2.6639 -1.0292
  172MOL0     H23675   9.853   2.450   1.255 -0.0625 -2.0260 -0.3793
  172MOL0     H23676   9.720   2.430   1.145 -0.2893  1.0540 -0.9495
  172MOL0     H23677   9.895   2.665   1.163  0.8850  1.1353 -1.6291
  172MOL0     H23678   9.742   2.654   1.054  1.7620  2.5633  0.4820
  172MOL0     H23679  10.012   2.493   1.053 -0.4265 -0.5223 -0.1630
  172MOL0     H23680   9.879   2.427   0.977  0.6495 -1.7827  3.7791
  172MOL0     H23681   9.851   2.629   0.836 -0.5160  0.0181 -0.1636
  172MOL0     H23682   9.999   2.539   0.811 -0.8210  0.7855 -1.1250
  172MOL0     H23683  10.011   2.792   0.791 -0.3788  1.7667  0.3805
  172MOL0     H23684   9.979   2.811   0.959 -0.7526  1.0855 -1.5763
  172MOL0     H23685  10.156   2.744   1.155 -0.5564  2.4077 -0.1289
  172MOL0     H23686  10.387   2.713   1.257  1.1215 -0.0625  0.0698
  172MOL0     H23687  10.464   2.851   1.168  0.2007  0.9172 -1.9357
  172MOL0     H23688  10.567   2.586   1.099  1.4030 -1.1135  3.3888
  172MOL0     H23689  10.626   2.753   1.065  3.0847 -2.7014 -0.5631
  172MOL0     H23690  10.668   2.785   1.311  0.8550 -1.2302  0.2974
  172MOL0     H23691  10.609   2.622   1.347  0.3033 -1.4221 -0.8822
  172MOL0     H23692  10.857   2.707   1.192 -1.2036  0.9237  0.5015
  172MOL0     H23693  10.853   2.638   1.355 -0.1943 -0.3162  0.3856
  172MOL0     H23694  10.866   2.284   1.063  0.0857  0.8757 -0.9836
  172MOL0     H23695  11.155   2.084   0.982 -0.9799 -0.9998 -0.6451
  172MOL0     H23696  10.985   2.097   0.991 -0.0064 -0.9160 -1.1806
  172MOL0     H23697  11.074   2.076   1.143  0.6622  1.0172  0.3078
  172MOL0     H23698  11.446   2.072   1.397 -2.6643 -3.6621 -2.0095
  172MOL0     H23699  11.679   1.992   1.423  3.6100  1.9488 -1.2650
  172MOL0     H23700  11.935   1.973   1.099 -4.5664  0.2987  1.0466
  172MOL0     H23701  11.966   2.058   1.254  0.3751 -0.6543  1.9926
  172MOL0     H23702  12.064   1.790   1.144 -0.5784 -0.1921  0.4749
  172MOL0     H23703  12.160   1.922   1.204 -0.7981  0.1769  0.7048
  172MOL0     H23704  11.977   1.751   1.382  0.4665 -0.3254  0.3327
  172MOL0     H23705  12.089   1.862   1.447  1.1807 -1.2171  0.9581
  172MOL0     H23706  12.156   1.626   1.279 -2.6795 -0.9685  0.8751
  172MOL0     H23707  12.155   1.615   1.454 -0.4106  0.2395 -0.2481
  172MOL0     H23708  12.344   1.795   1.301  2.8191  0.6093  0.3834
  172MOL0     H23709  12.342   1.774   1.477  0.1885  2.4372 -1.1306
  172MOL0     H23710  12.402   1.556   1.278 -0.7873 -1.1294  0.4846
  172MOL0     H23711  12.396   1.532   1.443 -0.4450  0.0220 -1.4865
  172MOL0     H23712  12.572   1.714   1.482 -0.8842 -0.2356 -0.6802
  172MOL0     H23713  12.590   1.720   1.315  0.3821  1.9197  1.8148
  172MOL0     H23714  12.647   1.486   1.315 -2.8324  0.6288  1.1695
  172MOL0     H23715  12.660   1.493   1.496  1.1457  0.2266 -0.5254
  172MOL0     H23716  11.714   1.977   0.991  1.0661  1.7603  0.9383
  172MOL0     H23717  11.519   2.123   0.986  0.9117  0.8500 -0.2526
  172MOL0     H23718  11.269   2.535   1.151  2.0581 -3.4500 -0.4138
  172MOL0     H23719  11.064   2.651   1.198 -0.2632  0.6929 -0.1783
  172MOL0     H23720   9.352   2.604   1.370  1.5116 -0.6147  1.3121
  172MOL0     H23721   9.109   2.603   1.278  0.3282  1.1678  0.9670
  172MOL0     H23722   8.705   2.539   1.332  2.8084 -2.4406  1.2312
  172MOL0     H23723   8.496   2.601   1.234 -0.8029  1.6121 -3.4242
  172MOL0     H23724   8.257   2.587   1.177  1.3503 -2.0541  0.9192
  172MOL0     H23725   8.377   2.639   1.054  2.2542 -1.5746 -0.2353
  172MOL0     H23726   8.222   2.594   0.862  0.5741 -1.6544  0.3379
  172MOL0     H23727   8.156   2.683   0.971  1.0254  0.6241 -3.0981
  172MOL0     H23728   8.111   2.381   0.950  1.5836  0.5259 -1.0984
  172MOL0     H23729   8.050   2.473   1.086 -2.3522  1.5204 -2.5611
  172MOL0     H23730   7.972   2.531   0.800  1.3913  0.3731  0.0216
  172MOL0     H23731   7.899   2.611   0.937  0.9283  0.5812 -0.2577
  172MOL0     H23732   7.688   2.253   0.951 -0.9911  0.1411 -2.1264
  172MOL0     H23733   8.485   2.242   1.011 -2.4866  1.3937  0.3275
  172MOL0     H23734   8.788   2.130   1.008 -0.5526 -0.7414 -0.4205
  172MOL0     H23735   8.767   2.071   1.171  1.3346  1.3450 -0.7697
  172MOL0     H23736   8.636   2.074   1.046 -0.3606 -0.3811 -0.3635
  173MOL0     O23737   9.632   3.153   9.930 -0.0983  0.0929 -0.1353
  173MOL0     C23738   9.654   3.045   9.875  0.9107  0.5969 -0.1650
  173MOL0     O23739   9.775   3.005   9.810  0.7212 -0.1516  1.1185
  173MOL0     C23740   9.891   3.081   9.826 -0.3053 -0.5209 -0.3542
  173MOL0     C23741   9.995   3.051   9.735 -0.4876 -0.4700 -0.2999
  173MOL0     C23742  10.117   3.123   9.727  0.8619 -0.1080  0.2381
  173MOL0     C23743  10.131   3.224   9.830 -0.1491  0.6976  0.1092
  173MOL0     O23744  10.246   3.292   9.852  0.3758 -0.1519 -0.8132
  173MOL0     C23745  10.361   3.258   9.783  0.6134  0.2701 -0.1341
  173MOL0     C23746  10.427   3.133   9.843 -0.2500  0.1958  0.6696
  173MOL0     C23747  10.573   3.115   9.791  0.8533  0.6181  0.8209
  173MOL0     C23748  10.634   2.997   9.859 -0.9559  0.3879 -0.4390
  173MOL0     C23749  10.772   2.962   9.813 -0.0529 -0.0836  0.4649
  173MOL0     C23750  10.837   2.839   9.884 -0.3215  0.7632 -0.5755
  173MOL0     C23751  10.983   2.810   9.840  0.1183  0.4545  0.3669
  173MOL0     C23752  11.078   2.928   9.818  0.4819 -0.3127  0.6799
  173MOL0     N23753  11.215   2.877   9.801 -0.2095 -0.3505 -0.1989
  173MOL0     C23754  11.274   2.817   9.700  0.4530  0.2547 -0.6163
  173MOL0     C23755  11.400   2.789   9.743  0.9896 -0.1876  0.4163
  173MOL0     C23756  11.511   2.709   9.669 -0.0541 -0.5260 -0.0405
  173MOL0     C23757  11.594   2.624   9.763  0.0493 -0.6595 -0.5597
  173MOL0     C23758  11.715   2.552   9.702 -0.4349  0.7681  0.3317
  173MOL0     C23759  11.846   2.627   9.675 -0.0335 -0.1261 -0.3561
  173MOL0     O23760  11.936   2.523   9.639 -0.0840 -0.2457  0.1595
  173MOL0     C23761  12.056   2.576   9.587 -0.5746 -0.6401  1.0724
  173MOL0     C23762  12.151   2.481   9.533  0.4788  0.1562  0.3957
  173MOL0     C23763  12.274   2.521   9.484  0.1044  0.4945 -0.8073
  173MOL0     C23764  12.359   2.406   9.445  0.1549  0.5289  1.3245
  173MOL0     C23765  12.313   2.658   9.490  0.8470 -0.1229 -0.2473
  173MOL0     C23766  12.439   2.710   9.441 -0.7094 -0.6810 -0.0225
  173MOL0     O23767  12.555   2.648   9.488  0.3829 -0.8010  0.0564
  173MOL0     C23768  12.675   2.696   9.449 -0.2963 -0.0954 -0.3269
  173MOL0     C23769  12.783   2.705   9.540 -0.5985 -0.4195  0.0939
  173MOL0     C23770  12.910   2.742   9.505 -0.5192  0.1859 -0.7451
  173MOL0     C23771  12.936   2.782   9.377  0.6874  1.0719  0.1233
  173MOL0     O23772  13.063   2.807   9.346  0.2568  0.3306  0.7253
  173MOL0     C23773  13.102   2.863   9.214  0.4264  0.8450 -0.4826
  173MOL0     C23774  13.255   2.880   9.199 -0.1049 -0.2563 -0.2908
  173MOL0     C23775  13.317   2.736   9.198 -0.4855  0.3775  0.9833
  173MOL0     C23776  13.469   2.739   9.207  0.4313  0.0498 -0.0355
  173MOL0     C23777  13.528   2.595   9.188  0.3872 -0.0331  0.1905
  173MOL0     C23778  13.680   2.585   9.191 -0.0771  0.8125  0.2392
  173MOL0     C23779  13.727   2.458   9.125  0.1786 -0.1227  0.4040
  173MOL0     C23780  13.884   2.452   9.132  1.0279  0.3645 -0.3067
  173MOL0    Cl23781  13.940   2.297   9.064  0.2257  0.5929 -0.4491
  173MOL0     C23782  12.830   2.786   9.285 -0.0798  0.0452 -0.5183
  173MOL0     C23783  12.705   2.740   9.318  0.0370  0.5623 -0.0779
  173MOL0     O23784  12.433   2.811   9.362  0.8602 -0.0207 -0.0216
  173MOL0     C23785  12.214   2.750   9.534  0.1632 -0.8101  0.5470
  173MOL0     C23786  12.084   2.714   9.571 -0.4501  1.0381  0.1087
  173MOL0     N23787  11.407   2.832   9.871 -0.2146  0.1670 -0.9675
  173MOL0     N23788  11.293   2.886   9.904 -0.7826 -1.4195  0.7897
  173MOL0     C23789  10.033   3.248   9.919  0.7956 -0.5200 -0.3238
  173MOL0     C23790   9.918   3.176   9.925 -0.1117  1.0590  0.1829
  173MOL0     C23791   9.540   2.950   9.849  0.0767  0.0047 -0.4186
  173MOL0     C23792   9.550   2.863   9.737  0.1517 -0.4826  0.8295
  173MOL0     C23793   9.452   2.767   9.718  0.0929  0.5760 -0.4112
  173MOL0     C23794   9.338   2.754   9.802 -0.1284 -0.0259  0.2601
  173MOL0     O23795   9.240   2.661   9.775 -0.5132 -0.8849  0.2167
  173MOL0     C23796   9.181   2.673   9.645  0.5614 -0.6978 -0.1548
  173MOL0     C23797   9.047   2.594   9.645 -0.2268 -0.3540  0.6270
  173MOL0     C23798   9.066   2.442   9.652  0.2858  0.6663  1.0721
  173MOL0     C23799   8.940   2.364   9.676  0.2521  0.4899  0.0880
  173MOL0     C23800   8.846   2.378   9.558 -0.2974 -0.7966 -0.0149
  173MOL0     C23801   8.783   2.390   9.453 -0.0245  0.3366 -0.9187
  173MOL0     C23802   9.324   2.847   9.909 -0.4608 -0.9858  0.2154
  173MOL0     C23803   9.425   2.943   9.931 -0.5889  0.3930 -1.3989
  173MOL0     C23804   9.402   3.035  10.047  0.1020  0.7016 -0.9086
  173MOL0     H23805   9.974   2.980   9.656  0.3409 -1.0944  0.0294
  173MOL0     H23806  10.179   3.105   9.640  0.0013  3.4304 -1.2815
  173MOL0     H23807  10.429   3.343   9.798 -0.7689  1.3995 -0.0989
  173MOL0     H23808  10.351   3.250   9.675  1.4250  0.2967 -0.2182
  173MOL0     H23809  10.415   3.116   9.950  2.6175 -0.2598  1.0073
  173MOL0     H23810  10.370   3.049   9.802 -1.2527  1.8296 -1.5036
  173MOL0     H23811  10.582   3.097   9.683  0.9507 -1.2702  1.1089
  173MOL0     H23812  10.634   3.203   9.811  0.6713  0.5782  1.5796
  173MOL0     H23813  10.623   3.010   9.967 -0.9370  1.8257 -0.5947
  173MOL0     H23814  10.566   2.914   9.837  1.0119 -1.4038 -0.1367
  173MOL0     H23815  10.846   3.038   9.840  0.9919 -1.6878  2.4033
  173MOL0     H23816  10.767   2.950   9.704  0.9241  3.5653 -0.1334
  173MOL0     H23817  10.826   2.871   9.988 -4.0080 -0.7043 -0.3485
  173MOL0     H23818  10.774   2.750   9.874  1.3989 -0.5367 -0.2595
  173MOL0     H23819  10.970   2.778   9.736 -1.2847 -1.1323  1.0080
  173MOL0     H23820  11.024   2.731   9.903 -3.8444  0.9038  3.9313
  173MOL0     H23821  11.043   2.989   9.735 -2.0755 -3.1594 -0.5234
  173MOL0     H23822  11.075   2.996   9.904  0.7117  3.0701 -1.7945
  173MOL0     H23823  11.229   2.795   9.603 -0.1853 -0.8910 -0.0842
  173MOL0     H23824  11.581   2.782   9.626 -0.1658  0.7160  1.7900
  173MOL0     H23825  11.466   2.638   9.599 -1.8488 -1.6036  2.1098
  173MOL0     H23826  11.635   2.685   9.845  2.6012  0.5865 -2.5871
  173MOL0     H23827  11.519   2.555   9.801 -1.2566  1.7734  1.5920
  173MOL0     H23828  11.738   2.484   9.784  2.1659  0.7421 -0.3145
  173MOL0     H23829  11.687   2.489   9.617 -3.0972  0.8010  1.0998
  173MOL0     H23830  11.820   2.703   9.602  0.4981 -0.0293 -0.4509
  173MOL0     H23831  11.861   2.679   9.770 -1.3087 -1.5638  0.6882
  173MOL0     H23832  12.122   2.377   9.527  1.1547 -0.1053  1.5061
  173MOL0     H23833  12.439   2.437   9.376  1.1119  2.7190  3.2844
  173MOL0     H23834  12.308   2.323   9.395 -3.4659  2.9471  0.6574
  173MOL0     H23835  12.394   2.374   9.543 -0.7414  1.0819  1.8372
  173MOL0     H23836  12.774   2.672   9.643  2.6272 -1.4071  0.1475
  173MOL0     H23837  12.989   2.735   9.579 -0.4781 -0.3890 -0.8368
  173MOL0     H23838  13.058   2.803   9.135 -0.5638 -3.3991  2.8660
  173MOL0     H23839  13.061   2.964   9.212  0.6007  0.9352 -3.8280
  173MOL0     H23840  13.266   2.942   9.109  0.5372 -0.6358 -0.4806
  173MOL0     H23841  13.281   2.929   9.293  2.0853 -1.9537  0.0740
  173MOL0     H23842  13.296   2.704   9.095 -0.3493  0.6648  0.8672
  173MOL0     H23843  13.278   2.663   9.270  1.4285 -2.5056 -0.6916
  173MOL0     H23844  13.504   2.791   9.297  0.4483  0.8876 -0.5156
  173MOL0     H23845  13.497   2.799   9.121 -1.1624  0.9904  0.0696
  173MOL0     H23846  13.496   2.528   9.269  2.0895  1.1306  1.9082
  173MOL0     H23847  13.494   2.548   9.095  0.2930 -0.6837  0.5443
  173MOL0     H23848  13.711   2.596   9.295 -1.9106 -0.5782  1.0057
  173MOL0     H23849  13.713   2.676   9.139 -2.4543  1.0705 -0.9514
  173MOL0     H23850  13.699   2.465   9.019  0.4342  1.8929  0.4335
  173MOL0     H23851  13.679   2.375   9.177  0.9771 -1.4910 -0.9611
  173MOL0     H23852  13.912   2.446   9.237 -1.8862  0.7695  0.5891
  173MOL0     H23853  13.937   2.532   9.078  3.7753 -0.6447  0.6992
  173MOL0     H23854  12.844   2.806   9.179  2.2678 -0.3653 -0.3584
  173MOL0     H23855  12.636   2.741   9.234  0.3037 -1.4044 -0.3692
  173MOL0     H23856  12.240   2.855   9.526  0.6358 -1.0463 -1.6084
  173MOL0     H23857  12.011   2.792   9.587 -1.6445 -0.3599  1.8050
  173MOL0     H23858  10.051   3.325   9.993 -0.8827 -0.6869  0.3091
  173MOL0     H23859   9.843   3.197  10.001 -0.1404 -1.7541  1.0191
  173MOL0     H23860   9.640   2.860   9.675 -1.0172 -1.8446 -0.9007
  173MOL0     H23861   9.451   2.706   9.628 -1.5522 -0.4588  0.2508
  173MOL0     H23862   9.169   2.777   9.614  0.4029 -0.9405 -0.9249
  173MOL0     H23863   9.244   2.625   9.571  1.9705 -1.8607  1.7154
  173MOL0     H23864   8.996   2.615   9.550 -1.2993 -1.0122  1.0433
  173MOL0     H23865   8.985   2.626   9.729 -0.6655 -1.2111  0.6381
  173MOL0     H23866   9.128   2.417   9.565  0.5485  1.8967  0.8838
  173MOL0     H23867   9.120   2.416   9.743 -1.0010  1.6417  2.1395
  173MOL0     H23868   8.898   2.397   9.772 -1.1406 -0.9361  0.0003
  173MOL0     H23869   8.957   2.256   9.689  0.1696  0.7158  2.7516
  173MOL0     H23870   8.736   2.408   9.358  1.3622 -3.8406 -2.5884
  173MOL0     H23871   9.228   2.855   9.959 -0.9641  1.8387 -0.9683
  173MOL0     H23872   9.366   3.131  10.009 -1.6910  1.3902  2.1782
  173MOL0     H23873   9.332   2.996  10.121 -0.8634  2.3557 -0.9095
  173MOL0     H23874   9.493   3.055  10.105  0.8296 -6.2559  1.3667
  174MOL0     O23875   5.068  10.856   3.816 -0.9505 -0.2237  0.2892
  174MOL0     C23876   5.098  10.741   3.840 -0.8421  0.3253 -1.0609
  174MOL0     O23877   5.232  10.697   3.864  0.0046  0.0220 -0.4300
  174MOL0     C23878   5.328  10.786   3.826 -0.3758  0.1424 -0.0782
  174MOL0     C23879   5.377  10.891   3.910 -0.0043  0.2210  1.0023
  174MOL0     C23880   5.488  10.967   3.878  0.2397  0.4028  0.5283
  174MOL0     C23881   5.553  10.941   3.757 -0.2258  0.2705  0.0684
  174MOL0     O23882   5.653  11.020   3.718 -0.3219  0.0783  0.3666
  174MOL0     C23883   5.678  11.033   3.575  0.5689  0.2240 -0.1896
  174MOL0     C23884   5.745  11.172   3.554 -0.0831  0.3974 -0.1152
  174MOL0     C23885   5.896  11.178   3.610  0.0709 -0.1355  0.0926
  174MOL0     C23886   5.989  11.118   3.502 -0.1045 -0.9851  0.2578
  174MOL0     C23887   6.121  11.070   3.564  0.2305  0.9313  0.1929
  174MOL0     C23888   6.214  11.016   3.456 -0.1436  0.0354  0.1410
  174MOL0     C23889   6.341  10.943   3.505 -0.0371  0.3928  0.2823
  174MOL0     C23890   6.414  11.027   3.619  0.0298  0.4442  0.1529
  174MOL0     N23891   6.528  11.095   3.557  0.0809 -0.1555  0.4321
  174MOL0     C23892   6.524  11.190   3.455 -0.0907 -0.1683 -0.1199
  174MOL0     C23893   6.653  11.219   3.432  1.3381 -0.2140 -0.2837
  174MOL0     C23894   6.697  11.327   3.341  0.0581  0.4382  0.0520
  174MOL0     C23895   6.710  11.473   3.395  0.6980  0.5761  0.1751
  174MOL0     C23896   6.761  11.578   3.288  0.4766  0.2079 -0.1789
  174MOL0     C23897   6.902  11.540   3.245  0.5759 -0.2993  0.0969
  174MOL0     O23898   6.956  11.650   3.164 -0.0859 -0.1786  0.0382
  174MOL0     C23899   7.096  11.661   3.149  0.7425 -0.1546  0.1367
  174MOL0     C23900   7.143  11.766   3.072 -0.1190 -0.0084 -0.4735
  174MOL0     C23901   7.282  11.788   3.054 -0.6270 -0.5606 -0.1336
  174MOL0     C23902   7.321  11.893   2.943  0.2531 -0.2634 -1.0665
  174MOL0     C23903   7.376  11.706   3.117 -0.0305  0.0278  0.0876
  174MOL0     C23904   7.523  11.725   3.112 -0.9347 -0.1702  0.3903
  174MOL0     O23905   7.595  11.618   3.153  0.3919 -0.1994  0.0441
  174MOL0     C23906   7.731  11.603   3.142  0.8847  1.1245 -0.5417
  174MOL0     C23907   7.762  11.477   3.086 -0.3717  0.6935 -0.2594
  174MOL0     C23908   7.894  11.448   3.060 -0.1297  0.0640  0.1360
  174MOL0     C23909   7.997  11.539   3.091 -0.1225 -0.1940 -0.5840
  174MOL0     O23910   8.134  11.521   3.075 -0.0271  0.1135 -0.0652
  174MOL0     C23911   8.176  11.412   2.988 -0.5770  0.9320 -0.0990
  174MOL0     C23912   8.328  11.375   3.005  0.6482 -0.0477  0.4012
  174MOL0     C23913   8.414  11.493   2.944 -0.8375  0.4763  0.3002
  174MOL0     C23914   8.566  11.456   2.964 -0.1405 -0.6725  1.1804
  174MOL0     C23915   8.662  11.544   2.881 -0.3694 -0.0615 -0.1524
  174MOL0     C23916   8.633  11.695   2.892 -0.8440 -0.8198  0.4059
  174MOL0     C23917   8.766  11.777   2.871 -0.0352 -0.0811  0.0524
  174MOL0     C23918   8.751  11.926   2.883 -0.2301 -0.2234 -0.6046
  174MOL0    Cl23919   8.902  12.009   2.861 -0.1200  0.1218  0.0159
  174MOL0     C23920   7.960  11.661   3.149 -0.0151 -0.9711 -0.7588
  174MOL0     C23921   7.823  11.689   3.187  0.0259  0.4291  0.2200
  174MOL0     O23922   7.570  11.826   3.053 -0.4421 -0.5403 -0.4380
  174MOL0     C23923   7.327  11.596   3.195 -0.0259 -0.3039  0.1527
  174MOL0     C23924   7.187  11.573   3.204  0.4432  0.1070  0.8856
  174MOL0     N23925   6.732  11.148   3.510  0.2321 -0.0735 -0.4789
  174MOL0     N23926   6.659  11.063   3.578  0.1210  0.3039  0.8187
  174MOL0     C23927   5.497  10.845   3.668 -0.0830  0.6375 -0.1703
  174MOL0     C23928   5.398  10.758   3.705 -0.2198  0.4383 -0.2634
  174MOL0     C23929   4.990  10.648   3.870 -0.1328  0.0314  0.1114
  174MOL0     C23930   4.857  10.694   3.879 -0.2369 -0.2247  0.3347
  174MOL0     C23931   4.742  10.619   3.902 -0.1420 -0.0068 -0.2443
  174MOL0     C23932   4.764  10.484   3.930  0.5542 -0.2804  0.5109
  174MOL0     O23933   4.662  10.394   3.960 -0.4269  0.6926 -0.6232
  174MOL0     C23934   4.522  10.430   3.967  0.9337 -0.0135  0.0603
  174MOL0     C23935   4.440  10.329   4.051  0.5471  0.6401 -0.2048
  174MOL0     C23936   4.435  10.191   3.997  0.6429  0.6258 -0.3270
  174MOL0     C23937   4.359  10.181   3.864 -0.5276 -1.0661 -0.0749
  174MOL0     C23938   4.342  10.038   3.826 -0.1779 -1.0151  0.3834
  174MOL0     C23939   4.320   9.924   3.781 -0.1240  0.4344  0.4776
  174MOL0     C23940   4.899  10.429   3.919 -0.5902 -0.6541  0.0567
  174MOL0     C23941   5.012  10.509   3.882  0.1800 -0.4900 -0.0722
  174MOL0     C23942   5.142  10.436   3.855 -0.5318  0.2876  0.1965
  174MOL0     H23943   5.320  10.900   4.001  1.1384  0.6359  1.7001
  174MOL0     H23944   5.532  11.042   3.943  1.5821 -1.2641  1.6325
  174MOL0     H23945   5.583  11.039   3.520  2.4149  0.9668 -3.5935
  174MOL0     H23946   5.737  10.946   3.545  1.2029 -0.1735  2.0791
  174MOL0     H23947   5.751  11.189   3.446  0.6969  0.8764 -0.0081
  174MOL0     H23948   5.685  11.252   3.599 -1.1593  0.6592 -1.9371
  174MOL0     H23949   5.918  11.281   3.639  0.1523 -0.3561  0.8352
  174MOL0     H23950   5.898  11.122   3.704 -0.1259 -2.5058 -1.2172
  174MOL0     H23951   5.939  11.036   3.448  0.7453 -0.5202 -1.2926
  174MOL0     H23952   6.018  11.190   3.425 -0.6933 -2.2722 -1.2420
  174MOL0     H23953   6.103  11.004   3.648 -1.5790  1.6725  0.4406
  174MOL0     H23954   6.162  11.152   3.623  1.7479 -2.4607  4.3445
  174MOL0     H23955   6.151  10.946   3.400  0.5508  0.2095 -0.8973
  174MOL0     H23956   6.246  11.098   3.390 -1.3534  0.6501  0.2845
  174MOL0     H23957   6.413  10.911   3.429  0.7441 -1.6874  1.7766
  174MOL0     H23958   6.318  10.842   3.543  2.0663  0.0717  0.8292
  174MOL0     H23959   6.349  11.102   3.666 -0.4546  1.0539 -1.4265
  174MOL0     H23960   6.456  10.947   3.680  1.8218 -0.0219 -1.5726
  174MOL0     H23961   6.447  11.233   3.392  1.3669  1.5051 -0.8387
  174MOL0     H23962   6.631  11.316   3.254 -1.7633 -2.4849  1.6565
  174MOL0     H23963   6.793  11.296   3.298 -0.8382 -0.4009 -1.4090
  174MOL0     H23964   6.615  11.507   3.437  0.5562 -2.1021  2.3121
  174MOL0     H23965   6.770  11.486   3.486 -1.6111  3.4166  1.4522
  174MOL0     H23966   6.701  11.592   3.198 -0.4172  0.1398  0.3933
  174MOL0     H23967   6.763  11.679   3.330 -0.6212 -0.1000  0.6473
  174MOL0     H23968   6.966  11.527   3.333 -2.8156 -0.7361  2.7267
  174MOL0     H23969   6.905  11.448   3.186  2.5203 -0.0624 -0.2462
  174MOL0     H23970   7.068  11.828   3.023  0.7558  1.2704 -0.2675
  174MOL0     H23971   7.399  11.966   2.965 -1.2172  0.9876  0.2626
  174MOL0     H23972   7.230  11.954   2.941 -1.2217 -2.2099  1.0960
  174MOL0     H23973   7.335  11.856   2.841  0.3267 -2.1791 -0.4057
  174MOL0     H23974   7.692  11.394   3.085 -0.2843  0.5953 -1.9272
  174MOL0     H23975   7.931  11.352   3.024  0.6369  1.2049 -2.3687
  174MOL0     H23976   8.129  11.318   3.018  1.5240 -0.2699 -0.4105
  174MOL0     H23977   8.152  11.434   2.884  1.4417  2.3317 -0.3302
  174MOL0     H23978   8.351  11.368   3.112 -1.7164  1.1315  1.0675
  174MOL0     H23979   8.348  11.282   2.951  1.7264  0.6706 -0.4985
  174MOL0     H23980   8.396  11.596   2.977  1.8957  1.9603 -2.3373
  174MOL0     H23981   8.393  11.483   2.838 -0.5311  0.8825  0.1975
  174MOL0     H23982   8.582  11.360   2.914 -0.5215  0.5666 -1.4746
  174MOL0     H23983   8.606  11.445   3.065  0.7828 -3.3562  0.6208
  174MOL0     H23984   8.761  11.517   2.920 -0.1102  2.9955  1.6301
  174MOL0     H23985   8.643  11.517   2.777 -0.6630 -0.7814  0.0776
  174MOL0     H23986   8.587  11.707   2.990 -0.4336 -2.0010  0.7542
  174MOL0     H23987   8.559  11.734   2.821 -0.8644  0.4309  1.0979
  174MOL0     H23988   8.808  11.768   2.770  2.0629  1.5132  0.7126
  174MOL0     H23989   8.839  11.741   2.944 -0.7169  2.2597  2.0140
  174MOL0     H23990   8.696  11.957   2.972 -2.7035  0.1928 -2.1794
  174MOL0     H23991   8.680  11.958   2.807 -0.6825 -0.5685 -0.3359
  174MOL0     H23992   8.033  11.741   3.160 -0.8861 -0.3994  1.1948
  174MOL0     H23993   7.796  11.786   3.229 -2.3538  0.5382 -1.3553
  174MOL0     H23994   7.391  11.525   3.246 -1.0936 -1.8341 -0.5518
  174MOL0     H23995   7.151  11.489   3.261 -0.5060 -1.2526 -1.5626
  174MOL0     H23996   5.540  10.824   3.570  1.9277 -0.1528  0.8072
  174MOL0     H23997   5.362  10.683   3.636  0.3492  1.8606 -2.1781
  174MOL0     H23998   4.839  10.801   3.867  0.6405 -0.1260 -0.2258
  174MOL0     H23999   4.645  10.667   3.899 -0.3544 -0.2463  1.5118
  174MOL0     H24000   4.510  10.532   4.005 -0.1657 -0.5352  1.1625
  174MOL0     H24001   4.488  10.419   3.863  0.0009 -3.9798  0.6200
  174MOL0     H24002   4.343  10.368   4.083  0.6033 -0.9780  2.1921
  174MOL0     H24003   4.502  10.319   4.141  1.7728  1.9980 -0.8419
  174MOL0     H24004   4.528  10.136   3.978 -0.7379 -1.8668 -0.1430
  174MOL0     H24005   4.381  10.143   4.079  0.4953 -1.3910 -1.5442
  174MOL0     H24006   4.395  10.244   3.782 -0.5452 -1.1730 -0.1654
  174MOL0     H24007   4.257  10.217   3.877  0.1825  0.7381  0.8586
  174MOL0     H24008   4.297   9.826   3.743  0.3192 -0.3161  2.0526
  174MOL0     H24009   4.913  10.322   3.925 -2.1802 -0.9761 -1.2920
  174MOL0     H24010   5.138  10.326   3.854 -0.0375  0.2559 -1.1076
  174MOL0     H24011   5.196  10.470   3.766  1.9530  2.3852  2.3550
  174MOL0     H24012   5.200  10.443   3.946  0.0079 -3.3296  0.2979
  175MOL0     O24013   1.527  10.846   5.749  0.8033  0.2440 -0.0580
  175MOL0     C24014   1.558  10.756   5.669  0.0079 -0.0328  0.1368
  175MOL0     O24015   1.672  10.762   5.593  0.2904 -0.5113 -0.1500
  175MOL0     C24016   1.753  10.874   5.597  0.4980  0.5404 -1.0404
  175MOL0     C24017   1.706  11.005   5.573 -0.6073 -0.2169 -0.6020
  175MOL0     C24018   1.796  11.111   5.559 -1.0569  0.5915 -0.6655
  175MOL0     C24019   1.932  11.090   5.564  0.0735  0.6585 -0.4901
  175MOL0     O24020   2.019  11.189   5.540 -0.9047 -0.0661 -0.1617
  175MOL0     C24021   1.991  11.324   5.572  0.0434 -0.6006 -0.0563
  175MOL0     C24022   2.102  11.414   5.520 -1.0505  0.1199  1.1186
  175MOL0     C24023   2.088  11.561   5.557 -0.8200 -0.0971 -0.3844
  175MOL0     C24024   2.193  11.641   5.469 -0.2458 -0.2762  0.8675
  175MOL0     C24025   2.198  11.783   5.528  0.0980  0.0486  0.7276
  175MOL0     C24026   2.296  11.863   5.443  0.0189 -0.7277  1.1530
  175MOL0     C24027   2.331  12.011   5.493  0.8334  0.3242 -0.1714
  175MOL0     C24028   2.201  12.095   5.489 -0.2853 -0.0530 -0.6043
  175MOL0     N24029   2.169  12.127   5.629  0.0784 -0.0342 -0.9432
  175MOL0     C24030   2.223  12.222   5.709  0.2868 -0.4209 -0.0788
  175MOL0     C24031   2.155  12.210   5.822  0.7600 -0.5143  0.2408
  175MOL0     C24032   2.186  12.278   5.950  0.4212  0.3678  0.0469
  175MOL0     C24033   2.076  12.385   5.976 -0.9263 -0.9567 -0.1487
  175MOL0     C24034   2.125  12.528   5.942  0.6118  0.2482 -0.9100
  175MOL0     C24035   2.199  12.588   6.069  0.5895 -0.5684  0.2092
  175MOL0     O24036   2.312  12.515   6.109 -0.3345 -0.3376  0.3796
  175MOL0     C24037   2.434  12.544   6.053  0.2000 -0.2144  0.0752
  175MOL0     C24038   2.540  12.501   6.126 -0.1063  0.6055 -0.5057
  175MOL0     C24039   2.672  12.501   6.085  0.1993  0.4894 -0.3571
  175MOL0     C24040   2.767  12.420   6.179 -0.4255 -0.0831 -0.3018
  175MOL0     C24041   2.705  12.576   5.967 -0.0058 -0.0767 -0.7967
  175MOL0     C24042   2.839  12.616   5.934  0.0046  0.6736  0.2903
  175MOL0     O24043   2.944  12.546   5.983 -0.1259  0.1928  0.8295
  175MOL0     C24044   3.067  12.587   5.954 -0.3279 -0.1159 -0.3088
  175MOL0     C24045   3.119  12.632   5.831  0.2060  0.0611  0.1127
  175MOL0     C24046   3.255  12.652   5.811  0.9530  0.0505  1.0953
  175MOL0     C24047   3.352  12.641   5.921 -0.1463 -0.6126 -0.4205
  175MOL0     O24048   3.482  12.672   5.907  0.4840 -0.0938  0.1169
  175MOL0     C24049   3.541  12.768   6.000 -0.3850 -0.1417  0.3696
  175MOL0     C24050   3.631  12.851   5.910 -0.2841 -0.0751 -0.1309
  175MOL0     C24051   3.772  12.789   5.883  0.7594  0.0166  0.3239
  175MOL0     C24052   3.853  12.883   5.794  0.4517 -0.2710  0.9470
  175MOL0     C24053   3.998  12.829   5.792 -0.5390  0.1517  0.6225
  175MOL0     C24054   4.064  12.881   5.658 -0.3392  0.2405  0.3074
  175MOL0     C24055   4.209  12.846   5.663 -0.8635 -0.2596  0.2889
  175MOL0     C24056   4.291  12.918   5.556  0.2666 -0.0765 -0.7457
  175MOL0    Cl24057   4.464  12.902   5.594 -0.2795 -0.2000  0.4334
  175MOL0     C24058   3.294  12.606   6.043 -0.3495  0.5278 -0.7822
  175MOL0     C24059   3.163  12.587   6.056 -0.0651 -0.3058 -0.3408
  175MOL0     O24060   2.844  12.715   5.860 -0.1609 -0.6117 -0.9084
  175MOL0     C24061   2.595  12.628   5.894  0.0191 -0.1217 -0.1688
  175MOL0     C24062   2.463  12.613   5.931 -0.0174 -0.1628 -0.1921
  175MOL0     N24063   2.059  12.108   5.807 -0.3080  0.6701  0.4269
  175MOL0     N24064   2.068  12.062   5.692  0.1755 -0.2124 -0.0123
  175MOL0     C24065   1.984  10.960   5.569 -0.3074 -0.0932 -0.2483
  175MOL0     C24066   1.893  10.857   5.590 -0.2395 -0.3403 -0.1456
  175MOL0     C24067   1.478  10.630   5.653 -0.4419  0.2480 -0.3836
  175MOL0     C24068   1.473  10.575   5.528  0.1086  0.7473 -0.4757
  175MOL0     C24069   1.409  10.455   5.508 -0.3885 -0.3126  0.7653
  175MOL0     C24070   1.336  10.388   5.605 -0.1903  0.6039  1.2669
  175MOL0     O24071   1.252  10.278   5.587 -0.2373  0.0102 -0.4087
  175MOL0     C24072   1.246  10.209   5.458  0.2135 -1.0302 -0.7191
  175MOL0     C24073   1.362  10.115   5.425  0.0007 -0.6055 -0.7359
  175MOL0     C24074   1.368   9.982   5.507 -0.5265 -1.1773  0.4303
  175MOL0     C24075   1.293   9.869   5.438 -0.5409 -0.3513  0.1834
  175MOL0     C24076   1.256   9.752   5.510  0.1961 -0.7182  0.4829
  175MOL0     C24077   1.218   9.643   5.546 -0.6426 -0.0033 -0.6148
  175MOL0     C24078   1.341  10.441   5.728 -0.2516  0.0705 -0.6314
  175MOL0     C24079   1.405  10.563   5.757 -0.6637 -0.1494  0.0794
  175MOL0     C24080   1.387  10.611   5.900 -0.5899  0.4714  0.2785
  175MOL0     H24081   1.600  11.029   5.567 -0.9003 -0.3530  2.6914
  175MOL0     H24082   1.756  11.210   5.540 -0.9845  0.4549 -1.5711
  175MOL0     H24083   1.971  11.331   5.679 -1.4554 -0.8709 -0.2900
  175MOL0     H24084   1.898  11.360   5.525 -0.3801 -1.0818  0.4051
  175MOL0     H24085   2.198  11.371   5.550  0.4348  0.7118 -2.2728
  175MOL0     H24086   2.112  11.425   5.411  6.0139  0.4365  1.3460
  175MOL0     H24087   1.990  11.593   5.519 -0.4043 -0.5301 -1.8866
  175MOL0     H24088   2.095  11.582   5.664  0.8091  1.9820 -0.8293
  175MOL0     H24089   2.292  11.597   5.477  0.7372  1.5944 -0.3933
  175MOL0     H24090   2.162  11.645   5.364 -0.4526  2.1145  0.9743
  175MOL0     H24091   2.245  11.785   5.627  1.4630  1.6377  0.1123
  175MOL0     H24092   2.102  11.834   5.518  0.4894  0.7652  0.4808
  175MOL0     H24093   2.395  11.816   5.446  1.7362  2.2457 -1.9036
  175MOL0     H24094   2.277  11.862   5.336 -1.7712 -1.7074  1.4447
  175MOL0     H24095   2.405  12.049   5.422 -0.3955 -0.1547 -1.7705
  175MOL0     H24096   2.378  11.999   5.591  2.7269 -0.0860 -1.0650
  175MOL0     H24097   2.223  12.188   5.435 -2.0982  0.7245 -0.0898
  175MOL0     H24098   2.122  12.045   5.433  2.0342 -0.6413 -3.5622
  175MOL0     H24099   2.300  12.298   5.696  1.3268 -0.9522  2.2926
  175MOL0     H24100   2.288  12.312   5.967  0.2454 -0.2347  2.7356
  175MOL0     H24101   2.174  12.199   6.025  4.8115  0.1918  0.8165
  175MOL0     H24102   1.988  12.358   5.918 -0.3058  0.9038 -2.0866
  175MOL0     H24103   2.050  12.387   6.082  1.8306 -0.6955  0.6247
  175MOL0     H24104   2.187  12.526   5.852 -0.5350  0.1934 -1.7180
  175MOL0     H24105   2.042  12.599   5.932 -0.4769 -0.6577  1.2132
  175MOL0     H24106   2.221  12.694   6.052  0.2594 -0.2738  1.4710
  175MOL0     H24107   2.129  12.591   6.153 -0.3204  2.5769 -0.5147
  175MOL0     H24108   2.510  12.449   6.217 -0.2058 -2.3620 -2.1139
  175MOL0     H24109   2.705  12.354   6.239 -0.9677  1.6702  1.1829
  175MOL0     H24110   2.810  12.502   6.239 -1.0264  0.6952 -0.9187
  175MOL0     H24111   2.839  12.367   6.116 -0.1188  1.3450 -1.2096
  175MOL0     H24112   3.051  12.658   5.751  1.7753  4.3734 -0.0950
  175MOL0     H24113   3.278  12.681   5.709 -1.0629 -2.7708 -0.2917
  175MOL0     H24114   3.471  12.835   6.052  0.4852  2.0330 -1.1057
  175MOL0     H24115   3.608  12.716   6.069 -0.9633  0.5985  1.5205
  175MOL0     H24116   3.577  12.877   5.818  1.2998 -1.9007 -1.6556
  175MOL0     H24117   3.647  12.944   5.965 -1.1140 -0.5579  0.9724
  175MOL0     H24118   3.763  12.694   5.830 -4.9792  0.7296 -0.5839
  175MOL0     H24119   3.818  12.775   5.982  1.1028 -0.3492  0.1146
  175MOL0     H24120   3.845  12.987   5.829 -0.4170 -0.2349  0.6562
  175MOL0     H24121   3.814  12.881   5.692  3.1450  0.8115 -0.1893
  175MOL0     H24122   4.046  12.881   5.875 -2.0226  1.6569  0.5870
  175MOL0     H24123   4.018  12.722   5.790 -0.5784  0.1354 -2.4198
  175MOL0     H24124   4.046  12.989   5.652 -1.6502  0.1720  2.2436
  175MOL0     H24125   4.009  12.833   5.576 -1.6597  0.7114  0.8797
  175MOL0     H24126   4.239  12.741   5.664  0.8002  0.1799  1.8510
  175MOL0     H24127   4.242  12.879   5.762  1.5613 -0.3605 -0.4264
  175MOL0     H24128   4.256  13.021   5.547 -0.4719 -0.0590  1.7415
  175MOL0     H24129   4.269  12.862   5.464  2.0667 -0.5793 -0.9079
  175MOL0     H24130   3.365  12.616   6.124 -1.1113  0.5239 -0.1029
  175MOL0     H24131   3.132  12.562   6.156  2.7098  1.3404  1.0816
  175MOL0     H24132   2.617  12.683   5.803  0.7597  1.7574  1.0845
  175MOL0     H24133   2.391  12.664   5.868  1.9066  0.2686 -2.1810
  175MOL0     H24134   2.090  10.938   5.558  0.6562  4.3106 -1.8041
  175MOL0     H24135   1.919  10.752   5.595 -2.2269 -1.0343 -2.3811
  175MOL0     H24136   1.521  10.622   5.443 -1.2479  2.4744 -0.3313
  175MOL0     H24137   1.400  10.426   5.404 -4.8514  0.6001  0.7290
  175MOL0     H24138   1.154  10.150   5.458 -0.6448  0.2318 -1.3363
  175MOL0     H24139   1.224  10.280   5.377 -5.2025 -0.5364  0.7878
  175MOL0     H24140   1.457  10.167   5.445 -0.6905  1.1291 -1.7644
  175MOL0     H24141   1.354  10.103   5.317  0.9271 -1.2502 -0.7486
  175MOL0     H24142   1.470   9.943   5.512  0.1038  0.3484 -0.1877
  175MOL0     H24143   1.334  10.001   5.609  1.2737 -1.2179  1.0720
  175MOL0     H24144   1.367   9.833   5.367  1.1786  2.0880  0.5895
  175MOL0     H24145   1.207   9.910   5.384  0.4862 -0.0144 -1.2603
  175MOL0     H24146   1.200   9.539   5.565 -2.1539  0.0318 -1.6497
  175MOL0     H24147   1.293  10.388   5.809 -1.5103 -0.9271 -1.9838
  175MOL0     H24148   1.314  10.693   5.906 -1.4316 -0.3290  1.5034
  175MOL0     H24149   1.338  10.527   5.950 -1.8070  0.2031 -1.2743
  175MOL0     H24150   1.484  10.639   5.942  0.0104  0.3707 -0.9972
  176MOL0     O24151   8.585   5.023  11.136 -0.3420 -0.7187 -0.0233
  176MOL0     C24152   8.527   4.996  11.235 -0.3573 -0.3297  0.6937
  176MOL0     O24153   8.563   5.044  11.359 -0.2566 -0.1911  0.4088
  176MOL0     C24154   8.698   5.081  11.363  0.2136 -0.4730  0.5212
  176MOL0     C24155   8.795   4.992  11.411 -0.5811  0.5995 -0.3896
  176MOL0     C24156   8.923   5.029  11.428 -0.2923 -0.1795  0.3192
  176MOL0     C24157   8.968   5.154  11.388  0.6262  0.3032  0.2758
  176MOL0     O24158   9.102   5.172  11.392 -0.4254 -0.0034 -0.1168
  176MOL0     C24159   9.158   5.286  11.317  0.0121 -0.1196 -0.4217
  176MOL0     C24160   9.176   5.394  11.421  0.2041  0.1750  0.4396
  176MOL0     C24161   9.221   5.538  11.366  0.2254 -0.1482 -0.5744
  176MOL0     C24162   9.110   5.601  11.280 -0.3663 -0.5899  0.1808
  176MOL0     C24163   9.160   5.717  11.193 -0.0423 -0.6062 -0.3719
  176MOL0     C24164   9.171   5.835  11.285 -0.1348 -0.4327  0.3242
  176MOL0     C24165   9.200   5.972  11.209 -0.0632  0.0355  0.3064
  176MOL0     C24166   9.316   5.970  11.105 -0.3002  0.4046  0.1205
  176MOL0     N24167   9.447   5.922  11.158  0.0006  0.1269  0.0624
  176MOL0     C24168   9.542   5.848  11.092 -0.2518 -0.0832  0.0846
  176MOL0     C24169   9.637   5.811  11.179  0.3998 -0.5441 -0.1106
  176MOL0     C24170   9.767   5.745  11.154  0.3664  0.2963 -0.1400
  176MOL0     C24171   9.887   5.796  11.237 -0.1651  0.1977 -0.3919
  176MOL0     C24172   9.907   5.943  11.228  0.6077 -0.0638 -0.0512
  176MOL0     C24173  10.032   5.978  11.309 -0.1531 -0.0432  0.0272
  176MOL0     O24174  10.150   5.902  11.291  0.6033  0.7287  0.0826
  176MOL0     C24175  10.265   5.941  11.345  0.1783 -0.2549  0.6560
  176MOL0     C24176  10.282   6.052  11.427  0.2415  1.5608  0.3163
  176MOL0     C24177  10.414   6.086  11.463  0.2623 -0.0653 -0.4274
  176MOL0     C24178  10.427   6.193  11.564  0.6025 -0.4998 -1.3960
  176MOL0     C24179  10.522   6.008  11.426  0.8148  0.2448  0.9504
  176MOL0     C24180  10.658   6.025  11.485 -0.2388 -0.5272  0.1179
  176MOL0     O24181  10.710   5.915  11.543  0.7822 -0.7191  0.1377
  176MOL0     C24182  10.836   5.930  11.585  0.7877 -0.6620 -0.1101
  176MOL0     C24183  10.859   5.989  11.710  0.0222 -0.4715  0.0720
  176MOL0     C24184  10.994   6.000  11.758  0.1311  0.2516 -0.9367
  176MOL0     C24185  11.104   5.950  11.687 -0.3708 -0.6229  0.6460
  176MOL0     O24186  11.226   5.935  11.740 -0.1867 -0.2268 -0.7493
  176MOL0     C24187  11.337   5.878  11.670 -0.0614 -0.3166 -0.1203
  176MOL0     C24188  11.466   5.914  11.751 -0.0273  0.5068 -0.0299
  176MOL0     C24189  11.478   5.809  11.866  0.2456 -0.0928  0.5347
  176MOL0     C24190  11.613   5.807  11.930 -0.3754 -0.3179 -0.6290
  176MOL0     C24191  11.617   5.715  12.047 -0.1946  0.3173  0.0745
  176MOL0     C24192  11.617   5.564  12.017 -0.0332 -0.2957  0.4493
  176MOL0     C24193  11.637   5.483  12.147  0.2663  0.1034  0.6744
  176MOL0     C24194  11.781   5.442  12.168 -0.0805 -0.2838 -0.3857
  176MOL0    Cl24195  11.789   5.348  12.318 -0.2707 -0.5564 -0.0008
  176MOL0     C24196  11.085   5.915  11.556 -0.0401  0.0644 -0.0214
  176MOL0     C24197  10.950   5.904  11.507  0.1318  1.1202  0.0977
  176MOL0     O24198  10.713   6.132  11.457 -0.3123  0.3996  0.3459
  176MOL0     C24199  10.495   5.884  11.351 -0.6337 -0.5691 -0.0247
  176MOL0     C24200  10.370   5.861  11.310  0.1954  1.0822  0.2425
  176MOL0     N24201   9.601   5.877  11.298  0.5454  0.7534 -0.3908
  176MOL0     N24202   9.484   5.932  11.287  0.0206  0.1477  0.2805
  176MOL0     C24203   8.870   5.246  11.340 -0.3634 -0.5437 -0.7500
  176MOL0     C24204   8.739   5.213  11.325  0.4124  0.4987  0.2169
  176MOL0     C24205   8.390   4.928  11.224  0.5505 -0.5336 -0.3343
  176MOL0     C24206   8.335   4.907  11.098  0.0499  0.0506  0.0219
  176MOL0     C24207   8.207   4.862  11.080 -0.0917  0.1050 -0.5866
  176MOL0     C24208   8.130   4.817  11.181  0.3727 -0.1421  0.5046
  176MOL0     O24209   8.007   4.761  11.157 -0.0489 -0.2512  0.4263
  176MOL0     C24210   7.913   4.750  11.266  0.1461 -0.1351 -0.4971
  176MOL0     C24211   7.844   4.889  11.281  0.0148  0.6662  0.4677
  176MOL0     C24212   7.776   4.945  11.153  0.0970  0.6457  0.3290
  176MOL0     C24213   7.748   5.096  11.166  0.9474  0.6323 -0.0234
  176MOL0     C24214   7.632   5.094  11.255 -0.1609  0.2173 -0.4614
  176MOL0     C24215   7.536   5.106  11.329 -0.4218  0.0761 -0.6603
  176MOL0     C24216   8.184   4.846  11.313 -0.6167 -0.6161 -0.0923
  176MOL0     C24217   8.311   4.897  11.338 -0.7578  0.4343  0.7756
  176MOL0     C24218   8.346   4.909  11.487 -0.3833 -0.4200  0.0204
  176MOL0     H24219   8.769   4.893  11.449 -0.7438  0.7701 -0.0552
  176MOL0     H24220   8.995   4.953  11.460  1.8898  1.1167 -1.2888
  176MOL0     H24221   9.094   5.317  11.234  0.4225  2.3837  0.1309
  176MOL0     H24222   9.251   5.256  11.269 -0.7051  0.2260 -2.0790
  176MOL0     H24223   9.087   5.396  11.485 -2.1286  0.1862 -2.6207
  176MOL0     H24224   9.261   5.367  11.484  0.5724  0.0283 -0.1151
  176MOL0     H24225   9.239   5.597  11.457 -1.7165 -0.6735  0.1950
  176MOL0     H24226   9.315   5.535  11.311  0.4238 -0.1523 -0.2350
  176MOL0     H24227   9.073   5.531  11.204 -0.7852  0.9451 -1.0853
  176MOL0     H24228   9.032   5.635  11.349 -0.9500 -0.5662 -0.4760
  176MOL0     H24229   9.078   5.738  11.123 -0.0971 -1.6349 -0.6301
  176MOL0     H24230   9.247   5.690  11.132 -1.9396  0.4377 -3.8420
  176MOL0     H24231   9.076   5.856  11.334 -0.2507 -0.3806  0.0768
  176MOL0     H24232   9.246   5.812  11.360  0.3196 -0.1509 -0.0369
  176MOL0     H24233   9.226   6.040  11.290 -0.6679 -1.1202  1.5144
  176MOL0     H24234   9.118   6.014  11.150 -0.8590 -0.6230  0.9319
  176MOL0     H24235   9.284   5.914  11.017 -0.7306 -1.5566  1.4656
  176MOL0     H24236   9.340   6.068  11.063  3.2985 -0.1678  0.5713
  176MOL0     H24237   9.548   5.827  10.985 -1.2720 -0.0120  0.0027
  176MOL0     H24238   9.790   5.736  11.048  1.8083 -0.9187  0.2482
  176MOL0     H24239   9.747   5.639  11.174  0.2197  0.6843  2.1015
  176MOL0     H24240   9.881   5.766  11.342  0.9926  0.8970 -0.1103
  176MOL0     H24241   9.981   5.756  11.199  1.0978  0.0183  2.6590
  176MOL0     H24242   9.937   5.958  11.124  0.6179  0.2872  0.0014
  176MOL0     H24243   9.817   5.992  11.266 -0.9506 -1.4084 -1.8368
  176MOL0     H24244  10.066   6.077  11.279  1.9902 -0.8550 -0.4324
  176MOL0     H24245  10.000   5.972  11.413 -1.4179  1.4421 -0.2477
  176MOL0     H24246  10.206   6.126  11.444  1.4399  3.3858 -1.7683
  176MOL0     H24247  10.523   6.245  11.561  1.1086 -1.0694  1.6612
  176MOL0     H24248  10.412   6.143  11.660 -1.2499  1.5626 -0.5207
  176MOL0     H24249  10.350   6.270  11.554  0.5720 -0.2847  0.2273
  176MOL0     H24250  10.771   6.019  11.767  0.0100  0.6105 -0.4960
  176MOL0     H24251  11.016   6.034  11.859  0.3617 -1.9098 -0.1934
  176MOL0     H24252  11.331   5.771  11.645 -3.4242 -0.8455  2.2457
  176MOL0     H24253  11.349   5.940  11.580  2.5553  1.7838  1.5509
  176MOL0     H24254  11.555   5.895  11.690 -1.2535 -1.1530 -1.4029
  176MOL0     H24255  11.467   6.012  11.799  2.2113 -0.4845  2.1444
  176MOL0     H24256  11.461   5.713  11.816  1.9716  0.6525 -1.6516
  176MOL0     H24257  11.403   5.836  11.941 -0.3562  4.7209 -1.4266
  176MOL0     H24258  11.641   5.905  11.970  3.8888 -0.8453 -1.8602
  176MOL0     H24259  11.691   5.778  11.859 -1.7773 -0.4533 -2.1812
  176MOL0     H24260  11.711   5.738  12.098  0.0118  2.1320 -1.0352
  176MOL0     H24261  11.527   5.724  12.108 -0.7198 -2.6676 -0.1145
  176MOL0     H24262  11.695   5.537  11.946 -0.2083 -0.9195  0.4891
  176MOL0     H24263  11.525   5.539  11.964  0.6237  2.8315 -2.5651
  176MOL0     H24264  11.578   5.391  12.132 -1.2407  1.2754 -0.9975
  176MOL0     H24265  11.593   5.536  12.232 -0.6870  3.3789 -1.6556
  176MOL0     H24266  11.847   5.528  12.186  0.6978 -1.0765  0.6744
  176MOL0     H24267  11.807   5.384  12.079 -1.1642 -2.6802  0.7520
  176MOL0     H24268  11.157   5.881  11.482 -0.8155  0.6622 -1.0806
  176MOL0     H24269  10.961   5.859  11.409 -1.6234 -0.1951  0.4638
  176MOL0     H24270  10.578   5.819  11.326 -0.0064  1.2945 -3.4411
  176MOL0     H24271  10.360   5.766  11.257 -0.9711  0.2546  1.8328
  176MOL0     H24272   8.896   5.348  11.314  0.3014 -0.3501  0.5889
  176MOL0     H24273   8.673   5.281  11.272  1.3730  1.5132  0.2866
  176MOL0     H24274   8.378   4.948  11.007 -0.5568 -1.7681 -1.1464
  176MOL0     H24275   8.179   4.843  10.977 -1.4222  1.3135 -0.4737
  176MOL0     H24276   7.837   4.675  11.242 -0.2904  0.0127  0.3770
  176MOL0     H24277   7.956   4.712  11.360 -0.1266 -1.4536 -0.8852
  176MOL0     H24278   7.926   4.954  11.314  1.6530 -0.2290 -1.6273
  176MOL0     H24279   7.764   4.885  11.355 -1.3627  0.8462 -0.9364
  176MOL0     H24280   7.840   4.934  11.065 -0.5745  1.5275 -0.2884
  176MOL0     H24281   7.687   4.883  11.138  0.0810 -0.6459  4.3940
  176MOL0     H24282   7.718   5.150  11.076  0.9724 -0.8770 -0.9566
  176MOL0     H24283   7.831   5.148  11.215 -1.9987  0.7002  5.7780
  176MOL0     H24284   7.452   5.106  11.396 -0.1318  2.3167 -0.2231
  176MOL0     H24285   8.128   4.809  11.398 -0.1498 -2.9724 -0.7441
  176MOL0     H24286   8.271   4.853  11.542 -1.2736 -0.2663 -1.0038
  176MOL0     H24287   8.449   4.877  11.508 -1.1367 -1.2562  2.8138
  176MOL0     H24288   8.337   5.010  11.528 -1.0625 -0.7303  0.6481
  177MOL0     O24289  10.408   4.574   4.246  0.1895  0.3932 -0.1469
  177MOL0     C24290  10.431   4.670   4.323  0.2877  0.3313  0.7972
  177MOL0     O24291  10.352   4.783   4.332  0.1734 -0.6837  0.5150
  177MOL0     C24292  10.239   4.793   4.259  0.4983  0.1977 -0.6822
  177MOL0     C24293  10.113   4.791   4.328 -0.2883  0.2166  0.9123
  177MOL0     C24294   9.990   4.791   4.250  0.6193  0.0380  0.0270
  177MOL0     C24295   9.999   4.790   4.106 -0.2030 -0.1981 -0.7523
  177MOL0     O24296   9.884   4.801   4.031 -1.3831 -0.4838  0.9282
  177MOL0     C24297   9.818   4.923   4.051  0.0053  0.4088  0.3841
  177MOL0     C24298   9.708   4.935   3.944  0.2612 -0.2478  0.3657
  177MOL0     C24299   9.593   4.834   3.957  0.1937 -0.1039  0.4075
  177MOL0     C24300   9.494   4.833   3.843  0.4034  0.5424  0.1673
  177MOL0     C24301   9.384   4.938   3.865  0.0525 -1.0290  0.1429
  177MOL0     C24302   9.256   4.909   3.785 -0.4302 -0.0869 -0.3431
  177MOL0     C24303   9.287   4.911   3.632  0.1046 -0.7548  0.2901
  177MOL0     C24304   9.167   4.936   3.548  0.1787 -0.0544 -0.1673
  177MOL0     N24305   9.093   5.059   3.590 -1.2676  0.8183 -0.5613
  177MOL0     C24306   9.142   5.182   3.564 -0.3868  0.6833 -0.7952
  177MOL0     C24307   9.064   5.268   3.636 -0.9215  0.2622  0.2686
  177MOL0     C24308   9.077   5.417   3.640  1.1521 -0.8020  0.1683
  177MOL0     C24309   8.985   5.480   3.743  0.0813  0.6401  0.2829
  177MOL0     C24310   9.011   5.629   3.750  0.6387 -0.1704 -0.6114
  177MOL0     C24311   9.145   5.668   3.826 -0.5662 -0.4597  0.1545
  177MOL0     O24312   9.258   5.661   3.735  0.1249  0.2192 -0.1304
  177MOL0     C24313   9.375   5.712   3.788 -0.5784 -0.2416  0.6226
  177MOL0     C24314   9.419   5.676   3.916  1.2282  0.8724  0.3190
  177MOL0     C24315   9.539   5.721   3.973  1.0965  0.0986  0.2899
  177MOL0     C24316   9.575   5.656   4.108 -0.2688  0.7668 -0.0875
  177MOL0     C24317   9.620   5.806   3.897 -0.1412  0.1294 -0.0169
  177MOL0     C24318   9.754   5.858   3.944  0.7761  0.0569  0.7368
  177MOL0     O24319   9.830   5.915   3.845  0.5799  0.3002 -0.3954
  177MOL0     C24320   9.959   5.946   3.868  0.7337  0.7046  0.5312
  177MOL0     C24321  10.045   5.904   3.971  0.5236  1.0381 -0.0893
  177MOL0     C24322  10.182   5.946   3.959  0.2436  0.2027 -0.2826
  177MOL0     C24323  10.232   6.032   3.863 -0.0785 -0.0235 -0.0747
  177MOL0     O24324  10.367   6.064   3.880 -0.4626 -0.3171 -0.3495
  177MOL0     C24325  10.404   6.191   3.823 -0.8566 -0.2044 -0.5335
  177MOL0     C24326  10.557   6.212   3.855 -0.4311 -1.0617 -0.3436
  177MOL0     C24327  10.591   6.203   4.006  0.5156 -0.1100  0.5863
  177MOL0     C24328  10.734   6.232   4.047 -0.0781  0.4398  0.5534
  177MOL0     C24329  10.827   6.172   3.947 -0.5178 -0.6221  0.3531
  177MOL0     C24330  10.979   6.194   3.995  0.3333 -0.1883 -0.3118
  177MOL0     C24331  11.077   6.087   3.941  0.3039 -0.0355  0.7340
  177MOL0     C24332  11.205   6.143   3.870 -0.1567 -0.4063  0.2594
  177MOL0    Cl24333  11.310   6.001   3.847 -0.1954 -0.0149  0.3945
  177MOL0     C24334  10.141   6.086   3.774  0.1655  0.4638 -0.2678
  177MOL0     C24335  10.007   6.035   3.767  0.4073 -0.0361  0.5194
  177MOL0     O24336   9.783   5.859   4.060 -0.2067  0.6733  0.1764
  177MOL0     C24337   9.580   5.833   3.766  0.3555 -0.5884  1.4241
  177MOL0     C24338   9.455   5.795   3.711  0.1703  0.8595 -1.0685
  177MOL0     N24339   8.972   5.192   3.698  0.4932  0.2023 -0.2141
  177MOL0     N24340   8.990   5.072   3.678  0.4190  0.0479  0.0705
  177MOL0     C24341  10.126   4.794   4.048 -0.5158  0.0455  0.1633
  177MOL0     C24342  10.245   4.806   4.124  0.6913  0.6476  0.5190
  177MOL0     C24343  10.529   4.650   4.425  0.3253  0.4969 -0.2607
  177MOL0     C24344  10.517   4.739   4.543 -0.3988  1.0205  0.3778
  177MOL0     C24345  10.607   4.728   4.650 -0.6480 -0.8525  0.3512
  177MOL0     C24346  10.717   4.642   4.637 -0.4425  0.0284 -0.3663
  177MOL0     O24347  10.811   4.621   4.732 -0.6342 -0.8065  0.4567
  177MOL0     C24348  10.858   4.737   4.808  0.1678  0.2774  0.1197
  177MOL0     C24349  11.004   4.725   4.843 -0.9182 -0.3651  0.2415
  177MOL0     C24350  11.080   4.750   4.706 -0.3164 -0.2738 -0.0423
  177MOL0     C24351  11.132   4.895   4.689  0.1269 -0.0708  0.4836
  177MOL0     C24352  11.215   4.906   4.569  0.2044  0.5924  0.1834
  177MOL0     C24353  11.293   4.906   4.475  0.4119 -0.2279  0.3572
  177MOL0     C24354  10.727   4.557   4.525  0.1948  0.1426  0.1011
  177MOL0     C24355  10.634   4.553   4.420 -0.2124 -0.9950  0.0179
  177MOL0     C24356  10.659   4.444   4.313 -0.5405  0.7893  0.0299
  177MOL0     H24357  10.107   4.790   4.436  0.6669  0.6140  0.9797
  177MOL0     H24358   9.892   4.778   4.294 -0.4653  2.3728 -1.4454
  177MOL0     H24359   9.884   5.008   4.032 -0.5236  1.2166  1.9316
  177MOL0     H24360   9.767   4.928   4.148 -2.0874  0.2829 -0.6658
  177MOL0     H24361   9.666   5.036   3.952  1.4677  0.4837 -1.6912
  177MOL0     H24362   9.747   4.928   3.842  1.2623 -1.6223  0.8114
  177MOL0     H24363   9.640   4.735   3.966  0.3177 -0.3499 -2.2984
  177MOL0     H24364   9.540   4.846   4.052 -0.2600 -1.8288  0.4062
  177MOL0     H24365   9.540   4.874   3.752  0.8032  1.5846  0.8292
  177MOL0     H24366   9.452   4.734   3.821 -0.0667  0.3978  1.6019
  177MOL0     H24367   9.410   5.040   3.837  1.7043 -1.4830 -0.0983
  177MOL0     H24368   9.358   4.942   3.971  3.0795 -3.4246  1.1255
  177MOL0     H24369   9.214   4.814   3.821  0.6520  0.8462  3.9932
  177MOL0     H24370   9.194   4.991   3.823  2.8095  1.4853  2.0983
  177MOL0     H24371   9.329   4.819   3.590  1.2045  0.0097 -0.3456
  177MOL0     H24372   9.363   4.988   3.613 -1.0868 -0.1605 -2.6375
  177MOL0     H24373   9.183   4.927   3.440 -1.0158 -3.4048 -0.1753
  177MOL0     H24374   9.092   4.858   3.566 -1.1702  0.9566 -1.1580
  177MOL0     H24375   9.226   5.197   3.498 -0.7164  0.4584 -1.2724
  177MOL0     H24376   9.058   5.460   3.541  1.7533  2.4030  1.3280
  177MOL0     H24377   9.183   5.428   3.664  1.4249  0.8692 -1.5326
  177MOL0     H24378   8.885   5.459   3.703  1.9050 -0.2829 -4.4444
  177MOL0     H24379   9.007   5.424   3.835 -1.3313  0.0962  0.3168
  177MOL0     H24380   9.006   5.671   3.650  0.0936 -1.9331 -1.3555
  177MOL0     H24381   8.934   5.682   3.808  0.7719  0.8679 -1.3469
  177MOL0     H24382   9.142   5.772   3.859 -0.2532  0.2402 -1.8934
  177MOL0     H24383   9.157   5.597   3.908  2.9146 -2.2416 -1.6386
  177MOL0     H24384   9.349   5.609   3.965  0.1632 -1.1820 -3.5414
  177MOL0     H24385   9.569   5.737   4.182 -1.3388  0.1870  0.4780
  177MOL0     H24386   9.675   5.610   4.104  0.2127  1.4540  2.3151
  177MOL0     H24387   9.509   5.574   4.136 -3.3871  3.3066  0.6313
  177MOL0     H24388  10.021   5.834   4.050 -0.9807 -1.7097 -2.7837
  177MOL0     H24389  10.261   5.932   4.033  0.2746  0.7136 -0.2132
  177MOL0     H24390  10.382   6.192   3.716  0.1110  0.4516 -0.7332
  177MOL0     H24391  10.347   6.267   3.877 -0.2028 -0.9574  1.3382
  177MOL0     H24392  10.616   6.145   3.792  0.9024  0.9123 -1.2729
  177MOL0     H24393  10.586   6.311   3.820 -0.0274 -1.1996 -0.3956
  177MOL0     H24394  10.557   6.104   4.040 -1.1262  0.4672  0.7182
  177MOL0     H24395  10.523   6.271   4.057 -0.6782 -0.5901 -0.3218
  177MOL0     H24396  10.753   6.198   4.149  2.6280  1.2058  0.3936
  177MOL0     H24397  10.745   6.341   4.052 -1.2224  0.5596  0.6777
  177MOL0     H24398  10.813   6.064   3.942 -1.0462 -0.6181  1.4997
  177MOL0     H24399  10.806   6.222   3.852 -1.2541 -1.0429  0.2910
  177MOL0     H24400  10.984   6.194   4.104 -3.8256 -0.2684  0.0437
  177MOL0     H24401  11.007   6.297   3.971 -0.1320  0.0011 -0.0573
  177MOL0     H24402  11.017   6.026   3.873  0.3435  0.8465 -0.1250
  177MOL0     H24403  11.116   6.022   4.019 -0.2831 -1.1186  0.1538
  177MOL0     H24404  11.258   6.213   3.935 -1.8506  0.2954  0.9403
  177MOL0     H24405  11.189   6.195   3.775  0.6242  2.3139  1.5054
  177MOL0     H24406  10.170   6.157   3.697 -2.1088  2.9519  0.9819
  177MOL0     H24407   9.941   6.086   3.697  0.2600  1.2843  1.5696
  177MOL0     H24408   9.640   5.907   3.715 -0.3406 -0.0331  1.3990
  177MOL0     H24409   9.429   5.824   3.610  0.9831  2.0700 -0.9513
  177MOL0     H24410  10.130   4.816   3.942 -0.5188  2.9400  0.6695
  177MOL0     H24411  10.339   4.822   4.072 -0.4258  0.2426 -1.7507
  177MOL0     H24412  10.444   4.819   4.550  0.4747  2.0653 -1.6112
  177MOL0     H24413  10.601   4.795   4.735 -0.9133  2.7081 -2.2218
  177MOL0     H24414  10.840   4.828   4.750 -3.6402 -0.5961 -0.3645
  177MOL0     H24415  10.792   4.737   4.895 -0.8402 -2.6911 -0.5121
  177MOL0     H24416  11.017   4.627   4.890  1.9009 -0.5382 -0.6716
  177MOL0     H24417  11.042   4.799   4.914  0.4794 -1.5106  0.7396
  177MOL0     H24418  11.168   4.685   4.710 -1.0207 -1.2315  0.4973
  177MOL0     H24419  11.023   4.712   4.621 -1.5429  0.9521  0.2015
  177MOL0     H24420  11.195   4.923   4.774 -2.7158  0.4219  2.5754
  177MOL0     H24421  11.048   4.965   4.677 -0.7987 -1.4615 -1.9947
  177MOL0     H24422  11.349   4.909   4.384  1.2230 -0.1499  0.8493
  177MOL0     H24423  10.811   4.490   4.514  0.1348  0.1785 -0.6723
  177MOL0     H24424  10.636   4.469   4.209 -0.5726 -0.5637 -0.3137
  177MOL0     H24425  10.767   4.424   4.309 -1.0764 -2.6081 -0.2912
  177MOL0     H24426  10.612   4.347   4.332  1.6305  0.0958  2.5397
  178MOL0     O24427   9.282   1.907  10.759  0.3207  0.6928  0.4664
  178MOL0     C24428   9.223   2.009  10.754 -0.2594 -0.3287 -0.3602
  178MOL0     O24429   9.238   2.113  10.837  0.1416  0.3927 -0.2640
  178MOL0     C24430   9.335   2.119  10.931  1.0651 -1.2035 -0.2852
  178MOL0     C24431   9.299   2.171  11.055 -0.7250  0.6479  0.2107
  178MOL0     C24432   9.394   2.180  11.155 -0.3393  1.1308 -0.4256
  178MOL0     C24433   9.533   2.136  11.143 -0.2794  0.0117  0.5143
  178MOL0     O24434   9.635   2.144  11.233 -0.0613 -0.0660  0.3174
  178MOL0     C24435   9.645   2.266  11.306 -0.1999 -0.4528  0.5064
  178MOL0     C24436   9.789   2.295  11.345  0.3460  0.2551  0.3568
  178MOL0     C24437   9.869   2.196  11.435 -0.2024 -1.0197  0.9808
  178MOL0     C24438  10.017   2.245  11.438  0.6583  0.4883 -0.2914
  178MOL0     C24439  10.099   2.168  11.543 -0.1571  0.4592 -0.3829
  178MOL0     C24440  10.237   2.234  11.563 -0.1598 -0.2828 -0.4286
  178MOL0     C24441  10.229   2.359  11.652 -0.3018  0.3238  0.1000
  178MOL0     C24442  10.367   2.421  11.657 -0.2429  0.5123 -0.1802
  178MOL0     N24443  10.451   2.354  11.750 -0.3137 -0.2818  0.0885
  178MOL0     C24444  10.439   2.354  11.885 -0.3828 -0.8699 -0.6862
  178MOL0     C24445  10.554   2.291  11.922  0.0991  0.6192 -0.1557
  178MOL0     C24446  10.607   2.286  12.059 -0.9732 -1.0793 -0.3787
  178MOL0     C24447  10.741   2.208  12.075  0.0281  1.0738 -0.2204
  178MOL0     C24448  10.856   2.295  12.017  0.3739 -0.2593 -0.1667
  178MOL0     C24449  10.995   2.259  12.076  1.0498  0.8329 -0.3463
  178MOL0     O24450  11.015   2.108  12.074  0.6997 -1.2468 -0.5711
  178MOL0     C24451  11.141   2.057  12.082 -0.2029  0.1391 -0.5118
  178MOL0     C24452  11.152   1.918  12.095  0.4128 -0.0435 -0.1089
  178MOL0     C24453  11.275   1.854  12.123  0.5681  0.2481  0.6018
  178MOL0     C24454  11.275   1.701  12.160  0.1957 -1.7740 -0.2352
  178MOL0     C24455  11.395   1.923  12.118 -0.8841 -0.2988 -0.3607
  178MOL0     C24456  11.533   1.858  12.127  0.3969  0.1619  0.2840
  178MOL0     O24457  11.541   1.736  12.164 -0.4859  0.4059 -0.3200
  178MOL0     C24458  11.651   1.660  12.192 -0.5846  0.1684  0.5859
  178MOL0     C24459  11.634   1.520  12.192 -0.7472 -0.8198 -0.3084
  178MOL0     C24460  11.732   1.435  12.243 -0.6230 -0.7951 -0.2431
  178MOL0     C24461  11.855   1.483  12.288 -0.4541  0.0027 -0.1496
  178MOL0     O24462  11.936   1.405  12.366  0.2539  0.3707 -0.1724
  178MOL0     C24463  11.974   1.272  12.316 -0.1565 -0.1451  0.0483
  178MOL0     C24464  12.047   1.191  12.418 -0.5018  0.2430  0.5694
  178MOL0     C24465  12.185   1.239  12.429  0.9165  0.0763  0.1227
  178MOL0     C24466  12.276   1.160  12.520  0.0333  0.3011  0.4487
  178MOL0     C24467  12.404   1.230  12.564 -0.8240  0.7332 -0.6243
  178MOL0     C24468  12.464   1.159  12.686 -0.5479  0.6515  0.0278
  178MOL0     C24469  12.492   1.011  12.675  0.2570  0.1854  0.6888
  178MOL0     C24470  12.567   0.950  12.796  0.0286  0.2096 -0.0411
  178MOL0    Cl24471  12.525   1.011  12.956  0.2912 -0.4794  0.4747
  178MOL0     C24472  11.879   1.626  12.271  0.3242  0.4741 -0.5543
  178MOL0     C24473  11.776   1.711  12.228  0.1758 -0.4501  0.3291
  178MOL0     O24474  11.627   1.921  12.086 -0.7464 -0.0269  0.0296
  178MOL0     C24475  11.386   2.062  12.108 -0.3212 -0.5177  0.1471
  178MOL0     C24476  11.259   2.125  12.098 -0.2793  0.0186 -0.7728
  178MOL0     N24477  10.631   2.265  11.805 -0.4350 -0.2791 -0.7633
  178MOL0     N24478  10.569   2.300  11.704 -0.4267  0.7697 -0.4007
  178MOL0     C24479   9.559   2.082  11.012 -0.8427  0.0251 -0.7387
  178MOL0     C24480   9.468   2.084  10.910 -0.1562  0.1425  0.0583
  178MOL0     C24481   9.113   2.028  10.651 -1.3026  0.2246  0.1743
  178MOL0     C24482   9.003   2.111  10.681  0.3622  0.5264 -0.1575
  178MOL0     C24483   8.893   2.123  10.593  0.3176  0.2987 -0.1134
  178MOL0     C24484   8.902   2.059  10.465 -0.2819 -0.4040 -0.3761
  178MOL0     O24485   8.815   2.075  10.361 -0.3435 -1.1388  0.2308
  178MOL0     C24486   8.673   2.119  10.381  0.0233  0.6549  0.7492
  178MOL0     C24487   8.624   2.152  10.234  0.0368  0.1134 -0.5613
  178MOL0     C24488   8.624   2.043  10.128  0.0844 -0.0033  0.0630
  178MOL0     C24489   8.588   2.093   9.990  0.0488 -0.0763  0.5000
  178MOL0     C24490   8.450   2.114   9.951 -0.3770  0.8364  0.2821
  178MOL0     C24491   8.343   2.156   9.940  0.8305  0.1460 -0.0602
  178MOL0     C24492   9.019   1.987  10.435  0.1476  0.8865 -0.6960
  178MOL0     C24493   9.125   1.966  10.523 -0.1354  0.4686 -0.2117
  178MOL0     C24494   9.248   1.894  10.466 -0.4841  0.2059  0.0210
  178MOL0     H24495   9.194   2.194  11.073 -0.8348  0.8198 -0.6074
  178MOL0     H24496   9.369   2.233  11.247  0.3230  0.3534  0.2241
  178MOL0     H24497   9.569   2.266  11.385 -0.2992 -2.5755  0.4638
  178MOL0     H24498   9.623   2.343  11.232 -1.2372 -2.5237 -1.4552
  178MOL0     H24499   9.840   2.296  11.249  1.7743 -0.4523  1.0828
  178MOL0     H24500   9.804   2.383  11.408  4.1197 -0.8792  1.3011
  178MOL0     H24501   9.832   2.208  11.537 -0.9069 -1.0552  0.7408
  178MOL0     H24502   9.867   2.097  11.386  2.6889 -0.5264 -0.3471
  178MOL0     H24503  10.068   2.223  11.343 -1.9257 -1.2049 -1.3804
  178MOL0     H24504  10.018   2.352  11.462 -0.0327  0.2449  0.8604
  178MOL0     H24505  10.098   2.064  11.508 -2.7904 -0.3963  1.8642
  178MOL0     H24506  10.048   2.170  11.639  1.8772 -0.5849  0.7675
  178MOL0     H24507  10.311   2.168  11.611 -0.9858  0.3396  1.8435
  178MOL0     H24508  10.277   2.269  11.468  1.9982  0.8315  0.8127
  178MOL0     H24509  10.187   2.335  11.750 -1.8649 -1.2547 -0.8943
  178MOL0     H24510  10.164   2.437  11.612  0.4854  0.6262 -0.6180
  178MOL0     H24511  10.413   2.427  11.558 -0.3846  3.1446 -0.1603
  178MOL0     H24512  10.355   2.527  11.682 -1.5897  0.2655  0.3115
  178MOL0     H24513  10.372   2.405  11.954  1.9948  1.6375 -0.0535
  178MOL0     H24514  10.529   2.259  12.131  0.3695  0.1866  1.6550
  178MOL0     H24515  10.618   2.391  12.088 -0.8540 -0.4866 -2.4564
  178MOL0     H24516  10.774   2.208  12.179  2.4204  1.8732 -0.9314
  178MOL0     H24517  10.742   2.105  12.040 -0.3903  0.9825  0.0230
  178MOL0     H24518  10.857   2.275  11.909 -0.5922  2.7398 -0.8372
  178MOL0     H24519  10.834   2.402  12.024 -2.6115 -0.7786 -0.3245
  178MOL0     H24520  11.075   2.305  12.017  0.7548 -0.4112 -1.8172
  178MOL0     H24521  11.005   2.302  12.176 -0.9294  1.4885 -0.3867
  178MOL0     H24522  11.056   1.870  12.112  0.8292  0.0280  2.8128
  178MOL0     H24523  11.179   1.649  12.170  0.7106 -2.7790 -0.3923
  178MOL0     H24524  11.319   1.679  12.257 -0.7346 -1.4325  0.2766
  178MOL0     H24525  11.337   1.643  12.091 -0.1111  0.1404 -2.2533
  178MOL0     H24526  11.539   1.473  12.169 -0.6815 -0.6620 -0.9088
  178MOL0     H24527  11.711   1.328  12.242 -1.9042 -0.5752  0.3639
  178MOL0     H24528  11.882   1.221  12.287  0.1346  0.3654 -1.9572
  178MOL0     H24529  12.029   1.281  12.222  2.2279  1.9075  1.5288
  178MOL0     H24530  11.995   1.200  12.514 -3.6469 -1.3195 -0.8213
  178MOL0     H24531  12.048   1.083  12.400  0.9180  0.0008  1.9298
  178MOL0     H24532  12.184   1.341  12.470 -2.4887  0.3029 -0.1972
  178MOL0     H24533  12.220   1.239  12.326 -2.5310 -0.5210 -1.1670
  178MOL0     H24534  12.292   1.062  12.473  1.7872  0.2908  0.9774
  178MOL0     H24535  12.225   1.134  12.613  1.0697  0.6959  1.1436
  178MOL0     H24536  12.479   1.237  12.484 -1.0614 -0.4158 -0.9748
  178MOL0     H24537  12.379   1.331  12.595  1.1247  0.8064  0.9164
  178MOL0     H24538  12.397   1.171  12.772  0.4040 -0.1315  0.9110
  178MOL0     H24539  12.561   1.207  12.705  0.1271 -0.6240 -0.1250
  178MOL0     H24540  12.544   0.983  12.583  0.4011 -0.8668  1.0862
  178MOL0     H24541  12.396   0.961  12.663  0.6859 -0.9142  1.6816
  178MOL0     H24542  12.674   0.970  12.783 -0.5507  2.3517 -2.3024
  178MOL0     H24543  12.558   0.841  12.800  0.2904  0.1821 -0.1587
  178MOL0     H24544  11.980   1.663  12.286 -0.4421  2.4410 -0.0114
  178MOL0     H24545  11.795   1.818  12.235 -1.7786 -0.1656  2.1518
  178MOL0     H24546  11.481   2.112  12.121  0.2565 -1.4865 -0.2423
  178MOL0     H24547  11.271   2.228  12.066 -0.8638  0.5016  0.4829
  178MOL0     H24548   9.660   2.054  10.984 -0.7911  0.9715 -1.5784
  178MOL0     H24549   9.486   2.040  10.813 -1.8769 -1.6767  0.4927
  178MOL0     H24550   8.990   2.155  10.780 -4.7080  0.1214 -0.3475
  178MOL0     H24551   8.807   2.181  10.625 -1.3495 -1.2796 -1.4799
  178MOL0     H24552   8.630   2.032  10.431 -0.3136  0.0111 -0.6195
  178MOL0     H24553   8.654   2.201  10.450 -1.1325  0.8763  0.1854
  178MOL0     H24554   8.701   2.222  10.200  2.5366 -1.0345  2.2250
  178MOL0     H24555   8.522   2.188  10.246 -0.4420 -0.4752 -2.5058
  178MOL0     H24556   8.721   1.995  10.111 -0.4403 -0.4515 -1.9771
  178MOL0     H24557   8.544   1.970  10.147 -0.0653 -0.7890 -3.0236
  178MOL0     H24558   8.628   2.025   9.915  0.2728  0.9131 -0.3006
  178MOL0     H24559   8.653   2.179   9.976  3.9728 -3.0788 -1.6960
  178MOL0     H24560   8.246   2.199   9.925  0.6775  0.4679  1.6501
  178MOL0     H24561   9.031   1.952  10.333  2.7736 -0.6833  0.0610
  178MOL0     H24562   9.239   1.787  10.490  0.3063 -0.3485 -1.9673
  178MOL0     H24563   9.270   1.904  10.360  1.3586 -1.0499  0.2397
  178MOL0     H24564   9.333   1.934  10.523 -1.2057  3.2332 -0.8518
  179MOL0     O24565   4.024   8.614   8.143  0.2022  0.3458 -0.4198
  179MOL0     C24566   3.957   8.543   8.067 -0.1662 -0.6523 -0.5322
  179MOL0     O24567   4.001   8.493   7.949 -0.2046 -0.0630  0.2663
  179MOL0     C24568   4.132   8.513   7.923  0.6048  0.1208 -0.3503
  179MOL0     C24569   4.243   8.468   8.007  0.1057 -0.4157 -0.4012
  179MOL0     C24570   4.376   8.503   7.981  0.4196  0.8372  0.6198
  179MOL0     C24571   4.401   8.574   7.867  0.4632  0.0317 -0.3296
  179MOL0     O24572   4.522   8.612   7.818 -0.3938  0.1137 -0.3272
  179MOL0     C24573   4.635   8.559   7.893 -0.7156 -0.1842 -0.2597
  179MOL0     C24574   4.763   8.615   7.832 -0.6591 -0.8250  0.2966
  179MOL0     C24575   4.885   8.598   7.934 -0.2183 -0.4789  0.0241
  179MOL0     C24576   5.019   8.655   7.878 -0.2780 -0.1031  0.9991
  179MOL0     C24577   5.136   8.621   7.975  1.1004 -0.4148  0.1059
  179MOL0     C24578   5.153   8.724   8.084  0.0739 -0.8683  0.4140
  179MOL0     C24579   5.263   8.831   8.068  0.5979  0.9845 -1.3752
  179MOL0     C24580   5.375   8.792   8.163 -0.3275 -0.1269  0.1698
  179MOL0     N24581   5.488   8.889   8.156 -0.1411  0.3476  0.3916
  179MOL0     C24582   5.516   8.994   8.239  0.0680  0.3561  0.2184
  179MOL0     C24583   5.625   9.044   8.181 -0.0406 -0.2329  0.2564
  179MOL0     C24584   5.706   9.163   8.234 -1.0327 -0.0484 -0.0357
  179MOL0     C24585   5.847   9.173   8.160 -0.1402  0.1515 -0.0566
  179MOL0     C24586   5.918   9.307   8.184  0.1405  0.2752  0.9530
  179MOL0     C24587   6.068   9.300   8.180 -0.5141  0.7618 -0.2065
  179MOL0     O24588   6.111   9.428   8.213 -0.3799  0.0180 -0.1575
  179MOL0     C24589   6.251   9.453   8.220  1.2909  0.2155 -0.4417
  179MOL0     C24590   6.292   9.587   8.240 -0.6831  0.2577  0.8415
  179MOL0     C24591   6.428   9.614   8.250 -0.1807  0.3872 -0.3375
  179MOL0     C24592   6.473   9.758   8.263  0.3297  0.5638 -0.0264
  179MOL0     C24593   6.521   9.500   8.235  0.5127  1.2676  0.0919
  179MOL0     C24594   6.664   9.514   8.246  0.4229 -0.6802 -0.4387
  179MOL0     O24595   6.743   9.436   8.167  0.0509 -0.5325 -0.1745
  179MOL0     C24596   6.880   9.437   8.195 -0.2348 -0.1730  0.4143
  179MOL0     C24597   6.969   9.507   8.103 -0.0561 -0.1981 -0.4357
  179MOL0     C24598   7.100   9.524   8.145 -0.6490  0.0545 -0.3148
  179MOL0     C24599   7.153   9.470   8.261 -0.7360  0.1724  0.4404
  179MOL0     O24600   7.283   9.478   8.289 -0.6622 -0.7773 -0.2030
  179MOL0     C24601   7.345   9.495   8.417  0.2811  0.6220  0.0273
  179MOL0     C24602   7.467   9.416   8.429 -0.4115  0.2099  0.5633
  179MOL0     C24603   7.545   9.397   8.301 -0.5284  0.4467 -0.3199
  179MOL0     C24604   7.686   9.328   8.336 -0.0773  0.0062  0.0416
  179MOL0     C24605   7.803   9.421   8.389  0.4652  0.0553  0.2533
  179MOL0     C24606   7.935   9.347   8.423 -0.0505 -0.0834 -0.2283
  179MOL0     C24607   8.050   9.442   8.467 -0.7957  0.1213  0.6564
  179MOL0     C24608   8.191   9.372   8.489  1.2232  0.7042 -0.5904
  179MOL0    Cl24609   8.307   9.499   8.541 -0.3779  0.0408  0.7879
  179MOL0     C24610   7.062   9.414   8.349 -0.4565  0.5354  0.4862
  179MOL0     C24611   6.934   9.395   8.311 -0.5804 -0.1373  0.3031
  179MOL0     O24612   6.704   9.588   8.339 -0.0681  0.1068 -0.2784
  179MOL0     C24613   6.475   9.378   8.204 -0.1200  0.3542  0.4373
  179MOL0     C24614   6.343   9.345   8.197  0.3945 -0.2168  0.2748
  179MOL0     N24615   5.655   8.981   8.056  0.4668 -0.4721 -0.5700
  179MOL0     N24616   5.573   8.882   8.048  0.6477  0.3985 -0.0423
  179MOL0     C24617   4.297   8.613   7.770 -0.1501 -0.0991 -0.1281
  179MOL0     C24618   4.165   8.584   7.811  0.1217 -0.1063 -0.0998
  179MOL0     C24619   3.824   8.493   8.105  1.2137 -0.9618 -0.2784
  179MOL0     C24620   3.818   8.366   8.167 -0.7830  0.1734  0.9302
  179MOL0     C24621   3.691   8.316   8.191  0.5935 -0.4139 -0.3916
  179MOL0     C24622   3.571   8.389   8.162 -0.5135 -0.0882 -0.5872
  179MOL0     O24623   3.448   8.336   8.178  0.2301 -0.4792 -0.5132
  179MOL0     C24624   3.415   8.275   8.306 -0.4279  0.9468 -0.0932
  179MOL0     C24625   3.389   8.407   8.399  0.5124 -0.8630  0.2457
  179MOL0     C24626   3.318   8.393   8.537 -0.1160 -0.0401 -0.3709
  179MOL0     C24627   3.310   8.526   8.610 -0.2836  0.7530 -0.0921
  179MOL0     C24628   3.258   8.504   8.747  0.2254 -0.2816 -0.0543
  179MOL0     C24629   3.219   8.484   8.859  0.1191 -0.0968  0.3178
  179MOL0     C24630   3.584   8.516   8.112 -0.2236 -0.7422  1.4440
  179MOL0     C24631   3.703   8.567   8.071 -0.5367 -0.7144 -0.9618
  179MOL0     C24632   3.703   8.696   7.998  0.0638 -0.4523 -0.5612
  179MOL0     H24633   4.227   8.421   8.104  0.5101  0.0909 -0.0801
  179MOL0     H24634   4.458   8.465   8.041 -0.2234  0.0199  1.0010
  179MOL0     H24635   4.639   8.450   7.894 -0.7045 -0.2161 -1.7830
  179MOL0     H24636   4.616   8.601   7.993  0.9555 -2.3340  1.0459
  179MOL0     H24637   4.775   8.573   7.732 -1.9439 -0.3561 -0.0692
  179MOL0     H24638   4.728   8.716   7.810 -0.1459 -0.9284 -1.0673
  179MOL0     H24639   4.861   8.655   8.024  0.7563 -1.6653  1.0844
  179MOL0     H24640   4.893   8.495   7.970 -2.7521 -1.2392 -1.3339
  179MOL0     H24641   5.037   8.601   7.784  0.2130 -1.6994  1.9707
  179MOL0     H24642   5.021   8.762   7.858  1.3318 -0.3643 -0.5244
  179MOL0     H24643   5.226   8.619   7.913  0.2602  1.2111 -1.2593
  179MOL0     H24644   5.118   8.523   8.019  0.6458  0.3516  1.6793
  179MOL0     H24645   5.064   8.787   8.097 -0.2367 -0.9186 -1.1823
  179MOL0     H24646   5.161   8.667   8.177 -0.7380  2.0853  2.4301
  179MOL0     H24647   5.225   8.925   8.111  0.9747  1.0442 -1.1637
  179MOL0     H24648   5.294   8.851   7.965 -0.0535  0.3237 -1.7055
  179MOL0     H24649   5.339   8.785   8.266 -2.2404  2.2896 -0.2468
  179MOL0     H24650   5.395   8.689   8.134 -3.4330 -0.4045 -1.4755
  179MOL0     H24651   5.466   9.033   8.328 -0.2134  3.0547 -1.0174
  179MOL0     H24652   5.723   9.156   8.341 -0.6002 -0.4169 -0.1241
  179MOL0     H24653   5.651   9.256   8.220  1.3343  1.4364 -0.0073
  179MOL0     H24654   5.906   9.089   8.198 -3.2045 -2.3187 -0.3451
  179MOL0     H24655   5.841   9.148   8.054  1.1656 -1.0635  0.1262
  179MOL0     H24656   5.881   9.379   8.110 -0.6737 -2.3341 -1.3345
  179MOL0     H24657   5.873   9.341   8.278  0.5438  0.7516  0.9857
  179MOL0     H24658   6.095   9.224   8.254  1.4343  0.9342 -0.6910
  179MOL0     H24659   6.108   9.271   8.082  0.0878  1.6314 -0.2255
  179MOL0     H24660   6.215   9.663   8.239 -1.6604 -0.6985  0.9782
  179MOL0     H24661   6.388   9.827   8.271  0.2498  0.3476  1.0712
  179MOL0     H24662   6.532   9.789   8.176 -1.3665  0.3246 -1.3030
  179MOL0     H24663   6.528   9.758   8.358 -0.0728  4.9118  0.4077
  179MOL0     H24664   6.933   9.552   8.012 -0.8799 -0.5390 -0.2819
  179MOL0     H24665   7.156   9.575   8.067  0.2271 -1.7068 -0.8876
  179MOL0     H24666   7.378   9.599   8.408  0.9995  0.4516  0.5999
  179MOL0     H24667   7.280   9.497   8.505  0.5741  4.8691  0.3630
  179MOL0     H24668   7.527   9.472   8.502 -0.2279 -0.9976  1.3623
  179MOL0     H24669   7.436   9.321   8.471  0.5576  0.2197  1.3400
  179MOL0     H24670   7.550   9.486   8.238 -2.3934  0.7317 -0.1225
  179MOL0     H24671   7.478   9.337   8.239 -2.1461  2.1559 -0.3140
  179MOL0     H24672   7.732   9.277   8.251  1.2347 -1.8482  1.7733
  179MOL0     H24673   7.654   9.252   8.407 -2.0369  1.3518  0.6647
  179MOL0     H24674   7.814   9.494   8.309 -1.7776 -0.6066 -0.7522
  179MOL0     H24675   7.756   9.468   8.476 -1.1084 -0.8710 -0.0319
  179MOL0     H24676   7.963   9.290   8.335 -0.0365  1.0890 -1.0097
  179MOL0     H24677   7.909   9.280   8.506 -2.0501 -1.0327 -1.5470
  179MOL0     H24678   8.030   9.497   8.559  1.0471 -1.3652  2.0054
  179MOL0     H24679   8.057   9.515   8.386  1.2221  0.5603  1.1788
  179MOL0     H24680   8.219   9.323   8.395 -1.1277 -1.8956 -0.0801
  179MOL0     H24681   8.181   9.300   8.571 -0.1645  0.2067 -1.1552
  179MOL0     H24682   7.089   9.375   8.446  0.0122  0.9412  0.5251
  179MOL0     H24683   6.859   9.356   8.379  0.3381 -3.4800 -0.3930
  179MOL0     H24684   6.551   9.301   8.192  0.0580  0.6855 -0.7483
  179MOL0     H24685   6.326   9.239   8.182  0.5555  0.0499 -2.2953
  179MOL0     H24686   4.324   8.671   7.683  1.1317 -1.7229 -0.8607
  179MOL0     H24687   4.079   8.617   7.753 -0.9418 -2.3650  0.0867
  179MOL0     H24688   3.910   8.317   8.196 -1.0315  0.6451  2.6123
  179MOL0     H24689   3.690   8.214   8.228 -1.5326 -1.8333 -3.9198
  179MOL0     H24690   3.326   8.212   8.303  0.8572 -0.9270 -0.2908
  179MOL0     H24691   3.496   8.219   8.354 -1.9958 -0.9273  0.5377
  179MOL0     H24692   3.319   8.463   8.336  1.2555 -0.7899 -0.5423
  179MOL0     H24693   3.484   8.460   8.401  0.7098 -1.0446 -1.7384
  179MOL0     H24694   3.219   8.350   8.517 -1.4825  0.9700  3.3824
  179MOL0     H24695   3.375   8.325   8.600 -1.5733 -0.8414  0.1393
  179MOL0     H24696   3.240   8.583   8.548 -2.3907 -2.2809 -0.7032
  179MOL0     H24697   3.412   8.567   8.610  1.5007 -3.1967 -0.1989
  179MOL0     H24698   3.175   8.480   8.956 -0.5939 -3.8094 -0.0052
  179MOL0     H24699   3.488   8.564   8.099  0.1247 -0.0533  1.3419
  179MOL0     H24700   3.598   8.720   7.976 -0.5011 -1.2774  1.0318
  179MOL0     H24701   3.746   8.780   8.052 -3.5695  0.4021  1.3658
  179MOL0     H24702   3.760   8.675   7.908 -0.0036 -2.1504 -0.2427
  180MOL0     O24703   2.345   1.072   9.755  0.7757 -0.5576  0.3006
  180MOL0     C24704   2.262   1.034   9.839  0.0050  0.6115 -0.3617
  180MOL0     O24705   2.300   0.970   9.955  0.7223  0.5904 -0.0320
  180MOL0     C24706   2.424   0.960  10.001  0.0855  0.1861 -0.3111
  180MOL0     C24707   2.453   0.839  10.076 -0.1432 -0.6133  0.4521
  180MOL0     C24708   2.580   0.830  10.136 -0.7253  0.3877  0.8396
  180MOL0     C24709   2.671   0.944  10.132  0.7150  0.2801  0.2218
  180MOL0     O24710   2.788   0.944  10.203 -0.0841 -0.4385 -0.5647
  180MOL0     C24711   2.918   0.994  10.153 -0.6823 -0.3086 -0.0016
  180MOL0     C24712   3.012   1.013  10.278 -0.8021  0.0830 -0.1119
  180MOL0     C24713   3.158   1.055  10.249  0.0261 -0.2130  0.5934
  180MOL0     C24714   3.241   0.933  10.207 -0.2717 -0.7915 -0.3491
  180MOL0     C24715   3.388   0.955  10.180 -0.3451 -0.8545 -0.3549
  180MOL0     C24716   3.405   0.996  10.031  0.4139  0.7600 -0.0212
  180MOL0     C24717   3.554   1.015   9.998 -0.2334 -0.0313  0.2789
  180MOL0     C24718   3.640   0.880  10.011 -0.0901 -0.6951  0.4047
  180MOL0     N24719   3.778   0.895   9.966  0.5723 -0.2224  0.6366
  180MOL0     C24720   3.844   0.784   9.931 -0.2102  0.1780  0.3265
  180MOL0     C24721   3.964   0.825   9.870  0.7307 -0.4951  0.4122
  180MOL0     C24722   4.076   0.745   9.806  0.1700  0.2194 -0.0708
  180MOL0     C24723   4.187   0.830   9.747 -0.4445 -0.7626  0.3736
  180MOL0     C24724   4.298   0.750   9.680  1.1880 -0.3961  0.2741
  180MOL0     C24725   4.355   0.632   9.750 -0.2385  0.7506 -0.3890
  180MOL0     O24726   4.459   0.587   9.665  0.1045  0.2997 -0.0677
  180MOL0     C24727   4.557   0.509   9.718  0.5542 -1.2824 -0.7354
  180MOL0     C24728   4.598   0.397   9.647 -0.8998 -0.1606 -0.0262
  180MOL0     C24729   4.698   0.302   9.691  0.3312  0.0606  0.1807
  180MOL0     C24730   4.738   0.199   9.600 -0.3516  0.0750 -0.9463
  180MOL0     C24731   4.766   0.339   9.814  0.0733 -0.6831  0.0933
  180MOL0     C24732   4.875   0.268   9.873 -0.1421  0.5039 -0.2043
  180MOL0     O24733   4.936   0.328   9.970  0.1512 -0.1034 -0.4506
  180MOL0     C24734   5.027   0.243  10.036 -0.5851  0.2931  0.0177
  180MOL0     C24735   5.163   0.257  10.002  0.8318 -0.1219 -0.1775
  180MOL0     C24736   5.260   0.174  10.067  0.0191  0.2034 -0.2639
  180MOL0     C24737   5.225   0.079  10.159 -0.3601 -0.3748  0.0918
  180MOL0     O24738   5.330   0.006  10.212  0.5479 -0.1725  0.4429
  180MOL0     C24739   5.292  -0.106  10.294  0.4781 -0.1817  0.6524
  180MOL0     C24740   5.288  -0.082  10.436 -0.7067 -0.2606  0.1905
  180MOL0     C24741   5.404   0.001  10.493  0.3379 -0.0358 -0.1404
  180MOL0     C24742   5.397   0.012  10.647  0.7320  0.2063 -0.6989
  180MOL0     C24743   5.497   0.104  10.707 -0.2649 -0.3031  0.1043
  180MOL0     C24744   5.633   0.043  10.734  0.0957  0.1856 -0.6026
  180MOL0     C24745   5.732   0.139  10.793  0.8962 -0.3712 -0.0743
  180MOL0     C24746   5.778   0.241  10.692  0.8731 -0.8048 -0.2380
  180MOL0    Cl24747   5.927   0.315  10.761 -0.4129  0.0421 -0.0885
  180MOL0     C24748   5.090   0.068  10.201  0.6303  0.9575  0.7993
  180MOL0     C24749   4.995   0.154  10.143 -0.3085 -0.4699  0.7657
  180MOL0     O24750   4.892   0.152   9.826  0.6123 -0.3309 -0.2174
  180MOL0     C24751   4.725   0.461   9.877  0.1249  0.4978  0.2212
  180MOL0     C24752   4.618   0.543   9.836  0.0075 -0.6157 -0.1802
  180MOL0     N24753   3.948   0.965   9.861 -0.2366  0.2610 -0.4663
  180MOL0     N24754   3.847   0.999   9.925  0.1636  0.8987  0.1510
  180MOL0     C24755   2.634   1.063  10.063  0.7885 -0.0829  0.3321
  180MOL0     C24756   2.511   1.069   9.994 -0.3941  0.7711 -0.5185
  180MOL0     C24757   2.119   1.036   9.811 -0.5053 -0.2317 -0.3559
  180MOL0     C24758   2.037   0.965   9.898  0.4449 -0.3263  0.0511
  180MOL0     C24759   1.894   0.966   9.886 -0.2457 -0.0101 -0.5277
  180MOL0     C24760   1.836   1.043   9.788  0.0853  0.4235  0.6751
  180MOL0     O24761   1.700   1.028   9.769  0.7033 -0.2608  0.0095
  180MOL0     C24762   1.633   1.143   9.724  1.3067 -0.8874  0.0174
  180MOL0     C24763   1.488   1.133   9.698  0.3476 -0.8118  0.5035
  180MOL0     C24764   1.416   1.259   9.675  0.1833  1.1808 -1.1528
  180MOL0     C24765   1.265   1.255   9.681 -0.0339  0.0903  0.1572
  180MOL0     C24766   1.212   1.394   9.667  0.5972 -0.1567  0.1706
  180MOL0     C24767   1.153   1.501   9.656  0.0138  0.0028 -0.4029
  180MOL0     C24768   1.922   1.118   9.698 -0.1862  0.0580  0.0937
  180MOL0     C24769   2.065   1.119   9.713 -0.2947  0.6291  0.7232
  180MOL0     C24770   2.135   1.202   9.604 -0.1467 -0.5736  0.4784
  180MOL0     H24771   2.369   0.771  10.076 -0.8364  0.2336  0.6183
  180MOL0     H24772   2.622   0.740  10.181  1.6476 -0.0017 -1.8690
  180MOL0     H24773   2.908   1.088  10.098 -1.8748  0.4550  1.4496
  180MOL0     H24774   2.969   0.918  10.093  1.7689  1.6054 -0.5082
  180MOL0     H24775   2.973   1.092  10.342  2.8734  0.5851  1.7710
  180MOL0     H24776   3.011   0.921  10.337  1.5400 -0.4560 -0.7630
  180MOL0     H24777   3.174   1.133  10.174  1.8643 -0.0901  1.0751
  180MOL0     H24778   3.202   1.098  10.339  1.6858  1.2628 -0.8704
  180MOL0     H24779   3.230   0.859  10.287 -2.3237  0.1557  0.3198
  180MOL0     H24780   3.194   0.892  10.117  0.6321 -1.0169 -0.7282
  180MOL0     H24781   3.448   0.868  10.205  1.7187  0.7558  0.6357
  180MOL0     H24782   3.419   1.041  10.241 -0.7770 -1.4693  0.7571
  180MOL0     H24783   3.364   0.917   9.968 -1.9429  1.3441  0.6754
  180MOL0     H24784   3.353   1.091  10.017  1.7891  1.3317 -1.5225
  180MOL0     H24785   3.578   1.093  10.071 -2.0830 -0.6011  1.5861
  180MOL0     H24786   3.569   1.060   9.899 -0.0126 -0.4891  0.1006
  180MOL0     H24787   3.640   0.865  10.119 -0.6438  1.4850  0.7487
  180MOL0     H24788   3.598   0.800   9.948 -3.2696 -0.0009  1.4650
  180MOL0     H24789   3.813   0.680   9.927 -1.9803  0.6966 -3.1800
  180MOL0     H24790   4.026   0.685   9.730  0.6474  0.4560 -0.5753
  180MOL0     H24791   4.117   0.687   9.889  2.0242 -1.1710 -1.8778
  180MOL0     H24792   4.139   0.889   9.668  0.0056  0.0130  0.6633
  180MOL0     H24793   4.225   0.892   9.829 -0.9104 -1.0719  0.8250
  180MOL0     H24794   4.261   0.720   9.581  0.4241 -1.9889  1.0038
  180MOL0     H24795   4.383   0.811   9.647  0.4946 -0.1892 -1.1859
  180MOL0     H24796   4.387   0.662   9.850 -0.6454 -0.0213 -0.0214
  180MOL0     H24797   4.286   0.549   9.768  0.5986 -0.4648 -2.4794
  180MOL0     H24798   4.538   0.381   9.559 -0.1093  1.5152 -0.9072
  180MOL0     H24799   4.720   0.095   9.630 -0.4392 -0.2399 -2.0289
  180MOL0     H24800   4.847   0.207   9.590 -0.0247 -1.7737  0.4747
  180MOL0     H24801   4.692   0.216   9.503 -1.0131  0.3280 -0.5908
  180MOL0     H24802   5.185   0.332   9.927 -3.3488  0.0402 -1.4957
  180MOL0     H24803   5.367   0.179  10.055 -0.0422  1.4559 -0.4486
  180MOL0     H24804   5.208  -0.163  10.255  0.3575  1.2007 -1.2372
  180MOL0     H24805   5.374  -0.177  10.277  1.5198  1.2352 -0.4928
  180MOL0     H24806   5.199  -0.028  10.467 -0.6162 -0.4741  0.8377
  180MOL0     H24807   5.293  -0.185  10.474  1.8222 -0.7487 -1.1760
  180MOL0     H24808   5.385   0.098  10.446 -2.3182  0.0988  1.0262
  180MOL0     H24809   5.503  -0.036  10.466 -0.2451 -0.9925 -1.0222
  180MOL0     H24810   5.412  -0.089  10.686  1.8032  0.2402 -1.0037
  180MOL0     H24811   5.296   0.043  10.679  0.0912 -2.2669 -0.1319
  180MOL0     H24812   5.509   0.195  10.648  1.9255 -0.5037  0.1435
  180MOL0     H24813   5.461   0.133  10.806  2.6623 -0.2739  1.2544
  180MOL0     H24814   5.674  -0.015  10.651 -1.1470 -1.5971 -0.0412
  180MOL0     H24815   5.611  -0.027  10.815 -5.2400  0.8595 -1.0769
  180MOL0     H24816   5.822   0.093  10.835  0.4228 -0.6814  0.6190
  180MOL0     H24817   5.682   0.190  10.876 -1.4185  0.6196 -1.9457
  180MOL0     H24818   5.699   0.316  10.684  1.5362 -0.1635 -0.9207
  180MOL0     H24819   5.800   0.189  10.598  2.0940 -0.7615  0.0002
  180MOL0     H24820   5.045  -0.008  10.265 -0.0561 -0.6756 -1.5188
  180MOL0     H24821   4.890   0.162  10.168 -0.8463  0.7849 -1.6079
  180MOL0     H24822   4.757   0.474   9.980 -0.0791  0.3563  0.3031
  180MOL0     H24823   4.586   0.626   9.898  1.2740 -2.2252  2.8521
  180MOL0     H24824   2.701   1.148  10.061 -0.4718  0.9400  0.4377
  180MOL0     H24825   2.476   1.157   9.941 -0.7555  0.9073 -0.0602
  180MOL0     H24826   2.067   0.903   9.983  0.1652 -1.2025 -0.4717
  180MOL0     H24827   1.840   0.903   9.956  1.0758  2.3817  2.9062
  180MOL0     H24828   1.643   1.214   9.807 -2.6746 -0.5196  0.4196
  180MOL0     H24829   1.676   1.193   9.637  0.9307  0.2935  0.4836
  180MOL0     H24830   1.433   1.082   9.777 -1.4987 -0.4161 -0.4581
  180MOL0     H24831   1.475   1.066   9.612 -1.0437  0.4765 -0.3430
  180MOL0     H24832   1.447   1.334   9.749  0.4292  1.9731 -2.0477
  180MOL0     H24833   1.437   1.298   9.575  0.8314  0.5371 -1.2732
  180MOL0     H24834   1.229   1.212   9.775  1.5199  1.2653  1.3490
  180MOL0     H24835   1.225   1.191   9.601  0.1585 -1.2485  1.1056
  180MOL0     H24836   1.106   1.597   9.643  1.3019  1.0445  1.9829
  180MOL0     H24837   1.880   1.178   9.618  0.1140  1.7467  1.1375
  180MOL0     H24838   2.212   1.263   9.653  0.9716 -0.1366 -1.6889
  180MOL0     H24839   2.185   1.151   9.521  1.9546  3.4437 -1.0061
  180MOL0     H24840   2.068   1.270   9.550  1.5228 -1.4401 -2.9607
  181MOL0     O24841   3.415   3.461  10.537 -0.0602  0.5346 -1.0572
  181MOL0     C24842   3.432   3.514  10.430  0.5300 -0.8692  0.5161
  181MOL0     O24843   3.552   3.544  10.379  0.0190 -0.3660  0.4866
  181MOL0     C24844   3.664   3.500  10.447 -0.4826 -0.6836 -0.2962
  181MOL0     C24845   3.770   3.592  10.474 -0.7249 -0.4627 -0.0797
  181MOL0     C24846   3.879   3.544  10.537  0.6599  0.5214 -0.5063
  181MOL0     C24847   3.896   3.410  10.575 -0.1278  0.2833 -0.4769
  181MOL0     O24848   4.013   3.358  10.629 -0.2372  0.2059 -0.6562
  181MOL0     C24849   4.126   3.451  10.656 -0.0912  0.4785  1.0982
  181MOL0     C24850   4.235   3.351  10.693  0.7087 -0.1007 -0.9196
  181MOL0     C24851   4.292   3.271  10.576  0.2120  0.1384  0.2192
  181MOL0     C24852   4.413   3.192  10.620  0.0436  0.3462  0.2065
  181MOL0     C24853   4.511   3.179  10.502 -0.2192 -0.5087  0.5088
  181MOL0     C24854   4.638   3.108  10.543  0.8511 -0.2539  0.8383
  181MOL0     C24855   4.622   2.960  10.564  0.9489 -0.7958  0.5936
  181MOL0     C24856   4.742   2.908  10.634 -0.3853 -0.1008  0.8114
  181MOL0     N24857   4.862   2.899  10.544 -0.3670 -0.0736  0.2173
  181MOL0     C24858   4.983   2.967  10.557 -0.4885 -0.6701  0.0112
  181MOL0     C24859   5.048   2.925  10.449  0.1425  0.5325  0.1399
  181MOL0     C24860   5.181   2.960  10.400 -1.1322  0.6760 -0.1659
  181MOL0     C24861   5.225   3.102  10.424 -1.3134 -0.0890  0.2190
  181MOL0     C24862   5.171   3.208  10.326  0.0843  0.0444  0.9800
  181MOL0     C24863   5.206   3.184  10.175 -0.1725  0.8613 -0.6222
  181MOL0     O24864   5.343   3.137  10.153  0.5259  0.4277 -0.1435
  181MOL0     C24865   5.462   3.208  10.183  0.4049 -0.5137 -0.4241
  181MOL0     C24866   5.460   3.348  10.197 -0.0523 -0.7466 -0.3673
  181MOL0     C24867   5.591   3.416  10.199 -0.3380 -0.2507  0.3253
  181MOL0     C24868   5.591   3.569  10.208 -0.5078  0.5796 -0.1291
  181MOL0     C24869   5.712   3.346  10.173 -0.4799 -0.1592 -0.4341
  181MOL0     C24870   5.851   3.415  10.171  0.6377 -0.7419 -1.1290
  181MOL0     O24871   5.949   3.365  10.094 -0.4329  0.2978 -1.0030
  181MOL0     C24872   6.068   3.427  10.089 -0.1012  0.0541  0.3707
  181MOL0     C24873   6.083   3.567  10.078  0.4744  0.1651  0.2542
  181MOL0     C24874   6.207   3.632  10.060 -0.1346 -0.4006  0.1083
  181MOL0     C24875   6.320   3.550  10.067  0.1183 -0.6374 -0.3511
  181MOL0     O24876   6.439   3.612  10.057 -0.5457  1.1129 -0.2907
  181MOL0     C24877   6.555   3.532  10.020  0.0713  0.2544 -0.5121
  181MOL0     C24878   6.674   3.613   9.976  0.1169 -0.1154 -0.0119
  181MOL0     C24879   6.759   3.532   9.878  0.6617 -0.2316  0.5072
  181MOL0     C24880   6.873   3.626   9.830  0.8173 -0.3399  0.7763
  181MOL0     C24881   6.965   3.553   9.736  0.1759 -0.1719 -0.2390
  181MOL0     C24882   7.061   3.636   9.657 -0.0229  0.0273  0.0216
  181MOL0     C24883   7.143   3.549   9.566 -0.0247 -1.1907  0.7331
  181MOL0     C24884   7.228   3.446   9.646 -0.0808  0.3737  0.2705
  181MOL0    Cl24885   7.327   3.524   9.779  0.2359 -0.5301  0.1955
  181MOL0     C24886   6.307   3.414  10.077  0.0812 -0.2634  0.6424
  181MOL0     C24887   6.183   3.351  10.092  0.0069 -0.4630  0.4415
  181MOL0     O24888   5.868   3.487  10.267 -0.6766 -0.0482  0.2211
  181MOL0     C24889   5.702   3.209  10.153  0.0110  0.7001  0.7963
  181MOL0     C24890   5.582   3.145  10.163  0.0616  1.0390  0.0896
  181MOL0     N24891   4.975   2.821  10.387  0.1168  0.0921 -0.4087
  181MOL0     N24892   4.862   2.814  10.439 -0.2782  0.9117  0.4783
  181MOL0     C24893   3.791   3.322  10.539 -0.8081  0.1732 -0.4896
  181MOL0     C24894   3.676   3.362  10.476 -0.1056  0.2195  1.0512
  181MOL0     C24895   3.314   3.562  10.345 -0.2130 -0.2441  0.2128
  181MOL0     C24896   3.303   3.697  10.312  1.0400  0.5597 -0.8377
  181MOL0     C24897   3.195   3.740  10.238  0.3192  0.0264 -0.8506
  181MOL0     C24898   3.080   3.657  10.231  0.6456 -0.6526 -0.0939
  181MOL0     O24899   2.984   3.736  10.187 -0.5891 -0.6025  0.2558
  181MOL0     C24900   2.848   3.698  10.211 -0.9650  0.0693  0.6586
  181MOL0     C24901   2.763   3.826  10.224 -0.9074  0.4022 -0.5526
  181MOL0     C24902   2.624   3.785  10.264  0.2760  0.6403 -0.0197
  181MOL0     C24903   2.522   3.905  10.291 -0.2184 -0.8326 -0.1030
  181MOL0     C24904   2.476   3.986  10.176 -0.8118  0.4874  0.0724
  181MOL0     C24905   2.465   4.058  10.077  0.1318  0.2810  1.0100
  181MOL0     C24906   3.089   3.520  10.267 -0.1560 -0.2423 -0.2659
  181MOL0     C24907   3.210   3.469  10.324  0.0682 -0.7752  1.2236
  181MOL0     C24908   3.216   3.319  10.356  0.2483  0.5233 -0.6790
  181MOL0     H24909   3.764   3.698  10.452  0.0079 -0.1594  1.0879
  181MOL0     H24910   3.959   3.615  10.555 -0.5042  2.0645 -1.1614
  181MOL0     H24911   4.089   3.514  10.738 -0.5246  0.3030  1.0395
  181MOL0     H24912   4.148   3.502  10.562 -1.7479 -4.2731 -2.2849
  181MOL0     H24913   4.312   3.400  10.753  0.6974 -0.7073 -0.3962
  181MOL0     H24914   4.192   3.286  10.769  0.1660  0.8649 -0.3827
  181MOL0     H24915   4.220   3.206  10.526  3.2341 -1.2172 -2.7616
  181MOL0     H24916   4.325   3.345  10.502 -0.5382  0.5662  0.3054
  181MOL0     H24917   4.464   3.236  10.706  0.5334 -1.2896  0.7866
  181MOL0     H24918   4.366   3.096  10.644 -2.3014  1.2384 -0.5054
  181MOL0     H24919   4.541   3.277  10.464 -2.2664 -0.1808 -0.3926
  181MOL0     H24920   4.459   3.131  10.419  0.8602 -0.0923 -0.4474
  181MOL0     H24921   4.708   3.114  10.460  0.9633 -1.6927  0.7942
  181MOL0     H24922   4.689   3.155  10.628  1.2240 -1.1995  1.1557
  181MOL0     H24923   4.610   2.910  10.467  1.2730  2.1692 -1.0880
  181MOL0     H24924   4.536   2.951  10.632 -0.3825  4.5750  0.0906
  181MOL0     H24925   4.763   2.967  10.724 -0.5916  0.8683  0.2340
  181MOL0     H24926   4.720   2.804  10.659  0.0581 -0.1136  1.1624
  181MOL0     H24927   5.006   3.047  10.626 -0.5850 -0.5906 -0.0484
  181MOL0     H24928   5.188   2.943  10.292  0.2194 -0.7975  0.1006
  181MOL0     H24929   5.250   2.890  10.448 -1.6806  1.1306  1.3092
  181MOL0     H24930   5.203   3.121  10.530 -1.8207 -2.5196  0.6153
  181MOL0     H24931   5.334   3.097  10.419 -1.2810  0.4199  0.3018
  181MOL0     H24932   5.063   3.215  10.340  0.0476  0.7429  0.3699
  181MOL0     H24933   5.210   3.307  10.348  0.0318  1.5773 -4.4913
  181MOL0     H24934   5.138   3.108  10.135  0.5376 -1.0174  1.5327
  181MOL0     H24935   5.188   3.271  10.111  2.7652  1.9937 -0.0367
  181MOL0     H24936   5.369   3.402  10.218  0.5910  0.5443 -0.7963
  181MOL0     H24937   5.644   3.614  10.123 -0.2973  0.7152  0.0722
  181MOL0     H24938   5.635   3.606  10.301  1.3869  1.0725 -1.1500
  181MOL0     H24939   5.489   3.608  10.206 -1.6777 -2.2316  0.7910
  181MOL0     H24940   5.990   3.621  10.068  0.5557  0.6389  1.8388
  181MOL0     H24941   6.205   3.740  10.052 -2.6760 -0.2700  1.4683
  181MOL0     H24942   6.574   3.469  10.107 -0.5507 -0.0879 -0.6206
  181MOL0     H24943   6.518   3.472   9.936  1.1558 -1.4623  0.1840
  181MOL0     H24944   6.634   3.708   9.940  0.6186 -0.4141 -1.4034
  181MOL0     H24945   6.727   3.630  10.070  2.2960  0.5843 -1.2993
  181MOL0     H24946   6.691   3.517   9.793  1.7575  0.3099 -0.5023
  181MOL0     H24947   6.794   3.439   9.922 -0.0303 -1.4359 -1.3652
  181MOL0     H24948   6.919   3.666   9.921  0.5601 -0.3456  0.9085
  181MOL0     H24949   6.836   3.716   9.780  0.7016 -0.1569  1.1883
  181MOL0     H24950   7.018   3.484   9.801 -0.5966  1.6695  2.5267
  181MOL0     H24951   6.901   3.496   9.668  0.8984 -0.0037 -1.0712
  181MOL0     H24952   7.122   3.710   9.710  1.0252 -0.6226 -0.2407
  181MOL0     H24953   6.996   3.700   9.597  2.8857  2.2943 -0.9469
  181MOL0     H24954   7.209   3.608   9.502 -1.8581  0.6387  0.4580
  181MOL0     H24955   7.082   3.488   9.499  1.0202 -1.7101  0.2229
  181MOL0     H24956   7.298   3.394   9.580  1.5645 -0.1142  2.2858
  181MOL0     H24957   7.170   3.360   9.684  0.4981 -1.1802 -2.1617
  181MOL0     H24958   6.393   3.348  10.078  0.5162  0.1450 -1.8506
  181MOL0     H24959   6.174   3.244  10.107 -0.4851 -0.3585  0.9372
  181MOL0     H24960   5.785   3.147  10.120 -1.8056  0.1344 -3.3224
  181MOL0     H24961   5.567   3.038  10.152 -3.6324  1.5527 -1.6350
  181MOL0     H24962   3.797   3.216  10.561  1.1039  0.4740  0.6375
  181MOL0     H24963   3.600   3.287  10.456  1.0941 -1.3543  2.0981
  181MOL0     H24964   3.388   3.763  10.319  1.8335 -0.4989 -0.2567
  181MOL0     H24965   3.193   3.843  10.202 -2.5216 -0.5988 -2.7913
  181MOL0     H24966   2.811   3.635  10.130  0.1844 -1.7202  1.4639
  181MOL0     H24967   2.836   3.642  10.304 -0.4519  1.0654  1.3385
  181MOL0     H24968   2.762   3.879  10.128 -3.1061  2.0192  0.2874
  181MOL0     H24969   2.810   3.887  10.300  0.5036  0.1794 -1.2152
  181MOL0     H24970   2.582   3.709  10.198  1.5767  0.3547 -0.5321
  181MOL0     H24971   2.634   3.736  10.362 -3.5769 -1.9579 -0.7064
  181MOL0     H24972   2.567   3.970  10.366  0.3813  0.4610 -1.5344
  181MOL0     H24973   2.432   3.861  10.335 -1.0738  0.2625 -0.6949
  181MOL0     H24974   2.463   4.114   9.986  0.1035  0.8696  1.3655
  181MOL0     H24975   3.010   3.448  10.247 -1.3770  0.9733  0.0391
  181MOL0     H24976   3.319   3.287  10.339 -0.3727 -1.0174 -1.7290
  181MOL0     H24977   3.185   3.312  10.461 -2.5540  0.0473 -1.4561
  181MOL0     H24978   3.149   3.260  10.293 -1.2761  1.0050  0.4377
  182MOL0     O24979   9.072  11.370   6.286  0.0427  0.4410 -0.0736
  182MOL0     C24980   9.043  11.366   6.405 -0.4078 -0.2194  0.0520
  182MOL0     O24981   9.127  11.359   6.510 -0.2033 -0.1024 -0.1892
  182MOL0     C24982   9.260  11.349   6.494  0.3477  0.5026 -0.1909
  182MOL0     C24983   9.343  11.416   6.405  0.2699  0.0920  0.7401
  182MOL0     C24984   9.481  11.390   6.408 -0.4624 -0.6501  0.1337
  182MOL0     C24985   9.535  11.310   6.512  0.2697 -0.1470  0.6177
  182MOL0     O24986   9.673  11.296   6.535 -0.8354  0.4658  0.4445
  182MOL0     C24987   9.759  11.295   6.424 -0.0147  0.7211  0.8841
  182MOL0     C24988   9.848  11.409   6.454  0.0081 -0.3460 -0.9299
  182MOL0     C24989   9.938  11.436   6.330 -0.0938  0.1801 -0.2115
  182MOL0     C24990  10.030  11.561   6.347 -0.1767 -0.3914  0.0412
  182MOL0     C24991  10.122  11.568   6.222 -0.3534  0.5214 -1.0717
  182MOL0     C24992  10.217  11.694   6.217  0.9119  0.8108 -0.0004
  182MOL0     C24993  10.308  11.686   6.099 -0.3123 -0.2741  0.7262
  182MOL0     C24994  10.420  11.789   6.101  0.0414 -0.2838 -0.5609
  182MOL0     N24995  10.528  11.746   6.013  0.5036 -0.0409  0.4418
  182MOL0     C24996  10.556  11.794   5.885  0.4863  1.5100  0.1505
  182MOL0     C24997  10.669  11.717   5.854  0.1889  0.3493 -0.9595
  182MOL0     C24998  10.746  11.752   5.724  0.0590 -0.6760  0.6622
  182MOL0     C24999  10.872  11.832   5.746 -0.6332 -0.6694 -0.3646
  182MOL0     C25000  10.851  11.986   5.761  0.8723  0.1884  0.0321
  182MOL0     C25001  10.973  12.053   5.820  0.0793 -0.2603 -0.5728
  182MOL0     O25002  11.076  12.084   5.720 -0.2824  0.1757 -0.1623
  182MOL0     C25003  11.187  12.149   5.756  0.1740  0.2204  0.6665
  182MOL0     C25004  11.280  12.171   5.657 -0.4462 -0.0235  0.3926
  182MOL0     C25005  11.406  12.233   5.675  0.1013 -0.2919 -0.4044
  182MOL0     C25006  11.497  12.232   5.560 -0.4734 -0.1945 -0.4557
  182MOL0     C25007  11.431  12.283   5.809 -0.0765  0.8125  0.3283
  182MOL0     C25008  11.571  12.331   5.854  0.4339 -1.2194 -0.0866
  182MOL0     O25009  11.570  12.420   5.960  0.0548  0.1862  0.6387
  182MOL0     C25010  11.683  12.418   6.041 -0.4330 -0.0582  0.4327
  182MOL0     C25011  11.664  12.359   6.166  0.5004 -0.0795  0.1427
  182MOL0     C25012  11.773  12.344   6.252  0.0958 -0.2325  0.3250
  182MOL0     C25013  11.903  12.372   6.209 -1.0354  0.1097 -0.2241
  182MOL0     O25014  12.028  12.348   6.273  1.1919  0.3318  0.0087
  182MOL0     C25015  12.019  12.301   6.404  0.2300 -0.1611 -0.6629
  182MOL0     C25016  12.158  12.292   6.469 -0.1842 -0.2425  0.2458
  182MOL0     C25017  12.146  12.257   6.620  0.5201  0.3912  0.6360
  182MOL0     C25018  12.286  12.264   6.681 -0.6098  1.0869  0.7067
  182MOL0     C25019  12.286  12.244   6.834 -0.3988 -0.2952  0.2755
  182MOL0     C25020  12.427  12.230   6.895 -0.0616  0.6418  0.3068
  182MOL0     C25021  12.527  12.346   6.874  0.3111 -0.8611 -0.8188
  182MOL0     C25022  12.640  12.342   6.979 -0.4632 -0.8942  0.2511
  182MOL0    Cl25023  12.748  12.197   6.976  0.1943  0.0887  0.4401
  182MOL0     C25024  11.922  12.435   6.091  0.1489  0.3277  0.0862
  182MOL0     C25025  11.813  12.457   6.003 -0.3186  0.2459 -0.2392
  182MOL0     O25026  11.677  12.295   5.802 -1.0333 -0.5881  0.4864
  182MOL0     C25027  11.333  12.264   5.907 -0.5839  0.5232 -0.1344
  182MOL0     C25028  11.213  12.201   5.885 -0.0256 -0.0175 -0.2490
  182MOL0     N25029  10.693  11.624   5.953 -0.4616  0.4892 -0.0425
  182MOL0     N25030  10.606  11.637   6.047  0.0479  0.4247  0.3219
  182MOL0     C25031   9.454  11.252   6.609  0.3349 -0.3079 -0.5270
  182MOL0     C25032   9.314  11.266   6.600  0.1494  0.6609  0.5442
  182MOL0     C25033   8.898  11.364   6.432  0.4726  0.3354 -0.1729
  182MOL0     C25034   8.819  11.441   6.346 -0.1786 -0.0239  0.2884
  182MOL0     C25035   8.680  11.454   6.366  0.3827 -0.1686  0.2121
  182MOL0     C25036   8.617  11.377   6.463  0.4792  0.0462 -0.4758
  182MOL0     O25037   8.476  11.387   6.480 -0.1976  0.4420  0.2920
  182MOL0     C25038   8.416  11.290   6.563 -0.0966  0.5966  0.1983
  182MOL0     C25039   8.266  11.278   6.532 -0.7310  0.1115 -0.6499
  182MOL0     C25040   8.195  11.191   6.632 -0.0391  0.0326 -0.3074
  182MOL0     C25041   8.062  11.120   6.583 -0.3428  0.9395  0.7356
  182MOL0     C25042   7.976  11.217   6.507 -0.1267  0.0901  0.5067
  182MOL0     C25043   7.898  11.282   6.440 -0.0348 -0.0177 -0.0899
  182MOL0     C25044   8.700  11.311   6.558  0.2717  0.0849  0.4236
  182MOL0     C25045   8.834  11.304   6.542 -0.2715 -0.1805 -1.0378
  182MOL0     C25046   8.902  11.251   6.662 -0.1279  0.7826 -0.1474
  182MOL0     H25047   9.300  11.480   6.328  1.6492 -0.9954 -1.0335
  182MOL0     H25048   9.556  11.446   6.353  1.0225  0.9176  3.4891
  182MOL0     H25049   9.718  11.297   6.323  0.8510 -2.6970  0.3349
  182MOL0     H25050   9.818  11.203   6.427  0.1198  0.7312 -0.4956
  182MOL0     H25051   9.791  11.500   6.474  0.0769 -0.1226 -1.7096
  182MOL0     H25052   9.907  11.396   6.546 -0.0420  0.7321 -0.7351
  182MOL0     H25053   9.998  11.346   6.314  0.3023  0.3716  0.1615
  182MOL0     H25054   9.874  11.450   6.242 -1.3379  0.5408  0.7187
  182MOL0     H25055   9.974  11.652   6.369 -2.9859 -2.3491  1.5464
  182MOL0     H25056  10.098  11.542   6.431  0.0838 -2.1935 -0.5184
  182MOL0     H25057  10.054  11.558   6.137 -2.4774 -0.6197  0.6125
  182MOL0     H25058  10.181  11.477   6.217 -1.1839 -0.0377 -1.0081
  182MOL0     H25059  10.143  11.772   6.198 -0.2822 -0.1460  0.5432
  182MOL0     H25060  10.271  11.719   6.309  0.1916 -0.5083  0.8276
  182MOL0     H25061  10.245  11.699   6.011  0.2471 -0.7368  0.2517
  182MOL0     H25062  10.351  11.587   6.086 -2.9910 -1.4884  0.4576
  182MOL0     H25063  10.377  11.885   6.075  1.7051  0.6048 -0.1693
  182MOL0     H25064  10.459  11.780   6.203  0.3427 -0.8389 -0.7171
  182MOL0     H25065  10.497  11.862   5.825  0.8411 -2.4337 -5.4300
  182MOL0     H25066  10.682  11.798   5.647 -1.5995 -1.0012  1.7985
  182MOL0     H25067  10.784  11.663   5.674 -1.1314 -0.5943 -0.4387
  182MOL0     H25068  10.924  11.788   5.832 -0.3813 -1.2906 -0.8288
  182MOL0     H25069  10.939  11.811   5.662  0.3172  0.8290 -0.0096
  182MOL0     H25070  10.830  12.034   5.665 -1.3918  0.6058  0.6813
  182MOL0     H25071  10.763  12.002   5.824 -0.3273  2.0789 -1.9962
  182MOL0     H25072  10.934  12.143   5.870  0.7375 -0.9062  1.1597
  182MOL0     H25073  11.014  11.988   5.897  4.0646  1.7365 -0.7453
  182MOL0     H25074  11.255  12.133   5.558  1.7159 -0.2759 -0.1288
  182MOL0     H25075  11.594  12.186   5.579  1.3898  3.6686  0.3975
  182MOL0     H25076  11.523  12.331   5.522 -2.8832  0.1548 -1.3741
  182MOL0     H25077  11.449  12.176   5.479 -1.4369 -0.2376  0.1314
  182MOL0     H25078  11.562  12.337   6.196  0.4666  0.0351  0.1108
  182MOL0     H25079  11.745  12.290   6.342  0.5891 -2.7557 -0.9518
  182MOL0     H25080  11.948  12.354   6.468 -1.7146 -2.3790 -0.8577
  182MOL0     H25081  11.975  12.201   6.401 -2.6923  1.0244 -0.2733
  182MOL0     H25082  12.225  12.217   6.426  1.4810  2.4086 -2.0654
  182MOL0     H25083  12.211  12.386   6.454  1.9181 -1.3792  0.0205
  182MOL0     H25084  12.107  12.158   6.645 -2.0212  1.2980  0.6054
  182MOL0     H25085  12.084  12.327   6.677  1.9319  0.7935  1.7168
  182MOL0     H25086  12.314  12.364   6.648 -0.1121  0.6329 -0.2742
  182MOL0     H25087  12.343  12.185   6.633 -4.1608 -0.4543 -1.3832
  182MOL0     H25088  12.226  12.319   6.885 -0.8540 -2.6947  3.6271
  182MOL0     H25089  12.229  12.155   6.861 -0.1433 -0.8180 -0.8443
  182MOL0     H25090  12.482  12.142   6.860  0.0157  1.4908 -1.9078
  182MOL0     H25091  12.413  12.197   6.998  0.3291 -1.4580 -0.2657
  182MOL0     H25092  12.478  12.444   6.874  2.3901  0.2821  1.3691
  182MOL0     H25093  12.574  12.337   6.776  1.6150  3.6036 -0.8279
  182MOL0     H25094  12.599  12.359   7.079  1.1049 -1.8773  1.0966
  182MOL0     H25095  12.708  12.426   6.961 -0.9538  0.0472  2.4945
  182MOL0     H25096  12.022  12.456   6.053 -0.4208  1.1279 -1.0228
  182MOL0     H25097  11.835  12.494   5.903 -0.5344  1.0398 -0.0005
  182MOL0     H25098  11.354  12.295   6.009 -0.8838 -0.0563  0.1052
  182MOL0     H25099  11.145  12.199   5.970 -0.4615  1.3338 -0.5508
  182MOL0     H25100   9.477  11.201   6.702 -0.9741 -1.8337 -0.9866
  182MOL0     H25101   9.248  11.238   6.682 -0.4384  3.9190  1.3021
  182MOL0     H25102   8.858  11.506   6.269 -4.2808  1.9536 -0.4323
  182MOL0     H25103   8.624  11.513   6.294 -0.2197 -0.3412  0.5253
  182MOL0     H25104   8.464  11.192   6.552  0.5826  1.1333 -2.2354
  182MOL0     H25105   8.433  11.319   6.667  2.5950 -1.9541  0.6212
  182MOL0     H25106   8.260  11.224   6.437  2.1565 -0.6874 -0.4756
  182MOL0     H25107   8.210  11.372   6.525 -0.8665 -0.0913 -3.2506
  182MOL0     H25108   8.262  11.112   6.670  1.6610  2.0713  1.2005
  182MOL0     H25109   8.167  11.254   6.717 -1.0384  1.4669 -1.6428
  182MOL0     H25110   8.011  11.097   6.678  2.1271  0.4967  2.0374
  182MOL0     H25111   8.082  11.029   6.525 -0.2224  0.8960  0.8446
  182MOL0     H25112   7.835  11.339   6.375 -0.9003  0.2128  0.9240
  182MOL0     H25113   8.645  11.267   6.640 -2.3233 -1.3813 -1.9129
  182MOL0     H25114   8.966  11.328   6.704  0.5504  0.5472 -0.7272
  182MOL0     H25115   8.834  11.225   6.744  2.4637  1.9867  2.5628
  182MOL0     H25116   8.964  11.164   6.639 -2.3196 -1.0044  0.2805
  183MOL0     O25117   6.887   8.027  10.144 -0.4223  0.4322 -1.0147
  183MOL0     C25118   6.775   8.063  10.177 -0.7787 -0.6294  0.3843
  183MOL0     O25119   6.743   8.189  10.231  0.0068  0.1466 -0.3481
  183MOL0     C25120   6.824   8.252  10.325  0.7641 -0.0004  0.1220
  183MOL0     C25121   6.932   8.185  10.400 -1.0191 -1.3349 -1.1455
  183MOL0     C25122   6.996   8.255  10.496 -0.2135 -0.2354 -0.6774
  183MOL0     C25123   6.969   8.393  10.515 -0.3519  0.7841 -0.4215
  183MOL0     O25124   7.036   8.464  10.608 -0.4724 -0.2514  0.2915
  183MOL0     C25125   7.157   8.413  10.658 -0.0048 -0.9681 -0.3750
  183MOL0     C25126   7.221   8.520  10.761 -0.1097  1.1772  0.5102
  183MOL0     C25127   7.126   8.571  10.866  0.3005 -0.7963 -0.1280
  183MOL0     C25128   7.201   8.651  10.971 -0.3175 -0.3544  0.0311
  183MOL0     C25129   7.095   8.713  11.058  0.2479  0.1142 -0.4433
  183MOL0     C25130   7.162   8.801  11.163  0.5449  0.6135 -0.2768
  183MOL0     C25131   7.066   8.824  11.276  0.6662 -0.3052  0.4800
  183MOL0     C25132   7.105   8.925  11.380  0.8668  0.3558 -0.9976
  183MOL0     N25133   7.174   9.042  11.330  0.4887 -0.1419  0.6381
  183MOL0     C25134   7.111   9.144  11.261  0.1402  0.1116 -0.2045
  183MOL0     C25135   7.206   9.235  11.239  0.4680  0.4281 -0.4309
  183MOL0     C25136   7.205   9.369  11.170  0.5607 -0.3479  0.1996
  183MOL0     C25137   7.223   9.352  11.023 -0.0037 -0.2201  0.0171
  183MOL0     C25138   7.358   9.291  10.973 -0.3205 -0.0038 -0.1057
  183MOL0     C25139   7.503   9.329  11.024  1.0071 -0.3047  0.3641
  183MOL0     O25140   7.525   9.467  11.041 -0.3569 -0.4296  0.3661
  183MOL0     C25141   7.655   9.509  11.060  0.5584  0.2442 -0.0659
  183MOL0     C25142   7.758   9.422  11.106  0.4121 -0.5531  0.0373
  183MOL0     C25143   7.889   9.469  11.137  1.2929  0.8008 -0.0816
  183MOL0     C25144   7.989   9.363  11.184  0.6007 -0.0056 -0.0894
  183MOL0     C25145   7.917   9.603  11.120  0.7492  0.2757 -1.0339
  183MOL0     C25146   8.054   9.663  11.142 -0.4004 -0.4652  0.1168
  183MOL0     O25147   8.156   9.584  11.179  0.6712 -0.0081 -0.2878
  183MOL0     C25148   8.279   9.640  11.197 -0.3158  0.4864  0.1209
  183MOL0     C25149   8.306   9.746  11.281 -0.8316  0.3164 -0.4770
  183MOL0     C25150   8.431   9.810  11.282 -0.5847  0.1952 -0.6279
  183MOL0     C25151   8.532   9.749  11.204 -0.2992 -0.9838  0.1781
  183MOL0     O25152   8.670   9.786  11.203  0.8940 -0.6374 -0.2644
  183MOL0     C25153   8.720   9.881  11.301  0.5004  0.5813  0.3518
  183MOL0     C25154   8.880   9.883  11.300  0.7209 -0.3627  0.1758
  183MOL0     C25155   8.931   9.979  11.401  0.9725  0.7061 -0.0842
  183MOL0     C25156   8.876  10.123  11.400  0.0125  0.4582 -0.0374
  183MOL0     C25157   8.986  10.226  11.436  0.6521 -0.3246  0.3803
  183MOL0     C25158   8.927  10.366  11.450 -0.2512 -0.4703  0.6865
  183MOL0     C25159   9.023  10.475  11.483  0.4489 -0.3242  0.5691
  183MOL0     C25160   9.117  10.443  11.606  0.4064  0.0677  0.0060
  183MOL0    Cl25161   9.017  10.405  11.752 -0.4242 -0.5014  0.5704
  183MOL0     C25162   8.504   9.642  11.119 -0.9183  0.0675  0.0027
  183MOL0     C25163   8.381   9.590  11.115 -0.0288 -0.0779  0.1992
  183MOL0     O25164   8.060   9.790  11.139  0.2139  0.0142 -0.2057
  183MOL0     C25165   7.811   9.688  11.074 -0.7126 -0.5600 -0.2624
  183MOL0     C25166   7.689   9.645  11.038  0.0081 -0.6564  0.7810
  183MOL0     N25167   7.325   9.187  11.284 -0.2175  0.5648 -0.2951
  183MOL0     N25168   7.298   9.075  11.340  0.1226 -0.1566 -0.5445
  183MOL0     C25169   6.857   8.446  10.459 -0.5525 -0.6626 -0.7412
  183MOL0     C25170   6.794   8.382  10.357 -0.4010  0.4073 -0.2824
  183MOL0     C25171   6.658   7.976  10.142  0.1175  0.4503 -0.8505
  183MOL0     C25172   6.540   8.045  10.106 -0.7560  0.7511 -0.6382
  183MOL0     C25173   6.435   7.977  10.063 -0.5767 -0.2112 -0.2471
  183MOL0     C25174   6.432   7.843  10.040 -0.3367  0.0211 -0.2259
  183MOL0     O25175   6.322   7.794   9.976  0.2160  0.2224  0.4816
  183MOL0     C25176   6.309   7.655   9.968  0.2905 -0.1781 -0.7468
  183MOL0     C25177   6.170   7.594   9.932 -0.4640 -0.5921  0.9620
  183MOL0     C25178   6.144   7.656   9.793 -0.1337 -0.5478  0.1410
  183MOL0     C25179   5.992   7.656   9.765  0.3382  0.6734  0.6592
  183MOL0     C25180   5.953   7.703   9.628 -0.2285  0.3379  0.4654
  183MOL0     C25181   5.935   7.738   9.514 -0.3575 -0.8062 -0.6948
  183MOL0     C25182   6.545   7.764  10.083  0.1130 -0.2709  0.5713
  183MOL0     C25183   6.656   7.828  10.142 -0.1828  0.2636 -0.3288
  183MOL0     C25184   6.767   7.733  10.173  0.1502  0.2086 -0.0767
  183MOL0     H25185   6.955   8.080  10.381 -0.8954 -1.1579 -2.0454
  183MOL0     H25186   7.075   8.208  10.555 -2.1416  1.0715  3.3160
  183MOL0     H25187   7.224   8.374  10.580  0.5828 -1.7325  0.4797
  183MOL0     H25188   7.138   8.316  10.706 -0.3539 -2.3384 -3.0384
  183MOL0     H25189   7.307   8.471  10.809  0.1975 -0.7804 -1.8209
  183MOL0     H25190   7.269   8.596  10.699 -1.0037  1.2101 -0.1482
  183MOL0     H25191   7.054   8.636  10.814  1.3500 -0.3252 -1.0434
  183MOL0     H25192   7.067   8.498  10.922 -0.2517  1.5921  2.6829
  183MOL0     H25193   7.279   8.592  11.019  1.5664  3.2825  1.8500
  183MOL0     H25194   7.261   8.731  10.927 -0.9181 -0.0361 -0.2224
  183MOL0     H25195   7.028   8.643  11.109 -0.0171  1.4331  1.1293
  183MOL0     H25196   7.038   8.773  10.987  0.0658 -0.8089 -1.0919
  183MOL0     H25197   7.247   8.749  11.208 -1.9831 -2.2965  1.5084
  183MOL0     H25198   7.190   8.891  11.108  0.3288  0.8590  0.0140
  183MOL0     H25199   7.064   8.726  11.325  1.1951 -1.6272 -1.9616
  183MOL0     H25200   6.968   8.857  11.238 -0.2110 -1.6737  1.4531
  183MOL0     H25201   7.023   8.937  11.452 -0.0457 -0.1502 -1.9305
  183MOL0     H25202   7.179   8.871  11.439  0.2204  0.9502  0.4141
  183MOL0     H25203   7.006   9.164  11.239 -0.3334 -1.8804  0.0327
  183MOL0     H25204   7.296   9.419  11.202 -0.1912  1.1641  0.0360
  183MOL0     H25205   7.109   9.417  11.194  1.6683  1.5257  1.0337
  183MOL0     H25206   7.141   9.297  10.975 -0.0643 -0.3151  0.2256
  183MOL0     H25207   7.217   9.455  10.987 -0.7787 -0.5693 -0.8997
  183MOL0     H25208   7.344   9.184  10.987  0.8718 -0.3270 -1.1399
  183MOL0     H25209   7.364   9.310  10.865  0.9868 -1.1678 -0.2548
  183MOL0     H25210   7.513   9.287  11.125  2.8144  0.2216  0.4381
  183MOL0     H25211   7.581   9.289  10.959  0.5750  1.9417 -1.6812
  183MOL0     H25212   7.736   9.318  11.129  2.5501 -0.7946  1.3924
  183MOL0     H25213   8.057   9.338  11.102  1.6000  1.1170  0.3738
  183MOL0     H25214   7.935   9.277  11.226  0.8227  0.0707  0.3617
  183MOL0     H25215   8.045   9.391  11.274  0.8240 -2.5419  0.6532
  183MOL0     H25216   8.228   9.794  11.338  0.0992  1.5236 -0.1850
  183MOL0     H25217   8.446   9.900  11.342  0.6615 -0.1882 -0.3387
  183MOL0     H25218   8.686   9.978  11.265 -2.7575 -1.0276 -1.3036
  183MOL0     H25219   8.685   9.852  11.400 -0.0965  1.3510  0.3724
  183MOL0     H25220   8.918   9.787  11.336  0.1757 -2.2167 -3.6106
  183MOL0     H25221   8.924   9.893  11.200 -0.6384 -0.9863 -0.5147
  183MOL0     H25222   9.040   9.978  11.395  1.0345 -0.6571  0.8433
  183MOL0     H25223   8.905   9.938  11.499  2.2283 -0.7968 -0.3316
  183MOL0     H25224   8.790  10.131  11.466  0.0769  0.4460  0.0497
  183MOL0     H25225   8.829  10.144  11.303 -0.5127 -2.0688 -0.4021
  183MOL0     H25226   9.037  10.193  11.527  1.1398 -0.5199  0.0396
  183MOL0     H25227   9.057  10.226  11.353  1.2379 -0.3314  0.8745
  183MOL0     H25228   8.845  10.363  11.523 -1.4337 -1.3979 -0.6285
  183MOL0     H25229   8.874  10.378  11.356  1.2757 -0.9739 -0.2763
  183MOL0     H25230   8.972  10.571  11.498  0.6020  0.1827 -1.7512
  183MOL0     H25231   9.090  10.486  11.397  1.6124 -0.1441  1.4760
  183MOL0     H25232   9.177  10.530  11.634 -0.7394  0.2913  1.8834
  183MOL0     H25233   9.181  10.359  11.576  2.0297  1.6393 -1.1727
  183MOL0     H25234   8.583   9.593  11.064  0.0208  0.6645  0.7905
  183MOL0     H25235   8.358   9.506  11.051  0.6532  0.0450 -0.2137
  183MOL0     H25236   7.833   9.793  11.060 -1.4265 -0.6357 -2.2467
  183MOL0     H25237   7.613   9.712  10.999  2.2205  0.6560 -1.6974
  183MOL0     H25238   6.826   8.547  10.481 -0.5073 -0.6424 -0.7679
  183MOL0     H25239   6.718   8.434  10.301 -0.7893 -0.1273 -0.2541
  183MOL0     H25240   6.542   8.152  10.124 -0.7037  0.8513 -1.2184
  183MOL0     H25241   6.350   8.035  10.030  0.9790  2.5888  0.3776
  183MOL0     H25242   6.388   7.608   9.909  0.2753  0.9322 -1.6875
  183MOL0     H25243   6.341   7.609  10.062 -0.3433 -2.2741 -1.4894
  183MOL0     H25244   6.092   7.627  10.001 -1.3616  0.6990 -0.6012
  183MOL0     H25245   6.175   7.485   9.942  0.6175 -0.7200 -0.5793
  183MOL0     H25246   6.173   7.762   9.787  2.0132 -1.0668  0.5111
  183MOL0     H25247   6.210   7.610   9.720  0.7252  2.8401 -1.4395
  183MOL0     H25248   5.940   7.723   9.835  0.8532  0.7969  0.9231
  183MOL0     H25249   5.943   7.558   9.769 -2.4338  1.9160 -0.1345
  183MOL0     H25250   5.911   7.775   9.416  3.0543 -3.4540 -2.7345
  183MOL0     H25251   6.558   7.662  10.051  1.2369  0.3619 -1.1242
  183MOL0     H25252   6.819   7.759  10.265  3.7392  0.6792 -2.0761
  183MOL0     H25253   6.729   7.631  10.182 -0.2062  0.4896  2.3645
  183MOL0     H25254   6.844   7.749  10.097  0.7422  1.1995  0.7115
  184MOL0     O25255   7.003   2.721   3.657  0.3563 -0.7111 -0.6336
  184MOL0     C25256   7.027   2.598   3.677  0.0118 -0.1746  0.0881
  184MOL0     O25257   7.132   2.547   3.757  0.2660 -0.7626 -0.2693
  184MOL0     C25258   7.235   2.633   3.788  0.3252  0.0501 -0.5845
  184MOL0     C25259   7.308   2.701   3.692  0.6140  0.2888 -0.3773
  184MOL0     C25260   7.400   2.804   3.728  0.1983 -0.3650  0.0636
  184MOL0     C25261   7.431   2.831   3.867 -0.6504  0.8075 -0.5222
  184MOL0     O25262   7.526   2.928   3.916 -0.2756 -0.0310 -0.7480
  184MOL0     C25263   7.636   2.940   3.825  0.3242 -0.7982 -0.0813
  184MOL0     C25264   7.721   2.816   3.793 -0.0786  0.5161 -0.6427
  184MOL0     C25265   7.819   2.805   3.912  0.2369 -0.3806  0.1927
  184MOL0     C25266   7.932   2.715   3.866 -1.1771  1.1418  0.1079
  184MOL0     C25267   8.066   2.754   3.939  0.7508 -0.3254 -1.0979
  184MOL0     C25268   8.169   2.650   3.911  0.0320 -1.5261  0.2134
  184MOL0     C25269   8.312   2.689   3.956  0.5457 -0.6185 -0.0309
  184MOL0     C25270   8.301   2.724   4.110  0.5313  1.0038 -0.2116
  184MOL0     N25271   8.434   2.764   4.163 -0.0473 -0.4220  0.3506
  184MOL0     C25272   8.549   2.690   4.164  0.0400  0.5449 -0.1373
  184MOL0     C25273   8.645   2.773   4.220  0.3840 -1.2155 -1.0249
  184MOL0     C25274   8.799   2.756   4.241  0.4871  0.2579 -0.1200
  184MOL0     C25275   8.819   2.703   4.387 -1.0448 -0.0628  1.1679
  184MOL0     C25276   8.970   2.678   4.400 -0.0287 -0.3824 -0.3258
  184MOL0     C25277   9.006   2.639   4.550  0.1136  1.1294  0.3612
  184MOL0     O25278   8.990   2.746   4.634 -0.2463  0.2734 -0.2312
  184MOL0     C25279   9.054   2.745   4.762 -0.1524  0.1268  0.2637
  184MOL0     C25280   9.058   2.858   4.834  0.5615 -0.3448  0.3372
  184MOL0     C25281   9.130   2.858   4.960  0.1024 -0.7267  0.4214
  184MOL0     C25282   9.126   2.986   5.034  0.1963 -0.2836 -0.1142
  184MOL0     C25283   9.188   2.738   5.008 -0.1765  0.0355  0.0840
  184MOL0     C25284   9.259   2.727   5.133 -0.0497 -0.1096 -0.1381
  184MOL0     O25285   9.297   2.600   5.177 -0.5539  0.6994 -0.0810
  184MOL0     C25286   9.372   2.574   5.292 -0.3185 -0.5256 -0.2888
  184MOL0     C25287   9.319   2.508   5.406 -0.5723  0.3182  0.3481
  184MOL0     C25288   9.402   2.442   5.499 -0.2344  0.8461 -0.5344
  184MOL0     C25289   9.541   2.450   5.486 -0.8843 -0.4522  0.4163
  184MOL0     O25290   9.632   2.387   5.571 -0.0463 -0.4809  0.1435
  184MOL0     C25291   9.587   2.270   5.639  0.0937 -0.0647  0.3809
  184MOL0     C25292   9.709   2.195   5.691  0.0527  0.1934  0.0504
  184MOL0     C25293   9.805   2.276   5.774  0.3538 -0.8098  0.3496
  184MOL0     C25294   9.946   2.213   5.791  0.5358  0.1535  0.4690
  184MOL0     C25295  10.038   2.324   5.845 -0.0868  0.4242  0.6594
  184MOL0     C25296  10.082   2.306   5.985  0.0538  0.2458 -0.7575
  184MOL0     C25297  10.193   2.201   5.992  0.5079  0.3096  0.0267
  184MOL0     C25298  10.256   2.203   6.131 -0.0575  0.6754 -0.0284
  184MOL0    Cl25299  10.388   2.095   6.158  0.1253 -0.3343 -0.9030
  184MOL0     C25300   9.592   2.531   5.385 -0.0689 -0.2747  0.2140
  184MOL0     C25301   9.511   2.584   5.289 -0.4403  0.5077 -0.4539
  184MOL0     O25302   9.285   2.831   5.194 -0.6315  0.1485 -0.5770
  184MOL0     C25303   9.181   2.624   4.932 -0.4100 -0.0529  0.6773
  184MOL0     C25304   9.120   2.628   4.808 -0.6334  0.7663  0.5124
  184MOL0     N25305   8.587   2.899   4.252  0.8522  0.5458  0.6112
  184MOL0     N25306   8.462   2.887   4.213 -0.4578 -0.3660 -0.0167
  184MOL0     C25307   7.351   2.754   3.962 -0.3918 -0.2811 -0.4968
  184MOL0     C25308   7.269   2.654   3.922 -0.4998  1.0072  0.6303
  184MOL0     C25309   6.929   2.496   3.643  0.4121  1.0637  0.7214
  184MOL0     C25310   6.902   2.393   3.743  0.1547 -0.6292  0.0699
  184MOL0     C25311   6.818   2.282   3.723 -0.6648 -0.5434 -0.6651
  184MOL0     C25312   6.753   2.268   3.604  0.2690  0.2071  0.2991
  184MOL0     O25313   6.675   2.157   3.588 -0.5640  0.3584  0.0416
  184MOL0     C25314   6.581   2.153   3.482 -0.1653 -0.3026  0.4979
  184MOL0     C25315   6.469   2.056   3.505 -0.0052 -0.3104  0.8474
  184MOL0     C25316   6.390   2.063   3.373 -0.1946 -0.2160  0.4919
  184MOL0     C25317   6.266   1.970   3.384 -0.3960  0.4060  1.0823
  184MOL0     C25318   6.172   2.018   3.483 -0.3967  0.1018  0.0440
  184MOL0     C25319   6.084   2.071   3.553 -0.8726  0.6747  0.5607
  184MOL0     C25320   6.763   2.375   3.505 -1.3126 -0.3264  0.6382
  184MOL0     C25321   6.854   2.485   3.523  0.0717  0.4367  0.3021
  184MOL0     C25322   6.860   2.585   3.406  0.0891 -0.8730 -0.9092
  184MOL0     H25323   7.285   2.686   3.587 -0.5431  3.1361 -0.6006
  184MOL0     H25324   7.464   2.853   3.656 -0.4740 -1.4384 -1.3124
  184MOL0     H25325   7.700   3.020   3.862 -1.9852  0.1824  2.0998
  184MOL0     H25326   7.598   2.978   3.730  0.2903 -0.4824  0.0593
  184MOL0     H25327   7.663   2.723   3.794  2.8746 -1.4763 -1.1913
  184MOL0     H25328   7.769   2.814   3.695  3.2960  0.2034  0.8427
  184MOL0     H25329   7.857   2.904   3.936 -0.4253 -0.0080 -0.2568
  184MOL0     H25330   7.772   2.763   4.001  0.1634 -0.5774  0.0633
  184MOL0     H25331   7.904   2.611   3.885  0.0124  0.4736 -1.5742
  184MOL0     H25332   7.947   2.706   3.758 -3.8570 -1.0758 -0.1980
  184MOL0     H25333   8.034   2.751   4.044 -2.4801  0.4265 -1.9295
  184MOL0     H25334   8.098   2.856   3.914 -0.7426  1.5403  3.4201
  184MOL0     H25335   8.153   2.555   3.962  0.2432  0.1849  3.7422
  184MOL0     H25336   8.181   2.632   3.803  1.4065 -1.7019  0.3757
  184MOL0     H25337   8.349   2.773   3.896 -2.4349 -1.3259 -3.2241
  184MOL0     H25338   8.377   2.602   3.947 -3.1021 -3.5971  0.1217
  184MOL0     H25339   8.232   2.807   4.126 -2.3198 -1.6288  2.4748
  184MOL0     H25340   8.284   2.633   4.167  0.0500  0.3213 -1.4105
  184MOL0     H25341   8.561   2.585   4.138 -2.5074 -0.0660  0.8912
  184MOL0     H25342   8.851   2.848   4.215  1.5319 -0.6224 -1.2626
  184MOL0     H25343   8.835   2.685   4.167 -2.9296  0.9510 -2.7124
  184MOL0     H25344   8.781   2.781   4.455 -0.6147  2.6452 -1.4601
  184MOL0     H25345   8.769   2.606   4.390 -3.3845  0.9557 -1.1852
  184MOL0     H25346   9.000   2.598   4.332  0.5562  1.5939 -2.5041
  184MOL0     H25347   9.027   2.762   4.358  3.1034 -2.1782 -0.0311
  184MOL0     H25348   8.940   2.554   4.572  0.1321  0.2771 -2.5003
  184MOL0     H25349   9.108   2.600   4.553  0.1417  1.1488 -0.3289
  184MOL0     H25350   9.015   2.946   4.787  0.8559  0.2851  1.2103
  184MOL0     H25351   9.090   2.969   5.135  0.9094 -2.9056 -0.2261
  184MOL0     H25352   9.076   3.064   4.976  0.7663  2.2141  2.5293
  184MOL0     H25353   9.225   3.030   5.049 -0.6313  0.9730  2.1186
  184MOL0     H25354   9.211   2.500   5.417 -0.7831  0.5116 -1.3569
  184MOL0     H25355   9.353   2.383   5.576  1.5371  0.4495  0.3363
  184MOL0     H25356   9.528   2.302   5.725 -0.0348 -0.6865  0.5251
  184MOL0     H25357   9.523   2.211   5.573 -2.2986  0.3314  2.2033
  184MOL0     H25358   9.671   2.111   5.750 -0.6642 -0.5690 -1.4311
  184MOL0     H25359   9.765   2.154   5.606 -2.6225  2.1035 -2.8886
  184MOL0     H25360   9.749   2.292   5.866 -2.3168  1.6831 -1.5326
  184MOL0     H25361   9.820   2.376   5.731 -2.0242 -0.2325  0.7125
  184MOL0     H25362   9.989   2.168   5.702  1.3796 -1.9443  1.8520
  184MOL0     H25363   9.941   2.134   5.866  3.2867  0.6166  1.2632
  184MOL0     H25364  10.118   2.323   5.770  1.0987 -1.0552  1.8748
  184MOL0     H25365  10.004   2.427   5.837  2.4723  1.3627  1.1556
  184MOL0     H25366   9.999   2.284   6.053 -0.6974 -0.5820 -1.9001
  184MOL0     H25367  10.119   2.398   6.030  0.8871 -1.1684  1.6903
  184MOL0     H25368  10.264   2.231   5.915  0.1806  0.0481 -0.3820
  184MOL0     H25369  10.151   2.103   5.965 -2.0454  0.8809  1.5403
  184MOL0     H25370  10.183   2.186   6.210  0.7822  2.5064  1.2191
  184MOL0     H25371  10.286   2.307   6.147  2.3412 -0.2280  2.0926
  184MOL0     H25372   9.699   2.547   5.389  0.2793 -2.3086 -0.2185
  184MOL0     H25373   9.558   2.637   5.206  0.2329 -0.2446 -0.5560
  184MOL0     H25374   9.241   2.537   4.959  2.3654  1.3770 -0.4624
  184MOL0     H25375   9.130   2.530   4.762  2.2023 -0.2970  3.0039
  184MOL0     H25376   7.369   2.755   4.069  0.1305 -1.5013 -0.5574
  184MOL0     H25377   7.220   2.600   4.002  1.7088 -0.9847  0.7215
  184MOL0     H25378   6.952   2.398   3.840 -0.7401  0.6479  0.4830
  184MOL0     H25379   6.810   2.217   3.810  1.0642 -0.4535 -0.4134
  184MOL0     H25380   6.540   2.251   3.460  0.9883  0.2819  0.8712
  184MOL0     H25381   6.631   2.105   3.397  0.5274 -0.3029  0.8898
  184MOL0     H25382   6.406   2.096   3.585 -3.5053 -1.4410 -1.1427
  184MOL0     H25383   6.508   1.955   3.524 -1.6982 -1.9974 -3.4646
  184MOL0     H25384   6.358   2.166   3.355 -1.0050 -0.5328  0.0824
  184MOL0     H25385   6.457   2.033   3.292  0.4553 -0.3978  1.0922
  184MOL0     H25386   6.292   1.866   3.410 -1.7081 -0.2015  0.0884
  184MOL0     H25387   6.213   1.960   3.289 -2.5061  0.9366  2.1498
  184MOL0     H25388   6.006   2.114   3.613  0.2411  0.2118  2.4260
  184MOL0     H25389   6.715   2.377   3.408  0.7398 -3.0392 -0.5867
  184MOL0     H25390   6.799   2.676   3.414 -0.2068 -0.7534 -3.6707
  184MOL0     H25391   6.959   2.631   3.408 -1.0624  1.8121  1.0198
  184MOL0     H25392   6.843   2.541   3.308  2.5247 -4.0336 -0.0652
  185MOL0     O25393   3.666   9.434   7.716  0.0560  0.2061  0.2333
  185MOL0     C25394   3.589   9.508   7.772  0.3925  0.0314  0.1716
  185MOL0     O25395   3.601   9.551   7.907 -0.3527  0.7743  0.2732
  185MOL0     C25396   3.711   9.535   7.985  0.5580  0.3062  0.4681
  185MOL0     C25397   3.680   9.569   8.114 -0.1588  0.6311 -0.4754
  185MOL0     C25398   3.778   9.554   8.212 -0.7047  0.5414  0.5517
  185MOL0     C25399   3.912   9.513   8.178 -0.2158 -0.7830  0.5248
  185MOL0     O25400   4.007   9.512   8.275 -0.4038  0.4311  0.7292
  185MOL0     C25401   4.070   9.636   8.321  0.1627  0.0914  0.0110
  185MOL0     C25402   4.141   9.594   8.452  0.3476 -0.5993  0.5339
  185MOL0     C25403   4.286   9.541   8.426  0.0235  0.2264  0.0117
  185MOL0     C25404   4.392   9.650   8.409  0.9686 -0.0544 -0.8997
  185MOL0     C25405   4.533   9.596   8.437 -0.7778  0.0042 -0.7624
  185MOL0     C25406   4.637   9.709   8.453  0.4432  0.8263  0.3222
  185MOL0     C25407   4.775   9.648   8.469 -0.2364 -0.3708  0.4129
  185MOL0     C25408   4.878   9.752   8.497 -0.8254  0.4622 -0.1805
  185MOL0     N25409   5.007   9.682   8.530  0.7347  0.3074  1.0159
  185MOL0     C25410   5.104   9.648   8.436 -0.0447 -0.5391 -0.4289
  185MOL0     C25411   5.220   9.628   8.504 -0.0709  0.0136  0.0808
  185MOL0     C25412   5.361   9.592   8.442 -0.1355 -0.9914 -0.9416
  185MOL0     C25413   5.477   9.673   8.507 -0.2259 -0.4105 -0.4178
  185MOL0     C25414   5.601   9.678   8.420 -0.9731 -0.2140 -0.9170
  185MOL0     C25415   5.724   9.742   8.492 -0.6047  0.8945 -0.5858
  185MOL0     O25416   5.844   9.742   8.413  0.0355 -0.2460 -0.6744
  185MOL0     C25417   5.956   9.777   8.472 -0.7591  0.7292 -0.2944
  185MOL0     C25418   5.979   9.914   8.500 -0.1185  0.0045  0.2141
  185MOL0     C25419   6.100   9.962   8.550 -0.5491 -0.2620  0.4467
  185MOL0     C25420   6.111  10.119   8.560  0.2395  0.8079  0.0183
  185MOL0     C25421   6.204   9.869   8.577 -0.2497  0.4977  0.0626
  185MOL0     C25422   6.343   9.899   8.624  0.1630 -1.1343  1.1087
  185MOL0     O25423   6.448   9.822   8.577  0.3963  0.2854 -0.4225
  185MOL0     C25424   6.571   9.813   8.628  0.4818 -0.3827  0.0890
  185MOL0     C25425   6.642   9.927   8.684  0.2499 -1.2255 -0.0179
  185MOL0     C25426   6.766   9.921   8.736 -0.6826  0.2975  0.3952
  185MOL0     C25427   6.832   9.795   8.738  0.4759 -1.2263 -0.4838
  185MOL0     O25428   6.954   9.793   8.795  0.1599 -0.3652  0.3019
  185MOL0     C25429   7.028   9.673   8.809  0.6778 -0.5306  0.0310
  185MOL0     C25430   7.137   9.704   8.913 -0.8258  0.0492 -0.1620
  185MOL0     C25431   7.221   9.575   8.947 -0.2372 -0.9669  0.0518
  185MOL0     C25432   7.326   9.611   9.053  0.8118 -0.7002  0.1925
  185MOL0     C25433   7.375   9.475   9.105 -0.6894  0.2150  0.6639
  185MOL0     C25434   7.490   9.479   9.202  0.1091  0.2915  0.0039
  185MOL0     C25435   7.535   9.338   9.249 -0.1684  0.9013 -0.4728
  185MOL0     C25436   7.647   9.361   9.350 -0.9541 -0.0204 -0.3954
  185MOL0    Cl25437   7.802   9.421   9.271 -0.0320 -0.4860  0.0465
  185MOL0     C25438   6.764   9.684   8.677  0.0770 -0.7221  0.5301
  185MOL0     C25439   6.627   9.697   8.622  0.7863  0.6308 -0.0753
  185MOL0     O25440   6.355  10.007   8.689  0.6940  0.7249  0.1229
  185MOL0     C25441   6.169   9.734   8.561  0.1299 -0.5337  0.2027
  185MOL0     C25442   6.055   9.689   8.505  0.3869  0.1937  1.2091
  185MOL0     N25443   5.193   9.657   8.639  1.0032  1.1674  0.5228
  185MOL0     N25444   5.064   9.690   8.647 -0.0700 -1.4105  0.1247
  185MOL0     C25445   3.946   9.492   8.041 -0.1653  0.2572 -1.0046
  185MOL0     C25446   3.843   9.498   7.943 -0.4333 -0.5425 -0.4496
  185MOL0     C25447   3.454   9.534   7.714  0.4091 -0.2089  0.0527
  185MOL0     C25448   3.350   9.584   7.800 -0.6339  0.5570  0.5967
  185MOL0     C25449   3.237   9.633   7.749  0.9049 -0.3686  0.5134
  185MOL0     C25450   3.203   9.611   7.609 -1.0268  0.1241  0.4604
  185MOL0     O25451   3.090   9.652   7.547 -0.0463  0.1471 -0.2913
  185MOL0     C25452   2.991   9.722   7.623  0.4635 -0.8231  0.2814
  185MOL0     C25453   2.846   9.720   7.543  0.4052  0.5834  0.4097
  185MOL0     C25454   2.841   9.800   7.411 -0.4245 -1.0357  0.1292
  185MOL0     C25455   2.888   9.944   7.428  0.5584 -0.1136 -0.4345
  185MOL0     C25456   2.789  10.009   7.514 -0.0726 -0.0123 -0.1707
  185MOL0     C25457   2.720  10.052   7.600 -0.6925 -0.3002  0.5292
  185MOL0     C25458   3.298   9.550   7.527 -1.0444 -0.9892 -0.5465
  185MOL0     C25459   3.426   9.520   7.575 -0.4508  0.3124 -0.2414
  185MOL0     C25460   3.525   9.465   7.474 -0.1070 -0.0510 -0.2661
  185MOL0     H25461   3.580   9.601   8.142 -0.0574 -0.1064  0.8338
  185MOL0     H25462   3.757   9.570   8.317  0.4618  2.2542  0.5687
  185MOL0     H25463   4.002   9.718   8.348  0.1158 -0.4664  1.7132
  185MOL0     H25464   4.151   9.671   8.256  0.6769  1.6607  1.4410
  185MOL0     H25465   4.145   9.681   8.518 -1.1884  0.9512 -1.3105
  185MOL0     H25466   4.087   9.512   8.501 -1.4456  0.2306  0.0336
  185MOL0     H25467   4.306   9.487   8.520  0.4012 -0.7104 -0.5867
  185MOL0     H25468   4.288   9.478   8.337 -0.8315  0.2542 -0.0257
  185MOL0     H25469   4.380   9.685   8.305  1.9333 -0.1336 -1.0466
  185MOL0     H25470   4.377   9.732   8.480  0.6470 -0.0299 -0.9936
  185MOL0     H25471   4.567   9.533   8.354  3.3530  0.1583  0.6106
  185MOL0     H25472   4.523   9.541   8.531 -0.3998 -0.4997 -1.0154
  185MOL0     H25473   4.639   9.772   8.364 -0.8308  1.0634  0.4424
  185MOL0     H25474   4.615   9.771   8.540 -0.2724 -1.9625  2.2658
  185MOL0     H25475   4.806   9.593   8.379  0.1542  0.4106  0.0611
  185MOL0     H25476   4.779   9.593   8.563 -1.2019 -0.8136  0.2137
  185MOL0     H25477   4.897   9.830   8.422 -0.9869  1.1391  0.4717
  185MOL0     H25478   4.846   9.809   8.584 -1.6223  1.7568 -1.2734
  185MOL0     H25479   5.096   9.637   8.329  0.7328 -0.3458 -0.5118
  185MOL0     H25480   5.360   9.616   8.335  1.3927 -1.3418 -1.0529
  185MOL0     H25481   5.372   9.484   8.460 -0.7787 -1.2135 -1.7988
  185MOL0     H25482   5.459   9.777   8.536  1.1410 -0.3371  0.2443
  185MOL0     H25483   5.508   9.618   8.597 -1.3908  1.8406  1.4655
  185MOL0     H25484   5.627   9.576   8.391 -1.5277 -1.5404  2.6843
  185MOL0     H25485   5.577   9.741   8.334 -0.7937 -1.8651 -2.2395
  185MOL0     H25486   5.697   9.844   8.520 -0.8929  0.4791  0.6965
  185MOL0     H25487   5.746   9.686   8.583  1.1861  3.2598  0.5525
  185MOL0     H25488   5.900   9.983   8.471 -1.4969 -0.2837  2.9285
  185MOL0     H25489   6.013  10.166   8.547 -0.8538 -1.7422 -1.8221
  185MOL0     H25490   6.185  10.151   8.486  0.8249 -0.2560  0.1220
  185MOL0     H25491   6.136  10.159   8.659  1.5523 -1.3567  0.6249
  185MOL0     H25492   6.594  10.023   8.666  0.8582 -0.9878 -0.4237
  185MOL0     H25493   6.812  10.010   8.779  0.4399 -0.7473  1.4422
  185MOL0     H25494   6.963   9.598   8.857 -0.2335  1.3121  1.8419
  185MOL0     H25495   7.059   9.648   8.707  0.0040  0.5157 -0.4475
  185MOL0     H25496   7.190   9.785   8.861 -0.8354  0.1577 -0.0039
  185MOL0     H25497   7.085   9.727   9.006  2.7084  0.0644  1.9961
  185MOL0     H25498   7.276   9.529   8.865 -0.9231 -0.1677 -0.8719
  185MOL0     H25499   7.145   9.510   8.993 -2.6812 -1.0173 -3.6240
  185MOL0     H25500   7.284   9.669   9.136  1.4566 -1.0254  0.7592
  185MOL0     H25501   7.410   9.664   9.007 -1.0088  0.8907 -1.4720
  185MOL0     H25502   7.304   9.411   9.158 -1.1357 -0.6207 -0.8688
  185MOL0     H25503   7.395   9.413   9.017  0.0163 -1.2522  1.8262
  185MOL0     H25504   7.454   9.537   9.288 -0.9200 -0.5492  0.1523
  185MOL0     H25505   7.577   9.528   9.157 -0.2916  0.7469 -0.2990
  185MOL0     H25506   7.576   9.290   9.159  1.7062  1.2994  0.1341
  185MOL0     H25507   7.447   9.287   9.290  0.5036 -0.5448 -0.7540
  185MOL0     H25508   7.665   9.264   9.398 -0.7570 -0.2998 -1.0354
  185MOL0     H25509   7.631   9.443   9.421  0.6645  1.4880 -1.6841
  185MOL0     H25510   6.808   9.585   8.669  1.5876 -0.0525  0.1500
  185MOL0     H25511   6.561   9.619   8.586 -1.3088  2.1036  0.3640
  185MOL0     H25512   6.239   9.651   8.569 -0.7971 -1.6469 -2.2974
  185MOL0     H25513   6.047   9.585   8.475  4.2844  0.1127 -0.0941
  185MOL0     H25514   4.046   9.452   8.031  0.6512  1.2965  1.8055
  185MOL0     H25515   3.865   9.476   7.838  1.4352  0.4377 -0.3140
  185MOL0     H25516   3.366   9.601   7.907 -1.9098 -1.2797  1.1240
  185MOL0     H25517   3.167   9.678   7.819  0.8175  1.0738 -0.4476
  185MOL0     H25518   2.975   9.673   7.719 -2.4005 -0.1819  0.2377
  185MOL0     H25519   3.024   9.824   7.645  0.1546 -1.1292  2.2834
  185MOL0     H25520   2.764   9.746   7.611 -0.0948  1.5117 -0.5200
  185MOL0     H25521   2.830   9.615   7.517 -0.6309  0.1186  2.6862
  185MOL0     H25522   2.903   9.743   7.341 -1.9032 -2.1963 -0.2782
  185MOL0     H25523   2.735   9.801   7.385 -1.3161  4.0997  2.5724
  185MOL0     H25524   2.891   9.996   7.332 -3.7438  5.2158  1.7646
  185MOL0     H25525   2.988   9.947   7.472  0.3652  0.7465 -0.0370
  185MOL0     H25526   2.673  10.078   7.693  0.2916 -4.0302  2.2498
  185MOL0     H25527   3.282   9.544   7.420  1.5248 -2.2612 -0.9423
  185MOL0     H25528   3.622   9.515   7.479 -1.5829  2.9662  1.4564
  185MOL0     H25529   3.532   9.360   7.503  0.7491 -0.4700 -1.9038
  185MOL0     H25530   3.489   9.472   7.371  1.6731 -1.4448 -1.0421
  186MOL0     O25531   0.314   5.797   8.725  1.2675 -0.0219 -0.2550
  186MOL0     C25532   0.287   5.915   8.754 -0.4892  0.0127  0.5887
  186MOL0     O25533   0.377   6.010   8.761 -0.3195 -0.1520  0.6118
  186MOL0     C25534   0.512   5.992   8.734  0.2731  1.2214  0.5089
  186MOL0     C25535   0.589   5.919   8.830 -0.7662  0.1146 -0.6068
  186MOL0     C25536   0.722   5.881   8.801  0.2247 -0.6717 -0.7692
  186MOL0     C25537   0.776   5.903   8.676 -0.0385 -0.1790  0.0942
  186MOL0     O25538   0.906   5.868   8.645 -0.2305 -0.4199  0.6148
  186MOL0     C25539   0.957   5.751   8.700 -0.2964  0.2211 -0.2156
  186MOL0     C25540   1.081   5.713   8.607  0.4344 -0.4104 -0.8331
  186MOL0     C25541   1.198   5.802   8.645 -0.1034 -0.1914 -0.9316
  186MOL0     C25542   1.336   5.735   8.608  0.3648 -0.1047 -0.1621
  186MOL0     C25543   1.416   5.717   8.739 -0.3924  0.2803 -0.3095
  186MOL0     C25544   1.540   5.633   8.689 -0.1159 -0.5616  0.0237
  186MOL0     C25545   1.623   5.592   8.809 -0.8428  0.6011 -0.5659
  186MOL0     C25546   1.764   5.547   8.762 -0.1764  0.1634 -0.0078
  186MOL0     N25547   1.778   5.405   8.716  0.1011  0.0382  0.0395
  186MOL0     C25548   1.725   5.366   8.591  0.3799 -0.4073 -0.5996
  186MOL0     C25549   1.770   5.246   8.576  0.4305 -0.6444 -0.0417
  186MOL0     C25550   1.735   5.142   8.462  0.5317 -0.8832 -0.6200
  186MOL0     C25551   1.806   5.008   8.471  0.3627  0.3185 -0.1832
  186MOL0     C25552   1.788   4.928   8.346 -0.1711  0.3175  0.1499
  186MOL0     C25553   1.820   4.986   8.211 -0.0350  0.0129 -0.2348
  186MOL0     O25554   1.960   5.009   8.216 -0.3042  0.1653  0.0870
  186MOL0     C25555   2.016   5.033   8.091 -0.1280 -0.0855  0.4878
  186MOL0     C25556   1.944   5.056   7.969 -0.4713 -0.0265  0.4229
  186MOL0     C25557   2.019   5.089   7.848  0.9565  0.1468  0.6899
  186MOL0     C25558   1.928   5.104   7.729 -0.3400  0.0991  0.5285
  186MOL0     C25559   2.158   5.112   7.849  0.5314  0.2326 -0.4287
  186MOL0     C25560   2.236   5.136   7.721 -0.1107 -0.0108  0.0431
  186MOL0     O25561   2.353   5.200   7.726  0.1989 -1.0378  0.3903
  186MOL0     C25562   2.444   5.200   7.623 -0.3349  0.1306 -0.3740
  186MOL0     C25563   2.584   5.218   7.646  0.4243 -0.7650 -0.1430
  186MOL0     C25564   2.677   5.234   7.542  0.0435  0.3738 -1.1889
  186MOL0     C25565   2.632   5.238   7.408  0.7677  0.0385  0.0598
  186MOL0     O25566   2.704   5.245   7.294  0.2603 -0.0410  0.5661
  186MOL0     C25567   2.837   5.302   7.305 -0.6673  0.0927 -0.5245
  186MOL0     C25568   2.888   5.335   7.165 -0.3405 -0.0962  0.1973
  186MOL0     C25569   3.041   5.360   7.165  0.5532 -0.0866  0.1717
  186MOL0     C25570   3.087   5.384   7.019  0.2252 -0.1896  0.6833
  186MOL0     C25571   3.236   5.439   7.010 -0.1830  0.2069 -0.0799
  186MOL0     C25572   3.329   5.329   7.050  0.3533  0.9255 -1.0282
  186MOL0     C25573   3.469   5.377   7.011  0.2356  1.6238 -0.3211
  186MOL0     C25574   3.501   5.514   7.072 -0.2141  0.4288  0.3053
  186MOL0    Cl25575   3.451   5.500   7.242  0.2349  0.4824  0.3459
  186MOL0     C25576   2.499   5.224   7.383  0.0678 -0.7640  0.6484
  186MOL0     C25577   2.411   5.213   7.488  0.6466 -1.0908 -0.1582
  186MOL0     O25578   2.190   5.073   7.625  0.5300  0.0656 -0.6000
  186MOL0     C25579   2.228   5.097   7.971 -0.0283  0.5542 -0.3568
  186MOL0     C25580   2.155   5.056   8.088 -0.1866  0.4538 -0.3175
  186MOL0     N25581   1.852   5.212   8.687 -0.3342 -0.0802  0.6605
  186MOL0     N25582   1.847   5.302   8.774 -0.1067 -0.1628  0.8139
  186MOL0     C25583   0.706   5.984   8.584 -0.2894  0.8095 -0.2009
  186MOL0     C25584   0.574   6.031   8.609 -0.7056  0.5610  0.6268
  186MOL0     C25585   0.146   5.945   8.784 -0.0012 -0.5225 -0.8463
  186MOL0     C25586   0.121   6.059   8.856 -0.1807 -0.2566  0.1923
  186MOL0     C25587  -0.012   6.091   8.892 -0.7159  0.1818 -0.0570
  186MOL0     C25588  -0.117   5.998   8.857  0.5163 -1.3026 -0.3867
  186MOL0     O25589  -0.248   6.025   8.884  0.0389 -0.6061 -0.7757
  186MOL0     C25590  -0.289   6.158   8.862  0.7299  0.2027  0.6095
  186MOL0     C25591  -0.430   6.153   8.800 -0.3303  0.8181  0.7259
  186MOL0     C25592  -0.512   6.290   8.802 -0.1735 -0.0516 -0.2432
  186MOL0     C25593  -0.444   6.387   8.711  0.2408  0.3403  0.1729
  186MOL0     C25594  -0.443   6.348   8.571 -0.1885 -0.0882 -0.0918
  186MOL0     C25595  -0.436   6.313   8.454 -1.0436  0.4296 -0.0974
  186MOL0     C25596  -0.086   5.884   8.794 -0.0119  0.0684  0.4066
  186MOL0     C25597   0.042   5.859   8.742  0.2614  0.8443 -0.2993
  186MOL0     C25598   0.053   5.737   8.656  0.4778  0.0844  0.3607
  186MOL0     H25599   0.546   5.881   8.923 -0.2759 -2.1488 -1.2515
  186MOL0     H25600   0.772   5.819   8.875  0.3596 -1.7757 -1.7523
  186MOL0     H25601   0.886   5.667   8.699  0.3670 -0.3527 -2.1522
  186MOL0     H25602   0.982   5.774   8.804 -3.3734 -0.3211  0.7486
  186MOL0     H25603   1.103   5.609   8.634 -0.1039 -0.2066  0.4686
  186MOL0     H25604   1.058   5.721   8.501 -1.1152 -1.0725 -0.5707
  186MOL0     H25605   1.188   5.895   8.590 -1.7459  1.3331  1.7164
  186MOL0     H25606   1.204   5.819   8.753  3.9502  0.4807 -1.1092
  186MOL0     H25607   1.316   5.639   8.559  1.0435 -0.5321  0.3909
  186MOL0     H25608   1.398   5.792   8.538 -0.9736 -2.0441 -3.1613
  186MOL0     H25609   1.370   5.669   8.827  0.0101  0.8117  0.1923
  186MOL0     H25610   1.452   5.810   8.783  0.9579 -0.6769  0.6672
  186MOL0     H25611   1.510   5.546   8.631  0.0698 -1.1492  0.7820
  186MOL0     H25612   1.598   5.692   8.618  0.3702 -0.7775  0.2368
  186MOL0     H25613   1.585   5.506   8.865  0.9914 -1.7315 -2.6783
  186MOL0     H25614   1.632   5.676   8.878 -2.7935  0.4856 -0.1114
  186MOL0     H25615   1.803   5.599   8.674 -2.4082 -2.4921 -2.8002
  186MOL0     H25616   1.823   5.552   8.854 -0.9581  0.4133  0.4872
  186MOL0     H25617   1.668   5.434   8.529  0.8442  1.4913  0.9721
  186MOL0     H25618   1.776   5.199   8.378 -2.2087  0.4219 -1.1977
  186MOL0     H25619   1.626   5.130   8.458  0.7921 -3.9346 -0.9393
  186MOL0     H25620   1.913   5.017   8.490  0.6333  0.7532 -1.7152
  186MOL0     H25621   1.757   4.941   8.541  2.7218 -0.7268  0.5645
  186MOL0     H25622   1.850   4.838   8.355 -0.4888 -0.0733 -1.2897
  186MOL0     H25623   1.680   4.910   8.351 -0.9279  4.3433  3.2568
  186MOL0     H25624   1.795   4.913   8.134 -0.7340 -0.1237  0.1103
  186MOL0     H25625   1.761   5.078   8.211  2.1161  1.4920  1.5240
  186MOL0     H25626   1.836   5.047   7.971 -0.4703 -1.4272  4.6264
  186MOL0     H25627   1.949   5.197   7.676 -1.5955  0.0270 -0.1467
  186MOL0     H25628   1.822   5.091   7.754 -0.1140 -0.7031  1.1178
  186MOL0     H25629   1.943   5.020   7.660 -1.0202 -0.2547  0.7929
  186MOL0     H25630   2.606   5.222   7.752 -2.7894  1.1152  0.5987
  186MOL0     H25631   2.782   5.214   7.560 -0.4201 -0.5192  0.8572
  186MOL0     H25632   2.826   5.394   7.361 -0.1705  0.1135 -0.4566
  186MOL0     H25633   2.908   5.237   7.357 -2.4441 -1.3506  0.2218
  186MOL0     H25634   2.867   5.248   7.102  0.3766 -1.3972  1.6860
  186MOL0     H25635   2.843   5.427   7.127  1.3841 -0.1255 -2.0975
  186MOL0     H25636   3.092   5.275   7.211 -0.3849 -0.0175  1.4029
  186MOL0     H25637   3.057   5.451   7.222 -2.4459  2.0308 -2.0348
  186MOL0     H25638   3.017   5.452   6.968  0.4797 -0.9078 -0.6361
  186MOL0     H25639   3.077   5.288   6.968 -0.0126 -2.4571  4.5839
  186MOL0     H25640   3.252   5.475   6.908  0.1796  0.2751 -0.0027
  186MOL0     H25641   3.245   5.527   7.074 -1.9103 -0.3189  0.9471
  186MOL0     H25642   3.306   5.239   6.992 -0.0689  1.1603 -1.2317
  186MOL0     H25643   3.315   5.304   7.155 -2.9064 -1.2615 -1.8330
  186MOL0     H25644   3.462   5.368   6.902 -2.7902 -1.2584 -0.0623
  186MOL0     H25645   3.535   5.297   7.044 -2.2251 -0.6888 -0.6277
  186MOL0     H25646   3.450   5.594   7.018 -0.3844  0.4627  0.5160
  186MOL0     H25647   3.608   5.532   7.058  0.2105 -0.5587  1.9943
  186MOL0     H25648   2.456   5.229   7.283  1.2141  0.8262  0.1948
  186MOL0     H25649   2.306   5.202   7.460  0.0778  2.5231  0.0079
  186MOL0     H25650   2.336   5.106   7.971 -0.0950  1.9950  1.3386
  186MOL0     H25651   2.211   5.031   8.178 -2.2527 -2.0808  0.3908
  186MOL0     H25652   0.747   6.014   8.488 -0.2068  0.4774 -0.2714
  186MOL0     H25653   0.516   6.091   8.541  3.1573  0.5281 -3.1481
  186MOL0     H25654   0.203   6.125   8.883 -1.2188  0.0063  3.0442
  186MOL0     H25655  -0.030   6.180   8.952 -0.0160  0.6243 -0.4915
  186MOL0     H25656  -0.292   6.212   8.957  0.5154  2.4642 -0.6179
  186MOL0     H25657  -0.230   6.213   8.789 -0.9080  0.9068 -0.2397
  186MOL0     H25658  -0.492   6.080   8.853  0.2343 -0.6746 -0.6178
  186MOL0     H25659  -0.417   6.113   8.699 -0.1360  2.2335  0.1649
  186MOL0     H25660  -0.613   6.269   8.766 -0.9548 -2.3721  2.8801
  186MOL0     H25661  -0.522   6.332   8.902 -0.5073 -0.9579  0.1148
  186MOL0     H25662  -0.345   6.404   8.753  0.6726 -1.0803 -0.2313
  186MOL0     H25663  -0.498   6.482   8.716 -1.0449 -0.3909  0.7844
  186MOL0     H25664  -0.420   6.285   8.352  0.8745 -1.1084  0.5745
  186MOL0     H25665  -0.163   5.807   8.789  1.0892 -1.2424  2.3656
  186MOL0     H25666   0.096   5.655   8.713 -0.5165  0.4492  1.6891
  186MOL0     H25667  -0.041   5.693   8.623 -1.1423  3.3631  0.2393
  186MOL0     H25668   0.115   5.762   8.569  1.0132  2.2729  1.2866
  187MOL0     O25669   6.219   5.980  10.505  0.4856  0.7325 -0.3941
  187MOL0     C25670   6.173   5.864  10.503 -0.2055  1.0052  0.6848
  187MOL0     O25671   6.238   5.754  10.454 -0.4355 -0.2841 -0.4958
  187MOL0     C25672   6.359   5.771  10.383  0.6293 -0.0876 -0.2008
  187MOL0     C25673   6.451   5.665  10.391  0.2443  0.4423 -0.8417
  187MOL0     C25674   6.574   5.687  10.325 -0.1306  0.0884  0.0048
  187MOL0     C25675   6.612   5.791  10.240  0.4053 -0.2922 -0.0018
  187MOL0     O25676   6.724   5.794  10.173 -0.0908 -0.4736 -0.6008
  187MOL0     C25677   6.781   5.928  10.156  0.3136 -0.0428 -0.7208
  187MOL0     C25678   6.914   5.905  10.082  0.2101  0.6093 -0.0511
  187MOL0     C25679   7.017   6.017  10.093 -0.1301 -0.1434  0.2613
  187MOL0     C25680   7.147   5.981  10.032  0.2814  0.8569 -0.4104
  187MOL0     C25681   7.249   6.097  10.011  0.0347  0.0899 -0.1354
  187MOL0     C25682   7.295   6.157  10.148 -0.0719 -0.1218  0.3108
  187MOL0     C25683   7.365   6.291  10.125 -0.2494 -0.0427  0.0939
  187MOL0     C25684   7.500   6.277  10.055  0.1877  0.6524 -0.0660
  187MOL0     N25685   7.565   6.409  10.060 -0.4615  0.1958  0.3440
  187MOL0     C25686   7.605   6.477  10.166 -0.8065 -0.5351 -0.2591
  187MOL0     C25687   7.620   6.604  10.133 -0.5796 -0.6538  0.6400
  187MOL0     C25688   7.665   6.715  10.217 -0.0795 -0.1451 -0.3212
  187MOL0     C25689   7.820   6.716  10.220 -0.5225 -0.7182  0.8995
  187MOL0     C25690   7.890   6.715  10.076 -0.3427 -0.2729  0.1300
  187MOL0     C25691   8.043   6.732  10.082  0.9486  0.5776 -0.6763
  187MOL0     O25692   8.085   6.604  10.141  0.1874  0.3981 -0.0178
  187MOL0     C25693   8.217   6.583  10.148 -0.1965  0.5334  0.8087
  187MOL0     C25694   8.263   6.457  10.194  0.1017 -0.4723 -0.4103
  187MOL0     C25695   8.401   6.436  10.199 -0.2371 -0.2639 -0.2857
  187MOL0     C25696   8.453   6.297  10.238 -0.2279 -0.1195  0.1456
  187MOL0     C25697   8.500   6.540  10.176  0.5014  0.5241  0.1522
  187MOL0     C25698   8.653   6.520  10.183  0.0426 -0.3965 -0.0654
  187MOL0     O25699   8.717   6.419  10.262  0.7102 -0.2011 -0.2425
  187MOL0     C25700   8.853   6.415  10.281  0.0309  0.2573 -0.4639
  187MOL0     C25701   8.912   6.292  10.267  0.1237  0.1084  0.2629
  187MOL0     C25702   9.044   6.282  10.281 -0.2971  0.8932 -0.2696
  187MOL0     C25703   9.128   6.381  10.309 -0.3677 -0.0806 -1.0044
  187MOL0     O25704   9.264   6.367  10.331 -0.0933 -0.6718 -0.0304
  187MOL0     C25705   9.328   6.241  10.309  0.5710  0.2519 -0.0859
  187MOL0     C25706   9.470   6.268  10.325 -0.1392  0.4241 -0.1996
  187MOL0     C25707   9.547   6.131  10.332 -0.6661  0.0436 -1.0537
  187MOL0     C25708   9.692   6.142  10.283 -0.3395  0.0059 -0.2195
  187MOL0     C25709   9.765   6.010  10.308  0.2071  0.8975  0.2525
  187MOL0     C25710   9.918   6.037  10.280 -0.5982  0.4342 -0.3658
  187MOL0     C25711   9.991   5.913  10.340 -0.1523  0.2671 -0.0813
  187MOL0     C25712  10.135   5.905  10.300  0.0938  0.4004  0.1792
  187MOL0    Cl25713  10.220   6.056  10.307 -0.0501 -0.0014 -0.1329
  187MOL0     C25714   9.075   6.509  10.320  0.5408 -0.0999 -0.7248
  187MOL0     C25715   8.935   6.525  10.306 -0.4061 -1.3114 -0.6922
  187MOL0     O25716   8.716   6.604  10.115 -0.1744  0.3018 -0.1407
  187MOL0     C25717   8.445   6.665  10.135 -0.0014  0.5261 -0.5267
  187MOL0     C25718   8.312   6.678  10.121  0.4071 -0.9082 -0.0554
  187MOL0     N25719   7.590   6.607   9.995 -0.4311  0.1256 -0.0020
  187MOL0     N25720   7.553   6.492   9.955 -0.0858 -0.1088  0.2071
  187MOL0     C25721   6.509   5.888  10.216  0.2083 -0.1256 -0.7885
  187MOL0     C25722   6.386   5.879  10.291  0.3895 -0.3576  0.9587
  187MOL0     C25723   6.042   5.837  10.576 -0.4043  0.5517 -0.2519
  187MOL0     C25724   6.004   5.699  10.604 -0.6041 -0.0810 -0.2989
  187MOL0     C25725   5.892   5.673  10.683  0.3132 -0.1462  0.2989
  187MOL0     C25726   5.802   5.766  10.725 -0.0086 -0.2099  0.2843
  187MOL0     O25727   5.694   5.731  10.800 -0.1567 -0.3135 -0.8188
  187MOL0     C25728   5.612   5.633  10.743 -0.1182  0.5045 -0.3409
  187MOL0     C25729   5.468   5.666  10.773  0.3566 -0.3520  1.0474
  187MOL0     C25730   5.430   5.647  10.918 -0.4757  0.1704 -0.0009
  187MOL0     C25731   5.295   5.689  10.958  0.3762  0.0097 -0.0880
  187MOL0     C25732   5.192   5.631  10.883  0.3835  0.0587  0.5326
  187MOL0     C25733   5.104   5.567  10.827  0.3708 -0.2357 -0.5557
  187MOL0     C25734   5.838   5.898  10.695 -0.8923 -0.4759 -0.2544
  187MOL0     C25735   5.953   5.939  10.620  0.4246 -0.2157 -0.1046
  187MOL0     C25736   5.968   6.081  10.586 -0.5449  0.0704 -0.4246
  187MOL0     H25737   6.424   5.578  10.450  0.5625  0.2692 -0.9482
  187MOL0     H25738   6.651   5.611  10.334 -0.8716 -0.5433  1.3145
  187MOL0     H25739   6.797   5.979  10.252  0.3082 -2.1890  0.4967
  187MOL0     H25740   6.706   5.984  10.100 -1.4905 -2.3333 -0.7313
  187MOL0     H25741   6.962   5.815  10.124  3.1740  0.5625 -3.0473
  187MOL0     H25742   6.899   5.881   9.976 -3.7177 -0.4157  0.6014
  187MOL0     H25743   6.980   6.101  10.034 -0.8894 -1.5164 -1.2811
  187MOL0     H25744   7.029   6.055  10.195 -0.9423  1.4501 -0.1993
  187MOL0     H25745   7.195   5.904  10.092 -0.8005  0.8079  0.4128
  187MOL0     H25746   7.130   5.933   9.935  2.0580 -1.1076  0.1771
  187MOL0     H25747   7.209   6.180   9.953  2.8208  0.7421 -1.2350
  187MOL0     H25748   7.336   6.054   9.960  3.2397  2.7767  2.6555
  187MOL0     H25749   7.219   6.173  10.225 -0.8317 -2.0172  0.0161
  187MOL0     H25750   7.357   6.082  10.200 -1.6584 -1.1798  0.7381
  187MOL0     H25751   7.382   6.339  10.222  2.3024 -3.5030  1.5776
  187MOL0     H25752   7.298   6.352  10.064 -0.4894  1.0493  1.4040
  187MOL0     H25753   7.561   6.203  10.107  0.5482  0.9077 -0.1198
  187MOL0     H25754   7.485   6.249   9.950  3.2840  0.3162 -0.5133
  187MOL0     H25755   7.623   6.435  10.265  2.9838 -3.5906 -1.9536
  187MOL0     H25756   7.631   6.706  10.320 -2.1023  1.4752 -0.7645
  187MOL0     H25757   7.626   6.809  10.177  1.1133  0.6400  0.3393
  187MOL0     H25758   7.844   6.805  10.279  1.9124 -1.5488  1.2936
  187MOL0     H25759   7.859   6.629  10.275 -0.1442  0.3282  2.3293
  187MOL0     H25760   7.865   6.621  10.027  1.8299 -0.1293 -1.4431
  187MOL0     H25761   7.860   6.798  10.011 -1.5225 -0.1184  0.8500
  187MOL0     H25762   8.093   6.733   9.984  1.3360  1.3879 -0.4764
  187MOL0     H25763   8.064   6.818  10.145 -0.6472  0.6284 -0.1715
  187MOL0     H25764   8.188   6.388  10.231  0.2923 -0.2426  0.4370
  187MOL0     H25765   8.487   6.298  10.342 -1.8329 -2.3155  0.7748
  187MOL0     H25766   8.536   6.264  10.175 -0.3528 -0.7174  0.2877
  187MOL0     H25767   8.375   6.220  10.227  0.5015 -1.3072  2.4619
  187MOL0     H25768   8.855   6.200  10.262  1.5090 -0.8823  1.5672
  187MOL0     H25769   9.070   6.177  10.274 -0.9312  0.6752  0.4432
  187MOL0     H25770   9.289   6.174  10.386 -3.0598  1.2474 -0.8803
  187MOL0     H25771   9.297   6.194  10.216 -0.1509  0.9971 -0.2352
  187MOL0     H25772   9.516   6.316  10.238  1.0777  2.2365  1.3669
  187MOL0     H25773   9.483   6.334  10.411 -1.7819 -0.0577  0.4390
  187MOL0     H25774   9.502   6.061  10.260  0.9866 -2.9918  0.6815
  187MOL0     H25775   9.545   6.085  10.431 -0.6971 -0.6132 -1.3540
  187MOL0     H25776   9.738   6.220  10.343  2.3518 -0.7506 -1.1489
  187MOL0     H25777   9.701   6.176  10.179 -0.4528  2.2378  0.4681
  187MOL0     H25778   9.754   5.977  10.411 -3.0712  0.5925 -0.1097
  187MOL0     H25779   9.721   5.936  10.240  0.0581  0.7510  0.5104
  187MOL0     H25780   9.950   6.121  10.343  1.0299  0.9158 -1.7561
  187MOL0     H25781   9.931   6.042  10.172  4.2307 -2.4794 -0.2391
  187MOL0     H25782   9.949   5.817  10.309 -3.7998  1.3113  1.1165
  187MOL0     H25783   9.995   5.920  10.449 -3.0382  0.4092  0.0694
  187MOL0     H25784  10.138   5.871  10.197  0.8827  0.8803  0.0303
  187MOL0     H25785  10.182   5.829  10.363 -0.1253 -0.6837 -0.9363
  187MOL0     H25786   9.148   6.588  10.335  2.8109 -2.5315  2.0224
  187MOL0     H25787   8.884   6.619  10.322  0.1071 -1.2337  0.5727
  187MOL0     H25788   8.511   6.752  10.139 -0.0251  0.5254 -0.1379
  187MOL0     H25789   8.280   6.773  10.080  0.3822 -1.5262 -1.5347
  187MOL0     H25790   6.523   5.973  10.150 -2.2534  0.0848 -1.1017
  187MOL0     H25791   6.310   5.956  10.280 -0.7197 -1.7677 -3.2327
  187MOL0     H25792   6.060   5.607  10.588 -1.1752 -1.0184  2.6195
  187MOL0     H25793   5.868   5.570  10.709 -0.4042 -0.1732 -0.4435
  187MOL0     H25794   5.627   5.626  10.634 -0.6302  0.3190 -0.4049
  187MOL0     H25795   5.639   5.544  10.800  1.6195  0.2201 -1.5220
  187MOL0     H25796   5.420   5.583  10.720 -0.7141 -1.0288  2.9746
  187MOL0     H25797   5.429   5.762  10.738 -0.2906 -0.2119  2.1105
  187MOL0     H25798   5.438   5.540  10.937  0.4305  0.4789  1.5516
  187MOL0     H25799   5.498   5.704  10.983 -2.7647  0.4128  2.3385
  187MOL0     H25800   5.294   5.798  10.953  0.7307  0.0060 -0.2647
  187MOL0     H25801   5.278   5.660  11.062 -1.9985  2.6084  0.3992
  187MOL0     H25802   5.034   5.502  10.778  1.0333 -1.0646 -0.4252
  187MOL0     H25803   5.770   5.975  10.729 -1.6543 -1.4219  0.4235
  187MOL0     H25804   5.896   6.137  10.646 -0.7684 -1.9329  1.2761
  187MOL0     H25805   6.073   6.107  10.607  0.2588 -1.3880 -2.3750
  187MOL0     H25806   5.956   6.095  10.478 -1.1883 -0.7349 -0.4678
  188MOL0     O25807   8.096   4.231   2.603  0.2051 -0.1099  0.2155
  188MOL0     C25808   8.093   4.358   2.612  0.1485  0.3499  0.0388
  188MOL0     O25809   8.176   4.429   2.692  0.1877 -1.2161  0.5693
  188MOL0     C25810   8.296   4.379   2.744 -0.2341  0.6287  1.7774
  188MOL0     C25811   8.385   4.294   2.679 -0.4750 -0.1400 -0.4431
  188MOL0     C25812   8.499   4.250   2.743 -0.0361 -0.3454  0.4902
  188MOL0     C25813   8.535   4.291   2.868 -0.6950  0.1086 -0.5034
  188MOL0     O25814   8.651   4.246   2.920 -0.2462  0.4169  0.1708
  188MOL0     C25815   8.687   4.270   3.057  0.5447  1.1034  0.4004
  188MOL0     C25816   8.824   4.226   3.092 -0.2195  0.0005  0.0375
  188MOL0     C25817   8.931   4.305   3.007  0.7860 -0.4789 -0.1684
  188MOL0     C25818   9.055   4.220   3.001 -0.0583  0.8521 -0.2377
  188MOL0     C25819   9.168   4.274   2.918 -0.3451  0.1837 -0.7470
  188MOL0     C25820   9.301   4.233   2.989  0.2727 -0.3483 -0.1224
  188MOL0     C25821   9.418   4.321   2.930 -0.0155  0.0957 -0.0106
  188MOL0     C25822   9.460   4.438   3.020  0.6631  0.3535  0.0644
  188MOL0     N25823   9.572   4.520   2.967 -0.6126 -0.4740  0.5422
  188MOL0     C25824   9.673   4.482   2.874  0.4963  0.9730 -0.3107
  188MOL0     C25825   9.777   4.566   2.891 -0.4067  1.0529  0.5970
  188MOL0     C25826   9.901   4.552   2.815  0.3431 -0.0405  1.0319
  188MOL0     C25827  10.008   4.450   2.870 -0.8196 -0.1522  0.2977
  188MOL0     C25828  10.067   4.492   3.003  0.7845 -0.1082 -0.7415
  188MOL0     C25829  10.170   4.392   3.054 -0.5207  0.0742  0.7376
  188MOL0     O25830  10.295   4.414   2.981 -0.0863  0.2247  0.7154
  188MOL0     C25831  10.395   4.322   3.006  0.4655  0.5135  0.3815
  188MOL0     C25832  10.401   4.226   3.107 -0.2179  0.3126 -0.3755
  188MOL0     C25833  10.512   4.144   3.121  0.3027  0.6673  0.0301
  188MOL0     C25834  10.504   4.050   3.241  0.4114 -0.1109  0.9835
  188MOL0     C25835  10.624   4.146   3.025  0.4621  0.2465  0.6367
  188MOL0     C25836  10.756   4.078   3.030 -0.3174 -0.3919 -0.3075
  188MOL0     O25837  10.798   4.028   3.147 -0.1564 -0.0377 -0.0157
  188MOL0     C25838  10.919   3.963   3.162 -0.7959 -0.0543  0.4106
  188MOL0     C25839  11.034   3.986   3.078 -0.3827 -0.4979 -0.1539
  188MOL0     C25840  11.147   3.923   3.105  0.1539  0.1313 -0.0102
  188MOL0     C25841  11.160   3.845   3.220  0.3992 -0.1960 -0.1572
  188MOL0     O25842  11.281   3.795   3.254 -0.5309 -0.1393  1.1481
  188MOL0     C25843  11.301   3.749   3.392  0.3444 -0.3103 -0.6406
  188MOL0     C25844  11.449   3.750   3.424  0.0531  0.6429  1.0026
  188MOL0     C25845  11.534   3.649   3.331  0.3798 -0.2604  0.2373
  188MOL0     C25846  11.687   3.677   3.354 -0.2839 -0.3341  0.6537
  188MOL0     C25847  11.760   3.640   3.223  0.5052 -0.4014 -0.5077
  188MOL0     C25848  11.755   3.489   3.197  0.0888  0.2047 -0.1561
  188MOL0     C25849  11.817   3.470   3.063  0.5515  0.8508  1.2044
  188MOL0     C25850  11.812   3.326   3.033  0.2321  1.2907 -0.2272
  188MOL0    Cl25851  11.941   3.238   3.115  0.0647  0.3712  0.2294
  188MOL0     C25852  11.050   3.799   3.275 -0.1510 -1.0670  0.0460
  188MOL0     C25853  10.928   3.851   3.253 -0.0225 -0.5440  0.3031
  188MOL0     O25854  10.806   4.058   2.924  0.4299  0.0770 -0.0240
  188MOL0     C25855  10.611   4.241   2.918  0.2329  0.6286  0.0115
  188MOL0     C25856  10.503   4.327   2.911 -0.1715 -0.6744 -0.7989
  188MOL0     N25857   9.738   4.660   2.986  0.6719 -0.1053  0.8032
  188MOL0     N25858   9.626   4.627   3.032 -0.2986  0.3587  0.3874
  188MOL0     C25859   8.450   4.375   2.948  0.2222 -0.4426  0.3647
  188MOL0     C25860   8.329   4.416   2.878 -0.0682 -0.0782 -0.7548
  188MOL0     C25861   7.972   4.430   2.560 -0.2093  0.9921  0.2625
  188MOL0     C25862   7.944   4.560   2.602  0.0118 -0.4744 -1.4635
  188MOL0     C25863   7.834   4.627   2.554 -1.1615 -0.6960 -0.7047
  188MOL0     C25864   7.755   4.574   2.452  0.1399  0.3748 -0.2907
  188MOL0     O25865   7.653   4.631   2.390 -0.1909 -0.2245  0.1637
  188MOL0     C25866   7.614   4.763   2.427 -0.5082  0.1878  0.7925
  188MOL0     C25867   7.723   4.853   2.366 -0.1778 -0.8014 -0.5842
  188MOL0     C25868   7.688   5.005   2.366  0.7973 -0.0177 -0.7208
  188MOL0     C25869   7.785   5.097   2.304 -0.7990  0.7263  0.1091
  188MOL0     C25870   7.736   5.230   2.288 -0.2440  0.4493  0.1496
  188MOL0     C25871   7.693   5.345   2.296 -0.0612  0.1050  0.4092
  188MOL0     C25872   7.776   4.437   2.424  0.6686  0.0641 -0.1809
  188MOL0     C25873   7.887   4.370   2.464 -0.7048 -0.3755 -0.1586
  188MOL0     C25874   7.899   4.229   2.400  0.0941  0.7596  0.1694
  188MOL0     H25875   8.359   4.258   2.580  1.6183 -2.1047 -0.3756
  188MOL0     H25876   8.554   4.187   2.674 -1.0447  2.3137 -3.0595
  188MOL0     H25877   8.615   4.213   3.116  0.4752  0.0407 -0.6727
  188MOL0     H25878   8.675   4.372   3.094 -0.5252  0.2985  2.4304
  188MOL0     H25879   8.825   4.233   3.202 -1.5378 -1.0146  0.1388
  188MOL0     H25880   8.828   4.124   3.053  3.4119  1.3752 -3.9228
  188MOL0     H25881   8.896   4.303   2.904 -1.1870 -3.2805  0.4260
  188MOL0     H25882   8.946   4.408   3.041 -1.0657 -0.5545  1.0564
  188MOL0     H25883   9.090   4.216   3.105  0.1686  2.5981 -0.2057
  188MOL0     H25884   9.037   4.116   2.974 -2.3847  0.7487  1.3753
  188MOL0     H25885   9.165   4.383   2.909  0.3284  0.3046  0.3291
  188MOL0     H25886   9.165   4.237   2.815  0.7755  0.7945 -1.0191
  188MOL0     H25887   9.293   4.252   3.096  1.3962  0.0325 -0.0917
  188MOL0     H25888   9.323   4.127   2.970 -0.9190 -1.0290  1.9672
  188MOL0     H25889   9.391   4.366   2.834 -0.7931  2.9567  1.4237
  188MOL0     H25890   9.499   4.252   2.904  0.9839  1.3428 -0.3204
  188MOL0     H25891   9.377   4.509   3.029 -0.2611 -0.5077 -1.2805
  188MOL0     H25892   9.481   4.402   3.121  1.0071 -0.5887 -0.3343
  188MOL0     H25893   9.667   4.395   2.810 -1.9414  0.7582  0.1203
  188MOL0     H25894   9.944   4.650   2.792 -0.5330  0.0025 -0.6297
  188MOL0     H25895   9.876   4.512   2.716 -2.0008 -2.2008  2.3936
  188MOL0     H25896   9.970   4.349   2.886  0.0291 -0.6388 -0.6239
  188MOL0     H25897  10.085   4.436   2.794 -2.4988 -1.0183 -1.3266
  188MOL0     H25898  10.095   4.597   2.995 -0.2841  0.6244  2.9763
  188MOL0     H25899   9.984   4.495   3.075  0.7392  0.9318 -0.8212
  188MOL0     H25900  10.177   4.390   3.164 -0.5752 -0.7832  0.7285
  188MOL0     H25901  10.145   4.288   3.034 -1.0724  0.1113  1.2050
  188MOL0     H25902  10.315   4.212   3.173 -1.2039  1.1899 -1.4192
  188MOL0     H25903  10.406   4.004   3.254  0.0689  0.7328  1.4808
  188MOL0     H25904  10.534   4.087   3.339 -0.1759 -0.1416  1.1813
  188MOL0     H25905  10.563   3.964   3.209 -0.1437  0.2772 -1.2326
  188MOL0     H25906  11.037   4.057   2.996  3.0457 -1.4886 -1.0614
  188MOL0     H25907  11.232   3.947   3.042 -0.7081  1.6982 -0.6232
  188MOL0     H25908  11.244   3.810   3.463  0.2563 -2.8231  1.5938
  188MOL0     H25909  11.258   3.650   3.405  0.2125 -0.0319  1.2472
  188MOL0     H25910  11.486   3.850   3.398  1.0912 -0.2770 -1.3432
  188MOL0     H25911  11.456   3.720   3.529 -0.3929 -3.0893  0.0818
  188MOL0     H25912  11.509   3.660   3.226 -1.0943  0.6419  0.6516
  188MOL0     H25913  11.507   3.543   3.343 -0.5043 -0.0561  0.1034
  188MOL0     H25914  11.707   3.603   3.432  0.2466 -1.0028 -0.0857
  188MOL0     H25915  11.720   3.778   3.377  0.8493 -0.8713  1.4782
  188MOL0     H25916  11.719   3.691   3.135 -0.4928  0.2060  0.2834
  188MOL0     H25917  11.865   3.666   3.243  0.9512 -0.3678 -2.5795
  188MOL0     H25918  11.650   3.457   3.199  0.9764 -2.9503  0.4621
  188MOL0     H25919  11.808   3.433   3.275 -1.0533  1.1129  1.3230
  188MOL0     H25920  11.923   3.496   3.054  0.9121 -0.7937  0.2718
  188MOL0     H25921  11.755   3.528   2.994  0.5499  0.3792  0.7985
  188MOL0     H25922  11.823   3.319   2.925 -1.3098  1.6203 -0.4350
  188MOL0     H25923  11.713   3.286   3.061  0.0611  1.6299 -0.3442
  188MOL0     H25924  11.059   3.716   3.344  1.1692 -0.1473  1.0341
  188MOL0     H25925  10.841   3.810   3.303  1.0602 -2.4812  0.6776
  188MOL0     H25926  10.693   4.248   2.847  0.8666  0.1519  0.6852
  188MOL0     H25927  10.488   4.408   2.840 -0.1790  1.7860  1.8174
  188MOL0     H25928   8.472   4.420   3.044 -0.5089  2.5017 -0.7189
  188MOL0     H25929   8.256   4.484   2.922  1.4284  0.3567  1.1885
  188MOL0     H25930   8.006   4.603   2.679  0.0642 -1.6149 -0.8435
  188MOL0     H25931   7.824   4.719   2.610 -0.0564 -2.9461  3.7094
  188MOL0     H25932   7.514   4.794   2.398 -1.3891 -2.2067  1.0167
  188MOL0     H25933   7.607   4.774   2.535 -2.8602  1.5380  0.5505
  188MOL0     H25934   7.735   4.831   2.260 -1.0874  3.0304 -1.6647
  188MOL0     H25935   7.821   4.839   2.412  0.3212  0.9018 -1.0554
  188MOL0     H25936   7.589   5.025   2.322  0.7289 -3.0425 -2.1911
  188MOL0     H25937   7.670   5.037   2.469  0.2370  0.6387 -1.0051
  188MOL0     H25938   7.800   5.061   2.202  0.9708  1.9062 -0.0744
  188MOL0     H25939   7.880   5.087   2.356 -2.8507  1.3992  4.4594
  188MOL0     H25940   7.655   5.445   2.299  3.6773  1.7553 -0.9157
  188MOL0     H25941   7.707   4.384   2.359 -0.3139  0.0367  0.8593
  188MOL0     H25942   8.003   4.200   2.387 -0.2537 -0.4190 -0.0605
  188MOL0     H25943   7.844   4.149   2.449 -0.4423  1.2535  0.3800
  188MOL0     H25944   7.851   4.250   2.303 -0.8681 -0.1757  0.4308
  189MOL0     O25945   6.746   0.547  11.169 -0.2766 -0.1879  0.5150
  189MOL0     C25946   6.768   0.448  11.244 -0.2400  0.4435  0.8986
  189MOL0     O25947   6.866   0.355  11.227 -1.2193 -0.4463 -0.1326
  189MOL0     C25948   6.982   0.391  11.166 -0.0992 -0.3986 -0.2995
  189MOL0     C25949   7.058   0.295  11.109  0.1343 -0.7389  1.0643
  189MOL0     C25950   7.181   0.323  11.047 -0.4723  0.0675  0.8997
  189MOL0     C25951   7.239   0.448  11.051  0.1124  0.2146  0.0843
  189MOL0     O25952   7.369   0.458  11.002 -0.2764  0.7280  0.2348
  189MOL0     C25953   7.444   0.576  11.026  0.2633  0.2427 -0.1924
  189MOL0     C25954   7.589   0.541  10.974  0.4208 -0.7688  0.5115
  189MOL0     C25955   7.662   0.675  10.984  0.1677 -0.7434 -0.3820
  189MOL0     C25956   7.811   0.652  10.959 -0.1269  0.0417  0.1461
  189MOL0     C25957   7.890   0.753  10.880 -1.1957 -0.2593  0.0366
  189MOL0     C25958   8.036   0.706  10.860  0.1559  0.0425 -0.8242
  189MOL0     C25959   8.124   0.791  10.770  0.0814  0.6332 -0.5910
  189MOL0     C25960   8.161   0.927  10.820 -0.0936 -0.1412 -0.5959
  189MOL0     N25961   8.214   1.018  10.718 -0.1433 -0.2243 -0.1278
  189MOL0     C25962   8.313   0.987  10.633 -0.2451 -1.1581 -0.1436
  189MOL0     C25963   8.307   1.078  10.533 -0.0187 -0.1068  0.0142
  189MOL0     C25964   8.399   1.105  10.411  0.1536  0.9132  0.1718
  189MOL0     C25965   8.537   1.106  10.452  0.0341  0.4750 -0.3315
  189MOL0     C25966   8.637   1.129  10.328  0.2863  0.0918 -0.0717
  189MOL0     C25967   8.637   1.269  10.257  0.1233 -0.4114 -0.8232
  189MOL0     O25968   8.731   1.272  10.150 -0.0341 -0.0201 -0.5167
  189MOL0     C25969   8.858   1.321  10.164  0.2622  0.1105  0.1241
  189MOL0     C25970   8.925   1.353  10.048  0.3401 -0.4021 -0.3392
  189MOL0     C25971   9.064   1.377  10.045  1.3968 -0.0557  0.2072
  189MOL0     C25972   9.126   1.372   9.906  0.3635  0.5514  0.1472
  189MOL0     C25973   9.127   1.393  10.166 -0.2687 -0.5145 -1.1233
  189MOL0     C25974   9.269   1.412  10.175  0.5379  0.6933 -0.1438
  189MOL0     O25975   9.317   1.493  10.273  0.3244 -0.2837  0.3493
  189MOL0     C25976   9.448   1.507  10.289  0.5493 -0.0976 -0.1008
  189MOL0     C25977   9.506   1.632  10.298  0.1883 -0.0447 -0.9505
  189MOL0     C25978   9.650   1.652  10.320  0.0093 -0.2715 -0.3303
  189MOL0     C25979   9.727   1.538  10.350  0.4840  0.2952  0.9987
  189MOL0     O25980   9.859   1.553  10.390  0.2445 -0.3329 -0.3838
  189MOL0     C25981   9.958   1.509  10.297 -0.1980  0.1124  0.3662
  189MOL0     C25982  10.095   1.566  10.345 -0.3812  1.2444 -0.0242
  189MOL0     C25983  10.204   1.542  10.245 -0.2773 -0.1667 -0.4846
  189MOL0     C25984  10.343   1.593  10.282  0.4397 -0.6342  0.4620
  189MOL0     C25985  10.448   1.547  10.184  0.3775 -0.5830  0.6025
  189MOL0     C25986  10.588   1.596  10.216 -0.1877  0.3726 -0.7951
  189MOL0     C25987  10.684   1.543  10.107 -0.1175 -0.2902 -0.5014
  189MOL0     C25988  10.826   1.565  10.150 -1.3934  0.5024  0.7265
  189MOL0    Cl25989  10.946   1.519  10.030 -0.2359 -0.2686  0.0286
  189MOL0     C25990   9.658   1.415  10.359 -0.6583 -0.4809  0.3891
  189MOL0     C25991   9.526   1.397  10.322  0.8984  0.2038  0.0897
  189MOL0     O25992   9.335   1.337  10.102  0.4781 -0.6057  1.3374
  189MOL0     C25993   9.057   1.379  10.292  0.3775  0.0741  0.1850
  189MOL0     C25994   8.921   1.341  10.292 -0.0226 -0.2236 -0.4880
  189MOL0     N25995   8.202   1.164  10.572 -0.7715  0.1287  0.5967
  189MOL0     N25996   8.143   1.128  10.673 -1.5648 -0.6283 -0.1470
  189MOL0     C25997   7.155   0.546  11.110 -0.4393 -0.4835  1.4225
  189MOL0     C25998   7.039   0.515  11.179  0.4114  0.4547  0.3165
  189MOL0     C25999   6.662   0.408  11.342  0.8482 -0.6292 -0.5235
  189MOL0     C26000   6.524   0.446  11.313 -1.2239 -1.4783 -0.5673
  189MOL0     C26001   6.426   0.439  11.407 -0.0709 -0.4440 -0.0917
  189MOL0     C26002   6.452   0.372  11.529 -0.0080 -0.5637  1.3448
  189MOL0     O26003   6.372   0.361  11.637 -0.0761  0.0974 -0.4280
  189MOL0     C26004   6.242   0.418  11.640  0.1985  0.3959  0.6455
  189MOL0     C26005   6.182   0.415  11.782 -0.6575 -0.1133 -0.1144
  189MOL0     C26006   6.029   0.442  11.783 -0.0624  0.7457 -0.4309
  189MOL0     C26007   5.963   0.422  11.919  0.1209 -0.9424  0.5274
  189MOL0     C26008   5.838   0.502  11.926 -0.2115  0.5746  0.5677
  189MOL0     C26009   5.732   0.553  11.937  1.4511  0.8204 -1.1209
  189MOL0     C26010   6.582   0.326  11.553  0.6822 -0.0688  0.0357
  189MOL0     C26011   6.683   0.335  11.460 -0.4714 -0.1395  0.6557
  189MOL0     C26012   6.819   0.276  11.509 -0.2451 -0.1014  0.0418
  189MOL0     H26013   7.027   0.191  11.102 -3.4281  0.3073 -1.3696
  189MOL0     H26014   7.245   0.245  11.008 -1.4363 -1.8267  2.8614
  189MOL0     H26015   7.452   0.611  11.130 -2.4147 -1.5989  0.7566
  189MOL0     H26016   7.391   0.654  10.971  1.8965  1.4726 -0.1015
  189MOL0     H26017   7.645   0.465  11.029  5.3903  1.5363 -0.7575
  189MOL0     H26018   7.577   0.496  10.876 -3.1379 -0.1346  0.5092
  189MOL0     H26019   7.646   0.746  10.902  2.6520 -0.3791 -0.6297
  189MOL0     H26020   7.629   0.741  11.065 -2.1903 -1.3401 -0.7805
  189MOL0     H26021   7.846   0.641  11.062  1.4792 -1.6214 -0.5254
  189MOL0     H26022   7.821   0.560  10.900 -0.2592 -1.7854  2.7397
  189MOL0     H26023   7.901   0.853  10.923 -0.1336  0.3915 -1.6543
  189MOL0     H26024   7.850   0.774  10.780 -0.9021 -0.6929 -0.1787
  189MOL0     H26025   8.085   0.717  10.958 -0.2018  1.3285 -0.7718
  189MOL0     H26026   8.040   0.599  10.837 -3.8148 -0.4150 -0.0578
  189MOL0     H26027   8.091   0.793  10.666  2.3910  2.3119 -1.3612
  189MOL0     H26028   8.221   0.743  10.755  0.0769 -0.2618  1.7867
  189MOL0     H26029   8.072   0.979  10.858  0.3601  1.7175 -1.9200
  189MOL0     H26030   8.227   0.926  10.907 -3.6662  0.9313  2.4217
  189MOL0     H26031   8.389   0.910  10.626  2.2113  1.2033 -6.9699
  189MOL0     H26032   8.389   1.203  10.363  0.9716  1.7419  1.5917
  189MOL0     H26033   8.365   1.028  10.342 -2.0834  4.1477 -2.7075
  189MOL0     H26034   8.554   1.188  10.522 -0.1540  1.0698 -0.9784
  189MOL0     H26035   8.559   1.009  10.500  1.0544  0.5175 -0.6807
  189MOL0     H26036   8.736   1.123  10.375 -0.4483  0.9586  1.6666
  189MOL0     H26037   8.616   1.050  10.255 -1.6185  0.2882  0.2131
  189MOL0     H26038   8.539   1.289  10.213  1.0616  2.1348 -1.9801
  189MOL0     H26039   8.659   1.350  10.328 -0.5638  0.5947 -1.7215
  189MOL0     H26040   8.878   1.333   9.952  1.2366  0.8114 -1.0479
  189MOL0     H26041   9.210   1.442   9.893 -0.0122  0.5340 -3.3304
  189MOL0     H26042   9.047   1.396   9.835 -0.7280 -2.9574 -0.0326
  189MOL0     H26043   9.162   1.273   9.874 -2.0718 -0.0154 -1.0252
  189MOL0     H26044   9.439   1.717  10.287 -1.9884 -1.6335 -0.6060
  189MOL0     H26045   9.674   1.757  10.329 -0.4665 -0.1989  0.1321
  189MOL0     H26046   9.973   1.402  10.315  1.1492  0.8030  4.1739
  189MOL0     H26047   9.931   1.543  10.196 -0.8339 -4.7449 -1.3798
  189MOL0     H26048  10.101   1.667  10.386  3.1363  1.2572 -0.3192
  189MOL0     H26049  10.121   1.506  10.433 -1.0107 -2.3966 -2.1366
  189MOL0     H26050  10.173   1.598  10.156 -1.1021 -0.2090 -0.2335
  189MOL0     H26051  10.210   1.433  10.232  0.5713  0.0770 -2.6294
  189MOL0     H26052  10.373   1.574  10.385  0.5800  1.7189  0.9169
  189MOL0     H26053  10.342   1.702  10.270  0.0276 -0.8706 -2.5099
  189MOL0     H26054  10.446   1.437  10.183 -0.6501 -0.5739  0.0917
  189MOL0     H26055  10.408   1.577  10.087 -0.6157  1.1062  1.4983
  189MOL0     H26056  10.630   1.545  10.303 -0.0449  0.7248 -0.6525
  189MOL0     H26057  10.599   1.704  10.228 -0.0968  0.1005  2.6158
  189MOL0     H26058  10.672   1.604  10.017  1.2651  0.0210 -0.4905
  189MOL0     H26059  10.678   1.434  10.094 -2.9365 -0.3567  0.6058
  189MOL0     H26060  10.848   1.501  10.236  1.0073 -0.6546 -0.6460
  189MOL0     H26061  10.837   1.671  10.178  1.9869  0.6335 -0.5948
  189MOL0     H26062   9.711   1.324  10.385 -1.0600 -0.3192  1.8325
  189MOL0     H26063   9.485   1.298  10.334  0.1227  0.8338  4.1025
  189MOL0     H26064   9.125   1.364  10.376 -0.4446  0.7734  1.0013
  189MOL0     H26065   8.870   1.313  10.384  0.7411 -0.8779 -0.2642
  189MOL0     H26066   7.179   0.652  11.108 -1.5307 -0.2312  0.2515
  189MOL0     H26067   6.981   0.592  11.229 -3.0962 -2.6922  1.6266
  189MOL0     H26068   6.507   0.502  11.222 -0.6111 -2.1929 -1.1263
  189MOL0     H26069   6.333   0.495  11.398  0.3190  0.0762 -1.0344
  189MOL0     H26070   6.249   0.519  11.599 -0.8848  0.8384  1.5097
  189MOL0     H26071   6.176   0.354  11.581 -2.4404  2.1183  1.5470
  189MOL0     H26072   6.244   0.477  11.847  0.5634 -1.9244  0.5350
  189MOL0     H26073   6.199   0.316  11.827 -3.2007  0.5345  2.6092
  189MOL0     H26074   6.020   0.543  11.743  2.1966  1.1225 -0.1256
  189MOL0     H26075   5.986   0.366  11.717  1.2214 -1.0782  0.7411
  189MOL0     H26076   6.023   0.462  12.001 -0.8030 -1.6385  1.5713
  189MOL0     H26077   5.941   0.318  11.946  0.0839 -1.0625  0.0529
  189MOL0     H26078   5.638   0.602  11.952  1.6845  1.5419 -1.8917
  189MOL0     H26079   6.594   0.263  11.641 -2.9962 -1.3087 -0.1648
  189MOL0     H26080   6.891   0.354  11.482  0.5236 -1.0163 -0.6451
  189MOL0     H26081   6.825   0.246  11.614  1.8998 -0.0849 -0.0210
  189MOL0     H26082   6.843   0.189  11.447  0.9882  1.5155 -1.8673
  190MOL0     O26083   6.439   3.752   4.449 -0.0737 -0.0999  0.0150
  190MOL0     C26084   6.419   3.653   4.513  0.2007  0.2922 -0.2690
  190MOL0     O26085   6.294   3.614   4.560  0.5596 -0.6786  0.1406
  190MOL0     C26086   6.198   3.715   4.581  0.6750  0.4028 -0.0472
  190MOL0     C26087   6.184   3.794   4.700  0.4805  0.9530  0.3834
  190MOL0     C26088   6.083   3.890   4.716 -0.1882  0.0721 -0.5909
  190MOL0     C26089   5.987   3.903   4.624 -0.4139  0.0896 -0.3122
  190MOL0     O26090   5.894   4.006   4.647 -0.3455 -0.1594 -1.4709
  190MOL0     C26091   5.761   3.982   4.590 -0.5418 -0.3488  0.1637
  190MOL0     C26092   5.696   4.108   4.533  0.2441  0.3536 -0.1639
  190MOL0     C26093   5.771   4.144   4.409  0.0304 -1.2724 -0.3097
  190MOL0     C26094   5.681   4.226   4.317  0.4570 -0.1608  0.3042
  190MOL0     C26095   5.750   4.312   4.205  0.1630  0.2996 -0.2932
  190MOL0     C26096   5.840   4.425   4.255  0.1929  0.4850 -0.2419
  190MOL0     C26097   5.836   4.551   4.166  0.0379 -0.2779  0.1913
  190MOL0     C26098   5.966   4.640   4.176 -0.7654 -0.0954  0.5315
  190MOL0     N26099   6.011   4.684   4.314  0.8725 -0.0960 -0.3818
  190MOL0     C26100   5.925   4.728   4.409  0.1851 -0.5285  0.0218
  190MOL0     C26101   5.991   4.754   4.519  0.1028 -0.2640 -0.5626
  190MOL0     C26102   5.944   4.807   4.651  0.0657 -0.4996  0.3940
  190MOL0     C26103   5.920   4.959   4.635  0.0028 -0.4464 -0.8585
  190MOL0     C26104   5.780   5.002   4.605  0.0803 -0.1605  0.0788
  190MOL0     C26105   5.747   5.162   4.600  0.2280  0.4187 -0.2834
  190MOL0     O26106   5.835   5.222   4.500 -0.2459  0.3682  0.3397
  190MOL0     C26107   5.917   5.322   4.540 -0.0786  0.9630  0.8106
  190MOL0     C26108   5.860   5.442   4.583  0.7249  0.5239  0.0078
  190MOL0     C26109   5.955   5.547   4.624  0.1966 -0.4567 -0.8127
  190MOL0     C26110   5.894   5.677   4.651 -0.6409  0.0710  0.1632
  190MOL0     C26111   6.090   5.537   4.619  0.5569  0.4851 -0.5516
  190MOL0     C26112   6.183   5.651   4.653  0.1550  0.5539  0.3374
  190MOL0     O26113   6.227   5.729   4.551 -0.5351 -0.7821 -0.3358
  190MOL0     C26114   6.332   5.810   4.578 -0.1540  0.2829 -0.3706
  190MOL0     C26115   6.460   5.764   4.551  0.3574 -0.1534  0.4994
  190MOL0     C26116   6.579   5.834   4.586  0.1235 -0.4576 -0.5369
  190MOL0     C26117   6.571   5.944   4.663  0.3621 -0.1822 -0.0710
  190MOL0     O26118   6.694   5.985   4.716  0.4377 -0.6358  0.2982
  190MOL0     C26119   6.714   6.118   4.767  0.0394 -0.5509  0.1642
  190MOL0     C26120   6.852   6.135   4.830 -0.6335  0.4894  0.4568
  190MOL0     C26121   6.958   6.088   4.731  0.4287 -0.0821 -0.7455
  190MOL0     C26122   7.077   6.178   4.745 -0.2940  0.3603  0.4209
  190MOL0     C26123   7.189   6.143   4.645  0.4271 -0.1822  0.0480
  190MOL0     C26124   7.263   6.015   4.665 -0.2759 -0.2466  0.7298
  190MOL0     C26125   7.346   5.990   4.545 -0.3943  0.1541 -0.1939
  190MOL0     C26126   7.436   5.868   4.570  0.6090  0.4757 -0.5483
  190MOL0    Cl26127   7.326   5.722   4.569  0.0607  0.2324  0.5794
  190MOL0     C26128   6.444   5.995   4.694  0.1355  0.4157 -0.7157
  190MOL0     C26129   6.322   5.931   4.658 -0.7791  0.0492 -0.2184
  190MOL0     O26130   6.210   5.659   4.770  0.4417  0.9852 -0.0699
  190MOL0     C26131   6.141   5.418   4.568 -0.2285 -0.2315  0.3177
  190MOL0     C26132   6.058   5.313   4.535  0.7919  1.0204  0.5083
  190MOL0     N26133   6.119   4.710   4.501 -0.1615  0.3268 -0.7541
  190MOL0     N26134   6.129   4.671   4.380 -0.5327  0.6966  0.2613
  190MOL0     C26135   5.988   3.820   4.511  0.2539 -0.6289 -0.6589
  190MOL0     C26136   6.098   3.734   4.491  0.6895  0.5029  0.7515
  190MOL0     C26137   6.536   3.571   4.563 -0.4055  0.2736  0.2873
  190MOL0     C26138   6.544   3.520   4.688 -0.0786  0.3419  0.9050
  190MOL0     C26139   6.656   3.455   4.733  0.4560 -0.8907  0.1808
  190MOL0     C26140   6.772   3.442   4.654  0.2158  0.4445  0.4610
  190MOL0     O26141   6.890   3.381   4.701  0.2511  0.7387 -0.5076
  190MOL0     C26142   6.872   3.270   4.793  0.0376 -0.1269  0.5188
  190MOL0     C26143   6.882   3.306   4.942  0.5774  0.1302  0.3228
  190MOL0     C26144   6.900   3.183   5.033  0.1157  0.2405  1.1714
  190MOL0     C26145   6.952   3.215   5.168 -0.7715  0.9220  0.0686
  190MOL0     C26146   6.971   3.098   5.253 -0.3715 -0.2773  0.0961
  190MOL0     C26147   7.000   2.992   5.321 -0.4576  0.2505  1.5412
  190MOL0     C26148   6.768   3.505   4.527  0.1759  0.8823  0.4069
  190MOL0     C26149   6.655   3.559   4.474  0.6018  0.0760  0.4204
  190MOL0     C26150   6.659   3.600   4.328  0.8401  0.1491 -0.4578
  190MOL0     H26151   6.257   3.777   4.779 -1.3381 -0.9712  1.7604
  190MOL0     H26152   6.076   3.946   4.808  2.4722 -2.4462  1.3256
  190MOL0     H26153   5.698   3.946   4.672 -0.5403 -0.6886  0.0158
  190MOL0     H26154   5.753   3.910   4.507 -3.9943 -0.5616  0.5375
  190MOL0     H26155   5.594   4.079   4.503  0.8502 -0.0825 -1.9404
  190MOL0     H26156   5.689   4.186   4.610  0.3605  1.2848 -1.0700
  190MOL0     H26157   5.862   4.198   4.437 -1.3570  0.4158  1.1614
  190MOL0     H26158   5.799   4.049   4.363 -0.4551 -1.7111  0.2941
  190MOL0     H26159   5.625   4.147   4.267 -0.4499 -0.8340  2.2933
  190MOL0     H26160   5.602   4.276   4.373 -0.5495  0.3471 -1.4764
  190MOL0     H26161   5.682   4.354   4.131 -1.1432 -1.5380 -0.2095
  190MOL0     H26162   5.814   4.246   4.146  2.4800 -1.3027  3.5937
  190MOL0     H26163   5.808   4.444   4.358  1.1166  3.3682 -0.3706
  190MOL0     H26164   5.945   4.394   4.264  0.5543  1.8692  0.6186
  190MOL0     H26165   5.751   4.607   4.207 -1.4343 -1.9595 -0.4635
  190MOL0     H26166   5.818   4.519   4.063 -0.6747  0.4187  0.0858
  190MOL0     H26167   6.050   4.578   4.142 -1.4891 -2.1002  2.1724
  190MOL0     H26168   5.962   4.716   4.098 -1.0823 -0.8193 -0.1694
  190MOL0     H26169   5.821   4.739   4.379  0.5077  0.7233 -0.6896
  190MOL0     H26170   6.022   4.796   4.727 -1.0596 -0.6484  1.5427
  190MOL0     H26171   5.852   4.759   4.686  0.7048 -2.5051 -0.5331
  190MOL0     H26172   5.955   5.010   4.726 -1.4284  1.6906 -1.4312
  190MOL0     H26173   5.988   4.992   4.556 -0.5442  2.7795 -0.1462
  190MOL0     H26174   5.746   4.942   4.520 -0.6585 -0.6771  0.7337
  190MOL0     H26175   5.715   4.960   4.682 -1.8010 -2.1456 -2.3858
  190MOL0     H26176   5.642   5.177   4.572 -0.2738 -0.7497  0.8893
  190MOL0     H26177   5.757   5.194   4.704 -2.5573  2.2657 -0.4734
  190MOL0     H26178   5.752   5.450   4.589  0.9285  2.9249  3.6640
  190MOL0     H26179   5.928   5.739   4.567 -1.1297 -0.3867 -0.3792
  190MOL0     H26180   5.928   5.712   4.749  0.4879 -0.1184 -0.1521
  190MOL0     H26181   5.784   5.672   4.655 -0.7584  0.4007 -1.7882
  190MOL0     H26182   6.471   5.678   4.485  1.1934  1.0368 -0.9731
  190MOL0     H26183   6.671   5.792   4.546  0.7682 -1.3477  1.7495
  190MOL0     H26184   6.719   6.190   4.685 -0.5578 -0.6199  0.0619
  190MOL0     H26185   6.643   6.143   4.846  0.7021  0.8910  0.3185
  190MOL0     H26186   6.875   6.238   4.857  2.7357  0.5473 -1.9124
  190MOL0     H26187   6.874   6.066   4.912  0.0835 -3.0069 -2.3733
  190MOL0     H26188   6.912   6.091   4.632 -2.6640  0.0346  0.5950
  190MOL0     H26189   6.982   5.985   4.760 -0.2211 -0.1878 -0.5523
  190MOL0     H26190   7.110   6.192   4.849 -0.2520  2.2199  0.1924
  190MOL0     H26191   7.041   6.280   4.728 -2.0229 -0.2952 -0.0829
  190MOL0     H26192   7.141   6.141   4.547  3.7356  0.5729 -1.7277
  190MOL0     H26193   7.261   6.225   4.648 -0.9362  1.1588 -1.6928
  190MOL0     H26194   7.192   5.935   4.687 -0.0595 -0.4214  0.8018
  190MOL0     H26195   7.330   6.032   4.750  1.4378 -1.8034 -0.2266
  190MOL0     H26196   7.411   6.077   4.535 -1.7732  1.3043  0.4940
  190MOL0     H26197   7.285   5.976   4.455 -0.9181 -1.3420  0.3590
  190MOL0     H26198   7.468   5.881   4.674 -2.1828  1.5283  0.2690
  190MOL0     H26199   7.525   5.852   4.507  1.4518 -2.3180  1.1397
  190MOL0     H26200   6.440   6.085   4.754 -1.0745 -0.8203  1.1866
  190MOL0     H26201   6.221   5.968   4.674 -0.3778  1.9638 -1.7337
  190MOL0     H26202   6.244   5.401   4.539 -0.4445 -0.4668 -0.3388
  190MOL0     H26203   6.091   5.219   4.492 -3.4985  0.0148 -1.1000
  190MOL0     H26204   5.919   3.820   4.427 -0.0059  1.1283 -0.4794
  190MOL0     H26205   6.093   3.688   4.393 -0.4734  1.4920  0.3190
  190MOL0     H26206   6.453   3.530   4.747 -1.5945 -0.4476 -1.1391
  190MOL0     H26207   6.650   3.422   4.836  0.9364  0.1882  0.5704
  190MOL0     H26208   6.783   3.211   4.768 -0.6013  1.4979 -1.2590
  190MOL0     H26209   6.948   3.197   4.767  0.2250 -0.0557  0.8597
  190MOL0     H26210   6.789   3.355   4.971 -1.8241 -1.9660 -3.0897
  190MOL0     H26211   6.958   3.382   4.963  3.2817 -1.9551 -1.2392
  190MOL0     H26212   6.806   3.128   5.048 -1.4347  3.1811  3.0597
  190MOL0     H26213   6.970   3.115   4.982 -0.2194 -1.0446  2.3560
  190MOL0     H26214   6.877   3.273   5.222 -0.5771  2.3901 -1.1797
  190MOL0     H26215   7.044   3.273   5.159 -0.9555  1.4231  1.2763
  190MOL0     H26216   7.025   2.913   5.389  0.9162 -1.4502 -0.7397
  190MOL0     H26217   6.851   3.498   4.458 -2.2162  0.0962 -2.6652
  190MOL0     H26218   6.689   3.705   4.329 -1.6702  0.9450  0.0180
  190MOL0     H26219   6.733   3.540   4.275  1.2144  1.0158 -0.9300
  190MOL0     H26220   6.562   3.584   4.280  0.4421  0.0132  0.3657
  191MOL0     O26221   8.341   1.282   2.281  0.4727 -0.1824 -0.0498
  191MOL0     C26222   8.351   1.262   2.401  0.2302 -0.6412 -0.1440
  191MOL0     O26223   8.456   1.295   2.474  0.0647 -0.1552  0.3766
  191MOL0     C26224   8.552   1.368   2.411 -1.1479 -0.1623 -0.2199
  191MOL0     C26225   8.581   1.502   2.444 -0.1229  0.5635  0.0899
  191MOL0     C26226   8.701   1.562   2.396 -0.8571  0.3786  0.4347
  191MOL0     C26227   8.794   1.490   2.313  0.5076 -0.1768 -0.2280
  191MOL0     O26228   8.906   1.557   2.255  0.1249 -0.3198  0.6726
  191MOL0     C26229   8.870   1.680   2.181 -0.4218 -0.0128 -0.2382
  191MOL0     C26230   9.010   1.752   2.164 -0.2659 -0.5786  0.7450
  191MOL0     C26231   8.988   1.901   2.191  0.0560  0.0286 -0.5252
  191MOL0     C26232   9.111   1.982   2.211 -0.0199  0.3816 -0.1760
  191MOL0     C26233   9.198   1.936   2.327  0.3205  0.0651 -0.7992
  191MOL0     C26234   9.325   2.020   2.336 -0.5663 -0.2035  0.9039
  191MOL0     C26235   9.408   1.982   2.459  0.1143 -1.2412  0.2143
  191MOL0     C26236   9.540   2.062   2.459  0.4682  0.0471 -0.1310
  191MOL0     N26237   9.641   1.975   2.526  0.2282 -0.2696  0.3796
  191MOL0     C26238   9.629   1.925   2.653  0.4198  0.3705  0.0849
  191MOL0     C26239   9.748   1.860   2.679  0.0567  1.1678  0.0129
  191MOL0     C26240   9.783   1.769   2.798  0.3480  0.3304 -0.1652
  191MOL0     C26241   9.787   1.860   2.929  0.1650  0.3070  0.1307
  191MOL0     C26242   9.810   1.790   3.062  0.1109 -0.0700 -0.5570
  191MOL0     C26243   9.947   1.740   3.082 -0.8539 -0.4182  0.7554
  191MOL0     O26244  10.030   1.854   3.073  0.1788 -0.3893 -0.4699
  191MOL0     C26245  10.171   1.844   3.053 -0.4429 -0.4842  0.3350
  191MOL0     C26246  10.238   1.963   3.045  0.0435  0.5485  0.2050
  191MOL0     C26247  10.376   1.963   3.045  0.5069 -0.3488  0.1682
  191MOL0     C26248  10.432   2.099   3.055  0.1025 -0.7625 -0.3114
  191MOL0     C26249  10.450   1.832   3.031 -0.3368 -0.1311  0.5587
  191MOL0     C26250  10.595   1.827   3.004 -0.5889 -0.0753 -0.6346
  191MOL0     O26251  10.638   1.709   2.944  0.0258 -0.4336  0.3115
  191MOL0     C26252  10.757   1.666   3.001 -0.8619  0.4713  0.5789
  191MOL0     C26253  10.785   1.650   3.138  0.2333  0.0676 -0.3402
  191MOL0     C26254  10.902   1.581   3.176 -0.0776 -0.0433 -0.7698
  191MOL0     C26255  11.000   1.548   3.080  0.1801  0.3203  0.2012
  191MOL0     O26256  11.112   1.496   3.131  0.1302 -0.6383 -0.3712
  191MOL0     C26257  11.219   1.447   3.045  0.4580  1.0502 -0.5205
  191MOL0     C26258  11.337   1.395   3.134 -0.0322 -0.0909  0.1959
  191MOL0     C26259  11.438   1.502   3.175 -0.1128 -0.4773 -0.4857
  191MOL0     C26260  11.559   1.528   3.085  0.5591 -0.5971 -0.3620
  191MOL0     C26261  11.666   1.622   3.147  0.2442  0.3972  0.9814
  191MOL0     C26262  11.619   1.764   3.181  0.4223 -0.0066 -0.4770
  191MOL0     C26263  11.720   1.824   3.283 -0.0922  0.0774 -0.3257
  191MOL0     C26264  11.658   1.950   3.347 -0.1824 -0.5055  0.2888
  191MOL0    Cl26265  11.776   2.014   3.457  0.7580 -0.1561  0.0488
  191MOL0     C26266  10.980   1.574   2.947 -0.4623  0.4493 -0.0918
  191MOL0     C26267  10.862   1.627   2.905 -0.1361 -0.6904  0.0399
  191MOL0     O26268  10.678   1.909   3.050  0.2399 -0.4498 -0.9085
  191MOL0     C26269  10.373   1.713   3.056  0.1112  0.3607  1.1440
  191MOL0     C26270  10.236   1.723   3.062  0.1661  0.7952 -0.7364
  191MOL0     N26271   9.827   1.885   2.573  0.2703 -0.7328 -0.2741
  191MOL0     N26272   9.766   1.958   2.485  0.8486 -0.5813  0.1577
  191MOL0     C26273   8.761   1.363   2.269  0.1840  1.4565 -0.2673
  191MOL0     C26274   8.643   1.301   2.320  0.0749 -0.3602 -0.4155
  191MOL0     C26275   8.239   1.204   2.482 -0.1644 -0.1495  0.6185
  191MOL0     C26276   8.257   1.186   2.621 -0.0319  0.4637 -0.0656
  191MOL0     C26277   8.151   1.135   2.703 -0.5008  0.4090  0.1455
  191MOL0     C26278   8.022   1.120   2.648  0.0712  1.4304 -0.4298
  191MOL0     O26279   7.920   1.073   2.714 -0.0939 -0.0624 -0.4711
  191MOL0     C26280   7.910   1.095   2.853 -0.5291 -0.2546  0.2194
  191MOL0     C26281   7.763   1.101   2.880 -0.0788 -0.1288  0.1347
  191MOL0     C26282   7.692   1.215   2.806  0.5413 -0.7311 -0.3281
  191MOL0     C26283   7.579   1.292   2.890 -0.5516 -0.3937  0.5231
  191MOL0     C26284   7.467   1.199   2.924  0.8536  0.8618 -0.1822
  191MOL0     C26285   7.363   1.141   2.954 -0.4588  0.3870  0.3086
  191MOL0     C26286   7.999   1.133   2.511  0.3700 -0.5809 -0.2583
  191MOL0     C26287   8.112   1.168   2.435  0.4614  0.1603  0.0797
  191MOL0     C26288   8.088   1.161   2.288 -0.6929 -0.6321 -0.7793
  191MOL0     H26289   8.509   1.553   2.506 -1.4499  1.2095 -1.8854
  191MOL0     H26290   8.723   1.665   2.425 -1.0120  0.4830  0.1868
  191MOL0     H26291   8.799   1.749   2.226 -0.7518  0.1763 -1.0402
  191MOL0     H26292   8.820   1.663   2.085 -0.2387  1.6861 -0.6594
  191MOL0     H26293   9.083   1.718   2.238 -1.1164 -1.2398  1.3117
  191MOL0     H26294   9.057   1.740   2.067  5.1796  0.5724  2.8955
  191MOL0     H26295   8.934   1.950   2.108 -1.0054  3.5775  2.0106
  191MOL0     H26296   8.926   1.916   2.279  0.5272 -2.1679  0.2255
  191MOL0     H26297   9.173   1.982   2.121  2.1436  1.2720  1.2395
  191MOL0     H26298   9.064   2.081   2.220 -2.8243 -0.4178 -3.6010
  191MOL0     H26299   9.230   1.832   2.320 -0.0574 -0.3460  2.1574
  191MOL0     H26300   9.147   1.943   2.424  3.3851  0.7043  0.9211
  191MOL0     H26301   9.389   2.005   2.248 -1.0577 -0.0108  0.5113
  191MOL0     H26302   9.297   2.125   2.339  1.9763  0.5359  1.0731
  191MOL0     H26303   9.419   1.873   2.451 -1.1160 -1.3924  0.3453
  191MOL0     H26304   9.347   2.014   2.544  2.7201  0.7523  1.4541
  191MOL0     H26305   9.580   2.069   2.357  1.0837  0.8104  0.1574
  191MOL0     H26306   9.519   2.161   2.499  1.6355 -0.8950  3.1238
  191MOL0     H26307   9.540   1.928   2.715  0.0691  0.6636 -0.4327
  191MOL0     H26308   9.886   1.738   2.776  0.2666 -0.7543  0.9082
  191MOL0     H26309   9.721   1.680   2.804  0.9171 -0.1068 -0.6211
  191MOL0     H26310   9.859   1.940   2.913  1.2413 -1.3131 -4.7926
  191MOL0     H26311   9.688   1.906   2.934 -0.2946 -0.5622 -0.6271
  191MOL0     H26312   9.789   1.849   3.151 -0.3082 -2.5591  1.0942
  191MOL0     H26313   9.736   1.710   3.064  1.4520 -1.3259  1.0376
  191MOL0     H26314   9.952   1.679   3.172 -0.6079  2.0099  2.4802
  191MOL0     H26315   9.972   1.681   2.993  0.3754  1.4516 -0.2132
  191MOL0     H26316  10.180   2.051   3.070 -3.6044 -1.8024  0.9051
  191MOL0     H26317  10.532   2.098   3.009 -0.7031  0.2323 -2.1801
  191MOL0     H26318  10.441   2.137   3.157 -2.8638  0.2683 -0.3581
  191MOL0     H26319  10.370   2.176   3.008 -1.3096 -0.5672  1.7452
  191MOL0     H26320  10.714   1.679   3.215  1.6871  1.0096  0.6930
  191MOL0     H26321  10.919   1.561   3.281 -2.2664 -3.1547 -0.8565
  191MOL0     H26322  11.173   1.367   2.985 -0.1181  0.6131  0.4855
  191MOL0     H26323  11.260   1.526   2.981 -0.9093  2.2506  0.0296
  191MOL0     H26324  11.295   1.344   3.221 -0.0021 -0.6022 -0.0811
  191MOL0     H26325  11.401   1.322   3.082 -0.1055 -0.0406  0.0336
  191MOL0     H26326  11.482   1.478   3.273 -0.5983  0.6603  0.0198
  191MOL0     H26327  11.377   1.590   3.191  1.2566  0.3858  0.2400
  191MOL0     H26328  11.524   1.568   2.989 -0.5752 -0.7758 -0.0405
  191MOL0     H26329  11.606   1.431   3.072  1.9938 -0.3819  2.5737
  191MOL0     H26330  11.707   1.568   3.233 -0.4491  0.9285  1.6603
  191MOL0     H26331  11.748   1.632   3.075 -0.4390  0.6066  0.2221
  191MOL0     H26332  11.525   1.745   3.233  1.1982 -0.6709  0.7445
  191MOL0     H26333  11.600   1.832   3.098  1.0127  0.1248 -0.5072
  191MOL0     H26334  11.813   1.845   3.231  0.8207 -0.1909  1.1485
  191MOL0     H26335  11.741   1.755   3.365  0.5219  0.8277  0.1582
  191MOL0     H26336  11.563   1.919   3.391 -0.7935  0.2124 -0.4768
  191MOL0     H26337  11.630   2.020   3.267 -2.2889 -0.6100  0.8770
  191MOL0     H26338  11.055   1.553   2.872 -3.5511 -2.0679 -2.7710
  191MOL0     H26339  10.843   1.650   2.801 -1.7935  0.9662  0.6581
  191MOL0     H26340  10.409   1.612   3.069  1.6117  0.7331  0.1665
  191MOL0     H26341  10.185   1.627   3.052 -0.7461  1.3311 -1.3724
  191MOL0     H26342   8.823   1.321   2.190  1.4911 -0.0860  1.4776
  191MOL0     H26343   8.630   1.196   2.293  3.4574 -1.3673  1.2243
  191MOL0     H26344   8.356   1.206   2.661  0.9642 -2.9878 -0.5333
  191MOL0     H26345   8.167   1.117   2.809 -2.3051 -3.1847 -0.0107
  191MOL0     H26346   7.960   1.017   2.911  0.9164 -1.2639 -2.2230
  191MOL0     H26347   7.964   1.185   2.882  0.2392 -0.7119  0.2527
  191MOL0     H26348   7.737   1.106   2.986  0.7091  0.7489  0.2892
  191MOL0     H26349   7.723   1.006   2.842  0.3975 -0.3369  0.1463
  191MOL0     H26350   7.754   1.297   2.768 -0.7464 -0.3163 -1.6475
  191MOL0     H26351   7.650   1.178   2.712 -1.9044  0.5998  0.1440
  191MOL0     H26352   7.538   1.368   2.823  1.3567  1.0083  0.8309
  191MOL0     H26353   7.622   1.345   2.976 -2.1796  0.0227  1.1040
  191MOL0     H26354   7.271   1.099   2.989 -0.6063  1.0443  0.7342
  191MOL0     H26355   7.900   1.121   2.471 -0.2685  0.5925  0.8723
  191MOL0     H26356   8.076   1.258   2.239  1.7027 -0.8850 -2.0426
  191MOL0     H26357   8.176   1.116   2.240  0.3959 -0.4648  0.9537
  191MOL0     H26358   8.009   1.093   2.256 -1.9625  1.3128 -2.0198
  192MOL0     O26359   9.647   4.257   0.317  0.5423  0.6692 -0.6909
  192MOL0     C26360   9.615   4.373   0.334 -0.4041 -1.5339 -0.7669
  192MOL0     O26361   9.696   4.463   0.401 -0.4972  0.5801  0.2805
  192MOL0     C26362   9.823   4.445   0.450 -0.6422  0.3579  0.1313
  192MOL0     C26363   9.860   4.546   0.537  0.1600  0.3391 -0.3546
  192MOL0     C26364   9.988   4.555   0.584  0.6629 -0.0309  0.4278
  192MOL0     C26365  10.084   4.463   0.556 -0.5266 -0.1051 -0.4509
  192MOL0     O26366  10.210   4.476   0.615 -0.0175  0.1651  0.3655
  192MOL0     C26367  10.313   4.384   0.599  0.6543  0.7806  0.9779
  192MOL0     C26368  10.383   4.405   0.463  0.0255  0.0430 -0.0026
  192MOL0     C26369  10.497   4.290   0.427  0.7250 -0.5855 -0.5304
  192MOL0     C26370  10.550   4.306   0.290  0.7732  0.1762  0.7239
  192MOL0     C26371  10.700   4.275   0.271 -0.2893  0.1842 -0.7921
  192MOL0     C26372  10.747   4.309   0.132  0.7330 -0.1200  1.2605
  192MOL0     C26373  10.896   4.300   0.105  0.6627  0.3075 -0.0332
  192MOL0     C26374  10.973   4.418   0.167  0.0090  0.4137  0.6352
  192MOL0     N26375  11.116   4.424   0.120 -0.3636 -0.1663  0.2856
  192MOL0     C26376  11.221   4.475   0.199  0.6717 -0.5804 -0.4873
  192MOL0     C26377  11.329   4.456   0.122  0.3195 -0.8864 -0.5882
  192MOL0     C26378  11.470   4.496   0.159 -0.4705 -0.9677 -0.2393
  192MOL0     C26379  11.536   4.380   0.239 -0.0573 -0.4028 -0.3563
  192MOL0     C26380  11.674   4.424   0.285  0.3576 -0.4790 -0.6616
  192MOL0     C26381  11.767   4.441   0.161  0.1102 -0.5276  0.1231
  192MOL0     O26382  11.906   4.405   0.194  0.1001  0.2587  0.2851
  192MOL0     C26383  11.958   4.279   0.161  0.0666 -0.5963 -0.2854
  192MOL0     C26384  11.883   4.175   0.115  0.1519 -0.0963 -0.7556
  192MOL0     C26385  11.946   4.047   0.075  0.5517  0.0224 -0.2480
  192MOL0     C26386  11.853   3.945   0.030 -0.2071  0.7312  0.4923
  192MOL0     C26387  12.082   4.039   0.085 -0.2049  0.9524 -0.0323
  192MOL0     C26388  12.160   3.909   0.043  0.1345  0.6783 -0.3291
  192MOL0     O26389  12.282   3.900   0.103 -0.1382  0.3957  0.5166
  192MOL0     C26390  12.362   3.794   0.072  0.0814 -0.0865  0.2884
  192MOL0     C26391  12.492   3.817   0.019 -1.0724  0.4970  0.2946
  192MOL0     C26392  12.578   3.710  -0.003 -0.4284 -0.0398  0.2024
  192MOL0     C26393  12.540   3.579   0.026  0.5972  1.2123  0.4480
  192MOL0     O26394  12.633   3.475   0.015  0.4126  0.1904  0.2476
  192MOL0     C26395  12.626   3.368   0.110  1.3863  0.1540 -0.3607
  192MOL0     C26396  12.763   3.301   0.121 -0.0209  0.4507 -0.4902
  192MOL0     C26397  12.798   3.217  -0.006  0.3042  0.4971  0.2862
  192MOL0     C26398  12.942   3.168  -0.000  0.6865 -0.0429 -1.0084
  192MOL0     C26399  12.988   3.083  -0.113 -0.6231  0.2135  0.6730
  192MOL0     C26400  12.932   2.939  -0.103 -0.5536 -0.0823  0.3959
  192MOL0     C26401  13.025   2.844  -0.175 -0.5418  0.4287 -0.3608
  192MOL0     C26402  12.955   2.716  -0.207 -0.1863 -0.2291  0.3473
  192MOL0    Cl26403  12.960   2.620  -0.049 -0.1977  0.0909 -0.0139
  192MOL0     C26404  12.410   3.559   0.065 -0.5146  0.6787 -0.0048
  192MOL0     C26405  12.322   3.661   0.093  0.4062  0.2892  0.4041
  192MOL0     O26406  12.106   3.824  -0.028 -0.6781 -0.2985 -0.1641
  192MOL0     C26407  12.157   4.137   0.131 -0.1699 -0.1204 -0.1667
  192MOL0     C26408  12.098   4.262   0.172  0.2279  0.0855  0.6177
  192MOL0     N26409  11.289   4.433  -0.009  0.6591  0.8402 -0.3360
  192MOL0     N26410  11.159   4.401  -0.004  0.6286  0.0953 -0.5348
  192MOL0     C26411  10.048   4.357   0.467 -0.0966  0.1325  0.3797
  192MOL0     C26412   9.920   4.347   0.415  0.2762 -0.3863  0.3111
  192MOL0     C26413   9.485   4.426   0.278 -0.5058 -0.6466  0.3014
  192MOL0     C26414   9.373   4.340   0.259 -0.2374 -0.2289 -0.7846
  192MOL0     C26415   9.254   4.392   0.195  0.0796  0.8613 -0.1456
  192MOL0     C26416   9.238   4.527   0.170 -0.8710  0.0416  0.1037
  192MOL0     O26417   9.111   4.580   0.129  0.9211 -0.4976  0.2825
  192MOL0     C26418   8.993   4.496   0.107 -0.6108  0.5406  0.0248
  192MOL0     C26419   8.881   4.588   0.063 -0.2512  0.8045 -0.2420
  192MOL0     C26420   8.744   4.525   0.084  0.5496 -0.0017  0.3022
  192MOL0     C26421   8.624   4.618   0.027 -0.7584 -0.4868 -1.0270
  192MOL0     C26422   8.485   4.578   0.067  0.4221 -0.8843  0.0263
  192MOL0     C26423   8.367   4.548   0.099  0.3473 -0.4377  0.1493
  192MOL0     C26424   9.349   4.603   0.184  0.2905 -0.4546  0.8768
  192MOL0     C26425   9.474   4.558   0.226 -0.4869  0.7023  0.3180
  192MOL0     C26426   9.588   4.656   0.222  0.3871  0.2498 -0.2356
  192MOL0     H26427   9.788   4.628   0.540  0.5328  0.7695 -2.1615
  192MOL0     H26428  10.008   4.634   0.656  0.5560  3.2944 -2.8740
  192MOL0     H26429  10.280   4.282   0.620  0.4594  0.6007 -0.1034
  192MOL0     H26430  10.367   4.421   0.686 -0.0447  0.9643  1.3455
  192MOL0     H26431  10.308   4.399   0.383  0.8831  0.3210 -0.8578
  192MOL0     H26432  10.419   4.508   0.452 -1.6566  0.6989  0.3225
  192MOL0     H26433  10.585   4.305   0.491  1.0378 -1.0073 -0.8516
  192MOL0     H26434  10.461   4.188   0.445  3.4424 -1.5497  0.0705
  192MOL0     H26435  10.497   4.242   0.218  1.9705  0.0223 -0.0417
  192MOL0     H26436  10.524   4.410   0.270 -1.7482 -0.6183 -0.7219
  192MOL0     H26437  10.709   4.170   0.300  0.4181  0.1853 -0.9905
  192MOL0     H26438  10.758   4.335   0.342  0.7911  0.8101 -2.1550
  192MOL0     H26439  10.697   4.246   0.057  2.4371  2.2766 -2.1368
  192MOL0     H26440  10.726   4.414   0.110 -3.0148 -0.9975 -0.1855
  192MOL0     H26441  10.917   4.299  -0.002 -4.0984  0.1487 -1.1505
  192MOL0     H26442  10.933   4.206   0.146 -1.1325 -0.9686 -1.1915
  192MOL0     H26443  10.918   4.510   0.141 -1.9123 -0.2196  2.2040
  192MOL0     H26444  10.957   4.421   0.275 -1.8274 -2.2595  0.5286
  192MOL0     H26445  11.206   4.506   0.302 -2.5216 -0.6486 -0.8092
  192MOL0     H26446  11.470   4.585   0.223 -1.2881 -1.0331 -0.1473
  192MOL0     H26447  11.518   4.514   0.062  2.0360  0.2192  1.1043
  192MOL0     H26448  11.491   4.336   0.329  4.6487 -3.1721  1.0098
  192MOL0     H26449  11.547   4.293   0.174  0.6552 -0.4506 -0.1761
  192MOL0     H26450  11.672   4.515   0.346  2.7741 -1.5501  1.2073
  192MOL0     H26451  11.713   4.345   0.350 -3.1567 -1.5589  0.4039
  192MOL0     H26452  11.737   4.389   0.070  3.1985 -2.0896 -0.1510
  192MOL0     H26453  11.762   4.548   0.139  1.1395 -0.2807  0.9657
  192MOL0     H26454  11.774   4.176   0.114  0.0133 -3.1402  0.4708
  192MOL0     H26455  11.869   3.846   0.074  0.6049  0.8932  0.5881
  192MOL0     H26456  11.865   3.920  -0.076  4.3353 -0.1313  0.9893
  192MOL0     H26457  11.750   3.978   0.041 -0.3545  0.2912  0.4511
  192MOL0     H26458  12.523   3.920   0.001 -0.1118  0.0743 -0.5439
  192MOL0     H26459  12.680   3.726  -0.037 -1.3271  1.5212 -2.0619
  192MOL0     H26460  12.608   3.410   0.209  0.2618  1.3925 -1.0505
  192MOL0     H26461  12.541   3.309   0.075 -0.2621  2.1126  0.1206
  192MOL0     H26462  12.830   3.387   0.125 -1.2154  1.4251 -0.7471
  192MOL0     H26463  12.765   3.229   0.204 -0.4226  1.1763  0.1695
  192MOL0     H26464  12.773   3.274  -0.096  0.4309 -0.0963 -0.1330
  192MOL0     H26465  12.733   3.131  -0.021  0.4474  0.5216 -0.5228
  192MOL0     H26466  12.960   3.125   0.099  0.7034  0.0826 -0.9572
  192MOL0     H26467  13.005   3.257   0.002  0.7936 -0.0955  1.9075
  192MOL0     H26468  12.963   3.134  -0.206  0.3916  0.8651  0.7398
  192MOL0     H26469  13.097   3.078  -0.107 -0.5538  0.5060 -0.2551
  192MOL0     H26470  12.829   2.937  -0.139 -0.2936 -0.9396 -0.3095
  192MOL0     H26471  12.917   2.900  -0.002  0.2990 -2.6165 -0.3997
  192MOL0     H26472  13.115   2.833  -0.114 -0.7597  0.9586  0.0595
  192MOL0     H26473  13.047   2.891  -0.271 -0.2689  1.2488  0.0930
  192MOL0     H26474  13.013   2.669  -0.287 -1.1871  0.6772 -0.9603
  192MOL0     H26475  12.853   2.742  -0.236 -0.4164  0.0144  1.3462
  192MOL0     H26476  12.375   3.458   0.083  2.1748 -0.0063  2.1172
  192MOL0     H26477  12.226   3.634   0.136  1.8340 -1.4961  2.6376
  192MOL0     H26478  12.265   4.124   0.124 -0.5680 -3.2066 -2.8776
  192MOL0     H26479  12.168   4.345   0.181  0.3718  0.3503 -2.1528
  192MOL0     H26480  10.121   4.282   0.439 -1.9184 -1.8178  0.5805
  192MOL0     H26481   9.890   4.260   0.357 -3.3313 -0.3117  1.7469
  192MOL0     H26482   9.377   4.234   0.285 -1.7193 -0.8048 -2.6677
  192MOL0     H26483   9.172   4.322   0.181 -0.9853  2.5478 -3.1220
  192MOL0     H26484   9.012   4.424   0.027  1.8893  0.6863  0.3904
  192MOL0     H26485   8.968   4.445   0.200  0.2171 -0.4504 -0.2789
  192MOL0     H26486   8.899   4.594  -0.045  0.5051  3.9127 -0.0541
  192MOL0     H26487   8.888   4.693   0.096 -2.5428  1.0965 -0.5763
  192MOL0     H26488   8.734   4.442   0.014 -0.6544 -1.2061  1.8399
  192MOL0     H26489   8.726   4.494   0.187 -2.3747  3.0068  0.8913
  192MOL0     H26490   8.633   4.613  -0.082  0.6661 -0.4903 -0.9240
  192MOL0     H26491   8.642   4.720   0.061  1.0123 -0.2363 -2.5551
  192MOL0     H26492   8.270   4.528   0.138  0.9995  0.7856  2.6227
  192MOL0     H26493   9.318   4.706   0.168 -1.9206 -1.2599 -0.5746
  192MOL0     H26494   9.610   4.702   0.319  0.5442 -3.5122  1.7173
  192MOL0     H26495   9.680   4.610   0.184 -0.4782 -2.0970  0.3487
  192MOL0     H26496   9.561   4.745   0.164  4.8939  1.5253 -0.7826
  193MOL0     O26497   7.223   5.100   9.965  0.7425 -0.0981 -0.6479
  193MOL0     C26498   7.247   4.995   9.901  0.0846 -0.2130 -0.0919
  193MOL0     O26499   7.161   4.892   9.872 -0.1100 -0.5124 -0.6642
  193MOL0     C26500   7.032   4.909   9.893 -0.0499 -0.4017  0.1924
  193MOL0     C26501   6.955   5.025   9.869 -0.1304 -1.0895 -0.2017
  193MOL0     C26502   6.824   5.037   9.905  0.3467 -0.0501  0.4180
  193MOL0     C26503   6.757   4.931   9.965 -0.6076  0.5769 -0.7395
  193MOL0     O26504   6.619   4.915   9.992  1.0209  0.4245  0.2771
  193MOL0     C26505   6.522   4.996   9.934  0.5075  0.3877 -0.2681
  193MOL0     C26506   6.383   4.986  10.002 -0.3605  0.0861  0.5546
  193MOL0     C26507   6.283   5.074   9.934  0.1332  0.4406 -0.2561
  193MOL0     C26508   6.137   5.032   9.963 -0.4150  0.6850 -0.8579
  193MOL0     C26509   6.037   5.113   9.881  0.1886  1.0227 -0.2074
  193MOL0     C26510   5.888   5.054   9.885 -0.1655 -0.3548  0.1168
  193MOL0     C26511   5.829   5.019  10.021 -0.0221  0.8221  0.1515
  193MOL0     C26512   5.726   4.900  10.019 -0.1306 -0.7531  0.1796
  193MOL0     N26513   5.807   4.775  10.009 -0.3646  0.0769  0.4296
  193MOL0     C26514   5.874   4.710  10.105  0.1660  0.4425  0.4089
  193MOL0     C26515   5.951   4.616  10.046 -0.5011 -0.1050  0.4664
  193MOL0     C26516   6.047   4.519  10.099 -0.0685  0.9021  0.1912
  193MOL0     C26517   6.190   4.564  10.060  0.2044  0.2706 -0.4271
  193MOL0     C26518   6.221   4.522   9.918 -0.0124 -0.4985  0.2278
  193MOL0     C26519   6.356   4.574   9.874 -0.8971  0.4481  1.0407
  193MOL0     O26520   6.465   4.529   9.951 -0.2246 -0.0427  0.9594
  193MOL0     C26521   6.585   4.528   9.890  0.1629 -0.1653 -0.5342
  193MOL0     C26522   6.692   4.462   9.955  0.2969  0.1304 -0.5458
  193MOL0     C26523   6.815   4.444   9.889  0.1178 -0.3265  0.4415
  193MOL0     C26524   6.919   4.358   9.952 -0.6609  0.5962 -0.6850
  193MOL0     C26525   6.845   4.510   9.769  0.7445 -0.0195  0.3686
  193MOL0     C26526   6.970   4.494   9.684  0.0108 -0.2036  0.4313
  193MOL0     O26527   7.091   4.495   9.747  0.3272 -0.1829 -1.4073
  193MOL0     C26528   7.217   4.488   9.695 -0.4012 -0.4912  0.7486
  193MOL0     C26529   7.246   4.484   9.560 -0.4833 -1.0490 -0.2503
  193MOL0     C26530   7.376   4.478   9.512  0.0644  0.5799 -0.2965
  193MOL0     C26531   7.486   4.476   9.603  0.0669  0.2007 -0.4658
  193MOL0     O26532   7.618   4.459   9.566  0.0547  0.1730 -0.2269
  193MOL0     C26533   7.673   4.329   9.576 -0.1392  0.2341  0.3367
  193MOL0     C26534   7.794   4.325   9.479 -0.0250  0.1317  0.1956
  193MOL0     C26535   7.776   4.396   9.348  0.4446  0.7184  0.4877
  193MOL0     C26536   7.904   4.416   9.267 -0.0761  0.0679  0.4108
  193MOL0     C26537   7.869   4.479   9.128  0.7584  0.2550 -0.2653
  193MOL0     C26538   7.992   4.506   9.041  0.4139 -0.1067  0.9134
  193MOL0     C26539   8.046   4.647   9.043 -0.6934  0.1031 -0.1369
  193MOL0     C26540   8.161   4.674   8.953 -0.3186  0.5726  0.5300
  193MOL0    Cl26541   8.117   4.685   8.776 -0.3196 -0.0176  0.0515
  193MOL0     C26542   7.449   4.476   9.738 -0.3908  1.4879 -0.3715
  193MOL0     C26543   7.319   4.483   9.784  0.7198  1.0463  0.8544
  193MOL0     O26544   6.951   4.482   9.561  0.0219 -0.8377  0.5771
  193MOL0     C26545   6.747   4.597   9.720 -0.2778 -1.4587  0.0669
  193MOL0     C26546   6.624   4.605   9.775  0.2501 -0.2815  0.1158
  193MOL0     N26547   5.918   4.629   9.908 -0.2804 -0.3658 -0.3802
  193MOL0     N26548   5.834   4.722   9.886  0.0856 -0.1953  0.3029
  193MOL0     C26549   6.829   4.816   9.983  0.1112  0.1492 -0.1007
  193MOL0     C26550   6.969   4.802   9.957  0.0682  0.0456  0.2051
  193MOL0     C26551   7.389   4.969   9.857 -0.0476 -0.5259 -0.0885
  193MOL0     C26552   7.429   4.841   9.806 -0.2197  1.1772 -0.3181
  193MOL0     C26553   7.540   4.814   9.727 -0.0879 -0.8491 -0.3249
  193MOL0     C26554   7.637   4.920   9.702  1.1932 -0.2382  0.0334
  193MOL0     O26555   7.759   4.910   9.638  0.4794  0.1159  0.1062
  193MOL0     C26556   7.790   4.787   9.582 -0.2652  0.4796 -0.3101
  193MOL0     C26557   7.923   4.803   9.506 -0.5456 -0.3335 -0.0168
  193MOL0     C26558   8.037   4.739   9.586 -0.6278 -0.6398  0.0321
  193MOL0     C26559   8.085   4.827   9.701  0.0424  0.1793 -0.1516
  193MOL0     C26560   8.217   4.788   9.752  0.1168  0.5179  0.4071
  193MOL0     C26561   8.328   4.771   9.805 -0.4626  0.6555  0.3278
  193MOL0     C26562   7.610   5.045   9.763  0.6815  0.4944  0.2840
  193MOL0     C26563   7.489   5.075   9.834  0.7120  1.3167  0.5025
  193MOL0     C26564   7.469   5.219   9.868  0.5464  1.1818 -0.7507
  193MOL0     H26565   7.001   5.108   9.816  2.4540 -0.8027  2.2012
  193MOL0     H26566   6.773   5.133   9.902 -0.5582 -0.3032  3.8136
  193MOL0     H26567   6.523   4.953   9.833 -0.4333 -2.6018  0.9050
  193MOL0     H26568   6.560   5.098   9.930 -0.8963  1.1488  2.8914
  193MOL0     H26569   6.353   4.881  10.001 -2.7381  0.7129  0.8421
  193MOL0     H26570   6.399   5.032  10.100  1.3867  1.5757 -0.3545
  193MOL0     H26571   6.298   5.180   9.960  0.4720  0.4503 -0.4915
  193MOL0     H26572   6.299   5.071   9.826 -0.1340  1.8973 -0.3648
  193MOL0     H26573   6.124   4.928   9.933  2.6115  0.1738 -0.7148
  193MOL0     H26574   6.128   5.052  10.071 -1.0974  3.3212 -1.3263
  193MOL0     H26575   6.063   5.120   9.775 -0.6444 -0.6242 -0.5528
  193MOL0     H26576   6.038   5.212   9.927  0.1781  0.2198  1.6356
  193MOL0     H26577   5.833   5.138   9.842  1.0176 -0.0489 -0.8746
  193MOL0     H26578   5.883   4.966   9.820 -0.8951 -0.6393  0.5527
  193MOL0     H26579   5.766   5.099  10.060 -2.4525 -1.5583  1.4081
  193MOL0     H26580   5.906   4.996  10.095  0.6139 -0.7739 -0.9624
  193MOL0     H26581   5.671   4.901  10.113  1.8235  0.0485  1.3612
  193MOL0     H26582   5.665   4.914   9.929  2.1326 -0.6917 -1.4222
  193MOL0     H26583   5.884   4.725  10.212  2.6903  0.7481  0.1769
  193MOL0     H26584   6.008   4.430  10.048 -2.7851  1.4148  1.1947
  193MOL0     H26585   6.037   4.521  10.208  5.5558  2.0273  0.9921
  193MOL0     H26586   6.200   4.671  10.081  4.0323 -0.3076  1.6326
  193MOL0     H26587   6.258   4.517  10.131  0.0993  1.3334  0.4062
  193MOL0     H26588   6.215   4.413   9.917 -0.9261 -0.4628  0.4303
  193MOL0     H26589   6.149   4.571   9.851 -1.0582 -0.9906  0.9570
  193MOL0     H26590   6.363   4.543   9.770 -2.4373  1.1422  0.7094
  193MOL0     H26591   6.356   4.683   9.879  1.9871  0.4781  2.6024
  193MOL0     H26592   6.668   4.426  10.055  0.1361 -1.1394 -1.0287
  193MOL0     H26593   6.930   4.258   9.909  2.4246  0.5779 -0.1204
  193MOL0     H26594   6.889   4.347  10.057  2.7923 -0.0079  0.3858
  193MOL0     H26595   7.019   4.401   9.960  0.8393 -2.3733 -1.8247
  193MOL0     H26596   7.166   4.508   9.489 -0.3469 -1.0898 -0.4189
  193MOL0     H26597   7.399   4.487   9.406  1.0254  1.1100 -0.0551
  193MOL0     H26598   7.711   4.295   9.673 -0.9539 -0.7016  0.3373
  193MOL0     H26599   7.609   4.245   9.548  2.4590 -2.0650  0.7929
  193MOL0     H26600   7.877   4.379   9.524  1.2777 -0.3659 -1.4859
  193MOL0     H26601   7.817   4.220   9.460 -3.3993 -0.6016 -0.4239
  193MOL0     H26602   7.728   4.493   9.359 -0.5872  0.2025  0.6733
  193MOL0     H26603   7.704   4.330   9.297  0.8295  0.9946 -0.4347
  193MOL0     H26604   7.952   4.318   9.259  0.6956  0.4322  0.4951
  193MOL0     H26605   7.973   4.476   9.327  2.4150 -1.8471 -0.3420
  193MOL0     H26606   7.798   4.412   9.080  0.5232 -1.0980  1.8206
  193MOL0     H26607   7.818   4.576   9.136 -0.0900  0.0515 -2.5750
  193MOL0     H26608   7.972   4.474   8.939 -2.2388 -2.1000  1.9210
  193MOL0     H26609   8.069   4.433   9.068  1.4463  0.7286  0.2779
  193MOL0     H26610   8.070   4.679   9.145 -0.4903  1.7052 -0.6520
  193MOL0     H26611   7.960   4.703   9.004 -0.0927 -1.5777 -4.4092
  193MOL0     H26612   8.233   4.592   8.956  0.4456  0.9284 -2.9759
  193MOL0     H26613   8.201   4.771   8.986  1.4166  0.3020 -0.6603
  193MOL0     H26614   7.523   4.455   9.814  1.2667 -0.6402 -2.4057
  193MOL0     H26615   7.298   4.480   9.891 -2.6050 -0.7664  0.2929
  193MOL0     H26616   6.776   4.643   9.626  1.6959 -0.9188  0.8918
  193MOL0     H26617   6.552   4.679   9.743  1.9145  1.5820  0.4677
  193MOL0     H26618   6.785   4.726  10.025  1.1421 -0.9591 -1.2992
  193MOL0     H26619   7.020   4.706   9.962  1.8129  0.9271  0.1694
  193MOL0     H26620   7.372   4.751   9.828  3.0656 -0.9935  0.0794
  193MOL0     H26621   7.576   4.715   9.700  3.3691  0.2493 -0.2612
  193MOL0     H26622   7.798   4.721   9.669 -2.2097  0.8805  0.2187
  193MOL0     H26623   7.708   4.760   9.516 -1.3279 -0.3657  1.2846
  193MOL0     H26624   7.940   4.911   9.498 -1.1705 -0.3538 -1.8323
  193MOL0     H26625   7.917   4.751   9.411 -0.2541  1.2535 -0.9362
  193MOL0     H26626   8.011   4.642   9.628 -1.0926 -1.1876 -1.4448
  193MOL0     H26627   8.116   4.730   9.510 -0.9540  0.7053 -0.5076
  193MOL0     H26628   8.017   4.831   9.787  0.3077 -1.2856  0.1577
  193MOL0     H26629   8.105   4.929   9.668  1.5288 -0.1598 -0.3719
  193MOL0     H26630   8.405   4.757   9.880 -1.0129  2.9507  1.4299
  193MOL0     H26631   7.687   5.119   9.747  1.2920 -0.0993  0.4017
  193MOL0     H26632   7.444   5.223   9.975  4.1902 -1.8351  0.4542
  193MOL0     H26633   7.559   5.280   9.866 -0.2266  2.4303  0.4689
  193MOL0     H26634   7.404   5.268   9.794  0.4397 -2.3406 -3.2449
  194MOL0     O26635   5.970   9.977   3.712 -0.5341 -0.7758 -0.7166
  194MOL0     C26636   6.014  10.076   3.642  0.0982  0.3288  0.5188
  194MOL0     O26637   5.955  10.121   3.525 -0.1083  0.4695 -0.1279
  194MOL0     C26638   5.830  10.061   3.484  0.4361 -0.1951 -0.6325
  194MOL0     C26639   5.811  10.043   3.344  0.1228  0.2562  0.7463
  194MOL0     C26640   5.699   9.982   3.294 -0.2964  0.0941  0.0842
  194MOL0     C26641   5.589   9.960   3.373 -0.3875  0.1653  0.2021
  194MOL0     O26642   5.462   9.911   3.329 -0.1411 -0.0277 -0.0722
  194MOL0     C26643   5.473   9.813   3.218 -0.1725 -0.1661 -0.6095
  194MOL0     C26644   5.354   9.713   3.221 -0.0775 -0.2762 -1.2010
  194MOL0     C26645   5.213   9.763   3.249  0.0297 -0.1516  0.3119
  194MOL0     C26646   5.113   9.651   3.215  0.0227  0.0949  0.7254
  194MOL0     C26647   4.971   9.702   3.252 -0.1269 -1.0419 -0.1767
  194MOL0     C26648   4.852   9.629   3.190  0.0494 -0.6579  0.8938
  194MOL0     C26649   4.832   9.493   3.262  0.2883  0.1978  0.5284
  194MOL0     C26650   4.719   9.401   3.203 -0.4745  0.4067 -1.0099
  194MOL0     N26651   4.582   9.442   3.230 -0.4105  0.5710 -1.0906
  194MOL0     C26652   4.516   9.549   3.180  0.3361  0.5610 -0.3037
  194MOL0     C26653   4.394   9.550   3.243 -0.2117  0.1914  0.6376
  194MOL0     C26654   4.288   9.651   3.231 -0.0793  0.2157 -0.0368
  194MOL0     C26655   4.337   9.792   3.270 -0.1926 -0.4413  1.0473
  194MOL0     C26656   4.375   9.790   3.423  0.8927  0.0954 -0.5467
  194MOL0     C26657   4.523   9.795   3.438 -0.2632  0.3003  0.0701
  194MOL0     O26658   4.546   9.822   3.578  0.1258 -0.0406  0.0909
  194MOL0     C26659   4.664   9.872   3.627  0.6348 -0.3283 -0.2490
  194MOL0     C26660   4.675   9.869   3.767  0.2856  1.0609 -0.6248
  194MOL0     C26661   4.793   9.905   3.836  0.1322  0.0087  0.2067
  194MOL0     C26662   4.805   9.873   3.985  0.6680 -0.5844  0.0635
  194MOL0     C26663   4.897   9.952   3.753  0.1288  0.9142  0.5993
  194MOL0     C26664   5.019   9.997   3.809 -0.3513  0.1790  0.4407
  194MOL0     O26665   5.133   9.962   3.743  0.0992  0.9531 -0.0153
  194MOL0     C26666   5.249  10.032   3.775 -0.7362 -0.2709  0.6135
  194MOL0     C26667   5.294  10.102   3.663 -0.2520 -0.1279 -0.4912
  194MOL0     C26668   5.407  10.195   3.679 -0.0179  0.7443  0.4080
  194MOL0     C26669   5.468  10.212   3.806 -0.3702  0.1955  0.6999
  194MOL0     O26670   5.563  10.313   3.806  0.1636 -0.2118 -0.2858
  194MOL0     C26671   5.555  10.399   3.923 -0.2981  0.3727 -0.2798
  194MOL0     C26672   5.655  10.521   3.911  0.1997 -0.4112 -0.8236
  194MOL0     C26673   5.796  10.489   3.935  0.4068 -0.5255  0.0607
  194MOL0     C26674   5.821  10.454   4.086  0.0986 -1.2088  0.0061
  194MOL0     C26675   5.956  10.377   4.110  0.0450 -0.1045  0.3586
  194MOL0     C26676   5.969  10.240   4.036 -0.3405  0.0404 -0.3360
  194MOL0     C26677   5.851  10.139   4.046  1.3008  0.1329  0.4228
  194MOL0     C26678   5.822  10.104   4.191 -0.9106  0.7180 -0.3034
  194MOL0    Cl26679   5.707   9.981   4.201  0.0089 -0.1209  0.0451
  194MOL0     C26680   5.433  10.122   3.912  0.4120  1.0805  0.3720
  194MOL0     C26681   5.327  10.036   3.893  0.0315  0.9565  0.1371
  194MOL0     O26682   5.009  10.095   3.889 -0.2336 -0.0324 -0.1294
  194MOL0     C26683   4.884   9.957   3.607 -0.0665 -0.2923 -1.0088
  194MOL0     C26684   4.770   9.912   3.548  0.5685  0.3863 -0.0486
  194MOL0     N26685   4.387   9.437   3.320 -0.2051  0.8098 -0.4289
  194MOL0     N26686   4.498   9.374   3.314 -0.4855 -0.3206  0.3488
  194MOL0     C26687   5.605   9.966   3.510  0.5689  0.6668 -0.2797
  194MOL0     C26688   5.719  10.018   3.562  0.1191  0.9922 -0.2782
  194MOL0     C26689   6.120  10.151   3.699 -1.0050 -0.3147 -0.5423
  194MOL0     C26690   6.125  10.289   3.666  0.6243  0.0384  0.2021
  194MOL0     C26691   6.223  10.376   3.710 -0.3287 -0.3654 -0.0467
  194MOL0     C26692   6.318  10.328   3.795 -0.0642  0.7819 -1.3358
  194MOL0     O26693   6.414  10.418   3.830 -0.1736  0.0018 -0.2583
  194MOL0     C26694   6.538  10.364   3.872  0.4884 -0.3144  0.6316
  194MOL0     C26695   6.650  10.463   3.869 -0.7411 -1.6292 -0.1143
  194MOL0     C26696   6.718  10.476   3.740 -0.1888  0.4028 -0.2396
  194MOL0     C26697   6.621  10.562   3.659 -0.1964  0.0656  1.0148
  194MOL0     C26698   6.686  10.573   3.527  0.0107 -0.3308 -0.1373
  194MOL0     C26699   6.742  10.579   3.418  0.4764  0.5185 -0.2748
  194MOL0     C26700   6.306  10.196   3.848  0.2593 -0.3184  0.2696
  194MOL0     C26701   6.216  10.105   3.802  0.3977 -0.4800  0.4706
  194MOL0     C26702   6.231   9.955   3.843  0.1048 -0.1792 -0.1774
  194MOL0     H26703   5.895  10.070   3.279  0.6972 -0.4805  1.1626
  194MOL0     H26704   5.700   9.954   3.190  2.1942 -1.6615  0.4982
  194MOL0     H26705   5.568   9.759   3.223 -0.3250 -0.4294 -0.5323
  194MOL0     H26706   5.483   9.872   3.127 -0.3365 -0.6095 -0.9170
  194MOL0     H26707   5.360   9.645   3.136 -0.3806 -1.2732 -0.4447
  194MOL0     H26708   5.382   9.657   3.311 -0.3690  1.0259 -0.2691
  194MOL0     H26709   5.220   9.775   3.358  0.4174  0.2388  0.2431
  194MOL0     H26710   5.195   9.857   3.197  0.7115  0.2470  0.7800
  194MOL0     H26711   5.135   9.629   3.110  1.7300 -1.6939  1.3915
  194MOL0     H26712   5.119   9.552   3.262 -1.6137 -1.0273 -1.2860
  194MOL0     H26713   4.958   9.802   3.210 -1.3382 -0.7608  0.8233
  194MOL0     H26714   4.961   9.719   3.359 -0.3367  0.4131 -0.4040
  194MOL0     H26715   4.765   9.682   3.228  0.0402  1.1783 -1.4436
  194MOL0     H26716   4.854   9.635   3.081  0.1731  2.0547  0.9909
  194MOL0     H26717   4.813   9.508   3.369  0.6056  0.7381  0.5163
  194MOL0     H26718   4.925   9.437   3.248  0.6459 -0.4428  4.3265
  194MOL0     H26719   4.734   9.401   3.095  0.6755  0.2840 -0.8617
  194MOL0     H26720   4.726   9.301   3.246 -0.1344  1.1161  0.6476
  194MOL0     H26721   4.547   9.636   3.123 -1.1707  0.3778 -1.4319
  194MOL0     H26722   4.208   9.626   3.300  0.4322  2.3233  1.4246
  194MOL0     H26723   4.250   9.635   3.130  1.1298 -1.5498 -0.2455
  194MOL0     H26724   4.423   9.819   3.208  0.1045  1.0772  2.0554
  194MOL0     H26725   4.263   9.872   3.270 -0.0555 -0.2897  2.2714
  194MOL0     H26726   4.328   9.877   3.469 -0.5599 -1.4684  1.0615
  194MOL0     H26727   4.324   9.711   3.478  1.0017 -0.6796 -1.5331
  194MOL0     H26728   4.555   9.694   3.410 -1.0390 -0.0108  0.2689
  194MOL0     H26729   4.569   9.865   3.369  2.6290  0.5350  2.0718
  194MOL0     H26730   4.587   9.824   3.812 -0.3570  0.7330 -2.1687
  194MOL0     H26731   4.907   9.891   4.021 -0.1884  0.4871  2.1734
  194MOL0     H26732   4.782   9.769   4.010 -1.3914 -0.3823 -0.8321
  194MOL0     H26733   4.730   9.940   4.029 -2.0462 -2.2952 -1.6622
  194MOL0     H26734   5.243  10.098   3.567  1.7455 -0.3240 -1.6117
  194MOL0     H26735   5.412  10.266   3.597 -2.1365  0.0499 -0.4127
  194MOL0     H26736   5.452  10.428   3.950 -0.4449 -1.0829  0.8475
  194MOL0     H26737   5.590  10.345   4.012  0.3081  1.4097  0.1300
  194MOL0     H26738   5.639  10.556   3.808 -3.4008 -1.9755 -0.9705
  194MOL0     H26739   5.630  10.604   3.977  0.2794  1.3202 -2.8577
  194MOL0     H26740   5.858  10.575   3.908 -1.1086  0.3553 -0.7346
  194MOL0     H26741   5.815  10.399   3.877 -1.3141 -0.4008 -0.7491
  194MOL0     H26742   5.738  10.406   4.138 -1.7033  0.0339 -1.5833
  194MOL0     H26743   5.831  10.552   4.133  0.3806 -1.8084  1.2187
  194MOL0     H26744   6.035  10.448   4.083  1.3212 -0.6961  2.3215
  194MOL0     H26745   5.961  10.358   4.218  3.7183  3.0094  0.9333
  194MOL0     H26746   6.053  10.183   4.078 -0.0924  0.4668 -0.2463
  194MOL0     H26747   5.984  10.262   3.929  0.6247 -1.8325 -0.6399
  194MOL0     H26748   5.877  10.052   3.985 -1.6713 -2.2163  2.1658
  194MOL0     H26749   5.764  10.191   4.004  2.0990  1.9830  0.9385
  194MOL0     H26750   5.780  10.192   4.241 -0.2728  0.5704  0.5011
  194MOL0     H26751   5.914  10.078   4.243 -1.3286 -0.3079 -0.0601
  194MOL0     H26752   5.475  10.129   4.012  0.3306 -3.0806  0.8849
  194MOL0     H26753   5.297   9.984   3.984 -0.1728 -1.6372 -1.3012
  194MOL0     H26754   4.967   9.992   3.547  0.3817 -2.3457 -1.6900
  194MOL0     H26755   4.766   9.900   3.440 -0.4828 -3.6222  0.2451
  194MOL0     H26756   5.526   9.925   3.572  0.5672  0.5356 -0.3696
  194MOL0     H26757   5.720  10.017   3.670  1.6728 -1.4655 -0.2377
  194MOL0     H26758   6.053  10.337   3.600 -0.9301 -0.3227  1.5536
  194MOL0     H26759   6.230  10.480   3.677 -0.2712 -0.2967  0.1835
  194MOL0     H26760   6.515  10.324   3.971 -1.5512  0.3150  0.4571
  194MOL0     H26761   6.559  10.269   3.821 -2.6720 -0.9504  0.3099
  194MOL0     H26762   6.726  10.428   3.940  0.1374 -1.6024 -1.0187
  194MOL0     H26763   6.621  10.562   3.904  1.4355 -0.5131 -1.2486
  194MOL0     H26764   6.808  10.536   3.758 -0.4664  0.2891  1.7486
  194MOL0     H26765   6.724  10.378   3.694  0.2816  0.6337 -0.6822
  194MOL0     H26766   6.616  10.666   3.690 -2.6455  0.1068  0.6610
  194MOL0     H26767   6.526  10.514   3.634  1.1347 -2.5524  0.5653
  194MOL0     H26768   6.791  10.583   3.323  1.3910 -1.3829  0.0811
  194MOL0     H26769   6.375  10.172   3.928  0.3465  0.6058  0.4839
  194MOL0     H26770   6.252   9.888   3.759 -1.3267  0.5933 -1.2031
  194MOL0     H26771   6.314   9.941   3.912 -0.7839 -0.6058  0.8243
  194MOL0     H26772   6.145   9.918   3.900  0.7556 -1.6659 -0.1022
  195MOL0     O26773   4.835   5.065   8.802 -0.5218 -0.2772 -0.3308
  195MOL0     C26774   4.830   5.090   8.921  0.9582 -0.3795 -1.3183
  195MOL0     O26775   4.936   5.138   8.996 -0.0773  0.1985 -0.5962
  195MOL0     C26776   5.037   5.187   8.927  0.1051  0.4237  0.1294
  195MOL0     C26777   5.158   5.113   8.912  0.0542  0.5367 -0.7301
  195MOL0     C26778   5.274   5.177   8.862  0.0232 -0.2592 -0.4311
  195MOL0     C26779   5.271   5.310   8.828 -0.5454 -0.4546 -0.2591
  195MOL0     O26780   5.397   5.357   8.780 -0.1674 -0.3289  0.2005
  195MOL0     C26781   5.416   5.500   8.795 -0.1699  0.0513  0.1378
  195MOL0     C26782   5.563   5.545   8.768  0.2525  0.5968 -0.3244
  195MOL0     C26783   5.605   5.581   8.626 -0.0271  0.8536 -0.5555
  195MOL0     C26784   5.725   5.680   8.622 -0.3118  0.3993  0.0909
  195MOL0     C26785   5.778   5.697   8.478 -0.6906 -0.9004 -0.4122
  195MOL0     C26786   5.879   5.812   8.489  0.2254 -0.3097  0.5477
  195MOL0     C26787   5.948   5.829   8.348  0.2756  1.2484  0.2930
  195MOL0     C26788   6.051   5.941   8.362 -0.0764 -0.2789  0.2908
  195MOL0     N26789   6.169   5.924   8.278  0.3080 -0.2307 -0.0704
  195MOL0     C26790   6.271   6.013   8.266  0.2677  0.5994 -0.6100
  195MOL0     C26791   6.359   5.958   8.176 -0.6266 -0.3358 -0.3446
  195MOL0     C26792   6.497   6.016   8.150 -0.6816 -0.2774 -0.8732
  195MOL0     C26793   6.507   6.141   8.057 -0.5356  0.0003  0.0120
  195MOL0     C26794   6.455   6.107   7.917 -0.6622 -0.5527  0.1849
  195MOL0     C26795   6.467   6.226   7.825 -0.1658 -0.6225 -0.3393
  195MOL0     O26796   6.595   6.291   7.819 -0.0868  0.1956 -0.0412
  195MOL0     C26797   6.690   6.225   7.739 -0.3363 -0.2341 -1.1608
  195MOL0     C26798   6.672   6.106   7.664  0.9068 -0.3316  0.5245
  195MOL0     C26799   6.775   6.051   7.584 -0.2010  1.0125 -0.0229
  195MOL0     C26800   6.745   5.918   7.510  0.9012 -0.1671  0.4462
  195MOL0     C26801   6.901   6.110   7.590 -0.4035  0.1578  0.4544
  195MOL0     C26802   7.020   6.052   7.521 -0.3885  0.2753  0.2425
  195MOL0     O26803   7.131   6.133   7.506 -0.8154  0.4048  0.7803
  195MOL0     C26804   7.244   6.076   7.448 -0.8611 -0.7099  0.6259
  195MOL0     C26805   7.362   6.039   7.524  0.3932 -0.9314  0.0930
  195MOL0     C26806   7.474   5.974   7.454  0.0363 -0.2252 -0.1103
  195MOL0     C26807   7.465   5.948   7.314  0.5600  0.1237 -0.0736
  195MOL0     O26808   7.564   5.876   7.252  0.3255 -0.3255  0.1014
  195MOL0     C26809   7.574   5.881   7.106  0.1080 -0.0140 -0.1075
  195MOL0     C26810   7.697   5.792   7.091 -0.3504  1.0808 -0.1496
  195MOL0     C26811   7.738   5.789   6.946 -0.0405  0.0442 -0.3705
  195MOL0     C26812   7.882   5.717   6.946  1.2866 -0.0962  0.7680
  195MOL0     C26813   7.997   5.803   6.995  0.3519  0.2250  0.2458
  195MOL0     C26814   8.123   5.718   7.018 -0.4055 -0.5681 -0.7497
  195MOL0     C26815   8.242   5.799   7.078  1.2046 -0.3725  0.8795
  195MOL0     C26816   8.366   5.713   7.086  0.2138  0.1229 -0.2880
  195MOL0    Cl26817   8.376   5.619   7.228  0.3212 -0.3007  0.4541
  195MOL0     C26818   7.354   5.999   7.242  0.1599  0.1128 -0.0552
  195MOL0     C26819   7.245   6.047   7.312 -0.0929 -0.0064 -0.7816
  195MOL0     O26820   7.022   5.939   7.491  1.0417 -0.2372 -0.0514
  195MOL0     C26821   6.921   6.219   7.670 -0.3967  0.1831 -0.4324
  195MOL0     C26822   6.816   6.282   7.736 -0.2999 -0.8352  0.5023
  195MOL0     N26823   6.300   5.843   8.125 -0.2318  0.0971  0.2881
  195MOL0     N26824   6.186   5.823   8.185  0.4040 -0.7178  1.0168
  195MOL0     C26825   5.152   5.378   8.834 -0.1566  0.1037  0.1603
  195MOL0     C26826   5.042   5.322   8.884  0.1384  0.6055 -0.8261
  195MOL0     C26827   4.719   5.040   9.010  0.0435  0.3472 -0.0357
  195MOL0     C26828   4.737   5.070   9.148  0.5050  0.8110 -0.3643
  195MOL0     C26829   4.630   5.044   9.236 -0.2226  0.0327  0.1062
  195MOL0     C26830   4.500   5.014   9.186 -0.5167 -0.3816 -0.4198
  195MOL0     O26831   4.401   4.987   9.271  0.0925  0.1918 -0.7656
  195MOL0     C26832   4.438   4.911   9.391 -0.7112  0.6054 -0.3316
  195MOL0     C26833   4.313   4.842   9.446 -0.3007  0.5527  0.0105
  195MOL0     C26834   4.335   4.750   9.567  0.1112 -0.7004  0.5416
  195MOL0     C26835   4.272   4.806   9.692 -0.1827 -1.0940 -1.2801
  195MOL0     C26836   4.334   4.764   9.821 -0.0395  0.0070 -0.5193
  195MOL0     C26837   4.394   4.724   9.921  0.2915 -0.7312 -0.2682
  195MOL0     C26838   4.482   4.985   9.050 -0.6146 -1.0959 -0.1909
  195MOL0     C26839   4.591   4.992   8.968 -0.2618  0.0443 -0.7332
  195MOL0     C26840   4.572   4.943   8.820 -0.2781  0.3227  1.1822
  195MOL0     H26841   5.157   5.009   8.943  1.7102  0.3534 -1.2096
  195MOL0     H26842   5.361   5.114   8.846  0.4162  0.4878 -1.3497
  195MOL0     H26843   5.407   5.513   8.903 -0.4667 -0.2860  0.1546
  195MOL0     H26844   5.340   5.559   8.743 -2.0089  1.7700  4.2583
  195MOL0     H26845   5.567   5.640   8.822 -0.9067 -0.4610  1.7505
  195MOL0     H26846   5.636   5.476   8.811 -0.3393 -0.7070 -1.3558
  195MOL0     H26847   5.639   5.498   8.564  0.8804  0.2530  0.6867
  195MOL0     H26848   5.518   5.620   8.573  0.2373 -0.4366 -2.0175
  195MOL0     H26849   5.679   5.772   8.662 -1.3996  0.3985 -1.0904
  195MOL0     H26850   5.803   5.648   8.692 -1.5768 -0.2090  1.2904
  195MOL0     H26851   5.710   5.723   8.396 -2.9860 -2.3622  0.9003
  195MOL0     H26852   5.827   5.604   8.448  1.2436  0.0865 -0.4755
  195MOL0     H26853   5.829   5.906   8.511  1.3732  0.3461  0.4535
  195MOL0     H26854   5.953   5.789   8.566  0.2247 -2.5156 -0.0379
  195MOL0     H26855   5.875   5.851   8.270  2.3298 -1.9102 -2.8226
  195MOL0     H26856   5.992   5.733   8.322 -0.0060  1.8913 -2.8797
  195MOL0     H26857   6.004   6.034   8.330  3.4687  0.5994 -3.0561
  195MOL0     H26858   6.090   5.945   8.465 -3.7794 -1.2584  1.8936
  195MOL0     H26859   6.284   6.097   8.334 -2.7899  0.6551  0.0242
  195MOL0     H26860   6.547   5.932   8.102 -2.8176 -1.1575 -1.6536
  195MOL0     H26861   6.545   6.046   8.244  0.9355 -0.0945 -1.7208
  195MOL0     H26862   6.463   6.232   8.098 -0.1801  1.3574 -2.4304
  195MOL0     H26863   6.616   6.155   8.053  0.1346 -3.2099  2.8235
  195MOL0     H26864   6.508   6.025   7.869 -0.5145  0.8519 -2.1993
  195MOL0     H26865   6.350   6.077   7.909 -0.9368  0.7219 -1.5867
  195MOL0     H26866   6.421   6.202   7.728 -2.2931  0.5460  0.3299
  195MOL0     H26867   6.404   6.309   7.858 -0.0028 -1.5756  2.6254
  195MOL0     H26868   6.578   6.052   7.661 -1.1676  3.0421 -2.1302
  195MOL0     H26869   6.795   5.836   7.564  3.7510  1.5866  0.6736
  195MOL0     H26870   6.751   5.912   7.401  1.8303  0.8845  0.4185
  195MOL0     H26871   6.640   5.898   7.531  0.4327 -0.1295 -1.7096
  195MOL0     H26872   7.376   6.069   7.628 -2.0347 -1.8768  0.7809
  195MOL0     H26873   7.558   5.946   7.517 -0.8787  0.9314  1.7093
  195MOL0     H26874   7.483   5.848   7.056 -1.0724  1.0182  1.2822
  195MOL0     H26875   7.601   5.984   7.080  2.4378 -0.9076 -1.5055
  195MOL0     H26876   7.777   5.827   7.156  1.7115  0.3389 -2.1671
  195MOL0     H26877   7.670   5.689   7.117  0.3288  0.7286 -0.7898
  195MOL0     H26878   7.740   5.892   6.911  0.4162  0.7005  1.4570
  195MOL0     H26879   7.663   5.737   6.886 -2.1236 -0.2896  2.3314
  195MOL0     H26880   7.899   5.688   6.842  0.7679 -0.5254  0.8001
  195MOL0     H26881   7.870   5.623   7.001  0.4692 -1.2946 -1.3620
  195MOL0     H26882   8.019   5.876   6.916  1.6256  2.8421  2.8204
  195MOL0     H26883   7.980   5.856   7.089 -0.3004  1.4947 -0.5450
  195MOL0     H26884   8.152   5.679   6.920 -0.7715 -1.7379 -0.4124
  195MOL0     H26885   8.114   5.622   7.070  3.7920 -1.0144 -0.4377
  195MOL0     H26886   8.231   5.838   7.179  1.6730 -3.1450  2.0906
  195MOL0     H26887   8.265   5.889   7.020 -0.0014 -0.9928 -0.6542
  195MOL0     H26888   8.454   5.778   7.091  0.0323  0.5851 -2.2567
  195MOL0     H26889   8.371   5.638   7.006  1.8116  0.3627 -0.4481
  195MOL0     H26890   7.340   5.995   7.134  2.0521  0.2004 -0.3365
  195MOL0     H26891   7.151   6.072   7.263 -1.2628 -1.8463  0.4028
  195MOL0     H26892   7.018   6.267   7.662 -0.3176 -0.3106 -4.2917
  195MOL0     H26893   6.847   6.372   7.787  2.0054  0.1083 -2.3063
  195MOL0     H26894   5.136   5.478   8.794 -0.4168 -0.8592 -2.3447
  195MOL0     H26895   4.950   5.379   8.887 -0.2057  0.0527 -0.6319
  195MOL0     H26896   4.829   5.113   9.189 -0.8222  2.0951  1.4284
  195MOL0     H26897   4.647   5.071   9.340  0.8903  4.0779 -0.9291
  195MOL0     H26898   4.503   4.830   9.359  1.8736  2.5498 -0.3687
  195MOL0     H26899   4.503   4.967   9.459  1.8643 -1.1574 -1.1746
  195MOL0     H26900   4.274   4.778   9.366 -1.8371  0.6788  0.6139
  195MOL0     H26901   4.246   4.922   9.478  0.7745  0.7907  1.8454
  195MOL0     H26902   4.285   4.656   9.542  0.0099 -1.3999  3.0714
  195MOL0     H26903   4.440   4.721   9.575  0.2138 -0.5748 -0.3321
  195MOL0     H26904   4.165   4.783   9.704 -0.0328 -1.5249 -0.7118
  195MOL0     H26905   4.280   4.915   9.695 -0.4606 -1.0804  0.4524
  195MOL0     H26906   4.464   4.701   9.999  2.7443  0.7733 -1.9308
  195MOL0     H26907   4.384   4.949   9.021 -1.1321 -1.3074  1.6964
  195MOL0     H26908   4.491   4.870   8.815 -0.5864  0.7537 -0.8265
  195MOL0     H26909   4.563   5.020   8.744  1.0158 -1.0534 -0.4332
  195MOL0     H26910   4.659   4.880   8.799 -1.0557 -1.3275  2.6046
  196MOL0     O26911   5.279   4.149   7.909 -0.2932 -0.0086  0.3862
  196MOL0     C26912   5.277   4.049   7.982  0.9717 -0.3429  0.0537
  196MOL0     O26913   5.366   3.950   7.985  0.2088 -0.3379  0.0249
  196MOL0     C26914   5.484   3.973   7.913  0.0155  0.0912  0.4393
  196MOL0     C26915   5.601   3.986   7.975 -0.0871 -0.2946  0.0989
  196MOL0     C26916   5.714   4.028   7.906 -0.5503  0.3765 -0.7177
  196MOL0     C26917   5.718   4.022   7.760  0.1264  0.2123  0.1116
  196MOL0     O26918   5.830   4.038   7.681  0.1949  0.1493 -0.5852
  196MOL0     C26919   5.947   3.982   7.745 -0.5508  0.1107 -0.3174
  196MOL0     C26920   6.026   3.929   7.627  0.0248  0.7153 -0.3789
  196MOL0     C26921   6.041   4.017   7.513  0.7690 -0.4788 -0.5416
  196MOL0     C26922   6.150   3.959   7.415  0.7539 -0.1453 -0.5874
  196MOL0     C26923   6.151   4.056   7.292  1.0064  0.3649  0.4376
  196MOL0     C26924   6.250   4.023   7.181  0.3420 -0.5029 -0.7227
  196MOL0     C26925   6.244   4.128   7.074 -0.0561  0.7704  0.2178
  196MOL0     C26926   6.327   4.096   6.947 -0.1670 -0.1233 -0.3946
  196MOL0     N26927   6.461   4.102   6.989 -0.7400  0.0137 -0.4121
  196MOL0     C26928   6.532   4.219   7.018  0.3782  0.5642 -0.7167
  196MOL0     C26929   6.653   4.173   7.037 -0.9948 -0.0013  0.1181
  196MOL0     C26930   6.765   4.257   7.088 -0.8202  0.4386 -1.1291
  196MOL0     C26931   6.775   4.214   7.238 -0.2185  0.0782  0.3946
  196MOL0     C26932   6.888   4.272   7.315 -0.8035  0.3484  0.1207
  196MOL0     C26933   6.894   4.203   7.452  0.1941  0.6510  0.4877
  196MOL0     O26934   6.795   4.255   7.538  0.1537  0.3078  0.3017
  196MOL0     C26935   6.822   4.263   7.674  0.1786 -0.1225 -0.5034
  196MOL0     C26936   6.723   4.297   7.771 -0.5551  0.2839  0.2233
  196MOL0     C26937   6.733   4.287   7.908  0.1757  0.1072  0.4553
  196MOL0     C26938   6.620   4.346   7.987  0.1637 -0.1110 -0.2199
  196MOL0     C26939   6.853   4.234   7.963 -0.1403 -0.4063 -0.3764
  196MOL0     C26940   6.887   4.220   8.109 -0.2506  0.0841  0.3631
  196MOL0     O26941   7.004   4.147   8.142  0.5746 -0.1111 -0.5208
  196MOL0     C26942   6.996   4.077   8.266  0.0717 -0.4363  0.5698
  196MOL0     C26943   6.867   4.035   8.318 -0.3469  0.4110 -0.0964
  196MOL0     C26944   6.861   3.976   8.439  0.9081 -0.2313 -0.0684
  196MOL0     C26945   6.974   3.948   8.512 -0.4234 -1.3633 -0.0580
  196MOL0     O26946   6.971   3.874   8.630  0.3530  0.3225 -0.2796
  196MOL0     C26947   6.850   3.851   8.717  0.6427  0.2446  1.1023
  196MOL0     C26948   6.883   3.847   8.865 -0.4924 -0.9079  0.2505
  196MOL0     C26949   6.963   3.722   8.903  0.1049 -0.4898  0.4171
  196MOL0     C26950   7.113   3.758   8.916  0.0274 -0.6502 -0.0803
  196MOL0     C26951   7.163   3.809   9.054 -0.5158  0.3784 -0.2179
  196MOL0     C26952   7.204   3.701   9.160 -0.3775 -0.2876 -0.8890
  196MOL0     C26953   7.354   3.662   9.159 -0.2861 -0.1648 -0.0737
  196MOL0     C26954   7.387   3.559   9.269 -0.7903 -0.5961 -0.1160
  196MOL0    Cl26955   7.275   3.419   9.263  0.1451 -0.1774 -0.4365
  196MOL0     C26956   7.098   4.008   8.470 -0.1214 -0.0752  0.2243
  196MOL0     C26957   7.108   4.072   8.348  0.7285 -0.5929 -0.3792
  196MOL0     O26958   6.833   4.291   8.190  0.3454  0.1775 -0.1600
  196MOL0     C26959   6.953   4.199   7.873 -0.3683  0.0568  0.1227
  196MOL0     C26960   6.936   4.218   7.737 -0.4392  0.2420  0.0926
  196MOL0     N26961   6.669   4.038   7.013  0.0384  0.2376 -0.0975
  196MOL0     N26962   6.549   3.998   6.987 -0.8130 -0.3196 -0.3127
  196MOL0     C26963   5.599   3.986   7.699  1.3512  0.3131  1.1331
  196MOL0     C26964   5.486   3.958   7.774  0.6280  0.1357 -0.0997
  196MOL0     C26965   5.158   4.035   8.074  0.2507 -0.1687  0.2401
  196MOL0     C26966   5.080   4.148   8.098 -0.0392  0.1931 -0.1764
  196MOL0     C26967   4.968   4.152   8.181  0.4072  0.1581  0.2157
  196MOL0     C26968   4.911   4.033   8.227 -0.6604  0.1840 -0.5339
  196MOL0     O26969   4.797   4.059   8.304  0.4972 -1.2647  0.6664
  196MOL0     C26970   4.752   3.975   8.404  0.2603  0.1417 -0.4904
  196MOL0     C26971   4.844   3.970   8.528 -0.3300  0.1404 -0.4616
  196MOL0     C26972   4.792   3.874   8.637 -0.6844  0.3140 -0.2026
  196MOL0     C26973   4.896   3.838   8.738 -0.1346  1.3187 -0.2744
  196MOL0     C26974   4.920   3.956   8.822 -0.3538 -0.2882 -0.4313
  196MOL0     C26975   4.935   4.064   8.891 -0.9088  0.4101  0.1600
  196MOL0     C26976   4.984   3.921   8.211 -0.6424 -0.4156  0.1889
  196MOL0     C26977   5.110   3.916   8.135 -0.1107  0.2700 -0.1382
  196MOL0     C26978   5.186   3.793   8.125 -0.0687 -0.8839  0.4933
  196MOL0     H26979   5.610   3.999   8.082  1.2748  1.0528 -0.1316
  196MOL0     H26980   5.803   4.057   7.961  0.4498 -4.2277  0.4922
  196MOL0     H26981   5.931   3.893   7.807 -0.2696  0.2703 -0.0127
  196MOL0     H26982   5.999   4.057   7.806  1.6192 -0.1483 -1.7392
  196MOL0     H26983   6.123   3.895   7.665  0.2986 -0.4163 -1.9817
  196MOL0     H26984   5.969   3.840   7.598  1.6783 -0.3585 -0.5353
  196MOL0     H26985   5.943   4.048   7.474 -1.0080  0.1221  3.8843
  196MOL0     H26986   6.088   4.112   7.541 -1.8556  0.8334 -0.2263
  196MOL0     H26987   6.241   3.972   7.474  1.6958  1.4475 -2.2804
  196MOL0     H26988   6.129   3.857   7.384 -1.7650  0.4304 -0.9894
  196MOL0     H26989   6.172   4.160   7.319 -0.7033  0.7012  0.5958
  196MOL0     H26990   6.048   4.061   7.256  1.4878 -1.6238 -1.4459
  196MOL0     H26991   6.351   4.017   7.222  0.3076 -2.0193 -0.8025
  196MOL0     H26992   6.231   3.926   7.132  0.8934 -1.4348  0.8583
  196MOL0     H26993   6.277   4.220   7.121 -2.6751  1.8193  0.1581
  196MOL0     H26994   6.140   4.130   7.042  0.3388 -1.7608 -1.6160
  196MOL0     H26995   6.291   3.998   6.914  2.1165 -1.6217  1.2770
  196MOL0     H26996   6.299   4.165   6.867 -0.8555  0.0519 -0.0112
  196MOL0     H26997   6.499   4.321   7.034 -0.9582  0.2967 -1.5687
  196MOL0     H26998   6.743   4.364   7.077 -0.6119  0.7405  0.9310
  196MOL0     H26999   6.855   4.226   7.036 -1.2594  0.5846 -1.9949
  196MOL0     H27000   6.678   4.240   7.282 -1.0225 -0.8409 -0.7795
  196MOL0     H27001   6.775   4.105   7.244 -0.4969  0.1592  3.4137
  196MOL0     H27002   6.975   4.255   7.251  0.8008 -0.9629  2.5344
  196MOL0     H27003   6.885   4.381   7.326  2.7641  0.7802 -1.8327
  196MOL0     H27004   6.891   4.094   7.444  1.0811  0.5436  1.3421
  196MOL0     H27005   6.993   4.224   7.492  0.1822  1.7571 -0.0251
  196MOL0     H27006   6.626   4.324   7.729 -2.3322 -4.6156  0.5743
  196MOL0     H27007   6.576   4.285   8.066 -2.2563  1.1241 -0.5193
  196MOL0     H27008   6.542   4.383   7.921  0.1403  3.0350  1.3604
  196MOL0     H27009   6.657   4.425   8.054 -1.0825 -0.5567  1.0304
  196MOL0     H27010   6.778   4.048   8.257 -1.4584 -1.9793  0.8659
  196MOL0     H27011   6.765   3.949   8.483  1.2189 -0.3085  0.5785
  196MOL0     H27012   6.776   3.930   8.699 -0.5307 -0.8409  1.0103
  196MOL0     H27013   6.801   3.755   8.696  1.4240 -0.4945  2.4910
  196MOL0     H27014   6.944   3.936   8.881  0.6857 -1.8344  1.1119
  196MOL0     H27015   6.793   3.854   8.926  0.3066  1.9030  1.2457
  196MOL0     H27016   6.968   3.646   8.825 -2.1572  0.3435 -0.6169
  196MOL0     H27017   6.916   3.671   8.987 -0.8078 -1.4449 -0.6377
  196MOL0     H27018   7.130   3.837   8.842 -0.3161  0.8885  1.4354
  196MOL0     H27019   7.171   3.667   8.899 -2.2050 -2.4166  1.1500
  196MOL0     H27020   7.260   3.857   9.033 -0.4381 -0.0875 -0.9589
  196MOL0     H27021   7.100   3.890   9.091 -0.0122  0.5791  0.2273
  196MOL0     H27022   7.145   3.611   9.144 -0.3753 -0.0247 -2.5657
  196MOL0     H27023   7.180   3.738   9.260 -3.0061  0.1416 -1.5996
  196MOL0     H27024   7.419   3.748   9.178  0.1171 -0.0487 -1.8138
  196MOL0     H27025   7.380   3.600   9.073  1.1539 -1.8725  1.4855
  196MOL0     H27026   7.377   3.604   9.368  0.2205 -3.4445  1.3755
  196MOL0     H27027   7.490   3.535   9.241  0.0926  2.2812  0.2973
  196MOL0     H27028   7.187   4.004   8.531 -0.3461  2.4558  0.8236
  196MOL0     H27029   7.200   4.122   8.321  1.1994 -1.5004 -0.5006
  196MOL0     H27030   7.044   4.152   7.911 -0.7093 -1.4110 -0.7967
  196MOL0     H27031   7.024   4.189   7.680  0.2782 -1.1863  1.8168
  196MOL0     H27032   5.591   3.983   7.591 -2.3776 -0.0691  1.2940
  196MOL0     H27033   5.397   3.923   7.724  0.6466  0.1830 -0.1667
  196MOL0     H27034   5.084   4.236   8.034 -0.3812 -1.0053 -1.9350
  196MOL0     H27035   4.912   4.240   8.211 -1.2690 -1.1910  1.2259
  196MOL0     H27036   4.647   4.001   8.423 -0.3411 -1.8959 -0.8183
  196MOL0     H27037   4.736   3.876   8.361 -2.7380 -0.0910  0.9269
  196MOL0     H27038   4.847   4.067   8.578 -2.3148 -0.9506  1.9482
  196MOL0     H27039   4.945   3.942   8.497 -0.9552 -2.5265 -0.2756
  196MOL0     H27040   4.716   3.920   8.701 -0.5253  1.4189 -0.7712
  196MOL0     H27041   4.732   3.795   8.591  0.6656 -1.5625  1.0815
  196MOL0     H27042   4.984   3.800   8.685  1.3703  2.6845  1.1711
  196MOL0     H27043   4.865   3.759   8.806 -0.4142  0.9119 -0.8621
  196MOL0     H27044   4.957   4.145   8.958 -1.7345  2.5406 -2.0006
  196MOL0     H27045   4.939   3.840   8.267 -2.1321  0.0338 -0.3020
  196MOL0     H27046   5.143   3.719   8.192  0.6344 -1.8927 -0.1307
  196MOL0     H27047   5.194   3.758   8.021 -3.5938  0.2860 -0.3020
  196MOL0     H27048   5.283   3.806   8.175 -0.5820 -1.1138  1.5692
  197MOL0     O27049  10.803   3.500   1.023 -0.3085 -0.1827  0.2356
  197MOL0     C27050  10.820   3.445   0.909 -1.0839  0.1638 -0.2906
  197MOL0     O27051  10.932   3.373   0.871 -0.5495  0.7790 -0.3315
  197MOL0     C27052  11.042   3.345   0.953 -0.3447  0.6961 -0.4015
  197MOL0     C27053  11.113   3.220   0.932 -0.2158  0.6794  0.6792
  197MOL0     C27054  11.223   3.175   1.011  0.5249  0.5065 -0.3459
  197MOL0     C27055  11.284   3.269   1.099  0.3941  0.4593  0.1076
  197MOL0     O27056  11.407   3.232   1.147  0.2378  0.6824 -0.6899
  197MOL0     C27057  11.502   3.330   1.194 -0.4599  0.1087  0.8180
  197MOL0     C27058  11.644   3.268   1.206 -1.1135 -0.1208  1.2290
  197MOL0     C27059  11.742   3.336   1.297 -0.1395  0.2114 -0.3902
  197MOL0     C27060  11.873   3.252   1.302  0.5252  1.1403 -0.5806
  197MOL0     C27061  11.978   3.324   1.393 -0.5083  0.2611 -0.2503
  197MOL0     C27062  12.095   3.224   1.427  0.5421 -0.6955 -0.5784
  197MOL0     C27063  12.215   3.304   1.494  0.0226  0.6005 -0.6871
  197MOL0     C27064  12.329   3.230   1.570 -0.1816  1.0957 -0.4947
  197MOL0     N27065  12.450   3.312   1.577  1.0789  0.5482  0.7338
  197MOL0     C27066  12.479   3.419   1.659  0.5263  0.4875 -0.3590
  197MOL0     C27067  12.606   3.447   1.636  0.0945 -0.7786 -0.2299
  197MOL0     C27068  12.687   3.556   1.707 -0.1527 -0.2381  0.2950
  197MOL0     C27069  12.643   3.700   1.676 -0.1201  0.1762  0.9564
  197MOL0     C27070  12.699   3.805   1.775 -0.0402  0.1728 -0.3614
  197MOL0     C27071  12.851   3.854   1.777  0.5741  0.0431 -0.3481
  197MOL0     O27072  12.938   3.751   1.727 -0.1302  0.1244 -0.1275
  197MOL0     C27073  12.980   3.748   1.596 -0.9576 -0.3299 -0.2105
  197MOL0     C27074  13.062   3.652   1.557  0.3674  1.5246  1.1550
  197MOL0     C27075  13.100   3.638   1.422  0.1215 -0.7586 -0.0476
  197MOL0     C27076  13.175   3.514   1.374  0.7606 -0.3423 -0.3221
  197MOL0     C27077  13.064   3.731   1.329 -0.5125 -1.0247 -0.3583
  197MOL0     C27078  13.095   3.723   1.183  0.1723  0.7416 -0.4310
  197MOL0     O27079  13.076   3.597   1.113 -0.2161  0.3609 -0.3844
  197MOL0     C27080  13.147   3.567   0.996  0.4106 -0.5266  0.2130
  197MOL0     C27081  13.267   3.487   1.010  0.2747  0.6785  0.4915
  197MOL0     C27082  13.342   3.445   0.900 -0.2504  1.3037  0.3075
  197MOL0     C27083  13.300   3.488   0.772 -0.3451 -0.6866 -1.0501
  197MOL0     O27084  13.373   3.453   0.660 -0.5188 -0.5057  0.2572
  197MOL0     C27085  13.502   3.390   0.664  1.0667  0.2580 -0.6379
  197MOL0     C27086  13.612   3.480   0.713 -1.1246  0.0026 -0.5455
  197MOL0     C27087  13.755   3.434   0.681  0.6585  1.0120 -0.1380
  197MOL0     C27088  13.803   3.308   0.770 -0.1940 -0.3612 -0.1268
  197MOL0     C27089  13.949   3.272   0.746 -0.5720 -0.3446 -1.1484
  197MOL0     C27090  14.041   3.384   0.769 -0.0623 -0.7929 -0.5932
  197MOL0     C27091  14.186   3.334   0.761 -1.0243 -0.2793  0.2685
  197MOL0     C27092  14.231   3.266   0.889  0.2650 -0.0059  0.2897
  197MOL0    Cl27093  14.259   3.381   1.020  0.2136  0.3683  0.2505
  197MOL0     C27094  13.187   3.574   0.759  0.7088 -0.1688  0.8074
  197MOL0     C27095  13.101   3.607   0.869  1.1200 -0.1524  0.2390
  197MOL0     O27096  13.133   3.824   1.131 -0.4540  0.3010  0.2390
  197MOL0     C27097  12.983   3.840   1.366 -0.0522 -0.7104 -0.7684
  197MOL0     C27098  12.943   3.850   1.499 -0.2607  0.3421  0.6775
  197MOL0     N27099  12.655   3.353   1.549  0.2254 -0.1473 -0.7413
  197MOL0     N27100  12.558   3.286   1.501  0.0949 -0.1119  0.4017
  197MOL0     C27101  11.229   3.397   1.107 -0.3296  0.6009 -0.5657
  197MOL0     C27102  11.111   3.439   1.041 -0.4900  0.4668  0.5446
  197MOL0     C27103  10.719   3.465   0.806  0.1850  0.1619  0.4297
  197MOL0     C27104  10.750   3.416   0.675 -0.6501  0.0723 -0.7789
  197MOL0     C27105  10.651   3.414   0.582  0.3238 -0.2250 -0.0898
  197MOL0     C27106  10.526   3.465   0.600 -0.3112 -0.7283  0.3518
  197MOL0     O27107  10.444   3.463   0.494  0.2934 -0.3632  0.0859
  197MOL0     C27108  10.317   3.528   0.505  0.2297 -0.1807 -0.0167
  197MOL0     C27109  10.247   3.517   0.369  0.0833  1.2780 -0.0308
  197MOL0     C27110  10.112   3.581   0.376 -0.8631  0.0832  0.3496
  197MOL0     C27111  10.016   3.548   0.265  0.9670 -0.3184 -0.0152
  197MOL0     C27112   9.875   3.565   0.304  0.3374 -0.2052 -0.4025
  197MOL0     C27113   9.762   3.571   0.350 -0.1274  0.3853  0.2523
  197MOL0     C27114  10.506   3.530   0.720  0.2247  0.5209  0.2521
  197MOL0     C27115  10.592   3.538   0.826  0.5410  0.2855 -0.0643
  197MOL0     C27116  10.544   3.612   0.954  0.1141  0.6828 -0.9149
  197MOL0     H27117  11.065   3.159   0.855 -1.6294  0.9506  1.3179
  197MOL0     H27118  11.266   3.080   0.983 -0.0444  0.3493 -0.7085
  197MOL0     H27119  11.469   3.361   1.294 -1.4542 -2.0079  1.2056
  197MOL0     H27120  11.496   3.417   1.128 -3.5484 -0.7103 -0.1356
  197MOL0     H27121  11.632   3.164   1.238 -1.9277  0.2180  2.0577
  197MOL0     H27122  11.679   3.270   1.103 -1.6426 -1.5583  0.9991
  197MOL0     H27123  11.764   3.439   1.266 -0.4905  0.5058  0.3318
  197MOL0     H27124  11.693   3.350   1.394 -2.0411 -1.1300 -1.1006
  197MOL0     H27125  11.847   3.156   1.346  2.0848  0.3128 -1.3889
  197MOL0     H27126  11.912   3.246   1.200 -2.7436  1.4078 -1.9623
  197MOL0     H27127  11.924   3.356   1.483  0.0940  0.2175  0.1323
  197MOL0     H27128  12.019   3.402   1.329 -0.7296  1.1702  0.6877
  197MOL0     H27129  12.060   3.149   1.498 -1.6574  1.0668  0.3050
  197MOL0     H27130  12.121   3.171   1.335 -2.2626 -1.4581 -1.0235
  197MOL0     H27131  12.157   3.359   1.569 -0.9423  0.4022 -1.2728
  197MOL0     H27132  12.263   3.379   1.431 -2.0663  2.0457 -0.6491
  197MOL0     H27133  12.301   3.218   1.675  1.8164 -0.7848 -0.1007
  197MOL0     H27134  12.356   3.131   1.531 -0.4587  0.9327 -0.2798
  197MOL0     H27135  12.419   3.473   1.732  0.0396 -1.8781  1.1210
  197MOL0     H27136  12.795   3.540   1.700  0.1821  0.2962  3.0673
  197MOL0     H27137  12.675   3.538   1.815  1.2331 -0.0491  0.5017
  197MOL0     H27138  12.666   3.725   1.572 -0.9638  1.3430  1.0354
  197MOL0     H27139  12.534   3.702   1.689  0.1609 -1.2312  5.3208
  197MOL0     H27140  12.624   3.884   1.784 -0.8941 -0.7422  1.0396
  197MOL0     H27141  12.687   3.758   1.873  0.2941  0.1582 -0.3256
  197MOL0     H27142  12.857   3.949   1.723 -3.2470 -0.2961 -1.6297
  197MOL0     H27143  12.891   3.877   1.876  1.8848  2.5256 -1.3575
  197MOL0     H27144  13.092   3.579   1.631 -0.9430 -1.7327 -1.2896
  197MOL0     H27145  13.227   3.471   1.460 -1.0610 -1.1006  0.4472
  197MOL0     H27146  13.248   3.548   1.299  0.8876 -1.7546 -0.8582
  197MOL0     H27147  13.106   3.441   1.333  0.0221  0.1011  0.1025
  197MOL0     H27148  13.305   3.454   1.106  0.2672 -2.8219 -0.5441
  197MOL0     H27149  13.416   3.370   0.923  0.2276  3.0475  6.0295
  197MOL0     H27150  13.489   3.307   0.736  0.2369  1.4756  0.6774
  197MOL0     H27151  13.520   3.338   0.570  2.3432 -3.0241  1.2417
  197MOL0     H27152  13.602   3.580   0.670  1.8055  0.3454 -0.6129
  197MOL0     H27153  13.613   3.480   0.823 -0.6827  2.4858 -0.4916
  197MOL0     H27154  13.816   3.522   0.705 -0.1858  1.4211  0.5528
  197MOL0     H27155  13.777   3.417   0.576  3.7047  3.0642  0.0019
  197MOL0     H27156  13.746   3.217   0.746  0.1080 -0.8831  1.0514
  197MOL0     H27157  13.780   3.344   0.870 -1.3477  4.9533 -1.9879
  197MOL0     H27158  13.963   3.192   0.819  2.4999 -0.2119 -1.4852
  197MOL0     H27159  13.965   3.232   0.645  1.5099  2.3694 -2.0166
  197MOL0     H27160  14.019   3.432   0.865 -2.6530 -2.0304 -0.4882
  197MOL0     H27161  14.024   3.458   0.691 -2.5030 -0.3960  0.2422
  197MOL0     H27162  14.256   3.415   0.741 -0.2868 -0.9380  0.1529
  197MOL0     H27163  14.190   3.270   0.672 -0.0875 -0.6907  0.5939
  197MOL0     H27164  14.324   3.210   0.874 -0.5586 -0.9335 -1.6588
  197MOL0     H27165  14.148   3.201   0.919  1.6377 -1.9368  0.1551
  197MOL0     H27166  13.151   3.606   0.662 -0.3253 -0.7226  0.9948
  197MOL0     H27167  13.017   3.672   0.845  0.7602 -0.7203 -0.0600
  197MOL0     H27168  12.951   3.923   1.304 -2.6206 -1.6864 -0.8925
  197MOL0     H27169  12.887   3.942   1.515 -0.0877  0.6674 -0.4941
  197MOL0     H27170  11.271   3.465   1.180  0.2870 -0.9451  0.5868
  197MOL0     H27171  11.070   3.538   1.058 -5.1234 -0.8449 -1.3941
  197MOL0     H27172  10.847   3.371   0.657 -1.8252 -3.6181  1.1811
  197MOL0     H27173  10.667   3.368   0.485  1.4167 -0.2160  0.0779
  197MOL0     H27174  10.262   3.487   0.591 -1.4674 -1.1927 -1.4946
  197MOL0     H27175  10.327   3.635   0.524 -0.3077 -0.7926  5.2350
  197MOL0     H27176  10.246   3.418   0.324 -1.4562  1.0244  0.5251
  197MOL0     H27177  10.303   3.576   0.296  0.5856  1.8850  0.8270
  197MOL0     H27178  10.069   3.551   0.472 -0.1631 -1.0208  0.3352
  197MOL0     H27179  10.129   3.689   0.371 -0.3872 -0.0256 -0.4846
  197MOL0     H27180  10.033   3.448   0.223  0.7407 -0.4553  0.2190
  197MOL0     H27181  10.027   3.612   0.177 -0.8731  0.2526  0.1341
  197MOL0     H27182   9.667   3.564   0.400  0.0069  1.0137  0.6055
  197MOL0     H27183  10.410   3.580   0.734 -0.7119 -0.5522 -1.9623
  197MOL0     H27184  10.547   3.545   1.041  0.4687 -0.7902 -2.0289
  197MOL0     H27185  10.608   3.697   0.979 -1.6162  1.5690  0.7075
  197MOL0     H27186  10.438   3.638   0.955  0.4749  2.2396 -1.3440
  198MOL0     O27187   8.099   9.662   4.848 -1.1498 -0.3899  0.1316
  198MOL0     C27188   8.014   9.751   4.838 -0.1642  0.0067  0.2809
  198MOL0     O27189   8.020   9.854   4.753  0.0079 -0.3528  0.1334
  198MOL0     C27190   8.152   9.905   4.722  0.9878  0.5598 -1.3136
  198MOL0     C27191   8.188  10.028   4.784  0.2947 -0.0889 -0.4937
  198MOL0     C27192   8.310  10.084   4.745  0.0413 -0.3274 -0.3902
  198MOL0     C27193   8.394  10.018   4.653  0.1734 -0.9481  0.1818
  198MOL0     O27194   8.512  10.069   4.606 -0.6725 -0.3780  0.1704
  198MOL0     C27195   8.509  10.208   4.571 -0.0529  0.0140  0.6192
  198MOL0     C27196   8.647  10.248   4.520  0.1804  0.0296 -0.1735
  198MOL0     C27197   8.743  10.249   4.636 -0.2673 -0.4758  0.1082
  198MOL0     C27198   8.886  10.272   4.586 -0.2351  0.5565 -0.5296
  198MOL0     C27199   8.986  10.216   4.686  0.4085  0.0928  0.1902
  198MOL0     C27200   9.127  10.254   4.637 -0.4192  0.0036  0.1898
  198MOL0     C27201   9.234  10.221   4.739 -0.4752  0.2005 -0.3452
  198MOL0     C27202   9.373  10.257   4.703  0.5409 -0.6466  0.3990
  198MOL0     N27203   9.476  10.207   4.786  0.2898 -0.1536 -0.0125
  198MOL0     C27204   9.461  10.208   4.924 -0.4416  0.1146  0.0136
  198MOL0     C27205   9.569  10.131   4.960 -0.0229 -0.1334 -0.5576
  198MOL0     C27206   9.603  10.093   5.095  0.0835  0.0330 -0.1366
  198MOL0     C27207   9.706   9.977   5.097  0.1854  0.1983 -1.0537
  198MOL0     C27208   9.641   9.850   5.055  0.5330 -0.7215  0.2782
  198MOL0     C27209   9.747   9.746   5.023  0.4737 -0.5828 -0.5880
  198MOL0     O27210   9.830   9.782   4.909  0.6026  0.1881  0.2379
  198MOL0     C27211   9.924   9.694   4.865 -0.1928 -0.1653 -0.0176
  198MOL0     C27212  10.000   9.716   4.752  0.4191  0.1352  0.3888
  198MOL0     C27213  10.118   9.656   4.722 -0.5206  0.8827  0.1338
  198MOL0     C27214  10.196   9.708   4.599  0.0868 -0.2450  0.0558
  198MOL0     C27215  10.163   9.548   4.800 -0.3608  0.4406 -0.1254
  198MOL0     C27216  10.292   9.480   4.792  0.4865  0.4616 -0.0612
  198MOL0     O27217  10.339   9.430   4.903 -0.4101  0.3086 -0.0557
  198MOL0     C27218  10.447   9.356   4.897 -1.1216 -0.0396  0.5549
  198MOL0     C27219  10.566   9.426   4.874  0.0757  0.3366  0.1775
  198MOL0     C27220  10.684   9.354   4.860  0.3666 -0.1981  0.3119
  198MOL0     C27221  10.689   9.214   4.858 -0.6293  0.1964 -0.9465
  198MOL0     O27222  10.800   9.139   4.842 -0.4637  0.0745  0.3481
  198MOL0     C27223  10.911   9.196   4.777 -0.0650 -0.3856  0.0641
  198MOL0     C27224  11.022   9.095   4.768  0.5152 -0.7081  0.1514
  198MOL0     C27225  11.147   9.152   4.704 -0.0211  1.0126 -0.9329
  198MOL0     C27226  11.198   9.040   4.611  0.0339 -1.3111 -0.1659
  198MOL0     C27227  11.299   9.107   4.519  0.2622 -0.7570 -0.5776
  198MOL0     C27228  11.339   9.024   4.405  0.2146  0.4449 -0.0418
  198MOL0     C27229  11.446   9.082   4.312 -0.0906  1.1387  0.2010
  198MOL0     C27230  11.550   8.975   4.278  0.8478  0.2126  0.0227
  198MOL0    Cl27231  11.462   8.841   4.196  0.4233  0.2554  0.0560
  198MOL0     C27232  10.568   9.147   4.881 -0.0905 -0.7502 -0.3320
  198MOL0     C27233  10.446   9.215   4.901  0.1969 -0.0910  0.0661
  198MOL0     O27234  10.324   9.441   4.681  0.8357  0.0595  0.2020
  198MOL0     C27235  10.083   9.509   4.917 -0.1879 -0.2209  0.1695
  198MOL0     C27236   9.963   9.580   4.935  0.3122 -0.4942 -0.0526
  198MOL0     N27237   9.656  10.110   4.851  0.1819 -0.5366 -0.1395
  198MOL0     N27238   9.590  10.141   4.745 -0.3393 -0.2345 -0.3361
  198MOL0     C27239   8.352   9.896   4.599 -0.4238  0.0364 -0.2751
  198MOL0     C27240   8.232   9.833   4.638 -1.3294 -1.4973 -0.1823
  198MOL0     C27241   7.899   9.754   4.936 -0.9960  0.8194  0.1501
  198MOL0     C27242   7.816   9.870   4.940  0.1430 -0.3144  0.0070
  198MOL0     C27243   7.718   9.881   5.038 -0.1812 -0.2180 -0.7259
  198MOL0     C27244   7.697   9.783   5.133 -0.0916 -0.6817  1.0761
  198MOL0     O27245   7.605   9.817   5.231  0.3125 -0.6352  0.6769
  198MOL0     C27246   7.598   9.728   5.342  0.6981  0.7196 -0.6918
  198MOL0     C27247   7.519   9.780   5.460 -0.4130  0.4133  0.1525
  198MOL0     C27248   7.373   9.739   5.444 -0.2459 -0.1713 -0.2826
  198MOL0     C27249   7.297   9.797   5.564 -1.2922  0.4029 -0.3831
  198MOL0     C27250   7.157   9.753   5.553 -0.1202 -0.7807 -0.1353
  198MOL0     C27251   7.037   9.728   5.541  0.7296 -0.4150  0.0166
  198MOL0     C27252   7.765   9.661   5.121  0.5275  0.3694 -0.1345
  198MOL0     C27253   7.870   9.649   5.022  0.0034  0.4498  0.1812
  198MOL0     C27254   7.935   9.511   5.018 -0.1405 -0.1423 -0.5346
  198MOL0     H27255   8.128  10.081   4.856  0.4575  0.0445 -0.4561
  198MOL0     H27256   8.338  10.174   4.798 -1.3983 -0.8121  1.3021
  198MOL0     H27257   8.482  10.258   4.664 -0.5409 -2.0965  1.6789
  198MOL0     H27258   8.432  10.221   4.494 -0.3456  2.4157  1.2291
  198MOL0     H27259   8.684  10.183   4.440  2.1646 -2.3137  2.4224
  198MOL0     H27260   8.630  10.349   4.482 -3.8411 -0.0434  1.0002
  198MOL0     H27261   8.710  10.332   4.700 -2.2557  0.6473 -2.2403
  198MOL0     H27262   8.729  10.154   4.689 -2.3028 -1.6706 -2.3386
  198MOL0     H27263   8.902  10.214   4.495  2.0975  3.6377 -2.3005
  198MOL0     H27264   8.910  10.375   4.558  1.2823  0.5311  0.5009
  198MOL0     H27265   8.979  10.109   4.709 -0.3482  0.6546  2.9057
  198MOL0     H27266   8.972  10.274   4.777 -1.3862 -1.7880  1.1879
  198MOL0     H27267   9.159  10.211   4.542 -0.4859  1.3243 -0.4485
  198MOL0     H27268   9.132  10.363   4.632 -2.6600  0.2767  1.9914
  198MOL0     H27269   9.227  10.116   4.769  1.1876  0.4344  1.0603
  198MOL0     H27270   9.215  10.274   4.832  2.7310  1.5020 -0.2889
  198MOL0     H27271   9.397  10.224   4.602 -2.5791 -1.8740 -0.0660
  198MOL0     H27272   9.374  10.366   4.699 -2.1031 -0.6026 -2.0087
  198MOL0     H27273   9.382  10.247   4.988  0.0783 -0.5213  1.0646
  198MOL0     H27274   9.512  10.074   5.153 -0.2783  1.0696 -0.3504
  198MOL0     H27275   9.647  10.180   5.145 -2.4879 -0.4058  3.2157
  198MOL0     H27276   9.787  10.000   5.028  0.1598 -0.6035 -1.3585
  198MOL0     H27277   9.750   9.965   5.196 -2.1511  1.4041  0.2089
  198MOL0     H27278   9.577   9.824   5.140 -0.0015  1.6724  0.6781
  198MOL0     H27279   9.577   9.857   4.967  0.7425 -2.4274 -0.0391
  198MOL0     H27280   9.811   9.734   5.111 -2.0833  1.5207  1.7109
  198MOL0     H27281   9.699   9.649   5.009 -0.8398  0.0110 -0.3024
  198MOL0     H27282   9.956   9.789   4.684 -0.8253 -0.4925  0.4931
  198MOL0     H27283  10.196   9.816   4.583  0.6419 -0.6024 -2.7783
  198MOL0     H27284  10.157   9.661   4.509  0.8273  2.4027 -1.7427
  198MOL0     H27285  10.301   9.678   4.609  1.0792  2.4588 -1.3887
  198MOL0     H27286  10.552   9.532   4.891  0.7663 -0.1068  4.7586
  198MOL0     H27287  10.773   9.414   4.846  0.6114  0.2246  3.0368
  198MOL0     H27288  10.879   9.247   4.686  0.4721  1.4985  0.8783
  198MOL0     H27289  10.947   9.275   4.844 -1.7958 -1.8448  2.9419
  198MOL0     H27290  11.050   9.055   4.865  1.1195 -1.1502 -0.1976
  198MOL0     H27291  10.986   9.018   4.699  1.1655 -1.3708  0.5410
  198MOL0     H27292  11.225   9.175   4.776 -1.1201  1.7091  0.0738
  198MOL0     H27293  11.134   9.249   4.655 -0.9663  1.0829 -0.5692
  198MOL0     H27294  11.120   8.990   4.554  1.0605 -0.9756 -1.9188
  198MOL0     H27295  11.257   8.971   4.673 -0.5225 -1.4241  0.2457
  198MOL0     H27296  11.263   9.208   4.495 -0.5599 -0.9075 -0.0329
  198MOL0     H27297  11.393   9.119   4.573 -0.3793 -0.3958  0.5058
  198MOL0     H27298  11.251   9.021   4.341  1.1204 -1.0209 -1.2492
  198MOL0     H27299  11.359   8.923   4.441 -0.1320 -0.2746 -1.7782
  198MOL0     H27300  11.491   9.165   4.367 -1.0020  1.0698  1.0740
  198MOL0     H27301  11.394   9.115   4.221 -0.9056  2.5049  1.1323
  198MOL0     H27302  11.598   8.939   4.370  2.2248 -1.3689 -1.2503
  198MOL0     H27303  11.630   9.013   4.213  0.2242  0.0720 -0.8393
  198MOL0     H27304  10.577   9.040   4.892 -0.2725 -1.0343 -2.6002
  198MOL0     H27305  10.349   9.170   4.916 -0.8834  1.2761 -2.2027
  198MOL0     H27306  10.117   9.428   4.981  0.0802 -1.5518 -1.5974
  198MOL0     H27307   9.910   9.558   5.028 -2.7769  1.6375 -1.1431
  198MOL0     H27308   8.413   9.846   4.525 -0.0816  2.1041 -1.4664
  198MOL0     H27309   8.198   9.737   4.598 -0.7306 -1.3391 -1.1169
  198MOL0     H27310   7.816   9.951   4.868  1.3276 -0.3030  0.0020
  198MOL0     H27311   7.652   9.967   5.041 -1.5976 -1.2848  0.7247
  198MOL0     H27312   7.563   9.629   5.313  3.7748 -0.3115 -1.1774
  198MOL0     H27313   7.698   9.702   5.377  0.0081 -0.7902  0.2856
  198MOL0     H27314   7.547   9.885   5.465  1.9885 -0.0355 -1.7510
  198MOL0     H27315   7.562   9.732   5.549 -1.0111 -0.9232 -0.2581
  198MOL0     H27316   7.318   9.778   5.358 -1.9186 -1.8912 -0.0385
  198MOL0     H27317   7.361   9.631   5.438 -3.3937  0.1694 -2.2270
  198MOL0     H27318   7.322   9.903   5.558  1.5426 -0.1487 -0.1458
  198MOL0     H27319   7.343   9.764   5.658 -2.1002  0.0266 -0.1150
  198MOL0     H27320   6.933   9.705   5.544  0.7634 -0.6527 -0.4896
  198MOL0     H27321   7.731   9.572   5.174  2.1149 -0.5447 -0.6021
  198MOL0     H27322   8.039   9.505   5.052  0.2698  1.9469 -1.2305
  198MOL0     H27323   7.882   9.443   5.084  1.4669 -1.1707 -0.2428
  198MOL0     H27324   7.927   9.467   4.918 -2.4417 -0.6609 -0.1548
  199MOL0     O27325   5.964   7.931   0.093  0.7919  0.0985  0.7017
  199MOL0     C27326   5.949   7.881  -0.018 -0.3997 -0.2169 -0.0089
  199MOL0     O27327   6.053   7.850  -0.102  0.1983 -0.2327  0.2258
  199MOL0     C27328   6.174   7.891  -0.060 -0.1568  0.2383  0.4765
  199MOL0     C27329   6.244   7.983  -0.138 -0.1704 -0.4792 -0.8728
  199MOL0     C27330   6.372   8.029  -0.091  0.2880  0.1173 -0.2234
  199MOL0     C27331   6.430   7.986   0.030  0.4811  1.4233  0.8045
  199MOL0     O27332   6.547   8.032   0.074  0.3612  0.1128 -0.4798
  199MOL0     C27333   6.551   8.081   0.206  0.8899  0.6301 -0.1831
  199MOL0     C27334   6.696   8.095   0.250  0.2281  0.7409  0.7905
  199MOL0     C27335   6.732   8.163   0.379 -0.5765  0.5884  0.0741
  199MOL0     C27336   6.664   8.096   0.506 -0.3899  0.4451  0.0113
  199MOL0     C27337   6.751   8.118   0.631 -0.4194  1.0291 -0.5847
  199MOL0     C27338   6.764   8.268   0.665 -1.2759  0.2837  0.2608
  199MOL0     C27339   6.829   8.287   0.799 -0.6956  0.1122 -0.9185
  199MOL0     C27340   6.826   8.437   0.838 -1.0482 -0.0737 -0.1118
  199MOL0     N27341   6.947   8.506   0.784  0.4538 -0.4808 -0.7179
  199MOL0     C27342   6.942   8.581   0.674 -0.3289  0.0588 -0.8805
  199MOL0     C27343   7.065   8.589   0.621 -0.5272 -0.6032  0.0085
  199MOL0     C27344   7.131   8.649   0.497 -0.1477 -0.2585 -0.4824
  199MOL0     C27345   7.070   8.589   0.366 -0.8458 -1.0083 -0.1461
  199MOL0     C27346   7.067   8.431   0.368 -0.1731 -0.7102  0.8299
  199MOL0     C27347   7.083   8.361   0.232  0.8398  0.4263  0.0298
  199MOL0     O27348   7.210   8.399   0.194 -0.1255  0.2495 -0.0605
  199MOL0     C27349   7.265   8.381   0.070  0.0706  0.4534  0.0078
  199MOL0     C27350   7.356   8.474   0.019 -0.1927 -0.4402 -0.2221
  199MOL0     C27351   7.425   8.452  -0.104  0.0751 -0.0063  0.6846
  199MOL0     C27352   7.538   8.552  -0.137 -0.5519  0.0491  0.9788
  199MOL0     C27353   7.390   8.330  -0.172 -0.0384 -0.8303  0.0708
  199MOL0     C27354   7.448   8.291  -0.296 -0.2630  0.4952 -0.5943
  199MOL0     O27355   7.453   8.153  -0.311  0.5377  0.6720 -0.4451
  199MOL0     C27356   7.505   8.109  -0.429 -0.5992 -0.2258 -0.7497
  199MOL0     C27357   7.458   8.148  -0.555 -0.7468 -0.4058 -0.2630
  199MOL0     C27358   7.522   8.107  -0.670 -0.1962  0.0013  0.5612
  199MOL0     C27359   7.634   8.027  -0.658 -1.0083  0.4818  0.1113
  199MOL0     O27360   7.706   7.984  -0.770  0.4785  0.0855 -0.1611
  199MOL0     C27361   7.790   8.085  -0.822  0.5839 -0.5727  0.2797
  199MOL0     C27362   7.896   8.027  -0.917  0.1560 -0.0552 -0.8819
  199MOL0     C27363   7.854   7.989  -1.062  0.5902 -0.1799 -0.1246
  199MOL0     C27364   7.962   7.930  -1.143  0.3384  0.6271  0.1052
  199MOL0     C27365   7.920   7.833  -1.249  0.3987  0.1775  0.8513
  199MOL0     C27366   7.803   7.891  -1.327 -0.5151  0.3692  0.6563
  199MOL0     C27367   7.777   7.799  -1.449 -0.0728 -0.3739  0.4366
  199MOL0     C27368   7.661   7.854  -1.529  0.5452  0.0992  0.0395
  199MOL0    Cl27369   7.677   8.018  -1.618 -0.0089  0.0503 -0.2723
  199MOL0     C27370   7.678   7.982  -0.533 -0.4704  0.1094 -0.0015
  199MOL0     C27371   7.621   8.019  -0.418 -0.3612 -0.1092  0.5544
  199MOL0     O27372   7.485   8.366  -0.385 -0.1810 -0.1701  0.3145
  199MOL0     C27373   7.288   8.249  -0.125 -0.6675 -0.3596  0.0311
  199MOL0     C27374   7.231   8.273  -0.005  0.3711  0.1723  0.3224
  199MOL0     N27375   7.146   8.534   0.717  0.1875  0.1263  0.1096
  199MOL0     N27376   7.075   8.484   0.811 -0.3025  0.2734 -0.5319
  199MOL0     C27377   6.355   7.892   0.105  0.3363  0.0070 -0.6254
  199MOL0     C27378   6.228   7.848   0.057 -0.4987 -0.0920 -0.0340
  199MOL0     C27379   5.807   7.860  -0.058 -0.2641  0.6598  0.7434
  199MOL0     C27380   5.801   7.817  -0.196  0.2626  0.6865 -0.1425
  199MOL0     C27381   5.682   7.778  -0.260  0.8334 -0.2580 -0.6620
  199MOL0     C27382   5.556   7.799  -0.197 -0.3536  0.2689  0.1333
  199MOL0     O27383   5.443   7.764  -0.267  0.6208 -0.8623 -0.4175
  199MOL0     C27384   5.307   7.790  -0.214 -0.8236  0.6441  0.2216
  199MOL0     C27385   5.194   7.733  -0.303  0.2187 -0.3621 -0.6633
  199MOL0     C27386   5.207   7.582  -0.296 -0.8178  0.8541  0.3969
  199MOL0     C27387   5.095   7.495  -0.350 -0.0544  0.3700 -0.2916
  199MOL0     C27388   4.960   7.558  -0.346 -0.2446  0.0121 -0.8081
  199MOL0     C27389   4.842   7.590  -0.327  0.4985 -1.7895  0.6868
  199MOL0     C27390   5.569   7.829  -0.059 -0.1355  0.3292 -0.0445
  199MOL0     C27391   5.688   7.865   0.015 -0.2480  0.3391  0.3953
  199MOL0     C27392   5.689   7.884   0.158  0.6336  0.2869  0.7934
  199MOL0     H27393   6.203   8.014  -0.234 -1.5351 -0.4643 -0.3073
  199MOL0     H27394   6.423   8.109  -0.145 -1.7304  0.4346 -1.8137
  199MOL0     H27395   6.503   8.017   0.281  0.4319  0.9486 -0.2012
  199MOL0     H27396   6.494   8.173   0.197  0.2008  0.1488 -0.9271
  199MOL0     H27397   6.741   7.995   0.256 -0.6087  0.2745 -0.4316
  199MOL0     H27398   6.754   8.136   0.168  1.2759 -2.2859 -0.1168
  199MOL0     H27399   6.841   8.155   0.379 -0.4348  1.7916 -1.8503
  199MOL0     H27400   6.692   8.265   0.382 -0.0276  0.7887  1.3490
  199MOL0     H27401   6.565   8.142   0.516 -0.5208  0.5810 -1.7484
  199MOL0     H27402   6.642   7.991   0.486 -0.8251  0.6863 -0.8071
  199MOL0     H27403   6.847   8.075   0.601 -0.5046  0.6173 -0.2774
  199MOL0     H27404   6.726   8.056   0.718 -0.0416 -0.4082 -1.4633
  199MOL0     H27405   6.828   8.312   0.587  1.8903 -3.4161  0.5015
  199MOL0     H27406   6.664   8.313   0.667 -2.1745 -1.6386  0.1516
  199MOL0     H27407   6.936   8.261   0.794  1.4113  6.2677  2.0142
  199MOL0     H27408   6.778   8.233   0.879 -3.0545  1.9164 -1.0958
  199MOL0     H27409   6.732   8.486   0.812 -2.0982  0.7092  4.3693
  199MOL0     H27410   6.846   8.444   0.945  2.4158 -0.7805 -0.6107
  199MOL0     H27411   6.849   8.618   0.632 -0.6859 -0.8854 -0.9547
  199MOL0     H27412   7.238   8.637   0.515 -0.7396 -1.0283  3.3094
  199MOL0     H27413   7.101   8.753   0.484 -0.8943 -0.6615 -2.3882
  199MOL0     H27414   6.970   8.633   0.353 -3.2107 -5.0251  2.3240
  199MOL0     H27415   7.136   8.625   0.287 -1.3060  0.9081  0.2801
  199MOL0     H27416   7.148   8.408   0.438 -0.1797  0.1013  1.1144
  199MOL0     H27417   6.971   8.395   0.407 -1.5704  1.1202 -0.7432
  199MOL0     H27418   7.072   8.253   0.236  5.4322 -0.3815 -2.5511
  199MOL0     H27419   7.018   8.411   0.160 -0.5050 -1.7573 -0.3483
  199MOL0     H27420   7.375   8.563   0.079 -2.2594 -1.7507  2.5522
  199MOL0     H27421   7.546   8.645  -0.079  0.1432  1.4389 -1.2138
  199MOL0     H27422   7.537   8.585  -0.241 -1.3790  0.9576  1.2592
  199MOL0     H27423   7.630   8.500  -0.108  0.4097  0.2768 -1.4325
  199MOL0     H27424   7.371   8.211  -0.568 -1.2087 -1.1160 -0.6681
  199MOL0     H27425   7.471   8.136  -0.762 -1.0676  0.5814  1.2084
  199MOL0     H27426   7.726   8.161  -0.869  0.3248  0.3533  2.0455
  199MOL0     H27427   7.844   8.121  -0.734  1.1113  0.2740 -0.3629
  199MOL0     H27428   7.970   8.107  -0.914 -1.3523  1.5761  4.3831
  199MOL0     H27429   7.919   7.935  -0.863 -1.3006  0.0348 -0.0390
  199MOL0     H27430   7.810   8.072  -1.118 -0.0986 -1.3196 -1.3411
  199MOL0     H27431   7.762   7.930  -1.057  1.5889 -1.6932  1.2255
  199MOL0     H27432   8.031   7.882  -1.073 -1.1340  0.5511  1.5574
  199MOL0     H27433   8.010   8.018  -1.187 -3.0010  1.5759 -2.0143
  199MOL0     H27434   8.004   7.808  -1.314 -0.2037 -1.1029  0.5277
  199MOL0     H27435   7.877   7.739  -1.215 -2.2049 -0.3093 -3.1016
  199MOL0     H27436   7.810   7.997  -1.353 -2.8920  0.6474  0.9879
  199MOL0     H27437   7.719   7.872  -1.259  0.0799 -0.1874  1.2646
  199MOL0     H27438   7.754   7.698  -1.414 -0.2645 -1.7288 -3.1407
  199MOL0     H27439   7.863   7.783  -1.515  2.1059  0.2144  2.9680
  199MOL0     H27440   7.570   7.836  -1.470  0.5627 -2.5696 -0.6005
  199MOL0     H27441   7.633   7.783  -1.608 -0.0167 -0.6087  0.8482
  199MOL0     H27442   7.767   7.920  -0.524  0.7614  1.3574 -2.6368
  199MOL0     H27443   7.652   7.974  -0.325 -4.0687 -0.7486  1.6517
  199MOL0     H27444   7.244   8.172  -0.188 -3.2351  1.2276 -0.2518
  199MOL0     H27445   7.162   8.196   0.028  0.5659 -0.0336  0.2495
  199MOL0     H27446   6.397   7.853   0.197 -0.0410  0.4164 -0.2749
  199MOL0     H27447   6.177   7.774   0.119 -0.4259 -0.8070 -0.8076
  199MOL0     H27448   5.891   7.804  -0.255  0.6922  1.5103  0.3012
  199MOL0     H27449   5.696   7.753  -0.365 -1.1334 -1.4901 -0.6962
  199MOL0     H27450   5.298   7.740  -0.117  0.9766  2.7071  1.5527
  199MOL0     H27451   5.274   7.894  -0.203 -2.5766  0.2146 -0.6513
  199MOL0     H27452   5.192   7.766  -0.408  0.5073 -0.9274 -0.8481
  199MOL0     H27453   5.100   7.761  -0.253  1.3510 -0.4953  1.6494
  199MOL0     H27454   5.301   7.552  -0.343 -0.1914  0.7419  1.6662
  199MOL0     H27455   5.216   7.552  -0.191  3.4222 -0.3602 -0.1284
  199MOL0     H27456   5.090   7.396  -0.302  2.9469  0.1809 -0.1752
  199MOL0     H27457   5.117   7.475  -0.455  1.4347  0.0174  0.0548
  199MOL0     H27458   4.743   7.627  -0.307  0.6636 -1.4921  0.9533
  199MOL0     H27459   5.477   7.839  -0.001 -0.5777  1.2290 -0.8803
  199MOL0     H27460   5.588   7.917   0.186  0.1516  0.0013 -0.5318
  199MOL0     H27461   5.728   7.800   0.216  2.4662  1.0877  0.7857
  199MOL0     H27462   5.746   7.976   0.175  0.6607  0.8201 -1.8192
  200MOL0     O27463   9.464   5.331   8.447 -0.2083  0.2913 -0.2364
  200MOL0     C27464   9.414   5.333   8.559 -0.6141 -0.9552 -0.3604
  200MOL0     O27465   9.471   5.318   8.679  0.7354 -0.6086  0.5358
  200MOL0     C27466   9.604   5.343   8.688 -0.2339  0.6834 -0.4226
  200MOL0     C27467   9.655   5.459   8.738 -0.0944 -1.0644 -0.1293
  200MOL0     C27468   9.787   5.474   8.765 -0.3880 -0.1671  0.5597
  200MOL0     C27469   9.879   5.372   8.757  1.2893  0.5989  0.6187
  200MOL0     O27470  10.002   5.398   8.792 -0.2230  0.3771 -0.3815
  200MOL0     C27471  10.122   5.314   8.761 -0.5206 -0.0750  0.2521
  200MOL0     C27472  10.240   5.398   8.812 -0.6444  0.3043 -0.0942
  200MOL0     C27473  10.367   5.320   8.797 -0.8224 -0.1074  0.5525
  200MOL0     C27474  10.493   5.410   8.817 -0.3535  0.0347  0.3424
  200MOL0     C27475  10.627   5.355   8.803 -0.1389 -0.4172  0.4500
  200MOL0     C27476  10.735   5.463   8.765  0.0122 -0.7296 -0.2806
  200MOL0     C27477  10.876   5.409   8.789 -1.1014 -0.0334 -0.3398
  200MOL0     C27478  10.983   5.516   8.739 -0.5537 -0.3833  0.3899
  200MOL0     N27479  11.118   5.483   8.795  0.4732  0.3449  0.3308
  200MOL0     C27480  11.160   5.508   8.922 -0.3206 -0.2135 -0.3455
  200MOL0     C27481  11.288   5.455   8.929 -0.1272 -0.0605  0.7748
  200MOL0     C27482  11.393   5.440   9.038 -0.4112 -0.3062 -0.5189
  200MOL0     C27483  11.398   5.561   9.126 -0.1866 -0.1282 -0.0311
  200MOL0     C27484  11.456   5.684   9.054  0.6063  0.2281  0.9247
  200MOL0     C27485  11.600   5.675   9.007 -0.6596 -0.4904 -0.0328
  200MOL0     O27486  11.695   5.620   9.102  0.9881 -0.2514 -0.0873
  200MOL0     C27487  11.826   5.591   9.073 -0.4782  0.0186 -0.4902
  200MOL0     C27488  11.927   5.598   9.176  0.0858 -0.7900 -0.5132
  200MOL0     C27489  12.058   5.558   9.157 -0.4934 -0.3108 -0.5637
  200MOL0     C27490  12.144   5.551   9.278  0.0928  0.5205  0.6963
  200MOL0     C27491  12.099   5.513   9.033 -0.0534  0.5686 -0.8955
  200MOL0     C27492  12.236   5.468   8.995  0.8014  0.0023  0.1344
  200MOL0     O27493  12.259   5.463   8.858 -0.1026  0.3074  0.1581
  200MOL0     C27494  12.370   5.389   8.822  0.3770  0.1861 -0.1756
  200MOL0     C27495  12.498   5.437   8.839  0.4506 -0.3189  0.8429
  200MOL0     C27496  12.614   5.355   8.819  0.0896 -0.5139  0.2099
  200MOL0     C27497  12.597   5.222   8.778 -0.0311  0.2625  0.1172
  200MOL0     O27498  12.708   5.140   8.763  0.6348 -0.3672  0.6225
  200MOL0     C27499  12.834   5.182   8.817  0.5658  0.2452  0.4530
  200MOL0     C27500  12.934   5.077   8.782 -0.9999  0.4691 -0.0552
  200MOL0     C27501  12.898   4.935   8.829  0.2759  0.5688 -0.9041
  200MOL0     C27502  12.859   4.930   8.982  0.6129  0.1848 -0.3606
  200MOL0     C27503  12.892   4.791   9.038  0.5083  0.6556  0.6317
  200MOL0     C27504  13.038   4.799   9.087  0.7142  0.2629  0.1422
  200MOL0     C27505  13.088   4.646   9.088  0.1174 -0.0358 -0.8796
  200MOL0     C27506  13.047   4.574   9.218  0.6398  0.3035  0.7063
  200MOL0    Cl27507  12.991   4.411   9.146 -0.2576 -0.2051 -0.0324
  200MOL0     C27508  12.471   5.170   8.778  0.9422 -0.6850 -0.7784
  200MOL0     C27509  12.354   5.252   8.788 -0.3652  0.9831 -1.1342
  200MOL0     O27510  12.323   5.444   9.077 -0.3454 -0.1413 -0.1024
  200MOL0     C27511  12.002   5.505   8.926  0.7587  1.4781  0.4856
  200MOL0     C27512  11.874   5.547   8.947  0.6011  0.8785  0.3593
  200MOL0     N27513  11.314   5.404   8.807 -0.0811 -0.1128  0.5853
  200MOL0     N27514  11.214   5.416   8.729 -0.6935 -0.4676 -0.4231
  200MOL0     C27515   9.827   5.246   8.717 -1.0372  0.1800  0.1371
  200MOL0     C27516   9.689   5.230   8.693  0.3599  0.3993  0.4356
  200MOL0     C27517   9.264   5.311   8.578  0.2728  1.1504  0.1104
  200MOL0     C27518   9.204   5.225   8.482 -0.0755  0.4322 -0.0456
  200MOL0     C27519   9.071   5.185   8.497  0.2745 -0.7322  0.0828
  200MOL0     C27520   8.992   5.234   8.598  0.6096 -1.0405  0.2494
  200MOL0     O27521   8.859   5.206   8.620  0.5752  0.3838  0.1190
  200MOL0     C27522   8.767   5.275   8.541 -0.1200 -0.2919  0.9831
  200MOL0     C27523   8.710   5.185   8.431  1.1235 -0.3519  0.0111
  200MOL0     C27524   8.575   5.131   8.475  0.2442 -0.7104  0.1233
  200MOL0     C27525   8.487   5.114   8.353 -0.0520 -0.4748 -1.0601
  200MOL0     C27526   8.363   5.047   8.390  0.0568  0.5069 -0.6281
  200MOL0     C27527   8.273   4.985   8.429 -0.4669  0.7530  0.0120
  200MOL0     C27528   9.042   5.323   8.686  0.0602  0.3364  0.3122
  200MOL0     C27529   9.179   5.353   8.679 -0.2520  0.4254 -0.5958
  200MOL0     C27530   9.230   5.465   8.772  0.7385 -0.5932  0.1823
  200MOL0     H27531   9.588   5.545   8.733  2.0829  0.7090 -0.5240
  200MOL0     H27532   9.823   5.573   8.792  1.0323 -0.7002  0.6976
  200MOL0     H27533  10.123   5.286   8.655 -0.3873  0.7264  0.0326
  200MOL0     H27534  10.115   5.220   8.815 -2.8706  0.9752  1.9389
  200MOL0     H27535  10.246   5.491   8.756 -1.5225  1.4860  1.6826
  200MOL0     H27536  10.227   5.419   8.919 -1.0989 -1.2149  0.1817
  200MOL0     H27537  10.358   5.245   8.875 -0.9462 -0.9289 -0.2333
  200MOL0     H27538  10.367   5.270   8.700 -0.9471  0.5706  0.1937
  200MOL0     H27539  10.488   5.487   8.740  0.5318 -0.3713 -0.1342
  200MOL0     H27540  10.484   5.464   8.911 -2.3137  1.4177 -0.5588
  200MOL0     H27541  10.634   5.282   8.722  0.7664  0.2221 -0.0624
  200MOL0     H27542  10.660   5.311   8.897  0.7763 -1.7174 -0.4537
  200MOL0     H27543  10.729   5.493   8.660  0.6021 -1.3723 -0.5074
  200MOL0     H27544  10.722   5.555   8.822  0.9339 -0.4669 -0.4694
  200MOL0     H27545  10.892   5.317   8.731  2.4080  1.4001 -1.9176
  200MOL0     H27546  10.894   5.388   8.895  0.5279  0.9937 -0.3944
  200MOL0     H27547  10.992   5.516   8.630  2.0248 -0.4515  0.5390
  200MOL0     H27548  10.958   5.620   8.763 -2.2045 -1.1159  2.0385
  200MOL0     H27549  11.094   5.566   8.985  0.6584  0.8309 -0.2571
  200MOL0     H27550  11.488   5.409   8.993  0.0230 -1.6016  1.1753
  200MOL0     H27551  11.357   5.358   9.101  0.9412  1.2854  2.5121
  200MOL0     H27552  11.301   5.592   9.167  0.0183  0.2891  0.1485
  200MOL0     H27553  11.461   5.548   9.214 -1.1768  4.0257  1.5162
  200MOL0     H27554  11.384   5.710   8.977 -0.0012 -2.3798  0.5160
  200MOL0     H27555  11.460   5.765   9.128  0.9042 -0.1268  1.3053
  200MOL0     H27556  11.601   5.621   8.912 -2.9004  1.2880 -1.1626
  200MOL0     H27557  11.635   5.778   8.995  2.5480 -1.2819  1.4058
  200MOL0     H27558  11.894   5.642   9.270 -0.2554 -0.6855 -0.6788
  200MOL0     H27559  12.180   5.448   9.291 -1.0126 -0.3326 -2.2045
  200MOL0     H27560  12.089   5.595   9.362 -1.4761  0.0942 -0.0722
  200MOL0     H27561  12.229   5.611   9.244  1.0662 -1.9966 -1.6991
  200MOL0     H27562  12.511   5.538   8.876  3.0569 -0.5206  0.6753
  200MOL0     H27563  12.712   5.399   8.818 -0.5939  1.0682  0.3900
  200MOL0     H27564  12.878   5.272   8.771  0.5918  0.4730  0.9237
  200MOL0     H27565  12.821   5.191   8.925 -0.3939 -2.4076  0.6332
  200MOL0     H27566  12.931   5.072   8.673 -0.8055  0.1497 -0.0462
  200MOL0     H27567  13.036   5.099   8.815 -0.2530  1.5494 -2.8326
  200MOL0     H27568  12.984   4.869   8.812  1.4550  1.9488 -0.4781
  200MOL0     H27569  12.810   4.900   8.773 -0.5411 -1.2593  1.3438
  200MOL0     H27570  12.752   4.955   8.990  0.3345 -1.0562  0.0363
  200MOL0     H27571  12.913   5.002   9.044  1.4221  0.2434 -1.1139
  200MOL0     H27572  12.825   4.765   9.120 -1.7235  3.1152 -0.2447
  200MOL0     H27573  12.875   4.717   8.959  1.9377  1.9227 -0.9606
  200MOL0     H27574  13.045   4.847   9.185 -1.5045  0.9740  0.0203
  200MOL0     H27575  13.097   4.863   9.022 -0.4755  2.1906  0.8714
  200MOL0     H27576  13.196   4.654   9.099 -0.0091 -0.1260  0.4847
  200MOL0     H27577  13.060   4.597   8.994  1.4084  0.2850 -1.4627
  200MOL0     H27578  12.963   4.633   9.256  1.3474  1.7257  0.1353
  200MOL0     H27579  13.127   4.558   9.292 -1.3220 -3.6631  2.2614
  200MOL0     H27580  12.469   5.062   8.764  0.9208 -1.2759  2.8289
  200MOL0     H27581  12.260   5.197   8.788  0.4799 -0.6276  1.0885
  200MOL0     H27582  12.026   5.468   8.827  1.3505  2.5963  0.1874
  200MOL0     H27583  11.801   5.547   8.868 -0.2020 -0.5170  1.0688
  200MOL0     H27584   9.898   5.164   8.721 -0.2048  0.8755 -0.0358
  200MOL0     H27585   9.657   5.129   8.670 -0.0957  0.5121  0.5609
  200MOL0     H27586   9.253   5.210   8.387 -2.9777  1.6265 -1.8665
  200MOL0     H27587   9.018   5.138   8.414  0.0802  0.8523 -0.7244
  200MOL0     H27588   8.697   5.328   8.605  1.4578  1.6153  1.2157
  200MOL0     H27589   8.815   5.352   8.480 -2.1341  0.8144  0.7021
  200MOL0     H27590   8.778   5.101   8.413  1.2914 -0.1983 -0.0654
  200MOL0     H27591   8.702   5.240   8.337  0.9991 -0.4408 -0.0306
  200MOL0     H27592   8.589   5.037   8.529  1.1368 -0.0622  1.0772
  200MOL0     H27593   8.527   5.202   8.543  0.7856  0.2585 -0.4701
  200MOL0     H27594   8.545   5.052   8.284 -0.1380  0.0833 -1.6433
  200MOL0     H27595   8.464   5.211   8.308 -0.8225 -0.6131 -0.9761
  200MOL0     H27596   8.209   4.908   8.466 -0.9713  1.7372  1.2579
  200MOL0     H27597   8.982   5.364   8.766 -1.5589  0.5244 -0.9521
  200MOL0     H27598   9.311   5.422   8.832  3.0427  2.6090 -0.3631
  200MOL0     H27599   9.279   5.543   8.714 -1.0959 -0.2509 -0.9865
  200MOL0     H27600   9.148   5.505   8.832  1.1342  1.4289 -0.5613
  201MOL0     O27601  10.063   8.214   9.865  0.2982 -0.1444  0.4510
  201MOL0     C27602  10.000   8.172   9.761 -0.7442  0.5301 -0.4138
  201MOL0     O27603  10.059   8.132   9.649 -0.0129 -0.2487 -0.8211
  201MOL0     C27604  10.193   8.095   9.663  0.0967 -0.3341  0.4281
  201MOL0     C27605  10.251   8.018   9.760 -0.1746 -1.1277 -0.4755
  201MOL0     C27606  10.383   7.975   9.756  0.7948  0.8482  0.0138
  201MOL0     C27607  10.468   8.004   9.651  0.5549  0.0186 -0.4234
  201MOL0     O27608  10.596   7.959   9.660  0.2892 -0.4285  0.2404
  201MOL0     C27609  10.681   7.967   9.544  0.9542 -0.2824  0.0607
  201MOL0     C27610  10.806   7.890   9.551 -0.0876  0.1755 -0.5127
  201MOL0     C27611  10.881   7.895   9.420  0.5264 -0.4299 -0.4300
  201MOL0     C27612  11.011   7.822   9.443 -0.4164  0.2299  0.2464
  201MOL0     C27613  11.104   7.851   9.328  0.2843  0.0485 -0.3658
  201MOL0     C27614  11.237   7.784   9.359  0.1710 -0.3595  0.0880
  201MOL0     C27615  11.338   7.810   9.238 -0.4070  0.2966  0.1995
  201MOL0     C27616  11.477   7.777   9.291  0.8675 -0.5108 -1.5456
  201MOL0     N27617  11.573   7.850   9.211 -0.0756  0.6915 -0.1308
  201MOL0     C27618  11.604   7.984   9.218  0.2117  0.3030 -0.0984
  201MOL0     C27619  11.687   8.007   9.114 -0.3031  0.6757 -0.0014
  201MOL0     C27620  11.742   8.152   9.086 -0.2878 -0.0951 -0.2476
  201MOL0     C27621  11.891   8.147   9.054 -0.6123 -0.8769 -0.0505
  201MOL0     C27622  11.956   8.285   9.022  0.3677 -0.1457  0.2189
  201MOL0     C27623  12.102   8.274   9.055  0.9352 -0.6268  0.0327
  201MOL0     O27624  12.166   8.397   9.022 -0.1758 -0.2449 -0.5469
  201MOL0     C27625  12.304   8.389   9.022 -0.1687 -0.3361  0.5905
  201MOL0     C27626  12.400   8.282   9.041  0.9876 -0.5213  0.5924
  201MOL0     C27627  12.537   8.300   9.029  0.5407  0.5046  0.0114
  201MOL0     C27628  12.617   8.169   9.042  0.4582 -0.0208  1.2072
  201MOL0     C27629  12.590   8.428   9.016  0.1927  0.3990  0.4850
  201MOL0     C27630  12.740   8.455   9.001  0.2437 -1.1111  0.8132
  201MOL0     O27631  12.775   8.577   8.952  0.2856 -0.0113  0.4142
  201MOL0     C27632  12.910   8.605   8.954  0.7685 -0.6997  0.5526
  201MOL0     C27633  12.986   8.575   8.845 -0.3740  0.3283  0.4089
  201MOL0     C27634  13.123   8.599   8.842  0.2076 -0.0009 -0.4108
  201MOL0     C27635  13.185   8.654   8.948  0.0937  0.4425 -0.9359
  201MOL0     O27636  13.317   8.671   8.944 -1.0997 -0.2703 -0.1709
  201MOL0     C27637  13.386   8.544   8.955 -0.0242  0.0213 -0.6822
  201MOL0     C27638  13.531   8.566   8.935 -0.1581  0.0519  0.6929
  201MOL0     C27639  13.608   8.438   8.903  0.6519  0.3887 -0.1168
  201MOL0     C27640  13.758   8.474   8.927  0.1808  1.0688  0.6419
  201MOL0     C27641  13.842   8.350   8.876  0.1244 -0.4889  0.4525
  201MOL0     C27642  13.978   8.331   8.947  0.0686 -0.8591 -0.4510
  201MOL0     C27643  14.065   8.445   8.977  0.1648 -0.1922 -0.5372
  201MOL0     C27644  14.192   8.393   9.043  0.6316 -0.3704  0.1024
  201MOL0    Cl27645  14.297   8.531   9.074 -0.0711  0.2620  0.2179
  201MOL0     C27646  13.115   8.685   9.067  0.0950  0.0081  0.0081
  201MOL0     C27647  12.979   8.664   9.068  0.4561 -0.3897  0.6913
  201MOL0     O27648  12.816   8.373   9.053 -0.4403 -0.3688 -0.2548
  201MOL0     C27649  12.497   8.540   9.004  0.4730  0.5639  0.2307
  201MOL0     C27650  12.358   8.518   9.005  0.4695  0.2698 -0.8269
  201MOL0     N27651  11.706   7.886   9.041 -0.4208 -0.1028  0.9809
  201MOL0     N27652  11.636   7.794   9.104 -0.5773  0.2217  0.4158
  201MOL0     C27653  10.408   8.079   9.544 -0.0920  0.3866  0.1040
  201MOL0     C27654  10.277   8.126   9.558 -0.3051 -0.0290  0.5852
  201MOL0     C27655   9.859   8.184   9.758 -0.1340 -0.4649 -0.8392
  201MOL0     C27656   9.790   8.209   9.634 -0.3083 -0.0022  0.7160
  201MOL0     C27657   9.657   8.234   9.626  0.1123  0.3247  0.0322
  201MOL0     C27658   9.588   8.243   9.747  0.6733 -0.3441 -0.0474
  201MOL0     O27659   9.457   8.279   9.745 -0.4501  0.8172 -0.4236
  201MOL0     C27660   9.353   8.201   9.818 -0.6619 -0.1968 -0.9662
  201MOL0     C27661   9.213   8.227   9.761  0.4454 -0.3209  0.2906
  201MOL0     C27662   9.190   8.224   9.610  0.0921 -0.0865 -0.2309
  201MOL0     C27663   9.045   8.269   9.575  0.4074  0.1880  0.4196
  201MOL0     C27664   8.929   8.213   9.646 -0.3256 -0.0957  0.4890
  201MOL0     C27665   8.835   8.170   9.712  0.0861  0.4284  0.0425
  201MOL0     C27666   9.652   8.218   9.868 -0.9135 -0.8350  0.7119
  201MOL0     C27667   9.790   8.181   9.875  0.1968 -0.7221 -0.6271
  201MOL0     C27668   9.838   8.131  10.009  0.0164 -0.3467 -0.2615
  201MOL0     H27669  10.194   7.977   9.843 -0.1078 -0.7321 -0.2307
  201MOL0     H27670  10.440   7.922   9.832  0.3461  0.2212 -0.0759
  201MOL0     H27671  10.711   8.072   9.532 -1.7190  0.8366  2.1707
  201MOL0     H27672  10.632   7.930   9.453  0.1323  0.8181  0.0292
  201MOL0     H27673  10.868   7.945   9.622 -0.6308  1.3212 -0.9128
  201MOL0     H27674  10.790   7.784   9.575  0.6440  0.4091  1.1344
  201MOL0     H27675  10.824   7.837   9.347  1.1788 -1.2616 -0.2885
  201MOL0     H27676  10.893   7.999   9.388 -3.1157  0.5991  0.9856
  201MOL0     H27677  11.057   7.866   9.532  1.7233 -0.1991 -0.5978
  201MOL0     H27678  10.983   7.717   9.455 -2.3395  0.2748 -2.7306
  201MOL0     H27679  11.112   7.958   9.308 -2.5267  0.2346 -0.9423
  201MOL0     H27680  11.055   7.797   9.246 -0.8311 -0.4172  0.5683
  201MOL0     H27681  11.278   7.818   9.455 -0.8710  0.3191  0.3113
  201MOL0     H27682  11.221   7.676   9.368 -1.1525 -0.3345 -1.5677
  201MOL0     H27683  11.329   7.916   9.216 -2.5238  0.6070  2.1601
  201MOL0     H27684  11.309   7.737   9.161  2.6947 -1.3487  0.4574
  201MOL0     H27685  11.485   7.812   9.394  2.2720 -0.4122 -1.6659
  201MOL0     H27686  11.496   7.669   9.290  1.5033 -0.4226 -0.3476
  201MOL0     H27687  11.573   8.056   9.293 -1.2347 -1.7433  1.3917
  201MOL0     H27688  11.735   8.215   9.175  3.7168  1.2657 -0.6838
  201MOL0     H27689  11.686   8.182   8.997 -1.8161  0.8090  0.9561
  201MOL0     H27690  11.936   8.096   9.139 -0.4614 -2.2849 -0.9361
  201MOL0     H27691  11.914   8.095   8.960 -2.3490  2.8648 -2.8266
  201MOL0     H27692  11.949   8.313   8.916  0.6547  1.1932  0.5386
  201MOL0     H27693  11.914   8.368   9.079 -2.2212 -1.0700 -0.2119
  201MOL0     H27694  12.100   8.260   9.163 -2.4986 -1.0956  0.0265
  201MOL0     H27695  12.158   8.193   9.007  4.0455  1.6183 -0.4589
  201MOL0     H27696  12.372   8.179   9.062 -1.9583 -0.4636 -2.2624
  201MOL0     H27697  12.555   8.079   9.046  2.3169 -1.3890  0.4033
  201MOL0     H27698  12.680   8.177   9.131 -0.7157  1.6952  1.9579
  201MOL0     H27699  12.686   8.151   8.960  0.2327 -2.8857  1.5723
  201MOL0     H27700  12.931   8.543   8.757  0.7255  1.6017 -0.7687
  201MOL0     H27701  13.181   8.568   8.755  0.8976  0.2151 -0.0375
  201MOL0     H27702  13.376   8.510   9.059  2.1091 -3.1704 -1.3901
  201MOL0     H27703  13.351   8.477   8.877 -0.6511  0.6719 -0.9714
  201MOL0     H27704  13.540   8.636   8.851 -1.8485 -0.1534  0.3065
  201MOL0     H27705  13.582   8.613   9.020  0.6456 -0.4754  0.5136
  201MOL0     H27706  13.594   8.415   8.797 -0.2146  0.9595 -0.1292
  201MOL0     H27707  13.582   8.350   8.962 -0.7534  2.6960  2.9339
  201MOL0     H27708  13.776   8.486   9.034 -0.4562  2.3611  0.6200
  201MOL0     H27709  13.787   8.572   8.886  0.1308  0.1119 -1.8219
  201MOL0     H27710  13.797   8.254   8.900  0.5297 -0.4004  1.6477
  201MOL0     H27711  13.868   8.363   8.771 -0.7458 -0.7760  0.1912
  201MOL0     H27712  14.029   8.251   8.893  0.1446 -1.4971  0.5389
  201MOL0     H27713  13.965   8.291   9.048  2.2130  0.5834  0.4633
  201MOL0     H27714  14.024   8.525   9.039 -0.5037  1.7937 -3.3232
  201MOL0     H27715  14.097   8.498   8.887  0.0732 -0.2654 -0.6138
  201MOL0     H27716  14.244   8.320   8.980  1.2749  0.2389 -0.0881
  201MOL0     H27717  14.161   8.342   9.134  2.7167  0.1280  1.1499
  201MOL0     H27718  13.150   8.721   9.163  2.8410 -1.6302 -0.2706
  201MOL0     H27719  12.925   8.663   9.162 -2.8180 -1.5629 -1.0559
  201MOL0     H27720  12.532   8.642   8.990 -0.2053  0.6811 -0.6877
  201MOL0     H27721  12.283   8.596   8.998 -2.2586 -1.8298  1.9807
  201MOL0     H27722  10.468   8.114   9.460 -1.0705  0.1466 -0.7131
  201MOL0     H27723  10.240   8.193   9.481  0.5669  1.9591  1.8133
  201MOL0     H27724   9.855   8.220   9.548  0.6175 -0.7957  1.2921
  201MOL0     H27725   9.616   8.249   9.526  0.0904 -1.4661 -0.2672
  201MOL0     H27726   9.370   8.093   9.806  0.0755 -0.1376 -0.4893
  201MOL0     H27727   9.354   8.231   9.923 -0.9521  0.4440 -1.1438
  201MOL0     H27728   9.184   8.329   9.789 -1.7700 -0.4248 -1.3222
  201MOL0     H27729   9.137   8.162   9.807 -1.8157  1.7287 -0.2955
  201MOL0     H27730   9.263   8.286   9.557  1.6586 -0.6409  1.2087
  201MOL0     H27731   9.207   8.123   9.572 -3.7667 -0.6525 -0.9546
  201MOL0     H27732   9.032   8.244   9.469 -0.1970 -0.4644  0.6390
  201MOL0     H27733   9.031   8.377   9.577 -1.7337 -0.0431  0.1107
  201MOL0     H27734   8.768   8.139   9.790  1.5452  0.0474  1.1895
  201MOL0     H27735   9.600   8.230   9.962 -0.0843  2.5259  0.8577
  201MOL0     H27736   9.885   8.209  10.070  3.0210 -2.7197  0.7340
  201MOL0     H27737   9.759   8.075  10.060 -3.5704  2.8868 -1.7965
  201MOL0     H27738   9.919   8.059   9.995  0.5577  0.4064 -1.1637
  202MOL0     O27739   7.022   1.939  10.655 -0.6003 -0.2361 -0.1977
  202MOL0     C27740   6.991   2.048  10.703 -0.3407 -0.6518  0.1467
  202MOL0     O27741   7.063   2.110  10.803 -0.3488  0.2136 -0.6878
  202MOL0     C27742   7.167   2.045  10.859 -0.3000 -0.4845  0.2993
  202MOL0     C27743   7.154   1.995  10.987 -0.5382 -0.1903  0.1758
  202MOL0     C27744   7.268   1.936  11.042  0.0230  0.9913  0.2886
  202MOL0     C27745   7.378   1.910  10.969  0.4343  0.4386 -0.1007
  202MOL0     O27746   7.475   1.844  11.036  0.1564  0.4418  0.9143
  202MOL0     C27747   7.604   1.824  10.984 -0.8197  0.0044 -0.3876
  202MOL0     C27748   7.684   1.811  11.112 -1.1146 -0.0721  0.4208
  202MOL0     C27749   7.678   1.936  11.201 -0.2149 -0.4490 -0.3709
  202MOL0     C27750   7.799   1.951  11.296 -0.3689 -0.5396  0.4057
  202MOL0     C27751   7.922   2.018  11.244 -0.2193  0.1304  0.0951
  202MOL0     C27752   8.048   2.001  11.331 -0.3575  0.4443 -0.2279
  202MOL0     C27753   8.157   2.105  11.317  0.2762 -0.1208 -0.1291
  202MOL0     C27754   8.122   2.254  11.330  0.3271 -0.6272 -0.0451
  202MOL0     N27755   8.254   2.328  11.344  0.2926  0.0996 -0.1210
  202MOL0     C27756   8.332   2.335  11.465 -0.4954  0.2476  0.5452
  202MOL0     C27757   8.437   2.409  11.421  0.2734  0.0018 -0.1166
  202MOL0     C27758   8.555   2.430  11.516 -0.0831  0.6865  0.2547
  202MOL0     C27759   8.622   2.298  11.570 -0.7415 -0.7046  0.2726
  202MOL0     C27760   8.725   2.330  11.673  0.0874 -0.8591 -0.2226
  202MOL0     C27761   8.859   2.367  11.624 -0.2267  0.0036 -0.5624
  202MOL0     O27762   8.955   2.357  11.725  0.5607  0.4385 -0.4146
  202MOL0     C27763   9.083   2.407  11.710  0.1684  0.1997  0.4128
  202MOL0     C27764   9.130   2.435  11.580  0.0328 -0.0127  0.4253
  202MOL0     C27765   9.257   2.492  11.565  1.2336 -0.2322 -0.2011
  202MOL0     C27766   9.296   2.518  11.422 -0.5629 -0.7223  0.8992
  202MOL0     C27767   9.342   2.521  11.671 -0.0728 -0.2453  0.2447
  202MOL0     C27768   9.468   2.593  11.663 -0.2804 -0.0604 -1.1789
  202MOL0     O27769   9.470   2.705  11.746  0.9189  0.0424 -0.3923
  202MOL0     C27770   9.570   2.790  11.732  0.0913 -0.3612  0.6117
  202MOL0     C27771   9.606   2.832  11.605  0.1358  1.4250  0.3212
  202MOL0     C27772   9.719   2.915  11.583 -0.1329 -0.5588  0.0612
  202MOL0     C27773   9.789   2.970  11.692 -0.8405  0.0889  0.3125
  202MOL0     O27774   9.887   3.061  11.658  0.9874  0.0173  0.5241
  202MOL0     C27775   9.868   3.182  11.743 -0.7918 -0.8322  0.7825
  202MOL0     C27776  10.008   3.220  11.798 -0.1252  0.6198  0.0700
  202MOL0     C27777  10.066   3.128  11.900  0.4471 -0.3194  0.7104
  202MOL0     C27778  10.202   3.172  11.954 -0.6251  0.4071  0.8677
  202MOL0     C27779  10.260   3.080  12.059  0.1501  0.7110 -0.2679
  202MOL0     C27780  10.367   3.161  12.135 -0.6264 -0.6078 -0.2509
  202MOL0     C27781  10.430   3.077  12.239 -0.1670 -0.1492  0.2290
  202MOL0     C27782  10.547   3.136  12.315  0.2879  0.4372 -0.0716
  202MOL0    Cl27783  10.495   3.273  12.415  0.3659  0.3229 -0.5471
  202MOL0     C27784   9.756   2.912  11.820 -0.0218  0.6589 -0.5050
  202MOL0     C27785   9.648   2.833  11.842 -0.1453 -0.7122 -0.1361
  202MOL0     O27786   9.548   2.556  11.579  0.1159  0.1979  0.1516
  202MOL0     C27787   9.291   2.498  11.808 -1.0690  0.0560 -0.1534
  202MOL0     C27788   9.172   2.431  11.814  0.0746 -0.1416 -1.5985
  202MOL0     N27789   8.419   2.459  11.296 -0.2975  0.0590 -0.2393
  202MOL0     N27790   8.310   2.415  11.254 -0.2684  0.4791 -0.5747
  202MOL0     C27791   7.392   1.963  10.842  0.5027  0.3736  0.5825
  202MOL0     C27792   7.286   2.034  10.784 -0.9165  0.4475 -0.5286
  202MOL0     C27793   6.865   2.120  10.658 -0.3221  1.3490  1.1293
  202MOL0     C27794   6.795   2.203  10.743 -0.6731 -0.8298 -0.0517
  202MOL0     C27795   6.696   2.288  10.696 -0.3124 -0.1362 -0.0784
  202MOL0     C27796   6.663   2.286  10.563  0.6464  0.9114 -0.8022
  202MOL0     O27797   6.595   2.380  10.501  0.6265 -0.2765  0.2180
  202MOL0     C27798   6.530   2.357  10.377  0.5464  0.7144  0.1665
  202MOL0     C27799   6.435   2.474  10.356  0.5821 -0.3281 -0.4960
  202MOL0     C27800   6.343   2.505  10.474 -0.3335  0.1539  0.0703
  202MOL0     C27801   6.263   2.634  10.453  0.7690 -0.9957  0.4938
  202MOL0     C27802   6.172   2.653  10.570  0.4009  0.7140 -0.3620
  202MOL0     C27803   6.077   2.666  10.645 -0.3171 -0.1723 -0.1239
  202MOL0     C27804   6.724   2.192  10.482  0.7103 -0.9242 -0.3596
  202MOL0     C27805   6.823   2.108  10.519  0.5510 -0.1547 -0.7858
  202MOL0     C27806   6.882   2.018  10.409 -0.6105  1.1209  0.9916
  202MOL0     H27807   7.070   2.014  11.053 -0.6213 -0.1037  0.0445
  202MOL0     H27808   7.263   1.895  11.142  0.0823  0.8610  0.2379
  202MOL0     H27809   7.629   1.912  10.924  0.0316 -0.5369 -0.8471
  202MOL0     H27810   7.606   1.732  10.924 -0.5929 -0.5272  0.4224
  202MOL0     H27811   7.655   1.724  11.171 -1.1790  0.2930  0.9408
  202MOL0     H27812   7.788   1.804  11.077 -0.4232  0.0078  2.3555
  202MOL0     H27813   7.677   2.027  11.140 -1.5304  0.2933  0.6817
  202MOL0     H27814   7.580   1.944  11.250 -0.5451 -2.1060 -0.7227
  202MOL0     H27815   7.763   2.009  11.381 -1.3053 -4.0184  2.5201
  202MOL0     H27816   7.826   1.852  11.333 -1.2689 -0.8556  0.2293
  202MOL0     H27817   7.910   2.127  11.251  1.7927  0.2857  2.7944
  202MOL0     H27818   7.941   1.990  11.140  2.6213 -0.4306  0.6629
  202MOL0     H27819   8.031   2.009  11.439  2.7660  0.8843  0.3448
  202MOL0     H27820   8.100   1.907  11.307  2.2828  1.6587  0.3420
  202MOL0     H27821   8.212   2.089  11.224  0.2203 -2.7804  0.2237
  202MOL0     H27822   8.226   2.088  11.399  1.4744 -3.2033 -1.6166
  202MOL0     H27823   8.071   2.282  11.237 -0.5347 -0.9637  0.3135
  202MOL0     H27824   8.063   2.274  11.420  0.9809 -2.7361  0.9088
  202MOL0     H27825   8.325   2.287  11.561  1.1842 -2.9964 -0.8094
  202MOL0     H27826   8.528   2.495  11.601 -2.0402 -1.7760  1.6646
  202MOL0     H27827   8.633   2.472  11.452 -0.0089 -2.7839 -2.2052
  202MOL0     H27828   8.541   2.242  11.618  0.4829 -1.8741  1.0604
  202MOL0     H27829   8.671   2.241  11.490  1.6361  1.1692  0.2738
  202MOL0     H27830   8.689   2.418  11.727  0.3095 -1.1701  0.4335
  202MOL0     H27831   8.725   2.241  11.736 -2.4240 -0.8533 -0.1320
  202MOL0     H27832   8.893   2.290  11.554  0.4150 -2.2208  2.0142
  202MOL0     H27833   8.845   2.468  11.583 -1.5057  0.6126  1.2863
  202MOL0     H27834   9.060   2.427  11.497 -2.0090  0.3218  2.0257
  202MOL0     H27835   9.209   2.507  11.357  0.2359  0.9550 -0.5439
  202MOL0     H27836   9.376   2.451  11.389  0.6051  2.2755 -3.2181
  202MOL0     H27837   9.327   2.621  11.402  1.9663 -1.7214 -0.9917
  202MOL0     H27838   9.556   2.800  11.515 -1.4741 -0.6495  1.8308
  202MOL0     H27839   9.753   2.941  11.482  2.6647 -0.7537  0.8565
  202MOL0     H27840   9.836   3.262  11.675  0.5177 -1.3304 -0.4640
  202MOL0     H27841   9.787   3.177  11.817 -0.5576  1.1110  1.2338
  202MOL0     H27842  10.084   3.226  11.719 -0.8734  0.3410 -0.6795
  202MOL0     H27843   9.996   3.320  11.842 -0.2602  0.9025 -0.5874
  202MOL0     H27844  10.070   3.028  11.855  0.5813  0.3489 -0.8351
  202MOL0     H27845   9.997   3.125  11.985  0.9751 -0.9062  1.1179
  202MOL0     H27846  10.188   3.277  11.981 -3.3483 -0.0138  1.3415
  202MOL0     H27847  10.268   3.154  11.868 -0.4506 -2.0256  1.4172
  202MOL0     H27848  10.192   3.054  12.140  3.0690 -1.9973  1.5208
  202MOL0     H27849  10.308   2.988  12.025 -2.9770 -1.4470  0.8035
  202MOL0     H27850  10.326   3.254  12.175  0.1985 -0.3491  0.0202
  202MOL0     H27851  10.449   3.193  12.071  0.4648  1.0862  1.8602
  202MOL0     H27852  10.474   2.987  12.195  1.7056  1.8920 -2.4133
  202MOL0     H27853  10.349   3.041  12.303 -0.8682 -0.3925 -0.7638
  202MOL0     H27854  10.618   3.170  12.239  1.4879 -1.4545  0.1414
  202MOL0     H27855  10.591   3.052  12.369  4.8085  2.5401  0.0006
  202MOL0     H27856   9.825   2.935  11.901  1.2304 -0.6281 -1.1539
  202MOL0     H27857   9.622   2.805  11.943 -0.1855 -1.1996 -0.2753
  202MOL0     H27858   9.357   2.510  11.893 -0.6939 -0.4926 -0.3610
  202MOL0     H27859   9.137   2.400  11.913  0.0434  1.5726 -1.0425
  202MOL0     H27860   7.486   1.942  10.792  1.3105 -0.6448  2.4185
  202MOL0     H27861   7.292   2.073  10.683 -1.2781 -1.8837 -1.5193
  202MOL0     H27862   6.802   2.197  10.851 -1.7028  0.5613  0.1224
  202MOL0     H27863   6.649   2.355  10.768  1.5289  0.5017  0.6025
  202MOL0     H27864   6.591   2.335  10.289 -0.0982  1.5015 -0.4904
  202MOL0     H27865   6.463   2.271  10.385  0.2182  1.1254  3.2118
  202MOL0     H27866   6.375   2.450  10.267 -0.2206 -1.9235  0.4440
  202MOL0     H27867   6.492   2.565  10.336  0.3755  0.7452  3.0921
  202MOL0     H27868   6.277   2.421  10.495  1.2944 -0.8825  1.3854
  202MOL0     H27869   6.397   2.509  10.570  0.7707  0.5657 -0.5485
  202MOL0     H27870   6.201   2.639  10.363 -0.8775  0.6285  1.6587
  202MOL0     H27871   6.335   2.716  10.444  0.9044 -1.2017 -0.4077
  202MOL0     H27872   5.981   2.663  10.692 -0.2823 -2.7115 -0.0720
  202MOL0     H27873   6.705   2.184  10.375  0.3191 -3.3516 -0.1775
  202MOL0     H27874   6.875   2.066  10.311  2.3235  0.8600  0.5600
  202MOL0     H27875   6.988   1.993  10.419 -1.2379 -2.5857 -0.2305
  202MOL0     H27876   6.830   1.922  10.404  3.8832 -1.5737 -0.0301
  203MOL0     O27877  11.265   7.503   1.169  0.5640  0.5467 -0.5571
  203MOL0     C27878  11.318   7.431   1.256  0.5564  0.4901  0.5486
  203MOL0     O27879  11.244   7.370   1.357 -0.4488  0.6443  0.5119
  203MOL0     C27880  11.126   7.424   1.393  1.0059 -0.0381 -0.2463
  203MOL0     C27881  11.123   7.541   1.457 -0.2588 -0.5653 -0.4038
  203MOL0     C27882  11.003   7.608   1.477 -0.1561 -0.3466 -0.3218
  203MOL0     C27883  10.880   7.546   1.431 -0.9528 -0.1728 -0.2917
  203MOL0     O27884  10.752   7.603   1.421 -0.0834  0.2126  0.0804
  203MOL0     C27885  10.733   7.747   1.409 -0.0784  0.3578  0.3243
  203MOL0     C27886  10.579   7.766   1.416 -0.6860 -0.1222  0.1364
  203MOL0     C27887  10.523   7.728   1.554 -0.1843 -0.7194  0.1608
  203MOL0     C27888  10.367   7.695   1.544 -0.6972 -0.5219  0.1578
  203MOL0     C27889  10.287   7.810   1.489 -0.0186 -0.5381 -0.0591
  203MOL0     C27890  10.269   7.829   1.338 -1.0735 -0.2584 -0.1679
  203MOL0     C27891  10.126   7.865   1.282 -0.0461  0.6186  0.0241
  203MOL0     C27892  10.100   7.850   1.130  0.5066  0.4244  0.6649
  203MOL0     N27893  10.197   7.927   1.056 -0.0990  0.1700  0.4931
  203MOL0     C27894  10.322   7.886   1.012 -1.1255 -0.5639  0.3954
  203MOL0     C27895  10.391   7.990   0.960 -0.0138  0.3351  0.2426
  203MOL0     C27896  10.524   8.002   0.898 -0.0919 -0.3906  0.4385
  203MOL0     C27897  10.617   8.031   1.007 -0.9415  0.0412  0.4742
  203MOL0     C27898  10.745   8.087   0.942 -0.7967  0.5104  0.5363
  203MOL0     C27899  10.860   8.098   1.047  0.3448  0.0047 -0.2329
  203MOL0     O27900  10.917   7.968   1.070  0.0276 -0.1551  0.2532
  203MOL0     C27901  11.030   7.970   1.147 -0.3626 -0.4469 -0.8017
  203MOL0     C27902  11.118   8.079   1.171 -0.4009  0.1461  0.6792
  203MOL0     C27903  11.246   8.070   1.234 -0.6249  0.4291  0.0144
  203MOL0     C27904  11.330   8.195   1.232 -0.7285 -0.0382 -0.4770
  203MOL0     C27905  11.296   7.945   1.264  0.4031 -0.3657  0.2407
  203MOL0     C27906  11.445   7.932   1.318  0.2723  0.1729  0.5129
  203MOL0     O27907  11.539   8.020   1.280 -0.1300 -0.4257 -0.3145
  203MOL0     C27908  11.664   7.989   1.318  0.2665  0.0630  0.5903
  203MOL0     C27909  11.737   8.090   1.378  0.1154  0.2297  0.1457
  203MOL0     C27910  11.867   8.085   1.418 -0.6150  0.1182 -0.4633
  203MOL0     C27911  11.939   7.961   1.408 -0.3540 -0.8840 -0.4610
  203MOL0     O27912  12.068   7.959   1.462 -0.0816 -0.0394  0.2599
  203MOL0     C27913  12.136   7.824   1.462  0.0901  0.1857 -1.0348
  203MOL0     C27914  12.276   7.829   1.517 -0.6679  0.0551  1.0497
  203MOL0     C27915  12.279   7.891   1.660  0.5035  0.5181 -0.5218
  203MOL0     C27916  12.414   7.938   1.700 -0.1360  0.0615 -0.4799
  203MOL0     C27917  12.422   8.015   1.825 -0.2040 -0.1574  0.1430
  203MOL0     C27918  12.377   7.929   1.937 -0.2708  0.1282 -1.2103
  203MOL0     C27919  12.399   8.003   2.076  0.9784 -0.3642  0.0772
  203MOL0     C27920  12.544   7.992   2.132 -0.0576 -0.2780 -0.1045
  203MOL0    Cl27921  12.666   8.084   2.040 -0.0805 -0.0370  0.1693
  203MOL0     C27922  11.863   7.855   1.357 -0.0616 -0.6000  0.2130
  203MOL0     C27923  11.738   7.877   1.296 -0.5241  0.4630 -0.5961
  203MOL0     O27924  11.468   7.829   1.390  0.7175 -0.7036 -0.2153
  203MOL0     C27925  11.209   7.837   1.249  1.2502 -0.1010 -0.2234
  203MOL0     C27926  11.082   7.843   1.194  0.2262  0.1994  0.0998
  203MOL0     N27927  10.315   8.102   0.992  0.2392  0.6191  0.1608
  203MOL0     N27928  10.212   8.061   1.056 -0.1044 -0.1373  0.3537
  203MOL0     C27929  10.888   7.428   1.366  0.6939 -0.0275 -1.3717
  203MOL0     C27930  11.006   7.367   1.343 -0.3394 -0.2832  0.5122
  203MOL0     C27931  11.465   7.403   1.256 -0.2896 -0.5134 -0.1914
  203MOL0     C27932  11.518   7.307   1.348 -0.2058  0.4749  0.8638
  203MOL0     C27933  11.657   7.293   1.368  0.1114 -0.8559  0.4602
  203MOL0     C27934  11.744   7.364   1.297  0.9254  0.0196 -0.4346
  203MOL0     O27935  11.868   7.323   1.325  0.1638 -0.0231  0.7117
  203MOL0     C27936  11.975   7.370   1.251 -0.9301  0.0403  0.3294
  203MOL0     C27937  12.109   7.342   1.325  0.4495  0.4812 -0.1478
  203MOL0     C27938  12.239   7.409   1.278  1.1625  1.6365  0.7273
  203MOL0     C27939  12.359   7.316   1.306 -0.2733  0.1959  0.2306
  203MOL0     C27940  12.389   7.294   1.452 -0.2175  0.4909  0.5278
  203MOL0     C27941  12.416   7.257   1.561  0.5824 -0.1931 -0.2040
  203MOL0     C27942  11.701   7.450   1.201 -0.0568 -0.2947 -0.2600
  203MOL0     C27943  11.558   7.477   1.180  0.4288 -0.3407 -0.0682
  203MOL0     C27944  11.521   7.580   1.072 -0.2729  1.1462 -0.1089
  203MOL0     H27945  11.208   7.599   1.488 -0.9947 -0.3576  1.3262
  203MOL0     H27946  11.005   7.705   1.526  0.7431  0.6408 -2.1812
  203MOL0     H27947  10.774   7.776   1.312 -1.0355  1.9912  0.3662
  203MOL0     H27948  10.787   7.812   1.478 -0.0909  0.0728  0.6024
  203MOL0     H27949  10.578   7.873   1.394  3.0926 -0.2797 -1.4648
  203MOL0     H27950  10.525   7.722   1.331 -0.7164 -0.4711  0.3362
  203MOL0     H27951  10.577   7.642   1.597  1.9679 -0.1638 -1.2773
  203MOL0     H27952  10.526   7.808   1.629 -2.6280 -0.8306  0.4600
  203MOL0     H27953  10.339   7.611   1.480 -1.4448  0.8685 -1.4241
  203MOL0     H27954  10.340   7.670   1.647  1.3364 -2.4150  0.3098
  203MOL0     H27955  10.319   7.904   1.535 -1.9370 -0.7544  1.8841
  203MOL0     H27956  10.186   7.793   1.527  0.6683 -5.6849  0.2568
  203MOL0     H27957  10.336   7.908   1.303  1.0304  0.3389  4.4857
  203MOL0     H27958  10.299   7.737   1.286 -0.7738 -1.3122  1.7666
  203MOL0     H27959  10.100   7.969   1.303 -1.7360  0.2178  0.0550
  203MOL0     H27960  10.060   7.792   1.331  1.3423  0.1839  1.3202
  203MOL0     H27961  10.104   7.746   1.099 -1.1382  0.1803  1.1747
  203MOL0     H27962  10.004   7.896   1.106  1.1260  0.0680 -3.0207
  203MOL0     H27963  10.365   7.787   1.000  1.5416  0.3859  1.3889
  203MOL0     H27964  10.540   8.083   0.825  3.1095 -1.3371 -0.0691
  203MOL0     H27965  10.540   7.904   0.851 -3.7730 -0.2112 -1.6183
  203MOL0     H27966  10.578   8.098   1.084 -0.4525  1.3319 -0.3678
  203MOL0     H27967  10.636   7.938   1.060 -2.3024  0.2891  1.4501
  203MOL0     H27968  10.784   8.026   0.861  1.4884  1.8131  0.5499
  203MOL0     H27969  10.707   8.182   0.905 -1.4547  0.2232  0.4528
  203MOL0     H27970  10.929   8.160   0.989 -0.8366  2.0941  0.4857
  203MOL0     H27971  10.822   8.144   1.138 -0.6238 -3.8626  1.5083
  203MOL0     H27972  11.098   8.176   1.126 -0.3084 -0.4250 -0.6408
  203MOL0     H27973  11.389   8.212   1.323 -2.7740  2.1522  0.5600
  203MOL0     H27974  11.272   8.286   1.218  2.1049  1.5764 -2.8254
  203MOL0     H27975  11.393   8.176   1.145 -2.3030 -0.2834 -1.6009
  203MOL0     H27976  11.683   8.184   1.388 -2.3697 -0.9405 -1.3934
  203MOL0     H27977  11.915   8.168   1.468 -1.3926 -0.5319  1.4752
  203MOL0     H27978  12.086   7.754   1.528 -0.2108  1.6699  0.3777
  203MOL0     H27979  12.130   7.779   1.362 -1.7074  0.3436 -1.0328
  203MOL0     H27980  12.331   7.735   1.519  5.3142  3.0060 -0.9936
  203MOL0     H27981  12.344   7.888   1.455 -0.2629 -0.8184  0.6492
  203MOL0     H27982  12.248   7.813   1.731  1.4375  1.5714  1.1113
  203MOL0     H27983  12.210   7.975   1.665  1.4783  1.2711  1.1186
  203MOL0     H27984  12.456   8.001   1.621 -1.3889  1.8583  0.2223
  203MOL0     H27985  12.475   7.848   1.705 -0.7232 -0.3079  0.1608
  203MOL0     H27986  12.524   8.050   1.844  0.1933 -1.8658  1.3314
  203MOL0     H27987  12.365   8.109   1.824 -1.4129 -0.8697 -0.7010
  203MOL0     H27988  12.428   7.833   1.944  0.4916  0.2608 -3.8823
  203MOL0     H27989  12.268   7.920   1.929 -0.5846  0.6627  1.5667
  203MOL0     H27990  12.338   7.965   2.158  1.1839  1.0921  0.9457
  203MOL0     H27991  12.377   8.109   2.059  1.0774 -0.4971 -0.9424
  203MOL0     H27992  12.572   7.886   2.129  2.0382  0.2343  0.1500
  203MOL0     H27993  12.543   8.020   2.238 -1.9213  1.7627 -0.5940
  203MOL0     H27994  11.917   7.761   1.350 -0.2729 -0.6714 -0.6547
  203MOL0     H27995  11.691   7.796   1.241 -1.0697  0.2929  0.0976
  203MOL0     H27996  11.247   7.744   1.292  1.5327  1.6403  3.6709
  203MOL0     H27997  11.027   7.752   1.171 -2.1469  1.8933 -1.3735
  203MOL0     H27998  10.794   7.376   1.348 -0.3137  0.2038  2.3969
  203MOL0     H27999  11.002   7.274   1.287  0.2202  1.0288 -1.8706
  203MOL0     H28000  11.443   7.254   1.406 -1.3603  1.1164 -0.0004
  203MOL0     H28001  11.699   7.212   1.427  2.8251  0.2604  0.2185
  203MOL0     H28002  11.974   7.307   1.162  0.0451 -0.1332  0.4348
  203MOL0     H28003  11.967   7.477   1.229  3.8959  0.3353 -1.2485
  203MOL0     H28004  12.112   7.233   1.322  2.1003  0.5045 -0.6496
  203MOL0     H28005  12.095   7.371   1.430 -1.9270  0.4112 -0.3958
  203MOL0     H28006  12.230   7.416   1.169  0.1206 -0.8527  0.5957
  203MOL0     H28007  12.254   7.509   1.320  1.6189  1.3659  1.2148
  203MOL0     H28008  12.447   7.368   1.266  1.1807 -0.8385  1.9168
  203MOL0     H28009  12.342   7.222   1.254  1.7809 -0.2940  0.3419
  203MOL0     H28010  12.438   7.244   1.665 -2.4440  0.7553  0.6612
  203MOL0     H28011  11.770   7.515   1.147  1.9184 -0.5520  1.7824
  203MOL0     H28012  11.615   7.623   1.034  0.4753  0.4147  0.8535
  203MOL0     H28013  11.463   7.537   0.990  2.5602  0.6181 -2.0285
  203MOL0     H28014  11.470   7.663   1.120 -1.9714 -0.4497  0.9491
  204MOL0     O28015  10.015   6.918   5.630  0.1854  0.1594 -0.0549
  204MOL0     C28016   9.984   6.841   5.536 -0.3893  1.0943 -0.5476
  204MOL0     O28017  10.064   6.795   5.439  0.1309 -0.3816  0.0571
  204MOL0     C28018  10.193   6.844   5.427 -0.4672 -0.3630  0.0274
  204MOL0     C28019  10.310   6.765   5.438  0.4898  0.2321  0.9030
  204MOL0     C28020  10.438   6.817   5.404 -0.3853 -0.0593 -0.2592
  204MOL0     C28021  10.456   6.960   5.401  1.0815  0.4387 -0.0310
  204MOL0     O28022  10.569   7.021   5.389 -0.1307 -0.6452  0.4302
  204MOL0     C28023  10.681   6.940   5.358 -0.5228 -0.9528 -0.1303
  204MOL0     C28024  10.805   7.028   5.346  0.2636  0.5964  0.3436
  204MOL0     C28025  10.904   7.030   5.469  0.0641  0.2069 -0.4134
  204MOL0     C28026  11.018   7.133   5.463 -0.6676 -0.0778 -0.1682
  204MOL0     C28027  11.142   7.069   5.411  0.9977  0.3899  0.2618
  204MOL0     C28028  11.134   7.029   5.254  0.2180 -0.0045 -0.2196
  204MOL0     C28029  11.273   7.015   5.187 -0.0063 -0.6148  0.1877
  204MOL0     C28030  11.349   6.896   5.242  0.4477 -0.5509 -0.2344
  204MOL0     N28031  11.478   6.879   5.188  0.2681 -0.7988  0.5248
  204MOL0     C28032  11.571   6.975   5.150  0.1921 -0.4785  0.5160
  204MOL0     C28033  11.681   6.908   5.106  0.1304 -0.0022  0.0247
  204MOL0     C28034  11.813   6.961   5.056 -0.1090 -0.5059  0.3841
  204MOL0     C28035  11.826   6.962   4.900 -0.1509  0.8032 -0.2512
  204MOL0     C28036  11.963   7.000   4.859 -0.5125 -1.5372  0.3874
  204MOL0     C28037  11.979   7.031   4.709 -0.4200 -0.4961  0.5216
  204MOL0     O28038  12.107   7.085   4.675 -0.6092 -0.3243  0.4749
  204MOL0     C28039  12.221   7.007   4.721  0.2048  0.0453  0.1712
  204MOL0     C28040  12.229   6.873   4.686  0.2964  0.1992  0.4594
  204MOL0     C28041  12.328   6.793   4.732 -0.2162 -0.0118  0.3865
  204MOL0     C28042  12.341   6.658   4.661 -0.3867  0.2831 -0.0809
  204MOL0     C28043  12.420   6.848   4.825 -0.6753  0.1635  0.6312
  204MOL0     C28044  12.527   6.769   4.884  0.3000  0.4329  0.2382
  204MOL0     O28045  12.650   6.834   4.923 -0.2713 -0.3137  0.0664
  204MOL0     C28046  12.750   6.752   4.963  0.0623 -0.5534 -0.7482
  204MOL0     C28047  12.789   6.631   4.912  0.4730 -0.6452  0.6061
  204MOL0     C28048  12.897   6.563   4.958  0.1031  0.3838 -0.1329
  204MOL0     C28049  12.977   6.619   5.059 -0.0706 -0.2704  0.8607
  204MOL0     O28050  13.087   6.549   5.113  0.2530  0.1306  0.7949
  204MOL0     C28051  13.211   6.623   5.102 -0.0969 -0.8872 -0.4985
  204MOL0     C28052  13.317   6.609   5.213 -0.9181 -0.1296 -0.1925
  204MOL0     C28053  13.373   6.470   5.208  1.3618 -0.4470  0.3818
  204MOL0     C28054  13.514   6.466   5.278  0.4042 -0.5247  0.5231
  204MOL0     C28055  13.581   6.323   5.284 -0.7828 -0.4303 -1.0447
  204MOL0     C28056  13.731   6.324   5.259 -0.7025 -0.0019  0.5541
  204MOL0     C28057  13.804   6.372   5.384  0.2476 -0.2753  0.3917
  204MOL0     C28058  13.939   6.439   5.339  0.2033 -0.7459 -0.1172
  204MOL0    Cl28059  14.059   6.311   5.298 -0.0276  0.0467  0.4790
  204MOL0     C28060  12.943   6.739   5.120 -0.3883  0.6528 -0.9123
  204MOL0     C28061  12.830   6.807   5.073 -0.3396  0.3642 -0.8054
  204MOL0     O28062  12.508   6.648   4.903  0.3539  0.0062 -0.7648
  204MOL0     C28063  12.410   6.979   4.872  0.5224  0.3064  0.6170
  204MOL0     C28064  12.312   7.058   4.809  1.4308 -0.1772  0.2180
  204MOL0     N28065  11.654   6.776   5.110  0.1218  1.0937 -0.7916
  204MOL0     N28066  11.536   6.759   5.162 -0.2315 -0.3059  0.5217
  204MOL0     C28067  10.347   7.036   5.419  0.5870 -0.4043 -0.3738
  204MOL0     C28068  10.214   6.981   5.419  0.7894  0.2195 -0.4465
  204MOL0     C28069   9.864   6.764   5.562 -0.8041 -0.0583  0.0353
  204MOL0     C28070   9.754   6.780   5.472  0.7183  0.7681  0.3166
  204MOL0     C28071   9.632   6.717   5.494  0.1371  0.5657  0.3632
  204MOL0     C28072   9.615   6.630   5.598 -0.1136  0.2355 -0.0112
  204MOL0     O28073   9.499   6.576   5.637  0.2320 -0.1429 -0.0160
  204MOL0     C28074   9.378   6.629   5.582  0.3226  0.4903 -0.3201
  204MOL0     C28075   9.251   6.558   5.626 -0.3055 -1.4369  0.2579
  204MOL0     C28076   9.224   6.545   5.781  0.0663 -0.6139  0.9741
  204MOL0     C28077   9.075   6.505   5.817  0.2833 -0.0618  0.6391
  204MOL0     C28078   8.989   6.620   5.805  0.8825 -0.3819 -1.3539
  204MOL0     C28079   8.926   6.731   5.786  0.2440  0.7457 -0.4671
  204MOL0     C28080   9.723   6.606   5.685  0.3267 -1.0732  0.2991
  204MOL0     C28081   9.847   6.681   5.673  0.1019  0.5565  0.5571
  204MOL0     C28082   9.937   6.680   5.791  0.3903 -0.1585  0.7254
  204MOL0     H28083  10.301   6.662   5.471 -2.8239 -0.2141 -0.9463
  204MOL0     H28084  10.521   6.747   5.397 -0.1483  0.1489  0.3688
  204MOL0     H28085  10.663   6.892   5.261 -1.5553 -2.4037  0.7342
  204MOL0     H28086  10.704   6.859   5.427  0.3953  0.1891  0.9530
  204MOL0     H28087  10.862   6.988   5.261 -1.7188  0.9224 -1.2397
  204MOL0     H28088  10.779   7.132   5.323 -4.4882 -0.0786  1.5108
  204MOL0     H28089  10.853   7.052   5.564 -0.3164 -0.3291 -0.4832
  204MOL0     H28090  10.948   6.932   5.488  0.3421  0.2972 -0.5945
  204MOL0     H28091  10.979   7.213   5.400  2.6179  2.8557  1.1703
  204MOL0     H28092  11.034   7.180   5.560 -2.0680  2.2775 -0.9808
  204MOL0     H28093  11.170   6.980   5.468  1.8323  0.6119  0.2126
  204MOL0     H28094  11.225   7.139   5.428  3.0813 -2.1852  1.5034
  204MOL0     H28095  11.080   6.934   5.244  0.8363 -0.8369  3.1044
  204MOL0     H28096  11.074   7.105   5.202  0.2207 -1.2870 -2.2299
  204MOL0     H28097  11.322   7.109   5.213 -1.2219  0.2754 -0.6302
  204MOL0     H28098  11.252   7.000   5.080  1.0410 -1.9210  0.1372
  204MOL0     H28099  11.348   6.910   5.351  0.5562 -1.1484 -0.1532
  204MOL0     H28100  11.281   6.812   5.230  0.6475 -0.8866  0.8378
  204MOL0     H28101  11.568   7.083   5.159 -2.3852 -0.4886  0.5212
  204MOL0     H28102  11.890   6.904   5.108  1.3015 -1.5240 -2.5951
  204MOL0     H28103  11.831   7.063   5.092 -1.3832  0.2907 -1.0709
  204MOL0     H28104  11.803   6.862   4.859  1.2151  0.2448  0.2746
  204MOL0     H28105  11.752   7.029   4.855 -2.0967 -1.1111 -0.0827
  204MOL0     H28106  11.985   7.093   4.913 -1.8603 -0.8247 -0.2484
  204MOL0     H28107  12.033   6.922   4.888  0.8701 -0.1779  0.8690
  204MOL0     H28108  11.962   6.951   4.637  1.1052  2.1249 -3.0909
  204MOL0     H28109  11.916   7.115   4.676  1.5900  1.2832  0.9969
  204MOL0     H28110  12.160   6.831   4.614  1.1832  1.3234 -1.1020
  204MOL0     H28111  12.445   6.630   4.641 -0.3573  2.0092 -2.9201
  204MOL0     H28112  12.291   6.649   4.564  0.0168  1.2529 -0.3888
  204MOL0     H28113  12.308   6.578   4.727 -0.4154  0.9419  0.7223
  204MOL0     H28114  12.732   6.586   4.831 -1.6446 -0.3649  1.8581
  204MOL0     H28115  12.935   6.471   4.917  1.0564 -0.0097  1.5615
  204MOL0     H28116  13.255   6.603   5.004 -1.0641  2.7657 -1.8302
  204MOL0     H28117  13.193   6.731   5.098 -1.0663 -0.9151  1.7563
  204MOL0     H28118  13.398   6.682   5.211 -1.3107  0.3479  0.8450
  204MOL0     H28119  13.264   6.622   5.308 -2.8737  0.9343 -1.3502
  204MOL0     H28120  13.375   6.435   5.104  3.3042 -2.3909  1.0150
  204MOL0     H28121  13.317   6.401   5.271  5.1461 -1.0595  3.4207
  204MOL0     H28122  13.499   6.514   5.376 -4.2104  1.1959 -0.7713
  204MOL0     H28123  13.572   6.532   5.213 -1.4377  0.6386 -0.0167
  204MOL0     H28124  13.566   6.261   5.373 -0.7718 -1.5386 -1.7951
  204MOL0     H28125  13.534   6.268   5.202 -0.8472 -1.0703 -0.5881
  204MOL0     H28126  13.757   6.384   5.171  0.3754 -0.1391  0.7715
  204MOL0     H28127  13.766   6.223   5.237 -0.9701  0.4992 -2.7032
  204MOL0     H28128  13.833   6.299   5.460 -0.7753  0.2118  1.2825
  204MOL0     H28129  13.738   6.438   5.440  0.9739  0.8922 -0.0849
  204MOL0     H28130  13.972   6.494   5.428 -1.9554 -0.4362  0.5481
  204MOL0     H28131  13.926   6.511   5.258 -0.4865  0.1892  0.7916
  204MOL0     H28132  13.000   6.768   5.208  0.8446 -1.1411 -1.0720
  204MOL0     H28133  12.803   6.901   5.118 -1.9489 -0.4771  0.0734
  204MOL0     H28134  12.483   7.026   4.938  3.1821 -1.1641 -1.0688
  204MOL0     H28135  12.306   7.165   4.830  0.2836 -0.4078  1.1401
  204MOL0     H28136  10.363   7.143   5.413  0.9657 -0.4906 -0.9125
  204MOL0     H28137  10.125   7.042   5.424 -0.7326 -1.8890 -0.4045
  204MOL0     H28138   9.767   6.844   5.385 -1.0778 -1.9030 -2.0841
  204MOL0     H28139   9.553   6.745   5.424 -0.1053 -0.7556  0.0813
  204MOL0     H28140   9.372   6.737   5.598  5.1007  1.0647 -0.9399
  204MOL0     H28141   9.386   6.618   5.474 -1.5430  2.7921 -0.7768
  204MOL0     H28142   9.256   6.457   5.584  0.6180  0.0649 -3.7699
  204MOL0     H28143   9.168   6.617   5.584 -0.9452 -0.6719  2.4331
  204MOL0     H28144   9.299   6.478   5.826 -0.3247 -0.9145  1.1851
  204MOL0     H28145   9.247   6.637   5.837 -0.2569 -0.5262  0.9633
  204MOL0     H28146   9.078   6.475   5.922  0.7672  1.8366  1.2015
  204MOL0     H28147   9.040   6.432   5.743 -0.8391  1.6425 -0.5865
  204MOL0     H28148   8.874   6.824   5.776 -1.7564  0.1021  2.5280
  204MOL0     H28149   9.701   6.541   5.768 -1.1085  1.1166  1.7354
  204MOL0     H28150  10.034   6.634   5.766  0.0002 -0.2990 -0.5989
  204MOL0     H28151   9.959   6.781   5.827 -1.4700  0.2437  0.8012
  204MOL0     H28152   9.895   6.624   5.875 -2.0914  2.1999  1.2101
  205MOL0     O28153   4.733  10.093   7.146 -0.2071 -0.3289  0.3811
  205MOL0     C28154   4.683  10.074   7.256 -0.8893 -0.7030  0.0310
  205MOL0     O28155   4.752  10.073   7.374  0.7121  0.1954 -0.0405
  205MOL0     C28156   4.887  10.065   7.375  0.6295  0.2578  0.0702
  205MOL0     C28157   4.967   9.984   7.288  0.0700  0.4226  0.1713
  205MOL0     C28158   5.107   9.983   7.296  1.0082  0.0370 -0.4570
  205MOL0     C28159   5.172  10.068   7.385 -0.5862  0.0646  0.0945
  205MOL0     O28160   5.314  10.081   7.397 -0.6028 -0.2823 -0.0688
  205MOL0     C28161   5.400  10.006   7.306  0.9021  0.0480 -0.6103
  205MOL0     C28162   5.392   9.868   7.349 -0.5718  0.0840 -0.0732
  205MOL0     C28163   5.507   9.787   7.295  0.3319  0.2060 -0.6960
  205MOL0     C28164   5.519   9.646   7.361 -0.1108 -0.9720  0.2116
  205MOL0     C28165   5.623   9.555   7.283 -0.6781  0.0242 -0.8764
  205MOL0     C28166   5.621   9.404   7.325  0.6934 -0.8479 -0.6412
  205MOL0     C28167   5.718   9.326   7.234  0.5621 -0.2711  0.5543
  205MOL0     C28168   5.860   9.355   7.269  0.1731 -0.4272 -0.2001
  205MOL0     N28169   5.953   9.264   7.203 -0.2369 -0.2540  0.3818
  205MOL0     C28170   6.090   9.254   7.219  0.2190  0.5498  0.7545
  205MOL0     C28171   6.125   9.162   7.127 -0.3436  0.2621  0.0631
  205MOL0     C28172   6.265   9.120   7.098  0.0529  1.1931  0.5375
  205MOL0     C28173   6.303   9.148   6.952 -0.2701 -0.1916  0.0943
  205MOL0     C28174   6.448   9.118   6.926  0.4645 -0.5647  0.3055
  205MOL0     C28175   6.547   9.198   6.998 -1.0463  0.0595 -0.2343
  205MOL0     O28176   6.669   9.181   6.927  0.5310  0.8631  0.0960
  205MOL0     C28177   6.778   9.263   6.951  0.1654  0.5199 -0.6115
  205MOL0     C28178   6.810   9.348   6.844 -0.5475  0.9083 -0.4208
  205MOL0     C28179   6.925   9.428   6.855  0.0734 -0.4843 -0.2565
  205MOL0     C28180   6.956   9.542   6.759  0.3692  0.8921 -0.2746
  205MOL0     C28181   7.009   9.414   6.969  0.0621 -0.1260 -1.2380
  205MOL0     C28182   7.136   9.483   6.997  0.5036 -0.2828 -0.5372
  205MOL0     O28183   7.239   9.411   7.061  0.2163  0.0749 -0.5052
  205MOL0     C28184   7.373   9.443   7.052 -0.5739 -0.5448  1.2967
  205MOL0     C28185   7.432   9.558   7.004  0.3263  0.1622 -0.6869
  205MOL0     C28186   7.567   9.583   7.002 -0.2782 -0.2352 -0.4589
  205MOL0     C28187   7.660   9.495   7.057  0.3905  0.1522  1.0212
  205MOL0     O28188   7.793   9.520   7.056 -0.5797 -0.1954 -0.3308
  205MOL0     C28189   7.886   9.424   7.106  0.5893 -0.4860 -0.3307
  205MOL0     C28190   8.029   9.481   7.107  0.0551  0.7172  0.0482
  205MOL0     C28191   8.144   9.383   7.149 -0.8299 -0.1225  0.1727
  205MOL0     C28192   8.281   9.441   7.091 -0.7163 -0.0467 -1.0016
  205MOL0     C28193   8.406   9.347   7.122 -1.0231  0.2557 -0.2525
  205MOL0     C28194   8.546   9.418   7.122 -0.2234 -0.4776 -1.5297
  205MOL0     C28195   8.567   9.484   6.997 -0.2875  0.0804  0.1810
  205MOL0     C28196   8.713   9.516   6.977 -0.8878  0.1906  0.2711
  205MOL0    Cl28197   8.794   9.358   6.944 -0.4376 -0.1149 -0.1361
  205MOL0     C28198   7.599   9.368   7.108 -0.5568  0.5538  0.2069
  205MOL0     C28199   7.461   9.354   7.111 -0.3193 -0.1939 -0.3950
  205MOL0     O28200   7.142   9.599   6.958  0.7222  0.1321 -0.7929
  205MOL0     C28201   6.974   9.320   7.064  0.1540 -0.3115  0.6107
  205MOL0     C28202   6.862   9.242   7.057 -0.1928 -0.4343 -0.0704
  205MOL0     N28203   6.009   9.117   7.072  0.3565  0.5836  1.1218
  205MOL0     N28204   5.910   9.176   7.110  0.0870  0.0536  0.1753
  205MOL0     C28205   5.099  10.146   7.471 -0.7386 -0.3139  0.5078
  205MOL0     C28206   4.962  10.148   7.463 -0.2859 -0.0467  0.5253
  205MOL0     C28207   4.539  10.085   7.271  0.4037  0.2730 -0.8692
  205MOL0     C28208   4.487  10.138   7.394 -0.2874  0.6918 -0.2015
  205MOL0     C28209   4.351  10.140   7.413 -0.6948  0.3225 -0.1613
  205MOL0     C28210   4.260  10.100   7.312  0.0626  0.1096 -0.2525
  205MOL0     O28211   4.126  10.131   7.333  0.1174  0.2031  0.2745
  205MOL0     C28212   4.026  10.082   7.249 -0.1927  0.2082  1.3942
  205MOL0     C28213   3.884  10.137   7.285 -0.1730  0.1904  0.2595
  205MOL0     C28214   3.876  10.287   7.265  0.5619  0.8819  0.0696
  205MOL0     C28215   3.733  10.333   7.287 -0.7891 -0.5008  1.2462
  205MOL0     C28216   3.677  10.306   7.421  0.2013  1.0507  0.3800
  205MOL0     C28217   3.639  10.295   7.538  0.2258  0.2539 -0.4578
  205MOL0     C28218   4.312  10.046   7.192 -0.8904  0.1493 -0.0135
  205MOL0     C28219   4.448  10.038   7.175  0.1751  0.1137  0.3462
  205MOL0     C28220   4.504   9.977   7.050  0.2235  0.4870  0.1301
  205MOL0     H28221   4.919   9.918   7.216 -3.2591  1.2186  1.4500
  205MOL0     H28222   5.164   9.939   7.215  0.9275  1.4900 -1.3382
  205MOL0     H28223   5.501  10.042   7.324  1.2265  0.0837 -2.3537
  205MOL0     H28224   5.363  10.018   7.203 -1.1760 -0.0214  0.0720
  205MOL0     H28225   5.395   9.876   7.458 -1.8141  0.6854 -0.0651
  205MOL0     H28226   5.302   9.813   7.318  1.3383 -4.3393  1.3294
  205MOL0     H28227   5.500   9.785   7.185 -0.5836 -0.3170 -0.6325
  205MOL0     H28228   5.599   9.827   7.339  0.1046 -1.3946  1.3582
  205MOL0     H28229   5.544   9.667   7.466 -1.5065  0.5849  0.2724
  205MOL0     H28230   5.420   9.598   7.359 -0.5267 -0.3098 -4.0741
  205MOL0     H28231   5.725   9.592   7.297 -0.2358  1.8217 -6.3231
  205MOL0     H28232   5.612   9.566   7.175  3.0132  1.1132 -1.2709
  205MOL0     H28233   5.650   9.382   7.428 -0.0379  0.6569 -0.0836
  205MOL0     H28234   5.517   9.374   7.310 -0.1143  1.4928 -0.1422
  205MOL0     H28235   5.703   9.343   7.127 -1.1908  2.9998  1.2250
  205MOL0     H28236   5.691   9.222   7.255 -0.3948 -0.2245 -0.3717
  205MOL0     H28237   5.878   9.460   7.246 -0.9552  0.4181  2.4019
  205MOL0     H28238   5.878   9.335   7.375 -0.6905  0.1289  0.0662
  205MOL0     H28239   6.145   9.321   7.285 -1.0544  0.4149  2.0042
  205MOL0     H28240   6.273   9.014   7.122  0.1061  0.4544 -2.3564
  205MOL0     H28241   6.336   9.164   7.168  0.6000  2.1913 -0.6002
  205MOL0     H28242   6.246   9.079   6.889  0.5062 -2.2649  1.5207
  205MOL0     H28243   6.274   9.252   6.935 -2.0702 -0.7573 -0.5507
  205MOL0     H28244   6.464   9.012   6.949 -1.7383 -0.4816  2.7119
  205MOL0     H28245   6.462   9.134   6.819  0.0013  0.3339  0.3682
  205MOL0     H28246   6.514   9.301   6.984  0.2439  0.6885  1.0437
  205MOL0     H28247   6.563   9.168   7.102 -0.7864 -1.2727 -0.6411
  205MOL0     H28248   6.748   9.337   6.756 -0.3690 -1.0830 -0.3425
  205MOL0     H28249   6.927   9.635   6.809 -0.5891  0.2832  0.3617
  205MOL0     H28250   6.894   9.530   6.669 -0.6810  0.8865  0.4254
  205MOL0     H28251   7.060   9.537   6.728  1.2156 -0.9508  2.5247
  205MOL0     H28252   7.368   9.631   6.955  1.8530  0.6232 -2.0805
  205MOL0     H28253   7.606   9.665   6.944  1.4948 -2.2599 -2.3118
  205MOL0     H28254   7.866   9.389   7.207  2.9753 -0.6110  0.1601
  205MOL0     H28255   7.880   9.340   7.036 -2.1462  0.6863 -1.6937
  205MOL0     H28256   8.046   9.516   7.005 -2.7681  0.6535 -0.5151
  205MOL0     H28257   8.041   9.576   7.160 -1.3263 -0.2907  2.3421
  205MOL0     H28258   8.123   9.290   7.095  1.1361 -0.7712  0.4415
  205MOL0     H28259   8.141   9.362   7.256  1.0102 -1.1367  0.0585
  205MOL0     H28260   8.292   9.533   7.150 -0.6486 -0.6811  0.0105
  205MOL0     H28261   8.276   9.470   6.986  2.9138 -0.2060 -1.3556
  205MOL0     H28262   8.388   9.305   7.222  3.1419 -1.3851  0.0222
  205MOL0     H28263   8.409   9.267   7.048  1.0378  1.0958 -1.1423
  205MOL0     H28264   8.632   9.367   7.166 -2.5027 -0.8919  3.0040
  205MOL0     H28265   8.538   9.499   7.195  1.3083 -0.4224 -1.3932
  205MOL0     H28266   8.509   9.576   7.004 -0.9606 -0.3751  0.8145
  205MOL0     H28267   8.527   9.433   6.909  2.8663 -0.9326 -0.7893
  205MOL0     H28268   8.761   9.573   7.057  0.5473  0.9406 -1.0704
  205MOL0     H28269   8.739   9.569   6.885  0.3575 -3.2000 -1.4947
  205MOL0     H28270   7.659   9.285   7.144  0.0410  1.2071  0.7454
  205MOL0     H28271   7.434   9.266   7.168  0.7212 -1.0952 -1.2573
  205MOL0     H28272   7.031   9.305   7.155  0.6864 -1.6715  0.0787
  205MOL0     H28273   6.847   9.168   7.136  1.4924 -1.9825 -1.1292
  205MOL0     H28274   5.157  10.208   7.539 -0.2091  0.5240 -0.6803
  205MOL0     H28275   4.910  10.211   7.535 -2.4458 -0.4986 -0.5276
  205MOL0     H28276   4.551  10.173   7.474 -0.3004  1.5539 -0.5652
  205MOL0     H28277   4.313  10.192   7.500 -1.3787  0.2383 -0.4066
  205MOL0     H28278   4.044  10.105   7.143  0.5265 -0.6485  1.3134
  205MOL0     H28279   4.035   9.973   7.257 -1.5520  0.0409  0.8623
  205MOL0     H28280   3.871  10.107   7.390  1.6748 -2.5735 -0.2023
  205MOL0     H28281   3.805  10.090   7.226  0.4518  1.2810 -1.5105
  205MOL0     H28282   3.939  10.332   7.342 -0.0717 -1.5765  2.1643
  205MOL0     H28283   3.908  10.321   7.166  2.1240 -0.8350 -0.0779
  205MOL0     H28284   3.662  10.288   7.216 -2.3159  0.0942  2.3484
  205MOL0     H28285   3.732  10.442   7.278  2.5459 -0.1660  3.4679
  205MOL0     H28286   3.616  10.283   7.642 -1.9837 -1.0994 -1.0197
  205MOL0     H28287   4.249  10.034   7.104 -0.0265  0.4499 -0.6932
  205MOL0     H28288   4.419   9.959   6.984 -0.6231  0.3870  1.2181
  205MOL0     H28289   4.573  10.046   7.001 -0.0302 -0.0947 -1.0870
  205MOL0     H28290   4.556   9.881   7.065  0.0372  0.5616  1.3303
  206MOL0     O28291  11.269   7.299   6.902 -0.1875 -0.7001 -0.2900
  206MOL0     C28292  11.165   7.355   6.890 -0.3293 -0.0806  0.3846
  206MOL0     O28293  11.154   7.492   6.858 -0.8770  0.2011  0.2659
  206MOL0     C28294  11.267   7.562   6.857  0.0496 -0.0305 -0.2644
  206MOL0     C28295  11.308   7.598   6.727 -0.2099 -0.1631  0.3095
  206MOL0     C28296  11.427   7.668   6.713  0.1515  0.1458 -0.9526
  206MOL0     C28297  11.512   7.693   6.830 -0.2520 -0.5128 -0.4058
  206MOL0     O28298  11.630   7.744   6.824  0.4713  0.6739 -1.0144
  206MOL0     C28299  11.646   7.880   6.858 -0.4702  0.4112 -0.3613
  206MOL0     C28300  11.776   7.931   6.800  0.6221 -0.1543  0.6217
  206MOL0     C28301  11.810   8.075   6.843 -0.4184  0.8339  0.2406
  206MOL0     C28302  11.941   8.109   6.767 -0.5406  0.0982  0.2129
  206MOL0     C28303  11.909   8.179   6.632 -0.1905 -0.4563  0.2791
  206MOL0     C28304  12.033   8.200   6.550 -0.5382  0.3979 -0.4992
  206MOL0     C28305  12.017   8.278   6.419  0.4715 -0.3827  0.5480
  206MOL0     C28306  12.030   8.433   6.437 -0.5473  1.2211 -0.6419
  206MOL0     N28307  12.170   8.463   6.460  0.0350 -0.3286  0.4357
  206MOL0     C28308  12.274   8.452   6.373  0.2494  0.4866  0.2190
  206MOL0     C28309  12.388   8.488   6.438  0.3256  0.8027  0.4393
  206MOL0     C28310  12.534   8.471   6.398 -0.4110  0.7548 -0.4329
  206MOL0     C28311  12.615   8.436   6.525 -0.3292 -0.1763  0.2117
  206MOL0     C28312  12.765   8.394   6.487  0.2334  0.4473 -0.1578
  206MOL0     C28313  12.854   8.513   6.481  0.3923 -0.3569 -0.2582
  206MOL0     O28314  12.809   8.578   6.363  0.0425 -0.4371 -0.3437
  206MOL0     C28315  12.887   8.663   6.285  0.8523 -1.1441 -0.6420
  206MOL0     C28316  12.854   8.673   6.150 -0.4059  0.1498 -0.6532
  206MOL0     C28317  12.935   8.733   6.050 -0.4862 -0.4714 -0.2405
  206MOL0     C28318  12.897   8.737   5.908  0.3980  0.1072 -0.7471
  206MOL0     C28319  13.067   8.782   6.098 -0.2704  0.6222  0.3895
  206MOL0     C28320  13.183   8.840   6.013  0.4479  0.6287  0.3871
  206MOL0     O28321  13.304   8.864   6.072 -0.3386  0.8421  0.2680
  206MOL0     C28322  13.397   8.950   6.015  0.4422 -0.1911 -0.3443
  206MOL0     C28323  13.521   8.942   6.069  0.2736 -0.6836 -0.1923
  206MOL0     C28324  13.635   9.012   6.016 -0.1085  0.4550  0.7535
  206MOL0     C28325  13.600   9.125   5.925 -0.1910  0.2509  0.0392
  206MOL0     O28326  13.706   9.197   5.869  0.7132 -0.2351  0.9965
  206MOL0     C28327  13.842   9.189   5.923 -0.2442 -0.2864 -1.1421
  206MOL0     C28328  13.893   9.327   5.881 -0.2064  0.6529  0.3559
  206MOL0     C28329  14.039   9.342   5.912 -0.6570 -0.4684  1.0386
  206MOL0     C28330  14.086   9.489   5.895 -0.1438  0.4041 -0.3269
  206MOL0     C28331  14.238   9.504   5.920  0.4811  0.1772 -0.9687
  206MOL0     C28332  14.283   9.659   5.901 -0.2087 -0.0356  0.1943
  206MOL0     C28333  14.428   9.671   5.917 -0.1072  0.6242 -0.1807
  206MOL0     C28334  14.475   9.815   5.930  0.0603 -0.4228  0.4843
  206MOL0    Cl28335  14.641   9.813   5.942 -0.3164  0.0679  0.0649
  206MOL0     C28336  13.470   9.137   5.879 -0.9123 -0.3343 -0.2455
  206MOL0     C28337  13.366   9.050   5.916 -0.4124  0.2062  0.7468
  206MOL0     O28338  13.161   8.851   5.891 -0.5019  0.1809 -0.1877
  206MOL0     C28339  13.089   8.776   6.236  0.1061  0.8479  0.2959
  206MOL0     C28340  13.001   8.724   6.319 -0.0383  0.3071  0.1182
  206MOL0     N28341  12.340   8.533   6.563 -0.8770 -0.5139  0.1215
  206MOL0     N28342  12.215   8.526   6.570  0.5358 -0.8638 -0.9471
  206MOL0     C28343  11.465   7.644   6.955  0.1859 -1.1557  0.6280
  206MOL0     C28344  11.349   7.577   6.971 -0.9965  0.7210  0.8955
  206MOL0     C28345  11.029   7.285   6.925  0.9666 -0.3405 -0.4948
  206MOL0     C28346  10.915   7.368   6.931 -1.0312 -0.3019  0.9858
  206MOL0     C28347  10.787   7.314   6.954  0.0442 -0.8819 -0.5305
  206MOL0     C28348  10.769   7.178   6.982 -0.1051  0.2965 -0.0687
  206MOL0     O28349  10.651   7.124   7.029 -0.1383 -0.9805 -0.7680
  206MOL0     C28350  10.528   7.200   6.997 -0.3433  1.1319 -0.1805
  206MOL0     C28351  10.406   7.103   7.004  1.2886  0.2066  0.3838
  206MOL0     C28352  10.279   7.182   6.997  1.2562 -0.8957 -0.1233
  206MOL0     C28353  10.155   7.104   6.963 -0.5826  0.2367  0.1494
  206MOL0     C28354  10.100   7.038   7.077  0.3338 -0.3349  0.2521
  206MOL0     C28355  10.058   6.992   7.174 -0.3306 -0.7519  0.2443
  206MOL0     C28356  10.886   7.094   6.962 -0.6474  0.3513  0.4605
  206MOL0     C28357  11.015   7.149   6.934 -0.5040  0.5953 -0.0065
  206MOL0     C28358  11.127   7.045   6.906  0.1639 -0.1590 -0.0063
  206MOL0     H28359  11.237   7.598   6.645 -0.0782  3.7105  0.0138
  206MOL0     H28360  11.453   7.693   6.611 -3.8261  1.4872 -1.8258
  206MOL0     H28361  11.632   7.890   6.966  1.5054  0.1531 -0.0445
  206MOL0     H28362  11.558   7.935   6.825 -1.0370 -0.1037  0.2685
  206MOL0     H28363  11.854   7.861   6.831  2.1082  0.5567 -1.2522
  206MOL0     H28364  11.762   7.931   6.692  0.5229 -1.1734  0.6330
  206MOL0     H28365  11.731   8.149   6.830  0.8165  2.0040 -1.0546
  206MOL0     H28366  11.841   8.076   6.948  1.5299  2.7770 -0.2684
  206MOL0     H28367  11.991   8.178   6.836  1.1942 -0.1558 -0.7255
  206MOL0     H28368  12.003   8.021   6.748 -0.1647  0.7352 -1.6872
  206MOL0     H28369  11.859   8.273   6.656 -0.2423 -0.7201  1.2351
  206MOL0     H28370  11.840   8.115   6.576 -1.1946  0.9434 -0.1441
  206MOL0     H28371  12.112   8.250   6.608 -2.1800  1.6594  0.7328
  206MOL0     H28372  12.081   8.105   6.522  0.6073  0.9794 -0.5923
  206MOL0     H28373  11.919   8.253   6.376  1.8542 -0.8954 -2.5856
  206MOL0     H28374  12.082   8.243   6.339 -0.5961  0.9422 -0.9888
  206MOL0     H28375  11.993   8.479   6.345 -1.7204  1.8236  0.1026
  206MOL0     H28376  11.956   8.458   6.513 -1.5186 -3.1838  0.1580
  206MOL0     H28377  12.269   8.398   6.280  0.9794 -0.1391  0.5287
  206MOL0     H28378  12.552   8.568   6.352 -1.5530  1.0700 -0.2551
  206MOL0     H28379  12.542   8.398   6.317 -1.0530  2.4299 -2.0905
  206MOL0     H28380  12.622   8.525   6.587  1.1934 -0.7649  0.9283
  206MOL0     H28381  12.564   8.352   6.573 -1.3265  0.7506  0.8253
  206MOL0     H28382  12.801   8.330   6.568 -3.4913  1.7059  2.8227
  206MOL0     H28383  12.778   8.339   6.394  0.1067  0.3053 -0.0919
  206MOL0     H28384  12.833   8.571   6.571 -0.7387  0.0030 -0.7408
  206MOL0     H28385  12.959   8.482   6.472  0.3785 -0.2223 -0.9148
  206MOL0     H28386  12.756   8.635   6.122 -0.4676  0.2293 -0.5477
  206MOL0     H28387  12.963   8.675   5.846 -1.5726 -2.4955 -0.4358
  206MOL0     H28388  12.897   8.837   5.865 -1.8494  1.8371  2.7983
  206MOL0     H28389  12.798   8.692   5.894  0.6175 -1.2457  1.4733
  206MOL0     H28390  13.534   8.863   6.143 -0.7127  0.8964  1.7627
  206MOL0     H28391  13.733   8.999   6.061  0.5483  0.1342 -0.7251
  206MOL0     H28392  13.840   9.187   6.033 -2.1876 -1.5882 -1.1440
  206MOL0     H28393  13.893   9.097   5.895 -3.3594 -3.1492  1.6360
  206MOL0     H28394  13.891   9.336   5.772  1.4719  0.3542  0.2730
  206MOL0     H28395  13.834   9.403   5.934 -0.0300  0.2895  1.0912
  206MOL0     H28396  14.102   9.285   5.843 -0.9754 -0.0761  0.4159
  206MOL0     H28397  14.054   9.316   6.018  0.7727 -2.1590  0.4735
  206MOL0     H28398  14.025   9.549   5.964 -1.6171 -0.5652 -0.7440
  206MOL0     H28399  14.071   9.519   5.791 -0.9452  0.4356 -0.2073
  206MOL0     H28400  14.258   9.471   6.023  2.0975  3.7266 -0.0108
  206MOL0     H28401  14.301   9.438   5.859 -1.3277  0.5654 -3.3975
  206MOL0     H28402  14.231   9.731   5.965 -1.5385 -1.2526  0.5267
  206MOL0     H28403  14.258   9.683   5.797 -1.4949  2.4037  0.9885
  206MOL0     H28404  14.478   9.625   5.832 -1.1396  0.8999 -0.9618
  206MOL0     H28405  14.466   9.614   6.002  3.2727 -1.2507 -2.6728
  206MOL0     H28406  14.433   9.858   6.022  2.1816  2.7544  0.1357
  206MOL0     H28407  14.441   9.872   5.843  0.1662  0.1382  0.7989
  206MOL0     H28408  13.451   9.217   5.809 -1.9156  0.4025  0.8392
  206MOL0     H28409  13.273   9.061   5.861  0.2636  1.5493 -0.1837
  206MOL0     H28410  13.172   8.824   6.286  0.3908 -1.2333  1.9679
  206MOL0     H28411  13.012   8.727   6.427 -1.6300 -0.3101  0.3296
  206MOL0     H28412  11.519   7.686   7.039 -0.4952 -0.3279  0.6686
  206MOL0     H28413  11.302   7.550   7.065 -1.9171  1.8160  0.7662
  206MOL0     H28414  10.925   7.473   6.904 -2.8935 -0.4888 -0.6970
  206MOL0     H28415  10.707   7.386   6.944 -1.0559 -2.0893 -0.7058
  206MOL0     H28416  10.512   7.272   7.078 -0.3031  0.2294  0.6404
  206MOL0     H28417  10.525   7.244   6.897 -3.5397  0.0395 -0.6928
  206MOL0     H28418  10.411   7.044   7.096  1.0940  0.2825  0.4443
  206MOL0     H28419  10.398   7.025   6.927  0.0190 -0.4664  1.1495
  206MOL0     H28420  10.265   7.233   7.092  1.1715  0.9990 -1.1075
  206MOL0     H28421  10.288   7.264   6.925 -1.3378  1.2128  1.7796
  206MOL0     H28422  10.170   7.024   6.890 -0.6130  0.5683 -0.2239
  206MOL0     H28423  10.087   7.182   6.928  2.8891  2.5086 -2.3146
  206MOL0     H28424  10.015   6.979   7.272  0.5798 -0.5114  0.6893
  206MOL0     H28425  10.870   6.987   6.968 -1.4294  0.0894 -3.4369
  206MOL0     H28426  11.067   6.959   6.875  0.5950 -1.3403  2.2767
  206MOL0     H28427  11.193   7.079   6.825  2.6459 -2.2715  0.9814
  206MOL0     H28428  11.192   7.020   6.990 -1.8482 -0.8218  1.4313
  207MOL0     O28429  10.135   7.697   6.565  1.0163  0.4827 -0.0157
  207MOL0     C28430  10.144   7.787   6.482 -0.0676 -0.8745 -0.0674
  207MOL0     O28431  10.234   7.789   6.382 -1.0025  0.1498 -0.0299
  207MOL0     C28432  10.295   7.671   6.339 -0.9896  0.0447 -0.3220
  207MOL0     C28433  10.223   7.571   6.274 -0.1694 -0.3346 -0.5857
  207MOL0     C28434  10.296   7.463   6.228  0.2116 -0.5879  0.9507
  207MOL0     C28435  10.433   7.463   6.227 -0.0613 -0.0872  0.2908
  207MOL0     O28436  10.493   7.364   6.167  0.3748  0.0184 -0.4504
  207MOL0     C28437  10.514   7.262   6.264  0.4159  0.0461 -0.1101
  207MOL0     C28438  10.614   7.169   6.197 -0.3709 -0.0026  0.3406
  207MOL0     C28439  10.746   7.241   6.159 -0.5331  0.0435  0.0910
  207MOL0     C28440  10.861   7.143   6.124 -0.2647 -0.1637  0.4648
  207MOL0     C28441  10.987   7.228   6.089  0.0858  0.3651  0.4888
  207MOL0     C28442  11.106   7.140   6.073  0.7281 -0.6856  0.3913
  207MOL0     C28443  11.231   7.228   6.033  0.3150  0.8542  0.0055
  207MOL0     C28444  11.220   7.277   5.878  0.2426 -0.0295 -0.4969
  207MOL0     N28445  11.341   7.354   5.841 -0.9892 -0.2285  0.2846
  207MOL0     C28446  11.459   7.306   5.782  0.1593 -0.8263 -0.0628
  207MOL0     C28447  11.542   7.410   5.799  0.1556 -0.0073  0.1293
  207MOL0     C28448  11.677   7.413   5.750  0.0414  0.2782  0.5397
  207MOL0     C28449  11.767   7.534   5.792 -0.2584 -1.1276 -0.3828
  207MOL0     C28450  11.742   7.653   5.695  0.6439 -0.0824  0.0510
  207MOL0     C28451  11.839   7.768   5.727  0.4983  0.4316  0.8341
  207MOL0     O28452  11.803   7.840   5.844 -0.2755  0.2995  0.5796
  207MOL0     C28453  11.853   7.969   5.862 -0.1146  0.5546  0.5147
  207MOL0     C28454  11.785   8.042   5.960 -0.4420  0.0058  0.6668
  207MOL0     C28455  11.833   8.166   6.004 -0.3581  0.7349  0.0834
  207MOL0     C28456  11.738   8.241   6.097  0.1075  0.0122 -0.5535
  207MOL0     C28457  11.965   8.208   5.967  0.4015  0.6633 -0.7006
  207MOL0     C28458  12.035   8.336   6.024 -0.0161  0.5821 -0.4952
  207MOL0     O28459  12.162   8.361   5.992 -0.1563  0.0815 -0.1423
  207MOL0     C28460  12.229   8.476   6.037  0.6582 -0.3934 -0.0479
  207MOL0     C28461  12.367   8.478   6.026  0.1103 -0.4293  0.6610
  207MOL0     C28462  12.447   8.587   6.060 -0.0885  0.4281 -0.0469
  207MOL0     C28463  12.388   8.700   6.113 -0.4113 -0.2882 -0.5194
  207MOL0     O28464  12.470   8.804   6.137  0.2701 -0.4472 -0.2227
  207MOL0     C28465  12.435   8.875   6.251 -0.6679  0.7373  0.7154
  207MOL0     C28466  12.506   9.009   6.265  0.0556 -0.1575 -0.5086
  207MOL0     C28467  12.656   9.012   6.257  0.5907  1.0257 -0.3526
  207MOL0     C28468  12.705   9.152   6.297 -0.1259  0.0951  0.2169
  207MOL0     C28469  12.849   9.175   6.309 -0.7168 -0.0543 -0.7407
  207MOL0     C28470  12.920   9.195   6.175 -0.5352 -0.5211  0.5052
  207MOL0     C28471  13.068   9.185   6.198  0.2332 -0.4976 -0.9364
  207MOL0     C28472  13.139   9.299   6.125 -0.1161  0.2408 -0.2145
  207MOL0    Cl28473  13.151   9.450   6.219 -0.0341  0.1766 -0.3281
  207MOL0     C28474  12.250   8.706   6.122 -0.3353 -0.1420 -0.3920
  207MOL0     C28475  12.172   8.593   6.087 -0.4577  0.7467  0.4265
  207MOL0     O28476  11.972   8.398   6.101  0.3586  0.0731 -0.4052
  207MOL0     C28477  12.033   8.126   5.871  0.5228  0.3254 -0.2200
  207MOL0     C28478  11.975   8.010   5.813  0.4631 -0.0980  0.7880
  207MOL0     N28479  11.470   7.516   5.856  0.0463 -0.1325 -0.4768
  207MOL0     N28480  11.353   7.485   5.877 -0.7957  1.2141 -0.2681
  207MOL0     C28481  10.503   7.567   6.288  0.1204 -0.0286  0.7144
  207MOL0     C28482  10.439   7.670   6.354  0.2562 -0.7094  0.8949
  207MOL0     C28483  10.036   7.889   6.473 -0.2553  0.0219  0.0223
  207MOL0     C28484  10.018   7.955   6.349 -0.5990 -0.5920  0.6411
  207MOL0     C28485   9.899   8.016   6.322  0.7208  0.5759  0.1275
  207MOL0     C28486   9.792   8.028   6.410 -0.6620  0.6891  0.5492
  207MOL0     O28487   9.681   8.083   6.364  0.5045  0.2574  0.3469
  207MOL0     C28488   9.588   8.154   6.449  0.4438 -0.0603  1.3084
  207MOL0     C28489   9.467   8.080   6.493 -0.7009  0.0722  0.1174
  207MOL0     C28490   9.344   8.176   6.511  0.6391  0.6141 -0.0189
  207MOL0     C28491   9.280   8.218   6.374 -0.1187  0.2703  0.1017
  207MOL0     C28492   9.169   8.314   6.389 -0.4798  0.2110 -0.3688
  207MOL0     C28493   9.074   8.382   6.398 -0.0321  0.4905  0.1636
  207MOL0     C28494   9.817   7.974   6.539  0.0096  0.0409  0.4520
  207MOL0     C28495   9.939   7.917   6.571 -0.1170  0.4594 -1.1175
  207MOL0     C28496   9.973   7.882   6.714  0.2580  0.4363 -0.0336
  207MOL0     H28497  10.115   7.577   6.283 -0.1879 -1.0903 -0.1930
  207MOL0     H28498  10.249   7.380   6.177  0.9668  0.6913 -2.0900
  207MOL0     H28499  10.424   7.213   6.302 -0.3715 -0.0199 -1.9600
  207MOL0     H28500  10.557   7.311   6.352  0.2309  1.6888 -0.9135
  207MOL0     H28501  10.630   7.087   6.268 -1.7597  0.1946  0.9128
  207MOL0     H28502  10.561   7.123   6.114 -4.1111 -1.1944  3.0956
  207MOL0     H28503  10.730   7.310   6.076 -0.4753 -1.2492 -1.0205
  207MOL0     H28504  10.783   7.303   6.242  2.4163 -1.4347  0.0015
  207MOL0     H28505  10.882   7.071   6.203  0.1029  0.8245  1.2814
  207MOL0     H28506  10.843   7.076   6.039  2.2977 -1.3927  0.7896
  207MOL0     H28507  11.008   7.308   6.161 -0.5634  0.4571  0.5855
  207MOL0     H28508  10.975   7.290   6.000  5.2605  0.4559 -0.4486
  207MOL0     H28509  11.139   7.088   6.163  1.3912 -1.6084 -0.3543
  207MOL0     H28510  11.083   7.067   5.994  0.5728  0.6100 -0.8120
  207MOL0     H28511  11.328   7.178   6.043 -0.0932  0.3836  2.0558
  207MOL0     H28512  11.249   7.316   6.095 -2.1837  2.2428 -1.0610
  207MOL0     H28513  11.214   7.191   5.811 -1.9340 -1.1585  1.0305
  207MOL0     H28514  11.126   7.332   5.862  0.1931 -0.4294 -1.6686
  207MOL0     H28515  11.473   7.203   5.750 -1.2846 -1.4122  1.1161
  207MOL0     H28516  11.669   7.411   5.641 -0.1634  0.0483  0.5589
  207MOL0     H28517  11.731   7.328   5.792 -1.1912 -0.1282  1.3589
  207MOL0     H28518  11.764   7.556   5.900  1.5151  0.7863 -0.6411
  207MOL0     H28519  11.870   7.501   5.775 -0.7379 -2.0714 -1.5856
  207MOL0     H28520  11.756   7.621   5.591 -2.1761  2.0127 -1.1128
  207MOL0     H28521  11.642   7.696   5.698  0.5992 -0.2339  1.1159
  207MOL0     H28522  11.943   7.739   5.746  0.9408  1.0952 -0.4657
  207MOL0     H28523  11.837   7.836   5.641 -0.9786 -0.4096  0.1598
  207MOL0     H28524  11.683   8.008   5.979 -0.6387 -0.1631 -0.5917
  207MOL0     H28525  11.777   8.256   6.198 -1.3607  1.4266 -0.1643
  207MOL0     H28526  11.647   8.184   6.113 -1.4110  2.3138 -0.5011
  207MOL0     H28527  11.710   8.340   6.061  2.0243  0.0645 -2.0937
  207MOL0     H28528  12.418   8.393   5.982 -0.2534  0.1204 -0.8840
  207MOL0     H28529  12.551   8.570   6.035 -0.5821 -1.5464 -1.0195
  207MOL0     H28530  12.332   8.907   6.234  0.3713  2.7554 -2.7315
  207MOL0     H28531  12.435   8.821   6.346  1.2619  2.2069  1.6391
  207MOL0     H28532  12.471   9.084   6.193 -0.6386 -1.1828 -1.2747
  207MOL0     H28533  12.483   9.042   6.367 -0.0627 -0.7055 -0.3519
  207MOL0     H28534  12.697   8.988   6.158  0.8590 -0.8779  0.2006
  207MOL0     H28535  12.703   8.940   6.324 -0.0437  0.1062 -0.8864
  207MOL0     H28536  12.679   9.169   6.402  2.4663 -2.0848  1.3298
  207MOL0     H28537  12.667   9.224   6.224 -1.3365  1.3682  2.0061
  207MOL0     H28538  12.867   9.260   6.375 -1.4794  0.3781 -1.0718
  207MOL0     H28539  12.882   9.085   6.362 -2.5336  0.8741  2.2585
  207MOL0     H28540  12.895   9.295   6.137  0.2196  0.2860  2.0306
  207MOL0     H28541  12.896   9.110   6.111  0.9045 -0.2402 -0.4388
  207MOL0     H28542  13.102   9.090   6.155 -1.2412 -1.4986  0.0295
  207MOL0     H28543  13.096   9.205   6.302  0.0058  0.9494 -1.1274
  207MOL0     H28544  13.103   9.308   6.022 -2.9465 -0.6063  0.6092
  207MOL0     H28545  13.243   9.266   6.115  0.3234  0.0887  3.5660
  207MOL0     H28546  12.190   8.794   6.141 -0.6140 -0.3365 -0.3689
  207MOL0     H28547  12.065   8.609   6.079 -0.5576 -0.6645 -2.0365
  207MOL0     H28548  12.132   8.153   5.836  0.5810  0.2692 -0.0987
  207MOL0     H28549  12.035   7.944   5.751 -1.2125  1.4417 -2.7202
  207MOL0     H28550  10.611   7.575   6.279  0.2074 -2.8526 -3.4351
  207MOL0     H28551  10.489   7.760   6.390 -1.6871  0.5439  0.6386
  207MOL0     H28552  10.087   7.939   6.267 -0.6342 -1.6281  0.7969
  207MOL0     H28553   9.881   8.042   6.219  0.1986 -0.8973 -0.1797
  207MOL0     H28554   9.642   8.187   6.538  0.4748 -1.5720  1.8870
  207MOL0     H28555   9.561   8.242   6.391  1.9863  0.1650  0.8899
  207MOL0     H28556   9.491   8.030   6.588 -3.6698  1.1491  1.5651
  207MOL0     H28557   9.442   8.010   6.414 -1.1728  0.6629 -0.2608
  207MOL0     H28558   9.267   8.115   6.560  2.1280 -1.3797  0.0085
  207MOL0     H28559   9.384   8.266   6.558  2.3875 -0.1035 -0.0573
  207MOL0     H28560   9.248   8.140   6.304  1.9206  0.2980 -0.9406
  207MOL0     H28561   9.364   8.267   6.324 -0.1680  0.3407  0.0904
  207MOL0     H28562   8.990   8.446   6.415 -0.0609  0.0635  1.7839
  207MOL0     H28563   9.740   7.986   6.615  0.8728  1.2971  1.1641
  207MOL0     H28564  10.082   7.877   6.722  0.3017 -0.3957 -1.0597
  207MOL0     H28565   9.939   7.963   6.780  2.3339  1.4165 -0.0655
  207MOL0     H28566   9.943   7.785   6.753  3.6513  0.4044  3.0583
  208MOL0     O28567   9.146   7.800   9.456  0.0489 -0.0790 -0.6445
  208MOL0     C28568   9.072   7.706   9.412 -0.4097 -0.4527 -0.3875
  208MOL0     O28569   9.122   7.594   9.352  0.6727 -0.7943  0.3098
  208MOL0     C28570   9.254   7.568   9.350  0.1107  0.6270 -0.0565
  208MOL0     C28571   9.314   7.515   9.466 -0.2214 -0.5465  0.4274
  208MOL0     C28572   9.453   7.498   9.471  0.2875  0.1664 -0.4133
  208MOL0     C28573   9.530   7.516   9.358 -0.6573  0.1054 -0.6275
  208MOL0     O28574   9.668   7.499   9.371 -0.7152 -0.2660 -0.3407
  208MOL0     C28575   9.769   7.575   9.293  0.4538 -0.7339 -0.0990
  208MOL0     C28576   9.826   7.491   9.185  0.0714  0.1975  0.2576
  208MOL0     C28577   9.938   7.405   9.257 -0.2760 -0.8550  0.7313
  208MOL0     C28578  10.027   7.325   9.150  0.5473 -0.6701  0.0284
  208MOL0     C28579  10.123   7.221   9.202 -0.5206 -0.2929 -0.3425
  208MOL0     C28580  10.252   7.287   9.260  0.0076 -0.9581 -0.3179
  208MOL0     C28581  10.384   7.203   9.239  1.0796 -0.3111  0.6151
  208MOL0     C28582  10.430   7.230   9.093  0.8884  0.3373 -0.2296
  208MOL0     N28583  10.560   7.158   9.087  0.4899  0.0264  1.0409
  208MOL0     C28584  10.665   7.194   9.012 -0.0957  0.1152  0.0263
  208MOL0     C28585  10.762   7.110   9.033 -0.9104 -0.4867 -0.2532
  208MOL0     C28586  10.900   7.099   8.972  0.0830 -0.3371  0.9274
  208MOL0     C28587  11.008   7.140   9.065  0.1556 -0.5191  0.8015
  208MOL0     C28588  11.021   7.052   9.187 -0.2030 -0.1680 -0.5563
  208MOL0     C28589  11.026   6.901   9.168 -0.8974 -0.1086 -0.7636
  208MOL0     O28590  11.137   6.871   9.079  0.4200  0.1400  0.4592
  208MOL0     C28591  11.257   6.871   9.130 -0.1090 -0.3152 -0.1456
  208MOL0     C28592  11.361   6.933   9.065  0.2289 -0.2368  0.3449
  208MOL0     C28593  11.497   6.921   9.098 -0.9313 -0.0177  0.2114
  208MOL0     C28594  11.591   6.992   9.003 -0.4534  0.7652  0.3233
  208MOL0     C28595  11.533   6.837   9.212  0.0190 -1.2714  0.7784
  208MOL0     C28596  11.672   6.807   9.260  0.4674 -0.9807  0.1944
  208MOL0     O28597  11.676   6.705   9.355 -0.5157 -0.5603 -0.2575
  208MOL0     C28598  11.800   6.645   9.388  0.3122 -0.9799  0.6120
  208MOL0     C28599  11.928   6.675   9.336 -0.5004  0.0845 -0.1917
  208MOL0     C28600  12.039   6.608   9.378 -0.4497 -0.2262 -0.1670
  208MOL0     C28601  12.025   6.506   9.469  0.2030 -1.4536 -0.4530
  208MOL0     O28602  12.143   6.452   9.507 -0.2461  0.0929  0.5569
  208MOL0     C28603  12.141   6.348   9.604  0.1492 -0.6158 -0.1886
  208MOL0     C28604  12.274   6.296   9.664  0.5643  0.4278  0.6856
  208MOL0     C28605  12.359   6.224   9.552  0.5577  0.9259  0.3033
  208MOL0     C28606  12.511   6.226   9.589 -0.5255 -0.1483  0.0982
  208MOL0     C28607  12.584   6.129   9.505 -0.1757 -0.4275 -0.2793
  208MOL0     C28608  12.734   6.166   9.484 -0.7820 -0.2364  0.1331
  208MOL0     C28609  12.829   6.105   9.587  0.6386  0.0030 -0.6861
  208MOL0     C28610  12.858   5.958   9.575  0.1212  0.7671 -0.1263
  208MOL0    Cl28611  12.940   5.913   9.417  0.4589  0.0455  0.0892
  208MOL0     C28612  11.891   6.475   9.517 -0.1811 -0.1210 -1.1161
  208MOL0     C28613  11.782   6.542   9.476 -0.0773  0.3754  0.9210
  208MOL0     O28614  11.762   6.881   9.228 -0.7530  0.1328  0.5405
  208MOL0     C28615  11.425   6.777   9.281  0.0238 -0.2793 -0.9156
  208MOL0     C28616  11.292   6.796   9.247  0.3934 -0.1967  0.4195
  208MOL0     N28617  10.720   7.010   9.121  0.1776  0.2891 -0.3428
  208MOL0     N28618  10.590   7.037   9.139 -0.6962  0.1726 -0.6051
  208MOL0     C28619   9.466   7.567   9.244 -0.2035 -0.2655  0.3275
  208MOL0     C28620   9.329   7.593   9.233  0.5530  0.7261 -1.0354
  208MOL0     C28621   8.925   7.705   9.433  0.1590  0.3102 -1.8151
  208MOL0     C28622   8.857   7.582   9.436  0.0263  0.0190  0.2628
  208MOL0     C28623   8.721   7.573   9.443 -0.4056 -0.0128  0.9236
  208MOL0     C28624   8.640   7.681   9.460  0.1053  0.2912 -0.1875
  208MOL0     O28625   8.505   7.670   9.484 -0.0928 -0.3602  0.0060
  208MOL0     C28626   8.434   7.550   9.439  0.7982 -0.4847  0.6590
  208MOL0     C28627   8.279   7.557   9.477 -0.6299  0.7575  0.0592
  208MOL0     C28628   8.272   7.522   9.631  0.2786  1.0450  0.2099
  208MOL0     C28629   8.128   7.541   9.686  0.3531 -0.0773 -0.2260
  208MOL0     C28630   8.123   7.536   9.835  0.8755 -0.6617  0.1375
  208MOL0     C28631   8.120   7.544   9.963 -1.1594  0.0021 -0.6436
  208MOL0     C28632   8.705   7.807   9.472 -0.0311  0.9382 -0.1824
  208MOL0     C28633   8.846   7.818   9.453 -0.9738  0.2217  0.9809
  208MOL0     C28634   8.914   7.956   9.450  0.2122  0.3179  0.3174
  208MOL0     H28635   9.252   7.481   9.548 -2.0693  1.6133  0.0161
  208MOL0     H28636   9.510   7.446   9.548  0.4925 -0.7500 -1.1668
  208MOL0     H28637   9.846   7.632   9.346  1.9775 -1.0079 -1.9063
  208MOL0     H28638   9.713   7.652   9.238  1.7756  1.9961  2.0778
  208MOL0     H28639   9.750   7.433   9.133 -0.0941  1.7256 -1.2850
  208MOL0     H28640   9.855   7.559   9.104 -1.8559 -0.6266 -1.1931
  208MOL0     H28641   9.995   7.460   9.332 -0.3813  0.0223  0.1757
  208MOL0     H28642   9.896   7.324   9.318  0.8479 -0.8231  1.5862
  208MOL0     H28643   9.951   7.275   9.090 -1.0766 -0.0638  1.4814
  208MOL0     H28644  10.077   7.399   9.086 -2.0932  2.1440  0.9608
  208MOL0     H28645  10.157   7.159   9.119  2.6191 -1.6398  1.7658
  208MOL0     H28646  10.085   7.157   9.282  2.0145 -0.5404  0.7385
  208MOL0     H28647  10.276   7.386   9.219  1.5620 -0.1758  2.2821
  208MOL0     H28648  10.231   7.306   9.365  0.9646  0.7801 -0.4071
  208MOL0     H28649  10.366   7.100   9.271  2.3446 -0.5421  0.6347
  208MOL0     H28650  10.466   7.246   9.295  0.3437  2.6136 -0.3546
  208MOL0     H28651  10.367   7.190   9.013  2.6172 -0.2460 -1.3377
  208MOL0     H28652  10.445   7.336   9.071  1.2185  0.8075  2.0285
  208MOL0     H28653  10.676   7.273   8.938  1.1585  1.7107  1.8164
  208MOL0     H28654  10.908   7.161   8.883  2.0143 -1.7165  0.0530
  208MOL0     H28655  10.910   7.000   8.926 -0.6690 -1.1603  2.4603
  208MOL0     H28656  11.110   7.140   9.026  1.2082  0.3389  3.3866
  208MOL0     H28657  10.983   7.242   9.096  0.3011 -0.8016  1.8813
  208MOL0     H28658  11.107   7.084   9.248 -1.5631 -1.3942  2.1900
  208MOL0     H28659  10.935   7.072   9.251  1.4170  0.4753  1.5664
  208MOL0     H28660  11.022   6.850   9.265 -5.7032 -0.1179 -0.6880
  208MOL0     H28661  10.930   6.865   9.130 -0.2971 -2.2748 -0.3818
  208MOL0     H28662  11.320   6.984   8.978  0.9613 -2.2741 -1.2756
  208MOL0     H28663  11.544   7.056   8.927 -0.2975 -1.3453 -1.6718
  208MOL0     H28664  11.649   6.917   8.947 -0.7268  0.4809  0.4159
  208MOL0     H28665  11.668   7.049   9.055  0.7793  0.9837 -1.6322
  208MOL0     H28666  11.945   6.757   9.268  1.9031  0.0374  0.2666
  208MOL0     H28667  12.138   6.639   9.347 -0.7747  0.1928 -0.8096
  208MOL0     H28668  12.088   6.379   9.695  4.4021  0.8175  2.0904
  208MOL0     H28669  12.082   6.263   9.566  1.7818 -1.5726 -0.7130
  208MOL0     H28670  12.336   6.379   9.699  2.2078  0.9988 -3.0208
  208MOL0     H28671  12.258   6.221   9.741  0.0376 -0.6470 -0.4407
  208MOL0     H28672  12.341   6.268   9.454  3.1491  1.9736  0.2310
  208MOL0     H28673  12.319   6.123   9.540 -1.9030  1.8669  0.0849
  208MOL0     H28674  12.528   6.205   9.695  1.3038 -1.7177 -0.4593
  208MOL0     H28675  12.544   6.330   9.575 -0.2030 -0.4050 -1.1416
  208MOL0     H28676  12.563   6.028   9.541  1.1182 -0.5085  0.3046
  208MOL0     H28677  12.543   6.131   9.403  0.7572 -1.1669 -0.6851
  208MOL0     H28678  12.746   6.274   9.481 -0.1037 -0.0682  4.1848
  208MOL0     H28679  12.773   6.127   9.389 -3.2657 -1.2085 -0.5793
  208MOL0     H28680  12.790   6.128   9.687  0.2271 -1.0407 -0.5955
  208MOL0     H28681  12.924   6.159   9.593  3.3960 -4.4479  0.1520
  208MOL0     H28682  12.760   5.909   9.586 -0.9564  2.4277 -1.6665
  208MOL0     H28683  12.924   5.924   9.655 -0.2564  2.3080  0.8769
  208MOL0     H28684  11.882   6.392   9.586 -1.8290 -1.6313 -3.0223
  208MOL0     H28685  11.685   6.517   9.517  0.1055  0.0039  1.1318
  208MOL0     H28686  11.452   6.715   9.366 -2.4459 -1.0302 -0.6129
  208MOL0     H28687  11.211   6.744   9.295  0.2372  1.0267  1.5574
  208MOL0     H28688   9.527   7.585   9.156 -1.4049  1.3756 -0.2104
  208MOL0     H28689   9.289   7.640   9.144 -2.0099 -0.4269 -0.5742
  208MOL0     H28690   8.918   7.493   9.419  0.1275 -0.0061  0.7627
  208MOL0     H28691   8.688   7.472   9.423  1.7010 -1.1456  2.7328
  208MOL0     H28692   8.426   7.551   9.330 -1.6756 -3.5974  0.6774
  208MOL0     H28693   8.487   7.458   9.463  1.0686 -0.3873  0.4477
  208MOL0     H28694   8.240   7.474   9.418 -2.9386  2.7228 -1.3546
  208MOL0     H28695   8.225   7.643   9.436 -1.0967  0.2421 -0.4117
  208MOL0     H28696   8.296   7.417   9.645 -1.9210  0.4949  0.2350
  208MOL0     H28697   8.342   7.575   9.695  1.0812  1.5768 -1.0616
  208MOL0     H28698   8.063   7.459   9.655  1.0352 -1.4805  1.8516
  208MOL0     H28699   8.098   7.642   9.656  0.4977  0.9664  2.8419
  208MOL0     H28700   8.143   7.554  10.067  2.3742  0.2074 -1.3207
  208MOL0     H28701   8.642   7.889   9.506 -1.2356  0.7211 -1.7685
  208MOL0     H28702   8.960   7.969   9.548  0.8001 -0.7787  0.2068
  208MOL0     H28703   8.994   7.966   9.375  0.8833  1.2091  1.1240
  208MOL0     H28704   8.840   8.031   9.421  1.5498  0.9665 -1.6614
  209MOL0     O28705   5.580   6.007   1.266 -1.0140  0.0987  0.1023
  209MOL0     C28706   5.557   6.065   1.373  0.6463 -0.1305 -0.1450
  209MOL0     O28707   5.645   6.093   1.473 -0.0610  0.5006  0.1879
  209MOL0     C28708   5.776   6.051   1.449  1.0592 -1.3341 -0.2293
  209MOL0     C28709   5.865   6.159   1.426 -0.8677 -0.1941 -0.3388
  209MOL0     C28710   5.991   6.130   1.388 -0.3625 -0.1954 -0.2088
  209MOL0     C28711   6.050   6.001   1.376  0.5553  0.0047  0.0410
  209MOL0     O28712   6.175   5.964   1.334 -0.1990 -0.5301 -0.1030
  209MOL0     C28713   6.283   6.052   1.309  0.4536  0.2288  0.1432
  209MOL0     C28714   6.376   5.983   1.209  0.0625  0.1229  0.8590
  209MOL0     C28715   6.503   6.069   1.187 -0.5263 -0.3788 -0.5648
  209MOL0     C28716   6.619   5.973   1.174 -0.7748  0.2847  0.7075
  209MOL0     C28717   6.739   6.045   1.124 -0.1400  0.4330 -0.1678
  209MOL0     C28718   6.876   5.971   1.128 -1.2245 -0.0682  1.3580
  209MOL0     C28719   6.983   6.021   1.037  0.1619  0.0744  0.5875
  209MOL0     C28720   7.116   5.951   1.062  0.1139  0.9973 -0.0572
  209MOL0     N28721   7.218   6.022   0.990  1.0606  0.6532 -0.3653
  209MOL0     C28722   7.247   6.007   0.857 -0.0399 -0.1682  0.3290
  209MOL0     C28723   7.371   6.069   0.842  0.2532  0.7022 -0.2298
  209MOL0     C28724   7.447   6.074   0.719 -0.6032  0.2739  0.0021
  209MOL0     C28725   7.581   6.145   0.726  0.1976 -0.4363  0.5224
  209MOL0     C28726   7.636   6.148   0.577  0.1784  0.8947  0.1039
  209MOL0     C28727   7.767   6.229   0.565  0.2906 -0.5929 -0.0525
  209MOL0     O28728   7.878   6.171   0.640  0.5052 -0.2139  0.8751
  209MOL0     C28729   8.004   6.227   0.609  0.5913  0.7947  0.0883
  209MOL0     C28730   8.025   6.363   0.590 -0.4307 -0.0500  0.2589
  209MOL0     C28731   8.154   6.413   0.563 -0.1088  1.1586 -0.7827
  209MOL0     C28732   8.173   6.556   0.532 -0.3405 -0.5022 -0.1239
  209MOL0     C28733   8.263   6.320   0.567 -0.2628 -0.1135  0.3196
  209MOL0     C28734   8.403   6.354   0.559 -0.2235 -0.0974 -0.0402
  209MOL0     O28735   8.495   6.249   0.542 -0.2706 -0.3483 -0.0100
  209MOL0     C28736   8.634   6.266   0.561  1.0107 -0.6323 -0.4028
  209MOL0     C28737   8.678   6.272   0.688  0.8351  0.5457  0.3134
  209MOL0     C28738   8.816   6.286   0.712  0.0115 -0.3854 -0.2709
  209MOL0     C28739   8.901   6.301   0.600  0.1154 -0.2250 -0.0117
  209MOL0     O28740   9.035   6.324   0.613  0.1561  0.3834  0.2893
  209MOL0     C28741   9.105   6.249   0.717  0.4541 -1.0585  0.6667
  209MOL0     C28742   9.255   6.273   0.714 -1.2802 -0.3864 -0.2080
  209MOL0     C28743   9.351   6.202   0.811 -0.1466 -0.2366  0.3081
  209MOL0     C28744   9.348   6.050   0.769  0.1190  0.6842  0.6426
  209MOL0     C28745   9.469   5.975   0.821 -0.3491 -0.1452  0.1365
  209MOL0     C28746   9.452   5.827   0.779 -0.2033  0.4050 -0.8274
  209MOL0     C28747   9.571   5.730   0.819  0.0037 -0.1593  0.5506
  209MOL0     C28748   9.584   5.718   0.969  0.1664  0.2855 -0.5946
  209MOL0    Cl28749   9.711   5.591   1.008  0.5525  0.3030  0.3893
  209MOL0     C28750   8.855   6.295   0.472 -0.6907 -0.3949  0.2071
  209MOL0     C28751   8.717   6.278   0.453  0.8660  0.8415  0.7761
  209MOL0     O28752   8.434   6.473   0.579  0.6067  0.1223 -0.6580
  209MOL0     C28753   8.241   6.181   0.597  0.2174 -0.5423  0.8414
  209MOL0     C28754   8.112   6.139   0.624 -0.0083 -0.7342  0.5785
  209MOL0     N28755   7.408   6.111   0.964 -0.3606 -0.3091  0.1012
  209MOL0     N28756   7.320   6.084   1.053  0.2616  0.5338  0.9586
  209MOL0     C28757   5.960   5.897   1.402 -0.5885  0.1985  0.1984
  209MOL0     C28758   5.824   5.922   1.436 -0.3066 -0.0533  0.6876
  209MOL0     C28759   5.424   6.122   1.399  1.1805  0.3253 -0.9012
  209MOL0     C28760   5.409   6.244   1.472  0.3696 -0.3844  0.1311
  209MOL0     C28761   5.289   6.301   1.507 -0.7176 -0.1332 -1.3524
  209MOL0     C28762   5.177   6.227   1.481 -0.3926  0.7649  0.2232
  209MOL0     O28763   5.057   6.284   1.521 -0.7721 -0.3281 -1.0843
  209MOL0     C28764   4.943   6.202   1.541 -0.1940 -0.4621  0.4312
  209MOL0     C28765   4.822   6.290   1.583 -0.4888 -0.2172  0.4741
  209MOL0     C28766   4.692   6.213   1.602 -0.5110 -0.0417  0.2771
  209MOL0     C28767   4.569   6.296   1.628  1.5649  0.9512 -0.4087
  209MOL0     C28768   4.448   6.202   1.640 -0.0231  0.4663 -0.0705
  209MOL0     C28769   4.349   6.129   1.651  0.5934 -0.5702  0.6604
  209MOL0     C28770   5.182   6.096   1.417  0.8932 -0.4711 -0.5005
  209MOL0     C28771   5.305   6.048   1.368  0.0791 -0.1782 -0.3495
  209MOL0     C28772   5.300   5.906   1.316 -0.6023 -0.4156  0.4489
  209MOL0     H28773   5.834   6.263   1.428 -1.6317 -0.4189  1.9025
  209MOL0     H28774   6.066   6.206   1.369  0.1071 -0.2790  1.2326
  209MOL0     H28775   6.336   6.087   1.399  4.2636  1.3503 -2.2969
  209MOL0     H28776   6.252   6.147   1.264  3.0824  0.9901 -0.2471
  209MOL0     H28777   6.399   5.884   1.249  0.0619  0.1299  0.8763
  209MOL0     H28778   6.326   5.951   1.117  2.1559 -1.3869  0.1960
  209MOL0     H28779   6.503   6.125   1.093 -0.2858  0.3053 -0.1669
  209MOL0     H28780   6.518   6.139   1.270  0.5178 -1.8980  0.5909
  209MOL0     H28781   6.645   5.945   1.276  3.2809  0.7929 -0.0253
  209MOL0     H28782   6.602   5.883   1.113  0.9876  0.6654 -0.4358
  209MOL0     H28783   6.745   6.140   1.179  1.5445  0.8174 -0.9571
  209MOL0     H28784   6.711   6.060   1.019  0.2327  0.0981 -0.3146
  209MOL0     H28785   6.918   5.970   1.228  0.1154  0.3633  0.8131
  209MOL0     H28786   6.863   5.865   1.102  0.8360  0.2607 -1.4884
  209MOL0     H28787   6.994   6.130   1.048 -0.0772  0.0121  1.5363
  209MOL0     H28788   6.950   6.004   0.934  0.0230 -0.7763  0.7693
  209MOL0     H28789   7.148   5.937   1.165 -2.2385  0.4668  0.6424
  209MOL0     H28790   7.109   5.851   1.017  0.4216  1.3922 -1.0292
  209MOL0     H28791   7.196   5.945   0.784 -1.5972  1.0727  0.3242
  209MOL0     H28792   7.381   6.120   0.644  0.3499  2.6196  0.4996
  209MOL0     H28793   7.458   5.969   0.691 -1.1643  0.7915 -2.3540
  209MOL0     H28794   7.569   6.246   0.766  1.4442  0.0866 -0.3596
  209MOL0     H28795   7.649   6.098   0.798  0.6848 -1.1718 -0.3950
  209MOL0     H28796   7.649   6.045   0.542  0.7696  0.9158  0.2387
  209MOL0     H28797   7.561   6.193   0.512 -2.4974  0.2690  2.5454
  209MOL0     H28798   7.783   6.242   0.458 -0.9395  1.5816 -0.0426
  209MOL0     H28799   7.743   6.328   0.606  0.3149 -0.6278  0.0454
  209MOL0     H28800   7.937   6.426   0.593 -0.6659 -0.3963  1.6494
  209MOL0     H28801   8.246   6.572   0.452 -3.3525 -1.4875 -3.2783
  209MOL0     H28802   8.199   6.604   0.627 -4.0108 -1.3581  1.4846
  209MOL0     H28803   8.080   6.603   0.503  0.6266 -0.1389 -2.9383
  209MOL0     H28804   8.610   6.244   0.767  0.5408  1.1330  0.2733
  209MOL0     H28805   8.860   6.273   0.810  0.3467 -0.8968 -0.4829
  209MOL0     H28806   9.075   6.302   0.808  0.7846  1.2225 -0.4632
  209MOL0     H28807   9.077   6.144   0.723  0.0344 -0.9094  1.3361
  209MOL0     H28808   9.277   6.261   0.607 -2.0721  2.9792 -0.8812
  209MOL0     H28809   9.271   6.379   0.737 -1.1614 -0.0605 -1.6861
  209MOL0     H28810   9.311   6.224   0.911 -0.0321  1.7929 -0.0469
  209MOL0     H28811   9.451   6.243   0.794 -1.5054  1.8962 -3.8196
  209MOL0     H28812   9.354   6.049   0.660  1.9872 -0.8597  0.7121
  209MOL0     H28813   9.250   6.027   0.812 -0.9612  3.6575  0.0525
  209MOL0     H28814   9.560   6.017   0.777 -0.1744  1.2169  1.7256
  209MOL0     H28815   9.477   5.997   0.927  0.9384  1.6114 -0.2762
  209MOL0     H28816   9.431   5.813   0.672  0.1181 -4.3023 -0.4904
  209MOL0     H28817   9.352   5.794   0.809  1.4745 -0.7328  4.5667
  209MOL0     H28818   9.668   5.756   0.776  0.4214  0.0684  1.5845
  209MOL0     H28819   9.552   5.633   0.774  4.5295 -0.4509 -1.2901
  209MOL0     H28820   9.488   5.685   1.010  0.6991 -0.0729  0.4144
  209MOL0     H28821   9.611   5.814   1.013 -2.7073  1.3338 -0.9443
  209MOL0     H28822   8.921   6.305   0.387 -2.7998 -0.3843 -1.5096
  209MOL0     H28823   8.673   6.269   0.354  1.4985 -1.0045  0.6359
  209MOL0     H28824   8.321   6.108   0.601 -0.6408 -1.5073  0.7338
  209MOL0     H28825   8.099   6.036   0.656  4.9352 -1.2899  1.4847
  209MOL0     H28826   5.987   5.792   1.390 -0.1766  0.1383  1.4839
  209MOL0     H28827   5.751   5.842   1.433  1.6421 -1.8905 -0.1623
  209MOL0     H28828   5.498   6.300   1.498 -0.7852  0.2856  3.0907
  209MOL0     H28829   5.282   6.396   1.559 -1.8653 -1.2040  0.5554
  209MOL0     H28830   4.913   6.142   1.454 -2.6827 -0.4164  1.1929
  209MOL0     H28831   4.961   6.133   1.624  0.3255  0.6320  1.2460
  209MOL0     H28832   4.810   6.375   1.516  2.6830  1.1749  1.4636
  209MOL0     H28833   4.844   6.337   1.679 -2.0058  0.6804  0.4039
  209MOL0     H28834   4.693   6.163   1.505  2.5605  1.6224 -0.7034
  209MOL0     H28835   4.699   6.156   1.695 -1.1657  2.5080  2.0060
  209MOL0     H28836   4.540   6.360   1.545 -0.2723  0.5428 -0.1144
  209MOL0     H28837   4.580   6.350   1.723 -0.3175 -1.2061  1.1446
  209MOL0     H28838   4.265   6.064   1.663 -0.1078  0.2143  0.1107
  209MOL0     H28839   5.095   6.032   1.416  0.7232 -0.3130  1.4323
  209MOL0     H28840   5.208   5.860   1.353 -0.9492  1.6754  2.3827
  209MOL0     H28841   5.302   5.903   1.206 -0.4910  0.8291  0.4019
  209MOL0     H28842   5.386   5.861   1.366 -0.8401  1.7671  2.9988
  210MOL0     O28843  10.692   8.666   7.198 -0.1030 -0.4277  0.4407
  210MOL0     C28844  10.624   8.673   7.298  0.3864  0.7711 -0.2664
  210MOL0     O28845  10.676   8.684   7.423 -0.6025 -0.4531  0.1126
  210MOL0     C28846  10.808   8.710   7.438  0.3197  0.1362 -0.3358
  210MOL0     C28847  10.866   8.840   7.433 -0.4822 -1.0223 -1.0225
  210MOL0     C28848  11.002   8.863   7.431 -0.3650  0.1106  0.7474
  210MOL0     C28849  11.086   8.754   7.446 -0.2468 -0.6320  0.4109
  210MOL0     O28850  11.217   8.772   7.455  0.2528  0.3051  0.2601
  210MOL0     C28851  11.265   8.896   7.516  0.5553  0.4488  0.5427
  210MOL0     C28852  11.396   8.858   7.580  0.7431  0.2607 -0.8017
  210MOL0     C28853  11.493   8.980   7.593  0.0396 -0.2324 -0.4389
  210MOL0     C28854  11.642   8.941   7.623  0.5608 -0.6155 -0.7090
  210MOL0     C28855  11.726   9.068   7.632  0.0487  0.2643  0.0759
  210MOL0     C28856  11.874   9.025   7.656 -0.2644 -0.6085  0.7790
  210MOL0     C28857  11.977   9.135   7.644  0.1432 -1.0278  0.2897
  210MOL0     C28858  12.120   9.079   7.658 -0.7848  0.3141  0.2604
  210MOL0     N28859  12.220   9.179   7.657 -0.1610 -0.3641 -0.5860
  210MOL0     C28860  12.264   9.240   7.541 -0.1621  0.6887 -0.7768
  210MOL0     C28861  12.352   9.325   7.591  0.1228 -0.1052 -0.7265
  210MOL0     C28862  12.444   9.428   7.524 -0.1296  0.9652  0.0004
  210MOL0     C28863  12.475   9.396   7.374 -0.0773 -0.3014 -0.3142
  210MOL0     C28864  12.602   9.319   7.368 -0.2692 -0.8817  0.4620
  210MOL0     C28865  12.606   9.236   7.242 -0.3652  0.1268 -0.1623
  210MOL0     O28866  12.728   9.158   7.231 -0.0437 -0.1200 -0.4309
  210MOL0     C28867  12.840   9.207   7.169 -0.2352 -0.1602 -0.6796
  210MOL0     C28868  12.936   9.114   7.128  0.4028  0.1928  0.8103
  210MOL0     C28869  13.054   9.149   7.060  0.3638  0.0905  0.0310
  210MOL0     C28870  13.123   9.040   6.990  0.0898 -0.7483  0.4606
  210MOL0     C28871  13.080   9.288   7.035  0.3200  0.4745  0.2332
  210MOL0     C28872  13.211   9.331   6.996  0.9678 -0.3646  0.1740
  210MOL0     O28873  13.313   9.258   7.033  0.1250  0.1690  0.0938
  210MOL0     C28874  13.438   9.275   6.989  1.1346  0.7591 -0.6356
  210MOL0     C28875  13.483   9.215   6.872  0.6966 -0.8272  0.2464
  210MOL0     C28876  13.622   9.216   6.841  0.6218 -0.1152  0.2011
  210MOL0     C28877  13.717   9.259   6.935  1.3131  0.8238  0.3092
  210MOL0     O28878  13.861   9.248   6.913  0.2441 -0.1344 -0.0591
  210MOL0     C28879  13.905   9.143   6.823  0.0859  0.0514 -0.3206
  210MOL0     C28880  14.056   9.138   6.813 -0.7754 -0.5487 -0.3039
  210MOL0     C28881  14.116   9.279   6.789  0.9014 -0.2143 -0.4288
  210MOL0     C28882  14.266   9.272   6.777 -0.3614 -0.1215  0.3089
  210MOL0     C28883  14.316   9.218   6.638 -0.9387 -0.2086 -0.4624
  210MOL0     C28884  14.301   9.311   6.514  0.0306  0.2503  0.3571
  210MOL0     C28885  14.378   9.252   6.395  0.0101  0.6324  0.2397
  210MOL0     C28886  14.346   9.320   6.268  0.1341 -0.1506 -0.4045
  210MOL0    Cl28887  14.414   9.219   6.133 -0.4379 -0.2939 -0.0742
  210MOL0     C28888  13.668   9.324   7.051 -0.0627 -0.1378 -0.1122
  210MOL0     C28889  13.525   9.334   7.080 -0.6463  0.1890 -0.0900
  210MOL0     O28890  13.214   9.434   6.927 -0.4890 -0.8313 -0.2382
  210MOL0     C28891  12.985   9.383   7.076 -0.2216 -0.1156  0.4387
  210MOL0     C28892  12.865   9.343   7.133 -0.0541 -0.0195 -0.1778
  210MOL0     N28893  12.371   9.297   7.728  0.3367  0.9121  1.0307
  210MOL0     N28894  12.295   9.199   7.759 -1.0703  0.1713  0.4820
  210MOL0     C28895  11.027   8.626   7.463 -0.3233 -0.1997  0.1769
  210MOL0     C28896  10.890   8.604   7.467 -0.2506 -0.0264  0.1197
  210MOL0     C28897  10.474   8.694   7.304  0.0454 -0.0005  0.4803
  210MOL0     C28898  10.414   8.781   7.400 -0.1702 -0.2561 -0.1849
  210MOL0     C28899  10.276   8.794   7.409 -0.6123  1.1515  1.6277
  210MOL0     C28900  10.196   8.719   7.317  0.4299 -0.5478  1.2142
  210MOL0     O28901  10.056   8.733   7.330 -0.2281  0.2839  0.6343
  210MOL0     C28902   9.970   8.640   7.253 -0.4553  0.2345  0.0353
  210MOL0     C28903   9.818   8.675   7.273  0.3751 -1.0049  0.4664
  210MOL0     C28904   9.733   8.573   7.202 -0.4426 -0.0585 -0.4607
  210MOL0     C28905   9.585   8.625   7.187  0.5374 -0.0609 -0.1186
  210MOL0     C28906   9.508   8.553   7.078 -0.0171 -0.3019 -0.5326
  210MOL0     C28907   9.446   8.482   7.003  0.1227 -0.6685  0.8973
  210MOL0     C28908  10.257   8.633   7.227  0.1114 -0.3175 -0.0557
  210MOL0     C28909  10.395   8.622   7.212  0.3438  0.2238 -0.3353
  210MOL0     C28910  10.457   8.535   7.102  0.2343 -0.2907 -0.9554
  210MOL0     H28911  10.796   8.922   7.417 -0.4585 -1.1601 -1.8968
  210MOL0     H28912  11.031   8.967   7.421 -1.9365  0.7056  1.8741
  210MOL0     H28913  11.201   8.943   7.591 -1.2736 -0.5470 -0.3036
  210MOL0     H28914  11.280   8.964   7.432  1.8511  1.3405  1.4627
  210MOL0     H28915  11.367   8.808   7.673  0.2044  1.3541 -0.3596
  210MOL0     H28916  11.443   8.790   7.509  1.6085 -1.1289  1.0224
  210MOL0     H28917  11.491   9.026   7.493 -2.0896 -1.5883 -1.0908
  210MOL0     H28918  11.461   9.061   7.659 -0.1640 -2.3366  2.2148
  210MOL0     H28919  11.642   8.894   7.722 -1.6062  0.0332 -0.3322
  210MOL0     H28920  11.674   8.866   7.551 -3.5978 -1.7171 -1.7122
  210MOL0     H28921  11.695   9.131   7.715  0.3984  0.2792  0.1985
  210MOL0     H28922  11.728   9.120   7.535  1.9405 -2.0291 -1.2265
  210MOL0     H28923  11.887   8.980   7.755 -0.6551 -0.8296  0.7317
  210MOL0     H28924  11.906   8.951   7.581 -1.6118 -0.6568  0.2330
  210MOL0     H28925  11.969   9.212   7.722  3.0552 -3.3738  3.1579
  210MOL0     H28926  11.967   9.176   7.543 -0.6172 -1.0352  0.3560
  210MOL0     H28927  12.129   9.022   7.751 -1.4511  1.3152  0.9592
  210MOL0     H28928  12.137   9.023   7.566 -0.3300 -2.1813  1.7610
  210MOL0     H28929  12.232   9.215   7.440 -1.1372  0.5963 -0.4493
  210MOL0     H28930  12.531   9.432   7.591 -0.4939 -1.0096  0.6594
  210MOL0     H28931  12.392   9.522   7.546 -1.7687 -0.0423  0.5320
  210MOL0     H28932  12.389   9.343   7.331 -0.4413 -0.4008  0.5294
  210MOL0     H28933  12.493   9.484   7.312 -0.5254 -0.5159 -0.7592
  210MOL0     H28934  12.680   9.395   7.380 -0.4263 -0.8346  1.2725
  210MOL0     H28935  12.611   9.254   7.456  1.0261  0.5666  1.4596
  210MOL0     H28936  12.520   9.170   7.242  0.4722 -0.9963  0.6225
  210MOL0     H28937  12.588   9.296   7.152 -2.6160  0.1427  0.2408
  210MOL0     H28938  12.905   9.012   7.146  0.5853  0.1095  0.6596
  210MOL0     H28939  13.057   8.956   6.966  0.0577 -1.0860  1.6579
  210MOL0     H28940  13.204   9.007   7.056 -0.4923 -2.2068  0.4926
  210MOL0     H28941  13.167   9.067   6.894 -1.2048 -1.3977 -0.3389
  210MOL0     H28942  13.413   9.171   6.802  1.3873  0.8962 -1.6276
  210MOL0     H28943  13.659   9.179   6.746  1.0289  2.5850 -0.8066
  210MOL0     H28944  13.870   9.048   6.865 -0.2778  0.5751  0.5842
  210MOL0     H28945  13.871   9.158   6.720  2.4001  2.1042 -0.8958
  210MOL0     H28946  14.100   9.106   6.908  3.5580  1.8400 -1.2301
  210MOL0     H28947  14.088   9.072   6.732  3.9470 -1.3729  1.8659
  210MOL0     H28948  14.090   9.342   6.875 -0.7605  1.1821 -1.8859
  210MOL0     H28949  14.079   9.327   6.698 -0.0735  0.3881  0.2631
  210MOL0     H28950  14.308   9.209   6.856  4.2552  0.9428 -1.0080
  210MOL0     H28951  14.324   9.364   6.790  0.0959 -0.4352  0.5276
  210MOL0     H28952  14.420   9.192   6.660 -1.5290 -2.6184 -0.1457
  210MOL0     H28953  14.271   9.118   6.641  0.4870 -0.9017  2.9842
  210MOL0     H28954  14.342   9.409   6.541 -0.3459  0.5889 -0.2621
  210MOL0     H28955  14.194   9.320   6.491  0.6746  0.9509 -2.9056
  210MOL0     H28956  14.357   9.145   6.379  1.3223  0.2880  0.7022
  210MOL0     H28957  14.487   9.256   6.405  0.5077  5.3579 -3.4116
  210MOL0     H28958  14.394   9.418   6.271 -0.2184  0.0010  1.1559
  210MOL0     H28959  14.237   9.329   6.262 -0.6407 -2.5931  4.6955
  210MOL0     H28960  13.746   9.347   7.123  1.5763 -2.3019 -1.0919
  210MOL0     H28961  13.486   9.375   7.173  0.9421 -0.4376  0.8971
  210MOL0     H28962  12.991   9.490   7.060  2.7755 -0.3209 -0.5124
  210MOL0     H28963  12.797   9.428   7.145  0.2785  0.2143  0.0813
  210MOL0     H28964  11.089   8.538   7.478  0.9497  0.8569  1.3514
  210MOL0     H28965  10.848   8.505   7.485  2.3616 -0.9569  1.5659
  210MOL0     H28966  10.473   8.837   7.472  0.5451 -1.5226  0.2488
  210MOL0     H28967  10.232   8.863   7.481 -2.0413  2.2454 -0.2017
  210MOL0     H28968   9.996   8.646   7.147 -0.9108  1.9233  0.0005
  210MOL0     H28969   9.977   8.534   7.282 -1.9611  0.2214  0.4031
  210MOL0     H28970   9.799   8.771   7.226  2.8575 -0.8193 -0.2939
  210MOL0     H28971   9.799   8.679   7.381 -0.1246  2.1349  0.3327
  210MOL0     H28972   9.777   8.573   7.102  1.5690  2.3587  0.3034
  210MOL0     H28973   9.736   8.473   7.248 -1.5159 -0.7276 -1.7819
  210MOL0     H28974   9.578   8.729   7.154 -1.6304 -0.1947 -0.2358
  210MOL0     H28975   9.534   8.610   7.283  1.7458  1.2530  0.7647
  210MOL0     H28976   9.395   8.428   6.925  3.1942  0.0638 -1.8822
  210MOL0     H28977  10.200   8.574   7.155 -3.2486  2.8815 -0.3015
  210MOL0     H28978  10.541   8.483   7.148 -0.4803 -0.3193  0.3637
  210MOL0     H28979  10.390   8.462   7.053  1.5035 -1.3797 -1.1312
  210MOL0     H28980  10.490   8.598   7.019  0.1782  0.3829 -0.4714
  211MOL0     O28981   8.643  10.409   8.455 -0.0780  0.3403  0.2373
  211MOL0     C28982   8.617  10.357   8.569  0.1175 -1.2198  0.3352
  211MOL0     O28983   8.706  10.305   8.647  0.4645  0.1206  1.0159
  211MOL0     C28984   8.837  10.327   8.624 -0.2368  0.8724  1.0766
  211MOL0     C28985   8.916  10.209   8.638 -0.5746 -0.1435  0.0797
  211MOL0     C28986   9.054  10.224   8.620 -0.2108  0.1546 -0.2763
  211MOL0     C28987   9.112  10.342   8.594 -0.1162 -1.0337  0.8068
  211MOL0     O28988   9.246  10.331   8.564  0.2026 -0.2585 -0.7007
  211MOL0     C28989   9.328  10.448   8.581  0.2648 -0.2243  0.3015
  211MOL0     C28990   9.414  10.464   8.459 -0.2937 -0.7479 -0.5914
  211MOL0     C28991   9.350  10.475   8.323 -0.4516 -0.4358  0.6806
  211MOL0     C28992   9.456  10.427   8.219 -0.0044 -0.2390 -0.3777
  211MOL0     C28993   9.430  10.478   8.077 -0.4888  0.8393  0.5084
  211MOL0     C28994   9.542  10.451   7.980 -0.5666 -0.7192  0.6092
  211MOL0     C28995   9.489  10.490   7.838 -0.5759  0.0380  0.2941
  211MOL0     C28996   9.595  10.506   7.733 -0.9933  0.0516 -0.4156
  211MOL0     N28997   9.683  10.622   7.765  0.5983 -0.0429  0.6443
  211MOL0     C28998   9.816  10.635   7.740 -0.1150 -0.0878  0.7258
  211MOL0     C28999   9.844  10.768   7.775  0.7907 -0.4239 -0.2351
  211MOL0     C29000   9.981  10.843   7.774  0.1225  0.0568 -0.5804
  211MOL0     C29001  10.078  10.765   7.872 -0.4034 -0.2431 -0.1386
  211MOL0     C29002  10.029  10.776   8.022  0.0106  0.8815 -0.0673
  211MOL0     C29003  10.137  10.720   8.106  0.0434  0.8145 -0.2355
  211MOL0     O29004  10.096  10.742   8.245  0.7632  0.2747  0.4268
  211MOL0     C29005  10.170  10.692   8.347 -0.5111 -0.5090 -0.0262
  211MOL0     C29006  10.112  10.697   8.477 -0.5581  0.4404  0.7673
  211MOL0     C29007  10.182  10.663   8.589 -0.1206  0.3342  0.2031
  211MOL0     C29008  10.106  10.658   8.721  0.4201 -0.1700  0.4849
  211MOL0     C29009  10.318  10.629   8.582 -0.9860  0.5208  0.2186
  211MOL0     C29010  10.393  10.571   8.703 -0.0168 -0.2215  0.3642
  211MOL0     O29011  10.481  10.474   8.672  0.2836  0.3143 -0.2258
  211MOL0     C29012  10.576  10.444   8.766  0.0939  0.3959 -0.6500
  211MOL0     C29013  10.560  10.327   8.845 -0.3594 -0.4878  0.3552
  211MOL0     C29014  10.643  10.299   8.944 -0.2773 -0.7248  0.4530
  211MOL0     C29015  10.762  10.380   8.962  0.1246 -0.7559  0.9510
  211MOL0     O29016  10.842  10.362   9.059 -0.9733 -0.5390 -0.2271
  211MOL0     C29017  10.793  10.321   9.185 -1.3201  0.0829 -0.3004
  211MOL0     C29018  10.911  10.299   9.279  1.2403 -0.4725 -0.3832
  211MOL0     C29019  11.019  10.402   9.265  0.0183  0.2404 -0.5444
  211MOL0     C29020  11.139  10.381   9.353  0.1777  0.6977 -0.6536
  211MOL0     C29021  11.260  10.485   9.309  1.0873  0.8186 -0.5763
  211MOL0     C29022  11.377  10.492   9.410  0.2071 -0.0542 -0.4293
  211MOL0     C29023  11.445  10.348   9.428  0.1454  0.0903  0.8523
  211MOL0     C29024  11.579  10.360   9.504 -0.3056  0.0945 -0.8481
  211MOL0    Cl29025  11.566  10.382   9.679  0.2090  0.1977  0.1551
  211MOL0     C29026  10.790  10.493   8.877  0.3237  0.2840 -0.3576
  211MOL0     C29027  10.694  10.523   8.781  0.6747 -0.0231  0.7262
  211MOL0     O29028  10.385  10.625   8.811  0.4214 -0.5568 -0.8929
  211MOL0     C29029  10.378  10.619   8.452  0.7876  0.6648 -0.1060
  211MOL0     C29030  10.303  10.647   8.334 -0.2857  0.4878 -1.2059
  211MOL0     N29031   9.731  10.833   7.800  0.2303 -0.8450 -0.3499
  211MOL0     N29032   9.639  10.745   7.800 -0.1989 -0.0433 -0.4933
  211MOL0     C29033   9.032  10.460   8.575 -1.0448 -0.1308 -0.6989
  211MOL0     C29034   8.899  10.456   8.598  0.7504  0.5919 -0.0222
  211MOL0     C29035   8.482  10.371   8.614 -0.4225 -0.5779  0.6920
  211MOL0     C29036   8.394  10.455   8.537  0.0803 -0.1270 -0.2353
  211MOL0     C29037   8.256  10.465   8.559 -0.0841 -0.1644 -1.2793
  211MOL0     C29038   8.202  10.398   8.665  0.5068 -0.8880 -0.3831
  211MOL0     O29039   8.067  10.402   8.690  0.2370  0.3805  0.2616
  211MOL0     C29040   7.973  10.421   8.587  0.2465 -0.8967 -0.2591
  211MOL0     C29041   7.831  10.386   8.618  0.4444 -0.9824  0.0474
  211MOL0     C29042   7.825  10.242   8.644 -0.4240  0.6516 -1.1082
  211MOL0     C29043   7.683  10.198   8.680 -0.0646  0.2623 -0.2001
  211MOL0     C29044   7.580  10.242   8.588 -0.4251  0.9989  0.0419
  211MOL0     C29045   7.495  10.269   8.502 -0.5985 -0.5425  0.3459
  211MOL0     C29046   8.289  10.319   8.737  0.5337  0.2076  0.1834
  211MOL0     C29047   8.425  10.297   8.711 -0.9797 -0.8738 -0.3013
  211MOL0     C29048   8.498  10.197   8.797 -0.7250 -0.3565  0.1764
  211MOL0     H29049   8.859  10.123   8.671 -1.4264  0.9096  1.4707
  211MOL0     H29050   9.121  10.139   8.629  2.1518  1.8490 -0.9597
  211MOL0     H29051   9.390  10.439   8.670  0.3647 -0.8003  0.1780
  211MOL0     H29052   9.274  10.543   8.594  2.5552  1.3582 -0.9662
  211MOL0     H29053   9.464  10.561   8.469 -2.7218  0.4988  0.1864
  211MOL0     H29054   9.496  10.392   8.456  2.1836  1.7765  1.0218
  211MOL0     H29055   9.264  10.407   8.322 -0.2402 -0.7062  0.1304
  211MOL0     H29056   9.307  10.574   8.303  0.3334 -0.4010 -1.0168
  211MOL0     H29057   9.555  10.455   8.255  0.2416 -3.7267  2.1285
  211MOL0     H29058   9.472  10.319   8.218  1.6757 -0.0150 -0.7391
  211MOL0     H29059   9.411  10.586   8.083 -0.5822  0.7328  3.3218
  211MOL0     H29060   9.333  10.443   8.042  0.6060  0.4360 -2.4541
  211MOL0     H29061   9.624  10.512   8.017 -2.2419  0.9100  1.8615
  211MOL0     H29062   9.573  10.346   7.976 -0.8777 -0.8168  0.6734
  211MOL0     H29063   9.433  10.584   7.849  0.6105  0.5738  2.2661
  211MOL0     H29064   9.417  10.419   7.796  0.1821 -0.2882 -0.4879
  211MOL0     H29065   9.649  10.412   7.717  0.6652  0.6664  1.2197
  211MOL0     H29066   9.548  10.538   7.640  1.2463  1.7320 -1.0562
  211MOL0     H29067   9.883  10.556   7.706 -0.5645  0.7519 -2.4177
  211MOL0     H29068   9.964  10.945   7.810 -0.4863 -0.7047  1.4083
  211MOL0     H29069  10.030  10.846   7.676  2.5054 -0.2523  0.5322
  211MOL0     H29070  10.081  10.659   7.845  0.1688 -1.2846  3.4667
  211MOL0     H29071  10.172  10.820   7.868 -1.1493  0.9621 -1.9475
  211MOL0     H29072  10.008  10.880   8.045 -0.0433  1.2669 -1.7013
  211MOL0     H29073   9.937  10.717   8.026 -0.2289  1.3515  1.9570
  211MOL0     H29074  10.161  10.614   8.091 -0.5567  1.0501 -3.5565
  211MOL0     H29075  10.231  10.773   8.088  2.1245 -2.5214 -0.2144
  211MOL0     H29076  10.008  10.724   8.464 -0.3751  0.2891 -1.4515
  211MOL0     H29077   9.999  10.655   8.697  0.5030  2.8052 -0.7376
  211MOL0     H29078  10.122  10.748   8.781  0.2558  1.4169 -1.7514
  211MOL0     H29079  10.134  10.575   8.787  0.9971 -1.5515 -1.4229
  211MOL0     H29080  10.472  10.274   8.810 -0.0481  1.1611 -3.4335
  211MOL0     H29081  10.615  10.222   9.015 -0.9738  1.1789  2.3561
  211MOL0     H29082  10.735  10.398   9.236 -0.1242  0.9109 -0.1315
  211MOL0     H29083  10.740  10.227   9.166 -1.7926  0.4815 -0.9964
  211MOL0     H29084  10.877  10.305   9.382 -1.5445 -3.1655 -1.0126
  211MOL0     H29085  10.953  10.198   9.272  0.7374 -0.9271  2.2392
  211MOL0     H29086  10.975  10.500   9.288 -1.1815 -0.1817 -1.0055
  211MOL0     H29087  11.057  10.400   9.162 -2.8092 -2.2545 -1.6925
  211MOL0     H29088  11.171  10.279   9.333 -0.7811 -0.0079  1.1468
  211MOL0     H29089  11.128  10.397   9.461 -1.1557  0.9489 -0.8140
  211MOL0     H29090  11.298  10.450   9.213  0.6930  1.7898 -1.1003
  211MOL0     H29091  11.218  10.585   9.299 -0.9150 -0.0039 -0.8667
  211MOL0     H29092  11.351  10.526   9.511 -2.6327  1.2323 -1.5219
  211MOL0     H29093  11.450  10.561   9.367 -1.1523  1.0130 -1.0743
  211MOL0     H29094  11.460  10.304   9.329 -0.8781 -0.0320  0.7330
  211MOL0     H29095  11.378  10.282   9.485  2.6806 -3.9281 -0.4241
  211MOL0     H29096  11.635  10.449   9.472  2.9727 -2.1915 -1.9605
  211MOL0     H29097  11.640  10.272   9.486 -0.6763 -1.0098  2.6576
  211MOL0     H29098  10.885  10.545   8.885  2.0059 -2.8948  3.9511
  211MOL0     H29099  10.700  10.594   8.699 -0.0166  0.9375  1.4909
  211MOL0     H29100  10.466  10.556   8.454 -0.1680 -0.6909  0.0337
  211MOL0     H29101  10.356  10.631   8.240 -0.9293  0.7835 -1.6290
  211MOL0     H29102   9.073  10.557   8.549 -2.4041  0.9063  0.8631
  211MOL0     H29103   8.834  10.542   8.590 -1.3943 -1.0259 -1.2619
  211MOL0     H29104   8.442  10.515   8.461 -1.9790  1.8622 -0.0583
  211MOL0     H29105   8.195  10.523   8.491 -1.3013 -1.7253 -1.5633
  211MOL0     H29106   7.986  10.525   8.556  3.9401 -1.0020  0.4734
  211MOL0     H29107   8.009  10.369   8.498  0.9010  0.4870 -0.8354
  211MOL0     H29108   7.767  10.402   8.531 -3.2071 -1.7543  2.3985
  211MOL0     H29109   7.788  10.439   8.703 -1.3556 -3.9086  1.0973
  211MOL0     H29110   7.866  10.177   8.566  1.6795  1.0155 -0.3713
  211MOL0     H29111   7.886  10.221   8.732 -2.2597 -0.1704  0.0169
  211MOL0     H29112   7.657  10.259   8.768  0.0910 -1.2748  0.9598
  211MOL0     H29113   7.676  10.092   8.704 -0.5095  0.1200 -0.9336
  211MOL0     H29114   7.419  10.302   8.435 -0.0445  1.3842  0.6130
  211MOL0     H29115   8.244  10.280   8.827  0.9026  1.5671  0.9720
  211MOL0     H29116   8.436  10.138   8.865  1.1299 -0.6107  1.7271
  211MOL0     H29117   8.545  10.126   8.729 -0.5457 -0.3310  0.2716
  211MOL0     H29118   8.570  10.238   8.869 -1.0670 -0.1778  0.4182
  212MOL0     O29119   4.269   2.841   8.903 -0.0283 -0.3286 -0.2788
  212MOL0     C29120   4.271   2.738   8.972  0.0665  0.0824 -0.2327
  212MOL0     O29121   4.373   2.701   9.057  0.0698  0.0288  0.0939
  212MOL0     C29122   4.475   2.795   9.058  0.7991  0.2334 -0.3511
  212MOL0     C29123   4.492   2.869   9.175  0.7792  0.2440 -0.0182
  212MOL0     C29124   4.609   2.953   9.188 -0.4696 -1.0795  0.4374
  212MOL0     C29125   4.703   2.961   9.075 -0.7469  0.3315  0.2244
  212MOL0     O29126   4.815   3.038   9.093  0.8193  0.2546  0.5997
  212MOL0     C29127   4.927   3.031   9.008 -0.9935  0.3830  0.0776
  212MOL0     C29128   5.035   3.142   9.042 -0.5491  0.6762 -0.1639
  212MOL0     C29129   5.029   3.285   8.986  0.2494  0.9641  0.6463
  212MOL0     C29130   5.153   3.362   9.029  0.3937 -0.3140  0.7517
  212MOL0     C29131   5.135   3.511   8.989 -0.8771  0.0399  1.2540
  212MOL0     C29132   5.256   3.595   9.016  0.3038  0.5456  0.2819
  212MOL0     C29133   5.235   3.741   8.987 -0.1772  0.0212 -0.2810
  212MOL0     C29134   5.361   3.813   9.021  0.2507 -0.6013 -0.2247
  212MOL0     N29135   5.340   3.960   9.011 -0.1100  0.1151  0.1573
  212MOL0     C29136   5.318   4.026   8.895  0.8360 -0.5994  0.0393
  212MOL0     C29137   5.260   4.142   8.933 -0.2497  0.0480  1.1347
  212MOL0     C29138   5.203   4.250   8.845  0.2577 -0.3807  0.3791
  212MOL0     C29139   5.302   4.337   8.777 -0.1639 -1.6394 -0.1565
  212MOL0     C29140   5.382   4.425   8.884  0.1286  0.5369  0.4309
  212MOL0     C29141   5.498   4.492   8.809 -0.3951  0.9346 -0.0772
  212MOL0     O29142   5.449   4.614   8.757  0.1689  0.4797  0.1717
  212MOL0     C29143   5.554   4.702   8.717 -0.8020  0.3406 -0.1087
  212MOL0     C29144   5.506   4.833   8.706 -0.3090  0.5635 -0.9077
  212MOL0     C29145   5.592   4.937   8.661  0.7526 -0.2102 -0.2749
  212MOL0     C29146   5.523   5.070   8.636 -0.4119 -0.0296 -0.0645
  212MOL0     C29147   5.722   4.908   8.625 -0.4128 -0.6587  0.0611
  212MOL0     C29148   5.825   5.014   8.582  0.6147  0.6183  0.2594
  212MOL0     O29149   5.794   5.140   8.607  0.1918 -0.1796 -0.5492
  212MOL0     C29150   5.882   5.238   8.578  0.3763  0.0167  0.1070
  212MOL0     C29151   5.900   5.288   8.449 -0.5114  0.0036 -0.3447
  212MOL0     C29152   5.986   5.396   8.441 -0.5997 -0.1247  1.1103
  212MOL0     C29153   6.056   5.449   8.543 -0.0127  0.3713  0.3269
  212MOL0     O29154   6.145   5.548   8.519 -0.1288 -0.0366  0.0090
  212MOL0     C29155   6.280   5.549   8.577  0.5167  0.4386 -0.5058
  212MOL0     C29156   6.345   5.623   8.459 -0.1983  0.5397 -1.1744
  212MOL0     C29157   6.492   5.608   8.462 -1.3018  0.4369 -0.2706
  212MOL0     C29158   6.554   5.679   8.345  0.4160  0.1508  0.4267
  212MOL0     C29159   6.699   5.633   8.315 -0.1000  0.3691 -0.5182
  212MOL0     C29160   6.799   5.692   8.417  1.1183 -0.8299 -0.4087
  212MOL0     C29161   6.800   5.853   8.420  0.3225  0.2018  0.9929
  212MOL0     C29162   6.929   5.900   8.474  0.0497 -0.0388 -0.1917
  212MOL0    Cl29163   6.920   6.072   8.470  0.0410 -0.2733  0.2784
  212MOL0     C29164   6.041   5.392   8.667 -0.9100  0.7062 -0.3162
  212MOL0     C29165   5.957   5.287   8.692  0.5390 -0.1113 -0.3833
  212MOL0     O29166   5.939   4.971   8.563 -1.0508  0.3943 -0.6022
  212MOL0     C29167   5.768   4.777   8.627  0.1868  0.5150  0.3127
  212MOL0     C29168   5.688   4.675   8.686 -0.8038  0.4479 -0.3828
  212MOL0     N29169   5.259   4.147   9.070 -0.1045  0.6499 -0.2539
  212MOL0     N29170   5.306   4.032   9.119 -0.7490 -0.1118 -1.0316
  212MOL0     C29171   4.679   2.883   8.966  0.5964  0.7433 -0.9885
  212MOL0     C29172   4.568   2.798   8.956  0.3544 -0.1709  0.2365
  212MOL0     C29173   4.153   2.644   8.972 -0.3415  0.4015 -0.1986
  212MOL0     C29174   4.026   2.695   9.016 -0.0251 -0.0165 -0.2881
  212MOL0     C29175   3.909   2.627   9.009  0.3623 -0.3721 -0.4835
  212MOL0     C29176   3.912   2.498   8.966  0.6787 -0.7255 -0.2531
  212MOL0     O29177   3.813   2.406   8.972 -0.2544 -0.0162  0.1112
  212MOL0     C29178   3.684   2.434   9.020 -0.2652 -1.0078  0.4035
  212MOL0     C29179   3.602   2.310   9.014 -0.5199 -0.5332 -0.3330
  212MOL0     C29180   3.484   2.332   9.106 -0.0850 -0.2815  0.4230
  212MOL0     C29181   3.387   2.208   9.103 -0.2140  0.0541  0.0738
  212MOL0     C29182   3.279   2.231   9.197 -0.6843 -0.2341  0.4154
  212MOL0     C29183   3.188   2.242   9.273  0.3312  0.5870  0.3425
  212MOL0     C29184   4.033   2.443   8.925  0.2169  1.0788 -0.1089
  212MOL0     C29185   4.155   2.509   8.926 -0.2046 -0.7091  0.0098
  212MOL0     C29186   4.279   2.440   8.859 -0.0609  0.6959 -1.0383
  212MOL0     H29187   4.420   2.852   9.255  0.5238 -1.6637 -0.6202
  212MOL0     H29188   4.631   3.018   9.272 -1.3595  2.6367 -1.9631
  212MOL0     H29189   4.895   3.042   8.904 -0.6281 -0.6915 -0.1585
  212MOL0     H29190   4.975   2.934   9.018 -0.1450  0.6236 -1.3734
  212MOL0     H29191   5.041   3.148   9.151  0.4796  1.9894 -0.2771
  212MOL0     H29192   5.136   3.114   9.013 -0.7038  0.6372 -0.6824
  212MOL0     H29193   5.023   3.276   8.877  0.5386  0.8918  0.6356
  212MOL0     H29194   4.943   3.344   9.016  2.3539  3.5533  2.0468
  212MOL0     H29195   5.177   3.355   9.136  3.4653  1.9190  0.3257
  212MOL0     H29196   5.232   3.313   8.972 -0.4473  1.2103 -1.9046
  212MOL0     H29197   5.046   3.554   9.035 -1.0155 -1.2717  2.2441
  212MOL0     H29198   5.131   3.503   8.880 -2.7798  0.8600  1.2226
  212MOL0     H29199   5.297   3.592   9.117  1.6671  0.1180 -0.2672
  212MOL0     H29200   5.339   3.568   8.951  0.8352  1.7792  0.4151
  212MOL0     H29201   5.148   3.777   9.044  0.7983 -0.1060  1.3688
  212MOL0     H29202   5.219   3.756   8.880 -0.7133 -0.2587 -0.2473
  212MOL0     H29203   5.393   3.794   9.124  1.3844  3.1136  0.2614
  212MOL0     H29204   5.443   3.779   8.957  2.7987  2.5267  1.1011
  212MOL0     H29205   5.343   3.997   8.794 -0.2668  1.9311 -1.0358
  212MOL0     H29206   5.147   4.317   8.911  4.5207  0.9806  3.0210
  212MOL0     H29207   5.129   4.210   8.775 -1.6604  3.1985  0.1279
  212MOL0     H29208   5.371   4.287   8.709  1.8441 -1.8382  1.9260
  212MOL0     H29209   5.247   4.407   8.713  1.9134  1.6824  1.4495
  212MOL0     H29210   5.309   4.491   8.933 -0.9263 -1.9414  2.4708
  212MOL0     H29211   5.421   4.355   8.958 -2.3977 -0.6275  0.7680
  212MOL0     H29212   5.582   4.512   8.875 -0.2982 -0.5803  0.2849
  212MOL0     H29213   5.533   4.423   8.732  0.1320 -0.7052  1.5606
  212MOL0     H29214   5.401   4.840   8.731 -0.2334  1.1228 -0.7485
  212MOL0     H29215   5.542   5.090   8.530 -2.8482 -1.7877 -0.9302
  212MOL0     H29216   5.553   5.153   8.700  0.0675  0.2639 -0.6545
  212MOL0     H29217   5.415   5.056   8.647 -0.1932 -2.7230 -0.5652
  212MOL0     H29218   5.840   5.242   8.371  0.7695 -1.6688 -0.3988
  212MOL0     H29219   5.999   5.440   8.342  0.7472 -0.5419  1.0713
  212MOL0     H29220   6.278   5.610   8.667 -2.4396 -0.6747  0.3042
  212MOL0     H29221   6.330   5.454   8.599  0.3434  0.0875 -1.5856
  212MOL0     H29222   6.303   5.592   8.363 -0.4852 -2.5516 -0.1475
  212MOL0     H29223   6.309   5.724   8.480 -1.4233 -0.5135  2.6066
  212MOL0     H29224   6.517   5.501   8.468 -1.0255  0.5732  1.3827
  212MOL0     H29225   6.522   5.645   8.560 -1.9151 -2.8980  1.3184
  212MOL0     H29226   6.540   5.785   8.371 -4.9628 -0.2339  0.2186
  212MOL0     H29227   6.501   5.664   8.251  0.8650  0.6100  0.0921
  212MOL0     H29228   6.714   5.526   8.306  0.1596  0.4342 -0.8825
  212MOL0     H29229   6.732   5.664   8.215  1.5494 -0.9844 -0.4336
  212MOL0     H29230   6.896   5.653   8.387  0.8044 -1.2409 -0.9111
  212MOL0     H29231   6.769   5.654   8.515 -0.1808  2.0259  0.4119
  212MOL0     H29232   6.722   5.895   8.483  0.9128  1.6670  0.7962
  212MOL0     H29233   6.785   5.876   8.314 -0.9243 -4.8359 -0.2126
  212MOL0     H29234   7.009   5.855   8.415 -0.0051  0.2198 -0.4668
  212MOL0     H29235   6.941   5.865   8.577  1.6362  4.0846  1.2348
  212MOL0     H29236   6.105   5.421   8.750  0.0957  1.1792 -1.2349
  212MOL0     H29237   5.949   5.240   8.789 -1.7144 -0.3677 -0.6258
  212MOL0     H29238   5.870   4.754   8.599  0.3836  1.7891 -0.0889
  212MOL0     H29239   5.729   4.574   8.682  2.4042  1.5086  1.6001
  212MOL0     H29240   4.757   2.888   8.890  0.5820  2.5385 -0.9233
  212MOL0     H29241   4.547   2.734   8.871  2.5260 -0.8892  0.1976
  212MOL0     H29242   4.030   2.796   9.054 -4.9040 -0.9560  3.6375
  212MOL0     H29243   3.823   2.672   9.058  1.0813  1.1628 -0.5810
  212MOL0     H29244   3.692   2.467   9.124 -2.8884 -0.6698  0.5618
  212MOL0     H29245   3.632   2.511   8.963 -0.9613 -1.4011  0.5041
  212MOL0     H29246   3.666   2.227   9.048 -1.4090 -0.3167  2.0722
  212MOL0     H29247   3.568   2.287   8.913 -0.4802  1.7382 -0.8994
  212MOL0     H29248   3.517   2.334   9.210 -0.9692 -0.0965  0.7103
  212MOL0     H29249   3.434   2.418   9.059 -0.3698 -1.7960 -2.2948
  212MOL0     H29250   3.436   2.114   9.129 -0.3230 -0.1483 -0.4447
  212MOL0     H29251   3.351   2.198   9.000  1.7990 -1.3413 -0.5532
  212MOL0     H29252   3.117   2.228   9.352  1.8578 -0.3276  1.6298
  212MOL0     H29253   4.047   2.338   8.905 -0.6772  0.8639  0.3373
  212MOL0     H29254   4.304   2.341   8.898 -1.5429  0.5666 -0.3693
  212MOL0     H29255   4.265   2.434   8.750  2.0796  1.9451 -1.4605
  212MOL0     H29256   4.371   2.500   8.868 -0.1877  0.7510 -0.0150
  213MOL0     O29257  10.416   7.770   8.607 -0.2429 -0.5102 -0.3145
  213MOL0     C29258  10.354   7.688   8.550 -0.5084  0.7794 -0.1803
  213MOL0     O29259  10.263   7.608   8.606 -0.0869 -0.4109  0.2306
  213MOL0     C29260  10.231   7.612   8.741 -0.6034  0.4862 -0.6385
  213MOL0     C29261  10.108   7.669   8.787 -0.5273  0.4005 -0.5171
  213MOL0     C29262  10.080   7.691   8.918  0.2009  0.3067 -0.2712
  213MOL0     C29263  10.170   7.642   9.010 -0.1831 -0.1319 -0.3664
  213MOL0     O29264  10.143   7.672   9.141  0.2844 -0.2618  1.1983
  213MOL0     C29265  10.193   7.797   9.190  0.0201  0.4431  0.3113
  213MOL0     C29266  10.165   7.791   9.344  0.2653  0.6236 -0.5971
  213MOL0     C29267  10.248   7.678   9.413 -0.4447 -0.1270  0.5266
  213MOL0     C29268  10.397   7.701   9.403  0.4473  0.5028 -0.5507
  213MOL0     C29269  10.471   7.564   9.425 -0.6533  0.7697  0.7901
  213MOL0     C29270  10.623   7.602   9.425  0.7247  0.0056 -0.1277
  213MOL0     C29271  10.718   7.489   9.444 -0.0375 -0.4338 -0.0947
  213MOL0     C29272  10.756   7.425   9.312 -0.7658 -0.7036 -0.0636
  213MOL0     N29273  10.899   7.427   9.297 -0.5657  0.2828 -0.4982
  213MOL0     C29274  10.991   7.354   9.355 -0.4989  0.8248  0.1468
  213MOL0     C29275  11.107   7.398   9.295  0.4853  0.1285 -0.4902
  213MOL0     C29276  11.238   7.341   9.340  1.1361 -0.8857 -0.0797
  213MOL0     C29277  11.347   7.399   9.252 -0.0463 -0.9483 -1.1233
  213MOL0     C29278  11.470   7.303   9.276  0.2035 -0.4227 -0.0901
  213MOL0     C29279  11.610   7.368   9.237  0.2601  0.4628 -0.6457
  213MOL0     O29280  11.706   7.276   9.188  0.7957 -0.0795 -0.1112
  213MOL0     C29281  11.835   7.322   9.173 -0.0804 -0.3272 -1.0088
  213MOL0     C29282  11.866   7.462   9.172  0.2716 -0.5730 -0.0006
  213MOL0     C29283  11.995   7.512   9.137  0.1397 -0.0634 -0.2079
  213MOL0     C29284  12.008   7.657   9.146 -0.3711 -0.1846  0.5014
  213MOL0     C29285  12.098   7.419   9.112  0.0007 -0.9978  0.0786
  213MOL0     C29286  12.235   7.453   9.073  0.1445  0.7376  0.3596
  213MOL0     O29287  12.317   7.347   9.031  0.3482 -0.1728 -0.0146
  213MOL0     C29288  12.440   7.365   8.977  0.2604  0.0218  0.0478
  213MOL0     C29289  12.486   7.487   8.927  0.7530 -0.2179 -0.3280
  213MOL0     C29290  12.609   7.506   8.870  0.1000  0.2477  0.3048
  213MOL0     C29291  12.690   7.392   8.863  0.0225  0.5991 -0.1666
  213MOL0     O29292  12.816   7.383   8.804 -0.4479 -0.1724  0.1098
  213MOL0     C29293  12.883   7.508   8.770 -0.7751 -0.3262  0.1611
  213MOL0     C29294  13.028   7.480   8.724  0.6874  0.0685 -0.9436
  213MOL0     C29295  13.108   7.599   8.687  0.2073 -0.3154  0.0058
  213MOL0     C29296  13.251   7.560   8.632 -0.4194 -0.4397 -0.5315
  213MOL0     C29297  13.318   7.690   8.561  0.9789 -0.1459 -0.0950
  213MOL0     C29298  13.468   7.698   8.551 -0.1106 -1.1327  0.2501
  213MOL0     C29299  13.522   7.560   8.492  0.5059  0.0859  0.1531
  213MOL0     C29300  13.667   7.568   8.458 -0.0478  0.1414 -0.9795
  213MOL0    Cl29301  13.773   7.585   8.599  0.3134 -0.1774  0.1841
  213MOL0     C29302  12.651   7.268   8.921  0.3310 -1.1707 -0.3422
  213MOL0     C29303  12.520   7.254   8.977 -0.0114 -0.0123 -0.3198
  213MOL0     O29304  12.275   7.567   9.100  0.3611 -0.4205 -0.7351
  213MOL0     C29305  12.068   7.283   9.117  1.1770 -0.2854 -0.3080
  213MOL0     C29306  11.937   7.235   9.133  0.5532 -0.5476 -0.5050
  213MOL0     N29307  11.078   7.501   9.205 -0.3429 -0.0801 -0.7957
  213MOL0     N29308  10.951   7.502   9.194  0.0147 -0.1498  0.0341
  213MOL0     C29309  10.293   7.578   8.970  0.5540 -0.2066  0.6475
  213MOL0     C29310  10.326   7.566   8.836  0.5886  0.0936 -0.4726
  213MOL0     C29311  10.352   7.678   8.403 -0.2112 -0.5125  0.4403
  213MOL0     C29312  10.232   7.679   8.328 -0.0872 -0.5469  0.4338
  213MOL0     C29313  10.230   7.679   8.187  0.2710  0.2659  0.4890
  213MOL0     C29314  10.354   7.676   8.104 -0.4470  0.0868  0.2467
  213MOL0     O29315  10.368   7.658   7.965  0.4205 -0.2371 -0.1458
  213MOL0     C29316  10.254   7.660   7.875 -0.5588  0.6222 -0.4883
  213MOL0     C29317  10.276   7.786   7.785 -0.3368  0.3744  0.5678
  213MOL0     C29318  10.280   7.924   7.861  0.8669 -0.0315  0.0415
  213MOL0     C29319  10.282   8.031   7.762  0.4282  0.3101 -1.1716
  213MOL0     C29320  10.280   8.163   7.839 -0.3213  0.6732 -0.1240
  213MOL0     C29321  10.316   8.268   7.899  0.2236  1.1934 -0.5728
  213MOL0     C29322  10.475   7.672   8.185  0.0974  0.4583  0.0768
  213MOL0     C29323  10.475   7.678   8.328 -0.1067  0.2392  0.2271
  213MOL0     C29324  10.608   7.670   8.391  0.9989  0.6000  0.3917
  213MOL0     H29325  10.043   7.694   8.703 -2.0108  0.2514  0.5399
  213MOL0     H29326   9.993   7.749   8.946  0.7774  1.2975 -0.4798
  213MOL0     H29327  10.134   7.875   9.142 -1.3935 -1.3607 -0.9978
  213MOL0     H29328  10.300   7.812   9.171  0.5243  0.6290  2.8402
  213MOL0     H29329  10.199   7.884   9.390 -0.0329  0.8772 -0.8874
  213MOL0     H29330  10.057   7.781   9.358  0.6768 -1.3003  1.7881
  213MOL0     H29331  10.217   7.673   9.517  0.0537 -0.3413  0.6662
  213MOL0     H29332  10.223   7.579   9.373  3.1626 -1.9396  2.3163
  213MOL0     H29333  10.430   7.742   9.307 -2.8828  0.2349 -1.9291
  213MOL0     H29334  10.417   7.774   9.482 -0.4645 -3.8528  4.2649
  213MOL0     H29335  10.472   7.480   9.355  1.1277 -1.4204  3.1806
  213MOL0     H29336  10.449   7.521   9.523  0.1837  0.1531  0.7223
  213MOL0     H29337  10.641   7.661   9.336  4.3032  0.9255  1.0492
  213MOL0     H29338  10.641   7.664   9.513 -1.0884 -1.8728  1.7140
  213MOL0     H29339  10.688   7.415   9.518 -4.0122  0.2154 -0.8398
  213MOL0     H29340  10.806   7.532   9.494 -0.8291  1.6197 -0.3671
  213MOL0     H29341  10.739   7.317   9.312  1.0184 -1.0168 -0.1740
  213MOL0     H29342  10.716   7.481   9.228  1.4362 -1.4631 -1.7318
  213MOL0     H29343  10.966   7.276   9.426 -0.8678 -0.1186 -0.9956
  213MOL0     H29344  11.224   7.234   9.324 -1.1102 -0.4159 -1.6830
  213MOL0     H29345  11.255   7.378   9.442 -1.9866  3.1836 -0.7868
  213MOL0     H29346  11.314   7.401   9.148  0.1949 -2.4521 -1.2378
  213MOL0     H29347  11.373   7.502   9.282 -0.9296 -1.2944  1.0001
  213MOL0     H29348  11.470   7.281   9.384  1.6055 -0.8225 -0.1463
  213MOL0     H29349  11.461   7.211   9.218  2.7842 -0.3784 -0.6987
  213MOL0     H29350  11.581   7.439   9.159 -0.6135 -1.5289 -2.2221
  213MOL0     H29351  11.648   7.421   9.324  0.9125  0.2133 -0.7723
  213MOL0     H29352  11.784   7.527   9.201 -0.8233 -1.9813  0.1715
  213MOL0     H29353  12.028   7.696   9.046  0.7022 -5.0758 -1.4680
  213MOL0     H29354  12.097   7.675   9.208  0.6990 -0.6539 -0.8531
  213MOL0     H29355  11.919   7.709   9.183  0.1640  0.5821  0.7404
  213MOL0     H29356  12.426   7.577   8.923 -0.7505 -1.2224 -2.4320
  213MOL0     H29357  12.638   7.604   8.832  4.3178 -0.7302  0.4969
  213MOL0     H29358  12.834   7.555   8.685  1.2125 -0.2257 -0.9879
  213MOL0     H29359  12.881   7.575   8.857 -0.1266  0.2196 -0.2287
  213MOL0     H29360  13.076   7.424   8.804 -3.3790 -0.4507  1.4173
  213MOL0     H29361  13.014   7.407   8.643  0.7100 -0.3495 -0.5730
  213MOL0     H29362  13.118   7.669   8.772  2.0535 -0.4603 -0.0427
  213MOL0     H29363  13.049   7.645   8.607 -2.8517 -0.8282  1.8001
  213MOL0     H29364  13.222   7.486   8.556 -0.2122  0.1822 -1.2304
  213MOL0     H29365  13.306   7.508   8.710 -0.0568 -1.2709 -1.3131
  213MOL0     H29366  13.271   7.702   8.463 -1.1170  0.7540  0.9492
  213MOL0     H29367  13.290   7.775   8.624 -0.1636  0.5818 -1.5384
  213MOL0     H29368  13.502   7.715   8.653  0.1349 -1.3854  0.2144
  213MOL0     H29369  13.499   7.787   8.496 -0.7827  1.1881  3.3947
  213MOL0     H29370  13.464   7.538   8.402 -3.0042  0.3559  2.1573
  213MOL0     H29371  13.508   7.479   8.565 -1.6691  1.2541  1.1475
  213MOL0     H29372  13.686   7.648   8.385  0.2014 -0.6525 -1.7982
  213MOL0     H29373  13.695   7.469   8.421  0.0086 -0.2533  0.1020
  213MOL0     H29374  12.726   7.190   8.929 -0.3194 -1.7000  0.7903
  213MOL0     H29375  12.472   7.169   9.025 -1.8521  1.0995 -0.0859
  213MOL0     H29376  12.143   7.205   9.110  1.6443  0.2031 -0.9023
  213MOL0     H29377  11.919   7.131   9.112  1.3963 -1.0041  0.9265
  213MOL0     H29378  10.366   7.549   9.045  0.7720  0.8142  0.8450
  213MOL0     H29379  10.426   7.540   8.800  0.3693  1.4550 -2.2034
  213MOL0     H29380  10.132   7.680   8.370  0.1447  1.4762  1.0379
  213MOL0     H29381  10.139   7.656   8.132  1.2029 -0.4882 -0.8080
  213MOL0     H29382  10.252   7.566   7.818  0.1544 -1.2320  2.3415
  213MOL0     H29383  10.160   7.666   7.929 -2.1585 -0.6391 -2.9307
  213MOL0     H29384  10.193   7.786   7.713 -0.4851 -5.7635  0.2544
  213MOL0     H29385  10.365   7.768   7.725 -1.8544 -4.7069 -0.6183
  213MOL0     H29386  10.191   7.935   7.923 -1.5828  3.3949 -3.5888
  213MOL0     H29387  10.375   7.920   7.915  0.4038  0.1728  0.8986
  213MOL0     H29388  10.196   8.027   7.694  0.3939  0.8218 -1.1693
  213MOL0     H29389  10.366   8.028   7.691 -0.3650 -0.8205 -2.0813
  213MOL0     H29390  10.365   8.350   7.948  0.7654  0.1670  0.6679
  213MOL0     H29391  10.566   7.664   8.126  0.3257 -1.2415  0.6010
  213MOL0     H29392  10.696   7.684   8.327 -0.1490  0.2187 -1.3275
  213MOL0     H29393  10.621   7.749   8.466 -3.5221  2.1270 -0.1588
  213MOL0     H29394  10.608   7.578   8.451 -1.8918  1.0480  1.2137
  214MOL0     O29395   6.102   4.138   6.300  0.0179 -0.4504 -1.0815
  214MOL0     C29396   6.095   4.236   6.376 -0.1506  0.3806 -0.1245
  214MOL0     O29397   6.194   4.284   6.447 -0.9647 -0.0800  1.0721
  214MOL0     C29398   6.327   4.252   6.416 -0.7464  0.4177 -0.0127
  214MOL0     C29399   6.387   4.149   6.489 -1.0090 -0.6315  0.6168
  214MOL0     C29400   6.513   4.090   6.438  0.2323 -0.3751  0.1019
  214MOL0     C29401   6.582   4.136   6.323  0.5743  0.2398  0.1970
  214MOL0     O29402   6.691   4.068   6.288 -0.1461 -0.6696 -0.6253
  214MOL0     C29403   6.799   4.124   6.203  0.4007  0.3000  0.7788
  214MOL0     C29404   6.905   4.014   6.177 -0.4977 -0.1228 -0.1254
  214MOL0     C29405   7.023   4.024   6.280  0.1102 -0.7389 -0.2571
  214MOL0     C29406   6.991   3.979   6.424 -0.2492 -0.7378  0.4462
  214MOL0     C29407   7.121   3.965   6.502 -0.5365 -0.1480  0.7983
  214MOL0     C29408   7.099   3.975   6.646 -0.0417 -0.3752  0.1544
  214MOL0     C29409   7.222   3.921   6.719 -0.6790 -0.1056  0.3482
  214MOL0     C29410   7.209   3.769   6.745 -0.2496 -0.2358 -0.1358
  214MOL0     N29411   7.310   3.724   6.842 -0.4720 -0.9754 -0.0489
  214MOL0     C29412   7.273   3.678   6.963 -0.0436 -0.0721 -0.5663
  214MOL0     C29413   7.380   3.673   7.038  0.3114 -0.1792 -0.2098
  214MOL0     C29414   7.381   3.620   7.179 -0.3681 -0.2678  0.0355
  214MOL0     C29415   7.523   3.590   7.223  0.6858  0.2709  0.5146
  214MOL0     C29416   7.599   3.718   7.278  0.4631  0.3702  0.4486
  214MOL0     C29417   7.751   3.707   7.270 -0.2250  0.2853 -0.1733
  214MOL0     O29418   7.793   3.570   7.312 -0.5710 -0.2427  0.1415
  214MOL0     C29419   7.910   3.562   7.380  0.3179  0.2044 -1.0062
  214MOL0     C29420   7.930   3.449   7.458  0.1922  0.1701 -0.0447
  214MOL0     C29421   8.044   3.426   7.528  0.2071 -0.1235 -0.2180
  214MOL0     C29422   8.053   3.289   7.592  0.1296 -0.4392 -0.8967
  214MOL0     C29423   8.155   3.516   7.522 -0.2506 -0.3030  0.1215
  214MOL0     C29424   8.288   3.485   7.595  0.6882 -0.4743 -0.0401
  214MOL0     O29425   8.377   3.587   7.595  0.0310 -0.4413 -0.0179
  214MOL0     C29426   8.489   3.568   7.675 -0.2842 -0.1196 -0.4979
  214MOL0     C29427   8.486   3.629   7.800  0.2869  0.5100  0.1672
  214MOL0     C29428   8.604   3.636   7.873  0.1034  0.0993 -0.1436
  214MOL0     C29429   8.721   3.558   7.836 -0.3481 -0.8462  0.2650
  214MOL0     O29430   8.831   3.567   7.922  0.2313  0.0350  0.6911
  214MOL0     C29431   8.929   3.456   7.924  0.9265 -0.4400  0.3707
  214MOL0     C29432   9.001   3.433   8.056 -0.5095 -0.3850 -0.3082
  214MOL0     C29433   9.116   3.532   8.068 -0.2127  0.0241 -0.2927
  214MOL0     C29434   9.221   3.469   8.166  0.5452  0.3201 -0.5772
  214MOL0     C29435   9.324   3.574   8.209  0.0703  0.5205 -0.3567
  214MOL0     C29436   9.386   3.525   8.340  0.3443  0.6033 -0.8006
  214MOL0     C29437   9.466   3.642   8.384 -0.2690 -0.0809  0.4029
  214MOL0     C29438   9.501   3.639   8.530  0.6441  0.3172  0.1810
  214MOL0    Cl29439   9.658   3.550   8.536  0.2182 -0.4420 -0.3827
  214MOL0     C29440   8.722   3.485   7.714 -0.1996  0.0104  0.4926
  214MOL0     C29441   8.605   3.498   7.633  0.0033  0.0398  0.1151
  214MOL0     O29442   8.307   3.374   7.649 -0.5985  0.0230 -0.0784
  214MOL0     C29443   8.126   3.637   7.463  0.3285 -0.3055  0.6026
  214MOL0     C29444   8.005   3.657   7.385  0.1437  0.9094 -0.9971
  214MOL0     N29445   7.472   3.737   6.964  0.2291 -0.2068  0.0366
  214MOL0     N29446   7.429   3.781   6.852  0.1283 -0.0493 -0.2863
  214MOL0     C29447   6.511   4.235   6.257 -0.0522 -0.2458 -0.3629
  214MOL0     C29448   6.390   4.296   6.305  0.4753  0.7173 -0.3255
  214MOL0     C29449   5.952   4.278   6.394 -0.2096 -0.1397  0.4454
  214MOL0     C29450   5.866   4.269   6.285  0.0028 -0.6463  0.0084
  214MOL0     C29451   5.743   4.311   6.284 -0.6695 -0.9722 -0.3817
  214MOL0     C29452   5.682   4.347   6.404 -0.2022  0.6877  0.4296
  214MOL0     O29453   5.548   4.382   6.407 -0.3031 -0.5734  0.3117
  214MOL0     C29454   5.480   4.422   6.528 -0.3351  0.5829 -0.0560
  214MOL0     C29455   5.338   4.462   6.496  0.5055  1.3754  0.0818
  214MOL0     C29456   5.252   4.341   6.459 -0.1511 -0.2662 -0.1539
  214MOL0     C29457   5.245   4.231   6.567 -0.2975 -0.0832  0.5460
  214MOL0     C29458   5.127   4.148   6.528 -0.0952 -0.2964 -0.2932
  214MOL0     C29459   5.026   4.078   6.508 -0.1989 -0.4177  0.1414
  214MOL0     C29460   5.762   4.350   6.518 -0.2347  0.0091  0.4397
  214MOL0     C29461   5.897   4.335   6.511 -0.0240 -0.3648  1.4263
  214MOL0     C29462   5.956   4.358   6.640  0.3338  0.1668 -0.1696
  214MOL0     H29463   6.331   4.112   6.575 -4.1342  0.4069 -0.8092
  214MOL0     H29464   6.553   4.012   6.502  1.2136  0.6168  0.7297
  214MOL0     H29465   6.846   4.212   6.248 -1.0330  0.7191  1.5135
  214MOL0     H29466   6.753   4.155   6.109 -1.9866 -1.2256  1.3614
  214MOL0     H29467   6.857   3.919   6.203 -0.3581  0.4308  2.3858
  214MOL0     H29468   6.939   4.005   6.073  2.0485  0.6052  0.5626
  214MOL0     H29469   7.113   3.976   6.241  0.7627 -0.5199  0.9315
  214MOL0     H29470   7.058   4.128   6.277 -2.7732  0.4057  1.6370
  214MOL0     H29471   6.920   4.041   6.479 -0.4414  0.4173 -1.0516
  214MOL0     H29472   6.943   3.880   6.421  1.0214 -1.3660 -0.0609
  214MOL0     H29473   7.185   4.050   6.478 -0.7644  0.4245  2.1391
  214MOL0     H29474   7.177   3.875   6.477  2.2756  1.0662  2.3073
  214MOL0     H29475   7.073   4.080   6.665  0.6446  0.3744 -2.6390
  214MOL0     H29476   7.016   3.911   6.676  0.6148 -0.5839  1.6347
  214MOL0     H29477   7.227   3.972   6.815  1.3247  1.5254 -0.5451
  214MOL0     H29478   7.314   3.945   6.665 -2.7863 -1.5988 -4.5689
  214MOL0     H29479   7.115   3.744   6.796 -0.3272 -0.9881 -0.6245
  214MOL0     H29480   7.222   3.714   6.651 -1.0289  0.6023 -0.7402
  214MOL0     H29481   7.185   3.620   6.990 -0.4350  0.9756  0.4953
  214MOL0     H29482   7.325   3.526   7.190 -1.1921 -0.2414 -2.9346
  214MOL0     H29483   7.331   3.696   7.239  0.7941  2.4352 -2.1729
  214MOL0     H29484   7.519   3.502   7.289 -2.7756  0.5451  0.8620
  214MOL0     H29485   7.574   3.553   7.134 -1.8159  0.5938 -1.1529
  214MOL0     H29486   7.558   3.805   7.225  0.4107 -0.4135 -0.8603
  214MOL0     H29487   7.564   3.735   7.380 -2.5493  1.6339 -0.6790
  214MOL0     H29488   7.781   3.719   7.165  1.7395  1.6736  0.4831
  214MOL0     H29489   7.796   3.785   7.332  1.6683 -1.8571  1.3478
  214MOL0     H29490   7.857   3.370   7.445 -2.2309  2.1040  0.9922
  214MOL0     H29491   8.092   3.281   7.694 -1.9556  0.9230  0.0676
  214MOL0     H29492   8.107   3.225   7.522  1.2960  1.4198 -1.7533
  214MOL0     H29493   7.950   3.255   7.607  0.0826  0.5573  1.5015
  214MOL0     H29494   8.403   3.695   7.822  0.8713  1.4356 -0.3414
  214MOL0     H29495   8.618   3.694   7.963 -0.7325  0.0091  0.0522
  214MOL0     H29496   8.861   3.370   7.918  0.3132  0.1254 -1.2941
  214MOL0     H29497   8.998   3.458   7.840 -0.9017 -0.1702 -1.1874
  214MOL0     H29498   8.945   3.431   8.150  0.1782  0.8073  0.1526
  214MOL0     H29499   9.064   3.344   8.043  3.5131  2.2834 -0.9169
  214MOL0     H29500   9.084   3.628   8.111  0.7406  0.6558 -0.9654
  214MOL0     H29501   9.171   3.557   7.977 -1.8516  1.0512 -1.0351
  214MOL0     H29502   9.274   3.380   8.130  0.8156 -0.1454  0.9110
  214MOL0     H29503   9.161   3.423   8.245  1.4025  0.3313  0.0874
  214MOL0     H29504   9.399   3.594   8.133 -1.2919  1.4523 -1.5157
  214MOL0     H29505   9.272   3.670   8.216 -0.2863  0.4631 -1.8914
  214MOL0     H29506   9.457   3.442   8.328 -0.1432 -0.0579  0.6741
  214MOL0     H29507   9.308   3.508   8.415 -1.9618  1.9499 -2.7492
  214MOL0     H29508   9.414   3.738   8.371 -2.9034 -1.3652  0.8411
  214MOL0     H29509   9.559   3.652   8.326  0.4796  1.6911  1.8036
  214MOL0     H29510   9.427   3.581   8.587  0.0859  2.0283  1.2846
  214MOL0     H29511   9.511   3.740   8.570  0.3696  0.1850  0.5966
  214MOL0     H29512   8.806   3.425   7.683 -0.0161  0.6191 -0.2259
  214MOL0     H29513   8.603   3.462   7.530 -0.6354  3.0300 -1.0282
  214MOL0     H29514   8.204   3.709   7.485 -0.3746  0.8362 -0.5381
  214MOL0     H29515   7.985   3.748   7.329  0.8229  0.8493 -1.3427
  214MOL0     H29516   6.546   4.268   6.159  1.4011  2.5015  0.9621
  214MOL0     H29517   6.339   4.373   6.247  1.5232 -1.0046 -3.8712
  214MOL0     H29518   5.895   4.225   6.190 -0.1301  1.1923 -0.9270
  214MOL0     H29519   5.685   4.303   6.193 -0.4563  2.5811 -0.9791
  214MOL0     H29520   5.484   4.340   6.600  1.6906  0.7592  0.0865
  214MOL0     H29521   5.530   4.508   6.575 -0.5245  1.3835 -1.2761
  214MOL0     H29522   5.345   4.530   6.411  2.9043  0.8619 -0.2140
  214MOL0     H29523   5.295   4.535   6.566 -1.1795  0.9567 -0.4793
  214MOL0     H29524   5.152   4.381   6.439 -0.7438 -0.4078  2.2340
  214MOL0     H29525   5.302   4.294   6.374  1.6886  0.7728  0.3024
  214MOL0     H29526   5.227   4.269   6.667  1.0425 -0.3444  0.9084
  214MOL0     H29527   5.335   4.169   6.559 -0.1193  0.3108 -0.6795
  214MOL0     H29528   4.937   4.021   6.497  0.3847 -1.1464 -1.0758
  214MOL0     H29529   5.714   4.384   6.609 -0.6362  3.0833 -0.7912
  214MOL0     H29530   6.057   4.400   6.635  0.1564  1.0281  2.2289
  214MOL0     H29531   5.910   4.428   6.711  0.2960 -1.6010  1.6391
  214MOL0     H29532   5.950   4.270   6.705 -0.6736  1.7639  2.0324
  215MOL0     O29533   5.957   1.104   0.609 -0.1128 -0.0983  0.1484
  215MOL0     C29534   5.912   1.151   0.719  0.5685 -0.8118  0.0405
  215MOL0     O29535   5.977   1.239   0.800 -0.5250  0.0481  0.1621
  215MOL0     C29536   6.095   1.284   0.743 -0.2127  0.1987 -0.4019
  215MOL0     C29537   6.113   1.429   0.738  0.3742 -0.2375  0.2798
  215MOL0     C29538   6.250   1.474   0.713 -0.6244 -0.7024  0.8262
  215MOL0     C29539   6.360   1.394   0.684 -0.2493 -0.4506  0.0394
  215MOL0     O29540   6.480   1.456   0.663  0.4633  0.5525  0.0881
  215MOL0     C29541   6.604   1.384   0.668  0.5629 -0.2623  0.1053
  215MOL0     C29542   6.647   1.326   0.531  0.4678 -0.0108  0.0402
  215MOL0     C29543   6.794   1.282   0.537 -0.4744 -0.3469  0.2474
  215MOL0     C29544   6.816   1.183   0.419 -0.1330  0.5873 -0.4068
  215MOL0     C29545   6.971   1.171   0.397 -0.1615  0.1343 -0.1785
  215MOL0     C29546   7.062   1.106   0.504 -0.2407 -0.2172 -0.5718
  215MOL0     C29547   7.207   1.110   0.455 -0.7319  0.2273  0.0643
  215MOL0     C29548   7.297   1.002   0.520 -0.1140 -0.4236  0.3826
  215MOL0     N29549   7.432   1.029   0.500  0.6336 -1.2740 -0.1073
  215MOL0     C29550   7.499   0.996   0.385  0.5516  0.7641 -0.3274
  215MOL0     C29551   7.624   1.051   0.401  0.7906  0.1099  0.1026
  215MOL0     C29552   7.733   1.041   0.306 -0.6626 -0.2813 -0.5430
  215MOL0     C29553   7.800   1.168   0.261 -0.2238 -0.1792  0.1660
  215MOL0     C29554   7.905   1.205   0.367  0.0937  0.1582  0.1561
  215MOL0     C29555   8.020   1.304   0.322  0.6488 -0.4074 -0.3894
  215MOL0     O29556   8.107   1.322   0.430  0.0206  0.1244  0.0859
  215MOL0     C29557   8.240   1.349   0.409 -0.1253 -0.3474  0.0189
  215MOL0     C29558   8.313   1.353   0.528 -0.4059  0.4422 -0.6146
  215MOL0     C29559   8.447   1.385   0.532  0.3399  0.1384  0.2059
  215MOL0     C29560   8.515   1.387   0.659 -0.1910 -0.4354  0.5256
  215MOL0     C29561   8.514   1.415   0.412  0.0567 -0.1419 -0.6809
  215MOL0     C29562   8.658   1.442   0.403 -0.5494 -1.0529 -0.7150
  215MOL0     O29563   8.705   1.469   0.276 -0.1767 -0.2902  0.5041
  215MOL0     C29564   8.848   1.468   0.269  0.3948  0.3322 -0.4668
  215MOL0     C29565   8.915   1.355   0.225  0.6035  0.3178  0.1732
  215MOL0     C29566   9.055   1.353   0.220  0.1752 -0.2944 -0.1756
  215MOL0     C29567   9.123   1.470   0.247 -0.0030 -0.8616 -0.1067
  215MOL0     O29568   9.258   1.477   0.240 -0.3358 -0.2888  0.8995
  215MOL0     C29569   9.336   1.516   0.351  0.3453  0.9233 -0.1276
  215MOL0     C29570   9.483   1.497   0.336 -0.0293  0.1703  0.1613
  215MOL0     C29571   9.552   1.570   0.224  0.1773  0.0948  1.0922
  215MOL0     C29572   9.707   1.569   0.245 -0.2159 -0.3532  0.1104
  215MOL0     C29573   9.758   1.690   0.325 -0.0118 -0.3726  0.1405
  215MOL0     C29574   9.909   1.671   0.361  0.3048 -0.3002  0.8524
  215MOL0     C29575   9.997   1.674   0.232 -1.2957  1.1705 -0.4652
  215MOL0     C29576  10.144   1.682   0.264 -0.0066 -0.1147  0.4800
  215MOL0    Cl29577  10.221   1.638   0.113  0.2584 -0.2532 -0.4559
  215MOL0     C29578   9.050   1.586   0.279  0.3569 -0.3514  0.7090
  215MOL0     C29579   8.911   1.586   0.297 -0.8774  0.1094  0.3084
  215MOL0     O29580   8.725   1.440   0.501  0.3022 -0.5941  0.3561
  215MOL0     C29581   8.436   1.397   0.290  0.5794 -0.1754  0.2351
  215MOL0     C29582   8.301   1.369   0.293 -0.0463  0.0565  0.2518
  215MOL0     N29583   7.627   1.121   0.521 -0.1367 -0.7707  0.1075
  215MOL0     N29584   7.513   1.113   0.572  0.3119 -0.4061 -0.1035
  215MOL0     C29585   6.334   1.258   0.689  0.2944 -0.9055 -0.9011
  215MOL0     C29586   6.210   1.204   0.722  0.1751  0.2836  0.5606
  215MOL0     C29587   5.773   1.103   0.753 -0.5681  0.7580  0.9866
  215MOL0     C29588   5.727   0.982   0.702 -0.6685  0.4727  0.3637
  215MOL0     C29589   5.600   0.936   0.717  0.1410  0.5175  0.3154
  215MOL0     C29590   5.501   1.012   0.781  0.2716  0.5314 -0.5522
  215MOL0     O29591   5.368   0.966   0.772  0.2064 -0.5432 -0.4249
  215MOL0     C29592   5.262   1.031   0.847 -0.1149 -0.5708  1.0967
  215MOL0     C29593   5.123   0.960   0.823 -0.2221  1.1054  0.6976
  215MOL0     C29594   5.045   0.984   0.685  0.1757  0.5893 -0.5222
  215MOL0     C29595   4.930   0.888   0.662  0.0645  0.4416  0.4971
  215MOL0     C29596   4.868   0.904   0.532  0.4050 -0.5125  0.2026
  215MOL0     C29597   4.825   0.953   0.432 -0.4776  0.1673  0.0074
  215MOL0     C29598   5.545   1.123   0.848 -0.1530 -0.5029 -0.0855
  215MOL0     C29599   5.684   1.168   0.835  0.3878  0.5301  0.3802
  215MOL0     C29600   5.719   1.293   0.896  0.4513 -0.0177 -0.4406
  215MOL0     H29601   6.039   1.505   0.763 -0.7697 -0.8566 -1.0494
  215MOL0     H29602   6.260   1.582   0.711 -1.5232 -0.6056  1.1255
  215MOL0     H29603   6.602   1.301   0.740  0.9613 -0.6404 -0.3184
  215MOL0     H29604   6.682   1.454   0.701  1.0011  0.0447 -1.5007
  215MOL0     H29605   6.589   1.234   0.514  0.5644 -0.3724  1.5208
  215MOL0     H29606   6.625   1.405   0.460  2.0851 -0.1457 -0.6619
  215MOL0     H29607   6.862   1.367   0.554  0.1268 -0.9045  0.7033
  215MOL0     H29608   6.820   1.226   0.627  2.7825  1.6964  0.7672
  215MOL0     H29609   6.781   1.082   0.444  0.3931  0.1092 -1.5697
  215MOL0     H29610   6.771   1.219   0.327  2.0989  1.5733 -1.1758
  215MOL0     H29611   7.008   1.273   0.382 -0.5187  0.2441 -0.3325
  215MOL0     H29612   6.980   1.124   0.298  1.6944  0.8685 -0.3882
  215MOL0     H29613   7.063   1.152   0.603  2.5265  1.6225 -1.3442
  215MOL0     H29614   7.018   1.006   0.505 -0.1524 -0.2579 -0.7219
  215MOL0     H29615   7.241   1.213   0.469 -6.4876  2.7122 -1.4623
  215MOL0     H29616   7.214   1.091   0.347 -0.2236 -3.6098  0.6168
  215MOL0     H29617   7.266   1.012   0.625 -1.4977  0.9817 -0.1153
  215MOL0     H29618   7.280   0.900   0.485  1.5905 -0.3715 -0.6896
  215MOL0     H29619   7.465   0.934   0.302 -1.0298  2.2478 -0.8346
  215MOL0     H29620   7.697   1.001   0.211  0.8455  1.2132 -1.8137
  215MOL0     H29621   7.803   0.968   0.348  2.4775  1.5022 -2.3047
  215MOL0     H29622   7.848   1.154   0.164  3.3533  4.5662  0.8477
  215MOL0     H29623   7.722   1.243   0.245 -0.4374 -0.2262  0.9466
  215MOL0     H29624   7.858   1.238   0.460  1.0992 -2.0449  1.5412
  215MOL0     H29625   7.956   1.110   0.387  0.4816  0.6817  1.7718
  215MOL0     H29626   8.068   1.258   0.235  0.7673 -0.8010 -0.1212
  215MOL0     H29627   7.974   1.397   0.286  1.7978 -0.2749 -1.6011
  215MOL0     H29628   8.264   1.328   0.622 -3.1953 -0.1917 -2.1334
  215MOL0     H29629   8.542   1.492   0.668 -2.0543  0.2196 -0.9215
  215MOL0     H29630   8.598   1.316   0.669  0.8290  0.6262 -0.2097
  215MOL0     H29631   8.451   1.365   0.745  1.7186 -3.6001  1.3148
  215MOL0     H29632   8.859   1.267   0.196 -1.1328  1.7093 -0.8859
  215MOL0     H29633   9.110   1.265   0.188 -1.6042 -0.9103 -1.7435
  215MOL0     H29634   9.314   1.621   0.377  1.3726  1.0766  0.1433
  215MOL0     H29635   9.303   1.452   0.433  0.9679 -0.5591 -1.0063
  215MOL0     H29636   9.525   1.521   0.434  0.4760  0.6930 -0.1829
  215MOL0     H29637   9.501   1.390   0.320 -0.2422  0.2093 -0.3605
  215MOL0     H29638   9.526   1.675   0.205  0.1855 -0.3622 -1.9726
  215MOL0     H29639   9.531   1.512   0.134  0.8498  0.9805  0.3408
  215MOL0     H29640   9.761   1.569   0.150  4.3523  1.5544  2.3968
  215MOL0     H29641   9.744   1.475   0.286  1.1626  0.1685  0.0989
  215MOL0     H29642   9.751   1.777   0.259  0.5091 -0.5314 -0.1352
  215MOL0     H29643   9.696   1.714   0.412  0.4005  0.2852  0.2620
  215MOL0     H29644   9.911   1.571   0.404 -1.2847 -0.4342  0.6581
  215MOL0     H29645   9.931   1.747   0.436 -0.9421  0.3397  0.5963
  215MOL0     H29646   9.966   1.757   0.168 -0.3385  1.2568 -0.8329
  215MOL0     H29647   9.986   1.592   0.160  1.1542  0.2455  0.1266
  215MOL0     H29648  10.177   1.612   0.341 -2.1584 -1.3203  0.3960
  215MOL0     H29649  10.172   1.786   0.285  0.0176  0.0420 -0.2739
  215MOL0     H29650   9.099   1.683   0.277  0.1291 -0.2170  1.3416
  215MOL0     H29651   8.851   1.674   0.320  0.1218  1.3027 -1.3942
  215MOL0     H29652   8.482   1.399   0.191  1.5016 -0.5422  0.6415
  215MOL0     H29653   8.247   1.356   0.199  0.4125 -3.4457  0.3552
  215MOL0     H29654   6.423   1.197   0.677  2.3476  1.3521  1.5015
  215MOL0     H29655   6.202   1.097   0.733 -2.6314 -0.1820 -3.4590
  215MOL0     H29656   5.791   0.926   0.636 -1.3965  1.5456 -1.3172
  215MOL0     H29657   5.560   0.849   0.665  2.4440 -0.2087 -0.3690
  215MOL0     H29658   5.289   1.026   0.953  0.1309 -1.4304  1.0046
  215MOL0     H29659   5.255   1.137   0.821 -0.1704 -0.2791  2.2226
  215MOL0     H29660   5.055   0.996   0.901 -1.1826  1.0319 -0.0720
  215MOL0     H29661   5.145   0.853   0.826  0.0416  1.1001 -0.6155
  215MOL0     H29662   5.013   1.088   0.672  2.8633  1.3930 -1.4323
  215MOL0     H29663   5.119   0.964   0.607  0.7241  3.0810 -0.7461
  215MOL0     H29664   4.857   0.900   0.742  1.1858  0.0274  1.6036
  215MOL0     H29665   4.958   0.782   0.666  0.0579  0.4746  2.6149
  215MOL0     H29666   4.805   1.008   0.343  2.6178  0.1192 -0.8326
  215MOL0     H29667   5.484   1.189   0.910  0.6549 -0.5220  0.7469
  215MOL0     H29668   5.797   1.279   0.971  1.7229 -0.7799 -1.8404
  215MOL0     H29669   5.756   1.369   0.826  2.0710  0.7387  1.1423
  215MOL0     H29670   5.631   1.334   0.947 -0.2653 -0.9332 -0.8959
  216MOL0     O29671  10.199   1.874   1.546  0.0729  0.2479 -0.0616
  216MOL0     C29672  10.149   1.820   1.647  0.0631  0.4187 -0.6479
  216MOL0     O29673  10.140   1.885   1.769  0.2389  0.1442  0.2870
  216MOL0     C29674  10.225   1.994   1.788  0.5762 -0.8423 -0.0712
  216MOL0     C29675  10.360   2.017   1.749  0.2703  0.0307 -1.0461
  216MOL0     C29676  10.438   2.135   1.787  0.4556 -0.6373 -1.3737
  216MOL0     C29677  10.374   2.224   1.870  0.0980 -0.3967  0.4570
  216MOL0     O29678  10.428   2.347   1.900  0.3221 -0.4852  0.0843
  216MOL0     C29679  10.564   2.372   1.923 -0.5720 -0.5885 -0.0312
  216MOL0     C29680  10.596   2.481   2.025  0.2388  0.0387 -0.2043
  216MOL0     C29681  10.582   2.629   1.972 -0.9486  0.4096 -0.3715
  216MOL0     C29682  10.613   2.727   2.078 -0.6003 -0.0725  0.9259
  216MOL0     C29683  10.638   2.864   2.020  0.2279  0.5856 -0.0948
  216MOL0     C29684  10.520   2.922   1.936 -0.5232  0.1015  0.5281
  216MOL0     C29685  10.557   3.058   1.895 -0.9156  1.2318  0.7566
  216MOL0     C29686  10.440   3.134   1.834 -0.1513  0.7099  0.0814
  216MOL0     N29687  10.445   3.125   1.686 -0.7037  0.1603  0.2091
  216MOL0     C29688  10.529   3.205   1.601 -1.0329  0.3404 -1.1955
  216MOL0     C29689  10.503   3.167   1.480 -0.0261 -1.2240 -0.1597
  216MOL0     C29690  10.571   3.229   1.365  0.5164  0.1102  0.2509
  216MOL0     C29691  10.677   3.124   1.319 -0.4000  0.1605  0.0387
  216MOL0     C29692  10.812   3.189   1.287 -0.7060 -0.2184 -0.0214
  216MOL0     C29693  10.913   3.083   1.244 -0.0824 -0.5484 -0.9358
  216MOL0     O29694  10.932   2.999   1.361 -0.3290 -0.0761  0.3890
  216MOL0     C29695  11.044   2.921   1.364 -0.5780  0.2333  0.4610
  216MOL0     C29696  11.123   2.912   1.256 -0.1183 -0.1536 -0.2197
  216MOL0     C29697  11.242   2.846   1.264 -0.1249  0.2003 -0.0603
  216MOL0     C29698  11.326   2.854   1.134  0.1121 -0.1785 -0.9658
  216MOL0     C29699  11.285   2.782   1.385  0.2862 -0.5970  0.2076
  216MOL0     C29700  11.420   2.705   1.404  0.4906 -0.4575 -0.2639
  216MOL0     O29701  11.426   2.610   1.505 -0.4753 -0.7327  0.2482
  216MOL0     C29702  11.544   2.543   1.517  0.0883 -0.5996  0.1935
  216MOL0     C29703  11.575   2.436   1.441 -0.0312  1.1159  0.0899
  216MOL0     C29704  11.697   2.365   1.458  0.8838 -0.4013  0.6576
  216MOL0     C29705  11.801   2.406   1.542  0.2251  0.5186 -0.2506
  216MOL0     O29706  11.922   2.341   1.540  0.5441 -0.0261 -0.2966
  216MOL0     C29707  11.965   2.270   1.653  0.7153 -0.0691 -0.3482
  216MOL0     C29708  12.114   2.226   1.631  0.4584 -0.9918 -0.8413
  216MOL0     C29709  12.149   2.120   1.736  0.2876 -0.0006 -0.1232
  216MOL0     C29710  12.288   2.056   1.722 -0.0809  0.1881 -0.4234
  216MOL0     C29711  12.292   1.934   1.811  0.0627  0.1316  0.6314
  216MOL0     C29712  12.423   1.860   1.797  0.6227  0.3574  0.4398
  216MOL0     C29713  12.434   1.757   1.912  0.7710  0.2757 -0.0014
  216MOL0     C29714  12.356   1.630   1.882 -0.1715 -0.5333 -0.3601
  216MOL0    Cl29715  12.418   1.564   1.727 -0.0143 -0.0026 -0.0842
  216MOL0     C29716  11.767   2.518   1.625 -0.1194 -0.2087  0.0884
  216MOL0     C29717  11.637   2.579   1.612 -0.7986  0.2878  0.1182
  216MOL0     O29718  11.508   2.740   1.325 -0.4043 -0.2905 -0.2846
  216MOL0     C29719  11.198   2.785   1.499  0.0245  0.3165  0.4853
  216MOL0     C29720  11.081   2.865   1.484 -0.7085  0.2873 -0.0527
  216MOL0     N29721  10.399   3.072   1.491 -0.0039  0.2413  0.3738
  216MOL0     N29722  10.374   3.043   1.609  0.3697 -0.6726  0.5372
  216MOL0     C29723  10.244   2.202   1.918  0.4247 -0.1726  0.6139
  216MOL0     C29724  10.173   2.089   1.878 -0.7477  0.2372 -0.1497
  216MOL0     C29725  10.069   1.693   1.623  0.0156 -0.1224 -0.1689
  216MOL0     C29726  10.109   1.607   1.521  1.2494 -0.7055 -0.4170
  216MOL0     C29727  10.041   1.489   1.488 -0.3047 -0.5535 -0.2425
  216MOL0     C29728   9.921   1.453   1.560 -0.1214 -1.4539  0.4716
  216MOL0     O29729   9.865   1.329   1.545 -0.5200 -0.1054 -0.1949
  216MOL0     C29730   9.723   1.314   1.571  0.3747 -0.3403  1.0013
  216MOL0     C29731   9.683   1.172   1.544 -0.3840  0.7359 -0.8800
  216MOL0     C29732   9.691   1.086   1.663  0.8989  0.1435 -0.2178
  216MOL0     C29733   9.682   0.928   1.651  0.3109 -0.1806 -0.3769
  216MOL0     C29734   9.558   0.872   1.589 -0.4676  0.3636  0.7503
  216MOL0     C29735   9.443   0.835   1.562  0.0927 -0.8162  0.4975
  216MOL0     C29736   9.881   1.543   1.667 -0.3043 -0.2134  1.5113
  216MOL0     C29737   9.952   1.655   1.695  0.7429  0.2350  0.7601
  216MOL0     C29738   9.894   1.734   1.797  0.4288  0.6220 -0.7491
  216MOL0     H29739  10.409   1.943   1.686 -2.4903 -2.4733 -0.4573
  216MOL0     H29740  10.536   2.152   1.743  2.0122 -1.2834  1.5920
  216MOL0     H29741  10.598   2.409   1.825  0.8767  2.0649  1.3670
  216MOL0     H29742  10.620   2.279   1.940  2.1619  0.4764 -2.3554
  216MOL0     H29743  10.520   2.487   2.104  0.9789  0.3733  0.4946
  216MOL0     H29744  10.702   2.475   2.053  0.5131 -1.3160 -1.4272
  216MOL0     H29745  10.651   2.646   1.889 -0.9095 -0.9059 -0.6263
  216MOL0     H29746  10.481   2.656   1.938 -1.3853 -0.4203  0.2196
  216MOL0     H29747  10.525   2.722   2.143 -1.4805 -1.9116 -0.3216
  216MOL0     H29748  10.701   2.704   2.140 -0.4692 -0.1220  0.7217
  216MOL0     H29749  10.735   2.874   1.971  0.2079 -0.5084 -0.3879
  216MOL0     H29750  10.665   2.926   2.105  2.3137 -2.9226  2.0186
  216MOL0     H29751  10.495   2.857   1.852  0.3588 -0.1629  0.4648
  216MOL0     H29752  10.431   2.923   2.001 -1.5074 -0.1135 -0.7729
  216MOL0     H29753  10.638   3.064   1.821 -0.3067  3.5782  1.5336
  216MOL0     H29754  10.610   3.109   1.977  2.3257 -1.3137  0.4684
  216MOL0     H29755  10.345   3.092   1.867 -0.5162  2.5592  1.5352
  216MOL0     H29756  10.454   3.233   1.877  1.1661  0.6900 -0.2688
  216MOL0     H29757  10.616   3.265   1.628 -0.9814 -0.4103  0.4498
  216MOL0     H29758  10.624   3.318   1.400  2.5123 -0.0619 -2.0767
  216MOL0     H29759  10.499   3.249   1.285  2.7859 -1.4888 -2.3745
  216MOL0     H29760  10.694   3.049   1.398  1.4000  2.4084  1.9474
  216MOL0     H29761  10.638   3.074   1.231  0.0907 -1.0697  0.4956
  216MOL0     H29762  10.792   3.256   1.203  0.1398  1.1107  0.8072
  216MOL0     H29763  10.845   3.253   1.370  1.5161  0.6999 -1.5091
  216MOL0     H29764  10.866   3.032   1.159 -0.3625 -0.5238 -0.7977
  216MOL0     H29765  11.003   3.142   1.223 -1.1366  1.2818 -0.5403
  216MOL0     H29766  11.094   2.958   1.161 -2.9835 -0.4485  0.4239
  216MOL0     H29767  11.388   2.767   1.111  0.2201  0.4616 -3.4534
  216MOL0     H29768  11.391   2.940   1.149 -1.1315  0.2890  2.4539
  216MOL0     H29769  11.267   2.881   1.045 -2.5958  0.5017  0.9120
  216MOL0     H29770  11.497   2.393   1.378  1.4160  0.9006 -1.6149
  216MOL0     H29771  11.703   2.276   1.396  0.7214  0.5465 -0.7503
  216MOL0     H29772  11.960   2.329   1.745 -0.3694  0.7469 -0.9098
  216MOL0     H29773  11.908   2.177   1.662 -0.2931  0.6982  1.8157
  216MOL0     H29774  12.139   2.184   1.533 -0.9563  0.9127 -2.0981
  216MOL0     H29775  12.179   2.313   1.640 -1.5116  0.6178 -1.4339
  216MOL0     H29776  12.072   2.044   1.723  0.0302  0.2595 -0.1334
  216MOL0     H29777  12.151   2.175   1.830  0.6015 -0.0790 -0.0850
  216MOL0     H29778  12.367   2.125   1.751  0.3529 -0.8374  0.9354
  216MOL0     H29779  12.301   2.031   1.616  0.4381  2.8437 -1.0533
  216MOL0     H29780  12.288   1.970   1.914  1.0663  2.1818  0.0085
  216MOL0     H29781  12.206   1.869   1.794  0.8864 -0.7109 -0.3997
  216MOL0     H29782  12.493   1.942   1.815  0.2991  0.6349  0.4643
  216MOL0     H29783  12.421   1.823   1.694  0.4221  1.5729 -0.0162
  216MOL0     H29784  12.404   1.803   2.006 -0.0999 -1.1949  0.4670
  216MOL0     H29785  12.537   1.721   1.923  1.1462  0.9153 -1.2079
  216MOL0     H29786  12.251   1.650   1.858 -0.2569 -1.7006 -1.0472
  216MOL0     H29787  12.366   1.563   1.968  2.0273 -0.0868 -0.2083
  216MOL0     H29788  11.837   2.563   1.694 -0.0889 -1.4515  0.9080
  216MOL0     H29789  11.622   2.673   1.663 -1.6515  1.6114 -2.4067
  216MOL0     H29790  11.214   2.735   1.594  3.2496 -1.2351 -0.7416
  216MOL0     H29791  11.019   2.887   1.570  0.2515  0.2053  0.6692
  216MOL0     H29792  10.198   2.288   1.965 -0.1555  0.4221 -0.9676
  216MOL0     H29793  10.075   2.074   1.922 -1.6520 -0.0715 -2.1334
  216MOL0     H29794  10.198   1.628   1.464  2.1257 -1.8107  0.5078
  216MOL0     H29795  10.076   1.419   1.413 -2.0992 -2.5477  0.6551
  216MOL0     H29796   9.700   1.341   1.674 -1.9791  2.9818 -0.2193
  216MOL0     H29797   9.667   1.385   1.510  1.5159  1.2602  1.7617
  216MOL0     H29798   9.746   1.131   1.465  1.5904  0.7176  0.6284
  216MOL0     H29799   9.577   1.172   1.516 -0.3645  2.5706 -1.0945
  216MOL0     H29800   9.783   1.106   1.718  0.5668 -1.0266  0.8234
  216MOL0     H29801   9.604   1.111   1.725  1.3782 -0.8655  0.9043
  216MOL0     H29802   9.701   0.898   1.754  0.3028  1.0160 -0.0098
  216MOL0     H29803   9.774   0.897   1.601  0.9785  0.6868  0.2677
  216MOL0     H29804   9.352   0.787   1.534  0.5778 -0.1673 -2.5370
  216MOL0     H29805   9.790   1.519   1.721 -2.6455  1.1575 -1.5195
  216MOL0     H29806   9.957   1.764   1.881  2.1651 -2.2662 -0.8747
  216MOL0     H29807   9.848   1.827   1.762 -1.3190 -0.0359 -0.3171
  216MOL0     H29808   9.804   1.686   1.836  0.4913 -0.1228 -1.4888
  217MOL0     O29809   0.209   1.149   0.370 -0.6982  0.3954 -0.2655
  217MOL0     C29810   0.190   1.053   0.298 -0.5756 -0.2054  0.2282
  217MOL0     O29811   0.278   0.940   0.294  1.1028 -0.0568  0.1612
  217MOL0     C29812   0.347   0.931   0.410  0.2754  0.4496  0.7064
  217MOL0     C29813   0.481   0.963   0.400  0.1169 -0.5789  0.3703
  217MOL0     C29814   0.565   0.962   0.512 -0.4868  0.4275 -0.5933
  217MOL0     C29815   0.508   0.930   0.640  0.3257  0.1511  0.3632
  217MOL0     O29816   0.577   0.929   0.756  0.2576 -0.3442  0.1124
  217MOL0     C29817   0.699   0.866   0.768 -0.8417 -0.0841  0.4013
  217MOL0     C29818   0.710   0.814   0.913 -0.1641 -0.1000  0.9968
  217MOL0     C29819   0.846   0.750   0.934 -0.1936  0.1249  0.7573
  217MOL0     C29820   0.861   0.714   1.081 -0.3168  0.2711  0.1856
  217MOL0     C29821   0.759   0.603   1.124  0.7488 -0.2008  0.5232
  217MOL0     C29822   0.788   0.575   1.276 -0.0217  0.1844  0.3662
  217MOL0     C29823   0.714   0.450   1.335  0.0634 -0.3047  0.4919
  217MOL0     C29824   0.571   0.468   1.368 -0.0192 -0.3833  0.4906
  217MOL0     N29825   0.516   0.372   1.465 -0.0848 -0.0827  0.3624
  217MOL0     C29826   0.427   0.277   1.426 -0.9521  0.3726 -0.2448
  217MOL0     C29827   0.420   0.193   1.533  0.1757  0.1693  0.0439
  217MOL0     C29828   0.340   0.063   1.538 -1.0344  0.0039 -0.1212
  217MOL0     C29829   0.414  -0.039   1.448  0.1115  1.0202  0.0488
  217MOL0     C29830   0.565  -0.065   1.474  0.7673 -0.3271  0.2190
  217MOL0     C29831   0.576  -0.143   1.606  0.2761  0.4339  0.2923
  217MOL0     O29832   0.711  -0.197   1.616  0.3038 -0.0499  0.0866
  217MOL0     C29833   0.809  -0.122   1.676 -0.0455 -0.5623 -0.4615
  217MOL0     C29834   0.794   0.017   1.712 -0.4310  0.5051 -0.7477
  217MOL0     C29835   0.908   0.092   1.769 -0.2311  0.1029 -0.0471
  217MOL0     C29836   0.880   0.241   1.803  0.0430  0.2369  0.8109
  217MOL0     C29837   1.027   0.029   1.791 -1.2327  0.0875 -0.3821
  217MOL0     C29838   1.151   0.093   1.847 -0.0373 -0.2430 -0.2060
  217MOL0     O29839   1.245   0.008   1.891  0.0150  0.0861 -0.0613
  217MOL0     C29840   1.381   0.045   1.897  0.1164 -0.1257  0.3111
  217MOL0     C29841   1.477  -0.064   1.906 -0.7213  0.7861 -0.2441
  217MOL0     C29842   1.614  -0.031   1.915  0.5148  0.4346 -0.7587
  217MOL0     C29843   1.664   0.103   1.925 -0.0724  0.7176  0.0642
  217MOL0     O29844   1.803   0.116   1.916 -0.4182  0.2138  0.0881
  217MOL0     C29845   1.867   0.247   1.893 -0.0430 -0.3775 -0.0000
  217MOL0     C29846   2.003   0.224   1.829  0.4927  0.4218 -0.6345
  217MOL0     C29847   2.103   0.153   1.933 -0.3308 -0.1402  0.3877
  217MOL0     C29848   2.235   0.125   1.873 -0.6410  0.2231  0.0190
  217MOL0     C29849   2.342   0.131   1.983 -0.2437  0.0486 -0.1881
  217MOL0     C29850   2.487   0.114   1.931 -0.2380 -0.1537  0.5661
  217MOL0     C29851   2.521  -0.034   1.901  0.5472 -0.0046  0.6972
  217MOL0     C29852   2.653  -0.041   1.827  1.1170 -0.0244 -0.4965
  217MOL0    Cl29853   2.672  -0.190   1.746 -0.5274  0.3602  0.2174
  217MOL0     C29854   1.571   0.211   1.920 -0.3102  0.0812 -0.6313
  217MOL0     C29855   1.435   0.178   1.894  0.2671  0.1596  0.3385
  217MOL0     O29856   1.162   0.211   1.827 -0.7192 -0.1606 -0.7261
  217MOL0     C29857   1.034  -0.110   1.763 -0.0447  0.4262 -0.1819
  217MOL0     C29858   0.935  -0.182   1.701  0.8866 -1.1812  0.2920
  217MOL0     N29859   0.500   0.243   1.630  0.3667  0.4978 -0.0352
  217MOL0     N29860   0.553   0.350   1.596  0.8594 -1.0778  0.2842
  217MOL0     C29861   0.369   0.904   0.646 -0.3377  0.4721  0.7100
  217MOL0     C29862   0.287   0.895   0.529 -0.3776 -0.1795  0.0921
  217MOL0     C29863   0.075   1.066   0.206 -0.0728 -0.7850 -0.2960
  217MOL0     C29864   0.067   0.974   0.103 -0.5786 -0.3041  0.8809
  217MOL0     C29865  -0.039   0.974   0.010  0.0582 -0.6375  0.7666
  217MOL0     C29866  -0.154   1.051   0.027 -0.5039  0.4228 -0.2992
  217MOL0     O29867  -0.263   1.045  -0.060 -0.0081 -1.0391 -0.3811
  217MOL0     C29868  -0.391   1.100  -0.019 -0.5043 -0.0243 -0.4665
  217MOL0     C29869  -0.502   1.060  -0.116  0.2224 -0.7931 -0.2260
  217MOL0     C29870  -0.547   0.914  -0.112 -0.4454  0.2818 -1.0139
  217MOL0     C29871  -0.661   0.868  -0.198  0.3524 -0.2718 -0.0106
  217MOL0     C29872  -0.773   0.967  -0.191  0.3363  0.2729  0.4946
  217MOL0     C29873  -0.862   1.049  -0.199  0.0061  0.5656  0.3636
  217MOL0     C29874  -0.153   1.133   0.144  0.7597  0.1135  0.1671
  217MOL0     C29875  -0.039   1.144   0.226  0.6434  0.0261 -0.1573
  217MOL0     C29876  -0.058   1.235   0.345  0.2361  0.0750 -0.8344
  217MOL0     H29877   0.517   1.000   0.304  1.6920 -3.0959 -0.0993
  217MOL0     H29878   0.665   1.001   0.497 -0.8384  3.0800  2.7659
  217MOL0     H29879   0.786   0.926   0.741 -0.3598 -0.6979  0.5740
  217MOL0     H29880   0.691   0.791   0.689 -3.1875 -1.1658  1.5394
  217MOL0     H29881   0.679   0.891   0.985 -1.2794  0.9568 -0.5449
  217MOL0     H29882   0.627   0.743   0.912 -0.7842  0.4920 -2.5297
  217MOL0     H29883   0.872   0.665   0.871  1.6702 -0.0776  1.7341
  217MOL0     H29884   0.924   0.822   0.909  0.5007 -0.3915  1.4103
  217MOL0     H29885   0.966   0.690   1.101  0.3901  2.3395 -0.6877
  217MOL0     H29886   0.849   0.807   1.138  1.1440 -1.4105  3.4668
  217MOL0     H29887   0.776   0.515   1.061  2.1637  0.8088 -0.5992
  217MOL0     H29888   0.659   0.635   1.093  0.1098 -0.9156  1.7567
  217MOL0     H29889   0.893   0.547   1.285 -0.0256  0.0266 -0.0679
  217MOL0     H29890   0.761   0.655   1.346 -0.5673 -2.5404  3.4750
  217MOL0     H29891   0.769   0.415   1.423 -0.2985  0.1994  0.9271
  217MOL0     H29892   0.734   0.377   1.256  2.2735 -0.9272  1.5464
  217MOL0     H29893   0.557   0.558   1.428 -0.7114 -2.0282  2.9753
  217MOL0     H29894   0.515   0.480   1.275  3.6086 -2.3162 -2.2027
  217MOL0     H29895   0.375   0.262   1.332  0.7724 -2.3104 -0.9003
  217MOL0     H29896   0.246   0.092   1.490  0.0844  2.8988 -0.7785
  217MOL0     H29897   0.330   0.023   1.640 -3.5861 -0.0616 -0.3304
  217MOL0     H29898   0.360  -0.134   1.446  1.2913  0.3408 -0.3781
  217MOL0     H29899   0.408   0.007   1.349 -0.8504  1.6267  0.3813
  217MOL0     H29900   0.612  -0.120   1.392 -2.4702 -0.4699 -1.7157
  217MOL0     H29901   0.628   0.024   1.480  0.1425  0.3890 -2.5620
  217MOL0     H29902   0.560  -0.077   1.692 -0.2108  0.2301  0.3596
  217MOL0     H29903   0.505  -0.227   1.608  1.6193 -0.7225  0.9231
  217MOL0     H29904   0.705   0.077   1.694 -1.3359 -0.4569  0.3229
  217MOL0     H29905   0.933   0.308   1.734  0.3286 -0.1646  0.6373
  217MOL0     H29906   0.906   0.266   1.907 -0.9337 -0.1070  1.1482
  217MOL0     H29907   0.776   0.270   1.791  0.7278  1.6203 -3.7232
  217MOL0     H29908   1.446  -0.168   1.906  0.6307  0.3256 -2.2580
  217MOL0     H29909   1.688  -0.111   1.925  0.2371  0.4469  3.4253
  217MOL0     H29910   1.812   0.323   1.837  1.8755  2.5151  1.7723
  217MOL0     H29911   1.888   0.296   1.989 -0.2372 -0.0015 -0.1480
  217MOL0     H29912   1.985   0.159   1.742 -1.9807  1.2480 -0.8150
  217MOL0     H29913   2.053   0.318   1.804  2.6527 -0.3178  0.6368
  217MOL0     H29914   2.064   0.061   1.978 -0.8096  0.3051  0.8893
  217MOL0     H29915   2.109   0.225   2.015 -1.0414  0.8637 -0.4182
  217MOL0     H29916   2.259   0.187   1.786 -2.3697  1.2013  0.1982
  217MOL0     H29917   2.241   0.023   1.833 -0.2908  1.2595 -2.7919
  217MOL0     H29918   2.349   0.226   2.036  0.3512 -0.6808  1.0754
  217MOL0     H29919   2.322   0.061   2.065 -0.2721 -0.8012 -0.8978
  217MOL0     H29920   2.559   0.146   2.007  3.2762 -1.1841 -2.0553
  217MOL0     H29921   2.496   0.180   1.844 -0.5240 -2.4728 -1.3201
  217MOL0     H29922   2.445  -0.075   1.834 -0.4244  2.9155 -0.1269
  217MOL0     H29923   2.512  -0.093   1.993 -1.1918  1.3301  1.4313
  217MOL0     H29924   2.735  -0.040   1.899 -0.0960 -0.6651  0.9701
  217MOL0     H29925   2.667   0.046   1.762  0.7777  0.1332 -0.3666
  217MOL0     H29926   1.605   0.314   1.929 -1.5061  0.4140  0.3166
  217MOL0     H29927   1.373   0.264   1.873 -0.4034 -1.0347 -3.4124
  217MOL0     H29928   1.119  -0.169   1.796  0.1322  1.2816  0.9638
  217MOL0     H29929   0.948  -0.287   1.680  0.5858 -1.4204  1.2555
  217MOL0     H29930   0.325   0.885   0.744 -0.0005  0.4781  0.8654
  217MOL0     H29931   0.181   0.875   0.543 -0.7717  3.0142  3.3373
  217MOL0     H29932   0.145   0.903   0.076 -0.5622  0.4952 -1.4459
  217MOL0     H29933  -0.030   0.903  -0.072  2.8461 -1.9405  2.0540
  217MOL0     H29934  -0.433   1.064   0.076 -0.2653  0.5962 -0.1224
  217MOL0     H29935  -0.375   1.207  -0.005  0.0486 -0.1947  0.3012
  217MOL0     H29936  -0.475   1.080  -0.221 -3.2492  0.8516 -0.9579
  217MOL0     H29937  -0.586   1.125  -0.090  1.0320 -0.4958  1.8323
  217MOL0     H29938  -0.459   0.858  -0.146 -0.3581  1.6097 -3.1790
  217MOL0     H29939  -0.575   0.875  -0.014 -1.2789  2.4718 -0.3292
  217MOL0     H29940  -0.676   0.761  -0.183  1.7614 -1.1057 -3.5201
  217MOL0     H29941  -0.628   0.881  -0.302 -2.5706  3.4323 -0.7013
  217MOL0     H29942  -0.939   1.123  -0.215 -0.6980 -0.4556 -1.2035
  217MOL0     H29943  -0.243   1.189   0.170  2.4318  2.3077  1.5539
  217MOL0     H29944  -0.158   1.280   0.342 -0.1854 -0.8525 -2.3771
  217MOL0     H29945  -0.050   1.176   0.436 -0.3201 -2.1077 -2.1190
  217MOL0     H29946   0.007   1.322   0.358 -1.1857  0.7373  3.5478
  218MOL0     O29947   5.641   1.707   1.968 -0.3583 -0.1301  0.7944
  218MOL0     C29948   5.583   1.617   1.905  0.4882 -0.2729  0.1154
  218MOL0     O29949   5.646   1.511   1.848  0.7082  0.2001  0.3978
  218MOL0     C29950   5.774   1.506   1.821 -0.1926  0.0301 -0.1145
  218MOL0     C29951   5.846   1.391   1.852  0.0996  0.1411  0.1579
  218MOL0     C29952   5.981   1.374   1.814 -0.4987  0.0458 -0.1816
  218MOL0     C29953   6.053   1.477   1.748  0.8037 -0.5883 -0.2777
  218MOL0     O29954   6.189   1.454   1.723 -0.2395  0.2805 -0.2339
  218MOL0     C29955   6.244   1.540   1.624  0.5216  0.1888 -0.0627
  218MOL0     C29956   6.368   1.476   1.573 -0.6574  0.9710 -0.3136
  218MOL0     C29957   6.455   1.569   1.492  1.3900 -0.6871  0.5251
  218MOL0     C29958   6.586   1.508   1.465  1.1359 -0.1178  0.2130
  218MOL0     C29959   6.669   1.620   1.392  0.4067 -0.0878 -0.3580
  218MOL0     C29960   6.788   1.573   1.317 -0.2960  1.0275  0.5614
  218MOL0     C29961   6.855   1.680   1.239  0.5387  0.8287  0.2771
  218MOL0     C29962   6.982   1.631   1.170 -0.0020  0.6446 -1.1717
  218MOL0     N29963   7.078   1.743   1.150  0.0193  0.1139  0.2000
  218MOL0     C29964   7.195   1.761   1.207 -0.4353  0.1544  0.6774
  218MOL0     C29965   7.255   1.865   1.149 -0.4085 -0.3891  0.2728
  218MOL0     C29966   7.394   1.910   1.182 -0.0606 -0.3920  0.0931
  218MOL0     C29967   7.512   1.845   1.105  0.2627  0.3709 -0.6489
  218MOL0     C29968   7.528   1.913   0.975 -0.4732 -0.3532  0.1935
  218MOL0     C29969   7.664   1.868   0.934 -0.5759  0.4719 -0.3238
  218MOL0     O29970   7.761   1.961   0.992  0.0629 -0.0750  0.2325
  218MOL0     C29971   7.900   1.934   0.979 -0.1346 -0.4757  0.0582
  218MOL0     C29972   7.984   2.002   1.066 -0.3247 -0.2131  0.7047
  218MOL0     C29973   8.124   1.996   1.048  0.8674 -0.7147 -0.8584
  218MOL0     C29974   8.191   2.091   1.137 -0.4529  0.2793 -1.4714
  218MOL0     C29975   8.186   1.925   0.934  0.3084 -0.6084 -0.3294
  218MOL0     C29976   8.327   1.917   0.912 -0.5625  0.1590 -0.4247
  218MOL0     O29977   8.374   1.791   0.877  0.1846  0.0760 -0.5829
  218MOL0     C29978   8.508   1.777   0.852  0.8317  0.2567  0.2538
  218MOL0     C29979   8.606   1.802   0.953  0.2284  0.3929 -0.2303
  218MOL0     C29980   8.746   1.779   0.932  0.3509 -0.1401 -0.0135
  218MOL0     C29981   8.794   1.733   0.811  0.1065  0.5024  0.5538
  218MOL0     O29982   8.928   1.707   0.800 -0.0338  0.0114 -0.0882
  218MOL0     C29983   8.971   1.616   0.698 -0.0346  0.1535 -0.3688
  218MOL0     C29984   9.109   1.566   0.720 -0.3884  0.1442  0.3421
  218MOL0     C29985   9.209   1.677   0.724  0.5628 -0.2460 -0.5584
  218MOL0     C29986   9.343   1.612   0.722 -0.5828 -0.0833 -0.1743
  218MOL0     C29987   9.464   1.720   0.713 -0.0775  0.0168  0.0648
  218MOL0     C29988   9.596   1.642   0.728 -0.1365 -0.1268  0.4627
  218MOL0     C29989   9.720   1.743   0.716  0.2520 -0.3919 -0.4901
  218MOL0     C29990   9.845   1.659   0.714 -0.5474 -0.3255  0.0455
  218MOL0    Cl29991   9.993   1.762   0.695  0.5684 -0.0066 -0.0469
  218MOL0     C29992   8.695   1.717   0.706 -0.0213 -0.3263  0.2259
  218MOL0     C29993   8.556   1.738   0.722 -0.2018 -0.3860  0.3519
  218MOL0     O29994   8.397   2.022   0.908 -0.1841 -0.5602  1.2698
  218MOL0     C29995   8.092   1.859   0.847 -0.5007  0.3624 -0.6085
  218MOL0     C29996   7.957   1.868   0.864 -0.1239  0.5084  0.1844
  218MOL0     N29997   7.162   1.927   1.067 -0.0184 -0.0203  0.2977
  218MOL0     N29998   7.053   1.854   1.073 -0.3580 -0.0475  0.3971
  218MOL0     C29999   5.980   1.597   1.731 -0.4581  0.4347  0.1765
  218MOL0     C30000   5.846   1.609   1.763 -0.0180 -0.5668  0.4724
  218MOL0     C30001   5.432   1.614   1.908 -0.6293  0.5305 -0.4740
  218MOL0     C30002   5.361   1.525   1.821  0.5199 -0.1534  0.0925
  218MOL0     C30003   5.225   1.518   1.807 -0.3124 -0.4894  0.1885
  218MOL0     C30004   5.147   1.600   1.880  0.1447 -1.3294 -0.5103
  218MOL0     O30005   5.014   1.617   1.878  0.5243 -0.4762  0.7739
  218MOL0     C30006   4.943   1.605   1.752 -0.2930 -0.2476 -0.0416
  218MOL0     C30007   4.802   1.677   1.750  0.0724 -0.2790 -0.6570
  218MOL0     C30008   4.829   1.827   1.776  0.4904 -0.1062  0.0726
  218MOL0     C30009   4.698   1.906   1.785 -0.2635 -0.0082 -0.3915
  218MOL0     C30010   4.723   2.049   1.815 -0.0758 -0.6863  0.1028
  218MOL0     C30011   4.733   2.174   1.827  0.1898 -0.4652 -0.0945
  218MOL0     C30012   5.215   1.690   1.975 -0.2065  0.1048  0.3053
  218MOL0     C30013   5.352   1.687   1.994 -0.1031 -0.7901 -0.1299
  218MOL0     C30014   5.401   1.781   2.105 -0.6989 -0.5017 -1.1957
  218MOL0     H30015   5.798   1.305   1.898  0.8227  1.0281  2.7707
  218MOL0     H30016   6.027   1.280   1.844 -1.5995 -0.3153  0.4352
  218MOL0     H30017   6.256   1.641   1.665 -1.8788  0.9988 -1.1593
  218MOL0     H30018   6.180   1.554   1.536 -1.6651 -1.7006  1.1449
  218MOL0     H30019   6.429   1.445   1.659 -0.6390  1.4778 -0.1427
  218MOL0     H30020   6.351   1.383   1.517  2.1679  0.5039 -0.5676
  218MOL0     H30021   6.403   1.602   1.402  2.8246 -1.7922 -0.7529
  218MOL0     H30022   6.459   1.664   1.545  1.1203  0.1594 -0.9259
  218MOL0     H30023   6.633   1.474   1.558  0.2691 -1.1873  0.2716
  218MOL0     H30024   6.574   1.424   1.397 -0.8341 -0.5814  1.0512
  218MOL0     H30025   6.703   1.697   1.462 -0.8722 -1.9516  2.4888
  218MOL0     H30026   6.592   1.657   1.324 -1.3214 -0.6165  1.2402
  218MOL0     H30027   6.860   1.525   1.384 -1.6194 -2.4325 -0.2746
  218MOL0     H30028   6.764   1.497   1.242  1.2847 -0.2389  1.2717
  218MOL0     H30029   6.883   1.759   1.309  2.0519  1.2509 -0.7555
  218MOL0     H30030   6.785   1.706   1.160  1.1120 -3.8443 -2.1301
  218MOL0     H30031   7.042   1.559   1.225 -0.0819  0.8725 -0.7843
  218MOL0     H30032   6.962   1.587   1.071  2.2906 -2.6551 -0.3139
  218MOL0     H30033   7.246   1.695   1.276  1.0360  2.7324  2.2032
  218MOL0     H30034   7.415   1.898   1.289  0.9417  3.4200  0.4469
  218MOL0     H30035   7.400   2.019   1.178  1.1469 -0.3061  2.5123
  218MOL0     H30036   7.596   1.860   1.173  1.1121 -2.3130 -1.0037
  218MOL0     H30037   7.496   1.737   1.095  0.9594 -0.2324  3.2258
  218MOL0     H30038   7.452   1.885   0.901 -1.2565  1.4860  0.2531
  218MOL0     H30039   7.523   2.022   0.983  0.2476 -0.0466 -2.5359
  218MOL0     H30040   7.688   1.765   0.963 -1.3145  0.3295 -0.2019
  218MOL0     H30041   7.678   1.881   0.826  1.4949  2.6153  0.1246
  218MOL0     H30042   7.946   2.069   1.143  1.0663  0.2853  0.9987
  218MOL0     H30043   8.130   2.126   1.221  1.3849  1.0174 -0.4015
  218MOL0     H30044   8.228   2.176   1.080  0.0018  1.4054  0.4369
  218MOL0     H30045   8.279   2.037   1.174 -0.9998 -1.1862 -2.1941
  218MOL0     H30046   8.571   1.834   1.051 -0.8656  0.2705 -0.5709
  218MOL0     H30047   8.819   1.807   1.007 -0.7231 -0.3416  1.1449
  218MOL0     H30048   8.907   1.528   0.706  0.1849  0.0146 -0.1268
  218MOL0     H30049   8.973   1.666   0.600  0.5153  1.0121  0.0706
  218MOL0     H30050   9.117   1.498   0.805 -0.2373  0.4866  0.6030
  218MOL0     H30051   9.130   1.508   0.630 -0.9740 -3.0522  2.0988
  218MOL0     H30052   9.198   1.744   0.810  2.0621  0.8645 -1.1920
  218MOL0     H30053   9.191   1.740   0.636 -1.8044 -0.3477 -0.2176
  218MOL0     H30054   9.342   1.551   0.631 -0.7589 -0.1515 -0.1265
  218MOL0     H30055   9.356   1.548   0.809 -0.2596  1.5526  1.0427
  218MOL0     H30056   9.465   1.769   0.615 -0.6427 -2.1627 -1.1002
  218MOL0     H30057   9.462   1.799   0.788  2.5264 -0.2811  0.5522
  218MOL0     H30058   9.597   1.562   0.653  2.8171  0.9452 -0.8210
  218MOL0     H30059   9.608   1.598   0.827  1.6392  2.5197  1.5492
  218MOL0     H30060   9.728   1.812   0.801  3.9078 -3.5027  2.0153
  218MOL0     H30061   9.705   1.795   0.621  0.9048  0.1563 -0.3028
  218MOL0     H30062   9.839   1.575   0.644 -0.4626 -2.1729  2.1517
  218MOL0     H30063   9.840   1.615   0.814 -0.0282 -1.1039 -0.2625
  218MOL0     H30064   8.736   1.696   0.608 -0.3176 -0.0021  0.0293
  218MOL0     H30065   8.482   1.732   0.644 -1.5952  0.3406  1.5716
  218MOL0     H30066   8.125   1.804   0.759 -3.2257  0.7552 -1.9613
  218MOL0     H30067   7.882   1.828   0.796 -1.0070 -0.4328  1.6625
  218MOL0     H30068   6.037   1.685   1.703  1.6994 -0.1074  2.4811
  218MOL0     H30069   5.796   1.701   1.735 -2.3445 -0.3756  4.4198
  218MOL0     H30070   5.425   1.454   1.770  0.9631 -0.0185  0.4539
  218MOL0     H30071   5.185   1.450   1.733 -0.2805  0.2984 -0.5568
  218MOL0     H30072   4.996   1.651   1.668 -0.1133 -0.2814  0.0539
  218MOL0     H30073   4.927   1.499   1.731 -0.1158 -0.0615 -1.1697
  218MOL0     H30074   4.740   1.636   1.830  2.0621 -2.3349 -0.0618
  218MOL0     H30075   4.751   1.670   1.653  2.4596 -1.1318 -1.9371
  218MOL0     H30076   4.874   1.830   1.876  1.2410 -2.3994 -0.1245
  218MOL0     H30077   4.896   1.867   1.700 -3.0750  1.3637 -2.6082
  218MOL0     H30078   4.649   1.863   1.873  0.0898  1.9532  0.8234
  218MOL0     H30079   4.646   1.884   1.691 -0.1544  0.8642 -0.6565
  218MOL0     H30080   4.734   2.280   1.841  2.5567 -0.6598  2.1259
  218MOL0     H30081   5.156   1.764   2.029  1.5952  1.7468  0.1668
  218MOL0     H30082   5.488   1.840   2.072 -0.2537  1.4313  2.8050
  218MOL0     H30083   5.318   1.848   2.125  0.1004  0.2993 -0.4723
  218MOL0     H30084   5.420   1.719   2.193  0.5401  0.8558 -0.4576
  219MOL0     O30085   7.881  10.559  11.167  0.1673  0.1177 -0.3813
  219MOL0     C30086   7.935  10.451  11.184 -0.7393 -0.5548  0.3324
  219MOL0     O30087   8.060  10.415  11.148  0.2029 -0.1289 -0.5100
  219MOL0     C30088   8.153  10.515  11.136 -0.1757 -0.1493  0.1549
  219MOL0     C30089   8.154  10.627  11.223 -0.4656 -1.1229 -0.4296
  219MOL0     C30090   8.266  10.720  11.223 -0.0867  0.1468 -0.0606
  219MOL0     C30091   8.361  10.712  11.117  0.0736 -0.3057  0.2628
  219MOL0     O30092   8.461  10.806  11.095  0.0074 -0.5362 -0.8712
  219MOL0     C30093   8.436  10.943  11.059 -0.0792  0.2230  0.0962
  219MOL0     C30094   8.461  11.029  11.179  0.3189  0.7439  0.4972
  219MOL0     C30095   8.609  11.027  11.239 -0.3105  0.3752  0.0167
  219MOL0     C30096   8.709  11.045  11.128 -0.4033 -0.1095  0.1374
  219MOL0     C30097   8.846  11.093  11.174  0.4296  0.4061 -0.8720
  219MOL0     C30098   8.937  11.114  11.045  0.6528  0.1935 -0.1820
  219MOL0     C30099   9.047  11.220  11.060 -0.2836  0.6343 -0.5605
  219MOL0     C30100   9.122  11.247  10.931 -0.5788  0.3203  0.4712
  219MOL0     N30101   9.255  11.181  10.933  0.6261 -0.3611  0.5663
  219MOL0     C30102   9.381  11.236  10.920 -0.6907  0.8452  0.2540
  219MOL0     C30103   9.464  11.136  10.944 -0.4378  0.1122 -0.6166
  219MOL0     C30104   9.615  11.139  10.940  0.5659  0.3097 -0.1683
  219MOL0     C30105   9.685  11.078  11.059  0.0904 -0.0795  0.8477
  219MOL0     C30106   9.648  11.123  11.198 -0.6032 -0.0020 -0.0705
  219MOL0     C30107   9.715  11.031  11.299  0.1050  0.2023 -0.2284
  219MOL0     O30108   9.635  11.053  11.418 -0.5625 -0.8341 -0.6106
  219MOL0     C30109   9.665  10.976  11.534  0.1149  0.9398  0.5736
  219MOL0     C30110   9.596  11.016  11.642 -0.4034 -0.7369 -0.3543
  219MOL0     C30111   9.608  10.944  11.766  0.1020  0.4882 -0.2531
  219MOL0     C30112   9.498  10.970  11.874 -0.0401  0.2976  0.3848
  219MOL0     C30113   9.716  10.842  11.779  0.4181  0.4716  0.6047
  219MOL0     C30114   9.752  10.772  11.900  0.1624  0.0207 -0.0354
  219MOL0     O30115   9.817  10.651  11.881 -0.8924  0.5481  0.1087
  219MOL0     C30116   9.902  10.614  11.983 -0.1980  0.8551 -0.0129
  219MOL0     C30117   9.908  10.470  12.006 -0.4767 -0.3884 -0.3604
  219MOL0     C30118  10.004  10.417  12.088  0.0645 -0.8507  0.5189
  219MOL0     C30119  10.089  10.503  12.161  0.9094  0.2472 -1.0292
  219MOL0     O30120  10.182  10.463  12.249  0.0169 -0.0395 -0.0435
  219MOL0     C30121  10.180  10.331  12.296 -0.1769 -0.4607 -0.2245
  219MOL0     C30122  10.290  10.317  12.401  0.4032  0.5543  0.3245
  219MOL0     C30123  10.339  10.173  12.427  0.6753 -0.7099 -0.0902
  219MOL0     C30124  10.450  10.164  12.533 -0.1599  0.3740  0.4202
  219MOL0     C30125  10.524  10.034  12.524 -0.2007 -0.1202 -0.6845
  219MOL0     C30126  10.619   9.996  12.636  0.3140  0.1067  0.4451
  219MOL0     C30127  10.665   9.847  12.624 -0.2661 -0.3999  0.5295
  219MOL0     C30128  10.796   9.851  12.536  0.6019 -0.1267 -0.5315
  219MOL0    Cl30129  10.928   9.885  12.651  0.0126  0.3057 -0.2605
  219MOL0     C30130  10.095  10.638  12.131  0.5408 -1.0174 -0.2783
  219MOL0     C30131  10.003  10.695  12.043  0.3017 -0.1791  0.7751
  219MOL0     O30132   9.712  10.823  12.010 -0.0190 -0.3179 -0.2434
  219MOL0     C30133   9.774  10.808  11.655 -0.6093 -0.4217 -0.0074
  219MOL0     C30134   9.752  10.866  11.540  0.7708  0.8693  0.5635
  219MOL0     N30135   9.396  11.018  10.956  0.0530 -0.2898 -0.1635
  219MOL0     N30136   9.270  11.045  10.952 -0.0502  0.0813 -0.3901
  219MOL0     C30137   8.347  10.601  11.035  0.1094  0.4343 -0.1302
  219MOL0     C30138   8.246  10.511  11.033  0.0337  0.1662 -0.5153
  219MOL0     C30139   7.853  10.330  11.232 -0.7599 -0.4585 -0.5507
  219MOL0     C30140   7.902  10.208  11.199  0.2229  0.1696 -0.5014
  219MOL0     C30141   7.834  10.086  11.218 -0.4620 -0.0456  0.8768
  219MOL0     C30142   7.711  10.092  11.278  0.1992  0.3925  0.7311
  219MOL0     O30143   7.638   9.971  11.289  0.3095  0.3714  1.0891
  219MOL0     C30144   7.499   9.977  11.338 -0.4606  0.3370 -0.9877
  219MOL0     C30145   7.418   9.849  11.314  0.3261  1.3510 -0.1364
  219MOL0     C30146   7.365   9.844  11.174  0.6304 -0.4019  0.6427
  219MOL0     C30147   7.302   9.710  11.147 -0.6343  1.0839  0.1254
  219MOL0     C30148   7.166   9.691  11.200  0.1376  0.4377 -0.6128
  219MOL0     C30149   7.044   9.676  11.223 -0.2171  0.7818  0.5046
  219MOL0     C30150   7.664  10.221  11.320  0.5184 -0.0412  0.5553
  219MOL0     C30151   7.733  10.340  11.300 -0.4392  0.1498  0.2058
  219MOL0     C30152   7.678  10.476  11.358  0.4240  0.4111  0.8195
  219MOL0     H30153   8.081  10.636  11.303  0.8887 -0.2421  0.7519
  219MOL0     H30154   8.274  10.805  11.290  0.1864 -2.3786  3.3849
  219MOL0     H30155   8.331  10.958  11.033 -0.9245 -1.3893  2.2718
  219MOL0     H30156   8.500  10.965  10.973 -0.6924 -0.8711 -0.6569
  219MOL0     H30157   8.443  11.135  11.157  2.3820  0.8785 -0.8480
  219MOL0     H30158   8.391  10.995  11.256 -0.1946  0.4958 -0.0774
  219MOL0     H30159   8.613  11.103  11.318 -1.3122 -1.2585  1.7065
  219MOL0     H30160   8.610  10.929  11.286  1.6266  0.5594  0.4534
  219MOL0     H30161   8.722  10.950  11.075 -1.0481  1.4578 -3.1064
  219MOL0     H30162   8.674  11.115  11.051  2.1265  0.1754 -0.8695
  219MOL0     H30163   8.892  11.012  11.231 -0.2162  1.7239  1.6535
  219MOL0     H30164   8.834  11.182  11.237 -0.0061 -0.3043  0.0716
  219MOL0     H30165   8.984  11.015  11.034  3.2776  0.9085  3.0959
  219MOL0     H30166   8.871  11.134  10.960  0.0001  0.4859  0.3847
  219MOL0     H30167   9.119  11.197  11.140  1.5458  1.1657 -1.9825
  219MOL0     H30168   8.995  11.307  11.100 -1.1265  0.7927 -1.9494
  219MOL0     H30169   9.068  11.210  10.843  1.2654  0.0959 -0.6210
  219MOL0     H30170   9.130  11.354  10.913 -1.1180 -0.1747 -3.8826
  219MOL0     H30171   9.389  11.336  10.878  0.0637 -0.0726 -1.9303
  219MOL0     H30172   9.643  11.244  10.931  0.2750  0.2375 -2.9106
  219MOL0     H30173   9.648  11.097  10.844 -0.4814  0.9943 -0.8391
  219MOL0     H30174   9.669  10.970  11.052  1.4324 -0.2803  0.4485
  219MOL0     H30175   9.793  11.089  11.047 -0.1102  0.7853 -0.4839
  219MOL0     H30176   9.679  11.227  11.216  0.2146  0.2777 -2.6185
  219MOL0     H30177   9.543  11.094  11.202 -0.2151 -1.4522  0.2961
  219MOL0     H30178   9.717  10.929  11.260  0.8580  0.7901 -1.8769
  219MOL0     H30179   9.815  11.075  11.307 -1.6307  4.7967 -0.7632
  219MOL0     H30180   9.517  11.091  11.635 -0.4817 -0.6621  1.0835
  219MOL0     H30181   9.546  10.999  11.968  1.1519  2.7026 -0.8672
  219MOL0     H30182   9.445  10.877  11.899 -0.0033  0.3767  0.7622
  219MOL0     H30183   9.425  11.046  11.846 -0.3501 -0.7770 -1.9901
  219MOL0     H30184   9.843  10.396  11.960 -0.1783 -1.1967  0.4856
  219MOL0     H30185  10.005  10.310  12.104 -0.4856 -0.7779  1.0703
  219MOL0     H30186  10.079  10.304  12.329 -1.9282  3.2722 -1.8412
  219MOL0     H30187  10.216  10.263  12.218  0.5394  0.8963 -1.1319
  219MOL0     H30188  10.369  10.382  12.361 -0.7732  0.8714 -1.5991
  219MOL0     H30189  10.251  10.356  12.495  0.0908  2.0862 -0.4144
  219MOL0     H30190  10.388  10.145  12.333 -1.2714  1.5780 -1.9071
  219MOL0     H30191  10.258  10.102  12.448  0.9428 -2.1568 -3.3898
  219MOL0     H30192  10.398  10.173  12.629 -0.6591  1.1804  0.0808
  219MOL0     H30193  10.525  10.243  12.545  0.3249  0.0055 -0.1114
  219MOL0     H30194  10.455   9.950  12.511  2.2332 -2.9397  2.6805
  219MOL0     H30195  10.590  10.031  12.437 -0.5860  0.3182 -0.9930
  219MOL0     H30196  10.557  10.007  12.725  1.7569  0.8337  1.4029
  219MOL0     H30197  10.703  10.065  12.629  0.5145 -0.0910  0.8783
  219MOL0     H30198  10.601   9.773  12.574  1.7646 -1.3484 -0.8250
  219MOL0     H30199  10.696   9.808  12.722 -0.6849 -2.1102  0.0210
  219MOL0     H30200  10.791   9.931  12.462 -2.5952  0.3703  0.0893
  219MOL0     H30201  10.828   9.756  12.494  3.7834 -0.1503  1.5913
  219MOL0     H30202  10.166  10.700  12.185 -0.8225 -1.7886  2.6103
  219MOL0     H30203  10.002  10.802  12.023 -0.3512  0.1417  2.3476
  219MOL0     H30204   9.846  10.726  11.650  1.5631  1.3203  0.8632
  219MOL0     H30205   9.794  10.839  11.443 -0.3454 -0.2546  0.3657
  219MOL0     H30206   8.426  10.588  10.962 -0.1539  1.8247 -0.6949
  219MOL0     H30207   8.250  10.428  10.963  0.3818 -0.5773  0.3709
  219MOL0     H30208   7.994  10.192  11.143  0.5186 -1.3112  0.3607
  219MOL0     H30209   7.872   9.993  11.176 -0.2343 -0.4282  1.8897
  219MOL0     H30210   7.498  10.004  11.444  2.2415  2.4532 -1.3911
  219MOL0     H30211   7.448  10.057  11.283 -0.5097  0.0619 -1.3537
  219MOL0     H30212   7.341   9.814  11.383 -0.9364  1.7327 -1.3032
  219MOL0     H30213   7.489   9.766  11.319 -1.0237  0.2266  1.2456
  219MOL0     H30214   7.291   9.922  11.159  1.9484  0.7928  0.1061
  219MOL0     H30215   7.449   9.863  11.107  2.0144 -1.6649  1.9205
  219MOL0     H30216   7.362   9.629  11.190  0.5738  2.6149  1.4928
  219MOL0     H30217   7.305   9.687  11.040  0.3475 -0.2182  0.4138
  219MOL0     H30218   6.944   9.672  11.260 -0.6897 -1.2917 -0.8166
  219MOL0     H30219   7.566  10.218  11.365 -1.2930  0.0669 -3.0424
  219MOL0     H30220   7.753  10.539  11.407  2.9286  0.1217 -2.3822
  219MOL0     H30221   7.639  10.545  11.282 -0.4474  0.7514  1.5393
  219MOL0     H30222   7.597  10.452  11.428  0.5612 -3.5000 -0.1690
  220MOL0     O30223   4.985   6.035   1.203 -0.4315  0.5936  0.1373
  220MOL0     C30224   4.904   5.991   1.120  0.5970  0.4521  0.2232
  220MOL0     O30225   4.914   6.002   0.989  0.0266 -0.3839  0.7251
  220MOL0     C30226   5.017   6.071   0.933 -0.2384  0.7950  0.2041
  220MOL0     C30227   5.148   6.025   0.943  0.2745 -0.2636  0.4353
  220MOL0     C30228   5.258   6.093   0.875  0.3427  0.1841 -0.1384
  220MOL0     C30229   5.231   6.206   0.793  0.3588  0.0684 -0.3144
  220MOL0     O30230   5.317   6.283   0.723 -0.0780 -1.4553  0.1854
  220MOL0     C30231   5.452   6.244   0.722  0.2990  0.1043  0.4666
  220MOL0     C30232   5.546   6.327   0.642 -0.5035 -0.6094  0.9619
  220MOL0     C30233   5.680   6.243   0.627 -0.0507 -0.1603  0.4272
  220MOL0     C30234   5.784   6.339   0.577  0.4713 -0.1912  0.1769
  220MOL0     C30235   5.921   6.264   0.566 -0.2056 -0.4732 -0.4652
  220MOL0     C30236   6.026   6.362   0.518  0.0571 -0.8734  0.9446
  220MOL0     C30237   6.163   6.305   0.488  0.2608  0.6172 -0.2504
  220MOL0     C30238   6.161   6.220   0.367 -0.9148 -0.0578  0.3065
  220MOL0     N30239   6.294   6.167   0.339  0.5263 -0.5476  0.1556
  220MOL0     C30240   6.376   6.220   0.247 -0.0502  0.4318  0.3164
  220MOL0     C30241   6.482   6.130   0.242 -0.0661  0.2982  0.4471
  220MOL0     C30242   6.590   6.159   0.135  0.4835 -0.0806 -0.2234
  220MOL0     C30243   6.703   6.227   0.199 -0.6888  0.1085  0.1990
  220MOL0     C30244   6.808   6.262   0.090  0.4081  0.1071 -0.9485
  220MOL0     C30245   6.892   6.363   0.156 -0.2217 -0.1661 -0.2014
  220MOL0     O30246   7.009   6.374   0.068 -0.2556  0.2599  0.9640
  220MOL0     C30247   7.125   6.439   0.117  0.2479  1.0709  0.0640
  220MOL0     C30248   7.246   6.371   0.111 -0.5062 -0.7986  0.1876
  220MOL0     C30249   7.351   6.411   0.199 -0.3580  0.2745  0.0314
  220MOL0     C30250   7.469   6.311   0.193  0.4231  0.3166 -0.3318
  220MOL0     C30251   7.334   6.524   0.280  0.3566  0.2786  0.1924
  220MOL0     C30252   7.437   6.577   0.364 -0.0677  0.4302  0.3431
  220MOL0     O30253   7.462   6.708   0.336 -0.2548  0.3844 -0.0557
  220MOL0     C30254   7.559   6.780   0.399  0.3194  0.1970 -0.4296
  220MOL0     C30255   7.665   6.721   0.467 -0.5193  0.1657 -0.0954
  220MOL0     C30256   7.766   6.804   0.519  0.0096 -0.5631 -0.0757
  220MOL0     C30257   7.758   6.945   0.505  0.8983  0.0588  0.2536
  220MOL0     O30258   7.858   7.019   0.572 -0.3267  0.2347 -0.1921
  220MOL0     C30259   7.902   7.153   0.524  0.5661  0.1437 -0.2808
  220MOL0     C30260   7.984   7.221   0.630 -0.5859  0.1657 -0.2552
  220MOL0     C30261   8.100   7.141   0.684 -1.1824 -0.3248  1.2357
  220MOL0     C30262   8.208   7.134   0.580  0.0220  0.4453  0.5970
  220MOL0     C30263   8.334   7.050   0.621  0.2871  0.1977  0.2081
  220MOL0     C30264   8.291   6.902   0.659 -0.3268 -0.3747 -0.7507
  220MOL0     C30265   8.427   6.827   0.679 -0.0907  0.6625  0.3527
  220MOL0     C30266   8.496   6.876   0.802  0.2144  0.3287 -1.2139
  220MOL0    Cl30267   8.381   6.887   0.940  0.0592 -0.3860  0.1214
  220MOL0     C30268   7.658   7.001   0.424 -0.0765 -1.0974  0.8743
  220MOL0     C30269   7.557   6.918   0.371 -0.1733 -0.5640 -0.4599
  220MOL0     O30270   7.482   6.507   0.455  0.5360 -0.5968  0.3406
  220MOL0     C30271   7.215   6.598   0.264  0.3666 -0.5042 -0.0136
  220MOL0     C30272   7.108   6.554   0.188 -0.6714 -0.2018  0.5143
  220MOL0     N30273   6.449   6.037   0.337  0.4584  0.1814 -0.8231
  220MOL0     N30274   6.343   6.060   0.398 -0.2833 -0.6483  0.2200
  220MOL0     C30275   5.101   6.253   0.783 -0.6798 -0.2695  0.3454
  220MOL0     C30276   4.994   6.182   0.846  0.0617 -0.1366  0.1670
  220MOL0     C30277   4.787   5.908   1.169 -0.3320 -0.9554  0.0340
  220MOL0     C30278   4.669   5.945   1.101  0.3005  0.3942  0.4782
  220MOL0     C30279   4.553   5.876   1.129 -0.5830 -0.2554 -0.1395
  220MOL0     C30280   4.546   5.779   1.222 -0.4301 -0.0662  0.1511
  220MOL0     O30281   4.440   5.704   1.241  0.3563  0.1369 -1.1521
  220MOL0     C30282   4.333   5.774   1.320  0.0743 -0.2024  0.4947
  220MOL0     C30283   4.213   5.684   1.353  0.1741  0.4112  0.0213
  220MOL0     C30284   4.247   5.576   1.453 -0.3913 -0.2283  0.2729
  220MOL0     C30285   4.142   5.474   1.492 -0.4053  0.9798  0.1366
  220MOL0     C30286   4.007   5.533   1.501  0.5463  0.4557 -0.3959
  220MOL0     C30287   3.910   5.610   1.497 -0.2128  0.7286  0.6573
  220MOL0     C30288   4.666   5.739   1.292 -0.6847  0.1307  1.0527
  220MOL0     C30289   4.789   5.808   1.263  0.1053 -0.0398 -0.5284
  220MOL0     C30290   4.921   5.756   1.331 -0.8243 -0.0948 -0.3890
  220MOL0     H30291   5.160   5.938   1.007  0.3145 -0.0514  0.7210
  220MOL0     H30292   5.359   6.053   0.876  0.6043  0.8235 -0.2694
  220MOL0     H30293   5.467   6.136   0.708 -0.4398  0.2505 -1.7106
  220MOL0     H30294   5.483   6.266   0.825  1.8879  1.3364 -0.2307
  220MOL0     H30295   5.504   6.343   0.542  0.1607 -0.6944  0.6688
  220MOL0     H30296   5.560   6.420   0.697 -1.3318  0.1046 -0.0083
  220MOL0     H30297   5.727   6.206   0.718 -0.9560 -1.3119  0.4553
  220MOL0     H30298   5.672   6.157   0.560  0.2110  1.1003 -1.2851
  220MOL0     H30299   5.758   6.356   0.472 -2.1115 -1.7102  0.4979
  220MOL0     H30300   5.805   6.424   0.642  2.6808 -0.4839 -0.0839
  220MOL0     H30301   5.905   6.173   0.507 -1.8420  1.0242 -2.4936
  220MOL0     H30302   5.953   6.223   0.662  1.4162 -3.6487 -2.1894
  220MOL0     H30303   5.986   6.403   0.425 -0.2851 -1.2898  0.9057
  220MOL0     H30304   6.029   6.450   0.583 -2.3685 -0.9880  1.3334
  220MOL0     H30305   6.196   6.242   0.571 -0.3943 -0.8775 -1.0688
  220MOL0     H30306   6.228   6.392   0.476  1.1229 -0.1824 -1.6608
  220MOL0     H30307   6.086   6.141   0.366 -0.0749 -1.1290 -4.2558
  220MOL0     H30308   6.141   6.279   0.277 -0.1251 -2.3149 -1.4497
  220MOL0     H30309   6.363   6.313   0.193  3.3190  1.1968  0.5706
  220MOL0     H30310   6.541   6.224   0.061 -0.2335  0.5594  0.7780
  220MOL0     H30311   6.622   6.073   0.075  2.7521 -0.4131  1.3392
  220MOL0     H30312   6.668   6.321   0.243  0.3486  0.3350  0.5694
  220MOL0     H30313   6.751   6.161   0.272 -1.3502  0.4505  0.9649
  220MOL0     H30314   6.868   6.178   0.054  0.7779 -0.2972  0.5662
  220MOL0     H30315   6.761   6.305   0.001  0.9828  1.4600 -0.6350
  220MOL0     H30316   6.839   6.459   0.162  2.9296  1.7595 -0.5817
  220MOL0     H30317   6.923   6.325   0.254 -2.3011 -0.6758  0.3121
  220MOL0     H30318   7.253   6.278   0.057  4.0039  0.1485 -1.2679
  220MOL0     H30319   7.549   6.336   0.263  1.8608 -1.0909 -1.4108
  220MOL0     H30320   7.511   6.305   0.092 -0.3538  0.3246 -0.6673
  220MOL0     H30321   7.432   6.213   0.225  2.4447 -0.2292  0.4387
  220MOL0     H30322   7.667   6.614   0.487 -0.7505  0.6123  2.6535
  220MOL0     H30323   7.840   6.751   0.577 -2.4344 -2.8457  1.1564
  220MOL0     H30324   7.962   7.137   0.434 -0.7354 -3.9819 -0.6339
  220MOL0     H30325   7.819   7.220   0.499  0.5154  0.2641  0.2108
  220MOL0     H30326   8.015   7.323   0.604 -0.5765  0.8157  2.0165
  220MOL0     H30327   7.918   7.222   0.717  3.6839  1.0204  3.3502
  220MOL0     H30328   8.074   7.046   0.732 -1.2678 -0.0250  1.7938
  220MOL0     H30329   8.139   7.202   0.766  1.1590 -0.4303  0.2799
  220MOL0     H30330   8.229   7.236   0.550 -2.3795  0.5127 -1.1058
  220MOL0     H30331   8.171   7.091   0.487  1.0160 -0.2121  0.4881
  220MOL0     H30332   8.405   7.046   0.537  0.8619  0.3100  0.6791
  220MOL0     H30333   8.382   7.104   0.703  1.5798 -0.9114  0.2114
  220MOL0     H30334   8.243   6.848   0.576 -1.5491 -1.3392  0.5270
  220MOL0     H30335   8.224   6.902   0.745 -2.0387  1.3444 -2.0129
  220MOL0     H30336   8.492   6.838   0.591 -1.7896  0.3685 -0.9923
  220MOL0     H30337   8.407   6.721   0.692  2.4756  0.1449  0.6522
  220MOL0     H30338   8.566   6.960   0.801  2.9543 -1.4444  3.8041
  220MOL0     H30339   8.583   6.813   0.827 -1.3461 -1.1641  0.8412
  220MOL0     H30340   7.653   7.109   0.416 -1.0607 -1.2493 -1.2764
  220MOL0     H30341   7.472   6.949   0.312  1.2476 -0.6702 -2.6570
  220MOL0     H30342   7.201   6.688   0.324  0.2440  0.7821 -1.8931
  220MOL0     H30343   7.018   6.614   0.192  0.6453  1.8760  0.1658
  220MOL0     H30344   5.085   6.346   0.730  1.2497  0.1140  0.3788
  220MOL0     H30345   4.891   6.217   0.844 -0.1232 -0.6680  0.3224
  220MOL0     H30346   4.650   6.025   1.031 -2.1153 -0.6805 -0.1980
  220MOL0     H30347   4.462   5.905   1.078 -0.1219 -0.0299 -0.8579
  220MOL0     H30348   4.374   5.814   1.413 -0.8995  2.2120 -0.0177
  220MOL0     H30349   4.300   5.854   1.253  0.4798 -0.0715  0.4504
  220MOL0     H30350   4.181   5.635   1.260 -2.0149  2.1545 -0.2367
  220MOL0     H30351   4.130   5.750   1.379  0.7045  1.0987 -0.0201
  220MOL0     H30352   4.332   5.523   1.409 -1.4581  1.3577 -4.1751
  220MOL0     H30353   4.285   5.620   1.546  2.1909 -1.3344 -0.1676
  220MOL0     H30354   4.171   5.432   1.588  0.9126 -0.4408 -0.8307
  220MOL0     H30355   4.135   5.399   1.413 -1.6516  3.2475 -2.0743
  220MOL0     H30356   3.831   5.681   1.510 -0.6950  0.0818  1.3291
  220MOL0     H30357   4.656   5.653   1.357 -2.1576 -0.9082 -0.4611
  220MOL0     H30358   4.913   5.648   1.337  1.0237 -0.2331 -0.0669
  220MOL0     H30359   5.003   5.793   1.269 -0.7952  0.9075  0.2094
  220MOL0     H30360   4.928   5.804   1.429 -3.0784 -0.0870 -0.1668
  221MOL0     O30361   3.254   4.293   1.929 -0.1645 -0.2498  0.5148
  221MOL0     C30362   3.221   4.381   2.013 -0.0544  1.0376  0.3896
  221MOL0     O30363   3.306   4.437   2.110  0.5361  0.0761 -0.1928
  221MOL0     C30364   3.443   4.445   2.085 -0.0327  0.0498  0.5031
  221MOL0     C30365   3.495   4.471   1.965  0.5283  1.1237  0.0673
  221MOL0     C30366   3.628   4.464   1.931  0.2933  0.8254  0.8903
  221MOL0     C30367   3.712   4.432   2.031 -0.8971  0.1361 -0.8893
  221MOL0     O30368   3.840   4.435   2.006  0.2384 -0.1330  0.1216
  221MOL0     C30369   3.906   4.552   2.059 -0.9885 -0.2192  0.2413
  221MOL0     C30370   4.051   4.534   2.030 -0.7281 -0.0335  0.3255
  221MOL0     C30371   4.064   4.520   1.880  0.4726  0.1127  0.3537
  221MOL0     C30372   4.208   4.505   1.823 -0.1233 -0.2169 -0.1260
  221MOL0     C30373   4.209   4.482   1.671 -0.4039  0.0429 -0.3183
  221MOL0     C30374   4.345   4.437   1.618 -0.0640 -0.0307 -0.2231
  221MOL0     C30375   4.450   4.553   1.604 -0.2563 -0.8036  0.1145
  221MOL0     C30376   4.586   4.492   1.585 -0.6133 -0.7311 -0.4428
  221MOL0     N30377   4.686   4.590   1.555 -0.6176 -0.7127 -0.1408
  221MOL0     C30378   4.727   4.678   1.649  0.2591 -0.3634  0.2632
  221MOL0     C30379   4.822   4.744   1.587 -0.6452 -0.9080  0.1128
  221MOL0     C30380   4.898   4.853   1.646  0.0673 -0.4139 -0.7111
  221MOL0     C30381   5.024   4.889   1.576  0.0575 -0.7772 -0.0767
  221MOL0     C30382   5.117   4.982   1.660 -0.6488 -0.3402 -0.6266
  221MOL0     C30383   5.239   5.008   1.580  0.3260  0.7039 -0.1040
  221MOL0     O30384   5.336   5.063   1.657  0.4426 -0.4876 -0.0500
  221MOL0     C30385   5.446   5.111   1.599 -0.3424  0.2441  0.5753
  221MOL0     C30386   5.470   5.084   1.455 -0.2167 -0.1776  0.0148
  221MOL0     C30387   5.579   5.149   1.385 -0.0372  0.2056  0.6642
  221MOL0     C30388   5.583   5.130   1.237 -0.5781  0.0011 -0.5117
  221MOL0     C30389   5.668   5.232   1.465 -0.4480 -0.1603 -0.0294
  221MOL0     C30390   5.793   5.294   1.406 -0.1046  1.3425  0.8633
  221MOL0     O30391   5.828   5.420   1.427 -0.3004  0.0828 -0.3128
  221MOL0     C30392   5.963   5.445   1.419  0.2651  0.8150 -0.6531
  221MOL0     C30393   6.053   5.368   1.493  0.0912  0.1549  0.2495
  221MOL0     C30394   6.190   5.393   1.495  0.0881 -0.7471  0.2652
  221MOL0     C30395   6.239   5.491   1.409  0.1870 -0.4779  0.2141
  221MOL0     O30396   6.371   5.516   1.394 -1.2662 -0.0075  0.3301
  221MOL0     C30397   6.447   5.542   1.516  0.0120  0.3126 -0.2282
  221MOL0     C30398   6.554   5.644   1.470  0.8173 -0.2576  0.7230
  221MOL0     C30399   6.651   5.695   1.582 -0.1228  0.3048 -0.0354
  221MOL0     C30400   6.746   5.802   1.540  0.7366  0.1104 -0.6049
  221MOL0     C30401   6.819   5.864   1.666  0.2897 -0.0938  0.1251
  221MOL0     C30402   6.916   5.971   1.637  0.3488 -0.2634 -0.2132
  221MOL0     C30403   7.038   5.911   1.559  0.1261  0.2746 -0.7052
  221MOL0     C30404   7.161   6.003   1.562  0.4416  0.0596 -0.7337
  221MOL0    Cl30405   7.289   5.968   1.435  0.2526  0.0154  0.0047
  221MOL0     C30406   6.149   5.556   1.320 -0.1934 -0.6135 -0.7641
  221MOL0     C30407   6.005   5.537   1.328 -0.8714 -0.0505 -0.0547
  221MOL0     O30408   5.851   5.208   1.338 -0.1571 -0.5361 -0.5852
  221MOL0     C30409   5.642   5.254   1.598  0.2269  0.0530 -0.0393
  221MOL0     C30410   5.535   5.197   1.661  0.8796 -0.2110  0.2937
  221MOL0     N30411   4.842   4.693   1.462 -0.4497  0.5670  0.5517
  221MOL0     N30412   4.753   4.602   1.441 -0.3011  0.5274 -0.1017
  221MOL0     C30413   3.671   4.405   2.166 -0.5751  0.5111 -0.2600
  221MOL0     C30414   3.534   4.422   2.193  0.0041  1.2655  0.2443
  221MOL0     C30415   3.073   4.400   2.012  0.6755  0.2711  0.0924
  221MOL0     C30416   2.984   4.290   2.031  0.3115 -0.8910  1.1559
  221MOL0     C30417   2.845   4.305   2.037 -1.0813  0.5231 -0.4086
  221MOL0     C30418   2.789   4.437   2.019  0.1682 -0.0325  0.6593
  221MOL0     O30419   2.654   4.466   2.018  0.0911 -0.1608  0.2349
  221MOL0     C30420   2.557   4.375   2.075 -0.4950  0.4474 -0.4386
  221MOL0     C30421   2.555   4.370   2.233  0.0937  0.2292  0.6205
  221MOL0     C30422   2.519   4.501   2.295 -0.0152  0.1990 -0.1346
  221MOL0     C30423   2.551   4.482   2.449 -0.2534 -1.1502  0.0331
  221MOL0     C30424   2.694   4.497   2.478 -0.2311 -0.5366 -0.4796
  221MOL0     C30425   2.803   4.487   2.528  0.4063 -0.5005  0.7483
  221MOL0     C30426   2.870   4.541   1.986  0.1807 -0.2376 -0.2409
  221MOL0     C30427   3.014   4.530   1.996 -0.2855 -0.0122  0.2688
  221MOL0     C30428   3.110   4.637   1.955 -0.4595 -0.6238  0.0676
  221MOL0     H30429   3.420   4.482   1.887  0.9230  1.9767 -0.1998
  221MOL0     H30430   3.678   4.483   1.836  1.7242 -0.5371  1.3262
  221MOL0     H30431   3.891   4.553   2.168  1.4765 -0.0764  0.6462
  221MOL0     H30432   3.857   4.642   2.021 -0.0592 -0.0722 -0.6412
  221MOL0     H30433   4.118   4.610   2.072 -0.4274 -0.5232  0.7411
  221MOL0     H30434   4.088   4.439   2.070  2.0500 -0.2976 -2.5326
  221MOL0     H30435   4.009   4.431   1.848  1.8372 -1.6453  2.6093
  221MOL0     H30436   4.024   4.606   1.826  2.3013  1.6607  1.3378
  221MOL0     H30437   4.276   4.588   1.844 -2.8080  1.8476  1.0168
  221MOL0     H30438   4.250   4.416   1.872 -2.5032 -0.2676  2.0649
  221MOL0     H30439   4.178   4.572   1.617  1.7966  1.4629  0.6629
  221MOL0     H30440   4.138   4.406   1.636  0.3728 -0.9379  0.1890
  221MOL0     H30441   4.390   4.358   1.678 -0.6364 -0.8692 -0.8769
  221MOL0     H30442   4.319   4.396   1.520 -0.1673  0.4434 -0.3973
  221MOL0     H30443   4.449   4.608   1.698  1.0464 -0.2292 -0.1823
  221MOL0     H30444   4.435   4.621   1.520  2.0499 -2.3761 -1.7229
  221MOL0     H30445   4.619   4.434   1.672  0.2965  0.1164 -0.2075
  221MOL0     H30446   4.580   4.421   1.502  0.7946  0.2113 -1.3868
  221MOL0     H30447   4.677   4.691   1.744 -2.2907  0.3394 -1.0798
  221MOL0     H30448   4.916   4.822   1.749 -2.0566  0.7624  0.0828
  221MOL0     H30449   4.835   4.943   1.648 -1.0536 -0.9227 -4.5378
  221MOL0     H30450   5.078   4.801   1.541  1.0337  0.9084 -3.2417
  221MOL0     H30451   5.001   4.936   1.480 -1.9413 -1.8180 -0.1690
  221MOL0     H30452   5.064   5.075   1.683 -2.8871 -1.7004 -0.0060
  221MOL0     H30453   5.150   4.940   1.755  2.3563 -1.0808 -1.8809
  221MOL0     H30454   5.272   4.906   1.555  0.5895 -0.0543  2.9137
  221MOL0     H30455   5.223   5.051   1.481 -0.3479  0.5377 -0.0777
  221MOL0     H30456   5.407   5.020   1.394 -2.4229  0.5029  1.4449
  221MOL0     H30457   5.537   5.220   1.195  1.2024  2.3869  2.2884
  221MOL0     H30458   5.529   5.038   1.210 -0.3473 -1.5508  3.5002
  221MOL0     H30459   5.685   5.121   1.200 -0.4339 -1.3285  0.1386
  221MOL0     H30460   6.022   5.287   1.558  0.9414  0.1455  0.6563
  221MOL0     H30461   6.257   5.338   1.560  0.4945 -0.1347  0.3723
  221MOL0     H30462   6.386   5.581   1.598  0.0646 -1.8354  0.9052
  221MOL0     H30463   6.503   5.456   1.554 -1.4532 -0.8660 -0.6302
  221MOL0     H30464   6.624   5.599   1.400  1.7536  0.1428  1.3817
  221MOL0     H30465   6.501   5.731   1.430 -0.3000 -1.0691  0.3867
  221MOL0     H30466   6.694   5.607   1.629 -0.6737  0.0658  0.0340
  221MOL0     H30467   6.584   5.729   1.661 -0.0317 -1.2637  0.7477
  221MOL0     H30468   6.687   5.874   1.483  2.1451  1.0877 -0.8597
  221MOL0     H30469   6.817   5.750   1.476  1.0949  0.0761 -0.1872
  221MOL0     H30470   6.736   5.905   1.724  0.8481  0.0841  0.8161
  221MOL0     H30471   6.868   5.780   1.716 -1.0077 -0.4898  0.7895
  221MOL0     H30472   6.942   6.014   1.735  0.4989 -0.1667 -0.2945
  221MOL0     H30473   6.869   6.052   1.580 -0.5283 -1.8541 -1.8442
  221MOL0     H30474   7.005   5.893   1.456  0.0799 -1.2336 -0.4605
  221MOL0     H30475   7.075   5.819   1.606 -0.0740  0.8481  0.6109
  221MOL0     H30476   7.197   6.018   1.664  1.6546  1.1389 -1.2811
  221MOL0     H30477   7.121   6.102   1.538  0.5530  0.2325 -0.2170
  221MOL0     H30478   6.193   5.626   1.249 -2.4435  3.4973  1.4724
  221MOL0     H30479   5.927   5.593   1.276 -1.6939  0.9772  2.1753
  221MOL0     H30480   5.696   5.329   1.653 -2.3480  2.9148 -1.1325
  221MOL0     H30481   5.517   5.230   1.763  1.2115  0.3756  0.1682
  221MOL0     H30482   3.749   4.379   2.237 -0.8863  1.6116  0.5068
  221MOL0     H30483   3.499   4.400   2.293 -0.0352  1.2826  0.2347
  221MOL0     H30484   3.027   4.191   2.040 -2.2445 -2.0274  1.6259
  221MOL0     H30485   2.782   4.219   2.054  1.5858 -1.3985  0.3888
  221MOL0     H30486   2.456   4.404   2.042  0.3597 -0.4595 -4.2969
  221MOL0     H30487   2.571   4.277   2.030 -0.1511  0.5262 -0.5064
  221MOL0     H30488   2.659   4.346   2.255  0.9348  0.6115 -2.3744
  221MOL0     H30489   2.481   4.296   2.262 -1.4718  1.6719  0.4658
  221MOL0     H30490   2.581   4.581   2.254 -3.5799  1.6702 -3.3218
  221MOL0     H30491   2.418   4.539   2.274  1.4097  3.4418 -1.9106
  221MOL0     H30492   2.529   4.383   2.491 -1.3972  0.0078  2.3688
  221MOL0     H30493   2.504   4.557   2.513  3.0935  0.9030  0.2938
  221MOL0     H30494   2.903   4.487   2.567  1.2897 -0.4032 -1.3902
  221MOL0     H30495   2.818   4.635   1.966 -2.2061 -1.0067  1.7923
  221MOL0     H30496   3.158   4.615   1.859  2.0640 -1.9597  1.5370
  221MOL0     H30497   3.062   4.734   1.939 -0.5715 -0.1913  2.5878
  221MOL0     H30498   3.198   4.654   2.018 -2.4822 -0.0054  2.9018
  222MOL0     O30499   1.863   1.588  10.802 -0.1471 -0.2554 -0.1481
  222MOL0     C30500   1.776   1.571  10.887  0.4978  0.5858 -0.0299
  222MOL0     O30501   1.796   1.518  11.015  0.3179 -0.4998 -0.2456
  222MOL0     C30502   1.927   1.495  11.057 -0.4083 -0.2972  0.4692
  222MOL0     C30503   1.994   1.375  11.022  0.6055  0.0041 -0.1545
  222MOL0     C30504   2.123   1.360  11.065  0.1049  0.4457  0.7693
  222MOL0     C30505   2.189   1.466  11.136 -1.0687  0.4055 -0.5846
  222MOL0     O30506   2.316   1.440  11.183  0.6833 -0.7486  0.0237
  222MOL0     C30507   2.404   1.562  11.182  0.4440 -0.5314  0.2655
  222MOL0     C30508   2.546   1.522  11.218 -0.5180  0.1460 -0.6392
  222MOL0     C30509   2.545   1.471  11.367  0.1207  0.2418  0.1461
  222MOL0     C30510   2.686   1.449  11.430 -0.7272  0.4013 -0.7554
  222MOL0     C30511   2.779   1.353  11.362 -0.4478 -0.2614  0.4740
  222MOL0     C30512   2.902   1.325  11.449  0.0163 -0.1583  0.2954
  222MOL0     C30513   2.994   1.229  11.377 -0.1429 -0.2034 -0.3408
  222MOL0     C30514   3.112   1.195  11.465 -0.0733  0.8284  0.2057
  222MOL0     N30515   3.201   1.128  11.374 -0.0779 -0.4300 -0.1866
  222MOL0     C30516   3.185   1.002  11.338 -0.0930  0.2876  0.7873
  222MOL0     C30517   3.295   0.984  11.255  0.0904 -0.4827  0.5660
  222MOL0     C30518   3.346   0.849  11.222 -0.0328  0.3744  0.5979
  222MOL0     C30519   3.462   0.851  11.119  0.0016  0.6484 -0.4941
  222MOL0     C30520   3.522   0.705  11.101 -0.6066  0.4308  0.1739
  222MOL0     C30521   3.672   0.703  11.038  0.6374  0.3022  0.2143
  222MOL0     O30522   3.658   0.754  10.901 -0.1956 -0.0825  0.2802
  222MOL0     C30523   3.758   0.729  10.810 -0.7994  0.5335 -0.0019
  222MOL0     C30524   3.736   0.778  10.678 -0.2069  0.1810 -0.6406
  222MOL0     C30525   3.823   0.763  10.573 -0.5621 -0.2359  0.6892
  222MOL0     C30526   3.782   0.813  10.432 -0.3774  0.8315 -0.2575
  222MOL0     C30527   3.952   0.717  10.607 -0.5780  0.7049  0.4640
  222MOL0     C30528   4.060   0.709  10.505  0.0199 -0.3903 -0.1815
  222MOL0     O30529   4.064   0.805  10.398 -0.2659  0.4159  0.3158
  222MOL0     C30530   4.162   0.816  10.302  0.8979 -0.2319 -0.9305
  222MOL0     C30531   4.148   0.934  10.222 -0.8745 -0.0076 -0.9809
  222MOL0     C30532   4.244   0.958  10.123  0.7484  0.8476 -0.8052
  222MOL0     C30533   4.346   0.859  10.097  0.6219  0.2078 -0.9701
  222MOL0     O30534   4.450   0.877  10.011  0.7491 -0.3429 -0.1223
  222MOL0     C30535   4.482   1.015   9.979 -0.0979 -0.0620 -0.7646
  222MOL0     C30536   4.602   1.022   9.889 -0.5299 -0.6720  0.1121
  222MOL0     C30537   4.578   0.960   9.751  0.4513 -0.0790 -0.4294
  222MOL0     C30538   4.701   0.947   9.669 -0.0117 -0.4572  0.8011
  222MOL0     C30539   4.822   0.856   9.723 -0.3283 -0.1437 -0.4371
  222MOL0     C30540   4.908   0.784   9.625  0.4285  0.5096  0.1743
  222MOL0     C30541   4.981   0.659   9.688 -0.5977  0.6391  0.1776
  222MOL0     C30542   5.058   0.571   9.589  0.2760  0.1518  0.6568
  222MOL0    Cl30543   5.101   0.417   9.670  0.0014 -0.0566  0.3944
  222MOL0     C30544   4.354   0.744  10.176 -0.1342 -0.2480 -0.4270
  222MOL0     C30545   4.261   0.722  10.281  0.8075 -0.8197 -0.1711
  222MOL0     O30546   4.133   0.614  10.523  0.1709 -0.5686 -0.0289
  222MOL0     C30547   3.981   0.676  10.735 -0.9466  0.1276  0.5561
  222MOL0     C30548   3.886   0.676  10.838 -0.2503  0.3970  0.4888
  222MOL0     N30549   3.359   1.105  11.235 -0.1079  0.0454  0.0067
  222MOL0     N30550   3.297   1.195  11.302 -0.2056  0.8591 -0.5349
  222MOL0     C30551   2.122   1.588  11.166  0.0944 -0.2117  0.5685
  222MOL0     C30552   1.991   1.601  11.119  0.0789 -0.1023  0.1481
  222MOL0     C30553   1.632   1.598  10.847  0.1948 -0.8251  0.3625
  222MOL0     C30554   1.529   1.544  10.920  0.3161 -0.4740 -0.3799
  222MOL0     C30555   1.400   1.592  10.903  0.4041  0.3100  0.6674
  222MOL0     C30556   1.369   1.660  10.789 -0.0170  0.2172  0.9309
  222MOL0     O30557   1.235   1.684  10.773  0.1622 -0.4518  0.3640
  222MOL0     C30558   1.192   1.791  10.689 -0.0771  0.0489 -0.7679
  222MOL0     C30559   1.045   1.821  10.700  0.5108  0.0756  0.1041
  222MOL0     C30560   1.002   1.936  10.607  0.3150  0.0201 -0.5909
  222MOL0     C30561   0.984   1.881  10.461  0.5605 -0.3455 -0.2707
  222MOL0     C30562   0.905   1.973  10.388  0.1503 -0.2719 -0.5258
  222MOL0     C30563   0.852   2.059  10.322  0.2894 -0.3619  0.9452
  222MOL0     C30564   1.468   1.704  10.705 -0.2196  0.7877  0.3382
  222MOL0     C30565   1.602   1.688  10.743  0.3596  0.1551  0.2168
  222MOL0     C30566   1.702   1.767  10.663 -0.3446  0.3168 -0.1178
  222MOL0     H30567   1.935   1.299  10.971  1.4942  0.3733 -1.8133
  222MOL0     H30568   2.170   1.267  11.033 -1.0231 -0.0756  0.5446
  222MOL0     H30569   2.382   1.646  11.248  2.0075 -2.1422  3.0442
  222MOL0     H30570   2.408   1.604  11.081 -0.4556 -1.2665 -0.0923
  222MOL0     H30571   2.586   1.455  11.141  2.8698 -0.1580  1.1725
  222MOL0     H30572   2.607   1.613  11.229  0.6785 -0.6017 -0.8965
  222MOL0     H30573   2.482   1.546  11.416 -0.3628 -0.1227  0.0963
  222MOL0     H30574   2.493   1.375  11.364 -1.6663  1.1242  1.0426
  222MOL0     H30575   2.737   1.546  11.430  0.8092 -0.2774 -4.1130
  222MOL0     H30576   2.660   1.422  11.533 -4.1165  0.0258 -1.5849
  222MOL0     H30577   2.808   1.389  11.263  0.6593  0.7403  1.1273
  222MOL0     H30578   2.728   1.258  11.346 -1.1989 -0.3973  3.1835
  222MOL0     H30579   2.957   1.418  11.469 -1.3336  0.7293  0.0120
  222MOL0     H30580   2.861   1.283  11.541 -4.1127  1.3852 -0.6086
  222MOL0     H30581   3.033   1.279  11.288 -2.8731  1.2543 -0.8333
  222MOL0     H30582   2.944   1.134  11.357 -1.8255  0.1616  1.7289
  222MOL0     H30583   3.155   1.282  11.515 -0.0036  0.2961  1.0792
  222MOL0     H30584   3.074   1.129  11.543  0.0461  0.7544  0.2011
  222MOL0     H30585   3.118   0.933  11.388 -0.7685 -0.1647 -0.6963
  222MOL0     H30586   3.277   0.776  11.178  0.2449 -1.1510  2.5358
  222MOL0     H30587   3.384   0.809  11.316 -0.2714  1.3258  1.1035
  222MOL0     H30588   3.439   0.879  11.016  0.4651  1.3434 -0.4125
  222MOL0     H30589   3.539   0.918  11.158 -1.1391  1.5481  0.2923
  222MOL0     H30590   3.540   0.663  11.200  0.4720  1.1391  0.2889
  222MOL0     H30591   3.467   0.640  11.032 -0.0313  1.4682 -1.3360
  222MOL0     H30592   3.741   0.771  11.089 -0.7907 -0.1721  2.9852
  222MOL0     H30593   3.704   0.599  11.038 -1.8615 -0.5320 -0.5127
  222MOL0     H30594   3.646   0.833  10.653 -0.2508  0.4561  0.1046
  222MOL0     H30595   3.806   0.743  10.352 -0.4842  0.9829 -0.4217
  222MOL0     H30596   3.838   0.903  10.404 -1.5648  0.6255 -3.7172
  222MOL0     H30597   3.676   0.837  10.425 -0.5813 -0.4553 -2.3662
  222MOL0     H30598   4.060   0.997  10.231 -0.4159  0.8007 -1.8794
  222MOL0     H30599   4.230   1.050  10.067 -0.5345  1.9402  1.1789
  222MOL0     H30600   4.396   1.067   9.937  0.1555  0.5244 -0.5656
  222MOL0     H30601   4.505   1.059  10.077  0.5148 -2.1089  0.0670
  222MOL0     H30602   4.635   1.124   9.866 -0.0886 -1.0241 -0.8995
  222MOL0     H30603   4.690   0.980   9.940  0.5423  3.4927  2.1285
  222MOL0     H30604   4.502   1.022   9.703 -1.1792 -2.1321 -0.6336
  222MOL0     H30605   4.539   0.861   9.775 -0.1511  0.2540 -0.0166
  222MOL0     H30606   4.731   1.048   9.641 -2.9276 -0.0964 -1.4881
  222MOL0     H30607   4.682   0.902   9.571  0.5067 -1.2903  1.0741
  222MOL0     H30608   4.881   0.912   9.796 -0.5123 -1.2217  0.5632
  222MOL0     H30609   4.778   0.782   9.790  0.4570 -1.6730 -1.5467
  222MOL0     H30610   4.974   0.861   9.586 -1.8493  2.3864 -0.2081
  222MOL0     H30611   4.856   0.749   9.535  3.2899 -0.3611 -1.2532
  222MOL0     H30612   4.910   0.590   9.735  0.5641 -1.5572 -1.1090
  222MOL0     H30613   5.057   0.696   9.757 -0.8588 -2.2947  2.1886
  222MOL0     H30614   5.153   0.620   9.565  0.2184  0.3498  0.8392
  222MOL0     H30615   5.000   0.554   9.498 -0.5312 -1.6301  1.4516
  222MOL0     H30616   4.418   0.656  10.163 -2.3129 -2.5178  2.6960
  222MOL0     H30617   4.274   0.633  10.341  1.1572 -0.5289  0.1828
  222MOL0     H30618   4.075   0.638  10.774 -1.2176 -0.1549  0.9459
  222MOL0     H30619   3.915   0.639  10.936 -0.2323 -2.7126 -0.5656
  222MOL0     H30620   2.167   1.667  11.227  1.9339  1.3613 -2.5425
  222MOL0     H30621   1.936   1.688  11.151 -1.0638  0.2078 -2.4142
  222MOL0     H30622   1.543   1.477  11.004 -0.9692  1.4612  1.4968
  222MOL0     H30623   1.312   1.560  10.959 -2.0580  1.9221 -1.9919
  222MOL0     H30624   1.254   1.880  10.704 -0.2309  0.6942 -3.3863
  222MOL0     H30625   1.214   1.761  10.586  1.1547 -2.9002  0.2595
  222MOL0     H30626   1.023   1.854  10.803 -0.0409  4.2740 -1.1725
  222MOL0     H30627   0.984   1.731  10.693 -0.0530  0.6035 -2.6798
  222MOL0     H30628   0.908   1.984  10.637  2.0077  4.3644 -1.4179
  222MOL0     H30629   1.074   2.019  10.611  1.0645 -0.6330 -0.2717
  222MOL0     H30630   0.932   1.785  10.456 -2.0673  1.0048 -0.9795
  222MOL0     H30631   1.085   1.874  10.419  0.3937  2.4979 -1.3705
  222MOL0     H30632   0.808   2.127  10.252 -0.3653 -1.9197 -0.2070
  222MOL0     H30633   1.440   1.757  10.615 -1.4448  0.7583  0.6869
  222MOL0     H30634   1.658   1.859  10.624 -0.2729  0.0674 -0.7857
  222MOL0     H30635   1.792   1.798  10.718 -0.9657  3.1812 -0.5751
  222MOL0     H30636   1.729   1.707  10.576 -1.8115 -1.8549  0.8347
  223MOL0     O30637   3.270   0.589   0.960 -0.2031  0.5420 -0.5636
  223MOL0     C30638   3.204   0.594   1.066 -0.5055 -0.5552 -0.5439
  223MOL0     O30639   3.260   0.581   1.190 -0.5919 -0.2130 -0.0970
  223MOL0     C30640   3.394   0.553   1.190  0.2247 -0.2319 -0.5353
  223MOL0     C30641   3.479   0.658   1.235  0.0505  0.0691  0.0898
  223MOL0     C30642   3.617   0.638   1.255  0.7585 -0.2714 -0.5176
  223MOL0     C30643   3.669   0.505   1.236 -0.1591 -0.5949 -0.2116
  223MOL0     O30644   3.799   0.496   1.279 -0.4860 -0.2537  0.2464
  223MOL0     C30645   3.858   0.361   1.278  0.4016 -0.0167 -0.3420
  223MOL0     C30646   4.012   0.375   1.265 -0.9855 -0.0714 -0.1262
  223MOL0     C30647   4.043   0.420   1.123 -0.2298 -1.0160  0.2081
  223MOL0     C30648   4.193   0.412   1.089  0.3168  0.5915 -0.0540
  223MOL0     C30649   4.285   0.505   1.168 -0.4691 -0.0756 -0.1106
  223MOL0     C30650   4.260   0.653   1.131  0.8062 -0.1705 -0.2574
  223MOL0     C30651   4.345   0.759   1.216  0.1656  1.0655 -0.1509
  223MOL0     C30652   4.497   0.753   1.182  0.0539 -0.3628 -0.1015
  223MOL0     N30653   4.566   0.867   1.245 -0.4624  0.5240  0.3283
  223MOL0     C30654   4.549   0.999   1.208 -0.5995  0.2508  0.6355
  223MOL0     C30655   4.639   1.068   1.282  0.1760 -0.4592 -0.5389
  223MOL0     C30656   4.669   1.220   1.272 -0.0644  0.0294  0.0081
  223MOL0     C30657   4.801   1.231   1.185  0.4716 -0.0502 -0.4622
  223MOL0     C30658   4.934   1.213   1.263  0.5693 -0.0194  0.8950
  223MOL0     C30659   5.056   1.273   1.198  0.5513 -0.3101  0.5391
  223MOL0     O30660   5.042   1.299   1.058  0.0497 -0.3275  0.5034
  223MOL0     C30661   5.141   1.374   1.003 -0.0358  0.1944  0.3863
  223MOL0     C30662   5.119   1.412   0.867 -0.1600  0.1053 -0.2859
  223MOL0     C30663   5.209   1.496   0.794  0.1025  1.4789 -0.1470
  223MOL0     C30664   5.160   1.567   0.666 -0.9270  0.1317  0.5396
  223MOL0     C30665   5.338   1.513   0.843  0.3518  0.4928  0.2880
  223MOL0     C30666   5.447   1.578   0.769 -0.2619  0.1361  1.1190
  223MOL0     O30667   5.442   1.581   0.629 -0.0037 -0.7011 -0.1398
  223MOL0     C30668   5.545   1.631   0.558  0.2988  0.0847  0.3883
  223MOL0     C30669   5.666   1.561   0.558 -0.1178 -0.1653 -0.0639
  223MOL0     C30670   5.768   1.597   0.462 -0.0885  0.5722 -0.5107
  223MOL0     C30671   5.739   1.706   0.371  0.0841 -0.4793 -0.2424
  223MOL0     O30672   5.829   1.732   0.273 -0.0671 -0.1497 -0.5171
  223MOL0     C30673   5.804   1.827   0.167 -0.7759  0.2475 -0.3507
  223MOL0     C30674   5.925   1.852   0.068  0.0486  0.4190 -0.4212
  223MOL0     C30675   5.934   1.737  -0.038  0.4765 -0.1612 -0.3309
  223MOL0     C30676   5.990   1.617   0.025  0.2774 -0.4520 -0.3430
  223MOL0     C30677   6.011   1.512  -0.087 -0.6614 -0.2027 -0.4507
  223MOL0     C30678   6.101   1.401  -0.031 -0.3748 -0.5382 -0.5854
  223MOL0     C30679   6.139   1.296  -0.138  0.9692  0.4297 -0.0004
  223MOL0     C30680   6.240   1.189  -0.098 -0.1746 -0.6046  0.1273
  223MOL0    Cl30681   6.271   1.098  -0.246 -0.7930 -0.0826 -0.0384
  223MOL0     C30682   5.627   1.780   0.386  0.2428 -0.8425  0.0046
  223MOL0     C30683   5.532   1.743   0.482  0.8993 -0.0673 -0.5157
  223MOL0     O30684   5.539   1.628   0.838 -0.4811  0.1890 -0.3178
  223MOL0     C30685   5.363   1.466   0.978  0.1777  0.3980 -0.8391
  223MOL0     C30686   5.274   1.394   1.057 -0.6226  0.6732 -0.2702
  223MOL0     N30687   4.686   0.980   1.383 -0.4145  0.2607  0.3607
  223MOL0     N30688   4.643   0.860   1.354 -1.0340 -0.7670  0.2091
  223MOL0     C30689   3.582   0.407   1.182 -0.3765  0.4524  0.6780
  223MOL0     C30690   3.443   0.428   1.157  0.2113  0.2646  0.1963
  223MOL0     C30691   3.062   0.603   1.060 -0.0895  0.9935  0.1955
  223MOL0     C30692   2.993   0.547   1.175  0.5396  0.8303  0.0709
  223MOL0     C30693   2.855   0.536   1.191 -0.5452 -0.0528  0.1133
  223MOL0     C30694   2.777   0.591   1.086 -0.4840  0.2236 -0.5662
  223MOL0     O30695   2.639   0.590   1.088 -0.5239 -0.2165  0.3102
  223MOL0     C30696   2.565   0.581   1.215  0.7018  0.1714  0.2761
  223MOL0     C30697   2.413   0.591   1.186 -0.8770 -0.5290 -0.3749
  223MOL0     C30698   2.385   0.709   1.084  0.9818 -0.0977 -0.1748
  223MOL0     C30699   2.231   0.710   1.058 -0.7601  0.2491  0.4645
  223MOL0     C30700   2.199   0.829   0.977 -0.1875  0.2491 -0.0783
  223MOL0     C30701   2.160   0.913   0.902  0.0971  0.9119  0.4216
  223MOL0     C30702   2.843   0.647   0.972 -0.3510 -0.1928  0.2195
  223MOL0     C30703   2.985   0.647   0.952  0.2389 -0.7368 -0.5130
  223MOL0     C30704   3.046   0.681   0.820  0.4476 -0.0671 -0.2003
  223MOL0     H30705   3.435   0.751   1.269 -0.7650 -0.7622  1.3869
  223MOL0     H30706   3.684   0.706   1.306 -0.4203 -0.6000  1.5880
  223MOL0     H30707   3.820   0.299   1.196  0.1335  1.1226 -1.1081
  223MOL0     H30708   3.823   0.301   1.362 -0.3939 -0.9531 -1.3207
  223MOL0     H30709   4.056   0.433   1.346  2.2281 -3.7273  1.0505
  223MOL0     H30710   4.059   0.277   1.279 -0.3689  0.1590 -0.5443
  223MOL0     H30711   3.977   0.359   1.061  1.2234 -0.6937 -1.7732
  223MOL0     H30712   4.011   0.524   1.109 -0.1359 -1.1496 -1.0996
  223MOL0     H30713   4.222   0.308   1.108  1.2680  0.4044 -2.2712
  223MOL0     H30714   4.218   0.407   0.983 -1.9907 -0.8735 -0.6144
  223MOL0     H30715   4.389   0.494   1.138 -0.5961 -2.1010  0.0956
  223MOL0     H30716   4.278   0.501   1.277  1.2782  3.0446  0.2235
  223MOL0     H30717   4.275   0.673   1.025  2.4127  0.1545  0.0076
  223MOL0     H30718   4.155   0.677   1.151  0.8583  0.5164 -0.7513
  223MOL0     H30719   4.333   0.740   1.323 -2.9504  1.2944 -0.3511
  223MOL0     H30720   4.299   0.858   1.209  0.8806  1.3117 -2.0788
  223MOL0     H30721   4.530   0.657   1.223  1.3610 -1.3907 -3.2633
  223MOL0     H30722   4.523   0.754   1.076  1.5016 -3.2694  0.1530
  223MOL0     H30723   4.504   1.042   1.120 -1.1185  3.3450  2.2788
  223MOL0     H30724   4.685   1.260   1.373 -0.1278 -0.4968  0.2302
  223MOL0     H30725   4.582   1.271   1.229 -0.6934  0.0157  1.2122
  223MOL0     H30726   4.798   1.152   1.109 -1.8823 -2.6675  2.0884
  223MOL0     H30727   4.800   1.336   1.153  0.5055 -0.5289 -2.1478
  223MOL0     H30728   4.915   1.255   1.362 -1.2326 -2.6228  1.7769
  223MOL0     H30729   4.953   1.105   1.268  0.1487 -0.4159 -3.0072
  223MOL0     H30730   5.087   1.364   1.249  3.1374  0.8500 -2.7182
  223MOL0     H30731   5.133   1.198   1.220  0.9790  0.4680  1.7370
  223MOL0     H30732   5.027   1.391   0.813 -0.3177 -2.9970  0.9320
  223MOL0     H30733   5.213   1.515   0.585 -0.1402 -1.6289  2.1201
  223MOL0     H30734   5.203   1.668   0.668 -1.6580  0.4382  1.0118
  223MOL0     H30735   5.052   1.568   0.651 -0.8307  2.8228 -0.5536
  223MOL0     H30736   5.691   1.482   0.628  1.3250 -0.3054 -0.7034
  223MOL0     H30737   5.866   1.551   0.453  0.5124  2.0980 -2.8411
  223MOL0     H30738   5.720   1.784   0.113  0.9343 -0.3390 -2.6704
  223MOL0     H30739   5.781   1.923   0.215  1.4571  0.8645 -0.3870
  223MOL0     H30740   5.910   1.950   0.023  2.3526  1.7102  1.3734
  223MOL0     H30741   6.014   1.866   0.130 -0.6235 -1.6935  1.1888
  223MOL0     H30742   6.012   1.755  -0.113  2.0370 -0.3635  1.1710
  223MOL0     H30743   5.839   1.714  -0.086 -0.3132  0.2405  0.9792
  223MOL0     H30744   5.914   1.579   0.094 -0.7793  0.9485 -0.6858
  223MOL0     H30745   6.080   1.636   0.084  0.6138  2.8565 -1.7469
  223MOL0     H30746   5.921   1.455  -0.111 -0.7066  0.0021 -0.7679
  223MOL0     H30747   6.056   1.561  -0.173 -0.8909  0.5279 -0.1675
  223MOL0     H30748   6.055   1.361   0.060 -0.1810 -0.1857 -0.3305
  223MOL0     H30749   6.195   1.447   0.000 -0.0486 -1.0536 -0.7907
  223MOL0     H30750   6.174   1.348  -0.228 -3.2971  1.8964 -1.0400
  223MOL0     H30751   6.046   1.242  -0.160  1.3263 -0.0444 -0.3665
  223MOL0     H30752   6.204   1.128  -0.015  2.2245  0.5571  2.1525
  223MOL0     H30753   6.328   1.247  -0.066  0.3821 -0.1883 -1.9851
  223MOL0     H30754   5.609   1.858   0.313  0.9330  0.1922  0.9152
  223MOL0     H30755   5.442   1.800   0.496  2.1756  1.3450  3.0053
  223MOL0     H30756   5.459   1.477   1.025  0.3509  0.0185 -1.1012
  223MOL0     H30757   5.310   1.359   1.153 -1.4349 -0.3123 -0.3103
  223MOL0     H30758   3.615   0.308   1.152  1.3664  1.4834 -1.0208
  223MOL0     H30759   3.370   0.370   1.101  0.1803  2.1749 -1.8767
  223MOL0     H30760   3.059   0.521   1.257  0.3358 -0.7103 -0.2258
  223MOL0     H30761   2.809   0.496   1.281  0.3136  0.5829  0.8473
  223MOL0     H30762   2.585   0.492   1.276 -0.1782  1.2197  2.2148
  223MOL0     H30763   2.587   0.670   1.276 -1.1096  0.4577  0.5914
  223MOL0     H30764   2.363   0.608   1.282 -1.4764 -1.8013 -0.4337
  223MOL0     H30765   2.375   0.491   1.161 -1.6873 -0.3433  0.0785
  223MOL0     H30766   2.401   0.798   1.146 -0.0821 -1.8908  2.9340
  223MOL0     H30767   2.451   0.696   0.998  1.4816  1.4125 -0.0431
  223MOL0     H30768   2.186   0.708   1.158  0.2556  0.9454  0.9594
  223MOL0     H30769   2.205   0.617   1.006  0.6247 -0.5046  1.0658
  223MOL0     H30770   2.120   0.973   0.823  0.2102  1.2827  0.6450
  223MOL0     H30771   2.786   0.698   0.894 -1.7446 -2.5385 -0.3798
  223MOL0     H30772   2.975   0.728   0.751  0.7754  0.8344  0.0574
  223MOL0     H30773   3.116   0.765   0.832 -2.6438  2.4879  1.7710
  223MOL0     H30774   3.097   0.595   0.777  3.8143  1.7256 -0.0818
  224MOL0     O30775   3.242   1.494   8.788 -0.1199  0.6062 -0.0495
  224MOL0     C30776   3.159   1.518   8.703 -0.0201 -0.2572  0.0158
  224MOL0     O30777   3.152   1.632   8.623  0.4840 -0.8039  0.6269
  224MOL0     C30778   3.261   1.720   8.642  0.3030  0.3443 -0.1700
  224MOL0     C30779   3.246   1.835   8.727  0.7270  0.6330  0.2253
  224MOL0     C30780   3.358   1.917   8.762 -0.3507  0.3235  0.8692
  224MOL0     C30781   3.484   1.887   8.713 -0.5182  0.2388  0.0613
  224MOL0     O30782   3.588   1.968   8.758  0.2756  0.1694 -0.3687
  224MOL0     C30783   3.709   1.891   8.809 -1.0194 -0.1525  0.0658
  224MOL0     C30784   3.816   1.984   8.875  1.0202  0.3446  0.4624
  224MOL0     C30785   3.914   2.077   8.795  0.4547 -0.4519  0.3513
  224MOL0     C30786   4.005   1.984   8.704  0.1736  1.4960  0.0764
  224MOL0     C30787   4.101   2.049   8.617 -0.0005 -0.3268 -0.4090
  224MOL0     C30788   4.220   2.091   8.699  0.3190 -0.9188  0.4010
  224MOL0     C30789   4.329   2.161   8.613 -0.7350  0.2989  0.4622
  224MOL0     C30790   4.418   2.070   8.528 -0.6285 -1.1493 -0.1232
  224MOL0     N30791   4.505   2.148   8.438  0.3677  0.0620  0.3246
  224MOL0     C30792   4.560   2.272   8.460 -0.4176  0.0667  0.1922
  224MOL0     C30793   4.605   2.320   8.339 -0.3468  0.8168  0.3250
  224MOL0     C30794   4.660   2.454   8.306  0.2742 -0.4641  0.0048
  224MOL0     C30795   4.807   2.482   8.348 -0.5285 -0.2050 -0.6668
  224MOL0     C30796   4.855   2.623   8.318 -0.5675  0.2848 -0.0272
  224MOL0     C30797   4.984   2.658   8.392  0.3446 -0.6376  0.2240
  224MOL0     O30798   5.030   2.783   8.335 -0.5670  0.6984 -0.0460
  224MOL0     C30799   5.160   2.795   8.306 -0.4936  0.0937 -0.8707
  224MOL0     C30800   5.259   2.743   8.388 -0.7852  0.0830  0.1673
  224MOL0     C30801   5.397   2.754   8.354  0.1879  0.5307 -0.6099
  224MOL0     C30802   5.499   2.704   8.464  0.3374  0.2636 -0.0522
  224MOL0     C30803   5.431   2.828   8.234 -0.3401  0.2172 -0.6420
  224MOL0     C30804   5.575   2.853   8.197 -0.7924 -0.6474 -0.7963
  224MOL0     O30805   5.589   2.973   8.137 -0.2366  0.1738 -0.3179
  224MOL0     C30806   5.701   3.026   8.076  0.1209 -0.2315  0.3178
  224MOL0     C30807   5.685   3.138   7.995 -0.0461 -0.3217  0.2350
  224MOL0     C30808   5.797   3.211   7.941  0.4079 -0.4672 -0.1152
  224MOL0     C30809   5.923   3.175   7.969 -0.3937  0.8374  1.3033
  224MOL0     O30810   6.028   3.258   7.928  0.1207  0.4597 -0.3681
  224MOL0     C30811   6.166   3.228   7.971  0.4644  0.7855  0.2135
  224MOL0     C30812   6.255   3.307   7.877 -0.6357 -0.0333  0.0141
  224MOL0     C30813   6.223   3.452   7.900  0.0639 -0.7530 -0.4881
  224MOL0     C30814   6.356   3.528   7.903 -0.5785 -0.0179  0.7421
  224MOL0     C30815   6.332   3.675   7.881  0.1478 -0.0309  0.4853
  224MOL0     C30816   6.461   3.766   7.912  0.5511 -0.0312  1.0854
  224MOL0     C30817   6.432   3.909   7.888  1.0591 -0.3756  0.0618
  224MOL0     C30818   6.532   3.997   7.964 -0.8055 -0.5840 -0.4713
  224MOL0    Cl30819   6.698   3.930   7.928  0.2883 -0.0115 -0.1442
  224MOL0     C30820   5.941   3.056   8.053  0.5355  0.0127  0.1015
  224MOL0     C30821   5.834   2.987   8.113 -1.3720 -0.1538  1.6450
  224MOL0     O30822   5.667   2.779   8.224  0.1370 -0.2589 -0.6155
  224MOL0     C30823   5.328   2.898   8.163  0.6360 -0.3818 -0.2226
  224MOL0     C30824   5.191   2.873   8.197 -0.0355  0.0097  0.2636
  224MOL0     N30825   4.588   2.217   8.247  0.4507 -0.0909 -0.1663
  224MOL0     N30826   4.522   2.121   8.313 -0.7787  0.1252  0.3272
  224MOL0     C30827   3.498   1.775   8.624  1.0851  0.8351  0.3010
  224MOL0     C30828   3.385   1.699   8.582 -0.5994 -0.1293 -0.7646
  224MOL0     C30829   3.042   1.424   8.687 -0.3612  0.1100  0.1735
  224MOL0     C30830   2.935   1.462   8.591 -1.0606 -0.0729  0.8294
  224MOL0     C30831   2.820   1.378   8.587  0.0849 -1.0181  0.1713
  224MOL0     C30832   2.810   1.261   8.660 -0.4976  1.1715  0.6502
  224MOL0     O30833   2.683   1.214   8.636  0.4927  0.2270  0.7881
  224MOL0     C30834   2.633   1.090   8.695  0.8248  0.3827  0.2136
  224MOL0     C30835   2.711   0.964   8.646  0.9613 -0.1124 -1.1585
  224MOL0     C30836   2.714   0.939   8.499 -0.3858  0.4518  0.5730
  224MOL0     C30837   2.591   0.880   8.439  0.5566 -0.3477  0.4429
  224MOL0     C30838   2.603   0.876   8.293 -0.0209  0.1444  0.5919
  224MOL0     C30839   2.615   0.862   8.175 -0.0919  0.1219 -1.0814
  224MOL0     C30840   2.914   1.216   8.745  0.4701  0.6688  0.2812
  224MOL0     C30841   3.026   1.291   8.758  0.0348 -0.1205  0.1043
  224MOL0     C30842   3.137   1.237   8.854  0.5998  0.4947  0.1974
  224MOL0     H30843   3.152   1.847   8.780  1.2623 -0.5838  1.5072
  224MOL0     H30844   3.339   1.997   8.832  2.8795  0.4836  1.7076
  224MOL0     H30845   3.754   1.829   8.731  3.6533  2.8939 -0.0275
  224MOL0     H30846   3.664   1.838   8.894 -0.7795 -0.8108 -0.2141
  224MOL0     H30847   3.757   2.059   8.928 -0.2960 -1.5511  1.8357
  224MOL0     H30848   3.862   1.944   8.966  1.3066 -0.0298  0.1534
  224MOL0     H30849   3.849   2.150   8.745  0.0559 -0.8012  0.3524
  224MOL0     H30850   3.979   2.133   8.862 -3.9378  2.1911  2.8725
  224MOL0     H30851   4.054   1.907   8.766  2.0634  1.1844 -1.7041
  224MOL0     H30852   3.934   1.934   8.637 -0.0249  2.8489 -0.7588
  224MOL0     H30853   4.045   2.140   8.591 -1.4876 -0.3425  2.4102
  224MOL0     H30854   4.118   1.979   8.535 -3.5377  0.0424 -1.6377
  224MOL0     H30855   4.191   2.155   8.782 -1.6187 -2.0080  0.6251
  224MOL0     H30856   4.258   1.996   8.741 -1.5850 -2.1286 -0.4802
  224MOL0     H30857   4.393   2.224   8.675 -1.8852  3.6790 -1.5388
  224MOL0     H30858   4.274   2.233   8.552 -2.5196 -0.1448  1.5036
  224MOL0     H30859   4.466   2.000   8.597 -0.6807 -1.6773 -0.6202
  224MOL0     H30860   4.354   2.006   8.466 -1.7713 -0.0391 -0.1359
  224MOL0     H30861   4.558   2.327   8.553 -3.1806  1.7695 -0.7639
  224MOL0     H30862   4.606   2.537   8.352 -0.0584  0.1070 -1.3479
  224MOL0     H30863   4.643   2.468   8.199  2.5315  0.1301 -0.3229
  224MOL0     H30864   4.825   2.455   8.453 -2.2232  1.4753  0.1371
  224MOL0     H30865   4.866   2.417   8.283  1.8469 -0.8614  1.9498
  224MOL0     H30866   4.873   2.627   8.210 -0.9655  1.8004 -0.0625
  224MOL0     H30867   4.781   2.695   8.355 -1.3513 -0.4737 -0.1034
  224MOL0     H30868   4.958   2.673   8.497 -0.9900  2.2111 -0.4172
  224MOL0     H30869   5.050   2.571   8.389 -0.9991 -1.7581  1.5591
  224MOL0     H30870   5.227   2.693   8.478 -1.9169  0.2086 -0.1522
  224MOL0     H30871   5.553   2.794   8.495 -1.4025  1.5659 -0.6276
  224MOL0     H30872   5.562   2.624   8.426 -2.9967 -1.9813 -1.3071
  224MOL0     H30873   5.452   2.678   8.559  3.8981 -0.5277  1.6522
  224MOL0     H30874   5.583   3.164   7.966 -0.2795  0.6240  1.8047
  224MOL0     H30875   5.775   3.299   7.881 -0.4673  0.2078  1.1322
  224MOL0     H30876   6.183   3.254   8.075 -1.3282 -3.7761  1.9158
  224MOL0     H30877   6.192   3.122   7.958 -0.8402  0.1247  2.5352
  224MOL0     H30878   6.362   3.289   7.897 -0.8709 -1.1964  0.3309
  224MOL0     H30879   6.241   3.289   7.770 -1.7802  3.1641 -0.4538
  224MOL0     H30880   6.178   3.464   7.999  2.0482  1.1801  0.2567
  224MOL0     H30881   6.154   3.490   7.825 -0.2068  1.3765  0.7580
  224MOL0     H30882   6.430   3.486   7.834  0.5818  1.1850  1.2078
  224MOL0     H30883   6.403   3.522   8.002  0.0254 -0.2890  0.4422
  224MOL0     H30884   6.297   3.691   7.779 -0.7369 -1.2801  0.5724
  224MOL0     H30885   6.251   3.699   7.951 -1.5142 -3.9590  0.1298
  224MOL0     H30886   6.541   3.719   7.853  0.1734 -0.0158  0.5586
  224MOL0     H30887   6.484   3.760   8.019 -2.0555  0.2388  1.7102
  224MOL0     H30888   6.330   3.931   7.921  1.2274  1.3720 -0.4940
  224MOL0     H30889   6.428   3.931   7.781 -1.1894 -2.5993 -0.4120
  224MOL0     H30890   6.502   3.997   8.069 -1.7987 -2.7999 -0.7030
  224MOL0     H30891   6.524   4.100   7.926  1.4551  0.6962  2.1695
  224MOL0     H30892   6.042   3.034   8.086 -0.0098 -3.3137 -0.0910
  224MOL0     H30893   5.858   2.922   8.196 -0.2022  1.8375  2.9537
  224MOL0     H30894   5.354   2.972   8.088 -1.5105  0.4240 -0.2409
  224MOL0     H30895   5.110   2.913   8.137  2.7712 -0.0944 -4.0245
  224MOL0     H30896   3.588   1.763   8.564  1.0749  3.2856 -0.3279
  224MOL0     H30897   3.385   1.618   8.509 -2.0942 -0.1743 -0.7633
  224MOL0     H30898   2.949   1.542   8.519  2.3529 -0.6538  0.7035
  224MOL0     H30899   2.740   1.395   8.516 -0.4682 -1.2473  0.7210
  224MOL0     H30900   2.642   1.111   8.802 -1.8881  0.8807  0.4264
  224MOL0     H30901   2.526   1.074   8.679  1.4353 -1.3793 -2.8502
  224MOL0     H30902   2.691   0.878   8.711  0.0538  2.4902  2.3400
  224MOL0     H30903   2.814   0.992   8.673  1.3795 -0.9698 -1.8320
  224MOL0     H30904   2.734   1.034   8.448  0.0285  0.5736  0.9597
  224MOL0     H30905   2.806   0.888   8.472 -0.9011  0.5565 -1.5511
  224MOL0     H30906   2.499   0.937   8.455 -0.5219 -0.0316 -5.1736
  224MOL0     H30907   2.578   0.777   8.474  1.5394 -0.9079 -0.7827
  224MOL0     H30908   2.621   0.834   8.071 -0.3769 -0.2666 -0.9968
  224MOL0     H30909   2.909   1.119   8.793 -3.3722  0.0778 -1.0234
  224MOL0     H30910   3.117   1.136   8.891 -0.7040  1.7610  3.2717
  224MOL0     H30911   3.230   1.230   8.798  1.3897 -1.2794  1.6290
  224MOL0     H30912   3.153   1.295   8.946  0.1455  1.0383 -0.0637
  225MOL0     O30913   3.682   2.387   0.262 -0.1640 -0.1642 -0.1998
  225MOL0     C30914   3.709   2.401   0.147 -0.1865  0.0116  0.1710
  225MOL0     O30915   3.833   2.415   0.092  0.5623 -0.2028 -0.1677
  225MOL0     C30916   3.941   2.401   0.183 -0.1095 -0.1270  0.0430
  225MOL0     C30917   3.963   2.484   0.292  0.2386 -0.5372 -0.1865
  225MOL0     C30918   4.067   2.468   0.383  0.3144  0.4475  0.1864
  225MOL0     C30919   4.155   2.367   0.369 -0.6930  0.0766 -0.0518
  225MOL0     O30920   4.271   2.347   0.447 -0.1804  0.4209  0.5196
  225MOL0     C30921   4.340   2.464   0.491  0.2125  0.4713 -0.2065
  225MOL0     C30922   4.394   2.555   0.393 -0.1240 -0.2460 -0.4828
  225MOL0     C30923   4.480   2.479   0.280 -0.2774 -0.2358 -0.5284
  225MOL0     C30924   4.571   2.585   0.217  0.2037  0.3067 -0.9625
  225MOL0     C30925   4.645   2.519   0.099 -0.5108 -0.4370  0.6593
  225MOL0     C30926   4.735   2.629   0.044  0.0900  0.4744  0.0832
  225MOL0     C30927   4.813   2.603  -0.084  0.0603  0.2573  0.4505
  225MOL0     C30928   4.723   2.564  -0.203  0.2554 -0.0815  0.7621
  225MOL0     N30929   4.788   2.587  -0.328 -0.2107 -0.1477 -0.0084
  225MOL0     C30930   4.876   2.499  -0.386  0.9501  0.1413 -0.5175
  225MOL0     C30931   4.908   2.556  -0.503 -0.8153  0.6105  0.1813
  225MOL0     C30932   5.007   2.498  -0.600  0.5337 -0.3891 -0.1820
  225MOL0     C30933   4.968   2.549  -0.740  0.3335  0.2340 -0.1421
  225MOL0     C30934   5.048   2.495  -0.863 -0.4289  0.0106 -0.4841
  225MOL0     C30935   5.205   2.521  -0.847 -0.2197 -0.4296  0.4898
  225MOL0     O30936   5.282   2.468  -0.959  0.5499  0.5946 -0.3605
  225MOL0     C30937   5.337   2.538  -1.066  0.5157 -0.0889  0.5985
  225MOL0     C30938   5.438   2.489  -1.151 -0.2990 -0.0447 -1.2300
  225MOL0     C30939   5.493   2.541  -1.270 -0.9745  0.4984 -0.4788
  225MOL0     C30940   5.616   2.483  -1.340 -0.3444 -0.8268  0.6667
  225MOL0     C30941   5.437   2.670  -1.306  1.1757  0.2570  0.1418
  225MOL0     C30942   5.472   2.734  -1.434 -0.4473 -0.3791  0.7331
  225MOL0     O30943   5.606   2.762  -1.454  0.5599 -0.9341  0.2347
  225MOL0     C30944   5.650   2.823  -1.567  0.0123 -0.3112  0.1431
  225MOL0     C30945   5.755   2.764  -1.629  0.3506  0.2339 -0.4442
  225MOL0     C30946   5.831   2.832  -1.719  0.4074 -0.8867 -0.1426
  225MOL0     C30947   5.798   2.966  -1.754 -0.1551  0.1883 -0.7852
  225MOL0     O30948   5.892   3.017  -1.833  0.2527 -0.2552  0.4045
  225MOL0     C30949   5.888   3.159  -1.824  0.1444 -1.1570  1.2002
  225MOL0     C30950   5.983   3.213  -1.931 -0.7765 -0.2650  0.1607
  225MOL0     C30951   6.126   3.145  -1.938  0.2514 -0.3922  0.3865
  225MOL0     C30952   6.224   3.230  -2.017  0.2583 -1.0137 -0.0139
  225MOL0     C30953   6.372   3.184  -2.022  0.2602 -0.1457 -0.4179
  225MOL0     C30954   6.379   3.056  -2.103 -0.3389 -0.3951  1.0049
  225MOL0     C30955   6.522   3.024  -2.156 -0.4469 -0.0147 -0.5873
  225MOL0     C30956   6.531   2.913  -2.268 -0.2730 -0.0777 -0.1164
  225MOL0    Cl30957   6.710   2.883  -2.314 -0.3078 -0.0535  0.1727
  225MOL0     C30958   5.679   3.012  -1.705 -0.8286 -0.0190  0.4949
  225MOL0     C30959   5.603   2.944  -1.616  0.0841 -0.5382 -0.9672
  225MOL0     O30960   5.383   2.761  -1.512 -0.4310 -0.0937 -0.2348
  225MOL0     C30961   5.331   2.724  -1.228  0.8539 -0.8141 -1.0119
  225MOL0     C30962   5.281   2.658  -1.114  0.1269  0.4165 -0.4522
  225MOL0     N30963   4.836   2.668  -0.518 -0.2930  0.3066 -0.1350
  225MOL0     N30964   4.773   2.691  -0.404 -0.5258 -0.0065 -0.7254
  225MOL0     C30965   4.135   2.280   0.258  0.1818  0.0912 -0.0831
  225MOL0     C30966   4.031   2.295   0.158 -0.6143  0.1217  0.3620
  225MOL0     C30967   3.599   2.382   0.050 -0.2839 -0.7656  0.2205
  225MOL0     C30968   3.630   2.330  -0.076  0.3955 -0.1946  0.3349
  225MOL0     C30969   3.540   2.336  -0.183 -0.2708  0.0568  0.6212
  225MOL0     C30970   3.414   2.388  -0.163  0.1956  0.2034 -0.7215
  225MOL0     O30971   3.327   2.398  -0.275 -1.0307 -0.3707 -0.4193
  225MOL0     C30972   3.217   2.315  -0.272 -0.6425  0.5901  0.3403
  225MOL0     C30973   3.089   2.371  -0.212 -0.3543 -0.3272 -0.2834
  225MOL0     C30974   3.036   2.498  -0.280  0.2140 -0.7238 -0.0368
  225MOL0     C30975   3.020   2.497  -0.430 -0.0689 -0.4858  0.3071
  225MOL0     C30976   2.908   2.407  -0.475 -0.7589 -0.6846  0.9409
  225MOL0     C30977   2.809   2.342  -0.494 -0.2909  0.4692  0.1532
  225MOL0     C30978   3.373   2.440  -0.041 -0.5027 -0.0916 -0.2967
  225MOL0     C30979   3.465   2.434   0.063  0.1442 -0.2155  0.2161
  225MOL0     C30980   3.425   2.508   0.189  0.2332  0.3206  0.3261
  225MOL0     H30981   3.894   2.565   0.313  1.7655  0.9378 -0.6723
  225MOL0     H30982   4.084   2.536   0.466  1.0499  1.5196 -0.7957
  225MOL0     H30983   4.435   2.426   0.529  0.9828  3.5985  1.3576
  225MOL0     H30984   4.295   2.514   0.578  2.1874 -0.3876  1.3862
  225MOL0     H30985   4.313   2.606   0.342  1.2939  2.7774  0.0428
  225MOL0     H30986   4.438   2.630   0.460 -3.1167 -0.5019  1.9942
  225MOL0     H30987   4.537   2.394   0.319 -1.3616 -0.3496  0.9085
  225MOL0     H30988   4.413   2.443   0.201 -1.6786  0.1143  0.4549
  225MOL0     H30989   4.520   2.676   0.183 -2.0696 -0.3164  0.5662
  225MOL0     H30990   4.647   2.624   0.286 -0.0267  2.8865 -2.0577
  225MOL0     H30991   4.574   2.495   0.020 -0.1604  2.7668 -0.7934
  225MOL0     H30992   4.695   2.429   0.136 -3.9244 -3.1537 -0.7630
  225MOL0     H30993   4.672   2.715   0.019  0.1441  1.2304  2.3230
  225MOL0     H30994   4.805   2.663   0.121 -1.2196  0.1529  1.4697
  225MOL0     H30995   4.906   2.545  -0.079  0.8047  1.1469 -1.8457
  225MOL0     H30996   4.846   2.700  -0.121  0.4258 -1.0939 -3.1919
  225MOL0     H30997   4.703   2.459  -0.181  3.8984 -0.4346  3.2703
  225MOL0     H30998   4.629   2.619  -0.195 -0.1340 -0.5374 -0.4544
  225MOL0     H30999   4.925   2.410  -0.348  0.1090  0.5508  1.7002
  225MOL0     H31000   5.013   2.389  -0.598 -2.6819 -0.6664 -0.6509
  225MOL0     H31001   5.099   2.548  -0.569 -0.4832  1.3269  0.2297
  225MOL0     H31002   4.861   2.537  -0.762  0.3064  0.2483 -0.0178
  225MOL0     H31003   4.980   2.658  -0.748  0.0313  0.1688 -1.9916
  225MOL0     H31004   5.019   2.392  -0.883  2.3706 -0.6353 -1.7519
  225MOL0     H31005   5.020   2.557  -0.949 -1.7038  0.9281  0.5471
  225MOL0     H31006   5.216   2.629  -0.850  1.0442 -0.5570 -0.6880
  225MOL0     H31007   5.238   2.477  -0.752 -1.2018 -2.6701 -0.1246
  225MOL0     H31008   5.480   2.396  -1.116 -0.2584  1.5038  3.5094
  225MOL0     H31009   5.644   2.395  -1.282  2.4380 -1.1047 -0.9162
  225MOL0     H31010   5.705   2.547  -1.336  1.0553 -2.5764 -0.7202
  225MOL0     H31011   5.598   2.450  -1.443  0.8596 -1.2807  0.5966
  225MOL0     H31012   5.788   2.662  -1.607 -0.2169  0.1812  0.1828
  225MOL0     H31013   5.916   2.787  -1.771  1.3549  3.5684 -3.0249
  225MOL0     H31014   5.795   3.198  -1.864  0.1604 -3.1271 -0.9821
  225MOL0     H31015   5.923   3.208  -1.733  0.0591 -0.9031  1.0965
  225MOL0     H31016   5.939   3.202  -2.031  0.0965  3.0842 -0.7321
  225MOL0     H31017   5.987   3.322  -1.924 -2.6741 -0.1531 -0.0046
  225MOL0     H31018   6.131   3.046  -1.984  2.6994 -0.8769  1.5781
  225MOL0     H31019   6.144   3.124  -1.832 -2.6983 -0.4861  0.9672
  225MOL0     H31020   6.211   3.329  -1.973 -2.2365 -0.6067 -1.4481
  225MOL0     H31021   6.176   3.248  -2.113  0.5670  3.6367  0.4906
  225MOL0     H31022   6.438   3.255  -2.072  1.6111 -3.8856 -4.6279
  225MOL0     H31023   6.422   3.182  -1.925  2.1787  0.1752 -1.3524
  225MOL0     H31024   6.309   3.063  -2.188  0.7915  1.5809  0.1543
  225MOL0     H31025   6.350   2.976  -2.035  0.7449 -1.1188  0.6441
  225MOL0     H31026   6.585   2.989  -2.074 -3.4943 -2.9346  0.7750
  225MOL0     H31027   6.568   3.113  -2.199  0.8320  0.0009  0.7690
  225MOL0     H31028   6.466   2.941  -2.351  0.3245 -0.9987 -0.9247
  225MOL0     H31029   6.485   2.825  -2.222 -0.4477 -0.0050 -0.1538
  225MOL0     H31030   5.645   3.115  -1.711 -0.6772  0.0283  0.4266
  225MOL0     H31031   5.514   2.991  -1.575  0.8750  1.7125 -1.6368
  225MOL0     H31032   5.271   2.813  -1.246  0.9571 -0.2436  1.1333
  225MOL0     H31033   5.193   2.692  -1.059  0.6126 -1.8693  1.9906
  225MOL0     H31034   4.211   2.203   0.251 -0.5882 -0.5358 -2.7439
  225MOL0     H31035   4.020   2.226   0.075  0.0692  0.4652 -0.0271
  225MOL0     H31036   3.731   2.292  -0.089  0.6630  0.6127 -0.0685
  225MOL0     H31037   3.559   2.294  -0.281  0.5286  1.6095  0.0689
  225MOL0     H31038   3.209   2.291  -0.378  3.3057  0.3394 -0.0676
  225MOL0     H31039   3.238   2.218  -0.225 -3.8448 -0.3266  0.1197
  225MOL0     H31040   3.105   2.386  -0.105 -1.0265  1.0608 -0.3517
  225MOL0     H31041   3.013   2.294  -0.224 -1.7152  1.1912 -2.0956
  225MOL0     H31042   2.937   2.528  -0.245 -1.0937  0.7986 -4.4124
  225MOL0     H31043   3.106   2.581  -0.264 -1.2911  0.8918 -1.4852
  225MOL0     H31044   3.118   2.477  -0.477 -0.7724 -1.0279 -0.9919
  225MOL0     H31045   3.000   2.601  -0.459 -2.5165 -0.6184  1.3012
  225MOL0     H31046   2.712   2.301  -0.511 -0.1959  1.2435 -2.7930
  225MOL0     H31047   3.276   2.487  -0.026 -0.8166 -0.9104  0.2562
  225MOL0     H31048   3.465   2.457   0.277  1.2704 -0.4550 -0.5658
  225MOL0     H31049   3.457   2.613   0.191 -2.6384  1.3088  2.5235
  225MOL0     H31050   3.316   2.515   0.200  0.2795  1.1228  0.3747
  226MOL0     O31051   5.951   4.484   9.350 -0.1167 -0.2821  0.7461
  226MOL0     C31052   5.884   4.540   9.435 -0.1521 -0.1900 -1.2076
  226MOL0     O31053   5.940   4.619   9.529  0.7296 -0.5079  0.0362
  226MOL0     C31054   6.070   4.666   9.520  0.2298  0.4073 -0.2224
  226MOL0     C31055   6.180   4.647   9.430  0.2899 -0.3938 -0.2645
  226MOL0     C31056   6.299   4.720   9.438  0.7548  0.4095 -0.2043
  226MOL0     C31057   6.313   4.806   9.548 -0.6407  0.3903  0.6227
  226MOL0     O31058   6.421   4.884   9.577  0.2460 -0.5571 -0.0695
  226MOL0     C31059   6.527   4.878   9.477 -0.1226  0.0396  0.2389
  226MOL0     C31060   6.650   4.953   9.537 -0.3875  0.4017  0.3518
  226MOL0     C31061   6.774   4.927   9.443 -0.8750  0.0287 -0.8623
  226MOL0     C31062   6.914   4.948   9.521 -0.3905  0.4841  0.3896
  226MOL0     C31063   7.027   4.921   9.424  1.2092 -0.6533  0.4556
  226MOL0     C31064   7.160   4.930   9.489 -0.1646  0.5731 -0.5651
  226MOL0     C31065   7.263   4.917   9.376 -0.2309  0.1579 -0.5345
  226MOL0     C31066   7.398   4.896   9.443 -0.7294 -0.2586 -0.1882
  226MOL0     N31067   7.499   4.885   9.338 -0.4753  0.2778 -0.9236
  226MOL0     C31068   7.561   4.984   9.258 -0.3422 -0.1609  0.1399
  226MOL0     C31069   7.650   4.914   9.174  0.2441 -0.0690 -0.2430
  226MOL0     C31070   7.748   4.944   9.065 -0.2716 -0.7429 -0.3448
  226MOL0     C31071   7.849   5.038   9.125 -0.5320  0.4104 -0.6456
  226MOL0     C31072   7.966   5.046   9.034  0.1414  0.0393 -0.6143
  226MOL0     C31073   8.087   5.114   9.099  0.3487 -0.2529  0.7540
  226MOL0     O31074   8.152   5.023   9.188  0.1370 -0.8549 -0.1545
  226MOL0     C31075   8.277   5.056   9.238  0.2032 -0.0783 -0.2644
  226MOL0     C31076   8.328   4.964   9.338  0.5939 -0.2526 -0.3825
  226MOL0     C31077   8.452   4.982   9.401  0.2093 -0.2039 -0.1544
  226MOL0     C31078   8.496   4.876   9.495 -0.5933  0.8209  0.4227
  226MOL0     C31079   8.518   5.102   9.365 -0.8899  0.2909 -0.3521
  226MOL0     C31080   8.633   5.147   9.437  0.4427  0.1472 -0.0978
  226MOL0     O31081   8.731   5.190   9.352 -0.4445  0.2986  0.5571
  226MOL0     C31082   8.839   5.239   9.412  0.7816 -0.2234  0.0482
  226MOL0     C31083   8.889   5.369   9.378 -0.2230 -0.4876  0.3063
  226MOL0     C31084   9.003   5.424   9.433 -0.5961 -0.7160  0.5960
  226MOL0     C31085   9.079   5.345   9.523  0.3680 -0.0928  0.2786
  226MOL0     O31086   9.189   5.395   9.580  0.6519 -0.2447 -0.2104
  226MOL0     C31087   9.288   5.441   9.486  0.2801 -0.2371  0.2268
  226MOL0     C31088   9.423   5.461   9.564  0.2147 -0.0537  0.3930
  226MOL0     C31089   9.498   5.330   9.596 -0.4166 -0.5769  0.1979
  226MOL0     C31090   9.436   5.268   9.714  0.2669 -0.2220 -0.8231
  226MOL0     C31091   9.521   5.162   9.794 -0.1447  0.0587 -0.6899
  226MOL0     C31092   9.621   5.234   9.883 -0.5041 -0.1293 -0.6816
  226MOL0     C31093   9.678   5.137   9.986  0.0244 -0.2684  0.5838
  226MOL0     C31094   9.780   5.194  10.082  0.5618 -0.4874  0.0612
  226MOL0    Cl31095   9.702   5.303  10.189 -0.5958 -0.3740  0.0071
  226MOL0     C31096   9.039   5.215   9.553  1.0971  0.0137  0.6030
  226MOL0     C31097   8.921   5.159   9.493 -0.1222  0.7281 -0.5585
  226MOL0     O31098   8.631   5.145   9.564 -0.5935 -0.2650  0.6716
  226MOL0     C31099   8.472   5.185   9.255  0.0727 -0.3241 -0.2763
  226MOL0     C31100   8.350   5.162   9.192  0.8720 -0.2919 -0.0305
  226MOL0     N31101   7.633   4.775   9.212 -0.0156 -0.7397  0.7153
  226MOL0     N31102   7.546   4.767   9.305  0.2713 -0.5514 -0.1083
  226MOL0     C31103   6.201   4.824   9.634  0.0274 -0.7641  0.5221
  226MOL0     C31104   6.079   4.759   9.617 -0.5748  0.6764 -0.9435
  226MOL0     C31105   5.734   4.534   9.439  0.1583  0.0546 -0.4873
  226MOL0     C31106   5.675   4.619   9.537  0.5483  0.1145 -0.8206
  226MOL0     C31107   5.542   4.612   9.566  1.0080  0.0107 -0.3844
  226MOL0     C31108   5.459   4.527   9.496 -0.6854 -0.7757  0.1436
  226MOL0     O31109   5.322   4.525   9.523 -0.3052  0.4039  0.0545
  226MOL0     C31110   5.259   4.501   9.648 -0.1018 -0.2578 -0.1316
  226MOL0     C31111   5.119   4.442   9.628 -0.8733  0.8554  0.4746
  226MOL0     C31112   5.124   4.303   9.557 -0.2431  0.2697 -0.5655
  226MOL0     C31113   4.982   4.278   9.497  0.5489 -0.0345  0.6278
  226MOL0     C31114   4.985   4.288   9.352  0.0809 -1.2608 -0.0883
  226MOL0     C31115   4.992   4.289   9.232  0.8533 -0.4460  0.0927
  226MOL0     C31116   5.513   4.445   9.394 -0.2090  0.0344  0.3193
  226MOL0     C31117   5.652   4.448   9.367 -0.7557 -0.2442  0.0530
  226MOL0     C31118   5.701   4.367   9.249 -0.2922 -0.0391  0.0095
  226MOL0     H31119   6.167   4.580   9.346 -1.3022 -1.3799  0.7226
  226MOL0     H31120   6.369   4.706   9.356 -2.2805 -0.3146 -2.8822
  226MOL0     H31121   6.489   4.932   9.390  2.1707  0.4633 -0.5955
  226MOL0     H31122   6.554   4.775   9.452 -1.0211 -0.2615  0.4854
  226MOL0     H31123   6.633   5.056   9.569  2.1726  0.6464  1.1069
  226MOL0     H31124   6.675   4.901   9.630 -0.2303 -0.3800 -0.1194
  226MOL0     H31125   6.767   4.827   9.400 -1.8901 -0.5162  0.5068
  226MOL0     H31126   6.771   5.004   9.366  1.7041  0.7187 -0.4018
  226MOL0     H31127   6.917   5.051   9.560 -1.6994  1.0573 -0.9148
  226MOL0     H31128   6.918   4.873   9.600 -1.8017 -1.4538 -1.2798
  226MOL0     H31129   7.019   4.996   9.344 -3.1458 -0.9813  0.3586
  226MOL0     H31130   7.012   4.820   9.384  0.2022 -0.4988  0.4272
  226MOL0     H31131   7.175   5.020   9.549  0.3668 -0.2928  0.6461
  226MOL0     H31132   7.169   4.849   9.563  2.3766  1.6684  0.4508
  226MOL0     H31133   7.270   5.011   9.320  2.3919 -0.1049 -0.7766
  226MOL0     H31134   7.244   4.829   9.313  0.6243 -0.8134  0.5323
  226MOL0     H31135   7.427   4.987   9.497  4.1371 -1.3665 -0.5257
  226MOL0     H31136   7.405   4.805   9.503  3.8156  1.0496  1.6393
  226MOL0     H31137   7.556   5.092   9.247  1.6409 -0.1910 -1.9450
  226MOL0     H31138   7.703   4.999   8.983  0.5979  1.4438  0.5677
  226MOL0     H31139   7.793   4.847   9.041  2.6131  0.4431 -0.1281
  226MOL0     H31140   7.812   5.137   9.155 -0.7251  0.0138  0.4777
  226MOL0     H31141   7.892   4.992   9.214  0.0714 -2.3982 -2.2804
  226MOL0     H31142   7.997   4.946   9.002 -1.1385 -0.0839 -1.5200
  226MOL0     H31143   7.939   5.110   8.950 -1.0391 -1.7799 -1.6914
  226MOL0     H31144   8.158   5.126   9.017  0.1973  0.5891  0.7411
  226MOL0     H31145   8.063   5.212   9.141 -2.5798 -0.5232 -0.1055
  226MOL0     H31146   8.267   4.880   9.369  0.3469  0.8726  2.4694
  226MOL0     H31147   8.459   4.890   9.597 -0.4192 -2.6471  1.0810
  226MOL0     H31148   8.605   4.867   9.491 -0.4428  1.7429  1.5990
  226MOL0     H31149   8.459   4.777   9.471 -0.0131  0.4331  1.0915
  226MOL0     H31150   8.830   5.429   9.310  0.3606 -0.4209 -0.1539
  226MOL0     H31151   9.046   5.522   9.413 -0.8729 -0.5148  0.9589
  226MOL0     H31152   9.307   5.368   9.407 -1.4006 -0.2702 -0.1778
  226MOL0     H31153   9.264   5.541   9.448  1.7547 -0.6874 -2.0150
  226MOL0     H31154   9.489   5.502   9.488 -1.7489  0.1634 -1.2985
  226MOL0     H31155   9.414   5.527   9.651  1.3820 -0.6451  0.9846
  226MOL0     H31156   9.602   5.355   9.615 -0.4425  2.2853 -2.5383
  226MOL0     H31157   9.485   5.267   9.507  0.2379 -1.2836  0.5952
  226MOL0     H31158   9.343   5.218   9.685 -0.8804  0.6460  1.1443
  226MOL0     H31159   9.402   5.342   9.787 -1.3707 -1.9128  0.2343
  226MOL0     H31160   9.454   5.104   9.858  0.4747 -0.5862 -0.6110
  226MOL0     H31161   9.570   5.092   9.725  0.7207  1.2215 -1.2758
  226MOL0     H31162   9.566   5.316   9.931 -2.1413 -0.8376 -1.2809
  226MOL0     H31163   9.701   5.276   9.821  1.1277  2.1135  2.6485
  226MOL0     H31164   9.737   5.056   9.941  1.7808  0.1118  2.0618
  226MOL0     H31165   9.598   5.095  10.047 -0.5688 -0.2356 -0.1522
  226MOL0     H31166   9.852   5.241  10.014  2.3477 -2.4022  0.5301
  226MOL0     H31167   9.831   5.116  10.140  0.4121 -1.1173 -0.6410
  226MOL0     H31168   9.101   5.165   9.627 -0.5776  1.7825  3.3340
  226MOL0     H31169   8.898   5.054   9.510  0.0128  0.3626 -2.4474
  226MOL0     H31170   8.539   5.265   9.225 -1.8860  1.2777 -0.5766
  226MOL0     H31171   8.323   5.231   9.113 -1.9663  1.9400  2.6079
  226MOL0     H31172   6.210   4.894   9.715 -2.2852  0.8512 -0.5011
  226MOL0     H31173   5.997   4.774   9.688 -1.3854 -2.1448 -1.1606
  226MOL0     H31174   5.731   4.688   9.600 -1.1444  0.6444  0.1534
  226MOL0     H31175   5.515   4.683   9.643  2.3142  0.3023 -0.1723
  226MOL0     H31176   5.304   4.435   9.723 -0.8612 -0.5853  0.0423
  226MOL0     H31177   5.266   4.598   9.698 -0.4514  0.3989 -1.3074
  226MOL0     H31178   5.068   4.517   9.568  2.1493  0.7073 -2.6037
  226MOL0     H31179   5.078   4.431   9.728  1.3516  6.8468  2.4219
  226MOL0     H31180   5.190   4.304   9.469 -1.8097  0.6686 -1.7772
  226MOL0     H31181   5.152   4.223   9.626 -2.7487  0.9347  1.3277
  226MOL0     H31182   4.909   4.344   9.545 -0.3343 -0.6548  0.1725
  226MOL0     H31183   4.939   4.180   9.519 -0.1124 -1.3816 -5.1997
  226MOL0     H31184   5.000   4.300   9.126 -0.2033 -0.9055 -0.0448
  226MOL0     H31185   5.447   4.389   9.329  1.1886  0.6462 -1.7360
  226MOL0     H31186   5.712   4.439   9.167 -1.0923 -0.5364 -0.5502
  226MOL0     H31187   5.798   4.318   9.263  0.0834 -0.2851 -2.8632
  226MOL0     H31188   5.623   4.301   9.211 -3.1578  3.7006 -1.2294
  227MOL0     O31189   4.203   7.002   1.990  0.2663  0.3699 -0.2700
  227MOL0     C31190   4.168   6.955   1.886 -1.8029  0.4453  1.0316
  227MOL0     O31191   4.243   6.966   1.773  0.1218 -0.0976  0.1609
  227MOL0     C31192   4.329   7.074   1.753  0.3678  0.8269 -0.1214
  227MOL0     C31193   4.340   7.194   1.823  0.5611 -0.4089  0.2595
  227MOL0     C31194   4.418   7.308   1.785 -0.7063  0.1373  0.7476
  227MOL0     C31195   4.503   7.287   1.673  0.1115  0.0726 -0.1374
  227MOL0     O31196   4.588   7.385   1.622 -0.0817  0.8540 -0.8765
  227MOL0     C31197   4.513   7.500   1.579  0.4649  0.0236  0.7189
  227MOL0     C31198   4.605   7.617   1.575  0.2998  0.5167 -0.3623
  227MOL0     C31199   4.728   7.600   1.481  0.0636  0.3878 -0.2996
  227MOL0     C31200   4.815   7.726   1.479  0.4977  0.5129 -0.0070
  227MOL0     C31201   4.933   7.710   1.396 -0.0137  0.0106 -0.0599
  227MOL0     C31202   5.013   7.854   1.362  0.0599 -0.0339 -0.2156
  227MOL0     C31203   5.073   7.900   1.500 -0.1403 -0.1980  0.8503
  227MOL0     C31204   5.148   8.030   1.489  0.6213 -0.0793  0.5773
  227MOL0     N31205   5.290   8.009   1.460  0.4672 -0.1849  0.1659
  227MOL0     C31206   5.338   8.017   1.331 -0.0783  0.1753  0.4697
  227MOL0     C31207   5.468   7.990   1.353 -0.0733  0.8187  0.8572
  227MOL0     C31208   5.563   7.984   1.236 -0.7286  0.1789  0.6807
  227MOL0     C31209   5.664   7.867   1.253 -0.7051 -1.2248 -0.1063
  227MOL0     C31210   5.770   7.872   1.145 -0.2235 -0.1011  0.7086
  227MOL0     C31211   5.870   7.989   1.170  0.4681  1.0610  0.6682
  227MOL0     O31212   5.976   7.951   1.085 -0.2405  0.6630 -0.0562
  227MOL0     C31213   6.063   8.047   1.051  0.5465  0.5817  0.1284
  227MOL0     C31214   6.169   8.007   0.970  0.1732 -0.3256 -0.1114
  227MOL0     C31215   6.283   8.083   0.946 -0.5912  0.3068 -0.0246
  227MOL0     C31216   6.396   8.020   0.868 -0.0732  0.1725  0.4697
  227MOL0     C31217   6.289   8.222   0.993  0.2837  0.5868 -0.0131
  227MOL0     C31218   6.381   8.331   0.957 -0.1412  0.0758 -0.9431
  227MOL0     O31219   6.347   8.457   0.985 -0.3507 -0.8849 -0.5527
  227MOL0     C31220   6.439   8.553   0.963 -0.0482  0.0436  0.4294
  227MOL0     C31221   6.437   8.618   0.841  0.1054 -0.6796  0.6157
  227MOL0     C31222   6.544   8.710   0.808  0.0596  0.4373 -0.4629
  227MOL0     C31223   6.640   8.730   0.908 -0.4747 -0.9883  0.5717
  227MOL0     O31224   6.735   8.830   0.878 -0.6390  0.3204 -0.7624
  227MOL0     C31225   6.850   8.852   0.961  0.0864 -0.0261 -0.3995
  227MOL0     C31226   6.939   8.963   0.912 -0.5661 -0.6353 -0.4996
  227MOL0     C31227   7.023   8.922   0.799  0.4424 -0.2187  0.1073
  227MOL0     C31228   7.135   9.034   0.790  0.9950 -0.3882 -0.0097
  227MOL0     C31229   7.094   9.169   0.719 -0.2497 -0.0244  0.7923
  227MOL0     C31230   7.030   9.159   0.578 -0.2270 -0.3064  0.3194
  227MOL0     C31231   7.122   9.096   0.480 -0.2938 -0.2256  0.3721
  227MOL0     C31232   7.091   9.116   0.328  0.0540 -0.1569 -0.9893
  227MOL0    Cl31233   6.929   9.043   0.290  0.2760  0.4294 -0.3759
  227MOL0     C31234   6.651   8.649   1.019  0.6323 -0.9702 -0.1610
  227MOL0     C31235   6.550   8.565   1.048  0.6049  0.5480  0.2521
  227MOL0     O31236   6.487   8.297   0.913  0.7372  0.1221 -0.2137
  227MOL0     C31237   6.171   8.262   1.067 -0.0432  1.4774 -0.3467
  227MOL0     C31238   6.074   8.171   1.108  0.0415 -0.0377  0.4188
  227MOL0     N31239   5.498   7.985   1.486  0.0144 -0.0806  0.1861
  227MOL0     N31240   5.385   7.985   1.547 -0.4329 -0.0733 -0.1876
  227MOL0     C31241   4.506   7.167   1.608  0.1048  0.2772  0.3493
  227MOL0     C31242   4.429   7.059   1.655 -0.0758  0.9573  0.0405
  227MOL0     C31243   4.065   6.850   1.895  0.6236  0.1387  0.5198
  227MOL0     C31244   4.086   6.741   1.809 -0.1242 -0.1574 -0.2301
  227MOL0     C31245   3.989   6.641   1.796  0.1844  0.4626 -0.1273
  227MOL0     C31246   3.868   6.646   1.864  0.9020 -0.0760 -1.3042
  227MOL0     O31247   3.778   6.543   1.850  0.7988 -0.0995  0.1430
  227MOL0     C31248   3.649   6.578   1.881  0.5383 -0.1550  0.5285
  227MOL0     C31249   3.554   6.464   1.869 -0.9079  0.2364 -0.1012
  227MOL0     C31250   3.520   6.440   1.722 -0.5301  0.2014 -0.1653
  227MOL0     C31251   3.447   6.302   1.713 -0.4786  0.6884 -0.2748
  227MOL0     C31252   3.418   6.261   1.575  0.1851 -0.2164  0.0436
  227MOL0     C31253   3.380   6.216   1.471  0.2168  0.4360  0.3826
  227MOL0     C31254   3.853   6.759   1.959  0.3597 -0.4571  0.7847
  227MOL0     C31255   3.949   6.864   1.967  0.2942 -0.2429 -0.5592
  227MOL0     C31256   3.922   6.979   2.057 -0.1503 -0.0999  0.5253
  227MOL0     H31257   4.277   7.217   1.908 -2.0141 -0.9402 -1.3953
  227MOL0     H31258   4.417   7.407   1.829 -0.1298  1.6414 -2.4120
  227MOL0     H31259   4.428   7.534   1.639 -0.7572 -0.6256 -0.5851
  227MOL0     H31260   4.468   7.474   1.483  0.4939 -0.6620  0.8864
  227MOL0     H31261   4.546   7.702   1.540  1.9445  1.7939 -0.1931
  227MOL0     H31262   4.632   7.644   1.678 -0.8273  2.2040 -0.4732
  227MOL0     H31263   4.784   7.512   1.513 -2.0954 -0.8777  0.1925
  227MOL0     H31264   4.693   7.577   1.380  0.1114 -1.7765  0.1358
  227MOL0     H31265   4.755   7.807   1.436 -0.9618  1.3805  3.2930
  227MOL0     H31266   4.841   7.761   1.579  0.7886  0.8617 -0.2029
  227MOL0     H31267   4.910   7.657   1.304  4.4820 -0.3342 -1.2472
  227MOL0     H31268   4.995   7.637   1.450 -1.9887 -0.1719  2.1176
  227MOL0     H31269   5.082   7.838   1.279 -1.4571 -1.1904 -1.3115
  227MOL0     H31270   4.938   7.929   1.335 -1.8110 -1.7574 -0.0454
  227MOL0     H31271   5.142   7.821   1.534 -2.5661 -1.5107  3.1240
  227MOL0     H31272   4.996   7.919   1.575 -0.3796 -2.8699  1.3835
  227MOL0     H31273   5.103   8.099   1.417  0.6746 -2.1992 -1.6237
  227MOL0     H31274   5.133   8.066   1.591 -2.0244 -1.1149  0.6200
  227MOL0     H31275   5.284   8.028   1.238 -0.6218 -0.3813  0.7089
  227MOL0     H31276   5.617   8.079   1.234 -2.5594  1.2536 -1.4370
  227MOL0     H31277   5.511   7.978   1.140  2.9763  1.8991 -1.6020
  227MOL0     H31278   5.710   7.886   1.350 -3.2076  1.2959  0.6774
  227MOL0     H31279   5.618   7.768   1.243 -0.8034 -0.9705 -3.6920
  227MOL0     H31280   5.827   7.779   1.137  1.3423  0.9175 -0.7180
  227MOL0     H31281   5.715   7.878   1.050  0.2649 -2.3891  0.2126
  227MOL0     H31282   5.826   8.086   1.147 -2.8764 -0.5079 -0.1106
  227MOL0     H31283   5.903   7.988   1.275 -0.7863  2.2180  1.1048
  227MOL0     H31284   6.166   7.904   0.937 -1.7528 -0.5093  0.5323
  227MOL0     H31285   6.487   7.987   0.918  1.5484 -2.0778 -3.4725
  227MOL0     H31286   6.424   8.089   0.787  0.5189  2.6127  2.6043
  227MOL0     H31287   6.358   7.931   0.816  3.1173 -1.8970  1.4063
  227MOL0     H31288   6.363   8.609   0.763  2.6448  1.0532 -2.2172
  227MOL0     H31289   6.534   8.770   0.718 -1.1379  0.9552 -0.0042
  227MOL0     H31290   6.807   8.876   1.058 -5.8399 -2.6270 -1.9641
  227MOL0     H31291   6.915   8.766   0.979  0.1561  0.6559  3.2249
  227MOL0     H31292   6.877   9.050   0.888  0.2869 -0.6595 -3.0344
  227MOL0     H31293   7.001   8.997   0.996  0.3562  2.9474 -2.4392
  227MOL0     H31294   6.962   8.906   0.710 -0.1450  0.4349  0.3859
  227MOL0     H31295   7.069   8.824   0.820  2.2904 -0.2150 -3.3133
  227MOL0     H31296   7.213   8.984   0.731 -0.1765 -0.1332 -1.8524
  227MOL0     H31297   7.171   9.055   0.891  2.5048 -1.5025 -0.2661
  227MOL0     H31298   7.022   9.217   0.786  1.4305 -1.3992  3.7580
  227MOL0     H31299   7.175   9.241   0.708 -1.6441  1.8555  2.0900
  227MOL0     H31300   7.002   9.259   0.543 -1.0775 -1.1226 -1.5015
  227MOL0     H31301   6.937   9.100   0.570  0.2125 -0.9642 -0.0392
  227MOL0     H31302   7.127   8.988   0.498  1.5262 -0.0016  1.4529
  227MOL0     H31303   7.217   9.144   0.505 -0.4275 -0.4139  1.2770
  227MOL0     H31304   7.175   9.077   0.270  1.3799  2.5505 -1.0548
  227MOL0     H31305   7.091   9.225   0.315  0.2304 -0.2391 -1.7375
  227MOL0     H31306   6.722   8.673   1.099  1.6889  1.7320 -1.7620
  227MOL0     H31307   6.544   8.506   1.139  1.6535  0.4291  0.2544
  227MOL0     H31308   6.174   8.358   1.117  0.5908  0.6458  1.2899
  227MOL0     H31309   6.004   8.199   1.186  1.7665 -1.8585  2.7606
  227MOL0     H31310   4.582   7.150   1.533  0.5268 -0.3219  0.8980
  227MOL0     H31311   4.443   6.958   1.618  1.2797  2.1324 -2.9901
  227MOL0     H31312   4.184   6.731   1.763  1.0170 -1.1610  2.2272
  227MOL0     H31313   4.016   6.566   1.723  0.4918  0.9976 -0.5715
  227MOL0     H31314   3.644   6.609   1.986  1.6299  0.1128  0.5107
  227MOL0     H31315   3.622   6.662   1.817  1.2492  0.1868  0.6791
  227MOL0     H31316   3.472   6.483   1.939  0.3727 -1.3342  1.9169
  227MOL0     H31317   3.597   6.374   1.914 -3.0766 -1.2099 -0.7820
  227MOL0     H31318   3.459   6.527   1.695  1.5930  2.7046  2.4380
  227MOL0     H31319   3.608   6.425   1.659 -1.2049 -1.7499 -0.7186
  227MOL0     H31320   3.353   6.300   1.768 -0.0093 -1.3741  0.5484
  227MOL0     H31321   3.508   6.224   1.761 -0.5427  0.8484  0.0703
  227MOL0     H31322   3.342   6.172   1.381 -0.7623  0.2391  0.8867
  227MOL0     H31323   3.772   6.780   2.028 -0.3698  0.0071 -0.1950
  227MOL0     H31324   3.819   6.979   2.091 -1.0669 -0.8538 -1.9959
  227MOL0     H31325   3.985   6.974   2.146 -1.4366  1.9553  1.6141
  227MOL0     H31326   3.941   7.077   2.012  1.1516 -0.2470  0.7152
  228MOL0     O31327   5.526   4.115   4.805  0.6013  0.6115 -0.7022
  228MOL0     C31328   5.450   4.120   4.905  0.4750 -0.2967 -0.5455
  228MOL0     O31329   5.496   4.146   5.031  0.1276 -0.0147  0.3742
  228MOL0     C31330   5.628   4.106   5.063 -0.1877 -0.4415  0.4092
  228MOL0     C31331   5.698   4.183   5.159  0.3105  0.5148 -0.1790
  228MOL0     C31332   5.832   4.147   5.192  0.2413 -0.8016 -0.6009
  228MOL0     C31333   5.892   4.027   5.137  0.0872 -0.0809 -0.4615
  228MOL0     O31334   6.030   4.001   5.153  0.2629  0.0688 -0.2102
  228MOL0     C31335   6.116   4.106   5.193  1.7523  0.5585  0.0488
  228MOL0     C31336   6.264   4.074   5.158  0.0232 -0.6701 -0.3854
  228MOL0     C31337   6.298   4.115   5.015 -0.0811 -0.0950 -0.6667
  228MOL0     C31338   6.446   4.098   4.962 -0.8723  0.6206  0.2252
  228MOL0     C31339   6.455   4.153   4.818  0.2192 -0.6272  0.0581
  228MOL0     C31340   6.586   4.118   4.752  0.1386 -0.1634  0.5406
  228MOL0     C31341   6.610   3.966   4.737  0.3762  0.7078 -0.0271
  228MOL0     C31342   6.681   3.923   4.617 -0.2611  0.0475 -0.6005
  228MOL0     N31343   6.820   3.959   4.640  0.5828  0.4228 -0.2782
  228MOL0     C31344   6.881   4.048   4.563 -0.4512  0.0788 -0.0818
  228MOL0     C31345   7.009   4.045   4.605 -0.1638  0.0660  0.5162
  228MOL0     C31346   7.134   4.125   4.567 -0.3270  1.2185  1.0309
  228MOL0     C31347   7.272   4.046   4.567 -0.0334 -0.1358  0.5324
  228MOL0     C31348   7.375   4.118   4.480 -0.0277 -0.6496  0.1778
  228MOL0     C31349   7.481   4.017   4.434  0.2871  0.3970  1.2683
  228MOL0     O31350   7.599   4.071   4.372  0.6757 -0.1856 -0.0668
  228MOL0     C31351   7.725   4.073   4.439 -0.2149 -0.6787 -0.4607
  228MOL0     C31352   7.733   4.053   4.577  0.6117  0.7488 -0.6456
  228MOL0     C31353   7.856   4.052   4.644 -0.2324  1.0925 -0.7898
  228MOL0     C31354   7.856   4.039   4.795 -0.2567 -0.7072 -0.0938
  228MOL0     C31355   7.981   4.073   4.572 -0.3726 -0.2565  0.1028
  228MOL0     C31356   8.120   4.083   4.634 -0.7895  0.1156  0.5512
  228MOL0     O31357   8.225   4.129   4.561 -0.0522  0.3884 -0.0324
  228MOL0     C31358   8.351   4.144   4.620 -0.4947  0.0094  0.4876
  228MOL0     C31359   8.372   4.179   4.758  0.7401  0.0581  0.9175
  228MOL0     C31360   8.503   4.202   4.810  0.0361 -0.1787 -0.8891
  228MOL0     C31361   8.620   4.196   4.719  0.9606 -0.4003  0.7740
  228MOL0     O31362   8.743   4.214   4.769 -0.0758  0.4830 -0.4552
  228MOL0     C31363   8.856   4.217   4.679  0.4998 -0.4743  1.4275
  228MOL0     C31364   8.980   4.223   4.761 -0.5288 -0.1062  0.6511
  228MOL0     C31365   9.084   4.265   4.656 -0.0007  0.5761  0.2937
  228MOL0     C31366   9.227   4.216   4.704  0.5272 -0.1215 -0.8347
  228MOL0     C31367   9.344   4.258   4.618 -0.6051 -0.0258 -0.4888
  228MOL0     C31368   9.475   4.198   4.667 -0.3645  0.3282 -0.8323
  228MOL0     C31369   9.608   4.219   4.591  1.0158 -0.6643  0.0251
  228MOL0     C31370   9.623   4.143   4.465  0.0715 -0.3053  0.2809
  228MOL0    Cl31371   9.518   4.205   4.342  0.6945  0.0294  0.3814
  228MOL0     C31372   8.588   4.172   4.583  0.2685  0.3597  0.8514
  228MOL0     C31373   8.461   4.141   4.533  0.6019  0.1255 -0.1307
  228MOL0     O31374   8.133   4.032   4.745  0.2830  0.1318 -0.4886
  228MOL0     C31375   7.972   4.098   4.436  0.5843  0.8838  0.0132
  228MOL0     C31376   7.849   4.101   4.370  0.0965  0.7049 -0.3167
  228MOL0     N31377   7.022   3.955   4.712  0.8181 -0.2131 -0.3805
  228MOL0     N31378   6.904   3.894   4.725 -1.0259  0.0409  0.6460
  228MOL0     C31379   5.821   3.951   5.055  0.7037  0.4291 -0.0535
  228MOL0     C31380   5.694   3.989   5.017  0.5982  0.3231 -0.7229
  228MOL0     C31381   5.308   4.120   4.891  0.6305 -0.1629 -0.0450
  228MOL0     C31382   5.233   4.067   4.996  0.7032  0.4331  0.0686
  228MOL0     C31383   5.094   4.064   4.996 -0.4112 -0.4692  0.1657
  228MOL0     C31384   5.021   4.125   4.893 -0.4605  0.7353 -0.0300
  228MOL0     O31385   4.887   4.143   4.883 -0.0381 -0.0283 -0.2319
  228MOL0     C31386   4.801   4.130   4.995 -0.9071 -0.0056 -0.6644
  228MOL0     C31387   4.809   4.230   5.115 -0.5510 -0.3283  0.7230
  228MOL0     C31388   4.807   4.378   5.067  0.7445 -0.3710 -0.1536
  228MOL0     C31389   4.683   4.463   5.107  0.0551 -0.2120  0.2489
  228MOL0     C31390   4.563   4.429   5.038 -0.5694  0.2812  0.0304
  228MOL0     C31391   4.456   4.406   4.981  0.1984 -0.4424  0.4651
  228MOL0     C31392   5.095   4.182   4.787 -0.5370  0.0938  0.4419
  228MOL0     C31393   5.240   4.173   4.777  0.0417  0.0633  0.0802
  228MOL0     C31394   5.307   4.247   4.654  0.0792  0.5238 -0.1815
  228MOL0     H31395   5.640   4.264   5.202 -1.8145 -1.4234  0.8152
  228MOL0     H31396   5.876   4.212   5.267 -0.8612 -0.8046  0.0721
  228MOL0     H31397   6.093   4.110   5.300 -1.3282 -2.5897 -0.2970
  228MOL0     H31398   6.084   4.201   5.149  2.1705  1.2303  1.1551
  228MOL0     H31399   6.330   4.131   5.224 -1.5089  0.5429  0.1670
  228MOL0     H31400   6.282   3.967   5.174 -1.0302 -0.6172  1.4017
  228MOL0     H31401   6.236   4.046   4.957 -0.2726 -1.5994  1.2302
  228MOL0     H31402   6.265   4.218   5.002 -1.3767 -0.0610  2.1203
  228MOL0     H31403   6.519   4.143   5.030  0.6819 -2.9105  1.1566
  228MOL0     H31404   6.472   3.991   4.959  0.2761  0.8936 -0.0488
  228MOL0     H31405   6.433   4.260   4.818 -1.9822 -1.0283 -0.3067
  228MOL0     H31406   6.366   4.115   4.766  0.3461 -0.5770 -0.1994
  228MOL0     H31407   6.588   4.155   4.649 -1.5127 -1.1475  0.1120
  228MOL0     H31408   6.668   4.156   4.813 -0.4580 -1.0248  1.9258
  228MOL0     H31409   6.518   3.907   4.742  1.4999 -1.0321  1.7411
  228MOL0     H31410   6.666   3.940   4.828 -0.2078  3.0698  1.0935
  228MOL0     H31411   6.676   3.815   4.607  0.4876 -0.3524  2.2823
  228MOL0     H31412   6.635   3.972   4.531 -3.0771  0.0184  0.7530
  228MOL0     H31413   6.849   4.118   4.487  0.8314  0.5618 -0.1977
  228MOL0     H31414   7.148   4.218   4.622  0.8469  1.8698 -0.3086
  228MOL0     H31415   7.116   4.151   4.462 -0.1025  2.2529  1.2450
  228MOL0     H31416   7.314   4.046   4.668 -1.2280  1.3305  1.0851
  228MOL0     H31417   7.250   3.941   4.548  2.0562 -0.8342  1.7113
  228MOL0     H31418   7.318   4.157   4.396  0.8048 -1.2050 -0.6556
  228MOL0     H31419   7.427   4.194   4.540  2.1868 -1.6536 -0.3585
  228MOL0     H31420   7.499   3.953   4.521  2.3759  1.0303  1.3634
  228MOL0     H31421   7.437   3.951   4.359  0.1788  1.0935  0.7126
  228MOL0     H31422   7.641   4.041   4.633  1.6021 -3.3755  0.4680
  228MOL0     H31423   7.912   3.956   4.838  1.0955  1.2326  2.1210
  228MOL0     H31424   7.755   4.041   4.836 -1.1431 -1.7961 -2.0817
  228MOL0     H31425   7.905   4.133   4.823 -1.6455  0.2471 -0.7187
  228MOL0     H31426   8.293   4.171   4.832  0.3184 -0.5551  0.4086
  228MOL0     H31427   8.510   4.196   4.918 -3.7623 -2.1365 -0.5788
  228MOL0     H31428   8.861   4.136   4.607  0.8689  2.3376 -1.9896
  228MOL0     H31429   8.853   4.310   4.621  1.9060 -1.7424 -0.7994
  228MOL0     H31430   8.963   4.294   4.842  0.9965  2.8685 -1.4736
  228MOL0     H31431   8.994   4.124   4.807 -2.2339 -0.4288  0.5491
  228MOL0     H31432   9.088   4.372   4.633  1.5475  0.0408 -2.3681
  228MOL0     H31433   9.065   4.219   4.558  0.2814  0.1323  0.4477
  228MOL0     H31434   9.228   4.109   4.730  1.8771  0.0531 -0.0631
  228MOL0     H31435   9.234   4.253   4.806  1.3373 -0.9098 -0.5909
  228MOL0     H31436   9.308   4.215   4.524 -1.2885  2.6777 -1.5469
  228MOL0     H31437   9.355   4.366   4.607 -1.8535  0.1358 -0.2810
  228MOL0     H31438   9.464   4.089   4.675  0.6042  0.3016  0.5439
  228MOL0     H31439   9.503   4.234   4.766  0.2391  0.3489 -1.0118
  228MOL0     H31440   9.695   4.198   4.654  1.3893  0.2027 -0.1729
  228MOL0     H31441   9.613   4.328   4.578 -2.0730 -0.0789  2.4260
  228MOL0     H31442   9.618   4.034   4.476 -2.6323 -0.0027  3.2553
  228MOL0     H31443   9.725   4.174   4.441  0.5544 -1.7341  0.3531
  228MOL0     H31444   8.665   4.185   4.507  0.2962  1.9876  1.1156
  228MOL0     H31445   8.444   4.116   4.429 -1.1567  0.3444  0.0646
  228MOL0     H31446   8.063   4.109   4.378  2.1523 -2.8119  1.4791
  228MOL0     H31447   7.841   4.111   4.262 -0.9900 -0.7264 -0.4077
  228MOL0     H31448   5.864   3.861   5.013 -0.3205 -0.9649  1.7282
  228MOL0     H31449   5.643   3.934   4.939  2.3259 -1.4436 -0.6671
  228MOL0     H31450   5.289   4.021   5.077  0.8639  1.4873  0.5723
  228MOL0     H31451   5.054   4.016   5.085  1.1543  0.8507  1.6746
  228MOL0     H31452   4.696   4.140   4.965 -0.0825 -0.9768 -4.3029
  228MOL0     H31453   4.812   4.029   5.037 -1.8655 -0.4666 -1.4638
  228MOL0     H31454   4.906   4.206   5.160  1.0226  0.7659 -1.8689
  228MOL0     H31455   4.726   4.203   5.182 -0.3394 -0.7604  0.8133
  228MOL0     H31456   4.899   4.428   5.098 -0.0905  2.2355 -1.5681
  228MOL0     H31457   4.802   4.377   4.958  0.4240  2.8384 -0.2790
  228MOL0     H31458   4.718   4.567   5.098  1.7555 -0.6889  0.8744
  228MOL0     H31459   4.666   4.459   5.215 -3.4062 -0.8581 -0.2285
  228MOL0     H31460   4.367   4.380   4.927  0.8200 -1.0943 -0.2805
  228MOL0     H31461   5.048   4.215   4.696  1.2511 -1.9955 -1.3552
  228MOL0     H31462   5.388   4.313   4.686 -1.0568  1.6962  0.3753
  228MOL0     H31463   5.349   4.171   4.588  0.2094  0.6244 -0.2156
  228MOL0     H31464   5.246   4.315   4.595 -1.1316 -0.5909 -0.2703
  229MOL0     O31465   6.575   0.507  10.622  0.3374 -0.3320  0.7933
  229MOL0     C31466   6.536   0.484  10.509 -0.5055 -0.9678  0.4761
  229MOL0     O31467   6.624   0.446  10.406 -0.0217  0.1550 -0.8135
  229MOL0     C31468   6.747   0.413  10.452 -0.5627 -0.2368  0.2711
  229MOL0     C31469   6.783   0.322  10.552  0.2225  0.3191  0.5955
  229MOL0     C31470   6.919   0.285  10.573 -0.3788  0.6214 -0.1765
  229MOL0     C31471   7.019   0.349  10.509  0.1632  0.5594 -0.2919
  229MOL0     O31472   7.155   0.339  10.532  0.6951  0.4259 -0.6029
  229MOL0     C31473   7.193   0.221  10.607  0.2528  0.6117  0.0025
  229MOL0     C31474   7.341   0.192  10.606 -1.1267  0.1296  0.8455
  229MOL0     C31475   7.423   0.177  10.473  0.0083 -0.7658 -0.2325
  229MOL0     C31476   7.412   0.034  10.428  0.2894  0.8680 -0.2984
  229MOL0     C31477   7.497   0.001  10.312 -0.4167 -0.0022  0.1185
  229MOL0     C31478   7.648  -0.003  10.337  0.0116  0.0359 -0.5898
  229MOL0     C31479   7.716  -0.011  10.198 -0.3620 -0.2799 -0.0791
  229MOL0     C31480   7.869  -0.039  10.213 -0.7864  0.4044 -0.3281
  229MOL0     N31481   7.948   0.086  10.237 -0.3361 -0.8169 -0.3679
  229MOL0     C31482   7.953   0.196  10.158 -0.1518  0.3340 -0.1996
  229MOL0     C31483   8.029   0.287  10.218  0.1671 -0.0127 -0.3261
  229MOL0     C31484   8.069   0.422  10.154  0.3805 -0.3872  0.5229
  229MOL0     C31485   8.182   0.488  10.220  0.2268 -0.7458  0.2202
  229MOL0     C31486   8.211   0.628  10.165  0.5447  0.0259  0.9805
  229MOL0     C31487   8.326   0.704  10.224 -0.9193 -0.2622 -0.1300
  229MOL0     O31488   8.343   0.682  10.373  0.1799  1.0088  0.1610
  229MOL0     C31489   8.459   0.721  10.435 -0.3296 -0.1371  0.3741
  229MOL0     C31490   8.476   0.694  10.569  0.2626  0.2832 -0.2946
  229MOL0     C31491   8.600   0.709  10.633 -0.0030 -0.1161  0.3014
  229MOL0     C31492   8.599   0.682  10.785 -0.7166  0.6143 -0.0506
  229MOL0     C31493   8.703   0.772  10.566 -0.0999 -0.5311  0.4781
  229MOL0     C31494   8.824   0.840  10.624  0.0358 -0.1083  0.4706
  229MOL0     O31495   8.885   0.938  10.542 -0.0184 -0.2941 -0.0966
  229MOL0     C31496   9.015   0.981  10.574 -0.5462  0.0713  0.5028
  229MOL0     C31497   9.078   0.987  10.702  0.3293  0.0375  0.2867
  229MOL0     C31498   9.203   1.042  10.722 -0.6068 -0.8540 -0.0266
  229MOL0     C31499   9.279   1.094  10.609 -0.0946 -0.4775  0.3278
  229MOL0     O31500   9.402   1.138  10.606 -0.2186 -0.3056  0.2341
  229MOL0     C31501   9.474   1.122  10.726 -0.0587 -0.0634  0.6141
  229MOL0     C31502   9.615   1.180  10.704  0.1023 -0.1072 -0.5559
  229MOL0     C31503   9.714   1.143  10.811  0.2636  0.5216 -0.1787
  229MOL0     C31504   9.865   1.160  10.802 -0.9995 -0.3449  0.0975
  229MOL0     C31505   9.874   1.313  10.811 -0.7918 -0.6995 -0.6111
  229MOL0     C31506  10.008   1.379  10.817 -0.3401 -0.2003  0.3421
  229MOL0     C31507  10.099   1.321  10.705  0.1605 -0.2494 -0.3402
  229MOL0     C31508  10.246   1.347  10.741 -0.0558 -0.4941 -0.6550
  229MOL0    Cl31509  10.285   1.523  10.758  0.0645  0.1176 -0.2448
  229MOL0     C31510   9.209   1.109  10.493  0.0404  0.5799  0.9927
  229MOL0     C31511   9.078   1.054  10.480  0.3594 -0.3613  0.1178
  229MOL0     O31512   8.861   0.800  10.731  0.0706  0.1473 -0.1995
  229MOL0     C31513   8.687   0.785  10.424  0.4708 -0.5135 -0.7757
  229MOL0     C31514   8.568   0.773  10.368 -0.2698 -0.1847  0.2661
  229MOL0     N31515   8.076   0.231  10.344  0.9599  0.3160  0.3139
  229MOL0     N31516   8.014   0.115  10.351  0.1186  0.0027  0.0646
  229MOL0     C31517   6.984   0.438  10.409  0.0077  1.1043  0.2764
  229MOL0     C31518   6.849   0.472  10.377 -0.3484  0.2284 -0.3612
  229MOL0     C31519   6.394   0.482  10.472 -1.2100  1.0574 -0.3358
  229MOL0     C31520   6.361   0.449  10.335 -0.4703 -0.5742  0.7040
  229MOL0     C31521   6.230   0.454  10.282  0.1865 -0.3752  0.7683
  229MOL0     C31522   6.122   0.485  10.372 -0.3868  0.3207  0.2792
  229MOL0     O31523   6.001   0.464  10.321  0.3735 -0.1327  0.2119
  229MOL0     C31524   5.903   0.414  10.417  0.0509 -0.6088  0.0103
  229MOL0     C31525   5.762   0.379  10.358 -0.2134  0.9481  0.6527
  229MOL0     C31526   5.779   0.264  10.261  0.3586  0.5196  0.6712
  229MOL0     C31527   5.644   0.216  10.202 -0.0767 -0.4175  0.6776
  229MOL0     C31528   5.662   0.102  10.108 -0.6220  0.1222  0.3121
  229MOL0     C31529   5.667   0.031  10.011 -0.6155 -0.2093  0.0644
  229MOL0     C31530   6.158   0.520  10.503  0.1214 -0.7754  0.8006
  229MOL0     C31531   6.286   0.527  10.555  0.3924 -0.1666  0.1072
  229MOL0     C31532   6.308   0.557  10.701 -0.1724  0.6498  0.1886
  229MOL0     H31533   6.699   0.281  10.606 -0.6685 -1.5742 -1.9826
  229MOL0     H31534   6.926   0.206  10.647 -0.1967  0.8784  0.0842
  229MOL0     H31535   7.140   0.131  10.576 -1.0416  0.9113  1.2673
  229MOL0     H31536   7.161   0.229  10.711 -0.6089 -0.9118 -0.1231
  229MOL0     H31537   7.390   0.270  10.664  3.0178 -2.7528  1.6850
  229MOL0     H31538   7.355   0.102  10.667  0.4202  0.8719  1.6318
  229MOL0     H31539   7.386   0.255  10.406  0.4695 -1.3697 -1.2168
  229MOL0     H31540   7.531   0.192  10.480  0.1988 -1.6194 -1.1568
  229MOL0     H31541   7.411  -0.040  10.508  0.2179  2.6334  1.4000
  229MOL0     H31542   7.308   0.029  10.396  0.6282 -1.2414 -1.3228
  229MOL0     H31543   7.465   0.071  10.234 -1.8715  1.2611  1.7607
  229MOL0     H31544   7.473  -0.097  10.270 -2.1438  1.3167 -2.1971
  229MOL0     H31545   7.691   0.073  10.403  0.8167 -2.1300  1.5378
  229MOL0     H31546   7.665  -0.091  10.400 -0.7576  0.7072  0.6035
  229MOL0     H31547   7.702   0.078  10.135  0.1133 -0.2795 -0.1905
  229MOL0     H31548   7.674  -0.093  10.140  0.4991 -1.8441  1.4286
  229MOL0     H31549   7.885  -0.117  10.289 -0.1459 -0.3636 -1.2309
  229MOL0     H31550   7.912  -0.096  10.130  0.1300  0.6441 -0.0192
  229MOL0     H31551   7.914   0.218  10.059 -0.3880  1.2428  0.0827
  229MOL0     H31552   7.980   0.486  10.163  1.4496  1.2615 -0.0072
  229MOL0     H31553   8.091   0.400  10.049 -0.4422 -0.2040  0.3076
  229MOL0     H31554   8.143   0.511  10.320 -0.7046 -0.1645 -0.2573
  229MOL0     H31555   8.270   0.424  10.221  0.2061 -0.8045  1.8695
  229MOL0     H31556   8.223   0.621  10.057 -0.2788  0.2497  0.8651
  229MOL0     H31557   8.123   0.692  10.173  0.0658 -0.3041 -1.1537
  229MOL0     H31558   8.423   0.667  10.188  0.4825 -1.3619  4.1129
  229MOL0     H31559   8.319   0.811  10.204  0.2979  0.9060  4.4656
  229MOL0     H31560   8.394   0.642  10.618 -1.2039  2.7316  0.0537
  229MOL0     H31561   8.679   0.608  10.800  0.2876  1.5809 -0.4926
  229MOL0     H31562   8.498   0.654  10.814 -0.9561  1.2467 -0.2581
  229MOL0     H31563   8.630   0.766  10.847 -0.0205 -0.1367  0.6498
  229MOL0     H31564   9.020   0.961  10.789 -2.5848 -1.5669 -1.9515
  229MOL0     H31565   9.229   1.054  10.827  2.7111  2.3192 -0.9994
  229MOL0     H31566   9.429   1.164  10.816  0.5540 -1.7449  1.7415
  229MOL0     H31567   9.479   1.014  10.738 -1.4143 -0.2835 -0.5837
  229MOL0     H31568   9.646   1.138  10.608 -0.0586 -1.7249  0.0584
  229MOL0     H31569   9.607   1.288  10.695 -1.3638 -0.0552  0.8937
  229MOL0     H31570   9.696   1.037  10.828 -2.3242  0.5507 -2.2239
  229MOL0     H31571   9.685   1.195  10.904 -0.1125 -1.2012  0.7023
  229MOL0     H31572   9.902   1.130  10.704 -0.3790 -2.7006  0.9884
  229MOL0     H31573   9.916   1.104  10.881  0.6274 -0.9719 -1.3322
  229MOL0     H31574   9.829   1.357  10.722  0.9594 -4.5218 -3.6868
  229MOL0     H31575   9.817   1.343  10.900 -1.7589  2.5356 -2.1664
  229MOL0     H31576  10.043   1.351  10.917 -1.1297 -1.2635  0.3361
  229MOL0     H31577   9.983   1.485  10.807 -0.8577 -0.2525  0.9881
  229MOL0     H31578  10.086   1.377  10.611  3.3904  3.0299  0.9552
  229MOL0     H31579  10.081   1.214  10.687 -2.1737  0.1442 -0.6927
  229MOL0     H31580  10.312   1.309  10.662  2.2547  1.1521  0.3738
  229MOL0     H31581  10.279   1.288  10.827 -1.1706  0.5377  0.5104
  229MOL0     H31582   9.258   1.149  10.405 -1.4529 -1.5232 -0.9077
  229MOL0     H31583   9.025   1.067  10.386 -0.6125  2.0426  0.9334
  229MOL0     H31584   8.764   0.839  10.370  0.1220  1.4040  0.5469
  229MOL0     H31585   8.565   0.805  10.264  1.9427 -0.0861  0.1836
  229MOL0     H31586   7.057   0.488  10.347 -2.5829  0.8065 -3.3272
  229MOL0     H31587   6.829   0.537  10.293  0.6669  1.8863  0.6342
  229MOL0     H31588   6.448   0.434  10.272  0.9054  1.8064  1.8960
  229MOL0     H31589   6.204   0.435  10.179  0.0579  0.8601  0.5655
  229MOL0     H31590   5.946   0.331  10.473  1.7003  2.4237  3.6122
  229MOL0     H31591   5.882   0.492  10.490  2.6482  0.8430 -0.6837
  229MOL0     H31592   5.714   0.468  10.318 -0.5661  1.0995  1.3970
  229MOL0     H31593   5.697   0.340  10.436  2.2046 -1.2345  1.7371
  229MOL0     H31594   5.845   0.298  10.180 -1.7070 -0.3747 -1.5289
  229MOL0     H31595   5.823   0.174  10.303  1.1690  0.9624  0.7810
  229MOL0     H31596   5.583   0.292  10.151 -0.0233  0.8287  2.3919
  229MOL0     H31597   5.582   0.194  10.289 -0.7904  2.2483  0.9285
  229MOL0     H31598   5.690  -0.025   9.923  1.8854  2.2265 -0.9847
  229MOL0     H31599   6.081   0.552  10.572  1.4087  1.8381  1.1657
  229MOL0     H31600   6.392   0.627  10.708  0.6481  0.1741 -2.9736
  229MOL0     H31601   6.220   0.604  10.745  1.4261  3.2005  0.9050
  229MOL0     H31602   6.334   0.462  10.748  2.4109  0.9582 -0.4536
  230MOL0     O31603  10.332   0.438   1.178 -0.2740  0.5145  0.0188
  230MOL0     C31604  10.256   0.386   1.256  1.0679 -0.2135 -0.0683
  230MOL0     O31605  10.245   0.426   1.389  0.9835  0.0442  0.0564
  230MOL0     C31606  10.335   0.518   1.432 -0.9883 -0.3805 -0.0785
  230MOL0     C31607  10.285   0.643   1.453 -0.4724  0.1999  0.4738
  230MOL0     C31608  10.374   0.738   1.515 -0.4657 -0.7870 -1.4295
  230MOL0     C31609  10.507   0.702   1.544  0.7738 -0.8845  0.1308
  230MOL0     O31610  10.591   0.797   1.599 -0.4630 -0.6800  0.5503
  230MOL0     C31611  10.678   0.749   1.708 -0.6083 -0.0345  0.1086
  230MOL0     C31612  10.675   0.845   1.827  0.4076  0.8617  0.6868
  230MOL0     C31613  10.543   0.834   1.910 -0.1707 -1.1638  0.5759
  230MOL0     C31614  10.531   0.941   2.017 -0.0806 -0.2193  0.4642
  230MOL0     C31615  10.544   1.092   1.980 -0.0904 -0.3123  0.5434
  230MOL0     C31616  10.573   1.184   2.098 -0.0766  0.3869  0.7459
  230MOL0     C31617  10.600   1.325   2.065 -0.2198 -0.8499  0.6774
  230MOL0     C31618  10.621   1.424   2.178 -0.2928  1.0119 -0.1973
  230MOL0     N31619  10.751   1.418   2.235  0.0580  0.4675  0.4431
  230MOL0     C31620  10.786   1.383   2.364 -0.0120 -0.5802 -0.9604
  230MOL0     C31621  10.919   1.389   2.361  0.3011 -0.4062 -0.3116
  230MOL0     C31622  11.015   1.341   2.466 -0.9705  0.5783 -0.4994
  230MOL0     C31623  11.092   1.448   2.544  0.0061 -0.5281  0.4760
  230MOL0     C31624  11.204   1.526   2.460  0.3704  0.0631 -0.4098
  230MOL0     C31625  11.309   1.588   2.548 -0.0227  1.2087 -0.6987
  230MOL0     O31626  11.417   1.631   2.468  0.1477  0.3184 -0.1170
  230MOL0     C31627  11.539   1.671   2.533  0.0725 -0.0374  0.4806
  230MOL0     C31628  11.647   1.694   2.453 -0.3818  0.1443  0.0001
  230MOL0     C31629  11.770   1.734   2.502  0.5112  0.5498  0.0701
  230MOL0     C31630  11.877   1.740   2.403  0.2570  0.3899  0.3028
  230MOL0     C31631  11.787   1.734   2.644 -0.4638  0.7941  0.1155
  230MOL0     C31632  11.922   1.740   2.713  0.5628  0.7521  1.3010
  230MOL0     O31633  11.918   1.716   2.846 -0.1984  0.1928 -0.3619
  230MOL0     C31634  12.024   1.728   2.935  0.0116 -0.6048  0.2393
  230MOL0     C31635  12.114   1.839   2.927 -0.1722  0.0501  0.3197
  230MOL0     C31636  12.211   1.869   3.023  0.3232 -0.7912  0.2145
  230MOL0     C31637  12.240   1.775   3.125 -0.5503 -0.2479  1.3421
  230MOL0     O31638  12.356   1.798   3.196  0.4586 -0.4120 -0.1341
  230MOL0     C31639  12.392   1.703   3.291 -0.3806  0.3568 -0.8364
  230MOL0     C31640  12.328   1.721   3.435 -0.3825 -0.5230  0.1283
  230MOL0     C31641  12.426   1.664   3.542 -0.1347 -0.2035  0.2167
  230MOL0     C31642  12.435   1.507   3.541  0.2553  0.5231  0.6187
  230MOL0     C31643  12.520   1.462   3.657 -0.1757 -0.5007 -0.0008
  230MOL0     C31644  12.528   1.311   3.660 -0.0399  0.3950  0.3959
  230MOL0     C31645  12.618   1.270   3.770 -0.3496 -0.0760  0.7556
  230MOL0     C31646  12.740   1.197   3.720 -0.2030 -0.3322 -0.2869
  230MOL0    Cl31647  12.828   1.313   3.609  0.2731  0.2413 -0.0906
  230MOL0     C31648  12.146   1.675   3.140  0.2957  0.6856 -0.2388
  230MOL0     C31649  12.038   1.649   3.050 -0.2858 -0.2824  0.2935
  230MOL0     O31650  12.021   1.764   2.649 -0.5203 -0.3876  0.0742
  230MOL0     C31651  11.672   1.725   2.724 -0.2824  0.0478  1.0169
  230MOL0     C31652  11.547   1.693   2.670 -0.5350  0.7662  0.1118
  230MOL0     N31653  10.961   1.431   2.238 -0.4271  0.1522  0.6889
  230MOL0     N31654  10.861   1.452   2.168  0.1246 -0.2235  0.1850
  230MOL0     C31655  10.557   0.582   1.507 -0.3920  0.0769 -0.1728
  230MOL0     C31656  10.467   0.479   1.467 -0.3760  0.6597 -0.5517
  230MOL0     C31657  10.151   0.281   1.209 -0.2341 -0.3481  0.0073
  230MOL0     C31658  10.061   0.222   1.295 -0.0642 -0.5145 -0.0971
  230MOL0     C31659   9.959   0.140   1.253 -0.0031  0.2601 -0.3319
  230MOL0     C31660   9.943   0.105   1.120 -0.9045  0.6374 -0.1141
  230MOL0     O31661   9.860   0.004   1.080 -0.2732 -0.2118 -0.2384
  230MOL0     C31662   9.881  -0.052   0.948 -0.6710 -0.1630  0.7696
  230MOL0     C31663   9.824  -0.181   0.909  0.1783 -0.1653 -0.0694
  230MOL0     C31664   9.673  -0.182   0.906  0.8745 -0.2107  0.6398
  230MOL0     C31665   9.613  -0.309   0.878 -0.3107  0.3300 -0.7088
  230MOL0     C31666   9.470  -0.298   0.848  0.0383  0.5955 -0.2682
  230MOL0     C31667   9.350  -0.305   0.812 -0.2609 -0.0226  0.7377
  230MOL0     C31668  10.040   0.159   1.034 -0.0231  0.2923  0.2880
  230MOL0     C31669  10.137   0.246   1.072 -0.9254  0.2563 -0.4382
  230MOL0     C31670  10.218   0.310   0.961 -0.0176 -0.2879  0.3330
  230MOL0     H31671  10.181   0.661   1.432 -0.1607  0.9719 -0.4450
  230MOL0     H31672  10.345   0.836   1.550 -0.1763 -1.2490  0.1904
  230MOL0     H31673  10.779   0.732   1.668 -0.2417  0.9109  0.5817
  230MOL0     H31674  10.641   0.654   1.747  0.1166  0.4138  2.0293
  230MOL0     H31675  10.761   0.833   1.895 -0.8697 -3.3180  1.9287
  230MOL0     H31676  10.687   0.948   1.794  1.2819  1.2456  2.1211
  230MOL0     H31677  10.456   0.847   1.844 -0.9479  0.5756  1.8687
  230MOL0     H31678  10.531   0.743   1.970  0.8820 -1.3280  0.5604
  230MOL0     H31679  10.436   0.919   2.068 -1.1232 -0.9983 -1.6688
  230MOL0     H31680  10.605   0.914   2.092 -0.2767 -2.8497 -0.1810
  230MOL0     H31681  10.450   1.130   1.939  1.0533  1.2896 -0.6844
  230MOL0     H31682  10.620   1.113   1.905  0.7016 -3.1490  0.4312
  230MOL0     H31683  10.485   1.183   2.163 -3.3758  2.8347 -3.2632
  230MOL0     H31684  10.660   1.146   2.153  1.0850  2.1378  0.2040
  230MOL0     H31685  10.509   1.358   2.015 -0.6587 -0.8361  1.4722
  230MOL0     H31686  10.683   1.325   1.994 -0.8138  1.2784 -0.0943
  230MOL0     H31687  10.603   1.524   2.136 -2.3567  1.1032  0.7819
  230MOL0     H31688  10.542   1.406   2.252  1.7246 -0.9786  1.6041
  230MOL0     H31689  10.730   1.356   2.453  2.6535  1.7436  1.6300
  230MOL0     H31690  11.093   1.287   2.411 -2.0578  1.5893 -3.1565
  230MOL0     H31691  10.975   1.259   2.526 -0.7993  0.4016 -0.6244
  230MOL0     H31692  11.021   1.521   2.584  1.5047 -0.5321  3.3906
  230MOL0     H31693  11.141   1.395   2.626 -0.6662 -0.1724  1.1257
  230MOL0     H31694  11.242   1.451   2.390 -2.9913 -0.3493 -2.0027
  230MOL0     H31695  11.154   1.609   2.409  0.3164  1.2477  1.5089
  230MOL0     H31696  11.266   1.672   2.603  2.3074  1.4620  0.8694
  230MOL0     H31697  11.352   1.506   2.607 -0.2193  0.8703 -1.0236
  230MOL0     H31698  11.643   1.688   2.344  3.5055  0.0002 -0.2827
  230MOL0     H31699  11.938   1.650   2.386  0.9891  0.8810  0.3016
  230MOL0     H31700  11.945   1.822   2.427  1.7243 -0.3955 -0.9905
  230MOL0     H31701  11.837   1.765   2.305  0.6177  3.8667  0.9085
  230MOL0     H31702  12.114   1.912   2.846  1.6417  1.7791  1.7823
  230MOL0     H31703  12.271   1.955   2.994 -0.7966  0.0736  0.4092
  230MOL0     H31704  12.371   1.603   3.252  0.1877  0.6766 -1.9803
  230MOL0     H31705  12.501   1.708   3.295 -0.3751 -0.3071  0.2538
  230MOL0     H31706  12.310   1.829   3.441  2.1238 -0.1067  1.5350
  230MOL0     H31707  12.230   1.672   3.433  0.1439 -1.6976 -2.9913
  230MOL0     H31708  12.385   1.692   3.639 -0.4509 -1.9127  0.6158
  230MOL0     H31709  12.526   1.708   3.532 -0.5181  0.5880 -0.1415
  230MOL0     H31710  12.471   1.468   3.446 -2.6263  2.8678 -1.6131
  230MOL0     H31711  12.338   1.457   3.547  0.5905 -0.4883 -1.5474
  230MOL0     H31712  12.619   1.509   3.657 -1.0302  1.3731 -0.3310
  230MOL0     H31713  12.461   1.490   3.744 -1.5080 -3.4023  0.1590
  230MOL0     H31714  12.568   1.283   3.563 -2.3365  2.8189 -1.3806
  230MOL0     H31715  12.428   1.267   3.669  0.0708 -0.1727 -0.9469
  230MOL0     H31716  12.564   1.190   3.823 -0.3508 -0.5551  0.0485
  230MOL0     H31717  12.644   1.356   3.832  2.1543 -0.7918  0.8225
  230MOL0     H31718  12.710   1.104   3.671 -1.6094  0.4752 -1.0225
  230MOL0     H31719  12.805   1.181   3.806 -0.5864  0.6735  0.2127
  230MOL0     H31720  12.150   1.608   3.225  2.2557  1.1418  0.0796
  230MOL0     H31721  11.978   1.561   3.069 -0.6342 -0.6451 -2.1954
  230MOL0     H31722  11.684   1.744   2.830 -1.0786  1.4669  0.8727
  230MOL0     H31723  11.460   1.682   2.735 -0.9259 -1.6193 -0.7118
  230MOL0     H31724  10.662   0.558   1.522 -0.7201 -0.6822  1.0945
  230MOL0     H31725  10.499   0.377   1.446  0.0495  0.7463 -0.3407
  230MOL0     H31726  10.071   0.238   1.402  3.1167 -0.3804 -0.3194
  230MOL0     H31727   9.898   0.088   1.326  4.1722 -1.4274  2.3811
  230MOL0     H31728   9.846   0.023   0.878 -0.3003 -0.2166  0.5233
  230MOL0     H31729   9.989  -0.070   0.939  0.5008  5.6830 -0.5092
  230MOL0     H31730   9.867  -0.253   0.979 -0.0263 -0.3847 -0.1684
  230MOL0     H31731   9.859  -0.203   0.808 -1.3299 -0.4623 -0.5500
  230MOL0     H31732   9.635  -0.149   1.003 -1.1197  0.4698 -0.3157
  230MOL0     H31733   9.641  -0.119   0.822 -2.3602 -1.6855  0.6396
  230MOL0     H31734   9.642  -0.387   0.950  2.9941  0.5743 -1.6075
  230MOL0     H31735   9.659  -0.342   0.785 -1.7648 -0.1402 -1.2835
  230MOL0     H31736   9.253  -0.300   0.768 -0.6855 -0.8076  1.5607
  230MOL0     H31737  10.041   0.135   0.928  3.2859 -2.3103  0.7418
  230MOL0     H31738  10.181   0.288   0.861  3.5674 -0.0256 -1.1952
  230MOL0     H31739  10.203   0.418   0.972  3.6587  0.3028  0.9071
  230MOL0     H31740  10.326   0.297   0.969 -0.0920 -1.0245  0.2407
  231MOL0     O31741   0.662   4.253   5.695 -0.1051  0.0829  0.1201
  231MOL0     C31742   0.643   4.151   5.632  0.1402 -0.6648 -0.3304
  231MOL0     O31743   0.739   4.074   5.565  0.1870 -0.2410 -0.1384
  231MOL0     C31744   0.862   4.126   5.571 -0.5934  0.6465 -0.2027
  231MOL0     C31745   0.939   4.108   5.690  0.5251  0.6162  0.4376
  231MOL0     C31746   1.067   4.161   5.699  0.8233  0.2180 -0.1040
  231MOL0     C31747   1.131   4.219   5.584 -0.7496 -0.5273  0.8662
  231MOL0     O31748   1.260   4.263   5.593  0.0102 -0.1488 -0.3994
  231MOL0     C31749   1.357   4.244   5.490 -0.3034 -0.4420  1.0049
  231MOL0     C31750   1.478   4.327   5.521  0.3036 -0.5253 -0.0416
  231MOL0     C31751   1.561   4.280   5.644 -0.4486  0.3917  0.3514
  231MOL0     C31752   1.685   4.366   5.641  0.7193  0.6304  0.0905
  231MOL0     C31753   1.795   4.323   5.744  0.9981  0.3982 -1.0880
  231MOL0     C31754   1.909   4.423   5.747 -0.2453  0.6477 -0.4448
  231MOL0     C31755   2.025   4.367   5.848 -0.3813  0.5027 -0.2211
  231MOL0     C31756   2.114   4.262   5.792 -0.4427  0.3152  0.2411
  231MOL0     N31757   2.203   4.315   5.695  0.0336 -0.2059  0.3167
  231MOL0     C31758   2.323   4.379   5.721  0.6953 -0.0549 -1.0071
  231MOL0     C31759   2.376   4.406   5.602  0.5643  0.3125  0.7203
  231MOL0     C31760   2.518   4.468   5.569  0.0085  0.3946 -1.0129
  231MOL0     C31761   2.517   4.558   5.444  0.0323 -0.7252 -0.1810
  231MOL0     C31762   2.655   4.617   5.417 -0.4303  0.6012  0.2556
  231MOL0     C31763   2.753   4.504   5.382 -0.3258 -0.4387 -0.5677
  231MOL0     O31764   2.871   4.522   5.470  0.2338 -0.0453  0.2551
  231MOL0     C31765   2.990   4.480   5.426 -0.4276 -0.1052 -0.2762
  231MOL0     C31766   3.106   4.510   5.506  0.3124  0.2313 -0.1790
  231MOL0     C31767   3.234   4.449   5.478  0.8118 -0.2419  0.9720
  231MOL0     C31768   3.344   4.472   5.574  0.0677 -0.0406  0.9195
  231MOL0     C31769   3.250   4.375   5.361 -0.5313 -0.0182  0.5444
  231MOL0     C31770   3.383   4.311   5.320  0.1685 -0.1363 -0.3522
  231MOL0     O31771   3.479   4.273   5.407 -0.4967  0.0285 -0.0542
  231MOL0     C31772   3.601   4.237   5.360  0.1308  0.3900 -0.7118
  231MOL0     C31773   3.672   4.316   5.268 -0.0936  0.4711 -0.4937
  231MOL0     C31774   3.792   4.278   5.214  0.2585  0.8438 -0.4368
  231MOL0     C31775   3.849   4.155   5.246  0.0286 -0.7198 -0.6690
  231MOL0     O31776   3.956   4.104   5.187 -0.6178 -0.3381 -0.0115
  231MOL0     C31777   4.081   4.165   5.226  0.5535 -0.2049  0.3327
  231MOL0     C31778   4.135   4.078   5.345  0.2900  0.4673  0.2075
  231MOL0     C31779   4.247   4.150   5.420  0.4798 -0.6413  0.6919
  231MOL0     C31780   4.378   4.146   5.345  0.2573  0.6599  0.6787
  231MOL0     C31781   4.423   4.000   5.305 -0.4862  0.5813  0.7218
  231MOL0     C31782   4.567   4.003   5.246  0.0882  0.6466 -0.2711
  231MOL0     C31783   4.605   3.861   5.193  0.5841 -0.5220 -0.1268
  231MOL0     C31784   4.622   3.754   5.307  0.5357  0.0042  0.8318
  231MOL0    Cl31785   4.745   3.802   5.427 -0.2652 -0.3623  0.2087
  231MOL0     C31786   3.786   4.075   5.333  0.2714  0.1660  0.0756
  231MOL0     C31787   3.659   4.114   5.392  0.1359  0.0875 -0.0795
  231MOL0     O31788   3.399   4.293   5.200  0.1684  0.3714  0.1342
  231MOL0     C31789   3.138   4.348   5.283  0.5821  0.0613 -0.5172
  231MOL0     C31790   3.007   4.387   5.321  0.6943  0.1524 -0.6792
  231MOL0     N31791   2.298   4.349   5.503 -0.2713 -0.2703  0.5076
  231MOL0     N31792   2.194   4.300   5.557  0.3760  0.6727 -0.5126
  231MOL0     C31793   1.050   4.232   5.467  0.1519  0.0961  1.1222
  231MOL0     C31794   0.920   4.181   5.463  0.1979  0.2502  0.0907
  231MOL0     C31795   0.507   4.090   5.645  0.9157  0.6653 -0.5491
  231MOL0     C31796   0.484   3.959   5.598 -0.1367 -0.5784  0.1535
  231MOL0     C31797   0.374   3.882   5.630 -0.7163  0.3504 -0.0567
  231MOL0     C31798   0.278   3.939   5.711 -0.4150  0.2453  0.3729
  231MOL0     O31799   0.175   3.851   5.746 -1.3214  0.1603  0.1159
  231MOL0     C31800   0.065   3.897   5.824  0.3327  1.1140 -0.5174
  231MOL0     C31801  -0.049   3.795   5.814  0.9866 -0.5537  0.4089
  231MOL0     C31802  -0.163   3.846   5.908  0.1801  0.2171 -0.1249
  231MOL0     C31803  -0.291   3.760   5.904  0.0494 -0.1138  0.2688
  231MOL0     C31804  -0.397   3.827   5.993 -0.5050  0.4511  0.6487
  231MOL0     C31805  -0.478   3.891   6.055  0.6436  0.5332 -0.4130
  231MOL0     C31806   0.288   4.069   5.758 -0.1247 -0.2963  0.0231
  231MOL0     C31807   0.396   4.147   5.720 -0.3841  0.5570  0.0080
  231MOL0     C31808   0.394   4.295   5.751  1.0397  0.4336 -0.2817
  231MOL0     H31809   0.893   4.063   5.778  1.1828  0.1409  0.5451
  231MOL0     H31810   1.120   4.160   5.793  2.7972  1.1107 -1.1615
  231MOL0     H31811   1.316   4.275   5.393  3.1604  0.6522 -0.2658
  231MOL0     H31812   1.380   4.138   5.478 -3.1989 -1.0555 -0.0849
  231MOL0     H31813   1.550   4.327   5.439  2.8026  1.8758  1.9929
  231MOL0     H31814   1.441   4.426   5.550 -1.4096 -1.1322 -0.0210
  231MOL0     H31815   1.511   4.283   5.742  1.9363 -0.4362  1.6745
  231MOL0     H31816   1.585   4.174   5.631  1.4022  0.3149  3.3663
  231MOL0     H31817   1.731   4.355   5.542 -0.6517  1.6172 -0.6832
  231MOL0     H31818   1.665   4.472   5.658  0.7433  0.3013  2.5604
  231MOL0     H31819   1.828   4.219   5.730 -0.7784 -0.8293  2.4840
  231MOL0     H31820   1.763   4.327   5.849  1.4720  0.4957 -0.9458
  231MOL0     H31821   1.958   4.438   5.650  2.8459  1.3905  1.1154
  231MOL0     H31822   1.871   4.523   5.770  0.1906  0.8034 -0.3923
  231MOL0     H31823   1.972   4.319   5.930  0.5241  0.1015  0.1432
  231MOL0     H31824   2.083   4.451   5.890 -0.4916  1.0849 -1.1930
  231MOL0     H31825   2.173   4.210   5.869 -0.4091  0.2873  0.1974
  231MOL0     H31826   2.054   4.184   5.744  0.4950 -1.4116  1.7226
  231MOL0     H31827   2.377   4.410   5.810  0.8004 -0.0585 -1.0687
  231MOL0     H31828   2.588   4.384   5.559  2.1288  1.5277  2.4422
  231MOL0     H31829   2.540   4.527   5.659 -2.9891 -1.6674  1.2585
  231MOL0     H31830   2.470   4.508   5.360 -3.1195  2.1024 -0.3075
  231MOL0     H31831   2.458   4.647   5.466  0.1400 -0.6320 -0.2679
  231MOL0     H31832   2.661   4.681   5.328  2.1023 -0.1519 -0.1993
  231MOL0     H31833   2.686   4.685   5.496 -0.7625 -0.8349  1.6702
  231MOL0     H31834   2.711   4.403   5.387  0.9483 -0.9923 -0.6039
  231MOL0     H31835   2.780   4.533   5.280  0.0516  0.0622 -0.3299
  231MOL0     H31836   3.085   4.573   5.592  1.4796 -1.1911  1.2322
  231MOL0     H31837   3.438   4.488   5.521 -1.1997  0.9077 -1.1557
  231MOL0     H31838   3.347   4.402   5.658 -3.4921  1.3817  2.4481
  231MOL0     H31839   3.343   4.571   5.621  1.8349  0.6210 -0.2890
  231MOL0     H31840   3.620   4.408   5.242 -0.6886  0.3528  0.2380
  231MOL0     H31841   3.843   4.341   5.142 -0.3300  1.8255 -0.0317
  231MOL0     H31842   4.159   4.187   5.153  1.6566 -0.2964  1.4508
  231MOL0     H31843   4.064   4.264   5.268  3.1522 -0.7546  3.0311
  231MOL0     H31844   4.063   4.074   5.427  1.7929 -0.5059  1.5176
  231MOL0     H31845   4.158   3.977   5.309 -2.9848 -0.3542  0.0516
  231MOL0     H31846   4.264   4.093   5.511  0.8279 -1.9494 -0.1671
  231MOL0     H31847   4.213   4.253   5.437 -1.0541 -0.8571 -0.7711
  231MOL0     H31848   4.461   4.194   5.397  2.1947 -0.3024 -1.3784
  231MOL0     H31849   4.361   4.211   5.258  0.7994 -0.6076 -0.4087
  231MOL0     H31850   4.422   3.937   5.394  2.1989  0.1613  0.5434
  231MOL0     H31851   4.351   3.948   5.240  1.0074 -1.9798  0.9906
  231MOL0     H31852   4.645   4.037   5.315  0.3338 -1.5539  0.6193
  231MOL0     H31853   4.563   4.080   5.168 -2.2695  1.3415  0.4733
  231MOL0     H31854   4.702   3.880   5.147 -0.1706  3.0018 -0.5904
  231MOL0     H31855   4.534   3.822   5.120  3.6470 -0.4630 -3.4036
  231MOL0     H31856   4.651   3.661   5.257  2.0170 -0.0842  1.8141
  231MOL0     H31857   4.526   3.736   5.357 -1.0638  0.3552 -1.8857
  231MOL0     H31858   3.837   3.983   5.361  2.3324  1.2130 -0.0881
  231MOL0     H31859   3.605   4.053   5.464 -0.0661  3.1279  2.5666
  231MOL0     H31860   3.139   4.287   5.193 -0.8908  1.8827 -1.8375
  231MOL0     H31861   2.926   4.340   5.266  0.4422  0.7522 -0.8264
  231MOL0     H31862   1.092   4.269   5.374  0.6712 -1.0068  0.9089
  231MOL0     H31863   0.867   4.165   5.370  1.2426  0.2988 -0.5240
  231MOL0     H31864   0.557   3.913   5.533 -1.3923 -1.5227 -0.6327
  231MOL0     H31865   0.359   3.781   5.594  2.3655  0.0510 -0.7833
  231MOL0     H31866   0.098   3.908   5.928  0.5418 -0.8833 -0.3299
  231MOL0     H31867   0.024   3.992   5.791 -1.0491  1.1425  1.1479
  231MOL0     H31868  -0.006   3.699   5.843  1.6143  0.2712  2.4256
  231MOL0     H31869  -0.090   3.781   5.714  0.0442 -2.0770  0.9623
  231MOL0     H31870  -0.129   3.852   6.011 -1.7982  2.5550  0.4669
  231MOL0     H31871  -0.194   3.948   5.883 -1.8311  0.3790  2.5903
  231MOL0     H31872  -0.281   3.660   5.948 -0.1993  0.2053  1.0509
  231MOL0     H31873  -0.326   3.737   5.803  0.2932 -0.9687  0.3705
  231MOL0     H31874  -0.549   3.949   6.110 -1.9131  0.1498 -3.0262
  231MOL0     H31875   0.215   4.117   5.823  1.6515  0.0536  1.8887
  231MOL0     H31876   0.424   4.360   5.668  2.9254 -2.0748 -1.7159
  231MOL0     H31877   0.301   4.334   5.793 -0.0985 -1.6414 -0.7343
  231MOL0     H31878   0.456   4.303   5.840 -0.3772 -2.9627  1.1781
  232MOL0     O31879   8.267   9.431   0.639  0.8848  1.2525  0.3840
  232MOL0     C31880   8.293   9.306   0.631  0.3990  1.0493 -0.0387
  232MOL0     O31881   8.421   9.245   0.655 -0.0195 -0.1122 -0.8460
  232MOL0     C31882   8.535   9.307   0.693 -0.1615  0.9052  0.4867
  232MOL0     C31883   8.654   9.243   0.650 -0.0045  0.4732 -0.2445
  232MOL0     C31884   8.779   9.308   0.665 -0.1217 -0.4947 -0.0589
  232MOL0     C31885   8.779   9.432   0.734 -0.2938 -0.6704  0.1060
  232MOL0     O31886   8.904   9.480   0.772 -0.2917 -0.5539 -0.0071
  232MOL0     C31887   8.912   9.583   0.873  0.7342  0.3185 -0.0677
  232MOL0     C31888   9.044   9.630   0.929 -1.2844  0.4078 -0.8342
  232MOL0     C31889   9.146   9.674   0.813 -0.1251  0.7349 -0.3098
  232MOL0     C31890   9.259   9.573   0.818 -0.4957 -0.3013 -0.5361
  232MOL0     C31891   9.360   9.621   0.910 -0.0693  0.2513  0.2554
  232MOL0     C31892   9.499   9.575   0.856 -0.6180 -0.1466  0.1153
  232MOL0     C31893   9.609   9.649   0.937  0.7454  0.8484  0.2509
  232MOL0     C31894   9.656   9.791   0.881 -0.2881 -0.9479  1.6535
  232MOL0     N31895   9.741   9.785   0.756  0.0097 -0.1865  0.2475
  232MOL0     C31896   9.733   9.889   0.671  0.4068  0.4424  0.5463
  232MOL0     C31897   9.834   9.861   0.579 -0.0931  0.6049 -0.0215
  232MOL0     C31898   9.868   9.947   0.466  0.9260 -0.1939  1.3967
  232MOL0     C31899  10.010   9.999   0.449  0.6731  0.0862 -0.2787
  232MOL0     C31900  10.050  10.077   0.585 -0.3196 -1.1064 -0.3075
  232MOL0     C31901  10.168  10.019   0.650 -0.0909  0.6505  0.5330
  232MOL0     O31902  10.283  10.023   0.564 -0.2104 -0.4874 -0.0821
  232MOL0     C31903  10.400   9.967   0.610 -0.3120  0.6913 -0.7463
  232MOL0     C31904  10.412   9.884   0.724 -0.2800 -0.2057  1.1270
  232MOL0     C31905  10.532   9.820   0.760 -0.7907 -0.4526 -0.5799
  232MOL0     C31906  10.528   9.723   0.870 -0.7352  0.9904  0.1859
  232MOL0     C31907  10.649   9.842   0.685 -0.1635 -0.1979 -0.4223
  232MOL0     C31908  10.789   9.796   0.731  0.2232  0.0607 -0.1784
  232MOL0     O31909  10.810   9.675   0.796  0.2293  0.2791 -0.4882
  232MOL0     C31910  10.930   9.611   0.789 -0.2251 -0.6345  0.1412
  232MOL0     C31911  11.025   9.623   0.689 -0.0118  0.2206  0.2662
  232MOL0     C31912  11.141   9.539   0.690 -0.1797  0.4199  0.0080
  232MOL0     C31913  11.170   9.450   0.791 -0.0772  0.2355 -0.2019
  232MOL0     O31914  11.295   9.384   0.788 -0.1256  0.3957  0.6632
  232MOL0     C31915  11.305   9.275   0.870 -0.3205 -0.2965 -0.5832
  232MOL0     C31916  11.433   9.189   0.831 -0.2118  0.9474  0.7069
  232MOL0     C31917  11.560   9.275   0.791  0.0834  0.1280  0.0862
  232MOL0     C31918  11.663   9.196   0.711  0.0007  0.8892  0.1597
  232MOL0     C31919  11.802   9.275   0.698 -0.3689  0.3325 -0.2403
  232MOL0     C31920  11.891   9.216   0.590 -0.2807  0.2813  0.1536
  232MOL0     C31921  12.007   9.315   0.579 -0.6927 -0.2186 -0.1055
  232MOL0     C31922  12.105   9.281   0.467  0.5591  0.4556  0.3816
  232MOL0    Cl31923  12.195   9.124   0.494  0.3209 -0.1607 -0.0995
  232MOL0     C31924  11.070   9.439   0.890 -0.6959  0.2832 -0.6223
  232MOL0     C31925  10.949   9.508   0.888 -0.2189 -1.2546  1.1294
  232MOL0     O31926  10.881   9.871   0.718  0.0360  0.0070  1.1046
  232MOL0     C31927  10.643   9.932   0.573 -0.1866 -0.2037 -0.2215
  232MOL0     C31928  10.519   9.986   0.537 -0.7857  0.7166  0.1823
  232MOL0     N31929   9.902   9.748   0.608 -0.8795  0.3050 -0.5002
  232MOL0     N31930   9.840   9.703   0.716  0.3152  0.7277 -0.5921
  232MOL0     C31931   8.656   9.496   0.780 -0.0705  0.4642 -0.2579
  232MOL0     C31932   8.539   9.428   0.757  0.4120  0.3995  0.3874
  232MOL0     C31933   8.187   9.210   0.590 -0.4188 -0.4859  0.5733
  232MOL0     C31934   8.228   9.077   0.583 -0.1526 -0.3517 -0.6752
  232MOL0     C31935   8.141   8.973   0.541  0.5387 -0.1191  0.4493
  232MOL0     C31936   8.012   9.006   0.515  0.2085 -0.0459 -0.0803
  232MOL0     O31937   7.909   8.919   0.488  0.7832  0.2798  0.1335
  232MOL0     C31938   7.935   8.780   0.458 -0.2130 -0.1193 -0.0591
  232MOL0     C31939   7.816   8.712   0.393 -1.0068  0.1271 -0.0266
  232MOL0     C31940   7.846   8.563   0.352  0.0578  0.0319  0.5224
  232MOL0     C31941   7.743   8.506   0.246  0.3804  0.0269 -0.7785
  232MOL0     C31942   7.616   8.469   0.312  0.4890 -0.4728 -0.2384
  232MOL0     C31943   7.514   8.416   0.361 -0.3492 -0.6425 -0.2716
  232MOL0     C31944   7.967   9.137   0.512  0.2633 -0.1724 -0.1562
  232MOL0     C31945   8.055   9.237   0.550 -0.4192  0.5457  0.4628
  232MOL0     C31946   8.007   9.371   0.534 -0.5787 -0.3135 -0.6221
  232MOL0     H31947   8.645   9.151   0.592  1.6813  0.4407 -0.5117
  232MOL0     H31948   8.869   9.262   0.624  1.1954  1.5522  0.3493
  232MOL0     H31949   8.853   9.562   0.963  0.9359  2.6039  0.6803
  232MOL0     H31950   8.879   9.676   0.825 -1.9796 -1.0529 -1.0435
  232MOL0     H31951   9.019   9.721   0.985 -2.9975  0.0207 -0.9393
  232MOL0     H31952   9.086   9.555   0.997 -2.4566  0.9397  0.5406
  232MOL0     H31953   9.091   9.655   0.721 -2.7853 -3.1125  1.7788
  232MOL0     H31954   9.181   9.777   0.822 -0.0730  0.7246 -0.3948
  232MOL0     H31955   9.233   9.471   0.848 -1.4546  0.0759 -0.0482
  232MOL0     H31956   9.297   9.566   0.715 -1.0820  0.1622 -0.7972
  232MOL0     H31957   9.330   9.584   1.008  0.6244  1.2421  0.8614
  232MOL0     H31958   9.363   9.729   0.923 -2.8019  0.2152  1.6973
  232MOL0     H31959   9.518   9.469   0.871  1.5099 -0.1672 -2.1374
  232MOL0     H31960   9.512   9.596   0.750 -0.7491 -2.2263 -0.3557
  232MOL0     H31961   9.694   9.584   0.914  1.0551  0.3834  2.4643
  232MOL0     H31962   9.582   9.655   1.043 -0.7893 -0.7567 -0.0065
  232MOL0     H31963   9.562   9.835   0.846  0.9890 -1.6134 -3.3346
  232MOL0     H31964   9.699   9.853   0.960  4.1045  4.7331 -4.1590
  232MOL0     H31965   9.658   9.968   0.674 -0.0626 -0.0167  2.9635
  232MOL0     H31966   9.793  10.027   0.469 -0.7339 -1.7015  1.4383
  232MOL0     H31967   9.856   9.892   0.373  2.1967 -2.0812  2.2907
  232MOL0     H31968  10.076   9.922   0.408 -0.6626 -2.4557  1.9951
  232MOL0     H31969  10.021  10.080   0.376 -0.4781  1.1205  0.6595
  232MOL0     H31970  10.067  10.182   0.559 -0.7590 -0.2021  2.6678
  232MOL0     H31971   9.965  10.073   0.654  0.8086  1.8954  1.4818
  232MOL0     H31972  10.188  10.075   0.742  0.0121  0.3389  0.7023
  232MOL0     H31973  10.132   9.919   0.677 -3.1816  1.6553  0.5228
  232MOL0     H31974  10.331   9.869   0.794 -1.7880 -2.4001 -0.9370
  232MOL0     H31975  10.434   9.722   0.925  0.3757 -2.3118  2.3211
  232MOL0     H31976  10.610   9.759   0.933  0.8591  1.2461 -1.8868
  232MOL0     H31977  10.552   9.625   0.826 -1.4338  1.6768 -1.8307
  232MOL0     H31978  11.022   9.684   0.599 -0.1925 -1.8556 -1.1984
  232MOL0     H31979  11.211   9.547   0.607  0.6664  0.4522  0.7033
  232MOL0     H31980  11.308   9.319   0.970 -1.8071  0.5976 -0.9044
  232MOL0     H31981  11.218   9.210   0.865 -1.3754  1.0489 -0.1838
  232MOL0     H31982  11.460   9.118   0.910 -0.4169  2.4971  2.2347
  232MOL0     H31983  11.403   9.138   0.739 -0.4963  2.1167  0.1285
  232MOL0     H31984  11.604   9.308   0.885  1.4088 -2.2952  0.3912
  232MOL0     H31985  11.531   9.361   0.729  2.3561  0.2368 -0.9056
  232MOL0     H31986  11.616   9.179   0.614 -0.5034 -0.7934  0.6609
  232MOL0     H31987  11.696   9.104   0.761  3.2946  1.5510 -0.5696
  232MOL0     H31988  11.785   9.382   0.681 -1.3479  0.2107 -0.1016
  232MOL0     H31989  11.858   9.287   0.792 -0.4112 -2.6705  0.2664
  232MOL0     H31990  11.831   9.204   0.499  3.4059 -1.2024 -2.2876
  232MOL0     H31991  11.924   9.114   0.609 -0.6589 -0.0639 -0.9521
  232MOL0     H31992  12.059   9.322   0.675 -2.2074 -0.5655  0.7639
  232MOL0     H31993  11.974   9.411   0.540  1.2746 -0.3748 -2.4011
  232MOL0     H31994  12.185   9.355   0.469  2.2720 -1.2511 -0.9823
  232MOL0     H31995  12.056   9.290   0.369 -1.6862 -1.7799  1.2086
  232MOL0     H31996  11.099   9.392   0.983  4.4121  0.9404 -1.5559
  232MOL0     H31997  10.876   9.512   0.967 -0.6623 -1.7408  0.7544
  232MOL0     H31998  10.729   9.956   0.511  0.0875 -3.1002 -1.0886
  232MOL0     H31999  10.506  10.044   0.446 -0.7985  1.0913  0.4204
  232MOL0     H32000   8.653   9.594   0.827 -1.1728  0.6498 -0.6569
  232MOL0     H32001   8.448   9.479   0.789 -0.0252  0.7658 -1.3112
  232MOL0     H32002   8.328   9.053   0.618 -0.5579 -0.2237  0.6314
  232MOL0     H32003   8.171   8.868   0.535  0.5826 -0.0326 -2.0396
  232MOL0     H32004   8.021   8.770   0.391 -0.8219 -1.0405 -0.7222
  232MOL0     H32005   7.948   8.725   0.552 -4.2086  0.3233  0.9079
  232MOL0     H32006   7.796   8.769   0.302 -0.5932  0.9125  0.3623
  232MOL0     H32007   7.732   8.709   0.462 -1.4292 -1.7959 -0.5791
  232MOL0     H32008   7.942   8.574   0.301 -2.0963  1.0017 -3.7696
  232MOL0     H32009   7.852   8.497   0.440  0.3749  0.7914  1.0793
  232MOL0     H32010   7.777   8.408   0.212  1.5297 -0.3621  1.3152
  232MOL0     H32011   7.725   8.576   0.165 -1.9979  0.8527  0.3757
  232MOL0     H32012   7.422   8.374   0.396 -0.3324 -1.5737 -1.2864
  232MOL0     H32013   7.865   9.153   0.480  0.8049  1.6954 -1.1072
  232MOL0     H32014   7.994   9.421   0.631 -1.3530 -1.5639 -0.0591
  232MOL0     H32015   8.092   9.419   0.484  0.4441 -0.4299  0.9178
  232MOL0     H32016   7.924   9.388   0.465 -3.0827 -0.5926  2.1327
  233MOL0     O32017   0.128   9.144   7.129  0.0871 -0.9994 -0.4736
  233MOL0     C32018   0.096   9.024   7.134 -0.5005  0.6701 -0.9234
  233MOL0     O32019   0.166   8.926   7.203 -0.1665 -0.5713 -0.2241
  233MOL0     C32020   0.302   8.929   7.207  0.4049  0.4955 -0.7935
  233MOL0     C32021   0.372   9.024   7.280  0.3731 -0.4378  0.4847
  233MOL0     C32022   0.510   9.018   7.301  0.6573  0.3586 -0.4530
  233MOL0     C32023   0.588   8.920   7.250  0.0874  0.5385 -0.3991
  233MOL0     O32024   0.726   8.924   7.280 -0.1196 -0.6270 -0.3991
  233MOL0     C32025   0.810   8.819   7.237 -0.6216  0.5996  0.3965
  233MOL0     C32026   0.960   8.878   7.229  0.2446  0.3830 -0.1117
  233MOL0     C32027   1.067   8.815   7.315 -0.6477  0.5255 -0.2203
  233MOL0     C32028   1.190   8.891   7.358  0.2081  0.1525 -0.3098
  233MOL0     C32029   1.308   8.801   7.405 -0.1767 -0.3312  0.2004
  233MOL0     C32030   1.400   8.897   7.481  0.1274 -0.7696  0.1381
  233MOL0     C32031   1.520   8.816   7.518  0.7351 -0.2051 -0.6928
  233MOL0     C32032   1.636   8.843   7.424  0.1222  0.5344  1.0875
  233MOL0     N32033   1.758   8.779   7.476 -0.1371  0.2317  0.1276
  233MOL0     C32034   1.850   8.834   7.565 -0.1409 -0.7786 -0.0786
  233MOL0     C32035   1.937   8.728   7.591 -0.1080 -0.2410  0.2469
  233MOL0     C32036   2.050   8.739   7.684 -0.4710  0.6896 -0.0672
  233MOL0     C32037   2.143   8.852   7.657 -0.4302 -0.0896  0.3910
  233MOL0     C32038   2.262   8.855   7.750  0.9111 -0.0709  0.0318
  233MOL0     C32039   2.371   8.754   7.716  0.2089  0.1162  0.2635
  233MOL0     O32040   2.430   8.757   7.585 -0.3036 -0.1256  0.1944
  233MOL0     C32041   2.522   8.859   7.551 -0.0054  0.1154 -0.0944
  233MOL0     C32042   2.545   8.883   7.416 -0.3916  0.4230 -0.4529
  233MOL0     C32043   2.610   8.999   7.368  0.0862 -0.3206  0.2901
  233MOL0     C32044   2.622   9.025   7.221 -0.8840  0.7500 -0.3788
  233MOL0     C32045   2.665   9.090   7.468 -0.4244  0.1343 -0.9743
  233MOL0     C32046   2.751   9.204   7.424 -0.2927  0.3736 -0.4771
  233MOL0     O32047   2.723   9.262   7.309  0.2392 -0.1327  0.3416
  233MOL0     C32048   2.793   9.366   7.252  0.1156  0.3445 -0.4602
  233MOL0     C32049   2.726   9.486   7.225 -0.1191  0.0941 -0.3627
  233MOL0     C32050   2.785   9.593   7.158  0.0337 -0.2176 -0.2165
  233MOL0     C32051   2.919   9.586   7.121  0.2592  0.5963  0.4931
  233MOL0     O32052   2.981   9.699   7.073 -0.8633  0.3537 -0.1533
  233MOL0     C32053   3.115   9.720   7.123 -0.6992 -0.2664  0.0917
  233MOL0     C32054   3.205   9.731   6.994 -0.5386 -0.0449  0.1157
  233MOL0     C32055   3.208   9.883   6.942  0.2939 -0.4697 -0.8941
  233MOL0     C32056   3.284   9.898   6.813  0.5245  0.2411  0.2997
  233MOL0     C32057   3.238  10.017   6.719 -0.6229  0.2575  0.1741
  233MOL0     C32058   3.224  10.147   6.800  0.2372 -0.2896 -0.2348
  233MOL0     C32059   3.228  10.277   6.715 -0.5117  0.4380  0.9771
  233MOL0     C32060   3.259  10.392   6.804 -0.5708 -0.3012 -0.2133
  233MOL0    Cl32061   3.291  10.534   6.694 -0.4925 -0.2209  0.3314
  233MOL0     C32062   2.981   9.458   7.139  0.4492  0.6408  0.1725
  233MOL0     C32063   2.916   9.347   7.201  0.4636  0.5091 -0.5954
  233MOL0     O32064   2.836   9.252   7.500  0.0953  0.0962  0.8689
  233MOL0     C32065   2.641   9.067   7.603  0.1392  0.0041 -0.1560
  233MOL0     C32066   2.565   8.952   7.643 -0.7397  0.0049 -0.2385
  233MOL0     N32067   1.897   8.618   7.522  0.0608  0.3349 -0.4401
  233MOL0     N32068   1.788   8.645   7.460  0.9378 -0.6626 -0.7003
  233MOL0     C32069   0.521   8.822   7.170  0.1886  0.9234 -0.3159
  233MOL0     C32070   0.380   8.825   7.153  0.8019  0.4046 -0.6257
  233MOL0     C32071  -0.034   8.979   7.077  0.0500 -0.5783 -0.0344
  233MOL0     C32072  -0.070   8.840   7.096  0.0542 -0.7732 -0.7846
  233MOL0     C32073  -0.197   8.793   7.060  0.0524  0.4326  0.6264
  233MOL0     C32074  -0.289   8.866   6.992  0.0469  0.2613 -1.1281
  233MOL0     O32075  -0.412   8.824   6.948 -0.3054  0.1431  0.2423
  233MOL0     C32076  -0.458   8.695   6.972 -0.2601  0.2221 -0.8390
  233MOL0     C32077  -0.582   8.673   6.893  0.5081  0.1815 -0.1223
  233MOL0     C32078  -0.572   8.680   6.740  0.1696  0.4797 -0.5860
  233MOL0     C32079  -0.690   8.603   6.674  0.3654 -0.2486  0.3089
  233MOL0     C32080  -0.806   8.687   6.670  0.4585 -0.0055  0.3438
  233MOL0     C32081  -0.902   8.758   6.676 -0.4982 -0.4402  0.5409
  233MOL0     C32082  -0.250   8.999   6.971  0.6438 -0.1974 -0.1563
  233MOL0     C32083  -0.131   9.059   7.013 -0.5438  0.6975  0.1936
  233MOL0     C32084  -0.108   9.210   6.981 -0.2255  1.0699 -0.6342
  233MOL0     H32085   0.313   9.102   7.328  0.0678 -2.1253  3.0223
  233MOL0     H32086   0.567   9.090   7.359  0.6337 -1.2243  1.6254
  233MOL0     H32087   0.778   8.780   7.140 -0.9536 -0.0456  0.7628
  233MOL0     H32088   0.809   8.736   7.308 -2.4866 -1.6531 -2.0792
  233MOL0     H32089   1.001   8.883   7.127  0.2673 -1.3075 -0.2160
  233MOL0     H32090   0.941   8.979   7.265 -1.5849  0.1938 -0.4350
  233MOL0     H32091   1.029   8.758   7.401 -0.1510  2.2860  1.2166
  233MOL0     H32092   1.104   8.735   7.250  0.5138 -0.3733  1.4721
  233MOL0     H32093   1.226   8.942   7.269 -0.0087  0.7904 -0.0408
  233MOL0     H32094   1.161   8.960   7.438  0.7968 -0.1967  0.2104
  233MOL0     H32095   1.356   8.757   7.317  0.9738 -0.6762  0.9775
  233MOL0     H32096   1.286   8.715   7.469  3.2066 -1.2237  0.3416
  233MOL0     H32097   1.428   8.989   7.428  1.2954  1.2928  3.9750
  233MOL0     H32098   1.350   8.922   7.575 -0.7125 -1.9116  0.0100
  233MOL0     H32099   1.496   8.710   7.525  0.9652 -0.2408 -0.4118
  233MOL0     H32100   1.548   8.851   7.618 -1.1305  2.2330 -0.9214
  233MOL0     H32101   1.617   8.817   7.319  3.2857  0.6910  0.3580
  233MOL0     H32102   1.657   8.950   7.426 -0.8540  0.7267  3.3466
  233MOL0     H32103   1.872   8.935   7.599  5.1933 -1.4220 -0.6478
  233MOL0     H32104   2.095   8.639   7.676 -0.8912  0.6587 -3.0059
  233MOL0     H32105   2.006   8.751   7.784  0.1590  1.4015  0.1366
  233MOL0     H32106   2.171   8.856   7.551  0.5825  0.2226  0.6604
  233MOL0     H32107   2.098   8.950   7.672  0.8925  0.3214  1.9890
  233MOL0     H32108   2.297   8.958   7.738 -0.3491  0.2370 -1.3234
  233MOL0     H32109   2.235   8.845   7.856 -0.2347 -3.5617 -0.4742
  233MOL0     H32110   2.445   8.743   7.796 -0.0566 -2.0385  0.2900
  233MOL0     H32111   2.321   8.657   7.731 -1.1599  0.7982  0.2473
  233MOL0     H32112   2.502   8.807   7.351 -0.2112 -1.0789  1.0981
  233MOL0     H32113   2.605   8.935   7.161 -1.6953  1.9056 -1.9515
  233MOL0     H32114   2.718   9.073   7.198 -1.4327  2.0722  0.0456
  233MOL0     H32115   2.548   9.099   7.189 -1.7297 -0.4071 -1.2022
  233MOL0     H32116   2.628   9.502   7.268 -0.7648  0.9776 -2.0330
  233MOL0     H32117   2.743   9.693   7.158 -3.7166 -1.5170  3.1273
  233MOL0     H32118   3.115   9.815   7.176  0.0629  0.8064 -1.7397
  233MOL0     H32119   3.142   9.640   7.192 -0.1206 -0.3528 -0.2291
  233MOL0     H32120   3.307   9.705   7.023 -1.5931 -3.7758  0.9226
  233MOL0     H32121   3.169   9.661   6.919 -0.4524 -0.1457  0.1688
  233MOL0     H32122   3.253   9.949   7.017  0.5882 -2.5639  0.8666
  233MOL0     H32123   3.103   9.913   6.930 -0.3879 -1.0176  2.6268
  233MOL0     H32124   3.280   9.809   6.749  2.1525  2.3956 -3.1296
  233MOL0     H32125   3.390   9.905   6.840 -0.3842  4.3004  3.9168
  233MOL0     H32126   3.310  10.025   6.637 -0.4844 -1.8468  0.0307
  233MOL0     H32127   3.138  10.008   6.676 -0.1998 -0.6440 -0.6465
  233MOL0     H32128   3.303  10.152   6.877 -1.6320 -0.6724  1.8127
  233MOL0     H32129   3.130  10.149   6.856  1.2915  3.4582  1.7462
  233MOL0     H32130   3.138  10.299   6.658 -1.1395 -1.3787  1.1883
  233MOL0     H32131   3.305  10.265   6.638 -2.2862 -4.5455 -0.4025
  233MOL0     H32132   3.347  10.368   6.863 -0.1499 -1.4453 -1.2826
  233MOL0     H32133   3.176  10.400   6.875 -1.7967 -1.2869 -1.4844
  233MOL0     H32134   3.074   9.436   7.089  0.5086  1.7533 -0.2373
  233MOL0     H32135   2.951   9.245   7.189 -0.6287 -0.3133  2.3468
  233MOL0     H32136   2.666   9.146   7.673 -1.8222  0.5140  0.0323
  233MOL0     H32137   2.551   8.924   7.747 -1.6722  1.5299  0.0893
  233MOL0     H32138   0.572   8.736   7.129 -0.7208  0.0015  0.4416
  233MOL0     H32139   0.324   8.751   7.097 -0.9330 -0.2191  1.7737
  233MOL0     H32140   0.003   8.782   7.152 -0.8404 -0.7987  0.3926
  233MOL0     H32141  -0.217   8.692   7.096  1.3914  0.9412  3.0384
  233MOL0     H32142  -0.385   8.619   6.942 -0.2134  0.1955 -0.6581
  233MOL0     H32143  -0.483   8.684   7.077 -1.3446 -5.6975 -1.3847
  233MOL0     H32144  -0.651   8.751   6.925 -0.8961 -0.1720 -2.1301
  233MOL0     H32145  -0.630   8.578   6.919 -1.5634  0.5565 -2.2871
  233MOL0     H32146  -0.571   8.786   6.711  0.7299 -0.0043 -2.4778
  233MOL0     H32147  -0.477   8.638   6.706  1.2309  1.5458  0.9516
  233MOL0     H32148  -0.725   8.515   6.730  0.8913 -2.3233 -2.4529
  233MOL0     H32149  -0.672   8.579   6.569 -1.0139 -1.5038  0.3280
  233MOL0     H32150  -0.980   8.830   6.685 -0.4159 -0.3090  0.1842
  233MOL0     H32151  -0.314   9.069   6.918  2.7467  1.0032 -1.2976
  233MOL0     H32152  -0.096   9.277   7.067  1.6131  2.1190 -1.6281
  233MOL0     H32153  -0.023   9.225   6.913 -0.2914 -1.8837 -1.4983
  233MOL0     H32154  -0.193   9.250   6.926 -2.1168 -0.1617  1.2554
  234MOL0     O32155   3.102   4.814   1.318 -0.1818 -0.6589 -0.0720
  234MOL0     C32156   3.085   4.773   1.433 -0.0961  1.2911  0.3351
  234MOL0     O32157   3.181   4.714   1.517  0.0367 -0.0689 -0.1037
  234MOL0     C32158   3.312   4.690   1.483  0.5472 -0.3244  0.0336
  234MOL0     C32159   3.400   4.682   1.589  0.0542 -0.3738  0.0502
  234MOL0     C32160   3.528   4.645   1.568  0.4155 -0.4468 -0.1687
  234MOL0     C32161   3.580   4.630   1.446 -0.6516 -0.3709 -0.1460
  234MOL0     O32162   3.716   4.613   1.448  0.0493 -0.1638  0.2925
  234MOL0     C32163   3.798   4.664   1.338  0.1457  0.7344 -0.6600
  234MOL0     C32164   3.937   4.591   1.346  1.0720  0.7450 -0.2938
  234MOL0     C32165   4.037   4.652   1.247 -0.0521 -0.1332 -0.4486
  234MOL0     C32166   4.182   4.614   1.275  0.3545  0.4980  0.6495
  234MOL0     C32167   4.270   4.606   1.152  0.2075 -0.1693  0.4754
  234MOL0     C32168   4.402   4.552   1.202 -0.0512  0.1385  0.3637
  234MOL0     C32169   4.512   4.535   1.089  0.0426 -0.3387  0.1466
  234MOL0     C32170   4.652   4.532   1.157 -0.4774 -0.4802 -0.8532
  234MOL0     N32171   4.754   4.476   1.073  0.0694 -0.0978 -0.0049
  234MOL0     C32172   4.835   4.540   0.983  0.2139 -0.0077 -0.1991
  234MOL0     C32173   4.928   4.450   0.934  0.4878  0.8607 -0.4540
  234MOL0     C32174   5.036   4.488   0.833 -0.2643 -0.5105 -0.9109
  234MOL0     C32175   5.182   4.515   0.880  0.0097  0.6750 -0.9347
  234MOL0     C32176   5.187   4.592   1.012  0.4564  0.1089 -0.4698
  234MOL0     C32177   5.330   4.623   1.063  0.4757  0.0181  0.9865
  234MOL0     O32178   5.374   4.740   0.997  0.2541 -0.0876  0.0146
  234MOL0     C32179   5.507   4.770   0.995  0.2978 -0.0147 -0.4599
  234MOL0     C32180   5.553   4.879   0.930 -0.2833 -0.2526 -0.2006
  234MOL0     C32181   5.681   4.935   0.936 -0.8265 -0.3851  0.3166
  234MOL0     C32182   5.704   5.070   0.879  0.2317  0.4121  0.2400
  234MOL0     C32183   5.776   4.866   1.025  0.0754  0.4441  0.0275
  234MOL0     C32184   5.914   4.920   1.058 -0.1231  0.7089 -0.0149
  234MOL0     O32185   5.979   4.844   1.148 -0.1632  0.3817  0.3892
  234MOL0     C32186   6.108   4.890   1.186  0.2944  1.0165  0.9379
  234MOL0     C32187   6.214   4.794   1.187 -0.3377 -0.4052  0.7137
  234MOL0     C32188   6.342   4.819   1.235  0.1615 -0.0098 -0.0067
  234MOL0     C32189   6.370   4.945   1.288 -0.4473 -0.5896 -0.0227
  234MOL0     O32190   6.494   4.977   1.333  0.0006  0.0653  0.2164
  234MOL0     C32191   6.537   4.904   1.444  0.2929  0.2398 -0.8439
  234MOL0     C32192   6.560   4.995   1.559 -0.5818 -0.1585 -0.2912
  234MOL0     C32193   6.427   5.058   1.626 -0.0664  0.0520 -0.1535
  234MOL0     C32194   6.395   4.988   1.762 -0.8597 -0.4554  0.3834
  234MOL0     C32195   6.243   5.004   1.813 -0.6351  0.1787  0.5138
  234MOL0     C32196   6.221   5.135   1.878 -0.8599  0.5004  0.1716
  234MOL0     C32197   6.071   5.167   1.890  0.1154  0.3664  0.1526
  234MOL0     C32198   5.989   5.078   1.985  0.2225  0.3199  0.7921
  234MOL0    Cl32199   5.828   5.140   2.020 -0.0302  0.2555  0.0168
  234MOL0     C32200   6.264   5.038   1.298 -1.1449 -0.2981  0.0663
  234MOL0     C32201   6.136   5.008   1.246  0.9597 -1.0068 -0.2030
  234MOL0     O32202   5.961   5.008   0.991 -0.0743  0.2486  0.3103
  234MOL0     C32203   5.731   4.745   1.093  0.2352  0.1964  0.3221
  234MOL0     C32204   5.603   4.700   1.080  0.1941 -0.3161  0.6765
  234MOL0     N32205   4.902   4.333   0.999  0.2777  0.2103 -0.1047
  234MOL0     N32206   4.799   4.346   1.084 -0.7236  0.4202 -0.3741
  234MOL0     C32207   3.499   4.646   1.329 -0.3224  0.8423 -0.0583
  234MOL0     C32208   3.356   4.677   1.352  0.8436  0.9362 -0.4226
  234MOL0     C32209   2.950   4.774   1.502 -0.1215  0.4698  0.6117
  234MOL0     C32210   2.944   4.811   1.638 -0.5478  0.0797  0.7572
  234MOL0     C32211   2.822   4.825   1.700  0.4133  0.3099 -0.3100
  234MOL0     C32212   2.704   4.780   1.640  0.0639 -0.3373 -0.2265
  234MOL0     O32213   2.596   4.783   1.716  0.8646  0.1552  0.6532
  234MOL0     C32214   2.493   4.873   1.665 -0.0449  0.2522  0.4611
  234MOL0     C32215   2.538   5.019   1.657 -0.0977 -0.7117 -0.7171
  234MOL0     C32216   2.427   5.118   1.618 -0.1220  0.4387  0.4665
  234MOL0     C32217   2.480   5.261   1.610 -0.0566  0.5575 -0.4358
  234MOL0     C32218   2.363   5.335   1.556 -0.2786 -0.2918  0.2452
  234MOL0     C32219   2.255   5.366   1.510 -0.5412 -0.4470  0.4970
  234MOL0     C32220   2.709   4.738   1.513  0.1252 -0.3745 -0.0879
  234MOL0     C32221   2.825   4.736   1.442  0.2512 -0.2698  0.7809
  234MOL0     C32222   2.829   4.694   1.294  0.7305  0.4945  0.0627
  234MOL0     H32223   3.359   4.686   1.689  0.0208 -2.1098  0.1347
  234MOL0     H32224   3.597   4.642   1.652  0.7683  1.3905 -0.3560
  234MOL0     H32225   3.819   4.770   1.355  0.4519  0.5747 -0.0078
  234MOL0     H32226   3.756   4.646   1.239 -0.4611  1.4216 -0.5384
  234MOL0     H32227   3.974   4.598   1.449  0.7635 -1.4371  0.0105
  234MOL0     H32228   3.919   4.485   1.329 -2.7789  1.1877 -0.0308
  234MOL0     H32229   4.009   4.627   1.144  2.4531  0.5672 -1.3506
  234MOL0     H32230   4.036   4.761   1.254 -2.3774 -0.0829 -0.5013
  234MOL0     H32231   4.220   4.688   1.345  0.5519  0.2149  0.8458
  234MOL0     H32232   4.184   4.514   1.319  0.9792  0.5792  0.8174
  234MOL0     H32233   4.285   4.703   1.103 -0.1651  0.2592  1.1986
  234MOL0     H32234   4.226   4.546   1.072  2.5796  0.3928 -1.4061
  234MOL0     H32235   4.440   4.625   1.273  0.9197 -1.1985  1.2777
  234MOL0     H32236   4.391   4.462   1.264  1.4486  0.5851  1.3359
  234MOL0     H32237   4.512   4.624   1.026 -0.3376 -0.9176 -0.6927
  234MOL0     H32238   4.496   4.453   1.019  2.4541  2.0601 -3.5588
  234MOL0     H32239   4.686   4.630   1.192  1.9012 -1.3009 -0.6676
  234MOL0     H32240   4.663   4.472   1.248  1.5178  0.4067 -0.4637
  234MOL0     H32241   4.835   4.644   0.951 -0.1602  0.3256  0.8560
  234MOL0     H32242   4.985   4.572   0.786 -0.9235 -1.7635 -2.5551
  234MOL0     H32243   5.036   4.423   0.745 -2.3047 -0.0455 -1.2882
  234MOL0     H32244   5.223   4.414   0.894  0.3387  0.9999  0.6430
  234MOL0     H32245   5.228   4.573   0.800  0.0939  0.5293 -0.9929
  234MOL0     H32246   5.124   4.679   0.993 -0.4510 -0.0103  1.6937
  234MOL0     H32247   5.130   4.543   1.092  2.2484 -0.9264  0.2335
  234MOL0     H32248   5.333   4.623   1.172 -1.0173 -0.8669  1.0541
  234MOL0     H32249   5.388   4.535   1.031  0.1768  0.5618 -1.1827
  234MOL0     H32250   5.477   4.929   0.870 -0.4746 -2.1652 -1.6538
  234MOL0     H32251   5.606   5.099   0.840 -0.3594 -0.2232  1.2029
  234MOL0     H32252   5.785   5.072   0.805  1.3967  2.1796  1.4990
  234MOL0     H32253   5.742   5.144   0.949  1.1388 -1.1457  1.4758
  234MOL0     H32254   6.175   4.695   1.166 -2.0414  0.3140  0.3682
  234MOL0     H32255   6.413   4.743   1.206 -0.6094  0.2398 -2.9471
  234MOL0     H32256   6.467   4.830   1.484  3.6527 -0.9658  3.6554
  234MOL0     H32257   6.632   4.860   1.410 -0.8888 -1.6360 -1.9359
  234MOL0     H32258   6.612   4.927   1.627  0.8857  0.6365 -0.5827
  234MOL0     H32259   6.641   5.065   1.538 -0.8834  0.0584 -0.7404
  234MOL0     H32260   6.344   5.035   1.558  1.9786  0.1464 -2.8468
  234MOL0     H32261   6.432   5.167   1.633 -2.7102  0.1878  0.8699
  234MOL0     H32262   6.470   5.019   1.835 -2.4086 -1.0919  2.3250
  234MOL0     H32263   6.409   4.883   1.732  0.3965 -0.2870  0.3343
  234MOL0     H32264   6.173   4.996   1.729  0.5360  2.9535 -0.8409
  234MOL0     H32265   6.228   4.920   1.882  0.9093 -0.0087  0.6711
  234MOL0     H32266   6.270   5.219   1.827 -3.5759  2.1084  0.0149
  234MOL0     H32267   6.265   5.141   1.978 -2.1349  1.3221  0.7178
  234MOL0     H32268   6.023   5.168   1.792 -0.7215 -0.4524  0.5284
  234MOL0     H32269   6.073   5.269   1.927  1.8491  0.2916  0.3246
  234MOL0     H32270   6.046   5.064   2.077 -1.5794  1.0009  2.0707
  234MOL0     H32271   5.966   4.981   1.939 -1.7835  1.4304 -0.7310
  234MOL0     H32272   6.285   5.138   1.335  1.6078 -1.1343  1.0045
  234MOL0     H32273   6.059   5.082   1.231  0.9269 -1.0669 -0.3321
  234MOL0     H32274   5.803   4.694   1.157  2.5435 -0.5849 -2.6762
  234MOL0     H32275   5.587   4.612   1.142  0.4019 -0.1466  0.9738
  234MOL0     H32276   3.551   4.628   1.235  0.9945  0.4437  0.7247
  234MOL0     H32277   3.300   4.707   1.264  1.3910  0.7479 -0.8382
  234MOL0     H32278   3.031   4.838   1.697 -1.6132  1.6871  1.6907
  234MOL0     H32279   2.820   4.864   1.801 -1.1716  0.5249 -0.3924
  234MOL0     H32280   2.458   4.833   1.570  0.5037 -1.5830  0.9915
  234MOL0     H32281   2.404   4.866   1.728  0.1418 -2.9359  0.5068
  234MOL0     H32282   2.631   5.023   1.599  0.8183 -1.6993  0.6318
  234MOL0     H32283   2.574   5.042   1.757 -0.1420 -1.0401 -0.6253
  234MOL0     H32284   2.388   5.088   1.521  0.1942 -0.9893  0.7523
  234MOL0     H32285   2.341   5.096   1.682 -2.3429 -0.6230 -2.6686
  234MOL0     H32286   2.560   5.266   1.535 -1.5546 -2.0183 -2.3523
  234MOL0     H32287   2.511   5.303   1.706  0.8316  0.3971 -0.6368
  234MOL0     H32288   2.159   5.398   1.475 -0.5555  0.6954  1.5358
  234MOL0     H32289   2.614   4.713   1.468 -0.6859  1.6349  0.3984
  234MOL0     H32290   2.840   4.781   1.229  1.9415  0.5231  0.2927
  234MOL0     H32291   2.913   4.624   1.299  0.6816  0.4898  2.9079
  234MOL0     H32292   2.735   4.642   1.269  0.9023 -1.5412  3.0715
  235MOL0     O32293  11.249   2.473   4.905 -0.3387 -0.3375 -0.0994
  235MOL0     C32294  11.179   2.453   5.005 -0.5234  0.2602  0.9575
  235MOL0     O32295  11.203   2.354   5.091 -0.0109 -0.6094 -0.1015
  235MOL0     C32296  11.315   2.283   5.079  0.0363 -0.8341 -0.9015
  235MOL0     C32297  11.305   2.153   5.139  0.1670 -0.1840 -0.2297
  235MOL0     C32298  11.414   2.067   5.130  0.0115 -0.6864 -1.1198
  235MOL0     C32299  11.537   2.104   5.076 -0.6785 -0.1288 -0.6886
  235MOL0     O32300  11.638   2.011   5.053  0.3370 -0.3781 -0.8281
  235MOL0     C32301  11.633   1.881   5.117  0.0307  1.1190 -0.0934
  235MOL0     C32302  11.750   1.796   5.052 -0.6584 -0.2780 -0.2519
  235MOL0     C32303  11.876   1.805   5.143  0.2114 -0.7062  1.1514
  235MOL0     C32304  11.981   1.726   5.083 -0.2853  0.0781 -1.4375
  235MOL0     C32305  12.126   1.774   5.119 -0.6805  0.4810  0.4779
  235MOL0     C32306  12.154   1.820   5.259 -0.3046  0.0419 -0.2091
  235MOL0     C32307  12.299   1.844   5.299 -0.1411  0.4532 -0.6142
  235MOL0     C32308  12.373   1.965   5.229  0.3364  0.3419  0.0692
  235MOL0     N32309  12.512   1.971   5.274 -0.4340 -0.3038 -0.4455
  235MOL0     C32310  12.612   1.912   5.203  0.2126 -0.1345 -0.1862
  235MOL0     C32311  12.716   1.911   5.290 -1.0557 -0.3338 -0.3621
  235MOL0     C32312  12.846   1.843   5.276  0.3717 -0.4255 -0.2156
  235MOL0     C32313  12.843   1.708   5.200 -0.5784 -0.0948 -0.3952
  235MOL0     C32314  12.982   1.627   5.203  0.4710  0.1206  0.1051
  235MOL0     C32315  13.045   1.620   5.338  0.4848  0.1292  0.4087
  235MOL0     O32316  13.140   1.510   5.343  0.1009  0.1827 -0.6076
  235MOL0     C32317  13.268   1.536   5.303  0.4111 -0.4109 -0.6585
  235MOL0     C32318  13.318   1.656   5.259  0.8571  0.8766 -0.0587
  235MOL0     C32319  13.441   1.674   5.211 -0.2513  0.3530 -0.7420
  235MOL0     C32320  13.500   1.809   5.169 -0.8486 -0.2541 -0.0627
  235MOL0     C32321  13.539   1.564   5.219  0.3158 -0.1354  0.0003
  235MOL0     C32322  13.676   1.567   5.163  0.2163  0.7997  0.2565
  235MOL0     O32323  13.708   1.466   5.077  0.7407  0.5668 -0.2592
  235MOL0     C32324  13.828   1.461   5.028 -0.4468  0.1941 -0.2307
  235MOL0     C32325  13.857   1.532   4.915  0.5833 -0.0523  0.8541
  235MOL0     C32326  13.986   1.535   4.862  0.0833 -0.0491 -0.9604
  235MOL0     C32327  14.088   1.466   4.920 -0.0709 -0.3683 -0.3192
  235MOL0     O32328  14.214   1.478   4.879  0.2426  0.8217  0.5501
  235MOL0     C32329  14.312   1.374   4.911  0.3994  0.2193  0.8382
  235MOL0     C32330  14.448   1.381   4.828 -0.8125 -0.1576 -0.3078
  235MOL0     C32331  14.418   1.390   4.678 -0.3273  0.2868 -0.6339
  235MOL0     C32332  14.543   1.371   4.594 -0.2810 -0.5940  0.2322
  235MOL0     C32333  14.651   1.481   4.595  0.4545 -1.0131  0.2529
  235MOL0     C32334  14.606   1.619   4.544  0.5244  0.3546  0.7956
  235MOL0     C32335  14.710   1.731   4.545 -0.7009  0.2991 -0.0226
  235MOL0     C32336  14.662   1.867   4.524  0.5903 -0.7802 -0.3334
  235MOL0    Cl32337  14.776   2.009   4.507  0.0720 -0.0297 -0.0294
  235MOL0     C32338  14.059   1.386   5.029 -0.2476 -0.1253 -0.3362
  235MOL0     C32339  13.929   1.388   5.091 -0.4232  0.1362  0.1180
  235MOL0     O32340  13.756   1.649   5.201 -0.8083 -0.1678 -0.0008
  235MOL0     C32341  13.484   1.444   5.261 -0.2491  0.4243 -0.4328
  235MOL0     C32342  13.350   1.425   5.302 -0.0764 -0.1743  0.0666
  235MOL0     N32343  12.679   1.977   5.406  0.5412 -0.2480  0.5043
  235MOL0     N32344  12.557   2.002   5.399 -0.1260  0.6179  0.1103
  235MOL0     C32345  11.551   2.236   5.027 -0.2372  0.6009 -0.2181
  235MOL0     C32346  11.448   2.326   5.041 -0.0816  0.5338 -0.1566
  235MOL0     C32347  11.041   2.513   5.010  0.1052 -0.1684 -1.0425
  235MOL0     C32348  10.941   2.436   5.064 -0.2617  0.4540 -0.4772
  235MOL0     C32349  10.810   2.483   5.070  0.0854 -0.1983  0.6376
  235MOL0     C32350  10.774   2.621   5.032 -0.3225 -0.4114  0.7090
  235MOL0     O32351  10.647   2.681   5.042  0.2958 -0.4684 -0.3941
  235MOL0     C32352  10.549   2.615   5.125 -0.4965  0.3950 -0.0510
  235MOL0     C32353  10.423   2.699   5.137  1.3537  0.1908  0.3595
  235MOL0     C32354  10.449   2.836   5.192 -0.3497 -0.0356  0.0102
  235MOL0     C32355  10.315   2.911   5.191 -0.4361  0.3621 -0.1036
  235MOL0     C32356  10.208   2.864   5.282 -0.0752 -0.8547  0.3793
  235MOL0     C32357  10.115   2.832   5.349 -1.0985  0.4120 -0.2861
  235MOL0     C32358  10.880   2.703   4.989  0.5532 -0.3185  0.0350
  235MOL0     C32359  11.012   2.646   4.976 -0.1768 -0.3215  0.2995
  235MOL0     C32360  11.126   2.742   4.949  0.1837  0.7718  0.0032
  235MOL0     H32361  11.207   2.130   5.178 -0.4173  2.5170  0.1243
  235MOL0     H32362  11.399   1.962   5.152  3.2318 -0.5627  2.7675
  235MOL0     H32363  11.546   1.827   5.078  1.7814  0.0645 -2.7981
  235MOL0     H32364  11.643   1.882   5.226 -2.2509 -0.9175  0.2306
  235MOL0     H32365  11.712   1.695   5.033 -2.9431  0.5474 -0.3739
  235MOL0     H32366  11.785   1.844   4.961  1.5688  2.0981  1.6975
  235MOL0     H32367  11.897   1.912   5.150 -3.7999  0.2953  0.6106
  235MOL0     H32368  11.854   1.772   5.245  1.1527 -0.2062  1.5297
  235MOL0     H32369  11.958   1.624   5.118 -0.0551  0.6570  0.5663
  235MOL0     H32370  11.975   1.724   4.974 -1.2235  0.9159 -1.4239
  235MOL0     H32371  12.151   1.855   5.050 -0.8971 -0.7907 -1.1508
  235MOL0     H32372  12.197   1.692   5.109 -0.8913  0.4121 -0.4992
  235MOL0     H32373  12.093   1.905   5.290  1.6110  1.2612  0.3673
  235MOL0     H32374  12.118   1.745   5.330 -3.6422  0.1308 -1.6061
  235MOL0     H32375  12.366   1.762   5.272  2.0379  1.1138  2.2653
  235MOL0     H32376  12.289   1.861   5.406  0.1206  0.7082 -0.6291
  235MOL0     H32377  12.375   1.958   5.120 -1.0113  0.3629  0.0301
  235MOL0     H32378  12.325   2.062   5.248 -1.3201 -0.0088 -1.9789
  235MOL0     H32379  12.598   1.890   5.098 -0.0207  0.0495 -0.1951
  235MOL0     H32380  12.877   1.818   5.378 -2.5818 -2.1266  0.3927
  235MOL0     H32381  12.913   1.913   5.227  1.0611 -0.7737  0.2165
  235MOL0     H32382  12.769   1.642   5.246  0.9014 -0.9177  0.9166
  235MOL0     H32383  12.803   1.726   5.100  0.3486  0.3689 -0.6933
  235MOL0     H32384  12.970   1.531   5.151 -1.1270 -0.4198  1.4083
  235MOL0     H32385  13.037   1.698   5.140 -0.4046 -0.3274 -1.2046
  235MOL0     H32386  13.085   1.716   5.372  1.8788  0.2411 -1.4014
  235MOL0     H32387  12.966   1.588   5.406 -2.6964 -1.8231 -3.7739
  235MOL0     H32388  13.250   1.740   5.270 -1.4620 -1.0454  1.1044
  235MOL0     H32389  13.573   1.843   5.243 -0.0836 -0.5485 -0.6640
  235MOL0     H32390  13.417   1.879   5.157  0.7811  1.6115 -1.1841
  235MOL0     H32391  13.543   1.794   5.069 -3.4080 -1.4112 -1.0536
  235MOL0     H32392  13.776   1.588   4.869 -0.7189 -1.2160  1.6895
  235MOL0     H32393  14.007   1.599   4.777 -1.0708 -1.1281 -2.1021
  235MOL0     H32394  14.328   1.386   5.018 -3.9320  0.0281  1.6760
  235MOL0     H32395  14.258   1.283   4.885 -1.7458  2.0207 -1.6084
  235MOL0     H32396  14.506   1.470   4.854 -1.4197 -0.3862  2.0646
  235MOL0     H32397  14.512   1.294   4.845 -1.5850 -0.7341 -0.2859
  235MOL0     H32398  14.370   1.487   4.661 -1.9763 -0.7217 -2.0618
  235MOL0     H32399  14.345   1.314   4.651  0.5621 -0.9670  0.3481
  235MOL0     H32400  14.511   1.352   4.491  1.7579 -0.7057 -0.4209
  235MOL0     H32401  14.599   1.280   4.620  0.7992 -0.6094 -1.9768
  235MOL0     H32402  14.683   1.483   4.700 -0.6509 -1.1135  0.6045
  235MOL0     H32403  14.732   1.462   4.524 -1.0993  0.4767 -2.0674
  235MOL0     H32404  14.521   1.652   4.604 -1.1960 -0.4638 -1.0920
  235MOL0     H32405  14.570   1.611   4.441 -3.1304  0.4813  1.9376
  235MOL0     H32406  14.780   1.705   4.466  0.2614 -2.9369  1.7209
  235MOL0     H32407  14.763   1.728   4.641  2.7187  0.2759 -1.8031
  235MOL0     H32408  14.593   1.892   4.605  1.6829 -1.1461  0.7338
  235MOL0     H32409  14.600   1.870   4.434  2.2556  4.8496 -1.7024
  235MOL0     H32410  14.139   1.325   5.072 -0.7826 -0.8419 -0.3334
  235MOL0     H32411  13.911   1.321   5.176 -0.1815 -2.0860 -1.4874
  235MOL0     H32412  13.550   1.358   5.249  0.2236  0.9378 -1.6482
  235MOL0     H32413  13.329   1.322   5.329  1.8952 -1.5152 -2.9350
  235MOL0     H32414  11.646   2.282   5.001 -1.4865  3.2889 -0.4131
  235MOL0     H32415  11.468   2.424   5.000 -1.0737  0.4227 -0.9661
  235MOL0     H32416  10.948   2.331   5.092  0.0887  1.2249  2.7431
  235MOL0     H32417  10.746   2.403   5.107 -0.4728 -0.5729 -1.0225
  235MOL0     H32418  10.524   2.525   5.068  0.1756  1.7517 -2.6838
  235MOL0     H32419  10.594   2.583   5.220 -0.7892 -1.9817 -0.6539
  235MOL0     H32420  10.344   2.650   5.194  2.5418 -1.1404  0.9108
  235MOL0     H32421  10.378   2.712   5.038 -0.1511  0.1085  1.0132
  235MOL0     H32422  10.491   2.826   5.292  1.6779  0.4228 -0.7517
  235MOL0     H32423  10.512   2.896   5.127  1.0497 -2.0983 -0.6414
  235MOL0     H32424  10.282   2.903   5.087 -0.4991 -2.0616  0.0444
  235MOL0     H32425  10.333   3.019   5.199 -0.9212  0.6212 -2.0375
  235MOL0     H32426  10.038   2.778   5.400  0.1003 -1.0854 -0.0008
  235MOL0     H32427  10.853   2.806   4.965 -1.6653 -0.5529  1.2475
  235MOL0     H32428  11.166   2.720   4.850 -0.3167 -0.8883  0.1381
  235MOL0     H32429  11.111   2.850   4.950  3.7281  1.3587  0.7954
  235MOL0     H32430  11.204   2.717   5.020  0.7298  0.0396 -0.8318
  236MOL0     O32431   2.020   4.160   0.308  0.1185 -0.1806  0.3606
  236MOL0     C32432   1.910   4.108   0.348 -0.2201 -0.1662 -0.1131
  236MOL0     O32433   1.898   4.005   0.441  0.0625  0.0478 -0.5369
  236MOL0     C32434   1.998   3.954   0.521  0.0295  0.2443  0.0638
  236MOL0     C32435   2.135   3.971   0.488 -0.0644  0.7158 -0.5388
  236MOL0     C32436   2.238   3.932   0.585 -0.9192 -0.2510 -0.4296
  236MOL0     C32437   2.198   3.879   0.710  0.1087 -0.2976 -0.0397
  236MOL0     O32438   2.291   3.863   0.807 -0.4443 -0.3837 -0.7719
  236MOL0     C32439   2.429   3.834   0.784 -0.3035 -0.3216 -0.0345
  236MOL0     C32440   2.492   3.798   0.909  0.8582  0.5698  0.1170
  236MOL0     C32441   2.617   3.712   0.884 -0.0872 -0.2990 -0.9113
  236MOL0     C32442   2.737   3.805   0.862 -0.5625 -0.2198 -0.4906
  236MOL0     C32443   2.864   3.727   0.807  0.3609  0.4646 -0.2396
  236MOL0     C32444   2.996   3.817   0.807  0.2324  0.0612 -0.8023
  236MOL0     C32445   3.056   3.857   0.943 -0.2761  0.8786 -0.0532
  236MOL0     C32446   3.173   3.959   0.923  0.5536  0.5590  0.4222
  236MOL0     N32447   3.287   3.888   0.850 -0.0599 -0.3952 -0.5910
  236MOL0     C32448   3.384   3.818   0.913  0.3509  0.0434 -0.5661
  236MOL0     C32449   3.483   3.813   0.827 -0.1644  0.5477 -0.3960
  236MOL0     C32450   3.615   3.757   0.858 -0.0433  1.2142  0.0332
  236MOL0     C32451   3.723   3.821   0.773 -0.0751 -0.5386 -0.6023
  236MOL0     C32452   3.745   3.969   0.800  0.1895  0.5893 -0.0638
  236MOL0     C32453   3.879   4.001   0.756  0.3488 -0.6303 -0.8411
  236MOL0     O32454   3.893   4.141   0.719  0.0734 -0.2622 -0.8143
  236MOL0     C32455   4.004   4.196   0.660  0.1561 -1.0815  0.5076
  236MOL0     C32456   4.021   4.337   0.635  0.6089 -0.1510  0.4257
  236MOL0     C32457   4.133   4.394   0.574  0.4402 -0.1995 -0.0398
  236MOL0     C32458   4.129   4.540   0.552 -0.3216  0.6574 -0.2416
  236MOL0     C32459   4.242   4.314   0.537  0.5367 -0.7066 -0.3926
  236MOL0     C32460   4.353   4.354   0.453 -0.9630  0.4830 -0.2845
  236MOL0     O32461   4.328   4.441   0.352  0.4337 -1.1443 -0.3743
  236MOL0     C32462   4.440   4.518   0.312  0.1419  0.3576  0.2184
  236MOL0     C32463   4.447   4.650   0.348 -0.0390 -0.1243 -0.2909
  236MOL0     C32464   4.536   4.738   0.280  0.3401 -0.1382  0.5243
  236MOL0     C32465   4.627   4.698   0.182 -0.5359  0.8967 -0.4976
  236MOL0     O32466   4.719   4.788   0.135 -0.2557 -0.0226  0.0426
  236MOL0     C32467   4.794   4.776   0.011 -0.4315  0.0562 -0.1507
  236MOL0     C32468   4.945   4.747   0.039  1.0823  0.2860  0.1107
  236MOL0     C32469   5.035   4.870   0.003  0.2709 -0.3903  0.6091
  236MOL0     C32470   5.173   4.870   0.076 -0.8299  0.0610 -0.0973
  236MOL0     C32471   5.293   4.954   0.017 -0.5190 -0.1037  0.3931
  236MOL0     C32472   5.420   4.932   0.097 -0.7938  0.2743 -0.0193
  236MOL0     C32473   5.460   4.784   0.116 -0.3152 -0.7210  0.3763
  236MOL0     C32474   5.486   4.699  -0.010  0.9181 -0.3004  0.1313
  236MOL0    Cl32475   5.567   4.794  -0.136 -0.1544  0.3388 -0.0308
  236MOL0     C32476   4.630   4.562   0.144  0.9233 -0.0346  0.2586
  236MOL0     C32477   4.530   4.479   0.203 -0.9838  0.0281 -0.7032
  236MOL0     O32478   4.465   4.304   0.472  0.1568  0.1561 -0.2473
  236MOL0     C32479   4.228   4.180   0.559 -0.1409  0.5701 -1.0780
  236MOL0     C32480   4.126   4.123   0.633 -0.0053 -0.3020  0.0188
  236MOL0     N32481   3.441   3.869   0.713 -0.1959 -0.6372 -0.5344
  236MOL0     N32482   3.328   3.923   0.732  0.7898  0.1345  0.2164
  236MOL0     C32483   2.066   3.853   0.733  0.4432 -0.7247 -0.4306
  236MOL0     C32484   1.966   3.885   0.641  0.0435  1.2980  0.2219
  236MOL0     C32485   1.795   4.150   0.263 -0.5853 -0.4593 -0.3436
  236MOL0     C32486   1.826   4.208   0.138 -0.5142  0.4821 -0.5018
  236MOL0     C32487   1.731   4.258   0.053 -0.1898  0.6267 -0.0831
  236MOL0     C32488   1.597   4.227   0.084  0.3617 -0.3007  0.2664
  236MOL0     O32489   1.506   4.279  -0.000  0.6910 -0.0990  0.2152
  236MOL0     C32490   1.396   4.194  -0.028  0.4194  0.4101 -0.1038
  236MOL0     C32491   1.266   4.278  -0.051 -0.3820 -0.3596 -0.5528
  236MOL0     C32492   1.240   4.386   0.054 -0.1915  1.2409  0.4686
  236MOL0     C32493   1.092   4.409   0.064  0.0538 -1.0138 -0.2047
  236MOL0     C32494   1.044   4.542   0.113 -0.4998  0.2876 -0.2965
  236MOL0     C32495   0.998   4.657   0.146  0.0464 -0.6081 -0.3801
  236MOL0     C32496   1.559   4.175   0.212  0.7336 -0.1464  0.5314
  236MOL0     C32497   1.656   4.153   0.302 -0.3732 -0.7519  0.1670
  236MOL0     C32498   1.618   4.116   0.441 -0.1620 -0.4172  0.5105
  236MOL0     H32499   2.171   4.012   0.395 -0.9498 -0.2786 -1.3467
  236MOL0     H32500   2.344   3.950   0.573 -1.3272  0.7856 -3.0698
  236MOL0     H32501   2.479   3.923   0.746 -2.8353  1.0940 -0.2703
  236MOL0     H32502   2.443   3.769   0.697 -0.5200  2.9551 -2.7238
  236MOL0     H32503   2.524   3.880   0.974  3.0444  0.6769 -1.0254
  236MOL0     H32504   2.419   3.739   0.966  2.6965 -0.0597  1.9190
  236MOL0     H32505   2.635   3.645   0.969 -0.1061  0.8733  0.0447
  236MOL0     H32506   2.599   3.659   0.790  3.6326 -0.2683 -1.7941
  236MOL0     H32507   2.712   3.880   0.786  0.6335 -0.9100 -1.5980
  236MOL0     H32508   2.768   3.852   0.955 -0.9715  1.2730 -1.0881
  236MOL0     H32509   2.847   3.692   0.705  3.9468 -1.3281 -0.3929
  236MOL0     H32510   2.872   3.634   0.864 -1.4770 -0.5711 -1.5779
  236MOL0     H32511   3.070   3.751   0.761 -0.5286 -2.8007  1.7330
  236MOL0     H32512   2.978   3.905   0.744 -2.3666  0.4646  0.3601
  236MOL0     H32513   3.088   3.765   0.993  2.6713  1.5819 -0.4398
  236MOL0     H32514   2.992   3.914   1.010 -0.3202  2.0211 -1.0257
  236MOL0     H32515   3.134   4.034   0.852 -2.4463 -2.3157 -1.2472
  236MOL0     H32516   3.210   4.003   1.016 -0.0568  1.8215  0.0869
  236MOL0     H32517   3.381   3.777   1.013 -1.8781 -1.0987 -1.0332
  236MOL0     H32518   3.601   3.652   0.828 -0.2916  1.5295 -1.0228
  236MOL0     H32519   3.642   3.770   0.963 -3.0812  1.0793  0.9221
  236MOL0     H32520   3.810   3.759   0.796 -1.0444 -1.4938  0.5953
  236MOL0     H32521   3.704   3.807   0.666 -1.5113  1.5698 -0.6833
  236MOL0     H32522   3.671   4.021   0.738  0.5005 -0.3467 -1.2631
  236MOL0     H32523   3.727   3.991   0.906  1.0036 -1.1540  0.4690
  236MOL0     H32524   3.954   3.977   0.832 -0.4297 -0.1190  0.0989
  236MOL0     H32525   3.899   3.933   0.673 -0.0777 -2.7022  0.6871
  236MOL0     H32526   3.939   4.400   0.668  2.0249  1.9206  0.1627
  236MOL0     H32527   4.146   4.561   0.446  1.0344 -0.6300 -0.3198
  236MOL0     H32528   4.213   4.590   0.601 -1.3743  0.0735  2.2676
  236MOL0     H32529   4.032   4.575   0.587  0.8367  3.7880  0.1497
  236MOL0     H32530   4.370   4.689   0.414 -0.5364 -2.0242  0.3125
  236MOL0     H32531   4.537   4.839   0.318  3.3307  0.3856 -0.6767
  236MOL0     H32532   4.747   4.698  -0.049  0.6113 -0.5397 -0.2019
  236MOL0     H32533   4.777   4.864  -0.051 -0.0138 -0.8339 -1.5641
  236MOL0     H32534   4.951   4.718   0.144  1.3338  1.2205  0.3634
  236MOL0     H32535   4.978   4.662  -0.022  0.4460  0.7755 -0.9509
  236MOL0     H32536   4.976   4.959   0.027  0.8346  0.7632 -1.9324
  236MOL0     H32537   5.049   4.883  -0.104 -1.5094  2.7820  0.6309
  236MOL0     H32538   5.210   4.767   0.083 -0.5160  0.2043  0.3564
  236MOL0     H32539   5.149   4.914   0.173 -1.1761  1.9360 -0.9793
  236MOL0     H32540   5.311   4.918  -0.085  1.0470  2.7006 -0.4034
  236MOL0     H32541   5.266   5.060   0.017 -1.7150 -0.3954  0.4727
  236MOL0     H32542   5.404   4.977   0.196 -1.3740 -2.1063  1.0371
  236MOL0     H32543   5.492   4.990   0.039  0.4671  0.2082  1.4155
  236MOL0     H32544   5.390   4.729   0.179  1.4995 -3.5877  0.0982
  236MOL0     H32545   5.555   4.765   0.167 -0.2390 -0.4070  0.3529
  236MOL0     H32546   5.393   4.663  -0.055  0.9205 -0.1497  0.0081
  236MOL0     H32547   5.539   4.608   0.020 -1.4564 -1.7318  0.2114
  236MOL0     H32548   4.693   4.514   0.069  2.7663 -2.0108  2.8668
  236MOL0     H32549   4.535   4.371   0.187  2.7992 -0.1159  0.4245
  236MOL0     H32550   4.306   4.110   0.530 -0.3916 -0.6323  0.8851
  236MOL0     H32551   4.121   4.023   0.673 -0.6040 -1.0878 -1.8856
  236MOL0     H32552   2.043   3.808   0.829 -0.0827  1.6206  0.6280
  236MOL0     H32553   1.860   3.868   0.656  0.3455 -3.1513 -1.3322
  236MOL0     H32554   1.925   4.239   0.106  1.1901 -2.3078  1.5739
  236MOL0     H32555   1.740   4.314  -0.039 -2.0254  2.8874  1.0128
  236MOL0     H32556   1.413   4.129  -0.114 -2.5583  0.5217 -0.8580
  236MOL0     H32557   1.371   4.125   0.053 -0.0127 -0.7635 -1.2026
  236MOL0     H32558   1.186   4.203  -0.042 -0.0342 -0.6012  0.8064
  236MOL0     H32559   1.271   4.328  -0.148  0.4274 -1.7386 -1.2510
  236MOL0     H32560   1.279   4.340   0.146  0.7174 -1.5249 -1.1903
  236MOL0     H32561   1.292   4.481   0.033  0.4448  0.6312 -0.8177
  236MOL0     H32562   1.049   4.326   0.121 -0.3390 -0.0554  0.9476
  236MOL0     H32563   1.038   4.400  -0.031 -0.1984 -2.3290  0.0455
  236MOL0     H32564   0.978   4.758   0.177  1.0693  0.3245 -2.5452
  236MOL0     H32565   1.461   4.190   0.255 -0.0265  1.3197 -1.5733
  236MOL0     H32566   1.660   4.187   0.514  2.0323  0.9001 -1.8725
  236MOL0     H32567   1.509   4.120   0.439 -0.3669  2.2862 -5.4078
  236MOL0     H32568   1.655   4.017   0.469 -3.1908 -1.4927  1.0677
  237MOL0     O32569   2.482   3.703   4.960  0.5284  0.3106  0.6639
  237MOL0     C32570   2.379   3.698   5.028  0.6122 -0.8735  0.4881
  237MOL0     O32571   2.370   3.663   5.156  0.2977  0.0287 -0.2315
  237MOL0     C32572   2.493   3.634   5.215  0.8581  0.1726  0.9341
  237MOL0     C32573   2.536   3.501   5.220 -0.8731 -0.1792 -0.7912
  237MOL0     C32574   2.669   3.473   5.252  0.6985 -0.3937  0.2472
  237MOL0     C32575   2.759   3.572   5.294 -0.6486 -0.0444  0.2093
  237MOL0     O32576   2.890   3.552   5.337 -0.3151  0.0345  0.0290
  237MOL0     C32577   2.922   3.421   5.392  0.3076  0.3236 -0.9378
  237MOL0     C32578   2.993   3.332   5.277 -0.1213 -0.9544  0.1458
  237MOL0     C32579   3.148   3.342   5.260 -0.4052 -0.3689  0.7182
  237MOL0     C32580   3.237   3.279   5.367  0.0522 -0.3098  0.4786
  237MOL0     C32581   3.384   3.333   5.359  0.0497 -0.1378 -0.1663
  237MOL0     C32582   3.450   3.257   5.476 -0.4744  0.5232  0.4229
  237MOL0     C32583   3.602   3.278   5.476  0.6608  0.2078 -1.0613
  237MOL0     C32584   3.657   3.227   5.603 -0.0429  0.0329  0.4254
  237MOL0     N32585   3.796   3.273   5.614 -0.0982  0.9309 -0.3704
  237MOL0     C32586   3.898   3.187   5.578 -0.7080 -0.0166 -0.3777
  237MOL0     C32587   4.008   3.244   5.623  0.7823 -0.3298 -0.0160
  237MOL0     C32588   4.148   3.180   5.619  0.2905  0.9495 -0.6533
  237MOL0     C32589   4.144   3.028   5.625 -0.0733 -0.7234  0.6359
  237MOL0     C32590   4.074   2.983   5.762 -0.7508  0.1949  0.4652
  237MOL0     C32591   4.130   3.042   5.905  0.5488 -0.5596  0.0573
  237MOL0     O32592   4.275   3.051   5.907 -0.5938 -0.0217 -0.8691
  237MOL0     C32593   4.338   2.929   5.920 -0.0463 -0.1562 -0.3649
  237MOL0     C32594   4.456   2.916   5.843 -0.6476  0.6957 -1.3892
  237MOL0     C32595   4.539   2.802   5.862  0.3673 -0.2303 -0.0166
  237MOL0     C32596   4.659   2.792   5.782 -0.2456  0.5879 -1.0987
  237MOL0     C32597   4.492   2.699   5.947 -0.2672  0.7505  0.0262
  237MOL0     C32598   4.567   2.572   5.962 -0.0514  0.3586 -0.1669
  237MOL0     O32599   4.492   2.460   5.978  0.3844 -0.2517  0.0659
  237MOL0     C32600   4.536   2.334   6.002 -0.2526 -0.1419  0.8669
  237MOL0     C32601   4.442   2.249   6.069 -0.2829 -0.5849  0.2828
  237MOL0     C32602   4.476   2.113   6.100 -0.2001  0.2598 -0.7173
  237MOL0     C32603   4.598   2.058   6.057 -0.2051 -0.3120 -0.3076
  237MOL0     O32604   4.614   1.923   6.074  0.3316  0.4818 -0.8491
  237MOL0     C32605   4.730   1.868   6.013  0.0299 -0.0876 -0.4801
  237MOL0     C32606   4.721   1.717   5.989 -0.1974 -0.3321  0.0946
  237MOL0     C32607   4.865   1.662   5.975 -0.1411  0.5919 -0.6128
  237MOL0     C32608   4.906   1.655   5.833  0.0853  0.5074 -0.3740
  237MOL0     C32609   5.050   1.614   5.817  0.3364  0.5647 -0.6795
  237MOL0     C32610   5.116   1.625   5.678  0.4807 -0.4714 -0.0805
  237MOL0     C32611   5.257   1.583   5.676  0.2617  0.9233 -0.0552
  237MOL0     C32612   5.326   1.593   5.543  0.2173 -0.0797  0.1955
  237MOL0    Cl32613   5.240   1.507   5.414  0.2127  0.5422 -0.0869
  237MOL0     C32614   4.692   2.144   5.996 -0.8698  0.4139  0.4234
  237MOL0     C32615   4.670   2.281   5.979 -0.3461 -0.2116  0.4181
  237MOL0     O32616   4.694   2.572   5.969  0.4911  0.2427 -0.6853
  237MOL0     C32617   4.376   2.714   6.025  0.3064 -0.3414  0.1203
  237MOL0     C32618   4.307   2.829   6.016  0.1669  0.4059  0.3000
  237MOL0     N32619   3.977   3.361   5.687  0.6901  0.0504  0.1405
  237MOL0     N32620   3.854   3.385   5.671 -0.0244  0.4637 -0.1028
  237MOL0     C32621   2.715   3.702   5.297 -0.1968 -0.0297  0.7695
  237MOL0     C32622   2.580   3.731   5.259  0.0314 -0.7298  0.5717
  237MOL0     C32623   2.253   3.701   4.953  0.5655 -0.3803  0.2068
  237MOL0     C32624   2.140   3.640   5.007 -0.5442 -0.1252 -0.2920
  237MOL0     C32625   2.012   3.672   4.961 -0.3262  0.2686 -0.1441
  237MOL0     C32626   1.990   3.759   4.859  0.3641  0.3814 -0.4668
  237MOL0     O32627   1.858   3.785   4.827 -0.4077  0.5164 -0.2642
  237MOL0     C32628   1.833   3.900   4.737 -0.2992 -0.1230 -0.0799
  237MOL0     C32629   1.684   3.933   4.746  0.6831  0.4460 -0.1425
  237MOL0     C32630   1.641   3.979   4.886  0.0993  0.0167 -0.1301
  237MOL0     C32631   1.715   4.090   4.953 -0.1016 -0.3175  0.3174
  237MOL0     C32632   1.669   4.102   5.091 -0.1275 -0.8333  0.1357
  237MOL0     C32633   1.626   4.129   5.204 -0.4009 -0.0404 -0.5563
  237MOL0     C32634   2.103   3.807   4.785 -0.0777  0.2373 -0.1531
  237MOL0     C32635   2.238   3.788   4.835  0.8685 -0.8497  1.2853
  237MOL0     C32636   2.347   3.867   4.771  0.6196 -0.1557 -0.0864
  237MOL0     H32637   2.471   3.418   5.198 -2.1795  0.8151 -0.7813
  237MOL0     H32638   2.702   3.370   5.246 -1.0681 -0.9828 -0.0933
  237MOL0     H32639   2.835   3.366   5.429 -0.5144  1.3805 -1.2605
  237MOL0     H32640   2.994   3.442   5.471  0.8626  0.9286 -1.5982
  237MOL0     H32641   2.969   3.227   5.297 -0.2651 -0.8607  0.4776
  237MOL0     H32642   2.950   3.371   5.184 -0.0306  0.0099  0.4935
  237MOL0     H32643   3.184   3.303   5.165 -1.3469 -3.4063  1.5072
  237MOL0     H32644   3.165   3.450   5.261 -3.1756  0.1963 -0.9461
  237MOL0     H32645   3.203   3.308   5.467 -0.0877 -1.9761  0.9556
  237MOL0     H32646   3.225   3.170   5.359  0.8142 -0.2868 -1.7763
  237MOL0     H32647   3.392   3.439   5.381 -0.5243 -0.5013  2.0186
  237MOL0     H32648   3.429   3.311   5.262 -0.2175 -3.1361  0.2786
  237MOL0     H32649   3.400   3.285   5.570 -1.1536  0.1254  0.1904
  237MOL0     H32650   3.443   3.148   5.467  2.0457  0.2232  1.3262
  237MOL0     H32651   3.625   3.385   5.477 -2.2591  0.9692  1.1861
  237MOL0     H32652   3.629   3.230   5.382 -1.7164 -0.1789 -1.6184
  237MOL0     H32653   3.595   3.260   5.688 -0.3444  0.0887  0.1845
  237MOL0     H32654   3.653   3.118   5.596  0.6237  0.0280  0.0420
  237MOL0     H32655   3.898   3.091   5.528  0.8134 -1.9868  3.0496
  237MOL0     H32656   4.197   3.211   5.712  0.9214 -2.1340  0.1651
  237MOL0     H32657   4.201   3.199   5.525 -1.2526 -0.9294 -1.9899
  237MOL0     H32658   4.090   2.993   5.537  1.4579  1.3951 -1.2513
  237MOL0     H32659   4.246   2.990   5.616 -0.1369 -0.7270 -0.1436
  237MOL0     H32660   3.966   3.001   5.755 -0.7364  0.3245  0.5730
  237MOL0     H32661   4.086   2.875   5.765 -0.4486  0.2382  0.9405
  237MOL0     H32662   4.095   3.144   5.918 -1.4014 -1.5227  3.6743
  237MOL0     H32663   4.099   2.986   5.993 -0.1556 -0.7371 -0.2961
  237MOL0     H32664   4.492   2.993   5.774  1.0608  0.8894 -0.3161
  237MOL0     H32665   4.667   2.877   5.713 -0.3099  0.1587 -1.6400
  237MOL0     H32666   4.660   2.698   5.726 -0.5556  0.2250 -0.5109
  237MOL0     H32667   4.745   2.786   5.850  0.4602  0.3960 -1.9981
  237MOL0     H32668   4.347   2.299   6.088 -1.0441 -1.6500 -0.5474
  237MOL0     H32669   4.408   2.053   6.160  1.8137 -3.4313 -1.8089
  237MOL0     H32670   4.756   1.903   5.913  0.0109 -1.9206 -1.1654
  237MOL0     H32671   4.817   1.896   6.073  1.1682 -1.2318 -1.5390
  237MOL0     H32672   4.667   1.664   6.069 -0.5249  1.7027  1.3024
  237MOL0     H32673   4.662   1.689   5.902 -2.4465 -1.8512  1.9750
  237MOL0     H32674   4.870   1.561   6.017  0.7974  0.4731 -0.9697
  237MOL0     H32675   4.939   1.720   6.031  1.6747 -0.3629 -1.8917
  237MOL0     H32676   4.911   1.759   5.798  1.1779  1.0843  1.3745
  237MOL0     H32677   4.830   1.602   5.775  0.7041 -1.4920  0.5477
  237MOL0     H32678   5.100   1.664   5.901 -1.0731  1.1473 -0.1498
  237MOL0     H32679   5.053   1.511   5.853 -3.1088  0.5903 -0.0345
  237MOL0     H32680   5.123   1.733   5.660 -0.7342 -0.2000  0.8724
  237MOL0     H32681   5.060   1.567   5.605 -3.1835 -0.2157  2.2698
  237MOL0     H32682   5.279   1.481   5.708  2.7025  1.3345 -0.2320
  237MOL0     H32683   5.313   1.654   5.737  0.5069  2.2917 -1.7942
  237MOL0     H32684   5.428   1.554   5.544  1.0377  1.9199  0.2993
  237MOL0     H32685   5.333   1.699   5.517 -0.9458  0.6255  2.4885
  237MOL0     H32686   4.785   2.104   5.959 -1.5176 -0.7411 -0.0003
  237MOL0     H32687   4.743   2.349   5.934 -0.9102  0.4999  0.5577
  237MOL0     H32688   4.339   2.631   6.085  0.8144 -0.4734  0.2606
  237MOL0     H32689   4.222   2.832   6.084 -1.5313 -1.6738 -1.5880
  237MOL0     H32690   2.778   3.782   5.335  0.6006  0.7859 -1.9628
  237MOL0     H32691   2.526   3.825   5.256  0.0400 -0.7231 -1.6943
  237MOL0     H32692   2.143   3.574   5.093 -4.6145 -0.2232 -0.0750
  237MOL0     H32693   1.928   3.621   5.008  1.1165 -0.4304  1.8108
  237MOL0     H32694   1.887   3.992   4.763  0.7708 -0.8697  0.4205
  237MOL0     H32695   1.870   3.883   4.636  1.7528  2.0797  0.2241
  237MOL0     H32696   1.632   3.838   4.729 -0.5930  1.3162 -1.3109
  237MOL0     H32697   1.660   3.995   4.660 -0.4588  0.2151 -0.0044
  237MOL0     H32698   1.540   4.016   4.865 -1.7996 -2.9459  2.7341
  237MOL0     H32699   1.629   3.891   4.951  0.3264  0.7201  0.8828
  237MOL0     H32700   1.709   4.178   4.889  1.4274  0.5417  1.3223
  237MOL0     H32701   1.823   4.074   4.954 -0.0768 -0.6410  3.5721
  237MOL0     H32702   1.602   4.161   5.303 -1.0160  0.3073 -0.8125
  237MOL0     H32703   2.085   3.867   4.697 -1.1449  1.2140  0.7083
  237MOL0     H32704   2.313   3.917   4.680 -2.3756 -0.5686  0.7161
  237MOL0     H32705   2.364   3.944   4.847 -3.0113  0.7517 -0.0038
  237MOL0     H32706   2.431   3.798   4.755 -0.4399 -1.4139 -0.4290
  238MOL0     O32707   9.185   9.146   4.322 -0.0016 -0.4614  0.3428
  238MOL0     C32708   9.119   9.045   4.342  0.2863  0.2226 -0.1831
  238MOL0     O32709   9.143   8.962   4.435  0.4901  0.0793 -0.1656
  238MOL0     C32710   9.248   8.963   4.520  0.3208  0.3844  0.3110
  238MOL0     C32711   9.385   8.988   4.475  0.4381 -0.3809 -0.0447
  238MOL0     C32712   9.490   8.960   4.562  0.0582  0.7037  0.1045
  238MOL0     C32713   9.458   8.913   4.693 -0.1478 -0.5981  0.4120
  238MOL0     O32714   9.576   8.900   4.770  0.6218  0.1928 -0.6234
  238MOL0     C32715   9.565   8.850   4.906  0.3181  0.8758  0.4078
  238MOL0     C32716   9.531   8.699   4.900  0.5889  0.4289  0.3321
  238MOL0     C32717   9.573   8.624   5.030  0.5737  0.3936  0.6055
  238MOL0     C32718   9.568   8.468   5.000 -0.1886 -0.0117 -0.9395
  238MOL0     C32719   9.447   8.427   4.913  1.4866  0.1395 -0.0248
  238MOL0     C32720   9.418   8.275   4.921 -0.6326  0.3311  0.0715
  238MOL0     C32721   9.526   8.199   4.860  0.0085 -0.5072  0.0679
  238MOL0     C32722   9.506   8.048   4.844  0.2292 -0.6328 -0.5522
  238MOL0     N32723   9.642   7.986   4.821  0.2335 -0.1039  0.2312
  238MOL0     C32724   9.733   7.943   4.912  0.0913  0.8967  0.1364
  238MOL0     C32725   9.791   7.832   4.855 -0.8012 -0.5675 -0.6331
  238MOL0     C32726   9.908   7.741   4.909 -0.1208 -0.0167 -0.0132
  238MOL0     C32727  10.045   7.818   4.904 -0.2790 -0.3704  1.1789
  238MOL0     C32728  10.164   7.713   4.928 -0.4083  0.1895 -0.4080
  238MOL0     C32729  10.294   7.783   4.946 -0.1754 -0.5100 -0.4305
  238MOL0     O32730  10.295   7.866   5.064  0.2781  0.2761 -0.2974
  238MOL0     C32731  10.403   7.942   5.091  1.1630 -0.8537 -0.6402
  238MOL0     C32732  10.529   7.918   5.047  0.1341 -0.0304  0.5337
  238MOL0     C32733  10.639   7.991   5.085  0.2579  0.0495 -0.3535
  238MOL0     C32734  10.765   7.973   5.009 -0.0977 -0.6230  0.2902
  238MOL0     C32735  10.628   8.095   5.195 -0.2352 -0.0736  0.6633
  238MOL0     C32736  10.737   8.178   5.252  0.1382  0.3348  0.0159
  238MOL0     O32737  10.859   8.188   5.188  0.1351 -0.4189 -0.0052
  238MOL0     C32738  10.965   8.259   5.243  0.2150 -0.4258 -0.3681
  238MOL0     C32739  11.021   8.222   5.364  0.8870 -0.6834 -0.7623
  238MOL0     C32740  11.121   8.300   5.421 -0.2004 -0.0445  0.3522
  238MOL0     C32741  11.158   8.427   5.372 -0.0303 -0.6282 -0.0404
  238MOL0     O32742  11.253   8.521   5.421 -0.1769  0.3021  0.7912
  238MOL0     C32743  11.311   8.497   5.557  0.3669 -0.0093  0.9738
  238MOL0     C32744  11.440   8.582   5.581 -0.1734  0.0093 -0.2816
  238MOL0     C32745  11.399   8.724   5.565 -0.5099 -1.2176 -0.0318
  238MOL0     C32746  11.513   8.834   5.577 -0.0093 -0.8858  0.2360
  238MOL0     C32747  11.626   8.815   5.476 -0.0969  0.6213 -0.1206
  238MOL0     C32748  11.665   8.954   5.449 -0.3215  0.7097  0.3015
  238MOL0     C32749  11.799   8.959   5.365 -0.8404 -0.1311  0.4451
  238MOL0     C32750  11.817   9.086   5.285  0.0897  0.4812 -0.5324
  238MOL0    Cl32751  11.815   9.223   5.386 -0.0350  0.5429 -0.3923
  238MOL0     C32752  11.099   8.465   5.254  0.1244 -0.5184  0.5653
  238MOL0     C32753  11.001   8.389   5.195 -1.5390  0.2145 -0.3674
  238MOL0     O32754  10.713   8.229   5.365 -0.1525 -0.4908  0.2815
  238MOL0     C32755  10.499   8.118   5.234 -0.0334 -0.4369  0.3024
  238MOL0     C32756  10.390   8.043   5.193 -0.1746  0.9753 -0.5328
  238MOL0     N32757   9.740   7.826   4.724 -0.4382 -0.3937 -0.1813
  238MOL0     N32758   9.651   7.913   4.703  0.9648 -0.3730 -0.1296
  238MOL0     C32759   9.330   8.891   4.731  0.5092 -0.1121  0.3316
  238MOL0     C32760   9.225   8.909   4.645 -0.5040 -0.1726 -0.1337
  238MOL0     C32761   8.996   9.021   4.253  0.1868 -1.2323  0.6728
  238MOL0     C32762   8.946   8.885   4.249  0.4453 -0.8484 -0.3094
  238MOL0     C32763   8.833   8.852   4.177 -0.5674  0.0198 -0.6065
  238MOL0     C32764   8.754   8.946   4.114 -0.3999 -0.0953 -0.3912
  238MOL0     O32765   8.647   8.904   4.040  0.0660  0.1213 -0.7535
  238MOL0     C32766   8.603   8.989   3.932  0.3267  0.6663  0.3134
  238MOL0     C32767   8.514   8.915   3.840  1.0016  0.0272  0.9169
  238MOL0     C32768   8.371   8.902   3.894  0.3475 -0.5279 -0.2812
  238MOL0     C32769   8.312   8.763   3.881  0.1457 -0.2524 -0.0437
  238MOL0     C32770   8.163   8.778   3.900 -0.2622  0.7517  0.9564
  238MOL0     C32771   8.048   8.794   3.943  0.1188 -0.6971 -0.5328
  238MOL0     C32772   8.808   9.076   4.111  0.0716 -0.0297 -1.1349
  238MOL0     C32773   8.924   9.115   4.180 -0.2413 -0.2617  0.6360
  238MOL0     C32774   8.964   9.265   4.164  0.0454  0.4101  0.5593
  238MOL0     H32775   9.405   9.026   4.376 -1.6873  1.6572  0.2244
  238MOL0     H32776   9.593   8.983   4.537  0.2987 -0.6003 -0.1555
  238MOL0     H32777   9.481   8.902   4.953 -2.0011  0.4967 -2.9981
  238MOL0     H32778   9.658   8.872   4.960  1.9593  1.2606 -2.3952
  238MOL0     H32779   9.423   8.686   4.883 -0.2036  2.2619  3.1698
  238MOL0     H32780   9.585   8.652   4.818  2.7372  1.6267  0.9837
  238MOL0     H32781   9.678   8.651   5.035  1.3796 -0.7887 -4.4264
  238MOL0     H32782   9.509   8.646   5.116  0.3834  1.5586  0.1819
  238MOL0     H32783   9.662   8.439   4.952  2.0845 -0.2705  3.2377
  238MOL0     H32784   9.564   8.413   5.094 -1.4481 -0.5961 -1.3073
  238MOL0     H32785   9.453   8.460   4.809 -0.8759 -0.6158 -0.4641
  238MOL0     H32786   9.353   8.467   4.952 -1.2313 -3.5494 -2.0767
  238MOL0     H32787   9.404   8.251   5.027 -0.1323  0.0771  0.0824
  238MOL0     H32788   9.323   8.257   4.869 -1.3197 -0.2986  1.4804
  238MOL0     H32789   9.615   8.218   4.920  0.4817  0.8720 -1.0078
  238MOL0     H32790   9.554   8.245   4.765 -0.4092 -0.0130  0.1818
  238MOL0     H32791   9.462   8.000   4.932 -1.5522  0.1481 -0.9700
  238MOL0     H32792   9.440   8.022   4.761  1.6511 -1.8337 -1.3644
  238MOL0     H32793   9.739   7.978   5.015 -0.7066 -2.4558  1.4349
  238MOL0     H32794   9.892   7.650   4.850 -5.2448  0.9766 -0.6004
  238MOL0     H32795   9.894   7.704   5.011  1.5718 -0.4104  0.1039
  238MOL0     H32796  10.057   7.853   4.801 -1.6142 -1.5613  0.5852
  238MOL0     H32797  10.048   7.908   4.967  0.9985  1.3671 -1.1868
  238MOL0     H32798  10.143   7.637   5.003  2.4035 -1.1216 -0.8609
  238MOL0     H32799  10.171   7.651   4.838  1.1227  0.1404 -0.2744
  238MOL0     H32800  10.370   7.707   4.967 -0.5970 -1.0277 -0.7617
  238MOL0     H32801  10.326   7.845   4.862  0.5172  1.6561  1.3253
  238MOL0     H32802  10.548   7.839   4.975  0.1947  0.7526 -0.3247
  238MOL0     H32803  10.747   7.920   4.915  0.9127 -3.8452  1.7986
  238MOL0     H32804  10.835   7.920   5.074 -0.7305 -1.8978 -0.0449
  238MOL0     H32805  10.810   8.071   4.986  1.4436 -0.4708  3.3692
  238MOL0     H32806  10.980   8.134   5.412  0.0035 -1.3883 -2.7067
  238MOL0     H32807  11.175   8.258   5.505  0.0588 -0.2621  0.0824
  238MOL0     H32808  11.230   8.520   5.626 -1.7068  0.1930 -1.3790
  238MOL0     H32809  11.346   8.395   5.576 -0.5090 -0.6771 -0.7758
  238MOL0     H32810  11.481   8.571   5.682 -0.2453  2.9816  0.1544
  238MOL0     H32811  11.519   8.560   5.508  1.7052 -0.5395  1.7750
  238MOL0     H32812  11.321   8.752   5.637  0.3344  1.8985 -0.2024
  238MOL0     H32813  11.360   8.745   5.465  2.2899  0.9448 -0.7983
  238MOL0     H32814  11.556   8.835   5.677 -1.2836  3.9321  0.9853
  238MOL0     H32815  11.449   8.923   5.571  2.2507  0.7614 -0.8039
  238MOL0     H32816  11.697   8.755   5.532  0.6690  0.8116 -0.8615
  238MOL0     H32817  11.588   8.769   5.384  0.7687 -1.4049  0.4840
  238MOL0     H32818  11.679   9.005   5.545 -1.8875 -0.5743  1.2655
  238MOL0     H32819  11.586   9.017   5.406 -0.1719  1.0892  0.5796
  238MOL0     H32820  11.800   8.883   5.286  0.9421  1.9117 -1.6108
  238MOL0     H32821  11.887   8.937   5.426 -0.9360 -3.8633 -0.4669
  238MOL0     H32822  11.734   9.093   5.214  2.4769  0.1781 -3.5659
  238MOL0     H32823  11.908   9.076   5.226 -0.3599  0.2088 -1.1973
  238MOL0     H32824  11.111   8.567   5.219  0.1856 -0.6792  0.1139
  238MOL0     H32825  10.955   8.410   5.099 -0.8716 -1.3907 -1.0754
  238MOL0     H32826  10.479   8.201   5.301  0.5682 -1.2098  1.4821
  238MOL0     H32827  10.286   8.061   5.219 -0.5533  0.8616 -1.8701
  238MOL0     H32828   9.295   8.860   4.830  0.8896 -0.7769  0.2640
  238MOL0     H32829   9.121   8.890   4.671 -0.7307  1.9090  0.6644
  238MOL0     H32830   9.005   8.806   4.294  1.1707 -0.4838 -0.6056
  238MOL0     H32831   8.821   8.746   4.155 -0.8593 -0.0792  0.0096
  238MOL0     H32832   8.548   9.076   3.967 -0.5247  0.8840 -1.4985
  238MOL0     H32833   8.694   8.997   3.873  0.3486 -0.7230  0.1203
  238MOL0     H32834   8.557   8.815   3.825 -0.4767 -0.7580  1.7071
  238MOL0     H32835   8.518   8.969   3.745  1.1545 -0.4781  0.6288
  238MOL0     H32836   8.348   8.942   3.993 -1.7743  1.7584 -1.5577
  238MOL0     H32837   8.317   8.968   3.825  0.9851  0.4363  0.1296
  238MOL0     H32838   8.355   8.684   3.943 -1.9317 -0.5208  1.1588
  238MOL0     H32839   8.325   8.734   3.776  0.0718  3.2555 -1.1534
  238MOL0     H32840   7.946   8.808   3.974 -0.5973  1.5849 -3.4505
  238MOL0     H32841   8.751   9.158   4.068  0.1186  0.5940 -0.0562
  238MOL0     H32842   8.911   9.321   4.087  1.3387 -0.7626 -1.2678
  238MOL0     H32843   8.951   9.314   4.261  1.0736  2.3315 -0.2246
  238MOL0     H32844   9.071   9.264   4.139 -0.1900 -2.8574 -0.9387
  239MOL0     O32845   4.981   7.336   4.480 -0.6161  0.6396 -0.2892
  239MOL0     C32846   4.923   7.341   4.583 -0.4608  0.5319 -0.2304
  239MOL0     O32847   4.982   7.335   4.705  0.6535  0.1694 -0.0110
  239MOL0     C32848   5.117   7.354   4.721 -0.1208 -0.1930 -0.2740
  239MOL0     C32849   5.153   7.446   4.817  0.3343  0.1878  0.4640
  239MOL0     C32850   5.292   7.475   4.829  0.0805 -0.7039 -0.7886
  239MOL0     C32851   5.390   7.414   4.761 -0.7674 -0.5675 -0.2244
  239MOL0     O32852   5.527   7.445   4.786  0.4888  0.5666 -0.0051
  239MOL0     C32853   5.621   7.352   4.735  1.0493  0.5438  0.4719
  239MOL0     C32854   5.749   7.355   4.819 -0.4044  0.0223  0.3881
  239MOL0     C32855   5.856   7.260   4.770  0.2003 -0.1990 -0.4536
  239MOL0     C32856   5.999   7.308   4.800 -0.1790  0.8451  1.2908
  239MOL0     C32857   6.106   7.216   4.738  0.2528  0.0315  0.4978
  239MOL0     C32858   6.254   7.246   4.788 -0.2900 -0.3634 -0.0050
  239MOL0     C32859   6.368   7.169   4.710  0.3772  0.3235  0.1137
  239MOL0     C32860   6.498   7.168   4.796  0.1231  0.1942 -0.2470
  239MOL0     N32861   6.613   7.191   4.710 -0.1168  0.0217  0.4352
  239MOL0     C32862   6.695   7.302   4.718  0.9922 -0.8106 -0.4957
  239MOL0     C32863   6.791   7.261   4.628  0.1810 -0.0974 -0.9238
  239MOL0     C32864   6.898   7.357   4.585 -0.5552 -0.3058  0.0512
  239MOL0     C32865   7.021   7.295   4.526  0.0207  0.3003 -0.3123
  239MOL0     C32866   7.134   7.398   4.530  0.1534 -0.0272  0.3159
  239MOL0     C32867   7.257   7.351   4.472 -0.2577  0.3518  0.5835
  239MOL0     O32868   7.360   7.460   4.460  0.1470  0.3466  0.1070
  239MOL0     C32869   7.496   7.421   4.436  1.1343 -0.0504  0.1661
  239MOL0     C32870   7.542   7.293   4.427  0.0636 -0.2644  0.1758
  239MOL0     C32871   7.673   7.277   4.373  0.4686  0.6366  0.1648
  239MOL0     C32872   7.715   7.137   4.343  0.1997 -0.0813 -0.5887
  239MOL0     C32873   7.754   7.387   4.335  0.5610  0.3074 -0.0671
  239MOL0     C32874   7.883   7.375   4.272  0.6119 -0.6135  0.4867
  239MOL0     O32875   7.969   7.279   4.307 -0.0042  0.0873 -0.0278
  239MOL0     C32876   8.103   7.312   4.290  0.3029 -0.2656 -0.1342
  239MOL0     C32877   8.181   7.257   4.186 -0.6810 -0.2055 -0.0441
  239MOL0     C32878   8.318   7.274   4.187  0.6589 -0.4410  0.3784
  239MOL0     C32879   8.375   7.363   4.278 -0.1970 -0.5538 -0.4143
  239MOL0     O32880   8.503   7.403   4.257 -0.1994 -0.5476  0.5213
  239MOL0     C32881   8.564   7.497   4.346 -0.0627  0.2890  0.1868
  239MOL0     C32882   8.701   7.523   4.298 -0.2550  0.4940 -0.2092
  239MOL0     C32883   8.795   7.408   4.349  0.3595 -1.5004 -0.1794
  239MOL0     C32884   8.929   7.419   4.289 -0.2398 -0.5246 -0.0302
  239MOL0     C32885   9.003   7.290   4.314 -0.6442  0.7866 -0.0756
  239MOL0     C32886   9.151   7.310   4.270 -0.2133  0.2170  0.6793
  239MOL0     C32887   9.246   7.203   4.332 -0.3896 -0.2019 -0.2166
  239MOL0     C32888   9.199   7.068   4.297 -0.3654  0.3403 -0.2445
  239MOL0    Cl32889   9.187   7.044   4.114 -0.6599  0.3727 -0.1080
  239MOL0     C32890   8.294   7.421   4.381  0.4947  0.7679 -0.3328
  239MOL0     C32891   8.155   7.397   4.379 -0.4317 -0.2642 -0.1030
  239MOL0     O32892   7.906   7.465   4.183  0.3384  0.4730  0.2397
  239MOL0     C32893   7.703   7.512   4.360 -0.2488  0.6277  0.3020
  239MOL0     C32894   7.576   7.526   4.396 -0.3288  0.6426  0.1070
  239MOL0     N32895   6.766   7.142   4.568  0.1178 -0.5180  0.2776
  239MOL0     N32896   6.655   7.099   4.620  0.3580 -0.5041 -0.1464
  239MOL0     C32897   5.348   7.310   4.669 -1.0576 -0.4741  0.5471
  239MOL0     C32898   5.215   7.289   4.646  0.6551  0.3813  0.0603
  239MOL0     C32899   4.773   7.354   4.572  0.5186  0.9718  1.2027
  239MOL0     C32900   4.701   7.305   4.459 -0.4631  0.1357  0.0346
  239MOL0     C32901   4.561   7.314   4.449 -0.5598 -0.5145  1.1311
  239MOL0     C32902   4.488   7.365   4.545 -0.1166 -0.8770 -0.1151
  239MOL0     O32903   4.351   7.354   4.535  0.3067  0.0134 -0.0074
  239MOL0     C32904   4.281   7.461   4.595 -0.5320  0.4148  0.2470
  239MOL0     C32905   4.300   7.594   4.518 -0.3415  0.8408 -0.7917
  239MOL0     C32906   4.218   7.713   4.589 -0.4931 -0.2766 -0.4252
  239MOL0     C32907   4.140   7.800   4.491  0.6520 -0.7321 -0.1199
  239MOL0     C32908   4.048   7.885   4.572 -0.4599 -0.7000 -1.2076
  239MOL0     C32909   3.983   7.968   4.632  0.2783 -0.4923  0.4822
  239MOL0     C32910   4.558   7.425   4.647  0.1867 -0.5134  0.1012
  239MOL0     C32911   4.692   7.407   4.673  0.2329 -0.4477 -0.6910
  239MOL0     C32912   4.751   7.452   4.801 -0.5039  0.4043  0.7805
  239MOL0     H32913   5.077   7.504   4.867  0.4316 -1.2891  2.4333
  239MOL0     H32914   5.332   7.557   4.887 -0.3851 -0.7093 -0.4548
  239MOL0     H32915   5.627   7.355   4.625  0.3977 -0.5117  0.3908
  239MOL0     H32916   5.585   7.252   4.761  1.7801 -0.0582 -0.7264
  239MOL0     H32917   5.796   7.451   4.795  0.2884 -0.5793 -0.7265
  239MOL0     H32918   5.734   7.340   4.926  0.7031  0.9224  0.6939
  239MOL0     H32919   5.837   7.158   4.807 -1.2136 -0.4789 -1.8640
  239MOL0     H32920   5.844   7.259   4.661  0.2696  2.1088 -0.5328
  239MOL0     H32921   6.014   7.409   4.760 -2.3361  0.3495 -1.0228
  239MOL0     H32922   5.999   7.316   4.909 -4.0469  3.7696  1.3053
  239MOL0     H32923   6.097   7.234   4.630  0.7993  0.2855  0.4873
  239MOL0     H32924   6.080   7.111   4.751 -3.0160  0.3996 -1.7803
  239MOL0     H32925   6.275   7.354   4.796 -1.4294 -0.1946  0.8983
  239MOL0     H32926   6.257   7.206   4.890  1.9167 -1.8854 -0.5931
  239MOL0     H32927   6.376   7.218   4.613  0.4005  2.2033  1.0330
  239MOL0     H32928   6.341   7.064   4.696  0.9739  0.1783  0.0232
  239MOL0     H32929   6.501   7.248   4.871 -0.4643 -0.0654  0.0617
  239MOL0     H32930   6.503   7.073   4.850  1.0579  0.3347 -0.0573
  239MOL0     H32931   6.675   7.397   4.767 -1.6630 -0.5097 -1.9872
  239MOL0     H32932   6.923   7.437   4.656  1.1616 -0.1898 -0.6249
  239MOL0     H32933   6.863   7.413   4.497  1.1689  0.6112 -0.1095
  239MOL0     H32934   7.052   7.209   4.586  0.8636 -0.2749 -1.5368
  239MOL0     H32935   6.992   7.259   4.427 -3.3202 -1.5667  1.1464
  239MOL0     H32936   7.098   7.478   4.465  1.7153  0.5533  0.1202
  239MOL0     H32937   7.163   7.446   4.623  2.1092 -3.7228  1.8461
  239MOL0     H32938   7.289   7.276   4.545 -0.7710  1.7274  2.3053
  239MOL0     H32939   7.251   7.320   4.367  4.3964  3.5809 -1.0105
  239MOL0     H32940   7.472   7.211   4.439 -0.2227 -0.0388  0.0474
  239MOL0     H32941   7.756   7.129   4.242  3.4919  5.0649 -0.0430
  239MOL0     H32942   7.639   7.062   4.366  1.3770 -2.1104 -2.8450
  239MOL0     H32943   7.798   7.111   4.410 -0.4216  0.1791  0.2999
  239MOL0     H32944   8.140   7.190   4.111  1.3406  0.2856 -1.6731
  239MOL0     H32945   8.380   7.232   4.109  0.7692  0.9327 -0.2979
  239MOL0     H32946   8.511   7.591   4.327 -0.9171 -0.2821 -0.3210
  239MOL0     H32947   8.560   7.467   4.451 -0.3934  0.2366  0.1604
  239MOL0     H32948   8.705   7.531   4.189  1.8259  1.2756 -0.1042
  239MOL0     H32949   8.732   7.618   4.343  0.3578 -0.1232  0.7056
  239MOL0     H32950   8.751   7.310   4.331 -0.8099 -1.0487  0.1001
  239MOL0     H32951   8.809   7.432   4.455  2.0194  1.4266 -0.9292
  239MOL0     H32952   8.993   7.503   4.320 -0.9049  0.4272 -1.1846
  239MOL0     H32953   8.914   7.433   4.182 -2.2052  3.5183  0.5767
  239MOL0     H32954   8.997   7.262   4.419  2.6092 -2.3210 -0.5224
  239MOL0     H32955   8.962   7.210   4.251 -0.0861 -1.0386  1.7651
  239MOL0     H32956   9.202   7.400   4.307 -0.3422  0.6500 -0.1448
  239MOL0     H32957   9.152   7.314   4.160  0.7845  0.8355  0.6984
  239MOL0     H32958   9.249   7.222   4.439  1.0799  2.0194 -0.5822
  239MOL0     H32959   9.349   7.223   4.301 -0.6740  1.6727 -0.1209
  239MOL0     H32960   9.108   7.034   4.347  0.1430  2.2640  2.1948
  239MOL0     H32961   9.281   7.007   4.335  0.7625  3.6054  3.2412
  239MOL0     H32962   8.326   7.489   4.460 -0.5389  0.3386  0.4794
  239MOL0     H32963   8.092   7.451   4.449  2.0586  0.6149  1.6265
  239MOL0     H32964   7.758   7.604   4.346  0.2135 -0.0071 -2.6379
  239MOL0     H32965   7.529   7.621   4.374 -2.1743  0.1386  1.6372
  239MOL0     H32966   5.416   7.240   4.620 -0.9519 -0.0149  0.0265
  239MOL0     H32967   5.189   7.210   4.576 -0.0687 -0.9956  1.7981
  239MOL0     H32968   4.764   7.244   4.394  0.8730 -1.4764  2.6792
  239MOL0     H32969   4.507   7.279   4.361  2.3347  0.9126 -1.3775
  239MOL0     H32970   4.176   7.440   4.574 -0.5505  1.5541 -0.8931
  239MOL0     H32971   4.306   7.468   4.702  1.7027 -4.4379  0.3180
  239MOL0     H32972   4.269   7.578   4.414 -0.6515 -0.1160 -0.5553
  239MOL0     H32973   4.404   7.629   4.515 -0.1191  0.1237 -1.6204
  239MOL0     H32974   4.149   7.668   4.661 -3.4480  0.3494 -2.6662
  239MOL0     H32975   4.289   7.780   4.638  1.2054 -1.4543 -1.1717
  239MOL0     H32976   4.074   7.735   4.433 -0.3855 -0.4095  0.6540
  239MOL0     H32977   4.211   7.855   4.429  0.0450 -0.9246 -1.0010
  239MOL0     H32978   3.935   8.056   4.671  0.2920  0.3380 -1.2684
  239MOL0     H32979   4.503   7.481   4.722 -3.1652  0.5912 -2.8884
  239MOL0     H32980   4.787   7.365   4.856 -0.8020 -0.6311 -0.6310
  239MOL0     H32981   4.823   7.530   4.775 -0.8568  1.1766  2.0090
  239MOL0     H32982   4.675   7.494   4.869 -0.1737  2.7947 -0.2230
  240MOL0     O32983   2.783   4.368   9.339 -0.7353 -0.2668 -0.2143
  240MOL0     C32984   2.808   4.391   9.228  0.1118 -0.6788  0.8367
  240MOL0     O32985   2.924   4.386   9.165 -0.1800 -0.2313  0.5807
  240MOL0     C32986   3.027   4.315   9.212 -0.3218  0.0733  0.4531
  240MOL0     C32987   3.150   4.345   9.152  0.8020 -0.4084  0.0001
  240MOL0     C32988   3.262   4.266   9.184 -0.2609 -0.6143  0.7427
  240MOL0     C32989   3.251   4.165   9.280 -0.4063 -0.6921 -0.8129
  240MOL0     O32990   3.376   4.107   9.305  0.2175  0.7156  0.0974
  240MOL0     C32991   3.368   3.966   9.348 -0.0962 -0.2493 -0.1503
  240MOL0     C32992   3.511   3.913   9.321  0.8193 -0.0673 -0.6631
  240MOL0     C32993   3.605   3.954   9.445  0.4613  0.8588  1.0053
  240MOL0     C32994   3.747   3.933   9.399  0.2452 -0.1985  0.0582
  240MOL0     C32995   3.849   3.987   9.498  0.3499  0.3550  0.7396
  240MOL0     C32996   3.825   3.915   9.638  0.8216 -0.1774 -0.0188
  240MOL0     C32997   3.945   3.908   9.736  0.0675  0.4346  0.6888
  240MOL0     C32998   4.011   4.043   9.753  0.6281 -0.3294 -0.1333
  240MOL0     N32999   4.137   4.024   9.838  0.2756 -0.2929 -0.0568
  240MOL0     C33000   4.158   3.931   9.945  1.0922 -0.1546 -0.1919
  240MOL0     C33001   4.288   3.933   9.973 -0.0957 -0.1091  0.1520
  240MOL0     C33002   4.354   3.851  10.072  0.2121 -0.0990 -0.5480
  240MOL0     C33003   4.499   3.874  10.099 -0.4263  0.0748  0.4873
  240MOL0     C33004   4.523   4.005  10.179  0.0783  0.5249  0.3011
  240MOL0     C33005   4.679   4.022  10.197  0.0770 -0.1953  0.4926
  240MOL0     O33006   4.736   3.926  10.288 -0.1243 -0.0270 -0.5665
  240MOL0     C33007   4.870   3.928  10.307  0.0061  0.2430 -0.4190
  240MOL0     C33008   4.920   3.878  10.433 -0.2602 -0.0388  0.2688
  240MOL0     C33009   5.050   3.848  10.455  0.1675  0.1750 -0.4073
  240MOL0     C33010   5.085   3.782  10.588 -0.3826  0.8661 -0.8549
  240MOL0     C33011   5.146   3.883  10.355  0.3765 -0.1908  0.5618
  240MOL0     C33012   5.290   3.856  10.360 -0.2577 -0.0158 -0.0022
  240MOL0     O33013   5.373   3.912  10.268  0.2768  0.1670  0.7230
  240MOL0     C33014   5.510   3.905  10.271  0.7628 -0.5696  0.4476
  240MOL0     C33015   5.598   3.889  10.384 -1.1022 -0.4134  0.5654
  240MOL0     C33016   5.735   3.890  10.379 -0.8736 -0.4046  0.1043
  240MOL0     C33017   5.794   3.915  10.256 -0.2305  0.1721  0.6075
  240MOL0     O33018   5.928   3.894  10.250  0.2747 -0.4898  0.0505
  240MOL0     C33019   6.004   3.975  10.153  0.1311 -0.8434  0.3377
  240MOL0     C33020   6.137   4.023  10.206  0.3644 -0.3269  0.3723
  240MOL0     C33021   6.182   4.156  10.145 -0.0942  0.0806 -0.8594
  240MOL0     C33022   6.313   4.221  10.201  0.1770 -0.4739  0.3303
  240MOL0     C33023   6.435   4.217  10.114  0.1877 -0.4964 -0.2690
  240MOL0     C33024   6.496   4.074  10.099  0.6614  0.2129  0.1577
  240MOL0     C33025   6.631   4.064  10.033  0.2147  0.5615 -0.0863
  240MOL0     C33026   6.607   4.075   9.878  0.7065  0.1151  0.7157
  240MOL0    Cl33027   6.774   4.060   9.812  0.2715 -0.1936 -0.1191
  240MOL0     C33028   5.711   3.948  10.140 -0.1482  0.8253 -0.1962
  240MOL0     C33029   5.573   3.946  10.151 -0.5285  0.5817  0.5099
  240MOL0     O33030   5.323   3.759  10.428 -0.1703  0.0062 -0.7178
  240MOL0     C33031   5.103   3.949  10.237 -0.6088 -0.2309 -1.2902
  240MOL0     C33032   4.969   3.967  10.219 -0.4935 -0.7564  0.4765
  240MOL0     N33033   4.346   4.022   9.887  0.4049  0.1326 -0.5984
  240MOL0     N33034   4.262   4.068   9.804  0.2707  0.3502 -0.0778
  240MOL0     C33035   3.128   4.130   9.348 -0.0840  0.5540 -0.0153
  240MOL0     C33036   3.019   4.212   9.305  0.2672 -0.1410 -0.0240
  240MOL0     C33037   2.698   4.449   9.145 -0.0259  0.2750  0.4956
  240MOL0     C33038   2.736   4.518   9.023  0.1477  0.0485  0.0504
  240MOL0     C33039   2.640   4.563   8.932 -0.7768 -0.0542 -0.6265
  240MOL0     C33040   2.506   4.559   8.963 -0.5800  1.1716 -0.2112
  240MOL0     O33041   2.412   4.616   8.876  0.1332  0.1813  0.4261
  240MOL0     C33042   2.345   4.533   8.781 -0.0570 -0.1127 -0.1749
  240MOL0     C33043   2.257   4.612   8.681 -0.0762  0.1881 -0.4221
  240MOL0     C33044   2.186   4.721   8.761 -0.1172 -0.6354 -0.7784
  240MOL0     C33045   2.066   4.767   8.680 -0.4113  0.2882  0.3326
  240MOL0     C33046   1.982   4.853   8.772 -0.2337 -0.5106 -0.4858
  240MOL0     C33047   1.935   4.934   8.848 -0.1606  0.2113 -0.3283
  240MOL0     C33048   2.470   4.490   9.079 -0.5079  0.0685  0.1242
  240MOL0     C33049   2.561   4.438   9.179  0.2961 -0.8805  1.1001
  240MOL0     C33050   2.501   4.359   9.288 -0.6764 -0.5639  0.0154
  240MOL0     H33051   3.144   4.431   9.085 -2.4912 -0.1445  0.4765
  240MOL0     H33052   3.353   4.289   9.130 -0.8960  2.1867  0.6954
  240MOL0     H33053   3.295   3.901   9.298  1.4363 -0.9667 -1.5594
  240MOL0     H33054   3.346   3.959   9.454 -1.1019 -0.7839 -0.3823
  240MOL0     H33055   3.510   3.807   9.294 -2.0645 -0.5015  0.6891
  240MOL0     H33056   3.541   3.965   9.230 -2.7610  2.3648 -0.6711
  240MOL0     H33057   3.585   4.057   9.477 -0.3924  1.0157  0.0022
  240MOL0     H33058   3.583   3.893   9.534  0.5542 -2.3430 -1.0130
  240MOL0     H33059   3.760   3.830   9.366 -0.4231  0.5365 -2.7772
  240MOL0     H33060   3.774   3.988   9.309  0.4281  0.5110  0.5335
  240MOL0     H33061   3.852   4.096   9.499  0.5049  0.3664 -0.4313
  240MOL0     H33062   3.947   3.953   9.464 -0.5384 -3.4663  1.4326
  240MOL0     H33063   3.744   3.965   9.692  0.4770  2.0137 -2.3839
  240MOL0     H33064   3.788   3.815   9.614 -0.5806  0.8193 -2.3011
  240MOL0     H33065   4.020   3.843   9.691 -1.3129  0.2813 -1.5850
  240MOL0     H33066   3.901   3.854   9.820 -0.9013 -0.7347 -0.5333
  240MOL0     H33067   4.023   4.093   9.656 -0.9037 -0.6243 -0.5077
  240MOL0     H33068   3.944   4.109   9.809  0.6892  1.3912 -1.9500
  240MOL0     H33069   4.082   3.879  10.002 -2.1182  2.2323 -1.9623
  240MOL0     H33070   4.345   3.746  10.040 -1.9511  0.1273 -0.8541
  240MOL0     H33071   4.300   3.855  10.168 -1.6078 -0.6559 -1.4936
  240MOL0     H33072   4.543   3.787  10.147  0.4163  0.9577  1.3471
  240MOL0     H33073   4.549   3.874  10.002 -1.4713 -0.0327 -0.0713
  240MOL0     H33074   4.492   4.090  10.118 -1.1800  0.0089  0.1892
  240MOL0     H33075   4.470   4.020  10.273  2.0375 -3.1556  2.2602
  240MOL0     H33076   4.731   4.026  10.101  0.1481 -2.3225  0.3865
  240MOL0     H33077   4.701   4.119  10.242  0.3925  0.1834 -0.4491
  240MOL0     H33078   4.845   3.862  10.510 -0.7078  0.9297  0.0480
  240MOL0     H33079   5.181   3.824  10.621  0.2309 -2.1651  1.7361
  240MOL0     H33080   5.085   3.673  10.576 -2.5575  0.0291  4.1839
  240MOL0     H33081   5.009   3.798  10.665 -0.7715 -2.9672 -0.2484
  240MOL0     H33082   5.555   3.877  10.483 -1.0438  1.4787  0.8497
  240MOL0     H33083   5.800   3.875  10.465  0.2722  2.0772 -0.2555
  240MOL0     H33084   6.011   3.921  10.058 -0.2607  0.9483 -0.7536
  240MOL0     H33085   5.950   4.065  10.123 -1.7217 -2.2664 -0.8166
  240MOL0     H33086   6.119   4.038  10.313 -2.2274  1.4457 -0.2150
  240MOL0     H33087   6.212   3.946  10.191 -2.0307 -2.6632 -0.3751
  240MOL0     H33088   6.099   4.228  10.146 -0.6427 -0.3122 -4.4269
  240MOL0     H33089   6.208   4.138  10.041  3.3562  1.0636 -0.3018
  240MOL0     H33090   6.339   4.179  10.298 -0.0267  1.3793  1.2286
  240MOL0     H33091   6.293   4.329  10.210  0.8650 -0.4282  1.4241
  240MOL0     H33092   6.411   4.256  10.014 -0.2214  0.3735  0.1563
  240MOL0     H33093   6.499   4.289  10.166 -1.6685  0.8588  0.2818
  240MOL0     H33094   6.428   4.009  10.044 -0.8411  2.4493 -0.8156
  240MOL0     H33095   6.501   4.033  10.200  3.8700 -1.2278 -0.4634
  240MOL0     H33096   6.690   3.980  10.072 -0.0533 -0.1727 -1.2140
  240MOL0     H33097   6.686   4.155  10.061 -1.1507  1.4264 -0.1374
  240MOL0     H33098   6.565   4.166   9.834  1.4236  0.5477  0.8991
  240MOL0     H33099   6.561   3.980   9.849 -0.1824  0.4268  1.0530
  240MOL0     H33100   5.745   3.968  10.039 -1.0108 -0.8908 -0.8562
  240MOL0     H33101   5.514   3.977  10.066 -0.4294  3.5376  1.4225
  240MOL0     H33102   5.169   3.986  10.159 -0.4510  0.7852 -0.6847
  240MOL0     H33103   4.933   4.014  10.129 -2.7134 -0.6289  1.3638
  240MOL0     H33104   3.124   4.050   9.421 -3.5426 -0.6767 -1.3650
  240MOL0     H33105   2.928   4.168   9.345 -0.2796 -2.8467 -3.7293
  240MOL0     H33106   2.842   4.520   9.001  0.0616  0.1017 -0.3610
  240MOL0     H33107   2.684   4.601   8.840 -0.0798  2.1836  0.5673
  240MOL0     H33108   2.411   4.467   8.725 -0.8801 -0.7353 -0.4426
  240MOL0     H33109   2.290   4.455   8.835 -0.0789 -0.0892 -0.1622
  240MOL0     H33110   2.201   4.537   8.624 -0.0158  0.4037 -0.7680
  240MOL0     H33111   2.316   4.660   8.603 -0.9046  1.7533 -0.1204
  240MOL0     H33112   2.142   4.679   8.853 -1.4060 -0.3306 -1.2285
  240MOL0     H33113   2.253   4.802   8.792 -0.4545 -1.0542  1.1958
  240MOL0     H33114   2.014   4.679   8.640  1.8163  0.0717 -2.3949
  240MOL0     H33115   2.106   4.830   8.600  0.3384 -2.1230 -1.3060
  240MOL0     H33116   1.883   5.001   8.915 -0.9571  0.3328 -1.0503
  240MOL0     H33117   2.364   4.467   9.085  0.0100 -2.3629  1.9192
  240MOL0     H33118   2.519   4.410   9.383  1.0388 -1.5859  0.2756
  240MOL0     H33119   2.392   4.362   9.276 -0.8321  1.9125  1.3716
  240MOL0     H33120   2.541   4.258   9.300 -2.2429 -1.3084 -0.7055
  241MOL0     O33121   8.159   3.870   7.697 -1.1974 -0.3062  0.6288
  241MOL0     C33122   8.135   3.953   7.609 -0.0526 -0.6505  0.5882
  241MOL0     O33123   8.234   4.029   7.542  0.1908 -0.1603  1.1014
  241MOL0     C33124   8.355   4.032   7.600 -0.1949 -0.0950  0.3862
  241MOL0     C33125   8.406   4.147   7.657 -0.2629 -0.7338  0.2410
  241MOL0     C33126   8.537   4.155   7.714 -0.1360  0.2406 -1.1023
  241MOL0     C33127   8.618   4.042   7.697  0.5906 -0.7534  0.5652
  241MOL0     O33128   8.738   4.043   7.763  0.0457 -0.5467 -0.3603
  241MOL0     C33129   8.838   3.939   7.740 -0.3739 -0.7060 -0.0109
  241MOL0     C33130   8.978   3.991   7.765  1.0152  0.2471  0.7056
  241MOL0     C33131   9.042   3.945   7.892 -1.3822  0.2459  0.6344
  241MOL0     C33132   9.185   4.005   7.912 -0.0864  0.4201  0.0094
  241MOL0     C33133   9.253   3.934   8.031  0.0552 -0.2269 -0.7493
  241MOL0     C33134   9.389   3.986   8.062 -0.1639  0.0002 -0.0290
  241MOL0     C33135   9.468   3.930   8.189 -0.6012  0.4327 -0.2496
  241MOL0     C33136   9.615   3.976   8.181  0.0380 -0.6188  0.9578
  241MOL0     N33137   9.712   3.913   8.281  0.1079  0.2724  0.6079
  241MOL0     C33138   9.718   3.931   8.417  0.6512 -0.9752 -0.1651
  241MOL0     C33139   9.827   3.868   8.460  0.4804  0.4367 -0.5057
  241MOL0     C33140   9.867   3.863   8.601  0.2320  0.7194 -0.4974
  241MOL0     C33141  10.016   3.869   8.621  0.0797 -0.6068 -0.3072
  241MOL0     C33142  10.061   3.856   8.766 -0.3580 -0.1703  0.7470
  241MOL0     C33143  10.198   3.782   8.783 -0.4972 -1.0827  0.0311
  241MOL0     O33144  10.306   3.857   8.738  0.5377 -0.0762  0.8632
  241MOL0     C33145  10.429   3.857   8.792  0.1883  0.4148 -0.1013
  241MOL0     C33146  10.524   3.923   8.714 -0.2996 -0.3689  0.0846
  241MOL0     C33147  10.656   3.936   8.756 -0.2660  0.7758  0.4313
  241MOL0     C33148  10.757   4.004   8.668 -0.7444 -0.0238 -0.3019
  241MOL0     C33149  10.693   3.875   8.879  0.4096 -0.5478  0.4284
  241MOL0     C33150  10.828   3.883   8.942 -0.2362 -0.2408  0.5443
  241MOL0     O33151  10.932   3.927   8.869  0.4716 -0.0663 -0.0702
  241MOL0     C33152  11.057   3.921   8.929 -0.5214  0.7626 -0.6122
  241MOL0     C33153  11.111   3.810   9.003  0.0871  1.0374 -0.0273
  241MOL0     C33154  11.233   3.814   9.061 -0.4716 -0.4340 -0.1717
  241MOL0     C33155  11.316   3.922   9.043 -0.2127  0.4340  0.1265
  241MOL0     O33156  11.444   3.905   9.086 -0.2859  0.1457  0.2243
  241MOL0     C33157  11.537   4.012   9.073 -0.6291  0.7469  0.0451
  241MOL0     C33158  11.660   3.958   9.150  0.0041 -0.2173 -0.2935
  241MOL0     C33159  11.632   3.958   9.306  0.5227  0.4125 -0.0127
  241MOL0     C33160  11.763   3.981   9.386  0.0576  0.8782  0.3685
  241MOL0     C33161  11.738   4.013   9.528  0.7483  0.3588  0.1904
  241MOL0     C33162  11.853   4.071   9.599 -0.2759  0.0948 -0.5975
  241MOL0     C33163  11.961   3.963   9.629 -0.1842  0.6229 -0.9015
  241MOL0     C33164  12.090   4.012   9.705 -0.1128 -0.3662 -0.1898
  241MOL0    Cl33165  12.208   4.085   9.593  0.3804  0.0529 -0.2960
  241MOL0     C33166  11.262   4.032   8.975  0.4679 -0.6699 -0.0943
  241MOL0     C33167  11.136   4.036   8.919  0.1114  0.4242 -1.1815
  241MOL0     O33168  10.838   3.849   9.057  0.0733  0.2439 -0.1517
  241MOL0     C33169  10.596   3.810   8.956  0.5837 -0.3485  0.2572
  241MOL0     C33170  10.471   3.796   8.909  0.2358  0.3271 -0.4865
  241MOL0     N33171   9.884   3.809   8.355 -0.2130 -0.1514 -0.2939
  241MOL0     N33172   9.817   3.833   8.247  0.3577 -0.0501  0.3563
  241MOL0     C33173   8.575   3.930   7.628  0.3687  0.2280  0.7866
  241MOL0     C33174   8.444   3.927   7.582  0.6926 -0.6078 -0.0968
  241MOL0     C33175   7.989   3.974   7.572  0.1375  0.6387 -0.5236
  241MOL0     C33176   7.960   4.052   7.466  0.3374 -0.4498  0.7909
  241MOL0     C33177   7.831   4.081   7.426  0.2153  0.0704 -0.5182
  241MOL0     C33178   7.718   4.030   7.493 -0.2311  0.1987  0.6108
  241MOL0     O33179   7.587   4.045   7.474 -0.5186 -0.3996 -0.7818
  241MOL0     C33180   7.561   4.131   7.362 -0.4005  0.3138  0.0927
  241MOL0     C33181   7.411   4.146   7.335 -0.8560  0.2882 -0.3846
  241MOL0     C33182   7.358   4.024   7.268 -0.0260 -0.3987  0.6567
  241MOL0     C33183   7.210   4.026   7.240 -1.0679  0.2406 -0.1885
  241MOL0     C33184   7.178   4.092   7.114  0.9518 -0.5424  0.1071
  241MOL0     C33185   7.157   4.154   7.009 -0.0413  0.2230  0.1069
  241MOL0     C33186   7.745   3.934   7.600  0.6900 -0.4020 -0.4430
  241MOL0     C33187   7.879   3.921   7.646  1.0852 -0.1321  0.0798
  241MOL0     C33188   7.888   3.833   7.763  0.9122 -0.4653  1.1883
  241MOL0     H33189   8.352   4.235   7.691  1.5506  0.4080  0.3169
  241MOL0     H33190   8.577   4.247   7.753  1.7253 -1.8135  2.2920
  241MOL0     H33191   8.842   3.904   7.637 -2.0495 -0.4060 -0.2032
  241MOL0     H33192   8.821   3.854   7.806 -1.3262 -1.0250 -0.6416
  241MOL0     H33193   9.036   3.963   7.677  0.5642  2.8680 -0.5282
  241MOL0     H33194   8.976   4.100   7.758 -2.4080  0.2039 -2.1337
  241MOL0     H33195   8.983   3.974   7.979 -0.1396  1.0949  1.2185
  241MOL0     H33196   9.057   3.836   7.897 -1.0820  0.0732 -2.3233
  241MOL0     H33197   9.254   3.993   7.828  2.2613 -0.3405  1.9339
  241MOL0     H33198   9.171   4.112   7.932 -0.6125 -0.1783  3.5197
  241MOL0     H33199   9.251   3.828   8.006 -0.3007  0.6555 -5.3446
  241MOL0     H33200   9.189   3.964   8.115 -0.3216  0.9257 -1.4125
  241MOL0     H33201   9.440   3.960   7.968 -2.5893 -2.3425 -0.8274
  241MOL0     H33202   9.387   4.095   8.061  0.8082  0.1158 -3.3595
  241MOL0     H33203   9.476   3.822   8.181  0.4101  0.4678  0.0350
  241MOL0     H33204   9.415   3.951   8.283  0.0025 -1.3158  0.5262
  241MOL0     H33205   9.658   3.936   8.089  0.8692 -0.0965  1.1124
  241MOL0     H33206   9.618   4.085   8.184  0.7498 -0.4273 -2.6257
  241MOL0     H33207   9.650   3.987   8.480  0.7101 -0.3503 -0.6525
  241MOL0     H33208   9.831   3.769   8.645  0.4450  0.2756 -1.2645
  241MOL0     H33209   9.816   3.942   8.657 -1.7364  1.5155 -3.1952
  241MOL0     H33210  10.056   3.782   8.567  2.9699 -0.5832  1.5702
  241MOL0     H33211  10.040   3.967   8.578 -0.6544 -0.6905 -0.9172
  241MOL0     H33212  10.053   3.952   8.818 -1.1364  0.2373 -0.0897
  241MOL0     H33213   9.981   3.792   8.805 -1.9252  0.6779 -0.8819
  241MOL0     H33214  10.212   3.767   8.890  0.6902  0.6621  0.1753
  241MOL0     H33215  10.193   3.686   8.732  2.1624 -0.2970 -1.9340
  241MOL0     H33216  10.492   3.964   8.619 -2.1154 -3.8626 -0.9998
  241MOL0     H33217  10.800   4.082   8.733 -0.8779 -1.7769  2.0053
  241MOL0     H33218  10.715   4.033   8.571 -1.5411 -1.2588 -0.3435
  241MOL0     H33219  10.846   3.945   8.646 -0.6503  0.3098 -0.8614
  241MOL0     H33220  11.048   3.724   9.021 -1.5762  2.1276 -0.3648
  241MOL0     H33221  11.262   3.735   9.129 -0.7302 -0.3152  0.0808
  241MOL0     H33222  11.560   4.026   8.967 -1.8818 -2.7556 -0.8472
  241MOL0     H33223  11.490   4.103   9.112 -0.9064  0.2047  1.0270
  241MOL0     H33224  11.690   3.857   9.119  1.6452 -1.0559  3.4869
  241MOL0     H33225  11.749   4.018   9.127  0.7913 -1.2955 -0.1225
  241MOL0     H33226  11.600   3.855   9.324  2.9658 -0.4250 -0.0680
  241MOL0     H33227  11.552   4.024   9.338  1.0065  0.3309  1.4149
  241MOL0     H33228  11.814   4.065   9.337  0.3326 -0.4905 -1.8484
  241MOL0     H33229  11.830   3.897   9.371 -2.2502 -1.0755  0.4052
  241MOL0     H33230  11.657   4.087   9.531 -0.7747 -1.2628  1.0034
  241MOL0     H33231  11.705   3.924   9.582  0.2001  1.9112  2.5785
  241MOL0     H33232  11.827   4.117   9.695 -0.1398  0.8268 -0.9022
  241MOL0     H33233  11.902   4.148   9.539 -2.0353  0.7553 -1.2545
  241MOL0     H33234  12.005   3.919   9.539  2.0205  1.3437 -0.2306
  241MOL0     H33235  11.918   3.895   9.704  1.0846  1.5698  0.7492
  241MOL0     H33236  12.139   3.921   9.741 -0.4588 -0.9134 -1.0609
  241MOL0     H33237  12.069   4.076   9.791 -0.1362  0.1000 -0.5413
  241MOL0     H33238  11.329   4.115   8.960  1.7411 -1.4446  1.0418
  241MOL0     H33239  11.111   4.121   8.857 -1.2090  1.6696  0.9217
  241MOL0     H33240  10.621   3.760   9.048 -0.1743 -1.3206 -0.0555
  241MOL0     H33241  10.393   3.749   8.967 -1.1468 -0.0891 -2.6105
  241MOL0     H33242   8.643   3.847   7.616 -1.1801 -1.0655  0.6346
  241MOL0     H33243   8.403   3.837   7.538  0.8287 -1.3445  1.2392
  241MOL0     H33244   8.029   4.109   7.404  0.3329 -1.1553  0.1299
  241MOL0     H33245   7.804   4.144   7.342  0.3885  1.7557  0.6456
  241MOL0     H33246   7.604   4.231   7.373 -2.3511  1.4117 -1.6301
  241MOL0     H33247   7.599   4.091   7.268 -2.9838 -2.2347  0.0149
  241MOL0     H33248   7.396   4.232   7.269 -0.0218  0.3952 -0.4465
  241MOL0     H33249   7.363   4.161   7.433 -0.8668 -0.6620 -0.2320
  241MOL0     H33250   7.418   4.014   7.178  1.5399 -1.9141  1.8038
  241MOL0     H33251   7.373   3.931   7.325  3.8297  0.4123  1.2489
  241MOL0     H33252   7.163   4.055   7.334 -0.2250 -3.6862  1.6778
  241MOL0     H33253   7.189   3.921   7.216  0.0366  0.1762 -0.9936
  241MOL0     H33254   7.138   4.208   6.919  1.5058  0.3086 -0.2090
  241MOL0     H33255   7.658   3.888   7.646  0.2205  1.6276  0.8495
  241MOL0     H33256   7.922   3.736   7.728 -1.8715 -0.6316 -1.5553
  241MOL0     H33257   7.945   3.884   7.841  0.7425 -0.5578  1.3757
  241MOL0     H33258   7.787   3.809   7.800 -1.0424  0.8053 -2.7358
  242MOL0     O33259   9.460   7.582   0.968  0.3867  0.4169  0.2406
  242MOL0     C33260   9.424   7.466   0.975 -0.0703  0.1644 -0.0836
  242MOL0     O33261   9.496   7.357   1.028 -0.6465  0.0310  0.3615
  242MOL0     C33262   9.627   7.387   1.040 -0.6502 -0.8539  0.0471
  242MOL0     C33263   9.719   7.333   0.961  0.1948  0.1349  0.1504
  242MOL0     C33264   9.855   7.365   0.975  0.1967 -0.8868 -0.3290
  242MOL0     C33265   9.901   7.454   1.073 -0.3820 -0.0512 -0.2498
  242MOL0     O33266  10.030   7.490   1.108 -0.2790 -0.5609  0.1668
  242MOL0     C33267  10.133   7.483   1.007 -0.0849 -0.7196 -0.3675
  242MOL0     C33268  10.270   7.453   1.067  0.0843 -0.6764 -0.9856
  242MOL0     C33269  10.381   7.473   0.971  0.4579 -0.0231 -0.8872
  242MOL0     C33270  10.522   7.505   1.033 -0.4715  0.4258 -0.1545
  242MOL0     C33271  10.623   7.561   0.935  0.1685 -1.4111 -0.1437
  242MOL0     C33272  10.772   7.560   0.979 -0.7089  0.1237 -0.1145
  242MOL0     C33273  10.815   7.410   0.961 -1.2701 -0.0635  0.2203
  242MOL0     C33274  10.968   7.380   0.968  0.1262 -0.9203 -0.5129
  242MOL0     N33275  11.049   7.456   0.869 -0.0405 -0.4954  0.4211
  242MOL0     C33276  11.127   7.567   0.891 -0.7302 -0.1559  0.1955
  242MOL0     C33277  11.158   7.606   0.767  0.2293 -0.0645  0.6147
  242MOL0     C33278  11.236   7.725   0.741 -0.5109 -0.9595  0.4576
  242MOL0     C33279  11.171   7.847   0.813  0.9875  0.4994  0.6549
  242MOL0     C33280  11.246   7.982   0.809 -0.5298 -0.0348  0.0771
  242MOL0     C33281  11.372   7.976   0.885  0.1891 -0.0903  0.4997
  242MOL0     O33282  11.468   7.932   0.793 -0.4836 -0.6466  0.2632
  242MOL0     C33283  11.591   7.891   0.837  0.7216  1.1987 -0.6987
  242MOL0     C33284  11.644   7.774   0.779  0.2283  0.1458 -0.8479
  242MOL0     C33285  11.758   7.717   0.826  0.8295 -0.3147 -0.1565
  242MOL0     C33286  11.786   7.583   0.769  0.4305 -0.1681 -0.1341
  242MOL0     C33287  11.835   7.776   0.930 -0.1930  0.6386  0.8271
  242MOL0     C33288  11.959   7.723   0.984 -0.6066 -0.2257  0.8117
  242MOL0     O33289  12.070   7.810   0.986 -0.3793 -0.0296  0.0256
  242MOL0     C33290  12.194   7.763   1.021  0.3539  0.2163  0.8324
  242MOL0     C33291  12.250   7.633   0.996  0.1217  0.3559 -0.4580
  242MOL0     C33292  12.382   7.606   1.046 -0.1836  0.1641  0.0421
  242MOL0     C33293  12.454   7.699   1.121 -0.2769 -0.4098  0.0857
  242MOL0     O33294  12.586   7.661   1.160 -0.0688 -0.5620  0.4565
  242MOL0     C33295  12.662   7.745   1.257  0.6509  0.2144 -0.5060
  242MOL0     C33296  12.643   7.704   1.408  0.0047  0.2116  0.1049
  242MOL0     C33297  12.632   7.549   1.430 -1.0706 -0.4319  0.0225
  242MOL0     C33298  12.675   7.507   1.574 -0.7226 -0.1146 -0.4236
  242MOL0     C33299  12.593   7.576   1.680  0.1206 -0.5223  0.6846
  242MOL0     C33300  12.629   7.510   1.812  0.0846 -0.1926  1.0646
  242MOL0     C33301  12.781   7.520   1.831 -0.7520  1.0703 -0.4657
  242MOL0     C33302  12.814   7.514   1.983  0.2304 -0.6389 -0.5475
  242MOL0    Cl33303  12.738   7.640   2.085 -0.0774  0.4204  0.3167
  242MOL0     C33304  12.402   7.826   1.135 -0.3294 -0.2095  0.4313
  242MOL0     C33305  12.275   7.852   1.089  0.0330 -0.2873 -0.5073
  242MOL0     O33306  11.956   7.611   1.016  0.3660 -0.0507 -0.9238
  242MOL0     C33307  11.797   7.900   0.976 -0.1351  0.6227  1.3128
  242MOL0     C33308  11.670   7.956   0.933  0.6882 -0.9266 -0.1510
  242MOL0     N33309  11.107   7.526   0.670 -1.1128 -0.2284  0.2621
  242MOL0     N33310  11.045   7.435   0.731  0.7328 -0.2081 -0.3157
  242MOL0     C33311   9.804   7.511   1.159 -0.2444  0.0664 -0.3032
  242MOL0     C33312   9.667   7.479   1.144  0.1431  0.5137  0.5290
  242MOL0     C33313   9.282   7.441   0.936  0.6391  0.8252  0.0316
  242MOL0     C33314   9.192   7.548   0.920 -0.6095 -0.6999 -0.0614
  242MOL0     C33315   9.063   7.540   0.876  0.2586  0.4405 -0.8147
  242MOL0     C33316   9.004   7.417   0.856 -0.6142  0.5007  0.2951
  242MOL0     O33317   8.878   7.401   0.810  0.5214  1.1251 -0.5297
  242MOL0     C33318   8.852   7.463   0.682  0.0258  0.6941 -0.4218
  242MOL0     C33319   8.707   7.511   0.673  0.5778 -0.0040  0.9504
  242MOL0     C33320   8.617   7.395   0.666 -0.2041  0.1801  1.0286
  242MOL0     C33321   8.476   7.443   0.624 -0.9414  0.4174  0.2203
  242MOL0     C33322   8.416   7.517   0.735 -0.4827  0.2275  0.0797
  242MOL0     C33323   8.351   7.578   0.811 -0.8502  0.1843 -0.8384
  242MOL0     C33324   9.080   7.300   0.877 -0.7753 -0.0705  0.0898
  242MOL0     C33325   9.221   7.306   0.917 -1.2008  0.4004 -0.5020
  242MOL0     C33326   9.296   7.170   0.935  0.3256 -0.5656 -0.3938
  242MOL0     H33327   9.687   7.254   0.895 -2.6802  1.0814  0.2809
  242MOL0     H33328   9.924   7.303   0.918 -1.5841 -2.5665 -0.7574
  242MOL0     H33329  10.130   7.582   0.960  0.1173  0.2975  1.6771
  242MOL0     H33330  10.116   7.413   0.924 -0.1867 -1.5810  0.3728
  242MOL0     H33331  10.279   7.520   1.153 -2.3042 -2.4524  0.7983
  242MOL0     H33332  10.273   7.349   1.101 -1.0814  0.0302  1.5297
  242MOL0     H33333  10.393   7.388   0.903  0.7951 -2.5372  2.0432
  242MOL0     H33334  10.348   7.549   0.900 -2.6868 -2.0911 -1.8474
  242MOL0     H33335  10.508   7.577   1.114  2.5802 -1.3405  2.1353
  242MOL0     H33336  10.559   7.411   1.075 -0.5941  1.2693  1.9559
  242MOL0     H33337  10.591   7.664   0.921  0.3968 -1.3389 -0.1359
  242MOL0     H33338  10.614   7.512   0.837 -1.4936  0.3689 -0.9490
  242MOL0     H33339  10.825   7.625   0.908  0.0162  1.4335  1.5545
  242MOL0     H33340  10.779   7.589   1.084 -1.8393 -2.0190  0.6233
  242MOL0     H33341  10.782   7.384   0.860  0.0631  0.7401 -0.4442
  242MOL0     H33342  10.770   7.345   1.037 -3.0499  2.8094  1.7894
  242MOL0     H33343  11.003   7.417   1.065 -1.2613 -0.0867 -0.2914
  242MOL0     H33344  10.994   7.274   0.958  1.0474 -0.6549 -0.9975
  242MOL0     H33345  11.149   7.619   0.984  1.8408 -0.6081 -0.0617
  242MOL0     H33346  11.260   7.734   0.634 -0.1164 -2.4397  0.4071
  242MOL0     H33347  11.334   7.705   0.786  0.6497  0.1403 -1.4133
  242MOL0     H33348  11.075   7.868   0.766  0.1243  2.4682  3.0724
  242MOL0     H33349  11.148   7.830   0.919 -0.0745  1.0746  0.5312
  242MOL0     H33350  11.265   7.995   0.702  3.5710 -5.0778 -0.2424
  242MOL0     H33351  11.177   8.056   0.850 -1.9319  0.0098 -2.1946
  242MOL0     H33352  11.396   8.077   0.921 -1.1638  1.4202 -2.4471
  242MOL0     H33353  11.372   7.909   0.971  1.9748  0.7351  1.2069
  242MOL0     H33354  11.583   7.722   0.706 -0.4685  1.5115 -1.2784
  242MOL0     H33355  11.702   7.546   0.710 -2.1472  2.8255  1.3393
  242MOL0     H33356  11.800   7.504   0.844  3.2715 -2.7125 -3.0603
  242MOL0     H33357  11.877   7.592   0.709 -0.1532 -0.6311 -1.1130
  242MOL0     H33358  12.197   7.557   0.940  0.9514 -0.6913  0.1432
  242MOL0     H33359  12.415   7.506   1.020 -0.1350  0.2602 -0.2770
  242MOL0     H33360  12.763   7.712   1.235  1.4081  0.3570  2.4191
  242MOL0     H33361  12.653   7.853   1.238  2.2145  0.9123  2.1893
  242MOL0     H33362  12.730   7.747   1.458 -0.4773  0.3798  0.8050
  242MOL0     H33363  12.556   7.758   1.446 -0.2616 -0.3215  0.2692
  242MOL0     H33364  12.716   7.508   1.373  1.1376  1.4987  1.6466
  242MOL0     H33365  12.530   7.517   1.408 -0.7746 -2.3201  1.2246
  242MOL0     H33366  12.780   7.535   1.585  0.5363 -4.6336  1.3788
  242MOL0     H33367  12.677   7.398   1.570 -0.5871 -0.0689 -2.2991
  242MOL0     H33368  12.618   7.682   1.684 -0.9564 -0.2978  2.9226
  242MOL0     H33369  12.487   7.569   1.652  0.3861  0.5746 -0.6656
  242MOL0     H33370  12.602   7.404   1.812 -3.2453  0.5529 -0.0248
  242MOL0     H33371  12.565   7.562   1.885 -0.1562 -0.4719  1.0517
  242MOL0     H33372  12.833   7.610   1.797 -3.0740  2.1859 -1.2784
  242MOL0     H33373  12.832   7.439   1.778 -0.9087  2.1723 -2.4017
  242MOL0     H33374  12.921   7.533   1.992  0.3932 -1.1798 -1.2844
  242MOL0     H33375  12.810   7.411   2.019  3.3122  0.0128  2.1188
  242MOL0     H33376  12.461   7.905   1.181 -0.3522  0.1302 -0.1248
  242MOL0     H33377  12.221   7.946   1.099 -0.7055 -0.7843  0.4033
  242MOL0     H33378  11.865   7.954   1.042  3.0852  1.7094 -2.4856
  242MOL0     H33379  11.630   8.047   0.978  3.5561 -1.1095  3.2183
  242MOL0     H33380   9.824   7.573   1.245 -2.8667 -0.8562  1.0863
  242MOL0     H33381   9.592   7.532   1.202  0.0677  0.6157  0.3407
  242MOL0     H33382   9.233   7.645   0.944 -0.4798 -0.7951  0.1031
  242MOL0     H33383   8.999   7.628   0.871  0.8868  0.9652  0.0614
  242MOL0     H33384   8.914   7.552   0.668  1.1853  0.0439  0.3649
  242MOL0     H33385   8.860   7.396   0.596 -1.3126 -0.7703  0.5374
  242MOL0     H33386   8.702   7.573   0.583  2.4193  1.9900  2.1055
  242MOL0     H33387   8.682   7.576   0.757  5.3057  1.9839  1.1429
  242MOL0     H33388   8.656   7.327   0.590  1.7741  2.1539  0.1677
  242MOL0     H33389   8.619   7.361   0.770  0.7401  0.6713  1.1818
  242MOL0     H33390   8.409   7.359   0.604 -1.0348  0.6230 -0.3287
  242MOL0     H33391   8.486   7.504   0.535  0.6279 -1.0802 -0.6896
  242MOL0     H33392   8.291   7.645   0.869  0.6887  0.7742  0.1496
  242MOL0     H33393   9.023   7.208   0.878  0.7605 -1.0587  0.8872
  242MOL0     H33394   9.223   7.089   0.932  1.6041 -1.7515 -0.5514
  242MOL0     H33395   9.383   7.159   0.869  1.9262 -2.5872  1.8793
  242MOL0     H33396   9.340   7.180   1.035 -0.4928 -0.7968 -0.0064
  243MOL0     O33397   4.565   3.435   5.385  0.1758  0.2820 -0.2148
  243MOL0     C33398   4.496   3.446   5.487 -0.3207 -0.3281  0.1262
  243MOL0     O33399   4.555   3.419   5.618  0.5571  0.1469  0.6305
  243MOL0     C33400   4.685   3.384   5.631  0.4452  0.7599  0.6404
  243MOL0     C33401   4.788   3.458   5.595  0.0788  0.0555  0.1112
  243MOL0     C33402   4.920   3.411   5.607 -0.0364  0.3160 -0.2988
  243MOL0     C33403   4.951   3.295   5.680  0.0133 -0.1356  0.2908
  243MOL0     O33404   5.083   3.264   5.696 -0.2836 -0.1757  0.0580
  243MOL0     C33405   5.118   3.140   5.763  0.1498 -0.4343  0.3347
  243MOL0     C33406   5.270   3.114   5.767 -0.4431  0.2183 -0.6010
  243MOL0     C33407   5.315   3.110   5.628 -0.1672 -0.8288  0.2395
  243MOL0     C33408   5.460   3.063   5.611  0.6509  0.4610 -0.1154
  243MOL0     C33409   5.505   3.068   5.464  0.9351  1.1242 -0.5531
  243MOL0     C33410   5.653   3.052   5.440 -0.0499 -0.1373 -0.0354
  243MOL0     C33411   5.724   2.925   5.507 -0.0770  0.3600  1.0560
  243MOL0     C33412   5.869   2.934   5.512 -0.5950 -0.6383 -0.3786
  243MOL0     N33413   5.932   2.907   5.384  0.0384 -0.0371  0.1481
  243MOL0     C33414   5.930   2.782   5.330 -0.4409  0.1882  0.1838
  243MOL0     C33415   5.932   2.804   5.196 -0.6336 -0.1550  0.0638
  243MOL0     C33416   5.932   2.697   5.099  0.0160  0.6212  0.2271
  243MOL0     C33417   6.069   2.690   5.034 -0.6195  0.6227  0.1708
  243MOL0     C33418   6.080   2.759   4.903  0.5028 -0.2444 -0.0866
  243MOL0     C33419   6.217   2.767   4.836  0.0536 -0.3291 -0.0160
  243MOL0     O33420   6.317   2.798   4.934 -1.1689 -0.0143 -0.1148
  243MOL0     C33421   6.452   2.784   4.891  0.4300 -0.2941  0.6237
  243MOL0     C33422   6.557   2.797   4.986 -0.1011  0.3392 -0.1111
  243MOL0     C33423   6.690   2.792   4.953 -0.3259 -1.0215 -0.0550
  243MOL0     C33424   6.790   2.793   5.066 -0.5389  0.0157  0.4528
  243MOL0     C33425   6.727   2.783   4.822 -0.1062  0.5449  0.7426
  243MOL0     C33426   6.866   2.787   4.781  0.2439 -0.4321  0.4275
  243MOL0     O33427   6.956   2.701   4.827  1.0521 -0.3498  0.3538
  243MOL0     C33428   7.087   2.725   4.825  0.1451  0.4307  0.1408
  243MOL0     C33429   7.162   2.608   4.844  0.0716 -0.1442 -0.1049
  243MOL0     C33430   7.299   2.616   4.849 -0.3694  0.0944  0.0353
  243MOL0     C33431   7.367   2.739   4.848  0.6825  0.2044  0.2270
  243MOL0     O33432   7.508   2.752   4.862  0.6869  0.1401 -0.0604
  243MOL0     C33433   7.585   2.635   4.825 -0.2885  0.6391  0.0749
  243MOL0     C33434   7.725   2.684   4.812 -0.0695  0.2632  0.2779
  243MOL0     C33435   7.814   2.568   4.768 -0.4905  0.0396 -0.5504
  243MOL0     C33436   7.823   2.441   4.863  0.0567  0.5261  0.3059
  243MOL0     C33437   7.911   2.340   4.787  0.1641 -0.3853  0.6287
  243MOL0     C33438   7.953   2.233   4.893 -0.3375 -0.5286 -0.1887
  243MOL0     C33439   8.029   2.128   4.813 -0.1099 -0.2824 -0.6233
  243MOL0     C33440   7.954   1.996   4.793  0.5257 -0.8483 -0.4544
  243MOL0    Cl33441   7.888   1.939   4.952 -0.1642  0.2167  0.1831
  243MOL0     C33442   7.293   2.859   4.857  0.7409  0.3221 -0.0381
  243MOL0     C33443   7.149   2.855   4.841 -0.6039  0.3647  0.6657
  243MOL0     O33444   6.898   2.885   4.709  0.1265 -1.0271 -0.4885
  243MOL0     C33445   6.629   2.762   4.723  0.4345  0.2368  0.0545
  243MOL0     C33446   6.490   2.750   4.759  0.1269 -0.6141 -0.2764
  243MOL0     N33447   5.955   2.942   5.171  0.0265  0.7847 -0.3837
  243MOL0     N33448   5.938   2.997   5.283 -0.4121 -0.4038  0.4472
  243MOL0     C33449   4.843   3.222   5.730 -0.4609  0.0872  0.6910
  243MOL0     C33450   4.717   3.264   5.704  0.1798  0.5497 -0.5136
  243MOL0     C33451   4.358   3.500   5.487  0.7490  0.1631  0.1552
  243MOL0     C33452   4.294   3.516   5.613  0.5150 -0.1607  0.2113
  243MOL0     C33453   4.178   3.593   5.640 -0.6149  0.3171  0.1612
  243MOL0     C33454   4.113   3.651   5.525  0.2530  0.1052 -0.8279
  243MOL0     O33455   3.995   3.721   5.531 -0.0869 -0.0910  0.4050
  243MOL0     C33456   3.944   3.749   5.658 -0.5032  0.1682  0.6080
  243MOL0     C33457   3.803   3.810   5.633  0.6665  0.5015  1.2173
  243MOL0     C33458   3.702   3.812   5.747  0.6341 -0.7019 -0.0315
  243MOL0     C33459   3.569   3.736   5.737  0.9711  0.4232  0.7341
  243MOL0     C33460   3.473   3.786   5.645  0.2430 -1.2071  0.4479
  243MOL0     C33461   3.399   3.837   5.559 -0.7357 -0.2527  0.1011
  243MOL0     C33462   4.170   3.627   5.399  0.6227  0.5298  0.3262
  243MOL0     C33463   4.280   3.547   5.378 -0.8045  1.6150  0.1486
  243MOL0     C33464   4.317   3.510   5.234 -0.2194  1.1702 -0.7014
  243MOL0     H33465   4.765   3.556   5.556  2.0057  0.7166  0.5265
  243MOL0     H33466   5.008   3.466   5.578  0.1318  1.5749  2.2642
  243MOL0     H33467   5.068   3.061   5.708  0.0087  1.5704 -2.6489
  243MOL0     H33468   5.078   3.166   5.862  1.7206  0.1325  0.8512
  243MOL0     H33469   5.317   3.200   5.815 -1.3863  0.4484 -0.0618
  243MOL0     H33470   5.294   3.018   5.813  0.2217  0.7238  0.1122
  243MOL0     H33471   5.244   3.053   5.568 -2.6569  0.6351  1.6022
  243MOL0     H33472   5.314   3.213   5.589 -0.1440 -1.2907 -1.0103
  243MOL0     H33473   5.529   3.111   5.682 -0.1920 -1.2692  2.0101
  243MOL0     H33474   5.458   2.958   5.641  1.8983  0.4738  0.0983
  243MOL0     H33475   5.478   3.164   5.422  1.1051  1.5011  0.1734
  243MOL0     H33476   5.449   2.989   5.414 -0.0018  0.2564  1.7082
  243MOL0     H33477   5.668   3.056   5.332 -1.5118  0.6074 -0.2371
  243MOL0     H33478   5.708   3.134   5.487 -0.0672 -0.5559  0.7222
  243MOL0     H33479   5.700   2.831   5.457 -0.2662  1.1253 -0.3290
  243MOL0     H33480   5.682   2.925   5.608  3.3544 -0.6860  2.6289
  243MOL0     H33481   5.913   3.025   5.553 -1.2788 -1.9671  3.8103
  243MOL0     H33482   5.909   2.855   5.577  3.3718 -0.0600 -1.8319
  243MOL0     H33483   5.914   2.688   5.382  2.3051 -0.1211  0.5839
  243MOL0     H33484   5.856   2.715   5.023 -1.2070  0.1553  1.3094
  243MOL0     H33485   5.919   2.597   5.142  1.5060  0.8418  1.2656
  243MOL0     H33486   6.137   2.736   5.106  0.8185 -2.8453  1.2537
  243MOL0     H33487   6.093   2.584   5.025 -2.2500  0.0963  1.5307
  243MOL0     H33488   6.006   2.717   4.834 -1.8488 -2.2128  3.3304
  243MOL0     H33489   6.042   2.860   4.920 -2.4977 -1.2202 -0.4039
  243MOL0     H33490   6.242   2.668   4.797  2.9223  0.3683 -0.1243
  243MOL0     H33491   6.223   2.835   4.750  1.3790 -0.7197 -0.2603
  243MOL0     H33492   6.538   2.832   5.087  1.2859 -0.5881  0.5117
  243MOL0     H33493   6.756   2.853   5.151 -1.4802  0.0930  0.0384
  243MOL0     H33494   6.883   2.840   5.035 -1.5012  2.6291  1.2344
  243MOL0     H33495   6.801   2.687   5.089 -1.1110  0.1409  1.3408
  243MOL0     H33496   7.119   2.509   4.841  1.0624 -0.5767 -0.7714
  243MOL0     H33497   7.357   2.526   4.862 -0.4223  0.1871  0.9206
  243MOL0     H33498   7.568   2.570   4.911 -0.2268  0.5216 -0.0019
  243MOL0     H33499   7.550   2.586   4.734 -0.2810  1.8460 -0.6022
  243MOL0     H33500   7.723   2.763   4.736 -0.8414  0.0691  0.0876
  243MOL0     H33501   7.747   2.723   4.912 -0.3676 -1.5742  1.1004
  243MOL0     H33502   7.911   2.615   4.747 -0.1255  0.3223  1.5674
  243MOL0     H33503   7.778   2.527   4.673  0.1430 -2.0668  0.0475
  243MOL0     H33504   7.726   2.392   4.877 -0.0340  0.8746  0.9234
  243MOL0     H33505   7.869   2.473   4.957 -1.0138 -0.9537  1.3858
  243MOL0     H33506   7.865   2.303   4.694  3.6137 -0.5889 -1.1709
  243MOL0     H33507   8.000   2.388   4.744 -0.7153  2.3638  1.6938
  243MOL0     H33508   7.863   2.193   4.940  0.4474 -1.2840  0.7308
  243MOL0     H33509   8.019   2.289   4.959 -1.0296  3.1740 -2.3524
  243MOL0     H33510   8.120   2.108   4.871 -0.7411  0.1602  0.5513
  243MOL0     H33511   8.062   2.167   4.716  2.2768  2.2838  1.0690
  243MOL0     H33512   8.026   1.920   4.763  3.2478  0.9658  0.9588
  243MOL0     H33513   7.873   2.009   4.720 -0.1242  1.8151  0.6114
  243MOL0     H33514   7.340   2.955   4.874  0.8503  0.4074 -0.7769
  243MOL0     H33515   7.079   2.939   4.843  0.0533  1.0531 -1.5016
  243MOL0     H33516   6.664   2.739   4.623 -0.1399 -0.2326 -0.0474
  243MOL0     H33517   6.414   2.731   4.684  1.0653  0.5922 -1.5835
  243MOL0     H33518   4.855   3.129   5.784 -1.1470 -1.6467 -2.0003
  243MOL0     H33519   4.641   3.204   5.753  1.0359 -2.1402 -2.2715
  243MOL0     H33520   4.333   3.476   5.706 -1.2535  0.2672  1.1826
  243MOL0     H33521   4.140   3.613   5.739 -0.6879  1.4704 -0.0929
  243MOL0     H33522   3.932   3.664   5.726 -1.1342  0.8403  1.3547
  243MOL0     H33523   4.016   3.811   5.713 -1.1032 -1.1899  3.0500
  243MOL0     H33524   3.740   3.766   5.556  1.1124  2.2449 -0.2050
  243MOL0     H33525   3.818   3.911   5.596 -1.7051  0.2698 -0.5953
  243MOL0     H33526   3.750   3.769   5.835 -0.4788  1.0428  1.4966
  243MOL0     H33527   3.683   3.913   5.784  2.4389  0.1800 -1.3616
  243MOL0     H33528   3.519   3.729   5.835 -2.0804  0.2051 -0.7168
  243MOL0     H33529   3.603   3.639   5.700  3.8776  1.2300  1.0089
  243MOL0     H33530   3.330   3.870   5.484  0.3115  1.8613 -0.0054
  243MOL0     H33531   4.106   3.657   5.317 -1.3352  0.3532  1.7233
  243MOL0     H33532   4.354   3.407   5.234 -0.2403  0.9223  4.1559
  243MOL0     H33533   4.222   3.507   5.181  0.0239  3.0316 -1.2987
  243MOL0     H33534   4.378   3.577   5.173 -0.4288  1.1705 -0.9106
  244MOL0     O33535   8.005   5.520   1.119  0.0035 -0.0481 -1.1218
  244MOL0     C33536   8.013   5.583   1.014 -0.6087 -1.0288 -0.0881
  244MOL0     O33537   8.124   5.647   0.968 -0.2057 -1.1329 -0.9527
  244MOL0     C33538   8.229   5.652   1.053 -0.3105 -0.0829  0.1055
  244MOL0     C33539   8.221   5.727   1.169 -0.4908 -0.6268 -0.2093
  244MOL0     C33540   8.327   5.739   1.261  0.9046  0.8376 -0.0513
  244MOL0     C33541   8.451   5.676   1.234 -0.2154 -0.2281  0.2916
  244MOL0     O33542   8.550   5.689   1.328  0.6635 -0.0368  0.2560
  244MOL0     C33543   8.681   5.626   1.300 -0.0146  0.1315  0.6087
  244MOL0     C33544   8.775   5.659   1.415 -0.4687 -0.0594 -0.0084
  244MOL0     C33545   8.882   5.554   1.425 -0.6287 -0.2056  0.1410
  244MOL0     C33546   8.964   5.569   1.561  0.9900  0.0600 -0.7278
  244MOL0     C33547   9.048   5.448   1.587 -0.5126 -0.1180 -0.3229
  244MOL0     C33548   9.128   5.446   1.717  0.1047  0.2466  0.7557
  244MOL0     C33549   9.028   5.409   1.833 -0.2512 -0.7404  0.4419
  244MOL0     C33550   9.085   5.439   1.971  1.1822  0.4494  0.4053
  244MOL0     N33551   8.993   5.419   2.084  0.3276  0.4295  0.1999
  244MOL0     C33552   8.900   5.502   2.134  1.0357  0.3836  0.2683
  244MOL0     C33553   8.825   5.422   2.218 -0.1372 -0.4599  0.4366
  244MOL0     C33554   8.702   5.474   2.286  0.5447 -0.1490  0.1577
  244MOL0     C33555   8.580   5.434   2.208  0.1673  0.3455  0.0402
  244MOL0     C33556   8.444   5.478   2.276  0.2041 -0.7533  0.1821
  244MOL0     C33557   8.324   5.463   2.177  0.2236 -0.2358 -0.2217
  244MOL0     O33558   8.222   5.566   2.203  0.3010  0.2729 -0.1613
  244MOL0     C33559   8.195   5.587   2.334 -0.3646 -0.4553 -0.8322
  244MOL0     C33560   8.117   5.505   2.417 -0.2295 -0.3167  1.2727
  244MOL0     C33561   8.091   5.532   2.552 -0.1129  0.0185  0.5615
  244MOL0     C33562   8.030   5.424   2.638 -0.0582  0.4500  0.2449
  244MOL0     C33563   8.142   5.653   2.609 -0.1604 -0.0133 -0.7229
  244MOL0     C33564   8.128   5.690   2.756  0.3949  0.5671  0.0374
  244MOL0     O33565   8.176   5.811   2.786 -0.4796 -0.4318  0.3583
  244MOL0     C33566   8.177   5.852   2.916 -0.0450  0.5762 -0.2493
  244MOL0     C33567   8.243   5.776   3.010  0.3318 -0.0401 -0.5899
  244MOL0     C33568   8.253   5.818   3.139 -0.3389  0.1779  0.1320
  244MOL0     C33569   8.198   5.939   3.173  0.8113  0.6033 -0.5617
  244MOL0     O33570   8.234   5.991   3.298 -0.4217 -0.1266 -0.5232
  244MOL0     C33571   8.112   6.023   3.375 -0.2507  0.0207  0.2481
  244MOL0     C33572   8.155   6.072   3.507 -0.5641  0.0657  0.1705
  244MOL0     C33573   8.046   6.094   3.611  0.3740  0.4082  0.1766
  244MOL0     C33574   7.989   6.227   3.611 -0.6535  1.0252 -0.0386
  244MOL0     C33575   7.857   6.222   3.696 -0.3517 -1.0426  0.1705
  244MOL0     C33576   7.795   6.357   3.732 -0.0253 -0.6569 -0.0280
  244MOL0     C33577   7.885   6.433   3.834  0.1390  0.2515  0.0966
  244MOL0     C33578   7.901   6.581   3.801 -0.3989  0.1613 -0.5354
  244MOL0    Cl33579   7.734   6.657   3.803  0.1559 -0.1745 -0.1980
  244MOL0     C33580   8.127   6.017   3.075 -0.1330 -0.7917 -0.0638
  244MOL0     C33581   8.117   5.970   2.948  0.0186 -0.6071  0.4921
  244MOL0     O33582   8.066   5.618   2.830  0.5756 -0.5902  0.4675
  244MOL0     C33583   8.221   5.736   2.525  0.4012  0.2964  0.1679
  244MOL0     C33584   8.244   5.709   2.388  0.9316  0.2137 -0.3052
  244MOL0     N33585   8.885   5.299   2.220 -1.0929 -0.0774  0.4206
  244MOL0     N33586   8.987   5.297   2.144  0.7544 -0.0870  0.1363
  244MOL0     C33587   8.457   5.593   1.123 -0.0974 -0.3765 -0.4096
  244MOL0     C33588   8.349   5.581   1.036  0.1718 -0.2281 -0.7278
  244MOL0     C33589   7.899   5.592   0.917  0.5052 -0.3569 -0.7036
  244MOL0     C33590   7.911   5.696   0.823  0.7810  0.0979  0.7742
  244MOL0     C33591   7.800   5.723   0.741 -0.5204 -0.0399  0.4018
  244MOL0     C33592   7.678   5.648   0.743  0.5580  0.8338  0.1220
  244MOL0     O33593   7.577   5.690   0.663  0.1555 -0.3718 -0.0728
  244MOL0     C33594   7.453   5.618   0.653  0.2453 -0.2919  0.0082
  244MOL0     C33595   7.369   5.642   0.526  0.0524 -0.3509  0.2846
  244MOL0     C33596   7.329   5.799   0.504  0.2248 -0.1003 -0.0476
  244MOL0     C33597   7.221   5.811   0.393  0.3886  0.1511 -0.3037
  244MOL0     C33598   7.160   5.948   0.394 -0.0819  1.2824 -0.1401
  244MOL0     C33599   7.109   6.052   0.416  0.5778 -0.2267 -0.7977
  244MOL0     C33600   7.668   5.537   0.840  0.6302  0.2689  0.0878
  244MOL0     C33601   7.780   5.515   0.925 -0.4453  1.6210 -0.0771
  244MOL0     C33602   7.768   5.393   1.020 -0.0192 -0.1743  0.5597
  244MOL0     H33603   8.132   5.788   1.184  0.0784  0.8731 -2.3590
  244MOL0     H33604   8.330   5.801   1.350  1.0575  0.7369  0.0163
  244MOL0     H33605   8.717   5.671   1.207 -0.0206  1.4000  1.2072
  244MOL0     H33606   8.680   5.517   1.293 -0.9753 -0.0054  2.3479
  244MOL0     H33607   8.825   5.757   1.416 -1.3350  0.4099  1.7987
  244MOL0     H33608   8.728   5.653   1.514  2.3356  1.0664  1.5186
  244MOL0     H33609   8.846   5.451   1.417 -0.8024 -0.1684  0.4081
  244MOL0     H33610   8.950   5.565   1.340  1.0487 -1.9120  1.2037
  244MOL0     H33611   9.025   5.660   1.556  2.0982 -0.7274 -2.4489
  244MOL0     H33612   8.893   5.577   1.644  0.1663 -2.5799 -1.0941
  244MOL0     H33613   9.128   5.434   1.513 -0.0845 -1.3009  0.3359
  244MOL0     H33614   8.985   5.360   1.569 -1.4774  0.9134 -2.3298
  244MOL0     H33615   9.202   5.367   1.723  0.2392  0.3807  0.8633
  244MOL0     H33616   9.193   5.534   1.715  1.6329 -0.8566 -1.6773
  244MOL0     H33617   8.991   5.307   1.821 -2.0362 -0.9083  5.2730
  244MOL0     H33618   8.944   5.480   1.828 -1.1658 -1.7789  0.6229
  244MOL0     H33619   9.170   5.371   1.980  1.4484  0.9345  1.7889
  244MOL0     H33620   9.125   5.541   1.970  2.0955  0.1255 -1.4218
  244MOL0     H33621   8.883   5.602   2.095 -1.3339 -0.3528 -0.7681
  244MOL0     H33622   8.708   5.580   2.311  0.6861 -0.3363  0.9637
  244MOL0     H33623   8.701   5.420   2.382 -1.5167  1.2512  1.0046
  244MOL0     H33624   8.589   5.485   2.112 -0.4809 -2.4163 -1.5794
  244MOL0     H33625   8.579   5.327   2.186  0.3496  0.0164  1.5078
  244MOL0     H33626   8.437   5.404   2.356  0.6725 -1.1152 -0.1054
  244MOL0     H33627   8.464   5.576   2.320 -1.7237  1.1468 -2.7908
  244MOL0     H33628   8.357   5.475   2.073  1.4223  2.8934  0.4207
  244MOL0     H33629   8.279   5.363   2.177  0.0513 -0.1581 -0.6187
  244MOL0     H33630   8.085   5.415   2.366 -2.2063  1.8221 -1.6020
  244MOL0     H33631   8.107   5.397   2.711 -0.6694  0.5308  0.9328
  244MOL0     H33632   8.033   5.330   2.583  2.9636  0.3462  0.4526
  244MOL0     H33633   7.931   5.443   2.680  0.5674  0.9829  1.5331
  244MOL0     H33634   8.281   5.678   2.984  0.3291  0.6033 -3.2211
  244MOL0     H33635   8.302   5.768   3.222  1.3090  2.9869  1.0106
  244MOL0     H33636   8.056   6.108   3.336  1.5807  0.7967 -0.8324
  244MOL0     H33637   8.047   5.936   3.386  0.7289 -0.4531  2.9612
  244MOL0     H33638   8.228   6.003   3.549  0.2643  2.6805  3.4716
  244MOL0     H33639   8.213   6.164   3.497  0.9897 -0.8724  0.2333
  244MOL0     H33640   8.094   6.077   3.708  1.4531  2.4167  0.0335
  244MOL0     H33641   7.972   6.015   3.593  0.8175  0.2881 -1.3010
  244MOL0     H33642   7.975   6.264   3.509  1.9658  0.7052 -0.6003
  244MOL0     H33643   8.069   6.296   3.638  1.8391 -1.8964  0.6125
  244MOL0     H33644   7.795   6.151   3.641 -2.6824 -2.0461  3.7435
  244MOL0     H33645   7.883   6.173   3.791 -0.3142 -1.4966 -0.0711
  244MOL0     H33646   7.696   6.343   3.776 -0.7877  3.9872  0.2624
  244MOL0     H33647   7.777   6.425   3.648 -3.5366  2.4154  2.8222
  244MOL0     H33648   7.983   6.386   3.849  1.4311  1.6957 -2.9112
  244MOL0     H33649   7.829   6.429   3.928  0.2585  0.7136  0.1897
  244MOL0     H33650   7.934   6.607   3.700 -2.4573 -0.1985 -1.3522
  244MOL0     H33651   7.970   6.637   3.863  2.8845 -1.0725 -2.7953
  244MOL0     H33652   8.088   6.114   3.106  0.6472 -0.5326  0.1565
  244MOL0     H33653   8.060   6.023   2.873 -0.3667  0.9867  1.8591
  244MOL0     H33654   8.258   5.833   2.558  2.2283  0.7664 -2.9004
  244MOL0     H33655   8.311   5.770   2.328  1.0640 -1.7945 -2.3463
  244MOL0     H33656   8.545   5.534   1.101  0.0902  0.1690 -1.1404
  244MOL0     H33657   8.362   5.520   0.948  0.5689  1.4426 -1.8710
  244MOL0     H33658   7.992   5.765   0.809  1.3452 -0.3026  1.9788
  244MOL0     H33659   7.817   5.807   0.675 -0.0853  1.0202  1.8037
  244MOL0     H33660   7.458   5.509   0.667  3.4502 -0.1429  0.8118
  244MOL0     H33661   7.391   5.658   0.734 -1.6204  0.9095 -1.9202
  244MOL0     H33662   7.280   5.581   0.542  0.5874 -1.2317 -0.0266
  244MOL0     H33663   7.417   5.609   0.433 -1.0382  0.4065 -0.5881
  244MOL0     H33664   7.286   5.843   0.595 -1.2665  0.0538 -0.7971
  244MOL0     H33665   7.410   5.867   0.477 -1.2253  2.3028  1.2643
  244MOL0     H33666   7.140   5.739   0.410 -1.2019  1.6006 -1.4481
  244MOL0     H33667   7.267   5.777   0.299 -1.1879 -2.5711 -0.1988
  244MOL0     H33668   7.067   6.146   0.443  2.8335  0.6321 -0.0755
  244MOL0     H33669   7.573   5.485   0.847 -0.4138  1.8814 -1.4704
  244MOL0     H33670   7.846   5.321   0.992 -2.2530 -1.7214 -2.2052
  244MOL0     H33671   7.775   5.423   1.125 -2.9984 -1.3697  1.1913
  244MOL0     H33672   7.672   5.347   0.998 -0.6509 -0.2025  3.0767
  245MOL0     O33673  10.563   9.960   0.057  0.2468  0.1813  0.0683
  245MOL0     C33674  10.508   9.931  -0.050  0.4911  0.1006 -0.0910
  245MOL0     O33675  10.554   9.946  -0.173 -0.5827 -1.1199  0.8333
  245MOL0     C33676  10.687   9.943  -0.192  0.5021 -0.4381 -0.6040
  245MOL0     C33677  10.724   9.879  -0.308 -0.4443 -0.7891  0.2629
  245MOL0     C33678  10.854   9.876  -0.349 -0.1370 -0.4998 -0.8487
  245MOL0     C33679  10.962   9.913  -0.262 -0.4004 -0.0706  0.0600
  245MOL0     O33680  11.090   9.890  -0.305 -0.6148 -0.0206 -0.1446
  245MOL0     C33681  11.186   9.843  -0.205  0.1785  0.2965  0.3688
  245MOL0     C33682  11.333   9.853  -0.256 -0.1299  0.1349  0.0902
  245MOL0     C33683  11.347   9.756  -0.379  0.1624 -0.3987  0.2502
  245MOL0     C33684  11.474   9.788  -0.460  0.2236  0.4302 -1.1271
  245MOL0     C33685  11.477   9.705  -0.587  0.0204 -0.1159  1.1227
  245MOL0     C33686  11.602   9.767  -0.661 -0.3454 -0.2805 -0.5212
  245MOL0     C33687  11.657   9.667  -0.760  0.1126  0.9729 -0.0312
  245MOL0     C33688  11.777   9.722  -0.847  0.8318 -0.0182 -0.5558
  245MOL0     N33689  11.844   9.618  -0.922 -0.5223 -0.0590  0.6492
  245MOL0     C33690  11.957   9.560  -0.879  0.0749 -0.6063 -0.0796
  245MOL0     C33691  12.004   9.482  -0.984 -0.1571  0.8602  0.2271
  245MOL0     C33692  12.118   9.380  -0.966  0.2623 -0.5130 -0.2104
  245MOL0     C33693  12.067   9.271  -0.860  0.7519 -0.0407  0.4678
  245MOL0     C33694  12.157   9.149  -0.843  0.7526  0.5482  0.1252
  245MOL0     C33695  12.308   9.173  -0.832 -0.4246  0.4130  0.7977
  245MOL0     O33696  12.373   9.165  -0.959  0.7442  0.2947 -0.6805
  245MOL0     C33697  12.505   9.212  -0.961 -0.7077 -0.2329 -0.4680
  245MOL0     C33698  12.541   9.332  -1.023 -0.4138 -0.3809 -0.0832
  245MOL0     C33699  12.672   9.385  -1.008 -0.6360  0.3937 -0.2142
  245MOL0     C33700  12.706   9.516  -1.071  0.7080  1.3032  1.3158
  245MOL0     C33701  12.768   9.322  -0.918  0.4934 -0.0106 -0.3089
  245MOL0     C33702  12.901   9.374  -0.870  0.0880  1.1527 -0.3895
  245MOL0     O33703  12.968   9.292  -0.784  0.5756 -0.2845  0.0912
  245MOL0     C33704  13.101   9.315  -0.750 -0.1499 -0.6129 -0.2886
  245MOL0     C33705  13.181   9.201  -0.743 -0.0850  0.3396 -0.0558
  245MOL0     C33706  13.311   9.215  -0.700 -0.0777 -0.0554  0.4424
  245MOL0     C33707  13.375   9.337  -0.672 -0.1064  0.2530 -0.0617
  245MOL0     O33708  13.511   9.340  -0.640 -0.3414  0.1825 -0.4096
  245MOL0     C33709  13.566   9.472  -0.620  0.9766 -0.1493  0.3827
  245MOL0     C33710  13.720   9.475  -0.597 -0.0779 -0.4403  1.5052
  245MOL0     C33711  13.744   9.409  -0.470 -0.2103  0.7147  0.2897
  245MOL0     C33712  13.887   9.421  -0.431 -0.7061  0.3711 -0.4657
  245MOL0     C33713  13.899   9.381  -0.286 -0.5980 -0.7741 -0.5169
  245MOL0     C33714  14.026   9.439  -0.204 -0.3012  0.1179  0.8465
  245MOL0     C33715  14.156   9.389  -0.264  0.4501 -0.2152 -0.4331
  245MOL0     C33716  14.271   9.460  -0.204 -0.6415 -0.3436  0.5589
  245MOL0    Cl33717  14.420   9.386  -0.267  0.2681 -0.4688 -0.2642
  245MOL0     C33718  13.294   9.446  -0.687 -0.1385 -0.9602  0.9567
  245MOL0     C33719  13.162   9.439  -0.729 -0.6849 -0.0909  0.1977
  245MOL0     O33720  12.948   9.491  -0.902  0.1419 -0.1204  0.4298
  245MOL0     C33721  12.724   9.187  -0.878 -0.3816 -0.8737 -0.0400
  245MOL0     C33722  12.599   9.135  -0.889  0.5314 -0.4303  0.2476
  245MOL0     N33723  11.920   9.499  -1.093 -0.3706  0.1746 -0.7297
  245MOL0     N33724  11.824   9.583  -1.054 -0.2974 -0.9084 -0.2129
  245MOL0     C33725  10.928   9.976  -0.135  1.2629 -0.5042 -0.7645
  245MOL0     C33726  10.785  10.000  -0.108 -0.9250 -0.2724  0.1818
  245MOL0     C33727  10.360   9.900  -0.047 -0.2689  0.1491  0.1268
  245MOL0     C33728  10.289   9.872  -0.162 -0.4810 -0.4554 -0.4973
  245MOL0     C33729  10.153   9.843  -0.154 -0.3635  0.5981  0.2359
  245MOL0     C33730  10.072   9.843  -0.036  0.8880 -0.5955 -0.1855
  245MOL0     O33731   9.944   9.804  -0.045  0.4866  0.9152 -0.2283
  245MOL0     C33732   9.852   9.853   0.051  0.9356 -0.0500 -0.8287
  245MOL0     C33733   9.707   9.858  -0.010 -0.9251  0.4187 -0.5445
  245MOL0     C33734   9.664   9.727  -0.082 -0.2460  0.1615 -0.3506
  245MOL0     C33735   9.523   9.733  -0.146 -0.2495 -0.5594  0.5989
  245MOL0     C33736   9.413   9.770  -0.044 -0.2655  0.6518  0.5205
  245MOL0     C33737   9.332   9.792   0.041 -0.2304 -0.0586 -0.7399
  245MOL0     C33738  10.145   9.868   0.079  0.3493  0.0196  0.3039
  245MOL0     C33739  10.282   9.899   0.079 -0.4262 -0.2808  0.3978
  245MOL0     C33740  10.337   9.943   0.212  1.2282 -0.5843  0.2962
  245MOL0     H33741  10.645   9.850  -0.376 -0.1324 -0.8836 -0.0603
  245MOL0     H33742  10.876   9.836  -0.448  0.3128 -0.2277 -0.8619
  245MOL0     H33743  11.162   9.737  -0.197 -2.8958  0.9350  0.6061
  245MOL0     H33744  11.180   9.895  -0.109  1.7677  2.3664 -0.5628
  245MOL0     H33745  11.364   9.956  -0.279  3.7129 -1.6649 -4.3152
  245MOL0     H33746  11.402   9.824  -0.176 -1.3431 -1.2147  0.6881
  245MOL0     H33747  11.343   9.653  -0.343 -1.3848 -0.0880  1.0433
  245MOL0     H33748  11.264   9.773  -0.448  0.5556  1.2281  0.1407
  245MOL0     H33749  11.474   9.895  -0.484  1.0458  0.4613 -0.9988
  245MOL0     H33750  11.563   9.770  -0.399 -0.7036 -0.0567  0.1187
  245MOL0     H33751  11.393   9.722  -0.656  1.6443  2.1543 -0.4362
  245MOL0     H33752  11.488   9.598  -0.564  1.6790 -0.3012 -0.3609
  245MOL0     H33753  11.565   9.856  -0.713  1.6768  0.5657 -0.6180
  245MOL0     H33754  11.685   9.795  -0.595 -0.3549 -0.1404 -0.5682
  245MOL0     H33755  11.575   9.630  -0.822 -0.6775  0.4306  1.2736
  245MOL0     H33756  11.695   9.586  -0.697  1.4552  2.9395  1.8305
  245MOL0     H33757  11.733   9.805  -0.903 -2.1866 -1.2096 -0.1269
  245MOL0     H33758  11.862   9.761  -0.790  1.2715 -1.8426  0.0839
  245MOL0     H33759  12.013   9.571  -0.787  0.3551  1.8255 -0.4720
  245MOL0     H33760  12.210   9.429  -0.934  0.6300 -0.8185 -0.7845
  245MOL0     H33761  12.136   9.326  -1.059  0.9415 -1.3285  0.3852
  245MOL0     H33762  12.039   9.319  -0.766  1.0909 -2.7536  2.0581
  245MOL0     H33763  11.975   9.229  -0.903  0.4497  1.2764 -0.2143
  245MOL0     H33764  12.126   9.088  -0.757  1.6066 -2.2176 -1.3887
  245MOL0     H33765  12.151   9.082  -0.930 -1.1566  2.3376 -1.2247
  245MOL0     H33766  12.321   9.271  -0.785  0.6574  1.8886 -2.3118
  245MOL0     H33767  12.341   9.093  -0.766  1.6466  0.7446  0.2238
  245MOL0     H33768  12.465   9.389  -1.075 -2.5123 -1.2457  1.8806
  245MOL0     H33769  12.634   9.529  -1.152 -0.1789 -2.6522  1.2503
  245MOL0     H33770  12.804   9.512  -1.118 -0.4998  0.9090 -1.3392
  245MOL0     H33771  12.691   9.597  -0.999  3.4313  0.9899  2.3560
  245MOL0     H33772  13.130   9.112  -0.778 -1.0922  1.0047 -0.3426
  245MOL0     H33773  13.375   9.128  -0.707 -1.2457 -0.8116 -3.2422
  245MOL0     H33774  13.532   9.531  -0.706 -2.9015  1.3312  2.6690
  245MOL0     H33775  13.521   9.531  -0.540  0.6624  0.5266 -0.2782
  245MOL0     H33776  13.764   9.439  -0.690 -4.7798  0.3669 -1.3770
  245MOL0     H33777  13.749   9.580  -0.591  0.5862 -0.4539 -0.5424
  245MOL0     H33778  13.726   9.302  -0.478 -1.2666  0.3986  4.5591
  245MOL0     H33779  13.681   9.451  -0.391  1.0721  4.7072 -0.5624
  245MOL0     H33780  13.928   9.522  -0.434  3.1251 -1.0502 -0.8737
  245MOL0     H33781  13.940   9.355  -0.499  0.2425 -2.2021  2.5369
  245MOL0     H33782  13.812   9.424  -0.235 -0.4509  0.8653 -1.5663
  245MOL0     H33783  13.897   9.271  -0.289 -2.9775 -1.0254  3.1861
  245MOL0     H33784  14.022   9.401  -0.102  0.1213 -3.1456 -0.2300
  245MOL0     H33785  14.021   9.548  -0.207 -0.5388  0.1279  1.4741
  245MOL0     H33786  14.157   9.405  -0.372 -1.0081  1.7175 -0.2179
  245MOL0     H33787  14.178   9.284  -0.245 -0.6646 -0.0830  1.9577
  245MOL0     H33788  14.273   9.456  -0.095 -0.7034  2.0405  0.6971
  245MOL0     H33789  14.275   9.567  -0.226  0.8890  0.0351  2.4323
  245MOL0     H33790  13.316   9.552  -0.678  2.6110 -1.3646 -0.0149
  245MOL0     H33791  13.102   9.529  -0.739  0.9596  0.9663 -0.6284
  245MOL0     H33792  12.801   9.130  -0.826 -0.1758 -1.3372 -0.8345
  245MOL0     H33793  12.578   9.040  -0.841 -2.5774 -1.3509 -2.5764
  245MOL0     H33794  11.007  10.001  -0.065  2.3164  1.5868 -2.5993
  245MOL0     H33795  10.762  10.066  -0.025  0.0077 -0.3831  0.5400
  245MOL0     H33796  10.332   9.883  -0.261 -0.8617 -1.8751 -0.8373
  245MOL0     H33797  10.109   9.813  -0.248  0.6518 -3.9681  0.9834
  245MOL0     H33798   9.852   9.797   0.145  0.7395 -0.6633 -1.1890
  245MOL0     H33799   9.875   9.957   0.077 -1.8180  0.5616 -0.5729
  245MOL0     H33800   9.705   9.943  -0.079 -0.6003  2.0248  1.3258
  245MOL0     H33801   9.636   9.879   0.071 -1.0666 -4.6633  1.0043
  245MOL0     H33802   9.743   9.688  -0.147 -0.9816 -3.8421  0.8496
  245MOL0     H33803   9.664   9.659   0.004  0.9149  1.6133  0.8418
  245MOL0     H33804   9.486   9.635  -0.177 -1.5426 -1.0442  3.3412
  245MOL0     H33805   9.510   9.807  -0.225 -0.1121  1.2274  2.1963
  245MOL0     H33806   9.257   9.808   0.116  1.8520  0.2451  1.4043
  245MOL0     H33807  10.087   9.844   0.167  2.4053  2.0834  2.3619
  245MOL0     H33808  10.382  10.042   0.204 -0.6585  0.1968 -2.1627
  245MOL0     H33809  10.270   9.950   0.298 -0.5333  1.2628 -1.1213
  245MOL0     H33810  10.410   9.870   0.248  4.0848  0.9048 -2.0743
  246MOL0     O33811   4.494   1.002   0.599  0.2572  0.6598 -0.2627
  246MOL0     C33812   4.451   0.946   0.698 -0.0020 -0.2860 -0.6485
  246MOL0     O33813   4.457   1.003   0.828  0.3377 -0.8764  0.4691
  246MOL0     C33814   4.517   1.120   0.841  1.0277  0.2536 -0.0023
  246MOL0     C33815   4.639   1.161   0.785 -0.1253  0.1348  0.1107
  246MOL0     C33816   4.681   1.288   0.824  0.8324 -0.8227  0.1881
  246MOL0     C33817   4.612   1.378   0.910  0.1518 -0.6477  0.4625
  246MOL0     O33818   4.648   1.503   0.948  0.5904 -0.2218 -0.2347
  246MOL0     C33819   4.769   1.558   0.915  0.7341 -0.2984 -0.2572
  246MOL0     C33820   4.789   1.687   0.990  0.1654  0.2758  0.9865
  246MOL0     C33821   4.942   1.717   0.980 -0.3099 -0.0003 -0.0474
  246MOL0     C33822   4.972   1.846   1.046 -0.6776 -0.4158 -0.0700
  246MOL0     C33823   5.132   1.866   1.064  0.2035 -0.2681  0.3275
  246MOL0     C33824   5.208   1.877   0.928 -0.0607  0.6091 -0.6509
  246MOL0     C33825   5.353   1.925   0.956 -0.7227  0.1649 -0.1654
  246MOL0     C33826   5.413   1.996   0.825 -0.0795  0.1505  0.9125
  246MOL0     N33827   5.557   2.007   0.855  0.2572  0.5651  0.4574
  246MOL0     C33828   5.654   1.932   0.791  0.3600  0.0474 -0.5030
  246MOL0     C33829   5.768   1.995   0.822 -0.9220 -0.2222 -0.2702
  246MOL0     C33830   5.912   1.967   0.786 -0.7011 -0.6185 -0.1806
  246MOL0     C33831   5.952   1.854   0.696  0.4184 -0.5982  0.1992
  246MOL0     C33832   6.107   1.846   0.693  0.3646  0.0908 -0.4969
  246MOL0     C33833   6.184   1.974   0.652  0.2236 -0.2337  0.2476
  246MOL0     O33834   6.143   2.021   0.518 -0.2585  0.3452 -0.9612
  246MOL0     C33835   6.226   2.101   0.440 -0.0738  0.2015  0.1399
  246MOL0     C33836   6.360   2.126   0.475 -0.0907 -0.0124  0.5793
  246MOL0     C33837   6.455   2.199   0.383  0.0457  0.1738  0.2991
  246MOL0     C33838   6.600   2.189   0.414 -0.8850  0.1794  0.4988
  246MOL0     C33839   6.398   2.245   0.261 -1.1814 -1.9491  0.1633
  246MOL0     C33840   6.474   2.340   0.173 -0.0455 -0.1595 -0.0183
  246MOL0     O33841   6.595   2.375   0.198 -0.1758  0.0555 -0.1460
  246MOL0     C33842   6.669   2.432   0.095  0.2065  0.9548  0.3504
  246MOL0     C33843   6.730   2.347   0.000 -0.6886  0.1190 -0.3009
  246MOL0     C33844   6.818   2.406  -0.091 -0.3919 -0.0493  0.3547
  246MOL0     C33845   6.811   2.542  -0.116  0.1881 -0.3600  0.3504
  246MOL0     O33846   6.882   2.589  -0.221 -0.3909  0.0351 -0.6551
  246MOL0     C33847   6.841   2.546  -0.353  0.6461  0.3596 -0.9118
  246MOL0     C33848   6.949   2.582  -0.455 -0.7858  0.3038  0.5520
  246MOL0     C33849   7.080   2.508  -0.434  0.3734  0.0621 -0.6473
  246MOL0     C33850   7.184   2.530  -0.541 -0.0865  0.1467  0.5297
  246MOL0     C33851   7.286   2.413  -0.543  0.0328  0.0287 -0.5411
  246MOL0     C33852   7.396   2.445  -0.647 -0.0920 -0.2741  0.5279
  246MOL0     C33853   7.501   2.325  -0.635  0.3686 -0.0831  1.0011
  246MOL0     C33854   7.613   2.342  -0.739  0.0098 -0.9287  0.2049
  246MOL0    Cl33855   7.707   2.483  -0.717 -0.1293 -0.1823 -0.5902
  246MOL0     C33856   6.735   2.621  -0.040 -0.2716 -0.3543 -0.7393
  246MOL0     C33857   6.665   2.562   0.064  0.1518 -0.6045  0.2820
  246MOL0     O33858   6.413   2.360   0.067 -0.5389  0.8001  0.1481
  246MOL0     C33859   6.261   2.214   0.233  0.4577 -1.3063 -0.2796
  246MOL0     C33860   6.178   2.144   0.321  0.3693  0.0474  0.0153
  246MOL0     N33861   5.739   2.106   0.894  0.3811  0.1790 -0.3653
  246MOL0     N33862   5.612   2.111   0.919 -0.3287  0.4557 -0.3452
  246MOL0     C33863   4.493   1.333   0.962  0.6602  0.0414 -0.3069
  246MOL0     C33864   4.444   1.208   0.925  0.5804 -0.5297  0.5575
  246MOL0     C33865   4.395   0.808   0.672 -1.0830 -0.5874  0.4386
  246MOL0     C33866   4.304   0.771   0.773  0.2254 -0.5406 -0.3539
  246MOL0     C33867   4.232   0.650   0.762  0.4405 -0.4364  0.6340
  246MOL0     C33868   4.258   0.564   0.658  0.0723  0.6272 -0.7817
  246MOL0     O33869   4.186   0.447   0.653  0.1337  0.4634  0.2913
  246MOL0     C33870   4.236   0.323   0.602  0.0476 -0.2036  0.1007
  246MOL0     C33871   4.117   0.228   0.592  0.0186  0.1501  0.0483
  246MOL0     C33872   4.049   0.216   0.731 -0.1992 -1.0464 -0.0705
  246MOL0     C33873   3.939   0.108   0.713 -0.6767  0.2745 -0.1527
  246MOL0     C33874   3.886   0.048   0.839 -0.7547  0.5368  0.7073
  246MOL0     C33875   3.829   0.010   0.940  0.0699  0.0728 -0.1231
  246MOL0     C33876   4.353   0.598   0.560 -0.4522  0.0073  0.1069
  246MOL0     C33877   4.409   0.730   0.562  0.7985  1.1654 -0.3972
  246MOL0     C33878   4.485   0.762   0.432  0.4753 -0.2847 -0.6420
  246MOL0     H33879   4.708   1.105   0.723  1.4639  2.8836 -0.7903
  246MOL0     H33880   4.777   1.323   0.788 -0.5659  3.3175 -0.0422
  246MOL0     H33881   4.776   1.569   0.807 -0.0448 -2.5129 -0.5853
  246MOL0     H33882   4.841   1.483   0.948  1.2298  0.3963  0.2580
  246MOL0     H33883   4.733   1.772   0.949  2.4300  0.6483 -1.6819
  246MOL0     H33884   4.751   1.674   1.092  2.0684  0.5003  1.7545
  246MOL0     H33885   5.002   1.637   1.022  1.6350  0.7966 -1.1820
  246MOL0     H33886   4.970   1.732   0.876 -0.3687 -0.8469 -0.1880
  246MOL0     H33887   4.937   1.935   0.994 -0.2459 -0.0771  0.2060
  246MOL0     H33888   4.933   1.851   1.148 -1.7010 -3.2383 -0.2349
  246MOL0     H33889   5.185   1.787   1.119 -0.2149 -1.1394 -0.4842
  246MOL0     H33890   5.150   1.957   1.121 -1.0619  0.4721 -0.4080
  246MOL0     H33891   5.200   1.785   0.869  3.3303  0.8201 -1.6247
  246MOL0     H33892   5.159   1.959   0.874  0.2164  0.1819 -1.5718
  246MOL0     H33893   5.419   1.843   0.984 -2.5662 -1.4950 -0.4379
  246MOL0     H33894   5.346   1.989   1.045 -4.8734 -1.7946  1.1810
  246MOL0     H33895   5.398   1.934   0.737  3.0893 -0.2938  0.5511
  246MOL0     H33896   5.376   2.097   0.801 -1.9106 -0.2499  1.8874
  246MOL0     H33897   5.651   1.836   0.741 -1.0122 -0.7179  0.9705
  246MOL0     H33898   5.958   1.939   0.881  0.1424  0.8361 -0.1330
  246MOL0     H33899   5.952   2.063   0.752 -1.6619  0.0059  0.3913
  246MOL0     H33900   5.910   1.762   0.737 -0.8722  0.7887  2.1423
  246MOL0     H33901   5.915   1.873   0.595  3.2370 -1.7587 -1.1620
  246MOL0     H33902   6.146   1.833   0.794  0.6886  5.1043  0.2980
  246MOL0     H33903   6.136   1.761   0.630  1.6179 -1.1845  1.6823
  246MOL0     H33904   6.177   2.055   0.726  1.3301  0.1510 -0.0543
  246MOL0     H33905   6.288   1.942   0.653 -0.5309 -3.2164  3.1484
  246MOL0     H33906   6.401   2.088   0.568 -0.2110  0.5440  0.8655
  246MOL0     H33907   6.628   2.283   0.464 -0.4230  1.3156 -1.7953
  246MOL0     H33908   6.663   2.183   0.325 -0.2203 -0.7694  1.0107
  246MOL0     H33909   6.631   2.104   0.476 -0.4071  0.1981  0.2928
  246MOL0     H33910   6.718   2.240   0.010  0.3804 -0.1021 -1.1793
  246MOL0     H33911   6.888   2.350  -0.151  0.8185  1.1648  0.5564
  246MOL0     H33912   6.822   2.440  -0.370 -0.4587  0.9691 -4.5358
  246MOL0     H33913   6.745   2.596  -0.373 -1.0061 -2.0032  0.6852
  246MOL0     H33914   6.905   2.546  -0.549  1.0713 -1.1100  0.1633
  246MOL0     H33915   6.967   2.690  -0.465  0.7075  0.1376  1.2153
  246MOL0     H33916   7.065   2.401  -0.425  0.2627  0.1481  0.2913
  246MOL0     H33917   7.127   2.545  -0.343  3.1756  0.7453 -2.2439
  246MOL0     H33918   7.230   2.627  -0.519 -2.1965  1.1357  0.8788
  246MOL0     H33919   7.129   2.539  -0.635 -1.6944 -2.3195  1.1319
  246MOL0     H33920   7.324   2.404  -0.441 -0.6298 -0.0405 -0.2940
  246MOL0     H33921   7.245   2.318  -0.576  2.4350 -0.1832 -3.3272
  246MOL0     H33922   7.444   2.540  -0.621 -1.2541  0.7123 -0.7283
  246MOL0     H33923   7.353   2.470  -0.744 -0.3784 -1.5527  0.3156
  246MOL0     H33924   7.457   2.230  -0.663  0.0907  0.7063 -1.4636
  246MOL0     H33925   7.547   2.330  -0.536  0.4619 -1.0842  1.0151
  246MOL0     H33926   7.568   2.346  -0.839  3.2868 -1.7787 -1.4765
  246MOL0     H33927   7.695   2.270  -0.746 -1.3644 -2.4169 -2.5939
  246MOL0     H33928   6.731   2.728  -0.058  1.5538 -0.3998 -1.6958
  246MOL0     H33929   6.588   2.612   0.122  1.2160 -0.5868  1.7087
  246MOL0     H33930   6.206   2.258   0.151 -1.5436 -0.5584  1.3740
  246MOL0     H33931   6.079   2.131   0.280  0.4222 -0.7451  0.1256
  246MOL0     H33932   4.420   1.382   1.026 -2.4747 -2.3102 -1.7875
  246MOL0     H33933   4.347   1.167   0.953 -1.0798 -0.2381 -3.9010
  246MOL0     H33934   4.292   0.834   0.860  2.8632  2.6573 -2.1108
  246MOL0     H33935   4.162   0.623   0.840  2.3840  3.0579  3.9332
  246MOL0     H33936   4.283   0.339   0.504  1.0420  1.5314  0.8030
  246MOL0     H33937   4.307   0.289   0.678  0.3040  0.0969 -0.0037
  246MOL0     H33938   4.142   0.130   0.550 -2.5823 -0.8013  0.5430
  246MOL0     H33939   4.035   0.262   0.528 -1.2161 -0.1531  1.4317
  246MOL0     H33940   4.119   0.186   0.809 -0.6763 -3.4387 -0.4839
  246MOL0     H33941   3.992   0.300   0.773 -0.3415 -1.2403  0.1232
  246MOL0     H33942   3.963   0.034   0.637  0.3444  0.0045  0.4096
  246MOL0     H33943   3.848   0.158   0.677  0.2343  0.8952 -1.6713
  246MOL0     H33944   3.775  -0.046   1.013  0.0476  0.7240  0.3634
  246MOL0     H33945   4.376   0.524   0.484 -0.1510 -1.0029  1.1683
  246MOL0     H33946   4.444   0.845   0.373  1.3422  0.0007 -0.8562
  246MOL0     H33947   4.585   0.796   0.460  0.3802 -0.3738 -0.1918
  246MOL0     H33948   4.494   0.679   0.361 -0.3247 -1.5885  0.7277
  247MOL0     O33949   1.748   9.823   0.610 -0.0183  0.6039  0.0251
  247MOL0     C33950   1.727   9.941   0.600 -0.2097 -0.5749 -0.1761
  247MOL0     O33951   1.821  10.040   0.627  0.0590  0.1622 -0.2161
  247MOL0     C33952   1.945   9.995   0.663 -0.1165 -0.2969 -0.4632
  247MOL0     C33953   1.990  10.012   0.797  0.1226 -0.0640  0.0921
  247MOL0     C33954   2.120   9.973   0.832  0.5123  0.2055  0.3886
  247MOL0     C33955   2.206   9.913   0.734 -0.5668  0.9192 -0.4911
  247MOL0     O33956   2.332   9.858   0.764  0.5182  0.2119  0.3450
  247MOL0     C33957   2.365   9.837   0.900  0.3185 -0.0533 -0.3772
  247MOL0     C33958   2.502   9.763   0.891  0.3848 -0.5195  0.4150
  247MOL0     C33959   2.556   9.726   1.029 -0.6359  0.5863 -0.1881
  247MOL0     C33960   2.690   9.658   1.006  0.0789  0.3705 -0.5104
  247MOL0     C33961   2.754   9.607   1.135  0.3579  0.1218 -0.3271
  247MOL0     C33962   2.900   9.553   1.116  0.2237  0.4767 -0.0249
  247MOL0     C33963   3.000   9.673   1.086 -0.3147  0.3373  0.1263
  247MOL0     C33964   3.144   9.627   1.061 -0.0616 -0.0305  0.1223
  247MOL0     N33965   3.186   9.560   1.191  0.0506 -0.4167  0.8983
  247MOL0     C33966   3.254   9.442   1.205 -0.1183 -0.0634  0.2853
  247MOL0     C33967   3.298   9.440   1.334  0.5897  0.2747  0.5691
  247MOL0     C33968   3.364   9.333   1.398 -0.2382  0.0258  0.3764
  247MOL0     C33969   3.482   9.288   1.318  0.0826  0.4109 -0.3813
  247MOL0     C33970   3.511   9.140   1.355  0.9464 -0.1023  0.5312
  247MOL0     C33971   3.572   9.128   1.495  0.8402  0.6305 -0.1517
  247MOL0     O33972   3.705   9.180   1.508 -0.4206  0.3632 -0.4510
  247MOL0     C33973   3.809   9.097   1.472 -0.5270 -0.2847  0.6852
  247MOL0     C33974   3.818   8.958   1.495  0.0570 -0.5260  0.2215
  247MOL0     C33975   3.931   8.884   1.456  0.3323  0.3462 -0.2684
  247MOL0     C33976   3.924   8.739   1.484  0.1295 -0.1032 -0.8989
  247MOL0     C33977   4.029   8.948   1.384  0.2099  0.4946  0.2891
  247MOL0     C33978   4.154   8.884   1.329  0.8817  0.2037 -0.9005
  247MOL0     O33979   4.217   8.932   1.222 -0.6056  0.2886  0.1750
  247MOL0     C33980   4.322   8.864   1.168 -0.3572 -0.4342 -0.0236
  247MOL0     C33981   4.446   8.923   1.197 -0.0404  0.7737 -0.1208
  247MOL0     C33982   4.555   8.866   1.144 -0.3174 -0.3637  0.1970
  247MOL0     C33983   4.557   8.746   1.071  0.5878  1.0452  0.0529
  247MOL0     O33984   4.667   8.682   1.029 -0.6799  0.7260 -0.2712
  247MOL0     C33985   4.698   8.701   0.891 -0.2958 -0.1573  0.1570
  247MOL0     C33986   4.729   8.847   0.840  0.4450 -0.2471 -0.0902
  247MOL0     C33987   4.875   8.890   0.860  0.7582 -0.2096  0.0331
  247MOL0     C33988   4.899   8.931   1.002  0.8378 -0.0957 -0.0466
  247MOL0     C33989   5.038   8.988   1.027 -0.4735 -0.0509 -0.3583
  247MOL0     C33990   5.035   9.043   1.171 -1.1401 -0.2169 -0.1999
  247MOL0     C33991   5.178   9.046   1.233  0.2056 -0.1810 -0.8610
  247MOL0     C33992   5.265   9.141   1.156 -0.3794  0.1972  0.0951
  247MOL0    Cl33993   5.415   9.149   1.250  0.1356 -0.2141  0.1932
  247MOL0     C33994   4.429   8.677   1.044 -0.4229 -0.4211  0.6021
  247MOL0     C33995   4.313   8.746   1.096 -0.4016  0.3008  0.3008
  247MOL0     O33996   4.199   8.798   1.404  0.1297 -1.0868 -0.0908
  247MOL0     C33997   4.015   9.096   1.354  0.4980 -0.6803  0.6525
  247MOL0     C33998   3.912   9.165   1.403 -0.6656  0.1496 -0.4714
  247MOL0     N33999   3.243   9.549   1.398  0.2532 -0.3192  0.2053
  247MOL0     N34000   3.195   9.629   1.308  0.2485  0.2994  0.0866
  247MOL0     C34001   2.159   9.893   0.602 -0.3530  0.1917  0.2229
  247MOL0     C34002   2.035   9.932   0.564  0.6899 -0.1534 -0.6501
  247MOL0     C34003   1.596   9.985   0.548 -0.0768  0.3032  0.6867
  247MOL0     C34004   1.586  10.115   0.485 -0.3957  0.7776 -0.2538
  247MOL0     C34005   1.463  10.165   0.439  0.1452 -0.6235 -0.2999
  247MOL0     C34006   1.345  10.098   0.468  0.3904  1.3569  0.4218
  247MOL0     O34007   1.223  10.155   0.444  0.0972 -0.0802 -0.2774
  247MOL0     C34008   1.116  10.114   0.532  0.6968 -0.9726 -0.7026
  247MOL0     C34009   0.999  10.227   0.542  0.2386 -0.0387  0.1058
  247MOL0     C34010   1.067  10.358   0.590  0.4116 -0.9756 -0.0894
  247MOL0     C34011   1.081  10.463   0.474  0.1340  0.3324  0.2609
  247MOL0     C34012   0.949  10.513   0.422  0.3427 -0.3035 -1.2253
  247MOL0     C34013   0.846  10.572   0.398 -0.2282 -0.2784 -0.8881
  247MOL0     C34014   1.356   9.967   0.525 -0.7879 -1.6818 -0.0192
  247MOL0     C34015   1.474   9.913   0.552  0.6580 -0.2674 -1.6223
  247MOL0     C34016   1.456   9.777   0.615  0.3360 -0.4284  0.5117
  247MOL0     H34017   1.921  10.059   0.867 -0.2578 -1.6665  0.8272
  247MOL0     H34018   2.131   9.997   0.937  0.4076  0.5703  0.3159
  247MOL0     H34019   2.291   9.776   0.952  0.6663 -0.8454 -0.7925
  247MOL0     H34020   2.377   9.930   0.956 -1.2198  0.9450 -1.6187
  247MOL0     H34021   2.499   9.670   0.833  0.0403  0.2458 -0.8400
  247MOL0     H34022   2.569   9.833   0.839  0.5233  0.2758  1.6269
  247MOL0     H34023   2.570   9.814   1.093 -2.0523  0.2144  0.6794
  247MOL0     H34024   2.488   9.659   1.083 -0.1365 -0.4718 -0.8270
  247MOL0     H34025   2.680   9.567   0.946 -1.1758  1.6408 -2.3422
  247MOL0     H34026   2.752   9.736   0.961 -0.3810  0.3840 -1.1460
  247MOL0     H34027   2.690   9.529   1.178 -0.6575  1.5549  0.8303
  247MOL0     H34028   2.766   9.687   1.209  5.1413 -1.4862  1.0066
  247MOL0     H34029   2.928   9.482   1.194 -4.1681 -1.9308 -0.2926
  247MOL0     H34030   2.905   9.486   1.029  0.9443  0.3585  0.1005
  247MOL0     H34031   3.002   9.749   1.165 -2.8443  1.5521 -0.8690
  247MOL0     H34032   2.957   9.726   1.001 -1.0403 -1.2722 -0.5621
  247MOL0     H34033   3.156   9.561   0.975  0.0439  1.0588 -0.7208
  247MOL0     H34034   3.202   9.718   1.050  0.1755  0.0588  1.9060
  247MOL0     H34035   3.282   9.375   1.125 -2.9790  2.7504 -3.4760
  247MOL0     H34036   3.291   9.252   1.404  0.8146 -1.4197 -3.4267
  247MOL0     H34037   3.389   9.373   1.496 -0.7277  3.0398 -0.6257
  247MOL0     H34038   3.468   9.287   1.209 -0.2350 -0.4788 -0.3381
  247MOL0     H34039   3.566   9.352   1.348  0.1731  0.0896  0.0554
  247MOL0     H34040   3.422   9.080   1.336 -0.9153  2.4133  0.8754
  247MOL0     H34041   3.582   9.096   1.284 -0.3185  1.2232 -1.6925
  247MOL0     H34042   3.517   9.186   1.570 -0.2720 -0.5617 -0.0207
  247MOL0     H34043   3.566   9.022   1.519  0.2299  0.5149 -0.7833
  247MOL0     H34044   3.734   8.908   1.541  0.5110  1.2027  3.2392
  247MOL0     H34045   3.833   8.717   1.540  0.6924 -0.3290 -0.0598
  247MOL0     H34046   4.008   8.700   1.542  0.0920  1.6446  0.4236
  247MOL0     H34047   3.921   8.684   1.389 -0.2818 -0.9761 -0.3813
  247MOL0     H34048   4.455   9.012   1.259 -0.1968  1.9032 -1.6579
  247MOL0     H34049   4.647   8.923   1.153 -0.8344  0.7745 -1.2717
  247MOL0     H34050   4.785   8.638   0.870  0.5629  1.9039 -3.4663
  247MOL0     H34051   4.621   8.665   0.822  2.2705 -3.6255 -1.1441
  247MOL0     H34052   4.696   8.849   0.735 -1.3254 -2.5526  0.3340
  247MOL0     H34053   4.664   8.917   0.894 -0.2431 -0.0443 -1.1335
  247MOL0     H34054   4.902   8.980   0.804  0.6181  0.3549  0.8578
  247MOL0     H34055   4.947   8.812   0.833  0.4061 -0.4132 -0.3332
  247MOL0     H34056   4.881   8.841   1.061 -0.7033  1.8070  2.6416
  247MOL0     H34057   4.825   9.003   1.039  3.2628  2.0129  0.9916
  247MOL0     H34058   5.107   8.904   1.013  1.1643  0.7108  2.4297
  247MOL0     H34059   5.068   9.065   0.956  1.5026 -1.4849 -1.1782
  247MOL0     H34060   4.976   8.973   1.231 -0.8002  0.6436  1.1923
  247MOL0     H34061   4.991   9.143   1.187 -1.2015 -0.3416  0.4663
  247MOL0     H34062   5.220   8.946   1.220  1.0458 -0.2924  1.9392
  247MOL0     H34063   5.179   9.057   1.342 -0.1294 -1.5674 -0.7038
  247MOL0     H34064   5.216   9.238   1.161  0.0670  0.4320 -0.0803
  247MOL0     H34065   5.288   9.107   1.054  2.7093  1.4929  0.2778
  247MOL0     H34066   4.437   8.579   0.998  5.0847 -0.6011  1.2624
  247MOL0     H34067   4.216   8.704   1.072 -0.6066  1.5942 -1.3333
  247MOL0     H34068   4.103   9.136   1.306  1.0414 -2.9673 -0.4285
  247MOL0     H34069   3.912   9.270   1.375  1.1783  0.6424  1.1503
  247MOL0     H34070   2.220   9.832   0.536 -0.9061 -2.7302  2.2264
  247MOL0     H34071   2.010   9.903   0.462  1.2566  2.0928 -1.4737
  247MOL0     H34072   1.673  10.176   0.464  0.1169 -0.1779 -0.9628
  247MOL0     H34073   1.453  10.265   0.397 -0.3104  1.1085  3.5519
  247MOL0     H34074   1.066  10.021   0.503  1.3410 -1.5644  0.0468
  247MOL0     H34075   1.149  10.106   0.636 -1.1990  2.0971  0.2750
  247MOL0     H34076   0.922  10.206   0.617  0.6823 -0.4639  0.4451
  247MOL0     H34077   0.945  10.242   0.448 -0.5803 -0.2057  0.5366
  247MOL0     H34078   1.022  10.405   0.678  0.3236 -0.1789 -0.5478
  247MOL0     H34079   1.164  10.325   0.629 -0.0177 -2.4354 -0.2081
  247MOL0     H34080   1.133  10.405   0.397  0.4565 -2.4265  2.3929
  247MOL0     H34081   1.143  10.550   0.495  2.1101 -0.0442 -3.3436
  247MOL0     H34082   0.757  10.629   0.384  0.5571  1.3524  0.4384
  247MOL0     H34083   1.265   9.908   0.527 -2.0313 -0.1425 -3.2364
  247MOL0     H34084   1.357   9.730   0.606 -0.6117  1.4651  0.6085
  247MOL0     H34085   1.533   9.713   0.571  0.6815 -0.6072  1.3610
  247MOL0     H34086   1.461   9.796   0.723 -0.6708 -2.3975  0.9582
  248MOL0     O34087   2.525   8.174   6.300 -0.3744 -0.1978  0.0263
  248MOL0     C34088   2.489   8.083   6.223 -0.4943 -0.5400 -0.0719
  248MOL0     O34089   2.577   8.011   6.144  0.2872  0.3728 -0.7799
  248MOL0     C34090   2.702   8.065   6.118 -0.6778 -0.2845 -0.6018
  248MOL0     C34091   2.810   8.010   6.180 -0.2858  0.0803  0.8641
  248MOL0     C34092   2.944   8.064   6.167  0.0577  0.1993 -0.2017
  248MOL0     C34093   2.961   8.166   6.071  0.0543  0.1967 -1.3497
  248MOL0     O34094   3.083   8.232   6.039  0.1134  0.6078  0.3287
  248MOL0     C34095   3.207   8.179   6.085  0.3537 -0.6877 -0.0541
  248MOL0     C34096   3.320   8.263   6.024  0.3859  0.1429  0.1322
  248MOL0     C34097   3.341   8.220   5.881 -0.2233 -0.0166 -0.8276
  248MOL0     C34098   3.466   8.304   5.828 -0.1882 -0.6415  0.0650
  248MOL0     C34099   3.495   8.268   5.682 -0.0190  0.0465  0.0528
  248MOL0     C34100   3.577   8.385   5.626  0.0781  0.8018 -0.3009
  248MOL0     C34101   3.599   8.377   5.478 -0.2667  0.5192  0.5580
  248MOL0     C34102   3.690   8.257   5.449  0.9289  0.4850  0.7306
  248MOL0     N34103   3.730   8.248   5.307  0.5859  0.0267 -1.0247
  248MOL0     C34104   3.856   8.265   5.253  0.1656  0.3316  0.3039
  248MOL0     C34105   3.841   8.216   5.121  0.4999  0.1384 -0.0319
  248MOL0     C34106   3.958   8.204   5.030  0.1095  0.7566 -0.4934
  248MOL0     C34107   4.049   8.072   5.048  0.0155  0.5528  0.8027
  248MOL0     C34108   3.975   7.935   5.013  0.4794  0.3051  0.3751
  248MOL0     C34109   4.063   7.808   5.008 -0.2261 -0.0833 -0.0308
  248MOL0     O34110   4.127   7.792   5.137  0.1078 -0.6446  0.2449
  248MOL0     C34111   4.239   7.717   5.133 -0.0535 -0.1671  1.0160
  248MOL0     C34112   4.315   7.725   5.243  1.0635 -0.1493  0.0517
  248MOL0     C34113   4.430   7.648   5.263  0.1997 -0.8488  0.9458
  248MOL0     C34114   4.506   7.682   5.392  0.5249 -0.6059  0.7951
  248MOL0     C34115   4.472   7.564   5.164  0.1003 -0.2970  0.6547
  248MOL0     C34116   4.602   7.490   5.162  0.5899  0.5229  0.2796
  248MOL0     O34117   4.702   7.541   5.223 -0.6286 -0.2253 -0.4488
  248MOL0     C34118   4.821   7.481   5.218 -0.0509 -0.5615  0.2608
  248MOL0     C34119   4.932   7.519   5.139 -0.0697 -0.1632 -0.2309
  248MOL0     C34120   5.046   7.449   5.146  0.2607 -0.5603  0.0676
  248MOL0     C34121   5.065   7.342   5.240  0.2245 -0.4176  1.0550
  248MOL0     O34122   5.181   7.266   5.245  0.9604  0.1147 -0.3590
  248MOL0     C34123   5.193   7.149   5.167 -0.4120 -1.0869  0.4614
  248MOL0     C34124   5.067   7.076   5.133  0.0453  0.2970  0.5069
  248MOL0     C34125   5.072   6.970   5.023 -0.1746 -0.4304  0.6101
  248MOL0     C34126   5.123   7.033   4.889  0.0373  0.3462 -0.3528
  248MOL0     C34127   5.067   6.966   4.759  0.6527 -0.1091 -1.1064
  248MOL0     C34128   4.919   7.007   4.740 -0.3954 -0.3878  0.0730
  248MOL0     C34129   4.867   6.951   4.607  0.1182 -0.6926 -0.0912
  248MOL0     C34130   4.712   6.970   4.595  0.1451 -0.3482 -1.5523
  248MOL0    Cl34131   4.669   6.911   4.432  0.1455  0.0170  0.2049
  248MOL0     C34132   4.965   7.318   5.326  0.0424  0.4173  0.2739
  248MOL0     C34133   4.840   7.383   5.317 -0.1597 -0.5415 -0.4020
  248MOL0     O34134   4.605   7.389   5.085 -0.3541 -0.6141 -0.1058
  248MOL0     C34135   4.408   7.565   5.037  0.1580 -0.4751 -0.6523
  248MOL0     C34136   4.287   7.639   5.023 -0.1821 -0.1408  0.0146
  248MOL0     N34137   3.707   8.176   5.114 -0.0572 -0.1428 -0.4142
  248MOL0     N34138   3.647   8.190   5.218 -0.9057  0.2897 -0.4775
  248MOL0     C34139   2.847   8.215   6.001  0.1629  0.9386 -0.2625
  248MOL0     C34140   2.717   8.164   6.024  0.1554  0.1778  0.8844
  248MOL0     C34141   2.357   8.047   6.225 -0.6464 -0.3183  0.4704
  248MOL0     C34142   2.285   8.068   6.110  0.3876 -0.5024 -0.7384
  248MOL0     C34143   2.148   8.053   6.101  0.2954  0.2345 -0.0460
  248MOL0     C34144   2.091   7.989   6.211  0.4297  0.2622 -0.6442
  248MOL0     O34145   1.952   7.958   6.218 -0.0946 -0.0557 -0.0721
  248MOL0     C34146   1.885   7.938   6.089  0.3369 -0.1288  1.2652
  248MOL0     C34147   1.758   7.878   6.127 -0.7750  0.0854 -0.4221
  248MOL0     C34148   1.688   7.834   6.008 -0.2048 -0.4552 -0.1194
  248MOL0     C34149   1.551   7.762   6.047 -1.0558  0.1476 -0.5385
  248MOL0     C34150   1.434   7.805   5.976 -0.0814 -0.1164 -0.3349
  248MOL0     C34151   1.335   7.843   5.924 -0.0835 -0.2000  0.4595
  248MOL0     C34152   2.163   7.952   6.325 -0.1717  0.8517 -0.3547
  248MOL0     C34153   2.296   7.993   6.339 -0.5369  0.4373 -0.2996
  248MOL0     C34154   2.363   7.966   6.473  0.5496 -0.3890  0.6582
  248MOL0     H34155   2.794   7.919   6.236 -5.0167 -1.1603 -1.9029
  248MOL0     H34156   3.029   8.019   6.217 -1.0093 -1.0093  0.6081
  248MOL0     H34157   3.205   8.070   6.075 -0.1550 -0.7620  0.7889
  248MOL0     H34158   3.227   8.204   6.190  1.9952 -1.5840 -0.1123
  248MOL0     H34159   3.294   8.368   6.037 -0.4462  0.0412 -0.6206
  248MOL0     H34160   3.412   8.245   6.080 -0.5460  1.0173  2.0389
  248MOL0     H34161   3.363   8.113   5.873  0.9943  0.1761 -0.3141
  248MOL0     H34162   3.246   8.223   5.826 -2.0947 -2.2732  1.9888
  248MOL0     H34163   3.424   8.405   5.828 -1.2356 -1.0037  2.5192
  248MOL0     H34164   3.554   8.308   5.893  1.8596 -0.9453 -2.5124
  248MOL0     H34165   3.403   8.260   5.623 -0.4218  0.2021  0.6609
  248MOL0     H34166   3.546   8.172   5.669 -1.5485 -0.6655 -1.0906
  248MOL0     H34167   3.527   8.481   5.640  1.7145  1.4579  1.5089
  248MOL0     H34168   3.672   8.381   5.680 -0.7787 -1.4337  1.2091
  248MOL0     H34169   3.655   8.466   5.449 -2.3825  1.6984 -0.1320
  248MOL0     H34170   3.501   8.363   5.431  0.1440 -1.4368  0.2128
  248MOL0     H34171   3.772   8.258   5.522 -1.3135  1.9787  3.4255
  248MOL0     H34172   3.638   8.164   5.474  3.0319 -1.0758 -0.3732
  248MOL0     H34173   3.949   8.297   5.299  1.2185  0.1983 -1.6484
  248MOL0     H34174   4.011   8.298   5.046 -0.7392  1.3271 -0.9685
  248MOL0     H34175   3.926   8.199   4.925  1.6897 -0.6986 -0.9620
  248MOL0     H34176   4.133   8.084   4.980  0.7822  0.6392  1.7392
  248MOL0     H34177   4.091   8.068   5.149  0.9372 -2.8656  0.4175
  248MOL0     H34178   3.893   7.917   5.083  2.5063 -3.5902  2.0805
  248MOL0     H34179   3.928   7.951   4.916 -1.3284 -2.4898  0.7015
  248MOL0     H34180   4.008   7.715   4.991  0.5310 -0.4270 -0.7036
  248MOL0     H34181   4.132   7.814   4.923 -1.3857 -2.2432 -1.2015
  248MOL0     H34182   4.272   7.794   5.314 -0.5224  1.3864 -2.2426
  248MOL0     H34183   4.603   7.724   5.361  0.0587  0.7833  1.1581
  248MOL0     H34184   4.523   7.592   5.452 -0.2847 -1.7125 -0.5878
  248MOL0     H34185   4.454   7.765   5.441 -0.3500 -1.0105  0.5689
  248MOL0     H34186   4.923   7.603   5.071 -1.1427  1.2554  1.5876
  248MOL0     H34187   5.129   7.480   5.083  0.9465 -0.5187  0.9729
  248MOL0     H34188   5.248   7.188   5.081  0.9019 -0.3084  1.6147
  248MOL0     H34189   5.270   7.086   5.212  1.2337  0.5439  0.0813
  248MOL0     H34190   5.019   7.042   5.225 -2.5966 -0.1494 -0.9358
  248MOL0     H34191   4.991   7.146   5.097 -0.7419 -0.5492  0.4666
  248MOL0     H34192   4.971   6.928   5.012 -1.3239  2.1155  0.9197
  248MOL0     H34193   5.129   6.882   5.054 -3.7135 -3.0783  0.2522
  248MOL0     H34194   5.230   7.053   4.891 -0.3979  3.0716  0.9985
  248MOL0     H34195   5.090   7.137   4.878  0.3102  0.7249  1.8133
  248MOL0     H34196   5.128   6.996   4.674  0.4504  1.2097 -0.8203
  248MOL0     H34197   5.067   6.857   4.767  1.5464  0.0008  1.1293
  248MOL0     H34198   4.917   7.116   4.730  1.0735 -0.4391 -1.1269
  248MOL0     H34199   4.865   6.978   4.831 -0.2010  1.5663  0.8562
  248MOL0     H34200   4.877   6.842   4.609 -0.4208 -0.7387  1.5161
  248MOL0     H34201   4.917   7.000   4.522 -1.7304  1.0996 -0.2032
  248MOL0     H34202   4.684   7.076   4.598 -0.7614 -0.6143 -0.3061
  248MOL0     H34203   4.672   6.915   4.680  3.2876 -1.1061 -0.4306
  248MOL0     H34204   4.977   7.244   5.405 -2.0854  0.1967  0.4614
  248MOL0     H34205   4.760   7.350   5.382 -1.6197  0.5521 -1.5972
  248MOL0     H34206   4.447   7.504   4.956 -0.7414 -0.8773 -0.7965
  248MOL0     H34207   4.239   7.632   4.926  0.4202  1.2572 -0.4011
  248MOL0     H34208   2.866   8.297   5.933  0.7821  2.0444  1.1911
  248MOL0     H34209   2.637   8.195   5.957 -0.1549 -2.3732 -0.0721
  248MOL0     H34210   2.340   8.095   6.020 -0.9205 -0.5571 -1.5910
  248MOL0     H34211   2.093   8.073   6.009 -1.3588  2.6774  1.3566
  248MOL0     H34212   1.851   8.030   6.041 -2.3948 -2.0927 -0.9172
  248MOL0     H34213   1.942   7.869   6.027 -0.9013 -0.5525  0.5670
  248MOL0     H34214   1.700   7.961   6.169  0.5099  1.5547 -1.4600
  248MOL0     H34215   1.767   7.804   6.207  0.4512  1.0756  0.3830
  248MOL0     H34216   1.668   7.921   5.944 -0.1284  0.7362  1.4109
  248MOL0     H34217   1.747   7.763   5.950 -1.1578 -1.5048  0.1765
  248MOL0     H34218   1.533   7.783   6.153  0.0958  1.5107 -0.5891
  248MOL0     H34219   1.564   7.654   6.037  2.4191  0.4786 -0.7376
  248MOL0     H34220   1.242   7.876   5.884  0.2375 -0.3230 -0.4132
  248MOL0     H34221   2.115   7.880   6.391 -0.1392 -0.5098 -1.7623
  248MOL0     H34222   2.459   7.917   6.455  1.6944  2.0644 -0.3667
  248MOL0     H34223   2.382   8.060   6.525 -1.3764  0.7611 -0.5759
  248MOL0     H34224   2.292   7.908   6.533  1.3351 -1.7103  0.3454
  249MOL0     O34225   9.127   0.332   5.718  0.0866 -0.1866 -0.7686
  249MOL0     C34226   9.029   0.402   5.745 -0.5525  0.7080  0.3360
  249MOL0     O34227   9.032   0.525   5.810 -0.1243  0.1653 -0.2302
  249MOL0     C34228   9.156   0.576   5.822 -1.0312 -0.6097 -1.0620
  249MOL0     C34229   9.250   0.608   5.723 -0.1097 -0.1697 -0.5592
  249MOL0     C34230   9.389   0.632   5.750  0.8875  0.4640  0.2260
  249MOL0     C34231   9.425   0.639   5.885 -0.4585  0.7803 -0.5676
  249MOL0     O34232   9.551   0.676   5.936  0.0130 -0.1980  0.2640
  249MOL0     C34233   9.669   0.656   5.856  0.5024 -0.4819  0.2180
  249MOL0     C34234   9.720   0.788   5.813  0.3101 -0.4033  0.0404
  249MOL0     C34235   9.769   0.868   5.928  0.3579  0.2964 -0.4524
  249MOL0     C34236   9.791   1.012   5.896 -0.0027 -1.0723  0.7718
  249MOL0     C34237   9.854   1.088   6.019 -0.5681  0.3584 -0.3229
  249MOL0     C34238   9.754   1.139   6.111  1.2659  0.2322  0.0337
  249MOL0     C34239   9.819   1.188   6.241  0.2661  0.0419  0.1617
  249MOL0     C34240   9.738   1.306   6.293 -0.3209  0.1900 -0.0143
  249MOL0     N34241   9.789   1.335   6.428  0.3248  0.4039 -0.5509
  249MOL0     C34242   9.859   1.451   6.460  0.1758 -0.3431 -0.1932
  249MOL0     C34243   9.893   1.432   6.585  0.9687  0.2986 -0.3255
  249MOL0     C34244   9.981   1.519   6.675  0.8684  0.4699  0.2792
  249MOL0     C34245  10.121   1.527   6.625  0.4857 -0.4159 -0.0383
  249MOL0     C34246  10.188   1.392   6.638  0.0270  0.0206  0.0859
  249MOL0     C34247  10.338   1.397   6.609  0.4630 -0.0201  0.3837
  249MOL0     O34248  10.401   1.274   6.610  0.2973 -0.1744  0.4440
  249MOL0     C34249  10.536   1.261   6.598 -0.4972 -0.1095  0.7687
  249MOL0     C34250  10.628   1.367   6.555  0.0704 -0.9970 -0.4544
  249MOL0     C34251  10.760   1.350   6.554 -1.3307  0.2195  0.2504
  249MOL0     C34252  10.846   1.469   6.513  0.0362  0.5851  0.5047
  249MOL0     C34253  10.818   1.225   6.599  0.3795  0.1314  0.5868
  249MOL0     C34254  10.966   1.198   6.617 -0.3802  0.4185  0.4861
  249MOL0     O34255  11.045   1.305   6.633 -0.1352  0.0349 -0.4474
  249MOL0     C34256  11.174   1.300   6.675  0.7932 -0.6021  0.1272
  249MOL0     C34257  11.246   1.420   6.656 -0.7244  0.1447 -0.4414
  249MOL0     C34258  11.384   1.427   6.698  0.2189 -0.3658  0.0982
  249MOL0     C34259  11.438   1.317   6.778 -0.0872 -1.4591  0.1569
  249MOL0     O34260  11.553   1.324   6.850 -0.4007 -0.0809 -0.2394
  249MOL0     C34261  11.644   1.429   6.844  0.0904  0.1454  0.5752
  249MOL0     C34262  11.703   1.426   6.985 -0.5156 -1.2498 -0.6302
  249MOL0     C34263  11.816   1.533   6.992 -0.5727 -0.6222 -0.1756
  249MOL0     C34264  11.897   1.512   7.120  0.5082  0.1658 -0.2110
  249MOL0     C34265  12.031   1.590   7.109  0.3261 -0.1514 -0.4573
  249MOL0     C34266  12.112   1.572   7.238  0.8482 -0.8725 -0.3689
  249MOL0     C34267  12.229   1.672   7.237 -0.8495 -0.1089 -0.0846
  249MOL0     C34268  12.308   1.651   7.367  0.3445 -0.6589 -0.1856
  249MOL0    Cl34269  12.393   1.505   7.358  0.2428 -0.1426  0.0588
  249MOL0     C34270  11.365   1.207   6.801 -0.3062  0.5164  0.5032
  249MOL0     C34271  11.233   1.197   6.753  0.0502  0.0144  1.0551
  249MOL0     O34272  11.004   1.083   6.594  0.0881 -0.1112 -0.1379
  249MOL0     C34273  10.727   1.122   6.632  0.5903  0.1796 -0.0321
  249MOL0     C34274  10.585   1.140   6.631 -0.5642  0.2252  0.0598
  249MOL0     N34275   9.833   1.314   6.632 -0.4183  0.4035 -0.3338
  249MOL0     N34276   9.774   1.250   6.536 -0.0362  0.3176 -0.4734
  249MOL0     C34277   9.333   0.623   5.987 -1.5058  0.2906 -0.0052
  249MOL0     C34278   9.201   0.595   5.954 -0.4667  0.4219  0.4033
  249MOL0     C34279   8.905   0.327   5.721  0.6342  0.2869 -0.7356
  249MOL0     C34280   8.902   0.188   5.722  0.4052  0.3376 -0.1050
  249MOL0     C34281   8.789   0.119   5.688  0.3908  0.0109  0.0921
  249MOL0     C34282   8.666   0.187   5.674  0.2559  0.3628 -0.4333
  249MOL0     O34283   8.546   0.125   5.672  0.7824 -0.2632  0.0923
  249MOL0     C34284   8.534  -0.017   5.642  0.0674 -0.0156  0.0887
  249MOL0     C34285   8.398  -0.056   5.587  0.4879 -0.9794  0.1803
  249MOL0     C34286   8.277  -0.017   5.673 -0.1146  0.2429 -0.3638
  249MOL0     C34287   8.149  -0.054   5.605  0.6169  0.6266 -0.1773
  249MOL0     C34288   8.044  -0.034   5.700  0.4353 -0.4122  1.0105
  249MOL0     C34289   7.976  -0.019   5.800  0.9322 -0.1626 -0.7767
  249MOL0     C34290   8.669   0.322   5.683 -0.1233  0.2399 -0.1738
  249MOL0     C34291   8.783   0.395   5.703 -1.3994 -0.5103  0.1342
  249MOL0     C34292   8.780   0.548   5.694 -0.2398  0.1507  0.2155
  249MOL0     H34293   9.221   0.605   5.619  1.5044 -0.8141 -1.0204
  249MOL0     H34294   9.448   0.625   5.659 -0.8287 -0.8042 -0.8498
  249MOL0     H34295   9.658   0.588   5.771 -1.5891  1.0808 -0.8640
  249MOL0     H34296   9.748   0.620   5.923 -0.3240  0.0668  1.5297
  249MOL0     H34297   9.803   0.773   5.744  0.8085 -0.9950  0.7542
  249MOL0     H34298   9.639   0.842   5.763  2.4791  1.2402 -1.9217
  249MOL0     H34299   9.691   0.862   6.005 -0.1941 -0.2236 -1.0385
  249MOL0     H34300   9.857   0.817   5.967  0.8915  1.9252  0.5724
  249MOL0     H34301   9.859   1.018   5.811 -1.0169 -1.8579 -0.1208
  249MOL0     H34302   9.699   1.057   5.855  0.7500 -1.0241 -0.9614
  249MOL0     H34303   9.909   1.173   5.977 -2.2872  1.2953 -0.7442
  249MOL0     H34304   9.925   1.022   6.071 -0.6469  0.7286  0.2622
  249MOL0     H34305   9.692   1.214   6.062  1.3541 -1.5084 -3.0237
  249MOL0     H34306   9.690   1.053   6.130 -2.6563  2.7801 -0.5672
  249MOL0     H34307   9.926   1.212   6.236  0.7429 -1.9064  0.0042
  249MOL0     H34308   9.807   1.100   6.305 -2.7752 -0.1983 -0.5630
  249MOL0     H34309   9.761   1.391   6.228 -0.2405  0.7335  0.7034
  249MOL0     H34310   9.631   1.284   6.291 -0.3885  0.5909 -0.8882
  249MOL0     H34311   9.888   1.539   6.403  1.8877 -1.1232 -0.5903
  249MOL0     H34312   9.977   1.474   6.774 -1.1065 -0.2461 -0.0707
  249MOL0     H34313   9.933   1.617   6.689 -0.8448  0.0037 -1.8552
  249MOL0     H34314  10.115   1.561   6.521  0.3769 -0.6654 -0.1154
  249MOL0     H34315  10.169   1.600   6.690  3.3498 -1.4470 -0.8386
  249MOL0     H34316  10.176   1.362   6.743  0.0985  0.1843  0.1421
  249MOL0     H34317  10.139   1.313   6.580 -1.8245  2.2201 -1.5567
  249MOL0     H34318  10.350   1.459   6.520  2.6411  4.6814  3.5574
  249MOL0     H34319  10.372   1.459   6.692 -3.2107  2.0239  0.5352
  249MOL0     H34320  10.580   1.454   6.512 -1.5707 -1.8643 -0.4627
  249MOL0     H34321  10.789   1.540   6.453 -0.3705 -0.8907 -0.9192
  249MOL0     H34322  10.923   1.434   6.443  1.8198  1.2316  2.0432
  249MOL0     H34323  10.894   1.519   6.598 -0.2994 -1.1669  1.7808
  249MOL0     H34324  11.218   1.507   6.598 -0.1544  1.1196  0.7201
  249MOL0     H34325  11.438   1.520   6.682 -1.0070  0.3896  0.2857
  249MOL0     H34326  11.717   1.423   6.763 -1.1610  1.2856 -0.7030
  249MOL0     H34327  11.592   1.524   6.827 -0.4550  0.0782  1.7326
  249MOL0     H34328  11.621   1.441   7.056  0.3705 -0.3132  0.2260
  249MOL0     H34329  11.751   1.332   7.014 -0.3649 -0.5441  1.6299
  249MOL0     H34330  11.770   1.632   6.986 -1.1510 -0.9143 -0.6543
  249MOL0     H34331  11.884   1.524   6.906 -0.2611 -1.8606  0.1768
  249MOL0     H34332  11.918   1.405   7.126  0.0865 -0.0533 -2.1007
  249MOL0     H34333  11.826   1.533   7.200 -0.5935 -2.9840 -0.2266
  249MOL0     H34334  12.090   1.536   7.034 -1.0153  0.2531 -1.8717
  249MOL0     H34335  12.019   1.697   7.095 -2.1755  0.0432  2.2877
  249MOL0     H34336  12.148   1.471   7.255 -0.6292 -1.2262  0.7721
  249MOL0     H34337  12.045   1.588   7.322  2.1037 -1.0535  0.6912
  249MOL0     H34338  12.188   1.772   7.222 -0.4423 -0.0848 -1.1672
  249MOL0     H34339  12.291   1.640   7.152  0.4899 -1.1961  1.2637
  249MOL0     H34340  12.241   1.646   7.453 -0.5763  0.8589 -0.7707
  249MOL0     H34341  12.380   1.731   7.383 -1.0900  0.6129  0.2150
  249MOL0     H34342  11.409   1.132   6.865  1.1045 -0.8545 -1.9466
  249MOL0     H34343  11.175   1.113   6.789  0.7233 -1.1714 -0.5392
  249MOL0     H34344  10.765   1.023   6.655 -0.6738 -0.3164  0.0287
  249MOL0     H34345  10.520   1.056   6.652  0.5062 -0.5763  0.2442
  249MOL0     H34346   9.369   0.627   6.089 -0.7348  3.4158 -0.3269
  249MOL0     H34347   9.140   0.548   6.030 -2.7937  0.2850 -1.4588
  249MOL0     H34348   8.996   0.138   5.744  2.3363  4.0448  0.7985
  249MOL0     H34349   8.780   0.014   5.661 -4.9037 -0.7650  3.4309
  249MOL0     H34350   8.604  -0.055   5.567 -0.6632 -1.4666  0.1054
  249MOL0     H34351   8.556  -0.085   5.724 -1.1158 -1.5088 -0.7815
  249MOL0     H34352   8.397  -0.166   5.587  1.1870 -0.9964  0.6501
  249MOL0     H34353   8.395  -0.021   5.484  2.5001  1.0299  0.7320
  249MOL0     H34354   8.283  -0.069   5.769 -0.7272  1.2321  0.2267
  249MOL0     H34355   8.281   0.092   5.686 -0.3811  0.3102 -0.7869
  249MOL0     H34356   8.154  -0.158   5.571  0.8690  0.5952 -0.0453
  249MOL0     H34357   8.128   0.005   5.515  0.7940  3.2682  1.4304
  249MOL0     H34358   7.910  -0.008   5.884  2.1259  1.1186  0.0469
  249MOL0     H34359   8.576   0.378   5.678 -0.1240  0.5632  2.3175
  249MOL0     H34360   8.677   0.574   5.669 -0.9077  1.2039  3.5282
  249MOL0     H34361   8.801   0.600   5.789  0.2306 -0.1056  0.2531
  249MOL0     H34362   8.841   0.592   5.615  2.4439 -0.6527  1.7110
  250MOL0     O34363   9.219   5.296   4.281 -0.1937  0.3485 -0.2603
  250MOL0     C34364   9.183   5.232   4.182 -0.0086  0.5423  0.3441
  250MOL0     O34365   9.252   5.217   4.062 -0.2820  0.6287 -0.8722
  250MOL0     C34366   9.374   5.269   4.045 -0.7414 -0.0745  0.1772
  250MOL0     C34367   9.467   5.257   4.151  0.6273 -0.7718 -0.1788
  250MOL0     C34368   9.600   5.291   4.128 -0.2278 -1.3384  0.4017
  250MOL0     C34369   9.643   5.339   4.003  0.2214 -1.1170  0.0540
  250MOL0     O34370   9.779   5.366   3.987 -0.4309 -0.7918  0.1112
  250MOL0     C34371   9.819   5.479   3.902 -0.0908  0.3336  0.1371
  250MOL0     C34372   9.948   5.541   3.975  0.2476  0.2702 -0.1015
  250MOL0     C34373  10.058   5.436   3.993 -0.0050  0.2813 -0.1660
  250MOL0     C34374  10.188   5.492   4.043  0.5971  0.1305  0.2073
  250MOL0     C34375  10.179   5.578   4.171 -0.4606  0.5166 -0.2781
  250MOL0     C34376  10.300   5.670   4.193 -0.2536 -0.7661  0.1163
  250MOL0     C34377  10.408   5.590   4.260  0.0998  0.0040  0.9162
  250MOL0     C34378  10.542   5.657   4.245  0.1239 -0.2620 -0.3864
  250MOL0     N34379  10.659   5.572   4.271 -0.3473 -0.5365  0.2300
  250MOL0     C34380  10.683   5.441   4.221  0.2221 -0.3451 -0.5448
  250MOL0     C34381  10.802   5.412   4.272 -1.1715  0.3922  0.2285
  250MOL0     C34382  10.876   5.276   4.251  1.0598  0.0761  0.0300
  250MOL0     C34383  11.020   5.291   4.189 -0.0144  0.9015  0.4079
  250MOL0     C34384  11.065   5.151   4.165  0.0505  0.0948  0.7170
  250MOL0     C34385  11.202   5.138   4.101  0.3456 -0.1251 -0.0296
  250MOL0     O34386  11.296   5.216   4.175 -0.0037 -0.5351 -0.6942
  250MOL0     C34387  11.418   5.237   4.123 -0.5416  0.1946  0.1949
  250MOL0     C34388  11.472   5.182   4.009 -0.0628  0.1709  0.2926
  250MOL0     C34389  11.598   5.216   3.954  0.0227 -0.7787  0.0502
  250MOL0     C34390  11.650   5.134   3.836 -0.0576 -0.4072  0.3173
  250MOL0     C34391  11.683   5.317   4.020 -0.8018 -0.1364 -0.0700
  250MOL0     C34392  11.814   5.386   3.983 -0.4048  1.3101  0.0397
  250MOL0     O34393  11.864   5.491   4.064  0.0672 -0.2626  0.0034
  250MOL0     C34394  12.002   5.523   4.069  0.2916  0.6088 -0.1976
  250MOL0     C34395  12.067   5.610   3.975  0.0615  0.0125  0.0518
  250MOL0     C34396  12.204   5.642   3.985 -0.9218 -0.3827 -0.7420
  250MOL0     C34397  12.283   5.584   4.087  0.4396  0.4611  0.8122
  250MOL0     O34398  12.419   5.599   4.100 -0.2384 -0.6333  0.0564
  250MOL0     C34399  12.453   5.716   4.157  0.0469  0.0612 -0.6467
  250MOL0     C34400  12.605   5.717   4.147 -0.0683  0.3857 -0.6927
  250MOL0     C34401  12.671   5.608   4.229  0.1469 -0.6316  0.5741
  250MOL0     C34402  12.824   5.628   4.239  0.7199  0.7171  0.2312
  250MOL0     C34403  12.888   5.593   4.377 -0.0407 -0.4404 -0.1358
  250MOL0     C34404  12.852   5.702   4.478 -0.2634 -0.1822 -0.0806
  250MOL0     C34405  12.929   5.694   4.609  0.1793  0.1142 -0.1156
  250MOL0     C34406  12.887   5.807   4.713  0.2797  0.3983 -0.4119
  250MOL0    Cl34407  12.710   5.814   4.746 -0.1448  0.1869 -0.3362
  250MOL0     C34408  12.219   5.484   4.167 -0.1867 -0.2399  0.0423
  250MOL0     C34409  12.082   5.458   4.156 -0.1039  0.7292  0.7348
  250MOL0     O34410  11.875   5.329   3.890 -0.0793 -0.1161 -0.5013
  250MOL0     C34411  11.628   5.365   4.137  0.0666  1.2447 -0.3166
  250MOL0     C34412  11.501   5.326   4.186  0.4192  0.3379 -0.1486
  250MOL0     N34413  10.848   5.514   4.356 -0.1062 -0.3487 -0.0000
  250MOL0     N34414  10.761   5.610   4.347  0.2918  1.1855  0.1406
  250MOL0     C34415   9.551   5.363   3.895 -0.8135  0.5859 -0.8505
  250MOL0     C34416   9.421   5.319   3.919  0.1435  0.0916  0.0346
  250MOL0     C34417   9.053   5.154   4.183 -0.3764  0.9689  0.0780
  250MOL0     C34418   9.012   5.095   4.062 -0.0048  0.0784  0.3888
  250MOL0     C34419   8.884   5.030   4.050  0.3672 -0.4343  0.0666
  250MOL0     C34420   8.805   5.007   4.158  0.6486 -0.7069 -0.0810
  250MOL0     O34421   8.698   4.922   4.140 -0.0564  0.4396  0.1550
  250MOL0     C34422   8.578   4.975   4.205 -0.5119  0.1172  0.0476
  250MOL0     C34423   8.464   4.952   4.100 -0.4378 -1.3676  0.4408
  250MOL0     C34424   8.332   5.031   4.142  0.2744 -0.2990 -0.3820
  250MOL0     C34425   8.262   4.979   4.264  0.3905 -0.3767  0.6755
  250MOL0     C34426   8.260   4.834   4.271 -0.4930  0.0136 -0.1453
  250MOL0     C34427   8.265   4.708   4.279 -0.5573  0.0348 -0.7703
  250MOL0     C34428   8.843   5.070   4.283 -0.1466  0.4999  0.4982
  250MOL0     C34429   8.966   5.142   4.291 -0.2751  0.2543  0.5285
  250MOL0     C34430   9.005   5.190   4.437  1.2247 -0.3771  0.1820
  250MOL0     H34431   9.446   5.217   4.249  1.9545  0.0342  0.4767
  250MOL0     H34432   9.682   5.278   4.198  2.7348 -0.4699 -2.6340
  250MOL0     H34433   9.746   5.559   3.888 -0.3673 -0.1083 -1.1231
  250MOL0     H34434   9.837   5.454   3.797 -1.1318  2.9938 -0.7689
  250MOL0     H34435   9.981   5.630   3.922  0.9156  1.2628  1.9154
  250MOL0     H34436   9.910   5.562   4.075  3.0722 -2.1924  1.6544
  250MOL0     H34437  10.023   5.357   4.061 -0.1395 -1.0091 -1.6700
  250MOL0     H34438  10.078   5.389   3.896  1.4108  1.4691 -0.4894
  250MOL0     H34439  10.265   5.421   4.073 -0.4910 -0.5792  1.4093
  250MOL0     H34440  10.235   5.547   3.960 -0.9649  0.6947 -0.3451
  250MOL0     H34441  10.172   5.514   4.259 -2.7334 -0.0073 -0.7594
  250MOL0     H34442  10.084   5.634   4.168 -1.4091 -0.7559  2.6217
  250MOL0     H34443  10.337   5.701   4.095 -0.7127 -1.2350 -0.2161
  250MOL0     H34444  10.273   5.758   4.251  0.7315 -0.3905  0.0193
  250MOL0     H34445  10.416   5.490   4.217 -0.1026  0.2167  0.3706
  250MOL0     H34446  10.378   5.570   4.363 -3.5832 -1.7860 -0.3011
  250MOL0     H34447  10.554   5.681   4.139  1.9112 -0.5438 -0.2837
  250MOL0     H34448  10.559   5.750   4.299 -1.4836  1.3625 -2.4767
  250MOL0     H34449  10.622   5.389   4.148  2.4842 -0.8433 -2.2110
  250MOL0     H34450  10.811   5.208   4.196  0.2630  0.8498 -0.0156
  250MOL0     H34451  10.887   5.225   4.347 -1.4341 -2.6271 -0.9562
  250MOL0     H34452  11.027   5.346   4.095 -1.7697 -0.1776 -0.3946
  250MOL0     H34453  11.086   5.334   4.265  0.0743  0.8078  0.3836
  250MOL0     H34454  11.070   5.092   4.257 -0.8294 -3.8909 -1.5428
  250MOL0     H34455  10.986   5.114   4.099 -0.7518  2.0207  0.5475
  250MOL0     H34456  11.244   5.039   4.087 -1.0335 -0.8547  0.7557
  250MOL0     H34457  11.192   5.176   3.999  2.1499 -1.0738 -0.5880
  250MOL0     H34458  11.425   5.109   3.943 -1.0030 -0.2222  1.3541
  250MOL0     H34459  11.681   5.200   3.754 -3.1768  1.9976  0.8960
  250MOL0     H34460  11.571   5.067   3.801  1.2534 -2.4311  1.0607
  250MOL0     H34461  11.735   5.076   3.875  0.5655  0.3333  0.0958
  250MOL0     H34462  12.016   5.642   3.885 -0.3693  2.1793  0.9858
  250MOL0     H34463  12.255   5.699   3.908  0.3134 -0.8047 -0.2645
  250MOL0     H34464  12.407   5.796   4.098  2.7156  0.4302 -2.4609
  250MOL0     H34465  12.425   5.730   4.261 -0.7724  2.3937 -1.1098
  250MOL0     H34466  12.637   5.715   4.042  1.0123 -0.2209 -0.3698
  250MOL0     H34467  12.631   5.815   4.188  0.1156 -0.6689  1.9120
  250MOL0     H34468  12.645   5.512   4.182 -1.3023  0.9375 -2.0574
  250MOL0     H34469  12.627   5.610   4.329  0.5241  1.7784  0.7453
  250MOL0     H34470  12.856   5.731   4.223 -1.5906  1.4492 -0.0784
  250MOL0     H34471  12.877   5.575   4.160  0.4838  0.4236  0.2659
  250MOL0     H34472  12.852   5.494   4.406 -0.2738 -0.4449 -0.4376
  250MOL0     H34473  12.997   5.588   4.370  0.0552  0.2985  0.6603
  250MOL0     H34474  12.746   5.716   4.503 -0.0087 -1.1023  1.7711
  250MOL0     H34475  12.887   5.789   4.422  0.0001  0.0180  0.3878
  250MOL0     H34476  13.035   5.718   4.600  0.8669 -1.2639  2.8600
  250MOL0     H34477  12.936   5.593   4.650 -1.2725  1.4861  4.1395
  250MOL0     H34478  12.911   5.906   4.673 -0.0212  0.0814 -1.4047
  250MOL0     H34479  12.936   5.789   4.809 -1.4839  3.0495  1.1146
  250MOL0     H34480  12.272   5.433   4.246  2.2630 -1.9545 -2.4957
  250MOL0     H34481  12.034   5.380   4.214  0.6320 -1.0946 -0.9938
  250MOL0     H34482  11.680   5.448   4.184  0.2185  1.2777 -0.5417
  250MOL0     H34483  11.471   5.377   4.278  3.7605  1.5354  0.4003
  250MOL0     H34484   9.565   5.408   3.798 -2.3410 -0.2720 -1.4876
  250MOL0     H34485   9.340   5.325   3.847 -1.3218 -1.0323  1.5059
  250MOL0     H34486   9.062   5.123   3.970 -1.9398  1.4410 -0.3237
  250MOL0     H34487   8.845   4.997   3.954 -1.9454  1.1038  0.3910
  250MOL0     H34488   8.552   4.912   4.290 -0.6550 -1.1416 -0.9069
  250MOL0     H34489   8.577   5.080   4.236 -3.9066  1.4497 -3.7729
  250MOL0     H34490   8.445   4.848   4.072 -1.4565 -0.8523 -0.8951
  250MOL0     H34491   8.498   4.998   4.007 -2.8220 -0.8058 -0.2113
  250MOL0     H34492   8.351   5.139   4.151 -0.7679 -0.0803 -0.6800
  250MOL0     H34493   8.259   5.021   4.061  0.8361  2.2947 -1.3068
  250MOL0     H34494   8.157   5.009   4.270 -0.1204 -1.2350 -2.1107
  250MOL0     H34495   8.313   5.013   4.354  0.7735 -0.7955  0.6175
  250MOL0     H34496   8.254   4.601   4.286 -5.2119  0.3166 -0.1010
  250MOL0     H34497   8.788   5.063   4.377 -1.9401  2.5687 -0.3216
  250MOL0     H34498   9.107   5.158   4.462  0.4045 -2.0192  1.5993
  250MOL0     H34499   9.001   5.299   4.429  1.2471 -0.4543 -1.2912
  250MOL0     H34500   8.930   5.157   4.509 -0.1430  0.1522 -0.9602
  251MOL0     O34501   3.462   7.539   2.774  0.4188  0.7575 -0.7919
  251MOL0     C34502   3.352   7.583   2.814  0.2980 -0.9627 -0.3032
  251MOL0     O34503   3.269   7.663   2.738  0.0677 -0.3876 -0.2529
  251MOL0     C34504   3.307   7.678   2.606  0.2737 -0.8148  0.7230
  251MOL0     C34505   3.404   7.771   2.563 -0.3145  0.0517 -0.0866
  251MOL0     C34506   3.430   7.784   2.424  0.2941  0.2768 -0.1646
  251MOL0     C34507   3.363   7.708   2.327  0.4792  0.2225  0.4859
  251MOL0     O34508   3.391   7.697   2.194  0.1858 -0.7260  0.0075
  251MOL0     C34509   3.459   7.806   2.132 -0.1057  0.0837  0.1571
  251MOL0     C34510   3.593   7.749   2.088 -0.0124  0.8001  0.2601
  251MOL0     C34511   3.678   7.848   2.004  0.8932  1.1322 -0.6032
  251MOL0     C34512   3.806   7.780   1.950  0.0053  0.1886  0.3782
  251MOL0     C34513   3.911   7.894   1.909 -0.1787 -0.2327 -0.9264
  251MOL0     C34514   4.042   7.835   1.934 -0.2266  0.1498 -0.0005
  251MOL0     C34515   4.150   7.930   1.913 -0.0334 -0.8271  0.0691
  251MOL0     C34516   4.196   7.938   1.773 -0.4746 -0.3809  0.2779
  251MOL0     N34517   4.313   8.031   1.765  0.6723  0.6790  0.2882
  251MOL0     C34518   4.440   7.987   1.794 -0.8106  0.2821  0.2675
  251MOL0     C34519   4.521   8.081   1.749  0.5382 -0.3018 -1.2843
  251MOL0     C34520   4.667   8.083   1.766 -0.3220  0.1670  0.3146
  251MOL0     C34521   4.754   8.177   1.690 -0.3939 -0.3021  0.0898
  251MOL0     C34522   4.751   8.308   1.748  0.9445  0.1036 -0.6582
  251MOL0     C34523   4.797   8.418   1.651  0.7762  0.1909 -0.7363
  251MOL0     O34524   4.927   8.375   1.605  0.4572  0.0121  0.1190
  251MOL0     C34525   4.984   8.458   1.517 -0.2154 -0.8047 -0.0511
  251MOL0     C34526   5.108   8.411   1.467  0.3099 -0.7408 -0.5309
  251MOL0     C34527   5.170   8.479   1.362  0.5829  0.5240  0.7324
  251MOL0     C34528   5.303   8.424   1.312  0.3746 -0.3634 -0.2830
  251MOL0     C34529   5.114   8.590   1.302  0.5073  0.1887 -0.4227
  251MOL0     C34530   5.182   8.656   1.186 -0.4799 -0.3616  0.2164
  251MOL0     O34531   5.315   8.682   1.198 -0.2519 -0.0697 -0.1975
  251MOL0     C34532   5.385   8.720   1.089 -0.8422  0.5655  0.2629
  251MOL0     C34533   5.490   8.803   1.118  0.2256  0.5629  0.9166
  251MOL0     C34534   5.583   8.847   1.023  0.1871  0.4644  0.1022
  251MOL0     C34535   5.559   8.806   0.887  0.0509 -0.3286 -0.4666
  251MOL0     O34536   5.663   8.835   0.806  0.0452  0.6496 -0.2039
  251MOL0     C34537   5.620   8.870   0.672 -0.5129 -0.7582 -0.0103
  251MOL0     C34538   5.716   8.951   0.587  0.0407 -0.9052  0.0168
  251MOL0     C34539   5.759   9.095   0.642 -0.0123  0.4703  0.0671
  251MOL0     C34540   5.871   9.159   0.559  0.7124  0.8533 -0.2617
  251MOL0     C34541   5.873   9.317   0.570  0.0786  0.3058  0.4416
  251MOL0     C34542   6.014   9.358   0.574  0.6814 -0.0467 -0.0525
  251MOL0     C34543   6.032   9.504   0.587  0.0200  0.7764  0.1178
  251MOL0     C34544   6.184   9.546   0.582 -0.1320 -0.5733 -0.6847
  251MOL0    Cl34545   6.250   9.506   0.423 -0.5901 -0.2176 -0.0299
  251MOL0     C34546   5.452   8.710   0.860 -0.9298 -1.2139 -0.2089
  251MOL0     C34547   5.373   8.652   0.957 -0.4091 -0.3032  0.1449
  251MOL0     O34548   5.113   8.683   1.089 -0.0921 -0.1396 -0.0145
  251MOL0     C34549   4.983   8.626   1.341  0.2102  0.4562  0.1861
  251MOL0     C34550   4.921   8.565   1.448 -0.8208 -0.1423 -0.5395
  251MOL0     N34551   4.436   8.182   1.711 -0.1157  0.1796  0.2145
  251MOL0     N34552   4.311   8.154   1.724  0.2885 -0.5406 -0.5485
  251MOL0     C34553   3.271   7.622   2.374  0.3141 -0.5140  0.0001
  251MOL0     C34554   3.238   7.607   2.508  0.0376 -0.0972 -0.2948
  251MOL0     C34555   3.310   7.571   2.958 -0.3898 -0.4694 -0.0301
  251MOL0     C34556   3.179   7.594   2.984 -0.4209  0.1238 -0.7652
  251MOL0     C34557   3.129   7.600   3.115 -0.1367 -0.2058  0.6668
  251MOL0     C34558   3.206   7.559   3.218 -0.3451  0.1426 -0.1392
  251MOL0     O34559   3.169   7.562   3.348 -0.5101 -0.2406  0.1117
  251MOL0     C34560   3.030   7.583   3.388 -0.4150  0.1887  1.8622
  251MOL0     C34561   3.011   7.503   3.512 -0.2402 -0.0639  0.0952
  251MOL0     C34562   3.025   7.356   3.499 -0.1167 -0.0428  0.3941
  251MOL0     C34563   3.071   7.298   3.642 -1.4984 -0.7627 -0.0478
  251MOL0     C34564   3.117   7.161   3.652 -0.9915  0.5325 -1.1978
  251MOL0     C34565   3.155   7.044   3.651  0.1729  0.4130  0.4756
  251MOL0     C34566   3.339   7.527   3.196  0.3334  0.6893  0.9272
  251MOL0     C34567   3.388   7.526   3.064  0.6563 -0.3755  0.8508
  251MOL0     C34568   3.528   7.491   3.044  0.5103  0.2523  0.1292
  251MOL0     H34569   3.468   7.818   2.637 -0.0818  0.4997 -0.5674
  251MOL0     H34570   3.519   7.839   2.395  0.7074 -1.4269 -2.4076
  251MOL0     H34571   3.472   7.885   2.206 -0.7060  0.6896 -0.3737
  251MOL0     H34572   3.403   7.845   2.046  0.9059  1.8600  0.2583
  251MOL0     H34573   3.648   7.715   2.177 -2.0621  1.8020  1.9931
  251MOL0     H34574   3.568   7.671   2.015  0.6039 -0.4129  1.3016
  251MOL0     H34575   3.630   7.883   1.913  2.8158  0.9452 -1.7624
  251MOL0     H34576   3.697   7.931   2.073  0.9901 -0.1678  0.9915
  251MOL0     H34577   3.855   7.721   2.028 -2.0631 -0.0031  1.6084
  251MOL0     H34578   3.792   7.714   1.864  0.5142  0.2474  0.2487
  251MOL0     H34579   3.894   7.971   1.985  0.0658 -0.4787 -0.6204
  251MOL0     H34580   3.895   7.928   1.807  0.1460  0.7840 -0.6534
  251MOL0     H34581   4.044   7.807   2.040  1.8564 -0.1569 -0.0798
  251MOL0     H34582   4.062   7.741   1.882  1.1853  1.1066 -1.2712
  251MOL0     H34583   4.236   7.909   1.978 -0.7250  0.9996  1.7116
  251MOL0     H34584   4.123   8.029   1.952  1.8618  0.1530 -1.0011
  251MOL0     H34585   4.229   7.847   1.724 -2.0848  0.8251 -3.4632
  251MOL0     H34586   4.115   7.984   1.716 -1.3060  0.0757  1.7632
  251MOL0     H34587   4.478   7.899   1.846  0.9936  1.7585  1.6132
  251MOL0     H34588   4.690   7.985   1.722 -1.0719  1.2250 -2.6159
  251MOL0     H34589   4.693   8.097   1.871 -1.0808 -0.1965  0.5576
  251MOL0     H34590   4.856   8.137   1.691  0.1598  0.9140  2.7871
  251MOL0     H34591   4.732   8.173   1.583  0.6926 -1.7192 -0.1233
  251MOL0     H34592   4.651   8.330   1.788  0.5045 -1.6352 -0.7316
  251MOL0     H34593   4.809   8.309   1.841 -1.6204  1.5404  1.0786
  251MOL0     H34594   4.719   8.420   1.575 -2.6884 -1.3833  2.4410
  251MOL0     H34595   4.796   8.513   1.706  1.2426 -0.3390  0.2064
  251MOL0     H34596   5.152   8.323   1.512 -0.0949 -0.5191  0.3106
  251MOL0     H34597   5.319   8.320   1.341  1.6865  0.0646  0.6364
  251MOL0     H34598   5.384   8.486   1.352 -0.0444  1.7418 -2.4524
  251MOL0     H34599   5.309   8.433   1.203 -0.0671 -0.0453 -0.2833
  251MOL0     H34600   5.514   8.828   1.222  3.1163 -0.0880  0.5081
  251MOL0     H34601   5.664   8.910   1.058  0.5094  0.0883  0.0375
  251MOL0     H34602   5.594   8.781   0.615  0.6930 -0.3389 -1.2971
  251MOL0     H34603   5.534   8.937   0.685  0.4233  0.6896 -0.8727
  251MOL0     H34604   5.806   8.896   0.556  0.5890  1.2149 -2.5506
  251MOL0     H34605   5.664   8.961   0.491 -1.9468 -2.1946  0.8876
  251MOL0     H34606   5.788   9.092   0.748  0.5711  0.8427 -0.0779
  251MOL0     H34607   5.672   9.160   0.627 -0.4941  1.7383  5.8273
  251MOL0     H34608   5.841   9.139   0.456 -1.5215  2.8920 -0.1023
  251MOL0     H34609   5.968   9.107   0.563 -0.9046 -2.5381 -1.3470
  251MOL0     H34610   5.830   9.353   0.476  0.5023 -0.5748 -0.1088
  251MOL0     H34611   5.817   9.350   0.657 -1.1794  0.4354 -0.3890
  251MOL0     H34612   6.060   9.317   0.484  0.4968 -0.5980  0.0930
  251MOL0     H34613   6.059   9.317   0.665 -0.8802  0.7283  1.1047
  251MOL0     H34614   5.981   9.539   0.677 -0.6634 -2.2489  1.0139
  251MOL0     H34615   5.996   9.550   0.495  2.9703  0.3934 -1.3559
  251MOL0     H34616   6.231   9.482   0.657 -1.4232  0.0110  0.6664
  251MOL0     H34617   6.205   9.649   0.611  0.0153 -0.9069  0.4519
  251MOL0     H34618   5.442   8.669   0.759  3.4725  0.6068 -1.6062
  251MOL0     H34619   5.304   8.568   0.953  2.2435 -2.5875 -0.0900
  251MOL0     H34620   4.940   8.701   1.276 -2.8602 -1.0103  0.3470
  251MOL0     H34621   4.819   8.602   1.463 -0.3058  1.3362 -0.4929
  251MOL0     H34622   3.214   7.554   2.312 -0.4288  0.3438 -0.2784
  251MOL0     H34623   3.173   7.531   2.550  0.1195  0.0305  0.0680
  251MOL0     H34624   3.112   7.625   2.905 -2.2541  1.0483  1.0462
  251MOL0     H34625   3.025   7.628   3.121 -0.8723 -2.0383 -1.6238
  251MOL0     H34626   3.009   7.689   3.406 -3.2284  0.0520 -0.0771
  251MOL0     H34627   2.960   7.540   3.316  2.4096 -1.6338  0.0099
  251MOL0     H34628   2.908   7.518   3.546  0.1660  3.2002  0.2392
  251MOL0     H34629   3.082   7.550   3.581  1.2285  1.7572 -2.4952
  251MOL0     H34630   2.936   7.303   3.462  1.1193 -0.1259 -2.8140
  251MOL0     H34631   3.104   7.336   3.426  0.6250 -0.0879  1.1923
  251MOL0     H34632   2.989   7.321   3.711 -3.9665  0.5075 -3.1507
  251MOL0     H34633   3.161   7.356   3.662 -0.5733 -1.6432 -1.5197
  251MOL0     H34634   3.181   6.940   3.651  1.2109  0.5242 -3.5998
  251MOL0     H34635   3.404   7.493   3.276  1.6553  2.8243  0.8296
  251MOL0     H34636   3.580   7.461   3.136  1.2919 -1.1225 -0.7277
  251MOL0     H34637   3.525   7.411   2.969 -0.9848  1.1547 -0.8250
  251MOL0     H34638   3.572   7.581   3.000  1.2834 -0.4662 -0.6047
  252MOL0     O34639   3.595   2.902   2.425 -0.6373 -0.4810  0.1755
  252MOL0     C34640   3.630   3.014   2.390  0.2249  0.4958 -0.7984
  252MOL0     O34641   3.545   3.118   2.376 -0.6534 -0.5487 -0.4647
  252MOL0     C34642   3.416   3.090   2.420 -1.0143  0.5134  0.3543
  252MOL0     C34643   3.317   3.136   2.336 -0.6862 -0.3005 -0.3198
  252MOL0     C34644   3.186   3.107   2.358 -0.5436  0.3292 -1.0101
  252MOL0     C34645   3.151   3.056   2.486 -0.3760  0.3990 -0.7033
  252MOL0     O34646   3.011   3.051   2.506  0.5787 -0.0602  0.5419
  252MOL0     C34647   2.974   2.954   2.605 -0.3003  0.6234  0.3900
  252MOL0     C34648   2.828   2.899   2.597 -0.6968  0.4644  0.7597
  252MOL0     C34649   2.801   2.775   2.680 -0.3157 -1.0882  0.2274
  252MOL0     C34650   2.656   2.747   2.679 -0.6532 -0.1119 -0.0446
  252MOL0     C34651   2.588   2.783   2.803  0.6497 -0.1115  0.8290
  252MOL0     C34652   2.438   2.734   2.803  0.2511  0.2069  1.2619
  252MOL0     C34653   2.356   2.807   2.904  0.2736 -0.1941  0.4307
  252MOL0     C34654   2.382   2.753   3.046 -0.1907 -0.2835 -0.2530
  252MOL0     N34655   2.281   2.815   3.130  0.3084 -0.4480 -0.0374
  252MOL0     C34656   2.266   2.953   3.153 -1.3306  0.3105  0.0383
  252MOL0     C34657   2.147   2.966   3.219 -0.1523  0.0522  0.4990
  252MOL0     C34658   2.079   3.097   3.238  0.5809  0.4456 -0.6510
  252MOL0     C34659   2.028   3.102   3.384 -0.3001 -0.0544  0.7672
  252MOL0     C34660   2.132   3.080   3.500  0.6489 -0.5700 -0.7959
  252MOL0     C34661   2.237   3.191   3.500 -0.3405  0.3934 -0.0231
  252MOL0     O34662   2.317   3.173   3.614 -0.3008 -0.1194 -0.6068
  252MOL0     C34663   2.427   3.090   3.614  0.3757 -0.2686  0.2478
  252MOL0     C34664   2.439   2.990   3.522  0.2283 -0.5898  0.4952
  252MOL0     C34665   2.535   2.890   3.520 -0.3980 -0.1241 -0.8898
  252MOL0     C34666   2.537   2.783   3.412 -0.4234  0.0353 -0.0796
  252MOL0     C34667   2.626   2.895   3.630 -0.1493  0.2499  0.1871
  252MOL0     C34668   2.720   2.781   3.661  0.3404 -0.0742  0.2582
  252MOL0     O34669   2.834   2.815   3.726 -0.2046  0.6630  0.3019
  252MOL0     C34670   2.926   2.712   3.767 -0.1147 -0.0099 -0.4293
  252MOL0     C34671   3.055   2.707   3.715 -0.7206  0.4959 -0.3479
  252MOL0     C34672   3.150   2.611   3.760 -0.2015  0.0521 -0.7161
  252MOL0     C34673   3.118   2.519   3.856 -0.1794  0.4306  0.2258
  252MOL0     O34674   3.200   2.416   3.896  0.2462  0.6636 -0.3452
  252MOL0     C34675   3.306   2.371   3.815 -0.0197  0.9992  0.3228
  252MOL0     C34676   3.263   2.287   3.693  0.3727  0.1326 -0.5318
  252MOL0     C34677   3.385   2.228   3.617  0.4864 -0.0534 -0.7956
  252MOL0     C34678   3.469   2.120   3.679  0.3892  0.0641 -0.1659
  252MOL0     C34679   3.580   2.087   3.583  0.4398  0.3413 -0.4951
  252MOL0     C34680   3.663   1.964   3.617 -0.7880  0.2530  0.5930
  252MOL0     C34681   3.596   1.839   3.554  0.1556 -0.1175 -0.2571
  252MOL0     C34682   3.697   1.720   3.560 -0.7018 -0.3563  0.5226
  252MOL0    Cl34683   3.828   1.726   3.443 -0.3563 -0.1429  0.3076
  252MOL0     C34684   2.986   2.517   3.910 -0.0470  0.4602  0.4251
  252MOL0     C34685   2.895   2.616   3.865  0.1347  0.3247 -1.3050
  252MOL0     O34686   2.683   2.665   3.651 -0.3811  0.6430 -0.0640
  252MOL0     C34687   2.616   2.997   3.718 -0.1900  0.3491 -0.7145
  252MOL0     C34688   2.519   3.096   3.710 -0.3585  0.0117 -0.4055
  252MOL0     N34689   2.094   2.839   3.235  0.9434  0.3750 -0.6347
  252MOL0     N34690   2.181   2.753   3.200  0.1600  0.0212  0.8340
  252MOL0     C34691   3.252   3.022   2.576 -0.7487  0.6016 -0.3423
  252MOL0     C34692   3.385   3.038   2.538 -0.2543 -0.3201 -0.4251
  252MOL0     C34693   3.770   3.034   2.348 -0.6093  0.2086  0.2300
  252MOL0     C34694   3.795   3.108   2.238  0.0220  0.0047  0.0072
  252MOL0     C34695   3.927   3.127   2.192 -0.4053  0.6300  0.3166
  252MOL0     C34696   4.036   3.064   2.244 -0.7149 -0.5542 -0.3984
  252MOL0     O34697   4.172   3.088   2.211  0.1340 -0.5066  0.1432
  252MOL0     C34698   4.196   3.164   2.090 -0.6480 -0.2570 -1.0659
  252MOL0     C34699   4.342   3.141   2.055 -0.1561  0.2469  0.0517
  252MOL0     C34700   4.441   3.186   2.157  0.4576 -0.2524 -0.1714
  252MOL0     C34701   4.582   3.126   2.138 -0.3437  0.0944 -0.0923
  252MOL0     C34702   4.594   2.993   2.191 -0.7190  0.1560  0.3752
  252MOL0     C34703   4.599   2.888   2.244 -0.3473 -0.3204  0.1059
  252MOL0     C34704   4.016   2.980   2.358  0.4555  0.2853 -0.0013
  252MOL0     C34705   3.884   2.964   2.407  0.5832 -0.6129 -0.2222
  252MOL0     C34706   3.871   2.865   2.520  0.6613  0.5579  0.2509
  252MOL0     H34707   3.343   3.188   2.244 -1.7051  0.3558 -0.2487
  252MOL0     H34708   3.098   3.135   2.300  0.1760 -0.1637 -2.3928
  252MOL0     H34709   2.986   3.002   2.702 -2.8084 -3.3885  2.9773
  252MOL0     H34710   3.045   2.872   2.591 -0.6669  0.4433 -0.4792
  252MOL0     H34711   2.766   2.971   2.652 -0.4491  1.1379  0.1732
  252MOL0     H34712   2.804   2.885   2.491 -1.0138 -1.2068  1.0189
  252MOL0     H34713   2.858   2.688   2.646 -0.0677 -1.1008  0.6663
  252MOL0     H34714   2.829   2.795   2.784  0.1666 -1.2928  0.1378
  252MOL0     H34715   2.608   2.790   2.590 -0.6596  1.0349  0.4879
  252MOL0     H34716   2.642   2.640   2.663  1.7474 -0.3483 -0.8573
  252MOL0     H34717   2.602   2.892   2.804  2.4506 -0.1024 -3.2363
  252MOL0     H34718   2.641   2.763   2.896 -0.5379  2.8492  2.2707
  252MOL0     H34719   2.398   2.731   2.701  0.1997  1.8548  1.2015
  252MOL0     H34720   2.431   2.631   2.839 -2.3568 -0.3900 -0.5952
  252MOL0     H34721   2.251   2.791   2.877 -0.2532  0.3151  2.0546
  252MOL0     H34722   2.380   2.912   2.887  0.2681 -0.3280 -0.4221
  252MOL0     H34723   2.368   2.645   3.041 -2.2982  0.0019 -1.7206
  252MOL0     H34724   2.484   2.765   3.084 -0.5014  1.0808  0.2125
  252MOL0     H34725   2.328   3.037   3.120  1.8056 -1.4469  0.9800
  252MOL0     H34726   2.002   3.101   3.160  2.7751  2.5541 -2.8553
  252MOL0     H34727   2.155   3.173   3.219  0.7925  0.4137  0.0440
  252MOL0     H34728   1.981   3.197   3.409  4.4734  2.0725  2.8570
  252MOL0     H34729   1.949   3.027   3.396 -0.0392 -0.2563  1.2677
  252MOL0     H34730   2.081   3.078   3.597 -1.2664  1.0601 -1.7039
  252MOL0     H34731   2.181   2.982   3.491  0.7182 -0.8151  1.5136
  252MOL0     H34732   2.290   3.189   3.404 -2.5658  5.0945 -1.6661
  252MOL0     H34733   2.177   3.283   3.493 -0.8940 -0.0789 -2.0684
  252MOL0     H34734   2.378   2.981   3.433  0.4383 -0.7476  0.3667
  252MOL0     H34735   2.641   2.754   3.391 -0.8789 -2.5625  0.9614
  252MOL0     H34736   2.488   2.807   3.317 -2.1738 -2.0545  0.2360
  252MOL0     H34737   2.493   2.692   3.454 -3.5084  0.6230 -1.7482
  252MOL0     H34738   3.091   2.784   3.648  0.9205  1.3176  1.3678
  252MOL0     H34739   3.247   2.615   3.712 -0.3988 -0.3425 -1.1580
  252MOL0     H34740   3.371   2.454   3.789  1.6905 -0.4991 -0.4250
  252MOL0     H34741   3.367   2.308   3.880  0.3768  1.3966  0.3342
  252MOL0     H34742   3.200   2.213   3.743  1.9029 -0.7116  0.2311
  252MOL0     H34743   3.206   2.351   3.625 -1.7576 -1.6068 -0.4896
  252MOL0     H34744   3.441   2.318   3.590 -1.2673  0.4172 -3.1551
  252MOL0     H34745   3.349   2.181   3.525  2.1494 -0.0596 -1.4680
  252MOL0     H34746   3.404   2.033   3.693  0.9877 -0.3667 -0.0131
  252MOL0     H34747   3.514   2.159   3.771  3.7940  0.0498 -1.6895
  252MOL0     H34748   3.543   2.080   3.481  1.9836 -1.5255 -0.9673
  252MOL0     H34749   3.660   2.161   3.590 -0.3313  1.0638  2.5063
  252MOL0     H34750   3.676   1.955   3.725  1.9843  2.1745  0.5177
  252MOL0     H34751   3.762   1.988   3.576 -0.5974  0.7782  1.3376
  252MOL0     H34752   3.567   1.864   3.451  1.1171 -0.2383 -0.5691
  252MOL0     H34753   3.505   1.822   3.611  0.0302  0.2400 -0.3511
  252MOL0     H34754   3.645   1.627   3.536  2.0604 -1.3769 -2.2621
  252MOL0     H34755   3.740   1.704   3.659  1.8475  0.8249 -0.3106
  252MOL0     H34756   2.956   2.437   3.976  0.2923 -0.9368 -1.0441
  252MOL0     H34757   2.799   2.619   3.917  2.0201  1.1389  2.4494
  252MOL0     H34758   2.693   3.018   3.792 -0.9207  3.8348 -0.7939
  252MOL0     H34759   2.513   3.176   3.784  1.7268  0.3946 -0.5838
  252MOL0     H34760   3.232   2.987   2.676  0.9053  0.4261 -0.0546
  252MOL0     H34761   3.467   3.020   2.606 -1.0896 -0.5075  0.5473
  252MOL0     H34762   3.713   3.162   2.193 -0.6646 -0.9229  0.1102
  252MOL0     H34763   3.933   3.199   2.111  1.0844  0.9863  0.7233
  252MOL0     H34764   4.139   3.135   2.001  0.3232 -0.7811 -1.5372
  252MOL0     H34765   4.174   3.270   2.101  0.2700 -0.2491  1.1877
  252MOL0     H34766   4.363   3.212   1.975  1.6246  1.3316  1.4087
  252MOL0     H34767   4.353   3.037   2.023  1.3644 -0.1510  1.7209
  252MOL0     H34768   4.469   3.289   2.135  0.1778  0.1117  1.0807
  252MOL0     H34769   4.398   3.186   2.258  2.0777  2.4720  0.6433
  252MOL0     H34770   4.658   3.190   2.184 -0.7598  1.7270 -1.5444
  252MOL0     H34771   4.605   3.122   2.031 -0.6006 -1.5871 -0.1038
  252MOL0     H34772   4.604   2.794   2.295 -0.1662 -0.9504 -1.0413
  252MOL0     H34773   4.105   2.939   2.404  0.0267  1.0289  1.5717
  252MOL0     H34774   3.863   2.764   2.480 -2.4272  1.0889 -0.7685
  252MOL0     H34775   3.945   2.874   2.600  0.5329 -4.4555  1.2484
  252MOL0     H34776   3.772   2.875   2.566  0.5108  0.5561 -0.0716
  253MOL0     O34777   3.381   3.186   5.876 -0.9339 -0.5781 -0.5381
  253MOL0     C34778   3.404   3.083   5.821 -0.0034 -0.3432  0.0772
  253MOL0     O34779   3.511   2.999   5.842 -0.5672  0.4882 -0.5356
  253MOL0     C34780   3.611   3.034   5.930  0.0433  0.3659 -0.0526
  253MOL0     C34781   3.643   3.160   5.989  0.4276 -0.6534  0.1681
  253MOL0     C34782   3.749   3.167   6.084  0.5761  0.0336  0.4259
  253MOL0     C34783   3.827   3.056   6.117  0.6530  0.2705 -0.0677
  253MOL0     O34784   3.931   3.062   6.205  0.5447  1.2800 -0.1935
  253MOL0     C34785   3.972   3.179   6.262 -0.2582  0.0610  1.1466
  253MOL0     C34786   4.072   3.137   6.360 -1.1574  0.0019 -1.0724
  253MOL0     C34787   4.214   3.126   6.301 -0.7789 -0.4394 -0.6688
  253MOL0     C34788   4.327   3.085   6.396  0.2645  0.2405 -0.4390
  253MOL0     C34789   4.451   3.025   6.318  0.5455 -0.0726  0.0007
  253MOL0     C34790   4.524   3.124   6.220  0.2106 -0.3499 -0.9135
  253MOL0     C34791   4.625   3.063   6.123  0.4243  0.8819 -0.5315
  253MOL0     C34792   4.742   3.005   6.198  0.5525 -0.4983 -0.5842
  253MOL0     N34793   4.856   2.957   6.119 -0.2548  0.5228  0.9695
  253MOL0     C34794   4.892   2.823   6.108 -1.2216 -0.0958  0.4304
  253MOL0     C34795   5.015   2.830   6.038  0.9547 -0.3851 -0.1434
  253MOL0     C34796   5.095   2.711   6.002  0.7234 -0.4157 -0.1155
  253MOL0     C34797   5.146   2.712   5.861 -0.3963 -0.6019 -0.4549
  253MOL0     C34798   5.031   2.705   5.760 -1.1890 -0.6754  0.1279
  253MOL0     C34799   5.076   2.699   5.616 -0.3678  0.0193  0.3033
  253MOL0     O34800   5.161   2.581   5.600  0.2759  0.7385 -0.2624
  253MOL0     C34801   5.255   2.575   5.498 -0.0457  0.9245 -1.1028
  253MOL0     C34802   5.280   2.452   5.442 -0.0992  0.1551  0.1354
  253MOL0     C34803   5.363   2.437   5.331 -0.1111 -0.8236  0.3601
  253MOL0     C34804   5.377   2.301   5.267 -0.0311 -0.1562  0.0404
  253MOL0     C34805   5.449   2.554   5.288  0.3488  0.0243 -0.1038
  253MOL0     C34806   5.549   2.551   5.176  0.1783  1.4802 -0.2178
  253MOL0     O34807   5.553   2.445   5.106  0.5049  0.6001  0.2813
  253MOL0     C34808   5.668   2.413   5.031 -0.1004 -0.1289  0.4892
  253MOL0     C34809   5.686   2.474   4.910 -0.7455  0.3012  0.0882
  253MOL0     C34810   5.795   2.446   4.832  0.0092 -0.5885  0.1491
  253MOL0     C34811   5.896   2.360   4.879 -0.3495  0.5120 -0.4749
  253MOL0     O34812   6.022   2.338   4.820 -0.2898  0.0187  0.5489
  253MOL0     C34813   6.073   2.429   4.726  0.2966  0.4106 -0.3365
  253MOL0     C34814   6.217   2.401   4.698  0.2352 -0.1043 -0.3696
  253MOL0     C34815   6.294   2.403   4.830 -0.1131  0.4084  1.1773
  253MOL0     C34816   6.445   2.385   4.803  0.3748  0.2185 -0.8550
  253MOL0     C34817   6.527   2.375   4.942 -0.7050  0.5639  0.3071
  253MOL0     C34818   6.681   2.364   4.926 -0.3128  0.6010  0.4958
  253MOL0     C34819   6.751   2.366   5.058  0.0035 -0.3757  0.8321
  253MOL0     C34820   6.906   2.348   5.054 -0.4085 -0.6174 -0.1457
  253MOL0    Cl34821   6.983   2.404   5.218 -0.3091  0.0719  0.1047
  253MOL0     C34822   5.884   2.305   5.006 -0.5810 -0.1523 -0.1513
  253MOL0     C34823   5.771   2.325   5.087  0.2135  0.2988  0.8307
  253MOL0     O34824   5.635   2.638   5.175  0.9514 -0.0608  0.3525
  253MOL0     C34825   5.426   2.678   5.356  0.2839  0.0580 -0.0365
  253MOL0     C34826   5.330   2.685   5.460  0.2767  0.3266  0.0644
  253MOL0     N34827   5.034   2.960   6.005  0.6258 -0.4189  0.1755
  253MOL0     N34828   4.938   3.034   6.046 -0.7432  0.1520  0.2406
  253MOL0     C34829   3.791   2.937   6.054  0.5709 -0.0052 -1.1784
  253MOL0     C34830   3.683   2.924   5.971 -0.7325  0.1725 -0.1505
  253MOL0     C34831   3.298   3.031   5.724  0.1272 -0.3416 -0.4706
  253MOL0     C34832   3.331   2.922   5.643 -0.4862 -0.2525 -0.7955
  253MOL0     C34833   3.243   2.879   5.545 -0.0313  0.9711 -0.1154
  253MOL0     C34834   3.112   2.936   5.535 -0.3866 -0.7942 -0.3312
  253MOL0     O34835   3.029   2.908   5.436  0.4757 -0.0939 -0.3928
  253MOL0     C34836   2.951   2.794   5.461 -0.0409  0.6320  0.1191
  253MOL0     C34837   2.815   2.805   5.389 -0.1739 -1.4536 -0.0568
  253MOL0     C34838   2.731   2.918   5.451 -0.3807  0.5656  0.0165
  253MOL0     C34839   2.720   3.047   5.363  1.3276  0.2968 -0.2089
  253MOL0     C34840   2.654   3.152   5.431  1.0492 -0.2471 -0.5172
  253MOL0     C34841   2.614   3.250   5.493  0.2506  0.5233  0.4894
  253MOL0     C34842   3.075   3.040   5.613 -0.0461 -0.8653 -0.1064
  253MOL0     C34843   3.165   3.085   5.712 -0.2371 -0.0717  0.0532
  253MOL0     C34844   3.122   3.186   5.810  0.2997 -0.1108  0.8797
  253MOL0     H34845   3.590   3.252   5.967  0.2950 -0.9791 -0.9125
  253MOL0     H34846   3.776   3.266   6.120  0.2510  0.5113 -0.5839
  253MOL0     H34847   3.893   3.240   6.307  0.0036  0.2362  1.3701
  253MOL0     H34848   4.012   3.231   6.174 -0.5086 -3.9427 -1.5889
  253MOL0     H34849   4.075   3.228   6.421  2.6211 -0.4669 -0.2915
  253MOL0     H34850   4.040   3.040   6.398  2.1842 -1.3292 -1.3253
  253MOL0     H34851   4.210   3.054   6.219 -1.3874  1.2341 -2.1795
  253MOL0     H34852   4.242   3.223   6.257  2.5212 -1.5353 -1.2842
  253MOL0     H34853   4.364   3.166   6.458 -1.7850  1.8781 -1.2409
  253MOL0     H34854   4.283   3.008   6.459  1.2945  0.2001  0.2538
  253MOL0     H34855   4.420   2.933   6.268 -2.4111  0.2499  1.0606
  253MOL0     H34856   4.521   2.996   6.398  0.5356 -0.6524 -0.1936
  253MOL0     H34857   4.452   3.179   6.159 -0.1632 -0.5408 -0.6502
  253MOL0     H34858   4.584   3.197   6.274  2.7647 -1.0422 -2.6077
  253MOL0     H34859   4.649   3.145   6.055 -0.4001  2.0711  0.5825
  253MOL0     H34860   4.581   2.982   6.064  0.7595  1.2332 -1.2730
  253MOL0     H34861   4.787   3.087   6.255 -1.6657 -0.8049  1.7729
  253MOL0     H34862   4.719   2.921   6.264  1.0942 -0.6102 -0.5312
  253MOL0     H34863   4.833   2.735   6.132 -0.8065  0.3511  3.5413
  253MOL0     H34864   5.032   2.622   6.006  1.1543 -0.6926  0.7784
  253MOL0     H34865   5.172   2.697   6.078  0.8445 -0.1123 -0.1814
  253MOL0     H34866   5.198   2.806   5.841  1.0184 -1.0873  0.7121
  253MOL0     H34867   5.221   2.634   5.843  0.1006  0.3744 -3.1308
  253MOL0     H34868   4.982   2.610   5.781 -0.3298 -0.9852  0.7844
  253MOL0     H34869   4.960   2.788   5.766  1.5863  1.9254 -0.3932
  253MOL0     H34870   4.985   2.689   5.556 -0.9050  1.7983  0.7440
  253MOL0     H34871   5.130   2.789   5.584 -0.0381 -1.0835 -2.5668
  253MOL0     H34872   5.233   2.365   5.487 -2.8128  1.5005  0.0934
  253MOL0     H34873   5.483   2.278   5.281 -0.0413  0.3130  0.9948
  253MOL0     H34874   5.347   2.283   5.163  2.8672 -0.1344 -0.8750
  253MOL0     H34875   5.312   2.235   5.326  1.1227 -0.0739  1.4608
  253MOL0     H34876   5.600   2.529   4.874  0.6560  0.8756 -2.6337
  253MOL0     H34877   5.805   2.492   4.734 -2.4213  3.7045  1.6860
  253MOL0     H34878   6.007   2.424   4.638 -1.9266  1.8273  1.1445
  253MOL0     H34879   6.069   2.532   4.762 -1.6747 -0.4265  2.1065
  253MOL0     H34880   6.218   2.305   4.646  0.3117  0.8074 -2.1370
  253MOL0     H34881   6.253   2.478   4.629 -0.3169  1.1778  0.7009
  253MOL0     H34882   6.255   2.317   4.886 -0.9681  1.3734  2.1353
  253MOL0     H34883   6.272   2.495   4.885  1.6208  1.9152 -0.5672
  253MOL0     H34884   6.468   2.477   4.748 -0.8269  0.4119 -1.0614
  253MOL0     H34885   6.463   2.299   4.738  0.1046  0.9822 -1.9654
  253MOL0     H34886   6.495   2.459   5.004  0.3798  1.8983 -0.8696
  253MOL0     H34887   6.510   2.290   5.009  2.3362 -0.1314  0.3427
  253MOL0     H34888   6.716   2.446   4.861 -0.4830  0.4260  0.1813
  253MOL0     H34889   6.712   2.270   4.880 -2.0563 -0.1039  0.6744
  253MOL0     H34890   6.714   2.285   5.123  2.4319 -2.4677 -0.2383
  253MOL0     H34891   6.721   2.460   5.106 -2.3903 -1.3665  1.4558
  253MOL0     H34892   6.942   2.420   4.980  0.3508 -1.1698 -0.3325
  253MOL0     H34893   6.927   2.242   5.032  0.2390 -0.3931 -0.6703
  253MOL0     H34894   5.973   2.254   5.040 -1.0159  0.1165  1.5147
  253MOL0     H34895   5.756   2.308   5.193 -2.4600  1.2960  0.7008
  253MOL0     H34896   5.487   2.765   5.332  0.9063  0.5271  2.8633
  253MOL0     H34897   5.336   2.777   5.517  1.2652  0.3929 -0.1296
  253MOL0     H34898   3.848   2.847   6.073 -0.4276 -0.6605 -1.1803
  253MOL0     H34899   3.667   2.835   5.911  0.4958  0.1170 -0.4349
  253MOL0     H34900   3.434   2.886   5.650 -0.7533 -0.8477  0.3118
  253MOL0     H34901   3.272   2.795   5.483 -0.0410  0.5511  0.4401
  253MOL0     H34902   3.009   2.708   5.424 -0.5333  0.8541 -1.2231
  253MOL0     H34903   2.938   2.775   5.568 -3.3846  0.3924 -0.2236
  253MOL0     H34904   2.768   2.708   5.406  1.2700 -1.9613  1.2677
  253MOL0     H34905   2.822   2.819   5.281  0.0401 -0.1923  0.1052
  253MOL0     H34906   2.630   2.878   5.463 -0.3371  0.1622 -0.8820
  253MOL0     H34907   2.766   2.936   5.553  1.6882  1.0692 -0.7340
  253MOL0     H34908   2.657   3.034   5.274  3.7162  0.1692 -1.9593
  253MOL0     H34909   2.821   3.074   5.330  1.8224 -1.2699 -0.0275
  253MOL0     H34910   2.614   3.329   5.566 -1.2422  0.5164  0.5176
  253MOL0     H34911   2.973   3.075   5.615  0.5628  1.0869 -0.6892
  253MOL0     H34912   3.143   3.288   5.777 -0.3035 -0.3060 -0.1375
  253MOL0     H34913   3.014   3.179   5.818  0.2484 -3.0213 -1.0704
  253MOL0     H34914   3.151   3.162   5.913 -1.5177 -2.7503  0.8511
  254MOL0     O34915   6.964   7.581   0.225 -0.0601 -0.5355  0.6095
  254MOL0     C34916   6.858   7.646   0.220 -0.9828  0.5923 -0.3631
  254MOL0     O34917   6.842   7.769   0.272 -0.4237 -0.6067 -0.1030
  254MOL0     C34918   6.928   7.811   0.371  1.1017  1.0032 -0.5870
  254MOL0     C34919   6.885   7.784   0.506 -0.1202 -0.8064  0.1231
  254MOL0     C34920   6.966   7.830   0.610 -0.1382 -0.0744 -0.0049
  254MOL0     C34921   7.083   7.905   0.578 -0.2501 -0.3029 -0.2529
  254MOL0     O34922   7.172   7.934   0.676 -0.0622  0.4402  0.2344
  254MOL0     C34923   7.157   8.067   0.727 -0.0420  0.1800  0.5991
  254MOL0     C34924   7.268   8.097   0.833  0.1970 -0.3417  0.1355
  254MOL0     C34925   7.412   8.089   0.776  0.3781  0.1865  0.4035
  254MOL0     C34926   7.435   8.204   0.673 -0.6062  0.0301 -0.6032
  254MOL0     C34927   7.584   8.215   0.653  0.8705  0.3608  0.5451
  254MOL0     C34928   7.606   8.114   0.543 -0.5020  0.9983  0.0048
  254MOL0     C34929   7.751   8.078   0.499 -0.1150 -0.4625 -0.5235
  254MOL0     C34930   7.821   8.192   0.429 -0.3008  0.6655 -0.2094
  254MOL0     N34931   7.948   8.155   0.370 -0.5364  0.1926  0.0075
  254MOL0     C34932   7.964   8.100   0.240 -0.4361  0.4223 -0.2261
  254MOL0     C34933   8.095   8.070   0.237 -0.4994  0.4101 -0.1534
  254MOL0     C34934   8.148   7.987   0.133  0.0863 -0.3686 -0.2933
  254MOL0     C34935   8.052   7.939   0.028 -0.0451  0.6379  1.1357
  254MOL0     C34936   8.125   7.847  -0.066 -1.6434  0.7175 -0.7851
  254MOL0     C34937   8.038   7.800  -0.181 -0.3948  0.6962  0.1949
  254MOL0     O34938   8.011   7.910  -0.263 -0.0893  0.2810  0.3649
  254MOL0     C34939   8.081   7.926  -0.380  0.4274  0.1417 -0.0351
  254MOL0     C34940   8.209   7.866  -0.406 -0.6259 -0.7074  0.1925
  254MOL0     C34941   8.276   7.893  -0.533 -0.1848  0.6881 -0.1854
  254MOL0     C34942   8.412   7.819  -0.553  0.2986 -0.1235  1.3273
  254MOL0     C34943   8.211   7.982  -0.630 -0.2253  0.1563  0.0258
  254MOL0     C34944   8.277   8.013  -0.759  0.2067 -0.3346 -0.5882
  254MOL0     O34945   8.262   8.139  -0.810  0.8091 -0.3847  0.8231
  254MOL0     C34946   8.330   8.168  -0.928 -0.2565 -0.0017 -0.0381
  254MOL0     C34947   8.257   8.170  -1.047  0.4260 -0.5125 -0.0885
  254MOL0     C34948   8.316   8.200  -1.171 -0.3056  0.0823 -0.1847
  254MOL0     C34949   8.451   8.231  -1.176 -0.0466  0.9467  0.2046
  254MOL0     O34950   8.509   8.257  -1.299  0.5610  0.0011 -0.2502
  254MOL0     C34951   8.605   8.354  -1.315 -0.1642  0.6059 -0.2514
  254MOL0     C34952   8.551   8.495  -1.350 -0.7944 -0.3411 -0.3471
  254MOL0     C34953   8.447   8.499  -1.471 -0.3081 -0.4334  0.7653
  254MOL0     C34954   8.411   8.644  -1.491  0.7239  0.0045 -0.3082
  254MOL0     C34955   8.304   8.662  -1.606  1.1495  0.1125  0.6603
  254MOL0     C34956   8.343   8.652  -1.749  0.5376 -0.4402 -0.6577
  254MOL0     C34957   8.227   8.684  -1.834  0.2247 -0.7061  0.0761
  254MOL0     C34958   8.253   8.669  -1.987  0.0826 -0.1780  0.7265
  254MOL0    Cl34959   8.105   8.683  -2.086 -0.0016 -0.1149  0.2498
  254MOL0     C34960   8.531   8.216  -1.060 -0.6302  0.1195 -0.4435
  254MOL0     C34961   8.468   8.193  -0.939  0.1630  0.2772 -0.2685
  254MOL0     O34962   8.332   7.918  -0.808  0.2234  0.2464 -0.2728
  254MOL0     C34963   8.093   8.047  -0.593  0.2439  0.3031 -0.0384
  254MOL0     C34964   8.027   8.016  -0.472  0.8503  0.5233 -0.6027
  254MOL0     N34965   8.167   8.133   0.341  0.9737 -0.3585  0.0990
  254MOL0     N34966   8.075   8.184   0.420  1.5309  0.8296  0.6734
  254MOL0     C34967   7.116   7.947   0.448  1.1246 -0.4064  0.7465
  254MOL0     C34968   7.037   7.895   0.345 -0.1884 -0.5530  0.1797
  254MOL0     C34969   6.745   7.597   0.152  1.3942  0.9363 -0.2417
  254MOL0     C34970   6.669   7.695   0.084  0.0230 -0.5682 -1.0814
  254MOL0     C34971   6.562   7.667  -0.010  0.4683  0.7348 -0.4365
  254MOL0     C34972   6.530   7.535  -0.032 -0.5900  0.2080 -0.2984
  254MOL0     O34973   6.439   7.493  -0.123  0.1317  0.0018  0.1272
  254MOL0     C34974   6.364   7.587  -0.201 -0.0295  0.1684  0.5065
  254MOL0     C34975   6.273   7.518  -0.308  0.6546 -0.3145  1.1471
  254MOL0     C34976   6.147   7.604  -0.351 -0.6103  0.2995 -0.0307
  254MOL0     C34977   6.088   7.519  -0.463 -0.3676 -1.2196 -0.7254
  254MOL0     C34978   6.155   7.528  -0.598 -0.2736  0.1257  0.0007
  254MOL0     C34979   6.218   7.523  -0.706  0.2741 -0.2704 -0.1656
  254MOL0     C34980   6.618   7.435   0.024  0.6488 -0.1769  0.1681
  254MOL0     C34981   6.714   7.465   0.121  0.0349 -0.4163  0.4171
  254MOL0     C34982   6.793   7.349   0.183 -0.2874 -0.5273  0.8550
  254MOL0     H34983   6.798   7.722   0.525 -1.1594  0.6390  0.2362
  254MOL0     H34984   6.933   7.797   0.708  0.5928 -0.6474  0.0599
  254MOL0     H34985   7.054   8.070   0.764  0.2411 -1.7424  1.6738
  254MOL0     H34986   7.158   8.144   0.649 -0.8629  1.0067  1.3813
  254MOL0     H34987   7.250   8.193   0.881 -3.7676 -0.8427 -0.0463
  254MOL0     H34988   7.273   8.029   0.918 -1.3045  1.5164  1.7844
  254MOL0     H34989   7.479   8.086   0.862 -1.5653 -2.4691  1.9715
  254MOL0     H34990   7.416   7.986   0.739 -0.8498 -0.0257  0.8106
  254MOL0     H34991   7.377   8.200   0.580 -2.6824 -0.9957  0.6589
  254MOL0     H34992   7.398   8.292   0.726  0.1428  0.1317 -0.2320
  254MOL0     H34993   7.635   8.183   0.744  0.0145 -1.7598  0.3476
  254MOL0     H34994   7.617   8.314   0.620  0.4418  0.9733  1.8962
  254MOL0     H34995   7.559   8.019   0.570 -0.0294  0.9027  0.5032
  254MOL0     H34996   7.551   8.144   0.453 -1.5359 -3.1109 -0.9396
  254MOL0     H34997   7.736   7.982   0.447 -1.4278 -0.7475  0.3287
  254MOL0     H34998   7.809   8.048   0.587 -0.0379  0.2366 -0.3319
  254MOL0     H34999   7.766   8.228   0.342  1.3308 -1.1672 -2.1337
  254MOL0     H35000   7.850   8.273   0.496  3.7849  1.1135 -2.1775
  254MOL0     H35001   7.894   8.087   0.158 -1.9765 -1.5682  1.3070
  254MOL0     H35002   8.194   7.906   0.191  1.0168  0.6537  0.4413
  254MOL0     H35003   8.232   8.042   0.087 -0.1991  1.1313  0.9046
  254MOL0     H35004   7.965   7.886   0.069  0.8703 -0.4185  1.8047
  254MOL0     H35005   8.023   8.025  -0.032  0.6065  0.1039  0.0096
  254MOL0     H35006   8.218   7.891  -0.103 -2.8717  4.4157  0.1582
  254MOL0     H35007   8.153   7.758  -0.007  1.6841  3.0061  1.4623
  254MOL0     H35008   8.079   7.721  -0.245  0.7922  0.9472  0.6227
  254MOL0     H35009   7.944   7.752  -0.152  0.2135 -1.9965 -1.8913
  254MOL0     H35010   8.254   7.804  -0.329  1.0058 -0.5873 -0.6071
  254MOL0     H35011   8.445   7.777  -0.457  0.1859 -3.7101 -0.0562
  254MOL0     H35012   8.487   7.886  -0.596 -0.7733  0.9819  1.1276
  254MOL0     H35013   8.420   7.730  -0.617  1.8651  0.8920  0.0440
  254MOL0     H35014   8.149   8.157  -1.043  0.4713 -1.3393 -1.1072
  254MOL0     H35015   8.268   8.210  -1.268 -0.3144  1.0858 -0.0784
  254MOL0     H35016   8.667   8.363  -1.226 -0.4926  0.7479 -0.0377
  254MOL0     H35017   8.668   8.319  -1.398 -0.4989  0.9050 -0.6384
  254MOL0     H35018   8.511   8.539  -1.259 -1.0590 -2.8274  0.8208
  254MOL0     H35019   8.631   8.565  -1.377 -0.1713 -0.4912  1.0197
  254MOL0     H35020   8.353   8.447  -1.451 -0.9715 -0.3335 -1.7692
  254MOL0     H35021   8.479   8.456  -1.566 -0.3954  2.6212 -0.7814
  254MOL0     H35022   8.504   8.699  -1.511  1.6422 -0.2392  2.7782
  254MOL0     H35023   8.372   8.684  -1.397  1.1918 -0.6137  0.1555
  254MOL0     H35024   8.218   8.596  -1.591 -1.1169  2.2259 -1.9610
  254MOL0     H35025   8.267   8.765  -1.600  0.8347  0.2640 -2.3829
  254MOL0     H35026   8.376   8.550  -1.772 -3.2943 -1.9266 -0.1908
  254MOL0     H35027   8.431   8.716  -1.760  1.0067 -1.0457 -0.4604
  254MOL0     H35028   8.206   8.790  -1.816  1.2169 -0.8861  2.8055
  254MOL0     H35029   8.138   8.629  -1.801 -1.6604 -0.2218 -3.6962
  254MOL0     H35030   8.279   8.564  -1.999  0.0393 -0.1211  0.1044
  254MOL0     H35031   8.334   8.739  -2.010 -1.0615  1.1581  0.5907
  254MOL0     H35032   8.639   8.225  -1.069 -0.8509  0.5912 -4.1111
  254MOL0     H35033   8.529   8.165  -0.854  0.1285  2.4039  0.5342
  254MOL0     H35034   8.049   8.110  -0.670  1.1234  0.0515 -0.7594
  254MOL0     H35035   7.923   8.037  -0.446  0.3159  0.7555 -2.7293
  254MOL0     H35036   7.208   8.003   0.432  1.6255 -1.1348  1.0272
  254MOL0     H35037   7.072   7.929   0.248  1.3669  2.0058  1.5348
  254MOL0     H35038   6.692   7.800   0.097 -2.2931 -0.3345  2.7777
  254MOL0     H35039   6.515   7.753  -0.055  0.7908  0.0098 -2.2480
  254MOL0     H35040   6.297   7.644  -0.136 -1.0619  0.0205 -0.4001
  254MOL0     H35041   6.430   7.658  -0.252  0.7985 -2.1265 -1.7944
  254MOL0     H35042   6.231   7.424  -0.270  0.1604 -1.4442 -1.9314
  254MOL0     H35043   6.344   7.500  -0.389  1.5782 -0.3135  1.9372
  254MOL0     H35044   6.072   7.609  -0.271 -1.7269 -2.6195 -0.7580
  254MOL0     H35045   6.186   7.697  -0.392  0.9190  0.3455  1.3966
  254MOL0     H35046   5.994   7.574  -0.477  0.1326  0.4666  1.9029
  254MOL0     H35047   6.057   7.420  -0.428 -2.4536 -0.6301 -0.7643
  254MOL0     H35048   6.284   7.509  -0.789  3.2049 -0.0809  1.9873
  254MOL0     H35049   6.594   7.334  -0.009  0.4770  0.7037 -2.7416
  254MOL0     H35050   6.731   7.259   0.189 -3.3706  1.5484  4.0268
  254MOL0     H35051   6.877   7.316   0.121 -1.6969 -1.7651 -0.4801
  254MOL0     H35052   6.817   7.371   0.287  3.1987 -0.4782  0.1715
  255MOL0     O35053   5.544   2.025   3.978  1.2600 -0.4057  0.6984
  255MOL0     C35054   5.549   2.056   4.093  0.1956  0.2154  0.6522
  255MOL0     O35055   5.644   2.124   4.154  0.3903 -1.1523 -0.1769
  255MOL0     C35056   5.761   2.156   4.101 -0.2443 -0.0116 -0.0783
  255MOL0     C35057   5.778   2.248   3.995 -0.4049  0.4955  0.3606
  255MOL0     C35058   5.896   2.260   3.926  0.1760 -0.2786 -0.0964
  255MOL0     C35059   6.016   2.207   3.974 -0.1263 -0.5553  0.2171
  255MOL0     O35060   6.132   2.246   3.907 -0.4020 -0.1366  0.4198
  255MOL0     C35061   6.250   2.180   3.938 -0.0501 -0.1288  0.7124
  255MOL0     C35062   6.363   2.231   3.853 -0.0750  0.7500  1.0274
  255MOL0     C35063   6.392   2.375   3.886  0.7053  0.5436 -0.3171
  255MOL0     C35064   6.526   2.401   3.804 -0.2962 -0.4788 -0.0487
  255MOL0     C35065   6.568   2.547   3.809 -0.1682 -1.3525  0.3719
  255MOL0     C35066   6.623   2.581   3.952  0.0048  0.7503 -0.5763
  255MOL0     C35067   6.657   2.734   3.981  0.2940  0.3323  0.2740
  255MOL0     C35068   6.803   2.768   3.954 -0.2921 -0.0184  0.1241
  255MOL0     N35069   6.874   2.715   4.066  0.2417  0.8998 -0.3407
  255MOL0     C35070   6.886   2.794   4.180  0.2265 -0.0580  0.5630
  255MOL0     C35071   6.986   2.741   4.241 -1.2989  0.0288 -0.1610
  255MOL0     C35072   7.046   2.798   4.367 -0.5164 -0.4732  0.1593
  255MOL0     C35073   7.201   2.770   4.352 -0.9422 -0.9066 -0.0160
  255MOL0     C35074   7.261   2.830   4.478  0.5029  0.6119 -0.0205
  255MOL0     C35075   7.409   2.791   4.482 -0.5863 -0.2342 -0.7479
  255MOL0     O35076   7.468   2.861   4.375 -0.3881 -0.2702 -0.5850
  255MOL0     C35077   7.604   2.832   4.368  0.5115  1.0192  0.5992
  255MOL0     C35078   7.636   2.736   4.269  0.0330 -0.6869 -0.5976
  255MOL0     C35079   7.766   2.678   4.267 -0.0704  0.1636 -1.1598
  255MOL0     C35080   7.782   2.554   4.184  0.4638  0.5768 -0.3199
  255MOL0     C35081   7.873   2.719   4.360  0.3165  0.3960  0.2298
  255MOL0     C35082   8.011   2.651   4.374 -0.3471 -0.5339 -0.5255
  255MOL0     O35083   8.107   2.725   4.444  0.2811  0.2611  0.0220
  255MOL0     C35084   8.215   2.660   4.505 -0.7390  0.8454 -0.4842
  255MOL0     C35085   8.213   2.530   4.565 -0.2082 -0.8344 -0.0888
  255MOL0     C35086   8.334   2.472   4.622 -0.0062 -0.4372 -0.4035
  255MOL0     C35087   8.455   2.549   4.626  0.6837 -0.1932 -0.5332
  255MOL0     O35088   8.564   2.502   4.693 -0.4071  0.1581  1.0583
  255MOL0     C35089   8.677   2.584   4.721  0.1078 -0.0939  1.0008
  255MOL0     C35090   8.748   2.523   4.844 -0.1773 -0.2391 -0.3174
  255MOL0     C35091   8.807   2.387   4.818 -0.3746 -0.2004  0.0282
  255MOL0     C35092   8.861   2.314   4.949 -1.0430 -0.2760 -0.3314
  255MOL0     C35093   8.915   2.174   4.917  0.3208  0.4996  0.0583
  255MOL0     C35094   9.028   2.131   5.012  0.6018 -0.2051 -0.2266
  255MOL0     C35095   9.162   2.180   4.983  0.1467 -0.0721 -0.1094
  255MOL0     C35096   9.281   2.144   5.072  0.3416  0.3914 -1.0509
  255MOL0    Cl35097   9.436   2.205   5.014  0.1961  0.2127  0.0476
  255MOL0     C35098   8.455   2.673   4.566 -0.6148 -0.0559  0.0878
  255MOL0     C35099   8.339   2.729   4.504 -0.6591  0.9046  0.0106
  255MOL0     O35100   8.036   2.543   4.327 -0.5447 -0.0407  0.5315
  255MOL0     C35101   7.837   2.820   4.453 -0.5369 -0.3996  0.4838
  255MOL0     C35102   7.707   2.865   4.465 -0.3494  0.4393  0.2507
  255MOL0     N35103   7.024   2.623   4.180  0.2128 -2.2767  0.5003
  255MOL0     N35104   6.964   2.608   4.068 -0.0007  0.4262  0.1888
  255MOL0     C35105   6.007   2.126   4.089 -0.2495  0.9323  0.3147
  255MOL0     C35106   5.881   2.101   4.154  0.5999  0.2201  0.1249
  255MOL0     C35107   5.420   2.035   4.174  0.6031  0.8810 -0.2731
  255MOL0     C35108   5.431   1.969   4.301 -0.3270 -0.0345  0.3616
  255MOL0     C35109   5.328   1.956   4.381  0.5441 -0.3193 -0.3255
  255MOL0     C35110   5.204   2.003   4.346 -0.3909 -0.1154  0.5599
  255MOL0     O35111   5.100   2.001   4.431 -0.5972 -0.2984 -0.8313
  255MOL0     C35112   5.018   2.120   4.440 -0.9003  0.0965  0.3138
  255MOL0     C35113   4.986   2.164   4.580 -0.5803 -0.0555 -0.7376
  255MOL0     C35114   4.876   2.078   4.635  0.3677  0.3526 -0.1055
  255MOL0     C35115   4.865   2.090   4.794 -0.0810 -0.4732  0.3836
  255MOL0     C35116   4.814   2.217   4.848 -0.0877  0.1266  0.6452
  255MOL0     C35117   4.786   2.333   4.873  0.4882 -0.2820  0.3872
  255MOL0     C35118   5.193   2.070   4.217  0.2112  0.3533  0.6389
  255MOL0     C35119   5.297   2.086   4.123 -0.0373 -0.5309 -0.1443
  255MOL0     C35120   5.280   2.158   3.992  0.5505 -0.3081  0.5492
  255MOL0     H35121   5.689   2.294   3.956 -0.1017 -0.7208 -1.8956
  255MOL0     H35122   5.898   2.325   3.839  1.7110 -0.8868 -0.5503
  255MOL0     H35123   6.237   2.072   3.924 -2.4632 -0.0654  1.9758
  255MOL0     H35124   6.260   2.202   4.045 -1.7071 -0.7097  1.0154
  255MOL0     H35125   6.455   2.178   3.877 -0.7530 -0.2962  1.4007
  255MOL0     H35126   6.343   2.223   3.746 -1.8361  2.5811  1.1527
  255MOL0     H35127   6.312   2.446   3.867 -1.0801 -0.0657  3.9133
  255MOL0     H35128   6.409   2.373   3.994 -0.7157 -3.7762  0.0471
  255MOL0     H35129   6.605   2.342   3.852 -1.3079 -2.3993 -0.6238
  255MOL0     H35130   6.516   2.375   3.698 -0.8642  2.7244 -0.8893
  255MOL0     H35131   6.482   2.613   3.796  3.3745  3.9384  0.9371
  255MOL0     H35132   6.647   2.561   3.735 -1.0288  0.7935 -0.1960
  255MOL0     H35133   6.548   2.554   4.027  1.9717  0.6040  1.4340
  255MOL0     H35134   6.712   2.523   3.976  0.2610  0.5604 -1.9054
  255MOL0     H35135   6.647   2.763   4.086  0.4904  0.0909  0.3611
  255MOL0     H35136   6.591   2.794   3.917  3.5570  2.3365 -1.4622
  255MOL0     H35137   6.840   2.722   3.861 -0.6464  0.2031 -0.1306
  255MOL0     H35138   6.816   2.876   3.950  0.1480 -0.0092  1.4363
  255MOL0     H35139   6.845   2.893   4.199 -0.3426 -0.0106 -0.7934
  255MOL0     H35140   7.004   2.752   4.458  1.6780  2.2198  2.7301
  255MOL0     H35141   7.028   2.905   4.378 -0.9698 -0.5690  0.4007
  255MOL0     H35142   7.227   2.665   4.341 -0.4005 -0.6448 -1.4407
  255MOL0     H35143   7.231   2.823   4.261 -2.6556  0.0029 -0.1034
  255MOL0     H35144   7.247   2.937   4.494 -0.9799  0.4270  0.0129
  255MOL0     H35145   7.212   2.786   4.565 -0.2703 -1.2296 -1.3304
  255MOL0     H35146   7.438   2.832   4.579 -2.0337 -1.1720  0.1296
  255MOL0     H35147   7.433   2.685   4.479 -0.6815 -0.2364 -2.0774
  255MOL0     H35148   7.574   2.697   4.189  1.0380 -0.6107 -1.4389
  255MOL0     H35149   7.712   2.564   4.100  0.1178 -0.3874 -0.1586
  255MOL0     H35150   7.740   2.475   4.247  0.7283  1.6990  1.3458
  255MOL0     H35151   7.878   2.526   4.139 -0.2842 -0.2985 -1.4557
  255MOL0     H35152   8.120   2.476   4.567 -0.7879  0.1467  0.3874
  255MOL0     H35153   8.332   2.379   4.677 -1.4268  1.9473  4.0737
  255MOL0     H35154   8.755   2.585   4.645  0.0651 -1.2833  0.9099
  255MOL0     H35155   8.642   2.685   4.745 -0.0176  0.0554  0.2053
  255MOL0     H35156   8.829   2.589   4.877  0.9246 -1.9844  0.6262
  255MOL0     H35157   8.682   2.529   4.931 -2.2093 -0.5336 -1.7618
  255MOL0     H35158   8.884   2.399   4.742 -1.9324  0.5885 -1.5176
  255MOL0     H35159   8.728   2.329   4.770 -2.6856  1.3905  1.6775
  255MOL0     H35160   8.784   2.307   5.026 -1.2133 -2.0478 -0.6212
  255MOL0     H35161   8.945   2.379   4.976  0.3496 -0.1815 -4.3029
  255MOL0     H35162   8.835   2.100   4.918  0.4249  0.3586 -1.0485
  255MOL0     H35163   8.956   2.168   4.816  3.2277  2.0069  1.0242
  255MOL0     H35164   9.032   2.024   5.034  2.5843  0.0597  0.8568
  255MOL0     H35165   9.000   2.167   5.111 -2.1683  0.2692 -1.0767
  255MOL0     H35166   9.165   2.289   4.978 -2.2497 -0.0137 -2.5782
  255MOL0     H35167   9.199   2.144   4.887 -0.4434 -0.4813 -0.1887
  255MOL0     H35168   9.282   2.035   5.066 -1.1559  0.4410 -4.1632
  255MOL0     H35169   9.259   2.177   5.174  1.2101  0.7686 -0.9763
  255MOL0     H35170   8.546   2.731   4.555 -1.0381  0.4206 -0.9736
  255MOL0     H35171   8.354   2.828   4.461  0.3318 -0.2174 -2.3451
  255MOL0     H35172   7.913   2.847   4.526  0.4295 -2.6368  0.3855
  255MOL0     H35173   7.689   2.944   4.537  0.6156  0.6775  0.2554
  255MOL0     H35174   6.083   2.061   4.131 -3.4825 -2.4688  1.4801
  255MOL0     H35175   5.868   2.023   4.228 -1.7913  0.0711 -0.3478
  255MOL0     H35176   5.529   1.934   4.332  0.2420  0.7171 -0.5300
  255MOL0     H35177   5.336   1.917   4.482 -1.2862  0.0461 -0.0027
  255MOL0     H35178   5.076   2.203   4.397 -2.0515 -0.6370 -2.9953
  255MOL0     H35179   4.926   2.106   4.382  0.4835  1.0606 -2.3033
  255MOL0     H35180   4.954   2.268   4.587  3.9949  1.4834  1.3942
  255MOL0     H35181   5.076   2.170   4.642 -1.3860 -0.7779  0.5543
  255MOL0     H35182   4.787   2.116   4.583 -2.2933 -2.7931  1.7649
  255MOL0     H35183   4.902   1.974   4.614 -1.9981 -0.4673  0.6649
  255MOL0     H35184   4.961   2.063   4.838  0.3640 -0.0998 -0.3343
  255MOL0     H35185   4.789   2.016   4.820  0.5313 -1.7161 -1.2267
  255MOL0     H35186   4.767   2.439   4.868 -1.5223 -0.6471 -2.9592
  255MOL0     H35187   5.106   2.126   4.185  1.5960  1.3194 -1.6883
  255MOL0     H35188   5.356   2.227   3.953  2.3264 -2.4281  0.0318
  255MOL0     H35189   5.260   2.088   3.911 -1.5336 -1.0396  1.6250
  255MOL0     H35190   5.187   2.215   4.006  0.1452 -1.3449  2.4000
  256MOL0     O35191   0.334   3.840   2.141  0.4667 -0.8444 -0.2685
  256MOL0     C35192   0.246   3.905   2.085  0.7064 -0.0736 -0.6253
  256MOL0     O35193   0.236   3.942   1.948 -0.3758 -0.2430 -0.2191
  256MOL0     C35194   0.344   3.907   1.870 -0.8235  0.3903  0.2543
  256MOL0     C35195   0.478   3.925   1.895 -0.5368 -0.2821 -0.5562
  256MOL0     C35196   0.580   3.865   1.814  0.5208 -0.4343 -0.3479
  256MOL0     C35197   0.541   3.774   1.712 -0.1927 -0.0320  0.5652
  256MOL0     O35198   0.640   3.691   1.670 -0.2265 -0.9420 -0.2349
  256MOL0     C35199   0.693   3.716   1.545 -0.0357  0.2943 -0.3417
  256MOL0     C35200   0.820   3.807   1.575 -0.3883  0.2377 -0.2441
  256MOL0     C35201   0.909   3.802   1.455 -0.0738 -0.6120 -0.2958
  256MOL0     C35202   1.019   3.917   1.476  0.3856  0.2526 -0.2707
  256MOL0     C35203   1.116   3.917   1.357  0.4880  0.1129 -0.7655
  256MOL0     C35204   1.233   4.020   1.375 -0.3408 -0.0081  0.4850
  256MOL0     C35205   1.198   4.162   1.328  0.2494 -0.0921 -0.0549
  256MOL0     C35206   1.280   4.264   1.414  0.2116 -0.5801  0.3368
  256MOL0     N35207   1.421   4.247   1.410 -0.3920  0.0357  0.8317
  256MOL0     C35208   1.509   4.302   1.497 -0.7504  0.6667  0.0756
  256MOL0     C35209   1.623   4.329   1.436  0.2174 -0.6789  0.3003
  256MOL0     C35210   1.749   4.391   1.490 -0.0463  1.2608 -0.9236
  256MOL0     C35211   1.829   4.280   1.563 -0.7843  0.0036  0.6407
  256MOL0     C35212   1.767   4.228   1.694  0.1322  0.5375 -0.1839
  256MOL0     C35213   1.870   4.159   1.785  0.1484  0.2968 -0.2839
  256MOL0     O35214   1.961   4.087   1.714 -0.6494 -0.2177 -0.7449
  256MOL0     C35215   2.087   4.060   1.774  0.1964  0.0106  0.0432
  256MOL0     C35216   2.117   4.075   1.906  0.3128 -0.1884 -0.0082
  256MOL0     C35217   2.246   4.038   1.956 -0.1955 -0.6828 -0.0524
  256MOL0     C35218   2.266   4.049   2.111  0.0913  0.0110  0.5928
  256MOL0     C35219   2.344   3.987   1.877  0.0344 -0.7052  0.1857
  256MOL0     C35220   2.486   3.952   1.916  0.0935 -0.1967 -0.8160
  256MOL0     O35221   2.558   3.892   1.828 -0.6691  0.4769  1.0127
  256MOL0     C35222   2.687   3.868   1.862  0.0281 -0.7850 -0.2713
  256MOL0     C35223   2.724   3.748   1.910  0.4740 -0.3558 -0.0776
  256MOL0     C35224   2.860   3.724   1.940 -0.3858 -0.6556  0.6943
  256MOL0     C35225   2.960   3.823   1.935  0.0068 -0.5008  0.3497
  256MOL0     O35226   3.094   3.796   1.956  0.1133  0.3313 -0.1691
  256MOL0     C35227   3.165   3.908   2.008 -0.5007  0.1583 -0.8455
  256MOL0     C35228   3.281   3.862   2.096  0.2790  0.0251  0.2006
  256MOL0     C35229   3.387   3.966   2.116  0.7457  0.9966  0.0393
  256MOL0     C35230   3.506   3.886   2.185  0.4898 -0.4875  0.2455
  256MOL0     C35231   3.606   3.989   2.224 -0.4724 -0.3532  0.5547
  256MOL0     C35232   3.709   3.925   2.315 -0.2232  0.0020 -0.4907
  256MOL0     C35233   3.819   4.029   2.361 -0.2954  0.2748  0.0828
  256MOL0     C35234   3.921   4.074   2.256 -0.4756  0.7058  0.0001
  256MOL0    Cl35235   4.074   3.977   2.272  0.4052  0.2292 -0.0979
  256MOL0     C35236   2.919   3.947   1.890  0.2291  0.2930 -0.5564
  256MOL0     C35237   2.782   3.964   1.847 -0.4085  0.2127  0.0233
  256MOL0     O35238   2.534   4.001   2.026  0.0813  0.2392  0.5467
  256MOL0     C35239   2.305   3.951   1.741  0.1348 -0.5246 -0.8526
  256MOL0     C35240   2.183   3.988   1.694  0.0754 -0.1043  0.7301
  256MOL0     N35241   1.611   4.290   1.305  0.3997 -1.2274 -0.0886
  256MOL0     N35242   1.484   4.241   1.287 -0.2121  0.6420 -0.6719
  256MOL0     C35243   0.403   3.765   1.677 -0.0784 -0.4899 -0.4803
  256MOL0     C35244   0.313   3.833   1.755 -0.0537 -0.4918 -0.3992
  256MOL0     C35245   0.130   3.934   2.163 -0.3194  0.6726  0.4490
  256MOL0     C35246   0.013   3.972   2.087  0.0536 -0.0399  0.4082
  256MOL0     C35247  -0.105   4.014   2.148 -0.3013 -0.4443  0.1235
  256MOL0     C35248  -0.102   4.020   2.291 -0.1965 -0.7760 -0.0966
  256MOL0     O35249  -0.221   4.059   2.346 -0.0905  0.4150  1.1100
  256MOL0     C35250  -0.248   4.033   2.484 -0.2819 -0.7439  0.2025
  256MOL0     C35251  -0.396   4.048   2.517 -0.2683  0.8968  0.1682
  256MOL0     C35252  -0.458   4.183   2.486  0.1783  0.1242  0.6012
  256MOL0     C35253  -0.610   4.172   2.514  0.6144 -0.8809  0.1770
  256MOL0     C35254  -0.668   4.306   2.491  0.8966  0.0018 -0.1420
  256MOL0     C35255  -0.719   4.416   2.520  0.2134  0.2975  0.0007
  256MOL0     C35256   0.017   3.984   2.365  0.0471 -0.9919 -0.9827
  256MOL0     C35257   0.138   3.942   2.311  0.7605  0.0510 -0.7145
  256MOL0     C35258   0.255   3.921   2.404 -0.0764 -0.0984 -1.4915
  256MOL0     H35259   0.516   3.972   1.986 -1.6147 -1.4616  0.5414
  256MOL0     H35260   0.683   3.889   1.837 -0.1841  2.9311 -0.0641
  256MOL0     H35261   0.630   3.783   1.486 -0.6465 -0.0358 -0.0761
  256MOL0     H35262   0.702   3.621   1.491  0.6077 -0.9499  1.8300
  256MOL0     H35263   0.780   3.909   1.581 -0.6014  0.1043  0.8986
  256MOL0     H35264   0.871   3.786   1.669 -1.3148  2.8259  0.9466
  256MOL0     H35265   0.954   3.704   1.436  0.2864 -0.9630  2.1054
  256MOL0     H35266   0.861   3.823   1.359  1.7478 -1.5611 -1.4714
  256MOL0     H35267   0.975   4.016   1.482 -0.0511  0.1801 -1.9638
  256MOL0     H35268   1.073   3.904   1.571  0.6903 -1.9263 -0.6893
  256MOL0     H35269   1.059   3.955   1.272  0.6346 -0.3948 -1.0955
  256MOL0     H35270   1.159   3.816   1.356 -0.1128 -0.2212  1.3553
  256MOL0     H35271   1.260   4.022   1.481 -2.0972  0.8231  0.9567
  256MOL0     H35272   1.320   4.002   1.312  1.3952  0.7525  2.4973
  256MOL0     H35273   1.093   4.186   1.344 -0.2862 -2.4372  0.2757
  256MOL0     H35274   1.237   4.165   1.226  1.3464  2.7985  0.3481
  256MOL0     H35275   1.266   4.358   1.361  2.3265 -0.0313  0.6862
  256MOL0     H35276   1.236   4.277   1.513 -1.2493  2.2108 -0.5749
  256MOL0     H35277   1.494   4.325   1.602 -0.0089 -2.1657  0.8884
  256MOL0     H35278   1.710   4.472   1.552 -0.4217  2.4407 -2.6201
  256MOL0     H35279   1.814   4.426   1.409  0.6906  1.2266 -0.3590
  256MOL0     H35280   1.852   4.194   1.500  0.0463 -0.8926  2.1023
  256MOL0     H35281   1.920   4.335   1.591  0.5989 -1.8895  0.0033
  256MOL0     H35282   1.727   4.310   1.754 -0.2546 -1.0788  1.8888
  256MOL0     H35283   1.681   4.163   1.674 -0.3586  1.6804 -2.0776
  256MOL0     H35284   1.933   4.235   1.833  1.8765 -1.3674  0.2203
  256MOL0     H35285   1.817   4.104   1.864  1.2162  0.0350  0.2772
  256MOL0     H35286   2.039   4.113   1.971 -0.7463 -0.0201 -1.3342
  256MOL0     H35287   2.167   4.080   2.147 -1.4015  0.4328 -3.3549
  256MOL0     H35288   2.340   4.125   2.137  0.0692  0.4438 -0.5227
  256MOL0     H35289   2.294   3.952   2.153 -1.1594 -0.8519 -0.4725
  256MOL0     H35290   2.646   3.675   1.930  0.0377 -0.2841 -1.4308
  256MOL0     H35291   2.885   3.623   1.972 -0.3741 -0.3378  1.7498
  256MOL0     H35292   3.208   3.971   1.929  2.2331  0.3616  0.6433
  256MOL0     H35293   3.105   3.968   2.076 -0.1711 -2.8207  2.3476
  256MOL0     H35294   3.234   3.816   2.183  0.2150 -1.7499 -0.7169
  256MOL0     H35295   3.334   3.783   2.042  0.8128  0.4308  0.1145
  256MOL0     H35296   3.355   4.049   2.179 -2.9554  0.8085 -1.3962
  256MOL0     H35297   3.414   4.003   2.016  1.4411  0.4066 -0.0083
  256MOL0     H35298   3.546   3.807   2.120 -1.6111  0.4026 -2.2871
  256MOL0     H35299   3.476   3.842   2.281 -2.0287 -0.3386 -0.3980
  256MOL0     H35300   3.651   4.034   2.135 -0.2344  0.9841  1.3302
  256MOL0     H35301   3.558   4.075   2.272 -0.0876 -0.0190  0.3426
  256MOL0     H35302   3.756   3.839   2.269 -0.0990 -0.1419 -0.0999
  256MOL0     H35303   3.660   3.902   2.411  0.1588  1.8666  0.1939
  256MOL0     H35304   3.874   3.983   2.444 -1.0789  0.6933  0.8517
  256MOL0     H35305   3.779   4.118   2.410 -1.7025 -0.8182  0.9976
  256MOL0     H35306   3.953   4.179   2.262  3.7914 -0.4952  3.3678
  256MOL0     H35307   3.878   4.055   2.158  0.5659 -0.8335 -0.1815
  256MOL0     H35308   2.990   4.026   1.871  1.3632 -0.4911  0.2600
  256MOL0     H35309   2.755   4.062   1.809  3.5181  1.2498 -0.5522
  256MOL0     H35310   2.375   3.895   1.680  1.2998 -0.8403  0.7162
  256MOL0     H35311   2.151   3.962   1.594 -2.3853  1.8454  0.9078
  256MOL0     H35312   0.361   3.696   1.605 -0.1316  0.4098 -1.3288
  256MOL0     H35313   0.209   3.811   1.734 -0.3352  0.0099  0.4421
  256MOL0     H35314   0.011   3.968   1.979 -0.9405 -1.4469  0.4506
  256MOL0     H35315  -0.197   4.033   2.094 -0.9507 -5.4670 -0.9569
  256MOL0     H35316  -0.211   3.933   2.508 -0.4390 -0.5514  1.2989
  256MOL0     H35317  -0.192   4.094   2.556 -1.2186  0.3806  0.0165
  256MOL0     H35318  -0.420   4.029   2.622  1.0343  1.7901  0.6487
  256MOL0     H35319  -0.450   3.974   2.457 -0.9922  0.1722  1.6765
  256MOL0     H35320  -0.406   4.256   2.549  0.1227  0.0972  0.6793
  256MOL0     H35321  -0.439   4.203   2.380 -2.5687  0.1055  0.0221
  256MOL0     H35322  -0.627   4.138   2.616 -3.1012 -1.5202 -0.5368
  256MOL0     H35323  -0.665   4.106   2.445 -2.0827  0.9922  0.3968
  256MOL0     H35324  -0.747   4.512   2.557  1.7455  0.9892 -0.5404
  256MOL0     H35325   0.019   3.991   2.473 -1.4594 -2.2606 -0.8404
  256MOL0     H35326   0.233   3.961   2.504  1.7352 -5.4120  1.4608
  256MOL0     H35327   0.291   3.819   2.423 -4.2209 -1.4610  0.2500
  256MOL0     H35328   0.336   3.975   2.354  0.0557  0.3194 -0.8354
  257MOL0     O35329   7.533   6.991   1.784  0.0602  0.8133 -0.6963
  257MOL0     C35330   7.514   6.904   1.702 -0.7511  0.7577  0.6479
  257MOL0     O35331   7.616   6.846   1.627  0.5009 -0.3165 -0.3432
  257MOL0     C35332   7.744   6.885   1.650 -0.7987  0.0405  0.1412
  257MOL0     C35333   7.842   6.790   1.657  0.4515 -0.2722  0.1654
  257MOL0     C35334   7.975   6.829   1.665  0.2189 -0.5256 -0.1176
  257MOL0     C35335   8.008   6.966   1.673  0.1323  0.1122  0.6948
  257MOL0     O35336   8.135   7.007   1.702 -0.1298 -0.0653 -0.3659
  257MOL0     C35337   8.243   6.918   1.686 -0.1365 -0.3371 -0.3569
  257MOL0     C35338   8.377   7.002   1.704  0.1468 -0.9091  0.2453
  257MOL0     C35339   8.501   6.910   1.705  0.0910 -0.2668 -0.2129
  257MOL0     C35340   8.628   6.990   1.690  0.0124 -0.9490  0.1268
  257MOL0     C35341   8.757   6.917   1.708  0.5743 -0.3418  0.7017
  257MOL0     C35342   8.874   7.018   1.671 -0.0328 -0.1850  0.5703
  257MOL0     C35343   9.014   6.987   1.729 -0.2186 -0.0467 -0.2088
  257MOL0     C35344   9.025   7.032   1.876 -0.7248  0.7919  0.3807
  257MOL0     N35345   9.166   7.043   1.922  0.5015  0.3124  1.3748
  257MOL0     C35346   9.211   7.117   2.025 -0.0758 -0.8803 -0.0351
  257MOL0     C35347   9.336   7.089   2.046 -0.5833  0.4514  0.4521
  257MOL0     C35348   9.414   7.149   2.160 -0.6373  0.1826  0.0921
  257MOL0     C35349   9.562   7.164   2.118 -0.2983 -0.0656  0.1644
  257MOL0     C35350   9.651   7.200   2.236  0.2540 -0.1569 -0.3868
  257MOL0     C35351   9.802   7.152   2.193  0.9951 -0.5505  0.6941
  257MOL0     O35352   9.882   7.139   2.309  0.4297 -0.2749  0.9483
  257MOL0     C35353  10.013   7.090   2.302  0.0275  0.9205  0.6908
  257MOL0     C35354  10.082   7.082   2.420 -0.3371 -0.3100 -0.2672
  257MOL0     C35355  10.219   7.035   2.422  0.3489 -0.5316  0.8611
  257MOL0     C35356  10.276   6.984   2.550 -0.3082  0.2060  0.6283
  257MOL0     C35357  10.286   7.025   2.301 -0.0546 -0.2428 -0.2996
  257MOL0     C35358  10.432   6.987   2.292 -0.0541  0.7251  0.0819
  257MOL0     O35359  10.457   6.914   2.182  0.5007 -0.3006  0.3172
  257MOL0     C35360  10.588   6.895   2.156 -0.4396 -0.0156 -0.2486
  257MOL0     C35361  10.668   6.784   2.194 -0.4526  0.9793  0.0761
  257MOL0     C35362  10.806   6.784   2.165  0.1064  0.8234 -0.6541
  257MOL0     C35363  10.868   6.882   2.093  0.0765  0.2136  0.1025
  257MOL0     O35364  10.999   6.884   2.073 -0.0063 -0.2683  0.4721
  257MOL0     C35365  11.071   6.769   2.027  0.1856 -0.2756  0.7208
  257MOL0     C35366  11.201   6.820   1.971 -0.1311  0.2413  0.5474
  257MOL0     C35367  11.280   6.889   2.075 -0.6989  0.4514  0.2666
  257MOL0     C35368  11.421   6.919   2.028 -0.0305 -0.1096 -0.0120
  257MOL0     C35369  11.493   7.005   2.131 -0.0688  0.6205  0.0175
  257MOL0     C35370  11.637   7.049   2.083  0.0015 -0.2483 -0.0800
  257MOL0     C35371  11.687   7.171   2.150 -0.4009 -0.1134  0.2469
  257MOL0     C35372  11.818   7.223   2.096 -0.2706 -0.1252  0.1011
  257MOL0    Cl35373  11.771   7.313   1.950 -0.5005  0.2261 -0.5601
  257MOL0     C35374  10.792   6.993   2.053 -0.5220 -0.4129  0.1570
  257MOL0     C35375  10.655   6.996   2.083 -0.2039 -0.4098  0.2997
  257MOL0     O35376  10.518   7.048   2.358 -0.4162  0.2112 -0.2366
  257MOL0     C35377  10.212   7.030   2.181 -0.2353 -0.5896  0.6639
  257MOL0     C35378  10.078   7.062   2.176  0.2218  0.0699  0.1726
  257MOL0     N35379   9.367   6.988   1.954  0.3149 -0.2021  0.6832
  257MOL0     N35380   9.268   6.962   1.878  0.0266 -0.2275 -0.0769
  257MOL0     C35381   7.907   7.063   1.657  0.0745  0.4143  0.2534
  257MOL0     C35382   7.777   7.023   1.628  0.2612  0.9507  0.2311
  257MOL0     C35383   7.368   6.876   1.663 -0.3985  0.6341 -0.6644
  257MOL0     C35384   7.337   6.821   1.540  0.7630  0.4747  0.3482
  257MOL0     C35385   7.203   6.797   1.496 -0.6552 -0.1649 -0.1637
  257MOL0     C35386   7.098   6.832   1.572 -0.6708  0.6458 -0.2659
  257MOL0     O35387   6.964   6.829   1.525  0.1030  0.8699  0.0815
  257MOL0     C35388   6.939   6.804   1.389  0.0950  0.1871 -0.3854
  257MOL0     C35389   6.792   6.813   1.357  0.0892  0.1783  0.3600
  257MOL0     C35390   6.698   6.769   1.470 -0.2909 -0.4532 -0.0599
  257MOL0     C35391   6.555   6.734   1.435  1.0852  1.4036 -0.1888
  257MOL0     C35392   6.476   6.687   1.553 -0.3975 -0.2997 -0.1657
  257MOL0     C35393   6.420   6.656   1.654  0.0549  0.8154 -0.0827
  257MOL0     C35394   7.124   6.883   1.705  0.2754 -0.4483  0.1875
  257MOL0     C35395   7.259   6.895   1.756  1.1411  0.2439  0.7580
  257MOL0     C35396   7.276   6.908   1.901 -0.9237 -0.1838 -0.5775
  257MOL0     H35397   7.808   6.687   1.651 -1.6874  0.1275  3.2432
  257MOL0     H35398   8.047   6.750   1.685  0.5796 -0.3767 -0.8155
  257MOL0     H35399   8.245   6.880   1.583  1.5066  0.3279 -0.6207
  257MOL0     H35400   8.245   6.834   1.756 -2.1279 -1.0501 -1.1050
  257MOL0     H35401   8.384   7.066   1.616  4.5934  1.3759  1.9846
  257MOL0     H35402   8.381   7.070   1.790 -1.4065  2.4981 -2.1667
  257MOL0     H35403   8.508   6.855   1.800  0.2340 -0.8814 -0.5748
  257MOL0     H35404   8.487   6.832   1.630  0.3982  1.6188 -2.3244
  257MOL0     H35405   8.630   7.027   1.587 -2.1753  0.1959  0.4368
  257MOL0     H35406   8.633   7.074   1.759  3.9905 -1.5106  0.7190
  257MOL0     H35407   8.755   6.828   1.645  0.4822 -0.9876  1.6011
  257MOL0     H35408   8.775   6.890   1.813 -0.8988  1.1506  1.3817
  257MOL0     H35409   8.880   7.016   1.562 -0.4750  1.0207  0.5048
  257MOL0     H35410   8.848   7.119   1.704  1.8254  0.5194 -0.0347
  257MOL0     H35411   9.095   7.032   1.671  0.0740  0.9103  0.8990
  257MOL0     H35412   9.028   6.880   1.709  0.6969 -0.0499  0.3854
  257MOL0     H35413   8.976   7.129   1.890 -0.2147  1.4538 -1.9319
  257MOL0     H35414   8.969   6.959   1.935 -0.8112  1.4668  1.1410
  257MOL0     H35415   9.150   7.180   2.089  0.9289 -1.8061  1.9082
  257MOL0     H35416   9.390   7.090   2.249 -0.2750 -0.9762 -0.5487
  257MOL0     H35417   9.380   7.249   2.186 -0.2821  0.1601  0.6548
  257MOL0     H35418   9.598   7.069   2.079  3.9042  1.3379  0.0673
  257MOL0     H35419   9.572   7.242   2.041 -2.3938  3.4168  3.0484
  257MOL0     H35420   9.671   7.306   2.251  0.7518 -0.5763  2.5588
  257MOL0     H35421   9.625   7.148   2.329  2.1972  0.2603  0.4423
  257MOL0     H35422   9.793   7.046   2.166 -3.8281 -0.3819  0.9053
  257MOL0     H35423   9.836   7.218   2.114 -0.6772  0.2240  0.5923
  257MOL0     H35424  10.027   7.102   2.512  0.2706  1.4642 -0.2467
  257MOL0     H35425  10.335   6.899   2.515  0.6052  0.9878  0.2223
  257MOL0     H35426  10.204   6.937   2.618  2.5188 -2.8234  1.8016
  257MOL0     H35427  10.336   7.055   2.607  2.2376 -0.3727 -1.1631
  257MOL0     H35428  10.636   6.699   2.252 -2.3477  2.2113  0.9362
  257MOL0     H35429  10.858   6.706   2.221 -2.1228 -0.1883  0.1250
  257MOL0     H35430  11.094   6.696   2.105  2.6655 -1.4310 -0.9713
  257MOL0     H35431  11.013   6.714   1.952 -0.6856  2.8315 -1.0325
  257MOL0     H35432  11.252   6.731   1.933  2.8908  2.0702 -0.0331
  257MOL0     H35433  11.195   6.885   1.883 -0.3378 -0.8120 -0.2447
  257MOL0     H35434  11.289   6.828   2.166  0.2502  3.0233  2.0356
  257MOL0     H35435  11.233   6.987   2.092  0.1365  0.7189  1.1584
  257MOL0     H35436  11.414   6.980   1.937 -1.3334  1.8438  1.3037
  257MOL0     H35437  11.484   6.831   2.013 -2.6361 -2.0964 -0.0572
  257MOL0     H35438  11.432   7.095   2.142 -0.9204 -0.0622  1.1049
  257MOL0     H35439  11.509   6.956   2.228 -0.4119  3.4280  1.5908
  257MOL0     H35440  11.630   7.068   1.975 -2.4481  1.4562  0.2871
  257MOL0     H35441  11.710   6.968   2.092 -0.3401 -0.5113  0.4324
  257MOL0     H35442  11.687   7.151   2.257 -0.9646 -0.2890  0.2179
  257MOL0     H35443  11.608   7.246   2.150 -1.2061 -0.9247  0.9533
  257MOL0     H35444  11.886   7.139   2.076 -0.1013 -0.1961  0.9178
  257MOL0     H35445  11.859   7.301   2.161 -0.3143  1.6653 -1.9136
  257MOL0     H35446  10.846   7.072   2.002  2.2576 -2.7333 -0.7138
  257MOL0     H35447  10.595   7.082   2.054 -0.4129 -0.2436  1.1969
  257MOL0     H35448  10.276   7.006   2.097  2.2728  1.0965  1.9917
  257MOL0     H35449  10.025   7.075   2.082  0.8678  0.0155 -0.2049
  257MOL0     H35450   7.933   7.168   1.645  3.4844 -0.2958  0.5477
  257MOL0     H35451   7.689   7.082   1.603 -3.1515 -3.8900 -0.5882
  257MOL0     H35452   7.410   6.794   1.464 -1.9290 -1.1266 -1.8297
  257MOL0     H35453   7.186   6.769   1.392 -0.8575 -1.8517  0.2915
  257MOL0     H35454   6.995   6.887   1.344 -0.0583  1.8116  2.1834
  257MOL0     H35455   6.983   6.711   1.353  1.7305  0.2989  1.1553
  257MOL0     H35456   6.782   6.746   1.272  2.7611 -1.2870  1.0856
  257MOL0     H35457   6.774   6.916   1.325  2.4489  0.7427  0.6412
  257MOL0     H35458   6.749   6.687   1.522  2.6204  2.5366  2.2368
  257MOL0     H35459   6.700   6.855   1.539  1.7687 -0.5802  0.1152
  257MOL0     H35460   6.567   6.661   1.354  3.2686  0.6500  0.7138
  257MOL0     H35461   6.502   6.819   1.392  3.6126  2.8880 -0.5995
  257MOL0     H35462   6.365   6.627   1.742  2.1144 -1.0501  0.6806
  257MOL0     H35463   7.039   6.908   1.768 -0.7806 -2.7940 -0.1922
  257MOL0     H35464   7.184   6.896   1.960 -1.1901  1.6516 -0.5780
  257MOL0     H35465   7.334   6.821   1.935  0.2588 -0.3489 -2.7957
  257MOL0     H35466   7.325   7.004   1.920  0.7105 -0.4064 -3.1135
  258MOL0     O35467   4.509   2.154  10.317 -0.1126 -0.0288 -0.0319
  258MOL0     C35468   4.493   2.274  10.285  0.0004 -0.3179  0.2225
  258MOL0     O35469   4.578   2.352  10.207 -0.1100 -0.4386 -0.5088
  258MOL0     C35470   4.697   2.301  10.174  0.2348 -0.5374  0.1777
  258MOL0     C35471   4.802   2.342  10.253 -0.1844 -0.1661 -0.6145
  258MOL0     C35472   4.933   2.313  10.210  1.3959  0.6955 -0.5468
  258MOL0     C35473   4.959   2.233  10.095 -0.4011  0.2745 -0.3904
  258MOL0     O35474   5.084   2.183  10.059 -0.1689 -0.2739 -0.3888
  258MOL0     C35475   5.199   2.208  10.139 -0.8790 -0.6445  0.1397
  258MOL0     C35476   5.313   2.115  10.105  0.5547 -0.3863 -0.0042
  258MOL0     C35477   5.364   2.135   9.969 -0.1140  0.0591  0.4891
  258MOL0     C35478   5.472   2.037   9.934 -0.3854 -0.1881  0.2255
  258MOL0     C35479   5.607   2.078   9.998  0.2559  0.3523 -0.6213
  258MOL0     C35480   5.721   1.975   9.959 -0.1694  0.6024 -0.3780
  258MOL0     C35481   5.844   2.042  10.007  0.0390  0.2469  0.1074
  258MOL0     C35482   5.969   1.962   9.976 -0.2185 -0.1692 -0.8114
  258MOL0     N35483   6.100   2.031   9.987 -0.6562 -0.5711  0.8112
  258MOL0     C35484   6.179   2.076   9.884 -0.0423  0.3543  0.5698
  258MOL0     C35485   6.289   2.128   9.940 -0.5761  0.2461  0.0445
  258MOL0     C35486   6.388   2.213   9.871  0.1415  0.6525  0.0776
  258MOL0     C35487   6.475   2.307   9.973 -0.4365 -0.4893  0.1432
  258MOL0     C35488   6.566   2.400   9.894 -0.3443  0.3892  0.0776
  258MOL0     C35489   6.640   2.505   9.973  0.0539  0.1177 -0.7353
  258MOL0     O35490   6.544   2.585  10.031  0.2876  0.2199 -0.9983
  258MOL0     C35491   6.577   2.711  10.077  0.4419 -0.1127 -0.0528
  258MOL0     C35492   6.473   2.792  10.132  0.0986  0.0268  0.4368
  258MOL0     C35493   6.497   2.914  10.189 -0.7482 -0.0450 -0.8715
  258MOL0     C35494   6.390   2.976  10.282 -0.0971  0.0625 -0.2631
  258MOL0     C35495   6.621   2.978  10.176 -0.3045  0.2603  0.4987
  258MOL0     C35496   6.650   3.121  10.223 -0.4696 -0.1657  0.2194
  258MOL0     O35497   6.786   3.143  10.244  0.3256 -0.3620  0.4642
  258MOL0     C35498   6.831   3.269  10.223  0.2497 -0.2303  0.3187
  258MOL0     C35499   6.927   3.289  10.126 -0.0772  0.1774  0.1693
  258MOL0     C35500   6.993   3.404  10.111  1.0475 -0.2236  0.6349
  258MOL0     C35501   6.982   3.505  10.206  0.1311  0.6950 -0.0329
  258MOL0     O35502   7.083   3.604  10.214  0.7204 -0.1292  0.4948
  258MOL0     C35503   7.208   3.591  10.148  0.2724  0.0675  0.1779
  258MOL0     C35504   7.310   3.693  10.180 -0.4022  0.2864 -0.0418
  258MOL0     C35505   7.404   3.722  10.059  0.2962 -0.3535  0.0953
  258MOL0     C35506   7.498   3.834  10.104  0.6158 -0.3067 -0.4581
  258MOL0     C35507   7.591   3.890   9.987  0.6037 -0.6411 -0.5330
  258MOL0     C35508   7.673   4.012  10.023  0.1469 -0.4925 -0.9789
  258MOL0     C35509   7.755   4.065   9.913 -0.0579  0.0190  0.5320
  258MOL0     C35510   7.888   3.992   9.908  0.4422  0.2721 -0.1193
  258MOL0    Cl35511   7.987   4.029   9.759  0.1314  0.2491 -0.2105
  258MOL0     C35512   6.885   3.490  10.308  0.3239 -0.5895 -0.3295
  258MOL0     C35513   6.809   3.373  10.312 -0.3947 -0.7870 -0.2263
  258MOL0     O35514   6.565   3.211  10.217 -0.0114  0.0990 -0.2109
  258MOL0     C35515   6.720   2.906  10.111  0.2911 -0.2053  0.0005
  258MOL0     C35516   6.701   2.773  10.070  0.3315  0.1507 -0.6869
  258MOL0     N35517   6.280   2.102  10.073  0.1514 -0.1106  0.0795
  258MOL0     N35518   6.165   2.048  10.102 -0.7325 -0.6322 -0.1805
  258MOL0     C35519   4.842   2.194  10.022  0.5172 -0.2112 -0.6518
  258MOL0     C35520   4.706   2.230  10.056 -0.1642 -0.1637 -0.7614
  258MOL0     C35521   4.371   2.344  10.307  1.0302 -0.0552 -0.6487
  258MOL0     C35522   4.257   2.264  10.276 -0.3221  0.1122 -0.4368
  258MOL0     C35523   4.124   2.318  10.286 -0.1648 -1.2547 -0.0566
  258MOL0     C35524   4.115   2.457  10.307  0.4616 -0.2747  0.2824
  258MOL0     O35525   4.004   2.534  10.317 -0.2446  0.6532 -0.3045
  258MOL0     C35526   3.894   2.490  10.237 -0.5501  0.3037 -0.3222
  258MOL0     C35527   3.806   2.614  10.212  0.4287 -0.0716  0.2826
  258MOL0     C35528   3.686   2.589  10.134 -0.5073 -1.0131  0.6687
  258MOL0     C35529   3.622   2.718  10.101  0.4367 -0.8042  0.2880
  258MOL0     C35530   3.504   2.698  10.014 -0.9239  0.8851 -0.1726
  258MOL0     C35531   3.415   2.660   9.941 -0.2505 -0.5103 -0.1235
  258MOL0     C35532   4.232   2.537  10.315  0.4737 -1.0376  0.6923
  258MOL0     C35533   4.354   2.478  10.326 -0.0013  0.3853 -0.2593
  258MOL0     C35534   4.475   2.569  10.359  0.6434 -0.4994 -0.3336
  258MOL0     H35535   4.780   2.406  10.337  0.5192  1.1335 -1.3980
  258MOL0     H35536   5.006   2.351  10.281 -0.7669 -0.3518  2.4760
  258MOL0     H35537   5.171   2.193  10.244 -2.5140 -0.0388 -0.1715
  258MOL0     H35538   5.226   2.311  10.113  0.4260 -1.3073 -1.2857
  258MOL0     H35539   5.401   2.127  10.168  3.0851 -5.2410 -2.0957
  258MOL0     H35540   5.270   2.016  10.125  0.1656  0.0468  1.4680
  258MOL0     H35541   5.280   2.143   9.899  0.8809  0.1513 -0.7406
  258MOL0     H35542   5.409   2.235   9.961 -0.8764  0.3636 -0.1242
  258MOL0     H35543   5.444   1.935   9.961 -0.2355 -0.1524  0.5199
  258MOL0     H35544   5.478   2.041   9.825 -2.2175 -2.7119 -0.0472
  258MOL0     H35545   5.608   2.089  10.107 -1.7469  2.0235 -0.7110
  258MOL0     H35546   5.643   2.174   9.959 -0.0103 -0.1616 -2.2149
  258MOL0     H35547   5.719   1.882  10.016  0.6322  0.2361 -0.9190
  258MOL0     H35548   5.724   1.949   9.853 -1.9044  1.5295 -0.6788
  258MOL0     H35549   5.832   2.060  10.114 -0.8871  2.6669 -0.3357
  258MOL0     H35550   5.858   2.142   9.963  2.6589  0.5134  1.3030
  258MOL0     H35551   5.979   1.888  10.056 -0.8828  0.6716  0.0646
  258MOL0     H35552   5.962   1.911   9.879 -1.5656 -1.9016  0.1384
  258MOL0     H35553   6.151   2.077   9.779 -2.8602 -2.3570  1.1524
  258MOL0     H35554   6.340   2.273   9.793 -1.1408  0.3896  0.6405
  258MOL0     H35555   6.448   2.142   9.812 -1.8925  0.4209 -1.8822
  258MOL0     H35556   6.408   2.365  10.037 -0.5007 -0.1242 -0.2546
  258MOL0     H35557   6.533   2.242  10.039 -0.4273 -0.2063  0.4169
  258MOL0     H35558   6.646   2.348   9.842  0.5087  1.0401  0.7021
  258MOL0     H35559   6.503   2.449   9.819  0.5469 -1.3582 -1.9155
  258MOL0     H35560   6.700   2.457  10.051 -0.5693  1.1551  0.4075
  258MOL0     H35561   6.697   2.566   9.902 -2.9757  1.8504 -1.8763
  258MOL0     H35562   6.371   2.757  10.142 -1.0107  2.2342 -2.0615
  258MOL0     H35563   6.423   2.978  10.386  0.3750  0.4057 -0.4125
  258MOL0     H35564   6.295   2.923  10.271 -0.9950  1.6958 -0.6832
  258MOL0     H35565   6.370   3.078  10.246 -1.6494  0.0212  0.4278
  258MOL0     H35566   6.927   3.202  10.060 -1.9377  1.2405 -1.3468
  258MOL0     H35567   7.060   3.418  10.027 -1.1147  2.4583 -0.8160
  258MOL0     H35568   7.247   3.491  10.168 -1.0471 -0.1737  1.7318
  258MOL0     H35569   7.191   3.598  10.040 -1.1415 -0.4346  0.3498
  258MOL0     H35570   7.258   3.783  10.212  0.8819 -0.0273  3.4320
  258MOL0     H35571   7.366   3.656  10.267 -1.3589 -0.9392  0.0809
  258MOL0     H35572   7.348   3.766   9.975 -0.1995  2.6597  1.8786
  258MOL0     H35573   7.453   3.632  10.020 -1.7015 -1.2011 -0.6328
  258MOL0     H35574   7.552   3.813  10.196  1.8261 -0.7873 -1.2524
  258MOL0     H35575   7.432   3.920  10.122  1.4763  0.2599  0.0871
  258MOL0     H35576   7.655   3.806   9.960 -0.2059 -2.1562  1.9031
  258MOL0     H35577   7.528   3.923   9.904 -0.7144 -0.2189  0.5913
  258MOL0     H35578   7.728   3.995  10.116 -2.5455  0.5292  0.9121
  258MOL0     H35579   7.605   4.089  10.060  0.0749 -0.8445 -0.3619
  258MOL0     H35580   7.779   4.170   9.931  0.6723 -0.0499  0.0524
  258MOL0     H35581   7.702   4.063   9.817  1.1576  2.5442 -0.2845
  258MOL0     H35582   7.873   3.884   9.921  0.0546  0.4596  1.0710
  258MOL0     H35583   7.951   4.013   9.995  1.2592  0.4850 -0.7440
  258MOL0     H35584   6.879   3.564  10.387 -0.5476  0.5536 -1.4255
  258MOL0     H35585   6.739   3.357  10.394 -1.7182 -0.7951 -1.3192
  258MOL0     H35586   6.816   2.953  10.091  0.4083  0.4537  1.8774
  258MOL0     H35587   6.782   2.722  10.018  0.4507 -0.3650 -0.0070
  258MOL0     H35588   4.856   2.136   9.931 -2.0856  1.8625 -2.5460
  258MOL0     H35589   4.611   2.209  10.008 -0.8446 -4.6618  1.9302
  258MOL0     H35590   4.273   2.158  10.257  1.7842  0.1009  1.0949
  258MOL0     H35591   4.033   2.261  10.271 -0.9225  0.0487 -0.6103
  258MOL0     H35592   3.924   2.458  10.137 -2.1077  2.4329 -1.5632
  258MOL0     H35593   3.853   2.405  10.292  3.4697 -2.2172 -0.8389
  258MOL0     H35594   3.860   2.695  10.163 -2.3557  1.6353 -0.1657
  258MOL0     H35595   3.773   2.647  10.312 -2.2156 -0.0227 -0.5314
  258MOL0     H35596   3.713   2.554  10.034  2.0584  2.5350 -0.0924
  258MOL0     H35597   3.621   2.515  10.181  1.4451 -3.0369  0.3257
  258MOL0     H35598   3.688   2.782  10.041 -0.0293 -0.7143 -0.1375
  258MOL0     H35599   3.599   2.780  10.188 -1.1792 -0.2200 -0.4993
  258MOL0     H35600   3.327   2.642   9.883 -0.6783  2.4437 -0.5827
  258MOL0     H35601   4.221   2.644  10.324  2.5015 -0.8985  2.5975
  258MOL0     H35602   4.556   2.510  10.403 -0.5984 -1.3862  0.8351
  258MOL0     H35603   4.500   2.626  10.269  1.5364 -0.1540  0.1202
  258MOL0     H35604   4.437   2.644  10.429 -0.5303 -2.3110  1.0780
  259MOL0     O35605   1.600   6.960   2.623  0.3699 -0.5135  0.5522
  259MOL0     C35606   1.545   6.855   2.669 -0.2839  0.5206  0.1007
  259MOL0     O35607   1.616   6.751   2.732 -0.4596 -0.0011  0.8768
  259MOL0     C35608   1.745   6.779   2.757 -0.2291 -0.3946 -0.5879
  259MOL0     C35609   1.839   6.723   2.667 -0.5688  0.4059 -0.4037
  259MOL0     C35610   1.976   6.749   2.693 -1.2130  0.9300 -0.0835
  259MOL0     C35611   2.027   6.836   2.796 -0.3895 -0.1356 -0.1186
  259MOL0     O35612   2.163   6.863   2.815 -0.8767  0.6135  0.3170
  259MOL0     C35613   2.270   6.816   2.721 -0.2242 -0.7898 -0.2505
  259MOL0     C35614   2.384   6.919   2.713  0.7104  0.7500 -0.1941
  259MOL0     C35615   2.511   6.861   2.637  0.1378 -0.7847  0.0988
  259MOL0     C35616   2.625   6.961   2.656 -0.3483 -0.9695  0.4717
  259MOL0     C35617   2.758   6.917   2.586 -0.1754 -0.4354 -0.3498
  259MOL0     C35618   2.838   6.813   2.666  0.3084  1.0513 -0.3356
  259MOL0     C35619   2.920   6.880   2.769 -0.7014  0.2585 -0.6396
  259MOL0     C35620   3.023   6.805   2.848 -1.1533 -0.0456 -0.3299
  259MOL0     N35621   3.132   6.762   2.762 -0.4782  0.0734  0.1211
  259MOL0     C35622   3.142   6.640   2.699 -0.2167 -0.0193  0.6856
  259MOL0     C35623   3.264   6.647   2.638  0.5994 -0.4453  0.5599
  259MOL0     C35624   3.327   6.549   2.541  0.0670  0.4393 -0.6119
  259MOL0     C35625   3.370   6.418   2.600 -0.1813  0.7030 -0.2624
  259MOL0     C35626   3.454   6.438   2.732  0.6680 -0.8363 -0.2625
  259MOL0     C35627   3.593   6.505   2.716 -0.6801 -0.4186 -0.0627
  259MOL0     O35628   3.667   6.505   2.841 -0.3080 -0.0128  0.1023
  259MOL0     C35629   3.792   6.563   2.840 -0.2328 -0.2102  0.3350
  259MOL0     C35630   3.843   6.596   2.966  0.2737  0.2046  0.3173
  259MOL0     C35631   3.969   6.647   2.982  0.5123  0.4334 -0.1734
  259MOL0     C35632   4.002   6.677   3.128  0.0017 -0.8350 -0.4907
  259MOL0     C35633   4.051   6.670   2.869  0.5676 -0.1945  0.2259
  259MOL0     C35634   4.193   6.721   2.861 -0.9045  0.0394  0.0452
  259MOL0     O35635   4.260   6.734   2.744  0.0302  0.0356 -0.3976
  259MOL0     C35636   4.363   6.829   2.730  0.2139  0.3641  0.1025
  259MOL0     C35637   4.340   6.966   2.771 -0.7830 -0.1868  0.2694
  259MOL0     C35638   4.447   7.059   2.737  0.1857  0.3171 -0.1412
  259MOL0     C35639   4.576   7.014   2.688  0.4082 -0.0434  0.3734
  259MOL0     O35640   4.681   7.098   2.667  0.6668  0.4043 -0.3839
  259MOL0     C35641   4.757   7.126   2.788 -0.0908  0.1966  0.2896
  259MOL0     C35642   4.852   7.242   2.773  0.3209 -0.2951 -0.0660
  259MOL0     C35643   4.983   7.196   2.700  0.4304 -0.0503  0.3689
  259MOL0     C35644   5.062   7.325   2.665 -0.1403 -0.1163 -0.4256
  259MOL0     C35645   5.209   7.303   2.616  0.2071 -0.4853  0.6641
  259MOL0     C35646   5.288   7.434   2.624  0.1130 -0.6283  0.1653
  259MOL0     C35647   5.435   7.431   2.617 -0.1133 -0.0177  0.4324
  259MOL0     C35648   5.477   7.392   2.479 -0.5687  0.0995 -0.3059
  259MOL0    Cl35649   5.649   7.364   2.479 -0.6986  0.1410  0.0758
  259MOL0     C35650   4.576   6.890   2.629 -0.3181  0.6575 -0.5179
  259MOL0     C35651   4.475   6.797   2.654 -0.1794 -0.3370  0.4315
  259MOL0     O35652   4.239   6.761   2.966 -1.1896 -0.1129  0.0920
  259MOL0     C35653   3.992   6.652   2.744  0.3154 -0.8574  0.3466
  259MOL0     C35654   3.870   6.596   2.725 -0.2634  0.4001 -0.4444
  259MOL0     N35655   3.317   6.772   2.657  0.0063 -0.5343  0.4500
  259MOL0     N35656   3.235   6.840   2.731  0.0492 -0.5769 -0.4357
  259MOL0     C35657   1.920   6.901   2.868  0.3721  1.4902  0.5813
  259MOL0     C35658   1.785   6.867   2.858  0.2546  0.3226 -0.6234
  259MOL0     C35659   1.406   6.830   2.629 -0.1924 -0.1993 -0.8314
  259MOL0     C35660   1.316   6.945   2.624  0.0711  0.2863  0.0398
  259MOL0     C35661   1.182   6.929   2.621 -0.1348  0.1548  0.1249
  259MOL0     C35662   1.128   6.799   2.619 -0.0026  0.1614 -0.5248
  259MOL0     O35663   0.991   6.810   2.618  0.2417  0.1740  0.6669
  259MOL0     C35664   0.915   6.706   2.570 -0.4408 -0.1415  0.3501
  259MOL0     C35665   0.841   6.736   2.436  0.1806  0.1306  0.3004
  259MOL0     C35666   0.833   6.881   2.386  0.2656 -0.3861  0.9095
  259MOL0     C35667   0.772   6.906   2.247  0.2154 -0.6613 -0.1055
  259MOL0     C35668   0.758   7.048   2.206  0.0087  0.4159  0.5078
  259MOL0     C35669   0.761   7.166   2.165 -0.1814 -0.5324  0.0446
  259MOL0     C35670   1.206   6.683   2.611  0.5585 -0.1004  0.5692
  259MOL0     C35671   1.348   6.703   2.617  0.7270  0.6899  0.8999
  259MOL0     C35672   1.429   6.571   2.611  0.1419  0.0474  0.6192
  259MOL0     H35673   1.817   6.666   2.578 -0.2001  1.9023 -1.5020
  259MOL0     H35674   2.029   6.694   2.615 -1.3801  0.4118  0.1653
  259MOL0     H35675   2.221   6.791   2.627 -1.5094 -3.8288  1.1135
  259MOL0     H35676   2.311   6.724   2.763  1.4862 -0.9581 -2.1485
  259MOL0     H35677   2.348   7.011   2.666  2.7742  1.3498 -0.7138
  259MOL0     H35678   2.410   6.950   2.815  0.9196 -0.9339  0.3071
  259MOL0     H35679   2.529   6.762   2.682 -0.5743 -1.2857 -0.6988
  259MOL0     H35680   2.482   6.846   2.533  1.4212  3.2677 -1.0283
  259MOL0     H35681   2.587   7.048   2.602 -0.1810 -0.3117  1.3993
  259MOL0     H35682   2.638   6.991   2.760 -2.8603 -0.4976  0.7218
  259MOL0     H35683   2.818   7.008   2.578  0.9608 -1.0956  0.4569
  259MOL0     H35684   2.745   6.885   2.482  0.3774  0.2467 -0.6404
  259MOL0     H35685   2.775   6.744   2.723  1.8986  0.9249  1.3770
  259MOL0     H35686   2.901   6.750   2.603 -1.0006 -3.6006  2.5209
  259MOL0     H35687   2.852   6.933   2.836 -0.0481  2.8626 -1.8986
  259MOL0     H35688   2.983   6.948   2.711  0.1577 -1.2436 -1.5172
  259MOL0     H35689   3.065   6.879   2.918 -0.6722 -0.2058 -0.4482
  259MOL0     H35690   2.987   6.723   2.911  1.3011  0.1515  1.4827
  259MOL0     H35691   3.070   6.558   2.697  1.1138 -1.2140  0.3816
  259MOL0     H35692   3.412   6.604   2.499 -1.8736  3.8849 -0.3785
  259MOL0     H35693   3.260   6.530   2.456 -1.2384  4.0478 -0.5775
  259MOL0     H35694   3.278   6.361   2.615 -1.3240  3.0188  2.4590
  259MOL0     H35695   3.431   6.357   2.533 -0.3772  0.8085 -0.5374
  259MOL0     H35696   3.388   6.482   2.808  1.1192  0.7615 -0.7477
  259MOL0     H35697   3.466   6.339   2.777 -1.0133 -0.9406  0.0452
  259MOL0     H35698   3.648   6.461   2.633  0.4953 -0.7830  0.8766
  259MOL0     H35699   3.566   6.608   2.689  1.3420  0.2415  0.2612
  259MOL0     H35700   3.789   6.575   3.058 -0.7709  2.7270  0.3471
  259MOL0     H35701   4.100   6.726   3.135 -0.1306 -0.6307 -0.0558
  259MOL0     H35702   4.017   6.582   3.180 -1.4547 -1.2247 -0.7529
  259MOL0     H35703   3.925   6.733   3.181  0.7872  0.9251 -1.1139
  259MOL0     H35704   4.242   6.998   2.804 -1.0870 -0.7128 -0.1002
  259MOL0     H35705   4.438   7.165   2.761  0.1939  1.1328 -3.2450
  259MOL0     H35706   4.687   7.156   2.866  0.7855  2.7037  0.1753
  259MOL0     H35707   4.814   7.038   2.821  0.7801 -0.2582 -2.1600
  259MOL0     H35708   4.808   7.319   2.709 -2.8623 -2.7186 -1.0479
  259MOL0     H35709   4.887   7.283   2.868  2.8570 -3.0095  0.2972
  259MOL0     H35710   4.959   7.143   2.607 -1.0417 -1.0727  1.2911
  259MOL0     H35711   5.044   7.123   2.754  0.4625 -0.3862 -0.1069
  259MOL0     H35712   5.071   7.377   2.761 -1.5590  0.5890 -0.6461
  259MOL0     H35713   4.998   7.385   2.600  2.1432  0.6853 -2.0543
  259MOL0     H35714   5.252   7.230   2.684  0.4741 -1.5374 -0.5976
  259MOL0     H35715   5.203   7.259   2.516 -0.8639 -0.0220  0.5137
  259MOL0     H35716   5.255   7.499   2.706  1.8557  2.0892 -1.1157
  259MOL0     H35717   5.264   7.502   2.541 -1.6034 -2.2749 -0.7464
  259MOL0     H35718   5.477   7.353   2.681  0.8877 -0.3725 -0.6194
  259MOL0     H35719   5.478   7.529   2.640 -0.9075  0.3701  0.2704
  259MOL0     H35720   5.460   7.477   2.412  3.7038  0.4982 -1.1593
  259MOL0     H35721   5.416   7.311   2.439  1.1740 -1.3744 -0.0577
  259MOL0     H35722   4.664   6.852   2.578 -0.4265  1.6751 -1.4890
  259MOL0     H35723   4.494   6.707   2.596  1.4678  1.0071 -1.2006
  259MOL0     H35724   4.050   6.671   2.655  0.8026  1.8588  1.1449
  259MOL0     H35725   3.826   6.582   2.627 -3.6136 -0.7610  1.0562
  259MOL0     H35726   1.948   6.970   2.947  0.1479  3.1868 -0.7586
  259MOL0     H35727   1.715   6.927   2.916  2.0304 -0.9036  3.0843
  259MOL0     H35728   1.347   7.048   2.638 -0.4335  0.3657  0.5975
  259MOL0     H35729   1.122   7.017   2.643  2.0693  1.1212  2.8162
  259MOL0     H35730   0.972   6.612   2.565  0.7273  0.4836  1.4087
  259MOL0     H35731   0.841   6.683   2.647 -0.7008 -3.1655 -0.6675
  259MOL0     H35732   0.739   6.700   2.452  0.3350 -0.1933  0.5628
  259MOL0     H35733   0.884   6.679   2.354  0.5242 -0.4177  0.8574
  259MOL0     H35734   0.772   6.943   2.452  2.1888  3.3841 -0.5901
  259MOL0     H35735   0.935   6.918   2.389  0.6591 -1.4437  0.9380
  259MOL0     H35736   0.678   6.851   2.250 -0.7130  0.8963  1.8482
  259MOL0     H35737   0.830   6.861   2.166  2.4366 -1.7339  1.9451
  259MOL0     H35738   0.774   7.271   2.151  0.2358 -0.4409  1.0421
  259MOL0     H35739   1.164   6.583   2.602  0.7368 -0.1802  0.6236
  259MOL0     H35740   1.426   6.526   2.710 -2.2647 -2.9057 -0.6323
  259MOL0     H35741   1.381   6.493   2.551 -0.3218 -1.5743  3.0043
  259MOL0     H35742   1.533   6.578   2.577  0.5777 -0.1550  1.8919
  260MOL0     O35743   5.486  11.131   5.928 -0.4026 -0.3115  0.0633
  260MOL0     C35744   5.443  11.021   5.895  0.9852 -0.2287 -0.1450
  260MOL0     O35745   5.494  10.903   5.928 -0.5961 -0.5069 -0.0689
  260MOL0     C35746   5.614  10.899   5.987  0.0152 -0.1018  0.3396
  260MOL0     C35747   5.629  10.813   6.098 -0.2921 -0.5845  0.1259
  260MOL0     C35748   5.744  10.816   6.167 -0.4667  0.0680 -0.5179
  260MOL0     C35749   5.856  10.876   6.119  0.2955  0.3257 -0.0341
  260MOL0     O35750   5.969  10.876   6.197  0.0017  0.3071  0.3505
  260MOL0     C35751   5.971  10.981   6.298 -0.6025  0.0091 -0.6299
  260MOL0     C35752   6.001  10.904   6.433  0.0311 -0.0162  0.1563
  260MOL0     C35753   6.120  10.807   6.421 -0.3864 -0.9047  0.2591
  260MOL0     C35754   6.163  10.771   6.571 -0.6604  0.2330  0.1719
  260MOL0     C35755   6.234  10.640   6.575 -0.2218 -0.0133 -0.7293
  260MOL0     C35756   6.380  10.626   6.526 -0.0579  0.0162  0.7029
  260MOL0     C35757   6.427  10.487   6.516  0.0034  0.2106  0.4287
  260MOL0     C35758   6.446  10.424   6.657 -0.2457  0.5878 -0.5619
  260MOL0     N35759   6.544  10.310   6.644  0.2416  0.3343  0.4712
  260MOL0     C35760   6.675  10.301   6.689  0.9494  0.8478  0.2284
  260MOL0     C35761   6.706  10.171   6.679 -0.0103 -0.5051  0.3095
  260MOL0     C35762   6.844  10.101   6.702 -0.1201 -0.0213  0.1370
  260MOL0     C35763   6.908  10.167   6.827 -0.8881  0.2837  0.4220
  260MOL0     C35764   6.861  10.118   6.961  0.8340 -0.9476 -0.3194
  260MOL0     C35765   6.714  10.153   6.999 -0.4378  0.5664  0.1716
  260MOL0     O35766   6.692  10.293   7.017  0.2894 -0.5507 -0.2266
  260MOL0     C35767   6.563  10.335   7.046  0.3860  0.1133  0.0566
  260MOL0     C35768   6.532  10.399   7.161 -0.0439 -0.2841  0.5680
  260MOL0     C35769   6.402  10.446   7.183 -0.8802 -0.1764 -0.3161
  260MOL0     C35770   6.382  10.521   7.310 -0.4995 -0.7163  0.4179
  260MOL0     C35771   6.293  10.420   7.093  0.1216  0.6079  0.1510
  260MOL0     C35772   6.147  10.455   7.125 -0.4719  0.1631 -0.4656
  260MOL0     O35773   6.124  10.576   7.194  0.4191  0.0114 -0.3511
  260MOL0     C35774   6.001  10.582   7.255 -0.3854  0.0419  0.2215
  260MOL0     C35775   5.972  10.507   7.371 -0.0640 -0.3223 -0.5002
  260MOL0     C35776   5.839  10.503   7.421  0.3111 -0.9547  1.0122
  260MOL0     C35777   5.729  10.557   7.349 -0.1559  0.1585  0.4171
  260MOL0     O35778   5.598  10.546   7.393 -0.3109  0.9240 -0.0278
  260MOL0     C35779   5.542  10.411   7.403 -0.4340  0.2599 -0.4434
  260MOL0     C35780   5.433  10.399   7.298 -0.8562 -0.5206 -0.2660
  260MOL0     C35781   5.305  10.470   7.346  0.1738 -0.2380  0.0991
  260MOL0     C35782   5.183  10.454   7.249  0.8850  0.1132  0.2066
  260MOL0     C35783   5.036  10.483   7.311 -1.2566 -0.5054 -0.1759
  260MOL0     C35784   4.934  10.433   7.217  0.3822 -0.3906 -0.5329
  260MOL0     C35785   4.793  10.469   7.291 -0.0015  0.2253  1.2005
  260MOL0     C35786   4.676  10.470   7.187 -0.7141  0.0371  0.8113
  260MOL0    Cl35787   4.524  10.478   7.277  0.0778  0.0374 -0.1754
  260MOL0     C35788   5.761  10.646   7.246 -0.2863  0.6018 -0.3067
  260MOL0     C35789   5.894  10.658   7.198  0.1724 -0.5241 -0.4892
  260MOL0     O35790   6.064  10.376   7.079  0.1026 -0.3883  0.1253
  260MOL0     C35791   6.325  10.340   6.979  0.2833  0.4303 -0.1180
  260MOL0     C35792   6.456  10.302   6.955 -0.0571  0.1135  0.6881
  260MOL0     N35793   6.600  10.100   6.622 -0.4616 -0.6597  0.3405
  260MOL0     N35794   6.501  10.176   6.615  0.4275 -0.2914  0.4731
  260MOL0     C35795   5.851  10.941   5.999 -0.2130 -0.2313  0.7113
  260MOL0     C35796   5.724  10.969   5.937  0.2344 -1.0943 -0.3752
  260MOL0     C35797   5.306  11.022   5.829  0.5315  0.1068 -0.0028
  260MOL0     C35798   5.258  11.145   5.772  0.3007 -0.2697  0.1468
  260MOL0     C35799   5.133  11.157   5.715 -0.0931  0.0739  0.1484
  260MOL0     C35800   5.050  11.039   5.702  0.5989 -0.3210 -0.2266
  260MOL0     O35801   4.929  11.021   5.640 -0.2914 -1.0554 -0.3969
  260MOL0     C35802   4.870  11.129   5.562 -1.0901  0.8905 -0.5708
  260MOL0     C35803   4.730  11.106   5.517 -0.2161  0.0927 -0.1400
  260MOL0     C35804   4.693  11.206   5.408  0.0234 -0.4481  0.5305
  260MOL0     C35805   4.547  11.194   5.356 -0.0986 -0.0853 -0.8398
  260MOL0     C35806   4.540  11.115   5.232 -0.2672 -0.7626 -0.6631
  260MOL0     C35807   4.521  11.042   5.141 -0.6689 -0.5364  0.0800
  260MOL0     C35808   5.099  10.921   5.762 -0.3419  0.9781  0.3991
  260MOL0     C35809   5.219  10.912   5.820  1.2381  0.4018 -0.2627
  260MOL0     C35810   5.240  10.773   5.882  0.4150 -0.0968  0.4238
  260MOL0     H35811   5.546  10.762   6.145  0.2578 -2.2935 -0.6937
  260MOL0     H35812   5.748  10.770   6.265  0.0036 -1.5474 -1.2730
  260MOL0     H35813   5.868  11.020   6.296 -1.1685 -1.0792  2.3937
  260MOL0     H35814   6.046  11.056   6.270  2.0081 -2.0554  0.3860
  260MOL0     H35815   6.020  10.988   6.501 -2.1141  1.8965 -1.4505
  260MOL0     H35816   5.914  10.853   6.476 -1.5823  0.6146 -2.1799
  260MOL0     H35817   6.097  10.716   6.365  1.6217 -0.0358 -2.2027
  260MOL0     H35818   6.201  10.845   6.358 -2.1222 -2.5743 -3.2857
  260MOL0     H35819   6.218  10.856   6.613  2.6660 -1.1259 -1.1170
  260MOL0     H35820   6.074  10.775   6.634  0.6377  2.2909  2.0615
  260MOL0     H35821   6.172  10.564   6.526  1.8409 -1.6864 -0.8723
  260MOL0     H35822   6.241  10.608   6.679  1.5715  0.4097 -0.7043
  260MOL0     H35823   6.395  10.678   6.431  0.8469 -0.5541  0.5278
  260MOL0     H35824   6.437  10.691   6.594 -1.7627  3.9917 -1.2932
  260MOL0     H35825   6.525  10.497   6.468 -1.4141  3.3856 -2.2698
  260MOL0     H35826   6.362  10.427   6.452 -0.1916  2.5013 -1.7278
  260MOL0     H35827   6.494  10.498   6.721  0.8497  0.7857 -1.5712
  260MOL0     H35828   6.346  10.391   6.685  0.2237  0.4210  1.0209
  260MOL0     H35829   6.731  10.379   6.739  1.6889 -1.0160  2.4928
  260MOL0     H35830   6.907  10.114   6.614 -0.8553  2.8955 -0.0413
  260MOL0     H35831   6.833   9.995   6.727  1.5427 -0.5578 -1.1925
  260MOL0     H35832   7.014  10.141   6.830 -0.6064  1.2792  4.0034
  260MOL0     H35833   6.898  10.276   6.821 -0.8776  0.3096  0.8484
  260MOL0     H35834   6.877  10.011   6.970  4.5526 -0.3684  2.4420
  260MOL0     H35835   6.917  10.172   7.038 -0.6488 -0.4391  0.4532
  260MOL0     H35836   6.649  10.120   6.917 -1.0485  0.2853  0.7641
  260MOL0     H35837   6.691  10.104   7.094  0.4117  3.6789  2.1052
  260MOL0     H35838   6.606  10.426   7.235  0.6360  0.0130 -0.2140
  260MOL0     H35839   6.376  10.627   7.285 -0.5844 -0.7249  0.4024
  260MOL0     H35840   6.464  10.500   7.379  0.3890 -1.7517 -0.9249
  260MOL0     H35841   6.287  10.501   7.361 -2.4617  0.3860 -2.5386
  260MOL0     H35842   6.047  10.450   7.424  1.9940  1.4786 -1.2869
  260MOL0     H35843   5.819  10.431   7.499 -2.2696 -1.0318  0.3613
  260MOL0     H35844   5.617  10.332   7.398 -0.7255 -0.1207  0.8189
  260MOL0     H35845   5.495  10.392   7.500 -0.0750 -1.2722 -0.5457
  260MOL0     H35846   5.470  10.452   7.209  0.4631 -0.8106  0.0796
  260MOL0     H35847   5.420  10.297   7.259 -0.8311  1.2286 -5.7730
  260MOL0     H35848   5.337  10.574   7.358  0.0410 -0.3129  1.2763
  260MOL0     H35849   5.268  10.433   7.442  0.2651 -0.8359 -0.0930
  260MOL0     H35850   5.172  10.352   7.210  0.5398  0.7507 -1.4571
  260MOL0     H35851   5.203  10.525   7.168  0.8461 -0.6859 -0.5313
  260MOL0     H35852   5.030  10.420   7.400 -2.2496 -1.8845 -1.1609
  260MOL0     H35853   5.029  10.588   7.341  0.5521 -0.1387 -0.9194
  260MOL0     H35854   4.947  10.325   7.217 -0.2243 -0.4836  0.4416
  260MOL0     H35855   4.944  10.492   7.126 -1.9378  0.4486 -0.3301
  260MOL0     H35856   4.784  10.553   7.361  1.5755  0.8390  0.7014
  260MOL0     H35857   4.778  10.381   7.354  0.0118 -1.0486 -0.4962
  260MOL0     H35858   4.676  10.370   7.141 -1.4449 -0.5285  2.0054
  260MOL0     H35859   4.673  10.546   7.108 -2.5360 -0.1836  0.6192
  260MOL0     H35860   5.684  10.706   7.199  0.6926  1.3981 -0.9364
  260MOL0     H35861   5.911  10.733   7.120 -3.2844  2.7013  1.5055
  260MOL0     H35862   6.245  10.314   6.910  1.9593 -2.4500 -1.1695
  260MOL0     H35863   6.479  10.236   6.872 -0.0272 -1.4568  1.8883
  260MOL0     H35864   5.936  10.998   5.962 -1.7576  3.6169  2.6018
  260MOL0     H35865   5.727  11.040   5.856  3.3462 -0.1709  0.4317
  260MOL0     H35866   5.317  11.236   5.771 -0.9596  0.6368 -2.6174
  260MOL0     H35867   5.092  11.252   5.682 -1.4546 -0.4918  0.1235
  260MOL0     H35868   4.871  11.222   5.620  1.8102 -0.4228  1.7220
  260MOL0     H35869   4.942  11.128   5.480  0.6500 -2.6636  0.8073
  260MOL0     H35870   4.666  11.102   5.606 -2.2916  1.1755 -1.4841
  260MOL0     H35871   4.723  11.007   5.471  1.6593 -0.3325  0.4359
  260MOL0     H35872   4.698  11.306   5.454 -0.2780 -0.0794 -0.2255
  260MOL0     H35873   4.769  11.204   5.330  0.0473 -1.9179  0.5793
  260MOL0     H35874   4.519  11.296   5.330 -1.6053 -0.5780 -1.2542
  260MOL0     H35875   4.473  11.158   5.428 -2.2794  1.2643 -2.2548
  260MOL0     H35876   4.496  10.985   5.054  3.4928  0.6414 -2.1532
  260MOL0     H35877   5.038  10.831   5.758 -0.0596  0.6998  1.8741
  260MOL0     H35878   5.146  10.742   5.928  0.2682  0.6924  0.6671
  260MOL0     H35879   5.274  10.707   5.802 -0.1702 -0.1349  0.1987
  260MOL0     H35880   5.306  10.773   5.969 -0.8141  2.6334  1.4985
  261MOL0     O35881   7.273   6.931   1.210 -0.1338 -0.5304  0.3456
  261MOL0     C35882   7.277   6.854   1.114  0.5230 -0.1036  0.1324
  261MOL0     O35883   7.386   6.788   1.067 -0.5907  0.0278 -0.0521
  261MOL0     C35884   7.507   6.825   1.127 -0.5582  0.4339  0.0491
  261MOL0     C35885   7.587   6.720   1.177  0.0989 -0.1176  0.0542
  261MOL0     C35886   7.715   6.746   1.229 -0.0042 -0.7690 -0.4320
  261MOL0     C35887   7.769   6.879   1.231  0.1811  0.1653 -0.4331
  261MOL0     O35888   7.898   6.911   1.258  0.7422 -0.0067  0.9381
  261MOL0     C35889   7.997   6.805   1.262 -0.9933 -0.5634  0.1624
  261MOL0     C35890   8.129   6.883   1.275 -0.8934  0.5227 -0.7917
  261MOL0     C35891   8.236   6.779   1.280 -0.5025  0.2514  0.0870
  261MOL0     C35892   8.374   6.846   1.306 -0.2615 -0.2984 -0.5150
  261MOL0     C35893   8.494   6.759   1.271  0.3423 -0.6122  0.1066
  261MOL0     C35894   8.628   6.819   1.335  0.0940  0.3483  0.6045
  261MOL0     C35895   8.705   6.708   1.397  0.6364  0.4777  0.2946
  261MOL0     C35896   8.755   6.609   1.286  0.2524  0.9369  0.2915
  261MOL0     N35897   8.885   6.540   1.329  0.5110 -0.0625 -0.2068
  261MOL0     C35898   9.002   6.596   1.294  0.7384 -0.7957  0.3778
  261MOL0     C35899   9.092   6.534   1.370 -0.5030 -1.0709 -0.8420
  261MOL0     C35900   9.235   6.556   1.366 -0.4296 -0.1971 -0.4279
  261MOL0     C35901   9.279   6.606   1.501  0.0191 -0.7520 -0.0210
  261MOL0     C35902   9.433   6.639   1.514  0.3916  0.7306 -0.4840
  261MOL0     C35903   9.477   6.702   1.643  0.1089 -0.0325  0.3062
  261MOL0     O35904   9.448   6.612   1.752 -0.2976 -0.0536  0.3546
  261MOL0     C35905   9.514   6.623   1.866 -0.1466 -0.3845 -0.3696
  261MOL0     C35906   9.537   6.513   1.946 -0.3969 -0.1828  0.1504
  261MOL0     C35907   9.602   6.518   2.071 -0.1007  0.9411 -0.1453
  261MOL0     C35908   9.614   6.386   2.150  0.6109  0.6612  0.1499
  261MOL0     C35909   9.652   6.645   2.120  0.9131  0.2135  0.7931
  261MOL0     C35910   9.725   6.661   2.251  0.5305 -0.3537  0.1582
  261MOL0     O35911   9.722   6.791   2.306  0.6773  0.3196  0.1576
  261MOL0     C35912   9.768   6.798   2.439  0.0214  0.5060  0.1071
  261MOL0     C35913   9.906   6.793   2.462  0.4420 -0.2119 -0.6845
  261MOL0     C35914   9.947   6.797   2.599  0.3088  0.1754  1.1644
  261MOL0     C35915   9.857   6.797   2.701  1.8276 -0.9755  0.2261
  261MOL0     O35916   9.893   6.808   2.835 -0.2535 -0.0853 -0.4115
  261MOL0     C35917  10.014   6.879   2.866  1.2367  0.7138  0.5377
  261MOL0     C35918   9.960   7.023   2.866  0.0928 -0.3944 -0.1407
  261MOL0     C35919   9.849   7.061   2.970 -0.2200  0.0109  0.6144
  261MOL0     C35920   9.765   7.176   2.914  0.4796 -0.8697 -0.2518
  261MOL0     C35921   9.656   7.238   3.008 -0.4203 -0.0977 -0.4540
  261MOL0     C35922   9.617   7.381   2.964  0.4641 -0.5130  0.3379
  261MOL0     C35923   9.525   7.463   3.052  0.1703  0.0789  0.5819
  261MOL0     C35924   9.511   7.603   2.989 -0.2036  0.4686 -0.6361
  261MOL0    Cl35925   9.395   7.691   3.084 -0.1156  0.0225  0.1657
  261MOL0     C35926   9.720   6.804   2.676 -0.0581  1.0138 -0.3720
  261MOL0     C35927   9.672   6.809   2.542  0.7780 -0.0557  0.1919
  261MOL0     O35928   9.779   6.566   2.302  0.4460 -0.8768  0.8286
  261MOL0     C35929   9.635   6.752   2.036  0.8706 -0.2440  0.1748
  261MOL0     C35930   9.569   6.744   1.907  0.0838 -1.0803  0.3001
  261MOL0     N35931   9.027   6.440   1.445 -0.3405  0.1355 -0.1001
  261MOL0     N35932   8.895   6.444   1.421 -0.2005 -0.0392  0.3096
  261MOL0     C35933   7.690   6.983   1.185 -0.1078  0.7836  0.5875
  261MOL0     C35934   7.561   6.955   1.141  0.0484 -0.3149  0.1490
  261MOL0     C35935   7.149   6.817   1.046  0.0682 -0.7993 -0.2798
  261MOL0     C35936   7.092   6.932   0.988 -0.0559  0.7224  0.6571
  261MOL0     C35937   6.963   6.921   0.935 -0.1153 -1.2505  0.1894
  261MOL0     C35938   6.900   6.799   0.926  0.0320 -0.4163  0.2112
  261MOL0     O35939   6.775   6.789   0.871  0.3329 -0.2385  0.6666
  261MOL0     C35940   6.670   6.855   0.950 -1.3776  0.8955  0.0353
  261MOL0     C35941   6.536   6.780   0.922 -0.9677 -0.5618 -0.1813
  261MOL0     C35942   6.431   6.843   1.026 -0.3289  0.5395 -0.4584
  261MOL0     C35943   6.291   6.794   1.006 -0.2275 -0.0327  0.1094
  261MOL0     C35944   6.233   6.815   0.871 -0.8215 -0.3765  0.8012
  261MOL0     C35945   6.198   6.854   0.756  0.1823 -0.2849  0.5544
  261MOL0     C35946   6.972   6.682   0.972 -0.1377  0.7657 -0.1067
  261MOL0     C35947   7.103   6.692   1.023 -1.0163  0.4751  0.0602
  261MOL0     C35948   7.159   6.569   1.089 -0.2707  1.0272  0.4431
  261MOL0     H35949   7.562   6.614   1.170  1.0032 -0.2283 -3.5742
  261MOL0     H35950   7.776   6.662   1.261  2.4246  1.1961  0.3871
  261MOL0     H35951   8.002   6.751   1.167 -0.6519  0.6271 -0.5214
  261MOL0     H35952   7.977   6.728   1.337 -0.7416 -1.8159 -1.0025
  261MOL0     H35953   8.129   6.957   1.194  0.0798  1.7745  0.3025
  261MOL0     H35954   8.124   6.927   1.376 -0.3133 -0.5265 -0.2915
  261MOL0     H35955   8.225   6.696   1.350  1.6512  0.0592  0.2788
  261MOL0     H35956   8.243   6.735   1.181 -0.2894  0.6025 -0.0559
  261MOL0     H35957   8.385   6.938   1.248 -0.8060 -0.5427 -1.0146
  261MOL0     H35958   8.383   6.898   1.402  1.1088  0.3789 -0.9931
  261MOL0     H35959   8.509   6.745   1.164  1.9118 -1.7063  0.4431
  261MOL0     H35960   8.481   6.659   1.313  2.3761 -1.0616 -0.2079
  261MOL0     H35961   8.696   6.875   1.270  2.0988  0.5143  2.7248
  261MOL0     H35962   8.606   6.887   1.418 -1.0247  0.4817  0.2163
  261MOL0     H35963   8.630   6.653   1.455 -2.1741  1.5631 -2.0535
  261MOL0     H35964   8.787   6.751   1.455 -0.6828  1.8004  1.2303
  261MOL0     H35965   8.677   6.534   1.275  0.6712  0.6330 -0.6958
  261MOL0     H35966   8.766   6.660   1.190  0.4882  1.0563  0.3797
  261MOL0     H35967   9.032   6.666   1.217  1.0267 -1.1741  0.1444
  261MOL0     H35968   9.259   6.634   1.293 -2.4526  0.0780 -0.8660
  261MOL0     H35969   9.278   6.457   1.351  0.9251 -0.1904  2.7068
  261MOL0     H35970   9.228   6.701   1.522  0.3047 -0.6659  0.3119
  261MOL0     H35971   9.249   6.534   1.578  1.2360 -0.2783  0.9440
  261MOL0     H35972   9.478   6.540   1.503 -3.2155 -1.1398 -0.0286
  261MOL0     H35973   9.469   6.707   1.436  1.5873 -1.5428 -2.0521
  261MOL0     H35974   9.586   6.705   1.635  0.2320 -2.3511  0.4761
  261MOL0     H35975   9.436   6.800   1.669  0.1543 -0.3259  1.5552
  261MOL0     H35976   9.491   6.421   1.912 -1.0025  0.2697 -0.2947
  261MOL0     H35977   9.587   6.408   2.254 -1.0629 -1.0031  0.1230
  261MOL0     H35978   9.712   6.339   2.153  1.3549  2.1921  0.7180
  261MOL0     H35979   9.547   6.305   2.120  0.9218 -0.0253  1.2900
  261MOL0     H35980   9.974   6.780   2.379  2.0025 -0.8746  0.6357
  261MOL0     H35981  10.054   6.799   2.618  0.7234 -0.5756 -0.8636
  261MOL0     H35982  10.046   6.845   2.965  1.7502  1.0857  0.5034
  261MOL0     H35983  10.096   6.859   2.797  0.6193 -1.1551  0.2949
  261MOL0     H35984  10.044   7.088   2.890 -0.9707  0.6256  0.9426
  261MOL0     H35985   9.924   7.052   2.767  1.3525 -2.2328 -1.2052
  261MOL0     H35986   9.911   7.084   3.057  1.9647 -3.9765  0.3745
  261MOL0     H35987   9.784   6.975   2.992  1.7920 -1.5161  0.9597
  261MOL0     H35988   9.713   7.146   2.823  0.3110  2.7365 -1.4828
  261MOL0     H35989   9.832   7.258   2.887 -0.6933 -0.3364 -1.6250
  261MOL0     H35990   9.570   7.170   3.011  1.0762 -2.0616 -0.1561
  261MOL0     H35991   9.693   7.250   3.110  0.1166 -4.0824 -0.0343
  261MOL0     H35992   9.563   7.375   2.869  0.6846  2.1241 -0.0381
  261MOL0     H35993   9.714   7.433   2.960  1.6469 -2.6795 -0.6117
  261MOL0     H35994   9.582   7.472   3.145  1.2576  0.8133 -0.1424
  261MOL0     H35995   9.430   7.413   3.076 -0.0513 -0.3753 -1.1397
  261MOL0     H35996   9.485   7.598   2.883 -0.2496 -0.6052 -0.5883
  261MOL0     H35997   9.605   7.658   2.982 -2.1202  4.0291 -0.9545
  261MOL0     H35998   9.641   6.803   2.751  0.5801  1.3857  0.3159
  261MOL0     H35999   9.566   6.815   2.522  1.1291 -0.8265 -2.1327
  261MOL0     H36000   9.671   6.849   2.069 -0.0584  1.1156 -2.5047
  261MOL0     H36001   9.560   6.829   1.841  1.5743  1.9665  3.6887
  261MOL0     H36002   7.739   7.079   1.171  1.3543 -0.1758 -1.5322
  261MOL0     H36003   7.505   7.040   1.102 -0.3689 -1.4501 -1.8310
  261MOL0     H36004   7.141   7.029   0.989 -2.0702  1.8428 -1.1398
  261MOL0     H36005   6.899   7.006   0.914  3.3331  2.0213  1.7687
  261MOL0     H36006   6.694   6.857   1.057  1.6466  0.1348 -0.5449
  261MOL0     H36007   6.661   6.961   0.925 -1.1241  1.3437  1.7326
  261MOL0     H36008   6.532   6.672   0.937 -1.0299 -0.4271  0.8654
  261MOL0     H36009   6.498   6.799   0.821  0.0549 -3.0719 -1.0966
  261MOL0     H36010   6.465   6.827   1.129 -0.3732  2.2995 -0.1355
  261MOL0     H36011   6.436   6.952   1.031  0.2029  0.4661  1.5341
  261MOL0     H36012   6.226   6.855   1.069  2.0428  1.0512  1.5387
  261MOL0     H36013   6.273   6.696   1.051 -0.1664 -0.7031 -1.2760
  261MOL0     H36014   6.170   6.887   0.658 -0.6638  0.5533  1.0634
  261MOL0     H36015   6.917   6.589   0.981 -0.4727  1.0237  0.6101
  261MOL0     H36016   7.150   6.570   1.198 -0.4233 -0.3418  0.4599
  261MOL0     H36017   7.107   6.480   1.053 -1.1456  1.9026 -0.5217
  261MOL0     H36018   7.262   6.562   1.053 -0.4963 -0.7974  0.0617
  262MOL0     O36019   5.260   9.223   7.369  0.4865 -0.0035 -0.1126
  262MOL0     C36020   5.166   9.165   7.318  0.7272 -0.2190 -0.2797
  262MOL0     O36021   5.178   9.091   7.208 -0.1916  0.2611  0.3992
  262MOL0     C36022   5.285   9.114   7.124  0.1178 -0.0610  0.4500
  262MOL0     C36023   5.392   9.024   7.139 -0.3030  0.0887 -1.2772
  262MOL0     C36024   5.505   9.022   7.057  0.2955 -0.3182  0.1175
  262MOL0     C36025   5.515   9.124   6.960  0.9405  0.9508 -0.3033
  262MOL0     O36026   5.628   9.114   6.886  0.4348  0.7455  0.2682
  262MOL0     C36027   5.689   9.226   6.835  0.4880  0.2567 -0.0364
  262MOL0     C36028   5.761   9.202   6.707 -0.4389 -0.1222  0.1320
  262MOL0     C36029   5.896   9.140   6.722 -0.3044 -0.0484 -0.8260
  262MOL0     C36030   5.981   9.124   6.598  0.4640 -0.2378 -0.2429
  262MOL0     C36031   6.104   9.024   6.605  0.7317 -0.9445 -0.2990
  262MOL0     C36032   6.172   9.013   6.474 -0.1167 -0.6945 -0.3994
  262MOL0     C36033   6.297   8.929   6.483  0.0292  0.1306 -0.6807
  262MOL0     C36034   6.424   9.012   6.520  0.1154 -0.4567  0.6291
  262MOL0     N36035   6.541   8.921   6.538  0.3859 -0.2236 -0.3634
  262MOL0     C36036   6.624   8.910   6.644  0.6193  0.3243  0.2028
  262MOL0     C36037   6.702   8.797   6.621 -0.0427 -0.5250 -0.1103
  262MOL0     C36038   6.820   8.743   6.687  0.6714  0.0362  0.6483
  262MOL0     C36039   6.788   8.731   6.834 -0.0868  0.1193  0.1254
  262MOL0     C36040   6.912   8.727   6.930 -0.3889  0.3982 -0.4909
  262MOL0     C36041   6.987   8.864   6.936  0.0524 -0.3479  0.1896
  262MOL0     O36042   7.088   8.881   6.833 -0.6268 -0.5997  0.5384
  262MOL0     C36043   7.223   8.877   6.872  1.5642  0.3746  0.2244
  262MOL0     C36044   7.303   8.770   6.832  0.0369  1.4628  0.0804
  262MOL0     C36045   7.439   8.771   6.879  0.0532  0.6140  0.5978
  262MOL0     C36046   7.524   8.654   6.828 -0.1070  1.1085 -0.2426
  262MOL0     C36047   7.487   8.873   6.959 -0.7423  0.1784  0.7262
  262MOL0     C36048   7.626   8.873   7.006  0.4407 -0.5153  0.5851
  262MOL0     O36049   7.682   8.998   7.022  0.2057 -0.5166 -0.1572
  262MOL0     C36050   7.802   9.000   7.072 -0.0203 -0.1877 -0.0095
  262MOL0     C36051   7.823   8.978   7.212  0.4224 -0.6606  0.2875
  262MOL0     C36052   7.955   8.977   7.257  0.6704 -0.4701 -0.4988
  262MOL0     C36053   8.061   8.989   7.173  0.2038 -0.0059 -0.4017
  262MOL0     O36054   8.197   8.992   7.196  0.6741 -0.1368  0.1520
  262MOL0     C36055   8.258   8.955   7.321  0.9337  0.8629  0.1470
  262MOL0     C36056   8.402   8.968   7.321  0.1308 -0.3464  0.4170
  262MOL0     C36057   8.479   8.904   7.206  0.0512  0.0273  0.1394
  262MOL0     C36058   8.640   8.900   7.229  0.7419 -0.0714  0.1706
  262MOL0     C36059   8.700   8.763   7.267  0.4081  0.0658 -0.2441
  262MOL0     C36060   8.615   8.665   7.349 -0.0154  0.0986  0.4255
  262MOL0     C36061   8.692   8.538   7.389  0.5937  0.3079  0.5784
  262MOL0     C36062   8.593   8.435   7.456  0.5829 -0.0884 -0.1390
  262MOL0    Cl36063   8.662   8.276   7.495 -0.0748 -0.3340  0.3302
  262MOL0     C36064   8.038   9.015   7.040  0.6403 -0.2853 -0.0433
  262MOL0     C36065   7.908   9.028   6.988  1.0551  0.3185 -0.9004
  262MOL0     O36066   7.668   8.769   7.060  0.0059 -0.3505 -0.0842
  262MOL0     C36067   7.404   8.984   6.989 -0.0884 -0.2119 -0.5035
  262MOL0     C36068   7.268   8.979   6.954 -0.3001 -0.7038  0.0149
  262MOL0     N36069   6.674   8.749   6.499 -0.2716  0.3356 -0.7529
  262MOL0     N36070   6.577   8.824   6.448  0.5769 -0.5041 -0.0058
  262MOL0     C36071   5.414   9.215   6.940 -0.2929  0.3575  0.0544
  262MOL0     C36072   5.299   9.213   7.024 -0.5058 -0.0204  0.2639
  262MOL0     C36073   5.028   9.163   7.368 -0.7314  0.2748 -0.6319
  262MOL0     C36074   4.920   9.097   7.298 -0.4572  0.3217 -0.9396
  262MOL0     C36075   4.792   9.086   7.351  0.7634 -1.0261 -0.2673
  262MOL0     C36076   4.758   9.151   7.469  0.1506 -0.5371 -0.2679
  262MOL0     O36077   4.627   9.144   7.508 -0.0600 -0.3825 -0.0153
  262MOL0     C36078   4.570   9.210   7.626 -0.5740 -0.1940 -0.0516
  262MOL0     C36079   4.555   9.103   7.726 -1.0244 -0.3130 -0.0100
  262MOL0     C36080   4.458   8.988   7.692 -0.1670 -0.7582  0.3663
  262MOL0     C36081   4.313   9.041   7.667 -0.7071 -0.1810  0.1143
  262MOL0     C36082   4.265   9.125   7.781 -0.2657  0.1925 -0.0361
  262MOL0     C36083   4.226   9.195   7.875 -0.6584 -1.2009  0.4880
  262MOL0     C36084   4.856   9.230   7.526  0.3260  0.3153 -0.3986
  262MOL0     C36085   4.990   9.240   7.483  0.2338  0.1399 -0.2822
  262MOL0     C36086   5.078   9.320   7.579 -0.2545 -0.6385 -0.4156
  262MOL0     H36087   5.393   8.953   7.221  5.2137  0.8382 -0.3020
  262MOL0     H36088   5.588   8.954   7.070 -0.2834 -1.4285 -1.5768
  262MOL0     H36089   5.748   9.275   6.913  0.7573  1.6818 -1.0938
  262MOL0     H36090   5.619   9.303   6.802 -0.8587 -1.1608 -0.5374
  262MOL0     H36091   5.690   9.152   6.640 -0.5261 -2.4206  1.8241
  262MOL0     H36092   5.777   9.302   6.666  2.2438 -1.0909 -1.4656
  262MOL0     H36093   5.949   9.202   6.795 -3.1277  1.4317  0.1239
  262MOL0     H36094   5.887   9.035   6.753  1.7229 -0.5860 -1.9197
  262MOL0     H36095   5.918   9.084   6.518 -0.2853  1.9524 -0.8218
  262MOL0     H36096   6.016   9.220   6.559  1.0815 -0.3498  0.0338
  262MOL0     H36097   6.059   8.928   6.633  0.2799 -0.9208 -0.9002
  262MOL0     H36098   6.171   9.060   6.683  0.1024  0.2942 -0.3024
  262MOL0     H36099   6.109   8.964   6.400 -2.3264  0.9649  0.2878
  262MOL0     H36100   6.191   9.112   6.430  1.6862 -0.2232  1.2831
  262MOL0     H36101   6.318   8.872   6.392 -1.2658  1.3269 -1.7760
  262MOL0     H36102   6.291   8.859   6.566 -1.0709  1.6899  0.6201
  262MOL0     H36103   6.440   9.086   6.441 -1.2493  0.4089  1.1267
  262MOL0     H36104   6.411   9.073   6.610 -1.4722  0.5690 -0.2518
  262MOL0     H36105   6.620   8.980   6.726 -3.1557 -0.5397  0.9523
  262MOL0     H36106   6.909   8.804   6.668  0.8548 -0.1966  0.7555
  262MOL0     H36107   6.853   8.650   6.639  0.4095  0.2720 -0.0014
  262MOL0     H36108   6.728   8.815   6.872  0.0355  1.1956 -1.9028
  262MOL0     H36109   6.735   8.637   6.853 -1.2739  0.5065 -1.0821
  262MOL0     H36110   6.883   8.700   7.032 -0.0872 -0.4086 -0.6082
  262MOL0     H36111   6.979   8.645   6.903  1.8774  1.1222  2.4393
  262MOL0     H36112   6.920   8.949   6.924  1.5107  0.5767 -2.0513
  262MOL0     H36113   7.026   8.875   7.037 -1.7861 -0.6905  0.9881
  262MOL0     H36114   7.274   8.695   6.760 -0.1257  2.4432 -0.8946
  262MOL0     H36115   7.626   8.692   6.815  0.1984  0.2508 -0.4034
  262MOL0     H36116   7.501   8.617   6.728  2.6695 -1.0417 -0.2101
  262MOL0     H36117   7.514   8.568   6.894 -0.7556  2.5621  1.6690
  262MOL0     H36118   7.740   8.964   7.281  0.7674  1.2680  1.1659
  262MOL0     H36119   7.969   8.964   7.364 -2.2349  2.3182  0.3667
  262MOL0     H36120   8.212   9.011   7.402  0.9427 -1.4386  1.8491
  262MOL0     H36121   8.240   8.852   7.353 -2.8289  1.6951  1.2367
  262MOL0     H36122   8.421   9.075   7.306  0.2989 -0.4315  0.0095
  262MOL0     H36123   8.440   8.925   7.414  2.0923 -2.8476 -1.4008
  262MOL0     H36124   8.451   8.953   7.112  0.8497  0.5344  0.1596
  262MOL0     H36125   8.440   8.804   7.186 -0.1398  0.2277 -0.5193
  262MOL0     H36126   8.666   8.977   7.302  0.8883 -0.2900  0.3508
  262MOL0     H36127   8.691   8.937   7.139  1.1666  1.3077  0.9406
  262MOL0     H36128   8.733   8.713   7.176 -4.4183 -0.9922 -1.6841
  262MOL0     H36129   8.782   8.778   7.339 -0.0626 -0.3707  0.4000
  262MOL0     H36130   8.528   8.635   7.291 -0.1488  0.8575  0.2299
  262MOL0     H36131   8.570   8.708   7.439 -0.5510  0.3376  0.0442
  262MOL0     H36132   8.778   8.562   7.452  1.6869  3.3351 -1.7645
  262MOL0     H36133   8.734   8.486   7.302  1.5491  1.5077  0.3006
  262MOL0     H36134   8.507   8.412   7.393  1.1003  0.5418 -1.1092
  262MOL0     H36135   8.566   8.481   7.551  1.3436  0.2278 -0.0679
  262MOL0     H36136   8.113   9.028   6.963 -0.3843 -0.3025 -1.0814
  262MOL0     H36137   7.888   9.040   6.882 -1.4065 -1.0189 -0.6700
  262MOL0     H36138   7.431   9.075   7.042 -1.0539  0.7863 -1.6524
  262MOL0     H36139   7.193   9.055   6.973 -0.3887  0.0883 -3.0030
  262MOL0     H36140   5.428   9.294   6.867  0.1268 -0.2010 -0.4715
  262MOL0     H36141   5.224   9.292   7.021 -0.0338  0.6380  3.1511
  262MOL0     H36142   4.940   9.057   7.199  0.0591 -1.7836 -0.0198
  262MOL0     H36143   4.709   9.051   7.290 -2.8132  1.8904  2.4468
  262MOL0     H36144   4.635   9.283   7.676  0.5733 -0.6642 -0.8179
  262MOL0     H36145   4.472   9.252   7.602 -2.6757 -4.7382 -0.5714
  262MOL0     H36146   4.517   9.155   7.815 -1.8001  0.7100 -0.9224
  262MOL0     H36147   4.650   9.054   7.749 -1.2538 -1.2781 -1.0479
  262MOL0     H36148   4.489   8.935   7.601 -0.2058 -3.5396  1.8658
  262MOL0     H36149   4.458   8.913   7.772 -0.6872  0.9312  2.0249
  262MOL0     H36150   4.250   8.951   7.662 -0.4436 -0.5504  2.3694
  262MOL0     H36151   4.304   9.099   7.575  1.5188  0.7460  0.4350
  262MOL0     H36152   4.199   9.242   7.968  0.1204  0.6792 -0.1880
  262MOL0     H36153   4.822   9.286   7.613 -2.2908 -1.1547 -0.3779
  262MOL0     H36154   5.021   9.374   7.655  0.5352 -1.1881  0.5932
  262MOL0     H36155   5.138   9.251   7.639 -0.5057 -0.5043 -0.0002
  262MOL0     H36156   5.136   9.391   7.519 -0.0661 -0.0856  0.3940
  263MOL0     O36157   3.191  10.976   4.155  0.1761 -0.3593  0.8344
  263MOL0     C36158   3.216  10.883   4.081 -0.2427 -0.1038 -0.3945
  263MOL0     O36159   3.332  10.860   4.016 -0.7366  0.4265  0.5030
  263MOL0     C36160   3.448  10.921   4.048 -0.2843 -0.0993  0.3369
  263MOL0     C36161   3.498  10.963   4.175 -0.3139  0.3255 -0.7357
  263MOL0     C36162   3.636  11.000   4.201  0.2127 -0.5405  0.0205
  263MOL0     C36163   3.722  11.000   4.091  0.4032 -0.0046  0.0784
  263MOL0     O36164   3.849  11.044   4.082 -0.0884  0.1791 -0.0190
  263MOL0     C36165   3.911  11.126   4.184  0.7325 -0.1312 -0.0735
  263MOL0     C36166   4.029  11.216   4.127  0.4115 -0.1548 -0.1452
  263MOL0     C36167   4.130  11.127   4.056 -0.3293  0.4007  1.2886
  263MOL0     C36168   4.246  11.210   3.983  0.4311  0.0794  0.1535
  263MOL0     C36169   4.338  11.283   4.083 -0.6071  0.1772  0.2126
  263MOL0     C36170   4.471  11.316   4.011  0.1532  0.5513  0.1774
  263MOL0     C36171   4.557  11.420   4.075 -0.2958 -0.2607  0.1891
  263MOL0     C36172   4.674  11.465   3.990  0.1774 -0.7438 -0.1447
  263MOL0     N36173   4.766  11.557   4.066  0.4915  0.3624 -0.3167
  263MOL0     C36174   4.893  11.516   4.106  0.1492 -0.2970 -0.6856
  263MOL0     C36175   4.946  11.629   4.147 -0.2919 -0.5806  0.5766
  263MOL0     C36176   5.090  11.637   4.176 -0.3873 -0.3912  0.0618
  263MOL0     C36177   5.141  11.759   4.255 -0.1242  0.1702 -0.9318
  263MOL0     C36178   5.280  11.749   4.315 -1.0640 -0.3705 -0.2496
  263MOL0     C36179   5.391  11.783   4.213  0.6496  0.0644 -0.5150
  263MOL0     O36180   5.511  11.729   4.262  0.0663  0.3354 -1.1684
  263MOL0     C36181   5.634  11.781   4.215  0.0035 -0.1292  0.3211
  263MOL0     C36182   5.647  11.871   4.110  0.1167  0.9369 -0.1397
  263MOL0     C36183   5.772  11.921   4.064 -0.2691  0.6008  0.2852
  263MOL0     C36184   5.769  12.041   3.963  0.2617 -0.0520 -0.0629
  263MOL0     C36185   5.893  11.855   4.122  1.1001 -0.4238  0.6091
  263MOL0     C36186   6.022  11.909   4.093 -0.2852 -0.0498  0.9413
  263MOL0     O36187   6.108  11.904   4.194  0.3469  0.2192 -0.1797
  263MOL0     C36188   6.234  11.969   4.174  0.0114  0.7209 -0.8459
  263MOL0     C36189   6.325  11.936   4.076  0.0682 -0.6239  0.5849
  263MOL0     C36190   6.444  12.001   4.062  0.2787 -1.0268 -0.4246
  263MOL0     C36191   6.460  12.120   4.134 -0.4944 -0.7258  0.6786
  263MOL0     O36192   6.577  12.190   4.120  0.1874  0.2828 -0.7729
  263MOL0     C36193   6.602  12.326   4.167  0.4096  0.5298  0.3649
  263MOL0     C36194   6.669  12.394   4.053 -0.0541 -0.5872  0.6513
  263MOL0     C36195   6.819  12.354   4.039 -0.3085  0.2052  0.0792
  263MOL0     C36196   6.901  12.451   3.950 -0.2369 -0.3945  0.3551
  263MOL0     C36197   7.049  12.404   3.940 -0.2032  0.2165  0.2060
  263MOL0     C36198   7.110  12.474   3.819 -0.3439 -0.0447 -0.7562
  263MOL0     C36199   7.263  12.459   3.815  0.2250 -0.7430 -0.1609
  263MOL0     C36200   7.290  12.407   3.667  0.6997 -0.0932  0.1658
  263MOL0    Cl36201   7.468  12.379   3.657 -0.2224 -0.5161 -0.1155
  263MOL0     C36202   6.372  12.154   4.242  0.0384  0.7233  0.2341
  263MOL0     C36203   6.264  12.070   4.270 -0.7054  0.5021  0.7584
  263MOL0     O36204   6.038  11.974   3.991  1.3301  0.1394  0.8374
  263MOL0     C36205   5.879  11.746   4.214 -0.4248  0.1395 -0.5032
  263MOL0     C36206   5.751  11.719   4.273  1.4464 -0.8795  0.6406
  263MOL0     N36207   4.855  11.733   4.153  0.1507 -0.2844  0.5112
  263MOL0     N36208   4.743  11.689   4.109 -0.8711  1.3015  0.2153
  263MOL0     C36209   3.665  10.965   3.959 -0.4077 -1.1293 -0.5651
  263MOL0     C36210   3.536  10.930   3.941  0.9691  0.0091 -0.0457
  263MOL0     C36211   3.105  10.798   4.044 -0.3145  0.7705  0.1191
  263MOL0     C36212   3.076  10.778   3.906  0.5881 -0.6556 -0.0645
  263MOL0     C36213   2.959  10.715   3.863  0.0143  0.6132 -0.2714
  263MOL0     C36214   2.871  10.658   3.959 -0.0130 -0.1935  0.7302
  263MOL0     O36215   2.781  10.557   3.931 -0.3147  0.4919 -0.6400
  263MOL0     C36216   2.756  10.512   3.796  0.5434  0.4188  0.2663
  263MOL0     C36217   2.626  10.437   3.787  0.3007  0.6664  0.0326
  263MOL0     C36218   2.619  10.338   3.661 -0.8637  0.1672 -0.7240
  263MOL0     C36219   2.505  10.240   3.676  0.4440 -0.1093  0.0641
  263MOL0     C36220   2.374  10.278   3.621 -0.0446  0.4982 -0.4790
  263MOL0     C36221   2.264  10.292   3.576 -0.4873 -0.0536  0.3524
  263MOL0     C36222   2.885  10.694   4.097  0.6170  0.7809  1.4401
  263MOL0     C36223   3.000  10.758   4.135 -0.8227 -0.6654 -1.2133
  263MOL0     C36224   3.019  10.784   4.282  0.4319  0.1710 -0.6828
  263MOL0     H36225   3.437  10.965   4.264  1.9643 -0.4529  0.9481
  263MOL0     H36226   3.669  11.027   4.301  0.8711  0.5641 -0.4773
  263MOL0     H36227   3.945  11.066   4.269 -0.7792 -1.1355 -0.1269
  263MOL0     H36228   3.839  11.191   4.234  1.7517 -2.1615  4.4952
  263MOL0     H36229   3.987  11.286   4.053 -3.3563 -1.1834  0.8248
  263MOL0     H36230   4.082  11.273   4.203  3.1690 -1.8138 -0.6740
  263MOL0     H36231   4.162  11.052   4.129 -0.2240  1.7901  2.7188
  263MOL0     H36232   4.077  11.073   3.978  0.1620 -0.3459  1.4630
  263MOL0     H36233   4.293  11.144   3.910 -0.4363 -1.3501  0.8361
  263MOL0     H36234   4.202  11.290   3.923 -2.0046  0.8384  2.7033
  263MOL0     H36235   4.366  11.229   4.174  3.3419  1.2480 -0.1544
  263MOL0     H36236   4.289  11.376   4.114  0.6058  0.1123  2.5748
  263MOL0     H36237   4.527  11.227   3.980  1.2565  1.5124 -0.6943
  263MOL0     H36238   4.450  11.353   3.910  4.0673  0.4090 -0.8396
  263MOL0     H36239   4.588  11.392   4.176  0.7408  1.3463  0.3383
  263MOL0     H36240   4.487  11.503   4.082 -1.4186 -1.1246 -0.3442
  263MOL0     H36241   4.733  11.380   3.953  0.3579 -0.3770 -0.7191
  263MOL0     H36242   4.645  11.523   3.902 -0.4344  0.1615  0.6346
  263MOL0     H36243   4.943  11.422   4.090  0.1263 -0.8694  2.0902
  263MOL0     H36244   5.138  11.647   4.078  0.6734 -2.9568  0.2633
  263MOL0     H36245   5.115  11.545   4.228  3.6128 -0.0818 -0.9989
  263MOL0     H36246   5.115  11.854   4.209 -2.2965  1.5089  2.5996
  263MOL0     H36247   5.082  11.759   4.348  1.7255 -2.1003  0.3828
  263MOL0     H36248   5.284  11.823   4.395 -1.1352 -0.5953 -0.0393
  263MOL0     H36249   5.292  11.648   4.355  2.3483 -1.0996 -2.6462
  263MOL0     H36250   5.360  11.737   4.119  5.6181 -1.4038 -1.7235
  263MOL0     H36251   5.400  11.891   4.205  1.0463 -0.0173 -1.1787
  263MOL0     H36252   5.555  11.900   4.061  0.9310  1.2240 -1.5397
  263MOL0     H36253   5.816  12.134   3.995 -0.4765 -0.0933  1.2009
  263MOL0     H36254   5.665  12.072   3.956  0.7289  1.9221  1.1415
  263MOL0     H36255   5.807  12.014   3.863  1.1017 -2.6040  0.8542
  263MOL0     H36256   6.315  11.849   4.011 -2.4331 -0.4349  0.6055
  263MOL0     H36257   6.525  11.969   3.997 -0.7039 -1.8754 -1.2739
  263MOL0     H36258   6.508  12.381   4.179  0.9827  1.4349  0.7249
  263MOL0     H36259   6.656  12.324   4.262 -2.1380  0.8531  1.9147
  263MOL0     H36260   6.608  12.381   3.964  1.4720  1.5545 -0.8184
  263MOL0     H36261   6.666  12.498   4.086  0.5008 -1.1206  2.5387
  263MOL0     H36262   6.830  12.251   4.003 -0.2157  0.4168 -0.5060
  263MOL0     H36263   6.863  12.352   4.139 -0.4384 -0.8224  0.1348
  263MOL0     H36264   6.906  12.551   3.994  0.9051 -0.8054  1.1923
  263MOL0     H36265   6.855  12.469   3.852 -3.5550  1.5378  2.0933
  263MOL0     H36266   7.108  12.418   4.031  1.8989  0.3600 -1.0925
  263MOL0     H36267   7.052  12.296   3.923  1.0618  0.4655 -1.4464
  263MOL0     H36268   7.090  12.581   3.829 -0.9567 -0.3409  1.9934
  263MOL0     H36269   7.058  12.436   3.730  0.7762 -0.3162 -1.3124
  263MOL0     H36270   7.295  12.389   3.893 -0.4390 -2.0669 -1.0293
  263MOL0     H36271   7.321  12.551   3.822  2.1143 -1.5168 -3.5101
  263MOL0     H36272   7.269  12.489   3.598 -0.5151 -1.2561 -0.9031
  263MOL0     H36273   7.231  12.318   3.641 -2.7588  2.4136 -1.2595
  263MOL0     H36274   6.404  12.230   4.313  0.7176 -1.0644  1.9200
  263MOL0     H36275   6.192  12.087   4.350  0.3474  0.2804  1.7884
  263MOL0     H36276   5.970  11.692   4.239  0.6165  1.0137 -2.2011
  263MOL0     H36277   5.739  11.644   4.350  0.7174 -3.1796 -1.5716
  263MOL0     H36278   3.721  10.976   3.867 -0.3798 -0.8305 -0.5137
  263MOL0     H36279   3.502  10.908   3.840 -0.2455 -1.1685  0.5833
  263MOL0     H36280   3.143  10.814   3.830 -0.3230  2.4447  0.4384
  263MOL0     H36281   2.950  10.703   3.756 -1.2899  0.7362 -0.1862
  263MOL0     H36282   2.754  10.594   3.724  1.7608  2.2699  2.1930
  263MOL0     H36283   2.841  10.447   3.773 -0.4041 -0.2888 -1.3787
  263MOL0     H36284   2.540  10.505   3.779 -0.1574 -0.0848 -2.3244
  263MOL0     H36285   2.616  10.372   3.875  0.3494  2.0264  1.0762
  263MOL0     H36286   2.625  10.383   3.561  3.3658  0.0508 -0.6850
  263MOL0     H36287   2.713  10.284   3.672 -0.0098  1.7214 -0.0913
  263MOL0     H36288   2.493  10.230   3.784  1.2762  1.2451  0.3080
  263MOL0     H36289   2.530  10.140   3.640  1.9056 -0.0283  0.7910
  263MOL0     H36290   2.168  10.308   3.531  0.8944  1.8196 -2.2124
  263MOL0     H36291   2.808  10.656   4.164  1.9863 -2.0742  1.5482
  263MOL0     H36292   2.986  10.879   4.326  1.6935  0.5419 -0.4912
  263MOL0     H36293   2.971  10.710   4.346  2.6930 -0.5836  0.2344
  263MOL0     H36294   3.125  10.780   4.307  0.5616  1.1352 -1.0211
  264MOL0     O36295  10.732   5.893   5.549 -0.2580 -0.3595 -0.1464
  264MOL0     C36296  10.697   5.978   5.628  0.2517 -0.5538  0.7715
  264MOL0     O36297  10.772   6.079   5.664 -0.0191 -0.0576 -0.0456
  264MOL0     C36298  10.902   6.092   5.630 -0.1884 -0.1449 -0.4199
  264MOL0     C36299  10.931   6.174   5.521 -0.0746  0.6281 -0.5736
  264MOL0     C36300  11.066   6.192   5.480  0.5297 -0.4896  0.0823
  264MOL0     C36301  11.166   6.111   5.524 -0.9440  0.2170 -0.0086
  264MOL0     O36302  11.294   6.123   5.474 -0.2139 -0.2933 -0.3761
  264MOL0     C36303  11.329   6.226   5.380  0.3056  0.3925 -0.2801
  264MOL0     C36304  11.476   6.224   5.347 -1.1903 -0.0832  0.5159
  264MOL0     C36305  11.569   6.223   5.471  0.0061  0.3921  0.5105
  264MOL0     C36306  11.715   6.253   5.429 -0.0188  0.0346 -0.1824
  264MOL0     C36307  11.797   6.261   5.564 -0.5809 -0.6172 -0.1921
  264MOL0     C36308  11.927   6.344   5.563 -0.5090  0.2000  0.5024
  264MOL0     C36309  11.990   6.367   5.694  0.2162  0.5600  0.4231
  264MOL0     C36310  12.139   6.400   5.689 -0.2813  0.3787  0.2430
  264MOL0     N36311  12.213   6.277   5.693  0.9563  0.6055 -0.0852
  264MOL0     C36312  12.270   6.217   5.584 -0.0513 -0.4638  1.1215
  264MOL0     C36313  12.329   6.110   5.636 -0.1228  0.3728  0.2067
  264MOL0     C36314  12.388   6.005   5.550 -0.4615 -0.3426 -0.8351
  264MOL0     C36315  12.538   6.035   5.514 -0.6075 -0.0842  0.5211
  264MOL0     C36316  12.620   5.909   5.471  0.8008 -0.6259  0.3255
  264MOL0     C36317  12.658   5.822   5.597 -0.3881  0.0608 -0.4567
  264MOL0     O36318  12.729   5.888   5.707 -0.1663  0.0143  0.3151
  264MOL0     C36319  12.865   5.910   5.713 -0.8706 -0.0150 -0.0748
  264MOL0     C36320  12.967   5.823   5.681  0.1214 -0.4066  0.4645
  264MOL0     C36321  13.105   5.834   5.703 -0.0915 -0.4654  0.4955
  264MOL0     C36322  13.197   5.720   5.651 -0.3749  1.0947  0.5350
  264MOL0     C36323  13.152   5.958   5.765  0.2366  0.3203 -0.7001
  264MOL0     C36324  13.300   5.979   5.794 -0.2521  0.7868  0.6907
  264MOL0     O36325  13.395   5.889   5.737  0.5842  0.3490 -0.5702
  264MOL0     C36326  13.512   5.870   5.800 -0.3697 -0.3274  0.0924
  264MOL0     C36327  13.604   5.801   5.716  0.4854  0.9120 -0.7134
  264MOL0     C36328  13.730   5.766   5.778  0.1261 -0.0810  0.5980
  264MOL0     C36329  13.763   5.799   5.909  0.4358  0.8481 -0.2387
  264MOL0     O36330  13.880   5.751   5.954 -0.3231 -0.3785 -0.1369
  264MOL0     C36331  13.929   5.798   6.084 -0.0936 -0.2309  0.6351
  264MOL0     C36332  14.072   5.772   6.111  0.1858 -0.1608 -0.7960
  264MOL0     C36333  14.171   5.825   6.005  0.5094 -0.1605  0.2702
  264MOL0     C36334  14.306   5.760   6.041 -0.3433 -0.6833  0.6834
  264MOL0     C36335  14.416   5.860   6.019 -0.3274 -0.4278  0.5862
  264MOL0     C36336  14.555   5.793   6.017  0.3114  0.0031 -0.1208
  264MOL0     C36337  14.671   5.891   6.017 -0.7424  0.6395  0.4962
  264MOL0     C36338  14.804   5.815   6.005  0.1862 -0.6684 -0.2040
  264MOL0    Cl36339  14.925   5.929   6.058 -0.2037 -0.0963 -0.1403
  264MOL0     C36340  13.660   5.858   5.985 -0.4283  0.2294  1.0369
  264MOL0     C36341  13.541   5.900   5.935  0.5942  0.0722 -0.5768
  264MOL0     O36342  13.322   6.075   5.860 -0.0856 -0.5100 -0.2773
  264MOL0     C36343  13.050   6.055   5.803  0.2342  0.1031 -0.3260
  264MOL0     C36344  12.913   6.031   5.773  0.2327  0.0339 -0.4310
  264MOL0     N36345  12.307   6.109   5.769 -0.0246 -0.2371 -0.2206
  264MOL0     N36346  12.244   6.209   5.808 -0.6052  0.0252 -0.3868
  264MOL0     C36347  11.136   6.015   5.614  0.2313  0.6883 -0.5983
  264MOL0     C36348  11.007   6.007   5.680  0.0625  0.2090 -0.3868
  264MOL0     C36349  10.548   5.969   5.662 -0.1110  0.0020  0.7891
  264MOL0     C36350  10.478   6.082   5.711 -0.5205 -0.6946  0.0753
  264MOL0     C36351  10.350   6.070   5.758 -0.5723 -0.3599 -0.2974
  264MOL0     C36352  10.281   5.950   5.765  0.8486 -0.2417  0.3831
  264MOL0     O36353  10.152   5.967   5.816  0.6108 -0.0950  0.5007
  264MOL0     C36354  10.084   5.862   5.883 -0.0247  0.8416 -0.6821
  264MOL0     C36355  10.135   5.855   6.028 -0.1140 -1.1125 -0.5086
  264MOL0     C36356  10.158   5.992   6.101 -0.0790  0.9312  0.3247
  264MOL0     C36357  10.234   5.985   6.231 -0.6713  0.4934  0.5844
  264MOL0     C36358  10.255   6.110   6.297 -0.5846 -0.8513 -0.2086
  264MOL0     C36359  10.284   6.210   6.359 -0.6402  0.4789 -0.4621
  264MOL0     C36360  10.352   5.844   5.721 -0.6412  0.4765 -0.8669
  264MOL0     C36361  10.485   5.846   5.676 -0.2108 -0.3366  0.2469
  264MOL0     C36362  10.546   5.716   5.665  0.1031  0.3413 -0.3723
  264MOL0     H36363  10.843   6.226   5.485 -0.4421  0.3352 -0.1011
  264MOL0     H36364  11.084   6.275   5.413 -2.3299  0.0840 -0.1051
  264MOL0     H36365  11.306   6.322   5.425  0.9837 -0.9261  3.1495
  264MOL0     H36366  11.266   6.212   5.292  0.4373  1.9748 -0.6563
  264MOL0     H36367  11.504   6.139   5.283 -0.5081 -1.0144  2.0178
  264MOL0     H36368  11.503   6.317   5.295 -0.7525  0.6483  2.0135
  264MOL0     H36369  11.519   6.284   5.546 -5.2706 -2.1109 -0.4435
  264MOL0     H36370  11.563   6.126   5.522 -0.3783  0.5247  0.7184
  264MOL0     H36371  11.755   6.193   5.347 -1.0017  1.3279 -1.6594
  264MOL0     H36372  11.725   6.353   5.386 -1.0837 -0.3940 -1.4829
  264MOL0     H36373  11.806   6.160   5.607  0.1353  0.5884  2.7434
  264MOL0     H36374  11.734   6.313   5.637 -0.1653 -0.0246 -0.2547
  264MOL0     H36375  11.998   6.277   5.513 -0.0211 -2.1494  3.9964
  264MOL0     H36376  11.917   6.442   5.516  0.6232  1.1043  2.0492
  264MOL0     H36377  11.964   6.280   5.754  0.0820 -0.0050 -0.4365
  264MOL0     H36378  11.939   6.446   5.750 -2.3759 -0.8630  0.2253
  264MOL0     H36379  12.159   6.457   5.598  0.9819 -0.7775 -0.2366
  264MOL0     H36380  12.168   6.462   5.775 -0.0910 -0.6674  0.9596
  264MOL0     H36381  12.267   6.233   5.477  0.0497 -1.1698  1.0116
  264MOL0     H36382  12.331   5.994   5.458 -0.9986 -1.5441 -0.3774
  264MOL0     H36383  12.373   5.912   5.605 -0.3488 -0.0519 -0.3056
  264MOL0     H36384  12.539   6.097   5.424 -0.0618 -3.4901 -2.0130
  264MOL0     H36385  12.594   6.094   5.587  0.8813 -0.7755 -0.0065
  264MOL0     H36386  12.569   5.846   5.398  1.4657  0.2831 -0.9469
  264MOL0     H36387  12.720   5.937   5.435  1.5464 -2.9316  0.4377
  264MOL0     H36388  12.570   5.768   5.633  0.8300 -2.3977 -0.9801
  264MOL0     H36389  12.722   5.742   5.560 -1.3939 -2.3530  2.6289
  264MOL0     H36390  12.936   5.729   5.637 -0.9382  0.6302 -1.1452
  264MOL0     H36391  13.143   5.646   5.592  1.2603 -1.1634  1.7210
  264MOL0     H36392  13.255   5.678   5.735 -1.6972  0.4008  1.1310
  264MOL0     H36393  13.263   5.765   5.576 -2.0922 -1.0329 -2.4140
  264MOL0     H36394  13.589   5.768   5.613  1.6925 -2.3011  0.0191
  264MOL0     H36395  13.814   5.726   5.721  0.5193  2.7061 -0.9871
  264MOL0     H36396  13.900   5.904   6.084 -0.9942 -0.3428  4.5475
  264MOL0     H36397  13.874   5.764   6.172 -0.2276  0.5327  0.8550
  264MOL0     H36398  14.086   5.829   6.203 -2.8253 -0.2486 -0.1912
  264MOL0     H36399  14.091   5.664   6.115  1.3811  0.0770  0.5860
  264MOL0     H36400  14.178   5.933   6.016  0.7019  0.0532 -1.5223
  264MOL0     H36401  14.154   5.803   5.899  1.0455  2.5785 -0.4588
  264MOL0     H36402  14.324   5.673   5.977 -5.1010 -0.7833 -0.9478
  264MOL0     H36403  14.299   5.720   6.143 -1.1394 -1.5612  0.3025
  264MOL0     H36404  14.407   5.928   5.934  0.0694  0.4089  1.1957
  264MOL0     H36405  14.414   5.932   6.101 -2.9102  2.6018 -1.9193
  264MOL0     H36406  14.561   5.721   5.934 -3.1971 -0.6999  0.0493
  264MOL0     H36407  14.576   5.732   6.105  0.2912 -0.1389 -0.2144
  264MOL0     H36408  14.675   5.949   6.110 -0.8030 -1.1037  1.6326
  264MOL0     H36409  14.655   5.961   5.934  0.7041  0.2125 -0.1568
  264MOL0     H36410  14.825   5.768   5.909  0.9425  0.7367 -0.7471
  264MOL0     H36411  14.807   5.738   6.083  2.3446  1.4945  2.0220
  264MOL0     H36412  13.679   5.874   6.091 -0.5388 -0.9851  1.2526
  264MOL0     H36413  13.466   5.938   6.003  0.3441 -0.2477 -0.6714
  264MOL0     H36414  13.069   6.150   5.852 -1.7805  0.2949  0.1698
  264MOL0     H36415  12.845   6.114   5.791 -1.8976 -2.3119  3.5560
  264MOL0     H36416  11.213   5.944   5.642 -0.0517  0.8062  0.4893
  264MOL0     H36417  10.984   5.934   5.757  3.3194 -1.3203 -0.6688
  264MOL0     H36418  10.518   6.183   5.721  0.5939 -0.8919 -1.8501
  264MOL0     H36419  10.285   6.148   5.798  0.1193 -0.1647  0.4486
  264MOL0     H36420   9.980   5.895   5.874 -0.0416  0.5343 -1.7452
  264MOL0     H36421  10.099   5.764   5.838 -1.9157  0.2736 -0.1481
  264MOL0     H36422  10.217   5.783   6.036  1.8617  1.0239 -0.1889
  264MOL0     H36423  10.054   5.811   6.086  0.9770 -1.1079  1.1095
  264MOL0     H36424  10.213   6.062   6.037 -1.4542  1.1749 -0.6249
  264MOL0     H36425  10.061   6.038   6.120 -1.7346 -1.6680 -1.2813
  264MOL0     H36426  10.329   5.938   6.205 -1.0540 -0.4624  0.8764
  264MOL0     H36427  10.183   5.905   6.285 -0.3750 -2.6774 -3.3012
  264MOL0     H36428  10.313   6.299   6.411 -0.5155  0.4557 -0.4926
  264MOL0     H36429  10.301   5.749   5.724 -0.5287  0.3940  2.2348
  264MOL0     H36430  10.646   5.711   5.710 -0.5204 -0.7402  0.9632
  264MOL0     H36431  10.484   5.641   5.715 -1.0613  0.8998 -0.9385
  264MOL0     H36432  10.549   5.686   5.559 -3.2721  2.3050 -1.1773
  265MOL0     O36433   5.734   6.420   1.269  0.3127  0.4096  0.4748
  265MOL0     C36434   5.654   6.395   1.174  0.1857 -0.1079  0.1117
  265MOL0     O36435   5.681   6.352   1.053 -1.1030  0.6096 -0.6387
  265MOL0     C36436   5.814   6.357   1.019 -0.5330 -1.0696 -0.1383
  265MOL0     C36437   5.866   6.471   0.948 -0.2345 -1.2128 -0.3879
  265MOL0     C36438   6.001   6.474   0.929  0.1981  0.0057 -0.3785
  265MOL0     C36439   6.084   6.370   0.943 -0.0451  0.1056  0.1569
  265MOL0     O36440   6.208   6.376   0.877  0.1846 -0.1423  0.3524
  265MOL0     C36441   6.291   6.262   0.867  0.2619  0.1907 -0.8088
  265MOL0     C36442   6.418   6.313   0.801  0.1985 -0.3972 -0.0662
  265MOL0     C36443   6.526   6.217   0.799 -0.1893  0.5737 -0.3006
  265MOL0     C36444   6.634   6.246   0.695 -0.9136 -0.5740  0.4045
  265MOL0     C36445   6.744   6.141   0.699  0.0098 -0.4223  0.0237
  265MOL0     C36446   6.708   6.015   0.611 -0.4311 -0.1548 -0.4113
  265MOL0     C36447   6.824   5.915   0.618 -0.4335 -0.2893  0.6892
  265MOL0     C36448   6.804   5.810   0.735  0.7215 -0.3029 -0.6130
  265MOL0     N36449   6.908   5.710   0.729 -0.1104  0.4407 -0.5587
  265MOL0     C36450   6.894   5.576   0.760  0.0260  0.4159  0.0037
  265MOL0     C36451   7.020   5.527   0.767 -0.5855  0.0832  0.0211
  265MOL0     C36452   7.055   5.379   0.784 -0.7337 -1.0737  0.2175
  265MOL0     C36453   7.199   5.358   0.826 -0.0240  0.6251 -0.0702
  265MOL0     C36454   7.229   5.209   0.859  0.3524  0.0768  0.3898
  265MOL0     C36455   7.377   5.169   0.859 -0.8509 -0.2563 -0.2640
  265MOL0     O36456   7.445   5.193   0.738  0.1420  0.1983  0.2036
  265MOL0     C36457   7.578   5.191   0.729 -0.2616 -0.6029 -0.5457
  265MOL0     C36458   7.639   5.280   0.640  0.1986  0.2086  0.1790
  265MOL0     C36459   7.778   5.274   0.622 -0.1784 -0.0134 -0.3138
  265MOL0     C36460   7.837   5.363   0.513 -0.2185  0.8971  0.1429
  265MOL0     C36461   7.859   5.195   0.710 -0.1459 -0.3799  0.6959
  265MOL0     C36462   8.009   5.196   0.726 -0.6681  0.4551  0.6603
  265MOL0     O36463   8.068   5.099   0.807  0.1013  0.2761  0.1100
  265MOL0     C36464   8.191   5.116   0.850 -0.1828 -0.4551  0.1482
  265MOL0     C36465   8.293   5.023   0.827 -0.2780  0.1433  0.1647
  265MOL0     C36466   8.419   5.034   0.877 -0.6496 -0.2859 -0.4998
  265MOL0     C36467   8.444   5.137   0.968  0.7127  0.2070 -0.7246
  265MOL0     O36468   8.566   5.170   1.018  1.2153  0.1405 -0.6211
  265MOL0     C36469   8.599   5.108   1.152 -0.2259 -0.2730  0.3100
  265MOL0     C36470   8.583   5.217   1.260  0.1614 -0.3276 -0.2303
  265MOL0     C36471   8.559   5.151   1.402 -0.1148 -0.5941 -0.1931
  265MOL0     C36472   8.685   5.090   1.464 -0.0003  0.1934  0.1908
  265MOL0     C36473   8.664   4.985   1.575 -0.2969 -0.8301  0.7280
  265MOL0     C36474   8.602   5.037   1.703 -0.6049  0.1020  0.3442
  265MOL0     C36475   8.690   5.141   1.761 -0.8743  0.3703 -0.4524
  265MOL0     C36476   8.665   5.177   1.913  0.4519  0.3056 -0.0528
  265MOL0    Cl36477   8.491   5.209   1.949 -0.4435 -0.2070  0.1213
  265MOL0     C36478   8.345   5.226   1.003 -0.7206 -0.9827  0.2981
  265MOL0     C36479   8.222   5.219   0.937  0.1716  0.0469  0.5537
  265MOL0     O36480   8.072   5.290   0.680 -0.3129 -0.0378 -0.6803
  265MOL0     C36481   7.792   5.117   0.799  0.2655  0.4575  0.1225
  265MOL0     C36482   7.656   5.108   0.812  0.1961 -0.1706 -0.6856
  265MOL0     N36483   7.113   5.632   0.761 -0.4429 -0.0508  0.3423
  265MOL0     N36484   7.043   5.745   0.740 -0.5619  0.0478  0.0855
  265MOL0     C36485   6.036   6.263   1.014  0.7117 -0.4209 -0.1256
  265MOL0     C36486   5.902   6.251   1.047 -0.0836  0.0684  0.2594
  265MOL0     C36487   5.506   6.420   1.194 -0.4830  0.6856 -0.1244
  265MOL0     C36488   5.417   6.318   1.141 -0.0384 -0.8614  0.4185
  265MOL0     C36489   5.278   6.340   1.138 -0.0832  0.2975 -0.1665
  265MOL0     C36490   5.225   6.461   1.187  0.2530  0.7517  0.1033
  265MOL0     O36491   5.093   6.500   1.172  0.3712  0.0412 -0.2853
  265MOL0     C36492   5.004   6.390   1.171  0.5541  0.4294  1.0870
  265MOL0     C36493   4.861   6.441   1.190  0.2099 -0.5279 -0.1813
  265MOL0     C36494   4.757   6.331   1.154  0.1814  0.4386  0.3769
  265MOL0     C36495   4.613   6.371   1.206  0.6660 -0.8227 -0.0879
  265MOL0     C36496   4.509   6.274   1.208 -0.5445 -0.3490  0.3049
  265MOL0     C36497   4.413   6.198   1.202 -1.0644 -0.3839 -0.1969
  265MOL0     C36498   5.309   6.555   1.232  0.2421  0.3032 -0.2967
  265MOL0     C36499   5.447   6.532   1.246 -0.5450 -0.4750 -0.2768
  265MOL0     C36500   5.526   6.637   1.308 -0.8274  0.4739 -0.1521
  265MOL0     H36501   5.804   6.552   0.910  2.4623  1.1008 -0.1472
  265MOL0     H36502   6.034   6.570   0.891  1.0335 -0.9352 -2.1861
  265MOL0     H36503   6.246   6.175   0.818  1.3213 -1.1189  0.4149
  265MOL0     H36504   6.310   6.236   0.972 -0.1888 -1.5052 -1.1206
  265MOL0     H36505   6.396   6.325   0.695  2.2087  1.1782 -0.3769
  265MOL0     H36506   6.440   6.411   0.846 -0.5875 -0.1329 -0.2363
  265MOL0     H36507   6.587   6.221   0.890  0.0402 -0.0874 -0.4187
  265MOL0     H36508   6.492   6.115   0.778  2.2037 -0.4227  0.3447
  265MOL0     H36509   6.592   6.257   0.595  0.6244  0.8942 -0.1237
  265MOL0     H36510   6.673   6.347   0.712 -2.5507  0.5702 -2.0529
  265MOL0     H36511   6.767   6.109   0.801  0.4890  2.0724  0.7688
  265MOL0     H36512   6.830   6.186   0.648  0.7260 -0.5629  1.0801
  265MOL0     H36513   6.611   5.971   0.639 -0.3892  0.5399  0.9144
  265MOL0     H36514   6.696   6.055   0.510 -0.3562  1.4409  0.1860
  265MOL0     H36515   6.923   5.960   0.623  0.6640 -2.5295  0.0738
  265MOL0     H36516   6.813   5.856   0.527  1.7178 -2.6816  1.8694
  265MOL0     H36517   6.803   5.863   0.831 -1.4183  0.8459 -1.2015
  265MOL0     H36518   6.709   5.759   0.719  1.7453 -2.2841 -0.6326
  265MOL0     H36519   6.809   5.508   0.760 -1.2124  1.9191  0.3928
  265MOL0     H36520   7.047   5.346   0.680  1.4152 -0.3159 -0.2316
  265MOL0     H36521   6.992   5.322   0.853 -1.5524 -0.7140 -0.2083
  265MOL0     H36522   7.252   5.395   0.738  0.6154 -1.4014 -0.5887
  265MOL0     H36523   7.217   5.414   0.918  0.4632 -0.7083  0.6803
  265MOL0     H36524   7.188   5.179   0.956 -0.2028  0.8389  0.4041
  265MOL0     H36525   7.183   5.136   0.792  1.0466 -0.9414  1.0060
  265MOL0     H36526   7.423   5.239   0.929  0.4568  1.3805 -2.6273
  265MOL0     H36527   7.394   5.066   0.891 -1.4747 -0.6445 -1.1250
  265MOL0     H36528   7.571   5.341   0.581  0.9630  2.4805  1.5044
  265MOL0     H36529   7.926   5.316   0.469  0.8932  2.7465  0.3085
  265MOL0     H36530   7.868   5.459   0.555 -0.7781  1.4159 -0.5997
  265MOL0     H36531   7.765   5.385   0.433 -2.2150  2.7686  2.3073
  265MOL0     H36532   8.274   4.935   0.766  2.1548  0.6206 -1.4456
  265MOL0     H36533   8.496   4.963   0.852 -0.6092 -0.0451 -1.0747
  265MOL0     H36534   8.534   5.022   1.171 -0.5265  0.6278  4.4384
  265MOL0     H36535   8.702   5.072   1.149 -0.0847  0.1630 -0.1625
  265MOL0     H36536   8.667   5.287   1.257  0.5305 -0.7949 -1.2723
  265MOL0     H36537   8.494   5.279   1.244 -1.6817 -2.7909 -0.1955
  265MOL0     H36538   8.484   5.072   1.394 -1.8347  1.1380 -2.1936
  265MOL0     H36539   8.529   5.226   1.476  2.2843  1.2162 -0.9107
  265MOL0     H36540   8.753   5.168   1.499  0.1131  0.1299  0.1141
  265MOL0     H36541   8.730   5.030   1.383 -0.2707  0.5318 -0.2147
  265MOL0     H36542   8.598   4.910   1.531 -1.1017 -0.1723  0.7904
  265MOL0     H36543   8.756   4.930   1.596  0.8834  0.6508 -0.3290
  265MOL0     H36544   8.587   4.950   1.768 -0.7363  0.1499  0.3788
  265MOL0     H36545   8.505   5.084   1.684  0.8948  2.2934 -2.6921
  265MOL0     H36546   8.674   5.237   1.712  0.3156  0.6751 -0.2747
  265MOL0     H36547   8.796   5.123   1.737 -1.3611  0.7295 -3.0963
  265MOL0     H36548   8.717   5.268   1.944 -0.0686  1.3596 -2.1126
  265MOL0     H36549   8.700   5.093   1.975  0.1097 -1.1154 -1.7095
  265MOL0     H36550   8.372   5.299   1.079  0.1504 -1.1430  0.1497
  265MOL0     H36551   8.150   5.295   0.967  1.6250  1.3693  0.8368
  265MOL0     H36552   7.853   5.056   0.864  2.0995  3.6374  1.6383
  265MOL0     H36553   7.611   5.042   0.885  0.9438 -0.7545 -0.7455
  265MOL0     H36554   6.100   6.186   1.057  2.8207  1.1340 -0.3127
  265MOL0     H36555   5.860   6.160   1.090 -1.0618  1.4090  2.3314
  265MOL0     H36556   5.456   6.235   1.084  0.0820  0.7108 -1.9233
  265MOL0     H36557   5.214   6.264   1.093 -0.8847  1.1599 -0.5216
  265MOL0     H36558   5.004   6.344   1.071  1.4462  1.8788  0.3899
  265MOL0     H36559   5.027   6.317   1.250  0.0170 -0.4542  0.4524
  265MOL0     H36560   4.847   6.538   1.140  0.0207 -0.8658 -0.7988
  265MOL0     H36561   4.851   6.464   1.296  2.7942 -1.8762  0.4288
  265MOL0     H36562   4.752   6.325   1.045 -0.5018  2.5856  0.2406
  265MOL0     H36563   4.789   6.236   1.196  1.7598  0.6171 -0.3443
  265MOL0     H36564   4.583   6.452   1.139  0.1358 -0.7708  0.2090
  265MOL0     H36565   4.619   6.410   1.308 -0.3668  1.6470 -0.8840
  265MOL0     H36566   4.330   6.131   1.191 -0.6462 -1.3033  1.7429
  265MOL0     H36567   5.267   6.648   1.270  1.2460  1.7946 -2.5797
  265MOL0     H36568   5.576   6.604   1.400  1.3274  1.6348 -0.8433
  265MOL0     H36569   5.598   6.679   1.237 -1.4282 -0.2520 -1.2157
  265MOL0     H36570   5.454   6.710   1.348 -0.4998  0.0863  1.2103
  266MOL0     O36571   1.608   5.419   5.835 -1.3758 -0.0381  0.1092
  266MOL0     C36572   1.597   5.510   5.921  0.4448 -0.0378 -0.3337
  266MOL0     O36573   1.698   5.551   5.996  0.5072  0.0791 -0.5006
  266MOL0     C36574   1.824   5.495   5.996 -0.4470 -0.4017  0.5911
  266MOL0     C36575   1.853   5.361   5.987 -0.3175  0.4158 -0.0332
  266MOL0     C36576   1.987   5.310   5.986  0.4614 -0.0118  0.7127
  266MOL0     C36577   2.095   5.403   5.986 -0.1721 -0.3618  0.9401
  266MOL0     O36578   2.225   5.362   5.976  0.4342  0.2761 -0.4553
  266MOL0     C36579   2.330   5.447   5.930 -0.5935  0.1687  0.0719
  266MOL0     C36580   2.455   5.366   5.892 -0.0766 -0.1226  0.5536
  266MOL0     C36581   2.572   5.445   5.833 -0.8560 -0.2237 -0.7333
  266MOL0     C36582   2.700   5.357   5.814 -0.3396 -0.6295  0.4201
  266MOL0     C36583   2.810   5.443   5.762 -0.5110 -0.1038 -0.2808
  266MOL0     C36584   2.937   5.357   5.750 -1.0896  0.0528  0.5219
  266MOL0     C36585   3.051   5.447   5.693  0.2217  0.5918 -0.7427
  266MOL0     C36586   3.188   5.362   5.686  0.3795  0.0564  0.7758
  266MOL0     N36587   3.198   5.276   5.565  0.1875  0.5857  0.0476
  266MOL0     C36588   3.120   5.170   5.544  0.4996  0.3803 -0.8101
  266MOL0     C36589   3.148   5.132   5.416  0.1325  0.5211 -0.8063
  266MOL0     C36590   3.075   5.021   5.341 -0.4915  0.3351 -0.1230
  266MOL0     C36591   3.035   5.059   5.194  0.4987  0.5295  0.0489
  266MOL0     C36592   2.930   5.176   5.171  0.1716 -0.4861  0.2373
  266MOL0     C36593   2.781   5.134   5.163  0.3185  0.0282 -0.3975
  266MOL0     O36594   2.749   5.115   5.299  0.3542  0.6365 -0.9332
  266MOL0     C36595   2.630   5.057   5.334  0.7284 -0.5742 -1.2423
  266MOL0     C36596   2.595   5.047   5.469  0.3420 -0.4665 -0.3122
  266MOL0     C36597   2.473   4.996   5.512 -0.4802 -0.6202 -0.1545
  266MOL0     C36598   2.434   5.019   5.659  0.0708 -0.0820 -0.4038
  266MOL0     C36599   2.374   4.949   5.425  0.3698  0.6816 -0.5526
  266MOL0     C36600   2.236   4.896   5.461  0.1357  0.0056 -0.0863
  266MOL0     O36601   2.146   4.877   5.360 -0.8209  0.6272  0.0487
  266MOL0     C36602   2.018   4.833   5.396 -0.6077  0.2909  0.0860
  266MOL0     C36603   1.917   4.931   5.389 -0.1889 -0.8329  0.2545
  266MOL0     C36604   1.782   4.898   5.429 -0.1248 -0.9275  0.8195
  266MOL0     C36605   1.748   4.768   5.469  0.2042  0.4388  0.7463
  266MOL0     O36606   1.614   4.730   5.501 -0.4019 -0.4829  0.4257
  266MOL0     C36607   1.514   4.821   5.490  0.8548  0.0269 -0.3484
  266MOL0     C36608   1.475   4.896   5.631  0.2411  0.3877  0.6342
  266MOL0     C36609   1.458   4.783   5.735 -0.5110  0.1726 -0.4962
  266MOL0     C36610   1.398   4.837   5.880 -1.0583 -0.0823 -0.3788
  266MOL0     C36611   1.431   4.742   6.001 -0.0528  0.9041  0.7347
  266MOL0     C36612   1.570   4.749   6.072 -0.9582 -0.9301  0.0197
  266MOL0     C36613   1.584   4.663   6.200 -0.4791 -0.3764 -0.4311
  266MOL0     C36614   1.724   4.663   6.258 -0.5219  0.2245  0.3847
  266MOL0    Cl36615   1.846   4.602   6.134  0.1170  0.2177 -0.3727
  266MOL0     C36616   1.852   4.670   5.460  0.5793  0.1149 -0.2500
  266MOL0     C36617   1.986   4.703   5.427  1.0459  0.2657  0.1499
  266MOL0     O36618   2.211   4.859   5.579 -0.4290  0.3972  0.1392
  266MOL0     C36619   2.409   4.953   5.288 -0.8610  0.6601 -0.3527
  266MOL0     C36620   2.534   4.998   5.253 -0.7083 -0.7269  0.1206
  266MOL0     N36621   3.248   5.208   5.365  0.0419 -0.0720 -0.4269
  266MOL0     N36622   3.286   5.285   5.460 -0.3683 -0.6896 -0.3831
  266MOL0     C36623   2.065   5.542   6.000  0.5041 -0.7912  0.2693
  266MOL0     C36624   1.932   5.587   6.006  0.3359  0.2523  0.4778
  266MOL0     C36625   1.470   5.579   5.946  0.7032  0.1515  0.4678
  266MOL0     C36626   1.443   5.646   6.069 -0.4648  0.0445  0.8678
  266MOL0     C36627   1.326   5.712   6.096  0.6888  0.5039 -0.1006
  266MOL0     C36628   1.223   5.725   6.002 -1.7120  0.4789 -0.5728
  266MOL0     O36629   1.120   5.810   6.038  0.3710 -0.2662  0.2510
  266MOL0     C36630   1.115   5.940   5.972  0.0626 -0.2313 -0.5017
  266MOL0     C36631   1.220   6.039   6.036  0.4044  0.7233 -0.0397
  266MOL0     C36632   1.179   6.184   5.999  0.3048  0.0887 -0.3325
  266MOL0     C36633   1.257   6.293   6.072  0.3551 -0.1032  0.0653
  266MOL0     C36634   1.380   6.334   6.002 -0.4549  0.9970 -0.7717
  266MOL0     C36635   1.474   6.373   5.942  0.6535  0.1871 -0.2199
  266MOL0     C36636   1.234   5.648   5.888  0.4115 -0.4283  0.0217
  266MOL0     C36637   1.356   5.579   5.857 -0.4554 -0.3750  0.6352
  266MOL0     C36638   1.361   5.504   5.723 -0.8180  0.1877  0.1965
  266MOL0     H36639   1.770   5.291   5.987 -0.9760  1.1769  0.4169
  266MOL0     H36640   2.008   5.204   5.972  3.0545  0.3057  1.6449
  266MOL0     H36641   2.358   5.529   5.998  0.6221 -0.4761  0.3874
  266MOL0     H36642   2.306   5.500   5.837  0.2899  1.0970  0.3464
  266MOL0     H36643   2.491   5.306   5.976  1.4565 -0.8407 -0.5553
  266MOL0     H36644   2.429   5.297   5.811 -0.9579  0.5892  0.2201
  266MOL0     H36645   2.530   5.492   5.744 -2.9552 -0.8379 -0.1334
  266MOL0     H36646   2.602   5.520   5.907 -0.3045 -0.5104 -0.6575
  266MOL0     H36647   2.741   5.312   5.905  0.9739 -1.7713 -0.6944
  266MOL0     H36648   2.676   5.282   5.738 -3.3433  1.1842 -0.5862
  266MOL0     H36649   2.832   5.524   5.833  2.9307 -1.4241  0.3638
  266MOL0     H36650   2.780   5.483   5.665 -1.0393  0.6133  0.1655
  266MOL0     H36651   2.969   5.314   5.846  0.2914 -1.4973 -0.5681
  266MOL0     H36652   2.918   5.270   5.687  1.2042  0.9547 -1.5726
  266MOL0     H36653   3.066   5.523   5.771 -2.2562  0.0978  0.2969
  266MOL0     H36654   3.033   5.489   5.594 -1.4662  0.7812 -0.3921
  266MOL0     H36655   3.275   5.428   5.681 -0.0590  0.5954  0.0307
  266MOL0     H36656   3.202   5.304   5.777  0.9573 -1.9769 -0.5475
  266MOL0     H36657   3.047   5.115   5.603 -0.9471 -0.5114 -3.2637
  266MOL0     H36658   2.993   4.990   5.407 -1.0549 -0.7692 -1.2975
  266MOL0     H36659   3.147   4.941   5.323 -2.1789 -1.3082  0.1403
  266MOL0     H36660   3.127   5.077   5.137  1.0087  0.9841  0.9926
  266MOL0     H36661   2.991   4.967   5.154 -2.2539  2.0786 -0.7635
  266MOL0     H36662   2.950   5.250   5.249  2.7273 -1.8590  0.9979
  266MOL0     H36663   2.959   5.228   5.079  0.3013  3.0107  2.0848
  266MOL0     H36664   2.736   5.223   5.118  0.9077  1.0691  1.0013
  266MOL0     H36665   2.771   5.040   5.107  1.8755 -0.4304  0.0423
  266MOL0     H36666   2.653   5.103   5.541  0.2225  0.3961 -0.8727
  266MOL0     H36667   2.496   5.105   5.686  0.0482  0.0268 -0.7008
  266MOL0     H36668   2.469   4.932   5.716  2.0276  2.0079  1.8517
  266MOL0     H36669   2.329   5.049   5.671 -0.5494 -1.8237 -1.0876
  266MOL0     H36670   1.938   5.037   5.382  0.3507 -0.9055  0.6552
  266MOL0     H36671   1.714   4.981   5.441  0.2738 -0.8114  2.5609
  266MOL0     H36672   1.522   4.891   5.406  0.0212 -3.5053 -3.6177
  266MOL0     H36673   1.424   4.768   5.457 -1.2356  3.9220 -1.6481
  266MOL0     H36674   1.555   4.963   5.661  0.8944 -0.6921  1.3920
  266MOL0     H36675   1.378   4.946   5.622  0.0395  0.7728  3.7097
  266MOL0     H36676   1.561   4.754   5.761 -0.4208  3.5010  4.1421
  266MOL0     H36677   1.404   4.698   5.693  2.5889 -2.4788  0.4429
  266MOL0     H36678   1.292   4.862   5.866 -1.3081  0.4419  1.9531
  266MOL0     H36679   1.452   4.929   5.904  0.2075 -1.4013  2.2956
  266MOL0     H36680   1.354   4.771   6.073 -0.0487  2.8754 -0.0059
  266MOL0     H36681   1.407   4.640   5.967 -0.4863  0.5043  2.1826
  266MOL0     H36682   1.584   4.850   6.111 -1.1512 -1.1316  0.6224
  266MOL0     H36683   1.651   4.716   6.006 -1.2486  1.2943 -1.5685
  266MOL0     H36684   1.549   4.561   6.185 -3.3365  0.5054 -0.3778
  266MOL0     H36685   1.521   4.699   6.283 -0.9864 -1.6259 -0.2616
  266MOL0     H36686   1.721   4.590   6.340  0.9021 -0.5098 -0.1883
  266MOL0     H36687   1.743   4.765   6.294  1.4990  0.1940 -0.4464
  266MOL0     H36688   1.822   4.567   5.476 -2.3149  1.0120  0.8523
  266MOL0     H36689   2.060   4.623   5.425 -0.9156 -1.6162 -1.2348
  266MOL0     H36690   2.342   4.910   5.213 -3.0762  1.3648  1.1384
  266MOL0     H36691   2.550   5.000   5.146 -3.1830  0.0178 -0.2899
  266MOL0     H36692   2.140   5.619   6.010 -2.0792  2.1806 -1.2924
  266MOL0     H36693   1.903   5.690   6.022 -1.0132  0.0336 -0.4245
  266MOL0     H36694   1.524   5.642   6.141  1.4958 -1.8850 -1.2443
  266MOL0     H36695   1.328   5.754   6.196  0.2695  0.8507 -0.2338
  266MOL0     H36696   1.127   5.935   5.863  0.7620  3.3373 -0.7162
  266MOL0     H36697   1.011   5.968   5.985  0.6668  1.8292  0.2642
  266MOL0     H36698   1.318   6.015   5.992 -0.1837 -1.1104 -0.4524
  266MOL0     H36699   1.233   6.024   6.143  2.0790 -0.5756 -0.3752
  266MOL0     H36700   1.187   6.196   5.890  0.7921 -4.0026 -0.9056
  266MOL0     H36701   1.074   6.200   6.028  1.0811 -1.4920  4.0800
  266MOL0     H36702   1.270   6.255   6.174  3.4790 -0.6556 -0.4289
  266MOL0     H36703   1.197   6.384   6.078 -1.3247 -1.0536 -1.3450
  266MOL0     H36704   1.555   6.406   5.880 -0.8592  0.6884 -2.0255
  266MOL0     H36705   1.142   5.648   5.830  1.0933  0.5771 -1.0990
  266MOL0     H36706   1.341   5.400   5.749  1.6241 -0.2990  0.3864
  266MOL0     H36707   1.278   5.533   5.657  0.1471  2.1433 -0.2575
  266MOL0     H36708   1.461   5.519   5.680 -1.1462 -1.0858 -1.0997
  267MOL0     O36709   1.864   7.867   9.413  0.2531 -0.8222  0.5216
  267MOL0     C36710   1.880   7.898   9.532  0.5884  0.7510  0.0610
  267MOL0     O36711   1.989   7.963   9.587  0.4993 -0.0521 -0.7326
  267MOL0     C36712   2.096   8.009   9.519  0.1071 -0.8371 -0.1844
  267MOL0     C36713   2.098   8.048   9.383  1.0836 -0.5240  0.2694
  267MOL0     C36714   2.218   8.110   9.326 -0.2291  0.5829 -0.5975
  267MOL0     C36715   2.330   8.108   9.406  0.2274  0.1391 -0.8193
  267MOL0     O36716   2.457   8.149   9.384 -0.4179 -0.4053 -0.3233
  267MOL0     C36717   2.521   8.111   9.260  0.1878  0.1762 -0.2407
  267MOL0     C36718   2.580   7.972   9.291  0.1814  0.5152  0.2760
  267MOL0     C36719   2.677   7.925   9.183  0.3278  0.3871  0.6584
  267MOL0     C36720   2.823   7.925   9.219  0.5852 -0.5089  0.0115
  267MOL0     C36721   2.878   8.070   9.218 -0.1209 -0.2256  0.1780
  267MOL0     C36722   3.024   8.060   9.264 -0.6505  0.1938  0.7876
  267MOL0     C36723   3.096   8.195   9.247 -0.4830  0.5008 -0.3367
  267MOL0     C36724   3.247   8.174   9.264 -0.6115  0.1571  0.1059
  267MOL0     N36725   3.313   8.108   9.146  0.1239 -0.1885 -0.3631
  267MOL0     C36726   3.372   8.164   9.032  0.3337 -0.4576  0.4968
  267MOL0     C36727   3.425   8.054   8.979 -0.2123  0.2591 -0.6202
  267MOL0     C36728   3.518   8.062   8.854 -0.9746 -0.1471 -0.7806
  267MOL0     C36729   3.664   8.064   8.888  0.6516 -0.0912 -0.0427
  267MOL0     C36730   3.742   8.024   8.759  0.4707 -0.2893  0.1028
  267MOL0     C36731   3.891   8.007   8.796 -0.0118 -0.1862 -0.4908
  267MOL0     O36732   3.955   8.126   8.745  0.3420  0.5372  0.7004
  267MOL0     C36733   4.095   8.116   8.750 -0.3932 -0.7647 -0.1602
  267MOL0     C36734   4.174   8.002   8.782  0.6956 -0.2066 -0.4408
  267MOL0     C36735   4.312   7.997   8.774  0.2903  0.1597  0.0092
  267MOL0     C36736   4.401   7.889   8.812  0.6186  0.2407 -0.2963
  267MOL0     C36737   4.374   8.122   8.738  1.3306  0.9261  0.3466
  267MOL0     C36738   4.521   8.138   8.716  0.9660 -0.2948  0.5248
  267MOL0     O36739   4.578   8.231   8.803  0.1530 -0.6857  0.0175
  267MOL0     C36740   4.712   8.266   8.791  0.7060  0.6248 -0.8405
  267MOL0     C36741   4.787   8.252   8.673  0.0166 -0.0739 -0.1641
  267MOL0     C36742   4.923   8.292   8.678 -0.4403 -0.0503  0.6117
  267MOL0     C36743   4.987   8.350   8.788  0.5140 -0.3106  0.9607
  267MOL0     O36744   5.113   8.405   8.797 -0.5025 -0.5828  0.3141
  267MOL0     C36745   5.202   8.408   8.684  0.6818 -0.5154 -0.0345
  267MOL0     C36746   5.331   8.483   8.719  0.2157 -0.0991  0.5239
  267MOL0     C36747   5.333   8.628   8.764  0.1575 -0.8120 -0.0824
  267MOL0     C36748   5.448   8.677   8.853  0.2204  1.3231  0.4039
  267MOL0     C36749   5.575   8.664   8.769 -0.4451 -0.7176 -0.7255
  267MOL0     C36750   5.710   8.693   8.850 -1.3399  0.4804  0.7781
  267MOL0     C36751   5.836   8.697   8.752 -0.4783 -0.1350 -0.0779
  267MOL0     C36752   5.959   8.739   8.827 -0.2708  0.0639  0.9533
  267MOL0    Cl36753   6.033   8.601   8.907  0.4843  0.2334 -0.0924
  267MOL0     C36754   4.904   8.380   8.901  1.6876  0.6021 -0.3956
  267MOL0     C36755   4.775   8.335   8.898  0.8372 -0.5332 -0.4155
  267MOL0     O36756   4.567   8.063   8.631  1.2462 -0.1787  0.0239
  267MOL0     C36757   4.297   8.233   8.700  0.2082 -0.1176  0.5372
  267MOL0     C36758   4.159   8.231   8.706  0.0409  1.1842 -0.0513
  267MOL0     N36759   3.391   7.940   9.053 -0.3145 -0.7696  0.9632
  267MOL0     N36760   3.318   7.977   9.151  0.2377  0.1030  0.4062
  267MOL0     C36761   2.320   8.086   9.544 -0.2641  0.4563  0.6428
  267MOL0     C36762   2.205   8.039   9.601 -0.7315 -0.5417  0.0253
  267MOL0     C36763   1.788   7.842   9.634 -0.3147  0.2386  0.1935
  267MOL0     C36764   1.818   7.856   9.772  0.2550  0.0778 -0.4218
  267MOL0     C36765   1.748   7.789   9.872 -0.5081 -0.6341 -0.7709
  267MOL0     C36766   1.634   7.713   9.839 -0.2899 -0.0008  0.2178
  267MOL0     O36767   1.557   7.664   9.935  0.1326 -0.6052 -0.2894
  267MOL0     C36768   1.448   7.579   9.898 -0.2915  0.7334 -0.3241
  267MOL0     C36769   1.346   7.564  10.012  0.8466  0.1992 -0.4695
  267MOL0     C36770   1.297   7.687  10.088 -0.0987 -0.7941 -0.2085
  267MOL0     C36771   1.208   7.772  10.003  0.3367 -1.2414  0.0820
  267MOL0     C36772   1.273   7.824   9.879  0.2222  0.1980  0.1762
  267MOL0     C36773   1.328   7.881   9.786  1.1681 -0.7482 -0.0697
  267MOL0     C36774   1.604   7.701   9.702 -1.3789 -0.2645 -0.1684
  267MOL0     C36775   1.684   7.751   9.602 -0.7027 -0.3047 -0.4278
  267MOL0     C36776   1.642   7.709   9.462 -0.4054 -0.1277 -0.1169
  267MOL0     H36777   2.008   8.050   9.323 -0.4810  1.2293  2.5238
  267MOL0     H36778   2.220   8.139   9.221  2.2267  2.0453 -0.2164
  267MOL0     H36779   2.611   8.164   9.229  0.6722 -1.4586 -1.7887
  267MOL0     H36780   2.442   8.110   9.185 -1.5382 -1.5656  1.4836
  267MOL0     H36781   2.635   7.970   9.386  2.4991 -1.1982 -0.9978
  267MOL0     H36782   2.500   7.899   9.307  0.3642  0.0044 -1.0162
  267MOL0     H36783   2.653   7.822   9.157 -0.9363  0.2265  2.3084
  267MOL0     H36784   2.662   7.982   9.091 -3.4742 -0.1257  0.8003
  267MOL0     H36785   2.845   7.888   9.320  2.5599  0.5657  0.0313
  267MOL0     H36786   2.884   7.863   9.152 -1.2820 -0.6684 -1.6400
  267MOL0     H36787   2.819   8.130   9.288 -0.5065  0.2796 -0.5623
  267MOL0     H36788   2.869   8.116   9.119 -1.2122  0.4211  0.5601
  267MOL0     H36789   3.029   8.034   9.370 -0.7485 -0.5661  0.6158
  267MOL0     H36790   3.064   7.984   9.196  0.5544  3.2622 -2.2219
  267MOL0     H36791   3.068   8.261   9.330  3.5403  0.9000  0.8929
  267MOL0     H36792   3.064   8.244   9.155 -2.5148 -0.9305 -0.4622
  267MOL0     H36793   3.300   8.268   9.284  1.5006 -1.3102  1.7727
  267MOL0     H36794   3.266   8.114   9.353 -0.6291 -1.4792 -0.9477
  267MOL0     H36795   3.392   8.269   9.010 -1.3669 -0.1341  0.3805
  267MOL0     H36796   3.503   8.157   8.802  2.6056 -0.4855 -2.7235
  267MOL0     H36797   3.497   7.973   8.793  0.6553 -1.6579  0.7338
  267MOL0     H36798   3.708   8.156   8.929  0.4130 -0.3465  0.8072
  267MOL0     H36799   3.683   7.986   8.962  0.4112 -0.1242 -0.0155
  267MOL0     H36800   3.703   7.926   8.732  0.4682 -0.5379  0.9864
  267MOL0     H36801   3.719   8.101   8.684 -2.3328  0.1439  1.3015
  267MOL0     H36802   3.910   7.993   8.902  1.8085 -3.6323 -1.1059
  267MOL0     H36803   3.916   7.914   8.743 -1.0498 -1.6237  1.4249
  267MOL0     H36804   4.129   7.909   8.816  2.6794 -2.3596 -3.1598
  267MOL0     H36805   4.485   7.921   8.875 -1.1040  0.9445  1.7505
  267MOL0     H36806   4.434   7.840   8.720  1.1994  3.0248 -1.6890
  267MOL0     H36807   4.336   7.826   8.872  2.0045  0.5617  1.6677
  267MOL0     H36808   4.757   8.211   8.577  2.2174  0.7846 -1.3055
  267MOL0     H36809   4.983   8.277   8.589 -0.5314 -1.1741  0.7343
  267MOL0     H36810   5.222   8.305   8.654 -0.7611 -0.8482  0.0838
  267MOL0     H36811   5.145   8.464   8.609 -0.8543  1.7760  2.6328
  267MOL0     H36812   5.384   8.432   8.800  1.7922  0.6070 -0.0286
  267MOL0     H36813   5.399   8.468   8.635  0.7794  1.5431  0.6575
  267MOL0     H36814   5.246   8.639   8.829 -0.3927 -0.9979 -0.7718
  267MOL0     H36815   5.318   8.689   8.674  0.1181 -0.0691  0.4182
  267MOL0     H36816   5.455   8.616   8.944 -1.3699  0.8641  0.2602
  267MOL0     H36817   5.439   8.782   8.884  2.2392  1.5004  0.4882
  267MOL0     H36818   5.579   8.560   8.734  2.0485 -1.1974  0.7421
  267MOL0     H36819   5.576   8.730   8.682 -0.1864 -0.1771 -0.3165
  267MOL0     H36820   5.740   8.617   8.922 -1.0334  0.3145  0.4808
  267MOL0     H36821   5.700   8.787   8.904 -2.6371  0.4894  0.5659
  267MOL0     H36822   5.814   8.775   8.678 -0.5781 -1.9268 -2.0405
  267MOL0     H36823   5.845   8.598   8.706  3.0769 -1.4329  2.8674
  267MOL0     H36824   5.933   8.826   8.888 -0.2520  2.7902 -2.5924
  267MOL0     H36825   6.044   8.771   8.766 -0.5311 -3.3881 -1.4801
  267MOL0     H36826   4.942   8.445   8.979  4.0616 -1.2301  0.1132
  267MOL0     H36827   4.710   8.356   8.982 -0.1895  0.5880 -1.4564
  267MOL0     H36828   4.348   8.324   8.669  0.1914  0.0696  1.0461
  267MOL0     H36829   4.109   8.323   8.677  2.5727  2.5563 -0.3486
  267MOL0     H36830   2.404   8.093   9.613 -1.1610 -4.3866  2.5980
  267MOL0     H36831   2.188   8.019   9.706 -0.0024 -1.8195 -0.0693
  267MOL0     H36832   1.894   7.915   9.823 -1.3798 -0.8726  3.5532
  267MOL0     H36833   1.772   7.812   9.975  1.2451 -0.2367 -1.2383
  267MOL0     H36834   1.397   7.616   9.808 -1.5448 -0.0041  0.0574
  267MOL0     H36835   1.487   7.478   9.878 -0.6709 -0.1416  2.7988
  267MOL0     H36836   1.383   7.491  10.085 -1.6179  1.9240  2.7810
  267MOL0     H36837   1.258   7.529   9.958  1.2957  0.0223 -1.1017
  267MOL0     H36838   1.237   7.654  10.173 -0.2372 -0.7787 -0.2997
  267MOL0     H36839   1.384   7.737  10.131 -0.5736 -0.9591  1.0002
  267MOL0     H36840   1.172   7.858  10.061 -2.4570 -1.7136 -0.8269
  267MOL0     H36841   1.111   7.726   9.986 -0.1807 -0.9470  1.9770
  267MOL0     H36842   1.362   7.935   9.700  0.0824  0.5277  0.2798
  267MOL0     H36843   1.523   7.641   9.660 -0.7673  0.8485 -3.1595
  267MOL0     H36844   1.620   7.795   9.398 -1.2864  0.2462  0.6672
  267MOL0     H36845   1.724   7.664   9.405 -1.4240  0.2564 -1.9394
  267MOL0     H36846   1.557   7.641   9.460  0.6611 -1.5472  0.7891
  268MOL0     O36847   4.458   6.681   0.833  0.5927 -0.1033  0.3924
  268MOL0     C36848   4.429   6.568   0.858  0.3265 -0.7591 -0.8254
  268MOL0     O36849   4.523   6.467   0.870 -0.3601  0.0881 -0.2165
  268MOL0     C36850   4.655   6.498   0.839 -0.0173  0.0803  0.6678
  268MOL0     C36851   4.728   6.594   0.916  0.4319  0.4481  0.4969
  268MOL0     C36852   4.856   6.621   0.879  0.2277 -0.7148 -0.2066
  268MOL0     C36853   4.911   6.563   0.770  0.0016  0.3973  0.4861
  268MOL0     O36854   5.039   6.581   0.725 -1.2389 -0.2259 -0.3827
  268MOL0     C36855   5.142   6.610   0.825 -0.3510 -0.4731 -0.5597
  268MOL0     C36856   5.277   6.638   0.758 -0.1731 -0.0933  0.9389
  268MOL0     C36857   5.370   6.669   0.868 -0.6140 -0.1074 -0.1223
  268MOL0     C36858   5.508   6.709   0.824 -0.6015 -0.2454 -0.4850
  268MOL0     C36859   5.603   6.759   0.936  0.3125 -1.2450 -0.1359
  268MOL0     C36860   5.720   6.829   0.869 -0.4925  0.0689 -0.3107
  268MOL0     C36861   5.831   6.857   0.970 -0.2557  0.1370  0.7405
  268MOL0     C36862   5.783   6.949   1.087  0.0885  0.0196 -0.5885
  268MOL0     N36863   5.889   6.962   1.191 -0.3350 -1.1079 -0.3771
  268MOL0     C36864   5.898   6.884   1.308  0.1751 -0.8314  0.1515
  268MOL0     C36865   6.028   6.903   1.340  0.6352  0.2846 -0.2513
  268MOL0     C36866   6.079   6.851   1.468 -0.0186 -0.2655 -0.3596
  268MOL0     C36867   6.077   6.703   1.468 -0.9746  0.2569  0.1186
  268MOL0     C36868   6.160   6.643   1.357 -0.1634  0.1789  0.2813
  268MOL0     C36869   6.156   6.484   1.347  0.2388  0.2933 -0.0796
  268MOL0     O36870   6.243   6.402   1.259 -0.1401 -0.1766  0.1730
  268MOL0     C36871   6.377   6.397   1.293 -0.6966  0.3692  0.7157
  268MOL0     C36872   6.435   6.351   1.409 -0.5886  0.7387 -0.2776
  268MOL0     C36873   6.572   6.354   1.430 -0.2347  0.0418 -1.1358
  268MOL0     C36874   6.627   6.310   1.559 -0.0011  0.1487  0.0040
  268MOL0     C36875   6.660   6.398   1.324 -0.0288 -0.3018  0.3558
  268MOL0     C36876   6.813   6.409   1.324 -0.9175  0.2068  0.4424
  268MOL0     O36877   6.881   6.351   1.426 -0.2106 -0.0475  0.4761
  268MOL0     C36878   7.024   6.355   1.417 -0.4658  0.7319  0.2167
  268MOL0     C36879   7.100   6.455   1.480  0.3826 -0.3746  0.4640
  268MOL0     C36880   7.243   6.451   1.472 -0.0919 -0.0659 -0.2157
  268MOL0     C36881   7.311   6.365   1.381 -0.6720  0.2671 -0.0569
  268MOL0     O36882   7.446   6.374   1.367 -0.4891  0.1609 -0.2564
  268MOL0     C36883   7.512   6.250   1.321 -0.5562 -0.2361  0.0573
  268MOL0     C36884   7.662   6.271   1.324 -0.2807 -0.5443 -0.2531
  268MOL0     C36885   7.735   6.278   1.456  0.0702  0.0920  0.5545
  268MOL0     C36886   7.873   6.316   1.423  0.2369 -0.2465  0.1782
  268MOL0     C36887   7.940   6.349   1.558  0.3141  0.7561  0.5841
  268MOL0     C36888   8.071   6.428   1.540 -0.9786 -0.9418 -0.0716
  268MOL0     C36889   8.149   6.432   1.674 -0.3778  0.3265 -0.9132
  268MOL0     C36890   8.301   6.444   1.652 -0.6693 -0.3502  0.5746
  268MOL0    Cl36891   8.349   6.591   1.548  0.1031  0.3009  0.5451
  268MOL0     C36892   7.232   6.269   1.318 -0.8251  0.0924  0.4623
  268MOL0     C36893   7.093   6.259   1.335  0.2250 -0.6657  0.3510
  268MOL0     O36894   6.862   6.474   1.234  0.0264 -1.0868 -0.0818
  268MOL0     C36895   6.604   6.444   1.208  0.5652  0.3057  0.3393
  268MOL0     C36896   6.469   6.454   1.190  0.1543  0.4834 -0.6305
  268MOL0     N36897   6.091   6.994   1.259 -0.4803  0.2409  1.0306
  268MOL0     N36898   6.005   7.029   1.167 -1.0425 -0.6618 -0.2422
  268MOL0     C36899   4.832   6.475   0.689 -0.3491  0.7519  0.5193
  268MOL0     C36900   4.710   6.438   0.725  0.8421 -0.7370  0.1912
  268MOL0     C36901   4.293   6.534   0.914  0.5024 -0.7191 -0.8270
  268MOL0     C36902   4.265   6.407   0.966 -0.0623  0.1360  0.3992
  268MOL0     C36903   4.140   6.370   1.012  0.0953 -0.2749 -0.1054
  268MOL0     C36904   4.040   6.466   1.034 -0.2043 -0.1332 -0.2973
  268MOL0     O36905   3.912   6.446   1.081  0.5642 -1.0993 -0.0971
  268MOL0     C36906   3.877   6.323   1.141 -1.0943 -0.7516  0.5300
  268MOL0     C36907   3.736   6.335   1.193 -0.5316  0.7408 -0.0562
  268MOL0     C36908   3.719   6.422   1.319 -0.4647  0.4876  0.8079
  268MOL0     C36909   3.785   6.561   1.298  0.5001 -0.5480 -0.7424
  268MOL0     C36910   3.730   6.637   1.408 -0.0860  0.6465 -0.4381
  268MOL0     C36911   3.709   6.721   1.491  0.1597 -0.3139  0.1156
  268MOL0     C36912   4.065   6.593   0.984  0.3922 -0.2832 -0.5662
  268MOL0     C36913   4.188   6.625   0.918 -0.4842 -0.5166 -0.8943
  268MOL0     C36914   4.189   6.762   0.853 -0.0385 -0.1407  0.0812
  268MOL0     H36915   4.685   6.656   0.994  1.9948  0.8772  1.0393
  268MOL0     H36916   4.908   6.703   0.928 -1.1757  0.6121 -0.8474
  268MOL0     H36917   5.155   6.529   0.897  0.3582  0.6066  0.5664
  268MOL0     H36918   5.119   6.694   0.891  2.1800 -1.0137  1.1809
  268MOL0     H36919   5.323   6.553   0.707  1.9527  0.1536  2.3331
  268MOL0     H36920   5.264   6.716   0.682  2.6502 -0.7254 -0.3144
  268MOL0     H36921   5.328   6.737   0.943 -0.4557  1.0493 -1.0514
  268MOL0     H36922   5.380   6.577   0.926 -0.7087 -0.4630 -0.6622
  268MOL0     H36923   5.559   6.631   0.767 -0.0249 -0.8077  0.7757
  268MOL0     H36924   5.496   6.798   0.761  1.4089  0.5365  0.1553
  268MOL0     H36925   5.630   6.682   1.009  3.7020 -0.3663 -0.3279
  268MOL0     H36926   5.543   6.839   0.980 -0.6426 -1.5709 -0.8095
  268MOL0     H36927   5.756   6.765   0.788 -0.9679  0.2504 -0.6690
  268MOL0     H36928   5.681   6.922   0.827  1.8464  0.5666 -1.5562
  268MOL0     H36929   5.910   6.908   0.916 -1.1304  0.9313  0.1759
  268MOL0     H36930   5.878   6.767   1.010  1.3638  0.5820 -0.1014
  268MOL0     H36931   5.755   7.049   1.052  2.0104  1.4730  1.6673
  268MOL0     H36932   5.700   6.899   1.137  0.9059  1.0613  1.9980
  268MOL0     H36933   5.813   6.825   1.341 -1.0934 -0.2451 -1.8488
  268MOL0     H36934   6.014   6.893   1.546 -0.0368  1.3452 -1.2046
  268MOL0     H36935   6.177   6.890   1.500 -0.7351  2.9690 -1.6947
  268MOL0     H36936   6.099   6.676   1.572  1.1805  3.2003  0.5394
  268MOL0     H36937   5.981   6.653   1.448  0.2545 -3.4844  2.4279
  268MOL0     H36938   6.130   6.690   1.263 -2.1367 -1.3562  0.0994
  268MOL0     H36939   6.265   6.662   1.381 -0.5511  1.7346  0.8618
  268MOL0     H36940   6.156   6.452   1.452  4.0300  3.4600  1.1216
  268MOL0     H36941   6.060   6.450   1.309  1.2783 -0.5825 -2.0905
  268MOL0     H36942   6.370   6.317   1.489  1.6622 -1.0946  0.8899
  268MOL0     H36943   6.698   6.377   1.609  1.9605 -1.6201 -0.2605
  268MOL0     H36944   6.688   6.220   1.541 -1.0344 -0.2571 -1.7651
  268MOL0     H36945   6.545   6.284   1.626 -0.6127 -0.4292 -0.9396
  268MOL0     H36946   7.039   6.529   1.530  2.4001  1.1160  0.8626
  268MOL0     H36947   7.301   6.521   1.531  1.9979  1.5981 -3.9192
  268MOL0     H36948   7.492   6.153   1.366  1.4505 -0.4620  0.5632
  268MOL0     H36949   7.484   6.233   1.216  1.6369 -2.8654 -0.2118
  268MOL0     H36950   7.705   6.191   1.262  0.3585 -0.2033 -0.2530
  268MOL0     H36951   7.680   6.361   1.264 -1.0633 -1.8509 -2.5960
  268MOL0     H36952   7.728   6.183   1.510 -1.9714 -0.8534 -1.1930
  268MOL0     H36953   7.689   6.361   1.510 -0.8734 -0.7956  1.1590
  268MOL0     H36954   7.870   6.411   1.370  0.1106 -0.6578 -0.5569
  268MOL0     H36955   7.934   6.248   1.363  2.9542  0.7972  1.5997
  268MOL0     H36956   7.870   6.407   1.619  1.4206  3.9786 -0.9437
  268MOL0     H36957   7.953   6.255   1.612 -1.0974 -1.0084 -1.9744
  268MOL0     H36958   8.060   6.531   1.504 -0.0171 -1.0001 -0.5807
  268MOL0     H36959   8.130   6.388   1.456  0.6578  0.6966  0.2435
  268MOL0     H36960   8.122   6.349   1.740  2.2408  2.1913  2.8272
  268MOL0     H36961   8.123   6.520   1.733 -1.1254 -2.0377  2.5815
  268MOL0     H36962   8.342   6.348   1.617  0.9855 -0.2652  2.1102
  268MOL0     H36963   8.344   6.474   1.748  0.7745  0.2452 -0.2269
  268MOL0     H36964   7.280   6.193   1.257 -1.3980  0.6174 -0.6806
  268MOL0     H36965   7.032   6.181   1.291  0.7981 -0.4581 -0.8352
  268MOL0     H36966   6.659   6.473   1.119  0.8288 -1.0837  0.0264
  268MOL0     H36967   6.425   6.487   1.096 -0.8114 -0.6816 -0.6152
  268MOL0     H36968   4.867   6.417   0.604  2.1781 -0.6752  2.3635
  268MOL0     H36969   4.656   6.360   0.672  0.5267 -1.2968  1.2986
  268MOL0     H36970   4.344   6.332   0.965  1.1657  1.3414 -1.8127
  268MOL0     H36971   4.108   6.271   1.042 -0.8692  0.8898  3.1180
  268MOL0     H36972   3.869   6.245   1.065 -4.0441  0.0696 -0.1409
  268MOL0     H36973   3.956   6.290   1.208 -2.1537 -0.8847  1.7447
  268MOL0     H36974   3.706   6.233   1.219  2.5419 -0.5544 -1.1097
  268MOL0     H36975   3.672   6.365   1.110  0.8736  1.8891 -0.7634
  268MOL0     H36976   3.612   6.437   1.339 -0.0961  3.5735  0.9023
  268MOL0     H36977   3.774   6.372   1.399  0.6784  1.5418  0.7020
  268MOL0     H36978   3.749   6.600   1.203 -1.7672  2.9424  1.2824
  268MOL0     H36979   3.894   6.564   1.311  0.4303  2.2451 -0.1840
  268MOL0     H36980   3.690   6.793   1.567 -0.8005  0.3327 -0.7156
  268MOL0     H36981   3.982   6.661   0.998  1.5151  0.6563  2.1590
  268MOL0     H36982   4.092   6.810   0.872  0.1466  0.1742  0.2324
  268MOL0     H36983   4.262   6.828   0.901 -0.2164 -0.6360  1.0658
  268MOL0     H36984   4.199   6.756   0.744 -2.1579  2.3038 -0.3386
  269MOL0     O36985   1.395   5.205   4.282 -0.0560 -0.1794 -0.6658
  269MOL0     C36986   1.422   5.142   4.179  0.6214 -0.6738 -0.0049
  269MOL0     O36987   1.545   5.092   4.142 -0.1102 -0.4210 -0.0455
  269MOL0     C36988   1.648   5.116   4.222  0.4196 -0.0454 -0.3191
  269MOL0     C36989   1.723   5.006   4.265 -0.6414 -0.7466 -0.7263
  269MOL0     C36990   1.833   5.027   4.349  0.0513  0.3423  0.4468
  269MOL0     C36991   1.873   5.155   4.383  0.8263 -0.6914  0.4246
  269MOL0     O36992   1.976   5.189   4.463  0.1160 -0.7287  0.0859
  269MOL0     C36993   2.052   5.092   4.523  0.5791 -0.1006 -0.7115
  269MOL0     C36994   2.177   5.161   4.581  0.8120  0.3954 -0.1475
  269MOL0     C36995   2.266   5.210   4.469 -0.2523  0.2956 -0.2352
  269MOL0     C36996   2.382   5.288   4.539 -0.5871 -1.2441 -0.0135
  269MOL0     C36997   2.490   5.335   4.434 -0.8133  0.7027  0.5322
  269MOL0     C36998   2.596   5.223   4.416  0.1448 -0.3447 -0.0106
  269MOL0     C36999   2.719   5.273   4.354  0.2962 -0.3499 -0.0974
  269MOL0     C37000   2.832   5.178   4.330  0.5814  0.1613  0.6535
  269MOL0     N37001   2.945   5.242   4.260 -0.4069  0.0747 -0.1058
  269MOL0     C37002   2.949   5.328   4.155  0.5241 -1.0633 -0.0361
  269MOL0     C37003   3.077   5.358   4.127  0.3456 -0.0019 -0.3598
  269MOL0     C37004   3.146   5.453   4.038  0.0011 -1.2424  0.1595
  269MOL0     C37005   3.175   5.402   3.899  0.3864  1.1682  1.0359
  269MOL0     C37006   3.291   5.300   3.878  0.5995 -0.0768 -1.0501
  269MOL0     C37007   3.431   5.357   3.922 -0.2266  0.7143 -0.1156
  269MOL0     O37008   3.428   5.490   3.879  0.3414 -0.2634  0.0332
  269MOL0     C37009   3.548   5.562   3.878 -0.5742 -0.2032  0.7764
  269MOL0     C37010   3.668   5.524   3.949  0.0186 -0.9261 -0.9614
  269MOL0     C37011   3.790   5.585   3.919 -0.4696 -0.4408 -0.4981
  269MOL0     C37012   3.913   5.529   3.982 -1.4185  0.3828  0.1862
  269MOL0     C37013   3.803   5.683   3.819 -0.7633 -0.1856  0.6581
  269MOL0     C37014   3.932   5.752   3.772  0.2213 -0.2001  1.2683
  269MOL0     O37015   3.936   5.767   3.635  0.4487  0.7230 -0.0485
  269MOL0     C37016   4.050   5.803   3.566  0.0328  0.3549  0.2844
  269MOL0     C37017   4.181   5.769   3.607  0.3822 -0.6078 -0.3393
  269MOL0     C37018   4.290   5.814   3.535  0.0092  0.4201  0.3819
  269MOL0     C37019   4.285   5.886   3.418  0.4231  0.0910  0.1622
  269MOL0     O37020   4.408   5.910   3.357  0.6753  0.7204  0.1129
  269MOL0     C37021   4.398   5.967   3.229 -0.4748 -0.7602 -0.1187
  269MOL0     C37022   4.543   6.010   3.179  0.2368  0.7756 -0.0028
  269MOL0     C37023   4.520   6.075   3.039  0.7341 -0.1879 -0.2472
  269MOL0     C37024   4.651   6.141   2.990  0.4191  0.0874  0.2767
  269MOL0     C37025   4.747   6.034   2.923 -0.1101 -0.4412 -0.5901
  269MOL0     C37026   4.876   6.100   2.880  0.0231 -0.4698 -0.0325
  269MOL0     C37027   4.965   6.005   2.799  0.4904  0.1515 -0.1796
  269MOL0     C37028   5.092   6.079   2.771 -0.4003  0.0801 -0.4303
  269MOL0    Cl37029   5.194   5.979   2.665  0.3308 -0.1823  0.4589
  269MOL0     C37030   4.153   5.925   3.381  0.2287  0.3447 -0.4891
  269MOL0     C37031   4.043   5.886   3.456 -0.2179 -1.0855 -0.3088
  269MOL0     O37032   4.020   5.777   3.850 -0.1974 -0.4565 -0.0104
  269MOL0     C37033   3.684   5.724   3.761  0.6199 -0.3639 -0.4755
  269MOL0     C37034   3.568   5.664   3.791  0.5238 -0.1184  0.7761
  269MOL0     N37035   3.151   5.281   4.215  0.1382 -0.7160  0.5598
  269MOL0     N37036   3.076   5.212   4.286 -0.4933  0.3212 -0.9184
  269MOL0     C37037   1.791   5.265   4.344  0.4616 -0.1631 -0.5132
  269MOL0     C37038   1.687   5.249   4.254  0.6747 -0.4047  0.5212
  269MOL0     C37039   1.295   5.117   4.095 -0.6653 -0.1821 -0.0744
  269MOL0     C37040   1.168   5.167   4.135  0.2127 -0.4709 -1.1460
  269MOL0     C37041   1.065   5.189   4.042 -0.2350  1.0166 -0.4095
  269MOL0     C37042   1.078   5.124   3.917  0.1359 -0.0601 -0.2388
  269MOL0     O37043   0.979   5.129   3.819  0.1310  0.2585 -0.0867
  269MOL0     C37044   0.843   5.166   3.853  0.6838  0.3331 -0.3420
  269MOL0     C37045   0.737   5.134   3.744 -0.1558 -0.3452 -1.3474
  269MOL0     C37046   0.768   5.211   3.618  0.9982 -0.1262  0.3421
  269MOL0     C37047   0.670   5.173   3.507 -0.3789 -0.3942 -0.9947
  269MOL0     C37048   0.712   5.047   3.444  1.2895  0.1107  0.3968
  269MOL0     C37049   0.736   4.955   3.373 -0.9373  0.1642 -0.3273
  269MOL0     C37050   1.197   5.070   3.874 -0.8491  0.5273 -0.5399
  269MOL0     C37051   1.309   5.071   3.959 -0.2576 -2.0112 -0.3111
  269MOL0     C37052   1.435   5.028   3.902 -0.1653  0.1237 -0.1872
  269MOL0     H37053   1.692   4.906   4.238  0.0275 -1.2250  0.2187
  269MOL0     H37054   1.883   4.937   4.384 -2.9697 -1.5395  0.3227
  269MOL0     H37055   2.090   5.018   4.452  1.9472 -1.9909  1.8442
  269MOL0     H37056   1.993   5.046   4.602  1.0772 -0.5112 -0.5676
  269MOL0     H37057   2.156   5.243   4.651 -1.4263 -0.9992  0.8970
  269MOL0     H37058   2.234   5.084   4.634 -0.5488 -0.6326 -0.1203
  269MOL0     H37059   2.311   5.134   4.405  0.2186 -0.9719  1.5167
  269MOL0     H37060   2.207   5.279   4.409  0.0396  2.6024  1.9678
  269MOL0     H37061   2.349   5.384   4.579 -0.1442 -0.4761 -1.4144
  269MOL0     H37062   2.422   5.236   4.627  1.0683 -1.0261 -0.6024
  269MOL0     H37063   2.535   5.425   4.477 -1.9221  0.4264  2.3729
  269MOL0     H37064   2.447   5.373   4.341  1.4060  0.1322 -0.7961
  269MOL0     H37065   2.617   5.182   4.515  0.4297 -1.3139 -0.4580
  269MOL0     H37066   2.547   5.145   4.357  0.9014 -0.0071 -1.1106
  269MOL0     H37067   2.756   5.347   4.425 -3.5534  0.8004  0.9739
  269MOL0     H37068   2.701   5.324   4.259  3.4819  1.9209  0.3832
  269MOL0     H37069   2.850   5.133   4.428  1.2879 -1.6708 -0.2755
  269MOL0     H37070   2.789   5.099   4.268 -2.6603  1.5655  0.9273
  269MOL0     H37071   2.863   5.381   4.113  1.6032  0.7477 -0.0665
  269MOL0     H37072   3.238   5.472   4.093  0.2217 -1.1236 -0.2503
  269MOL0     H37073   3.086   5.545   4.028  2.6705  0.5849 -0.0727
  269MOL0     H37074   3.087   5.351   3.859  0.3281  0.5226  1.9506
  269MOL0     H37075   3.189   5.491   3.837 -0.4342 -0.3824 -1.5797
  269MOL0     H37076   3.274   5.208   3.936  1.0862 -0.0969 -0.9289
  269MOL0     H37077   3.285   5.257   3.778  3.0864 -0.9295 -0.9134
  269MOL0     H37078   3.429   5.360   4.032  2.8301  1.9980 -0.0122
  269MOL0     H37079   3.519   5.306   3.884  0.8992  3.6696 -1.7752
  269MOL0     H37080   3.659   5.446   4.023  0.3573 -0.4431 -0.4036
  269MOL0     H37081   3.887   5.449   4.052  1.4913  0.2791  1.2592
  269MOL0     H37082   3.981   5.594   4.037  0.2918 -2.3204  1.4960
  269MOL0     H37083   3.971   5.467   3.913  0.2111 -2.4153  3.7033
  269MOL0     H37084   4.201   5.710   3.696  3.3655  3.9048  2.3713
  269MOL0     H37085   4.387   5.786   3.576  0.3234 -1.4468 -1.4155
  269MOL0     H37086   4.362   5.896   3.153  1.1172 -1.0452 -0.6586
  269MOL0     H37087   4.334   6.053   3.211 -1.0097 -1.4020 -1.4981
  269MOL0     H37088   4.591   6.079   3.248  3.0329 -0.1521 -0.8841
  269MOL0     H37089   4.600   5.917   3.167  1.3080  1.3352  0.5983
  269MOL0     H37090   4.441   6.149   3.055  1.2855  0.1230  1.2097
  269MOL0     H37091   4.487   5.997   2.970 -2.7183  0.8169  0.0500
  269MOL0     H37092   4.701   6.186   3.076  0.1701 -0.0853  0.5142
  269MOL0     H37093   4.623   6.222   2.922 -0.6015 -0.9799 -0.6372
  269MOL0     H37094   4.773   5.960   3.000  0.0540 -1.4212 -1.5528
  269MOL0     H37095   4.699   5.982   2.839 -0.0266 -0.0059 -0.9111
  269MOL0     H37096   4.926   6.141   2.968  1.6361  0.1101 -1.1600
  269MOL0     H37097   4.853   6.190   2.822  0.2000 -1.0045 -0.9676
  269MOL0     H37098   4.909   5.983   2.707  0.4064  0.5290 -0.2223
  269MOL0     H37099   4.992   5.912   2.849 -0.4824  0.0170  0.1220
  269MOL0     H37100   5.135   6.104   2.868  0.4688 -1.2785 -0.4349
  269MOL0     H37101   5.069   6.171   2.717  1.3748  0.2539 -0.9485
  269MOL0     H37102   4.134   5.972   3.285  0.3211 -0.7237 -1.0423
  269MOL0     H37103   3.945   5.914   3.417  0.3566  2.3702  0.4860
  269MOL0     H37104   3.687   5.800   3.683  1.1708  0.3194  0.1918
  269MOL0     H37105   3.481   5.684   3.730 -0.3235 -4.4333  0.2293
  269MOL0     H37106   1.816   5.363   4.383  1.4939  0.5579 -2.8079
  269MOL0     H37107   1.625   5.327   4.213 -0.9840 -2.2079 -0.5852
  269MOL0     H37108   1.158   5.216   4.232 -0.6002  0.3791 -1.6430
  269MOL0     H37109   0.971   5.239   4.061 -2.3025 -2.1054 -1.5794
  269MOL0     H37110   0.809   5.127   3.950 -0.2026  1.6873 -0.0783
  269MOL0     H37111   0.839   5.275   3.866 -0.3326  0.5345 -2.1052
  269MOL0     H37112   0.635   5.153   3.780  0.8038 -0.3125  1.6413
  269MOL0     H37113   0.739   5.028   3.721  2.3427 -0.2624 -1.7516
  269MOL0     H37114   0.757   5.319   3.633 -0.1072 -0.2117  0.2551
  269MOL0     H37115   0.866   5.183   3.579  0.0295 -1.9056 -0.9897
  269MOL0     H37116   0.682   5.246   3.426  1.3492  1.9345  1.2274
  269MOL0     H37117   0.569   5.159   3.546  0.2567 -2.2404  0.0895
  269MOL0     H37118   0.773   4.872   3.316  4.1555 -0.0296  2.6473
  269MOL0     H37119   1.186   5.029   3.774  1.6837 -1.2699 -0.2000
  269MOL0     H37120   1.505   5.111   3.903 -3.0105  2.7085  1.3086
  269MOL0     H37121   1.473   4.945   3.962 -0.5101 -0.7197 -1.0944
  269MOL0     H37122   1.419   4.984   3.803 -0.1230  0.4603 -0.3453
  270MOL0     O37123   6.146  11.278   3.083  0.8695 -0.0546  0.4874
  270MOL0     C37124   6.119  11.327   2.975  0.8306  0.4927 -0.4167
  270MOL0     O37125   6.211  11.364   2.882 -0.2832 -0.4965  0.4141
  270MOL0     C37126   6.350  11.355   2.904  0.0553  0.1198  0.3633
  270MOL0     C37127   6.411  11.235   2.953 -0.5173 -0.5323 -0.1979
  270MOL0     C37128   6.556  11.234   2.960  0.2547  0.7694 -0.2037
  270MOL0     C37129   6.625  11.346   2.918 -0.5669 -0.0257  1.5924
  270MOL0     O37130   6.763  11.342   2.942  0.1438  0.7690 -0.2166
  270MOL0     C37131   6.859  11.434   2.879 -0.9136  0.0595  0.2091
  270MOL0     C37132   7.001  11.388   2.906  0.1914  1.2864 -0.2283
  270MOL0     C37133   7.101  11.462   2.818  0.1279  1.0064 -0.3545
  270MOL0     C37134   7.242  11.413   2.850  0.6586  0.5656 -0.5991
  270MOL0     C37135   7.341  11.474   2.749 -0.3919 -0.5523  0.0753
  270MOL0     C37136   7.487  11.449   2.789 -0.6710  0.6357 -0.6959
  270MOL0     C37137   7.581  11.529   2.689  0.1315  0.2605 -1.0332
  270MOL0     C37138   7.729  11.502   2.708 -0.1856  0.6784 -1.0060
  270MOL0     N37139   7.811  11.569   2.609 -0.4030  0.4227 -0.1454
  270MOL0     C37140   7.808  11.545   2.478  0.6607  0.4231 -0.2302
  270MOL0     C37141   7.906  11.614   2.427 -0.6806  0.5521 -0.7336
  270MOL0     C37142   7.939  11.622   2.274 -0.1799 -0.0857 -0.0690
  270MOL0     C37143   7.936  11.497   2.199 -0.0121 -0.5646  0.5648
  270MOL0     C37144   8.030  11.389   2.255  0.0777 -0.5451  0.4021
  270MOL0     C37145   8.056  11.259   2.166 -0.2530  0.5259  0.5424
  270MOL0     O37146   8.125  11.291   2.050 -0.0796 -0.3264 -0.1115
  270MOL0     C37147   8.259  11.288   2.047  0.4377 -0.6052 -0.0207
  270MOL0     C37148   8.328  11.167   2.055 -0.5147 -0.0757  0.1708
  270MOL0     C37149   8.470  11.161   2.068  0.7974  0.1932  0.1982
  270MOL0     C37150   8.521  11.018   2.072 -0.0188  1.1093 -0.3228
  270MOL0     C37151   8.549  11.278   2.051  0.7063 -0.5663  0.0679
  270MOL0     C37152   8.697  11.280   2.054 -0.0251  0.0895  0.3880
  270MOL0     O37153   8.755  11.403   2.043 -0.1717 -0.1540 -0.3220
  270MOL0     C37154   8.892  11.415   2.065 -0.2160  1.5140  0.5077
  270MOL0     C37155   8.974  11.426   1.954 -0.1344 -0.4911 -0.9020
  270MOL0     C37156   9.112  11.414   1.963  0.2941  0.4636 -0.5103
  270MOL0     C37157   9.173  11.401   2.094  0.7646 -0.4382 -0.1250
  270MOL0     O37158   9.303  11.379   2.119 -0.0658 -0.1382 -0.2152
  270MOL0     C37159   9.391  11.470   2.048  0.3148 -0.1281 -0.0579
  270MOL0     C37160   9.541  11.448   2.094  0.1050  0.6817  0.5571
  270MOL0     C37161   9.583  11.311   2.052  0.0237  0.3826 -0.6912
  270MOL0     C37162   9.736  11.278   2.063 -0.0581 -0.6449 -0.5081
  270MOL0     C37163   9.760  11.129   2.038  0.6899  0.0114  0.9078
  270MOL0     C37164   9.915  11.104   2.050  0.4284 -0.3475  0.2737
  270MOL0     C37165   9.947  10.967   1.994  0.1273  0.0555 -0.0806
  270MOL0     C37166  10.085  10.913   2.015 -0.0853 -0.4288 -0.4680
  270MOL0    Cl37167  10.117  10.773   1.921 -0.0232 -0.2982  0.3294
  270MOL0     C37168   9.089  11.399   2.213 -0.1914  0.3785 -0.2025
  270MOL0     C37169   8.953  11.406   2.197 -0.0699 -0.3192  0.0383
  270MOL0     O37170   8.754  11.172   2.055 -0.8315  0.0741  0.1622
  270MOL0     C37171   8.481  11.397   2.044  0.3900  0.6875  0.3382
  270MOL0     C37172   8.339  11.402   2.040 -0.5526 -0.3587  0.2399
  270MOL0     N37173   7.982  11.671   2.530  1.1028  0.0054  0.2927
  270MOL0     N37174   7.922  11.648   2.645  0.7095 -0.6702  0.7859
  270MOL0     C37175   6.564  11.463   2.888 -0.0088  0.5844  0.0861
  270MOL0     C37176   6.423  11.471   2.882  0.2575  0.0015 -0.3892
  270MOL0     C37177   5.983  11.359   2.945  0.4794  0.1082 -0.6289
  270MOL0     C37178   5.960  11.417   2.818 -0.4743  0.3071 -0.9360
  270MOL0     C37179   5.830  11.446   2.771  0.9589 -0.0494  0.3921
  270MOL0     C37180   5.724  11.434   2.853 -0.3412  0.3693  0.2907
  270MOL0     O37181   5.599  11.448   2.798 -0.0593 -0.0331 -0.1651
  270MOL0     C37182   5.482  11.453   2.881 -0.6568 -0.8720 -0.0065
  270MOL0     C37183   5.484  11.576   2.983  0.2857  0.6251 -0.1466
  270MOL0     C37184   5.354  11.595   3.061 -0.0478 -0.3855  0.4157
  270MOL0     C37185   5.291  11.465   3.121 -1.0392 -0.8394  0.2431
  270MOL0     C37186   5.392  11.406   3.212  0.1837  1.4766  0.1475
  270MOL0     C37187   5.473  11.356   3.281 -0.0072  0.3928 -1.0293
  270MOL0     C37188   5.746  11.386   2.980  0.0895 -0.2912 -0.2715
  270MOL0     C37189   5.873  11.349   3.035 -0.1118  0.0883  0.0579
  270MOL0     C37190   5.882  11.282   3.171  0.5973 -0.6467 -0.3744
  270MOL0     H37191   6.361  11.147   2.992  2.8507 -1.6856  1.9260
  270MOL0     H37192   6.602  11.155   3.018 -0.2285 -0.1020 -0.9688
  270MOL0     H37193   6.830  11.530   2.922 -1.9959 -1.3769  2.9272
  270MOL0     H37194   6.840  11.438   2.771 -0.1578 -0.7848  0.0366
  270MOL0     H37195   7.010  11.395   3.015  0.8130 -2.3091  0.0523
  270MOL0     H37196   7.008  11.282   2.881  1.3545  1.1636  0.5154
  270MOL0     H37197   7.076  11.430   2.716  0.3471 -4.1280  0.9708
  270MOL0     H37198   7.097  11.571   2.830  2.5778  1.1032  0.0315
  270MOL0     H37199   7.274  11.441   2.951 -0.4144  0.9590 -0.3566
  270MOL0     H37200   7.244  11.304   2.838  3.4297  0.2264  1.8274
  270MOL0     H37201   7.322  11.580   2.735 -2.3064 -1.0036 -1.1357
  270MOL0     H37202   7.326  11.422   2.654  1.1019  0.9497 -1.0476
  270MOL0     H37203   7.496  11.480   2.893  0.4248  0.3195 -0.6895
  270MOL0     H37204   7.506  11.342   2.798  0.4505  0.7798 -1.1502
  270MOL0     H37205   7.567  11.634   2.716 -1.5361  0.0930 -1.1427
  270MOL0     H37206   7.549  11.513   2.585  3.1400 -0.7408 -1.9238
  270MOL0     H37207   7.763  11.516   2.811  3.6086 -1.8384 -1.6890
  270MOL0     H37208   7.747  11.394   2.695  0.2400  0.4156  1.3493
  270MOL0     H37209   7.732  11.490   2.422 -0.4397 -0.5455  2.0671
  270MOL0     H37210   8.039  11.666   2.274 -0.0079 -0.4629 -0.3915
  270MOL0     H37211   7.867  11.688   2.224 -0.3514  0.9538  1.4955
  270MOL0     H37212   7.837  11.458   2.176 -1.2399  0.7613  3.1551
  270MOL0     H37213   7.974  11.522   2.099 -0.7261  0.9711  0.6455
  270MOL0     H37214   8.121  11.444   2.284  0.3916 -0.9599  0.2116
  270MOL0     H37215   7.991  11.355   2.352 -1.9076 -0.5901 -0.3718
  270MOL0     H37216   8.117  11.193   2.229 -0.3086  0.4309  0.4972
  270MOL0     H37217   7.960  11.207   2.156  0.3926 -0.5549 -0.2227
  270MOL0     H37218   8.273  11.076   2.076  0.2775 -0.7815 -0.6816
  270MOL0     H37219   8.568  10.994   1.976 -2.8776 -2.8534 -0.9776
  270MOL0     H37220   8.439  10.948   2.090  1.6269 -1.3740 -1.9208
  270MOL0     H37221   8.600  11.010   2.147 -1.0261  1.6085  0.8359
  270MOL0     H37222   8.926  11.426   1.856 -0.3370  2.8855 -0.9157
  270MOL0     H37223   9.175  11.420   1.875 -0.3893 -1.3282 -1.1709
  270MOL0     H37224   9.374  11.448   1.942  1.7244 -3.0964  0.2170
  270MOL0     H37225   9.356  11.571   2.071 -1.0766 -0.6574  0.3181
  270MOL0     H37226   9.605  11.520   2.042 -0.1857 -1.4540 -3.1405
  270MOL0     H37227   9.556  11.473   2.199 -2.7847  0.0143  1.2099
  270MOL0     H37228   9.546  11.290   1.951 -2.6003 -3.8283  0.8485
  270MOL0     H37229   9.525  11.242   2.114 -0.8982  1.9829  0.3020
  270MOL0     H37230   9.774  11.295   2.164  0.1104 -0.2113 -0.6381
  270MOL0     H37231   9.800  11.348   2.007  0.1675  3.2921  4.0532
  270MOL0     H37232   9.701  11.075   2.113  3.5230  0.4717  3.6822
  270MOL0     H37233   9.732  11.093   1.938  0.3451  2.0185  0.2399
  270MOL0     H37234   9.947  11.122   2.154 -2.7416  2.8474  0.8903
  270MOL0     H37235   9.952  11.189   1.991 -1.0974 -0.6391 -1.1664
  270MOL0     H37236   9.940  10.959   1.885  2.6419 -4.5359 -0.1748
  270MOL0     H37237   9.877  10.897   2.042  0.4992 -1.3805 -1.5257
  270MOL0     H37238  10.093  10.889   2.121 -2.2206  4.2697  1.0423
  270MOL0     H37239  10.161  10.990   1.998 -2.0522  1.3839 -1.6551
  270MOL0     H37240   9.127  11.389   2.314  1.3471  0.9388 -0.6873
  270MOL0     H37241   8.904  11.393   2.293 -1.4125 -0.9300 -0.6883
  270MOL0     H37242   8.531  11.491   2.026 -0.7212  1.4342  1.0007
  270MOL0     H37243   8.276  11.490   2.035  0.2630  0.2159 -0.2605
  270MOL0     H37244   6.616  11.554   2.859 -0.7978  1.9742  2.6792
  270MOL0     H37245   6.365  11.560   2.861  0.8234  0.2901 -0.7500
  270MOL0     H37246   6.027  11.421   2.733 -0.0565  0.4160 -0.6067
  270MOL0     H37247   5.817  11.487   2.672 -0.6269 -1.1609  0.0960
  270MOL0     H37248   5.399  11.469   2.811 -1.0830 -1.6028  0.3201
  270MOL0     H37249   5.466  11.358   2.932  0.8014 -1.5233 -0.6996
  270MOL0     H37250   5.502  11.661   2.918 -3.1817  0.7734 -1.1150
  270MOL0     H37251   5.568  11.576   3.053  2.0878  0.4324 -2.2184
  270MOL0     H37252   5.368  11.653   3.153 -0.7377  0.0572  0.2491
  270MOL0     H37253   5.281  11.646   2.997  1.5883 -0.8836 -1.9843
  270MOL0     H37254   5.264  11.408   3.031  1.9889  0.9959 -2.0365
  270MOL0     H37255   5.198  11.484   3.174 -1.1747  0.4409 -0.4028
  270MOL0     H37256   5.547  11.304   3.340 -0.0080  0.4895 -0.9429
  270MOL0     H37257   5.655  11.368   3.038 -0.6450 -1.7146 -1.7862
  270MOL0     H37258   5.780  11.283   3.212  0.9205 -0.9381  0.4628
  270MOL0     H37259   5.892  11.177   3.144 -1.9398 -0.6902 -1.4646
  270MOL0     H37260   5.957  11.321   3.240 -1.5300  0.9568  1.1957
  271MOL0     O37261  10.618   3.566   0.085  0.4731  0.0855  0.0792
  271MOL0     C37262  10.572   3.452   0.095 -0.4404  0.2729  0.2502
  271MOL0     O37263  10.648   3.337   0.117 -1.2281  0.1714 -0.6601
  271MOL0     C37264  10.785   3.349   0.123  0.7959 -0.8227  0.6970
  271MOL0     C37265  10.869   3.278   0.036 -0.4617 -0.4113  0.2373
  271MOL0     C37266  11.003   3.289   0.032 -0.5023 -0.3249  0.0785
  271MOL0     C37267  11.071   3.377   0.122 -0.8470  0.3903 -0.0337
  271MOL0     O37268  11.204   3.394   0.117  0.0206 -0.0044 -0.0963
  271MOL0     C37269  11.245   3.529   0.142 -0.1873  0.1293  0.1525
  271MOL0     C37270  11.311   3.543   0.277  0.1014  0.5773 -0.1531
  271MOL0     C37271  11.453   3.474   0.279 -0.1208  0.0627 -0.0520
  271MOL0     C37272  11.473   3.358   0.394 -0.3789 -0.6073  0.1488
  271MOL0     C37273  11.613   3.317   0.418 -0.1157  1.0380 -0.9708
  271MOL0     C37274  11.681   3.279   0.287 -0.1294  0.2405  0.7416
  271MOL0     C37275  11.798   3.187   0.303  0.2098  0.4645  0.5068
  271MOL0     C37276  11.903   3.215   0.403  0.6310 -0.2078 -0.8904
  271MOL0     N37277  11.980   3.091   0.433  0.4527 -0.6377  0.4788
  271MOL0     C37278  11.960   3.017   0.545  0.4942 -1.1076 -0.2617
  271MOL0     C37279  12.032   2.906   0.518 -0.1115 -0.5004  0.4055
  271MOL0     C37280  12.017   2.795   0.624 -0.6701  0.7876 -0.7223
  271MOL0     C37281  12.105   2.679   0.578  0.6264  0.2773  0.6482
  271MOL0     C37282  12.136   2.583   0.693  0.3299 -0.7487  0.1140
  271MOL0     C37283  12.257   2.498   0.666  0.1899 -0.7253  0.2722
  271MOL0     O37284  12.373   2.588   0.646 -0.3535 -0.0410  0.0963
  271MOL0     C37285  12.487   2.562   0.718 -0.2127  0.5265 -0.2890
  271MOL0     C37286  12.535   2.434   0.738 -1.4780 -0.1709  1.1777
  271MOL0     C37287  12.648   2.408   0.822 -0.6919  0.4751 -0.5488
  271MOL0     C37288  12.681   2.263   0.835 -0.2483  0.2890  0.2876
  271MOL0     C37289  12.713   2.515   0.891  0.0989  0.6541 -0.0699
  271MOL0     C37290  12.828   2.499   0.977 -0.1232 -0.6283  0.0618
  271MOL0     O37291  12.923   2.606   0.967 -0.0690  0.1987 -0.6742
  271MOL0     C37292  13.037   2.608   1.043  0.5522 -0.1474  0.3293
  271MOL0     C37293  13.128   2.711   1.003 -0.0563 -0.1836 -0.0839
  271MOL0     C37294  13.248   2.732   1.064 -0.1881 -1.3045 -0.3434
  271MOL0     C37295  13.293   2.648   1.166  0.2201  0.1075 -0.0807
  271MOL0     O37296  13.408   2.660   1.236 -0.3694  0.0262 -0.1565
  271MOL0     C37297  13.434   2.795   1.290  0.5866 -0.6459  1.2850
  271MOL0     C37298  13.503   2.794   1.429  0.1654 -0.5969 -0.0525
  271MOL0     C37299  13.637   2.715   1.411 -0.5455 -0.7103 -0.1592
  271MOL0     C37300  13.714   2.736   1.540  1.1529  0.3516  0.5176
  271MOL0     C37301  13.852   2.664   1.530  0.2395  1.0760  0.1587
  271MOL0     C37302  13.905   2.659   1.673 -0.5666  0.0878  0.4202
  271MOL0     C37303  14.061   2.664   1.655  0.2786 -0.2697 -0.3115
  271MOL0     C37304  14.140   2.614   1.778 -0.4082  0.1254  0.6910
  271MOL0    Cl37305  14.092   2.439   1.807  0.4797  0.0214 -0.3361
  271MOL0     C37306  13.205   2.539   1.198 -0.0104 -0.4866 -0.4819
  271MOL0     C37307  13.072   2.529   1.152  0.5149  0.3292 -0.3997
  271MOL0     O37308  12.842   2.398   1.045  0.2704  0.8188 -0.2328
  271MOL0     C37309  12.660   2.645   0.868  0.0269 -0.2224  0.1240
  271MOL0     C37310  12.558   2.671   0.769  1.0583 -0.4295 -0.3973
  271MOL0     N37311  12.079   2.913   0.384 -0.0184  0.0348 -0.5468
  271MOL0     N37312  12.062   3.029   0.336 -0.2529 -0.2523 -0.4939
  271MOL0     C37313  10.990   3.445   0.217 -0.0707  0.0870  0.0042
  271MOL0     C37314  10.848   3.431   0.215  0.2763  0.5824 -0.0744
  271MOL0     C37315  10.430   3.427   0.056 -1.2846 -0.0232 -0.0446
  271MOL0     C37316  10.378   3.300   0.095  0.2903  0.1246 -0.1436
  271MOL0     C37317  10.240   3.269   0.070 -0.1769  0.8716 -0.4489
  271MOL0     C37318  10.158   3.365   0.015 -0.0101  0.0943  0.1511
  271MOL0     O37319  10.031   3.326  -0.000  0.1499 -0.5091 -0.0065
  271MOL0     C37320   9.981   3.302  -0.134 -0.1602  0.0683  0.6712
  271MOL0     C37321   9.832   3.300  -0.133  0.0115  0.9384 -0.0287
  271MOL0     C37322   9.774   3.186  -0.046  0.3952 -0.9555  0.3495
  271MOL0     C37323   9.624   3.170  -0.055  1.1005  0.5366 -0.0466
  271MOL0     C37324   9.557   3.270   0.023  0.2618 -0.0475  0.0548
  271MOL0     C37325   9.505   3.349   0.099  0.7813 -0.0858 -0.1719
  271MOL0     C37326  10.211   3.485  -0.018  0.8898  0.1871  0.3328
  271MOL0     C37327  10.347   3.521  -0.002  1.7099  0.6062 -0.1785
  271MOL0     C37328  10.387   3.652  -0.065  0.2512  0.2239 -0.5842
  271MOL0     H37329  10.837   3.210  -0.042  0.4089 -2.7098  1.7731
  271MOL0     H37330  11.065   3.249  -0.047  1.2986  1.2264  0.6071
  271MOL0     H37331  11.160   3.598   0.141 -0.9111 -0.6345  2.6662
  271MOL0     H37332  11.320   3.569   0.072  0.4016  0.3381  0.8931
  271MOL0     H37333  11.335   3.650   0.287  0.5830  0.6216 -1.5507
  271MOL0     H37334  11.242   3.512   0.356 -0.8526  3.9930  0.5323
  271MOL0     H37335  11.473   3.427   0.182 -1.2347 -1.2372  0.3009
  271MOL0     H37336  11.532   3.548   0.292 -0.3780  0.3291 -0.0067
  271MOL0     H37337  11.425   3.385   0.488 -1.0022 -2.1393  0.2857
  271MOL0     H37338  11.415   3.281   0.342  0.2606  0.0287 -1.5869
  271MOL0     H37339  11.600   3.239   0.494 -0.9682  0.9958 -1.1503
  271MOL0     H37340  11.669   3.393   0.475 -1.4678  0.1735  1.6636
  271MOL0     H37341  11.605   3.242   0.217 -0.6215  1.6629  0.4903
  271MOL0     H37342  11.726   3.369   0.246  0.1081 -0.5909 -0.9061
  271MOL0     H37343  11.845   3.177   0.205 -0.1881  1.2804  0.2216
  271MOL0     H37344  11.769   3.085   0.330  0.8275  0.0715 -0.2909
  271MOL0     H37345  11.962   3.299   0.365 -0.2283  2.4716  2.9687
  271MOL0     H37346  11.856   3.256   0.494  3.3506  1.3048 -0.0617
  271MOL0     H37347  11.910   3.056   0.633  0.5765  2.8782 -1.7677
  271MOL0     H37348  11.915   2.757   0.626 -0.3146 -0.2025 -0.5767
  271MOL0     H37349  12.058   2.840   0.715  0.9401  1.6261 -1.8054
  271MOL0     H37350  12.055   2.625   0.498  0.0698 -0.2244  1.3239
  271MOL0     H37351  12.197   2.716   0.531  1.5690  0.0826  2.2700
  271MOL0     H37352  12.155   2.641   0.784 -0.9026  1.4240 -0.9285
  271MOL0     H37353  12.048   2.520   0.703  0.5595 -1.0621  0.1566
  271MOL0     H37354  12.279   2.410   0.727 -1.0528 -1.3563 -0.1750
  271MOL0     H37355  12.242   2.452   0.569 -1.2503 -1.0914  0.6526
  271MOL0     H37356  12.483   2.356   0.683 -1.3569  0.5924 -0.0724
  271MOL0     H37357  12.683   2.232   0.940  2.2057 -0.8388 -0.0213
  271MOL0     H37358  12.779   2.239   0.795 -0.5914 -2.1153  0.7199
  271MOL0     H37359  12.605   2.199   0.789 -1.3764  1.0411  1.0420
  271MOL0     H37360  13.105   2.790   0.933  2.6625  0.3782 -0.4589
  271MOL0     H37361  13.319   2.809   1.037 -2.8587  1.1939 -0.6820
  271MOL0     H37362  13.502   2.842   1.219 -1.0769 -0.9642 -0.6300
  271MOL0     H37363  13.339   2.848   1.304 -0.1716 -1.1631 -1.3510
  271MOL0     H37364  13.512   2.900   1.453 -1.4420 -0.4305 -0.0526
  271MOL0     H37365  13.441   2.737   1.499 -0.5811  0.7073  0.3937
  271MOL0     H37366  13.699   2.763   1.334 -0.7989 -2.1181 -1.2877
  271MOL0     H37367  13.619   2.613   1.376 -2.7715  0.2996 -2.2815
  271MOL0     H37368  13.650   2.688   1.615 -0.1270 -0.5292 -1.0911
  271MOL0     H37369  13.728   2.843   1.559 -2.6473  0.9747  0.5562
  271MOL0     H37370  13.844   2.567   1.479 -1.3340  1.2397  0.0401
  271MOL0     H37371  13.918   2.715   1.459 -1.6441  0.7305 -1.9956
  271MOL0     H37372  13.859   2.574   1.724 -2.0091 -0.5281 -1.7176
  271MOL0     H37373  13.877   2.747   1.731  3.0222  0.8369  1.2249
  271MOL0     H37374  14.088   2.767   1.627  5.2581 -1.2533 -0.0772
  271MOL0     H37375  14.085   2.599   1.570 -1.4022  1.4344 -2.2119
  271MOL0     H37376  14.116   2.674   1.867  0.2054 -0.2256  1.1042
  271MOL0     H37377  14.246   2.616   1.751 -0.3247 -4.7743 -0.1477
  271MOL0     H37378  13.252   2.472   1.270  1.9400  1.9911  0.7009
  271MOL0     H37379  12.999   2.462   1.196  1.2740 -0.4679 -0.3227
  271MOL0     H37380  12.703   2.736   0.909  1.5858  0.6381 -3.0644
  271MOL0     H37381  12.516   2.763   0.730 -1.7192 -1.1192  0.7457
  271MOL0     H37382  11.022   3.530   0.276 -2.2080  0.1866  1.1116
  271MOL0     H37383  10.796   3.500   0.281 -1.5344 -0.0465 -0.7870
  271MOL0     H37384  10.438   3.223   0.144  1.1400  1.4038  0.9014
  271MOL0     H37385  10.194   3.176   0.103 -3.7658  2.7566  0.5090
  271MOL0     H37386  10.024   3.365  -0.212 -1.0815 -0.8772 -0.6342
  271MOL0     H37387  10.011   3.198  -0.152  3.0582  1.0889 -0.5384
  271MOL0     H37388   9.807   3.283  -0.238 -0.9899  1.5377  0.1051
  271MOL0     H37389   9.788   3.389  -0.089 -2.7005 -1.7650  3.3942
  271MOL0     H37390   9.832   3.096  -0.069  1.9591  0.6569 -2.8196
  271MOL0     H37391   9.788   3.210   0.059  0.7224  0.9692 -0.0982
  271MOL0     H37392   9.596   3.068  -0.027  0.2704  0.6380 -0.4581
  271MOL0     H37393   9.585   3.185  -0.156  0.0188 -0.4571  0.2078
  271MOL0     H37394   9.452   3.412   0.169  0.0427  0.1303 -0.9059
  271MOL0     H37395  10.141   3.558  -0.058  0.2713 -0.5796  0.0017
  271MOL0     H37396  10.483   3.643  -0.118  1.3970  3.2022  0.7420
  271MOL0     H37397  10.313   3.689  -0.136  1.2200  3.1107 -0.2491
  271MOL0     H37398  10.400   3.729   0.012  2.3479 -2.5235  2.0919
  272MOL0     O37399   5.635   3.864   0.927  0.4147  0.5964  0.0859
  272MOL0     C37400   5.538   3.917   0.883  1.0079  0.0380  0.4240
  272MOL0     O37401   5.537   4.016   0.791  0.9752 -0.7676 -0.2782
  272MOL0     C37402   5.658   4.063   0.737  0.2732  1.0137  0.2465
  272MOL0     C37403   5.756   4.120   0.815  0.4583 -0.3362 -0.2295
  272MOL0     C37404   5.869   4.179   0.760  0.6474  0.5412 -0.6468
  272MOL0     C37405   5.897   4.155   0.622 -0.0515  0.1321 -0.8005
  272MOL0     O37406   6.009   4.212   0.572  0.1700 -0.7844 -0.8137
  272MOL0     C37407   6.059   4.181   0.445 -0.0393 -0.1461 -0.8989
  272MOL0     C37408   6.208   4.216   0.437 -0.7303  0.1597  0.0422
  272MOL0     C37409   6.281   4.117   0.351  0.3096  0.2786 -0.4140
  272MOL0     C37410   6.436   4.139   0.343 -0.3833 -0.3196  0.0291
  272MOL0     C37411   6.503   4.044   0.248 -0.2102  0.2854  0.1554
  272MOL0     C37412   6.641   4.092   0.222 -0.6193 -0.3768  0.4172
  272MOL0     C37413   6.724   4.022   0.108 -0.3520 -0.5904  0.8442
  272MOL0     C37414   6.794   3.902   0.162 -0.3556 -0.3429 -0.5701
  272MOL0     N37415   6.887   3.845   0.061  0.2110 -0.6524  0.2067
  272MOL0     C37416   6.842   3.779  -0.049 -0.5291  0.2264 -0.4600
  272MOL0     C37417   6.957   3.773  -0.122 -0.0207  1.0904 -0.1981
  272MOL0     C37418   6.970   3.702  -0.251  0.0363  0.3835  0.4393
  272MOL0     C37419   7.004   3.550  -0.230  0.1045 -0.2236 -0.1142
  272MOL0     C37420   7.160   3.533  -0.229  0.5061 -0.1971 -0.8263
  272MOL0     C37421   7.207   3.389  -0.185  0.2776 -0.3469  0.5417
  272MOL0     O37422   7.341   3.396  -0.151 -0.3229  0.0537 -0.2749
  272MOL0     C37423   7.431   3.409  -0.259  0.6377 -0.0145  0.0014
  272MOL0     C37424   7.406   3.409  -0.394 -0.6060 -0.0865 -0.1486
  272MOL0     C37425   7.503   3.443  -0.494  0.6104  0.1037 -0.1463
  272MOL0     C37426   7.446   3.461  -0.632 -0.2546 -0.4690 -0.9941
  272MOL0     C37427   7.635   3.470  -0.455  0.4749 -0.9403 -0.5308
  272MOL0     C37428   7.742   3.509  -0.543 -0.4808  0.1885 -0.0149
  272MOL0     O37429   7.855   3.561  -0.484 -0.3097  0.0260 -0.7060
  272MOL0     C37430   7.968   3.588  -0.553  0.8068 -0.9833  0.4048
  272MOL0     C37431   7.984   3.729  -0.587  0.5592  0.5353  1.0857
  272MOL0     C37432   8.093   3.772  -0.655 -1.0995  0.2314  0.3383
  272MOL0     C37433   8.203   3.689  -0.677  0.3313  0.0631 -0.7003
  272MOL0     O37434   8.317   3.744  -0.734  0.2888 -0.0278 -0.9477
  272MOL0     C37435   8.439   3.755  -0.658  0.4541 -0.9217  0.8842
  272MOL0     C37436   8.518   3.879  -0.702  0.4752  0.0953  0.1649
  272MOL0     C37437   8.456   4.014  -0.660  0.0902  0.0785 -0.2874
  272MOL0     C37438   8.538   4.124  -0.728 -0.6891 -0.6666 -0.0484
  272MOL0     C37439   8.535   4.264  -0.678  0.8345  0.4755 -0.0352
  272MOL0     C37440   8.597   4.279  -0.542 -0.3822  0.6067  0.3633
  272MOL0     C37441   8.598   4.423  -0.496  0.2301 -1.2094  0.7966
  272MOL0     C37442   8.726   4.448  -0.403 -0.3408  0.6310  0.8308
  272MOL0    Cl37443   8.727   4.620  -0.373 -0.3435  0.2628  0.3741
  272MOL0     C37444   8.197   3.557  -0.629 -0.3278  0.1668  0.8986
  272MOL0     C37445   8.080   3.505  -0.572 -0.3835  0.6511  0.6859
  272MOL0     O37446   7.726   3.482  -0.663  0.7099 -0.4291  0.3653
  272MOL0     C37447   7.659   3.471  -0.316 -0.1893  0.3694  0.3368
  272MOL0     C37448   7.559   3.439  -0.217  0.3970 -1.0038 -0.4318
  272MOL0     N37449   7.069   3.834  -0.065 -0.1271  1.0167  0.4856
  272MOL0     N37450   7.019   3.882   0.037  0.6770 -0.3215 -0.6396
  272MOL0     C37451   5.799   4.089   0.546 -0.2038  1.0842 -0.3029
  272MOL0     C37452   5.681   4.035   0.603 -0.2669 -0.1291 -0.0999
  272MOL0     C37453   5.413   3.883   0.954  0.6855 -0.5663 -0.8422
  272MOL0     C37454   5.420   3.782   1.047 -0.4277 -0.3062 -0.2376
  272MOL0     C37455   5.303   3.748   1.124 -0.3649 -0.0796  0.5674
  272MOL0     C37456   5.181   3.803   1.097  1.2523  0.7773  0.9434
  272MOL0     O37457   5.066   3.751   1.147  0.5684  0.4951  0.1273
  272MOL0     C37458   4.978   3.689   1.051 -0.7850 -0.7415 -0.5206
  272MOL0     C37459   4.901   3.566   1.106  0.2730 -0.1412 -0.5324
  272MOL0     C37460   4.987   3.447   1.127 -0.7189 -0.0947 -0.2805
  272MOL0     C37461   4.911   3.327   1.179 -1.3340 -0.3258  0.8581
  272MOL0     C37462   4.867   3.344   1.318 -0.4478  0.6952  0.0947
  272MOL0     C37463   4.831   3.374   1.429 -0.6878 -0.0505  0.6802
  272MOL0     C37464   5.173   3.899   0.993 -0.6442 -1.0913 -0.6012
  272MOL0     C37465   5.286   3.948   0.925  0.3706  0.0417  0.1924
  272MOL0     C37466   5.267   4.072   0.846  0.4080 -0.9876 -0.1246
  272MOL0     H37467   5.750   4.136   0.922 -2.7749 -1.0060 -0.2078
  272MOL0     H37468   5.942   4.238   0.813 -1.9965  3.2655  0.2287
  272MOL0     H37469   6.010   4.237   0.365 -0.0386  2.4276  0.7843
  272MOL0     H37470   6.039   4.075   0.429 -2.4976  0.0379  0.6120
  272MOL0     H37471   6.211   4.317   0.393 -0.0674 -0.2109 -0.7858
  272MOL0     H37472   6.260   4.217   0.533 -2.2052  1.4485  0.8764
  272MOL0     H37473   6.259   4.019   0.394  2.6138 -0.3859 -0.6199
  272MOL0     H37474   6.243   4.133   0.249 -1.6860  1.5787  0.4906
  272MOL0     H37475   6.439   4.243   0.309  1.2452 -0.1147  0.7082
  272MOL0     H37476   6.460   4.117   0.447 -1.9657  0.3796  0.5692
  272MOL0     H37477   6.448   4.040   0.154  0.0562  1.0529 -0.0486
  272MOL0     H37478   6.504   3.947   0.297  3.0867 -0.2460 -0.6916
  272MOL0     H37479   6.635   4.198   0.195  2.1190  0.3108  2.1245
  272MOL0     H37480   6.689   4.074   0.318 -0.6951  2.8330  1.1355
  272MOL0     H37481   6.798   4.095   0.072  1.2425 -2.6268 -0.2405
  272MOL0     H37482   6.652   3.995   0.031 -0.6126  2.1257  0.0196
  272MOL0     H37483   6.852   3.937   0.248  0.0801  1.5671 -1.6068
  272MOL0     H37484   6.725   3.828   0.204  0.4931  1.1535  4.0341
  272MOL0     H37485   6.742   3.742  -0.071 -0.2306  0.4515 -2.4133
  272MOL0     H37486   7.051   3.742  -0.313  1.4725 -0.2433  1.8574
  272MOL0     H37487   6.872   3.708  -0.301 -1.4049 -0.0245  3.0650
  272MOL0     H37488   6.959   3.513  -0.137 -0.8719  3.2214  0.9357
  272MOL0     H37489   6.958   3.495  -0.312 -0.0441 -3.4297  1.9607
  272MOL0     H37490   7.201   3.556  -0.328 -0.6946  1.6998 -0.9284
  272MOL0     H37491   7.203   3.612  -0.167  0.5600  1.2838 -2.6532
  272MOL0     H37492   7.159   3.369  -0.089  0.1840  0.7863  0.7387
  272MOL0     H37493   7.186   3.320  -0.267  1.7209 -0.2814  0.0875
  272MOL0     H37494   7.305   3.391  -0.429 -0.3209  1.5616 -2.0028
  272MOL0     H37495   7.462   3.567  -0.655 -1.6217  0.2104  0.9296
  272MOL0     H37496   7.338   3.447  -0.642 -0.0048 -1.4125 -2.8866
  272MOL0     H37497   7.488   3.387  -0.700 -0.1956 -1.8424  0.4896
  272MOL0     H37498   7.899   3.794  -0.570  1.6117  2.3365 -0.1391
  272MOL0     H37499   8.113   3.876  -0.681  1.4076 -0.5160 -1.0286
  272MOL0     H37500   8.414   3.773  -0.553  1.2204  0.3870  0.8625
  272MOL0     H37501   8.499   3.664  -0.653  0.1031 -1.1883  0.3810
  272MOL0     H37502   8.622   3.875  -0.669  1.3386  0.1912 -2.3189
  272MOL0     H37503   8.528   3.879  -0.811  1.1448  1.5357  0.1958
  272MOL0     H37504   8.454   4.030  -0.552 -1.0702  1.5465 -0.4936
  272MOL0     H37505   8.351   4.026  -0.687  0.0441  0.4772  0.0543
  272MOL0     H37506   8.498   4.121  -0.829 -5.0661 -2.8790  1.4604
  272MOL0     H37507   8.644   4.098  -0.732 -0.0808  1.3457  1.2947
  272MOL0     H37508   8.573   4.336  -0.751  2.7899 -0.5425 -0.1009
  272MOL0     H37509   8.429   4.289  -0.668  0.3578 -1.1949 -0.4407
  272MOL0     H37510   8.693   4.228  -0.530 -0.2724  1.2356  2.4642
  272MOL0     H37511   8.528   4.229  -0.474 -0.4384  1.4554  0.9454
  272MOL0     H37512   8.503   4.454  -0.449  1.5501  5.3267  0.1104
  272MOL0     H37513   8.609   4.494  -0.578  0.8052 -0.5035  1.4628
  272MOL0     H37514   8.822   4.425  -0.450 -0.7703  0.3563  0.0645
  272MOL0     H37515   8.715   4.387  -0.313 -2.0309  2.2558  1.8093
  272MOL0     H37516   8.284   3.494  -0.645 -0.1085  0.2612  1.6813
  272MOL0     H37517   8.066   3.403  -0.538 -3.2666 -0.1363 -2.3034
  272MOL0     H37518   7.761   3.487  -0.283 -0.3447  0.6532  0.6925
  272MOL0     H37519   7.595   3.419  -0.117 -1.2460 -0.9662  0.1960
  272MOL0     H37520   5.812   4.079   0.439 -2.2938  0.4830 -0.5538
  272MOL0     H37521   5.613   3.979   0.540  0.6008 -0.7302 -0.5272
  272MOL0     H37522   5.505   3.731   1.091  0.1764  3.1959  3.1838
  272MOL0     H37523   5.306   3.666   1.195 -0.3258  0.6264  1.3926
  272MOL0     H37524   4.901   3.764   1.029  1.7585  1.9441 -0.9277
  272MOL0     H37525   5.029   3.665   0.958  1.0802 -0.8913  0.4916
  272MOL0     H37526   4.827   3.539   1.030 -1.6119 -0.0430  1.1863
  272MOL0     H37527   4.858   3.594   1.202  2.3917 -4.1870  1.8933
  272MOL0     H37528   5.041   3.420   1.036 -0.7308 -1.8023  0.1877
  272MOL0     H37529   5.058   3.484   1.202  2.2869 -1.3326 -2.3213
  272MOL0     H37530   4.982   3.244   1.177 -2.3975 -1.2895 -1.8692
  272MOL0     H37531   4.828   3.306   1.111  1.4733  0.6313 -3.2511
  272MOL0     H37532   4.786   3.398   1.523 -1.8381 -0.2369  0.1950
  272MOL0     H37533   5.076   3.948   0.982 -1.2962 -2.6564 -2.3960
  272MOL0     H37534   5.338   4.148   0.878  0.1118 -0.6575 -0.2480
  272MOL0     H37535   5.283   4.065   0.738  0.8123  2.1488 -0.3477
  272MOL0     H37536   5.168   4.117   0.852  0.1487 -1.4619 -0.6385
  273MOL0     O37537   2.926   7.013   9.078  0.4691  0.7093 -0.2657
  273MOL0     C37538   2.817   6.962   9.054  0.6349 -0.3043  0.4154
  273MOL0     O37539   2.795   6.825   9.056  0.9249  0.6483  0.2441
  273MOL0     C37540   2.895   6.747   9.024 -0.2597  0.5613  0.4344
  273MOL0     C37541   2.978   6.702   9.124 -0.2077  1.0523 -0.2139
  273MOL0     C37542   3.085   6.608   9.094 -0.0197  0.1481 -0.4290
  273MOL0     C37543   3.108   6.578   8.960  0.7631 -0.0734  0.0159
  273MOL0     O37544   3.201   6.493   8.908  0.1579  0.5521 -0.6966
  273MOL0     C37545   3.267   6.405   9.009  0.1187 -0.8264  0.1045
  273MOL0     C37546   3.354   6.303   8.938 -0.6286  0.3640  0.4048
  273MOL0     C37547   3.384   6.177   9.023 -0.3258 -0.1740 -0.3305
  273MOL0     C37548   3.485   6.079   8.961 -0.1111  0.0436  0.4683
  273MOL0     C37549   3.523   5.959   9.052 -0.5245  0.3652 -0.2135
  273MOL0     C37550   3.671   5.919   9.029  0.5470  0.0908  0.0666
  273MOL0     C37551   3.743   5.852   9.149  0.5989 -0.2048 -0.3119
  273MOL0     C37552   3.883   5.801   9.107 -0.5449 -0.1638 -0.0257
  273MOL0     N37553   3.864   5.662   9.072 -0.0543  0.0285  0.0006
  273MOL0     C37554   3.813   5.609   8.950 -0.2872  0.1244  0.0848
  273MOL0     C37555   3.832   5.474   8.966 -0.1395  0.9803 -0.8058
  273MOL0     C37556   3.799   5.362   8.869 -0.9986  0.0152 -0.7239
  273MOL0     C37557   3.918   5.341   8.784 -0.5269  0.7921 -0.2079
  273MOL0     C37558   3.952   5.466   8.700  0.5212  0.3986  0.5685
  273MOL0     C37559   4.041   5.432   8.588 -0.3283 -0.1149  0.2233
  273MOL0     O37560   4.095   5.547   8.522  0.1086 -0.5324 -0.2672
  273MOL0     C37561   4.203   5.622   8.569  0.3558  0.0944  0.0015
  273MOL0     C37562   4.248   5.730   8.493 -0.5731  0.2526  0.0429
  273MOL0     C37563   4.360   5.814   8.522  0.0966 -0.4770  0.4200
  273MOL0     C37564   4.382   5.919   8.412 -0.0097 -0.0109 -0.1941
  273MOL0     C37565   4.442   5.784   8.635  1.1714 -0.5339 -0.5040
  273MOL0     C37566   4.540   5.866   8.695 -0.5580 -0.2767  0.4242
  273MOL0     O37567   4.594   5.966   8.615  0.0444  0.5874  0.4158
  273MOL0     C37568   4.671   6.069   8.669  0.1537  1.0107  0.5334
  273MOL0     C37569   4.772   6.115   8.588  0.1811 -0.0374  0.5159
  273MOL0     C37570   4.846   6.218   8.630 -0.5437  1.1195  0.0233
  273MOL0     C37571   4.823   6.290   8.753 -1.4921 -0.7215  0.4977
  273MOL0     O37572   4.906   6.396   8.785 -0.1492 -0.0681 -0.1768
  273MOL0     C37573   4.931   6.435   8.921 -0.0487 -0.7630  0.9759
  273MOL0     C37574   5.056   6.522   8.932  0.3607  0.2326  0.3779
  273MOL0     C37575   5.172   6.422   8.914  0.3053  0.2208 -0.2248
  273MOL0     C37576   5.297   6.488   8.859 -0.3093  0.1095  1.0569
  273MOL0     C37577   5.278   6.514   8.700  0.7644 -0.3424 -0.6505
  273MOL0     C37578   5.419   6.541   8.636  1.3919  0.2850 -0.7247
  273MOL0     C37579   5.404   6.583   8.488  0.0972  0.2498 -0.3381
  273MOL0     C37580   5.532   6.650   8.419  0.5121 -0.3250  0.5900
  273MOL0    Cl37581   5.567   6.817   8.492 -0.2318 -0.1422  0.5080
  273MOL0     C37582   4.726   6.239   8.844  0.8409  1.7043  0.2178
  273MOL0     C37583   4.649   6.129   8.796  0.9018 -1.0715  0.3433
  273MOL0     O37584   4.575   5.844   8.809  0.5349 -0.1165 -0.1391
  273MOL0     C37585   4.399   5.669   8.707  0.5216 -0.2211 -0.6477
  273MOL0     C37586   4.280   5.593   8.677  0.0947  0.6716 -0.6074
  273MOL0     N37587   3.903   5.448   9.083  0.3005  0.3622  1.3123
  273MOL0     N37588   3.921   5.560   9.148  0.2770 -0.2274 -0.6589
  273MOL0     C37589   3.018   6.617   8.863 -0.3846  0.0966  0.0423
  273MOL0     C37590   2.915   6.707   8.891  0.9638  0.1331  0.2169
  273MOL0     C37591   2.701   7.054   9.047 -0.4348  0.3501  0.2827
  273MOL0     C37592   2.573   6.995   9.065  0.0348 -0.5946  1.2309
  273MOL0     C37593   2.452   7.071   9.072  0.6144 -0.4907  0.2594
  273MOL0     C37594   2.450   7.208   9.052  0.2964 -0.5953 -1.0420
  273MOL0     O37595   2.337   7.284   9.064 -0.6219  0.5404 -0.0326
  273MOL0     C37596   2.259   7.244   9.181  0.0357  0.3489 -0.3956
  273MOL0     C37597   2.115   7.209   9.142  0.1684  0.5008 -0.3783
  273MOL0     C37598   2.091   7.079   9.066 -0.5477 -0.6375 -0.7585
  273MOL0     C37599   1.945   7.035   9.028 -0.6269 -0.1445 -0.3751
  273MOL0     C37600   1.881   6.963   9.137 -0.0965  0.5966 -0.4229
  273MOL0     C37601   1.817   6.907   9.221  0.8802  0.2306  0.1379
  273MOL0     C37602   2.573   7.271   9.036 -0.5465  0.8295  0.3844
  273MOL0     C37603   2.698   7.197   9.031 -0.6326  0.1156 -0.1621
  273MOL0     C37604   2.814   7.285   9.025  0.6519 -0.1507  0.4764
  273MOL0     H37605   2.942   6.729   9.223 -1.8141  0.4156 -0.5889
  273MOL0     H37606   3.152   6.565   9.168  2.5385  0.3799 -2.4523
  273MOL0     H37607   3.191   6.353   9.068 -1.2615  2.1571  1.1035
  273MOL0     H37608   3.324   6.463   9.083 -0.5340  0.2701 -0.2491
  273MOL0     H37609   3.297   6.276   8.849 -0.3489 -0.3362  0.4298
  273MOL0     H37610   3.452   6.350   8.925 -0.8768  1.6036  2.4957
  273MOL0     H37611   3.429   6.218   9.114 -1.0127  1.0088 -0.5061
  273MOL0     H37612   3.292   6.120   9.041 -0.2708  0.3026  1.7784
  273MOL0     H37613   3.447   6.045   8.864 -1.6312  0.0501  1.0214
  273MOL0     H37614   3.576   6.135   8.940  0.5961 -0.9477  0.8212
  273MOL0     H37615   3.464   5.872   9.024  0.6202  0.0692 -1.8605
  273MOL0     H37616   3.507   5.981   9.158  2.2663  0.6477  0.2350
  273MOL0     H37617   3.677   5.857   8.939  0.5935  0.8216 -0.4481
  273MOL0     H37618   3.731   6.009   9.009  1.8951 -1.0386 -1.2218
  273MOL0     H37619   3.683   5.766   9.180  0.4242 -0.9846 -2.5790
  273MOL0     H37620   3.766   5.926   9.226  3.2618  0.2215 -1.3749
  273MOL0     H37621   3.922   5.861   9.024 -2.7553  1.1294 -0.1969
  273MOL0     H37622   3.960   5.805   9.184 -0.4189  0.6631 -0.1905
  273MOL0     H37623   3.752   5.650   8.870 -0.5959 -3.8210 -1.9134
  273MOL0     H37624   3.711   5.386   8.809  0.7973 -0.5636 -3.8350
  273MOL0     H37625   3.778   5.271   8.926 -1.4971  1.5684  1.7465
  273MOL0     H37626   4.004   5.313   8.846 -2.0141 -3.6270  0.2513
  273MOL0     H37627   3.909   5.249   8.724  0.4101  2.3633 -2.9381
  273MOL0     H37628   3.862   5.512   8.658  0.4967  2.7018  2.9092
  273MOL0     H37629   3.988   5.553   8.756 -2.1299  2.9207 -1.3202
  273MOL0     H37630   4.118   5.362   8.623 -2.5271 -0.9074  4.0885
  273MOL0     H37631   3.982   5.387   8.508  0.6546  2.9406 -2.4694
  273MOL0     H37632   4.193   5.738   8.399 -2.3231  0.2691  1.0315
  273MOL0     H37633   4.394   6.019   8.454  0.3394 -0.7976  1.6731
  273MOL0     H37634   4.304   5.918   8.335 -2.7407  1.9400  2.2833
  273MOL0     H37635   4.478   5.907   8.362 -0.3449  0.6900 -1.0452
  273MOL0     H37636   4.794   6.077   8.489  1.5575 -0.3444  0.9136
  273MOL0     H37637   4.926   6.249   8.563  0.5765  0.7100  1.1352
  273MOL0     H37638   4.846   6.489   8.965 -0.3549 -0.7353  0.3650
  273MOL0     H37639   4.944   6.346   8.985  0.0722 -0.1813  1.7731
  273MOL0     H37640   5.056   6.596   8.852  0.8858 -0.7462 -0.5531
  273MOL0     H37641   5.067   6.576   9.027  0.7584  2.4499 -0.8412
  273MOL0     H37642   5.143   6.339   8.849 -0.9064 -1.8903  2.7811
  273MOL0     H37643   5.204   6.373   9.006  4.1261  1.4191 -0.7260
  273MOL0     H37644   5.384   6.424   8.875  0.8730  0.2626 -3.4752
  273MOL0     H37645   5.306   6.581   8.914 -4.2086  0.3050  1.6555
  273MOL0     H37646   5.218   6.437   8.650  1.7341 -2.8915  1.8524
  273MOL0     H37647   5.221   6.608   8.705 -0.0496 -0.8920  1.8579
  273MOL0     H37648   5.472   6.446   8.631  0.3019 -0.3375 -0.8122
  273MOL0     H37649   5.475   6.612   8.698  0.3293  0.4567  0.0730
  273MOL0     H37650   5.319   6.652   8.490 -1.5123 -1.6663  0.2877
  273MOL0     H37651   5.374   6.498   8.426 -0.0261 -0.6195  0.8756
  273MOL0     H37652   5.502   6.672   8.316 -0.2225  0.6611  1.0083
  273MOL0     H37653   5.616   6.579   8.418  0.4027 -0.5169 -1.9495
  273MOL0     H37654   4.703   6.273   8.945 -0.1803  2.3339 -0.2005
  273MOL0     H37655   4.579   6.090   8.869 -1.1868  0.0146 -0.9846
  273MOL0     H37656   4.445   5.644   8.802  1.0408  4.4608  0.6086
  273MOL0     H37657   4.251   5.510   8.739  2.0912  0.7626  0.5514
  273MOL0     H37658   3.031   6.586   8.760 -0.8592  0.9873 -0.2913
  273MOL0     H37659   2.849   6.752   8.818 -3.0995 -3.2058  1.4580
  273MOL0     H37660   2.562   6.890   9.092 -1.1382 -0.6726  0.5168
  273MOL0     H37661   2.363   7.013   9.095  0.4024 -0.3468 -0.1842
  273MOL0     H37662   2.306   7.172   9.249  1.8234  0.4017 -1.5101
  273MOL0     H37663   2.250   7.341   9.231  3.1718  0.9530 -0.7609
  273MOL0     H37664   2.057   7.292   9.099  0.3800  0.4811 -0.7059
  273MOL0     H37665   2.066   7.190   9.238 -0.8589 -1.3456 -1.2208
  273MOL0     H37666   2.152   7.092   8.976  0.4198 -3.3083 -0.5723
  273MOL0     H37667   2.136   6.994   9.119  0.6653 -0.0197 -0.7623
  273MOL0     H37668   1.947   6.975   8.936 -0.8027 -0.4815 -0.1617
  273MOL0     H37669   1.887   7.122   8.998 -2.9412 -1.0130  1.3847
  273MOL0     H37670   1.751   6.870   9.297  2.5639  2.1954  2.7104
  273MOL0     H37671   2.577   7.379   9.033  0.0824  0.7839 -1.1534
  273MOL0     H37672   2.892   7.255   8.954  0.1932 -1.4510  0.4908
  273MOL0     H37673   2.785   7.383   8.988  3.2641  0.4119 -0.3296
  273MOL0     H37674   2.852   7.299   9.127 -0.4753 -3.7301  1.5590
  274MOL0     O37675   7.296   3.859   4.068 -0.5737 -0.5959  0.3307
  274MOL0     C37676   7.235   3.964   4.029 -0.0725  0.2681 -0.3676
  274MOL0     O37677   7.277   4.054   3.934  0.1273  0.4043 -0.2003
  274MOL0     C37678   7.409   4.066   3.910 -0.2375  0.0294 -0.0287
  274MOL0     C37679   7.502   4.051   4.012 -0.1955  0.9530 -0.1820
  274MOL0     C37680   7.638   4.075   3.984  0.0662  0.0834  0.5214
  274MOL0     C37681   7.682   4.119   3.863  0.4441  0.5225 -0.2832
  274MOL0     O37682   7.813   4.137   3.834  0.2980  0.2851 -0.0244
  274MOL0     C37683   7.885   4.012   3.826 -0.0749  0.4383  0.1166
  274MOL0     C37684   8.007   4.028   3.736 -0.2471  0.1474 -0.6313
  274MOL0     C37685   8.065   3.893   3.725 -0.4385  0.1589 -0.0598
  274MOL0     C37686   8.203   3.887   3.784  0.1007  0.3793  0.7359
  274MOL0     C37687   8.292   3.766   3.741  0.0372  0.1894  0.2952
  274MOL0     C37688   8.418   3.745   3.831 -0.3299  0.6254 -0.4297
  274MOL0     C37689   8.511   3.860   3.851 -0.0044  0.3886 -0.2508
  274MOL0     C37690   8.614   3.846   3.964 -0.1641  0.1149 -0.4773
  274MOL0     N37691   8.730   3.753   3.943  0.1905  0.3462 -0.5737
  274MOL0     C37692   8.837   3.737   4.033 -0.0034 -0.6828  0.4072
  274MOL0     C37693   8.905   3.622   3.998  0.4999  0.6020  0.7886
  274MOL0     C37694   9.021   3.566   4.086  0.6046 -0.4866 -0.4830
  274MOL0     C37695   9.169   3.594   4.039  0.5810 -0.4373 -0.2093
  274MOL0     C37696   9.199   3.519   3.910 -0.2927 -1.1843  0.2257
  274MOL0     C37697   9.350   3.524   3.877 -0.4803 -0.1947 -0.3274
  274MOL0     O37698   9.396   3.662   3.890  0.3329  0.1514  0.1762
  274MOL0     C37699   9.532   3.686   3.893  0.9583 -1.3394 -0.5022
  274MOL0     C37700   9.580   3.810   3.940 -0.3975 -0.3095 -0.2462
  274MOL0     C37701   9.717   3.833   3.952  0.4860  0.5783  0.0735
  274MOL0     C37702   9.773   3.958   4.028  0.2693  0.3079 -0.3758
  274MOL0     C37703   9.797   3.721   3.921 -1.2796 -0.2887 -1.0411
  274MOL0     C37704   9.945   3.732   3.921  0.1071  0.0453  0.1836
  274MOL0     O37705   9.990   3.845   3.857  0.4855  0.2955 -0.0111
  274MOL0     C37706  10.125   3.869   3.882 -0.1408 -0.6428 -0.1743
  274MOL0     C37707  10.227   3.844   3.790 -0.5961 -0.6936 -0.1871
  274MOL0     C37708  10.354   3.898   3.816 -0.0180 -0.5244 -0.0412
  274MOL0     C37709  10.384   3.952   3.945  0.2879  0.0577  0.2970
  274MOL0     O37710  10.508   4.013   3.961  0.1463  0.3318  0.0753
  274MOL0     C37711  10.548   4.079   4.079 -0.0970 -0.3264 -1.1336
  274MOL0     C37712  10.690   4.139   4.075 -0.0529  0.1081  0.2512
  274MOL0     C37713  10.789   4.023   4.090 -0.2604  0.1985 -0.5206
  274MOL0     C37714  10.929   4.078   4.097  0.7081  0.2504  0.3583
  274MOL0     C37715  11.041   3.983   4.114  0.3216 -0.7982 -0.2423
  274MOL0     C37716  11.091   3.975   4.261  0.5762 -0.8839  0.8860
  274MOL0     C37717  11.211   3.893   4.292  0.3176  0.3572  0.5428
  274MOL0     C37718  11.170   3.806   4.414 -0.9551 -0.3785  0.4165
  274MOL0    Cl37719  11.313   3.726   4.489  0.0851 -0.2099  0.2121
  274MOL0     C37720  10.283   3.965   4.038  0.0312  0.0573 -1.0594
  274MOL0     C37721  10.151   3.938   4.002  0.0084  0.1519 -0.0012
  274MOL0     O37722  10.015   3.652   3.988 -0.4366  0.1138 -0.2593
  274MOL0     C37723   9.752   3.597   3.866 -0.3632 -0.3177 -0.7712
  274MOL0     C37724   9.614   3.583   3.858 -0.8436 -0.0435 -0.4464
  274MOL0     N37725   8.845   3.577   3.882 -0.7607  0.1981  0.6213
  274MOL0     N37726   8.744   3.652   3.843  0.2948 -0.0260 -0.3012
  274MOL0     C37727   7.586   4.134   3.764 -0.5856  0.3913  0.1733
  274MOL0     C37728   7.453   4.106   3.785 -0.6970  0.1602 -0.4537
  274MOL0     C37729   7.087   3.959   4.074 -0.3104  0.7230 -0.0746
  274MOL0     C37730   7.065   3.908   4.203  1.0377  1.0422  0.8860
  274MOL0     C37731   6.934   3.900   4.249  0.0886 -0.4008  0.5681
  274MOL0     C37732   6.821   3.949   4.182  0.0133 -0.2717  0.1430
  274MOL0     O37733   6.704   3.952   4.254  0.6412 -0.0052 -0.1069
  274MOL0     C37734   6.571   3.981   4.208  0.4241  0.4834 -0.5021
  274MOL0     C37735   6.517   3.865   4.129  0.0036 -0.0332  0.5351
  274MOL0     C37736   6.370   3.901   4.076  0.4064  0.0289 -0.1037
  274MOL0     C37737   6.258   3.872   4.182  0.2128  1.0801 -0.3228
  274MOL0     C37738   6.129   3.936   4.144 -0.2351 -0.0990  0.1784
  274MOL0     C37739   6.020   3.972   4.105 -0.0543 -0.6673  0.2433
  274MOL0     C37740   6.844   3.991   4.050 -0.3974 -0.7715  1.3580
  274MOL0     C37741   6.976   4.007   3.997  0.5933 -0.4896  0.1928
  274MOL0     C37742   6.991   4.079   3.868  1.3346 -0.1061 -0.1599
  274MOL0     H37743   7.483   4.015   4.113  0.6403 -1.3099 -0.7641
  274MOL0     H37744   7.708   4.061   4.066 -0.8645 -1.1621  1.1298
  274MOL0     H37745   7.819   3.935   3.786  0.2541 -1.0579  2.2946
  274MOL0     H37746   7.908   3.986   3.930  0.7905  0.0209 -0.1684
  274MOL0     H37747   7.979   4.072   3.640 -1.0441 -0.0901 -0.5122
  274MOL0     H37748   8.074   4.101   3.782  1.2844 -1.6318  0.0836
  274MOL0     H37749   8.004   3.813   3.769 -2.0394  1.4318  0.1433
  274MOL0     H37750   8.079   3.868   3.620  2.2215 -4.1917  1.0831
  274MOL0     H37751   8.255   3.973   3.741  1.0174 -0.8982 -0.8022
  274MOL0     H37752   8.191   3.902   3.892 -1.9938  1.3421  0.4353
  274MOL0     H37753   8.325   3.777   3.638  0.7327  0.3840  0.5294
  274MOL0     H37754   8.225   3.680   3.748  1.6291 -1.3456 -1.9037
  274MOL0     H37755   8.385   3.721   3.932 -2.8104 -1.0329 -1.5221
  274MOL0     H37756   8.472   3.662   3.784 -1.8543 -0.0816 -1.0090
  274MOL0     H37757   8.453   3.950   3.872  0.9168  0.8905  0.1961
  274MOL0     H37758   8.565   3.877   3.757 -0.7104 -0.3152 -0.7968
  274MOL0     H37759   8.663   3.941   3.984  0.4686 -0.8874  3.5498
  274MOL0     H37760   8.568   3.806   4.055 -0.1247  2.8698  0.8590
  274MOL0     H37761   8.858   3.786   4.127  1.8895  0.8067 -0.7100
  274MOL0     H37762   9.012   3.458   4.075  1.3693 -0.6610  0.4619
  274MOL0     H37763   8.988   3.589   4.188 -2.9526 -1.3803 -1.3000
  274MOL0     H37764   9.182   3.702   4.025  1.0649 -0.5851 -0.9404
  274MOL0     H37765   9.236   3.563   4.120  0.9111 -2.2133 -1.1218
  274MOL0     H37766   9.163   3.416   3.914  0.3562 -1.4339 -0.0545
  274MOL0     H37767   9.153   3.571   3.826 -0.3930  1.8021  2.0006
  274MOL0     H37768   9.410   3.465   3.947  1.1701 -0.8339 -2.1936
  274MOL0     H37769   9.366   3.475   3.781  0.9743 -0.9301  0.2574
  274MOL0     H37770   9.512   3.888   3.971  0.7854  0.0866  1.4495
  274MOL0     H37771   9.859   3.941   4.094 -1.5833 -1.1145  1.8372
  274MOL0     H37772   9.696   3.995   4.097  0.1307 -1.0156  0.2148
  274MOL0     H37773   9.799   4.039   3.959  1.4591  1.1079  0.9591
  274MOL0     H37774  10.213   3.798   3.692  2.1897  0.3740 -1.1854
  274MOL0     H37775  10.437   3.890   3.747  3.2944  0.6244  3.4700
  274MOL0     H37776  10.490   4.168   4.103  4.0204  1.8842  1.7896
  274MOL0     H37777  10.540   4.011   4.165 -3.3112 -0.2758 -1.2597
  274MOL0     H37778  10.700   4.172   3.971 -1.6458 -4.0316 -1.4037
  274MOL0     H37779  10.712   4.213   4.152 -0.7271 -1.4724  2.0165
  274MOL0     H37780  10.786   3.953   4.007  0.8021 -0.3343 -0.1309
  274MOL0     H37781  10.772   3.971   4.185 -0.1631  0.3741 -0.4058
  274MOL0     H37782  10.941   4.151   4.178 -1.0604 -1.7352  2.5631
  274MOL0     H37783  10.948   4.130   4.002 -0.1671 -0.9343 -0.4953
  274MOL0     H37784  11.018   3.883   4.078 -4.0070  0.1644 -0.7186
  274MOL0     H37785  11.125   4.030   4.062  0.7942 -2.7756 -1.3696
  274MOL0     H37786  11.002   3.939   4.313  0.4109 -2.9433 -0.7314
  274MOL0     H37787  11.113   4.080   4.284 -1.4466  0.3235 -2.1325
  274MOL0     H37788  11.284   3.963   4.334 -2.7169  3.1999  1.4565
  274MOL0     H37789  11.255   3.835   4.210 -0.7448  1.8522 -1.1571
  274MOL0     H37790  11.109   3.717   4.395 -0.6290 -0.1331 -2.2254
  274MOL0     H37791  11.101   3.855   4.484 -3.6015 -1.8669 -0.9785
  274MOL0     H37792  10.306   4.025   4.125  0.6033 -1.5267 -0.0619
  274MOL0     H37793  10.072   3.970   4.069  2.3131 -0.0549  3.0253
  274MOL0     H37794   9.825   3.520   3.843  2.9312  1.9190  1.3329
  274MOL0     H37795   9.582   3.491   3.811 -1.4792  1.1960 -2.5586
  274MOL0     H37796   7.623   4.169   3.668  0.4265  0.5168  0.5950
  274MOL0     H37797   7.378   4.123   3.708 -1.3854 -0.9942 -0.0721
  274MOL0     H37798   7.136   3.843   4.252  1.0428  0.1320 -0.2751
  274MOL0     H37799   6.915   3.850   4.343 -1.6831  1.1196  1.0854
  274MOL0     H37800   6.506   3.990   4.295  0.9305 -0.7978  0.0383
  274MOL0     H37801   6.555   4.075   4.155 -0.7219  2.5544  3.1585
  274MOL0     H37802   6.517   3.773   4.188  2.4143 -0.2508  0.3154
  274MOL0     H37803   6.585   3.842   4.046  1.6833 -1.5536  2.2279
  274MOL0     H37804   6.368   4.003   4.038 -2.1791  0.0372 -0.0738
  274MOL0     H37805   6.353   3.839   3.987  2.0325 -0.9865  0.2336
  274MOL0     H37806   6.293   3.908   4.280  1.1490 -3.0922  1.0813
  274MOL0     H37807   6.244   3.766   4.205  4.0933  0.9704  2.7692
  274MOL0     H37808   5.920   3.996   4.075 -0.4770 -3.5051 -0.9484
  274MOL0     H37809   6.757   4.028   3.996  2.2582 -0.9986 -3.7535
  274MOL0     H37810   6.893   4.107   3.828  0.7546  0.2930  1.4355
  274MOL0     H37811   7.040   4.170   3.902  1.7067 -0.2255 -0.3761
  274MOL0     H37812   7.042   4.026   3.787  0.8725  1.8749 -1.8308
  275MOL0     O37813   5.207   6.748   4.010 -0.2144 -0.6886 -0.9479
  275MOL0     C37814   5.109   6.709   3.945 -0.0942  0.1859  0.3947
  275MOL0     O37815   5.096   6.711   3.806  0.5078  0.5191 -0.3197
  275MOL0     C37816   5.193   6.740   3.716 -0.4719  0.2839 -0.0275
  275MOL0     C37817   5.321   6.791   3.740 -1.4476  0.1262  0.1139
  275MOL0     C37818   5.406   6.838   3.641  0.2033  0.3660 -0.5510
  275MOL0     C37819   5.367   6.838   3.509  0.1271  0.5688 -0.5113
  275MOL0     O37820   5.469   6.885   3.427  0.2024  0.1402 -0.1100
  275MOL0     C37821   5.452   6.861   3.286 -0.1207  1.0936 -0.7231
  275MOL0     C37822   5.507   6.720   3.263  0.3033  0.8258 -0.1972
  275MOL0     C37823   5.609   6.725   3.156 -0.3631  0.5915 -0.2212
  275MOL0     C37824   5.657   6.577   3.140 -0.4932  0.2471 -0.7666
  275MOL0     C37825   5.791   6.566   3.064  0.3578 -0.9389  0.1558
  275MOL0     C37826   5.913   6.622   3.137  0.4730 -0.4611 -0.5125
  275MOL0     C37827   6.014   6.669   3.025  0.5443 -1.0826 -0.2940
  275MOL0     C37828   6.121   6.756   3.077  0.6443 -0.1890  0.7462
  275MOL0     N37829   6.237   6.677   3.132  0.3654  0.0430  1.1462
  275MOL0     C37830   6.344   6.633   3.062 -0.7458  1.1892  0.0659
  275MOL0     C37831   6.425   6.569   3.143 -0.0153 -0.0126 -0.1222
  275MOL0     C37832   6.559   6.506   3.105  0.6318 -0.5643 -0.8634
  275MOL0     C37833   6.648   6.613   3.033  0.2643  0.1452  0.0969
  275MOL0     C37834   6.760   6.537   2.965 -0.9406  0.2581 -0.1081
  275MOL0     C37835   6.867   6.613   2.883  0.4632 -0.7413  0.7356
  275MOL0     O37836   6.966   6.671   2.969 -0.7837 -0.1042 -0.1202
  275MOL0     C37837   7.080   6.719   2.914 -0.3820 -0.1952  0.1768
  275MOL0     C37838   7.189   6.764   2.994  0.3359  0.2428 -0.5415
  275MOL0     C37839   7.318   6.791   2.947 -0.2032 -0.2810 -0.5320
  275MOL0     C37840   7.413   6.829   3.050  0.2994 -0.6690 -0.2530
  275MOL0     C37841   7.341   6.783   2.804 -0.5065  0.4618  0.0838
  275MOL0     C37842   7.472   6.813   2.741 -0.0957 -0.4229 -0.0148
  275MOL0     O37843   7.476   6.779   2.605 -0.5056 -0.1177 -0.5590
  275MOL0     C37844   7.589   6.794   2.534  0.5886  0.4114  0.5738
  275MOL0     C37845   7.702   6.717   2.572 -0.2779  0.2162  0.0529
  275MOL0     C37846   7.827   6.747   2.524  0.1515 -0.4260 -0.2517
  275MOL0     C37847   7.839   6.846   2.419  0.4720  0.5327  0.0857
  275MOL0     O37848   7.963   6.879   2.362 -0.0358  0.3376 -0.3126
  275MOL0     C37849   8.080   6.805   2.395  0.1560  0.0384 -0.0166
  275MOL0     C37850   8.208   6.840   2.319 -0.4398  0.0179  0.2651
  275MOL0     C37851   8.230   6.995   2.323  0.4519 -0.0690 -0.5581
  275MOL0     C37852   8.349   7.043   2.243 -0.1433  0.5069 -0.1529
  275MOL0     C37853   8.398   7.187   2.277  0.1989  0.0763  0.4600
  275MOL0     C37854   8.544   7.225   2.240  0.2504  0.0926  0.7107
  275MOL0     C37855   8.571   7.189   2.089 -0.3778 -0.4236  0.1882
  275MOL0     C37856   8.689   7.273   2.040  1.0710  0.8199  0.3991
  275MOL0    Cl37857   8.834   7.227   2.135 -0.0667 -0.3191 -0.5419
  275MOL0     C37858   7.730   6.924   2.380 -0.5648  0.1172 -0.4594
  275MOL0     C37859   7.605   6.899   2.439  1.5257  0.1720  0.7547
  275MOL0     O37860   7.564   6.863   2.807 -0.6911  0.3023 -0.8206
  275MOL0     C37861   7.233   6.749   2.724  0.8884 -0.4055  0.0701
  275MOL0     C37862   7.104   6.726   2.774  0.0927  0.5781  0.7556
  275MOL0     N37863   6.363   6.577   3.271 -0.8778 -0.0737  0.0434
  275MOL0     N37864   6.255   6.636   3.262  0.8860 -0.0944  0.4978
  275MOL0     C37865   5.238   6.783   3.479  0.2989 -0.1633 -0.4312
  275MOL0     C37866   5.159   6.736   3.584 -0.2452 -0.3956  0.9292
  275MOL0     C37867   4.998   6.644   4.021 -0.2931  0.9815  0.1557
  275MOL0     C37868   4.924   6.546   3.959  0.0010 -0.4994  0.2841
  275MOL0     C37869   4.798   6.499   4.006  0.1947 -0.6554 -0.0711
  275MOL0     C37870   4.751   6.542   4.128  0.5110 -0.6169  0.2767
  275MOL0     O37871   4.634   6.488   4.163  0.1857 -0.3054 -0.1942
  275MOL0     C37872   4.539   6.576   4.239 -0.3820 -0.6216 -0.0663
  275MOL0     C37873   4.426   6.627   4.142 -0.6347 -0.1352 -0.1419
  275MOL0     C37874   4.469   6.709   4.019 -0.3818 -0.8065 -0.3092
  275MOL0     C37875   4.383   6.692   3.895 -0.8883 -0.3503 -0.0513
  275MOL0     C37876   4.241   6.742   3.918 -0.3258  0.2159  0.0833
  275MOL0     C37877   4.135   6.805   3.932 -0.0094 -0.8391  0.3718
  275MOL0     C37878   4.820   6.644   4.198 -1.1224  0.5004  0.5041
  275MOL0     C37879   4.954   6.684   4.150 -0.3073 -0.1907  0.0014
  275MOL0     C37880   5.024   6.794   4.232 -0.3296  0.4393 -0.0202
  275MOL0     H37881   5.372   6.794   3.836  3.7008 -1.5987 -2.1830
  275MOL0     H37882   5.507   6.872   3.663  0.7540 -0.8071 -1.1522
  275MOL0     H37883   5.521   6.929   3.235 -0.6190  2.0102 -0.1956
  275MOL0     H37884   5.352   6.879   3.245 -0.2040  1.0751 -0.5291
  275MOL0     H37885   5.558   6.682   3.352 -0.1677 -2.0228 -1.0397
  275MOL0     H37886   5.430   6.650   3.230  1.2913  0.1511 -1.1192
  275MOL0     H37887   5.569   6.760   3.060 -1.9827  0.1577  0.2768
  275MOL0     H37888   5.693   6.788   3.186  1.2100 -1.4685 -0.0736
  275MOL0     H37889   5.680   6.538   3.240  1.2196 -2.2880 -2.0200
  275MOL0     H37890   5.587   6.509   3.092  2.2966 -2.4803 -1.3482
  275MOL0     H37891   5.780   6.638   2.982  1.0153 -0.4050  0.5286
  275MOL0     H37892   5.803   6.464   3.028 -0.3211  0.1509 -3.6525
  275MOL0     H37893   5.887   6.709   3.199  0.7040 -0.7026 -0.0703
  275MOL0     H37894   5.956   6.543   3.199  0.6656 -1.8488 -2.3293
  275MOL0     H37895   5.966   6.740   2.957  2.1436 -1.2154 -1.6201
  275MOL0     H37896   6.051   6.579   2.975  0.8704 -0.3319 -1.4316
  275MOL0     H37897   6.156   6.806   2.986 -1.0913 -0.8194 -0.3110
  275MOL0     H37898   6.088   6.834   3.148  0.6579  0.2871  0.2376
  275MOL0     H37899   6.371   6.646   2.957  1.7631 -0.9513  0.3326
  275MOL0     H37900   6.549   6.418   3.041  1.0029 -1.1072 -0.1892
  275MOL0     H37901   6.596   6.467   3.200 -0.6114 -1.0926 -0.5883
  275MOL0     H37902   6.591   6.666   2.955  1.1404 -0.4133 -0.9480
  275MOL0     H37903   6.683   6.684   3.108  0.6111  1.8274 -1.5658
  275MOL0     H37904   6.811   6.476   3.040 -2.6802  0.5998  1.4191
  275MOL0     H37905   6.714   6.472   2.889  0.7504 -1.0192 -0.1184
  275MOL0     H37906   6.912   6.538   2.817  1.1868  0.9950 -0.8582
  275MOL0     H37907   6.815   6.688   2.822  0.7513  0.1238  1.5488
  275MOL0     H37908   7.170   6.750   3.101  0.7364 -2.6454 -0.7625
  275MOL0     H37909   7.501   6.765   3.038 -1.2547 -2.8018 -1.0033
  275MOL0     H37910   7.379   6.812   3.153  1.2256  1.1828  0.4150
  275MOL0     H37911   7.442   6.935   3.051  0.1191 -0.6204  0.8811
  275MOL0     H37912   7.690   6.642   2.650 -0.9874  0.1402 -0.1189
  275MOL0     H37913   7.917   6.699   2.560  1.0867  0.7475 -0.9279
  275MOL0     H37914   8.112   6.829   2.496  2.7821 -0.8923 -0.5574
  275MOL0     H37915   8.064   6.697   2.381  4.1766 -0.8549  1.0722
  275MOL0     H37916   8.289   6.777   2.358 -1.2149 -1.6109 -0.6202
  275MOL0     H37917   8.198   6.819   2.212  0.7219  3.6446 -0.6732
  275MOL0     H37918   8.239   7.025   2.428  1.4386  1.0879 -0.9488
  275MOL0     H37919   8.139   7.043   2.288 -0.3270 -1.5442 -0.6158
  275MOL0     H37920   8.308   7.049   2.142 -1.0355 -0.1495  0.1647
  275MOL0     H37921   8.430   6.970   2.234 -0.7190 -0.0559 -0.8324
  275MOL0     H37922   8.333   7.262   2.230 -0.8051 -0.3261  1.1880
  275MOL0     H37923   8.403   7.204   2.385 -0.8705  0.6173  0.4380
  275MOL0     H37924   8.611   7.175   2.310  0.4871  1.2816  1.3656
  275MOL0     H37925   8.549   7.332   2.264 -0.5808  0.5821 -1.1169
  275MOL0     H37926   8.489   7.200   2.017  2.3787 -1.3727 -3.3929
  275MOL0     H37927   8.600   7.084   2.082  0.8735 -0.1132  0.4939
  275MOL0     H37928   8.667   7.380   2.038  0.4210  0.6839  0.1990
  275MOL0     H37929   8.705   7.248   1.935 -1.6208  2.8558 -0.5916
  275MOL0     H37930   7.739   7.006   2.310  1.7663  0.4968  0.2129
  275MOL0     H37931   7.523   6.964   2.412  2.0626  1.4326  1.9628
  275MOL0     H37932   7.231   6.751   2.616  2.1147 -1.4211  0.0043
  275MOL0     H37933   7.020   6.695   2.712 -0.3440 -0.4784  1.8305
  275MOL0     H37934   5.215   6.761   3.375  2.6302 -0.9736 -0.8396
  275MOL0     H37935   5.062   6.697   3.556  0.0515 -0.5488  0.0882
  275MOL0     H37936   4.955   6.521   3.859  0.9461 -0.1003  0.4660
  275MOL0     H37937   4.736   6.445   3.935  0.6873  1.2330 -2.0653
  275MOL0     H37938   4.486   6.524   4.319  2.1580 -1.1954  1.3561
  275MOL0     H37939   4.594   6.655   4.290  1.6209 -1.6286 -0.5454
  275MOL0     H37940   4.355   6.690   4.196 -0.5318  0.4129 -0.6410
  275MOL0     H37941   4.367   6.545   4.101 -0.3796  0.0872 -0.9654
  275MOL0     H37942   4.488   6.814   4.042  1.0085 -1.3775  1.3886
  275MOL0     H37943   4.568   6.669   3.993 -0.3536 -1.3243  0.5712
  275MOL0     H37944   4.398   6.591   3.856 -0.7797  0.0874 -1.1865
  275MOL0     H37945   4.426   6.752   3.814 -3.3991  0.7275 -0.6927
  275MOL0     H37946   4.048   6.863   3.954  0.5734  0.7975 -1.3183
  275MOL0     H37947   4.796   6.681   4.296  0.7102 -1.5745  1.8427
  275MOL0     H37948   5.022   6.892   4.183 -0.1161  1.4040  1.7854
  275MOL0     H37949   4.967   6.818   4.322 -1.1827 -1.5921  0.0334
  275MOL0     H37950   5.127   6.762   4.252 -1.0328 -1.9607 -0.0444
  276MOL0     O37951  10.778   3.530   6.656 -0.6970  0.6676 -0.8118
  276MOL0     C37952  10.720   3.561   6.762  0.3996  0.4002 -0.1735
  276MOL0     O37953  10.715   3.685   6.813  0.8027 -0.1862 -0.2045
  276MOL0     C37954  10.821   3.771   6.814 -0.3785 -0.8756  0.0847
  276MOL0     C37955  10.805   3.897   6.860 -1.1553 -0.2631  0.0423
  276MOL0     C37956  10.914   3.989   6.878  0.9860 -0.3816  0.3964
  276MOL0     C37957  11.046   3.947   6.837  1.0895  0.4194  0.1652
  276MOL0     O37958  11.165   4.020   6.850  0.3179  1.0019  0.3944
  276MOL0     C37959  11.153   4.144   6.918  0.5728 -0.2941 -0.3168
  276MOL0     C37960  11.292   4.221   6.920  0.3255  0.1323 -0.2075
  276MOL0     C37961  11.400   4.161   7.014  0.7392 -0.8981  0.1048
  276MOL0     C37962  11.542   4.223   6.977  0.7009 -0.4824 -0.8474
  276MOL0     C37963  11.663   4.185   7.066  0.8689 -0.0393 -0.8378
  276MOL0     C37964  11.658   4.041   7.119  0.1977 -0.9050  0.0894
  276MOL0     C37965  11.792   3.999   7.167 -0.4587  0.0883 -1.1338
  276MOL0     C37966  11.847   4.092   7.280  0.0729 -0.0786 -0.1715
  276MOL0     N37967  11.942   4.190   7.226  0.4552  0.4414 -0.0667
  276MOL0     C37968  12.068   4.157   7.192 -0.1251  0.0439 -2.0363
  276MOL0     C37969  12.141   4.276   7.186 -0.6340 -0.0297  0.3726
  276MOL0     C37970  12.292   4.280   7.176 -0.7001 -0.4689 -0.4122
  276MOL0     C37971  12.343   4.233   7.039  0.6462 -0.6651 -0.3177
  276MOL0     C37972  12.319   4.335   6.923 -0.1646  0.1351 -0.1908
  276MOL0     C37973  12.356   4.282   6.789  0.8862  0.2858  0.4034
  276MOL0     O37974  12.323   4.144   6.758 -0.7319  0.1078 -0.2158
  276MOL0     C37975  12.190   4.112   6.756 -1.0065  0.0027  0.4835
  276MOL0     C37976  12.091   4.204   6.744 -0.3568  0.2395 -0.3785
  276MOL0     C37977  11.961   4.164   6.750  0.0759 -0.6774 -0.1575
  276MOL0     C37978  11.869   4.279   6.696 -0.5052  1.5487 -0.6212
  276MOL0     C37979  11.930   4.022   6.766  0.4316  0.5242  0.0968
  276MOL0     C37980  11.789   3.970   6.758  0.5246 -0.2533 -0.3618
  276MOL0     O37981  11.780   3.843   6.809  0.4338  0.5829  0.2832
  276MOL0     C37982  11.671   3.774   6.751 -0.1004 -0.1149 -0.6098
  276MOL0     C37983  11.698   3.689   6.650 -0.5367  0.1368  0.1260
  276MOL0     C37984  11.603   3.612   6.584 -0.0034 -0.0269  0.4023
  276MOL0     C37985  11.474   3.613   6.638  0.0741  0.0239  0.0158
  276MOL0     O37986  11.379   3.525   6.577 -0.5236  0.1108  0.0432
  276MOL0     C37987  11.239   3.527   6.612 -0.1954  0.6310 -0.4453
  276MOL0     C37988  11.209   3.383   6.639  0.5676 -0.0021  0.0863
  276MOL0     C37989  11.060   3.368   6.645  0.2953  0.2269  0.2857
  276MOL0     C37990  11.015   3.219   6.638 -0.1775 -0.1713 -0.8314
  276MOL0     C37991  10.864   3.209   6.639  0.2338 -1.0283  0.3891
  276MOL0     C37992  10.819   3.061   6.631  0.7951 -0.8153 -0.6214
  276MOL0     C37993  10.794   3.010   6.496 -0.5816 -0.6318 -0.5107
  276MOL0     C37994  10.714   2.874   6.500 -0.1844 -0.0366  0.1573
  276MOL0    Cl37995  10.812   2.755   6.582 -0.2303 -0.0149  0.1286
  276MOL0     C37996  11.436   3.702   6.739  0.3074 -0.4157 -0.2691
  276MOL0     C37997  11.531   3.790   6.790  0.2807  0.7153  0.1015
  276MOL0     O37998  11.693   4.033   6.707 -0.2249 -0.1113 -0.9107
  276MOL0     C37999  12.039   3.937   6.784  1.2810  0.1787 -0.2821
  276MOL0     C38000  12.168   3.989   6.786  0.7527  1.7480 -0.3429
  276MOL0     N38001  12.048   4.375   7.192 -0.4769 -0.8163  0.2334
  276MOL0     N38002  11.931   4.324   7.218 -0.2889 -0.0758  0.1657
  276MOL0     C38003  11.061   3.824   6.779 -0.1452  0.0196 -0.0727
  276MOL0     C38004  10.955   3.735   6.769  0.2033  0.8679 -1.0315
  276MOL0     C38005  10.624   3.458   6.815 -0.5304 -1.1715 -0.0434
  276MOL0     C38006  10.559   3.369   6.731 -0.2424 -0.7380 -1.6648
  276MOL0     C38007  10.460   3.274   6.780 -0.3404 -0.1546 -0.3493
  276MOL0     C38008  10.438   3.266   6.917 -0.4119 -0.9946  0.0019
  276MOL0     O38009  10.343   3.182   6.973 -0.0263 -0.3959 -0.0536
  276MOL0     C38010  10.282   3.070   6.907  0.1123 -0.5135 -0.1575
  276MOL0     C38011  10.176   3.002   6.997  0.2433  0.0638  0.6180
  276MOL0     C38012  10.103   2.895   6.917  0.2690 -0.0422  0.4642
  276MOL0     C38013  10.015   2.800   6.994 -0.2934  0.2014  0.7573
  276MOL0     C38014   9.923   2.870   7.076 -0.1071 -0.1314 -0.0124
  276MOL0     C38015   9.846   2.936   7.142 -0.4247  0.2927 -0.2538
  276MOL0     C38016  10.514   3.345   7.005 -0.4358  1.0525 -0.0509
  276MOL0     C38017  10.610   3.435   6.957  0.7555 -1.1622  0.0074
  276MOL0     C38018  10.691   3.505   7.063  0.3557 -0.1320 -0.3346
  276MOL0     H38019  10.706   3.920   6.898 -0.5777  1.2863  0.6866
  276MOL0     H38020  10.898   4.090   6.915  0.4811  0.4618 -1.9434
  276MOL0     H38021  11.118   4.133   7.021 -0.3653 -0.4887 -0.6475
  276MOL0     H38022  11.077   4.202   6.867 -1.6798 -1.7814  1.1772
  276MOL0     H38023  11.318   4.203   6.816  0.2811 -1.9357  0.0891
  276MOL0     H38024  11.280   4.330   6.922  4.1205  0.7403 -1.8401
  276MOL0     H38025  11.371   4.189   7.116  1.2079  0.8768 -0.2100
  276MOL0     H38026  11.400   4.052   7.012 -1.1736 -1.0274  2.5406
  276MOL0     H38027  11.556   4.177   6.879 -0.3293  0.1540 -1.3105
  276MOL0     H38028  11.539   4.331   6.962  0.3585 -0.1212  1.3709
  276MOL0     H38029  11.676   4.262   7.143  1.1315  1.2185 -2.0933
  276MOL0     H38030  11.747   4.195   6.996  0.4859 -2.1624 -1.6702
  276MOL0     H38031  11.584   4.031   7.198  0.3471 -2.4798  0.0734
  276MOL0     H38032  11.638   3.976   7.033  0.6655  0.2298 -0.9183
  276MOL0     H38033  11.869   3.986   7.090 -0.4888 -4.3634 -0.6510
  276MOL0     H38034  11.780   3.897   7.204  2.1206 -0.1849 -0.8778
  276MOL0     H38035  11.760   4.133   7.332 -0.3806 -1.5129  0.2572
  276MOL0     H38036  11.901   4.031   7.353 -1.8123  0.4318  1.7331
  276MOL0     H38037  12.107   4.057   7.202 -1.0916 -0.0726  2.0556
  276MOL0     H38038  12.340   4.229   7.260  0.7130 -1.2814 -1.6584
  276MOL0     H38039  12.319   4.383   7.201 -0.3367 -0.5814 -0.3462
  276MOL0     H38040  12.450   4.211   7.048  0.4363 -1.3756  0.7042
  276MOL0     H38041  12.291   4.140   7.014  2.0024 -1.2774 -0.9724
  276MOL0     H38042  12.216   4.371   6.926 -0.6312 -1.0294 -1.2506
  276MOL0     H38043  12.373   4.427   6.947 -1.1230  0.8689 -0.7939
  276MOL0     H38044  12.320   4.341   6.705  2.3608 -1.3176 -1.4561
  276MOL0     H38045  12.464   4.286   6.773  0.8773 -2.0032 -0.5327
  276MOL0     H38046  12.108   4.310   6.726  3.2277  0.1294  1.5733
  276MOL0     H38047  11.896   4.382   6.721  1.3113  1.0793 -0.5493
  276MOL0     H38048  11.769   4.265   6.740 -0.7199  0.1297 -1.4942
  276MOL0     H38049  11.868   4.279   6.587  1.5603  1.4351 -0.6750
  276MOL0     H38050  11.799   3.688   6.610 -0.5168 -0.8159  0.1909
  276MOL0     H38051  11.623   3.551   6.496  1.0611  0.8192  0.0391
  276MOL0     H38052  11.200   3.568   6.706 -4.2519 -0.9112 -1.2400
  276MOL0     H38053  11.175   3.561   6.529  0.9015  0.3768 -1.4081
  276MOL0     H38054  11.254   3.311   6.569 -0.1681 -0.7353  0.3427
  276MOL0     H38055  11.241   3.357   6.741 -1.9705  0.3838  1.0400
  276MOL0     H38056  11.001   3.415   6.566 -0.8053 -1.6145 -0.0467
  276MOL0     H38057  11.015   3.416   6.733 -0.9225 -0.6169  0.1381
  276MOL0     H38058  11.060   3.174   6.727 -0.2958 -0.6377 -1.0016
  276MOL0     H38059  11.061   3.175   6.549 -1.0196 -1.4656 -0.6480
  276MOL0     H38060  10.823   3.264   6.724  1.0513  1.3877 -0.6958
  276MOL0     H38061  10.833   3.254   6.545 -1.5933  0.7881  1.7813
  276MOL0     H38062  10.725   3.049   6.684  1.5551  0.1637  1.0225
  276MOL0     H38063  10.897   3.002   6.679 -0.5587  0.0734  2.9922
  276MOL0     H38064  10.884   3.002   6.434 -0.0878 -3.2571  0.4220
  276MOL0     H38065  10.729   3.087   6.452 -2.4405 -1.4072  0.7699
  276MOL0     H38066  10.692   2.836   6.400 -0.7967 -0.7088  0.5430
  276MOL0     H38067  10.619   2.883   6.553  0.2051 -2.7209  1.4621
  276MOL0     H38068  11.348   3.704   6.802  0.1991  0.7441 -0.4303
  276MOL0     H38069  11.504   3.857   6.871 -0.6838 -0.1580  0.5211
  276MOL0     H38070  12.027   3.830   6.791 -0.6740  0.2544 -1.6949
  276MOL0     H38071  12.248   3.920   6.813  0.8158  2.1862  0.6165
  276MOL0     H38072  11.157   3.785   6.746 -2.0424 -4.4666 -0.9200
  276MOL0     H38073  10.986   3.640   6.726  2.5856 -0.7059  3.5422
  276MOL0     H38074  10.575   3.366   6.624 -0.3227  0.8124 -1.7467
  276MOL0     H38075  10.404   3.207   6.716 -3.6208  0.2137  1.9019
  276MOL0     H38076  10.225   3.107   6.822 -3.1096 -0.3094  1.9430
  276MOL0     H38077  10.354   2.999   6.864 -0.0376  0.0345 -1.3490
  276MOL0     H38078  10.094   3.072   7.019 -0.3084 -0.1393 -0.7007
  276MOL0     H38079  10.208   2.955   7.091  0.4393 -1.1184 -0.0161
  276MOL0     H38080  10.036   2.926   6.836 -1.7840 -1.2195  1.6209
  276MOL0     H38081  10.179   2.836   6.865  0.7551  0.2231  0.8729
  276MOL0     H38082  10.080   2.737   7.055  1.0767  2.6404  1.9352
  276MOL0     H38083   9.960   2.743   6.918  2.9621  1.0586 -2.5575
  276MOL0     H38084   9.795   3.019   7.186  1.6647  3.0409 -2.6863
  276MOL0     H38085  10.499   3.325   7.110  1.5916  0.5895  0.1988
  276MOL0     H38086  10.793   3.532   7.035 -0.6526  2.5445 -1.8472
  276MOL0     H38087  10.650   3.606   7.075  3.1386  1.1339 -0.7031
  276MOL0     H38088  10.684   3.454   7.159 -0.2527  1.1189  0.3083
  277MOL0     O38089   6.569   3.199   8.154 -0.2334  0.5360  0.2047
  277MOL0     C38090   6.514   3.233   8.257  0.3608  0.1228  0.1751
  277MOL0     O38091   6.549   3.339   8.339 -0.1015 -0.0829 -0.0863
  277MOL0     C38092   6.647   3.423   8.293  0.0446  0.1833  0.5343
  277MOL0     C38093   6.761   3.436   8.373  1.2162  0.3860 -0.2965
  277MOL0     C38094   6.861   3.526   8.338  0.2749  0.3219 -0.6007
  277MOL0     C38095   6.865   3.577   8.209 -0.2600  0.6604  0.0748
  277MOL0     O38096   6.970   3.642   8.160  0.7541 -0.4437  0.3428
  277MOL0     C38097   7.087   3.660   8.235 -0.6050  0.0777 -0.0840
  277MOL0     C38098   7.195   3.718   8.153 -0.7735  0.6436  0.5635
  277MOL0     C38099   7.332   3.684   8.205 -0.2849  0.3656 -0.3835
  277MOL0     C38100   7.371   3.759   8.337  0.4235  0.0221  0.3166
  277MOL0     C38101   7.516   3.726   8.371 -0.1856  0.1681  0.1210
  277MOL0     C38102   7.553   3.798   8.504  0.7036  1.0991 -0.8285
  277MOL0     C38103   7.702   3.768   8.527  0.5363  0.3105 -0.2549
  277MOL0     C38104   7.746   3.835   8.660  0.9833  0.7225 -0.1948
  277MOL0     N38105   7.714   3.750   8.779 -1.1575 -0.0616  0.5736
  277MOL0     C38106   7.771   3.622   8.799  0.4977 -0.0614 -0.6077
  277MOL0     C38107   7.730   3.579   8.916  0.2050 -0.6783 -0.3553
  277MOL0     C38108   7.775   3.462   8.986  0.3721 -0.5106 -0.3526
  277MOL0     C38109   7.916   3.484   9.045 -0.5638 -0.0620  0.0630
  277MOL0     C38110   7.906   3.565   9.172  0.3399 -0.1187 -0.5628
  277MOL0     C38111   8.042   3.586   9.236 -0.8802 -0.0660 -0.8734
  277MOL0     O38112   8.127   3.679   9.156  0.1484 -0.4519  0.3151
  277MOL0     C38113   8.248   3.705   9.198 -0.1644  0.3947 -0.2436
  277MOL0     C38114   8.304   3.657   9.320 -0.1130 -0.7200 -1.3982
  277MOL0     C38115   8.439   3.688   9.358  0.3922 -0.9035 -0.6825
  277MOL0     C38116   8.493   3.650   9.494  0.7804  0.6470  0.1080
  277MOL0     C38117   8.513   3.778   9.273 -0.3757 -0.0806 -0.2809
  277MOL0     C38118   8.660   3.806   9.286 -0.2238  0.8531  0.1920
  277MOL0     O38119   8.733   3.738   9.382 -0.9025 -0.4931 -0.3147
  277MOL0     C38120   8.835   3.802   9.443  0.5946  0.4281 -0.1642
  277MOL0     C38121   8.850   3.937   9.446 -0.1143  0.1469  0.9551
  277MOL0     C38122   8.962   4.010   9.499 -0.6416  0.1256 -0.3210
  277MOL0     C38123   9.073   3.934   9.555  0.2483 -0.0568 -0.1700
  277MOL0     O38124   9.178   4.007   9.601 -0.6649  0.8678 -0.1180
  277MOL0     C38125   9.246   3.947   9.716 -0.1689  0.2853 -0.2393
  277MOL0     C38126   9.367   4.040   9.742 -0.8849 -0.0401  0.3826
  277MOL0     C38127   9.440   3.995   9.868 -0.3596 -0.5086  0.1782
  277MOL0     C38128   9.597   4.010   9.852  1.6035 -0.4865  0.3212
  277MOL0     C38129   9.674   3.993   9.983  0.4008 -0.2339  0.8355
  277MOL0     C38130   9.828   3.978   9.950 -0.1151  0.1838 -0.2902
  277MOL0     C38131   9.894   3.958  10.088 -0.0307  0.9438  0.0518
  277MOL0     C38132  10.050   3.965  10.085 -0.0101 -0.5206  0.4637
  277MOL0    Cl38133  10.122   3.939  10.250  0.0408  0.1950  0.0150
  277MOL0     C38134   9.052   3.797   9.561 -0.7574  0.2039  1.1752
  277MOL0     C38135   8.938   3.729   9.514  0.1892 -0.3748 -0.4404
  277MOL0     O38136   8.711   3.882   9.199 -0.2568 -0.5563  0.2688
  277MOL0     C38137   8.456   3.821   9.151  1.4280 -0.0029  0.5024
  277MOL0     C38138   8.321   3.792   9.121  0.4064  0.9425  0.0737
  277MOL0     N38139   7.637   3.675   8.962  0.4748 -0.2835 -0.2270
  277MOL0     N38140   7.629   3.774   8.882 -0.0377 -0.0849  0.3741
  277MOL0     C38141   6.755   3.566   8.132  0.2677 -0.0465  0.1206
  277MOL0     C38142   6.647   3.485   8.168 -0.1376 -0.2739 -0.4689
  277MOL0     C38143   6.390   3.158   8.294  1.0116  0.5829  0.5196
  277MOL0     C38144   6.299   3.218   8.382 -1.2605  0.4443  0.2919
  277MOL0     C38145   6.201   3.143   8.441 -0.8147  0.5388  0.1828
  277MOL0     C38146   6.162   3.023   8.391  0.2046 -0.5401 -0.2030
  277MOL0     O38147   6.046   2.961   8.451 -0.5131 -0.3009  0.2906
  277MOL0     C38148   6.022   2.820   8.436  0.5783  0.7221  0.1575
  277MOL0     C38149   5.908   2.771   8.530 -0.0133  0.3776  0.6984
  277MOL0     C38150   5.950   2.792   8.674  0.6931  0.1458 -0.5418
  277MOL0     C38151   5.833   2.857   8.766 -1.0951  0.1576 -0.1344
  277MOL0     C38152   5.701   2.792   8.774  0.7319  0.0535  0.4487
  277MOL0     C38153   5.599   2.737   8.791 -1.0338  0.2924 -0.5239
  277MOL0     C38154   6.237   2.959   8.297  0.8661 -1.0329  0.4313
  277MOL0     C38155   6.354   3.022   8.247 -0.2223 -0.6883  0.0997
  277MOL0     C38156   6.430   2.943   8.139  0.3771  0.0726  0.6537
  277MOL0     H38157   6.775   3.375   8.462  1.7549 -0.5203 -0.9852
  277MOL0     H38158   6.931   3.566   8.410 -0.5394  0.5342  0.0812
  277MOL0     H38159   7.109   3.563   8.280 -1.2517  0.7672  1.7983
  277MOL0     H38160   7.064   3.728   8.317 -3.1637  1.0077 -1.4812
  277MOL0     H38161   7.192   3.682   8.049 -1.3404  2.8104 -0.2179
  277MOL0     H38162   7.183   3.825   8.133  3.4213  1.0509 -0.8475
  277MOL0     H38163   7.329   3.577   8.229 -0.2417  0.8793  2.2788
  277MOL0     H38164   7.408   3.703   8.129  1.1193 -1.5116  0.4669
  277MOL0     H38165   7.374   3.868   8.326 -0.3043  0.1240  1.0517
  277MOL0     H38166   7.307   3.718   8.415 -0.3741  1.7512  0.6141
  277MOL0     H38167   7.582   3.759   8.291  1.6737 -2.3150  0.5139
  277MOL0     H38168   7.527   3.618   8.390 -2.2827 -0.2709 -0.8630
  277MOL0     H38169   7.524   3.904   8.503 -0.1427  0.9905  1.9255
  277MOL0     H38170   7.509   3.749   8.592  0.6954 -0.2500 -1.5697
  277MOL0     H38171   7.758   3.818   8.447 -0.9995  0.1900 -1.4752
  277MOL0     H38172   7.722   3.661   8.522 -0.4926 -0.0367  2.1056
  277MOL0     H38173   7.855   3.844   8.654  0.8935  1.0557 -1.5838
  277MOL0     H38174   7.704   3.934   8.679  1.6764  1.4217 -2.0015
  277MOL0     H38175   7.849   3.576   8.738 -0.6506 -1.6477 -0.9298
  277MOL0     H38176   7.781   3.375   8.919  5.1071 -0.9042  0.2133
  277MOL0     H38177   7.710   3.442   9.071  1.6622  3.0439  1.6819
  277MOL0     H38178   7.961   3.386   9.065 -0.8532  0.0405  1.3318
  277MOL0     H38179   7.984   3.528   8.972 -0.0388 -1.6623 -0.4592
  277MOL0     H38180   7.853   3.659   9.152  1.2273  0.2514 -1.2300
  277MOL0     H38181   7.855   3.504   9.247 -0.3452  2.1044  0.9009
  277MOL0     H38182   8.021   3.623   9.336  1.6353 -1.2599  0.1846
  277MOL0     H38183   8.085   3.485   9.246 -1.8828 -0.6747 -2.3070
  277MOL0     H38184   8.242   3.611   9.396  3.5879  0.8983  3.0660
  277MOL0     H38185   8.409   3.607   9.551  2.4752 -1.5239  1.1072
  277MOL0     H38186   8.525   3.736   9.553 -1.1099  2.3108 -1.1662
  277MOL0     H38187   8.566   3.569   9.487 -1.2113 -1.2504  0.1897
  277MOL0     H38188   8.759   3.990   9.420  0.6805  1.6208  1.0250
  277MOL0     H38189   8.970   4.118   9.489 -1.7414  0.4228  1.6644
  277MOL0     H38190   9.178   3.931   9.800  0.5672 -1.0952  0.1215
  277MOL0     H38191   9.286   3.848   9.695  0.9947  0.5438  0.6373
  277MOL0     H38192   9.436   4.038   9.657  0.1929  1.7433  1.1494
  277MOL0     H38193   9.334   4.144   9.756 -2.7088 -0.3869 -0.9148
  277MOL0     H38194   9.421   3.891   9.896 -1.0175 -0.9191 -1.5931
  277MOL0     H38195   9.409   4.051   9.956 -4.8125 -1.9980 -0.1968
  277MOL0     H38196   9.608   4.110   9.811 -0.1894  0.4223  1.9055
  277MOL0     H38197   9.635   3.936   9.780  3.0177 -1.7695  2.2814
  277MOL0     H38198   9.655   4.076  10.051 -3.3173  0.0408 -0.3380
  277MOL0     H38199   9.635   3.900  10.025 -0.2396 -0.5897 -0.5027
  277MOL0     H38200   9.859   4.072   9.902 -3.0267  0.4597 -1.8911
  277MOL0     H38201   9.843   3.889   9.889 -2.6314 -0.9515  0.5896
  277MOL0     H38202   9.856   3.864  10.130  0.0345  1.6150  1.6905
  277MOL0     H38203   9.863   4.027  10.167  1.8725  1.5450  0.3175
  277MOL0     H38204  10.073   4.066  10.048 -2.1865 -0.6922 -1.6303
  277MOL0     H38205  10.092   3.894  10.013  2.0262 -0.9346  1.9847
  277MOL0     H38206   9.130   3.728   9.591 -1.0398 -0.1928  1.0117
  277MOL0     H38207   8.938   3.621   9.508 -0.3851 -0.6201  2.6498
  277MOL0     H38208   8.510   3.888   9.085  1.4151 -0.2610  0.2271
  277MOL0     H38209   8.272   3.843   9.039 -0.3869  1.5935  0.9373
  277MOL0     H38210   6.756   3.610   8.033 -2.5136  2.2110  0.9715
  277MOL0     H38211   6.567   3.471   8.096  2.2243 -1.9466 -2.9212
  277MOL0     H38212   6.305   3.323   8.410 -0.0978  0.1004  1.4141
  277MOL0     H38213   6.144   3.181   8.526 -0.8940  0.7466  0.0370
  277MOL0     H38214   6.005   2.800   8.330 -0.7282 -1.2474  0.6948
  277MOL0     H38215   6.112   2.769   8.471 -0.8570 -1.6093  0.6527
  277MOL0     H38216   5.900   2.665   8.505  1.2734  0.5754 -0.6925
  277MOL0     H38217   5.820   2.828   8.499 -0.3672 -0.0862  0.8500
  277MOL0     H38218   5.978   2.693   8.712  0.4925 -0.6151 -2.2889
  277MOL0     H38219   6.039   2.855   8.679  1.2794 -0.3412 -3.0981
  277MOL0     H38220   5.819   2.961   8.739 -2.8998  0.4855  1.8431
  277MOL0     H38221   5.882   2.858   8.864  1.4569 -0.6161 -1.2945
  277MOL0     H38222   5.504   2.697   8.822 -0.4459 -0.1027  0.8110
  277MOL0     H38223   6.207   2.861   8.261 -2.8009 -0.1607  0.7060
  277MOL0     H38224   6.534   2.921   8.163  0.0459 -2.9992 -0.2623
  277MOL0     H38225   6.379   2.849   8.115 -1.0288  1.5858 -3.0500
  277MOL0     H38226   6.427   2.980   8.036 -1.5048 -2.5066 -0.3381
  278MOL0     O38227   3.900   8.998   9.232  0.4072 -0.1252  0.2064
  278MOL0     C38228   3.904   9.039   9.346 -0.2721 -0.1232 -0.3313
  278MOL0     O38229   3.892   8.961   9.462 -0.7115 -0.4084 -0.1614
  278MOL0     C38230   3.920   8.824   9.461 -0.4873 -0.2959  0.7491
  278MOL0     C38231   4.007   8.761   9.372 -0.2270  0.0055 -0.5851
  278MOL0     C38232   4.045   8.632   9.381 -0.4485 -0.2133 -0.2331
  278MOL0     C38233   3.986   8.545   9.477 -1.3464 -0.0721  0.0276
  278MOL0     O38234   4.023   8.405   9.483  0.8307  0.1645 -0.3434
  278MOL0     C38235   3.937   8.311   9.542 -0.0661  0.0584  0.8057
  278MOL0     C38236   3.995   8.174   9.506 -0.2238 -0.8164 -0.7541
  278MOL0     C38237   4.123   8.145   9.580 -0.0085  0.9230  0.0683
  278MOL0     C38238   4.150   7.994   9.597 -0.6777  1.2031  0.5651
  278MOL0     C38239   4.300   7.972   9.633  1.0488  0.0933  0.3942
  278MOL0     C38240   4.332   8.041   9.754  1.1103  0.0073 -1.1057
  278MOL0     C38241   4.471   8.027   9.802  0.3794  0.4668 -0.4925
  278MOL0     C38242   4.560   8.132   9.739  0.1194 -0.4432  0.1508
  278MOL0     N38243   4.690   8.144   9.808  0.4660  0.0120  0.5133
  278MOL0     C38244   4.729   8.252   9.880  0.4986 -0.6321  0.3478
  278MOL0     C38245   4.853   8.232   9.908 -0.1739 -0.4469  0.4193
  278MOL0     C38246   4.950   8.305  10.005  0.1750 -0.4062 -0.2098
  278MOL0     C38247   5.101   8.307   9.972 -0.6051 -0.0909 -0.0412
  278MOL0     C38248   5.187   8.384  10.070 -0.2963 -0.1729  0.0601
  278MOL0     C38249   5.333   8.349  10.058  0.6749 -0.2951 -0.0184
  278MOL0     O38250   5.397   8.437   9.967 -0.4278  0.4303  0.6713
  278MOL0     C38251   5.532   8.447   9.955 -0.2930  0.3785  0.0184
  278MOL0     C38252   5.613   8.354  10.017 -0.4340  0.1979  0.2527
  278MOL0     C38253   5.752   8.377  10.017  0.6775 -0.2281  0.0710
  278MOL0     C38254   5.822   8.270  10.103 -0.3313  0.7850  0.2224
  278MOL0     C38255   5.811   8.487   9.955  0.1156  0.2513  0.8069
  278MOL0     C38256   5.961   8.526   9.958  0.4107  0.4135 -0.6536
  278MOL0     O38257   6.036   8.453  10.046  0.3131  0.0576  0.5016
  278MOL0     C38258   6.169   8.442  10.019 -0.6424  0.6904  0.4755
  278MOL0     C38259   6.227   8.436   9.893  0.1139  0.3863  0.1004
  278MOL0     C38260   6.371   8.417   9.872  1.1915 -0.6980  0.4065
  278MOL0     C38261   6.449   8.404   9.985  0.3266  0.6196  0.0375
  278MOL0     O38262   6.585   8.378   9.977  0.0506  0.7038  0.9563
  278MOL0     C38263   6.649   8.373   9.849 -1.1163  0.2341  0.6223
  278MOL0     C38264   6.803   8.330   9.858  0.6331  0.4205  0.3185
  278MOL0     C38265   6.875   8.417   9.962  0.1699  0.2282  0.2694
  278MOL0     C38266   7.022   8.370   9.960 -0.3601  0.0366 -0.4096
  278MOL0     C38267   7.123   8.452  10.042 -0.0385 -0.4844 -0.0438
  278MOL0     C38268   7.249   8.355  10.063 -0.0297  0.0155  0.7836
  278MOL0     C38269   7.353   8.435  10.139 -0.7273 -0.6151 -0.4651
  278MOL0     C38270   7.473   8.343  10.195 -0.2724 -0.1996  0.2417
  278MOL0    Cl38271   7.422   8.224  10.316 -0.0953  0.0244  0.3780
  278MOL0     C38272   6.388   8.388  10.109  0.4014 -0.2388  0.9280
  278MOL0     C38273   6.250   8.402  10.123  0.5949 -0.3090 -0.0620
  278MOL0     O38274   5.999   8.612   9.877  0.3778  0.0919 -0.8939
  278MOL0     C38275   5.725   8.567   9.876 -0.3033 -0.6575  0.7711
  278MOL0     C38276   5.585   8.555   9.882  0.6776 -0.6485  0.1560
  278MOL0     N38277   4.892   8.118   9.843 -0.1408  0.5280 -0.1091
  278MOL0     N38278   4.791   8.060   9.784 -0.3698  0.3596  0.8021
  278MOL0     C38279   3.894   8.604   9.565  0.5373 -0.0137 -0.6642
  278MOL0     C38280   3.865   8.738   9.556 -0.1087 -0.5627 -0.4557
  278MOL0     C38281   3.890   9.185   9.376  0.5412  0.9561  0.1164
  278MOL0     C38282   3.874   9.225   9.511  0.5043 -0.3736  0.1513
  278MOL0     C38283   3.857   9.359   9.552 -0.0009 -0.1071  0.3791
  278MOL0     C38284   3.852   9.459   9.460  0.5962 -0.3260  0.0585
  278MOL0     O38285   3.812   9.585   9.501 -0.0667  0.4531 -0.0110
  278MOL0     C38286   3.811   9.682   9.404  0.2883  0.2828  0.5420
  278MOL0     C38287   3.768   9.800   9.479 -0.0532  0.1482  0.5085
  278MOL0     C38288   3.755   9.921   9.380  0.2368 -0.2205  0.1435
  278MOL0     C38289   3.707  10.042   9.465 -0.4143  0.9257  0.0988
  278MOL0     C38290   3.733  10.170   9.406  0.0567  0.4172 -0.4107
  278MOL0     C38291   3.756  10.274   9.356 -0.6759 -0.8213  0.1844
  278MOL0     C38292   3.864   9.422   9.323  0.6312  0.8133  0.7310
  278MOL0     C38293   3.868   9.285   9.281 -0.2906 -1.4868 -0.1459
  278MOL0     C38294   3.875   9.253   9.135 -0.4483 -0.1282  0.1200
  278MOL0     H38295   4.055   8.812   9.289  1.6357  0.6508  0.8227
  278MOL0     H38296   4.095   8.585   9.297 -3.4792 -2.4285 -0.9740
  278MOL0     H38297   3.849   8.306   9.477  0.6604 -1.8918 -0.1024
  278MOL0     H38298   3.922   8.340   9.647 -0.3508  0.8192  0.5620
  278MOL0     H38299   3.933   8.087   9.531  1.8855 -2.2102 -0.1914
  278MOL0     H38300   4.011   8.171   9.398 -0.1364  1.8766 -0.9031
  278MOL0     H38301   4.206   8.199   9.532 -0.0551  1.5204  0.6525
  278MOL0     H38302   4.106   8.190   9.678  1.5356  0.8780  0.3868
  278MOL0     H38303   4.090   7.944   9.672  1.2359 -2.5972 -0.1535
  278MOL0     H38304   4.128   7.944   9.502  0.3984  3.3294 -0.8888
  278MOL0     H38305   4.362   8.002   9.548  4.3846 -2.0767  1.8508
  278MOL0     H38306   4.314   7.864   9.628  1.3733  0.1432  0.1452
  278MOL0     H38307   4.310   8.148   9.744  2.3458  0.4990  0.8349
  278MOL0     H38308   4.267   8.013   9.838  1.5246  1.8562 -0.1160
  278MOL0     H38309   4.515   7.929   9.784  3.7111  2.0123 -1.5254
  278MOL0     H38310   4.471   8.058   9.907  0.1108 -0.8755 -0.0774
  278MOL0     H38311   4.575   8.092   9.638  1.5672 -1.7128  0.8183
  278MOL0     H38312   4.508   8.227   9.728  0.1395 -0.2542  1.5611
  278MOL0     H38313   4.658   8.325   9.915  0.8336  1.1471 -2.3272
  278MOL0     H38314   4.942   8.263  10.106  0.4384  4.2408  2.0102
  278MOL0     H38315   4.913   8.407  10.012 -0.4396 -0.6437  0.0234
  278MOL0     H38316   5.140   8.205   9.967 -2.4230 -0.8729  0.6377
  278MOL0     H38317   5.104   8.345   9.870  0.2214 -0.2304 -0.0750
  278MOL0     H38318   5.164   8.490  10.056 -1.4680 -0.5704 -1.2562
  278MOL0     H38319   5.153   8.355  10.170 -2.8920 -0.6596 -0.8826
  278MOL0     H38320   5.383   8.356  10.155  0.1463 -3.2707  0.5664
  278MOL0     H38321   5.336   8.247  10.017  1.1004  0.1421 -1.1033
  278MOL0     H38322   5.577   8.272  10.079  0.8777  0.6610  1.6796
  278MOL0     H38323   5.752   8.191  10.133 -0.1645  0.4240 -0.3241
  278MOL0     H38324   5.854   8.322  10.194 -0.2244  1.7970 -0.3849
  278MOL0     H38325   5.901   8.227  10.042 -1.1656 -1.8972  0.9037
  278MOL0     H38326   6.162   8.447   9.807  0.7534  3.9428 -0.1079
  278MOL0     H38327   6.413   8.418   9.772 -1.7591 -1.2660 -0.9589
  278MOL0     H38328   6.604   8.304   9.777  0.2226  1.9389 -2.0223
  278MOL0     H38329   6.638   8.474   9.808 -3.0832  0.3236  1.2600
  278MOL0     H38330   6.807   8.224   9.884 -0.4795  0.4794  0.7630
  278MOL0     H38331   6.841   8.345   9.756 -1.5712  4.8564 -0.0765
  278MOL0     H38332   6.829   8.411  10.061 -1.1881  2.3508 -0.1751
  278MOL0     H38333   6.871   8.521   9.928  0.9820 -0.6177 -2.6861
  278MOL0     H38334   7.052   8.364   9.855 -1.9392 -1.1690 -0.8412
  278MOL0     H38335   7.007   8.274  10.010 -0.5499  0.6012  0.6577
  278MOL0     H38336   7.148   8.545   9.989 -0.3497 -0.5022 -0.2213
  278MOL0     H38337   7.086   8.480  10.140 -1.2946  3.9590 -1.5507
  278MOL0     H38338   7.280   8.314   9.966 -3.9381 -0.0458 -0.6141
  278MOL0     H38339   7.210   8.274  10.126 -0.3031 -3.1603 -3.0602
  278MOL0     H38340   7.301   8.485  10.222  0.7264  0.2067 -0.0149
  278MOL0     H38341   7.394   8.515  10.078 -0.5793  2.7261  3.5437
  278MOL0     H38342   7.529   8.416  10.254 -0.1807  1.8686 -2.2040
  278MOL0     H38343   7.527   8.293  10.114 -1.3359 -2.3187  0.7724
  278MOL0     H38344   6.448   8.353  10.193 -0.1784 -0.1723  1.3755
  278MOL0     H38345   6.216   8.406  10.226  1.6034  0.9304  0.2321
  278MOL0     H38346   5.748   8.655   9.816 -3.8456  0.4141  0.7963
  278MOL0     H38347   5.514   8.614   9.824 -0.3993  0.2419  2.2637
  278MOL0     H38348   3.843   8.540   9.636  0.8661 -0.5259 -0.8842
  278MOL0     H38349   3.795   8.782   9.628 -0.3321  1.8940 -2.0394
  278MOL0     H38350   3.895   9.157   9.593 -0.0330  1.0012  1.4756
  278MOL0     H38351   3.850   9.388   9.657 -1.8099 -0.9408  0.5425
  278MOL0     H38352   3.908   9.705   9.359  0.7956  0.0899  1.5106
  278MOL0     H38353   3.732   9.658   9.332  0.4480 -0.5283  0.6326
  278MOL0     H38354   3.839   9.838   9.552  0.6438 -0.4743  0.1610
  278MOL0     H38355   3.668   9.782   9.520  0.1326  0.5935  1.1668
  278MOL0     H38356   3.848   9.943   9.327 -0.3524 -0.0044 -0.8469
  278MOL0     H38357   3.688   9.890   9.299  1.6929  0.0058 -1.2035
  278MOL0     H38358   3.768  10.036   9.555 -0.9413 -3.0289  0.3813
  278MOL0     H38359   3.602  10.030   9.493 -0.8963  0.5478 -1.7201
  278MOL0     H38360   3.784  10.368   9.315  0.5839  0.3560  3.3994
  278MOL0     H38361   3.869   9.497   9.244  1.9531 -1.7636 -1.7852
  278MOL0     H38362   3.793   9.183   9.117 -0.9383 -0.1486  2.1522
  278MOL0     H38363   3.861   9.348   9.082  1.4386  0.2668  0.2630
  278MOL0     H38364   3.972   9.215   9.104 -0.9420 -0.8254 -0.6029
  279MOL0     O38365   6.916   0.948   0.930 -0.3945  0.2172 -0.1514
  279MOL0     C38366   6.892   1.049   0.996 -0.3562 -0.5996 -0.4367
  279MOL0     O38367   6.985   1.110   1.078  0.1361  0.1676 -0.7065
  279MOL0     C38368   7.111   1.053   1.058 -0.1136 -1.5328  0.3941
  279MOL0     C38369   7.160   0.969   1.145  0.2524 -0.4834  0.3344
  279MOL0     C38370   7.291   0.923   1.129  0.5292 -1.2655 -0.4275
  279MOL0     C38371   7.370   0.976   1.029  0.7031  0.4227 -0.5653
  279MOL0     O38372   7.493   0.926   1.011 -0.8334  0.2576  0.2081
  279MOL0     C38373   7.601   1.027   0.980 -0.2333 -0.4928  0.0182
  279MOL0     C38374   7.732   0.941   0.981  0.2434 -1.0071  0.0314
  279MOL0     C38375   7.849   1.040   0.982  0.1755 -0.2569  0.6084
  279MOL0     C38376   7.986   0.963   1.020  0.3717  0.4788 -0.0568
  279MOL0     C38377   8.095   1.049   1.082 -0.2364  0.5714  0.2948
  279MOL0     C38378   8.058   1.133   1.200  0.5042  0.4444 -0.8666
  279MOL0     C38379   8.001   1.052   1.319  0.0349 -0.5326  0.1429
  279MOL0     C38380   8.100   0.946   1.382 -0.3661  0.0061 -0.5040
  279MOL0     N38381   8.217   1.013   1.429  0.0561 -0.1001 -0.4139
  279MOL0     C38382   8.334   1.032   1.363 -0.3873  0.5855 -0.1855
  279MOL0     C38383   8.415   1.096   1.454  0.0607  0.1819  0.9487
  279MOL0     C38384   8.559   1.115   1.421  0.1516  0.5238  0.5474
  279MOL0     C38385   8.609   1.254   1.397 -0.1163 -0.1869 -0.6284
  279MOL0     C38386   8.618   1.328   1.529  0.7993 -0.4027 -0.2932
  279MOL0     C38387   8.739   1.435   1.513  0.7711  0.7358 -0.2174
  279MOL0     O38388   8.855   1.358   1.526  0.0834  0.1815  0.3681
  279MOL0     C38389   8.975   1.425   1.539 -0.1804 -0.2053 -0.0340
  279MOL0     C38390   9.089   1.347   1.575  0.8318  0.6321  0.2043
  279MOL0     C38391   9.212   1.397   1.573  0.1210  0.4929  0.4983
  279MOL0     C38392   9.321   1.299   1.597  0.1089 -0.2210 -0.2637
  279MOL0     C38393   9.230   1.535   1.544 -0.0427 -0.5156 -1.0532
  279MOL0     C38394   9.363   1.601   1.518  0.1302  0.2369 -0.2028
  279MOL0     O38395   9.370   1.711   1.426  0.4885 -0.8840 -0.0484
  279MOL0     C38396   9.474   1.803   1.430  0.7637  0.1278 -0.8837
  279MOL0     C38397   9.604   1.766   1.434 -0.3153 -0.7238  0.4464
  279MOL0     C38398   9.707   1.860   1.434 -0.0227 -0.5655  0.2602
  279MOL0     C38399   9.672   1.997   1.433 -0.3708 -0.1569 -0.0710
  279MOL0     O38400   9.759   2.110   1.433  0.3698 -0.3168  0.6395
  279MOL0     C38401   9.846   2.102   1.543 -0.1791 -0.4075  0.3871
  279MOL0     C38402   9.961   2.204   1.518  1.0865  1.1465 -0.8091
  279MOL0     C38403  10.012   2.182   1.378 -0.5791  0.2143 -0.3915
  279MOL0     C38404  10.145   2.251   1.361  0.1557  0.5174 -0.6598
  279MOL0     C38405  10.210   2.236   1.223 -0.4003  0.5241  0.0456
  279MOL0     C38406  10.351   2.289   1.224 -0.0029  0.1201  0.4962
  279MOL0     C38407  10.394   2.306   1.076 -0.5174 -0.5584  0.2052
  279MOL0     C38408  10.551   2.297   1.061  0.0422 -0.8354  0.1340
  279MOL0    Cl38409  10.593   2.124   1.072  0.2211  0.4887 -0.0412
  279MOL0     C38410   9.540   2.031   1.426 -0.4960 -0.5019 -0.6146
  279MOL0     C38411   9.443   1.936   1.429 -0.1478 -0.1018  0.6933
  279MOL0     O38412   9.457   1.557   1.586 -0.4425  0.6963 -0.1384
  279MOL0     C38413   9.124   1.618   1.512  0.5110  0.1947 -0.2903
  279MOL0     C38414   8.991   1.565   1.515  0.1502 -0.1043 -0.6343
  279MOL0     N38415   8.355   1.104   1.576 -0.8562  0.4604 -0.0771
  279MOL0     N38416   8.237   1.057   1.559 -0.1505 -0.1037  0.5403
  279MOL0     C38417   7.312   1.058   0.937 -0.1804  0.5626  0.0574
  279MOL0     C38418   7.183   1.091   0.945 -0.4509 -0.6408 -0.4971
  279MOL0     C38419   6.755   1.104   1.003  0.3956 -0.2067 -0.0310
  279MOL0     C38420   6.649   1.015   1.018  0.1331  0.4072 -0.1273
  279MOL0     C38421   6.525   1.059   1.065  0.6094  0.5910  0.4094
  279MOL0     C38422   6.490   1.198   1.067  0.5911 -0.0333  0.1851
  279MOL0     O38423   6.364   1.260   1.099 -0.0245 -0.4626  0.3571
  279MOL0     C38424   6.258   1.176   1.133  0.5357 -0.4776  0.6114
  279MOL0     C38425   6.138   1.278   1.173 -0.3973 -0.7684  0.2845
  279MOL0     C38426   6.021   1.180   1.205  0.4610 -0.0471 -0.4402
  279MOL0     C38427   6.044   1.083   1.323  0.0793  0.9568 -0.4084
  279MOL0     C38428   6.123   1.130   1.436  0.0377 -0.1613  0.0783
  279MOL0     C38429   6.173   1.179   1.539  0.1287 -0.0571 -0.0918
  279MOL0     C38430   6.599   1.285   1.039  0.8689  0.0423  0.9573
  279MOL0     C38431   6.728   1.244   1.012 -0.3635  1.0031  0.1731
  279MOL0     C38432   6.831   1.356   0.995 -0.0082 -0.0370  0.8997
  279MOL0     H38433   7.108   0.935   1.234  1.1126 -1.5396  0.4523
  279MOL0     H38434   7.319   0.846   1.200 -1.7706 -0.3747  1.5593
  279MOL0     H38435   7.613   1.096   1.064  0.2914 -1.0750  0.4283
  279MOL0     H38436   7.592   1.077   0.883 -0.5019  0.7034  0.6436
  279MOL0     H38437   7.720   0.896   1.080 -4.8177  2.0697  1.1775
  279MOL0     H38438   7.735   0.860   0.908 -0.2347 -0.5981 -0.4488
  279MOL0     H38439   7.864   1.084   0.883 -2.0947  0.4013  0.4950
  279MOL0     H38440   7.822   1.123   1.047 -0.9667 -0.2842  0.2045
  279MOL0     H38441   7.961   0.880   1.087 -1.5639  0.1722 -1.1128
  279MOL0     H38442   8.035   0.914   0.936 -0.5062  0.4167 -0.5330
  279MOL0     H38443   8.116   1.123   1.005 -0.9228  1.2338  0.7249
  279MOL0     H38444   8.186   0.990   1.095  0.4712  0.6373 -3.4555
  279MOL0     H38445   8.138   1.193   1.243  0.8953 -0.2658 -0.5923
  279MOL0     H38446   7.975   1.200   1.174 -2.4115 -2.4720  0.2635
  279MOL0     H38447   7.902   1.011   1.294 -1.0570  2.9889 -2.0803
  279MOL0     H38448   7.984   1.123   1.400 -1.0584  0.7559 -1.1637
  279MOL0     H38449   8.058   0.895   1.469  2.8663 -0.9428  0.6543
  279MOL0     H38450   8.122   0.867   1.309 -2.9433 -0.0167 -1.3589
  279MOL0     H38451   8.358   1.020   1.258 -0.1584 -0.8506  0.0188
  279MOL0     H38452   8.570   1.052   1.332 -0.0669 -1.6041  1.9645
  279MOL0     H38453   8.617   1.077   1.505  1.3091 -1.1242 -0.9268
  279MOL0     H38454   8.707   1.237   1.349  0.1277 -2.3389  0.5096
  279MOL0     H38455   8.556   1.313   1.322 -2.2001 -1.1659  0.0088
  279MOL0     H38456   8.523   1.374   1.560  2.1414 -0.3369  4.4266
  279MOL0     H38457   8.649   1.260   1.609  1.7117  0.4729  0.1137
  279MOL0     H38458   8.741   1.477   1.412 -1.0186  0.0741 -0.5748
  279MOL0     H38459   8.722   1.519   1.581 -0.3088  1.7667 -1.6963
  279MOL0     H38460   9.079   1.239   1.587 -0.9446  0.4919 -2.0049
  279MOL0     H38461   9.357   1.309   1.699 -0.4404 -3.2186  0.2851
  279MOL0     H38462   9.398   1.325   1.523 -0.8948  0.9774 -0.9298
  279MOL0     H38463   9.288   1.198   1.575 -0.9941  0.3440 -1.3604
  279MOL0     H38464   9.620   1.660   1.416 -2.4674 -1.0831  0.4278
  279MOL0     H38465   9.812   1.835   1.438  0.4204  1.0241 -0.2771
  279MOL0     H38466   9.793   2.128   1.635 -0.6560  0.5908 -0.1505
  279MOL0     H38467   9.884   2.002   1.564  1.0169  0.5213  2.9294
  279MOL0     H38468   9.925   2.307   1.526  0.5960  0.9170  0.0544
  279MOL0     H38469  10.037   2.187   1.594  0.3690  1.6003  0.0269
  279MOL0     H38470   9.944   2.224   1.303  0.7661  0.1730 -1.6801
  279MOL0     H38471  10.024   2.074   1.364  1.6505 -0.0259  2.4407
  279MOL0     H38472  10.212   2.203   1.432 -0.2946 -1.2951 -1.4114
  279MOL0     H38473  10.124   2.354   1.391 -1.6609  0.0298 -0.1256
  279MOL0     H38474  10.218   2.130   1.199 -4.6029  0.5443 -2.4580
  279MOL0     H38475  10.150   2.288   1.148 -0.5822  0.3870  0.0963
  279MOL0     H38476  10.424   2.231   1.281  0.5832  1.5270  1.2236
  279MOL0     H38477  10.353   2.381   1.283  1.1071 -0.6165  1.6489
  279MOL0     H38478  10.364   2.403   1.037  1.0470 -0.9993 -2.3608
  279MOL0     H38479  10.344   2.232   1.013 -4.3448  1.7628  0.2605
  279MOL0     H38480  10.601   2.357   1.137 -0.7545  0.8843 -0.6415
  279MOL0     H38481  10.588   2.347   0.971 -1.0087 -1.7906 -0.8618
  279MOL0     H38482   9.503   2.133   1.429 -2.0759 -0.9719 -2.1958
  279MOL0     H38483   9.338   1.963   1.425 -0.7167 -2.2384 -3.0120
  279MOL0     H38484   9.143   1.721   1.486  3.8748  0.2863  1.9584
  279MOL0     H38485   8.909   1.635   1.502  2.1039  2.4519 -0.0141
  279MOL0     H38486   7.372   1.090   0.852 -0.1875  0.3452 -0.0299
  279MOL0     H38487   7.146   1.160   0.869  3.3401 -0.6652 -2.6134
  279MOL0     H38488   6.658   0.908   1.004 -1.4419  0.4839 -2.2872
  279MOL0     H38489   6.439   0.995   1.084 -0.9774  1.9941 -1.5766
  279MOL0     H38490   6.236   1.119   1.042  2.1256  0.0834 -0.1714
  279MOL0     H38491   6.289   1.111   1.215  1.2919 -1.5033 -0.4495
  279MOL0     H38492   6.118   1.348   1.092  0.8645 -1.1898 -0.4244
  279MOL0     H38493   6.178   1.334   1.258  1.9691 -0.4888 -0.9103
  279MOL0     H38494   5.928   1.230   1.232  0.2742 -0.1157 -0.9430
  279MOL0     H38495   5.991   1.114   1.123 -0.2652  1.1185 -1.1312
  279MOL0     H38496   6.101   1.001   1.278  1.8305  0.0930  3.0385
  279MOL0     H38497   5.951   1.052   1.369  1.0536  0.2582  1.1746
  279MOL0     H38498   6.223   1.219   1.625  1.2367  1.0480 -1.2062
  279MOL0     H38499   6.589   1.392   1.053  0.8740  0.1460  0.2487
  279MOL0     H38500   6.884   1.346   0.899 -0.2140 -1.5110  0.9252
  279MOL0     H38501   6.771   1.446   0.980 -1.1699 -0.8178  0.7895
  279MOL0     H38502   6.899   1.370   1.080  1.7238  2.8566 -0.7637
  280MOL0     O38503   3.584   3.820   9.831 -0.3526 -0.0321  0.1667
  280MOL0     C38504   3.503   3.886   9.888  0.7055 -0.2513  0.3383
  280MOL0     O38505   3.527   3.969   9.996 -0.0308  0.6805  0.5395
  280MOL0     C38506   3.650   3.960  10.066  0.1689  0.0660 -0.0153
  280MOL0     C38507   3.691   3.842  10.123 -0.1446 -0.4953 -0.7917
  280MOL0     C38508   3.817   3.841  10.187 -0.4202  0.6249  0.2223
  280MOL0     C38509   3.896   3.953  10.212  0.5139 -0.0570  0.3889
  280MOL0     O38510   4.010   3.959  10.292  0.4864 -0.5594  0.0636
  280MOL0     C38511   4.054   3.850  10.366  0.2881  0.5614 -0.0954
  280MOL0     C38512   4.183   3.895  10.438 -0.1581 -0.2642  0.2801
  280MOL0     C38513   4.245   3.783  10.532  0.2030 -0.1069  0.1101
  280MOL0     C38514   4.364   3.837  10.617  0.0047 -0.3863  0.6721
  280MOL0     C38515   4.469   3.754  10.689 -0.1784 -1.5823 -0.1970
  280MOL0     C38516   4.525   3.651  10.597  0.1831  0.2242  1.1808
  280MOL0     C38517   4.656   3.587  10.646 -0.1385 -0.4270 -0.2468
  280MOL0     C38518   4.737   3.518  10.535 -0.3304  0.7181  0.7965
  280MOL0     N38519   4.842   3.434  10.600  0.4728  0.5896 -0.2618
  280MOL0     C38520   4.926   3.482  10.698  1.1209 -0.3991 -0.9017
  280MOL0     C38521   5.011   3.385  10.715  0.2257 -0.2562  0.0192
  280MOL0     C38522   5.123   3.394  10.821  0.0197 -0.2545  0.7478
  280MOL0     C38523   5.267   3.357  10.764  0.3608  0.7893  0.5978
  280MOL0     C38524   5.296   3.433  10.629  0.2864 -0.1646 -0.2165
  280MOL0     C38525   5.451   3.450  10.609  1.1721 -0.0489 -0.1552
  280MOL0     O38526   5.503   3.535  10.709  0.0595 -0.6738  0.1628
  280MOL0     C38527   5.626   3.573  10.712  0.0971  0.3045 -0.4174
  280MOL0     C38528   5.684   3.605  10.839  0.4225 -0.1789  0.1338
  280MOL0     C38529   5.816   3.639  10.867  0.9324 -0.3477 -0.0819
  280MOL0     C38530   5.850   3.685  11.010  0.7961 -0.2149 -0.0528
  280MOL0     C38531   5.900   3.644  10.749  0.1352  0.3064 -0.5869
  280MOL0     C38532   6.038   3.699  10.753 -0.1799  0.2508 -0.6715
  280MOL0     O38533   6.097   3.710  10.623  0.0826  0.9150 -0.0667
  280MOL0     C38534   6.220   3.767  10.599  0.7207 -0.1372  1.1403
  280MOL0     C38535   6.327   3.798  10.686 -0.5729 -0.3681  0.5930
  280MOL0     C38536   6.450   3.841  10.640  0.4909  1.0895  0.6155
  280MOL0     C38537   6.471   3.860  10.495  0.0204  0.3645  0.3708
  280MOL0     O38538   6.594   3.911  10.451 -0.1844 -0.6156 -0.1124
  280MOL0     C38539   6.720   3.869  10.513 -0.5426  0.1559  0.3183
  280MOL0     C38540   6.845   3.930  10.452 -0.0269 -1.8684  0.2948
  280MOL0     C38541   6.893   3.870  10.324  0.4165  0.2045  0.6026
  280MOL0     C38542   6.994   3.957  10.257 -0.1138 -0.0146  0.5050
  280MOL0     C38543   7.023   3.925  10.104 -0.1936 -0.0181  0.1820
  280MOL0     C38544   7.133   4.034  10.064  0.6511 -0.8074  0.9948
  280MOL0     C38545   7.164   4.018   9.912  0.3522 -0.1510 -0.2341
  280MOL0     C38546   7.245   4.143   9.881 -0.0917  0.3439  0.3339
  280MOL0    Cl38547   7.329   4.100   9.722 -0.0397  0.0132  0.0360
  280MOL0     C38548   6.370   3.830  10.409  0.5877  0.4809  1.3267
  280MOL0     C38549   6.243   3.788  10.456  0.0358  0.8166  0.3972
  280MOL0     O38550   6.093   3.719  10.865  0.8528 -0.5592 -0.9779
  280MOL0     C38551   5.848   3.614  10.618 -0.0935 -0.9667  0.3869
  280MOL0     C38552   5.714   3.582  10.600  0.6329 -0.2281  0.3916
  280MOL0     N38553   4.988   3.284  10.626 -0.1170  0.3405  0.1027
  280MOL0     N38554   4.881   3.310  10.557 -0.2438 -0.4159 -0.3692
  280MOL0     C38555   3.842   4.079  10.163  0.3255 -0.0529  0.3568
  280MOL0     C38556   3.720   4.083  10.090  0.0861  0.0670  0.4596
  280MOL0     C38557   3.359   3.879   9.838 -0.0054 -0.4894  1.4092
  280MOL0     C38558   3.268   3.960   9.905  0.6540  0.2911 -0.6954
  280MOL0     C38559   3.132   3.967   9.873  0.1955  0.4576  0.5302
  280MOL0     C38560   3.083   3.884   9.777 -0.5445 -0.4082  0.5127
  280MOL0     O38561   2.954   3.877   9.741 -0.7882 -0.5413  0.4873
  280MOL0     C38562   2.870   3.846   9.840  0.3370 -0.5069  0.1594
  280MOL0     C38563   2.752   3.776   9.776 -0.1033  0.0337  0.3367
  280MOL0     C38564   2.642   3.736   9.875 -0.7143  0.0233 -0.1280
  280MOL0     C38565   2.524   3.670   9.811 -0.0501  0.1254 -0.3619
  280MOL0     C38566   2.403   3.746   9.790  0.5501  0.2045  0.6420
  280MOL0     C38567   2.299   3.811   9.778  0.4549 -0.3599 -0.2064
  280MOL0     C38568   3.168   3.803   9.702 -0.1326  0.0672 -1.1635
  280MOL0     C38569   3.303   3.796   9.733  0.0163 -0.0362  0.3188
  280MOL0     C38570   3.384   3.697   9.660  0.0711  0.3788  0.3657
  280MOL0     H38571   3.631   3.753  10.140 -0.2302 -0.3815 -0.4953
  280MOL0     H38572   3.842   3.742  10.226  1.7289 -0.1501 -2.7876
  280MOL0     H38573   4.062   3.756  10.311  0.8352 -0.0982  1.0676
  280MOL0     H38574   3.976   3.826  10.438 -1.0351 -1.1415 -1.9789
  280MOL0     H38575   4.256   3.930  10.364 -1.4390  1.0819 -0.3862
  280MOL0     H38576   4.169   3.992  10.487 -2.5319  0.1813 -1.1346
  280MOL0     H38577   4.165   3.743  10.595  0.2244  0.4815  0.5196
  280MOL0     H38578   4.288   3.705  10.469  0.2062  0.6237 -0.8182
  280MOL0     H38579   4.425   3.896  10.547 -3.5193  0.1351 -2.2679
  280MOL0     H38580   4.324   3.914  10.683 -0.1112 -0.4532  0.6794
  280MOL0     H38581   4.422   3.693  10.766  1.5533  0.1773  2.4190
  280MOL0     H38582   4.553   3.810  10.730 -1.2282 -1.2791  1.6347
  280MOL0     H38583   4.453   3.573  10.568 -0.6159  1.5975 -0.7018
  280MOL0     H38584   4.546   3.713  10.510  2.0922 -0.0785  1.3900
  280MOL0     H38585   4.636   3.511  10.722  1.5444 -1.1011 -0.4267
  280MOL0     H38586   4.721   3.667  10.682  0.5913 -0.7940 -0.7066
  280MOL0     H38587   4.679   3.451  10.471  2.4131 -0.3163 -0.7874
  280MOL0     H38588   4.784   3.598  10.478  0.1346  2.2623  3.1923
  280MOL0     H38589   4.915   3.575  10.754  2.1415 -0.8562  0.1078
  280MOL0     H38590   5.098   3.329  10.905 -2.7044 -0.3646 -0.0449
  280MOL0     H38591   5.138   3.499  10.850 -1.6906  0.8430 -1.9103
  280MOL0     H38592   5.349   3.374  10.834  1.7201 -2.4853 -0.0028
  280MOL0     H38593   5.263   3.249  10.744 -0.6647  1.1727 -1.5508
  280MOL0     H38594   5.257   3.379  10.542  0.0272 -2.3004  1.1590
  280MOL0     H38595   5.245   3.529  10.641  0.0204 -0.2141 -0.8647
  280MOL0     H38596   5.491   3.348  10.613  0.4757 -0.2853  1.1006
  280MOL0     H38597   5.472   3.483  10.507  2.5672 -0.6559 -0.0904
  280MOL0     H38598   5.616   3.605  10.924  0.7404  0.2307  0.4004
  280MOL0     H38599   5.770   3.668  11.082 -0.0371  0.6395 -0.7597
  280MOL0     H38600   5.878   3.790  11.013 -1.5444  0.4374  0.8123
  280MOL0     H38601   5.930   3.623  11.053  0.7736 -1.7839 -2.1169
  280MOL0     H38602   6.329   3.766  10.790  1.2943  0.1042  0.7346
  280MOL0     H38603   6.521   3.846  10.722 -0.9312 -0.3613  2.0081
  280MOL0     H38604   6.712   3.890  10.620 -2.9579 -0.0416  0.2248
  280MOL0     H38605   6.739   3.762  10.508  1.8783  0.4605  1.3491
  280MOL0     H38606   6.815   4.034  10.438  1.7576 -1.4348 -0.6380
  280MOL0     H38607   6.931   3.931  10.520  2.1119 -0.8108 -2.2280
  280MOL0     H38608   6.809   3.853  10.256  1.3459 -1.2758 -0.2223
  280MOL0     H38609   6.936   3.770  10.339  0.7614  0.4514  1.3432
  280MOL0     H38610   7.087   3.947  10.314 -1.2488 -4.0258  1.9571
  280MOL0     H38611   6.959   4.060  10.261  2.6879  1.0329  0.6340
  280MOL0     H38612   7.062   3.825  10.087 -1.8995 -0.7115  0.1467
  280MOL0     H38613   6.934   3.941  10.043  0.6689  1.1079 -0.8337
  280MOL0     H38614   7.227   4.036  10.120 -0.1984 -0.8419  2.4977
  280MOL0     H38615   7.083   4.129  10.085 -1.1683 -1.6609  0.7629
  280MOL0     H38616   7.071   4.007   9.855  2.4190 -0.7455 -3.7852
  280MOL0     H38617   7.222   3.927   9.897 -3.0559 -2.3034 -1.7495
  280MOL0     H38618   7.315   4.160   9.963 -1.6373 -0.3975  1.8873
  280MOL0     H38619   7.192   4.238   9.869  1.4136  1.1665 -0.0521
  280MOL0     H38620   6.385   3.833  10.302 -1.1043  0.4127  1.0601
  280MOL0     H38621   6.168   3.765  10.381 -0.1578 -0.0547  0.8531
  280MOL0     H38622   5.916   3.622  10.534  0.1418  0.7098  0.6919
  280MOL0     H38623   5.672   3.557  10.504 -3.6248 -0.3678  2.0531
  280MOL0     H38624   3.905   4.166  10.174  1.9899 -1.0284 -0.9786
  280MOL0     H38625   3.699   4.174  10.034  0.3811 -0.3160 -0.2829
  280MOL0     H38626   3.308   4.023   9.983  0.0603 -0.9020  0.6209
  280MOL0     H38627   3.074   4.033   9.936  0.9065 -0.9058  2.7144
  280MOL0     H38628   2.930   3.785   9.908  3.3531  1.3088 -0.6662
  280MOL0     H38629   2.838   3.937   9.891 -0.2334  0.1033 -1.2199
  280MOL0     H38630   2.793   3.695   9.716  0.7341  0.2916  0.5468
  280MOL0     H38631   2.711   3.844   9.701 -0.2416 -1.2326 -0.7634
  280MOL0     H38632   2.686   3.662   9.942 -1.2771 -1.3929 -1.2574
  280MOL0     H38633   2.618   3.829   9.926  0.6229  0.1851  0.2445
  280MOL0     H38634   2.496   3.592   9.881  0.3074  0.2687 -0.0616
  280MOL0     H38635   2.539   3.614   9.718 -0.1464  0.3478 -0.5145
  280MOL0     H38636   2.202   3.855   9.780 -0.0821 -1.5349  0.3928
  280MOL0     H38637   3.126   3.742   9.622 -0.1888 -2.2410  0.5324
  280MOL0     H38638   3.484   3.731   9.631  0.2497 -0.3234  0.1447
  280MOL0     H38639   3.408   3.610   9.722  0.9540 -0.8332 -1.5819
  280MOL0     H38640   3.336   3.672   9.565 -0.2969  3.3966 -0.3474
  281MOL0     O38641   1.296   9.495   4.449  0.6790 -0.1233 -0.1825
  281MOL0     C38642   1.235   9.396   4.479  0.4415  0.1575 -0.1610
  281MOL0     O38643   1.274   9.299   4.569  0.6771  0.5795  0.2174
  281MOL0     C38644   1.400   9.298   4.603 -0.7671  0.6727 -0.0064
  281MOL0     C38645   1.457   9.384   4.700 -0.3197 -0.4257 -0.0253
  281MOL0     C38646   1.594   9.365   4.741 -0.1526  0.2271 -0.7556
  281MOL0     C38647   1.681   9.266   4.686  0.5679 -0.4312 -0.0327
  281MOL0     O38648   1.811   9.244   4.713  0.1996 -0.1946  0.0962
  281MOL0     C38649   1.871   9.314   4.816 -0.5125  0.4947  0.5248
  281MOL0     C38650   2.016   9.253   4.817  0.0155 -0.6802  0.6234
  281MOL0     C38651   2.117   9.314   4.912 -0.0145 -0.3445  0.6275
  281MOL0     C38652   2.256   9.246   4.905  0.8444 -0.2569  0.4357
  281MOL0     C38653   2.351   9.289   5.009  0.0452  0.0597  0.1017
  281MOL0     C38654   2.503   9.257   4.974 -0.4845 -0.8632 -0.3544
  281MOL0     C38655   2.589   9.316   5.082 -0.2986  0.3966 -0.4567
  281MOL0     C38656   2.732   9.265   5.067 -0.4657 -0.4887  0.4686
  281MOL0     N38657   2.800   9.342   4.962 -0.9502  0.9534  0.1050
  281MOL0     C38658   2.849   9.463   4.960  0.8907 -0.0749  0.8588
  281MOL0     C38659   2.899   9.484   4.835 -0.0728 -0.4173  0.1473
  281MOL0     C38660   2.988   9.593   4.769  0.6736  0.5362 -0.1808
  281MOL0     C38661   3.138   9.553   4.784 -0.1594  0.1857 -0.4515
  281MOL0     C38662   3.184   9.530   4.927  0.5959  0.0626 -0.3815
  281MOL0     C38663   3.338   9.495   4.944  0.8497 -0.2706  0.3601
  281MOL0     O38664   3.416   9.540   4.829 -0.3011  0.2536 -0.6069
  281MOL0     C38665   3.467   9.664   4.831 -0.3250  0.4161 -0.2210
  281MOL0     C38666   3.560   9.687   4.731  0.2107 -0.4652 -0.6379
  281MOL0     C38667   3.613   9.815   4.713 -0.8851 -0.3617 -0.4545
  281MOL0     C38668   3.715   9.828   4.592 -0.2266 -0.1193 -0.2365
  281MOL0     C38669   3.564   9.928   4.785  0.3922 -0.2858  0.1425
  281MOL0     C38670   3.607  10.078   4.756  0.3728  0.1276  0.0079
  281MOL0     O38671   3.539  10.188   4.814 -0.4372  0.0195  0.8050
  281MOL0     C38672   3.576  10.321   4.793 -0.4093  0.3161  0.4177
  281MOL0     C38673   3.652  10.395   4.890  0.8134  0.5709 -0.3672
  281MOL0     C38674   3.691  10.525   4.874 -0.0288 -0.4762  0.9972
  281MOL0     C38675   3.650  10.594   4.757 -0.0943  0.4772  0.4938
  281MOL0     O38676   3.681  10.724   4.740  0.1614 -0.3607  0.4086
  281MOL0     C38677   3.741  10.764   4.613 -0.4125 -0.3994  0.3346
  281MOL0     C38678   3.872  10.699   4.578  1.0019 -0.9500  0.5762
  281MOL0     C38679   3.952  10.785   4.490  0.4417  0.0623 -0.0052
  281MOL0     C38680   4.101  10.782   4.533  0.4877 -0.7560 -0.6783
  281MOL0     C38681   4.192  10.886   4.472  0.8104 -0.5341  0.2409
  281MOL0     C38682   4.178  11.040   4.527  0.5844 -0.2465 -0.5895
  281MOL0     C38683   4.293  11.129   4.476  0.3284 -0.2773 -0.9987
  281MOL0     C38684   4.254  11.278   4.508 -0.6226  0.8004 -0.4097
  281MOL0    Cl38685   4.387  11.380   4.439 -0.1704 -0.0465 -0.4379
  281MOL0     C38686   3.561  10.526   4.668 -0.5982  0.2899  0.5119
  281MOL0     C38687   3.521  10.388   4.682  0.5279 -0.2524 -0.6628
  281MOL0     O38688   3.705  10.089   4.694 -0.0993  0.2939  0.6698
  281MOL0     C38689   3.463   9.903   4.880  0.1373  0.6730 -0.8094
  281MOL0     C38690   3.416   9.769   4.905 -0.7579 -0.8883 -0.3448
  281MOL0     N38691   2.873   9.369   4.757  0.3693  0.0593  0.2894
  281MOL0     N38692   2.804   9.291   4.833  0.0161 -1.0003  0.3771
  281MOL0     C38693   1.614   9.188   4.593  0.1678 -0.6041 -0.3792
  281MOL0     C38694   1.483   9.205   4.545 -0.1311  0.3266  0.2450
  281MOL0     C38695   1.102   9.371   4.430 -0.7403  0.2992  0.6676
  281MOL0     C38696   1.033   9.267   4.500  0.1495 -0.1242 -0.1057
  281MOL0     C38697   0.906   9.231   4.459  0.3514  0.1803  0.3300
  281MOL0     C38698   0.857   9.290   4.338 -0.0572 -0.1525  0.5467
  281MOL0     O38699   0.732   9.266   4.283 -0.1179  0.0542 -0.3152
  281MOL0     C38700   0.624   9.226   4.374 -0.6197 -0.7153  0.0152
  281MOL0     C38701   0.497   9.220   4.285  0.2805  0.2864  0.1218
  281MOL0     C38702   0.449   9.345   4.225 -0.0870 -0.7009  0.4231
  281MOL0     C38703   0.297   9.354   4.228  0.1440 -0.3820 -0.1557
  281MOL0     C38704   0.250   9.463   4.141  0.6153  0.1763 -0.2156
  281MOL0     C38705   0.194   9.553   4.071  0.0550  0.3876  0.2723
  281MOL0     C38706   0.920   9.393   4.278  0.4394  0.2640 -0.1532
  281MOL0     C38707   1.047   9.427   4.313  0.0607  0.0384  0.0856
  281MOL0     C38708   1.116   9.520   4.210 -0.9312 -0.3849 -0.0577
  281MOL0     H38709   1.403   9.458   4.759 -0.1436 -0.2573 -0.0776
  281MOL0     H38710   1.637   9.424   4.822  1.0223 -2.8674  1.0367
  281MOL0     H38711   1.827   9.293   4.914 -2.2727 -1.0901 -0.5392
  281MOL0     H38712   1.869   9.420   4.789 -1.4155  0.7552  1.5710
  281MOL0     H38713   2.012   9.144   4.823  0.0561 -0.7659 -0.5935
  281MOL0     H38714   2.063   9.275   4.721  1.0486 -0.6391  1.1251
  281MOL0     H38715   2.138   9.417   4.881 -0.7237 -0.3468  0.1164
  281MOL0     H38716   2.072   9.314   5.012 -2.5420 -1.4707 -0.4343
  281MOL0     H38717   2.247   9.137   4.913 -0.2369 -0.1218  1.3211
  281MOL0     H38718   2.296   9.274   4.807 -0.5162  0.5411  0.0799
  281MOL0     H38719   2.319   9.246   5.105  1.0972 -0.9366  0.0308
  281MOL0     H38720   2.342   9.397   5.017 -2.1937  0.2868 -3.5178
  281MOL0     H38721   2.518   9.150   4.958 -1.3085 -1.2158  1.0308
  281MOL0     H38722   2.529   9.317   4.887  0.8796  2.6086  2.2032
  281MOL0     H38723   2.550   9.297   5.182 -1.4322 -2.4180 -1.3213
  281MOL0     H38724   2.589   9.425   5.082 -0.7397  0.4337  1.7046
  281MOL0     H38725   2.776   9.287   5.165 -0.3436 -1.6698  0.6879
  281MOL0     H38726   2.733   9.156   5.059  0.0467 -0.3920 -1.1094
  281MOL0     H38727   2.853   9.537   5.040 -1.2202  0.4827  0.5078
  281MOL0     H38728   2.972   9.695   4.803 -0.9143  0.0841  0.5249
  281MOL0     H38729   2.980   9.595   4.660 -0.0019 -0.5197 -0.1647
  281MOL0     H38730   3.153   9.461   4.727 -2.5195 -0.2537 -0.4406
  281MOL0     H38731   3.199   9.628   4.732  0.9612 -0.0846  0.4244
  281MOL0     H38732   3.164   9.622   4.983 -1.7202 -0.2000 -0.7023
  281MOL0     H38733   3.130   9.447   4.972  0.3153  0.4059 -0.0789
  281MOL0     H38734   3.377   9.525   5.041  0.9137  0.2024  0.1874
  281MOL0     H38735   3.340   9.387   4.926  0.9962 -0.1497 -0.3708
  281MOL0     H38736   3.583   9.596   4.677  0.9067 -1.9824  2.0117
  281MOL0     H38737   3.672   9.872   4.502  1.8929 -1.2927 -1.8959
  281MOL0     H38738   3.741   9.725   4.564 -2.4071 -0.0772 -2.8733
  281MOL0     H38739   3.810   9.879   4.609 -0.3169 -0.2508  0.7532
  281MOL0     H38740   3.676  10.351   4.986 -0.4513 -1.8390 -1.0635
  281MOL0     H38741   3.736  10.589   4.950 -0.5767 -0.1099  1.0211
  281MOL0     H38742   3.672  10.738   4.533 -0.3127 -2.5407  0.8797
  281MOL0     H38743   3.757  10.871   4.627  2.0414 -0.3841 -1.7956
  281MOL0     H38744   3.926  10.679   4.671 -1.1376 -1.9846  1.6703
  281MOL0     H38745   3.852  10.603   4.530  1.4281 -0.2869 -1.0192
  281MOL0     H38746   3.916  10.888   4.481  1.1797  0.3348  0.0302
  281MOL0     H38747   3.952  10.743   4.390  2.0862  1.1832 -0.5303
  281MOL0     H38748   4.136  10.684   4.499 -1.4596 -1.6765 -0.1629
  281MOL0     H38749   4.107  10.784   4.643 -3.5086  0.6504 -0.3367
  281MOL0     H38750   4.294  10.845   4.479 -0.1475 -3.1114  0.0559
  281MOL0     H38751   4.183  10.885   4.363  0.0016  1.0287  0.2674
  281MOL0     H38752   4.178  11.043   4.636  1.2515  1.3823 -0.6039
  281MOL0     H38753   4.089  11.085   4.483  1.5789 -0.3790 -2.9103
  281MOL0     H38754   4.295  11.110   4.368 -1.6091  0.6337 -1.2504
  281MOL0     H38755   4.390  11.125   4.527 -0.2538  2.9354  0.6208
  281MOL0     H38756   4.229  11.296   4.613  0.4452  2.5494 -0.4155
  281MOL0     H38757   4.169  11.312   4.449 -1.6278 -0.7110  0.0981
  281MOL0     H38758   3.512  10.594   4.599  1.9354  0.5110 -1.1867
  281MOL0     H38759   3.458  10.327   4.619 -0.8645 -0.4338  0.8345
  281MOL0     H38760   3.425   9.981   4.945 -1.0507 -0.4895 -0.0412
  281MOL0     H38761   3.338   9.767   4.980 -1.4446 -0.1561 -1.0114
  281MOL0     H38762   1.668   9.109   4.542 -1.5301 -1.2751 -1.1781
  281MOL0     H38763   1.423   9.152   4.471 -1.7315  0.0092  1.7205
  281MOL0     H38764   1.069   9.202   4.579  1.2299 -0.7611 -1.0918
  281MOL0     H38765   0.844   9.151   4.498  0.2958 -0.1278 -0.3741
  281MOL0     H38766   0.635   9.129   4.424  3.0956  0.3052  1.5119
  281MOL0     H38767   0.617   9.308   4.447 -1.2321  0.1482 -0.9912
  281MOL0     H38768   0.417   9.167   4.338 -0.3267 -0.4258 -1.4465
  281MOL0     H38769   0.532   9.153   4.206 -0.0127  1.0909 -0.7036
  281MOL0     H38770   0.497   9.430   4.274  0.9558 -2.1324  1.9905
  281MOL0     H38771   0.488   9.345   4.123  1.5989  4.5715  0.7647
  281MOL0     H38772   0.267   9.377   4.331  1.9926 -4.5619  1.5382
  281MOL0     H38773   0.246   9.260   4.203  0.4857 -0.7278  0.4371
  281MOL0     H38774   0.144   9.618   4.003  1.6350  0.7569 -0.5795
  281MOL0     H38775   0.871   9.438   4.192  5.4194  2.9188 -1.9609
  281MOL0     H38776   1.046   9.572   4.144 -2.0847 -0.4912  1.0342
  281MOL0     H38777   1.163   9.605   4.260 -2.7211  1.0820 -0.7529
  281MOL0     H38778   1.186   9.459   4.153 -1.0015  0.1756 -0.7636
  282MOL0     O38779   0.014   0.727   0.695  0.1250 -0.3467 -0.0757
  282MOL0     C38780  -0.077   0.701   0.771  0.2395 -0.5012 -0.1655
  282MOL0     O38781  -0.068   0.632   0.886  0.2323  0.1274 -0.0459
  282MOL0     C38782   0.048   0.573   0.927 -0.3201 -0.0424 -0.0906
  282MOL0     C38783   0.167   0.638   0.926 -0.1612 -0.3190  0.2435
  282MOL0     C38784   0.286   0.569   0.964  1.1697  0.2948  0.6758
  282MOL0     C38785   0.269   0.438   1.031  0.5534 -0.6027  0.4558
  282MOL0     O38786   0.383   0.367   1.064  0.6506  0.6811 -0.5217
  282MOL0     C38787   0.361   0.225   1.050  0.1697  0.7819 -0.8646
  282MOL0     C38788   0.496   0.149   1.035 -0.5858  0.3139  0.4167
  282MOL0     C38789   0.596   0.223   0.936  0.8909 -0.0713 -1.0973
  282MOL0     C38790   0.723   0.119   0.921  1.4311 -0.2624 -0.0077
  282MOL0     C38791   0.812   0.169   0.805  0.5900 -0.6187  0.0329
  282MOL0     C38792   0.955   0.107   0.808  0.1922  0.8516 -0.8699
  282MOL0     C38793   1.045   0.131   0.935  0.4948  0.5309  0.5499
  282MOL0     C38794   1.040   0.271   0.985  0.5171 -1.0512  0.7278
  282MOL0     N38795   1.115   0.273   1.115  0.7869 -0.9651  1.2190
  282MOL0     C38796   1.067   0.232   1.232  0.2929  0.4416 -0.1150
  282MOL0     C38797   1.176   0.228   1.320  0.3207  0.6240 -0.4398
  282MOL0     C38798   1.176   0.174   1.463  0.8156 -0.2219  0.8160
  282MOL0     C38799   1.304   0.110   1.505 -0.5697  0.0669 -1.1644
  282MOL0     C38800   1.414   0.206   1.554  0.6570  0.0769  0.0944
  282MOL0     C38801   1.551   0.128   1.574  0.5886 -0.1724 -0.4353
  282MOL0     O38802   1.614   0.088   1.454 -0.2933 -0.3599  0.2631
  282MOL0     C38803   1.739   0.038   1.469 -0.5323 -0.6952  0.0207
  282MOL0     C38804   1.802  -0.011   1.578 -0.1703  0.8655  0.5315
  282MOL0     C38805   1.925  -0.067   1.580 -0.1606  0.0421  0.2029
  282MOL0     C38806   1.978  -0.119   1.706  0.0406  0.1916  0.2673
  282MOL0     C38807   2.001  -0.067   1.462 -0.6608 -0.7089 -0.3155
  282MOL0     C38808   2.150  -0.102   1.454 -1.2501 -0.1533 -0.5545
  282MOL0     O38809   2.229  -0.064   1.345  0.3230 -0.2813 -1.1088
  282MOL0     C38810   2.354  -0.097   1.339  0.1648  0.3511 -0.1402
  282MOL0     C38811   2.404  -0.153   1.214 -0.5397  0.1164 -0.3508
  282MOL0     C38812   2.537  -0.176   1.188  0.8667 -0.9724  0.5241
  282MOL0     C38813   2.638  -0.144   1.280 -0.8378 -0.1255 -0.5400
  282MOL0     O38814   2.776  -0.151   1.272  0.6445  0.3954 -0.2026
  282MOL0     C38815   2.828  -0.214   1.151  0.1757 -0.0308  0.0189
  282MOL0     C38816   2.978  -0.212   1.137  0.3781 -0.0586 -0.0732
  282MOL0     C38817   3.038  -0.297   1.021 -0.4535 -0.5178 -0.5780
  282MOL0     C38818   3.191  -0.265   1.024  1.3085 -0.6265  0.3238
  282MOL0     C38819   3.262  -0.310   0.886 -0.0195  0.7182  0.1440
  282MOL0     C38820   3.256  -0.463   0.856 -0.6447  0.3891 -0.1383
  282MOL0     C38821   3.358  -0.504   0.752  0.1251 -0.2491 -0.6426
  282MOL0     C38822   3.330  -0.655   0.717 -0.4342 -0.3506  0.3844
  282MOL0    Cl38823   3.455  -0.695   0.585 -0.6316 -0.3769  0.1398
  282MOL0     C38824   2.594  -0.083   1.401  0.7423 -0.0649 -0.1585
  282MOL0     C38825   2.455  -0.068   1.434  0.2291  0.5623 -0.4894
  282MOL0     O38826   2.189  -0.174   1.542 -0.1733 -0.5431 -0.2453
  282MOL0     C38827   1.948  -0.013   1.343  0.4252 -0.8376  0.4265
  282MOL0     C38828   1.816   0.036   1.348  0.4199 -0.0027 -0.7910
  282MOL0     N38829   1.291   0.253   1.248  0.1897  0.3821 -0.6587
  282MOL0     N38830   1.250   0.277   1.125 -0.1662 -0.2677 -0.2060
  282MOL0     C38831   0.141   0.380   1.037 -0.6437  0.4007 -0.4233
  282MOL0     C38832   0.026   0.446   0.991 -0.2859  0.1285 -0.3000
  282MOL0     C38833  -0.211   0.723   0.724  0.0498 -0.5039 -0.3782
  282MOL0     C38834  -0.316   0.646   0.785 -0.1258  0.0823 -0.0480
  282MOL0     C38835  -0.442   0.659   0.740 -0.2588  0.5478 -0.0594
  282MOL0     C38836  -0.474   0.747   0.637 -0.8448 -0.5247 -0.9914
  282MOL0     O38837  -0.599   0.762   0.579  0.0336  0.3511  0.1025
  282MOL0     C38838  -0.692   0.654   0.579 -0.1776  0.0284 -0.0010
  282MOL0     C38839  -0.736   0.607   0.437 -0.0022 -0.4523 -0.7147
  282MOL0     C38840  -0.794   0.728   0.367 -0.5709  0.2400  0.2917
  282MOL0     C38841  -0.796   0.713   0.218  1.4931  0.2264  0.3070
  282MOL0     C38842  -0.930   0.657   0.177 -0.3838  0.6026  0.2859
  282MOL0     C38843  -1.042   0.621   0.146  0.6174  1.2829  0.2110
  282MOL0     C38844  -0.378   0.823   0.582  0.5385 -0.8589  0.0474
  282MOL0     C38845  -0.246   0.818   0.628 -0.0063  0.7145  0.3777
  282MOL0     C38846  -0.147   0.918   0.571  1.2768 -0.5498  0.9198
  282MOL0     H38847   0.173   0.733   0.873 -2.6260 -1.6358 -2.6894
  282MOL0     H38848   0.384   0.615   0.960  1.7228 -0.8679  0.5381
  282MOL0     H38849   0.314   0.216   0.952  2.2790  3.2541 -2.2036
  282MOL0     H38850   0.299   0.186   1.132 -0.9030  0.5420 -1.7717
  282MOL0     H38851   0.552   0.154   1.129  4.3501 -1.8375 -2.0549
  282MOL0     H38852   0.479   0.047   0.998  1.5814 -0.5568  1.6404
  282MOL0     H38853   0.551   0.242   0.838 -0.5152  0.1313 -0.4369
  282MOL0     H38854   0.619   0.321   0.977 -1.4722 -0.4675  1.4813
  282MOL0     H38855   0.783   0.123   1.013  0.1493  2.1446  0.8241
  282MOL0     H38856   0.701   0.014   0.901  0.4435  0.3644 -2.5663
  282MOL0     H38857   0.819   0.278   0.804  1.2465 -0.6466  0.5751
  282MOL0     H38858   0.771   0.129   0.712  0.3864  0.2566 -0.2617
  282MOL0     H38859   0.939  -0.001   0.814  0.0120  0.8408 -1.5111
  282MOL0     H38860   1.010   0.133   0.717 -1.6958 -2.0398 -2.9866
  282MOL0     H38861   1.149   0.112   0.907  1.2866  3.2631  1.3631
  282MOL0     H38862   1.002   0.067   1.013  0.2834  0.5153  0.4216
  282MOL0     H38863   1.090   0.334   0.911 -0.3438 -1.5726 -0.3384
  282MOL0     H38864   0.938   0.310   0.993  0.8436 -0.3393  1.5989
  282MOL0     H38865   0.961   0.214   1.247 -0.6327  1.2634 -4.4311
  282MOL0     H38866   1.095   0.101   1.467  1.4292 -1.0225 -0.7265
  282MOL0     H38867   1.143   0.254   1.530 -1.7161 -1.3984  1.0879
  282MOL0     H38868   1.284   0.048   1.593  0.4223  1.0912 -0.1960
  282MOL0     H38869   1.332   0.036   1.429 -0.7667 -0.3502 -0.8430
  282MOL0     H38870   1.432   0.284   1.479 -1.0226 -0.9278 -1.4265
  282MOL0     H38871   1.389   0.253   1.650 -0.3033 -1.1523  0.4627
  282MOL0     H38872   1.618   0.193   1.630  1.4711 -0.1256 -1.4957
  282MOL0     H38873   1.530   0.044   1.640 -1.6324  1.7590  1.5233
  282MOL0     H38874   1.752  -0.010   1.675 -1.8769  0.0304 -0.2986
  282MOL0     H38875   2.001  -0.226   1.698 -1.5987 -0.2791  1.3813
  282MOL0     H38876   1.904  -0.115   1.785 -0.8565  0.6838 -0.5752
  282MOL0     H38877   2.074  -0.076   1.738  1.2562 -2.5315  0.5880
  282MOL0     H38878   2.331  -0.174   1.136 -1.9293  1.4267  0.5412
  282MOL0     H38879   2.557  -0.225   1.094 -0.8073 -2.3424  0.8200
  282MOL0     H38880   2.804  -0.320   1.149  1.3732 -0.3388  0.8992
  282MOL0     H38881   2.779  -0.181   1.059  1.6850  1.3283 -0.3625
  282MOL0     H38882   3.005  -0.110   1.108  2.8583 -0.0440  1.9260
  282MOL0     H38883   3.020  -0.239   1.234 -1.4407 -1.9480  0.2367
  282MOL0     H38884   3.000  -0.273   0.921  0.1382 -1.0308 -0.9349
  282MOL0     H38885   3.007  -0.398   1.050 -0.9599  0.8216  4.5583
  282MOL0     H38886   3.233  -0.315   1.113  3.7686  3.3215  1.6427
  282MOL0     H38887   3.198  -0.156   1.026 -1.7671 -0.3370  2.8691
  282MOL0     H38888   3.221  -0.260   0.799 -0.3890 -0.6163 -0.4804
  282MOL0     H38889   3.366  -0.276   0.888  0.8795 -1.7525 -0.5359
  282MOL0     H38890   3.152  -0.485   0.830  0.1998 -0.3186 -3.2861
  282MOL0     H38891   3.287  -0.520   0.944 -0.9737 -1.4462 -1.1799
  282MOL0     H38892   3.460  -0.491   0.791 -0.8529  0.7570  1.8089
  282MOL0     H38893   3.345  -0.444   0.662 -2.5657  0.1304 -0.0766
  282MOL0     H38894   3.224  -0.662   0.691 -0.2910  2.1392 -1.2432
  282MOL0     H38895   3.350  -0.717   0.804  0.9163 -1.9077 -0.9762
  282MOL0     H38896   2.659  -0.062   1.485 -2.1748  0.2972  2.2110
  282MOL0     H38897   2.418  -0.028   1.527 -0.2357 -0.5460 -0.1895
  282MOL0     H38898   2.006  -0.017   1.251 -0.2073  0.5607 -0.0682
  282MOL0     H38899   1.775   0.064   1.251  1.8961  0.1495 -1.4018
  282MOL0     H38900   0.129   0.282   1.081  1.6503 -0.8685 -2.3553
  282MOL0     H38901  -0.072   0.401   0.998  0.5115 -1.6961 -0.2357
  282MOL0     H38902  -0.291   0.587   0.873  1.0142 -1.0021 -1.0733
  282MOL0     H38903  -0.517   0.606   0.797 -0.5984  1.5456  0.4328
  282MOL0     H38904  -0.644   0.558   0.602 -2.5078 -1.6069 -1.5623
  282MOL0     H38905  -0.777   0.668   0.646 -0.7559  0.4007 -0.7934
  282MOL0     H38906  -0.817   0.533   0.442  0.2250 -0.6518  3.7014
  282MOL0     H38907  -0.647   0.572   0.384 -2.0263 -1.3501 -3.8149
  282MOL0     H38908  -0.887   0.758   0.416 -1.2428 -1.4087  0.0984
  282MOL0     H38909  -0.723   0.811   0.372  1.1344 -1.0206 -1.3150
  282MOL0     H38910  -0.709   0.659   0.179  1.4584 -0.2710  0.8970
  282MOL0     H38911  -0.787   0.809   0.167  3.0833  0.8118  1.6137
  282MOL0     H38912  -1.142   0.586   0.130  0.6371  1.2549  0.1542
  282MOL0     H38913  -0.402   0.890   0.500  2.0269 -1.0920 -0.6156
  282MOL0     H38914  -0.093   0.963   0.654 -2.4783 -1.6290  4.2405
  282MOL0     H38915  -0.077   0.873   0.499  1.2689  1.6143 -0.5304
  282MOL0     H38916  -0.202   0.996   0.518  1.7546 -0.4122  0.6180
  283MOL0     O38917   0.362   8.027   3.770 -0.4677  0.5572  0.3775
  283MOL0     C38918   0.306   8.112   3.701  0.0088 -0.3797  0.9210
  283MOL0     O38919   0.346   8.245   3.678  0.5175  0.5791  0.4084
  283MOL0     C38920   0.467   8.268   3.732 -0.2839  0.9356 -0.0461
  283MOL0     C38921   0.484   8.259   3.872 -0.2310 -0.8075 -0.3068
  283MOL0     C38922   0.605   8.282   3.938  0.5450 -0.7356  0.5357
  283MOL0     C38923   0.719   8.301   3.861 -0.4945 -0.7335  1.0323
  283MOL0     O38924   0.837   8.325   3.926 -0.1766 -0.0882  0.1469
  283MOL0     C38925   0.953   8.331   3.851 -0.7522  0.1535  0.1008
  283MOL0     C38926   1.081   8.322   3.945  0.2233 -0.6766 -0.1209
  283MOL0     C38927   1.202   8.260   3.879 -0.8084  0.0118 -0.0900
  283MOL0     C38928   1.265   8.362   3.788 -0.4543  0.4080  0.0232
  283MOL0     C38929   1.394   8.312   3.728 -0.1941 -0.4858 -0.4440
  283MOL0     C38930   1.367   8.220   3.613 -0.1476  0.8908  0.2960
  283MOL0     C38931   1.500   8.184   3.529  0.4686  0.5831 -0.0215
  283MOL0     C38932   1.477   8.103   3.404  0.0198  0.2170  0.1696
  283MOL0     N38933   1.478   7.956   3.427  1.1182 -0.3254 -0.1419
  283MOL0     C38934   1.584   7.874   3.422 -0.0471  0.6996  0.9168
  283MOL0     C38935   1.532   7.750   3.442 -0.1014  0.5172 -0.7871
  283MOL0     C38936   1.604   7.620   3.440 -0.3630 -0.0302 -0.2648
  283MOL0     C38937   1.636   7.571   3.585 -0.2724  0.1083 -0.7868
  283MOL0     C38938   1.702   7.431   3.587 -0.4460  0.0631  0.6616
  283MOL0     C38939   1.730   7.399   3.737  0.6657 -1.0781 -0.3366
  283MOL0     O38940   1.833   7.478   3.801 -0.0927 -0.0949 -0.0710
  283MOL0     C38941   1.960   7.423   3.801  0.4405  0.7521 -0.0801
  283MOL0     C38942   1.984   7.320   3.890  0.3774  0.3677  0.8091
  283MOL0     C38943   2.102   7.249   3.896 -0.0586  0.2119 -0.9157
  283MOL0     C38944   2.119   7.150   4.006 -0.1654  0.4345  0.9472
  283MOL0     C38945   2.197   7.285   3.803  0.4477 -0.0660  0.4933
  283MOL0     C38946   2.335   7.226   3.813  0.1006 -0.1153 -0.5720
  283MOL0     O38947   2.352   7.102   3.868 -0.6330 -0.8060 -0.1589
  283MOL0     C38948   2.491   7.065   3.886  0.1236 -0.0559  0.2010
  283MOL0     C38949   2.532   6.934   3.868  0.2561 -0.8255 -0.5233
  283MOL0     C38950   2.650   6.888   3.921 -0.2012  0.2854 -0.4697
  283MOL0     C38951   2.718   6.967   4.004 -0.7502  0.7567 -0.4950
  283MOL0     O38952   2.832   6.909   4.056 -0.1813  0.1823  0.2615
  283MOL0     C38953   2.947   6.996   4.069  0.1791  0.2915  0.0370
  283MOL0     C38954   3.062   6.915   4.122  0.4790 -0.0597  0.3174
  283MOL0     C38955   3.104   6.811   4.019 -0.8325 -0.7826  0.0190
  283MOL0     C38956   3.212   6.734   4.088 -0.5425 -0.4424  1.1995
  283MOL0     C38957   3.246   6.610   4.000 -0.2243  0.1301 -0.7823
  283MOL0     C38958   3.282   6.651   3.859 -0.4793  0.4216  0.4414
  283MOL0     C38959   3.345   6.533   3.788  0.3488 -0.7520  0.0092
  283MOL0     C38960   3.386   6.580   3.652 -0.8195 -0.1859 -1.0410
  283MOL0    Cl38961   3.433   6.432   3.564 -0.1204  0.1063  0.1215
  283MOL0     C38962   2.678   7.099   4.024  0.7413  0.3611 -0.5252
  283MOL0     C38963   2.571   7.152   3.961  0.0354 -1.2613 -0.0697
  283MOL0     O38964   2.420   7.299   3.762  0.2510  0.3793 -0.5705
  283MOL0     C38965   2.172   7.378   3.707 -0.1834  0.2428 -0.1386
  283MOL0     C38966   2.056   7.455   3.702 -0.3529  0.6638 -0.0690
  283MOL0     N38967   1.395   7.763   3.438 -0.5084  0.0034 -0.1937
  283MOL0     N38968   1.364   7.888   3.434  0.1136  1.0125  0.3652
  283MOL0     C38969   0.706   8.318   3.716  0.3524  0.6483  1.3037
  283MOL0     C38970   0.579   8.294   3.658  0.1088 -0.2414 -0.5931
  283MOL0     C38971   0.165   8.086   3.658  0.4134  0.7501  0.5135
  283MOL0     C38972   0.079   8.195   3.629 -0.3652  0.2534 -0.5574
  283MOL0     C38973  -0.055   8.186   3.592 -0.2477 -0.1306  0.3207
  283MOL0     C38974  -0.100   8.059   3.564  0.6074  0.5769 -0.4828
  283MOL0     O38975  -0.226   8.032   3.518 -0.6756  0.7181  0.9263
  283MOL0     C38976  -0.325   8.131   3.529 -0.3057  0.2167  0.3934
  283MOL0     C38977  -0.445   8.093   3.435  0.1828 -0.0916 -1.0640
  283MOL0     C38978  -0.548   8.204   3.447 -0.1765 -0.3639 -0.2265
  283MOL0     C38979  -0.656   8.168   3.548 -0.6244  0.9871 -0.2323
  283MOL0     C38980  -0.782   8.237   3.517 -0.0678  0.5882  0.3334
  283MOL0     C38981  -0.895   8.277   3.507  0.9036  0.0582  0.5410
  283MOL0     C38982  -0.019   7.948   3.576 -0.3034  1.5431  0.7677
  283MOL0     C38983   0.114   7.959   3.637 -0.2921  1.2758  0.1481
  283MOL0     C38984   0.200   7.835   3.632  0.0491 -0.0083 -0.8952
  283MOL0     H38985   0.392   8.260   3.930  1.6774  0.0293  2.9428
  283MOL0     H38986   0.610   8.266   4.045  1.5618  2.4153  1.0435
  283MOL0     H38987   0.969   8.429   3.806 -0.9738  0.2194  0.1649
  283MOL0     H38988   0.959   8.250   3.779 -0.7656 -1.7777  2.1605
  283MOL0     H38989   1.107   8.416   3.995 -1.0886 -0.4069  0.1093
  283MOL0     H38990   1.050   8.270   4.036  2.1558 -0.5326  0.6657
  283MOL0     H38991   1.273   8.222   3.953 -0.0294  1.5253 -0.0129
  283MOL0     H38992   1.168   8.176   3.818  1.1796 -0.8951 -0.0517
  283MOL0     H38993   1.193   8.403   3.716 -3.3295  0.7379  2.8626
  283MOL0     H38994   1.284   8.450   3.850 -0.4879  0.1741  0.3674
  283MOL0     H38995   1.455   8.253   3.797  0.1269  1.2552  0.8201
  283MOL0     H38996   1.448   8.401   3.695 -2.8735  0.8998 -1.3738
  283MOL0     H38997   1.319   8.128   3.646  0.5932 -0.1163 -1.2877
  283MOL0     H38998   1.283   8.244   3.547 -1.8443 -5.9964 -0.7931
  283MOL0     H38999   1.563   8.127   3.599  1.1764  0.4837 -0.7297
  283MOL0     H39000   1.540   8.279   3.492 -4.4647  1.7912 -3.1165
  283MOL0     H39001   1.384   8.133   3.355 -0.0827 -0.9064 -0.3530
  283MOL0     H39002   1.561   8.125   3.337 -0.7097  0.8338 -0.5526
  283MOL0     H39003   1.688   7.898   3.403 -0.0668 -1.9094 -4.4390
  283MOL0     H39004   1.701   7.632   3.390 -0.9183  1.6575 -1.0098
  283MOL0     H39005   1.547   7.540   3.392 -2.2855  2.5141 -2.5474
  283MOL0     H39006   1.705   7.641   3.632  0.0991  0.1720 -1.4216
  283MOL0     H39007   1.542   7.574   3.641 -0.0186  1.3676 -0.3979
  283MOL0     H39008   1.633   7.357   3.546  2.9458 -4.1938  1.8632
  283MOL0     H39009   1.801   7.429   3.541 -0.1482  3.3891  0.9296
  283MOL0     H39010   1.638   7.416   3.793  0.1188 -0.6946 -1.3174
  283MOL0     H39011   1.751   7.293   3.750  3.0599 -0.4747  1.4208
  283MOL0     H39012   1.898   7.293   3.952 -0.5872  3.0152  0.7226
  283MOL0     H39013   2.036   7.156   4.077 -1.8551 -0.3939 -0.8610
  283MOL0     H39014   2.212   7.176   4.058 -0.2595  1.4845  0.6147
  283MOL0     H39015   2.139   7.049   3.969 -1.4576  1.4027 -2.8512
  283MOL0     H39016   2.465   6.858   3.830  0.5230 -1.7596  0.8027
  283MOL0     H39017   2.675   6.783   3.912  0.3622  0.4568 -0.9220
  283MOL0     H39018   2.978   7.050   3.979 -0.8546  1.6199  0.4509
  283MOL0     H39019   2.930   7.064   4.152  1.4744  0.0230  0.5451
  283MOL0     H39020   3.150   6.979   4.133  1.1703 -0.8025 -0.6572
  283MOL0     H39021   3.027   6.877   4.218 -0.5704 -2.3444 -0.8946
  283MOL0     H39022   3.161   6.863   3.941  0.5712 -0.0186  1.4749
  283MOL0     H39023   3.021   6.747   3.990 -1.2777 -0.3754  0.3849
  283MOL0     H39024   3.181   6.706   4.189  0.4549 -1.1419  1.3258
  283MOL0     H39025   3.302   6.794   4.104 -2.4242  2.8250  0.3185
  283MOL0     H39026   3.330   6.555   4.044  1.1471  1.1449 -2.0458
  283MOL0     H39027   3.155   6.551   3.993 -2.9425  3.7267  0.8229
  283MOL0     H39028   3.356   6.731   3.856 -2.6582  2.6184  1.6265
  283MOL0     H39029   3.201   6.692   3.798  0.3947  1.1064 -0.3038
  283MOL0     H39030   3.266   6.459   3.772  0.6675 -1.3732  1.2136
  283MOL0     H39031   3.431   6.483   3.834  1.6531  0.3748 -1.0875
  283MOL0     H39032   3.472   6.647   3.659  1.4505 -2.9448 -0.6421
  283MOL0     H39033   3.307   6.635   3.601 -0.1567 -0.1272 -2.0358
  283MOL0     H39034   2.731   7.156   4.100  0.4283 -0.5757  0.4022
  283MOL0     H39035   2.538   7.251   3.992 -0.5898 -1.3625 -0.3984
  283MOL0     H39036   2.234   7.406   3.623  1.9110 -0.4199  1.1311
  283MOL0     H39037   2.052   7.521   3.616  0.0105 -0.0867 -0.6773
  283MOL0     H39038   0.790   8.351   3.657 -1.5595 -0.1354 -2.1348
  283MOL0     H39039   0.567   8.320   3.553 -1.8666 -0.0633 -0.3532
  283MOL0     H39040   0.111   8.298   3.638 -0.7751  0.2567  1.2535
  283MOL0     H39041  -0.113   8.278   3.582  2.1480  1.5205  0.6742
  283MOL0     H39042  -0.373   8.140   3.627 -1.0605  0.3727  0.0130
  283MOL0     H39043  -0.286   8.229   3.500  1.8641 -0.8682 -0.5939
  283MOL0     H39044  -0.487   8.003   3.480  0.6072 -0.1430 -0.7544
  283MOL0     H39045  -0.415   8.081   3.331 -1.8528 -3.6822 -1.3982
  283MOL0     H39046  -0.501   8.301   3.466 -0.3978 -0.2148 -0.4287
  283MOL0     H39047  -0.593   8.211   3.347 -0.5358 -0.8879 -0.1071
  283MOL0     H39048  -0.620   8.185   3.649  2.1568  0.4370 -1.0643
  283MOL0     H39049  -0.675   8.061   3.536  2.1691  0.5847 -1.8359
  283MOL0     H39050  -1.000   8.298   3.497  0.5086 -2.5959 -2.1091
  283MOL0     H39051  -0.065   7.854   3.546 -0.9892  1.9091  0.6656
  283MOL0     H39052   0.238   7.819   3.733  1.1749  1.7023 -1.0120
  283MOL0     H39053   0.145   7.746   3.600  1.2003 -0.9204 -0.3887
  283MOL0     H39054   0.289   7.857   3.572  3.3687 -0.4641  3.3621
  284MOL0     O39055   6.843   7.685   2.077 -0.2927  0.0352  0.7721
  284MOL0     C39056   6.753   7.757   2.131 -0.6507  0.1138  0.8017
  284MOL0     O39057   6.752   7.899   2.124  0.4401  0.1783  0.0347
  284MOL0     C39058   6.833   7.963   2.034 -0.0772 -0.0221  0.2288
  284MOL0     C39059   6.877   7.925   1.903 -0.5179  0.0384  0.3385
  284MOL0     C39060   6.964   8.007   1.829  0.8810 -0.5826 -0.4060
  284MOL0     C39061   7.008   8.132   1.877  0.4878 -0.9260  0.2311
  284MOL0     O39062   7.081   8.208   1.792 -0.3415  0.3585 -0.3677
  284MOL0     C39063   7.089   8.350   1.820 -0.0099 -0.2763 -0.0352
  284MOL0     C39064   7.190   8.431   1.738 -0.1581  0.1863  0.0562
  284MOL0     C39065   7.314   8.344   1.708 -0.4232 -0.4437 -0.4473
  284MOL0     C39066   7.407   8.421   1.616  0.0797 -0.3620 -0.8540
  284MOL0     C39067   7.530   8.335   1.586 -0.0836 -0.4391 -0.3184
  284MOL0     C39068   7.625   8.413   1.494  0.4855 -0.7686 -0.3124
  284MOL0     C39069   7.762   8.333   1.489  0.5902 -0.2812  0.1169
  284MOL0     C39070   7.837   8.383   1.362 -0.8812  0.3708  0.0314
  284MOL0     N39071   7.980   8.342   1.347 -0.2318 -0.2851  0.2205
  284MOL0     C39072   8.050   8.231   1.405 -0.3386 -0.5268 -0.0153
  284MOL0     C39073   8.164   8.223   1.332  0.0018 -0.2561 -0.2138
  284MOL0     C39074   8.272   8.113   1.331  0.5199 -0.5452  0.3718
  284MOL0     C39075   8.402   8.139   1.404  0.0010  0.2737 -0.0423
  284MOL0     C39076   8.518   8.074   1.339 -0.1545  0.5167  0.2080
  284MOL0     C39077   8.641   8.072   1.424  1.5430  0.1865 -0.5410
  284MOL0     O39078   8.680   8.204   1.465 -0.0206 -0.6912 -0.7495
  284MOL0     C39079   8.807   8.213   1.520  0.1899  0.5325  0.7875
  284MOL0     C39080   8.870   8.106   1.593 -0.0160 -0.2209 -0.3735
  284MOL0     C39081   8.995   8.119   1.655  0.5851 -0.0046  0.7487
  284MOL0     C39082   9.045   8.005   1.731  0.0874  0.1080  0.4661
  284MOL0     C39083   9.071   8.239   1.633 -0.7301 -0.1927 -0.4131
  284MOL0     C39084   9.207   8.266   1.685  0.0003 -0.0925 -0.5721
  284MOL0     O39085   9.257   8.393   1.696  0.6898  0.4770  0.4084
  284MOL0     C39086   9.380   8.409   1.757  1.7991 -0.3636 -0.2324
  284MOL0     C39087   9.377   8.445   1.892 -0.2452 -0.4588  0.2208
  284MOL0     C39088   9.503   8.452   1.948  0.0171  0.1470 -0.3538
  284MOL0     C39089   9.625   8.429   1.875  0.8080 -0.1679  0.0576
  284MOL0     O39090   9.754   8.446   1.923 -0.5440  0.2534 -0.5326
  284MOL0     C39091   9.776   8.546   2.024 -0.9637  0.1351 -0.3070
  284MOL0     C39092   9.926   8.555   2.047 -0.1219 -0.2266  0.1010
  284MOL0     C39093   9.999   8.606   1.923 -0.5101  0.5829 -0.6909
  284MOL0     C39094  10.148   8.627   1.948 -0.2749  0.1461  0.2990
  284MOL0     C39095  10.204   8.664   1.807 -0.2344  0.0638 -0.0082
  284MOL0     C39096  10.357   8.635   1.815 -0.0844  0.4954 -0.7013
  284MOL0     C39097  10.413   8.673   1.680 -0.3113 -0.5648  0.5891
  284MOL0     C39098  10.556   8.621   1.675 -0.5364  0.1715  0.2556
  284MOL0    Cl39099  10.666   8.718   1.774 -0.3465 -0.3619 -0.0143
  284MOL0     C39100   9.616   8.391   1.742 -0.8118 -0.5242  0.2020
  284MOL0     C39101   9.489   8.374   1.682  0.1863 -0.6610 -0.3077
  284MOL0     O39102   9.279   8.167   1.700  0.6415  0.2223  0.1487
  284MOL0     C39103   9.012   8.337   1.558 -0.1842 -0.5405 -0.0795
  284MOL0     C39104   8.887   8.324   1.504  0.2917 -0.3394  0.1332
  284MOL0     N39105   8.156   8.325   1.244 -0.5620  0.3779 -0.3264
  284MOL0     N39106   8.058   8.397   1.249  0.2876  0.1760  0.1684
  284MOL0     C39107   6.953   8.172   2.008 -0.1311 -0.2014  0.9576
  284MOL0     C39108   6.869   8.095   2.083 -0.1531  0.3675  0.3702
  284MOL0     C39109   6.637   7.692   2.206  0.4723  0.4959  0.3376
  284MOL0     C39110   6.627   7.556   2.194  0.3545 -0.6801 -0.5604
  284MOL0     C39111   6.533   7.481   2.259  0.8564 -0.3816 -0.4236
  284MOL0     C39112   6.444   7.534   2.350 -0.3213 -0.3579  0.3097
  284MOL0     O39113   6.344   7.460   2.404 -0.0813  0.2186  0.5066
  284MOL0     C39114   6.373   7.339   2.459 -0.5478  0.1216 -0.2541
  284MOL0     C39115   6.310   7.233   2.379 -0.5273  1.0002  0.6875
  284MOL0     C39116   6.184   7.277   2.303 -0.1615 -0.2128  0.8679
  284MOL0     C39117   6.121   7.163   2.225 -0.4382  0.4025 -0.3456
  284MOL0     C39118   6.082   7.053   2.310 -0.2987 -0.1455 -0.0660
  284MOL0     C39119   6.055   6.954   2.379 -0.5408 -0.1128  0.2197
  284MOL0     C39120   6.451   7.674   2.364  0.2783  0.5762  0.0045
  284MOL0     C39121   6.539   7.754   2.296 -0.0664  0.1198  0.2576
  284MOL0     C39122   6.522   7.902   2.322  0.7948  0.1654  0.4683
  284MOL0     H39123   6.866   7.832   1.849 -1.0462  0.0777  0.3752
  284MOL0     H39124   6.995   7.986   1.727  2.4642  0.1386 -0.0949
  284MOL0     H39125   7.122   8.365   1.923  0.8895  0.4384 -0.4234
  284MOL0     H39126   6.991   8.393   1.800  0.3836 -0.1794 -1.8740
  284MOL0     H39127   7.146   8.457   1.642  0.5000 -1.3255 -0.6926
  284MOL0     H39128   7.222   8.526   1.781  0.9654  1.3103 -3.0292
  284MOL0     H39129   7.362   8.324   1.804 -1.4205  0.7157  0.3302
  284MOL0     H39130   7.298   8.259   1.642  2.5539  0.7513 -2.9587
  284MOL0     H39131   7.350   8.455   1.528 -1.6823  0.4889  0.5353
  284MOL0     H39132   7.435   8.515   1.665 -1.2602 -0.8149  0.8623
  284MOL0     H39133   7.508   8.233   1.556  1.0220 -0.5876 -0.6465
  284MOL0     H39134   7.580   8.335   1.683  0.5170  0.9244 -0.5998
  284MOL0     H39135   7.579   8.431   1.396 -0.9776  0.6019  0.5716
  284MOL0     H39136   7.644   8.511   1.538  1.3749 -1.8783  1.9275
  284MOL0     H39137   7.753   8.224   1.477  0.0783 -0.3705  1.2034
  284MOL0     H39138   7.823   8.361   1.576 -0.0367 -0.2294  0.5409
  284MOL0     H39139   7.779   8.363   1.272  0.3269 -0.7818 -0.5356
  284MOL0     H39140   7.832   8.492   1.370 -1.9553  0.3838 -0.6239
  284MOL0     H39141   8.013   8.170   1.486 -2.4281  2.8544  1.8038
  284MOL0     H39142   8.294   8.091   1.226  0.3881 -0.5885  0.3543
  284MOL0     H39143   8.228   8.029   1.386  0.9668 -1.4869 -0.6723
  284MOL0     H39144   8.420   8.246   1.394  1.4202 -0.0456 -1.2984
  284MOL0     H39145   8.394   8.119   1.512  0.7910  0.0914 -0.0091
  284MOL0     H39146   8.485   7.977   1.300 -2.0294  1.1693  0.1043
  284MOL0     H39147   8.541   8.127   1.246 -1.5204  1.6747  0.5136
  284MOL0     H39148   8.617   8.004   1.506  0.9298  0.6379 -0.3412
  284MOL0     H39149   8.717   8.028   1.359  0.9413 -0.7031 -0.6645
  284MOL0     H39150   8.803   8.021   1.608 -2.6457  1.5573 -1.3640
  284MOL0     H39151   9.128   7.964   1.671  2.9371  1.2646  3.3581
  284MOL0     H39152   8.978   7.921   1.753  2.2541 -2.3018 -1.3785
  284MOL0     H39153   9.081   8.037   1.829  2.0457 -3.9930  1.3203
  284MOL0     H39154   9.292   8.466   1.956  0.2379 -1.9369  1.3851
  284MOL0     H39155   9.509   8.471   2.055  0.3524 -1.5844 -0.0398
  284MOL0     H39156   9.732   8.639   1.989 -2.2701 -0.5557 -0.5651
  284MOL0     H39157   9.729   8.530   2.122 -0.3101  0.9852  0.1643
  284MOL0     H39158   9.926   8.630   2.127 -1.6894 -0.9814  0.8630
  284MOL0     H39159   9.958   8.453   2.071  2.0927  0.1527 -1.0235
  284MOL0     H39160   9.959   8.704   1.895  1.6864  1.5840 -0.5943
  284MOL0     H39161   9.968   8.531   1.850 -1.0953 -0.7502  0.8518
  284MOL0     H39162  10.199   8.547   2.001 -1.9305 -0.2733  1.3397
  284MOL0     H39163  10.164   8.717   2.008 -1.9584  1.5056 -1.1789
  284MOL0     H39164  10.156   8.600   1.732 -0.0741  2.0655 -1.9234
  284MOL0     H39165  10.175   8.767   1.781 -2.4578 -0.0854  1.5748
  284MOL0     H39166  10.372   8.529   1.835  1.1455  0.7833  0.0661
  284MOL0     H39167  10.406   8.702   1.887 -1.2560  1.4145 -0.7243
  284MOL0     H39168  10.410   8.781   1.666 -0.9951 -0.9167 -3.3589
  284MOL0     H39169  10.359   8.635   1.592  0.4446  0.7616 -0.4766
  284MOL0     H39170  10.600   8.629   1.575  3.3356 -0.2459  1.7282
  284MOL0     H39171  10.554   8.518   1.712 -0.0756  0.2483  0.5072
  284MOL0     H39172   9.709   8.381   1.689 -0.5735 -3.1359  1.0000
  284MOL0     H39173   9.470   8.337   1.581  0.8779 -1.0165 -0.3094
  284MOL0     H39174   9.057   8.434   1.536  1.2919 -0.9759  0.8750
  284MOL0     H39175   8.837   8.415   1.471 -0.9958 -1.5692 -1.5091
  284MOL0     H39176   6.958   8.275   2.043 -0.7158 -0.4437  1.7803
  284MOL0     H39177   6.839   8.124   2.184  0.2200 -0.0091  0.5925
  284MOL0     H39178   6.701   7.503   2.134  1.2871  2.5249 -2.4459
  284MOL0     H39179   6.541   7.374   2.250  1.1782 -0.2544 -1.8743
  284MOL0     H39180   6.479   7.316   2.473 -0.7516 -0.2010  0.8883
  284MOL0     H39181   6.331   7.341   2.560 -0.7332 -0.4941 -0.3158
  284MOL0     H39182   6.295   7.148   2.447 -3.7195  2.5722  2.1775
  284MOL0     H39183   6.385   7.204   2.305 -0.9922  1.0227  0.1946
  284MOL0     H39184   6.113   7.317   2.377  0.6131 -0.0936  1.5551
  284MOL0     H39185   6.211   7.357   2.234 -0.7695  0.8040  1.7784
  284MOL0     H39186   6.202   7.125   2.163 -0.3769 -1.6526  0.9091
  284MOL0     H39187   6.039   7.190   2.157  0.0175  2.2932 -0.2069
  284MOL0     H39188   6.043   6.877   2.453  0.4163 -0.0446  0.4566
  284MOL0     H39189   6.384   7.721   2.436  1.1115  1.9742 -0.0892
  284MOL0     H39190   6.613   7.940   2.369  1.6322  0.5273 -1.3333
  284MOL0     H39191   6.509   7.942   2.221 -1.7524  1.9753  1.4095
  284MOL0     H39192   6.432   7.921   2.380  0.6927  1.6088 -0.1315
  285MOL0     O39193   8.890   4.778   5.263  0.0273  0.4046 -0.1554
  285MOL0     C39194   8.927   4.676   5.319  0.1647  0.2718  0.4474
  285MOL0     O39195   8.883   4.625   5.441 -0.2681  0.0595 -0.0779
  285MOL0     C39196   8.806   4.707   5.513  0.0441  0.3695 -0.0748
  285MOL0     C39197   8.667   4.698   5.506 -0.7259 -0.0402 -0.2165
  285MOL0     C39198   8.588   4.775   5.590  0.6476 -1.0853 -0.0208
  285MOL0     C39199   8.648   4.860   5.684 -0.3719  0.2011 -0.1005
  285MOL0     O39200   8.564   4.920   5.773 -0.4311  0.8049  0.0632
  285MOL0     C39201   8.607   4.950   5.909 -0.5141  0.1736 -0.1979
  285MOL0     C39202   8.495   4.937   6.009 -0.7116  0.2638 -0.0783
  285MOL0     C39203   8.448   4.796   6.032 -0.1263  0.0287 -0.7024
  285MOL0     C39204   8.300   4.796   6.073 -0.5503  0.7481 -0.3021
  285MOL0     C39205   8.250   4.656   6.031  0.0838  0.3144  0.0703
  285MOL0     C39206   8.268   4.544   6.147  0.0183  0.3857 -0.2873
  285MOL0     C39207   8.230   4.402   6.098 -0.3298 -0.2048 -0.2210
  285MOL0     C39208   8.186   4.319   6.217  0.4326 -0.7718 -0.2667
  285MOL0     N39209   8.159   4.176   6.179  0.1467 -0.7793  0.8001
  285MOL0     C39210   8.254   4.095   6.113  0.2879  0.4707  0.0311
  285MOL0     C39211   8.207   3.970   6.146  0.4059 -0.1821 -0.4535
  285MOL0     C39212   8.282   3.838   6.123 -0.8006  0.2073 -0.4410
  285MOL0     C39213   8.275   3.795   5.980 -0.2299 -1.1057  0.5151
  285MOL0     C39214   8.349   3.892   5.887  0.0412  0.0290  0.7052
  285MOL0     C39215   8.498   3.902   5.917 -0.3050 -0.3782  0.1788
  285MOL0     O39216   8.573   3.948   5.800  0.1312  0.4964  0.1241
  285MOL0     C39217   8.707   3.986   5.815  0.2178  0.6021  0.1595
  285MOL0     C39218   8.785   3.984   5.933 -0.5316  0.0753  0.5187
  285MOL0     C39219   8.911   4.044   5.940 -0.7431 -0.7346 -1.1103
  285MOL0     C39220   8.986   4.047   6.069 -0.4658 -0.0119 -0.0211
  285MOL0     C39221   8.968   4.109   5.826  0.5439  0.5951 -0.4469
  285MOL0     C39222   9.107   4.159   5.827 -0.5847  0.1846  0.5662
  285MOL0     O39223   9.183   4.151   5.713 -0.1915 -0.0413  0.7658
  285MOL0     C39224   9.321   4.161   5.722 -0.1208 -0.5212 -0.1754
  285MOL0     C39225   9.383   4.197   5.599 -0.2722 -0.3524 -0.0946
  285MOL0     C39226   9.516   4.196   5.580 -0.2029 -0.5822 -0.3367
  285MOL0     C39227   9.604   4.164   5.691  0.6621 -0.2412  0.0407
  285MOL0     O39228   9.739   4.162   5.674  0.6374 -0.0792 -0.1255
  285MOL0     C39229   9.824   4.091   5.768  0.7363 -0.4563  0.4044
  285MOL0     C39230   9.885   4.188   5.875  0.0688 -0.2135  0.4887
  285MOL0     C39231  10.012   4.233   5.829 -0.7547  0.4865 -0.2980
  285MOL0     C39232  10.072   4.348   5.908  0.5318  0.6730  0.3977
  285MOL0     C39233  10.214   4.381   5.866  0.6908 -0.3513  0.1788
  285MOL0     C39234  10.268   4.479   5.965 -0.9791 -0.7264 -0.4596
  285MOL0     C39235  10.412   4.505   5.925 -0.0836 -1.2231 -0.1139
  285MOL0     C39236  10.478   4.618   6.004 -0.0744  0.4770 -0.4250
  285MOL0    Cl39237  10.500   4.568   6.172  0.0069  0.0434 -0.3822
  285MOL0     C39238   9.543   4.133   5.816  0.5973 -0.1227 -0.6558
  285MOL0     C39239   9.403   4.124   5.830  0.1863  0.5576  0.1174
  285MOL0     O39240   9.146   4.223   5.924 -0.4040 -0.2853  0.0676
  285MOL0     C39241   8.897   4.106   5.710  0.9756 -0.0565  0.7251
  285MOL0     C39242   8.768   4.044   5.702 -0.1664 -0.0052 -0.1814
  285MOL0     N39243   8.094   3.981   6.220 -0.4033 -0.7876  0.2178
  285MOL0     N39244   8.060   4.105   6.239 -0.1032  0.5677 -0.4175
  285MOL0     C39245   8.792   4.884   5.670  0.1548 -0.8408 -0.4343
  285MOL0     C39246   8.867   4.804   5.590  0.3418  0.0920 -0.7433
  285MOL0     C39247   9.050   4.618   5.258 -0.6653  0.0260 -0.9950
  285MOL0     C39248   9.091   4.656   5.125  0.1434  0.2648  0.2454
  285MOL0     C39249   9.198   4.595   5.054 -0.0289 -0.0632 -0.4730
  285MOL0     C39250   9.286   4.514   5.129 -0.1485  0.4509  1.5233
  285MOL0     O39251   9.395   4.449   5.082  0.5314 -0.0129 -0.0042
  285MOL0     C39252   9.449   4.492   4.957 -0.6722  0.0403 -0.3139
  285MOL0     C39253   9.602   4.496   4.958  0.3085 -0.0822 -0.5875
  285MOL0     C39254   9.665   4.591   5.064  0.3782  0.9012  0.4686
  285MOL0     C39255   9.812   4.564   5.083 -0.2233 -0.2710 -0.7917
  285MOL0     C39256   9.877   4.660   5.179  0.3613 -0.2049  0.6101
  285MOL0     C39257   9.950   4.738   5.237 -0.9712 -0.0321  0.4713
  285MOL0     C39258   9.253   4.482   5.265  0.7602  0.8286  0.4655
  285MOL0     C39259   9.137   4.525   5.324  0.5905  0.1885  0.1055
  285MOL0     C39260   9.094   4.450   5.456  0.1564  0.8533  0.3411
  285MOL0     H39261   8.625   4.619   5.445  0.3315  0.1865 -1.2711
  285MOL0     H39262   8.480   4.773   5.596  0.6092  1.2903  1.4641
  285MOL0     H39263   8.645   5.053   5.911  2.1956 -0.7551  0.2747
  285MOL0     H39264   8.689   4.888   5.947  1.7173  4.1491  2.2038
  285MOL0     H39265   8.529   4.977   6.105 -2.4824  0.0664  0.6768
  285MOL0     H39266   8.410   5.002   5.985 -1.3350  0.9209  3.3666
  285MOL0     H39267   8.473   4.748   5.937  2.4286  0.9259 -0.5617
  285MOL0     H39268   8.499   4.754   6.120 -0.6240 -0.8618 -0.8171
  285MOL0     H39269   8.282   4.807   6.181  1.2134  1.3174 -0.0347
  285MOL0     H39270   8.238   4.868   6.020  0.7586  0.1767 -2.7721
  285MOL0     H39271   8.290   4.627   5.933 -0.2899  1.1454 -0.3422
  285MOL0     H39272   8.142   4.671   6.030  0.2699  1.7729 -0.4063
  285MOL0     H39273   8.373   4.540   6.174 -0.5147  2.6432  2.4927
  285MOL0     H39274   8.208   4.582   6.230 -2.3820 -1.4191 -1.0564
  285MOL0     H39275   8.318   4.361   6.048 -0.8102  0.2020 -1.4509
  285MOL0     H39276   8.144   4.413   6.031 -1.6651  1.6556  1.6882
  285MOL0     H39277   8.268   4.306   6.288  0.1240  1.8530  0.6848
  285MOL0     H39278   8.094   4.364   6.256  0.5260 -1.4892  0.8524
  285MOL0     H39279   8.344   4.126   6.060  1.3575 -0.9779  0.9493
  285MOL0     H39280   8.235   3.760   6.185 -1.7393 -0.1867 -1.6083
  285MOL0     H39281   8.385   3.839   6.158  0.0545 -2.8812 -2.4911
  285MOL0     H39282   8.314   3.693   5.976 -0.7152 -1.2747  0.0078
  285MOL0     H39283   8.169   3.791   5.952  0.1014 -0.1203 -0.9579
  285MOL0     H39284   8.329   3.847   5.789 -1.7032  0.3771  0.8714
  285MOL0     H39285   8.300   3.989   5.891 -0.3833 -0.1334 -0.2246
  285MOL0     H39286   8.513   3.971   6.001  2.0086 -0.9320  0.2728
  285MOL0     H39287   8.537   3.803   5.944 -0.2252 -0.4824 -0.3111
  285MOL0     H39288   8.743   3.922   6.011  0.1756 -2.6586 -1.1123
  285MOL0     H39289   8.939   3.983   6.144 -0.2335  1.1772  1.1620
  285MOL0     H39290   8.989   4.144   6.118  0.8398  0.0362 -0.1615
  285MOL0     H39291   9.087   4.006   6.055  0.0923  0.6620  1.7673
  285MOL0     H39292   9.321   4.214   5.512  0.8992 -0.5925 -1.0096
  285MOL0     H39293   9.560   4.222   5.484 -0.3217 -1.6786 -0.7056
  285MOL0     H39294   9.769   4.013   5.822  0.5735 -0.2451  0.5422
  285MOL0     H39295   9.899   4.038   5.708  0.4851 -1.9046  1.3060
  285MOL0     H39296   9.811   4.266   5.897  1.3435  1.2040 -0.0630
  285MOL0     H39297   9.891   4.126   5.965 -5.7502  1.2191  2.3204
  285MOL0     H39298  10.000   4.274   5.728 -0.0149  0.8899 -0.2328
  285MOL0     H39299  10.078   4.147   5.822 -1.2341  0.1291 -0.4822
  285MOL0     H39300  10.083   4.314   6.011 -1.2068  0.6212  0.5859
  285MOL0     H39301  10.007   4.434   5.895 -0.0294  0.4653  1.6645
  285MOL0     H39302  10.271   4.287   5.865 -2.2939 -2.3281  1.7261
  285MOL0     H39303  10.221   4.432   5.770 -2.0526  1.3910  0.7919
  285MOL0     H39304  10.271   4.449   6.070  2.8911  0.9226  0.0635
  285MOL0     H39305  10.208   4.569   5.956 -1.7755 -1.1637  0.3407
  285MOL0     H39306  10.429   4.553   5.828  3.4541  0.0915  0.9708
  285MOL0     H39307  10.481   4.420   5.933  0.9067 -0.4949 -0.6389
  285MOL0     H39308  10.415   4.707   6.001 -0.2474  0.4208  0.9629
  285MOL0     H39309  10.575   4.633   5.955  0.1536 -2.8258 -1.1739
  285MOL0     H39310   9.589   4.096   5.907 -0.5687 -0.0663 -0.0161
  285MOL0     H39311   9.352   4.076   5.913 -1.4999 -3.0463 -2.6984
  285MOL0     H39312   8.940   4.143   5.618  0.5956  1.2979  1.0668
  285MOL0     H39313   8.707   4.061   5.614  0.2350 -0.9875 -0.6740
  285MOL0     H39314   8.849   4.951   5.733 -0.3739  1.3825 -2.2153
  285MOL0     H39315   8.974   4.821   5.588  0.1344  1.4385 -1.2647
  285MOL0     H39316   9.043   4.734   5.068  3.1550  0.8520 -1.7400
  285MOL0     H39317   9.211   4.594   4.946  1.5263 -1.3094 -0.3156
  285MOL0     H39318   9.414   4.414   4.888 -1.8026 -0.6368  0.9629
  285MOL0     H39319   9.406   4.586   4.923 -0.7293 -0.5903 -2.1059
  285MOL0     H39320   9.643   4.515   4.858  3.2991 -1.7502  0.2069
  285MOL0     H39321   9.628   4.397   4.995 -1.2425  0.1281  1.2343
  285MOL0     H39322   9.658   4.698   5.041 -0.3734  1.3544  2.5767
  285MOL0     H39323   9.611   4.572   5.157  0.8451  0.3453  0.6298
  285MOL0     H39324   9.860   4.561   4.984 -3.6125 -0.4184 -2.5852
  285MOL0     H39325   9.815   4.461   5.119 -1.3101 -0.8940 -2.3585
  285MOL0     H39326  10.012   4.813   5.280  0.0972 -0.7033  0.1460
  285MOL0     H39327   9.316   4.405   5.308  1.8333  1.4957  0.1185
  285MOL0     H39328   9.166   4.372   5.485 -1.2317 -0.2566  0.9103
  285MOL0     H39329   9.104   4.516   5.542  0.1258 -1.4320  2.2000
  285MOL0     H39330   8.990   4.419   5.452  0.6529 -0.8245 -0.9860
  286MOL0     O39331  10.475   5.414   0.290  0.4322 -0.5243  0.2586
  286MOL0     C39332  10.417   5.509   0.345  0.5319  0.5646  0.2857
  286MOL0     O39333  10.474   5.585   0.444 -0.0404 -0.6959  0.5231
  286MOL0     C39334  10.597   5.570   0.489  0.2801 -0.6753 -0.2397
  286MOL0     C39335  10.636   5.459   0.561  0.1958 -0.3310 -0.1495
  286MOL0     C39336  10.770   5.433   0.605  0.0024  0.3501 -0.1397
  286MOL0     C39337  10.869   5.519   0.564  0.5655 -0.9180 -0.3069
  286MOL0     O39338  10.999   5.494   0.603  0.0392 -0.9288  0.0345
  286MOL0     C39339  11.095   5.600   0.594  0.3609 -0.1347 -0.1469
  286MOL0     C39340  11.212   5.591   0.691  1.5045 -0.5334  0.5907
  286MOL0     C39341  11.164   5.611   0.837  0.7475  0.5964 -0.1009
  286MOL0     C39342  11.290   5.620   0.930  0.8001 -0.0979 -1.0420
  286MOL0     C39343  11.241   5.629   1.071 -0.1804  1.2660  0.1011
  286MOL0     C39344  11.348   5.657   1.165 -0.3447  0.0103 -0.0728
  286MOL0     C39345  11.452   5.538   1.170 -0.1162  0.1606  1.1164
  286MOL0     C39346  11.556   5.539   1.291 -0.5843 -0.3496  0.4199
  286MOL0     N39347  11.655   5.648   1.272 -0.3908 -0.5502 -0.4328
  286MOL0     C39348  11.643   5.774   1.332 -0.7080  0.4413  0.0801
  286MOL0     C39349  11.762   5.834   1.307  0.3085  0.7393 -0.5380
  286MOL0     C39350  11.813   5.971   1.354 -0.7569  0.1046 -0.3286
  286MOL0     C39351  11.919   5.975   1.467  0.6882  0.0730  0.4130
  286MOL0     C39352  11.969   6.119   1.478 -0.5082  0.5021 -0.0709
  286MOL0     C39353  12.100   6.125   1.564  0.0970  0.2516 -0.1752
  286MOL0     O39354  12.075   6.116   1.703  0.0810  0.6044 -0.2634
  286MOL0     C39355  12.181   6.139   1.784 -0.2046  0.8910 -0.1379
  286MOL0     C39356  12.162   6.127   1.921 -0.6250 -0.5963 -0.9981
  286MOL0     C39357  12.266   6.139   2.018  0.1638  0.5892  0.3829
  286MOL0     C39358  12.237   6.136   2.164 -0.2996  0.4814 -0.0207
  286MOL0     C39359  12.401   6.139   1.971  0.9288 -0.6504 -0.6994
  286MOL0     C39360  12.514   6.132   2.070  0.1033 -0.3714  1.3392
  286MOL0     O39361  12.532   6.250   2.139 -0.0376 -0.1245 -0.6599
  286MOL0     C39362  12.633   6.236   2.233 -0.0205 -0.2229  0.3681
  286MOL0     C39363  12.767   6.272   2.195  0.3541  0.4225 -0.2067
  286MOL0     C39364  12.872   6.269   2.285 -0.3022  0.0583  0.3034
  286MOL0     C39365  12.847   6.226   2.418  0.5135  1.2793 -0.1588
  286MOL0     O39366  12.957   6.207   2.497 -0.0347 -0.0670  0.4086
  286MOL0     C39367  12.956   6.170   2.638  0.2315 -0.1532 -0.1752
  286MOL0     C39368  13.098   6.188   2.693 -0.0488  0.2838  0.4115
  286MOL0     C39369  13.195   6.095   2.624 -0.2166 -0.2442  0.5844
  286MOL0     C39370  13.342   6.131   2.676 -0.4420  0.1382 -0.1390
  286MOL0     C39371  13.398   6.270   2.621 -0.1822  0.9337 -0.4576
  286MOL0     C39372  13.544   6.314   2.645  0.8864 -0.0214 -0.0284
  286MOL0     C39373  13.578   6.290   2.783  0.3622  0.4681 -0.3176
  286MOL0     C39374  13.692   6.372   2.845  0.4101  0.1331 -0.3155
  286MOL0    Cl39375  13.815   6.418   2.729  0.4018 -0.3874 -0.2166
  286MOL0     C39376  12.715   6.186   2.451  0.6777  0.8161 -0.6601
  286MOL0     C39377  12.612   6.193   2.360 -0.3995  0.5023 -0.3820
  286MOL0     O39378  12.574   6.029   2.081 -0.3051 -0.2096  0.3698
  286MOL0     C39379  12.416   6.145   1.831  0.1788 -0.9736 -0.5494
  286MOL0     C39380  12.314   6.144   1.743  0.0465 -0.3161  0.1526
  286MOL0     N39381  11.843   5.749   1.232  0.3240  0.5279 -0.1494
  286MOL0     N39382  11.785   5.637   1.217  0.3144 -0.0396  0.9084
  286MOL0     C39383  10.830   5.629   0.480  0.0177 -0.9099  0.1554
  286MOL0     C39384  10.700   5.656   0.446  0.2716 -0.4822 -0.3032
  286MOL0     C39385  10.278   5.543   0.311  0.1208  0.6317  0.6446
  286MOL0     C39386  10.189   5.437   0.271 -0.2964  1.4512  0.9756
  286MOL0     C39387  10.067   5.451   0.214  0.3091 -0.1887  0.6109
  286MOL0     C39388  10.021   5.576   0.190 -0.5788 -1.2142 -0.8007
  286MOL0     O39389   9.906   5.573   0.119  0.5826  0.5582  0.1954
  286MOL0     C39390   9.806   5.659   0.177 -0.4701  0.4662  0.2327
  286MOL0     C39391   9.675   5.612   0.113  0.1198 -0.6421  0.2989
  286MOL0     C39392   9.631   5.465   0.142  0.8654  0.2431 -1.1708
  286MOL0     C39393   9.606   5.443   0.291  0.0808 -0.8316 -0.6565
  286MOL0     C39394   9.534   5.553   0.363  0.0287  0.2104 -1.0627
  286MOL0     C39395   9.473   5.627   0.439 -0.5282 -0.7307 -0.5430
  286MOL0     C39396  10.095   5.689   0.228 -0.3841 -0.0734 -0.6117
  286MOL0     C39397  10.224   5.670   0.295  0.7410 -0.3093 -0.3534
  286MOL0     C39398  10.298   5.798   0.328 -0.2025  0.4333 -0.1309
  286MOL0     H39399  10.565   5.387   0.601 -1.2971  0.2757 -1.6127
  286MOL0     H39400  10.795   5.353   0.674 -1.6478  0.2143  0.3530
  286MOL0     H39401  11.041   5.690   0.623  2.6343  1.2100  0.1634
  286MOL0     H39402  11.132   5.604   0.491 -0.3969 -0.8552 -0.4617
  286MOL0     H39403  11.249   5.490   0.669 -0.5958 -0.8650 -1.8754
  286MOL0     H39404  11.284   5.664   0.654 -1.6110  0.8008 -3.5642
  286MOL0     H39405  11.114   5.707   0.848  0.3659  0.6340 -1.9715
  286MOL0     H39406  11.095   5.530   0.860 -0.2595  1.0746 -1.3435
  286MOL0     H39407  11.351   5.531   0.913 -2.4869 -2.2982 -2.3199
  286MOL0     H39408  11.351   5.703   0.894  0.7585 -1.0753 -3.5191
  286MOL0     H39409  11.195   5.535   1.102 -2.0227  2.3152  0.6831
  286MOL0     H39410  11.165   5.707   1.077 -1.8614 -0.1505 -1.3877
  286MOL0     H39411  11.390   5.756   1.147 -1.5773  0.5409 -0.0927
  286MOL0     H39412  11.305   5.653   1.266 -1.2236  1.0328 -0.3944
  286MOL0     H39413  11.517   5.547   1.083  1.5661 -5.1587  1.4588
  286MOL0     H39414  11.405   5.439   1.163  0.4545  0.0235 -1.6426
  286MOL0     H39415  11.512   5.541   1.391  1.4465 -1.5360  1.4203
  286MOL0     H39416  11.611   5.445   1.281 -0.0270 -0.0643  0.7351
  286MOL0     H39417  11.568   5.813   1.400 -1.1861  0.0408 -0.2131
  286MOL0     H39418  11.730   6.039   1.374 -0.1966  0.4332  0.9354
  286MOL0     H39419  11.851   6.027   1.268  1.4718  3.2544  2.4660
  286MOL0     H39420  11.875   5.931   1.557 -2.7462 -1.3508 -1.7137
  286MOL0     H39421  11.999   5.906   1.438 -0.3853 -0.5081 -1.3943
  286MOL0     H39422  11.998   6.156   1.379  1.2660 -1.6002 -0.4330
  286MOL0     H39423  11.898   6.189   1.523  2.0984  2.1536  1.7634
  286MOL0     H39424  12.148   6.031   1.534 -0.0656  0.0452  0.2059
  286MOL0     H39425  12.163   6.213   1.553 -0.5292  1.0719  2.1448
  286MOL0     H39426  12.063   6.127   1.966 -0.5736  0.5114 -0.8531
  286MOL0     H39427  12.238   6.034   2.203 -1.1959  0.7309  0.6966
  286MOL0     H39428  12.134   6.165   2.188 -1.1511 -2.5280  0.4830
  286MOL0     H39429  12.311   6.194   2.218  1.8132 -0.2256 -1.9888
  286MOL0     H39430  12.785   6.290   2.089  2.0119 -5.0885 -1.1802
  286MOL0     H39431  12.975   6.293   2.260 -0.8437  1.6087 -0.5959
  286MOL0     H39432  12.889   6.228   2.701  0.3008 -0.5004  0.2210
  286MOL0     H39433  12.930   6.064   2.647  0.1530 -0.2745 -1.5186
  286MOL0     H39434  13.139   6.287   2.671  0.4677 -0.0261 -0.0173
  286MOL0     H39435  13.095   6.176   2.802  0.8746 -1.0477  0.3092
  286MOL0     H39436  13.182   6.102   2.516 -0.2687  0.0314  0.6070
  286MOL0     H39437  13.180   5.990   2.650 -1.9555 -0.5632 -1.3795
  286MOL0     H39438  13.404   6.044   2.652 -1.9726 -1.0529  0.0696
  286MOL0     H39439  13.338   6.129   2.785  1.3093 -0.5739 -0.0591
  286MOL0     H39440  13.379   6.250   2.515  0.2879 -0.6254 -0.2767
  286MOL0     H39441  13.334   6.338   2.677 -1.9639 -0.3836 -0.8191
  286MOL0     H39442  13.564   6.421   2.635  4.2326 -0.4865  0.5474
  286MOL0     H39443  13.612   6.254   2.584  0.3096 -2.0450  1.2371
  286MOL0     H39444  13.603   6.186   2.804  1.8447  1.6578  5.7276
  286MOL0     H39445  13.494   6.307   2.850  0.8651 -0.3078  0.5257
  286MOL0     H39446  13.734   6.302   2.918 -1.6972  0.3977  1.2478
  286MOL0     H39447  13.644   6.451   2.904  0.9494 -1.0185  1.7920
  286MOL0     H39448  12.695   6.135   2.544 -2.2185 -1.7427 -2.4635
  286MOL0     H39449  12.514   6.166   2.398 -0.0673  0.2381  0.2907
  286MOL0     H39450  12.516   6.142   1.788 -1.0125 -0.2830 -3.6446
  286MOL0     H39451  12.346   6.160   1.641 -0.3896 -2.0694 -0.2943
  286MOL0     H39452  10.906   5.678   0.419 -0.6884 -1.1818 -0.9669
  286MOL0     H39453  10.679   5.723   0.363  1.0811 -1.6015 -1.4512
  286MOL0     H39454  10.235   5.339   0.272  1.0760  2.0366 -0.1564
  286MOL0     H39455  10.015   5.363   0.177  0.0978 -0.3436  1.2675
  286MOL0     H39456   9.804   5.650   0.286  0.6393 -1.4935  0.1457
  286MOL0     H39457   9.822   5.763   0.149  0.1354  0.0664 -0.9982
  286MOL0     H39458   9.668   5.638   0.007 -0.8041 -0.6408  0.3501
  286MOL0     H39459   9.600   5.683   0.149  0.7215 -0.4845  1.2833
  286MOL0     H39460   9.542   5.435   0.085 -3.1474  3.8488  2.4961
  286MOL0     H39461   9.708   5.390   0.118  0.8309 -0.4166  0.6318
  286MOL0     H39462   9.697   5.431   0.351 -1.3115  0.3094  1.8769
  286MOL0     H39463   9.541   5.357   0.312 -3.4762  2.1587  1.9658
  286MOL0     H39464   9.403   5.681   0.499 -0.4850  0.1061 -1.2223
  286MOL0     H39465  10.058   5.787   0.200  0.5308 -0.4781 -3.5318
  286MOL0     H39466  10.287   5.887   0.265  0.6081  0.2367 -0.5631
  286MOL0     H39467  10.283   5.830   0.432 -2.3818  1.7249 -0.7695
  286MOL0     H39468  10.407   5.789   0.325 -0.1783 -0.2220  1.6637
  287MOL0     O39469   4.376   9.637   6.948  0.2626 -0.8125  0.1158
  287MOL0     C39470   4.317   9.549   7.010  0.2376 -0.3803  0.1494
  287MOL0     O39471   4.331   9.414   6.999 -0.3280 -0.4395 -0.5926
  287MOL0     C39472   4.441   9.344   6.976  0.2801  0.3370  0.3073
  287MOL0     C39473   4.434   9.210   6.965  0.3183  0.4827 -0.3394
  287MOL0     C39474   4.555   9.135   6.954 -0.0505 -0.0468 -0.1939
  287MOL0     C39475   4.686   9.194   6.951  0.0301 -1.2566 -0.6653
  287MOL0     O39476   4.801   9.111   6.944  0.2878  0.7416 -0.0103
  287MOL0     C39477   4.902   9.149   6.851  0.0233  0.1995 -0.1283
  287MOL0     C39478   4.948   9.016   6.786  0.2269 -0.6951  0.2115
  287MOL0     C39479   4.853   8.973   6.676  0.2355  0.3736  1.1386
  287MOL0     C39480   4.839   8.822   6.655 -0.4482  0.2513  0.1089
  287MOL0     C39481   4.960   8.753   6.597  0.1070  0.1921  0.5097
  287MOL0     C39482   4.933   8.606   6.580 -0.2392  0.0893  0.1392
  287MOL0     C39483   5.057   8.550   6.495 -0.5927  0.5182 -0.2358
  287MOL0     C39484   5.035   8.396   6.467  0.1315 -0.2250  0.2381
  287MOL0     N39485   5.145   8.356   6.375  0.5121 -0.7226 -0.4324
  287MOL0     C39486   5.236   8.272   6.418 -0.6050 -0.5510 -0.0630
  287MOL0     C39487   5.336   8.273   6.321  0.3524  0.5257 -0.5879
  287MOL0     C39488   5.468   8.213   6.325  0.4200  0.7088 -0.0614
  287MOL0     C39489   5.559   8.257   6.212  0.3207 -0.3770  0.3255
  287MOL0     C39490   5.695   8.197   6.210 -0.3619  0.2258 -0.6341
  287MOL0     C39491   5.760   8.233   6.085 -0.3305 -0.5990  0.8965
  287MOL0     O39492   5.895   8.189   6.092 -0.7640 -0.3779  0.3643
  287MOL0     C39493   5.991   8.212   6.002 -1.3656 -0.2693 -0.2149
  287MOL0     C39494   5.962   8.251   5.871 -0.3964 -0.2093 -0.1537
  287MOL0     C39495   6.061   8.266   5.773  0.6965  0.0405  0.2932
  287MOL0     C39496   6.010   8.296   5.631 -0.3927  0.4857 -1.2256
  287MOL0     C39497   6.196   8.258   5.807 -0.3659  0.3574  0.1166
  287MOL0     C39498   6.307   8.305   5.718  0.3824 -0.1647  0.2049
  287MOL0     O39499   6.300   8.279   5.585 -0.3832 -0.5967  0.1737
  287MOL0     C39500   6.408   8.298   5.506 -0.4095 -0.2873  1.3406
  287MOL0     C39501   6.544   8.271   5.534 -0.8230  0.4665  0.7864
  287MOL0     C39502   6.649   8.284   5.441  0.4168 -0.1857 -0.3218
  287MOL0     C39503   6.614   8.345   5.322 -0.2887  0.7023 -0.4950
  287MOL0     O39504   6.704   8.383   5.225  0.7348 -0.4862  0.1403
  287MOL0     C39505   6.804   8.481   5.248  0.5397 -0.0246  0.4258
  287MOL0     C39506   6.903   8.512   5.124  0.2373  0.7634  0.3868
  287MOL0     C39507   6.823   8.560   4.991 -0.2403  0.8920 -0.0389
  287MOL0     C39508   6.906   8.550   4.856  0.7012 -0.5835 -0.0523
  287MOL0     C39509   6.840   8.622   4.735 -0.2685  0.2622 -0.1832
  287MOL0     C39510   6.923   8.688   4.624 -0.5612 -0.2891  1.0957
  287MOL0     C39511   7.038   8.600   4.576 -0.0246 -0.7741  0.4226
  287MOL0     C39512   7.145   8.678   4.504  0.8954 -0.6743 -1.1902
  287MOL0    Cl39513   7.085   8.779   4.369  0.0458  0.0634  0.1508
  287MOL0     C39514   6.471   8.361   5.288 -0.5567 -0.0754 -0.0331
  287MOL0     C39515   6.376   8.341   5.382  0.0535 -0.1497 -0.1193
  287MOL0     O39516   6.400   8.354   5.780  0.2788  0.0947  0.4877
  287MOL0     C39517   6.229   8.216   5.940  0.3849 -0.1104  0.0108
  287MOL0     C39518   6.123   8.182   6.028  0.4784  1.0932  0.4356
  287MOL0     N39519   5.305   8.372   6.231  0.7617 -0.2024  0.2754
  287MOL0     N39520   5.190   8.425   6.269 -0.4369 -0.1893 -0.1941
  287MOL0     C39521   4.687   9.337   6.959  0.0356  0.5335  0.3224
  287MOL0     C39522   4.565   9.406   6.965 -0.3231 -0.5665 -0.2965
  287MOL0     C39523   4.221   9.592   7.114  0.2318  0.1906  0.3062
  287MOL0     C39524   4.263   9.701   7.193 -1.2994  0.9796  0.2242
  287MOL0     C39525   4.190   9.745   7.301  0.3443  0.5180 -0.5334
  287MOL0     C39526   4.065   9.702   7.326 -0.2395  0.7823 -0.2615
  287MOL0     O39527   4.002   9.764   7.438  0.4670  0.4998  0.5918
  287MOL0     C39528   3.873   9.719   7.473  0.5016  0.3388  0.6535
  287MOL0     C39529   3.815   9.762   7.606  0.1422 -0.4588  1.0694
  287MOL0     C39530   3.835   9.920   7.625  0.3308 -0.0553  0.0628
  287MOL0     C39531   3.776   9.970   7.759 -0.4973 -0.2684  0.1433
  287MOL0     C39532   3.847   9.905   7.869  0.8682 -0.6819  0.5876
  287MOL0     C39533   3.865   9.840   7.966 -0.8027 -0.4319 -0.7106
  287MOL0     C39534   4.019   9.599   7.242 -0.8218 -0.2771  0.4415
  287MOL0     C39535   4.094   9.536   7.141  0.2822 -0.2656  0.4512
  287MOL0     C39536   4.023   9.433   7.047 -0.9749  1.5059  0.2653
  287MOL0     H39537   4.334   9.168   6.970 -0.6930  2.7351 -0.0997
  287MOL0     H39538   4.544   9.027   6.960  0.6609 -0.0662  1.3111
  287MOL0     H39539   4.994   9.173   6.903  0.8220 -0.5706 -1.1351
  287MOL0     H39540   4.875   9.224   6.777 -0.0875  1.7426  1.4258
  287MOL0     H39541   5.049   9.024   6.744  0.1598  2.8515  0.4878
  287MOL0     H39542   4.951   8.945   6.869 -0.9584 -1.4890 -0.4024
  287MOL0     H39543   4.752   9.013   6.692 -1.3197 -2.1380 -1.3298
  287MOL0     H39544   4.891   9.010   6.580 -0.3407 -0.5299  0.5455
  287MOL0     H39545   4.806   8.770   6.746 -2.5860  0.5234 -0.4407
  287MOL0     H39546   4.759   8.807   6.581  1.3949 -1.0154 -1.7380
  287MOL0     H39547   5.046   8.768   6.662  2.2971  0.2611 -2.2331
  287MOL0     H39548   4.996   8.789   6.500 -1.2641  1.0820  0.3018
  287MOL0     H39549   4.915   8.557   6.676 -3.2343 -0.2219 -0.4913
  287MOL0     H39550   4.847   8.588   6.515  0.4742  1.3637 -1.2195
  287MOL0     H39551   5.154   8.555   6.545 -1.5702  2.4535  1.6099
  287MOL0     H39552   5.072   8.605   6.401 -1.3858  0.0122 -0.6765
  287MOL0     H39553   5.045   8.340   6.560  2.5612 -0.2983  0.0093
  287MOL0     H39554   4.939   8.373   6.419 -0.6170  0.5635  1.3365
  287MOL0     H39555   5.233   8.212   6.508 -3.9691  0.9866  0.9854
  287MOL0     H39556   5.460   8.104   6.323 -2.0386  0.8377 -0.9662
  287MOL0     H39557   5.514   8.246   6.418  0.9994 -1.6750  0.5569
  287MOL0     H39558   5.503   8.227   6.122 -1.1182  1.9605  0.3663
  287MOL0     H39559   5.553   8.366   6.219 -2.5490 -0.3858 -0.7173
  287MOL0     H39560   5.739   8.238   6.302  0.8778 -2.9041  0.3170
  287MOL0     H39561   5.692   8.091   6.238 -1.0677  1.0712  3.1033
  287MOL0     H39562   5.711   8.177   6.005 -1.2549 -1.5399  2.0861
  287MOL0     H39563   5.759   8.339   6.057 -2.1806 -0.8923 -0.3200
  287MOL0     H39564   5.861   8.264   5.832 -0.2842 -0.2999 -0.4820
  287MOL0     H39565   6.006   8.202   5.576  2.4762 -1.4258  1.4939
  287MOL0     H39566   6.067   8.371   5.575 -0.5148  1.7825  0.3190
  287MOL0     H39567   5.912   8.345   5.634  0.6989  2.7995 -0.6051
  287MOL0     H39568   6.563   8.242   5.637  1.1129 -0.7759  0.1347
  287MOL0     H39569   6.751   8.258   5.466 -0.3566 -2.1640  1.0468
  287MOL0     H39570   6.768   8.578   5.281  1.0640  1.5756 -3.2026
  287MOL0     H39571   6.865   8.448   5.333  0.3976  0.2693  0.6435
  287MOL0     H39572   6.975   8.589   5.152  0.9166  1.2304 -2.3730
  287MOL0     H39573   6.954   8.416   5.110 -1.8406 -0.4713  0.8267
  287MOL0     H39574   6.814   8.666   5.013 -0.7028  0.7234  0.6014
  287MOL0     H39575   6.724   8.515   4.978 -0.0061  0.1575  0.5870
  287MOL0     H39576   6.915   8.446   4.826 -1.5904 -0.4928 -1.2813
  287MOL0     H39577   7.004   8.594   4.877  0.3372  0.0157  0.4194
  287MOL0     H39578   6.794   8.538   4.682 -0.4220  1.0582 -1.3677
  287MOL0     H39579   6.775   8.704   4.767 -0.9487  0.0935 -1.0929
  287MOL0     H39580   6.970   8.777   4.667  3.3404 -1.2799 -0.6881
  287MOL0     H39581   6.872   8.719   4.532 -2.4772  0.9600  2.5087
  287MOL0     H39582   7.002   8.521   4.510  1.2711  0.2078 -1.5664
  287MOL0     H39583   7.090   8.550   4.658  1.2841 -2.4600 -1.3253
  287MOL0     H39584   7.232   8.617   4.479  1.5419 -0.3363  0.1664
  287MOL0     H39585   7.194   8.753   4.567  0.6601 -2.1361  0.8139
  287MOL0     H39586   6.439   8.386   5.187 -0.7634 -1.5800 -0.3563
  287MOL0     H39587   6.273   8.353   5.350  0.5586  3.0959 -0.9463
  287MOL0     H39588   6.333   8.225   5.968 -0.0641  0.5275  1.5814
  287MOL0     H39589   6.152   8.160   6.131 -1.8639  2.3879  1.4548
  287MOL0     H39590   4.777   9.398   6.959  0.3235  0.1547 -1.2391
  287MOL0     H39591   4.559   9.514   6.956  0.9244 -0.6070 -2.1325
  287MOL0     H39592   4.354   9.758   7.186 -1.6746  1.8850  2.1417
  287MOL0     H39593   4.228   9.820   7.370  4.3403 -1.8110  0.1364
  287MOL0     H39594   3.799   9.739   7.394 -1.2009 -0.6748  1.9390
  287MOL0     H39595   3.874   9.610   7.480 -1.9866  0.2315  0.3160
  287MOL0     H39596   3.861   9.709   7.690  2.1618  2.1241  1.7060
  287MOL0     H39597   3.709   9.740   7.620 -0.0949 -0.5886 -0.7029
  287MOL0     H39598   3.944   9.932   7.628  0.3315 -0.1649  2.2388
  287MOL0     H39599   3.791   9.976   7.542 -1.2218  0.1992  1.0161
  287MOL0     H39600   3.668   9.954   7.763 -1.0789  2.2540 -2.1927
  287MOL0     H39601   3.794  10.077   7.769  0.3390 -0.3660 -0.2045
  287MOL0     H39602   3.889   9.781   8.053 -1.7022  2.0470  1.3672
  287MOL0     H39603   3.919   9.567   7.266  0.4333 -2.4716  3.3359
  287MOL0     H39604   4.017   9.458   6.940  1.5712 -0.8868 -0.5648
  287MOL0     H39605   4.088   9.346   7.035 -0.3707  2.2114 -2.2290
  287MOL0     H39606   3.920   9.409   7.078 -0.7231  1.6544  1.2484
  288MOL0     O39607   0.674   0.457   0.641  0.4964  0.2473  0.1622
  288MOL0     C39608   0.674   0.481   0.520 -0.8921 -0.2641  0.3289
  288MOL0     O39609   0.787   0.489   0.443 -0.2845  0.2852  0.4462
  288MOL0     C39610   0.906   0.509   0.516 -0.2873 -0.2987  0.5029
  288MOL0     C39611   0.943   0.633   0.549  0.3043 -0.5357 -0.2362
  288MOL0     C39612   1.072   0.661   0.608 -0.5564  0.5266 -0.4032
  288MOL0     C39613   1.152   0.561   0.654  0.1838  0.1362  0.0710
  288MOL0     O39614   1.274   0.584   0.708 -0.4402  0.3492  0.1859
  288MOL0     C39615   1.287   0.542   0.840 -0.3539 -0.0918  0.7648
  288MOL0     C39616   1.356   0.652   0.922 -0.5238  0.5441  0.3845
  288MOL0     C39617   1.358   0.619   1.066  0.4656  0.1141  0.4947
  288MOL0     C39618   1.447   0.717   1.147  0.9390 -0.2355  0.8393
  288MOL0     C39619   1.434   0.702   1.295 -0.3588  0.2873 -0.2431
  288MOL0     C39620   1.473   0.562   1.359  0.0889 -0.2382  0.5380
  288MOL0     C39621   1.618   0.518   1.342 -0.3016 -0.1983  0.2259
  288MOL0     C39622   1.724   0.613   1.392  0.0231  0.1753  0.3456
  288MOL0     N39623   1.853   0.566   1.373 -0.6123  0.2101  0.4910
  288MOL0     C39624   1.907   0.447   1.415 -0.2212  0.4962 -0.3473
  288MOL0     C39625   2.038   0.451   1.382 -0.0223 -0.1905 -0.0979
  288MOL0     C39626   2.133   0.335   1.411  0.3027  0.5113  0.3751
  288MOL0     C39627   2.261   0.385   1.478 -0.2691 -0.3769  0.4052
  288MOL0     C39628   2.381   0.292   1.453  0.0396  0.2112  0.4436
  288MOL0     C39629   2.493   0.331   1.542 -0.9165  0.5716 -0.0716
  288MOL0     O39630   2.595   0.238   1.499  0.3164  0.0270  0.3934
  288MOL0     C39631   2.713   0.280   1.463  0.2078  0.5901 -0.0235
  288MOL0     C39632   2.785   0.211   1.371  0.1895  0.9634  0.2589
  288MOL0     C39633   2.924   0.231   1.351 -0.5076 -0.2220 -0.3392
  288MOL0     C39634   2.983   0.142   1.250 -1.0692  0.0050  0.4367
  288MOL0     C39635   2.993   0.326   1.432 -0.0194 -0.2430 -1.2620
  288MOL0     C39636   3.135   0.332   1.433 -0.0930  0.7537  0.0831
  288MOL0     O39637   3.197   0.368   1.549 -0.1143 -0.2556  0.1553
  288MOL0     C39638   3.336   0.366   1.558  0.8467 -0.4056  0.4027
  288MOL0     C39639   3.396   0.238   1.595  0.0978  0.3868 -0.9253
  288MOL0     C39640   3.528   0.239   1.630 -0.8317  0.0951  0.9108
  288MOL0     C39641   3.617   0.352   1.598  0.4930 -0.5706  0.2460
  288MOL0     O39642   3.751   0.365   1.613 -0.1021 -0.3410 -0.1933
  288MOL0     C39643   3.825   0.263   1.677 -0.5797  0.3318 -0.4598
  288MOL0     C39644   3.973   0.314   1.678  0.2182  1.0784 -0.7877
  288MOL0     C39645   4.070   0.186   1.711  0.0158 -0.8484  0.0037
  288MOL0     C39646   4.213   0.244   1.751  0.0370  0.2378  0.1408
  288MOL0     C39647   4.319   0.131   1.759  0.2533 -0.1059  0.2013
  288MOL0     C39648   4.465   0.189   1.757 -0.8335  0.0120  0.3393
  288MOL0     C39649   4.568   0.087   1.810 -0.2092 -0.5639  0.6156
  288MOL0     C39650   4.704   0.163   1.811 -0.1107  0.2697  0.3037
  288MOL0    Cl39651   4.771   0.195   1.646 -0.2566  0.2274 -0.0354
  288MOL0     C39652   3.560   0.465   1.548  1.2110 -0.4622  0.2883
  288MOL0     C39653   3.416   0.479   1.541  0.8589 -0.4349 -0.3753
  288MOL0     O39654   3.194   0.306   1.331  0.1311  0.3073  0.3841
  288MOL0     C39655   2.922   0.406   1.533 -0.4013 -0.5696  0.4678
  288MOL0     C39656   2.783   0.377   1.543 -0.2985  0.7423 -0.9540
  288MOL0     N39657   2.064   0.576   1.332  0.1573 -0.1294  0.3818
  288MOL0     N39658   1.956   0.644   1.331  0.3264 -0.5080  0.6113
  288MOL0     C39659   1.117   0.427   0.614  0.2023 -0.3053  0.1561
  288MOL0     C39660   0.990   0.397   0.556 -0.0924 -0.4403 -0.1783
  288MOL0     C39661   0.545   0.519   0.451 -0.3626 -0.2746  0.4716
  288MOL0     C39662   0.533   0.519   0.310 -0.1945  0.8794 -0.6286
  288MOL0     C39663   0.414   0.544   0.250  0.7886 -0.2930 -0.7318
  288MOL0     C39664   0.298   0.575   0.325 -0.8378  0.0840  0.0585
  288MOL0     O39665   0.184   0.590   0.254  0.3437  1.1016 -0.4181
  288MOL0     C39666   0.067   0.622   0.333 -0.9327 -0.1575  1.3752
  288MOL0     C39667  -0.043   0.635   0.221  0.8325  0.8522 -0.4319
  288MOL0     C39668  -0.159   0.721   0.259  0.6921  0.1465 -0.0135
  288MOL0     C39669  -0.287   0.712   0.169  0.3659  0.1412 -0.1377
  288MOL0     C39670  -0.400   0.795   0.209 -0.0965  0.0787  0.6358
  288MOL0     C39671  -0.491   0.866   0.247 -0.4633 -0.1585 -0.2982
  288MOL0     C39672   0.320   0.586   0.462 -0.6719  0.3232  0.1098
  288MOL0     C39673   0.436   0.560   0.529 -0.5163  0.1503  0.2370
  288MOL0     C39674   0.434   0.581   0.672  0.6648 -0.1646  0.3242
  288MOL0     H39675   0.872   0.709   0.517 -0.1941 -0.3085  1.3233
  288MOL0     H39676   1.100   0.761   0.639 -0.9534  0.4809  0.1243
  288MOL0     H39677   1.347   0.450   0.845  0.7394  0.5478 -0.0953
  288MOL0     H39678   1.186   0.525   0.877  0.2641 -0.7020  2.2603
  288MOL0     H39679   1.458   0.657   0.883 -0.4875  0.8448  0.5140
  288MOL0     H39680   1.309   0.750   0.906 -1.6314 -0.0600 -0.1990
  288MOL0     H39681   1.259   0.597   1.109 -0.0404  0.0707 -0.6535
  288MOL0     H39682   1.405   0.520   1.064 -0.2285 -0.2221 -0.8300
  288MOL0     H39683   1.549   0.714   1.106  0.3343  0.3803 -0.7602
  288MOL0     H39684   1.414   0.819   1.128 -0.2461 -0.7066  0.2624
  288MOL0     H39685   1.331   0.727   1.322 -0.0491  3.2003 -1.3277
  288MOL0     H39686   1.492   0.784   1.339 -0.8162  0.6754 -0.3455
  288MOL0     H39687   1.452   0.557   1.466 -0.1744  1.2002  0.5702
  288MOL0     H39688   1.404   0.488   1.317 -0.4839  0.9777 -0.7758
  288MOL0     H39689   1.642   0.501   1.237  1.9260  1.0462  0.4785
  288MOL0     H39690   1.622   0.419   1.387 -1.1621 -0.0884  0.5682
  288MOL0     H39691   1.718   0.712   1.345  0.5015  0.3370  0.6155
  288MOL0     H39692   1.705   0.643   1.495  1.3161 -0.7149  0.8705
  288MOL0     H39693   1.862   0.357   1.457  2.1246 -0.4671  0.2542
  288MOL0     H39694   2.143   0.292   1.311 -5.2565  4.0351 -2.2125
  288MOL0     H39695   2.087   0.254   1.467 -3.2074 -0.4160 -3.3744
  288MOL0     H39696   2.283   0.481   1.430 -3.7338  1.4060  2.0065
  288MOL0     H39697   2.256   0.416   1.582 -0.1788  3.1060 -0.5054
  288MOL0     H39698   2.349   0.187   1.454  2.2407 -0.5325 -0.6224
  288MOL0     H39699   2.424   0.298   1.353 -1.1255  0.1700 -0.0794
  288MOL0     H39700   2.520   0.436   1.522  0.2398 -0.1589 -2.7513
  288MOL0     H39701   2.469   0.324   1.649  3.8146 -0.5910  1.1619
  288MOL0     H39702   2.739   0.128   1.318  0.4967  1.6321 -1.1003
  288MOL0     H39703   2.913   0.077   1.196  0.6443  0.3036 -2.3255
  288MOL0     H39704   3.046   0.066   1.299 -1.2947 -0.9807 -0.7416
  288MOL0     H39705   3.046   0.178   1.169 -2.1250 -2.0111 -1.4045
  288MOL0     H39706   3.340   0.147   1.614  1.3410 -0.4523 -1.1509
  288MOL0     H39707   3.581   0.150   1.660  1.8527  0.3640 -2.3942
  288MOL0     H39708   3.797   0.263   1.783  0.7280  0.5811 -0.1012
  288MOL0     H39709   3.813   0.165   1.630 -2.7182  0.5657 -0.5200
  288MOL0     H39710   3.997   0.356   1.579 -0.8681  0.6855 -1.2327
  288MOL0     H39711   3.978   0.384   1.761  6.3545 -1.8747  1.9923
  288MOL0     H39712   4.069   0.110   1.633 -1.8747 -2.0958  1.1590
  288MOL0     H39713   4.030   0.142   1.803  0.4815 -0.2260  0.5116
  288MOL0     H39714   4.210   0.308   1.840 -0.5508  1.1111 -0.4896
  288MOL0     H39715   4.242   0.317   1.674 -2.0525  1.2473  0.2493
  288MOL0     H39716   4.299   0.065   1.844 -1.4560 -2.7003 -2.0669
  288MOL0     H39717   4.301   0.071   1.669  1.0774 -0.3289  0.1776
  288MOL0     H39718   4.470   0.280   1.818 -1.6312  0.6444 -0.5123
  288MOL0     H39719   4.493   0.227   1.659 -0.5612  0.8108  0.7137
  288MOL0     H39720   4.575   0.003   1.739 -0.0060 -1.8971  2.1647
  288MOL0     H39721   4.542   0.060   1.912  0.9244 -2.3530  0.4952
  288MOL0     H39722   4.776   0.096   1.860  0.5022  0.0398 -0.8823
  288MOL0     H39723   4.700   0.257   1.867 -0.6743  0.5115 -0.1308
  288MOL0     H39724   3.626   0.548   1.524  0.0126  0.0618 -1.3191
  288MOL0     H39725   3.364   0.569   1.509 -0.9638 -2.3629 -3.3261
  288MOL0     H39726   2.967   0.465   1.612 -0.0503 -2.1019  1.4619
  288MOL0     H39727   2.751   0.420   1.637  3.1621  0.1130  0.6835
  288MOL0     H39728   1.182   0.341   0.630  1.7218  0.5873 -0.9922
  288MOL0     H39729   0.966   0.294   0.532  0.6886 -0.2396 -2.0107
  288MOL0     H39730   0.622   0.492   0.254  1.4069 -1.4103  2.6706
  288MOL0     H39731   0.405   0.532   0.143  2.9899 -2.0875 -0.8026
  288MOL0     H39732   0.044   0.544   0.406 -1.0863  0.0443  1.5427
  288MOL0     H39733   0.065   0.718   0.385 -2.2780  0.0023  1.0686
  288MOL0     H39734  -0.077   0.531   0.215 -1.7047  1.3644  2.4213
  288MOL0     H39735   0.001   0.672   0.128 -2.2322  0.9448 -1.9715
  288MOL0     H39736  -0.183   0.686   0.360 -1.0729 -2.1347 -1.1184
  288MOL0     H39737  -0.128   0.825   0.269  0.3922  0.3178 -0.7300
  288MOL0     H39738  -0.322   0.609   0.160 -2.1210  1.0699 -2.1702
  288MOL0     H39739  -0.265   0.739   0.065 -0.1051 -1.3452 -0.6489
  288MOL0     H39740  -0.572   0.919   0.294  1.1379  0.6892  1.6331
  288MOL0     H39741   0.232   0.603   0.524  1.2442  3.0322  2.3012
  288MOL0     H39742   0.411   0.491   0.729 -2.6813 -0.0009 -0.5208
  288MOL0     H39743   0.524   0.633   0.704  0.7445 -0.3273  0.3642
  288MOL0     H39744   0.346   0.644   0.693  1.3491  0.4060  1.5884
  289MOL0     O39745   1.043   0.298   8.897  0.1242  0.8670  0.0107
  289MOL0     C39746   1.001   0.413   8.901  0.1393 -0.1451  0.2841
  289MOL0     O39747   1.049   0.510   8.976  0.2210  0.1094 -0.7870
  289MOL0     C39748   1.142   0.483   9.070  0.6140  0.0249  0.6103
  289MOL0     C39749   1.262   0.548   9.067 -0.7017  0.5271  0.6920
  289MOL0     C39750   1.368   0.511   9.150  0.1713 -0.9659  0.3879
  289MOL0     C39751   1.349   0.425   9.258  1.2175  0.5899  0.2426
  289MOL0     O39752   1.460   0.402   9.338  0.0552  0.3851  0.4840
  289MOL0     C39753   1.451   0.305   9.443 -0.5309  0.4156 -1.0282
  289MOL0     C39754   1.584   0.318   9.521  0.0236  0.6555 -0.4786
  289MOL0     C39755   1.704   0.236   9.464 -0.8525  0.0024  0.5380
  289MOL0     C39756   1.826   0.282   9.540  0.4350 -0.8176  0.0365
  289MOL0     C39757   1.962   0.223   9.497  0.1795  0.0021  0.2360
  289MOL0     C39758   2.086   0.318   9.502  0.5283 -0.2822  0.2551
  289MOL0     C39759   2.213   0.231   9.486  0.1893  0.4185 -0.1058
  289MOL0     C39760   2.332   0.319   9.517  0.0889 -0.6531  0.3716
  289MOL0     N39761   2.459   0.240   9.502 -0.3341  0.3573 -0.0460
  289MOL0     C39762   2.507   0.151   9.598  0.4422 -0.0103 -0.0443
  289MOL0     C39763   2.590   0.066   9.535 -0.3288  0.3950 -0.2075
  289MOL0     C39764   2.671  -0.044   9.614 -0.1986  0.0229  0.5605
  289MOL0     C39765   2.823  -0.012   9.583 -0.4705  0.1277 -0.1356
  289MOL0     C39766   2.926  -0.064   9.689 -0.5048 -0.3686 -0.4141
  289MOL0     C39767   3.066   0.011   9.678  0.3230 -0.5493  0.7671
  289MOL0     O39768   3.119  -0.033   9.554  0.1470  0.3415  0.1100
  289MOL0     C39769   3.206  -0.141   9.532  0.0312  0.0743 -0.2282
  289MOL0     C39770   3.200  -0.197   9.402 -0.9115 -0.2325  0.0647
  289MOL0     C39771   3.291  -0.288   9.355  0.5243  0.4248  0.1252
  289MOL0     C39772   3.276  -0.341   9.216 -0.0191 -0.1279  0.7134
  289MOL0     C39773   3.396  -0.330   9.441  0.3806 -0.6137 -0.7105
  289MOL0     C39774   3.498  -0.429   9.411 -0.1004  0.5203 -0.0640
  289MOL0     O39775   3.614  -0.416   9.476 -0.7624 -0.3527  0.4605
  289MOL0     C39776   3.703  -0.516   9.482 -0.2955  0.1324 -0.5724
  289MOL0     C39777   3.772  -0.557   9.363  0.1977 -0.5178 -0.6382
  289MOL0     C39778   3.861  -0.663   9.370 -0.1978  0.3849 -0.2611
  289MOL0     C39779   3.878  -0.740   9.484  0.5248 -0.5155  0.4934
  289MOL0     O39780   3.952  -0.855   9.471 -0.4636  0.1027 -0.4033
  289MOL0     C39781   4.007  -0.925   9.584  0.9872 -0.4167 -0.5023
  289MOL0     C39782   4.082  -1.047   9.516  0.4766  0.2201 -0.0467
  289MOL0     C39783   4.142  -1.144   9.603  1.1917 -0.6357 -0.1485
  289MOL0     C39784   4.170  -1.274   9.524 -0.2834 -0.1019 -0.3103
  289MOL0     C39785   4.209  -1.381   9.614 -0.8661 -0.0933 -0.3651
  289MOL0     C39786   4.170  -1.528   9.569  0.0843  0.6384 -0.3187
  289MOL0     C39787   4.242  -1.629   9.656  0.4236 -0.9730  0.3372
  289MOL0     C39788   4.192  -1.768   9.636 -0.1371 -0.3493 -0.0509
  289MOL0    Cl39789   4.208  -1.801   9.459 -0.2381  0.5339  0.0102
  289MOL0     C39790   3.813  -0.694   9.600 -0.8948  0.6216 -0.4983
  289MOL0     C39791   3.724  -0.585   9.608 -1.2155  0.0599  0.6765
  289MOL0     O39792   3.477  -0.511   9.327  0.3765 -0.1647 -0.6685
  289MOL0     C39793   3.410  -0.268   9.569  0.3120  0.1695  0.2519
  289MOL0     C39794   3.317  -0.171   9.610  1.2552  0.5835 -0.8115
  289MOL0     N39795   2.593   0.097   9.402 -0.5444 -0.0899 -0.1705
  289MOL0     N39796   2.515   0.198   9.384  0.0567  0.6954 -0.3802
  289MOL0     C39797   1.223   0.358   9.263 -0.3674  0.0357 -0.8869
  289MOL0     C39798   1.123   0.385   9.170 -0.4017 -0.2003 -0.1856
  289MOL0     C39799   0.911   0.453   8.787 -0.0953 -1.1726 -1.0496
  289MOL0     C39800   0.901   0.593   8.768 -0.0672 -0.4419 -0.3414
  289MOL0     C39801   0.825   0.641   8.658 -0.6705 -0.4512  0.1360
  289MOL0     C39802   0.759   0.560   8.572 -0.7589 -0.3836  0.5260
  289MOL0     O39803   0.688   0.624   8.470 -0.4976  0.2323  0.2042
  289MOL0     C39804   0.604   0.542   8.388 -0.2400 -0.1470 -0.5512
  289MOL0     C39805   0.514   0.633   8.304 -0.7217 -0.0012 -0.2054
  289MOL0     C39806   0.399   0.699   8.386 -0.5306  0.3012  0.6277
  289MOL0     C39807   0.287   0.745   8.305 -0.2498  1.0120  0.3977
  289MOL0     C39808   0.190   0.824   8.382 -0.0980 -0.2877 -0.4785
  289MOL0     C39809   0.106   0.905   8.411 -0.2893  0.1822  0.1693
  289MOL0     C39810   0.761   0.422   8.597  0.1020 -0.4775 -0.0516
  289MOL0     C39811   0.839   0.369   8.700 -0.6876 -0.2699  0.3072
  289MOL0     C39812   0.829   0.223   8.719 -0.0561  0.5030  0.2022
  289MOL0     H39813   1.281   0.633   9.002 -0.2498  0.5612  0.8665
  289MOL0     H39814   1.464   0.558   9.132  0.3300 -1.2408  0.5152
  289MOL0     H39815   1.448   0.197   9.422  0.5537 -0.3127  2.0872
  289MOL0     H39816   1.376   0.333   9.517 -0.5039 -1.8924 -0.0351
  289MOL0     H39817   1.613   0.423   9.521 -1.0801  0.9788 -0.4556
  289MOL0     H39818   1.566   0.283   9.623  4.7128  2.7146  1.3041
  289MOL0     H39819   1.681   0.130   9.480  0.7800 -0.4437  0.1406
  289MOL0     H39820   1.714   0.255   9.357 -1.9596 -0.3844  0.3554
  289MOL0     H39821   1.837   0.390   9.524 -1.2577 -0.5600  0.3871
  289MOL0     H39822   1.815   0.264   9.647 -1.5270 -0.4221 -0.0579
  289MOL0     H39823   1.947   0.200   9.391 -1.8533  0.3184  0.4057
  289MOL0     H39824   1.985   0.135   9.558 -0.9799  1.0070  2.2452
  289MOL0     H39825   2.076   0.395   9.425 -0.2120  0.4230  1.0273
  289MOL0     H39826   2.084   0.372   9.597 -1.3689  0.5876 -0.2197
  289MOL0     H39827   2.220   0.185   9.387  0.9287  0.3453 -0.0228
  289MOL0     H39828   2.222   0.142   9.548  0.9518 -0.1413 -0.9892
  289MOL0     H39829   2.342   0.402   9.447  2.7914 -0.1463  1.2429
  289MOL0     H39830   2.333   0.372   9.613  3.4290 -1.8213  1.1302
  289MOL0     H39831   2.487   0.164   9.704  0.9892  3.2222 -0.2354
  289MOL0     H39832   2.627  -0.140   9.584  0.9665 -0.6453  0.9054
  289MOL0     H39833   2.654  -0.031   9.721  1.2575  0.9313  0.7078
  289MOL0     H39834   2.854  -0.048   9.485  0.3886  0.9400 -0.1746
  289MOL0     H39835   2.841   0.096   9.594  2.1639 -0.3206  0.7052
  289MOL0     H39836   2.880  -0.042   9.786  0.0805 -0.6679 -0.0649
  289MOL0     H39837   2.942  -0.172   9.693  1.6858 -0.0666  2.3413
  289MOL0     H39838   3.042   0.117   9.664  0.4877 -0.6177 -0.0638
  289MOL0     H39839   3.143  -0.006   9.753 -1.0215 -4.1046  1.5406
  289MOL0     H39840   3.118  -0.167   9.338 -3.4052  0.0850  3.1572
  289MOL0     H39841   3.243  -0.445   9.218 -1.5994  0.3286  0.3728
  289MOL0     H39842   3.358  -0.339   9.143 -0.8943  0.5952 -0.2857
  289MOL0     H39843   3.202  -0.284   9.158 -1.1037 -1.7476  0.4374
  289MOL0     H39844   3.756  -0.501   9.271  0.0272 -2.1035 -1.6028
  289MOL0     H39845   3.913  -0.697   9.281 -0.9795 -0.9667 -0.2209
  289MOL0     H39846   4.073  -0.854   9.635 -2.4403  1.5748  1.5499
  289MOL0     H39847   3.933  -0.953   9.660  1.2440  1.6201  0.5879
  289MOL0     H39848   4.002  -1.095   9.459 -1.4557  1.8281  1.1664
  289MOL0     H39849   4.148  -1.003   9.441 -2.2000  3.5395 -0.7161
  289MOL0     H39850   4.065  -1.171   9.676 -0.8136 -0.5934 -2.1331
  289MOL0     H39851   4.233  -1.109   9.652  1.7536 -2.3590  0.1064
  289MOL0     H39852   4.246  -1.255   9.448  0.6622  2.9694  1.2384
  289MOL0     H39853   4.083  -1.294   9.461  0.3720  1.4872 -1.8009
  289MOL0     H39854   4.317  -1.380   9.631 -0.4627 -2.1380 -2.2594
  289MOL0     H39855   4.175  -1.358   9.716 -0.7048  1.0573 -0.5622
  289MOL0     H39856   4.188  -1.542   9.461 -0.2090 -1.4400 -0.1362
  289MOL0     H39857   4.063  -1.550   9.580  0.4039 -2.2425 -2.0008
  289MOL0     H39858   4.240  -1.592   9.759 -0.3898 -2.5117  0.9058
  289MOL0     H39859   4.347  -1.640   9.624  0.5944  0.2750  0.4426
  289MOL0     H39860   4.087  -1.761   9.666  0.0893  2.8355  0.3726
  289MOL0     H39861   4.248  -1.842   9.694  0.4968  1.7042  2.0986
  289MOL0     H39862   3.835  -0.743   9.695  0.3414  0.2939 -0.9468
  289MOL0     H39863   3.699  -0.547   9.707 -0.4939 -1.3344  1.4244
  289MOL0     H39864   3.490  -0.288   9.640  2.4052  3.1152 -1.0249
  289MOL0     H39865   3.324  -0.121   9.706  0.7219 -1.7011  0.4785
  289MOL0     H39866   1.210   0.274   9.330  2.3931 -1.8905 -2.5507
  289MOL0     H39867   1.033   0.324   9.173 -0.5817  0.0889  2.4137
  289MOL0     H39868   0.938   0.666   8.839  2.4006 -2.3078  0.4103
  289MOL0     H39869   0.830   0.744   8.626 -0.4366 -1.2451 -2.6241
  289MOL0     H39870   0.667   0.483   8.320  2.2712 -0.8377  2.1963
  289MOL0     H39871   0.538   0.472   8.440  1.7051  0.7118  3.4317
  289MOL0     H39872   0.479   0.568   8.223 -2.8883 -0.5496  1.0781
  289MOL0     H39873   0.568   0.717   8.259  2.2601 -1.0779  1.1585
  289MOL0     H39874   0.366   0.629   8.463  0.0420  0.0256  0.6313
  289MOL0     H39875   0.438   0.785   8.441 -1.9985 -0.8981  3.7135
  289MOL0     H39876   0.238   0.658   8.260  0.7478  0.2630  0.7243
  289MOL0     H39877   0.325   0.812   8.227  0.0009 -0.7505 -1.0694
  289MOL0     H39878   0.042   0.985   8.441 -0.6882 -0.4370  1.0462
  289MOL0     H39879   0.708   0.361   8.526  1.2279 -0.2932 -1.0818
  289MOL0     H39880   0.834   0.186   8.822  0.0088 -2.4147 -0.7545
  289MOL0     H39881   0.731   0.194   8.680  1.2365 -0.6014 -2.5640
  289MOL0     H39882   0.911   0.173   8.666  0.4515 -2.3485  3.3202
  290MOL0     O39883   7.013   4.418  10.326  1.2303  0.4238  0.0972
  290MOL0     C39884   6.969   4.531  10.309 -0.5418 -0.0726  1.2545
  290MOL0     O39885   7.044   4.642  10.292  0.8579 -0.2884  0.5684
  290MOL0     C39886   7.179   4.631  10.270 -0.7913 -0.1176 -0.3205
  290MOL0     C39887   7.240   4.752  10.218 -0.1645  0.0872  0.0921
  290MOL0     C39888   7.375   4.763  10.199  0.1089 -0.1607  0.1285
  290MOL0     C39889   7.459   4.651  10.225 -0.6273 -0.3425  0.1085
  290MOL0     O39890   7.598   4.654  10.217 -0.5509  0.8784 -0.5355
  290MOL0     C39891   7.653   4.753  10.130  0.0281 -0.8689  0.2800
  290MOL0     C39892   7.730   4.681  10.022  0.1697 -0.6021 -0.0811
  290MOL0     C39893   7.846   4.605  10.078  0.7866  0.9509  0.5587
  290MOL0     C39894   7.939   4.562   9.958 -0.3493 -0.1844  0.4472
  290MOL0     C39895   8.032   4.450   9.994  0.5538 -1.4422 -0.0496
  290MOL0     C39896   8.142   4.418   9.892 -0.5826  1.1915  0.3989
  290MOL0     C39897   8.210   4.290   9.928  0.1413 -0.1512 -0.1849
  290MOL0     C39898   8.315   4.236   9.819 -0.2815 -0.0618 -0.7723
  290MOL0     N39899   8.430   4.335   9.828  0.0600  0.2073  0.7930
  290MOL0     C39900   8.459   4.422   9.730  0.9776  0.8722 -0.3863
  290MOL0     C39901   8.553   4.508   9.788 -0.5246  0.6545  0.0734
  290MOL0     C39902   8.628   4.611   9.713  0.3855  0.4315 -0.3292
  290MOL0     C39903   8.728   4.685   9.802  0.2485 -0.4460  0.3145
  290MOL0     C39904   8.762   4.812   9.726 -0.0465  0.1579  0.6088
  290MOL0     C39905   8.860   4.910   9.797  0.1054  0.4634  0.5735
  290MOL0     O39906   8.978   4.837   9.792  0.0039  0.7774  0.0169
  290MOL0     C39907   9.069   4.858   9.889  0.5195 -0.1518  0.7613
  290MOL0     C39908   9.088   4.983   9.945  0.0963 -0.0844 -0.0379
  290MOL0     C39909   9.180   5.005  10.056  1.2071 -1.2538  0.7491
  290MOL0     C39910   9.184   5.145  10.119 -0.8111 -0.2713  0.4647
  290MOL0     C39911   9.258   4.890  10.092  0.6995  1.1100 -0.3081
  290MOL0     C39912   9.361   4.908  10.197 -0.3513  0.0743  0.3594
  290MOL0     O39913   9.462   4.995  10.192  0.7623 -1.3989 -0.2146
  290MOL0     C39914   9.553   4.993  10.292 -0.1877 -0.0118  1.0425
  290MOL0     C39915   9.562   5.106  10.356  0.7653  0.2262 -0.4353
  290MOL0     C39916   9.654   5.125  10.453 -0.9113 -0.1147  0.3284
  290MOL0     C39917   9.745   5.018  10.480  0.3206 -1.2660 -0.2869
  290MOL0     O39918   9.847   5.025  10.573  0.0019 -0.9983  0.1820
  290MOL0     C39919   9.853   5.122  10.678 -0.3003 -0.0181  0.8216
  290MOL0     C39920   9.908   5.066  10.803 -0.8832 -0.0670 -0.1573
  290MOL0     C39921  10.055   5.021  10.786 -0.9100  0.4718 -0.5343
  290MOL0     C39922  10.099   4.955  10.918 -0.1454  0.1535  0.1109
  290MOL0     C39923  10.250   4.924  10.904  0.1588 -0.1230 -0.1104
  290MOL0     C39924  10.279   4.810  10.804  0.0330  0.3360 -0.1063
  290MOL0     C39925  10.422   4.774  10.776  0.3315 -0.0725  0.9542
  290MOL0     C39926  10.498   4.731  10.901 -0.1639 -0.4572 -0.1408
  290MOL0    Cl39927  10.447   4.562  10.934  0.0451 -0.3011 -0.1667
  290MOL0     C39928   9.741   4.900  10.410 -0.8142 -0.3737  0.3456
  290MOL0     C39929   9.638   4.890  10.319 -0.5604  0.3548 -0.4967
  290MOL0     O39930   9.347   4.826  10.290 -0.2045 -0.2918  0.2324
  290MOL0     C39931   9.232   4.762  10.045  0.1350  0.7059  2.2543
  290MOL0     C39932   9.145   4.750   9.933  1.0168 -1.4661 -0.4524
  290MOL0     N39933   8.573   4.461   9.919 -0.0845  0.3134 -0.3315
  290MOL0     N39934   8.499   4.361   9.944 -0.3449  0.3232  0.0919
  290MOL0     C39935   7.403   4.536  10.279  0.1004  1.2211 -0.1325
  290MOL0     C39936   7.262   4.522  10.306  0.6298 -0.0825 -0.1891
  290MOL0     C39937   6.827   4.546  10.303  1.0152 -0.9967 -0.2508
  290MOL0     C39938   6.775   4.673  10.278 -0.2060 -0.8615 -0.1277
  290MOL0     C39939   6.638   4.705  10.274 -0.6655  0.4509  0.2930
  290MOL0     C39940   6.545   4.608  10.320 -0.5129 -0.2148 -0.2445
  290MOL0     O39941   6.407   4.619  10.340  0.4405 -0.0819 -0.3979
  290MOL0     C39942   6.356   4.756  10.344 -0.1312  0.4976 -0.4879
  290MOL0     C39943   6.384   4.827  10.475  0.4244  0.3491 -0.5316
  290MOL0     C39944   6.324   4.754  10.599  0.7605  0.1279  0.2082
  290MOL0     C39945   6.326   4.836  10.729  0.0788  0.1470 -0.0016
  290MOL0     C39946   6.456   4.877  10.758 -0.8685  0.0287 -0.0099
  290MOL0     C39947   6.574   4.898  10.784 -0.5787 -0.7538 -0.2955
  290MOL0     C39948   6.601   4.484  10.337 -0.1216 -0.0704  0.0215
  290MOL0     C39949   6.738   4.447  10.328  1.1549  0.9500 -0.2935
  290MOL0     C39950   6.764   4.305  10.357 -0.2867  0.7740  0.0455
  290MOL0     H39951   7.179   4.834  10.182  1.7674  1.1065 -1.0281
  290MOL0     H39952   7.408   4.861  10.169  0.8584 -0.5163 -0.2313
  290MOL0     H39953   7.719   4.808  10.198 -2.0416  0.4202  1.3352
  290MOL0     H39954   7.585   4.828  10.089  0.1100  0.0792  1.7917
  290MOL0     H39955   7.655   4.624   9.966 -0.8428  3.9932 -4.0387
  290MOL0     H39956   7.767   4.755   9.951 -0.7434 -0.7147 -0.6965
  290MOL0     H39957   7.904   4.669  10.145  3.0382 -0.8586  0.4680
  290MOL0     H39958   7.804   4.519  10.129 -0.5038  0.0428 -1.8973
  290MOL0     H39959   7.879   4.532   9.872 -0.0417  0.2585  0.0746
  290MOL0     H39960   7.995   4.649   9.924 -1.6034  1.0337  1.3879
  290MOL0     H39961   7.984   4.353  10.010 -0.6367 -0.7671  0.6289
  290MOL0     H39962   8.086   4.483  10.083 -0.1543  0.8959 -0.4293
  290MOL0     H39963   8.115   4.403   9.787 -2.7326  1.1608  0.8968
  290MOL0     H39964   8.215   4.499   9.890  2.0641 -1.0615  0.4745
  290MOL0     H39965   8.134   4.212   9.942  0.1352  0.1463  1.7357
  290MOL0     H39966   8.250   4.309  10.028 -0.0067 -1.7870  0.2181
  290MOL0     H39967   8.352   4.137   9.846  0.4725  0.2329 -0.7116
  290MOL0     H39968   8.273   4.241   9.718 -1.8778  2.9194 -0.0664
  290MOL0     H39969   8.433   4.413   9.625  2.8474  0.5900 -0.8534
  290MOL0     H39970   8.556   4.682   9.670 -1.0435  0.4465  1.9528
  290MOL0     H39971   8.680   4.556   9.634  3.8955  1.5619  0.9819
  290MOL0     H39972   8.690   4.704   9.903  0.3197 -1.5374  0.5606
  290MOL0     H39973   8.819   4.625   9.812  1.8948  1.9154  0.3292
  290MOL0     H39974   8.799   4.797   9.624 -1.4962  1.7017 -0.1778
  290MOL0     H39975   8.675   4.875   9.710 -0.0714  0.0798  0.4348
  290MOL0     H39976   8.861   5.001   9.736  0.5305 -1.6331 -2.8063
  290MOL0     H39977   8.820   4.945   9.893  0.8923  1.7222  0.4671
  290MOL0     H39978   9.029   5.063   9.903 -0.5638 -0.6015 -0.1139
  290MOL0     H39979   9.243   5.207  10.050  1.4963 -0.2459  2.3228
  290MOL0     H39980   9.243   5.153  10.211 -2.1218 -1.3392  1.4432
  290MOL0     H39981   9.084   5.183  10.141 -2.3132 -2.5928 -1.7855
  290MOL0     H39982   9.486   5.181  10.335 -1.2296 -1.0549  1.8316
  290MOL0     H39983   9.663   5.224  10.498  2.3990 -0.2426  0.1753
  290MOL0     H39984   9.920   5.199  10.638 -2.4166  1.3697 -0.2237
  290MOL0     H39985   9.758   5.174  10.695 -0.2851  1.0311 -1.8266
  290MOL0     H39986   9.904   5.138  10.885 -4.6428 -0.3878  0.0806
  290MOL0     H39987   9.854   4.975  10.831 -0.7627 -0.5988 -1.5211
  290MOL0     H39988  10.122   5.101  10.753  0.8975 -0.7854 -0.0537
  290MOL0     H39989  10.062   4.946  10.706 -1.4937 -1.1113  0.8387
  290MOL0     H39990  10.038   4.867  10.937 -1.4343  0.8441 -0.7141
  290MOL0     H39991  10.080   5.025  11.000  0.8373  0.4748  0.0778
  290MOL0     H39992  10.309   5.008  10.867 -0.9296  0.3993 -0.6896
  290MOL0     H39993  10.275   4.888  11.004 -0.5011  1.3589  0.6194
  290MOL0     H39994  10.238   4.824  10.704  0.7732  3.1446 -0.1021
  290MOL0     H39995  10.226   4.721  10.838  0.6215 -0.7042 -1.7581
  290MOL0     H39996  10.477   4.863  10.743  0.2399 -0.6444 -0.7997
  290MOL0     H39997  10.419   4.697  10.699 -1.7695  0.2439  0.6619
  290MOL0     H39998  10.475   4.791  10.989 -1.3721 -2.8173  1.2439
  290MOL0     H39999  10.606   4.738  10.884  0.1891  0.8486  2.3082
  290MOL0     H40000   9.813   4.820  10.417  1.3818  1.0798 -2.8780
  290MOL0     H40001   9.623   4.794  10.269  0.1907 -0.7466  1.3281
  290MOL0     H40002   9.292   4.676  10.076 -0.7165 -0.3663  1.0706
  290MOL0     H40003   9.129   4.655   9.884  0.3816 -0.6431 -1.9025
  290MOL0     H40004   7.470   4.453  10.299 -0.2848  0.2356 -2.6795
  290MOL0     H40005   7.228   4.435  10.362  0.0416 -0.3193 -0.9089
  290MOL0     H40006   6.835   4.756  10.243 -1.7918 -0.6596 -2.7230
  290MOL0     H40007   6.614   4.807  10.249  0.0274  0.1627 -1.7180
  290MOL0     H40008   6.404   4.814  10.265 -0.9919 -1.1839 -2.3187
  290MOL0     H40009   6.248   4.765  10.331 -0.0518  2.0947 -0.2821
  290MOL0     H40010   6.353   4.932  10.478  0.5050  0.3932  2.8779
  290MOL0     H40011   6.492   4.831  10.495 -0.3063 -1.2138  5.9272
  290MOL0     H40012   6.221   4.728  10.571  1.3488 -1.1749 -0.8769
  290MOL0     H40013   6.384   4.663  10.609  1.8008  0.5138 -2.0347
  290MOL0     H40014   6.273   4.771  10.799 -3.1787 -0.5364 -2.8011
  290MOL0     H40015   6.262   4.925  10.727 -1.3087 -0.8066 -0.9882
  290MOL0     H40016   6.669   4.925  10.825 -1.6171 -0.3822  2.0194
  290MOL0     H40017   6.527   4.415  10.376 -2.3069  2.1334  0.0477
  290MOL0     H40018   6.818   4.263  10.272  0.9715  2.0661  0.1670
  290MOL0     H40019   6.828   4.293  10.445  1.6137 -1.9741 -1.5492
  290MOL0     H40020   6.671   4.247  10.360 -0.3063  0.8169  0.3016
  291MOL0     O40021   2.771   5.254   3.801 -0.1864  0.1114 -0.6152
  291MOL0     C40022   2.739   5.141   3.842  0.0873 -0.0094  0.2255
  291MOL0     O40023   2.809   5.034   3.829 -0.4921  0.3178  0.0193
  291MOL0     C40024   2.906   5.022   3.732  0.6357  0.2037 -0.3212
  291MOL0     C40025   2.882   5.023   3.595 -0.0193  0.5562  0.6611
  291MOL0     C40026   2.985   4.998   3.500  0.2491 -0.7364 -0.4111
  291MOL0     C40027   3.110   4.981   3.552 -1.2579  0.1196 -0.4846
  291MOL0     O40028   3.224   4.968   3.480  0.2789  0.0010  0.4785
  291MOL0     C40029   3.235   5.062   3.369 -0.3974  0.3129  0.2657
  291MOL0     C40030   3.349   5.026   3.275 -0.0009  0.1711  0.3827
  291MOL0     C40031   3.486   5.067   3.337 -0.2921 -0.4062 -0.0360
  291MOL0     C40032   3.586   5.030   3.232  0.3438  0.3135 -0.3035
  291MOL0     C40033   3.726   5.091   3.261  0.6238 -0.8960 -0.9577
  291MOL0     C40034   3.832   5.055   3.153  0.0934 -0.0854 -0.6613
  291MOL0     C40035   3.973   5.115   3.156 -0.0133  0.8767 -0.8267
  291MOL0     C40036   4.056   5.054   3.043  0.3257 -0.2940  0.0395
  291MOL0     N40037   4.188   5.113   3.018 -0.3434 -0.5421  0.4912
  291MOL0     C40038   4.281   5.175   3.098  0.6257 -0.0267  0.0112
  291MOL0     C40039   4.390   5.199   3.024  0.3781 -0.3869 -0.7414
  291MOL0     C40040   4.513   5.266   3.075  0.7038 -0.4691  0.0862
  291MOL0     C40041   4.646   5.233   2.996 -0.6293  0.3183 -0.7063
  291MOL0     C40042   4.767   5.300   3.050 -0.6517 -0.5084 -0.7381
  291MOL0     C40043   4.905   5.286   2.968 -0.7247 -0.2606  0.0707
  291MOL0     O40044   5.000   5.377   3.033  0.4106 -0.2506  0.5246
  291MOL0     C40045   5.130   5.382   2.989 -0.1044  0.9360 -0.2022
  291MOL0     C40046   5.188   5.290   2.907  0.3217  0.3509  0.8476
  291MOL0     C40047   5.313   5.304   2.857  0.9807  0.9261  0.2196
  291MOL0     C40048   5.361   5.204   2.757  0.3190  0.1406  0.4117
  291MOL0     C40049   5.399   5.406   2.901 -0.8761 -0.8144 -0.1567
  291MOL0     C40050   5.538   5.433   2.858 -0.9025  0.1365  0.4439
  291MOL0     O40051   5.590   5.556   2.884  0.2184 -0.6289  0.0173
  291MOL0     C40052   5.724   5.587   2.869  0.2506 -0.7741 -0.1531
  291MOL0     C40053   5.785   5.597   2.742 -0.0969 -0.1587  0.5852
  291MOL0     C40054   5.921   5.628   2.730  0.1362 -0.8256  1.1956
  291MOL0     C40055   5.996   5.654   2.842  0.0504 -0.2683 -0.0742
  291MOL0     O40056   6.127   5.677   2.818  0.3573  0.1270 -0.4418
  291MOL0     C40057   6.201   5.714   2.935  0.6996 -0.2499  0.0196
  291MOL0     C40058   6.343   5.680   2.913  0.8592 -0.4457  0.5312
  291MOL0     C40059   6.407   5.682   3.054  0.1638  0.4488 -0.2090
  291MOL0     C40060   6.542   5.620   3.042  0.0284 -0.5586  0.3760
  291MOL0     C40061   6.627   5.663   3.169  0.3457  0.1237 -0.3626
  291MOL0     C40062   6.741   5.562   3.201 -0.5009 -0.3242  0.5778
  291MOL0     C40063   6.827   5.604   3.319  1.0332  0.2929 -0.8937
  291MOL0     C40064   6.957   5.532   3.339 -0.2709 -0.3322  0.3799
  291MOL0    Cl40065   7.067   5.536   3.207  0.0487  0.1580 -0.0717
  291MOL0     C40066   5.936   5.636   2.973 -0.7352 -0.0334 -0.2183
  291MOL0     C40067   5.793   5.616   2.988 -0.6091  0.5840 -0.5460
  291MOL0     O40068   5.604   5.336   2.826 -0.5555 -0.3556  0.1639
  291MOL0     C40069   5.341   5.500   2.985 -0.0151  0.5282 -0.0131
  291MOL0     C40070   5.214   5.491   3.031 -0.2197 -0.2313  0.5675
  291MOL0     N40071   4.367   5.153   2.895 -0.2473 -0.3163  0.1640
  291MOL0     N40072   4.247   5.104   2.897  0.3111 -0.3216 -0.0936
  291MOL0     C40073   3.134   4.958   3.690  0.5353 -0.5279  0.0908
  291MOL0     C40074   3.028   4.984   3.777  0.4459 -0.5301  0.1381
  291MOL0     C40075   2.616   5.149   3.929  0.4884  0.4339  0.6988
  291MOL0     C40076   2.541   5.264   3.938 -0.2144 -0.7157 -0.5501
  291MOL0     C40077   2.423   5.272   4.005  0.4606 -0.2203  0.0096
  291MOL0     C40078   2.367   5.164   4.083  0.4031 -0.2037  0.0745
  291MOL0     O40079   2.241   5.170   4.138  0.1657 -0.1891  0.1518
  291MOL0     C40080   2.137   5.176   4.042  0.2317  0.8087  0.2100
  291MOL0     C40081   2.058   5.044   4.040  0.2122 -0.3154  0.0146
  291MOL0     C40082   1.950   5.059   3.938 -0.2860  1.2848 -0.2240
  291MOL0     C40083   1.879   4.929   3.911  0.4826  0.3177  1.2974
  291MOL0     C40084   1.795   4.962   3.796  0.1295  0.7320  0.2570
  291MOL0     C40085   1.736   4.962   3.688 -0.7500 -0.0517  0.0863
  291MOL0     C40086   2.449   5.051   4.088 -0.5374 -0.5790 -0.1226
  291MOL0     C40087   2.569   5.042   4.015  0.3572 -0.1805 -0.3372
  291MOL0     C40088   2.656   4.920   4.039 -0.4749 -0.2959  0.2307
  291MOL0     H40089   2.785   5.037   3.547  0.3593  0.4135 -0.1636
  291MOL0     H40090   2.962   4.989   3.395 -1.7362  1.9473 -0.2915
  291MOL0     H40091   3.258   5.158   3.416 -0.4065 -0.1661  1.2779
  291MOL0     H40092   3.143   5.068   3.310 -0.8787 -2.4813  0.6128
  291MOL0     H40093   3.352   4.920   3.246  1.7307  0.1668  0.4812
  291MOL0     H40094   3.342   5.090   3.187 -0.5746 -2.3163 -1.5001
  291MOL0     H40095   3.489   5.173   3.364  4.7705 -0.4437  0.3720
  291MOL0     H40096   3.495   5.018   3.434 -1.3356 -1.0027 -0.2155
  291MOL0     H40097   3.589   4.921   3.229 -1.8042  0.1863  0.6614
  291MOL0     H40098   3.550   5.061   3.134 -0.8058  3.2638  0.9286
  291MOL0     H40099   3.761   5.049   3.356 -1.6321  1.2061  0.9326
  291MOL0     H40100   3.712   5.199   3.271  0.4735 -0.8103 -1.9905
  291MOL0     H40101   3.844   4.946   3.156  1.7194 -0.0018  3.7519
  291MOL0     H40102   3.779   5.073   3.059 -0.8818 -0.9893 -0.3090
  291MOL0     H40103   4.020   5.090   3.251 -1.0062  0.8576 -0.3268
  291MOL0     H40104   3.978   5.224   3.144  1.4321  0.7210 -1.8899
  291MOL0     H40105   4.076   4.952   3.077 -0.0593 -0.4326 -0.1449
  291MOL0     H40106   4.001   5.059   2.948  0.9814 -1.1541 -0.4000
  291MOL0     H40107   4.265   5.209   3.200 -1.1134  2.7669 -1.0692
  291MOL0     H40108   4.531   5.255   3.182  2.1064 -3.3244 -0.3404
  291MOL0     H40109   4.493   5.373   3.060  3.9089  0.0079 -1.6309
  291MOL0     H40110   4.683   5.131   3.013  2.3052  1.7427  2.8604
  291MOL0     H40111   4.632   5.261   2.891  1.3991  0.6090 -0.9439
  291MOL0     H40112   4.743   5.407   3.050 -0.9792 -0.5763 -1.6875
  291MOL0     H40113   4.784   5.265   3.152 -0.9910 -2.6222 -1.3590
  291MOL0     H40114   4.926   5.180   2.958 -0.0494 -0.3068  1.6808
  291MOL0     H40115   4.899   5.328   2.867  0.6199  1.4615  0.6642
  291MOL0     H40116   5.130   5.207   2.866  1.2676 -0.4647  1.1139
  291MOL0     H40117   5.425   5.127   2.800 -0.0492  0.1068  0.9130
  291MOL0     H40118   5.403   5.244   2.664  0.9935 -1.7203 -0.1167
  291MOL0     H40119   5.277   5.151   2.712 -1.1399  1.6277  1.2525
  291MOL0     H40120   5.728   5.576   2.652  0.9001  1.2466 -0.4175
  291MOL0     H40121   5.966   5.633   2.631 -0.5685 -0.3716  0.8882
  291MOL0     H40122   6.184   5.821   2.948 -0.6969 -0.2301 -1.6100
  291MOL0     H40123   6.171   5.662   3.026  1.8342  0.3984  0.7946
  291MOL0     H40124   6.353   5.576   2.879 -2.3699 -0.0831 -1.9921
  291MOL0     H40125   6.385   5.751   2.841 -0.1687 -0.5110 -0.1502
  291MOL0     H40126   6.337   5.637   3.125 -0.2841  0.4056 -0.6719
  291MOL0     H40127   6.414   5.785   3.090  0.0426 -0.0038  1.1613
  291MOL0     H40128   6.583   5.653   2.946 -0.6705 -1.3084 -0.1924
  291MOL0     H40129   6.542   5.511   3.043  1.9502 -0.5872  0.8094
  291MOL0     H40130   6.661   5.766   3.150 -1.8755  0.6106 -1.9704
  291MOL0     H40131   6.565   5.658   3.259 -0.6183 -0.8066 -1.0621
  291MOL0     H40132   6.802   5.562   3.110 -2.0175 -1.9754 -0.5138
  291MOL0     H40133   6.701   5.463   3.223  2.7707 -1.3436  2.5530
  291MOL0     H40134   6.772   5.580   3.411  3.9441 -1.1417  0.5838
  291MOL0     H40135   6.848   5.711   3.316  1.6838  0.5370  3.8063
  291MOL0     H40136   6.931   5.427   3.352  0.9517 -0.7947 -0.7120
  291MOL0     H40137   7.012   5.576   3.424  0.8529  0.0424 -0.5090
  291MOL0     H40138   5.992   5.663   3.062 -1.1341 -1.1671  0.3934
  291MOL0     H40139   5.754   5.614   3.089  1.6621 -0.7033  0.4011
  291MOL0     H40140   5.400   5.588   3.011 -1.0168  1.2333 -0.0505
  291MOL0     H40141   5.169   5.575   3.083 -0.7587 -1.2854  1.8650
  291MOL0     H40142   3.232   4.930   3.727  0.4828  0.0588  0.7050
  291MOL0     H40143   3.043   4.974   3.884  2.1844 -0.9194 -0.1204
  291MOL0     H40144   2.573   5.353   3.885 -1.7798 -0.3216 -0.8845
  291MOL0     H40145   2.353   5.354   4.012 -0.8056 -1.1284 -1.3672
  291MOL0     H40146   2.060   5.245   4.080  1.0016  2.7781 -1.6124
  291MOL0     H40147   2.169   5.195   3.940 -1.1902 -4.0832 -1.4303
  291MOL0     H40148   1.997   5.021   4.128 -0.3930 -3.1768 -1.0523
  291MOL0     H40149   2.116   4.955   4.018  0.1661 -0.6462  1.1500
  291MOL0     H40150   1.877   5.126   3.984 -1.1701  0.8820 -1.0040
  291MOL0     H40151   1.993   5.102   3.847  1.2142  2.0292  0.7868
  291MOL0     H40152   1.807   4.901   3.989 -0.3404 -2.1675 -0.2246
  291MOL0     H40153   1.952   4.852   3.887  0.0642 -0.4312  2.3475
  291MOL0     H40154   1.682   4.961   3.595 -1.7218  0.6768  0.6299
  291MOL0     H40155   2.417   4.992   4.173 -0.9623 -0.2278 -0.0378
  291MOL0     H40156   2.610   4.875   4.128  2.0606 -1.6050  0.9562
  291MOL0     H40157   2.652   4.859   3.949 -0.1891 -0.0582  0.0550
  291MOL0     H40158   2.762   4.940   4.055 -0.6391  2.4453 -1.5520
  292MOL0     O40159   7.716   7.705   2.754  0.7053  0.4590 -0.8102
  292MOL0     C40160   7.602   7.679   2.722  0.9643 -0.6855 -0.0843
  292MOL0     O40161   7.567   7.654   2.591 -0.2268  0.2082  0.0935
  292MOL0     C40162   7.645   7.724   2.497  0.5632  0.0959 -0.1755
  292MOL0     C40163   7.597   7.840   2.443  1.1472 -0.6267 -0.1995
  292MOL0     C40164   7.674   7.914   2.346 -0.4153 -0.5481  0.1726
  292MOL0     C40165   7.813   7.881   2.320 -0.0864  0.1828  0.3870
  292MOL0     O40166   7.888   7.976   2.250  0.2388 -0.3746  0.1751
  292MOL0     C40167   8.022   7.994   2.281  0.0265  0.1041 -0.5681
  292MOL0     C40168   8.049   8.028   2.430 -1.0031  0.1470 -0.1089
  292MOL0     C40169   8.105   8.175   2.457  0.3968  0.8672  0.5523
  292MOL0     C40170   8.140   8.184   2.608 -0.4126 -0.1189  0.2584
  292MOL0     C40171   8.190   8.320   2.631  0.2316 -0.4517  0.1592
  292MOL0     C40172   8.201   8.340   2.784 -0.0379 -0.1659  0.0522
  292MOL0     C40173   8.069   8.353   2.865  0.1112 -0.5536  0.0604
  292MOL0     C40174   8.082   8.426   3.001  0.3991 -0.2835 -0.4547
  292MOL0     N40175   7.952   8.432   3.078  0.1422 -0.0418  0.8599
  292MOL0     C40176   7.906   8.334   3.159  0.9783  0.5229  0.8056
  292MOL0     C40177   7.807   8.391   3.222 -0.0331 -0.4431 -0.6638
  292MOL0     C40178   7.723   8.325   3.329  0.3700 -0.0393 -1.5145
  292MOL0     C40179   7.572   8.325   3.296  0.4209  0.1195  0.0919
  292MOL0     C40180   7.488   8.424   3.382 -0.0346  0.1192  0.0637
  292MOL0     C40181   7.340   8.392   3.376  0.0045 -0.6774 -0.2021
  292MOL0     O40182   7.292   8.430   3.250  0.0305  0.3529  0.0637
  292MOL0     C40183   7.166   8.403   3.212  0.1788  0.1177 -0.2786
  292MOL0     C40184   7.138   8.426   3.074 -0.2114  0.2148  0.4214
  292MOL0     C40185   7.011   8.402   3.021  0.2855  0.3278 -0.1922
  292MOL0     C40186   6.990   8.399   2.867 -0.4972 -0.3135 -0.4508
  292MOL0     C40187   6.913   8.345   3.115  0.3391 -0.2968 -0.9461
  292MOL0     C40188   6.769   8.314   3.075 -0.2038  0.6317 -0.2250
  292MOL0     O40189   6.736   8.349   2.950 -0.4853 -0.1956  0.4250
  292MOL0     C40190   6.603   8.315   2.916  0.0503  0.0492  0.3146
  292MOL0     C40191   6.551   8.184   2.897  0.2932 -0.7756  0.5124
  292MOL0     C40192   6.416   8.165   2.860  0.0492  1.1894 -0.4515
  292MOL0     C40193   6.331   8.268   2.827 -0.9926  0.0392  0.3684
  292MOL0     O40194   6.208   8.257   2.787 -0.0271  0.3137 -0.4131
  292MOL0     C40195   6.158   8.126   2.767  0.5170  0.8388 -0.1807
  292MOL0     C40196   6.014   8.135   2.714  0.4282  0.5999  0.0982
  292MOL0     C40197   5.999   8.196   2.572  0.0130  0.7617 -0.0933
  292MOL0     C40198   5.852   8.209   2.530 -0.5048 -0.6463 -0.1028
  292MOL0     C40199   5.769   8.082   2.539 -0.6309  0.8795  0.1979
  292MOL0     C40200   5.829   7.946   2.479 -0.3166  0.2542  0.3227
  292MOL0     C40201   5.857   7.958   2.326  0.2878 -0.9483 -0.4460
  292MOL0     C40202   5.938   7.834   2.282 -0.2894  0.3197  0.6931
  292MOL0    Cl40203   6.110   7.853   2.344 -0.4322 -0.1116 -0.3736
  292MOL0     C40204   6.383   8.397   2.846 -0.5996 -0.4628  0.6195
  292MOL0     C40205   6.508   8.420   2.890  0.9344 -0.2490  0.4256
  292MOL0     O40206   6.699   8.249   3.152  0.2330  0.4704  0.8780
  292MOL0     C40207   6.949   8.314   3.245 -0.6060  0.5063 -0.7388
  292MOL0     C40208   7.067   8.346   3.298 -0.2998  0.0485  0.0648
  292MOL0     N40209   7.791   8.523   3.179 -0.0519 -0.1312  0.0769
  292MOL0     N40210   7.884   8.551   3.095  0.3225  0.3236 -0.1429
  292MOL0     C40211   7.853   7.757   2.370 -1.3324 -0.2736  0.0358
  292MOL0     C40212   7.769   7.673   2.446 -0.7481 -0.1329 -0.3896
  292MOL0     C40213   7.493   7.662   2.824  0.2075  0.2355  0.2580
  292MOL0     C40214   7.357   7.659   2.776  0.2395 -0.4442  1.2850
  292MOL0     C40215   7.250   7.638   2.861  0.1951  0.2203  0.5333
  292MOL0     C40216   7.271   7.608   2.994 -0.5911 -0.0596 -0.6736
  292MOL0     O40217   7.157   7.610   3.080  0.1998 -0.0393  1.0364
  292MOL0     C40218   7.155   7.512   3.183  0.5167  0.2963 -0.2056
  292MOL0     C40219   7.017   7.505   3.259 -0.5954 -0.5966  0.9124
  292MOL0     C40220   6.895   7.447   3.179 -0.1303 -0.2361 -0.3506
  292MOL0     C40221   6.773   7.416   3.271 -0.9747  0.1252 -0.1032
  292MOL0     C40222   6.664   7.403   3.176 -0.1448 -0.6854 -0.6393
  292MOL0     C40223   6.576   7.384   3.091 -0.0582 -0.8918 -0.7225
  292MOL0     C40224   7.406   7.629   3.050 -0.2732  0.4301  0.1724
  292MOL0     C40225   7.518   7.645   2.964  0.1758  0.8836 -0.0051
  292MOL0     C40226   7.653   7.640   3.018  0.3682 -1.0721  0.0995
  292MOL0     H40227   7.497   7.872   2.467  0.6039  0.2552 -3.2273
  292MOL0     H40228   7.636   8.002   2.296  2.4596  0.1006 -1.0834
  292MOL0     H40229   8.067   8.062   2.209 -0.1132 -0.2151 -0.9619
  292MOL0     H40230   8.065   7.894   2.266 -4.1268 -1.8571 -1.0579
  292MOL0     H40231   7.958   8.015   2.490 -0.4360 -1.8457  0.3855
  292MOL0     H40232   8.116   7.954   2.473  0.0245  1.0296 -0.1467
  292MOL0     H40233   8.189   8.194   2.390  0.3114 -0.2086  0.1068
  292MOL0     H40234   8.018   8.229   2.419  1.3656  0.8553 -1.8599
  292MOL0     H40235   8.052   8.151   2.666 -0.1281  0.5292  1.0799
  292MOL0     H40236   8.213   8.106   2.630 -0.5449 -0.8947 -1.8575
  292MOL0     H40237   8.114   8.394   2.602  2.6992  0.5070 -5.2947
  292MOL0     H40238   8.287   8.338   2.582 -0.0844  1.2384  0.0727
  292MOL0     H40239   8.258   8.254   2.821 -2.3628 -2.2022 -0.8369
  292MOL0     H40240   8.248   8.436   2.808  1.3591 -0.5470 -0.9906
  292MOL0     H40241   8.029   8.252   2.881 -3.6962  1.0722  2.1636
  292MOL0     H40242   7.990   8.401   2.808 -0.7645 -3.1675 -1.0890
  292MOL0     H40243   8.158   8.380   3.064  3.8230  1.1121 -3.2413
  292MOL0     H40244   8.104   8.532   2.987 -4.6406  1.4780  2.2419
  292MOL0     H40245   7.946   8.234   3.171  0.5466 -0.1270 -2.2032
  292MOL0     H40246   7.734   8.383   3.421 -2.4060  1.0301 -1.7677
  292MOL0     H40247   7.761   8.223   3.345  0.6034 -0.1113 -2.4336
  292MOL0     H40248   7.561   8.365   3.195  1.0073  0.8045  0.2966
  292MOL0     H40249   7.537   8.222   3.312  1.4444 -0.1109  1.0093
  292MOL0     H40250   7.529   8.421   3.483 -0.3214 -2.2238  0.1742
  292MOL0     H40251   7.509   8.522   3.338  3.1529 -0.6715 -0.3985
  292MOL0     H40252   7.333   8.286   3.402 -1.3516 -0.2595  1.3251
  292MOL0     H40253   7.299   8.447   3.461 -0.9312 -1.8828  0.1599
  292MOL0     H40254   7.211   8.470   3.008 -0.2786 -1.8806 -1.1651
  292MOL0     H40255   6.944   8.309   2.827 -0.6904  0.4010 -1.9236
  292MOL0     H40256   7.086   8.415   2.817 -0.1619 -1.6028 -0.2516
  292MOL0     H40257   6.917   8.476   2.839 -0.0433 -0.3888 -1.9384
  292MOL0     H40258   6.620   8.102   2.913 -0.6548 -1.5737  0.5670
  292MOL0     H40259   6.390   8.063   2.835  1.1850  1.3582 -2.4895
  292MOL0     H40260   6.218   8.063   2.701  0.8357  0.2962  0.6188
  292MOL0     H40261   6.165   8.072   2.862  3.3668  0.7414 -0.3485
  292MOL0     H40262   5.973   8.034   2.704  1.3662  0.1527  0.7565
  292MOL0     H40263   5.954   8.189   2.788  1.3019  1.5655  0.1231
  292MOL0     H40264   6.055   8.130   2.506  2.5777  1.0755  1.6191
  292MOL0     H40265   6.047   8.294   2.572 -1.1297  1.3504  1.0549
  292MOL0     H40266   5.854   8.243   2.426  0.5434  0.8220  0.3728
  292MOL0     H40267   5.807   8.276   2.605  0.2662  0.5969 -0.7280
  292MOL0     H40268   5.737   8.059   2.641  0.6771 -0.4844  0.3476
  292MOL0     H40269   5.673   8.093   2.487  0.0195  0.0878 -1.2441
  292MOL0     H40270   5.762   7.863   2.503 -0.8967  0.5325 -0.3035
  292MOL0     H40271   5.916   7.922   2.540 -0.8532  0.9594  1.4064
  292MOL0     H40272   5.904   8.048   2.285 -2.1192  0.5081 -0.2127
  292MOL0     H40273   5.760   7.949   2.277  0.3459  0.0402 -0.7771
  292MOL0     H40274   5.947   7.833   2.173 -0.2838 -1.4467  0.6719
  292MOL0     H40275   5.887   7.746   2.324 -0.0711 -0.3189 -0.3381
  292MOL0     H40276   6.318   8.483   2.836 -1.0418 -0.5588  2.4079
  292MOL0     H40277   6.542   8.523   2.888 -0.3760  0.1980  0.5263
  292MOL0     H40278   6.868   8.294   3.316 -2.0118  1.7763 -1.9087
  292MOL0     H40279   7.083   8.323   3.403 -0.8641 -2.8839 -0.4270
  292MOL0     H40280   7.956   7.722   2.362 -1.5785 -1.1900  0.7696
  292MOL0     H40281   7.798   7.573   2.476  0.5893 -0.8804 -3.6781
  292MOL0     H40282   7.333   7.659   2.670 -0.4888 -1.8519  1.4230
  292MOL0     H40283   7.146   7.649   2.830 -0.9305  4.0159  4.5839
  292MOL0     H40284   7.179   7.411   3.150  2.2739 -1.0303  4.2952
  292MOL0     H40285   7.233   7.541   3.255 -0.1018  1.3376  0.0599
  292MOL0     H40286   7.001   7.610   3.284 -0.9765 -0.5882  0.6332
  292MOL0     H40287   7.013   7.449   3.353 -1.3380  0.6802  1.6824
  292MOL0     H40288   6.867   7.513   3.097 -4.1590 -1.9479 -0.5533
  292MOL0     H40289   6.929   7.350   3.143  0.0647 -0.3121  0.0312
  292MOL0     H40290   6.760   7.501   3.338  3.1865 -0.3843  1.6747
  292MOL0     H40291   6.777   7.331   3.339 -1.7187 -0.8367 -1.2219
  292MOL0     H40292   6.514   7.378   3.004  0.5611  0.4803 -1.2844
  292MOL0     H40293   7.433   7.614   3.153 -1.9728 -0.7586  0.4942
  292MOL0     H40294   7.726   7.586   2.957  0.5234 -3.8249  2.5020
  292MOL0     H40295   7.692   7.742   3.030  1.9398 -1.3669 -1.8252
  292MOL0     H40296   7.650   7.582   3.110  0.5023  1.2876  1.6680
  293MOL0     O40297  10.881   2.491  10.022 -0.6073  0.0228 -0.7065
  293MOL0     C40298  10.842   2.586  10.102 -0.1749 -0.4322 -0.2264
  293MOL0     O40299  10.918   2.664  10.181 -0.3423  0.6169 -0.2474
  293MOL0     C40300  11.057   2.646  10.177 -0.3547 -0.1478 -0.7184
  293MOL0     C40301  11.119   2.689  10.293 -0.0164  0.3943 -1.1993
  293MOL0     C40302  11.258   2.674  10.317  0.2623  0.7089 -0.6629
  293MOL0     C40303  11.339   2.627  10.208 -0.9601 -0.4699 -0.1965
  293MOL0     O40304  11.471   2.610  10.237 -0.0435 -0.4186 -0.6519
  293MOL0     C40305  11.553   2.653  10.133  0.1867 -0.0671  0.2753
  293MOL0     C40306  11.694   2.692  10.184  0.0573 -0.6672  0.4754
  293MOL0     C40307  11.787   2.574  10.225  0.0916 -0.1366 -0.7124
  293MOL0     C40308  11.919   2.597  10.160 -1.4941  0.1881 -0.5670
  293MOL0     C40309  12.021   2.500  10.211 -0.4945 -0.3240  0.7032
  293MOL0     C40310  12.162   2.529  10.158 -0.5080  0.1679 -0.6033
  293MOL0     C40311  12.269   2.430  10.212  0.2058 -0.1597  0.4319
  293MOL0     C40312  12.408   2.477  10.172  0.2915  0.9015 -0.1494
  293MOL0     N40313  12.508   2.386  10.229  0.8609 -0.1626  0.0582
  293MOL0     C40314  12.539   2.373  10.364  0.4324 -0.7024  0.1353
  293MOL0     C40315  12.627   2.275  10.373 -0.3647  0.0018  0.4465
  293MOL0     C40316  12.681   2.232  10.508 -0.4541  0.2975 -0.3164
  293MOL0     C40317  12.821   2.175  10.502 -0.0806  0.2811 -0.4348
  293MOL0     C40318  12.925   2.289  10.492 -0.1716 -0.2120  0.2678
  293MOL0     C40319  13.069   2.242  10.500  0.3661 -0.0154 -0.1456
  293MOL0     O40320  13.097   2.133  10.405 -0.1835  0.4720 -0.2302
  293MOL0     C40321  13.194   2.043  10.433 -0.1850  0.1271  1.1665
  293MOL0     C40322  13.216   1.946  10.335 -0.2053  0.1807  1.1014
  293MOL0     C40323  13.320   1.854  10.347  0.7320 -0.7064  0.5057
  293MOL0     C40324  13.334   1.770  10.228 -0.2448 -0.4369 -0.6297
  293MOL0     C40325  13.397   1.850  10.462  0.7081 -0.9038 -1.3602
  293MOL0     C40326  13.505   1.743  10.494  0.6350 -0.9473  0.4440
  293MOL0     O40327  13.545   1.711  10.619  0.1816 -0.0292  0.9513
  293MOL0     C40328  13.633   1.611  10.645  0.7718 -0.0165  0.9106
  293MOL0     C40329  13.767   1.637  10.602  0.7829  0.1252  0.4301
  293MOL0     C40330  13.870   1.546  10.641  0.4205  0.0115  0.5623
  293MOL0     C40331  13.851   1.444  10.726  0.1075  0.5150 -0.5913
  293MOL0     O40332  13.971   1.387  10.766  1.1970 -0.1378 -0.2083
  293MOL0     C40333  13.960   1.295  10.870  0.2442  0.1215  0.1761
  293MOL0     C40334  14.090   1.289  10.953  0.1195  0.5666  0.2319
  293MOL0     C40335  14.196   1.221  10.869 -0.7754 -0.3790 -0.5969
  293MOL0     C40336  14.333   1.205  10.963  0.6438  0.3090  0.2262
  293MOL0     C40337  14.419   1.086  10.924  0.2548  0.4735 -0.6035
  293MOL0     C40338  14.489   1.090  10.784 -1.0760 -0.6260 -0.7959
  293MOL0     C40339  14.595   0.983  10.772 -0.3973 -0.6873 -0.0853
  293MOL0     C40340  14.644   0.967  10.627 -0.1060 -0.5960 -0.4330
  293MOL0    Cl40341  14.753   0.836  10.611  0.4370  0.1778 -0.1368
  293MOL0     C40342  13.721   1.408  10.760  0.6877 -0.4551  0.2766
  293MOL0     C40343  13.611   1.485  10.717 -0.0774  0.1534 -0.0903
  293MOL0     O40344  13.549   1.686  10.397 -0.3106 -0.2012 -0.0238
  293MOL0     C40345  13.370   1.944  10.568  0.8350  0.8648  0.2101
  293MOL0     C40346  13.278   2.043  10.549  0.0323  0.1285 -0.3223
  293MOL0     N40347  12.662   2.234  10.245 -0.5106  0.4754  0.4179
  293MOL0     N40348  12.588   2.298  10.164  0.1361 -0.3503  0.2090
  293MOL0     C40349  11.277   2.591  10.088  1.0214 -0.5152 -0.7371
  293MOL0     C40350  11.138   2.596  10.077 -0.3640  0.4716  0.2276
  293MOL0     C40351  10.699   2.619  10.084  0.8510  0.4326  0.0009
  293MOL0     C40352  10.616   2.540  10.000  0.3395 -1.3562  0.2000
  293MOL0     C40353  10.480   2.571   9.974 -0.0954 -0.0724 -0.0030
  293MOL0     C40354  10.416   2.666  10.037  0.4497 -0.6345  0.4418
  293MOL0     O40355  10.284   2.671  10.004  0.4632  0.5758  0.3009
  293MOL0     C40356  10.238   2.805   9.980  0.8294 -0.0175 -0.1697
  293MOL0     C40357  10.142   2.868  10.088 -0.9611  0.3649  0.2006
  293MOL0     C40358  10.013   2.785  10.096  0.5365  0.2897  0.3019
  293MOL0     C40359   9.896   2.840  10.174 -0.3388 -0.1357  0.0508
  293MOL0     C40360   9.764   2.784  10.144 -1.7064  0.2303  0.0977
  293MOL0     C40361   9.657   2.735  10.118  0.2961  0.5405 -0.1344
  293MOL0     C40362  10.488   2.748  10.123 -0.3058  0.0438 -0.2141
  293MOL0     C40363  10.626   2.729  10.152 -0.3460  0.1896 -0.2121
  293MOL0     C40364  10.695   2.824  10.238 -0.4748 -0.6683 -0.9571
  293MOL0     H40365  11.049   2.716  10.372  0.5537 -3.7523  0.9685
  293MOL0     H40366  11.290   2.691  10.419  1.3523 -0.5195 -0.7679
  293MOL0     H40367  11.517   2.740  10.077  1.6451 -0.0845 -0.7456
  293MOL0     H40368  11.567   2.569  10.063 -0.1713 -0.7224  0.9767
  293MOL0     H40369  11.736   2.738  10.094  1.7051 -1.2047  0.9235
  293MOL0     H40370  11.679   2.769  10.261  1.5800  4.6809 -3.8937
  293MOL0     H40371  11.787   2.574  10.334 -0.5759 -0.5213 -0.7112
  293MOL0     H40372  11.750   2.474  10.200 -1.9558  0.6024 -0.8114
  293MOL0     H40373  11.919   2.594  10.051  2.1088  0.5147 -0.6779
  293MOL0     H40374  11.950   2.697  10.193  0.1953 -0.5189  0.0570
  293MOL0     H40375  11.999   2.401  10.170  1.0692 -0.9154  1.1913
  293MOL0     H40376  12.022   2.499  10.320  1.4624 -1.4266  0.7307
  293MOL0     H40377  12.165   2.523  10.049  1.1782 -0.0873 -0.5702
  293MOL0     H40378  12.176   2.634  10.188 -0.4843  0.3640 -1.2961
  293MOL0     H40379  12.250   2.338  10.157  0.0621  0.7305 -1.0569
  293MOL0     H40380  12.259   2.424  10.321 -0.6425  2.1575  0.5397
  293MOL0     H40381  12.411   2.493  10.064 -0.0578  0.6407 -0.2000
  293MOL0     H40382  12.421   2.580  10.207 -1.3833 -0.1449  4.2457
  293MOL0     H40383  12.509   2.437  10.447  1.5109  1.0245 -0.7504
  293MOL0     H40384  12.620   2.156  10.556  0.7309 -1.4131 -1.4073
  293MOL0     H40385  12.681   2.323  10.569 -1.3194  0.2145 -0.1853
  293MOL0     H40386  12.833   2.115  10.593  2.4029  0.5765 -0.5092
  293MOL0     H40387  12.833   2.108  10.417  1.7046  0.1606 -0.1221
  293MOL0     H40388  12.918   2.348  10.400 -0.6364 -2.1973 -1.0291
  293MOL0     H40389  12.916   2.363  10.572 -0.0764  0.0246  0.0592
  293MOL0     H40390  13.138   2.325  10.482 -0.2603  1.2636  2.8274
  293MOL0     H40391  13.072   2.203  10.603 -2.5151 -0.4767 -0.1520
  293MOL0     H40392  13.149   1.946  10.250 -0.4170  1.0617  1.2611
  293MOL0     H40393  13.313   1.673  10.273  0.2448  0.7270  2.3405
  293MOL0     H40394  13.431   1.770  10.176 -0.2341 -1.8867 -0.6492
  293MOL0     H40395  13.270   1.796  10.143 -0.5340  0.8577 -0.0301
  293MOL0     H40396  13.800   1.723  10.544  0.7020  0.3729  0.7491
  293MOL0     H40397  13.973   1.569  10.614  0.0973 -1.0843 -1.8717
  293MOL0     H40398  13.877   1.329  10.933 -0.2342 -0.0452 -0.3497
  293MOL0     H40399  13.938   1.198  10.826  0.5069 -0.8098  2.0260
  293MOL0     H40400  14.122   1.389  10.983 -0.9463  1.0511 -0.1971
  293MOL0     H40401  14.079   1.226  11.042 -0.8039  2.3984  1.4746
  293MOL0     H40402  14.209   1.279  10.777 -0.9886 -1.5634 -1.3981
  293MOL0     H40403  14.167   1.122  10.832  0.4731 -0.4716 -1.3820
  293MOL0     H40404  14.298   1.196  11.066  1.9321  0.1696  0.6697
  293MOL0     H40405  14.404   1.289  10.962  1.9132 -0.7218 -1.3978
  293MOL0     H40406  14.496   1.081  11.002 -1.4700  1.9577  1.2947
  293MOL0     H40407  14.362   0.993  10.935 -2.1145  1.6007 -2.5281
  293MOL0     H40408  14.539   1.187  10.784 -0.4948 -0.7685  3.1002
  293MOL0     H40409  14.422   1.083  10.698 -0.4473 -2.8484 -1.1633
  293MOL0     H40410  14.554   0.889  10.812 -1.7160 -0.0360  0.1448
  293MOL0     H40411  14.683   0.995  10.836 -1.0694  3.4384  0.2791
  293MOL0     H40412  14.697   1.063  10.617 -2.6877  1.2101  1.6577
  293MOL0     H40413  14.561   0.970  10.556  0.0634  1.3808 -0.6193
  293MOL0     H40414  13.685   1.325  10.820  2.4324 -3.3437 -2.3690
  293MOL0     H40415  13.514   1.464  10.762  0.6754  2.0305  2.6675
  293MOL0     H40416  13.424   1.946  10.662 -1.0380 -0.8962  1.3908
  293MOL0     H40417  13.277   2.119  10.626  1.6894 -1.4671  1.3716
  293MOL0     H40418  11.328   2.538  10.008  1.8253  0.1436 -0.6849
  293MOL0     H40419  11.092   2.542   9.995  2.8823 -0.3490 -1.2447
  293MOL0     H40420  10.661   2.451   9.958  1.2147 -1.2173  0.8317
  293MOL0     H40421  10.409   2.510   9.918 -0.3605 -1.6561  1.9180
  293MOL0     H40422  10.325   2.869   9.972 -0.6058  1.7894 -3.7639
  293MOL0     H40423  10.188   2.810   9.882  0.6316 -0.8298 -0.1248
  293MOL0     H40424  10.116   2.971  10.061 -2.7587 -0.7046 -2.7353
  293MOL0     H40425  10.200   2.861  10.180  1.2140 -1.8226 -1.2428
  293MOL0     H40426   9.993   2.762   9.991 -0.9258  1.3730  0.3275
  293MOL0     H40427  10.040   2.687  10.137  1.3524 -0.2204 -1.3785
  293MOL0     H40428   9.891   2.948  10.155  1.6372  0.2169  1.2290
  293MOL0     H40429   9.926   2.828  10.278  0.5312  0.2142 -0.1504
  293MOL0     H40430   9.563   2.692  10.090  1.8340 -3.2337 -0.0707
  293MOL0     H40431  10.437   2.836  10.161  2.9619  1.8133  0.4617
  293MOL0     H40432  10.767   2.889  10.188 -0.3192 -0.9824 -1.1460
  293MOL0     H40433  10.632   2.887  10.301  2.3553 -2.6351  4.5117
  293MOL0     H40434  10.758   2.783  10.317  1.3031  2.1850 -0.7261
  294MOL0     O40435   2.812   1.509   9.566  0.0012 -0.7705  0.0100
  294MOL0     C40436   2.738   1.416   9.586  0.6368  0.0589 -0.4355
  294MOL0     O40437   2.756   1.325   9.683  0.3544 -0.2334  0.8575
  294MOL0     C40438   2.851   1.352   9.778  0.4061  0.6930 -0.7155
  294MOL0     C40439   2.950   1.254   9.775  0.1225 -0.5162 -0.1185
  294MOL0     C40440   3.042   1.249   9.884 -0.5313 -0.4380 -0.8142
  294MOL0     C40441   3.041   1.345   9.989 -0.0027 -0.2976  0.7689
  294MOL0     O40442   3.146   1.340  10.081  0.2477  0.2023 -0.2555
  294MOL0     C40443   3.182   1.451  10.154 -0.0178 -0.9593  0.0082
  294MOL0     C40444   3.319   1.427  10.219  0.6578  0.1959 -0.4889
  294MOL0     C40445   3.431   1.401  10.115 -0.3913 -0.7516  0.6367
  294MOL0     C40446   3.476   1.524  10.038 -0.4834  0.1139 -0.2780
  294MOL0     C40447   3.573   1.611  10.119  0.6218  0.5552 -0.7674
  294MOL0     C40448   3.590   1.746  10.059  0.3252 -0.4951 -0.1293
  294MOL0     C40449   3.725   1.809  10.111  0.2474  1.0845  0.6588
  294MOL0     C40450   3.752   1.820  10.258  0.1190  0.2700 -0.1213
  294MOL0     N40451   3.891   1.844  10.279 -0.0595 -0.4288 -0.2292
  294MOL0     C40452   3.965   1.790  10.379 -0.2696  0.0155 -0.6763
  294MOL0     C40453   4.092   1.819  10.353  0.0877 -0.9005 -0.0996
  294MOL0     C40454   4.208   1.777  10.433  0.1855  0.8366 -0.0860
  294MOL0     C40455   4.343   1.849  10.401  0.5640  0.1498  0.6765
  294MOL0     C40456   4.459   1.780  10.466  0.6041  0.2205  0.6104
  294MOL0     C40457   4.508   1.662  10.372  0.3744 -0.3196 -0.1093
  294MOL0     O40458   4.626   1.595  10.422  0.6358 -1.0348 -0.2471
  294MOL0     C40459   4.748   1.658  10.435 -0.7433  0.6279 -0.1885
  294MOL0     C40460   4.783   1.767  10.356  0.4722 -0.0251  1.2278
  294MOL0     C40461   4.912   1.832  10.361 -0.1065  0.0952 -0.2295
  294MOL0     C40462   4.925   1.960  10.268  0.5827 -0.7258 -0.3202
  294MOL0     C40463   5.007   1.778  10.447  0.3850  0.8885 -0.3657
  294MOL0     C40464   5.145   1.834  10.465 -0.1609  0.0820 -0.8242
  294MOL0     O40465   5.183   1.961  10.417  0.2425 -0.2304  0.0407
  294MOL0     C40466   5.314   1.999  10.423  0.2861  0.0637  0.1325
  294MOL0     C40467   5.415   1.921  10.374  0.1746 -0.1689 -0.7234
  294MOL0     C40468   5.552   1.967  10.368  0.5339  0.1806  0.8037
  294MOL0     C40469   5.589   2.093  10.420  0.0271 -0.1253  1.0558
  294MOL0     O40470   5.726   2.114  10.408 -0.1738 -0.1740  0.0500
  294MOL0     C40471   5.779   2.219  10.487  0.1044  0.7749 -0.5980
  294MOL0     C40472   5.792   2.351  10.405 -0.8469 -0.2729  0.2903
  294MOL0     C40473   5.886   2.326  10.288  0.6809 -0.3494  0.3704
  294MOL0     C40474   5.938   2.458  10.221  0.4423  0.3457 -0.6660
  294MOL0     C40475   6.011   2.417  10.097  0.0536 -0.2365 -0.7709
  294MOL0     C40476   6.054   2.543  10.017  0.7337  0.5509 -0.1961
  294MOL0     C40477   6.154   2.502   9.906 -1.2658 -0.2055 -0.3110
  294MOL0     C40478   6.092   2.496   9.776 -0.5566  0.4488  0.1836
  294MOL0    Cl40479   6.229   2.514   9.657 -0.0329 -0.1128  0.2887
  294MOL0     C40480   5.483   2.172  10.465  1.0286  0.2073  0.5223
  294MOL0     C40481   5.355   2.131  10.471  0.2970  0.8637 -0.2340
  294MOL0     O40482   5.212   1.762  10.543  0.0826  0.3927  0.6932
  294MOL0     C40483   4.971   1.664  10.519 -0.1224  0.7966 -0.0578
  294MOL0     C40484   4.850   1.604  10.513 -0.1371  0.7619  0.0416
  294MOL0     N40485   4.092   1.895  10.240 -0.2333  0.3594  0.2967
  294MOL0     N40486   3.970   1.920  10.197 -0.0994  0.0557  0.2091
  294MOL0     C40487   2.945   1.446   9.981  0.1476 -0.2344 -0.1879
  294MOL0     C40488   2.845   1.448   9.879  0.2648 -0.1140  0.6727
  294MOL0     C40489   2.629   1.391   9.492  1.0102  0.6163  0.3879
  294MOL0     C40490   2.586   1.255   9.479  0.5171 -0.8438 -0.1851
  294MOL0     C40491   2.463   1.224   9.415 -0.4561 -0.0370 -1.2166
  294MOL0     C40492   2.385   1.321   9.362 -0.1667  0.3218  0.0948
  294MOL0     O40493   2.284   1.271   9.286  0.3983  0.1021  0.3141
  294MOL0     C40494   2.199   1.373   9.223 -0.8614  0.3687 -0.3961
  294MOL0     C40495   2.089   1.301   9.133  0.1933 -1.4340  0.1554
  294MOL0     C40496   1.979   1.235   9.230  0.8583 -0.0864 -0.5489
  294MOL0     C40497   1.846   1.223   9.150  0.5815  0.7203  0.3014
  294MOL0     C40498   1.724   1.199   9.230 -0.0030 -0.5956 -0.3483
  294MOL0     C40499   1.629   1.178   9.301 -0.2130 -0.3002 -1.0422
  294MOL0     C40500   2.424   1.456   9.379  0.0704 -0.9685 -0.2811
  294MOL0     C40501   2.548   1.498   9.436  0.5177  0.5847 -0.3566
  294MOL0     C40502   2.559   1.646   9.446  0.2944 -0.0298 -0.7626
  294MOL0     H40503   2.945   1.179   9.696  1.9148 -0.3247 -0.4549
  294MOL0     H40504   3.111   1.168   9.899  2.1657  1.6805 -1.0736
  294MOL0     H40505   3.113   1.475  10.236  1.1246  0.3253  0.6205
  294MOL0     H40506   3.188   1.535  10.085  0.2014 -0.0519  1.1037
  294MOL0     H40507   3.344   1.509  10.287  1.0714  1.6792 -2.3621
  294MOL0     H40508   3.310   1.334  10.276  0.6780 -0.5650 -1.6988
  294MOL0     H40509   3.521   1.362  10.162 -0.1651  0.3099  1.1099
  294MOL0     H40510   3.405   1.337  10.030  1.7914  0.5532 -1.1235
  294MOL0     H40511   3.528   1.494   9.946  0.1193  0.3912 -0.0331
  294MOL0     H40512   3.396   1.588  10.002  1.3217  2.5665 -0.1587
  294MOL0     H40513   3.669   1.559  10.115  1.0274  1.3289 -1.2459
  294MOL0     H40514   3.544   1.618  10.224  0.4457  1.3993 -0.8663
  294MOL0     H40515   3.587   1.743   9.950  1.7890 -0.0916 -0.1982
  294MOL0     H40516   3.501   1.797  10.097  1.1798 -0.7250  2.3675
  294MOL0     H40517   3.727   1.906  10.060 -1.7705  2.0341  2.2317
  294MOL0     H40518   3.801   1.742  10.070  0.5750 -0.2260  3.1989
  294MOL0     H40519   3.698   1.909  10.289  0.7497 -0.1428  2.4030
  294MOL0     H40520   3.711   1.739  10.320  0.0991  1.1800  1.0806
  294MOL0     H40521   3.928   1.734  10.464 -1.1122 -0.7428 -1.5303
  294MOL0     H40522   4.209   1.669  10.414 -0.3631  0.8749 -0.3427
  294MOL0     H40523   4.198   1.791  10.541 -1.1967 -2.3652  0.3189
  294MOL0     H40524   4.353   1.848  10.292 -0.3765 -1.3084  0.5706
  294MOL0     H40525   4.348   1.948  10.448  0.7865 -0.2094  1.4186
  294MOL0     H40526   4.532   1.861  10.463 -1.4213  2.1319 -1.7462
  294MOL0     H40527   4.442   1.742  10.567 -0.2583  1.6845  1.0473
  294MOL0     H40528   4.426   1.590  10.370  1.2724 -1.5618  2.5855
  294MOL0     H40529   4.528   1.697  10.270  4.1439 -1.9706 -0.0962
  294MOL0     H40530   4.709   1.802  10.285 -1.6884  0.4756  3.6127
  294MOL0     H40531   4.827   2.009  10.261  1.1239  0.7401  1.5445
  294MOL0     H40532   4.952   1.940  10.164 -1.2597 -2.1717 -0.5783
  294MOL0     H40533   4.989   2.037  10.312  1.8930 -1.3772 -1.0288
  294MOL0     H40534   5.408   1.819  10.339  2.3975 -0.1499 -1.3342
  294MOL0     H40535   5.627   1.899  10.330 -0.1129  0.7476 -1.6030
  294MOL0     H40536   5.714   2.235  10.574  2.1256  0.4804  1.0379
  294MOL0     H40537   5.873   2.176  10.522  0.3295 -0.0672 -2.1781
  294MOL0     H40538   5.692   2.374  10.366 -2.6544 -3.7357  2.3815
  294MOL0     H40539   5.821   2.441  10.461  0.6964 -1.7239  1.9439
  294MOL0     H40540   5.827   2.280  10.208  2.7085  0.8859 -1.9609
  294MOL0     H40541   5.974   2.265  10.311  0.7770 -0.5009 -0.3691
  294MOL0     H40542   6.006   2.509  10.290  0.5135 -1.9026  1.0087
  294MOL0     H40543   5.857   2.529  10.205 -0.7571  0.0270  3.1123
  294MOL0     H40544   6.099   2.380  10.150  0.6313  0.6324 -1.0950
  294MOL0     H40545   5.955   2.337  10.049 -0.2725 -1.7234  1.8948
  294MOL0     H40546   6.109   2.617  10.077  3.1853 -0.7656 -0.6956
  294MOL0     H40547   5.964   2.581   9.968  0.8296 -0.6300 -1.3357
  294MOL0     H40548   6.193   2.403   9.932 -1.3064 -0.1019  0.1539
  294MOL0     H40549   6.233   2.578   9.903  1.1733 -2.5864 -3.1163
  294MOL0     H40550   6.025   2.581   9.764  1.3807  1.9370 -0.7073
  294MOL0     H40551   6.036   2.404   9.758  1.5341 -0.8523 -0.0170
  294MOL0     H40552   5.506   2.276  10.489  0.9307  0.9239 -2.1763
  294MOL0     H40553   5.282   2.204  10.505  0.8846  0.6039  1.6446
  294MOL0     H40554   5.044   1.610  10.580  0.6820  0.9290 -0.8914
  294MOL0     H40555   4.833   1.510  10.564 -0.9017  0.5560 -0.5763
  294MOL0     H40556   2.943   1.534  10.044  2.1947  1.7766 -2.7189
  294MOL0     H40557   2.761   1.517   9.884  1.6517  1.8309 -0.9782
  294MOL0     H40558   2.641   1.171   9.520 -0.4852 -0.4449  2.1163
  294MOL0     H40559   2.426   1.122   9.413 -1.1659 -0.1753  4.1748
  294MOL0     H40560   2.144   1.433   9.296 -2.3680  0.7580 -1.7998
  294MOL0     H40561   2.256   1.447   9.166 -0.6951  0.6667  0.1427
  294MOL0     H40562   2.124   1.223   9.066 -1.0614 -3.8174  2.1022
  294MOL0     H40563   2.040   1.380   9.075 -1.2123  0.3386  3.4684
  294MOL0     H40564   2.011   1.140   9.275  1.3497  0.0237 -0.6605
  294MOL0     H40565   1.969   1.309   9.309  0.7554  0.6957 -1.2834
  294MOL0     H40566   1.845   1.136   9.084 -3.5069  1.4284 -0.8509
  294MOL0     H40567   1.841   1.311   9.085 -0.7339  2.5871  2.7175
  294MOL0     H40568   1.544   1.161   9.363 -1.2782  1.6070 -1.8931
  294MOL0     H40569   2.366   1.530   9.323  2.6140  0.8966 -0.6316
  294MOL0     H40570   2.661   1.682   9.431  0.2638  0.1678 -0.5109
  294MOL0     H40571   2.504   1.691   9.363  2.3625 -0.7566 -2.6125
  294MOL0     H40572   2.510   1.672   9.541 -1.8915  0.6180 -1.9891
  295MOL0     O40573   2.028   5.899  10.800  0.0701 -0.1439  0.2108
  295MOL0     C40574   1.996   5.917  10.683  0.0152 -0.8726  0.6604
  295MOL0     O40575   2.048   5.854  10.584  0.3812  0.1189  0.5510
  295MOL0     C40576   2.177   5.806  10.599 -0.7358 -0.8663 -0.3099
  295MOL0     C40577   2.282   5.899  10.601 -0.5919 -0.1018 -0.0156
  295MOL0     C40578   2.417   5.842  10.578  0.4710 -0.7997 -0.5343
  295MOL0     C40579   2.443   5.703  10.595 -0.4918  0.0796 -0.9969
  295MOL0     O40580   2.566   5.642  10.582  0.3664  0.0260 -0.3479
  295MOL0     C40581   2.672   5.707  10.507 -0.6328 -0.1058  0.8208
  295MOL0     C40582   2.790   5.602  10.490  0.3403  0.1608 -0.5448
  295MOL0     C40583   2.883   5.661  10.377 -0.4380 -0.8423 -0.5061
  295MOL0     C40584   2.918   5.807  10.405  0.7226 -0.2307  0.2968
  295MOL0     C40585   3.043   5.846  10.331  0.5621  0.2011 -0.3577
  295MOL0     C40586   3.063   5.995  10.312 -0.2546  0.3917  0.0980
  295MOL0     C40587   3.085   6.083  10.439  0.8951 -0.0681  0.2571
  295MOL0     C40588   3.192   6.048  10.545  0.0267 -0.5860 -0.4632
  295MOL0     N40589   3.324   6.068  10.491 -0.2060  0.0590 -0.0571
  295MOL0     C40590   3.385   6.191  10.468  0.4329  0.4386 -0.4723
  295MOL0     C40591   3.504   6.165  10.406 -0.3173  0.2929 -0.2259
  295MOL0     C40592   3.592   6.270  10.344 -0.2797 -0.5097  0.1086
  295MOL0     C40593   3.707   6.316  10.433  0.0453  0.7146  0.3499
  295MOL0     C40594   3.799   6.425  10.370  0.0015 -0.2021  0.5816
  295MOL0     C40595   3.927   6.446  10.455 -0.1555  0.4598 -0.4000
  295MOL0     O40596   4.008   6.323  10.483 -0.0040 -0.4051 -0.1786
  295MOL0     C40597   4.133   6.313  10.418  0.4566 -0.0079 -0.0049
  295MOL0     C40598   4.218   6.215  10.469 -0.0601 -0.1656  0.7620
  295MOL0     C40599   4.351   6.196  10.418  0.4877  0.2391  0.9723
  295MOL0     C40600   4.435   6.092  10.482 -0.2799  0.3668 -0.2611
  295MOL0     C40601   4.402   6.289  10.326 -0.2629 -0.2804  0.6538
  295MOL0     C40602   4.548   6.286  10.279  0.1874  0.3357  0.2982
  295MOL0     O40603   4.624   6.169  10.261  0.3123  0.4651 -0.3460
  295MOL0     C40604   4.750   6.173  10.200 -0.4843  0.5626  0.1671
  295MOL0     C40605   4.776   6.159  10.062 -0.3075 -0.0291 -0.5053
  295MOL0     C40606   4.906   6.187  10.015 -0.8854  0.6045  0.4463
  295MOL0     C40607   5.012   6.209  10.101 -0.8152 -0.2771 -0.2515
  295MOL0     O40608   5.138   6.247  10.057 -0.6467  0.0854 -0.0558
  295MOL0     C40609   5.214   6.127  10.034 -0.7578 -0.0676  0.7265
  295MOL0     C40610   5.336   6.168   9.949 -0.2317 -0.7461 -0.6991
  295MOL0     C40611   5.425   6.046   9.912  0.1475  0.2715 -0.2424
  295MOL0     C40612   5.526   6.066   9.809  0.2753 -0.1153  0.6838
  295MOL0     C40613   5.642   6.143   9.868 -0.1392  0.5307  0.2773
  295MOL0     C40614   5.747   6.174   9.756 -0.5937  0.9378 -0.3712
  295MOL0     C40615   5.859   6.250   9.810 -0.3044 -0.2654 -0.9429
  295MOL0     C40616   5.983   6.257   9.720 -0.2563  0.5073 -0.2527
  295MOL0    Cl40617   6.040   6.101   9.654  0.0575  0.6882 -0.2209
  295MOL0     C40618   4.991   6.212  10.237 -0.0574  0.9600 -0.2079
  295MOL0     C40619   4.864   6.180  10.286 -0.4211  0.2868  1.0360
  295MOL0     O40620   4.589   6.394  10.249  0.4656 -1.5321 -0.1931
  295MOL0     C40621   4.320   6.392  10.275  1.3002 -0.7187 -0.4654
  295MOL0     C40622   4.188   6.395  10.313  0.1827 -0.0880  0.1966
  295MOL0     N40623   3.514   6.030  10.393  0.5956 -0.3021 -0.0809
  295MOL0     N40624   3.403   5.972  10.443  0.2146  0.0512  0.7289
  295MOL0     C40625   2.336   5.618  10.612  1.0316  0.0278  0.5310
  295MOL0     C40626   2.203   5.669  10.607 -1.1420  0.2463 -0.4920
  295MOL0     C40627   1.862   5.987  10.664  0.4223 -0.7733  0.0932
  295MOL0     C40628   1.781   5.970  10.544  0.0610 -0.0450  0.1250
  295MOL0     C40629   1.654   6.026  10.531  0.7658  0.0960  0.9678
  295MOL0     C40630   1.598   6.094  10.640  0.5334  0.9580 -0.0471
  295MOL0     O40631   1.479   6.171  10.635 -0.9952 -0.3527  0.5837
  295MOL0     C40632   1.400   6.191  10.511 -0.4214 -0.7564  0.0212
  295MOL0     C40633   1.384   6.346  10.488 -0.0259  0.0702 -0.9648
  295MOL0     C40634   1.364   6.435  10.613  0.3734  0.1935 -0.4251
  295MOL0     C40635   1.224   6.413  10.676  0.3044  0.1618 -0.7591
  295MOL0     C40636   1.117   6.435  10.575 -0.8703 -0.9252 -0.4631
  295MOL0     C40637   1.032   6.470  10.497  0.3243  0.0399  0.1090
  295MOL0     C40638   1.670   6.106  10.755 -0.1680  0.8946 -0.0945
  295MOL0     C40639   1.801   6.061  10.772  0.2154 -0.0477  0.5585
  295MOL0     C40640   1.872   6.114  10.900  0.1865  0.5919  0.3423
  295MOL0     H40641   2.259   6.005  10.600  1.0108  0.2734 -0.0668
  295MOL0     H40642   2.491   5.921  10.575 -0.4768  0.0936 -0.8901
  295MOL0     H40643   2.710   5.798  10.553  1.3937 -0.8104  0.6129
  295MOL0     H40644   2.628   5.725  10.408  2.7197 -2.8606 -1.4260
  295MOL0     H40645   2.852   5.594  10.580  2.8955 -2.2020 -2.3660
  295MOL0     H40646   2.754   5.506  10.454 -2.0881  0.3452  1.1720
  295MOL0     H40647   2.970   5.597  10.362 -0.3362 -0.9636  0.4892
  295MOL0     H40648   2.827   5.658  10.284 -1.0248  2.4979 -0.3863
  295MOL0     H40649   2.836   5.865  10.361  1.0197  0.3624  0.5119
  295MOL0     H40650   2.928   5.833  10.511  0.6562 -1.3962  0.6054
  295MOL0     H40651   3.046   5.813  10.227 -0.2575  3.4765 -1.5423
  295MOL0     H40652   3.123   5.793  10.382 -0.9392 -0.7031  1.1614
  295MOL0     H40653   3.150   6.007  10.247 -2.1387  1.0672 -2.4308
  295MOL0     H40654   2.967   6.031  10.273 -1.1669  0.4472  2.2445
  295MOL0     H40655   2.988   6.072  10.488 -0.9086  2.0165 -2.5609
  295MOL0     H40656   3.090   6.190  10.421 -0.8702  0.3759  2.1226
  295MOL0     H40657   3.179   6.105  10.638  0.9998 -0.0713 -0.6396
  295MOL0     H40658   3.176   5.946  10.583 -1.4350  0.4201  1.8491
  295MOL0     H40659   3.338   6.283  10.500 -0.3275 -0.2117  0.3254
  295MOL0     H40660   3.533   6.362  10.331  2.6657  1.3026 -1.3355
  295MOL0     H40661   3.638   6.231  10.253 -0.2098  0.8629 -0.4643
  295MOL0     H40662   3.667   6.351  10.529 -0.0396  0.4606  0.4072
  295MOL0     H40663   3.766   6.227  10.455 -2.2077 -0.7973  0.6270
  295MOL0     H40664   3.824   6.377  10.274  0.9193  0.4907  0.4610
  295MOL0     H40665   3.751   6.519  10.345  0.3760  0.0459  0.7803
  295MOL0     H40666   3.993   6.525  10.418 -0.1406 -0.2210 -1.8675
  295MOL0     H40667   3.903   6.485  10.555  1.3947  0.0246  0.1857
  295MOL0     H40668   4.183   6.148  10.546  1.2392 -2.3078 -0.3926
  295MOL0     H40669   4.474   6.014  10.416  3.5712  0.6505  1.3611
  295MOL0     H40670   4.382   6.041  10.562  0.2208  0.9199  0.4397
  295MOL0     H40671   4.526   6.125  10.534 -0.4761 -0.5394  0.7033
  295MOL0     H40672   4.694   6.140   9.994  1.4710  0.8320 -3.0066
  295MOL0     H40673   4.928   6.170   9.910 -1.5931 -2.2420  0.6793
  295MOL0     H40674   5.247   6.084  10.129 -2.8979  0.4807  1.7756
  295MOL0     H40675   5.171   6.048   9.971  3.3245  0.4640 -3.3392
  295MOL0     H40676   5.301   6.218   9.858 -1.5980 -3.5919 -1.8566
  295MOL0     H40677   5.394   6.237  10.011 -0.1519 -1.0199 -0.4705
  295MOL0     H40678   5.359   5.972   9.867 -1.4928  1.1596  0.5893
  295MOL0     H40679   5.484   6.009   9.997  1.0270  0.2182 -0.8678
  295MOL0     H40680   5.489   6.125   9.724 -0.5959 -1.1704  0.3100
  295MOL0     H40681   5.550   5.966   9.770  1.7516  1.0404 -1.6693
  295MOL0     H40682   5.598   6.240   9.895  1.5474  2.4693 -3.2158
  295MOL0     H40683   5.680   6.091   9.956  1.9084  0.2861 -0.6856
  295MOL0     H40684   5.710   6.225   9.666  0.8423 -0.2475 -1.6761
  295MOL0     H40685   5.775   6.073   9.728 -1.5395 -0.1291  2.2169
  295MOL0     H40686   5.888   6.204   9.905 -1.0945  1.6493  0.2892
  295MOL0     H40687   5.823   6.351   9.831  0.0049  0.2196 -2.6625
  295MOL0     H40688   6.066   6.308   9.770 -0.1392  1.3316 -1.2454
  295MOL0     H40689   5.963   6.323   9.635  2.0441 -0.3157 -1.5283
  295MOL0     H40690   5.072   6.239  10.304 -0.5336  1.8958  0.0052
  295MOL0     H40691   4.852   6.189  10.394  0.3979  0.0468  1.1484
  295MOL0     H40692   4.346   6.472  10.206 -1.4956  1.6180  0.9936
  295MOL0     H40693   4.122   6.465  10.263 -0.7957 -1.1123 -0.0166
  295MOL0     H40694   2.343   5.510  10.612 -1.3783 -0.1947 -0.0347
  295MOL0     H40695   2.111   5.612  10.613 -0.9416 -0.1379 -0.9767
  295MOL0     H40696   1.819   5.917  10.457  0.7654  2.5067 -1.2013
  295MOL0     H40697   1.600   6.006  10.439 -0.4715  1.5174  1.3405
  295MOL0     H40698   1.451   6.139  10.429 -0.2077 -2.3057  1.0879
  295MOL0     H40699   1.303   6.141  10.522 -0.3852 -0.8707 -0.1774
  295MOL0     H40700   1.312   6.365  10.408  0.9381  0.4491 -1.7610
  295MOL0     H40701   1.476   6.386  10.446 -1.7620  1.7810 -3.3579
  295MOL0     H40702   1.440   6.419  10.689 -1.0928  1.6470  1.4460
  295MOL0     H40703   1.382   6.537  10.579  0.6827  0.2015 -0.2398
  295MOL0     H40704   1.204   6.466  10.770  0.3674  0.2061 -0.7708
  295MOL0     H40705   1.232   6.306  10.700 -0.9123  0.0767 -0.6793
  295MOL0     H40706   0.963   6.507  10.424 -0.5526  2.7661  2.1795
  295MOL0     H40707   1.633   6.163  10.839  0.1522  2.2490 -0.8407
  295MOL0     H40708   1.923   6.034  10.954 -1.1701 -0.1373  0.5988
  295MOL0     H40709   1.953   6.179  10.866 -2.4406  2.4346 -3.0717
  295MOL0     H40710   1.805   6.165  10.970  0.3160 -0.6567  1.4116
  296MOL0     O40711  11.153   2.811   7.819  0.1473  0.5014 -0.2156
  296MOL0     C40712  11.098   2.841   7.710  0.2764  0.7419 -0.4339
  296MOL0     O40713  11.125   2.943   7.631 -0.0978  0.3023 -0.6114
  296MOL0     C40714  11.231   3.013   7.667 -1.9245 -0.7283 -0.4691
  296MOL0     C40715  11.234   3.105   7.779  0.2178  0.0741  0.5199
  296MOL0     C40716  11.352   3.183   7.800 -0.3151 -0.4867  0.0377
  296MOL0     C40717  11.465   3.170   7.718 -0.2341 -0.1701 -0.8769
  296MOL0     O40718  11.576   3.250   7.753  0.1079  0.3812  0.7637
  296MOL0     C40719  11.694   3.233   7.670 -0.3469  1.5490 -0.3341
  296MOL0     C40720  11.796   3.328   7.736 -0.1790 -0.0901 -0.2913
  296MOL0     C40721  11.924   3.324   7.659 -0.0509  0.4551 -1.1237
  296MOL0     C40722  12.041   3.388   7.743 -1.0636  1.0193  0.3964
  296MOL0     C40723  12.162   3.415   7.657 -0.5529 -0.1384 -0.1145
  296MOL0     C40724  12.277   3.469   7.738 -0.0882 -1.1766 -0.1138
  296MOL0     C40725  12.404   3.490   7.652  0.1291 -0.1190  0.8497
  296MOL0     C40726  12.514   3.566   7.729 -0.7800 -0.3807  0.2555
  296MOL0     N40727  12.495   3.717   7.723 -0.2155  0.5973 -0.2757
  296MOL0     C40728  12.491   3.794   7.610  0.2255  0.9149 -0.0413
  296MOL0     C40729  12.472   3.919   7.650  0.3181 -0.4072 -0.1637
  296MOL0     C40730  12.451   4.039   7.563 -0.8903  0.5029 -0.2978
  296MOL0     C40731  12.579   4.113   7.527  0.1424  0.0561  0.6393
  296MOL0     C40732  12.663   4.035   7.434  0.3528 -0.2372  0.0533
  296MOL0     C40733  12.795   4.106   7.418 -0.3575 -1.3527  0.8332
  296MOL0     O40734  12.880   4.051   7.318  0.1432  0.4518 -0.4145
  296MOL0     C40735  13.014   4.079   7.309 -0.3544  0.0736 -0.6498
  296MOL0     C40736  13.085   3.996   7.222 -0.2523 -0.1884  0.7179
  296MOL0     C40737  13.224   4.004   7.219 -0.7373  1.0036  0.8463
  296MOL0     C40738  13.296   3.915   7.114  0.4977  0.3051  0.3739
  296MOL0     C40739  13.298   4.093   7.299 -0.5436  0.0702  0.1442
  296MOL0     C40740  13.446   4.086   7.315  0.6134  0.5297 -0.4785
  296MOL0     O40741  13.500   4.196   7.373 -0.3092  0.6304  0.5273
  296MOL0     C40742  13.633   4.208   7.397 -0.0212 -0.3675  0.2280
  296MOL0     C40743  13.727   4.109   7.413 -0.4662 -0.2218  0.3711
  296MOL0     C40744  13.860   4.140   7.440  0.3512 -0.2957  0.3211
  296MOL0     C40745  13.898   4.280   7.442  0.6435 -0.2764  0.6328
  296MOL0     O40746  14.024   4.325   7.472  0.3835 -0.2392  0.7346
  296MOL0     C40747  14.123   4.237   7.426 -0.5576  0.5935 -0.5543
  296MOL0     C40748  14.254   4.309   7.462  0.4712  0.0505 -0.2493
  296MOL0     C40749  14.300   4.398   7.343  0.6717 -0.8576 -0.6976
  296MOL0     C40750  14.425   4.476   7.384  0.0155 -0.5814 -0.0843
  296MOL0     C40751  14.559   4.393   7.387  0.1232 -0.2637 -0.7098
  296MOL0     C40752  14.682   4.482   7.388  0.3584 -0.0812  0.6118
  296MOL0     C40753  14.804   4.389   7.370  0.0827 -0.7573  0.1621
  296MOL0     C40754  14.921   4.469   7.324 -0.6627  0.4687  0.4893
  296MOL0    Cl40755  15.068   4.363   7.308 -0.2506 -0.0281  0.1356
  296MOL0     C40756  13.803   4.375   7.429  0.7650 -0.0101 -0.8882
  296MOL0     C40757  13.671   4.343   7.407  0.3759 -0.1069  0.6406
  296MOL0     O40758  13.508   3.987   7.280 -0.3323 -0.5036  0.1697
  296MOL0     C40759  13.214   4.187   7.377 -0.9825  0.3541  0.6738
  296MOL0     C40760  13.075   4.179   7.379  1.3425  0.1638  0.7042
  296MOL0     N40761  12.469   3.930   7.786 -0.0176  0.1133 -0.3179
  296MOL0     N40762  12.469   3.805   7.820  0.3249  0.3237  0.0862
  296MOL0     C40763  11.456   3.078   7.614 -0.5587  0.3050  0.2578
  296MOL0     C40764  11.350   3.003   7.592  0.2812  0.0558  0.7589
  296MOL0     C40765  10.977   2.748   7.670 -0.0905  0.1873 -0.4161
  296MOL0     C40766  10.943   2.644   7.751  0.3375 -0.2473 -0.3352
  296MOL0     C40767  10.851   2.554   7.720  0.4044 -0.4223 -0.1546
  296MOL0     C40768  10.764   2.572   7.617  0.4957  0.1214  0.2264
  296MOL0     O40769  10.657   2.485   7.601  0.2140 -0.0122 -0.2766
  296MOL0     C40770  10.575   2.499   7.484  0.7943  0.8156 -0.3370
  296MOL0     C40771  10.443   2.422   7.510 -0.2126 -0.4753 -0.2464
  296MOL0     C40772  10.449   2.271   7.499 -0.1046 -0.4330 -0.0697
  296MOL0     C40773  10.358   2.198   7.601 -0.2765  1.1937 -0.0598
  296MOL0     C40774  10.419   2.067   7.649  1.2059  0.0779 -0.4841
  296MOL0     C40775  10.451   1.966   7.698  0.0729  0.2002 -0.4744
  296MOL0     C40776  10.790   2.681   7.530 -0.1246  0.0343  0.1758
  296MOL0     C40777  10.904   2.761   7.550 -0.4339 -0.0990  0.1837
  296MOL0     C40778  10.943   2.857   7.437  0.0301 -0.0436 -0.8766
  296MOL0     H40779  11.143   3.135   7.830 -1.4046 -1.0161 -1.5800
  296MOL0     H40780  11.352   3.254   7.882  1.2652 -0.4491  0.0383
  296MOL0     H40781  11.666   3.264   7.569 -3.2036  0.4188  0.0296
  296MOL0     H40782  11.726   3.129   7.673 -0.7506  1.3190 -2.3282
  296MOL0     H40783  11.749   3.427   7.734 -2.0235 -0.6929  3.6273
  296MOL0     H40784  11.817   3.300   7.840 -1.7279 -0.5544 -0.0847
  296MOL0     H40785  11.941   3.217   7.649  4.0360  0.5951  1.8322
  296MOL0     H40786  11.907   3.368   7.560  1.4928  1.2234 -1.0650
  296MOL0     H40787  12.001   3.480   7.788 -0.7897  0.7788  1.1538
  296MOL0     H40788  12.074   3.330   7.830  1.3155 -0.9617 -1.6710
  296MOL0     H40789  12.130   3.497   7.592 -2.5268 -0.4757  0.3765
  296MOL0     H40790  12.186   3.323   7.603  0.3866  0.3448 -0.5502
  296MOL0     H40791  12.254   3.563   7.789 -0.1998 -0.8842 -0.6921
  296MOL0     H40792  12.299   3.404   7.823 -0.6069  3.2862  3.8110
  296MOL0     H40793  12.376   3.554   7.568 -1.7145 -0.1654  1.3945
  296MOL0     H40794  12.441   3.392   7.621 -0.4362 -0.2165  0.4815
  296MOL0     H40795  12.514   3.541   7.836  3.9355  4.2650  1.7646
  296MOL0     H40796  12.611   3.536   7.689 -1.8565 -2.5955 -0.8800
  296MOL0     H40797  12.501   3.766   7.506  0.4233  1.6872 -0.2374
  296MOL0     H40798  12.376   4.099   7.617 -0.4849  1.0203 -0.3065
  296MOL0     H40799  12.406   4.008   7.468 -0.2682  3.1454 -1.5434
  296MOL0     H40800  12.546   4.205   7.478 -2.1846 -0.4047  1.2177
  296MOL0     H40801  12.629   4.127   7.623 -1.5023  0.0445  1.5287
  296MOL0     H40802  12.679   3.933   7.469 -0.6902 -0.6019 -0.4926
  296MOL0     H40803  12.602   4.020   7.345 -1.7264 -1.6646  1.6095
  296MOL0     H40804  12.774   4.210   7.393  0.4329 -1.4749 -0.4147
  296MOL0     H40805  12.839   4.109   7.518 -1.4742 -0.3991  1.3219
  296MOL0     H40806  13.019   3.933   7.164 -0.3073 -0.4752  1.0852
  296MOL0     H40807  13.357   3.980   7.051  1.2057  1.2189  1.9245
  296MOL0     H40808  13.228   3.852   7.057  0.9951 -1.8145  1.9811
  296MOL0     H40809  13.364   3.850   7.171 -0.8063  0.5298  2.2864
  296MOL0     H40810  13.705   4.002   7.407 -1.0328 -0.6669  5.4106
  296MOL0     H40811  13.930   4.058   7.453 -0.2781 -1.4090 -2.5346
  296MOL0     H40812  14.118   4.137   7.470 -1.2038  0.0985 -1.6910
  296MOL0     H40813  14.114   4.213   7.320  0.7798 -0.0160 -0.5509
  296MOL0     H40814  14.237   4.366   7.554 -1.0888 -0.4962 -0.1771
  296MOL0     H40815  14.332   4.235   7.484  0.8852  0.5102 -0.1418
  296MOL0     H40816  14.225   4.469   7.308 -0.3088 -1.9531 -0.8711
  296MOL0     H40817  14.331   4.332   7.262  3.5916  0.2177 -0.5589
  296MOL0     H40818  14.414   4.531   7.478 -3.1489 -2.6316  0.9025
  296MOL0     H40819  14.439   4.553   7.308  2.3434  2.0151  2.7191
  296MOL0     H40820  14.567   4.345   7.485 -0.3191  0.0292 -0.5297
  296MOL0     H40821  14.558   4.311   7.315 -1.7394 -2.1915  1.3654
  296MOL0     H40822  14.690   4.541   7.480  0.7027 -2.0370  1.9065
  296MOL0     H40823  14.676   4.550   7.303 -0.3420 -1.1512 -0.2152
  296MOL0     H40824  14.778   4.301   7.310  0.7659 -1.7184  1.2099
  296MOL0     H40825  14.829   4.348   7.469 -2.0401  0.1985  1.1814
  296MOL0     H40826  14.937   4.556   7.388  0.0859 -0.0515  1.0262
  296MOL0     H40827  14.903   4.509   7.224 -1.7224  3.7513  1.8530
  296MOL0     H40828  13.827   4.481   7.436 -1.8420  0.5610  0.4151
  296MOL0     H40829  13.605   4.425   7.378  0.3753 -0.7667 -1.3482
  296MOL0     H40830  13.266   4.262   7.437 -0.0510  0.3892 -0.1637
  296MOL0     H40831  13.019   4.254   7.434  0.9179 -0.9165  1.7785
  296MOL0     H40832  11.538   3.071   7.544 -2.3777  0.1252 -1.9855
  296MOL0     H40833  11.342   2.941   7.503  0.6858  2.3566 -0.9756
  296MOL0     H40834  11.012   2.631   7.834  0.2168  2.6784  0.3376
  296MOL0     H40835  10.835   2.482   7.800 -0.7788 -2.1749 -1.8546
  296MOL0     H40836  10.538   2.602   7.480 -1.8219 -0.0536 -0.3662
  296MOL0     H40837  10.618   2.462   7.390 -1.8873  1.1457 -1.8129
  296MOL0     H40838  10.369   2.447   7.433 -0.6332 -0.5111  0.1403
  296MOL0     H40839  10.407   2.453   7.608  1.5855  0.0135  0.2794
  296MOL0     H40840  10.433   2.238   7.396  0.2072 -0.5478 -0.0792
  296MOL0     H40841  10.553   2.247   7.520  0.2711  0.7504 -0.4905
  296MOL0     H40842  10.255   2.184   7.566 -0.0197 -0.9901 -0.1237
  296MOL0     H40843  10.358   2.266   7.686 -2.1660  2.0674 -0.7173
  296MOL0     H40844  10.475   1.876   7.751 -1.1660  0.0069 -0.2064
  296MOL0     H40845  10.725   2.720   7.451  0.8474  1.1541 -0.1021
  296MOL0     H40846  10.940   2.961   7.469 -1.0982 -1.1979  3.3402
  296MOL0     H40847  11.031   2.817   7.386  0.1907 -0.8781  0.0372
  296MOL0     H40848  10.867   2.841   7.360 -0.8833  1.9647 -0.4462
  297MOL0     O40849  10.506   4.788   2.524  0.1507 -0.0323  0.0723
  297MOL0     C40850  10.457   4.733   2.427  0.8734 -0.8817 -0.4254
  297MOL0     O40851  10.513   4.718   2.303 -0.6214 -0.1432 -0.0328
  297MOL0     C40852  10.648   4.738   2.290  0.4805  0.2011 -0.4435
  297MOL0     C40853  10.737   4.627   2.280 -0.6619  0.4720  1.1530
  297MOL0     C40854  10.876   4.651   2.266  0.2186 -0.0334 -0.0733
  297MOL0     C40855  10.928   4.779   2.254 -0.1563 -0.1957  0.1241
  297MOL0     O40856  11.063   4.791   2.253  0.5058 -0.1355  0.5190
  297MOL0     C40857  11.114   4.883   2.351 -0.0096  0.3126  0.1555
  297MOL0     C40858  11.251   4.920   2.316 -0.7562  0.5056 -0.0026
  297MOL0     C40859  11.343   4.794   2.333 -0.1795 -0.6511 -0.1670
  297MOL0     C40860  11.494   4.822   2.294 -0.2742 -0.0852 -0.5127
  297MOL0     C40861  11.590   4.707   2.342 -0.1939 -0.0608  0.0091
  297MOL0     C40862  11.723   4.735   2.290 -0.1487 -0.4002  0.1833
  297MOL0     C40863  11.823   4.623   2.328  0.4589 -0.6649 -0.2813
  297MOL0     C40864  11.823   4.515   2.227 -0.3290  0.6464  0.4700
  297MOL0     N40865  11.933   4.423   2.260 -0.4509  0.6980 -0.0186
  297MOL0     C40866  11.933   4.333   2.363 -1.1168  0.5933 -0.1395
  297MOL0     C40867  12.045   4.265   2.346 -0.8537 -0.6080 -0.0020
  297MOL0     C40868  12.080   4.147   2.426  0.4408 -0.0440 -0.7329
  297MOL0     C40869  12.077   4.186   2.567 -0.1702 -0.5740  0.1313
  297MOL0     C40870  12.127   4.080   2.670  0.4118  0.8150 -0.2439
  297MOL0     C40871  12.279   4.054   2.669  0.1346 -0.0712  0.6774
  297MOL0     O40872  12.330   4.001   2.543 -1.1662  0.5017 -0.6281
  297MOL0     C40873  12.453   4.050   2.506  0.2131 -0.8857  1.0817
  297MOL0     C40874  12.463   4.163   2.419  0.4492  0.4389 -1.0519
  297MOL0     C40875  12.582   4.228   2.395  1.0033 -0.1270  0.3055
  297MOL0     C40876  12.571   4.358   2.314 -0.0835 -0.5677  0.1922
  297MOL0     C40877  12.704   4.178   2.452  0.2969  0.0097  0.1099
  297MOL0     C40878  12.843   4.240   2.433  0.3521 -0.3374 -0.5043
  297MOL0     O40879  12.918   4.255   2.551  0.2469 -0.6598  0.3324
  297MOL0     C40880  13.033   4.316   2.533 -0.5075  0.7028 -0.1971
  297MOL0     C40881  13.146   4.256   2.588 -0.0288 -0.2343  0.3350
  297MOL0     C40882  13.266   4.324   2.586  0.9323  0.7341 -0.2439
  297MOL0     C40883  13.280   4.455   2.522  0.9415 -0.6594  0.3174
  297MOL0     O40884  13.394   4.525   2.520 -0.2482  0.5142 -0.7207
  297MOL0     C40885  13.513   4.481   2.593  0.4121 -0.0965 -0.0759
  297MOL0     C40886  13.524   4.512   2.742  1.1963 -0.1252  0.3395
  297MOL0     C40887  13.670   4.531   2.792 -0.3660 -0.4022 -0.3215
  297MOL0     C40888  13.743   4.405   2.761  0.1693  0.1833 -0.4461
  297MOL0     C40889  13.887   4.421   2.810  0.5571  0.4306  0.5998
  297MOL0     C40890  13.895   4.407   2.955  0.3706 -0.1319 -0.2915
  297MOL0     C40891  14.043   4.430   2.994  0.2589 -0.8151 -0.4832
  297MOL0     C40892  14.067   4.386   3.142 -0.1041  0.3970  0.3927
  297MOL0    Cl40893  14.240   4.436   3.174 -0.3127 -0.3985  0.3778
  297MOL0     C40894  13.164   4.516   2.478  0.7097 -0.3570  0.0900
  297MOL0     C40895  13.042   4.445   2.479 -0.4085 -0.7034 -0.2779
  297MOL0     O40896  12.872   4.271   2.318 -0.1569  0.6241  0.5584
  297MOL0     C40897  12.687   4.067   2.532 -0.7834  0.8082 -0.0559
  297MOL0     C40898  12.569   4.003   2.557 -0.0974  0.1562  0.3546
  297MOL0     N40899  12.114   4.320   2.236  0.2613  0.1910 -0.2428
  297MOL0     N40900  12.045   4.411   2.186  0.2076 -0.2545 -0.3935
  297MOL0     C40901  10.843   4.885   2.261 -0.1062  0.8883 -0.1021
  297MOL0     C40902  10.709   4.862   2.276  0.3675 -0.4821 -0.2188
  297MOL0     C40903  10.309   4.696   2.416  0.0421 -0.4461  0.3964
  297MOL0     C40904  10.230   4.775   2.339 -0.0547 -0.4918  0.2005
  297MOL0     C40905  10.098   4.738   2.335 -0.3612  0.0309  0.9286
  297MOL0     C40906  10.035   4.637   2.418  0.3090  0.7815 -0.1266
  297MOL0     O40907   9.896   4.608   2.423  0.9635  0.2652  0.1705
  297MOL0     C40908   9.836   4.605   2.290 -0.2882  0.3032 -0.2694
  297MOL0     C40909   9.756   4.473   2.268  1.0162 -0.1837  0.1958
  297MOL0     C40910   9.628   4.475   2.349 -0.0917  0.4692 -0.0234
  297MOL0     C40911   9.550   4.344   2.343  0.6712 -0.3002 -0.7734
  297MOL0     C40912   9.473   4.342   2.216 -0.6665  0.3369 -0.3238
  297MOL0     C40913   9.429   4.330   2.105  0.8168  0.1988  0.5852
  297MOL0     C40914  10.119   4.559   2.499 -0.5424  0.0774 -0.3546
  297MOL0     C40915  10.260   4.594   2.506  0.9682 -0.7761  0.0875
  297MOL0     C40916  10.353   4.506   2.598  0.0408  0.1165 -0.0567
  297MOL0     H40917  10.694   4.528   2.271  0.4504  0.1216 -1.1832
  297MOL0     H40918  10.947   4.569   2.273  0.0985 -0.4862 -3.0727
  297MOL0     H40919  11.097   4.835   2.447  1.5380 -0.8827 -0.1142
  297MOL0     H40920  11.052   4.973   2.355  0.0979  0.4487 -0.9390
  297MOL0     H40921  11.259   4.958   2.213  1.0598  1.1380  0.3223
  297MOL0     H40922  11.285   5.001   2.382  1.1803 -0.6904  0.5480
  297MOL0     H40923  11.329   4.753   2.434  1.9128  2.5657  1.6096
  297MOL0     H40924  11.306   4.722   2.260  3.1532 -0.0751 -2.6687
  297MOL0     H40925  11.505   4.831   2.186 -0.3120  0.5486 -0.4648
  297MOL0     H40926  11.516   4.920   2.338 -1.1926 -0.6181  1.2793
  297MOL0     H40927  11.559   4.615   2.291 -2.3850  1.2488 -1.1600
  297MOL0     H40928  11.588   4.698   2.451  2.0896  0.0785  0.1016
  297MOL0     H40929  11.722   4.752   2.182 -0.6473 -0.7920  0.1255
  297MOL0     H40930  11.764   4.828   2.330  0.8677 -0.9612  0.4933
  297MOL0     H40931  11.792   4.594   2.429 -1.0519  1.8623  0.0820
  297MOL0     H40932  11.927   4.658   2.322 -0.0073  0.5742 -2.0692
  297MOL0     H40933  11.727   4.463   2.233  0.1283 -0.0947  2.1287
  297MOL0     H40934  11.827   4.546   2.123 -0.4541 -0.6835  0.0504
  297MOL0     H40935  11.856   4.315   2.436  1.7097  2.0994  3.5187
  297MOL0     H40936  12.177   4.110   2.390 -0.1966 -0.2461 -2.3549
  297MOL0     H40937  12.010   4.067   2.401 -0.6519  0.4364  0.7019
  297MOL0     H40938  12.136   4.277   2.580 -0.3081 -0.6752  1.7426
  297MOL0     H40939  11.974   4.207   2.600  0.0985  0.7608  0.1705
  297MOL0     H40940  12.108   4.112   2.773  0.0212 -2.5762  0.8665
  297MOL0     H40941  12.074   3.985   2.660  1.6026  0.1869 -0.9824
  297MOL0     H40942  12.332   4.147   2.689 -0.2933 -0.0090  1.5435
  297MOL0     H40943  12.290   3.980   2.749  1.0027  0.2936  0.8987
  297MOL0     H40944  12.368   4.208   2.391 -0.9789  0.2753  2.8908
  297MOL0     H40945  12.472   4.367   2.268 -0.3132  1.1760  0.9151
  297MOL0     H40946  12.645   4.374   2.235 -0.4070  0.3696  0.0629
  297MOL0     H40947  12.570   4.446   2.379 -1.7907  1.1754 -2.0274
  297MOL0     H40948  13.122   4.166   2.644 -2.0498 -1.0271 -1.6327
  297MOL0     H40949  13.348   4.267   2.629  0.2631  0.5627  0.8453
  297MOL0     H40950  13.526   4.374   2.577 -2.4117 -0.2437 -2.2073
  297MOL0     H40951  13.601   4.531   2.551  0.9636 -1.4545 -0.5670
  297MOL0     H40952  13.467   4.604   2.754  0.1421 -0.5525 -1.1915
  297MOL0     H40953  13.479   4.439   2.811  4.8595  2.0323  5.7333
  297MOL0     H40954  13.674   4.548   2.900  0.8907 -0.8027 -0.2865
  297MOL0     H40955  13.719   4.617   2.746  1.6757 -0.7214  1.1086
  297MOL0     H40956  13.737   4.393   2.653  1.4048  1.3415 -0.6691
  297MOL0     H40957  13.694   4.317   2.804 -1.8692  1.5424  0.1573
  297MOL0     H40958  13.944   4.339   2.765  0.8849 -0.4181  2.4624
  297MOL0     H40959  13.926   4.516   2.773 -0.2532  0.2035 -0.9055
  297MOL0     H40960  13.856   4.311   2.989  0.9424 -0.5040 -0.6918
  297MOL0     H40961  13.836   4.479   3.013 -1.8280 -1.5055 -0.6923
  297MOL0     H40962  14.058   4.538   2.983 -2.2393 -0.3421  0.0069
  297MOL0     H40963  14.115   4.377   2.931 -0.5600 -2.4975 -0.0830
  297MOL0     H40964  14.051   4.278   3.145  3.6875 -0.2989  1.7415
  297MOL0     H40965  13.997   4.440   3.207 -1.5473 -1.6646  0.6482
  297MOL0     H40966  13.166   4.622   2.451  0.5606 -0.4291 -0.2120
  297MOL0     H40967  12.955   4.500   2.445  0.1813  0.6018  0.2855
  297MOL0     H40968  12.781   4.020   2.558 -1.1232 -0.3820 -0.9100
  297MOL0     H40969  12.568   3.909   2.611  0.4139 -0.0098  0.0770
  297MOL0     H40970  10.881   4.987   2.258 -0.5790  1.0485 -0.9063
  297MOL0     H40971  10.637   4.943   2.274  2.6598  1.7711  1.2648
  297MOL0     H40972  10.271   4.860   2.285 -0.7698 -0.1579  0.1701
  297MOL0     H40973  10.030   4.798   2.276  0.0380 -2.1530 -1.9596
  297MOL0     H40974   9.773   4.692   2.274  0.0495  0.5978 -0.0292
  297MOL0     H40975   9.916   4.601   2.216 -1.8263  2.3221 -2.1393
  297MOL0     H40976   9.820   4.389   2.295  0.1993 -0.5501  1.0761
  297MOL0     H40977   9.731   4.467   2.162  1.2277 -0.8604  0.1809
  297MOL0     H40978   9.653   4.498   2.453 -0.3265  1.6431 -0.2206
  297MOL0     H40979   9.574   4.563   2.314  1.2720  0.3903 -2.5732
  297MOL0     H40980   9.483   4.330   2.428  0.2723 -4.2709 -1.5659
  297MOL0     H40981   9.622   4.263   2.347  1.4491  0.4045  3.0031
  297MOL0     H40982   9.384   4.322   2.008 -0.2730 -1.5893  1.1970
  297MOL0     H40983  10.080   4.480   2.562 -4.2336 -0.0816 -2.5316
  297MOL0     H40984  10.434   4.554   2.653  1.0960 -1.2683 -0.3712
  297MOL0     H40985  10.301   4.449   2.676 -2.0991 -0.4754 -1.7776
  297MOL0     H40986  10.399   4.432   2.533 -0.4676 -0.2297 -0.0289
  298MOL0     O40987   0.451  11.131   8.564  0.3362 -0.1616  0.3784
  298MOL0     C40988   0.419  11.241   8.598  0.0129 -0.5551 -0.1039
  298MOL0     O40989   0.493  11.327   8.692  0.2057 -0.1894  0.1261
  298MOL0     C40990   0.616  11.296   8.739 -0.3490  0.5842 -0.6858
  298MOL0     C40991   0.713  11.200   8.694  0.2180 -1.2162  0.8871
  298MOL0     C40992   0.830  11.174   8.763  0.4566  0.0099  0.2339
  298MOL0     C40993   0.859  11.234   8.891 -0.0240  0.1255  0.7476
  298MOL0     O40994   0.980  11.200   8.951 -0.1729 -0.2295  0.5090
  298MOL0     C40995   1.021  11.258   9.069 -0.3077  0.0554  0.8557
  298MOL0     C40996   1.140  11.179   9.123  0.4493  0.2421 -0.3491
  298MOL0     C40997   1.199  11.253   9.244 -0.3995 -0.4494  0.8641
  298MOL0     C40998   1.341  11.204   9.280 -0.7088  0.2093  0.5622
  298MOL0     C40999   1.367  11.251   9.421 -1.1563 -0.6578  0.8870
  298MOL0     C41000   1.518  11.218   9.464  0.3535 -0.5615  0.1511
  298MOL0     C41001   1.549  11.258   9.615  0.1100  0.7092 -0.6377
  298MOL0     C41002   1.656  11.169   9.677 -0.7455 -1.1726  0.0414
  298MOL0     N41003   1.773  11.145   9.587  0.3695 -0.3870 -0.6572
  298MOL0     C41004   1.876  11.235   9.575  0.2638 -0.1952  0.0385
  298MOL0     C41005   1.944  11.205   9.468 -0.3858  0.1274  0.5531
  298MOL0     C41006   2.057  11.282   9.402  0.2483  0.4169  0.0333
  298MOL0     C41007   2.174  11.190   9.377 -0.3835 -0.1833 -0.6477
  298MOL0     C41008   2.221  11.103   9.500 -0.1551  0.6336 -0.7264
  298MOL0     C41009   2.367  11.062   9.479 -0.2105  0.5378  0.3719
  298MOL0     O41010   2.376  10.986   9.362 -0.0911  0.2487  0.6198
  298MOL0     C41011   2.491  10.984   9.287 -0.1483 -0.0537 -0.2079
  298MOL0     C41012   2.624  11.027   9.330  0.7645  0.2262  0.2790
  298MOL0     C41013   2.730  11.033   9.242 -0.3545  0.8964 -0.3679
  298MOL0     C41014   2.858  11.094   9.296 -0.4148  0.2688 -0.2893
  298MOL0     C41015   2.711  10.979   9.113 -0.3072 -0.3932 -0.0375
  298MOL0     C41016   2.827  10.966   9.008 -0.0065  0.3168  0.4238
  298MOL0     O41017   2.832  10.860   8.919  0.3739 -0.3191 -0.1756
  298MOL0     C41018   2.949  10.852   8.845 -0.5217 -0.3999  0.3907
  298MOL0     C41019   2.926  10.893   8.721 -0.0400 -0.2307  0.2886
  298MOL0     C41020   3.026  10.904   8.623 -1.2199  0.0489 -0.2553
  298MOL0     C41021   3.162  10.856   8.655  1.1830  0.5111 -0.8732
  298MOL0     O41022   3.259  10.836   8.562  0.3274  0.6602 -0.0328
  298MOL0     C41023   3.391  10.790   8.599 -1.1711  0.5743 -0.5144
  298MOL0     C41024   3.492  10.791   8.475  0.2464  0.4226 -1.0059
  298MOL0     C41025   3.523  10.928   8.419 -0.2516 -0.8600 -0.6400
  298MOL0     C41026   3.627  10.931   8.312 -0.2475  0.5575  0.2055
  298MOL0     C41027   3.660  11.062   8.243  0.6020  0.3635 -0.2921
  298MOL0     C41028   3.765  11.148   8.318  1.3907  0.0361  0.1915
  298MOL0     C41029   3.705  11.234   8.430  0.2978 -0.1536  1.0498
  298MOL0     C41030   3.783  11.359   8.459 -0.0477  0.3065 -0.1855
  298MOL0    Cl41031   3.697  11.469   8.576  0.2566  0.0977 -0.3332
  298MOL0     C41032   3.179  10.810   8.792 -0.1843 -1.7860 -0.8787
  298MOL0     C41033   3.069  10.818   8.888  0.5142  0.4681  0.5743
  298MOL0     O41034   2.914  11.055   9.014  0.2438  0.5886 -0.4429
  298MOL0     C41035   2.589  10.927   9.076  0.8631 -0.5380 -0.3378
  298MOL0     C41036   2.484  10.922   9.168 -0.7192  0.8473  0.0955
  298MOL0     N41037   1.902  11.080   9.424 -0.3383 -0.2567  0.1663
  298MOL0     N41038   1.793  11.051   9.493 -0.2766 -0.2734 -0.2753
  298MOL0     C41039   0.761  11.321   8.944  0.0265 -0.9650 -1.0522
  298MOL0     C41040   0.652  11.352   8.864 -0.0642 -0.6878  0.1346
  298MOL0     C41041   0.295  11.299   8.546  1.1295  0.2464  0.6725
  298MOL0     C41042   0.237  11.412   8.609 -0.4427  0.2807 -0.5637
  298MOL0     C41043   0.117  11.472   8.579 -0.7853 -0.3781  0.4912
  298MOL0     C41044   0.042  11.422   8.468 -0.2752 -0.8648 -0.3950
  298MOL0     O41045  -0.078  11.469   8.425 -0.9731  0.0612  0.2610
  298MOL0     C41046  -0.169  11.528   8.521 -0.2553 -0.4584 -0.1629
  298MOL0     C41047  -0.283  11.583   8.432  0.9409 -0.4050  0.3227
  298MOL0     C41048  -0.413  11.617   8.512  0.5678 -0.1847 -0.3994
  298MOL0     C41049  -0.402  11.750   8.585 -0.7267  0.2016 -0.2307
  298MOL0     C41050  -0.335  11.727   8.715  0.1596 -0.4127 -0.2989
  298MOL0     C41051  -0.287  11.718   8.824  0.4626  0.2636 -0.0918
  298MOL0     C41052   0.093  11.310   8.400 -0.3692 -0.6845  0.4337
  298MOL0     C41053   0.203  11.238   8.449 -0.0661 -0.0074  0.3293
  298MOL0     C41054   0.233  11.107   8.384  0.1185  0.1348 -0.2913
  298MOL0     H41055   0.683  11.135   8.612 -2.7054 -0.1936  1.0549
  298MOL0     H41056   0.903  11.105   8.721  0.2608  1.4107 -2.6627
  298MOL0     H41057   0.942  11.262   9.145  0.1067 -0.0040  1.2990
  298MOL0     H41058   1.055  11.360   9.051 -1.7857  0.4719  0.2956
  298MOL0     H41059   1.108  11.077   9.146  2.4817  0.1300  2.5882
  298MOL0     H41060   1.222  11.167   9.052  1.8151 -1.2232  1.3637
  298MOL0     H41061   1.216  11.354   9.207  1.0449 -1.1617 -0.5241
  298MOL0     H41062   1.121  11.244   9.321 -1.2515  1.5189  0.2861
  298MOL0     H41063   1.351  11.095   9.284  1.4034  0.4039  2.3165
  298MOL0     H41064   1.415  11.239   9.208 -3.2320  0.4922 -2.0879
  298MOL0     H41065   1.293  11.221   9.496 -2.0979  0.5103  0.4618
  298MOL0     H41066   1.362  11.360   9.423 -0.9261 -0.6209 -0.0878
  298MOL0     H41067   1.534  11.112   9.448  1.3046 -0.1817 -1.6575
  298MOL0     H41068   1.586  11.273   9.398  0.9722 -0.6265  0.7291
  298MOL0     H41069   1.458  11.251   9.675  0.0530  1.1611 -0.6645
  298MOL0     H41070   1.578  11.364   9.618 -1.0902  1.0624 -0.6809
  298MOL0     H41071   1.683  11.214   9.772 -4.7271  3.5723 -0.6909
  298MOL0     H41072   1.611  11.074   9.708  1.0056 -2.2636 -0.5997
  298MOL0     H41073   1.884  11.323   9.638 -1.1378 -0.3223  0.4254
  298MOL0     H41074   2.097  11.360   9.467  0.0192 -0.3173  1.0692
  298MOL0     H41075   2.025  11.332   9.310 -3.0575 -0.0998  0.7906
  298MOL0     H41076   2.139  11.114   9.306 -1.7080  0.1827 -0.4196
  298MOL0     H41077   2.255  11.248   9.331  1.2691 -1.7844  0.1505
  298MOL0     H41078   2.221  11.169   9.587 -0.8153  0.5444 -0.6593
  298MOL0     H41079   2.155  11.019   9.521 -0.1612  0.9381  0.4945
  298MOL0     H41080   2.430  11.152   9.477 -0.3175  0.6337  0.9796
  298MOL0     H41081   2.418  10.997   9.550 -0.0532  1.0110  0.7006
  298MOL0     H41082   2.647  11.058   9.432 -1.5767 -2.7383  1.8732
  298MOL0     H41083   2.945  11.030   9.281  0.8897  2.0093 -0.4303
  298MOL0     H41084   2.852  11.122   9.402 -0.6838  2.8574 -0.9170
  298MOL0     H41085   2.881  11.179   9.232 -1.1346 -0.0891 -1.0530
  298MOL0     H41086   2.827  10.917   8.684  1.1670  3.3670 -1.0276
  298MOL0     H41087   3.021  10.944   8.523 -2.8639 -3.0026 -1.5429
  298MOL0     H41088   3.436  10.840   8.685  4.2174  0.2093 -2.7166
  298MOL0     H41089   3.386  10.686   8.632 -1.3011  1.5287  2.7681
  298MOL0     H41090   3.581  10.732   8.497 -0.5970 -0.1991  0.9838
  298MOL0     H41091   3.445  10.731   8.396  1.1413  0.5410 -1.6381
  298MOL0     H41092   3.568  10.990   8.496 -2.9098  1.9651 -1.1673
  298MOL0     H41093   3.437  10.980   8.376  0.8942 -0.2159 -2.2759
  298MOL0     H41094   3.594  10.850   8.246 -2.9779 -0.7715  2.9847
  298MOL0     H41095   3.717  10.887   8.355 -1.1794  0.0710  1.7369
  298MOL0     H41096   3.706  11.042   8.146  0.2169 -0.4558 -0.3091
  298MOL0     H41097   3.570  11.120   8.219  0.0349 -0.5828 -0.4759
  298MOL0     H41098   3.817  11.208   8.243 -1.0108  2.2364  0.1742
  298MOL0     H41099   3.827  11.075   8.373 -0.8227 -0.2558  2.4691
  298MOL0     H41100   3.697  11.175   8.521 -0.0827 -1.8900 -0.0490
  298MOL0     H41101   3.606  11.277   8.410  0.2458 -0.9344 -0.5861
  298MOL0     H41102   3.803  11.416   8.368 -0.5996  0.0435 -0.4757
  298MOL0     H41103   3.879  11.332   8.505 -2.1819 -1.6527  3.6200
  298MOL0     H41104   3.274  10.775   8.830  0.0033 -1.0302 -0.6424
  298MOL0     H41105   3.087  10.789   8.991 -2.3468 -3.7240  0.1366
  298MOL0     H41106   2.574  10.892   8.974 -0.0956 -0.2161 -0.3140
  298MOL0     H41107   2.387  10.882   9.140 -1.3096 -0.3371  3.3438
  298MOL0     H41108   0.769  11.376   9.037 -2.5017 -3.1219  0.5921
  298MOL0     H41109   0.580  11.419   8.909 -0.8936 -1.1210 -0.5261
  298MOL0     H41110   0.306  11.462   8.677  2.2037  0.1810 -2.9604
  298MOL0     H41111   0.086  11.564   8.629 -0.7870 -0.9597  1.6064
  298MOL0     H41112  -0.199  11.457   8.598 -0.3728 -0.5904 -0.3286
  298MOL0     H41113  -0.126  11.617   8.568  0.1263  0.0861 -1.4874
  298MOL0     H41114  -0.305  11.508   8.355  2.5368  3.4556 -4.4029
  298MOL0     H41115  -0.261  11.673   8.374 -0.8912 -0.3832 -0.4071
  298MOL0     H41116  -0.495  11.631   8.441 -1.1926  1.6222  1.8379
  298MOL0     H41117  -0.443  11.533   8.575  0.8336 -0.1567 -0.2364
  298MOL0     H41118  -0.503  11.791   8.598 -1.0001  0.3133 -2.3234
  298MOL0     H41119  -0.345  11.817   8.519  1.6635 -1.1889  0.3162
  298MOL0     H41120  -0.240  11.719   8.919  0.0374 -2.1013  0.2180
  298MOL0     H41121   0.042  11.279   8.310 -3.6623  1.0277  1.5505
  298MOL0     H41122   0.319  11.118   8.318 -0.1874 -1.9042 -1.1080
  298MOL0     H41123   0.258  11.037   8.465  1.3540 -0.9362 -1.5570
  298MOL0     H41124   0.148  11.058   8.336 -0.2175 -0.4797  0.8791
  299MOL0     O41125   0.066  11.310   0.923 -0.1311 -0.0007 -0.2527
  299MOL0     C41126  -0.024  11.230   0.930  0.7363 -0.0505 -0.8908
  299MOL0     O41127  -0.013  11.111   1.001 -0.1780  0.4563  0.4086
  299MOL0     C41128   0.114  11.081   1.040 -0.6991 -0.0563  0.2351
  299MOL0     C41129   0.152  11.096   1.173  0.0422 -0.2616  0.0788
  299MOL0     C41130   0.289  11.071   1.205 -0.3214  0.2534 -0.7979
  299MOL0     C41131   0.378  11.013   1.122 -0.7923 -0.4024 -0.3108
  299MOL0     O41132   0.503  11.003   1.171 -0.1939 -0.1637  0.2808
  299MOL0     C41133   0.609  11.021   1.064  0.2019  0.7994  0.1880
  299MOL0     C41134   0.715  11.107   1.135  0.3237 -0.4698 -0.1792
  299MOL0     C41135   0.840  11.104   1.052 -0.2941  1.4158 -0.1431
  299MOL0     C41136   0.951  11.190   1.118  0.2497  0.2511 -0.0740
  299MOL0     C41137   1.077  11.155   1.037 -0.4647  0.0550  0.7937
  299MOL0     C41138   1.195  11.222   1.107  0.4904  0.4968 -0.9336
  299MOL0     C41139   1.332  11.199   1.032 -0.1580  0.2025 -0.1942
  299MOL0     C41140   1.437  11.276   1.110 -1.1551 -0.4306 -0.1346
  299MOL0     N41141   1.485  11.180   1.211 -0.2304 -0.2384 -0.0753
  299MOL0     C41142   1.465  11.169   1.349  0.8796 -0.6167  0.1407
  299MOL0     C41143   1.560  11.084   1.389 -0.2114 -1.1822 -0.3035
  299MOL0     C41144   1.581  11.041   1.536  0.2690 -0.6891  0.6455
  299MOL0     C41145   1.731  11.007   1.565 -0.2527  0.2763 -0.9950
  299MOL0     C41146   1.751  11.007   1.717  0.5002 -0.7283 -0.0461
  299MOL0     C41147   1.680  10.891   1.792 -0.7977  0.0503  0.2980
  299MOL0     O41148   1.677  10.911   1.930  0.0684 -0.7153 -0.3276
  299MOL0     C41149   1.781  10.870   2.004 -0.2460 -0.5108  0.2802
  299MOL0     C41150   1.767  10.870   2.145 -1.0338  0.3076 -0.6711
  299MOL0     C41151   1.868  10.836   2.235 -0.3320  0.3988 -1.0165
  299MOL0     C41152   1.849  10.836   2.384 -0.2972 -0.2988 -0.7093
  299MOL0     C41153   1.993  10.799   2.183 -0.8466  0.3218  0.1793
  299MOL0     C41154   2.114  10.767   2.259 -0.1100 -0.6933 -0.0707
  299MOL0     O41155   2.203  10.685   2.194 -0.1236 -1.1033  0.0002
  299MOL0     C41156   2.322  10.657   2.264 -0.2893  0.2238  0.3717
  299MOL0     C41157   2.431  10.676   2.181  0.0440  0.4621 -0.0228
  299MOL0     C41158   2.552  10.624   2.215 -0.8795 -0.2820 -0.2577
  299MOL0     C41159   2.567  10.558   2.337  0.4354 -0.8096 -0.2506
  299MOL0     O41160   2.699  10.528   2.360 -0.5192  0.9372  0.2857
  299MOL0     C41161   2.734  10.459   2.478 -0.2728  0.1653  0.3980
  299MOL0     C41162   2.881  10.437   2.497 -0.1525 -0.0136 -0.5787
  299MOL0     C41163   2.949  10.402   2.358 -0.2942 -0.0591 -0.3255
  299MOL0     C41164   3.078  10.315   2.368 -0.3329  0.6099 -0.3911
  299MOL0     C41165   3.132  10.303   2.226  0.3534  0.4977  0.5864
  299MOL0     C41166   3.258  10.227   2.216  0.9231  0.3014 -0.4160
  299MOL0     C41167   3.298  10.221   2.067 -0.0821  0.5936  0.5324
  299MOL0     C41168   3.415  10.119   2.048  0.6656 -0.7902  0.8534
  299MOL0    Cl41169   3.573  10.167   2.111 -0.1097  0.2260  0.0213
  299MOL0     C41170   2.453  10.538   2.420 -0.0487 -0.1531 -0.7338
  299MOL0     C41171   2.333  10.588   2.386  0.5185 -0.1217  0.5930
  299MOL0     O41172   2.134  10.847   2.357 -0.2117  0.1465 -0.1753
  299MOL0     C41173   2.009  10.802   2.040  0.4125  1.4400 -0.4145
  299MOL0     C41174   1.908  10.844   1.954  0.4636 -0.0485  0.1218
  299MOL0     N41175   1.632  11.038   1.282  0.2067  0.2854  0.6486
  299MOL0     N41176   1.576  11.082   1.182 -0.6692  0.7527  0.6370
  299MOL0     C41177   0.336  10.988   0.993  0.5339 -0.3304 -0.4490
  299MOL0     C41178   0.200  11.022   0.951 -0.7700  0.1881  0.3398
  299MOL0     C41179  -0.150  11.268   0.850  0.0482  0.4777  0.0318
  299MOL0     C41180  -0.147  11.389   0.775 -0.7105 -0.5109  0.9338
  299MOL0     C41181  -0.253  11.419   0.688  0.2486  0.3531 -0.0274
  299MOL0     C41182  -0.373  11.347   0.688 -0.1188 -0.3473  0.3995
  299MOL0     O41183  -0.486  11.378   0.617 -0.1002 -0.3736  0.4816
  299MOL0     C41184  -0.481  11.392   0.474  0.1781  0.8633 -0.1691
  299MOL0     C41185  -0.532  11.265   0.414  0.7672  0.2946  0.1108
  299MOL0     C41186  -0.546  11.260   0.266  0.3404  0.3007  0.1038
  299MOL0     C41187  -0.527  11.122   0.202 -0.1470  0.3171  0.4979
  299MOL0     C41188  -0.615  11.115   0.084  0.8602 -0.1626  0.7874
  299MOL0     C41189  -0.670  11.117  -0.026 -0.5032  0.3430 -0.5705
  299MOL0     C41190  -0.369  11.231   0.755  0.3336  0.1036  0.5505
  299MOL0     C41191  -0.267  11.190   0.840  1.2989  0.3331  0.1080
  299MOL0     C41192  -0.288  11.054   0.909  0.3022 -0.5421 -0.8937
  299MOL0     H41193   0.080  11.123   1.250  1.9073  0.9791  1.4910
  299MOL0     H41194   0.316  11.086   1.310 -0.7526  0.0816 -0.6594
  299MOL0     H41195   0.578  11.078   0.976  1.5409  0.8195 -0.3052
  299MOL0     H41196   0.648  10.933   1.012 -1.0513  1.9236 -2.8371
  299MOL0     H41197   0.676  11.207   1.155  0.3160 -0.5925  0.4447
  299MOL0     H41198   0.729  11.053   1.230 -0.1615  0.0473  0.1929
  299MOL0     H41199   0.870  10.999   1.041  1.2256  1.7901  0.1263
  299MOL0     H41200   0.813  11.135   0.950  2.3891 -0.0756 -1.4196
  299MOL0     H41201   0.929  11.297   1.123  1.1715  0.4169  0.6297
  299MOL0     H41202   0.968  11.153   1.220  2.8701  1.1604 -0.1129
  299MOL0     H41203   1.068  11.192   0.935 -1.4701  1.6382  1.4101
  299MOL0     H41204   1.105  11.050   1.050  1.3277  0.2974 -0.8023
  299MOL0     H41205   1.176  11.329   1.123 -0.5929 -0.0067  1.5917
  299MOL0     H41206   1.190  11.186   1.210  1.0299 -0.0702 -1.0986
  299MOL0     H41207   1.323  11.244   0.933  3.1839  2.7569  0.4703
  299MOL0     H41208   1.356  11.093   1.020  1.7182  0.6324 -0.4848
  299MOL0     H41209   1.523  11.314   1.054 -1.0401  1.6542  1.3733
  299MOL0     H41210   1.395  11.363   1.160  0.7286  0.4599 -0.0316
  299MOL0     H41211   1.386  11.228   1.394 -0.8495 -1.9635 -0.9732
  299MOL0     H41212   1.517  10.955   1.557  0.7087 -0.5337  2.7793
  299MOL0     H41213   1.543  11.120   1.601  0.4859 -1.3518  1.5972
  299MOL0     H41214   1.753  10.910   1.518 -0.4582  0.0937 -0.7143
  299MOL0     H41215   1.799  11.083   1.524 -0.1164  0.4299 -0.4855
  299MOL0     H41216   1.858  10.991   1.731  0.1376 -3.4889  0.0142
  299MOL0     H41217   1.710  11.102   1.754  0.5042  0.3610 -2.6153
  299MOL0     H41218   1.580  10.872   1.753 -0.3854 -1.8430  0.0578
  299MOL0     H41219   1.728  10.794   1.771 -1.4378 -0.3901  0.8352
  299MOL0     H41220   1.674  10.902   2.192 -0.5535 -1.0805  1.3427
  299MOL0     H41221   1.910  10.918   2.424  1.5158 -1.6777 -0.5559
  299MOL0     H41222   1.892  10.747   2.430  1.8066  0.3682 -1.2874
  299MOL0     H41223   1.744  10.857   2.408  0.0498 -0.1869  0.8346
  299MOL0     H41224   2.418  10.722   2.084 -2.5658  3.4198  1.5454
  299MOL0     H41225   2.638  10.634   2.149  0.4488 -0.6608  1.3374
  299MOL0     H41226   2.697  10.519   2.562  1.5906  2.2075 -0.1627
  299MOL0     H41227   2.692  10.359   2.495  0.2079 -0.6274 -2.6375
  299MOL0     H41228   2.923  10.532   2.532  1.2534 -0.4768 -0.9625
  299MOL0     H41229   2.901  10.356   2.568 -0.2024  0.3263 -0.1709
  299MOL0     H41230   2.983  10.492   2.307  1.1951  1.9828  3.8062
  299MOL0     H41231   2.881  10.341   2.298  1.1395 -1.4361 -0.6075
  299MOL0     H41232   3.052  10.216   2.407  1.4210 -0.2044 -1.1681
  299MOL0     H41233   3.137  10.367   2.444 -1.5539 -0.1093  1.0980
  299MOL0     H41234   3.060  10.250   2.162  2.0475 -0.7327 -0.3983
  299MOL0     H41235   3.131  10.404   2.184 -1.8300  0.9346  1.5391
  299MOL0     H41236   3.241  10.124   2.248  1.8234  0.2324 -0.1469
  299MOL0     H41237   3.343  10.265   2.273  1.5547  0.5546 -1.4985
  299MOL0     H41238   3.321  10.316   2.018 -0.0970  0.6331  0.6026
  299MOL0     H41239   3.214  10.173   2.015 -0.6868  0.2043  1.8312
  299MOL0     H41240   3.427  10.109   1.940 -2.2983 -0.9684  0.4619
  299MOL0     H41241   3.386  10.017   2.078 -1.3748 -1.4940 -2.8504
  299MOL0     H41242   2.447  10.486   2.515 -1.0240 -1.1870 -1.3461
  299MOL0     H41243   2.248  10.574   2.453  0.9218  0.6203  1.2768
  299MOL0     H41244   2.100  10.760   1.999  0.1914 -1.7213  1.9320
  299MOL0     H41245   1.932  10.846   1.848  2.5061  1.8746  0.5424
  299MOL0     H41246   0.397  10.930   0.924  0.4694 -0.2030 -0.6136
  299MOL0     H41247   0.169  10.998   0.850 -1.2394 -1.3933  0.8389
  299MOL0     H41248  -0.057  11.446   0.754 -0.6916 -1.9494 -4.6622
  299MOL0     H41249  -0.249  11.502   0.619 -0.1281  0.4911  0.1189
  299MOL0     H41250  -0.551  11.472   0.447  1.3426  1.2949 -2.0508
  299MOL0     H41251  -0.384  11.420   0.434 -0.7615  2.3668 -1.5254
  299MOL0     H41252  -0.622  11.228   0.464 -0.9523  0.3859 -2.6837
  299MOL0     H41253  -0.456  11.191   0.441  1.3352  0.9654  0.3729
  299MOL0     H41254  -0.646  11.297   0.245  2.0541  4.1601 -2.3115
  299MOL0     H41255  -0.470  11.320   0.216 -0.2717 -0.6088 -2.0279
  299MOL0     H41256  -0.562  11.041   0.267 -3.0069  1.0708  0.0386
  299MOL0     H41257  -0.422  11.104   0.177 -0.6130 -2.6357  0.3526
  299MOL0     H41258  -0.718  11.107  -0.121 -0.0007 -0.8031 -0.7234
  299MOL0     H41259  -0.453  11.162   0.746  2.8163 -2.9394 -2.1019
  299MOL0     H41260  -0.385  11.006   0.902  0.4363 -1.1122  0.8074
  299MOL0     H41261  -0.206  10.994   0.868  1.6129 -1.4182  2.6756
  299MOL0     H41262  -0.262  11.077   1.013 -2.3313  0.0268 -0.3113
  300MOL0     O41263   5.676  11.146   4.882 -0.5988  0.6053  0.0669
  300MOL0     C41264   5.609  11.058   4.828 -0.1849 -0.5905 -0.4182
  300MOL0     O41265   5.653  10.930   4.804  0.4482  0.0587  0.0908
  300MOL0     C41266   5.751  10.873   4.884 -0.5545  0.0247  0.0241
  300MOL0     C41267   5.821  10.768   4.837 -0.0387 -0.5866  0.0765
  300MOL0     C41268   5.932  10.721   4.908  0.0856  0.6217  0.1206
  300MOL0     C41269   5.971  10.766   5.033  1.0309 -0.1075  0.0343
  300MOL0     O41270   6.095  10.718   5.086  0.9625 -0.1005 -0.0604
  300MOL0     C41271   6.152  10.781   5.202  0.7151  0.0187  0.0971
  300MOL0     C41272   6.296  10.733   5.205 -0.5796  0.5312  0.4969
  300MOL0     C41273   6.366  10.761   5.077 -0.2692 -0.6269 -0.7490
  300MOL0     C41274   6.512  10.715   5.088 -1.0824 -0.8402 -0.1538
  300MOL0     C41275   6.597  10.756   4.973 -0.2223  0.0201  0.4913
  300MOL0     C41276   6.748  10.732   4.993 -0.3373 -0.5809  0.6742
  300MOL0     C41277   6.836  10.790   4.877 -0.0006  0.1959 -0.3139
  300MOL0     C41278   6.977  10.720   4.888 -0.3361 -0.0249  0.5958
  300MOL0     N41279   7.075  10.774   4.791  1.2393  0.1769  0.6041
  300MOL0     C41280   7.168  10.874   4.815  0.8467  0.4357 -0.5066
  300MOL0     C41281   7.199  10.935   4.697  0.3544  0.2784 -1.2368
  300MOL0     C41282   7.300  11.048   4.682 -0.4248 -0.3857  0.5823
  300MOL0     C41283   7.252  11.176   4.744  0.0751 -0.0376  0.6739
  300MOL0     C41284   7.353  11.289   4.735 -0.5498  0.3860 -0.0618
  300MOL0     C41285   7.385  11.326   4.588  0.0444 -0.3815  0.5036
  300MOL0     O41286   7.483  11.240   4.514 -0.5182 -0.7565 -0.2462
  300MOL0     C41287   7.616  11.247   4.544  0.3802  0.2137 -0.3225
  300MOL0     C41288   7.677  11.321   4.646 -0.8261  0.3729 -0.9748
  300MOL0     C41289   7.824  11.330   4.660 -0.0160 -0.0074 -0.1671
  300MOL0     C41290   7.869  11.415   4.778  0.3971 -0.6731 -0.1019
  300MOL0     C41291   7.908  11.262   4.563  0.2577 -0.2752  0.5763
  300MOL0     C41292   8.055  11.278   4.556  0.1887  0.1761 -0.6312
  300MOL0     O41293   8.119  11.232   4.448 -0.1664 -0.4619  0.2559
  300MOL0     C41294   8.254  11.266   4.439  0.0104 -0.0525  0.4169
  300MOL0     C41295   8.354  11.169   4.460  0.8098 -0.2530 -0.1390
  300MOL0     C41296   8.489  11.196   4.446 -0.0346  0.6065  0.1470
  300MOL0     C41297   8.530  11.327   4.418  0.2445 -0.7362  0.0747
  300MOL0     O41298   8.661  11.358   4.404 -0.1781  0.4493  0.6720
  300MOL0     C41299   8.721  11.451   4.504 -0.1846 -0.0843  0.0184
  300MOL0     C41300   8.875  11.461   4.479 -0.0539 -0.4501 -0.6574
  300MOL0     C41301   8.939  11.325   4.523  0.5597 -0.6897  0.3514
  300MOL0     C41302   9.093  11.336   4.509  0.2469 -0.7194 -0.1103
  300MOL0     C41303   9.156  11.200   4.544 -1.1350  0.4931  0.1016
  300MOL0     C41304   9.299  11.220   4.596  0.7622  0.4784  0.2204
  300MOL0     C41305   9.394  11.240   4.478 -0.4092  0.7343 -0.0670
  300MOL0     C41306   9.515  11.157   4.493 -1.1501  0.8699 -0.1745
  300MOL0    Cl41307   9.457  10.996   4.441  0.0309 -0.1882 -0.2492
  300MOL0     C41308   8.435  11.429   4.411 -0.0584  0.1829  0.8484
  300MOL0     C41309   8.297  11.400   4.417 -0.9079  0.0932  0.2283
  300MOL0     O41310   8.100  11.330   4.655 -0.2279  0.2715  0.6976
  300MOL0     C41311   7.844  11.165   4.476  0.9913  0.6916  0.0672
  300MOL0     C41312   7.700  11.168   4.474  1.0395 -0.1737 -0.7108
  300MOL0     N41313   7.117  10.880   4.598  0.1412 -0.2054  0.4167
  300MOL0     N41314   7.046  10.789   4.656  0.3235  0.1623  0.3501
  300MOL0     C41315   5.884  10.867   5.097 -0.9704 -0.4498  0.7417
  300MOL0     C41316   5.773  10.911   5.024 -0.7206 -0.2874  0.2457
  300MOL0     C41317   5.481  11.097   4.778 -0.2716 -0.7207 -0.9628
  300MOL0     C41318   5.458  11.228   4.736  0.0212 -0.0378  0.4032
  300MOL0     C41319   5.330  11.282   4.702  0.2817 -0.5390  0.5408
  300MOL0     C41320   5.223  11.187   4.683 -0.4456 -0.4483 -0.8995
  300MOL0     O41321   5.111  11.223   4.616  0.8421 -0.8596  0.0533
  300MOL0     C41322   5.093  11.364   4.591  0.7338  0.3287 -0.4282
  300MOL0     C41323   4.965  11.396   4.501  1.0474 -0.6336 -0.0582
  300MOL0     C41324   4.839  11.392   4.587 -0.0205  0.9296  0.0473
  300MOL0     C41325   4.780  11.247   4.596  1.6192 -0.5810  0.2662
  300MOL0     C41326   4.705  11.195   4.474 -0.6729 -0.4308  0.1512
  300MOL0     C41327   4.631  11.161   4.385 -0.4628  0.0343 -0.6562
  300MOL0     C41328   5.252  11.051   4.714  0.8353 -0.3098 -0.9217
  300MOL0     C41329   5.371  11.007   4.766 -0.2204  0.2102 -0.3209
  300MOL0     C41330   5.368  10.864   4.830  0.5305 -0.0581 -0.0510
  300MOL0     H41331   5.810  10.757   4.730  2.3081  1.4650 -0.4670
  300MOL0     H41332   5.988  10.639   4.862  1.0724  1.5468 -0.3687
  300MOL0     H41333   6.092  10.757   5.290 -0.4748 -0.1926 -0.7494
  300MOL0     H41334   6.165  10.889   5.190 -0.6355  0.1588 -0.2405
  300MOL0     H41335   6.352  10.784   5.283 -0.0171  1.9008 -0.7509
  300MOL0     H41336   6.286  10.627   5.232 -1.3980  0.8530  1.5263
  300MOL0     H41337   6.310  10.714   4.996 -2.6064  0.0726  0.3866
  300MOL0     H41338   6.357  10.870   5.072 -3.3492 -0.6912  0.7927
  300MOL0     H41339   6.550  10.765   5.178 -1.0586  0.9731 -1.1322
  300MOL0     H41340   6.511  10.606   5.101 -3.4445 -0.8490 -0.0359
  300MOL0     H41341   6.578  10.864   4.964  1.3214  0.3658  1.0498
  300MOL0     H41342   6.556  10.720   4.878  1.8889  0.8884 -0.8142
  300MOL0     H41343   6.773  10.783   5.087 -2.3381  1.2060  0.3310
  300MOL0     H41344   6.778  10.627   4.998  0.7731 -0.3418 -0.4308
  300MOL0     H41345   6.856  10.897   4.890 -1.5528  0.3307  1.2802
  300MOL0     H41346   6.791  10.769   4.779  0.8669  0.5610 -0.8110
  300MOL0     H41347   7.021  10.733   4.987  0.7610  0.4551  0.0751
  300MOL0     H41348   6.962  10.615   4.864  1.6808  0.2368 -2.4229
  300MOL0     H41349   7.208  10.904   4.911 -1.4595  0.8279  0.3951
  300MOL0     H41350   7.315  11.059   4.574  1.8829 -1.6554  0.7102
  300MOL0     H41351   7.395  11.018   4.726  0.7518  2.2235  0.0213
  300MOL0     H41352   7.162  11.197   4.687  0.8042 -0.4533 -0.6691
  300MOL0     H41353   7.220  11.155   4.847  1.5392  0.5097  1.2754
  300MOL0     H41354   7.312  11.377   4.785 -0.3047  1.6639 -1.9781
  300MOL0     H41355   7.447  11.258   4.782 -0.7075 -1.6099 -0.9635
  300MOL0     H41356   7.289  11.346   4.541 -0.0250 -1.4786  0.1526
  300MOL0     H41357   7.431  11.425   4.581 -2.5484  1.0311  2.0435
  300MOL0     H41358   7.625  11.367   4.729 -2.0686 -2.0105 -0.3297
  300MOL0     H41359   7.946  11.371   4.843  0.1713  0.5874  1.0537
  300MOL0     H41360   7.788  11.432   4.849  2.2489 -1.5127  2.3388
  300MOL0     H41361   7.908  11.513   4.749  2.8893 -0.5195  3.2078
  300MOL0     H41362   8.326  11.067   4.484  1.2433  0.2273  2.8130
  300MOL0     H41363   8.562  11.116   4.454 -1.2769 -0.4775  0.9720
  300MOL0     H41364   8.679  11.551   4.493 -0.1344 -0.2776 -2.5704
  300MOL0     H41365   8.718  11.408   4.604  0.4510 -1.0789 -0.3674
  300MOL0     H41366   8.906  11.493   4.379  0.5174 -1.4461 -0.8154
  300MOL0     H41367   8.917  11.535   4.548 -0.4244 -1.0453  0.2272
  300MOL0     H41368   8.904  11.244   4.460  1.7916 -2.2908  1.6080
  300MOL0     H41369   8.900  11.303   4.623 -4.1332 -1.1293 -1.3436
  300MOL0     H41370   9.127  11.415   4.577 -0.6006 -1.4995  1.2776
  300MOL0     H41371   9.112  11.365   4.405 -1.0331  0.7624  0.0215
  300MOL0     H41372   9.096  11.143   4.616 -2.7863 -0.3264 -1.8569
  300MOL0     H41373   9.162  11.139   4.454  1.3078 -1.1103  1.2335
  300MOL0     H41374   9.324  11.135   4.660 -0.0812  0.5474  0.6649
  300MOL0     H41375   9.301  11.303   4.667  0.3288 -0.2123  1.0551
  300MOL0     H41376   9.420  11.346   4.472  0.1763  0.6971  1.4626
  300MOL0     H41377   9.346  11.212   4.383  1.6077  1.0484 -1.2276
  300MOL0     H41378   9.556  11.160   4.595 -1.3712 -0.7596 -0.0217
  300MOL0     H41379   9.602  11.196   4.439  0.5427  0.2956  1.9919
  300MOL0     H41380   8.459  11.531   4.385 -1.4395  0.4210  0.4337
  300MOL0     H41381   8.224  11.480   4.416 -1.5820 -0.4004  2.7854
  300MOL0     H41382   7.907  11.115   4.403  0.8822  0.8551 -0.1399
  300MOL0     H41383   7.649  11.115   4.395 -1.0869  0.6786  0.0201
  300MOL0     H41384   5.918  10.912   5.190 -0.9488 -1.1514  1.0884
  300MOL0     H41385   5.702  10.983   5.064 -1.2995 -0.7384  0.0440
  300MOL0     H41386   5.541  11.299   4.740 -1.7850  2.2626 -0.4474
  300MOL0     H41387   5.321  11.389   4.684 -0.2074 -0.4624  1.1796
  300MOL0     H41388   5.098  11.416   4.687  0.0857 -0.0272 -0.1963
  300MOL0     H41389   5.162  11.407   4.517 -1.3494  1.3447 -1.9016
  300MOL0     H41390   4.943  11.329   4.417  1.1682 -1.3367  0.4642
  300MOL0     H41391   4.969  11.491   4.448  1.6470 -0.6429 -0.0372
  300MOL0     H41392   4.867  11.429   4.686  0.2281  2.1420 -0.4498
  300MOL0     H41393   4.764  11.456   4.539 -2.3649 -0.5751  1.5064
  300MOL0     H41394   4.711  11.238   4.681 -1.2456  1.4809 -1.6919
  300MOL0     H41395   4.853  11.170   4.625 -2.2804 -4.1758  1.6464
  300MOL0     H41396   4.556  11.141   4.311 -1.5270 -0.8337  0.6056
  300MOL0     H41397   5.168  10.986   4.689  1.4225 -1.7549  0.6593
  300MOL0     H41398   5.266  10.829   4.850  0.4728  0.4089  0.4968
  300MOL0     H41399   5.431  10.795   4.773  1.0050  0.8435 -0.6454
  300MOL0     H41400   5.406  10.860   4.933 -0.0138  0.7731  0.1905
  301MOL0     O41401   5.133   0.319   1.452 -0.6081 -0.7425  0.1282
  301MOL0     C41402   5.174   0.227   1.381 -0.2203  0.7243 -0.8722
  301MOL0     O41403   5.302   0.201   1.355 -0.1054 -0.5732  0.4878
  301MOL0     C41404   5.395   0.290   1.399 -0.5147  0.8239  0.0313
  301MOL0     C41405   5.443   0.295   1.533  0.2555 -0.4361 -0.6454
  301MOL0     C41406   5.550   0.387   1.560 -0.4535 -0.0230  0.0891
  301MOL0     C41407   5.597   0.485   1.467 -0.6816 -0.2662  0.8000
  301MOL0     O41408   5.705   0.570   1.498  0.0288 -0.1534 -0.0367
  301MOL0     C41409   5.809   0.535   1.596  0.0510 -1.1245 -0.2083
  301MOL0     C41410   5.886   0.421   1.537 -0.2894  0.4058  0.4043
  301MOL0     C41411   6.024   0.399   1.610  0.0878 -0.4020  0.0384
  301MOL0     C41412   6.132   0.455   1.504 -0.7629 -0.2348  0.0694
  301MOL0     C41413   6.271   0.442   1.551 -0.5773 -0.0490 -0.0236
  301MOL0     C41414   6.376   0.511   1.471 -1.0322 -0.6400  0.6234
  301MOL0     C41415   6.512   0.458   1.509  0.4062  0.8839  0.1244
  301MOL0     C41416   6.631   0.546   1.474  0.6548 -0.1836 -0.2619
  301MOL0     N41417   6.635   0.584   1.337 -0.0670 -0.2851  0.0339
  301MOL0     C41418   6.649   0.515   1.219  0.2670  0.3679  0.2709
  301MOL0     C41419   6.685   0.606   1.124  0.6918  0.4378 -0.8263
  301MOL0     C41420   6.725   0.593   0.976  0.2837  0.3539 -0.0328
  301MOL0     C41421   6.875   0.587   0.968 -0.6748 -0.1012 -0.1794
  301MOL0     C41422   6.925   0.580   0.828 -0.1736  0.5759  0.2457
  301MOL0     C41423   7.069   0.624   0.820 -0.4640 -0.5212 -0.2805
  301MOL0     O41424   7.117   0.609   0.686 -0.2208 -0.0427  0.7063
  301MOL0     C41425   7.252   0.625   0.666 -1.0309  0.6719  0.3175
  301MOL0     C41426   7.309   0.550   0.572  0.3531  0.9037  0.8375
  301MOL0     C41427   7.440   0.564   0.514  0.6627  0.4450 -0.2764
  301MOL0     C41428   7.478   0.459   0.415 -0.3991 -0.1557  0.0899
  301MOL0     C41429   7.514   0.668   0.577 -0.3729  0.5202 -0.1964
  301MOL0     C41430   7.660   0.704   0.549  0.0929  0.0354 -0.6073
  301MOL0     O41431   7.726   0.766   0.649  0.1868  0.0160 -0.0728
  301MOL0     C41432   7.856   0.808   0.628  0.3762  0.0077  0.6441
  301MOL0     C41433   7.895   0.937   0.632 -0.2133 -0.2214 -0.2108
  301MOL0     C41434   8.031   0.977   0.639 -1.0324  0.4567 -0.1504
  301MOL0     C41435   8.132   0.877   0.645 -0.3965  0.0265 -0.6043
  301MOL0     O41436   8.268   0.889   0.654 -0.1565  0.2126  0.1531
  301MOL0     C41437   8.323   0.977   0.750  1.0815  0.2988 -0.5055
  301MOL0     C41438   8.471   0.963   0.760 -0.0108 -0.1153 -0.1206
  301MOL0     C41439   8.545   1.004   0.635 -0.2855 -0.1605  0.5296
  301MOL0     C41440   8.699   0.997   0.652 -0.1174 -0.0180 -0.5095
  301MOL0     C41441   8.767   1.047   0.526  0.0903 -0.2845 -0.1978
  301MOL0     C41442   8.929   1.045   0.530 -0.3997 -0.0221  0.1494
  301MOL0     C41443   8.981   1.171   0.607  0.3127  0.2825 -0.9045
  301MOL0     C41444   9.132   1.158   0.631  0.2655  0.0973 -0.3965
  301MOL0    Cl41445   9.192   1.009   0.712 -0.0857  0.4511 -0.2997
  301MOL0     C41446   8.094   0.743   0.645  0.4253  1.2406 -0.1288
  301MOL0     C41447   7.957   0.713   0.642  0.0173 -0.3531  0.1395
  301MOL0     O41448   7.708   0.678   0.436 -0.2073  0.1822 -0.4278
  301MOL0     C41449   7.462   0.737   0.685  0.4190  0.2277  0.0307
  301MOL0     C41450   7.338   0.705   0.736 -0.3694 -0.2217  0.6141
  301MOL0     N41451   6.702   0.728   1.184  0.3006 -0.2136 -0.8586
  301MOL0     N41452   6.662   0.714   1.305  0.1389  0.6961 -1.0190
  301MOL0     C41453   5.533   0.480   1.348  0.3970  0.3215  0.4519
  301MOL0     C41454   5.438   0.382   1.307 -0.5379 -1.0496 -0.1721
  301MOL0     C41455   5.073   0.138   1.325 -0.3507  0.0921 -0.4665
  301MOL0     C41456   4.976   0.094   1.411  0.0686  0.2204 -0.4493
  301MOL0     C41457   4.880  -0.009   1.367 -0.4904  0.9238 -0.0419
  301MOL0     C41458   4.893  -0.066   1.243  0.2474 -0.0792  0.1623
  301MOL0     O41459   4.801  -0.174   1.225  0.6016 -0.2328  0.1997
  301MOL0     C41460   4.809  -0.242   1.108 -0.0350 -0.0313 -0.3882
  301MOL0     C41461   4.728  -0.369   1.135 -1.0309  0.1313  0.4179
  301MOL0     C41462   4.793  -0.473   1.223 -0.3850  0.9618  0.0199
  301MOL0     C41463   4.702  -0.594   1.268 -0.8490  0.5995 -0.0719
  301MOL0     C41464   4.649  -0.674   1.154 -0.5968 -0.1779 -0.4586
  301MOL0     C41465   4.606  -0.740   1.057  0.5094 -0.7096  0.2855
  301MOL0     C41466   4.988  -0.018   1.154  0.5333  0.4789  0.5220
  301MOL0     C41467   5.080   0.085   1.194  0.2583 -0.3198 -0.0133
  301MOL0     C41468   5.192   0.120   1.097  0.6805  0.5107 -0.0754
  301MOL0     H41469   5.391   0.230   1.602 -0.6623 -1.6467 -2.3873
  301MOL0     H41470   5.591   0.385   1.661  0.3107  0.0734 -0.2138
  301MOL0     H41471   5.768   0.534   1.697 -1.0632  2.5525 -0.4626
  301MOL0     H41472   5.866   0.628   1.593 -3.2290  1.0714  0.4558
  301MOL0     H41473   5.817   0.346   1.576 -0.4475  1.0286  1.3623
  301MOL0     H41474   5.890   0.410   1.429 -0.7224 -2.1544  0.5979
  301MOL0     H41475   6.028   0.449   1.707 -0.1362 -2.9578  1.4290
  301MOL0     H41476   6.038   0.293   1.630  1.1555  0.0142  1.6798
  301MOL0     H41477   6.119   0.395   1.414 -0.1101 -2.2169  1.2404
  301MOL0     H41478   6.111   0.560   1.481  0.1337  0.5302  2.4632
  301MOL0     H41479   6.297   0.336   1.544  1.1964  0.4706 -2.4648
  301MOL0     H41480   6.276   0.461   1.659 -1.0377  0.6780 -0.1262
  301MOL0     H41481   6.355   0.514   1.364  2.7157  3.6171 -0.3271
  301MOL0     H41482   6.375   0.616   1.502  1.4456 -1.1292  2.7973
  301MOL0     H41483   6.520   0.361   1.459 -2.6521  1.1811 -1.1331
  301MOL0     H41484   6.519   0.458   1.618  2.1027 -0.9095  0.0859
  301MOL0     H41485   6.635   0.633   1.540  2.2010 -1.0731  0.8650
  301MOL0     H41486   6.718   0.482   1.489  0.7962  0.3230  1.2238
  301MOL0     H41487   6.635   0.407   1.210 -2.5371  0.3337  3.1875
  301MOL0     H41488   6.696   0.682   0.919  0.6301  1.0218  0.8061
  301MOL0     H41489   6.685   0.503   0.929  0.6905 -0.2822  0.8169
  301MOL0     H41490   6.920   0.682   1.000 -0.6081 -0.0328 -0.4761
  301MOL0     H41491   6.917   0.502   1.023  0.7862 -0.0836 -1.1920
  301MOL0     H41492   6.931   0.474   0.801 -0.6809  0.4526  0.6052
  301MOL0     H41493   6.864   0.638   0.758 -0.2228  0.0472 -0.1510
  301MOL0     H41494   7.083   0.726   0.858 -1.2617 -1.0788  1.6773
  301MOL0     H41495   7.128   0.563   0.889  2.3288  0.8143 -1.3137
  301MOL0     H41496   7.250   0.477   0.517 -1.1791  0.7573  2.5995
  301MOL0     H41497   7.439   0.359   0.439 -1.8911  0.5310  0.6209
  301MOL0     H41498   7.587   0.454   0.406 -0.3288 -0.8532  1.1325
  301MOL0     H41499   7.441   0.493   0.318  0.7532  1.9848  0.3369
  301MOL0     H41500   7.823   1.017   0.618 -1.3912 -1.4808 -1.5787
  301MOL0     H41501   8.057   1.082   0.623  0.4443  0.2617  0.8152
  301MOL0     H41502   8.285   1.079   0.743 -3.7616 -1.0324  1.8165
  301MOL0     H41503   8.286   0.938   0.845 -1.0187  1.5762 -0.7254
  301MOL0     H41504   8.508   1.020   0.846  0.9514 -1.3138  0.2842
  301MOL0     H41505   8.494   0.857   0.778 -1.5582 -0.8157 -1.9819
  301MOL0     H41506   8.510   1.103   0.607  1.0428 -0.2418 -1.6397
  301MOL0     H41507   8.522   0.924   0.564  2.8175 -1.4187  0.7663
  301MOL0     H41508   8.730   0.895   0.671 -0.9089  0.2360  2.7876
  301MOL0     H41509   8.725   1.057   0.740  3.9511 -1.1425 -0.7796
  301MOL0     H41510   8.741   0.990   0.436  0.9710  2.3335 -2.2795
  301MOL0     H41511   8.723   1.143   0.498  0.2199  0.0255  0.6293
  301MOL0     H41512   8.971   1.049   0.429  2.6679 -4.8113  0.8874
  301MOL0     H41513   8.957   0.952   0.582 -0.6103 -0.4131 -0.4307
  301MOL0     H41514   8.934   1.182   0.706 -0.9780  0.3207 -1.5051
  301MOL0     H41515   8.961   1.262   0.550 -3.4536 -0.0492 -0.4020
  301MOL0     H41516   9.142   1.245   0.698 -2.1541 -0.8953  1.3762
  301MOL0     H41517   9.187   1.178   0.538 -0.8585 -2.1817 -1.6165
  301MOL0     H41518   8.163   0.660   0.661 -1.2123 -0.0688  0.5014
  301MOL0     H41519   7.929   0.610   0.658 -0.1123  0.0285  2.7905
  301MOL0     H41520   7.517   0.811   0.743  3.2480 -1.0055 -0.9061
  301MOL0     H41521   7.293   0.771   0.811 -1.2675  1.8028 -1.5727
  301MOL0     H41522   5.563   0.567   1.292  0.4240  0.7134  1.0665
  301MOL0     H41523   5.388   0.388   1.210 -0.9807 -1.0776  0.0506
  301MOL0     H41524   4.976   0.137   1.511  1.3352  1.3372 -0.8933
  301MOL0     H41525   4.806  -0.036   1.441  1.5581  1.8070  2.4946
  301MOL0     H41526   4.769  -0.189   1.021 -1.3409 -1.5734 -0.7680
  301MOL0     H41527   4.910  -0.280   1.089  0.6525  1.6456 -0.2902
  301MOL0     H41528   4.701  -0.417   1.040 -2.4575  0.9883  0.3693
  301MOL0     H41529   4.639  -0.328   1.184 -0.5864 -0.1032  1.4610
  301MOL0     H41530   4.887  -0.506   1.178 -0.6157 -2.0686  1.5489
  301MOL0     H41531   4.823  -0.422   1.315  0.1786  1.4589 -0.4296
  301MOL0     H41532   4.620  -0.551   1.327 -0.7054  0.9020 -0.0918
  301MOL0     H41533   4.759  -0.649   1.344  1.1891  1.0251 -1.2074
  301MOL0     H41534   4.561  -0.803   0.983 -2.6661  1.0108  0.5702
  301MOL0     H41535   5.016  -0.070   1.063 -0.9599  1.8364 -0.7834
  301MOL0     H41536   5.281   0.057   1.095  0.4735  0.2284 -0.7122
  301MOL0     H41537   5.130   0.116   1.007 -3.5496 -1.2223  2.5707
  301MOL0     H41538   5.223   0.224   1.107  0.9219  0.4279  0.0577
  302MOL0     O41539   3.468   6.772   9.971  0.1863  0.4494 -0.8445
  302MOL0     C41540   3.401   6.779  10.071 -0.3128  1.0414 -0.1774
  302MOL0     O41541   3.453   6.797  10.200  0.0033  0.0317  0.2144
  302MOL0     C41542   3.586   6.799  10.232 -0.1817 -0.7412  0.0221
  302MOL0     C41543   3.623   6.888  10.336 -0.4218 -0.1130 -0.8901
  302MOL0     C41544   3.753   6.884  10.382 -1.1728 -0.2252 -0.2403
  302MOL0     C41545   3.856   6.803  10.324 -0.0831  0.4505 -0.1779
  302MOL0     O41546   3.986   6.788  10.381  0.1440  0.1764 -0.1020
  302MOL0     C41547   4.037   6.898  10.464  0.3696  0.7937  0.7052
  302MOL0     C41548   4.187   6.863  10.498  0.0096  0.5736  0.1235
  302MOL0     C41549   4.205   6.725  10.561  0.2348  0.5060  0.3347
  302MOL0     C41550   4.348   6.689  10.586  0.4945 -0.0056 -0.6144
  302MOL0     C41551   4.378   6.548  10.642  0.8853 -0.2845  0.2934
  302MOL0     C41552   4.527   6.529  10.653 -0.1261  0.2306  0.8394
  302MOL0     C41553   4.556   6.373  10.672  0.4634 -0.4880 -0.1971
  302MOL0     C41554   4.666   6.345  10.777 -0.0524 -0.0733 -0.6676
  302MOL0     N41555   4.807   6.367  10.736  0.1357 -0.1164  0.0306
  302MOL0     C41556   4.888   6.439  10.813 -0.3495  0.2684  0.1211
  302MOL0     C41557   5.020   6.425  10.758 -0.2311  1.2758  0.3346
  302MOL0     C41558   5.145   6.490  10.808  0.5131  0.5041 -0.9096
  302MOL0     C41559   5.231   6.544  10.688 -0.0133  0.8299  0.3393
  302MOL0     C41560   5.364   6.617  10.727  0.4963 -0.0261  0.2889
  302MOL0     C41561   5.433   6.656  10.600  0.0519  0.0565  0.5076
  302MOL0     O41562   5.570   6.670  10.640  0.5019 -0.0628 -0.0596
  302MOL0     C41563   5.672   6.718  10.556 -0.4496  0.0431  0.2225
  302MOL0     C41564   5.652   6.784  10.437  0.3288  0.2677 -0.1976
  302MOL0     C41565   5.753   6.838  10.352 -0.3968  0.1528  0.1604
  302MOL0     C41566   5.709   6.879  10.222 -0.3892 -0.4918  0.5309
  302MOL0     C41567   5.887   6.826  10.395  1.0013 -0.0135  0.5090
  302MOL0     C41568   6.004   6.860  10.306 -0.2263  0.0692 -0.3734
  302MOL0     O41569   6.124   6.813  10.360  0.2882 -0.2613 -0.9624
  302MOL0     C41570   6.251   6.835  10.307 -0.0327  0.0121 -0.1666
  302MOL0     C41571   6.356   6.862  10.390  0.6443  0.4116 -0.0875
  302MOL0     C41572   6.487   6.875  10.346  0.6722  0.1970  0.3450
  302MOL0     C41573   6.507   6.882  10.203  0.3341  0.2725 -0.6966
  302MOL0     O41574   6.630   6.891  10.142  0.3675  0.0606 -0.1568
  302MOL0     C41575   6.750   6.898  10.230 -0.3487  1.0922 -0.3188
  302MOL0     C41576   6.882   6.873  10.168  0.1107  0.4738  0.1470
  302MOL0     C41577   6.930   6.973  10.069 -0.1114 -0.5737 -0.1172
  302MOL0     C41578   6.888   6.958   9.929 -0.6762  0.4548  0.6390
  302MOL0     C41579   6.940   7.083   9.850 -0.1796 -0.3276  0.0540
  302MOL0     C41580   6.882   7.090   9.711  0.3830  0.6141 -0.2514
  302MOL0     C41581   6.953   7.186   9.620  0.6172  0.3532  0.8744
  302MOL0     C41582   6.937   7.332   9.671  0.8483  0.0238 -0.3031
  302MOL0    Cl41583   7.026   7.453   9.578  0.3035  0.4322  0.2598
  302MOL0     C41584   6.402   6.855  10.115  0.6404 -0.2058 -0.5045
  302MOL0     C41585   6.278   6.829  10.171 -0.4996  0.4518  0.4699
  302MOL0     O41586   5.988   6.918  10.199  0.2923 -0.0383 -0.6115
  302MOL0     C41587   5.903   6.777  10.524  0.0962 -0.8823  0.2632
  302MOL0     C41588   5.801   6.723  10.606  0.1753  0.0938 -0.0674
  302MOL0     N41589   5.000   6.356  10.639  0.1100  0.2537  0.5070
  302MOL0     N41590   4.872   6.334  10.624 -0.7472 -0.0505 -0.1563
  302MOL0     C41591   3.821   6.722  10.214  0.0266 -0.2182 -0.5053
  302MOL0     C41592   3.690   6.724  10.168  0.8199  0.0735  0.5460
  302MOL0     C41593   3.249   6.801  10.053 -0.1894  0.0426  1.3644
  302MOL0     C41594   3.172   6.848  10.156 -0.6967 -0.5207  0.1084
  302MOL0     C41595   3.040   6.899  10.133  0.2502  0.6732  0.8418
  302MOL0     C41596   2.983   6.878  10.006  0.6333  0.2927 -0.3723
  302MOL0     O41597   2.846   6.908   9.983 -0.4163 -0.1881  0.1043
  302MOL0     C41598   2.756   6.825  10.063 -0.2079 -0.2087  0.2447
  302MOL0     C41599   2.642   6.909  10.112 -0.5794  1.1089 -0.0915
  302MOL0     C41600   2.529   6.828  10.168 -0.4769  0.7142  0.8273
  302MOL0     C41601   2.418   6.921  10.208 -0.3099  0.5443  0.4105
  302MOL0     C41602   2.300   6.842  10.211  0.7037  0.4880 -0.4261
  302MOL0     C41603   2.199   6.773  10.223  0.2808  1.0333 -0.0596
  302MOL0     C41604   3.052   6.811   9.902 -0.6038  0.4222 -0.5710
  302MOL0     C41605   3.185   6.777   9.923 -0.4261 -0.6231  0.9314
  302MOL0     C41606   3.257   6.707   9.809 -0.1662  0.4027 -0.6254
  302MOL0     H41607   3.553   6.958  10.381 -0.2992  0.6818 -1.9237
  302MOL0     H41608   3.786   6.935  10.472 -1.2182 -0.7912  0.1045
  302MOL0     H41609   3.969   6.902  10.550 -0.6371  1.2994 -0.0876
  302MOL0     H41610   4.039   6.997  10.418  0.5550  0.5118  0.1015
  302MOL0     H41611   4.240   6.870  10.402 -1.1139  1.9005 -0.4309
  302MOL0     H41612   4.224   6.940  10.566 -0.0683 -0.3633  1.2687
  302MOL0     H41613   4.154   6.718  10.658  0.6674 -1.3849  0.4623
  302MOL0     H41614   4.174   6.652  10.487  1.6902  0.2613 -0.0588
  302MOL0     H41615   4.397   6.695  10.489  1.9518  0.7274  0.1205
  302MOL0     H41616   4.391   6.758  10.660 -0.9772  1.4925 -1.0947
  302MOL0     H41617   4.339   6.473  10.572  0.4529 -1.2442  1.5313
  302MOL0     H41618   4.337   6.536  10.743 -0.3978 -2.6643 -0.4377
  302MOL0     H41619   4.570   6.556  10.556 -1.4442 -2.3394 -0.5774
  302MOL0     H41620   4.566   6.593  10.733 -0.0918  1.9049 -0.4781
  302MOL0     H41621   4.583   6.329  10.576  2.4902  1.1892 -0.4614
  302MOL0     H41622   4.468   6.319  10.707 -0.2737  1.1446  0.5965
  302MOL0     H41623   4.652   6.395  10.873  0.1541  2.1974 -1.7588
  302MOL0     H41624   4.650   6.238  10.793 -2.2559  0.1980 -0.7430
  302MOL0     H41625   4.859   6.493  10.903 -0.1455  1.1535 -0.3342
  302MOL0     H41626   5.199   6.424  10.877 -0.6840  0.4538  0.0241
  302MOL0     H41627   5.115   6.575  10.871  0.5579 -1.1234  1.4511
  302MOL0     H41628   5.252   6.462  10.618 -4.4059 -0.3983  0.1825
  302MOL0     H41629   5.165   6.611  10.632  0.1025  0.9285  0.3195
  302MOL0     H41630   5.343   6.711  10.778 -0.8886  0.6840 -1.4518
  302MOL0     H41631   5.422   6.555  10.795  0.6369  0.4195  0.5777
  302MOL0     H41632   5.417   6.585  10.519 -1.4474 -2.8339  3.1351
  302MOL0     H41633   5.382   6.747  10.567 -0.4176 -0.5696 -0.5521
  302MOL0     H41634   5.554   6.807  10.397 -0.0478 -1.6014 -0.4621
  302MOL0     H41635   5.732   6.984  10.201 -0.3927 -0.3279  1.2944
  302MOL0     H41636   5.603   6.862  10.202 -1.1008  2.1320  1.5756
  302MOL0     H41637   5.761   6.811  10.154 -0.8195 -5.1503  4.3402
  302MOL0     H41638   6.338   6.846  10.496 -1.2684 -2.6804 -0.7489
  302MOL0     H41639   6.559   6.899  10.424 -0.7356 -0.5601  1.9471
  302MOL0     H41640   6.756   7.001  10.266 -1.8494  1.2324 -0.4060
  302MOL0     H41641   6.730   6.829  10.312 -0.8913  0.1973 -1.1821
  302MOL0     H41642   6.953   6.871  10.251  0.3484 -2.6781 -0.0100
  302MOL0     H41643   6.885   6.772  10.126 -0.7600  1.6719 -3.1279
  302MOL0     H41644   7.039   6.972  10.065  0.2604  2.4734  3.3081
  302MOL0     H41645   6.894   7.074  10.093  0.8641  0.1027 -1.4243
  302MOL0     H41646   6.780   6.948   9.918 -0.3999  0.3245 -3.0386
  302MOL0     H41647   6.930   6.868   9.883  0.5389 -0.9477  4.1283
  302MOL0     H41648   6.905   7.173   9.903 -1.0655 -0.5935 -0.0686
  302MOL0     H41649   7.048   7.094   9.844 -0.5222  3.4739 -2.7484
  302MOL0     H41650   6.774   7.103   9.706  0.2320 -0.6157 -0.4825
  302MOL0     H41651   6.910   6.991   9.674  1.0332  1.0970 -1.1035
  302MOL0     H41652   6.906   7.177   9.521 -0.7031 -1.8002  1.6356
  302MOL0     H41653   7.059   7.161   9.616  0.6192  0.4332  0.2847
  302MOL0     H41654   6.978   7.340   9.772 -1.0078  0.1224  0.4926
  302MOL0     H41655   6.829   7.348   9.671  0.4536 -2.1512  1.7399
  302MOL0     H41656   6.424   6.846  10.009  0.4840 -2.5603 -0.3968
  302MOL0     H41657   6.193   6.812  10.105  1.1338  3.1829 -2.6855
  302MOL0     H41658   6.008   6.773  10.552  0.6807  1.3918 -1.3747
  302MOL0     H41659   5.828   6.666  10.694  1.1157  0.0489 -0.3787
  302MOL0     H41660   3.898   6.663  10.165  0.3564 -0.3540  0.1693
  302MOL0     H41661   3.673   6.661  10.082 -2.6558  1.1700  0.2817
  302MOL0     H41662   3.213   6.866  10.255 -1.3718 -2.9025  0.8839
  302MOL0     H41663   2.983   6.960  10.202  0.6479  1.6011  0.3783
  302MOL0     H41664   2.727   6.744   9.995  0.4252 -1.3747  1.3154
  302MOL0     H41665   2.810   6.765  10.136 -0.3334 -2.1072 -1.1245
  302MOL0     H41666   2.604   6.977  10.036 -1.8486 -0.8259 -1.2661
  302MOL0     H41667   2.682   6.975  10.190  0.2720  0.4603  0.0340
  302MOL0     H41668   2.504   6.741  10.107  1.4981  0.2258  0.6492
  302MOL0     H41669   2.575   6.777  10.254  0.8318  1.4268  0.5849
  302MOL0     H41670   2.415   6.999  10.132  2.8433 -0.2937 -0.7293
  302MOL0     H41671   2.426   6.975  10.303 -1.4064  1.2697  0.1097
  302MOL0     H41672   2.107   6.720  10.236 -0.4316  1.6948 -2.0112
  302MOL0     H41673   3.014   6.797   9.802 -1.2968  1.9881 -0.5579
  302MOL0     H41674   3.348   6.761   9.785  0.0819  0.3951  0.2364
  302MOL0     H41675   3.286   6.604   9.834  3.2093  1.3247 -0.2315
  302MOL0     H41676   3.197   6.707   9.718  1.3387  1.1123 -1.6529
  303MOL0     O41677   9.271   3.253   4.925  0.4162  0.0842 -0.4458
  303MOL0     C41678   9.198   3.348   4.898  0.4691 -0.0556 -0.4151
  303MOL0     O41679   9.135   3.370   4.774 -0.3471 -0.5320  0.4993
  303MOL0     C41680   9.149   3.278   4.665 -0.7488 -0.0430  1.3298
  303MOL0     C41681   9.192   3.143   4.672  1.0536 -0.0240  0.3637
  303MOL0     C41682   9.187   3.062   4.557  0.3457  0.6433  0.4260
  303MOL0     C41683   9.163   3.117   4.432  0.3648  0.6884  0.4720
  303MOL0     O41684   9.182   3.016   4.333  0.0447 -0.3728 -0.2075
  303MOL0     C41685   9.236   3.060   4.209 -0.6143 -0.6234  1.2661
  303MOL0     C41686   9.229   2.948   4.108 -0.2581  0.7748 -0.4938
  303MOL0     C41687   9.090   2.938   4.033  0.2306 -0.1023  0.4598
  303MOL0     C41688   9.049   3.052   3.942 -0.0871 -0.0153 -0.1694
  303MOL0     C41689   8.916   3.114   3.974  0.6097 -0.0189  0.7028
  303MOL0     C41690   8.799   3.036   3.920 -0.1585  0.6784  0.5570
  303MOL0     C41691   8.667   3.109   3.958 -0.1263 -0.2776 -0.2597
  303MOL0     C41692   8.552   3.011   3.920 -0.3516  0.3691 -0.4528
  303MOL0     N41693   8.559   2.978   3.776 -0.2075  0.1438  0.2149
  303MOL0     C41694   8.592   3.059   3.670  0.0618 -0.2794 -0.5192
  303MOL0     C41695   8.601   2.979   3.558 -0.1195  0.3774  0.3582
  303MOL0     C41696   8.653   3.023   3.426  0.6129  0.5606 -0.0044
  303MOL0     C41697   8.781   2.945   3.388  0.3608  1.0876  0.5083
  303MOL0     C41698   8.912   2.987   3.457  0.1961 -0.0425 -0.0072
  303MOL0     C41699   9.030   2.898   3.416 -0.3362  0.8424  0.0077
  303MOL0     O41700   9.131   2.926   3.516  0.4170  0.2366  0.7036
  303MOL0     C41701   9.258   2.897   3.489 -0.2628 -0.9564  0.1477
  303MOL0     C41702   9.305   2.829   3.372 -0.4175  0.1052  0.5856
  303MOL0     C41703   9.442   2.808   3.359 -0.2610  1.2440 -0.5865
  303MOL0     C41704   9.492   2.731   3.238  0.3606  0.6435  0.2871
  303MOL0     C41705   9.529   2.843   3.465  0.1463  0.2286  0.1040
  303MOL0     C41706   9.681   2.827   3.463  0.3119  0.1781  0.2139
  303MOL0     O41707   9.744   2.825   3.586 -0.0314 -0.0133  0.2926
  303MOL0     C41708   9.878   2.809   3.593 -0.0427  0.2270 -0.8643
  303MOL0     C41709   9.937   2.687   3.565 -0.8329  0.9047 -0.2998
  303MOL0     C41710  10.072   2.665   3.589  0.8955 -0.1038  0.1240
  303MOL0     C41711  10.153   2.770   3.641  0.1626  0.6338 -0.0400
  303MOL0     O41712  10.283   2.736   3.673 -0.0308  0.3969 -0.2335
  303MOL0     C41713  10.364   2.817   3.768  0.1617  0.4691  0.5151
  303MOL0     C41714  10.490   2.733   3.779  0.1214 -0.2001 -0.0766
  303MOL0     C41715  10.477   2.623   3.887  0.3163  0.1134  0.3673
  303MOL0     C41716  10.609   2.542   3.910 -0.7102 -0.3130 -0.5603
  303MOL0     C41717  10.628   2.440   3.803 -0.2931 -0.0813 -0.2231
  303MOL0     C41718  10.540   2.309   3.822 -0.1731 -0.4604 -0.0105
  303MOL0     C41719  10.589   2.187   3.744 -0.2810 -0.3188  0.5590
  303MOL0     C41720  10.491   2.063   3.725  0.2672 -0.2652 -0.2411
  303MOL0    Cl41721  10.377   2.107   3.589 -0.2322  0.0705 -0.1871
  303MOL0     C41722  10.089   2.894   3.674 -0.4138 -0.1094 -0.4696
  303MOL0     C41723   9.950   2.913   3.657  0.1329  0.3730  0.2156
  303MOL0     O41724   9.748   2.810   3.363 -0.0524 -0.3036  0.9646
  303MOL0     C41725   9.480   2.893   3.589  0.4665  0.1289  0.1280
  303MOL0     C41726   9.343   2.916   3.597  0.1393 -0.7826  0.3660
  303MOL0     N41727   8.561   2.855   3.591 -0.5751  0.3129 -0.3631
  303MOL0     N41728   8.537   2.854   3.721  0.1471  0.0385 -0.7957
  303MOL0     C41729   9.129   3.253   4.421 -0.3829  1.2075  0.0185
  303MOL0     C41730   9.118   3.330   4.540 -0.8706 -0.1856 -0.5802
  303MOL0     C41731   9.177   3.449   5.009  0.0145 -0.2035  0.0754
  303MOL0     C41732   9.284   3.506   5.077 -0.1658 -0.0790 -0.6462
  303MOL0     C41733   9.267   3.613   5.170 -0.0074 -0.3991  0.0513
  303MOL0     C41734   9.140   3.661   5.190 -0.4848  0.3723  0.3126
  303MOL0     O41735   9.128   3.769   5.275  0.1945 -0.2153 -0.7569
  303MOL0     C41736   9.094   3.741   5.413  0.0821  0.2206 -0.6397
  303MOL0     C41737   9.119   3.865   5.506  0.2908  0.4069  1.0502
  303MOL0     C41738   9.099   3.805   5.647 -0.4744  0.2988 -0.2107
  303MOL0     C41739   8.965   3.754   5.689 -0.0823 -0.0063  0.4035
  303MOL0     C41740   8.961   3.602   5.690 -0.9193 -0.1756 -0.5635
  303MOL0     C41741   8.960   3.485   5.694  0.0529  0.4183  0.2056
  303MOL0     C41742   9.032   3.612   5.120 -0.2813  0.1533 -0.6211
  303MOL0     C41743   9.047   3.504   5.039 -0.4215  0.4907  0.7919
  303MOL0     C41744   8.926   3.446   4.989 -0.5639  0.0270  0.4005
  303MOL0     H41745   9.205   3.091   4.766  2.4220  0.4423  0.4597
  303MOL0     H41746   9.215   2.958   4.553  0.4275  0.6974 -1.1363
  303MOL0     H41747   9.340   3.083   4.234 -0.6367 -1.1798  1.8698
  303MOL0     H41748   9.191   3.151   4.167  1.5585  0.1695  0.5055
  303MOL0     H41749   9.315   2.953   4.040 -0.5973 -2.5735 -1.3462
  303MOL0     H41750   9.235   2.860   4.172  1.5542  1.0390 -0.2206
  303MOL0     H41751   9.107   2.849   3.972 -1.7000 -1.1637  1.3809
  303MOL0     H41752   9.011   2.917   4.106 -0.8358 -0.8198 -0.8568
  303MOL0     H41753   9.112   3.141   3.953 -1.8260  1.2993 -0.4654
  303MOL0     H41754   9.053   3.023   3.836 -0.3689 -4.5751  0.8690
  303MOL0     H41755   8.903   3.215   3.934 -0.6875 -1.0095 -1.5753
  303MOL0     H41756   8.902   3.131   4.081  2.0610  0.9404  0.7661
  303MOL0     H41757   8.816   3.032   3.812  1.2383 -0.5807  0.7845
  303MOL0     H41758   8.798   2.938   3.967  0.1866  1.2750  1.8742
  303MOL0     H41759   8.652   3.211   3.920 -0.4367 -0.6383 -1.1409
  303MOL0     H41760   8.659   3.111   4.067  0.5782 -2.9131 -0.0902
  303MOL0     H41761   8.550   2.918   3.977 -0.7551 -0.1436 -1.2762
  303MOL0     H41762   8.456   3.061   3.939  1.1248  2.5411  1.7420
  303MOL0     H41763   8.623   3.162   3.688 -2.3039  0.6276 -1.3530
  303MOL0     H41764   8.660   3.132   3.421 -1.4620  0.7196 -0.5097
  303MOL0     H41765   8.573   2.988   3.360 -1.5685 -1.1530  3.2937
  303MOL0     H41766   8.770   2.836   3.397  0.5275  0.2256 -5.4293
  303MOL0     H41767   8.802   2.956   3.281  0.6766 -0.4775  0.3885
  303MOL0     H41768   8.933   3.086   3.417  0.3186 -0.7455 -1.7334
  303MOL0     H41769   8.898   2.996   3.565 -1.3077  1.8637 -0.3256
  303MOL0     H41770   9.010   2.790   3.414  1.7437  0.3403  2.1092
  303MOL0     H41771   9.049   2.927   3.312  1.4265 -1.9075 -0.5380
  303MOL0     H41772   9.240   2.773   3.306 -0.5794 -0.1885  0.9895
  303MOL0     H41773   9.578   2.783   3.196 -0.5937  0.6065 -1.8430
  303MOL0     H41774   9.413   2.730   3.162  0.1759 -0.5362  0.4721
  303MOL0     H41775   9.518   2.627   3.260  0.7034  0.6282 -0.1811
  303MOL0     H41776   9.870   2.605   3.542  0.2268  0.4203 -1.8435
  303MOL0     H41777  10.110   2.564   3.587 -1.2605 -0.9826  0.2950
  303MOL0     H41778  10.390   2.910   3.717  0.4002 -0.1658 -0.5580
  303MOL0     H41779  10.320   2.826   3.868 -0.6588 -1.7333  0.4132
  303MOL0     H41780  10.532   2.697   3.685  0.1427  0.3840 -0.3006
  303MOL0     H41781  10.570   2.807   3.794 -0.2742  0.4364 -1.0095
  303MOL0     H41782  10.394   2.558   3.860  1.6805 -0.5749 -2.5931
  303MOL0     H41783  10.454   2.679   3.978  0.4709  1.2283 -0.2587
  303MOL0     H41784  10.606   2.501   4.011  0.4937  0.3192 -0.2519
  303MOL0     H41785  10.687   2.618   3.901 -1.9598  0.9854 -0.9049
  303MOL0     H41786  10.622   2.477   3.700 -2.1984  0.0705 -0.0951
  303MOL0     H41787  10.724   2.389   3.819 -2.2608 -4.3605 -0.7327
  303MOL0     H41788  10.439   2.332   3.787 -0.3612  1.1215  1.4303
  303MOL0     H41789  10.536   2.296   3.931 -0.7826 -0.6352 -0.0507
  303MOL0     H41790  10.667   2.145   3.807 -0.6623 -1.3567  0.3687
  303MOL0     H41791  10.635   2.216   3.648 -1.4034 -1.6806 -0.4355
  303MOL0     H41792  10.428   2.047   3.814 -1.8106 -2.1804 -1.9223
  303MOL0     H41793  10.546   1.970   3.710  1.3961  0.3904 -0.2191
  303MOL0     H41794  10.148   2.968   3.728 -0.0309 -0.0692 -0.9305
  303MOL0     H41795   9.915   3.012   3.685 -0.4848  0.0294  0.6865
  303MOL0     H41796   9.542   2.919   3.674  0.1688  2.8477 -0.4090
  303MOL0     H41797   9.316   2.966   3.690 -2.0303 -3.6522  1.4570
  303MOL0     H41798   9.111   3.291   4.321 -1.1090 -2.0398 -1.2251
  303MOL0     H41799   9.084   3.432   4.537 -0.1355  0.0708 -0.4409
  303MOL0     H41800   9.381   3.459   5.071 -1.0797 -2.2408  0.3254
  303MOL0     H41801   9.353   3.656   5.221  0.6609  0.1623 -1.5090
  303MOL0     H41802   8.986   3.719   5.419 -0.4011  2.6978  3.3553
  303MOL0     H41803   9.148   3.651   5.444  0.8128  1.2910  1.3500
  303MOL0     H41804   9.040   3.940   5.497 -1.4655 -1.4152  0.5216
  303MOL0     H41805   9.220   3.907   5.502  0.8436 -0.8461  1.3672
  303MOL0     H41806   9.180   3.733   5.657 -0.0034  0.3291 -3.1988
  303MOL0     H41807   9.123   3.891   5.710  0.2167  0.2373 -0.3811
  303MOL0     H41808   8.889   3.784   5.617  0.9279  0.4244 -0.5118
  303MOL0     H41809   8.947   3.789   5.791  0.4697  0.3496  0.3839
  303MOL0     H41810   8.958   3.378   5.686 -0.1715  0.2033  2.5299
  303MOL0     H41811   8.938   3.657   5.151  0.7247  0.4272  2.3820
  303MOL0     H41812   8.930   3.338   5.006 -2.1619 -0.0979  0.1225
  303MOL0     H41813   8.846   3.497   5.043  0.8722  1.7236  1.0358
  303MOL0     H41814   8.907   3.464   4.882 -0.3190 -1.4310  0.0972
  304MOL0     O41815  10.683   8.430   0.771 -0.2247  0.7128  0.0732
  304MOL0     C41816  10.611   8.526   0.752  0.1591 -0.2617 -0.3118
  304MOL0     O41817  10.620   8.610   0.644 -0.1120  0.1120 -0.3300
  304MOL0     C41818  10.728   8.602   0.561 -0.6388  1.2296  0.4715
  304MOL0     C41819  10.850   8.664   0.597  0.4468 -0.4182  0.0386
  304MOL0     C41820  10.971   8.638   0.536  0.3859  0.6522  0.3938
  304MOL0     C41821  10.977   8.541   0.436 -0.2485 -0.0351 -0.5175
  304MOL0     O41822  11.093   8.498   0.378 -0.1127 -0.4590 -0.4248
  304MOL0     C41823  11.210   8.556   0.436 -0.5477  0.4831  0.2856
  304MOL0     C41824  11.331   8.480   0.387 -0.1267  0.1491  0.4972
  304MOL0     C41825  11.344   8.479   0.229  0.4874 -0.9221  0.6471
  304MOL0     C41826  11.341   8.625   0.174 -0.4612  0.1577  0.1738
  304MOL0     C41827  11.393   8.629   0.029 -0.6164 -0.4917 -0.7858
  304MOL0     C41828  11.547   8.632   0.026  0.0978  0.0120  0.3143
  304MOL0     C41829  11.602   8.630  -0.122 -1.0357  0.2887 -0.3810
  304MOL0     C41830  11.749   8.681  -0.129  0.4917  0.1844 -0.2734
  304MOL0     N41831  11.804   8.669  -0.264  1.3113 -0.7023  0.0183
  304MOL0     C41832  11.826   8.557  -0.341 -0.6456  0.0631  0.1584
  304MOL0     C41833  11.863   8.590  -0.468  0.1858  0.1323  0.1233
  304MOL0     C41834  11.870   8.493  -0.581  0.7396  0.4036 -0.2606
  304MOL0     C41835  12.008   8.437  -0.610 -0.4721 -0.2908 -0.4893
  304MOL0     C41836  12.016   8.307  -0.694 -0.6104 -0.8007 -0.3881
  304MOL0     C41837  12.153   8.232  -0.690 -0.1947  0.8896  0.4530
  304MOL0     O41838  12.258   8.299  -0.766 -0.0620 -0.1719  0.0518
  304MOL0     C41839  12.383   8.307  -0.705  0.0971  0.3224  0.3403
  304MOL0     C41840  12.503   8.280  -0.777 -0.5123 -0.0867  0.5923
  304MOL0     C41841  12.630   8.265  -0.710 -0.5511 -0.1295  0.2589
  304MOL0     C41842  12.745   8.244  -0.802 -0.8939 -0.3913  1.0930
  304MOL0     C41843  12.634   8.266  -0.571  0.3618  0.0158  0.4397
  304MOL0     C41844  12.759   8.237  -0.488  0.2061 -0.7502  0.9599
  304MOL0     O41845  12.743   8.233  -0.348  0.9278  0.0692  0.4259
  304MOL0     C41846  12.859   8.213  -0.280  0.4549 -0.1637  0.2598
  304MOL0     C41847  12.973   8.289  -0.290 -0.4882 -0.5328 -0.6407
  304MOL0     C41848  13.083   8.267  -0.207 -0.1703  0.8020 -0.7238
  304MOL0     C41849  13.073   8.176  -0.104 -0.1871  0.5271 -0.6283
  304MOL0     O41850  13.178   8.168  -0.026  0.2709 -0.4223  0.1512
  304MOL0     C41851  13.169   8.210   0.112  0.3502 -0.1008  0.0226
  304MOL0     C41852  13.308   8.188   0.182  0.8555 -0.8897  0.3768
  304MOL0     C41853  13.367   8.048   0.164 -0.6154 -0.3224  0.4896
  304MOL0     C41854  13.512   8.031   0.228  0.5881  0.5751 -0.1195
  304MOL0     C41855  13.588   7.909   0.188  0.0270  0.2275  0.4830
  304MOL0     C41856  13.734   7.913   0.241 -0.7238 -0.2598  0.3295
  304MOL0     C41857  13.741   7.902   0.392  0.2966  0.8700 -0.0406
  304MOL0     C41858  13.880   7.878   0.449 -0.5873 -0.8118 -0.0795
  304MOL0    Cl41859  13.977   7.741   0.372 -0.1054 -0.0812  0.3472
  304MOL0     C41860  12.967   8.095  -0.086  0.3545  0.5158  0.5364
  304MOL0     C41861  12.854   8.109  -0.178  0.7511 -0.5531  0.3730
  304MOL0     O41862  12.856   8.203  -0.557 -0.3471 -0.0800  0.3465
  304MOL0     C41863  12.514   8.293  -0.500  0.5397 -0.0002  0.4119
  304MOL0     C41864  12.400   8.317  -0.569 -0.1115  0.1069 -0.5017
  304MOL0     N41865  11.861   8.730  -0.463 -0.7648  0.4810  0.2291
  304MOL0     N41866  11.821   8.781  -0.347 -0.7715  0.1444  0.0099
  304MOL0     C41867  10.855   8.490   0.390  0.1069 -0.0357  0.2990
  304MOL0     C41868  10.729   8.516   0.452  0.1847 -0.4973 -0.4695
  304MOL0     C41869  10.504   8.548   0.848 -0.2566  0.2219  0.6220
  304MOL0     C41870  10.469   8.439   0.936  0.4445  0.0472  0.0672
  304MOL0     C41871  10.372   8.459   1.037  0.6113 -0.5508 -0.4213
  304MOL0     C41872  10.297   8.571   1.054 -0.0515  1.0822  0.1246
  304MOL0     O41873  10.208   8.592   1.153 -0.3829  0.2989  0.4169
  304MOL0     C41874  10.083   8.517   1.141 -0.4872  0.0347 -0.2090
  304MOL0     C41875   9.965   8.611   1.162  0.2558 -0.5106 -0.0502
  304MOL0     C41876   9.829   8.535   1.127 -0.1719  0.5569 -0.2002
  304MOL0     C41877   9.712   8.589   1.208  0.8086  1.0602 -0.0002
  304MOL0     C41878   9.606   8.480   1.211  0.4857  0.4042 -0.0883
  304MOL0     C41879   9.511   8.400   1.226 -0.0405  0.7550  0.0569
  304MOL0     C41880  10.338   8.678   0.971 -0.1617  0.0085  0.7682
  304MOL0     C41881  10.438   8.666   0.865  0.6367  0.0740  0.1256
  304MOL0     C41882  10.471   8.796   0.794 -0.0901 -0.1249  0.2587
  304MOL0     H41883  10.840   8.743   0.670 -0.0440  1.0285 -1.5135
  304MOL0     H41884  11.050   8.695   0.584  1.3863 -0.6476  0.3214
  304MOL0     H41885  11.205   8.558   0.545  1.5236  1.5279  0.4079
  304MOL0     H41886  11.224   8.661   0.407 -0.7993 -0.0681 -1.9917
  304MOL0     H41887  11.420   8.525   0.431  1.1397  0.5434 -2.2728
  304MOL0     H41888  11.328   8.375   0.418 -1.8806  0.6717  2.3445
  304MOL0     H41889  11.438   8.433   0.196 -0.1095 -0.7710 -1.4455
  304MOL0     H41890  11.266   8.416   0.184  1.3371 -1.9815  0.6131
  304MOL0     H41891  11.238   8.662   0.178 -0.1545  1.0571 -0.0981
  304MOL0     H41892  11.397   8.698   0.233  0.5447  1.9081 -2.7387
  304MOL0     H41893  11.359   8.718  -0.026  2.1018  1.0460 -0.1902
  304MOL0     H41894  11.352   8.545  -0.028  1.0614 -0.4687 -2.1382
  304MOL0     H41895  11.578   8.724   0.076  1.9424  0.0175 -0.7299
  304MOL0     H41896  11.591   8.553   0.088 -0.9563 -0.2105  0.7945
  304MOL0     H41897  11.539   8.687  -0.191  1.0036  3.1037 -0.1291
  304MOL0     H41898  11.612   8.529  -0.161  3.0821  0.8592 -1.2701
  304MOL0     H41899  11.759   8.784  -0.095  3.1640 -0.7025  2.1285
  304MOL0     H41900  11.816   8.614  -0.073  2.3373 -1.3172 -3.9682
  304MOL0     H41901  11.819   8.454  -0.307  1.4994  0.1408  0.9869
  304MOL0     H41902  11.829   8.541  -0.670 -2.8836  1.1373  1.6172
  304MOL0     H41903  11.800   8.413  -0.560 -0.8738  1.1641 -2.4156
  304MOL0     H41904  12.052   8.514  -0.674  0.4904 -0.2341  0.2287
  304MOL0     H41905  12.064   8.415  -0.519 -0.0963 -0.6096 -0.7947
  304MOL0     H41906  11.944   8.233  -0.659  0.4302 -1.4376  0.4605
  304MOL0     H41907  11.985   8.334  -0.795 -0.2385  2.2909  0.2358
  304MOL0     H41908  12.175   8.226  -0.583  0.3674  4.8144  0.7001
  304MOL0     H41909  12.138   8.135  -0.739  0.9350  0.5114  0.8115
  304MOL0     H41910  12.487   8.278  -0.885 -1.4900 -3.7758  0.6838
  304MOL0     H41911  12.726   8.245  -0.910  1.5288 -0.6668  0.6127
  304MOL0     H41912  12.783   8.144  -0.780  0.7281 -0.4113 -1.4143
  304MOL0     H41913  12.821   8.321  -0.786 -0.8535  0.0233 -0.7979
  304MOL0     H41914  12.982   8.368  -0.364 -1.3995  1.4439  1.2340
  304MOL0     H41915  13.178   8.320  -0.215  0.2387 -0.2038 -3.3851
  304MOL0     H41916  13.145   8.316   0.107  0.8315 -0.0232 -1.0231
  304MOL0     H41917  13.086   8.172   0.172 -0.5063  4.4697  2.1783
  304MOL0     H41918  13.379   8.263   0.147 -0.1689 -0.6610 -1.3453
  304MOL0     H41919  13.292   8.212   0.287  0.5869  1.0688 -0.0711
  304MOL0     H41920  13.371   8.025   0.057  1.4079  1.9579 -0.0151
  304MOL0     H41921  13.311   7.968   0.213  1.0136 -0.9681  1.3457
  304MOL0     H41922  13.506   8.042   0.337 -3.4888  0.5280 -0.1782
  304MOL0     H41923  13.569   8.115   0.187 -1.6678  0.8277 -3.0589
  304MOL0     H41924  13.531   7.824   0.228  0.4399 -0.5390 -0.5154
  304MOL0     H41925  13.581   7.904   0.079 -1.4420  2.5990  0.4007
  304MOL0     H41926  13.793   7.997   0.204 -1.7685 -1.3684 -4.6730
  304MOL0     H41927  13.787   7.826   0.201 -1.9101 -1.1451  0.6286
  304MOL0     H41928  13.675   7.818   0.415 -1.2981  1.7449 -1.1845
  304MOL0     H41929  13.701   7.994   0.436 -2.2885 -0.5494  0.7685
  304MOL0     H41930  13.866   7.857   0.555 -1.3092  0.5057  0.1039
  304MOL0     H41931  13.943   7.966   0.433 -0.1297 -0.8251  1.5489
  304MOL0     H41932  12.960   8.013  -0.016 -2.5179  1.7286  1.8622
  304MOL0     H41933  12.763   8.053  -0.161 -1.1067  1.7811 -1.3185
  304MOL0     H41934  12.518   8.300  -0.392  1.5716 -2.1521  0.5759
  304MOL0     H41935  12.323   8.369  -0.513  0.4987 -0.0320  0.4947
  304MOL0     H41936  10.854   8.414   0.313 -0.0547  1.6814 -1.4633
  304MOL0     H41937  10.633   8.472   0.427  0.5754 -0.6929 -1.7416
  304MOL0     H41938  10.521   8.344   0.926  2.0263  0.5033  2.9295
  304MOL0     H41939  10.350   8.369   1.095  2.6754  0.0731  1.4676
  304MOL0     H41940  10.080   8.479   1.039  3.1402 -0.0282 -0.4215
  304MOL0     H41941  10.064   8.434   1.209  0.5962 -1.1423 -1.2921
  304MOL0     H41942   9.965   8.700   1.099 -3.5335 -2.2058 -2.8779
  304MOL0     H41943   9.965   8.635   1.269  0.4689 -0.2162 -0.1151
  304MOL0     H41944   9.808   8.543   1.020 -1.1660  0.8276  0.0022
  304MOL0     H41945   9.841   8.428   1.148  2.7540  0.4885 -1.6879
  304MOL0     H41946   9.677   8.678   1.155 -1.0353 -0.2001 -1.0078
  304MOL0     H41947   9.748   8.615   1.308 -0.1923  4.2252 -0.3518
  304MOL0     H41948   9.425   8.337   1.231 -0.2782  0.8081 -2.0997
  304MOL0     H41949  10.307   8.780   0.992 -1.8097  0.5803 -3.3886
  304MOL0     H41950  10.422   8.874   0.853  0.0990 -0.7382  1.2545
  304MOL0     H41951  10.575   8.828   0.798 -0.5411  1.5822  4.6587
  304MOL0     H41952  10.438   8.795   0.690 -0.2864 -2.0323  0.2943
  305MOL0     O41953   4.746   9.059   8.528  1.1549 -0.0959  0.8770
  305MOL0     C41954   4.677   9.151   8.566  0.2680  0.0028 -1.1404
  305MOL0     O41955   4.720   9.283   8.585  0.9275  0.1651 -0.2315
  305MOL0     C41956   4.841   9.313   8.627 -0.6929  0.0024 -0.1920
  305MOL0     C41957   4.959   9.333   8.557  0.6781 -0.4497  0.4110
  305MOL0     C41958   5.086   9.330   8.615 -0.9219  0.3478 -0.0619
  305MOL0     C41959   5.097   9.316   8.755  0.0905 -0.5304 -0.2048
  305MOL0     O41960   5.211   9.333   8.824  0.2524 -0.6989  0.0131
  305MOL0     C41961   5.212   9.331   8.970  0.4302  0.5066 -0.9029
  305MOL0     C41962   5.346   9.309   9.026 -0.2811 -0.2473 -0.9254
  305MOL0     C41963   5.435   9.436   9.000 -0.2003  0.4880  0.6200
  305MOL0     C41964   5.582   9.409   9.042  0.1037  0.7654 -0.6982
  305MOL0     C41965   5.670   9.530   9.029 -0.1573  0.2999 -0.1666
  305MOL0     C41966   5.807   9.516   9.095 -0.2653 -0.4070  0.2915
  305MOL0     C41967   5.890   9.395   9.065 -0.5859  1.1010  0.3614
  305MOL0     C41968   6.026   9.387   9.147 -0.0331  0.3759 -0.7562
  305MOL0     N41969   6.147   9.431   9.065 -0.1236 -0.1986 -0.2329
  305MOL0     C41970   6.182   9.568   9.028  0.3223 -0.1837 -0.7425
  305MOL0     C41971   6.277   9.548   8.930  0.0220 -0.2444 -0.0631
  305MOL0     C41972   6.362   9.656   8.861  0.1467 -0.6557  0.3169
  305MOL0     C41973   6.476   9.703   8.949 -0.2323  0.3424  0.1309
  305MOL0     C41974   6.580   9.590   8.974  0.1105  0.8132 -0.2786
  305MOL0     C41975   6.709   9.635   9.052  0.6640 -0.0503 -1.2731
  305MOL0     O41976   6.689   9.731   9.154  0.4501  0.1669  0.2654
  305MOL0     C41977   6.759   9.715   9.272  0.2159 -0.4692 -0.4282
  305MOL0     C41978   6.885   9.658   9.279  0.2335 -0.1042  0.1022
  305MOL0     C41979   6.959   9.663   9.398 -0.0316 -0.1392  0.5836
  305MOL0     C41980   7.093   9.613   9.378 -0.7938  0.7159  0.3429
  305MOL0     C41981   6.903   9.717   9.513 -0.4548 -0.6059  0.6931
  305MOL0     C41982   6.975   9.713   9.642 -0.5666  0.6494 -0.5887
  305MOL0     O41983   7.110   9.759   9.646 -0.3999 -0.0464  0.0364
  305MOL0     C41984   7.187   9.725   9.749 -0.8443  1.0190  0.2206
  305MOL0     C41985   7.240   9.594   9.750 -0.1401  0.1520 -0.3613
  305MOL0     C41986   7.331   9.556   9.847 -0.4504 -0.5118  0.4950
  305MOL0     C41987   7.382   9.652   9.937 -0.2723  0.6010 -0.3105
  305MOL0     O41988   7.476   9.625  10.026  0.3732 -0.2324  0.1781
  305MOL0     C41989   7.502   9.491  10.070  0.4174  0.1149  0.9011
  305MOL0     C41990   7.589   9.478  10.187 -0.8637 -0.2686  0.2030
  305MOL0     C41991   7.709   9.570  10.176  0.9791  0.2090  0.1210
  305MOL0     C41992   7.817   9.529  10.268 -1.0535 -0.3272 -0.5169
  305MOL0     C41993   7.932   9.632  10.283  0.8523  0.2470 -0.6622
  305MOL0     C41994   8.055   9.563  10.350 -0.1751 -0.2452 -0.1031
  305MOL0     C41995   8.164   9.669  10.354  0.3584 -0.0080 -0.2322
  305MOL0     C41996   8.206   9.724  10.210 -0.7704 -0.2968  0.4027
  305MOL0    Cl41997   8.332   9.838  10.236 -0.0035  0.4026 -0.3346
  305MOL0     C41998   7.322   9.778   9.935 -0.0289 -0.0147 -0.0675
  305MOL0     C41999   7.219   9.817   9.844 -0.2741 -0.3638  0.1380
  305MOL0     O42000   6.907   9.685   9.747 -0.3976  0.0393  0.1523
  305MOL0     C42001   6.773   9.764   9.502 -0.8580  0.0055 -0.2051
  305MOL0     C42002   6.700   9.769   9.383 -0.8136  0.1056  0.2324
  305MOL0     N42003   6.292   9.417   8.915  0.4043  0.8126  0.9377
  305MOL0     N42004   6.214   9.347   8.993  0.0241  0.3494 -0.1181
  305MOL0     C42005   4.977   9.296   8.827 -0.4473  0.9835  0.3930
  305MOL0     C42006   4.851   9.301   8.762 -0.8541  0.1391  0.5646
  305MOL0     C42007   4.535   9.127   8.575  0.7018  0.2158  0.4339
  305MOL0     C42008   4.451   9.241   8.601 -0.1428 -0.1690  0.0377
  305MOL0     C42009   4.311   9.234   8.614 -1.8285 -0.3402 -0.1222
  305MOL0     C42010   4.246   9.116   8.585 -0.2991  0.1339  0.4693
  305MOL0     O42011   4.106   9.099   8.586 -0.7566 -0.3910 -0.5040
  305MOL0     C42012   4.019   9.207   8.634  0.0853 -0.0408  0.1540
  305MOL0     C42013   3.886   9.138   8.654 -0.9642 -0.1745 -0.2925
  305MOL0     C42014   3.807   9.216   8.764  0.1345 -0.4004 -0.5421
  305MOL0     C42015   3.767   9.360   8.730  0.0803 -0.3568  0.2215
  305MOL0     C42016   3.634   9.357   8.671 -0.2572  0.5868  0.5420
  305MOL0     C42017   3.533   9.350   8.613 -0.2700 -0.0751 -0.4247
  305MOL0     C42018   4.330   9.008   8.548  0.0772 -0.6714  0.0602
  305MOL0     C42019   4.467   9.011   8.540  0.4393  0.0227  0.4078
  305MOL0     C42020   4.543   8.882   8.482 -0.7694 -0.2550 -0.1788
  305MOL0     H42021   4.948   9.346   8.450 -2.7209 -0.9103  0.5766
  305MOL0     H42022   5.182   9.343   8.567 -0.9318  0.7772  0.0288
  305MOL0     H42023   5.150   9.248   9.005 -0.2737  1.0603 -0.8166
  305MOL0     H42024   5.173   9.420   9.021 -2.5393 -1.8915  1.3390
  305MOL0     H42025   5.338   9.283   9.132  1.8165 -1.0705 -0.9327
  305MOL0     H42026   5.387   9.214   8.991  0.8732 -1.1457  2.4897
  305MOL0     H42027   5.440   9.449   8.892 -1.2172  0.9619  0.6132
  305MOL0     H42028   5.408   9.528   9.052 -0.3889  1.6996 -1.5293
  305MOL0     H42029   5.588   9.383   9.148  0.2357  2.5261 -0.2464
  305MOL0     H42030   5.627   9.327   8.986 -1.3661 -0.4352 -0.1626
  305MOL0     H42031   5.627   9.618   9.079 -0.8179 -0.0914 -0.0324
  305MOL0     H42032   5.684   9.546   8.921  1.1550 -1.4367 -0.2919
  305MOL0     H42033   5.866   9.600   9.058 -2.2736  0.7264 -0.5105
  305MOL0     H42034   5.792   9.516   9.203 -1.0270 -1.0909  0.2015
  305MOL0     H42035   5.926   9.395   8.961  2.3547  1.6280  1.2711
  305MOL0     H42036   5.826   9.310   9.089  2.2202 -1.0118  0.8819
  305MOL0     H42037   6.018   9.458   9.230  0.1466 -1.0502  0.5278
  305MOL0     H42038   6.041   9.287   9.189  0.6317  0.0418 -1.7619
  305MOL0     H42039   6.137   9.658   9.068 -0.4464 -1.3253  1.0824
  305MOL0     H42040   6.292   9.740   8.847  0.3451  0.1791  3.5921
  305MOL0     H42041   6.401   9.623   8.764 -1.0243 -0.2633 -0.3122
  305MOL0     H42042   6.526   9.793   8.912  2.4072 -1.5795 -1.3980
  305MOL0     H42043   6.439   9.742   9.044 -2.4085  1.4214 -1.0649
  305MOL0     H42044   6.545   9.506   9.034 -0.3830  0.6063 -0.8436
  305MOL0     H42045   6.597   9.542   8.877 -0.6525 -2.6732  1.1567
  305MOL0     H42046   6.755   9.545   9.092  0.3812  0.0383 -0.7263
  305MOL0     H42047   6.779   9.675   8.978  0.8744 -1.3872 -1.8153
  305MOL0     H42048   6.933   9.620   9.189  0.2237  0.4638 -0.1491
  305MOL0     H42049   7.115   9.645   9.276 -1.7880  0.6330  0.0889
  305MOL0     H42050   7.083   9.504   9.386 -2.6722  0.8591  0.6061
  305MOL0     H42051   7.175   9.646   9.441 -0.0953 -0.5062  0.1156
  305MOL0     H42052   7.201   9.529   9.673 -0.7091  0.1605 -0.0899
  305MOL0     H42053   7.361   9.451   9.850  2.9333  0.3509  1.0036
  305MOL0     H42054   7.410   9.442  10.103 -0.9165  1.7885 -0.1405
  305MOL0     H42055   7.541   9.440   9.982  0.3305  1.0631  0.3029
  305MOL0     H42056   7.535   9.504  10.278  0.2218  3.6804 -0.1224
  305MOL0     H42057   7.631   9.376  10.185  2.0167  0.8205 -1.0272
  305MOL0     H42058   7.667   9.666  10.207 -2.5764 -1.8077  2.3663
  305MOL0     H42059   7.755   9.565  10.077  2.2552 -4.4541  0.7287
  305MOL0     H42060   7.856   9.432  10.234 -1.4996 -0.5327 -0.4469
  305MOL0     H42061   7.783   9.513  10.371 -0.0990 -0.5748 -0.2231
  305MOL0     H42062   7.963   9.648  10.179 -1.1321  0.6990 -1.2241
  305MOL0     H42063   7.908   9.729  10.326  0.3545  1.3789 -3.2657
  305MOL0     H42064   8.101   9.474  10.305  0.8984 -0.1936  0.8701
  305MOL0     H42065   8.020   9.541  10.451 -0.8018 -1.4797 -0.5683
  305MOL0     H42066   8.243   9.611  10.401 -1.4607 -0.4706  2.4625
  305MOL0     H42067   8.140   9.754  10.419  1.1831 -0.1636  0.2893
  305MOL0     H42068   8.130   9.787  10.164  1.9602  0.2388 -3.9591
  305MOL0     H42069   8.242   9.648  10.140 -1.7134 -0.9337  0.5828
  305MOL0     H42070   7.365   9.856   9.997 -0.8040 -0.2120  0.7350
  305MOL0     H42071   7.178   9.918   9.837  0.1143 -0.3050 -1.5016
  305MOL0     H42072   6.717   9.810   9.583  0.0872  0.8683 -0.0174
  305MOL0     H42073   6.595   9.790   9.372 -1.0007 -1.3039 -1.1549
  305MOL0     H42074   4.969   9.281   8.934  4.6586  1.1250  1.0719
  305MOL0     H42075   4.758   9.284   8.814 -1.2709 -4.8005 -1.2173
  305MOL0     H42076   4.492   9.337   8.632  1.2994 -0.5553 -0.5780
  305MOL0     H42077   4.263   9.323   8.652  1.2667  0.9202  1.1632
  305MOL0     H42078   4.045   9.259   8.726 -0.6388  0.8170 -0.1131
  305MOL0     H42079   4.015   9.283   8.556  0.6485  0.1757  0.3338
  305MOL0     H42080   3.890   9.033   8.683  0.8074  0.4566  2.0239
  305MOL0     H42081   3.838   9.134   8.556 -3.5657 -0.0753  0.9107
  305MOL0     H42082   3.719   9.156   8.789 -1.0412  1.6839  0.5889
  305MOL0     H42083   3.877   9.229   8.847  0.9099 -0.2543 -1.2149
  305MOL0     H42084   3.844   9.404   8.668  0.8758  1.2521  2.2326
  305MOL0     H42085   3.767   9.418   8.823 -1.6436 -2.1310  1.4202
  305MOL0     H42086   3.445   9.331   8.555 -0.7149 -1.5233  0.6703
  305MOL0     H42087   4.272   8.926   8.507  2.1060 -1.9744 -0.2892
  305MOL0     H42088   4.489   8.788   8.492  0.8790 -1.4020 -1.3527
  305MOL0     H42089   4.581   8.901   8.381  0.3175  0.4481  0.3479
  305MOL0     H42090   4.636   8.857   8.534 -1.1748 -4.1330 -0.9887
  306MOL0     O42091   9.627   8.483   0.132  0.3196 -0.2682  0.3332
  306MOL0     C42092   9.645   8.503   0.251  0.4787  0.3119 -0.4119
  306MOL0     O42093   9.765   8.547   0.304  0.0733 -0.5180  0.2379
  306MOL0     C42094   9.869   8.583   0.218 -0.3713 -0.3330 -0.4585
  306MOL0     C42095   9.999   8.545   0.249 -0.9506  0.1889 -0.3764
  306MOL0     C42096  10.103   8.602   0.187  0.1549 -0.2719 -0.1619
  306MOL0     C42097  10.091   8.698   0.086  0.8253  0.4480 -0.0512
  306MOL0     O42098  10.182   8.768   0.016 -0.4086  0.0104  0.8257
  306MOL0     C42099  10.321   8.755   0.050  0.5035  0.0042 -0.4507
  306MOL0     C42100  10.399   8.813  -0.050  0.7875 -0.0098  0.1831
  306MOL0     C42101  10.544   8.815  -0.008 -0.7573  0.4503 -0.4349
  306MOL0     C42102  10.629   8.903  -0.101  0.0191  0.4060 -0.1552
  306MOL0     C42103  10.777   8.858  -0.103  0.0846 -0.0939  0.6951
  306MOL0     C42104  10.875   8.970  -0.071  0.4761  0.3407 -1.1685
  306MOL0     C42105  10.881   9.076  -0.183 -0.3513  0.1711 -0.2802
  306MOL0     C42106  11.011   9.162  -0.176  0.8017  0.2138  0.6935
  306MOL0     N42107  11.133   9.101  -0.216 -0.0856 -0.0404  0.7202
  306MOL0     C42108  11.187   9.115  -0.345 -0.1328  0.0833 -0.4508
  306MOL0     C42109  11.296   9.049  -0.347  0.4840  0.6421  0.1742
  306MOL0     C42110  11.374   9.010  -0.470  0.1810  0.7561 -0.4468
  306MOL0     C42111  11.404   8.851  -0.461 -0.6398  0.1836  0.0587
  306MOL0     C42112  11.515   8.806  -0.551 -0.1755  0.1115  0.1328
  306MOL0     C42113  11.497   8.839  -0.702  0.0211  0.1834  0.4043
  306MOL0     O42114  11.564   8.745  -0.787  0.9085  0.3796 -0.0398
  306MOL0     C42115  11.696   8.769  -0.826  0.1064 -0.1613  0.0597
  306MOL0     C42116  11.745   8.705  -0.944 -0.0679 -1.0814  0.5202
  306MOL0     C42117  11.870   8.728  -1.004  0.2431  0.0571  0.0461
  306MOL0     C42118  11.906   8.651  -1.130 -0.0700 -0.0335 -0.3980
  306MOL0     C42119  11.957   8.811  -0.933  0.3072  0.3562 -0.3165
  306MOL0     C42120  12.100   8.825  -0.978 -0.0340  0.5871  0.0286
  306MOL0     O42121  12.182   8.755  -0.894 -0.0216  0.0225  0.1288
  306MOL0     C42122  12.304   8.742  -0.941 -0.8831  0.9868  0.8777
  306MOL0     C42123  12.387   8.843  -0.994  0.2331  0.0563  0.1534
  306MOL0     C42124  12.518   8.815  -1.033  0.1877  0.5427 -0.2841
  306MOL0     C42125  12.573   8.685  -1.028  0.5719  0.0730  0.5724
  306MOL0     O42126  12.697   8.667  -1.074  0.6353 -0.3834  0.3320
  306MOL0     C42127  12.792   8.775  -1.063 -0.0413  0.5390  0.6776
  306MOL0     C42128  12.938   8.732  -1.093 -1.6577  0.5906  0.0673
  306MOL0     C42129  13.015   8.866  -1.087 -0.7740  1.2370 -0.0054
  306MOL0     C42130  13.167   8.844  -1.081  0.2826  0.8523 -0.2697
  306MOL0     C42131  13.245   8.984  -1.088  0.3660 -0.6383  0.2322
  306MOL0     C42132  13.397   8.969  -1.075 -0.0341  0.4650 -0.6387
  306MOL0     C42133  13.461   9.103  -1.115  0.1793 -0.2012  0.7666
  306MOL0     C42134  13.604   9.074  -1.102 -0.9163  0.2597 -0.7066
  306MOL0    Cl42135  13.685   9.225  -1.144 -0.2200 -0.1098 -0.4482
  306MOL0     C42136  12.491   8.584  -0.989 -1.1365  0.5295  0.6876
  306MOL0     C42137  12.357   8.608  -0.946  0.2838  0.3709 -0.2986
  306MOL0     O42138  12.122   8.867  -1.098  0.3371 -0.1682  0.2151
  306MOL0     C42139  11.922   8.878  -0.812  0.9624  1.1601  0.1005
  306MOL0     C42140  11.790   8.855  -0.764  0.1393 -0.2009 -0.5597
  306MOL0     N42141  11.313   8.989  -0.221  0.5597 -0.0358  0.1116
  306MOL0     N42142  11.213   9.020  -0.145  0.1888 -0.1874 -0.4068
  306MOL0     C42143   9.959   8.736   0.063 -0.9300 -0.0474  0.6888
  306MOL0     C42144   9.849   8.686   0.125  0.2408 -0.0572 -0.6005
  306MOL0     C42145   9.528   8.512   0.345  0.4362  0.5333 -0.3072
  306MOL0     C42146   9.532   8.609   0.448 -0.2009 -0.0589  0.1472
  306MOL0     C42147   9.429   8.621   0.543 -0.5347 -0.2442 -0.0544
  306MOL0     C42148   9.315   8.547   0.528  0.4407 -1.0012  0.2475
  306MOL0     O42149   9.216   8.571   0.621  0.0780 -0.4020 -0.1640
  306MOL0     C42150   9.093   8.509   0.604  0.0867 -0.1798  0.3272
  306MOL0     C42151   9.011   8.545   0.734  0.3590  0.1454 -0.0613
  306MOL0     C42152   8.866   8.551   0.698  0.9038 -0.5809 -0.9716
  306MOL0     C42153   8.786   8.620   0.808 -0.7430 -0.0586  0.4750
  306MOL0     C42154   8.823   8.763   0.782  0.7786  0.2582 -0.3931
  306MOL0     C42155   8.829   8.883   0.761  0.4141  0.8407  0.0878
  306MOL0     C42156   9.305   8.453   0.417 -1.5471 -0.4707  0.2064
  306MOL0     C42157   9.406   8.445   0.318 -0.3273 -0.5216 -0.6741
  306MOL0     C42158   9.402   8.339   0.206  0.6740  0.3112 -0.0058
  306MOL0     H42159  10.015   8.467   0.323  0.0319  0.8829  0.1635
  306MOL0     H42160  10.202   8.582   0.228  0.2273  2.5166  1.2261
  306MOL0     H42161  10.337   8.647   0.042 -3.0951 -0.5364 -2.4795
  306MOL0     H42162  10.330   8.785   0.155 -2.2594 -2.6162  0.7039
  306MOL0     H42163  10.392   8.756  -0.143 -0.6970 -0.8611  0.7886
  306MOL0     H42164  10.369   8.917  -0.060 -1.2965 -0.2005  3.1840
  306MOL0     H42165  10.549   8.851   0.095 -0.3115 -0.9575  0.0537
  306MOL0     H42166  10.579   8.712  -0.013  0.5202  0.8623 -0.1750
  306MOL0     H42167  10.591   8.895  -0.203  1.3525  0.3456 -0.6536
  306MOL0     H42168  10.607   9.009  -0.084 -0.8075 -0.0453  1.9595
  306MOL0     H42169  10.791   8.814  -0.202  0.5827  1.1219  0.2034
  306MOL0     H42170  10.793   8.777  -0.031 -0.2282  0.1959  1.0923
  306MOL0     H42171  10.839   9.015   0.022  0.7018 -3.9907  1.2930
  306MOL0     H42172  10.973   8.928  -0.046  0.1320  1.9064  4.0636
  306MOL0     H42173  10.796   9.140  -0.161  1.5432  1.8292  2.9392
  306MOL0     H42174  10.887   9.026  -0.281 -0.6156 -0.5030  0.0430
  306MOL0     H42175  10.994   9.249  -0.240 -0.2751 -0.4861  0.0076
  306MOL0     H42176  11.023   9.198  -0.073  0.9343 -1.1667  1.1719
  306MOL0     H42177  11.146   9.178  -0.423 -1.5051 -1.5974 -1.1586
  306MOL0     H42178  11.464   9.069  -0.492  1.7727 -1.3736  0.0481
  306MOL0     H42179  11.308   9.030  -0.555 -0.0028  2.1239 -0.0135
  306MOL0     H42180  11.420   8.815  -0.359 -1.0717  4.2580  1.7665
  306MOL0     H42181  11.311   8.800  -0.488  0.2945 -0.9215 -1.1610
  306MOL0     H42182  11.614   8.846  -0.529  0.3659 -0.2098 -1.5396
  306MOL0     H42183  11.519   8.697  -0.541 -1.2614  0.0610  0.2166
  306MOL0     H42184  11.395   8.838  -0.741  0.2131 -2.3379 -0.2159
  306MOL0     H42185  11.540   8.937  -0.722  1.8375 -0.2491  1.9050
  306MOL0     H42186  11.672   8.646  -0.999  2.3375 -0.5294 -3.6868
  306MOL0     H42187  11.952   8.711  -1.210 -0.8579 -0.0962 -0.9143
  306MOL0     H42188  11.810   8.611  -1.165 -0.0418 -1.1501  0.7334
  306MOL0     H42189  11.975   8.569  -1.110  0.7367  0.2993 -1.6832
  306MOL0     H42190  12.347   8.944  -0.997  1.7510  0.6611 -1.3171
  306MOL0     H42191  12.580   8.898  -1.065 -0.9966  2.0249  1.1162
  306MOL0     H42192  12.765   8.845  -1.143 -1.3375 -1.6933 -0.9354
  306MOL0     H42193  12.782   8.818  -0.962 -3.6154 -0.4609  0.8970
  306MOL0     H42194  12.979   8.665  -1.017  0.1000  0.9393 -0.5362
  306MOL0     H42195  12.940   8.677  -1.187  0.0546 -1.3509  1.1623
  306MOL0     H42196  12.987   8.939  -1.011  0.7709 -0.9299  2.8182
  306MOL0     H42197  12.997   8.911  -1.185 -0.9770 -0.0135 -0.5630
  306MOL0     H42198  13.205   8.774  -1.156  0.8354 -1.8079  2.2844
  306MOL0     H42199  13.191   8.798  -0.984 -3.2806  0.4220  0.5316
  306MOL0     H42200  13.227   9.026  -1.188 -0.4490  0.2188  0.7253
  306MOL0     H42201  13.208   9.054  -1.014  1.0637  0.5932 -0.5549
  306MOL0     H42202  13.444   8.900  -1.145  4.9958  1.6292  1.1928
  306MOL0     H42203  13.419   8.945  -0.971  0.7307  1.0584 -0.6537
  306MOL0     H42204  13.431   9.171  -1.035 -1.0231  0.3897 -0.1591
  306MOL0     H42205  13.434   9.144  -1.212 -1.8447  0.2148  1.4551
  306MOL0     H42206  13.649   8.998  -1.167  1.7850  2.6510 -1.8869
  306MOL0     H42207  13.631   9.047  -1.000  1.1662  3.5173 -0.2454
  306MOL0     H42208  12.515   8.478  -0.988 -2.4496  0.2067  0.0792
  306MOL0     H42209  12.308   8.518  -0.909  0.4371  1.0997  1.8098
  306MOL0     H42210  11.995   8.932  -0.752  3.2083  0.1106 -1.5405
  306MOL0     H42211  11.762   8.890  -0.665 -0.1905 -1.6463 -0.1197
  306MOL0     H42212   9.948   8.807  -0.018 -3.5651  0.0972  1.1120
  306MOL0     H42213   9.749   8.725   0.108  0.4073  0.6564 -0.0063
  306MOL0     H42214   9.617   8.673   0.466  0.1097 -0.6839  0.9392
  306MOL0     H42215   9.429   8.700   0.617 -1.9053 -0.7440  0.5114
  306MOL0     H42216   9.050   8.560   0.517 -1.2275 -1.7853 -0.0190
  306MOL0     H42217   9.114   8.402   0.590  4.1768  0.2542  1.6697
  306MOL0     H42218   9.046   8.635   0.786  1.7539 -0.1619 -0.4023
  306MOL0     H42219   9.025   8.470   0.812  0.0802  2.0561  1.9133
  306MOL0     H42220   8.848   8.598   0.601 -0.4794  1.1054  0.0352
  306MOL0     H42221   8.819   8.453   0.692  4.1397 -2.2802 -1.2425
  306MOL0     H42222   8.817   8.586   0.907  0.8934  3.5255  1.3505
  306MOL0     H42223   8.677   8.610   0.802 -1.0027  2.6360 -0.5663
  306MOL0     H42224   8.825   8.989   0.747 -0.5445  1.3258  3.2425
  306MOL0     H42225   9.216   8.393   0.399 -1.3672 -0.3826 -1.0819
  306MOL0     H42226   9.496   8.285   0.189  0.0794 -0.3806 -1.2346
  306MOL0     H42227   9.337   8.258   0.239  3.7620 -2.2658  0.2914
  306MOL0     H42228   9.373   8.373   0.106 -1.6300 -2.2486 -0.3263
  307MOL0     O42229   1.350  10.138   8.086  0.5659 -0.3151 -0.2207
  307MOL0     C42230   1.321  10.020   8.092 -0.3120  0.2371 -0.0115
  307MOL0     O42231   1.402   9.924   8.047 -0.0869  0.5096 -0.2754
  307MOL0     C42232   1.517   9.957   7.973  0.6533  0.2670 -0.5623
  307MOL0     C42233   1.502   9.978   7.837 -0.2639  0.0692  0.6630
  307MOL0     C42234   1.612  10.025   7.768  0.0525  0.0091  0.3277
  307MOL0     C42235   1.740  10.054   7.833 -0.4130  0.0768 -0.2020
  307MOL0     O42236   1.844  10.121   7.773  0.1662  0.4175  0.4546
  307MOL0     C42237   1.868  10.079   7.634 -0.1591 -0.0466  0.1281
  307MOL0     C42238   1.983  10.151   7.566 -0.8613  0.3217  0.2360
  307MOL0     C42239   2.107  10.182   7.655  0.0158  0.7329 -0.0944
  307MOL0     C42240   2.167  10.316   7.598 -1.1183  0.8146  0.0665
  307MOL0     C42241   2.286  10.377   7.677  0.0452  0.7664 -0.3141
  307MOL0     C42242   2.404  10.277   7.687 -0.1154 -0.5463 -0.4703
  307MOL0     C42243   2.495  10.317   7.813 -0.3670  0.8560  0.4401
  307MOL0     C42244   2.602  10.431   7.789 -0.6045  0.3167 -0.7883
  307MOL0     N42245   2.689  10.445   7.905 -0.3160  0.1444  0.2945
  307MOL0     C42246   2.640  10.491   8.024 -1.0865 -0.0274  0.2547
  307MOL0     C42247   2.753  10.526   8.089  0.3422  0.1460 -0.8367
  307MOL0     C42248   2.763  10.621   8.213 -0.0719  0.4655  0.7138
  307MOL0     C42249   2.626  10.663   8.270  0.2955 -0.9732 -0.4476
  307MOL0     C42250   2.637  10.755   8.394  0.5773 -0.1429 -0.0790
  307MOL0     C42251   2.494  10.803   8.428 -0.7685 -0.1183 -0.0298
  307MOL0     O42252   2.497  10.875   8.548  0.7153 -0.7642 -1.0251
  307MOL0     C42253   2.377  10.923   8.601 -0.3844 -0.3689  0.1300
  307MOL0     C42254   2.250  10.909   8.551  0.8448 -0.0171  0.1782
  307MOL0     C42255   2.137  10.962   8.626  0.3900 -0.3629 -0.2759
  307MOL0     C42256   2.004  10.966   8.547 -0.1942 -0.1147  0.3213
  307MOL0     C42257   2.153  11.042   8.746 -0.1062  0.0034 -0.2153
  307MOL0     C42258   2.035  11.112   8.815 -0.4074  0.2088 -0.0724
  307MOL0     O42259   2.073  11.203   8.909 -0.2067 -0.5057 -0.0741
  307MOL0     C42260   1.961  11.269   8.970 -0.5483  0.4106 -0.0543
  307MOL0     C42261   1.911  11.378   8.899  0.0263  0.4432 -0.0797
  307MOL0     C42262   1.796  11.444   8.941 -0.4308  0.0783 -0.3961
  307MOL0     C42263   1.740  11.411   9.061 -0.3426 -0.5628 -0.5870
  307MOL0     O42264   1.640  11.484   9.126  0.6941 -0.5396 -0.0283
  307MOL0     C42265   1.537  11.561   9.049 -0.1671 -0.4266 -0.3599
  307MOL0     C42266   1.459  11.463   8.968  0.1347  0.7246  0.2653
  307MOL0     C42267   1.411  11.514   8.830  1.1197  0.0230  0.7342
  307MOL0     C42268   1.286  11.429   8.784 -0.0780 -0.1164 -0.2995
  307MOL0     C42269   1.230  11.442   8.639  0.0362  0.2499  0.2877
  307MOL0     C42270   1.144  11.328   8.590  0.8892 -0.6273  0.8760
  307MOL0     C42271   1.116  11.344   8.449 -0.3565 -0.0704 -0.2126
  307MOL0     C42272   1.025  11.227   8.406  0.5206 -0.7617  0.5998
  307MOL0    Cl42273   0.952  11.257   8.247 -0.0284  0.6840 -0.4426
  307MOL0     C42274   1.795  11.299   9.130  0.5201  0.2109  0.2370
  307MOL0     C42275   1.902  11.223   9.080  0.8038  0.0267  0.0642
  307MOL0     O42276   1.923  11.071   8.796  0.0389 -0.1568  0.3017
  307MOL0     C42277   2.281  11.047   8.799 -0.1850 -0.0902  0.4090
  307MOL0     C42278   2.387  10.995   8.720  0.1889 -0.6472 -0.0756
  307MOL0     N42279   2.865  10.483   8.029  0.2065  0.0039  0.2079
  307MOL0     N42280   2.832  10.440   7.909 -0.2697 -0.8607  0.0201
  307MOL0     C42281   1.749  10.025   7.971 -0.2584  0.2181  0.6214
  307MOL0     C42282   1.637   9.967   8.038  0.3616 -1.4323 -0.7389
  307MOL0     C42283   1.197   9.968   8.165  0.8014  0.1824  0.0301
  307MOL0     C42284   1.191   9.834   8.220  0.0043 -0.4272 -0.5549
  307MOL0     C42285   1.083   9.782   8.294 -0.1072 -0.2416  0.2537
  307MOL0     C42286   0.974   9.862   8.318 -0.1166  0.7977  0.0606
  307MOL0     O42287   0.873   9.821   8.400 -0.0995  0.4376  0.0065
  307MOL0     C42288   0.866   9.684   8.443  1.3918 -0.0201 -0.0781
  307MOL0     C42289   0.723   9.680   8.492 -0.5200  0.2119 -0.6917
  307MOL0     C42290   0.632   9.693   8.368 -0.0318  0.4981 -0.0322
  307MOL0     C42291   0.525   9.581   8.345  0.8944 -0.3549 -1.2860
  307MOL0     C42292   0.442   9.551   8.461  0.1459 -0.1793  0.0716
  307MOL0     C42293   0.368   9.501   8.537  0.4155  0.0619  0.4076
  307MOL0     C42294   0.977   9.993   8.268  0.5725 -0.1528  0.0628
  307MOL0     C42295   1.084  10.050   8.198  0.2104  0.2738 -1.1633
  307MOL0     C42296   1.065  10.193   8.142 -0.6976 -0.3750 -0.5925
  307MOL0     H42297   1.408   9.972   7.785  0.9527  2.4833 -2.1197
  307MOL0     H42298   1.586  10.035   7.663  1.4884 -0.0058 -0.0509
  307MOL0     H42299   1.790  10.095   7.559  0.5838  1.6841 -0.3272
  307MOL0     H42300   1.890   9.972   7.643  1.4662  0.1705 -0.7795
  307MOL0     H42301   2.018  10.102   7.475 -1.1437  1.7988 -0.7126
  307MOL0     H42302   1.943  10.250   7.541 -3.0595 -0.9636 -1.5953
  307MOL0     H42303   2.078  10.208   7.757 -1.4291 -0.7418 -0.0935
  307MOL0     H42304   2.177  10.099   7.664 -0.0511  0.8090  1.4267
  307MOL0     H42305   2.211  10.281   7.504  1.3950 -0.4942  1.6073
  307MOL0     H42306   2.098  10.398   7.574  0.2858  1.6769 -1.1643
  307MOL0     H42307   2.257  10.404   7.779  0.2469  0.6384 -0.2218
  307MOL0     H42308   2.319  10.467   7.625  3.0281 -1.3013 -2.4075
  307MOL0     H42309   2.371  10.175   7.709 -1.8183  0.2749  0.9892
  307MOL0     H42310   2.455  10.275   7.590  2.0673 -1.9458  0.6142
  307MOL0     H42311   2.554  10.226   7.825 -1.6583 -0.0368  0.3282
  307MOL0     H42312   2.430  10.328   7.900 -0.8928  0.4515  0.1108
  307MOL0     H42313   2.667  10.411   7.703  1.7720 -0.2804  1.0388
  307MOL0     H42314   2.539  10.518   7.767 -1.5881 -0.2443 -0.2950
  307MOL0     H42315   2.533  10.509   8.030 -1.4843 -2.3046  0.8789
  307MOL0     H42316   2.820  10.708   8.179  0.3606  0.9605  2.6000
  307MOL0     H42317   2.816  10.574   8.296  0.2033 -2.6082 -1.0633
  307MOL0     H42318   2.571  10.712   8.190 -0.7137 -2.9395 -1.0318
  307MOL0     H42319   2.574  10.570   8.294  0.8093 -1.5574 -1.5167
  307MOL0     H42320   2.684  10.709   8.481 -0.9915  1.9428  2.0455
  307MOL0     H42321   2.697  10.843   8.368  1.6051 -1.2302 -1.4867
  307MOL0     H42322   2.456  10.859   8.342  0.8412  2.7143  0.9671
  307MOL0     H42323   2.426  10.718   8.441 -0.1028 -0.2931  3.0666
  307MOL0     H42324   2.226  10.862   8.456 -1.8147  1.5799 -0.0306
  307MOL0     H42325   1.953  11.062   8.544  2.8547  1.6266 -1.1161
  307MOL0     H42326   1.942  10.892   8.598  0.5632  0.4618  2.1715
  307MOL0     H42327   2.008  10.935   8.443  3.1742 -3.2801  1.1749
  307MOL0     H42328   1.966  11.400   8.808 -0.3038 -2.3273 -1.0347
  307MOL0     H42329   1.757  11.515   8.869 -0.4771  1.7871  1.2335
  307MOL0     H42330   1.476  11.611   9.125 -0.0569 -3.4432  1.8818
  307MOL0     H42331   1.587  11.635   8.986 -1.1041 -0.7044 -1.4683
  307MOL0     H42332   1.525  11.384   8.929  0.8124  1.5338 -0.2528
  307MOL0     H42333   1.372  11.425   9.022  0.0266  0.1224 -0.3205
  307MOL0     H42334   1.498  11.494   8.766  1.8837  2.2865  0.9841
  307MOL0     H42335   1.378  11.618   8.827 -0.2843 -0.3867  1.2063
  307MOL0     H42336   1.202  11.438   8.853  0.2510  0.1018  0.0775
  307MOL0     H42337   1.319  11.325   8.785  0.5953  0.0927  0.0276
  307MOL0     H42338   1.170  11.533   8.628 -2.2388 -1.0662  1.1192
  307MOL0     H42339   1.310  11.458   8.566 -1.7053  1.7030 -1.3951
  307MOL0     H42340   1.048  11.328   8.643  1.7526  1.3148  2.5852
  307MOL0     H42341   1.195  11.233   8.609 -0.5524 -2.0634 -1.8053
  307MOL0     H42342   1.206  11.350   8.388 -1.0168  1.1737 -1.1099
  307MOL0     H42343   1.045  11.423   8.423  0.3437  0.0725 -1.7825
  307MOL0     H42344   0.948  11.220   8.484  1.0611 -2.5256  1.0251
  307MOL0     H42345   1.078  11.132   8.397  0.1120 -1.1340  1.9118
  307MOL0     H42346   1.756  11.272   9.228  1.1959 -1.9157 -0.0296
  307MOL0     H42347   1.955  11.145   9.132  2.7756 -0.1527 -2.0657
  307MOL0     H42348   2.301  11.111   8.884  0.7554  0.9728 -0.5709
  307MOL0     H42349   2.485  11.026   8.756  0.0017  0.4410 -0.4730
  307MOL0     H42350   1.849  10.032   8.013  0.8044  0.9165 -1.8772
  307MOL0     H42351   1.643   9.944   8.144  3.5147  1.4943 -0.1166
  307MOL0     H42352   1.280   9.771   8.222 -0.2310 -0.9910  4.3431
  307MOL0     H42353   1.108   9.684   8.334  1.2928 -0.5638 -1.2752
  307MOL0     H42354   0.892   9.614   8.363  3.7025  2.0081 -1.2323
  307MOL0     H42355   0.930   9.667   8.530 -0.4605  1.1472  1.5891
  307MOL0     H42356   0.707   9.770   8.552  1.6585  0.7834 -0.8895
  307MOL0     H42357   0.703   9.589   8.549 -1.4007 -0.1317 -1.5128
  307MOL0     H42358   0.572   9.784   8.383  1.0810  1.0958  0.9991
  307MOL0     H42359   0.691   9.701   8.277 -0.2678 -0.2017 -0.2522
  307MOL0     H42360   0.581   9.493   8.312  0.5721 -0.3146 -1.9521
  307MOL0     H42361   0.461   9.612   8.262  0.8252  0.9400 -0.7702
  307MOL0     H42362   0.298   9.474   8.613  1.8964  0.8301  2.1352
  307MOL0     H42363   0.891  10.059   8.278  0.8909  0.2230  0.3703
  307MOL0     H42364   1.051  10.184   8.034  0.9933 -0.2670 -0.8576
  307MOL0     H42365   0.974  10.241   8.178 -0.6424 -1.5742  1.2517
  307MOL0     H42366   1.152  10.258   8.158 -0.5585 -0.1962 -1.9642
  308MOL0     O42367   1.040   0.417   4.441 -0.2337 -0.4851  0.0206
  308MOL0     C42368   1.068   0.510   4.514 -0.4309 -0.1709  0.0662
  308MOL0     O42369   1.182   0.521   4.583  0.3463  0.2907  0.2205
  308MOL0     C42370   1.290   0.438   4.550  0.0370  0.1876  0.0024
  308MOL0     C42371   1.325   0.318   4.613  0.0597  0.2093 -0.0076
  308MOL0     C42372   1.418   0.234   4.569 -0.5316  0.1609  1.3510
  308MOL0     C42373   1.487   0.260   4.453 -0.5138  0.2096  0.5423
  308MOL0     O42374   1.593   0.175   4.420 -0.4557 -0.6809  0.5336
  308MOL0     C42375   1.625   0.054   4.501  0.7260 -0.5521  0.1131
  308MOL0     C42376   1.768   0.000   4.475 -0.4145  0.0177  0.5653
  308MOL0     C42377   1.778  -0.103   4.368 -0.0392  0.4994  0.4611
  308MOL0     C42378   1.916  -0.173   4.369  0.1009 -0.2053 -0.3111
  308MOL0     C42379   1.932  -0.292   4.281  0.3100  0.7984  0.1264
  308MOL0     C42380   2.070  -0.355   4.290  0.5721  0.2570 -1.3743
  308MOL0     C42381   2.061  -0.489   4.217 -0.0388 -0.2954  0.1191
  308MOL0     C42382   2.194  -0.552   4.229 -0.2304  0.9219  0.1557
  308MOL0     N42383   2.292  -0.467   4.153  0.5643 -0.4005  0.2552
  308MOL0     C42384   2.298  -0.446   4.017  0.3600 -0.3970  0.3502
  308MOL0     C42385   2.396  -0.362   3.997 -0.7496 -0.0580  0.5897
  308MOL0     C42386   2.436  -0.311   3.860 -0.5437 -0.1198 -0.7091
  308MOL0     C42387   2.518  -0.431   3.795  0.3246 -0.1447 -0.3436
  308MOL0     C42388   2.638  -0.479   3.886  1.0673  0.4893  0.1277
  308MOL0     C42389   2.747  -0.373   3.915  0.0340 -0.7605  0.2473
  308MOL0     O42390   2.784  -0.296   3.800 -0.4909  0.1264  0.2720
  308MOL0     C42391   2.911  -0.330   3.760  0.0662 -0.9761 -0.5339
  308MOL0     C42392   2.931  -0.427   3.657  0.0380  0.0633 -0.5274
  308MOL0     C42393   3.061  -0.448   3.599  0.7791 -0.3340 -0.0342
  308MOL0     C42394   3.074  -0.558   3.485  0.8506 -0.3009 -1.8045
  308MOL0     C42395   3.175  -0.379   3.653 -0.0270  0.2181 -0.0103
  308MOL0     C42396   3.317  -0.396   3.608  0.0498  0.3589  1.0463
  308MOL0     O42397   3.345  -0.521   3.570 -0.6015  0.2644  0.3894
  308MOL0     C42398   3.477  -0.555   3.541  0.0397 -0.7928 -0.2871
  308MOL0     C42399   3.557  -0.636   3.627  0.4618 -0.1338 -0.4912
  308MOL0     C42400   3.694  -0.660   3.601 -0.0884 -0.6181 -0.5244
  308MOL0     C42401   3.755  -0.614   3.479  0.1678  1.1475 -0.1671
  308MOL0     O42402   3.889  -0.650   3.466  0.1698 -0.6477  0.1476
  308MOL0     C42403   3.946  -0.616   3.331  0.4466  0.0720  0.2253
  308MOL0     C42404   4.086  -0.667   3.327 -1.0347 -0.1557  0.5898
  308MOL0     C42405   4.151  -0.605   3.197 -0.3606 -0.8859  0.1638
  308MOL0     C42406   4.286  -0.662   3.146  0.4491 -0.7292 -0.1823
  308MOL0     C42407   4.271  -0.809   3.126 -0.4257  0.3557  0.0704
  308MOL0     C42408   4.389  -0.874   3.067  0.4808 -0.1905 -0.2320
  308MOL0     C42409   4.376  -1.032   3.076  0.7521 -0.1714 -0.1248
  308MOL0     C42410   4.258  -1.082   2.994  0.0514 -0.1754 -0.7745
  308MOL0    Cl42411   4.242  -1.264   3.011  0.2768  0.0392  0.0557
  308MOL0     C42412   3.675  -0.536   3.397 -0.2104  0.5310 -0.6382
  308MOL0     C42413   3.543  -0.504   3.431 -0.5922 -0.0348  0.6320
  308MOL0     O42414   3.393  -0.300   3.601  0.1760 -0.3373  0.8446
  308MOL0     C42415   3.157  -0.293   3.762  0.1138  0.8302  0.2486
  308MOL0     C42416   3.029  -0.272   3.813 -0.4171 -0.9274 -0.3241
  308MOL0     N42417   2.470  -0.342   4.111 -0.1463  0.6169  0.0632
  308MOL0     N42418   2.399  -0.402   4.203 -0.7292  0.5538 -0.5327
  308MOL0     C42419   1.458   0.382   4.374 -0.1496 -0.6060  0.1229
  308MOL0     C42420   1.356   0.460   4.431  0.3897  0.0346  0.4595
  308MOL0     C42421   0.963   0.613   4.533 -0.0409 -0.3858  0.8752
  308MOL0     C42422   0.864   0.617   4.435 -0.0976 -0.0240 -0.6572
  308MOL0     C42423   0.773   0.721   4.428 -0.2265  0.0656 -1.1140
  308MOL0     C42424   0.758   0.811   4.533  0.0971  0.6783 -0.5104
  308MOL0     O42425   0.643   0.889   4.542 -0.3109 -0.2395  0.3394
  308MOL0     C42426   0.656   1.012   4.474 -0.0740 -0.9001 -0.4113
  308MOL0     C42427   0.529   1.089   4.452  1.2615  0.6841 -0.5713
  308MOL0     C42428   0.420   1.001   4.390  0.4099 -0.3942  0.3987
  308MOL0     C42429   0.443   0.939   4.255  0.1564 -0.5511  0.2174
  308MOL0     C42430   0.314   0.880   4.199  0.4102 -0.0461  0.0968
  308MOL0     C42431   0.219   0.814   4.158  0.2494 -0.1389 -0.4509
  308MOL0     C42432   0.858   0.807   4.631 -0.0879 -0.4416 -0.4165
  308MOL0     C42433   0.958   0.709   4.636  0.0869  0.5033  0.8900
  308MOL0     C42434   1.036   0.702   4.763 -0.0425 -0.6642  0.4715
  308MOL0     H42435   1.266   0.290   4.699  1.4507  1.0457  1.2720
  308MOL0     H42436   1.425   0.143   4.628 -0.9979 -0.7618  0.0369
  308MOL0     H42437   1.549  -0.024   4.501  1.2830 -1.0968  0.1171
  308MOL0     H42438   1.621   0.083   4.606 -0.9246 -0.7705  0.1466
  308MOL0     H42439   1.823   0.091   4.447 -1.0825 -0.3782 -2.3613
  308MOL0     H42440   1.807  -0.041   4.568 -2.1614  0.7450  1.6746
  308MOL0     H42441   1.696  -0.176   4.374  0.9061 -0.6043  0.2774
  308MOL0     H42442   1.762  -0.053   4.272  1.5753 -0.4819 -0.3642
  308MOL0     H42443   1.999  -0.106   4.344 -1.0762  0.8540 -1.5687
  308MOL0     H42444   1.929  -0.204   4.473  1.3936  0.4689 -0.2489
  308MOL0     H42445   1.904  -0.277   4.177  2.9703  0.5750 -0.6879
  308MOL0     H42446   1.852  -0.365   4.300 -1.8553  2.2888 -2.5428
  308MOL0     H42447   2.140  -0.288   4.240  1.3443  1.5209  1.2483
  308MOL0     H42448   2.103  -0.369   4.394  2.0379  0.9417 -1.7198
  308MOL0     H42449   2.041  -0.473   4.111 -0.4472  0.2092  0.2699
  308MOL0     H42450   1.981  -0.549   4.261  0.1598 -1.4667 -1.0525
  308MOL0     H42451   2.223  -0.546   4.335  1.7000  1.0893 -0.3503
  308MOL0     H42452   2.191  -0.657   4.197  2.8274  1.0149 -0.7130
  308MOL0     H42453   2.239  -0.483   3.934  1.5611  2.8699 -2.1722
  308MOL0     H42454   2.497  -0.222   3.877  0.6237 -1.3472  2.2454
  308MOL0     H42455   2.358  -0.287   3.787 -0.9487 -1.1910 -0.6413
  308MOL0     H42456   2.449  -0.513   3.774 -1.1127  0.3047  2.2173
  308MOL0     H42457   2.560  -0.403   3.698  1.8116  2.7789  1.0318
  308MOL0     H42458   2.600  -0.533   3.973  1.9783 -1.6871 -0.7537
  308MOL0     H42459   2.687  -0.554   3.823 -2.5426 -2.3476  0.4004
  308MOL0     H42460   2.703  -0.297   3.980  1.7795  2.2531 -1.8344
  308MOL0     H42461   2.832  -0.418   3.967 -1.0066 -0.9619  1.8343
  308MOL0     H42462   2.843  -0.480   3.622  0.5569 -1.5328  0.4950
  308MOL0     H42463   2.973  -0.574   3.445  0.5064 -0.6702 -0.8174
  308MOL0     H42464   3.104  -0.654   3.526  1.7101  0.3759 -0.8007
  308MOL0     H42465   3.144  -0.530   3.407 -0.4101  2.9989 -1.9114
  308MOL0     H42466   3.523  -0.679   3.721  2.8929  1.8202  1.4081
  308MOL0     H42467   3.759  -0.724   3.660  2.0043  0.0099 -2.0237
  308MOL0     H42468   3.883  -0.659   3.253 -0.1727  2.1115 -0.4532
  308MOL0     H42469   3.948  -0.510   3.304 -1.4602 -0.3910 -2.0466
  308MOL0     H42470   4.142  -0.633   3.414  1.1417  1.1022 -1.1816
  308MOL0     H42471   4.093  -0.777   3.323  1.4302 -0.0349  0.0620
  308MOL0     H42472   4.164  -0.499   3.217  1.5056 -0.5923 -2.2027
  308MOL0     H42473   4.074  -0.613   3.121 -3.3516  1.2420  2.7275
  308MOL0     H42474   4.368  -0.645   3.216  1.5478 -0.6335 -1.4486
  308MOL0     H42475   4.307  -0.623   3.046 -3.3758  0.9723 -0.5018
  308MOL0     H42476   4.257  -0.865   3.220 -0.7583 -0.7710 -0.6291
  308MOL0     H42477   4.186  -0.832   3.062 -0.8499 -0.2830  0.8415
  308MOL0     H42478   4.473  -0.848   3.131 -1.0214  0.6822  1.4893
  308MOL0     H42479   4.407  -0.835   2.966  1.7389  4.2123  1.4737
  308MOL0     H42480   4.360  -1.062   3.179  1.1164 -0.2675 -0.0974
  308MOL0     H42481   4.465  -1.084   3.040  1.3646  0.2567  0.7503
  308MOL0     H42482   4.261  -1.059   2.887  1.0606 -1.4410 -1.0378
  308MOL0     H42483   4.172  -1.026   3.031  1.4777  0.6570  1.4470
  308MOL0     H42484   3.722  -0.477   3.319 -0.5458 -1.0481 -2.0835
  308MOL0     H42485   3.483  -0.438   3.368 -0.9834 -0.9158  0.0562
  308MOL0     H42486   3.244  -0.244   3.804  2.5449 -1.1229 -2.0566
  308MOL0     H42487   3.026  -0.197   3.890 -1.2934  1.9852 -2.9666
  308MOL0     H42488   1.509   0.407   4.282 -0.7561  2.2078  0.4662
  308MOL0     H42489   1.331   0.551   4.378  0.6510 -0.5853 -0.7411
  308MOL0     H42490   0.874   0.544   4.356  2.6530 -0.7964  0.2789
  308MOL0     H42491   0.687   0.720   4.361 -0.1787  0.7294 -1.1959
  308MOL0     H42492   0.721   1.067   4.543  0.8221 -3.1454  0.6320
  308MOL0     H42493   0.704   1.005   4.375  2.2459  0.9512  0.4592
  308MOL0     H42494   0.554   1.181   4.398 -2.2141  1.0407 -1.8567
  308MOL0     H42495   0.480   1.117   4.546  0.4396 -0.2168 -0.7091
  308MOL0     H42496   0.373   0.929   4.458  1.3097 -0.7523  0.6574
  308MOL0     H42497   0.346   1.078   4.369 -0.0383 -1.3207 -1.7232
  308MOL0     H42498   0.512   0.855   4.268  1.4600  0.5922  0.9952
  308MOL0     H42499   0.496   0.998   4.180 -0.2594 -2.7140 -1.8662
  308MOL0     H42500   0.142   0.746   4.128  0.0571 -1.0944  1.9431
  308MOL0     H42501   0.857   0.886   4.706  0.4887 -1.6355  0.8943
  308MOL0     H42502   1.054   0.599   4.796  2.0138  0.2946  2.6860
  308MOL0     H42503   1.127   0.762   4.757 -0.9775  0.7398 -0.5231
  308MOL0     H42504   0.983   0.751   4.846 -1.0534  0.8648 -1.0193
  309MOL0     O42505  11.019   2.979   4.692  1.1408 -0.8518  0.2765
  309MOL0     C42506  10.967   3.088   4.688 -0.6999  0.2125 -0.1926
  309MOL0     O42507  11.037   3.200   4.689 -0.5281  0.0864  0.4008
  309MOL0     C42508  11.169   3.216   4.669 -0.8432 -0.5503 -0.3316
  309MOL0     C42509  11.200   3.339   4.601 -0.0368  0.2484  0.4586
  309MOL0     C42510  11.335   3.372   4.579  0.0293  0.1584  0.0747
  309MOL0     C42511  11.441   3.291   4.614 -0.9927 -0.8726  0.1246
  309MOL0     O42512  11.584   3.315   4.580  1.1022  0.1094 -0.3599
  309MOL0     C42513  11.646   3.443   4.569 -0.8281 -0.1090  0.1596
  309MOL0     C42514  11.662   3.533   4.690 -0.2343  0.3446 -0.4297
  309MOL0     C42515  11.668   3.455   4.823  0.2122 -0.3564  0.4660
  309MOL0     C42516  11.804   3.393   4.852  0.1735  0.2495  0.4226
  309MOL0     C42517  11.812   3.314   4.983 -0.1215  0.2520 -0.1021
  309MOL0     C42518  11.762   3.395   5.103 -0.1391 -0.6624  0.6916
  309MOL0     C42519  11.823   3.344   5.234  0.8269  0.3497  0.0666
  309MOL0     C42520  11.957   3.402   5.258  0.0829 -0.4807 -0.1241
  309MOL0     N42521  11.970   3.546   5.268  0.2312 -0.0369  0.2730
  309MOL0     C42522  12.087   3.599   5.283 -0.5461 -0.2228  0.0465
  309MOL0     C42523  12.068   3.711   5.350  0.2852 -0.2093  0.3725
  309MOL0     C42524  12.170   3.811   5.391  0.1233 -0.1975 -0.2146
  309MOL0     C42525  12.240   3.782   5.524 -0.6943  0.5025 -0.2261
  309MOL0     C42526  12.329   3.657   5.505 -0.4920 -0.0870 -0.8336
  309MOL0     C42527  12.417   3.628   5.623 -0.6384  0.2952 -1.0740
  309MOL0     O42528  12.512   3.736   5.648  0.0532  0.2986  0.5027
  309MOL0     C42529  12.581   3.726   5.762  0.5677 -0.6488  0.3675
  309MOL0     C42530  12.607   3.846   5.826 -0.1700 -0.5418 -0.0533
  309MOL0     C42531  12.690   3.848   5.941  1.4021 -1.0345 -0.5637
  309MOL0     C42532  12.716   3.989   6.000 -0.7288 -0.1627  0.3694
  309MOL0     C42533  12.755   3.737   5.982  0.4899  0.6639 -0.0318
  309MOL0     C42534  12.834   3.739   6.108 -0.2808  0.0602  0.0567
  309MOL0     O42535  12.962   3.694   6.105  0.0018  0.1690 -0.2093
  309MOL0     C42536  13.021   3.688   6.227 -0.4077  0.4854 -0.6376
  309MOL0     C42537  13.094   3.794   6.281  0.5630 -0.5193 -0.0629
  309MOL0     C42538  13.154   3.785   6.411 -0.1608 -0.0037 -0.5650
  309MOL0     C42539  13.165   3.660   6.469  0.1605 -0.4403  0.0342
  309MOL0     O42540  13.247   3.638   6.579  0.4984  0.1161 -0.0990
  309MOL0     C42541  13.284   3.754   6.660 -0.3604  0.5426  0.5790
  309MOL0     C42542  13.370   3.721   6.779  0.7826 -0.1610 -0.2657
  309MOL0     C42543  13.491   3.634   6.741  1.0491 -0.3824 -0.3403
  309MOL0     C42544  13.585   3.684   6.627 -0.4579 -0.6955  0.6272
  309MOL0     C42545  13.697   3.587   6.601  0.0899 -0.0596  0.5422
  309MOL0     C42546  13.720   3.560   6.453  0.9100 -0.6460  0.0298
  309MOL0     C42547  13.866   3.536   6.420 -0.1299 -0.6215  0.2699
  309MOL0     C42548  13.931   3.427   6.507  0.7178  0.5616  0.2799
  309MOL0    Cl42549  14.073   3.365   6.424 -0.6380 -0.0784  0.2691
  309MOL0     C42550  13.102   3.547   6.414  0.5772 -0.8676  0.1085
  309MOL0     C42551  13.034   3.561   6.291  0.0496  0.1907 -0.7441
  309MOL0     O42552  12.779   3.789   6.207  0.5993  0.5618  0.4063
  309MOL0     C42553  12.737   3.617   5.912  0.5763  0.4472  0.1577
  309MOL0     C42554  12.645   3.610   5.810 -0.0954 -0.2079 -0.2874
  309MOL0     N42555  11.929   3.744   5.345 -0.1284  0.2446  0.3326
  309MOL0     N42556  11.873   3.636   5.291 -1.0476 -0.1198  0.4494
  309MOL0     C42557  11.409   3.169   4.676  0.0203  0.0571  0.3730
  309MOL0     C42558  11.273   3.133   4.708 -0.4511  0.2851  0.0823
  309MOL0     C42559  10.823   3.088   4.643  0.2167  0.0648 -0.3094
  309MOL0     C42560  10.749   2.969   4.653  0.2503  0.1417 -0.0346
  309MOL0     C42561  10.612   2.960   4.617 -0.2543  0.1377 -0.0130
  309MOL0     C42562  10.549   3.075   4.559  0.9641  1.0822  0.2214
  309MOL0     O42563  10.409   3.048   4.536 -0.2811 -0.6698  0.9661
  309MOL0     C42564  10.345   3.165   4.486 -0.0911  0.6886  0.0174
  309MOL0     C42565  10.200   3.125   4.473 -1.2260  0.1747 -1.1799
  309MOL0     C42566  10.119   3.224   4.391  0.1604 -0.1083  0.6166
  309MOL0     C42567   9.983   3.178   4.359  0.3947  0.1104  0.9276
  309MOL0     C42568   9.905   3.271   4.268 -0.0161  0.3750 -0.1857
  309MOL0     C42569   9.841   3.355   4.210  0.8197 -0.0512  0.3254
  309MOL0     C42570  10.621   3.197   4.541  0.8986 -0.2883 -0.0458
  309MOL0     C42571  10.756   3.200   4.585  0.1050 -0.8588  0.8389
  309MOL0     C42572  10.822   3.331   4.558  0.4902  0.8314  0.1770
  309MOL0     H42573  11.124   3.401   4.553  1.4517  0.7536 -1.3777
  309MOL0     H42574  11.349   3.464   4.523 -0.5450 -0.7907 -1.7215
  309MOL0     H42575  11.593   3.504   4.496 -0.3324 -0.4749 -0.5214
  309MOL0     H42576  11.751   3.435   4.537 -0.5262  0.2200  1.0298
  309MOL0     H42577  11.746   3.602   4.677  0.4978  0.1692  2.5710
  309MOL0     H42578  11.566   3.587   4.688 -0.4591 -0.0379 -3.3850
  309MOL0     H42579  11.625   3.525   4.895 -1.5677  0.3944 -1.2325
  309MOL0     H42580  11.597   3.372   4.821 -0.4018  0.1489  0.8563
  309MOL0     H42581  11.831   3.329   4.768 -0.8283  0.0088  0.2753
  309MOL0     H42582  11.883   3.467   4.866  2.3527 -2.1935  2.1342
  309MOL0     H42583  11.919   3.297   5.000 -0.1091 -0.3215 -0.7577
  309MOL0     H42584  11.755   3.221   4.980 -1.6238  1.1834 -2.7007
  309MOL0     H42585  11.795   3.499   5.086  0.8025 -1.2707 -1.6502
  309MOL0     H42586  11.653   3.400   5.108 -0.1264  1.7513  0.1305
  309MOL0     H42587  11.829   3.235   5.230 -1.0542  0.1826  0.4987
  309MOL0     H42588  11.756   3.368   5.317  1.8182 -0.1156  1.0217
  309MOL0     H42589  12.000   3.360   5.349 -0.8727  1.8774  1.5394
  309MOL0     H42590  12.014   3.374   5.169 -3.7680 -2.2586 -2.2784
  309MOL0     H42591  12.186   3.556   5.271 -0.2763  0.3432  0.2440
  309MOL0     H42592  12.118   3.906   5.406 -0.4196 -0.5583  0.2546
  309MOL0     H42593  12.244   3.833   5.314 -0.3512 -2.4393 -1.4080
  309MOL0     H42594  12.305   3.861   5.563 -0.0759 -0.6277  1.1503
  309MOL0     H42595  12.157   3.759   5.592 -1.9438 -0.8402 -2.1016
  309MOL0     H42596  12.267   3.570   5.483 -0.2710 -1.1150  2.2759
  309MOL0     H42597  12.397   3.690   5.425  1.7617  0.1524  1.0725
  309MOL0     H42598  12.358   3.615   5.714  1.9146 -2.0269  0.4124
  309MOL0     H42599  12.466   3.531   5.606 -3.5649 -1.4837 -0.0179
  309MOL0     H42600  12.569   3.936   5.778 -1.7940 -0.9745  0.3499
  309MOL0     H42601  12.700   4.065   5.923  0.2493 -2.9916 -2.9369
  309MOL0     H42602  12.822   4.008   6.018 -0.2979  1.5931 -3.0468
  309MOL0     H42603  12.657   4.006   6.090  0.8295  3.4218  0.8891
  309MOL0     H42604  13.089   3.884   6.220 -1.4928 -1.0850 -0.8144
  309MOL0     H42605  13.204   3.872   6.453 -1.5647  0.6377 -0.1792
  309MOL0     H42606  13.338   3.825   6.596 -0.9469  2.1405  1.7934
  309MOL0     H42607  13.194   3.803   6.699 -0.8899  0.2623 -0.2430
  309MOL0     H42608  13.403   3.808   6.835  1.4554  0.7350 -1.9628
  309MOL0     H42609  13.304   3.675   6.853  0.5364 -0.1504 -0.4718
  309MOL0     H42610  13.449   3.539   6.708  0.4433 -1.5982  3.4046
  309MOL0     H42611  13.559   3.605   6.822 -1.9306 -1.9760  1.8001
  309MOL0     H42612  13.618   3.784   6.657  0.0176 -0.5581 -0.3070
  309MOL0     H42613  13.523   3.702   6.539 -3.5794 -1.9250  2.4130
  309MOL0     H42614  13.790   3.623   6.646  0.0332  0.1585  0.4892
  309MOL0     H42615  13.668   3.496   6.653  1.0035  0.0163  1.2124
  309MOL0     H42616  13.682   3.641   6.391  0.9281  0.0587  0.9292
  309MOL0     H42617  13.668   3.467   6.426  1.0549 -0.2059 -1.9019
  309MOL0     H42618  13.920   3.629   6.442  0.7228 -1.2701  0.9796
  309MOL0     H42619  13.876   3.513   6.314  0.7921  0.1408  0.1710
  309MOL0     H42620  13.870   3.336   6.512  0.2920  0.7779 -0.6609
  309MOL0     H42621  13.959   3.457   6.608 -2.2622 -3.4491  2.6049
  309MOL0     H42622  13.111   3.450   6.461  0.7850 -0.3792  1.1135
  309MOL0     H42623  12.992   3.482   6.231 -2.1935  1.3879 -0.8737
  309MOL0     H42624  12.780   3.523   5.945  0.6062  0.9238  1.5203
  309MOL0     H42625  12.620   3.513   5.769  0.5195 -0.4632 -0.0792
  309MOL0     H42626  11.494   3.106   4.703  0.9293  1.5201  1.0920
  309MOL0     H42627  11.245   3.044   4.762 -1.7487  1.2866  1.1238
  309MOL0     H42628  10.797   2.885   4.703  1.6858  0.2954 -1.0724
  309MOL0     H42629  10.550   2.872   4.631 -0.9387  0.4018 -1.3027
  309MOL0     H42630  10.348   3.251   4.553 -0.4434  0.0300  0.8914
  309MOL0     H42631  10.383   3.194   4.388 -1.4758 -1.7833 -1.3542
  309MOL0     H42632  10.154   3.115   4.572 -0.5766 -2.2943 -1.0534
  309MOL0     H42633  10.198   3.025   4.429 -1.1899 -0.0296 -0.7225
  309MOL0     H42634  10.111   3.324   4.436 -3.6794  0.8411 -1.6425
  309MOL0     H42635  10.163   3.237   4.292  0.5339 -0.6011  0.7138
  309MOL0     H42636   9.927   3.156   4.451  2.2469 -1.2462  1.8063
  309MOL0     H42637   9.989   3.082   4.305  1.0213 -0.2371  1.5981
  309MOL0     H42638   9.778   3.429   4.167  1.9702  0.7656 -0.0145
  309MOL0     H42639  10.579   3.283   4.491  3.1665  1.7632  1.3132
  309MOL0     H42640  10.837   3.380   4.654 -1.7587  2.5092 -0.2332
  309MOL0     H42641  10.915   3.308   4.505  0.2536  1.7026 -0.6547
  309MOL0     H42642  10.759   3.394   4.494  0.5829 -0.7355 -1.5725
  310MOL0     O42643   2.876   7.333   4.422  0.8159 -0.6809 -0.1756
  310MOL0     C42644   2.992   7.360   4.441  0.1110  0.9581  0.1483
  310MOL0     O42645   3.051   7.478   4.457 -0.0791 -0.3955 -0.4760
  310MOL0     C42646   2.975   7.596   4.463  0.0739 -0.7552  0.0297
  310MOL0     C42647   2.841   7.630   4.417  0.2412  0.2032 -0.7164
  310MOL0     C42648   2.790   7.759   4.439  1.3097  1.1470 -0.4079
  310MOL0     C42649   2.869   7.863   4.486 -0.5865 -0.2037 -0.2553
  310MOL0     O42650   2.803   7.985   4.477  0.1107 -0.0022  0.2209
  310MOL0     C42651   2.856   8.080   4.572 -0.0026 -0.3704  0.2329
  310MOL0     C42652   2.814   8.228   4.527  0.0911  0.1377 -0.1073
  310MOL0     C42653   2.818   8.323   4.646 -0.2075 -0.5007  0.5468
  310MOL0     C42654   2.876   8.462   4.592  0.2653  0.6665  0.6054
  310MOL0     C42655   2.883   8.560   4.704 -0.0815 -0.2698 -0.0327
  310MOL0     C42656   2.938   8.693   4.643  0.7123  0.4352 -0.2762
  310MOL0     C42657   2.973   8.797   4.749  0.3259  0.0622 -0.0151
  310MOL0     C42658   3.013   8.933   4.697  0.0629  0.1105 -0.7654
  310MOL0     N42659   3.125   8.952   4.607  0.0997 -0.6373  0.1194
  310MOL0     C42660   3.171   9.078   4.565 -0.1254 -0.7429  0.5356
  310MOL0     C42661   3.284   9.051   4.492 -0.1545 -0.0440  1.2675
  310MOL0     C42662   3.371   9.148   4.429  0.3219 -0.4855 -0.2466
  310MOL0     C42663   3.447   9.250   4.527  0.0920  0.1935  0.9373
  310MOL0     C42664   3.560   9.188   4.613  0.4686 -0.0124  0.2054
  310MOL0     C42665   3.643   9.294   4.691  0.2945  0.0534  0.0071
  310MOL0     O42666   3.740   9.366   4.616  0.7485 -0.2045 -0.8624
  310MOL0     C42667   3.837   9.440   4.681  0.1263  0.0854  0.2293
  310MOL0     C42668   3.849   9.454   4.822  0.0662 -0.6201 -0.2787
  310MOL0     C42669   3.960   9.514   4.879  0.5194 -0.1452  1.0103
  310MOL0     C42670   3.972   9.523   5.029  0.4630 -0.6333 -0.1462
  310MOL0     C42671   4.065   9.565   4.793 -0.6823  0.5518 -0.2490
  310MOL0     C42672   4.193   9.623   4.840 -0.3613  0.4897  0.7325
  310MOL0     O42673   4.242   9.734   4.774  0.7298  0.0301  0.0599
  310MOL0     C42674   4.372   9.787   4.790  0.8856 -0.3484 -0.0840
  310MOL0     C42675   4.390   9.921   4.792 -0.3294 -0.2762  0.1228
  310MOL0     C42676   4.517   9.984   4.793  0.7854 -0.2069  0.5428
  310MOL0     C42677   4.629   9.893   4.798  0.2337  0.3449  0.4906
  310MOL0     O42678   4.765   9.928   4.808  0.4758 -0.8949 -0.2346
  310MOL0     C42679   4.794  10.067   4.816 -0.1685  0.0384 -0.3516
  310MOL0     C42680   4.947  10.075   4.820 -0.6890  0.6583  0.0963
  310MOL0     C42681   4.978  10.211   4.871  0.3301  0.0434 -0.0721
  310MOL0     C42682   5.128  10.240   4.884 -0.1978  0.0523  0.4200
  310MOL0     C42683   5.168  10.380   4.929 -0.0181 -0.3635  0.2076
  310MOL0     C42684   5.318  10.408   4.961 -0.1194  0.0471 -0.2117
  310MOL0     C42685   5.358  10.552   4.994  0.4328 -0.6064 -0.0132
  310MOL0     C42686   5.511  10.573   4.999 -0.2747 -0.1811  0.1796
  310MOL0    Cl42687   5.604  10.433   5.049  0.2961  0.1250  0.3754
  310MOL0     C42688   4.612   9.762   4.792 -0.7487 -0.9034  0.4897
  310MOL0     C42689   4.480   9.705   4.788 -0.0771 -0.2515 -0.2969
  310MOL0     O42690   4.256   9.565   4.924 -0.2758 -0.6576  0.1198
  310MOL0     C42691   4.049   9.564   4.653 -0.5309 -0.1545 -0.4413
  310MOL0     C42692   3.938   9.497   4.606 -0.0202  0.0783  1.0094
  310MOL0     N42693   3.311   8.916   4.500 -0.0290  0.0691 -0.3752
  310MOL0     N42694   3.213   8.856   4.566 -0.1998 -0.3807 -0.6024
  310MOL0     C42695   3.000   7.832   4.523 -0.3801 -0.5203 -0.2655
  310MOL0     C42696   3.052   7.705   4.511 -0.0790  0.8415  0.4204
  310MOL0     C42697   3.081   7.245   4.437  0.4922 -0.5136  0.1481
  310MOL0     C42698   3.217   7.272   4.438 -0.0042  0.1864 -0.0614
  310MOL0     C42699   3.316   7.169   4.444 -0.6684 -0.3921 -0.0490
  310MOL0     C42700   3.285   7.039   4.426  0.3038  0.2675  0.7045
  310MOL0     O42701   3.380   6.945   4.409 -0.4804  0.8347 -0.2722
  310MOL0     C42702   3.520   6.986   4.391  0.3477  0.4978 -0.6790
  310MOL0     C42703   3.602   6.860   4.366 -1.0049  0.5753  0.1569
  310MOL0     C42704   3.756   6.884   4.380  0.2129 -0.6205 -0.2478
  310MOL0     C42705   3.819   6.748   4.342 -0.3417 -0.6522 -0.0771
  310MOL0     C42706   3.825   6.730   4.191  0.6829  0.2015 -0.9186
  310MOL0     C42707   3.830   6.720   4.070  0.4246  0.1231  0.1916
  310MOL0     C42708   3.149   7.009   4.429  0.0114  0.3644 -1.4087
  310MOL0     C42709   3.043   7.104   4.430 -0.1575  0.3580 -1.2297
  310MOL0     C42710   2.898   7.056   4.452 -0.4626 -0.2318  0.6255
  310MOL0     H42711   2.767   7.561   4.378 -0.1180  0.2535 -0.1196
  310MOL0     H42712   2.695   7.781   4.392  1.3439 -0.4788 -1.3051
  310MOL0     H42713   2.962   8.087   4.599 -0.8606  4.5262  3.6148
  310MOL0     H42714   2.806   8.068   4.669 -0.1537  1.5011  0.4092
  310MOL0     H42715   2.886   8.250   4.448  1.1558 -2.3014  0.0966
  310MOL0     H42716   2.715   8.230   4.480  1.3963 -0.1499 -3.1013
  310MOL0     H42717   2.722   8.338   4.695 -1.3674 -1.6007 -1.2655
  310MOL0     H42718   2.878   8.293   4.732  0.0312 -0.2435  0.4724
  310MOL0     H42719   2.973   8.438   4.549 -0.1465 -0.8773  0.4952
  310MOL0     H42720   2.806   8.491   4.513 -1.0502 -0.4733  1.3085
  310MOL0     H42721   2.943   8.535   4.792 -0.3888  0.0812  0.2821
  310MOL0     H42722   2.782   8.578   4.744  0.3816 -3.0605  2.7554
  310MOL0     H42723   3.023   8.683   4.576  2.3270 -0.8544  1.8272
  310MOL0     H42724   2.846   8.725   4.592 -1.0179  0.4418  2.5994
  310MOL0     H42725   3.057   8.753   4.803 -0.9644 -1.2421  1.0097
  310MOL0     H42726   2.890   8.812   4.819  1.4242 -0.9748  1.5786
  310MOL0     H42727   2.919   8.975   4.659 -1.9633 -1.5183  1.9899
  310MOL0     H42728   3.021   8.998   4.784 -1.5087 -0.0782 -0.4491
  310MOL0     H42729   3.137   9.176   4.595  1.6765  0.4829 -1.1496
  310MOL0     H42730   3.305   9.193   4.355  0.6495 -0.4797 -0.5370
  310MOL0     H42731   3.443   9.090   4.372 -1.3395 -2.2104 -0.6698
  310MOL0     H42732   3.492   9.329   4.465 -1.4544 -0.5299 -1.2482
  310MOL0     H42733   3.374   9.293   4.596  0.1242  0.4718  0.8022
  310MOL0     H42734   3.515   9.121   4.687  4.2801 -0.7495  2.1159
  310MOL0     H42735   3.622   9.135   4.541  0.3248  0.1539 -0.0443
  310MOL0     H42736   3.578   9.362   4.746  2.1048  0.9779  1.0647
  310MOL0     H42737   3.697   9.252   4.776 -0.8902  1.6780  1.6406
  310MOL0     H42738   3.776   9.408   4.888 -0.0796 -0.1563 -0.1097
  310MOL0     H42739   4.045   9.448   5.063  2.4960  1.0136 -0.6428
  310MOL0     H42740   3.881   9.492   5.081  1.0600  0.1600  1.4406
  310MOL0     H42741   4.004   9.623   5.060 -0.0661  0.3025 -2.4042
  310MOL0     H42742   4.298   9.976   4.773  0.5010  1.5297  1.0434
  310MOL0     H42743   4.512  10.092   4.801  0.1239 -0.3113  1.9637
  310MOL0     H42744   4.757  10.128   4.733  1.0986  1.3947  0.0299
  310MOL0     H42745   4.760  10.107   4.912  2.3516  1.1432  0.1703
  310MOL0     H42746   4.988   9.999   4.888  0.6938  1.3349  0.0461
  310MOL0     H42747   4.992  10.067   4.721  0.3935 -1.1238  0.6888
  310MOL0     H42748   4.932  10.234   4.967  0.2329  0.0987 -0.1319
  310MOL0     H42749   4.935  10.278   4.797  0.3660 -0.1641 -0.2827
  310MOL0     H42750   5.187  10.224   4.793  0.0261 -1.3571  0.7811
  310MOL0     H42751   5.166  10.163   4.952 -1.8741  1.2955  2.9014
  310MOL0     H42752   5.150  10.433   4.835 -0.3389 -3.3355 -1.5549
  310MOL0     H42753   5.097  10.422   5.001 -0.0407  0.8288 -0.4865
  310MOL0     H42754   5.377  10.371   4.877 -2.7763 -0.1921 -2.1209
  310MOL0     H42755   5.335  10.360   5.058  0.2097 -1.0958 -0.8131
  310MOL0     H42756   5.325  10.580   5.094  2.9056  0.9948  0.4407
  310MOL0     H42757   5.305  10.618   4.925  0.9033  0.7086  0.8394
  310MOL0     H42758   5.522  10.654   5.071 -1.1933 -0.3181  0.4891
  310MOL0     H42759   5.542  10.599   4.898  2.6778  0.4398  1.1470
  310MOL0     H42760   4.692   9.689   4.788 -0.0640 -0.1529  0.4668
  310MOL0     H42761   4.458   9.599   4.784  0.5510 -0.3702 -0.6298
  310MOL0     H42762   4.124   9.605   4.586  0.5980 -1.7629 -0.2344
  310MOL0     H42763   3.926   9.481   4.500 -0.1394  0.0398  1.0283
  310MOL0     H42764   3.068   7.904   4.565  0.3226 -0.9284 -0.6792
  310MOL0     H42765   3.153   7.685   4.543  0.0418  1.2884  0.3186
  310MOL0     H42766   3.263   7.370   4.434 -1.2500  0.7634 -0.9947
  310MOL0     H42767   3.421   7.196   4.440 -1.0817  1.1713 -1.9901
  310MOL0     H42768   3.536   7.045   4.300 -1.5265  1.3776 -0.4901
  310MOL0     H42769   3.568   7.033   4.477  0.2124  0.6715 -0.6985
  310MOL0     H42770   3.576   6.814   4.270  4.8965 -2.0716 -0.6553
  310MOL0     H42771   3.580   6.783   4.441  0.6880  0.2816  0.3904
  310MOL0     H42772   3.782   6.971   4.319 -0.2503  0.5243  1.1449
  310MOL0     H42773   3.785   6.908   4.482 -0.6907 -0.3508 -0.0421
  310MOL0     H42774   3.766   6.670   4.397  0.9591 -1.7936 -0.3821
  310MOL0     H42775   3.922   6.750   4.377 -0.2062  0.8857 -0.4985
  310MOL0     H42776   3.821   6.702   3.965  0.8823  1.7740 -0.1548
  310MOL0     H42777   3.129   6.902   4.425 -0.1922  0.0626  2.9405
  310MOL0     H42778   2.828   7.110   4.388 -0.3441 -0.1236  0.5879
  310MOL0     H42779   2.886   6.949   4.434 -2.4694  0.4459 -3.1143
  310MOL0     H42780   2.873   7.086   4.554 -1.3267 -0.5358  0.5094
  311MOL0     O42781   9.248   4.587   3.920 -0.2658  0.4390  0.1966
  311MOL0     C42782   9.174   4.491   3.936  0.6140  0.4038  0.2997
  311MOL0     O42783   9.219   4.356   3.921 -0.1641 -0.7740  0.6135
  311MOL0     C42784   9.354   4.337   3.942 -0.9789  0.5389  0.7300
  311MOL0     C42785   9.420   4.387   4.055 -0.1374  0.1310  0.4912
  311MOL0     C42786   9.557   4.383   4.067  0.1151 -0.3385 -0.1636
  311MOL0     C42787   9.636   4.338   3.966 -0.5187  0.9876  0.6834
  311MOL0     O42788   9.773   4.343   3.976  0.0265 -0.1626  0.0522
  311MOL0     C42789   9.838   4.424   3.881 -0.7975  0.2775 -0.3756
  311MOL0     C42790   9.991   4.427   3.917 -0.3257  0.1296  0.2910
  311MOL0     C42791  10.061   4.293   3.878 -0.0673  0.4083 -0.4691
  311MOL0     C42792  10.208   4.296   3.914  0.3890 -0.4982 -0.3925
  311MOL0     C42793  10.287   4.412   3.856 -0.0424 -0.2064 -0.1801
  311MOL0     C42794  10.430   4.405   3.894 -0.5202 -0.9295  0.7055
  311MOL0     C42795  10.499   4.540   3.864  0.0468  0.1481  0.4506
  311MOL0     C42796  10.646   4.514   3.852 -0.7184 -0.4147 -0.7812
  311MOL0     N42797  10.709   4.646   3.862 -0.2091  0.5854  0.1014
  311MOL0     C42798  10.662   4.765   3.801  0.5919 -0.0297 -0.1079
  311MOL0     C42799  10.750   4.856   3.841 -0.0390  0.3482  0.1042
  311MOL0     C42800  10.755   5.003   3.823 -0.3707 -0.4015 -0.7061
  311MOL0     C42801  10.704   5.043   3.677 -0.2054 -0.4254 -0.3661
  311MOL0     C42802  10.781   5.003   3.549 -0.3976 -0.3575  0.3997
  311MOL0     C42803  10.936   5.012   3.568 -0.7232 -0.3175 -0.0712
  311MOL0     O42804  10.979   5.147   3.606  0.6946  0.2773 -0.5187
  311MOL0     C42805  11.114   5.170   3.587  0.1129  0.1339  0.1785
  311MOL0     C42806  11.209   5.072   3.587  0.1286 -0.5891 -0.7630
  311MOL0     C42807  11.342   5.104   3.555 -0.0519  0.0101  0.3396
  311MOL0     C42808  11.429   4.983   3.514 -0.8606  0.3000 -0.3305
  311MOL0     C42809  11.379   5.244   3.540 -0.8021  0.5049  0.1738
  311MOL0     C42810  11.513   5.287   3.495 -0.3090 -0.2510  0.0666
  311MOL0     O42811  11.571   5.388   3.572  0.3261 -0.4651  0.7135
  311MOL0     C42812  11.692   5.437   3.538 -0.2133  0.6638  0.4571
  311MOL0     C42813  11.750   5.432   3.405  0.1748  0.1798 -0.4154
  311MOL0     C42814  11.876   5.484   3.378 -0.2293 -0.4072 -0.0189
  311MOL0     C42815  11.946   5.553   3.480  0.4061 -0.2886 -0.2267
  311MOL0     O42816  12.078   5.603   3.443 -0.1562 -0.2042 -0.4384
  311MOL0     C42817  12.137   5.720   3.505  0.3471  0.0206 -0.0601
  311MOL0     C42818  12.226   5.679   3.624 -0.0470 -0.0003 -0.8894
  311MOL0     C42819  12.341   5.581   3.595 -1.0681  0.3553  0.0887
  311MOL0     C42820  12.421   5.551   3.721  0.0422  0.2247  0.7224
  311MOL0     C42821  12.559   5.506   3.690 -0.7572 -0.1660 -0.1524
  311MOL0     C42822  12.644   5.481   3.817  1.0125 -0.1571 -0.3790
  311MOL0     C42823  12.788   5.442   3.773  0.2878 -0.4384 -0.3011
  311MOL0     C42824  12.894   5.468   3.883 -0.8357  0.1111 -0.1880
  311MOL0    Cl42825  13.026   5.345   3.863  0.0162 -0.4390 -0.3782
  311MOL0     C42826  11.886   5.559   3.607 -0.1530  0.4474  0.1666
  311MOL0     C42827  11.758   5.506   3.640 -0.0315 -0.4621 -0.6519
  311MOL0     O42828  11.567   5.221   3.410 -0.1027 -0.0218  0.2609
  311MOL0     C42829  11.281   5.342   3.548  0.0754  0.6812  1.0096
  311MOL0     C42830  11.153   5.302   3.564 -0.5064 -0.3910  0.1434
  311MOL0     N42831  10.851   4.789   3.911  0.5661  0.0344  0.1001
  311MOL0     N42832  10.833   4.669   3.907  0.1370  0.1801 -0.1986
  311MOL0     C42833   9.575   4.289   3.847 -0.1759  0.7855 -0.8295
  311MOL0     C42834   9.434   4.293   3.833 -0.9892  0.2892  0.5038
  311MOL0     C42835   9.034   4.516   3.940  0.5126  0.0295 -0.1819
  311MOL0     C42836   8.948   4.421   3.881 -0.3511 -0.6551 -0.4265
  311MOL0     C42837   8.807   4.435   3.864 -0.9349 -0.0543  0.9321
  311MOL0     C42838   8.746   4.547   3.920  0.6894 -0.1950  0.7194
  311MOL0     O42839   8.614   4.565   3.884 -0.8747 -0.3849 -0.5576
  311MOL0     C42840   8.596   4.644   3.764  0.5083  0.0169 -0.3316
  311MOL0     C42841   8.506   4.766   3.795  0.6100  0.0737 -0.3957
  311MOL0     C42842   8.462   4.828   3.659  0.4946  0.4062 -0.3827
  311MOL0     C42843   8.567   4.913   3.585 -0.3299  0.0590 -0.9065
  311MOL0     C42844   8.608   5.031   3.667  0.7422 -0.1391  0.3932
  311MOL0     C42845   8.638   5.128   3.728 -0.7661  0.5505 -0.6475
  311MOL0     C42846   8.832   4.644   3.985 -0.0804  0.0478 -0.4317
  311MOL0     C42847   8.969   4.620   4.005  0.3053 -0.1855 -0.1828
  311MOL0     C42848   9.039   4.716   4.086  0.3803 -0.3844 -0.1030
  311MOL0     H42849   9.363   4.444   4.128 -0.3037  0.7910 -0.1352
  311MOL0     H42850   9.595   4.422   4.161 -1.4025  0.1197  0.2951
  311MOL0     H42851   9.794   4.524   3.887 -1.2608  0.2401 -2.4118
  311MOL0     H42852   9.825   4.377   3.783 -0.7240 -2.0676  0.6870
  311MOL0     H42853  10.035   4.510   3.862 -0.4882  0.0852  0.0919
  311MOL0     H42854  10.012   4.453   4.021  0.1838  0.8666  0.0102
  311MOL0     H42855  10.018   4.202   3.922  1.8103 -0.6097 -0.6673
  311MOL0     H42856  10.060   4.274   3.771  2.0852 -2.3465 -0.1044
  311MOL0     H42857  10.222   4.295   4.023  1.7216  1.5340 -0.4875
  311MOL0     H42858  10.261   4.206   3.882 -0.6005 -1.0969 -0.4028
  311MOL0     H42859  10.260   4.513   3.888 -0.5689 -0.2202 -0.5570
  311MOL0     H42860  10.282   4.408   3.747  0.0954 -1.6191 -0.1558
  311MOL0     H42861  10.440   4.396   4.003 -2.4555 -0.7351  0.9495
  311MOL0     H42862  10.489   4.327   3.846  2.9384  1.7971  0.1654
  311MOL0     H42863  10.475   4.614   3.942 -2.0447  0.2485 -0.2120
  311MOL0     H42864  10.465   4.588   3.772  0.2681  0.4914  0.5445
  311MOL0     H42865  10.683   4.449   3.932  0.2585  0.0475 -0.8397
  311MOL0     H42866  10.662   4.463   3.757  0.1878 -1.9178  0.1377
  311MOL0     H42867  10.572   4.778   3.742  1.5290 -1.5403 -1.9540
  311MOL0     H42868  10.852   5.051   3.839  0.6869 -2.3167 -1.0796
  311MOL0     H42869  10.698   5.054   3.901  3.5431  1.6569  1.1265
  311MOL0     H42870  10.599   5.012   3.671  0.2887 -1.9427 -2.4292
  311MOL0     H42871  10.702   5.152   3.677 -1.1154 -0.3552  2.6187
  311MOL0     H42872  10.747   4.905   3.514  1.3608 -1.1508  0.8030
  311MOL0     H42873  10.761   5.070   3.464 -1.5882 -2.0913 -0.7635
  311MOL0     H42874  10.963   4.937   3.643 -3.0022 -1.0354  0.0851
  311MOL0     H42875  10.986   4.984   3.475 -1.5911 -2.4821  0.0679
  311MOL0     H42876  11.185   4.967   3.600 -1.0697 -0.3529 -0.9294
  311MOL0     H42877  11.516   4.979   3.579 -1.1765 -1.3031  0.0270
  311MOL0     H42878  11.457   4.985   3.408 -0.2815 -1.8999 -0.2546
  311MOL0     H42879  11.370   4.892   3.529 -1.1163  0.7359  1.4851
  311MOL0     H42880  11.696   5.396   3.318  1.1920  2.0590 -1.9190
  311MOL0     H42881  11.927   5.484   3.283 -2.1944  0.6559 -1.1385
  311MOL0     H42882  12.204   5.768   3.432 -0.4863 -1.3191 -1.7815
  311MOL0     H42883  12.050   5.784   3.523  0.7494  0.9453 -1.2619
  311MOL0     H42884  12.265   5.770   3.672  0.3139 -0.3814 -0.4510
  311MOL0     H42885  12.164   5.622   3.694 -0.9028 -1.0517 -2.4351
  311MOL0     H42886  12.409   5.619   3.518 -0.4969 -0.3878  0.2177
  311MOL0     H42887  12.297   5.488   3.557 -1.5993  0.7606 -0.2968
  311MOL0     H42888  12.378   5.472   3.783  0.8180 -0.4125  0.4641
  311MOL0     H42889  12.421   5.645   3.776  3.3349 -0.0651  1.4147
  311MOL0     H42890  12.553   5.407   3.645 -1.1051 -0.5537  0.7313
  311MOL0     H42891  12.615   5.573   3.624  0.7461 -1.9459 -0.7653
  311MOL0     H42892  12.606   5.392   3.868 -1.9532  0.0615 -2.0177
  311MOL0     H42893  12.655   5.567   3.884  1.8872  0.6081 -1.4572
  311MOL0     H42894  12.817   5.495   3.682  2.4244  1.0912  1.1829
  311MOL0     H42895  12.793   5.334   3.752  0.4533 -0.2602 -1.2326
  311MOL0     H42896  12.846   5.469   3.981 -1.7915 -0.6064 -0.6329
  311MOL0     H42897  12.942   5.564   3.859  0.3257 -0.0146  1.5164
  311MOL0     H42898  11.913   5.619   3.694 -0.6885  2.7833 -1.1879
  311MOL0     H42899  11.714   5.513   3.739  0.5766  0.0802 -0.4087
  311MOL0     H42900  11.303   5.447   3.536  0.7242  0.3507 -1.2800
  311MOL0     H42901  11.071   5.374   3.563 -0.4989 -0.3862 -0.4417
  311MOL0     H42902   9.643   4.251   3.771 -1.0798  0.5408 -1.5504
  311MOL0     H42903   9.381   4.271   3.741 -1.2585  0.3904  0.6354
  311MOL0     H42904   8.995   4.330   3.845  1.4861 -0.4917  1.3934
  311MOL0     H42905   8.755   4.360   3.805 -2.5698  1.4479  0.3803
  311MOL0     H42906   8.693   4.682   3.730  0.6999 -1.4331 -1.4588
  311MOL0     H42907   8.559   4.583   3.682  1.0199  1.1711 -1.4576
  311MOL0     H42908   8.561   4.839   3.856 -1.7092  2.8276 -1.3816
  311MOL0     H42909   8.420   4.731   3.852 -1.2961  1.8591 -2.0560
  311MOL0     H42910   8.418   4.746   3.601 -0.2486 -1.1721  2.2442
  311MOL0     H42911   8.377   4.893   3.680  0.3776 -0.1356  0.9271
  311MOL0     H42912   8.530   4.946   3.488  1.0176 -0.9309 -1.7915
  311MOL0     H42913   8.654   4.850   3.564  0.2385  0.5041  0.0604
  311MOL0     H42914   8.656   5.212   3.791  0.7867 -0.1368 -0.1324
  311MOL0     H42915   8.781   4.732   4.022  0.6051 -0.4789  1.9362
  311MOL0     H42916   8.970   4.794   4.119 -1.6055 -2.4276  0.8960
  311MOL0     H42917   9.063   4.674   4.184  0.5969  2.9005  1.3630
  311MOL0     H42918   9.125   4.763   4.038 -0.7751 -0.4443 -2.3969
  312MOL0     O42919   9.752   8.240   7.969 -0.7966  0.0337  0.1959
  312MOL0     C42920   9.698   8.283   8.063  0.8624 -0.3662 -0.5152
  312MOL0     O42921   9.754   8.318   8.183  0.0863  0.0934  1.2282
  312MOL0     C42922   9.883   8.282   8.218 -0.7932  0.4047  0.6406
  312MOL0     C42923   9.985   8.218   8.146  0.4422 -0.3621  0.3361
  312MOL0     C42924  10.115   8.191   8.188 -0.4801  0.9253 -0.3654
  312MOL0     C42925  10.148   8.224   8.328 -1.4137  0.0335  0.4416
  312MOL0     O42926  10.272   8.193   8.386 -0.8929  0.0331 -0.4326
  312MOL0     C42927  10.377   8.149   8.305  0.5246  0.0509  0.6501
  312MOL0     C42928  10.509   8.176   8.380  0.2078 -0.2147 -0.1911
  312MOL0     C42929  10.635   8.168   8.290  0.3797  0.1625 -0.5441
  312MOL0     C42930  10.648   8.036   8.222 -0.4143  0.1434 -0.1747
  312MOL0     C42931  10.604   8.026   8.083  0.0521 -0.0645  0.9048
  312MOL0     C42932  10.713   8.071   7.978 -0.4131 -0.3878  1.5070
  312MOL0     C42933  10.666   8.040   7.834  0.0310  0.3098  0.1144
  312MOL0     C42934  10.652   7.886   7.806 -0.0252 -0.3509 -0.7933
  312MOL0     N42935  10.770   7.805   7.848 -0.3079 -0.8224  0.8207
  312MOL0     C42936  10.894   7.827   7.794 -0.1449  0.1143  0.1500
  312MOL0     C42937  10.970   7.726   7.856 -0.1043 -0.5787 -0.4930
  312MOL0     C42938  11.118   7.701   7.859  0.5789  0.1701 -0.2740
  312MOL0     C42939  11.167   7.591   7.768  0.6540  0.4407 -0.2943
  312MOL0     C42940  11.325   7.576   7.777 -0.8412  0.1375  0.5614
  312MOL0     C42941  11.396   7.692   7.709 -0.2011 -0.4743 -0.1396
  312MOL0     O42942  11.528   7.645   7.675 -1.2437  0.4407 -0.4751
  312MOL0     C42943  11.633   7.738   7.664  0.2844  0.5099 -0.2521
  312MOL0     C42944  11.750   7.712   7.739 -0.2599 -1.4437 -1.2171
  312MOL0     C42945  11.852   7.807   7.727 -0.3796  0.0771 -0.6765
  312MOL0     C42946  11.969   7.768   7.808 -0.4823  0.5094  0.1273
  312MOL0     C42947  11.849   7.916   7.635 -0.0672 -0.7497  0.6928
  312MOL0     C42948  11.960   8.020   7.592 -0.1767  0.3958 -0.8267
  312MOL0     O42949  12.083   7.993   7.645 -0.0054 -0.6615  0.4389
  312MOL0     C42950  12.178   8.095   7.655  0.8375  0.5186 -0.2568
  312MOL0     C42951  12.285   8.080   7.752  0.3180  0.5586 -0.3452
  312MOL0     C42952  12.396   8.171   7.760 -0.9858 -0.1899  0.2820
  312MOL0     C42953  12.411   8.276   7.670  1.2534 -0.0205 -0.2846
  312MOL0     O42954  12.506   8.375   7.664  0.2582 -0.3642 -0.4989
  312MOL0     C42955  12.615   8.363   7.763 -0.7052 -0.9454 -0.2003
  312MOL0     C42956  12.701   8.498   7.759 -0.3097  0.8825  0.0362
  312MOL0     C42957  12.796   8.525   7.882 -1.0780  0.0304  0.0451
  312MOL0     C42958  12.886   8.657   7.843  1.5817  0.8057  0.2970
  312MOL0     C42959  12.997   8.692   7.947 -0.2087 -0.5916 -0.2387
  312MOL0     C42960  12.933   8.773   8.062  0.1265  0.4810  0.1971
  312MOL0     C42961  13.029   8.831   8.163  1.2218  0.3332  0.0522
  312MOL0     C42962  13.112   8.952   8.108  0.3644 -0.3833  0.4541
  312MOL0    Cl42963  13.228   8.897   7.985 -0.0245 -0.3599  0.3943
  312MOL0     C42964  12.310   8.285   7.578  0.8366 -0.3479  0.3732
  312MOL0     C42965  12.195   8.203   7.569  0.1036 -0.4676 -0.4825
  312MOL0     O42966  11.935   8.117   7.522  0.0193 -0.3830  0.7679
  312MOL0     C42967  11.722   7.936   7.574 -0.6055  0.8101 -0.5840
  312MOL0     C42968  11.620   7.843   7.582 -0.5459 -0.5442 -0.2213
  312MOL0     N42969  10.889   7.658   7.941 -0.2085  0.6861  0.8273
  312MOL0     N42970  10.776   7.700   7.937 -0.0463 -0.4725 -0.5346
  312MOL0     C42971  10.056   8.293   8.404 -0.4104  0.1929 -0.5548
  312MOL0     C42972   9.918   8.314   8.350 -0.5462  0.0863  0.3152
  312MOL0     C42973   9.546   8.285   8.052  0.3439  0.5093 -0.5762
  312MOL0     C42974   9.474   8.197   8.132 -0.6560  0.0050  0.4488
  312MOL0     C42975   9.335   8.192   8.127 -0.6059 -0.6119 -0.4069
  312MOL0     C42976   9.269   8.269   8.028  0.2828 -0.3544 -0.5745
  312MOL0     O42977   9.134   8.256   8.041  0.0770  0.2861  0.0945
  312MOL0     C42978   9.052   8.352   7.969  0.6839  0.4411 -0.1761
  312MOL0     C42979   9.020   8.319   7.823 -0.1112 -0.2912  0.2385
  312MOL0     C42980   8.895   8.403   7.768  1.0682 -0.1492 -0.1876
  312MOL0     C42981   8.901   8.552   7.778 -0.0613 -0.1367  0.8512
  312MOL0     C42982   9.015   8.602   7.696  0.4133  0.0730  0.1693
  312MOL0     C42983   9.096   8.642   7.615 -0.5191 -0.2215 -0.5133
  312MOL0     C42984   9.337   8.349   7.945 -0.4518  0.5454 -0.0053
  312MOL0     C42985   9.476   8.355   7.947 -0.6893  0.6492 -0.2830
  312MOL0     C42986   9.548   8.436   7.840  0.5774  0.0596 -0.6013
  312MOL0     H42987   9.969   8.192   8.042 -1.3710  0.6223  0.3377
  312MOL0     H42988  10.181   8.153   8.111 -1.0138 -0.4539 -0.1636
  312MOL0     H42989  10.366   8.216   8.220 -1.8107 -0.4013  0.5287
  312MOL0     H42990  10.365   8.046   8.271  2.2646  0.8472 -2.9060
  312MOL0     H42991  10.503   8.278   8.417 -2.9002  0.7765 -2.9185
  312MOL0     H42992  10.514   8.101   8.460  1.4228 -0.7120 -0.6939
  312MOL0     H42993  10.620   8.245   8.213 -0.1110 -1.8522 -2.5892
  312MOL0     H42994  10.729   8.192   8.342 -2.1837  2.8305  3.3732
  312MOL0     H42995  10.755   8.015   8.230  0.3131  2.6830 -2.0067
  312MOL0     H42996  10.598   7.960   8.283  4.2089 -0.8125  2.8956
  312MOL0     H42997  10.513   8.086   8.068 -2.6148 -3.0528  3.6001
  312MOL0     H42998  10.579   7.924   8.055  1.2710 -0.0053 -0.5284
  312MOL0     H42999  10.747   8.174   7.993 -0.1449 -0.6100  2.5400
  312MOL0     H43000  10.791   7.999   8.004  1.4007 -2.0609 -6.0560
  312MOL0     H43001  10.742   8.091   7.775 -0.7555  1.5957  0.1878
  312MOL0     H43002  10.571   8.085   7.806  0.3405  2.7528  2.6381
  312MOL0     H43003  10.563   7.843   7.853  0.8496 -0.7954  0.5109
  312MOL0     H43004  10.641   7.879   7.698  1.7661  3.1901 -1.3743
  312MOL0     H43005  10.940   7.910   7.742  2.4202 -1.2375  0.1283
  312MOL0     H43006  11.142   7.679   7.964 -3.6286  2.7017  1.4766
  312MOL0     H43007  11.174   7.793   7.842  1.1962 -0.4652 -1.9002
  312MOL0     H43008  11.131   7.496   7.810  1.5807  1.1865  2.4280
  312MOL0     H43009  11.138   7.602   7.664 -0.0117  1.5879 -0.0030
  312MOL0     H43010  11.352   7.567   7.882  0.9429  0.1252  0.1416
  312MOL0     H43011  11.342   7.484   7.720  2.6860  2.3408 -2.4411
  312MOL0     H43012  11.343   7.729   7.620  1.4843  0.3391 -0.8576
  312MOL0     H43013  11.398   7.774   7.781  1.2575 -1.4757  1.0080
  312MOL0     H43014  11.749   7.628   7.808 -1.3592 -1.6401 -1.4526
  312MOL0     H43015  11.943   7.688   7.878 -1.8035  2.8678  2.5517
  312MOL0     H43016  11.985   7.854   7.874 -2.6042  0.7737  0.3786
  312MOL0     H43017  12.053   7.742   7.742 -0.7534 -0.7953  0.2635
  312MOL0     H43018  12.298   7.995   7.818 -0.5150  0.0397 -0.8337
  312MOL0     H43019  12.476   8.137   7.825 -1.7429 -1.4459  0.5997
  312MOL0     H43020  12.572   8.361   7.864  0.3127  1.0094  0.3171
  312MOL0     H43021  12.677   8.277   7.739  1.7522  0.8067 -0.5365
  312MOL0     H43022  12.760   8.489   7.667  0.6465  2.2916  0.4702
  312MOL0     H43023  12.632   8.583   7.749 -0.2422  0.7380 -1.9899
  312MOL0     H43024  12.862   8.440   7.899 -0.3250  0.1685 -1.9024
  312MOL0     H43025  12.730   8.536   7.969 -0.3441  1.0598  0.4986
  312MOL0     H43026  12.816   8.739   7.828  1.5247  0.9229  1.1449
  312MOL0     H43027  12.942   8.628   7.754  1.2523  0.8177  0.0833
  312MOL0     H43028  13.035   8.597   7.986 -0.5234 -0.7116 -0.2317
  312MOL0     H43029  13.073   8.745   7.888 -3.8010  1.2239 -3.6314
  312MOL0     H43030  12.848   8.730   8.116 -0.3677  1.5361  0.2828
  312MOL0     H43031  12.873   8.852   8.017  0.7363  0.8599  0.0303
  312MOL0     H43032  13.095   8.751   8.198  0.8850  0.5483  1.2268
  312MOL0     H43033  12.969   8.860   8.249 -3.8947 -1.5772 -2.4946
  312MOL0     H43034  13.174   8.989   8.189  1.5441  0.7997 -0.9249
  312MOL0     H43035  13.063   9.042   8.069  0.8743 -0.1287  0.3964
  312MOL0     H43036  12.322   8.355   7.496  1.0903 -0.9859 -0.1393
  312MOL0     H43037  12.134   8.233   7.484  0.6619  1.4295 -0.2785
  312MOL0     H43038  11.706   8.021   7.509  2.6004  2.6460  0.7800
  312MOL0     H43039  11.526   7.864   7.534 -0.0850 -0.8370 -1.2729
  312MOL0     H43040  10.077   8.322   8.506  0.9919 -2.7633  0.1228
  312MOL0     H43041   9.839   8.365   8.404 -0.9665 -1.5562  1.3378
  312MOL0     H43042   9.523   8.128   8.200 -1.1416  1.7356  2.6774
  312MOL0     H43043   9.284   8.117   8.186 -1.7379  0.3053 -0.1919
  312MOL0     H43044   8.952   8.361   8.011 -0.5353  1.7374 -3.1268
  312MOL0     H43045   9.094   8.453   7.973 -1.5956  1.4297  0.5281
  312MOL0     H43046   9.004   8.210   7.821  1.1293 -0.4855 -0.8453
  312MOL0     H43047   9.108   8.329   7.758 -0.7268  0.7749 -0.4572
  312MOL0     H43048   8.874   8.365   7.668  0.4646 -1.4231  0.3955
  312MOL0     H43049   8.811   8.372   7.831  2.3133  0.9810  2.1599
  312MOL0     H43050   8.910   8.586   7.882  4.5118  3.3220 -0.3507
  312MOL0     H43051   8.803   8.585   7.744  0.5178 -0.3424 -1.1487
  312MOL0     H43052   9.171   8.675   7.548  0.0856 -1.3016 -0.3950
  312MOL0     H43053   9.280   8.392   7.863  0.8519 -0.5093 -1.5311
  312MOL0     H43054   9.584   8.369   7.761  2.7829  1.2434 -0.6852
  312MOL0     H43055   9.481   8.505   7.789 -0.5856 -1.7751 -1.6717
  312MOL0     H43056   9.636   8.492   7.872 -0.5154  2.7116 -1.9612
  313MOL0     O43057   9.665   2.587   4.187  0.1525 -0.3219 -0.0958
  313MOL0     C43058   9.640   2.630   4.074  0.0751 -0.4546 -0.5196
  313MOL0     O43059   9.732   2.691   3.991  0.6554  0.4166  0.0250
  313MOL0     C43060   9.861   2.705   4.029  0.3453  0.3634 -0.0145
  313MOL0     C43061   9.901   2.747   4.157  0.1541  0.1951  0.0300
  313MOL0     C43062  10.035   2.763   4.185 -0.0504 -0.2238  0.3389
  313MOL0     C43063  10.136   2.739   4.097  0.3020 -0.5499  0.4802
  313MOL0     O43064  10.270   2.756   4.122 -0.2017 -0.1227  0.4010
  313MOL0     C43065  10.301   2.754   4.254 -0.5682 -0.3923  0.1455
  313MOL0     C43066  10.441   2.713   4.297  0.4010 -0.3009 -0.5480
  313MOL0     C43067  10.538   2.808   4.228 -0.2227  0.0380 -0.5513
  313MOL0     C43068  10.687   2.781   4.245  0.5774 -0.7299  0.2175
  313MOL0     C43069  10.771   2.871   4.151 -0.9943  0.4373  1.3313
  313MOL0     C43070  10.902   2.929   4.201  0.1168  0.2980 -0.7269
  313MOL0     C43071  11.014   2.830   4.229 -0.5100 -0.2274 -0.1916
  313MOL0     C43072  11.127   2.909   4.310  0.3068 -0.3431  0.5234
  313MOL0     N43073  11.236   2.820   4.357  0.6135  0.0609 -0.0504
  313MOL0     C43074  11.258   2.785   4.488 -0.4851  0.1241 -0.1020
  313MOL0     C43075  11.366   2.713   4.496  0.0582  0.4692 -0.2149
  313MOL0     C43076  11.420   2.655   4.623 -0.4796  0.1104 -0.3838
  313MOL0     C43077  11.472   2.761   4.726  1.3357  0.7601 -0.5275
  313MOL0     C43078  11.603   2.824   4.682  0.0454  0.5728  0.9024
  313MOL0     C43079  11.709   2.717   4.671 -1.0020 -0.2253  0.2901
  313MOL0     O43080  11.833   2.796   4.647  0.0423 -0.0298 -0.0969
  313MOL0     C43081  11.908   2.846   4.749 -0.0592 -0.2219  0.2563
  313MOL0     C43082  11.881   2.820   4.881  0.2163 -0.7611  0.8075
  313MOL0     C43083  11.956   2.874   4.980 -0.7022 -0.4946  0.4402
  313MOL0     C43084  11.923   2.846   5.119  0.3918 -0.6256  0.0262
  313MOL0     C43085  12.069   2.962   4.947  0.9327 -0.2353 -0.4899
  313MOL0     C43086  12.135   3.060   5.043 -0.5105 -0.2615  0.5570
  313MOL0     O43087  12.250   3.130   5.002 -0.8928 -0.2430 -0.2881
  313MOL0     C43088  12.336   3.198   5.088 -0.1880 -0.2307 -0.8944
  313MOL0     C43089  12.348   3.154   5.218 -0.2234 -0.2809 -0.5937
  313MOL0     C43090  12.424   3.232   5.304 -0.0274 -1.0106  0.4098
  313MOL0     C43091  12.493   3.351   5.273  0.7720 -0.4777  0.7292
  313MOL0     O43092  12.555   3.419   5.380 -0.1218  0.3345 -0.6038
  313MOL0     C43093  12.640   3.528   5.334 -0.2072 -0.2256 -0.1656
  313MOL0     C43094  12.740   3.560   5.449  0.1967 -0.6085  0.4261
  313MOL0     C43095  12.797   3.436   5.522  0.4851  0.0666 -0.0586
  313MOL0     C43096  12.930   3.474   5.591  0.5341 -0.0444  0.6218
  313MOL0     C43097  12.981   3.363   5.681 -0.1073 -0.5176  0.5282
  313MOL0     C43098  13.112   3.383   5.753 -0.5831  0.2534  0.2766
  313MOL0     C43099  13.096   3.455   5.885 -0.5736 -0.3011 -0.5936
  313MOL0     C43100  13.232   3.498   5.945 -0.3668  0.8405 -0.0451
  313MOL0    Cl43101  13.313   3.351   6.001  0.3787 -0.0383  0.1088
  313MOL0     C43102  12.487   3.391   5.140  0.5997 -0.7379 -0.9120
  313MOL0     C43103  12.406   3.315   5.045  0.2374  0.2712 -0.2721
  313MOL0     O43104  12.077   3.079   5.150 -0.9493 -0.8915  0.3327
  313MOL0     C43105  12.101   2.971   4.812 -0.1039  0.3499 -0.8867
  313MOL0     C43106  12.023   2.909   4.714 -0.0531  0.2464 -0.1802
  313MOL0     N43107  11.416   2.706   4.374  0.5560 -0.3454  0.4329
  313MOL0     N43108  11.343   2.768   4.288  0.0825 -0.2212  0.2842
  313MOL0     C43109  10.098   2.690   3.972  0.1795 -0.4784  0.7273
  313MOL0     C43110   9.960   2.687   3.936  0.0188 -0.0704  0.3017
  313MOL0     C43111   9.501   2.628   4.010  0.1617  0.6132  0.1189
  313MOL0     C43112   9.494   2.645   3.866 -0.1814 -0.6901  0.3350
  313MOL0     C43113   9.368   2.646   3.796 -0.4892 -0.0264 -0.5037
  313MOL0     C43114   9.254   2.610   3.871  0.7177  0.0868 -0.3741
  313MOL0     O43115   9.117   2.606   3.829 -0.3420  0.5902  0.6204
  313MOL0     C43116   9.107   2.608   3.688  0.1935 -0.4676 -0.3153
  313MOL0     C43117   8.955   2.606   3.648  0.2006  1.1484  0.0173
  313MOL0     C43118   8.861   2.693   3.731 -1.3260 -0.1051  0.4381
  313MOL0     C43119   8.786   2.621   3.851  0.8340  0.3041  0.0425
  313MOL0     C43120   8.671   2.540   3.813  0.4762 -0.8768  0.2328
  313MOL0     C43121   8.569   2.480   3.796 -0.3713  0.0178  0.3211
  313MOL0     C43122   9.265   2.581   4.010  0.4918 -0.9757 -0.4731
  313MOL0     C43123   9.385   2.593   4.079 -0.2116 -0.7755 -1.1164
  313MOL0     C43124   9.369   2.583   4.226  0.2307 -0.7250 -0.3098
  313MOL0     H43125   9.832   2.778   4.235  0.3779  1.5405 -0.2710
  313MOL0     H43126  10.050   2.803   4.285 -0.6658  4.2483 -1.1095
  313MOL0     H43127  10.240   2.671   4.292 -1.5074  0.4526  0.5256
  313MOL0     H43128  10.280   2.849   4.304  1.3311 -0.6934  1.6836
  313MOL0     H43129  10.447   2.710   4.406 -0.9097  0.4494 -0.4404
  313MOL0     H43130  10.456   2.609   4.265  0.7924 -1.3592  2.7093
  313MOL0     H43131  10.514   2.826   4.123 -1.0612  1.7817 -0.1076
  313MOL0     H43132  10.520   2.907   4.272 -3.0418 -0.8181  0.5209
  313MOL0     H43133  10.711   2.789   4.351 -0.5543 -0.0421  0.4346
  313MOL0     H43134  10.705   2.679   4.210 -0.6844 -0.9979  0.3112
  313MOL0     H43135  10.703   2.950   4.119 -1.2184 -1.5343 -4.4199
  313MOL0     H43136  10.805   2.818   4.061  0.4704  2.5048  0.6023
  313MOL0     H43137  10.933   3.004   4.128 -2.6562  1.7906 -0.5005
  313MOL0     H43138  10.884   2.990   4.290  0.7527 -1.8294  0.9751
  313MOL0     H43139  11.052   2.785   4.137  1.0522  1.0628 -0.2253
  313MOL0     H43140  10.977   2.745   4.286  1.5633 -0.0802  1.4446
  313MOL0     H43141  11.165   2.993   4.252 -0.0786  1.1379  2.3081
  313MOL0     H43142  11.076   2.949   4.399 -4.1146 -1.0267 -1.4201
  313MOL0     H43143  11.197   2.819   4.570  1.3603  2.7205  0.3203
  313MOL0     H43144  11.490   2.575   4.595  1.3633  1.3961  0.3731
  313MOL0     H43145  11.329   2.612   4.667 -1.9688  4.2591  1.0707
  313MOL0     H43146  11.393   2.836   4.738  1.1282  0.4537  0.1231
  313MOL0     H43147  11.486   2.705   4.820  2.5233 -3.1381 -2.8038
  313MOL0     H43148  11.598   2.871   4.584  3.8343  0.0914  0.3182
  313MOL0     H43149  11.636   2.902   4.751 -0.4739  0.0271  1.7883
  313MOL0     H43150  11.718   2.649   4.756  2.3182 -1.3791 -0.8253
  313MOL0     H43151  11.699   2.649   4.585 -1.5640 -0.8526  0.8387
  313MOL0     H43152  11.791   2.764   4.907 -0.0436 -0.6906  0.0666
  313MOL0     H43153  12.012   2.818   5.175  1.0440 -2.7110 -1.8953
  313MOL0     H43154  11.849   2.767   5.131 -2.0615  1.8770  3.4832
  313MOL0     H43155  11.880   2.939   5.157  2.3154  0.3446 -0.0383
  313MOL0     H43156  12.308   3.064   5.263  2.7083 -0.6461  1.5913
  313MOL0     H43157  12.451   3.190   5.401 -1.3566 -2.7446  0.0726
  313MOL0     H43158  12.704   3.488   5.255 -0.0466  1.6933 -1.0449
  313MOL0     H43159  12.582   3.616   5.306  1.6376  0.8309 -0.7582
  313MOL0     H43160  12.828   3.613   5.410  0.8612 -1.4609  0.7155
  313MOL0     H43161  12.692   3.612   5.532  2.7681 -0.8097  2.1564
  313MOL0     H43162  12.807   3.354   5.451  1.2350  1.2084 -1.3323
  313MOL0     H43163  12.714   3.408   5.588 -3.5516  0.9914 -4.1837
  313MOL0     H43164  12.906   3.563   5.651  0.0551  0.9484 -0.9611
  313MOL0     H43165  12.999   3.506   5.513  0.6033 -1.1626  0.2048
  313MOL0     H43166  12.912   3.330   5.759  1.1603 -1.1188  1.4356
  313MOL0     H43167  13.006   3.272   5.626  0.1770 -0.6293  0.8396
  313MOL0     H43168  13.182   3.433   5.686  0.0074 -3.0887 -1.8226
  313MOL0     H43169  13.153   3.285   5.778 -1.5240  0.0911  1.2569
  313MOL0     H43170  13.043   3.390   5.955  0.1361  2.1213  2.4282
  313MOL0     H43171  13.023   3.537   5.883 -1.9370 -1.3795  1.4099
  313MOL0     H43172  13.213   3.563   6.032 -2.0233  0.3572 -0.0065
  313MOL0     H43173  13.292   3.545   5.867  1.5271  0.8171  1.3372
  313MOL0     H43174  12.543   3.472   5.095  0.3121  0.8435  1.4276
  313MOL0     H43175  12.395   3.344   4.941 -0.6481 -0.0961 -0.2872
  313MOL0     H43176  12.195   3.015   4.779  1.2763 -1.1731  0.8271
  313MOL0     H43177  12.064   2.907   4.613 -0.5714  0.5752 -0.4007
  313MOL0     H43178  10.178   2.689   3.899  0.5081  2.6805  0.8949
  313MOL0     H43179   9.940   2.635   3.843  0.2537  2.2594 -1.1392
  313MOL0     H43180   9.581   2.676   3.809 -0.9241  0.2669 -0.3201
  313MOL0     H43181   9.375   2.664   3.690  0.0786  0.3712 -0.4002
  313MOL0     H43182   9.148   2.694   3.634  0.4115  1.1148  2.1908
  313MOL0     H43183   9.152   2.519   3.643  1.9226 -0.4172  1.2015
  313MOL0     H43184   8.922   2.503   3.664  1.4092  0.3151 -2.4206
  313MOL0     H43185   8.937   2.628   3.543  0.6447  0.2791 -0.2465
  313MOL0     H43186   8.916   2.772   3.783  0.7444 -1.1281 -0.0856
  313MOL0     H43187   8.785   2.743   3.671 -1.0375  2.1641  1.8387
  313MOL0     H43188   8.753   2.686   3.933  0.4481  0.1594  0.0018
  313MOL0     H43189   8.856   2.556   3.904  0.5730 -2.8866 -3.1479
  313MOL0     H43190   8.469   2.443   3.790 -1.0223  1.1551  2.9569
  313MOL0     H43191   9.173   2.556   4.063  0.6026  0.6229  0.5262
  313MOL0     H43192   9.271   2.611   4.266  0.2758 -3.1543  1.8195
  313MOL0     H43193   9.391   2.478   4.248  0.7003 -0.5072  0.2819
  313MOL0     H43194   9.442   2.647   4.277 -1.3659  1.3954 -0.5553
  314MOL0     O43195   2.434  10.371   6.033  0.0909 -0.4624 -0.1862
  314MOL0     C43196   2.410  10.322   6.140 -1.5884  0.4740  1.0685
  314MOL0     O43197   2.491  10.346   6.256 -0.3526 -0.1662 -0.9161
  314MOL0     C43198   2.601  10.429   6.239  0.3142  0.4655 -1.1962
  314MOL0     C43199   2.702  10.387   6.164 -0.8762  0.0535 -0.7222
  314MOL0     C43200   2.820  10.466   6.152 -0.0065 -1.2201  0.1459
  314MOL0     C43201   2.835  10.591   6.211 -0.3332  0.6913  0.4573
  314MOL0     O43202   2.959  10.654   6.203 -0.0361  0.8245 -0.5142
  314MOL0     C43203   2.956  10.793   6.237  0.7190  0.3794  0.2636
  314MOL0     C43204   3.088  10.872   6.218 -0.5295 -0.0884  0.4156
  314MOL0     C43205   3.191  10.843   6.323  0.4739  0.5518  0.1201
  314MOL0     C43206   3.331  10.891   6.278 -0.3224 -0.7466 -0.9958
  314MOL0     C43207   3.444  10.836   6.361 -0.1061  2.1402 -0.5571
  314MOL0     C43208   3.583  10.907   6.330  0.4969  0.4809  0.1886
  314MOL0     C43209   3.692  10.855   6.434 -0.3695 -0.9174 -0.1345
  314MOL0     C43210   3.828  10.915   6.411 -0.0240  0.1018 -0.1207
  314MOL0     N43211   3.932  10.866   6.501  1.2232  0.9752  0.2230
  314MOL0     C43212   4.043  10.937   6.550  0.3180 -0.5314  0.8123
  314MOL0     C43213   4.128  10.833   6.593  0.8480  0.7896  0.1699
  314MOL0     C43214   4.258  10.849   6.658 -0.4732 -0.0771  0.2879
  314MOL0     C43215   4.271  10.989   6.715 -1.1585 -0.2180 -0.3965
  314MOL0     C43216   4.376  11.014   6.821  0.2377  0.2637 -0.2727
  314MOL0     C43217   4.514  11.021   6.746 -0.4566  0.1669  0.6115
  314MOL0     O43218   4.618  11.001   6.849  0.6719 -0.0027 -0.2013
  314MOL0     C43219   4.746  11.033   6.822 -0.2101  0.7766  0.6335
  314MOL0     C43220   4.809  11.001   6.702 -0.3799  0.3169 -0.0490
  314MOL0     C43221   4.947  11.020   6.678 -1.2441 -0.2211  0.5157
  314MOL0     C43222   5.007  10.979   6.539  0.4490  0.3989  0.0519
  314MOL0     C43223   5.031  11.081   6.776 -0.0381 -0.0134 -0.7069
  314MOL0     C43224   5.173  11.126   6.747 -0.3127  0.4606 -0.4771
  314MOL0     O43225   5.239  11.188   6.851  0.4399 -0.0244 -0.5582
  314MOL0     C43226   5.344  11.274   6.842 -0.5997 -0.1444  0.3915
  314MOL0     C43227   5.344  11.374   6.743  0.4055  0.4247 -0.2012
  314MOL0     C43228   5.461  11.453   6.724  0.2317 -0.1295  0.7474
  314MOL0     C43229   5.569  11.439   6.811  0.6574  0.3392  0.5003
  314MOL0     O43230   5.684  11.506   6.794  0.8832 -1.6460 -0.6180
  314MOL0     C43231   5.783  11.483   6.691  0.4598  0.1662 -0.7299
  314MOL0     C43232   5.909  11.425   6.759 -0.0908 -0.2388  0.0928
  314MOL0     C43233   5.904  11.275   6.808  0.4006 -0.8197  0.2062
  314MOL0     C43234   6.045  11.226   6.849  0.7148 -0.7139  0.3646
  314MOL0     C43235   6.043  11.110   6.945 -0.8160  1.1168 -0.6342
  314MOL0     C43236   6.190  11.064   6.962 -0.2103  0.1699  0.5793
  314MOL0     C43237   6.212  10.944   7.059 -0.2376 -0.0989  0.0331
  314MOL0     C43238   6.261  10.828   6.971  0.8856 -0.2088  0.2709
  314MOL0    Cl43239   6.414  10.859   6.885 -0.0394 -0.3364  0.1222
  314MOL0     C43240   5.566  11.344   6.913 -0.0847  0.1170 -0.9266
  314MOL0     C43241   5.459  11.257   6.920  0.4231 -0.0607 -0.8569
  314MOL0     O43242   5.220  11.112   6.634 -0.0803  0.3081  0.1772
  314MOL0     C43243   4.968  11.105   6.901 -0.1926  0.1047 -0.0812
  314MOL0     C43244   4.829  11.079   6.924 -0.7826 -0.2534 -0.0689
  314MOL0     N43245   4.066  10.714   6.570  0.0867  1.1300  0.2124
  314MOL0     N43246   3.952  10.731   6.511 -1.3566  0.1225 -0.7447
  314MOL0     C43247   2.737  10.622   6.302 -0.0676 -0.7598 -1.1511
  314MOL0     C43248   2.618  10.545   6.317  0.6963 -0.3695  0.3828
  314MOL0     C43249   2.290  10.252   6.172  0.3756 -0.1808  0.4682
  314MOL0     C43250   2.246  10.243   6.311  0.3824  0.0831  0.1695
  314MOL0     C43251   2.131  10.180   6.355  0.3888 -0.1232 -1.4637
  314MOL0     C43252   2.044  10.125   6.272 -0.6062 -0.0986 -0.0129
  314MOL0     O43253   1.922  10.068   6.317 -0.0377 -0.5344  0.2052
  314MOL0     C43254   1.900   9.930   6.279 -0.6771  0.7007 -0.4454
  314MOL0     C43255   1.762   9.896   6.329 -0.0294 -0.5622  0.6521
  314MOL0     C43256   1.659   9.953   6.233  0.2481  0.2863  0.6713
  314MOL0     C43257   1.519   9.894   6.264  0.5952 -0.1426  0.1324
  314MOL0     C43258   1.457   9.956   6.385 -0.5142  0.4530 -1.1918
  314MOL0     C43259   1.403  10.006   6.483  0.2205  0.3404 -0.5595
  314MOL0     C43260   2.077  10.134   6.138 -0.4172 -0.6203 -0.1640
  314MOL0     C43261   2.192  10.201   6.079  0.7039  0.4366  0.1104
  314MOL0     C43262   2.194  10.218   5.923  0.1452  0.9232 -0.0512
  314MOL0     H43263   2.690  10.294   6.110  1.2871  0.7077 -2.5016
  314MOL0     H43264   2.901  10.435   6.086 -1.4158 -1.8762 -1.3249
  314MOL0     H43265   2.940  10.789   6.345 -2.0177 -0.2153 -0.0973
  314MOL0     H43266   2.878  10.845   6.183  2.3002  0.3362 -2.2142
  314MOL0     H43267   3.132  10.838   6.124  1.4194  0.5655  1.0455
  314MOL0     H43268   3.063  10.978   6.211  0.2583  0.2193  1.9423
  314MOL0     H43269   3.143  10.883   6.412 -2.4852 -0.6857 -0.7591
  314MOL0     H43270   3.192  10.734   6.333  0.4413  0.4780 -0.5796
  314MOL0     H43271   3.354  10.868   6.174 -0.3085  0.5656 -1.2988
  314MOL0     H43272   3.326  11.001   6.282 -1.3772 -0.7907 -0.8184
  314MOL0     H43273   3.459  10.730   6.338 -1.6386  0.6189  4.3204
  314MOL0     H43274   3.423  10.839   6.468 -1.7508  0.1350 -0.7678
  314MOL0     H43275   3.615  10.874   6.231  0.1281  0.7331 -0.0186
  314MOL0     H43276   3.578  11.017   6.337  1.0569  0.4172  2.3524
  314MOL0     H43277   3.691  10.747   6.448 -2.5475 -0.9041  0.1914
  314MOL0     H43278   3.653  10.891   6.530 -0.7265 -0.3656 -0.4792
  314MOL0     H43279   3.858  10.888   6.310  0.4210  0.1770 -0.0113
  314MOL0     H43280   3.821  11.024   6.412 -0.3891  0.1033  1.9068
  314MOL0     H43281   4.062  11.044   6.543 -1.1725 -0.3361 -0.9478
  314MOL0     H43282   4.325  10.843   6.572 -0.9623  1.2604 -0.2151
  314MOL0     H43283   4.273  10.767   6.728  0.2067  0.4724  0.8000
  314MOL0     H43284   4.285  11.067   6.640  3.1803 -2.2818 -2.0665
  314MOL0     H43285   4.173  10.985   6.764 -0.1230 -0.4800  1.7915
  314MOL0     H43286   4.362  11.109   6.874 -1.8880  0.8619 -1.7698
  314MOL0     H43287   4.371  10.935   6.897 -0.9802 -0.2259 -0.8368
  314MOL0     H43288   4.524  10.935   6.679  0.2177  0.0121  0.8920
  314MOL0     H43289   4.537  11.110   6.688  0.4796 -0.2847  0.2721
  314MOL0     H43290   4.755  10.966   6.615  1.7328  1.4032 -1.9149
  314MOL0     H43291   5.094  10.913   6.541  1.4364  1.5822 -1.1601
  314MOL0     H43292   5.024  11.076   6.490 -4.3752  1.2357 -0.4646
  314MOL0     H43293   4.930  10.935   6.476  1.1425  2.7390 -2.6720
  314MOL0     H43294   5.255  11.385   6.681  1.9250  1.5470 -2.3014
  314MOL0     H43295   5.460  11.525   6.644 -0.7268 -1.6371 -0.6732
  314MOL0     H43296   5.750  11.415   6.611  0.5160 -1.7136  0.7660
  314MOL0     H43297   5.795  11.582   6.648  2.0142 -0.1580 -1.0966
  314MOL0     H43298   5.991  11.427   6.687 -0.2164  0.4607 -0.0315
  314MOL0     H43299   5.936  11.494   6.839  0.1667  0.9817 -1.0170
  314MOL0     H43300   5.856  11.217   6.729 -0.4139  2.8756 -2.2735
  314MOL0     H43301   5.831  11.275   6.890 -0.7840  3.8843 -0.5090
  314MOL0     H43302   6.090  11.310   6.901 -0.3341  1.0663 -1.4264
  314MOL0     H43303   6.108  11.211   6.761  0.5547  0.2229  0.0810
  314MOL0     H43304   5.991  11.125   7.040  0.8037 -2.0031  0.9258
  314MOL0     H43305   5.996  11.020   6.905  1.0286 -0.2047  0.0278
  314MOL0     H43306   6.251  11.141   7.011 -0.3024  0.3346  0.4333
  314MOL0     H43307   6.240  11.034   6.869 -0.1303 -0.5714  0.8474
  314MOL0     H43308   6.117  10.928   7.112 -4.2288 -0.7194 -6.2284
  314MOL0     H43309   6.293  10.957   7.131  0.6514 -0.1035 -0.9431
  314MOL0     H43310   6.188  10.811   6.891  1.0614  2.3839 -0.5227
  314MOL0     H43311   6.265  10.732   7.022 -1.7882 -0.1827  0.6940
  314MOL0     H43312   5.654  11.337   6.977 -0.0724  0.9796 -0.8382
  314MOL0     H43313   5.457  11.180   6.996  2.1727  1.0351  0.3757
  314MOL0     H43314   5.026  11.137   6.986 -1.0392 -0.8230  0.8741
  314MOL0     H43315   4.781  11.108   7.017 -0.5301  1.6119 -0.4698
  314MOL0     H43316   2.746  10.712   6.361  1.3818 -1.6631  0.0618
  314MOL0     H43317   2.530  10.574   6.373 -0.2854  0.5972 -1.5775
  314MOL0     H43318   2.297  10.302   6.385  0.8684 -1.0034  0.7158
  314MOL0     H43319   2.120  10.156   6.460  2.5849 -0.6963 -1.3280
  314MOL0     H43320   1.903   9.908   6.172  0.9116 -4.9636  0.4454
  314MOL0     H43321   1.974   9.871   6.333  0.6548  0.5023 -2.3802
  314MOL0     H43322   1.748   9.942   6.427  0.2778 -0.0193  0.4442
  314MOL0     H43323   1.756   9.786   6.326 -0.2420 -0.5366 -1.3586
  314MOL0     H43324   1.657  10.062   6.237 -1.3007  0.2783  0.5378
  314MOL0     H43325   1.678   9.910   6.134 -1.5421  0.1401  0.3626
  314MOL0     H43326   1.537   9.787   6.272 -0.7522 -0.6387 -2.3317
  314MOL0     H43327   1.458   9.912   6.175 -0.7586 -0.6267  0.9327
  314MOL0     H43328   1.352  10.043   6.570  1.9726 -2.1532  1.6941
  314MOL0     H43329   2.005  10.086   6.073 -0.9420  0.8239 -0.6755
  314MOL0     H43330   2.101  10.224   5.866  1.0785 -3.0473 -2.3486
  314MOL0     H43331   2.260  10.301   5.895  1.3479 -0.1379 -0.4349
  314MOL0     H43332   2.229  10.133   5.864  0.2576  2.6588 -2.6438
  315MOL0     O43333   4.234   4.690   5.602  0.2465  0.0483  0.1565
  315MOL0     C43334   4.220   4.618   5.506  0.1092 -0.6026 -0.0458
  315MOL0     O43335   4.321   4.541   5.454  0.4286  0.0296  0.2007
  315MOL0     C43336   4.431   4.518   5.532  0.6326 -0.3600  0.3114
  315MOL0     C43337   4.551   4.576   5.494  0.2631 -0.5712 -0.2237
  315MOL0     C43338   4.674   4.547   5.558  0.0009  0.1972 -0.7291
  315MOL0     C43339   4.681   4.466   5.670 -0.1629  0.1687 -0.5651
  315MOL0     O43340   4.805   4.439   5.723  0.1579 -0.2656  0.6061
  315MOL0     C43341   4.825   4.326   5.808 -0.2799 -0.6778 -0.1548
  315MOL0     C43342   4.982   4.300   5.826  0.4142  0.3567 -0.0310
  315MOL0     C43343   5.014   4.221   5.954 -0.0173 -0.5351  0.2829
  315MOL0     C43344   5.154   4.162   5.966  0.4282  0.2328 -1.0127
  315MOL0     C43345   5.195   4.118   6.113 -0.0082  0.3802  0.1324
  315MOL0     C43346   5.340   4.101   6.140 -0.2082 -0.1901  0.0998
  315MOL0     C43347   5.358   3.993   6.250 -0.9574 -0.4661  0.2156
  315MOL0     C43348   5.513   3.978   6.280  0.8462  0.3044 -0.1223
  315MOL0     N43349   5.578   3.933   6.154  0.1196 -0.2606  0.2041
  315MOL0     C43350   5.604   3.800   6.122 -0.2732  0.3350 -0.1391
  315MOL0     C43351   5.716   3.805   6.049  0.8225 -0.3012  0.1933
  315MOL0     C43352   5.803   3.691   5.999 -0.4037 -0.4032  0.6096
  315MOL0     C43353   5.915   3.652   6.106  0.5487 -0.0697  0.7153
  315MOL0     C43354   5.943   3.505   6.116 -1.2373 -0.4613 -0.0205
  315MOL0     C43355   6.075   3.491   6.199  0.2464 -0.1071 -0.7284
  315MOL0     O43356   6.134   3.364   6.198 -0.4371  0.2785 -0.3993
  315MOL0     C43357   6.245   3.335   6.265 -0.4567 -0.0080  0.3184
  315MOL0     C43358   6.296   3.212   6.248 -0.9680  0.1643  0.2987
  315MOL0     C43359   6.393   3.157   6.334  0.0858 -0.0854 -0.1323
  315MOL0     C43360   6.418   3.009   6.325  0.5489  0.2084 -0.0191
  315MOL0     C43361   6.446   3.235   6.439 -1.2707 -0.1746 -0.3897
  315MOL0     C43362   6.550   3.189   6.527 -0.0516 -0.2900  0.6204
  315MOL0     O43363   6.530   3.215   6.663 -0.4521 -0.1043 -0.3553
  315MOL0     C43364   6.645   3.242   6.738  0.0872 -0.3277 -0.1603
  315MOL0     C43365   6.681   3.372   6.763  0.0784  0.6015  0.4653
  315MOL0     C43366   6.801   3.398   6.833  0.4005  0.2239  0.4850
  315MOL0     C43367   6.888   3.289   6.872 -0.3904 -1.2876 -0.5984
  315MOL0     O43368   7.006   3.323   6.929  0.5193  0.0300  1.1376
  315MOL0     C43369   7.100   3.215   6.936  0.5717 -0.1848  0.3267
  315MOL0     C43370   7.236   3.268   6.960 -0.7977  0.1063  0.3309
  315MOL0     C43371   7.295   3.323   6.837 -0.6858 -0.3086 -0.0633
  315MOL0     C43372   7.445   3.291   6.824  0.3314  0.1957 -0.2964
  315MOL0     C43373   7.502   3.354   6.695  0.1253  0.0129  0.6415
  315MOL0     C43374   7.464   3.297   6.556  0.2988  0.2390  0.4930
  315MOL0     C43375   7.555   3.346   6.442  1.3064  0.1531 -0.4629
  315MOL0     C43376   7.527   3.487   6.396 -0.3948  0.8844  0.4487
  315MOL0    Cl43377   7.342   3.501   6.367 -0.3132  0.3758  0.3422
  315MOL0     C43378   6.846   3.159   6.863  0.5234 -0.3596 -0.4772
  315MOL0     C43379   6.719   3.145   6.798 -0.8406  0.2761  0.3916
  315MOL0     O43380   6.646   3.143   6.475  0.1695  0.5113  0.4614
  315MOL0     C43381   6.404   3.372   6.455 -0.7201  0.3477 -0.5419
  315MOL0     C43382   6.305   3.414   6.367  0.0940 -0.7798 -0.3156
  315MOL0     N43383   5.752   3.937   6.022 -0.0696 -0.2131  0.2473
  315MOL0     N43384   5.661   4.012   6.082 -0.4652  0.2522 -0.3369
  315MOL0     C43385   4.560   4.398   5.707  0.0204  0.4745  0.2198
  315MOL0     C43386   4.435   4.426   5.638 -0.1254  1.0830  0.1985
  315MOL0     C43387   4.090   4.619   5.430 -0.6854 -0.9846  0.0093
  315MOL0     C43388   3.969   4.664   5.494  0.2512  0.7369  0.0701
  315MOL0     C43389   3.844   4.673   5.426  0.8006 -0.2615 -0.3694
  315MOL0     C43390   3.833   4.653   5.288 -0.9955 -0.8444 -0.0738
  315MOL0     O43391   3.724   4.683   5.211 -0.0442  0.4748 -0.2918
  315MOL0     C43392   3.598   4.727   5.274 -0.5211  0.1170  0.7467
  315MOL0     C43393   3.507   4.799   5.168  0.5215  0.4331  0.6618
  315MOL0     C43394   3.501   4.737   5.029 -0.0527  0.6823 -0.0340
  315MOL0     C43395   3.410   4.620   5.016  0.6565 -0.5733 -0.3757
  315MOL0     C43396   3.271   4.649   5.055 -0.4380 -1.3009  0.1392
  315MOL0     C43397   3.157   4.670   5.094  0.9319  0.4005 -0.6017
  315MOL0     C43398   3.947   4.600   5.225 -0.0203  0.0169  0.5775
  315MOL0     C43399   4.077   4.576   5.289 -0.4599 -1.2450  0.1898
  315MOL0     C43400   4.189   4.526   5.200 -0.9209  0.1014 -0.3237
  315MOL0     H43401   4.555   4.649   5.413  1.4003  0.4541  0.7063
  315MOL0     H43402   4.767   4.592   5.527  0.2096  3.6752  3.8610
  315MOL0     H43403   4.782   4.233   5.771 -3.7944  1.1524 -1.0977
  315MOL0     H43404   4.777   4.350   5.904  1.0608  0.7479  0.2073
  315MOL0     H43405   5.017   4.222   5.758 -0.9311 -1.6992  1.5293
  315MOL0     H43406   5.037   4.393   5.807  0.2914  0.2599 -0.9028
  315MOL0     H43407   4.995   4.283   6.042 -0.3551  0.0552 -0.2007
  315MOL0     H43408   4.937   4.145   5.971  0.3727 -0.6437  1.7187
  315MOL0     H43409   5.168   4.069   5.909  1.6511 -1.4113  1.7710
  315MOL0     H43410   5.234   4.229   5.933  3.6102 -2.2858  0.8942
  315MOL0     H43411   5.145   4.027   6.147 -0.6110  0.1891 -1.2068
  315MOL0     H43412   5.160   4.196   6.182 -2.2037  0.8804 -1.4495
  315MOL0     H43413   5.391   4.086   6.044 -2.1376  1.2804 -1.2513
  315MOL0     H43414   5.388   4.196   6.166  0.6655 -0.8386  0.8935
  315MOL0     H43415   5.310   3.907   6.201 -0.9931  1.5017 -3.5872
  315MOL0     H43416   5.304   4.021   6.341 -0.0176  2.4198 -0.0160
  315MOL0     H43417   5.545   4.077   6.316 -1.3515  0.0000  3.0337
  315MOL0     H43418   5.523   3.903   6.359 -0.7865  0.8829  0.6653
  315MOL0     H43419   5.554   3.713   6.164  0.4632  0.9308  2.0935
  315MOL0     H43420   5.852   3.720   5.906 -2.8473 -1.8901 -1.2668
  315MOL0     H43421   5.735   3.611   5.969  0.8484 -0.9220 -0.9848
  315MOL0     H43422   6.011   3.697   6.077 -0.3403  2.6969  1.7842
  315MOL0     H43423   5.893   3.696   6.203 -0.4100 -1.3909  1.1231
  315MOL0     H43424   5.856   3.455   6.158 -1.6317 -0.6049 -0.9811
  315MOL0     H43425   5.969   3.459   6.020 -0.6346  3.3758 -1.8620
  315MOL0     H43426   6.150   3.563   6.164 -1.0461  2.3044  1.1378
  315MOL0     H43427   6.044   3.519   6.300 -2.2858 -2.6391 -0.6724
  315MOL0     H43428   6.253   3.149   6.171 -1.2619  2.0914 -1.1852
  315MOL0     H43429   6.336   2.966   6.267  2.8210 -3.6180 -0.7797
  315MOL0     H43430   6.418   2.960   6.423 -0.4968  0.0945 -0.0680
  315MOL0     H43431   6.508   2.993   6.264 -2.0569 -0.9302 -3.9775
  315MOL0     H43432   6.609   3.442   6.722 -0.6709  0.1774  1.0255
  315MOL0     H43433   6.829   3.501   6.848 -0.9099  0.5092  1.1438
  315MOL0     H43434   7.084   3.152   7.024  2.4085  0.8131  1.4656
  315MOL0     H43435   7.110   3.149   6.850  0.9085  0.8606 -0.4600
  315MOL0     H43436   7.230   3.343   7.040 -1.3568  1.6224 -1.0717
  315MOL0     H43437   7.307   3.194   6.997 -2.4586 -2.1388 -0.7906
  315MOL0     H43438   7.273   3.427   6.810  0.4148 -0.9939 -4.3834
  315MOL0     H43439   7.236   3.279   6.756 -2.1555  0.0044  0.7990
  315MOL0     H43440   7.455   3.182   6.830 -2.4245 -0.0677  0.7909
  315MOL0     H43441   7.499   3.326   6.913 -0.4672  0.2943  0.1542
  315MOL0     H43442   7.485   3.462   6.688  0.9296  0.0708 -0.5527
  315MOL0     H43443   7.610   3.340   6.706 -0.3182 -1.9011  3.9536
  315MOL0     H43444   7.360   3.328   6.543  0.2859 -0.4812 -1.4889
  315MOL0     H43445   7.475   3.189   6.568 -0.1487  0.0222 -0.9378
  315MOL0     H43446   7.526   3.282   6.358 -1.3135 -1.2353  1.3408
  315MOL0     H43447   7.656   3.319   6.475  0.5428 -2.9350 -0.3589
  315MOL0     H43448   7.586   3.524   6.312 -0.3280 -0.3595 -0.0657
  315MOL0     H43449   7.555   3.549   6.482  1.2930 -1.6295  1.8472
  315MOL0     H43450   6.898   3.069   6.894  0.2696 -0.2232  0.3642
  315MOL0     H43451   6.675   3.046   6.796 -0.5093  0.1174  0.8296
  315MOL0     H43452   6.448   3.439   6.528 -1.0267  1.3360 -1.2480
  315MOL0     H43453   6.260   3.512   6.386 -0.4612 -1.1834  0.5462
  315MOL0     H43454   4.565   4.328   5.790  1.0287  1.8011  1.3330
  315MOL0     H43455   4.345   4.381   5.680  0.8856  0.1709  1.4768
  315MOL0     H43456   3.979   4.670   5.602  2.5508 -1.5876  0.1110
  315MOL0     H43457   3.757   4.684   5.489  2.7650 -0.3495  2.5519
  315MOL0     H43458   3.540   4.653   5.331 -0.6742 -0.1444  0.2549
  315MOL0     H43459   3.631   4.804   5.345 -1.9151  1.4361  0.0361
  315MOL0     H43460   3.547   4.899   5.149  0.7902  0.4441  1.2532
  315MOL0     H43461   3.407   4.802   5.212  0.9182  0.3270  1.5991
  315MOL0     H43462   3.463   4.813   4.959 -2.9254 -1.6574 -1.2061
  315MOL0     H43463   3.600   4.703   4.997  0.2006 -0.4132  1.8204
  315MOL0     H43464   3.446   4.544   5.086  0.1333 -2.5452 -2.1385
  315MOL0     H43465   3.414   4.559   4.925  0.3957 -2.5257  0.8611
  315MOL0     H43466   3.057   4.687   5.128  0.6735 -0.0882 -1.0943
  315MOL0     H43467   3.948   4.579   5.118 -3.8333  2.3631 -0.1209
  315MOL0     H43468   4.140   4.476   5.116  0.6340  0.5660 -1.5320
  315MOL0     H43469   4.262   4.601   5.169 -0.2211 -0.6100 -0.4222
  315MOL0     H43470   4.244   4.448   5.253 -0.1702  0.7899 -0.0662
  316MOL0     O43471   2.545   8.234   2.501 -0.1812  0.8098  0.1556
  316MOL0     C43472   2.646   8.296   2.465  0.1290  0.3283 -0.3132
  316MOL0     O43473   2.725   8.374   2.550  0.2882 -0.2085 -0.5744
  316MOL0     C43474   2.703   8.381   2.690 -0.9859  0.3618  0.8256
  316MOL0     C43475   2.578   8.419   2.748  0.4322  0.7305 -0.1932
  316MOL0     C43476   2.568   8.427   2.887 -0.6410  0.3528 -0.0369
  316MOL0     C43477   2.678   8.403   2.963 -0.2463 -0.0250 -0.3338
  316MOL0     O43478   2.686   8.417   3.099  0.2156 -0.0628  0.1686
  316MOL0     C43479   2.586   8.496   3.175  0.0641 -0.2033  0.4236
  316MOL0     C43480   2.602   8.464   3.326 -0.3412 -0.3338  0.2907
  316MOL0     C43481   2.663   8.328   3.354  0.6209  0.3522 -0.8400
  316MOL0     C43482   2.659   8.307   3.508  0.4240 -0.3236 -0.0552
  316MOL0     C43483   2.712   8.170   3.551  0.1974  0.4272  0.1152
  316MOL0     C43484   2.610   8.055   3.523 -0.4328  0.1797 -0.3726
  316MOL0     C43485   2.665   7.921   3.580 -0.0572  0.2637 -0.9242
  316MOL0     C43486   2.601   7.814   3.499  0.6171 -0.1935  0.6315
  316MOL0     N43487   2.642   7.808   3.359  0.2649  0.3195  0.3259
  316MOL0     C43488   2.566   7.843   3.250  0.1317  0.3055 -0.3470
  316MOL0     C43489   2.644   7.830   3.138 -0.0506  0.5008  0.7663
  316MOL0     C43490   2.611   7.874   3.000  0.8221 -0.6204 -0.3354
  316MOL0     C43491   2.529   7.999   3.012 -0.5745 -0.4572  0.7341
  316MOL0     C43492   2.528   8.093   2.905  0.2831  0.1800 -0.7785
  316MOL0     C43493   2.435   8.057   2.789 -0.9462 -0.4976 -0.1191
  316MOL0     O43494   2.315   7.992   2.820  0.3181 -0.5811  0.3037
  316MOL0     C43495   2.215   8.011   2.722  0.2499  0.1274  0.1103
  316MOL0     C43496   2.090   8.045   2.767 -0.0682  0.4899 -0.0143
  316MOL0     C43497   1.976   8.072   2.688  0.3628 -0.0974  1.3987
  316MOL0     C43498   1.856   8.126   2.758 -0.3431  0.0566 -0.0543
  316MOL0     C43499   1.995   8.064   2.541 -0.1494  0.4446 -0.4642
  316MOL0     C43500   1.884   8.077   2.442  0.4563 -0.2264  0.1535
  316MOL0     O43501   1.919   8.079   2.310  0.1674 -0.1268  0.1554
  316MOL0     C43502   1.829   8.095   2.202 -0.0229 -0.5516 -0.2701
  316MOL0     C43503   1.892   8.145   2.087  0.3956 -0.2385 -0.7719
  316MOL0     C43504   1.811   8.200   1.978 -0.5284 -0.1668 -0.8727
  316MOL0     C43505   1.673   8.207   1.984 -0.4291 -0.3510 -0.0176
  316MOL0     O43506   1.602   8.256   1.874 -0.4015  0.5327 -0.3836
  316MOL0     C43507   1.516   8.361   1.921 -0.1305 -0.2299  0.0127
  316MOL0     C43508   1.448   8.426   1.801  0.6061  0.1267  0.3350
  316MOL0     C43509   1.325   8.353   1.746 -0.2562 -0.3980 -0.5364
  316MOL0     C43510   1.260   8.406   1.621 -0.6036 -0.0858  0.1111
  316MOL0     C43511   1.111   8.359   1.617  0.5166 -0.1280 -0.1136
  316MOL0     C43512   1.050   8.408   1.497  0.0290 -0.7831  0.9192
  316MOL0     C43513   0.895   8.405   1.493 -0.3707 -0.7893  0.6304
  316MOL0     C43514   0.841   8.269   1.502 -0.1697  0.3013 -0.6866
  316MOL0    Cl43515   0.880   8.180   1.351 -0.1031  0.4072 -0.6399
  316MOL0     C43516   1.612   8.154   2.102 -0.2373 -0.0119 -0.5813
  316MOL0     C43517   1.689   8.101   2.208 -0.0696 -0.2316  0.6960
  316MOL0     O43518   1.769   8.106   2.479  0.1693 -0.0423 -0.6822
  316MOL0     C43519   2.126   8.024   2.494 -0.1672  1.0187  0.0645
  316MOL0     C43520   2.236   8.007   2.579  0.0186 -0.4351  0.7199
  316MOL0     N43521   2.750   7.760   3.176 -1.1036  0.2672  0.4245
  316MOL0     N43522   2.753   7.749   3.308 -0.4418 -0.0957 -0.2864
  316MOL0     C43523   2.803   8.362   2.907 -0.0369 -0.5913 -0.5000
  316MOL0     C43524   2.812   8.353   2.773  0.3952 -0.0956 -0.4328
  316MOL0     C43525   2.691   8.284   2.331  0.2388  0.4948 -0.7170
  316MOL0     C43526   2.685   8.161   2.269 -1.7367 -0.2698 -0.3063
  316MOL0     C43527   2.725   8.142   2.133 -0.3017 -0.4911  0.6298
  316MOL0     C43528   2.776   8.245   2.061  0.7403 -0.0110 -0.0486
  316MOL0     O43529   2.808   8.210   1.928 -0.0771 -0.9309  0.7289
  316MOL0     C43530   2.845   8.321   1.839  0.5943  0.2222 -0.2015
  316MOL0     C43531   2.894   8.279   1.700  0.2365  0.2561  0.3544
  316MOL0     C43532   2.977   8.147   1.710  0.2035 -0.0610 -0.2339
  316MOL0     C43533   3.068   8.121   1.586  0.0977 -0.4424  0.7584
  316MOL0     C43534   3.158   8.226   1.560 -0.4424 -0.2019  0.6862
  316MOL0     C43535   3.250   8.304   1.527 -0.1892 -0.2199 -1.1501
  316MOL0     C43536   2.773   8.378   2.117  0.2381 -0.4326 -0.3268
  316MOL0     C43537   2.732   8.398   2.252  0.5460  0.2634  0.5262
  316MOL0     C43538   2.715   8.541   2.294  0.1081 -0.1438  0.0677
  316MOL0     H43539   2.497   8.441   2.679 -3.4525 -0.5664  3.5577
  316MOL0     H43540   2.477   8.465   2.932 -1.6025 -1.0730 -0.6890
  316MOL0     H43541   2.484   8.458   3.162 -0.5261  1.5542 -0.3248
  316MOL0     H43542   2.607   8.601   3.151  2.5198 -1.0138 -1.4447
  316MOL0     H43543   2.671   8.541   3.361  1.5469 -2.2313  0.9512
  316MOL0     H43544   2.505   8.480   3.373 -0.1241 -1.5374  1.1957
  316MOL0     H43545   2.599   8.254   3.305 -0.2229  0.5388 -0.0625
  316MOL0     H43546   2.766   8.325   3.318  1.3046  0.5890  1.0057
  316MOL0     H43547   2.710   8.391   3.556 -1.0286  0.7789 -0.3481
  316MOL0     H43548   2.557   8.320   3.547  0.6460  2.5001 -0.2242
  316MOL0     H43549   2.733   8.168   3.659 -2.1221 -1.0541  0.6211
  316MOL0     H43550   2.803   8.154   3.494 -0.1304  1.7156 -0.8233
  316MOL0     H43551   2.523   8.061   3.590  0.2254 -2.3779  0.8205
  316MOL0     H43552   2.574   8.045   3.420 -1.7764 -1.4491  0.1906
  316MOL0     H43553   2.630   7.902   3.681 -0.7054 -1.0934 -1.3769
  316MOL0     H43554   2.773   7.904   3.573  0.0512  0.5787 -0.0422
  316MOL0     H43555   2.639   7.716   3.531 -0.4277 -2.2779 -3.7191
  316MOL0     H43556   2.492   7.812   3.507  0.5813 -4.2698  1.4261
  316MOL0     H43557   2.462   7.876   3.252 -1.7589 -4.7078 -1.5701
  316MOL0     H43558   2.560   7.796   2.942 -1.2839 -0.2254  0.8915
  316MOL0     H43559   2.698   7.896   2.938 -1.3684  2.4527 -2.6342
  316MOL0     H43560   2.426   7.963   3.025 -0.2484 -0.7324  2.9906
  316MOL0     H43561   2.545   8.051   3.107  0.3507 -2.7697  1.9223
  316MOL0     H43562   2.494   8.191   2.940  0.2813  0.6897 -2.1275
  316MOL0     H43563   2.630   8.113   2.873  0.8975 -0.2885  0.8129
  316MOL0     H43564   2.415   8.147   2.729 -2.3258 -0.8090 -0.1459
  316MOL0     H43565   2.480   7.992   2.714 -1.5134 -1.2417  0.1795
  316MOL0     H43566   2.083   8.050   2.875 -0.1007 -1.7510  0.1482
  316MOL0     H43567   1.778   8.050   2.772 -0.8407  0.9355  2.4754
  316MOL0     H43568   1.818   8.216   2.708 -0.7530  1.8714  3.2323
  316MOL0     H43569   1.892   8.155   2.858  0.2488 -0.5168 -0.0974
  316MOL0     H43570   2.000   8.136   2.078  0.8101  1.0017  1.9856
  316MOL0     H43571   1.862   8.245   1.893 -0.4411  1.4236 -0.0154
  316MOL0     H43572   1.439   8.340   1.996  0.9488 -0.0735  1.1988
  316MOL0     H43573   1.582   8.431   1.973  0.7132 -1.4385  0.6232
  316MOL0     H43574   1.410   8.525   1.829 -2.1741 -0.6830 -0.2621
  316MOL0     H43575   1.522   8.437   1.721 -0.6884 -1.8848 -1.2251
  316MOL0     H43576   1.246   8.363   1.820  0.3544 -0.2311  0.1106
  316MOL0     H43577   1.338   8.245   1.735  0.3562 -0.3412 -0.4468
  316MOL0     H43578   1.318   8.368   1.536  1.2629  3.8503 -0.6116
  316MOL0     H43579   1.269   8.515   1.622 -2.0666  0.0534  0.9798
  316MOL0     H43580   1.117   8.250   1.617  2.5108 -0.0522 -0.3710
  316MOL0     H43581   1.055   8.384   1.708  1.0679 -2.2765  0.8771
  316MOL0     H43582   1.079   8.349   1.409  0.2457  0.2140  0.3149
  316MOL0     H43583   1.070   8.514   1.481  0.2143 -0.9403  0.0151
  316MOL0     H43584   0.856   8.441   1.397 -1.0035 -1.4553  0.6265
  316MOL0     H43585   0.854   8.473   1.568 -1.8229 -1.0012  0.0646
  316MOL0     H43586   0.732   8.268   1.514 -0.0569 -2.4539  0.9592
  316MOL0     H43587   0.881   8.213   1.587 -1.1397  2.7354  1.5089
  316MOL0     H43588   1.504   8.165   2.106 -0.5150 -1.3890 -2.9374
  316MOL0     H43589   1.633   8.073   2.297  1.5484 -3.7537  0.7984
  316MOL0     H43590   2.155   8.012   2.390  1.5245 -4.0878  0.8224
  316MOL0     H43591   2.329   7.984   2.527  0.4661  3.9227 -0.8374
  316MOL0     H43592   2.897   8.342   2.957 -1.1889 -0.8341  1.7106
  316MOL0     H43593   2.905   8.317   2.729  0.4104  0.4406 -0.8542
  316MOL0     H43594   2.642   8.084   2.333 -1.6728 -2.4689 -2.7735
  316MOL0     H43595   2.715   8.040   2.095 -0.9605  0.1566 -1.0252
  316MOL0     H43596   2.753   8.379   1.834  0.7698  0.6805  1.3372
  316MOL0     H43597   2.924   8.385   1.881  0.7221  0.1460 -0.3275
  316MOL0     H43598   2.945   8.363   1.653 -2.7150  2.2403  0.3878
  316MOL0     H43599   2.810   8.268   1.631  2.8922  1.6179 -3.4216
  316MOL0     H43600   3.042   8.151   1.798  0.3864 -0.2550 -0.3600
  316MOL0     H43601   2.907   8.065   1.729  1.8128 -1.6214 -0.7563
  316MOL0     H43602   3.007   8.088   1.501  0.1858 -0.6754  0.7863
  316MOL0     H43603   3.127   8.032   1.608  0.9778 -0.3255 -0.9819
  316MOL0     H43604   3.338   8.363   1.514 -1.5720  2.3989  0.5228
  316MOL0     H43605   2.804   8.469   2.066 -1.3021  0.3485  0.0856
  316MOL0     H43606   2.813   8.582   2.320  2.1360 -3.1954 -2.1383
  316MOL0     H43607   2.672   8.601   2.213 -3.5701 -0.3809  1.6534
  316MOL0     H43608   2.651   8.550   2.383 -3.1013  2.4342 -2.2348
  317MOL0     O43609  10.968   5.083   5.311 -0.3427  0.4888  0.3028
  317MOL0     C43610  10.925   5.068   5.195  0.0999  0.2001 -0.3812
  317MOL0     O43611  10.971   5.121   5.087 -0.2495 -0.7842  0.1630
  317MOL0     C43612  11.094   5.181   5.103 -0.6484 -0.8291  0.3038
  317MOL0     C43613  11.209   5.107   5.065  0.1436 -0.4849  0.4958
  317MOL0     C43614  11.333   5.162   5.092  0.7456  0.8366  0.5525
  317MOL0     C43615  11.355   5.295   5.146  0.9416  0.6641 -0.4855
  317MOL0     O43616  11.479   5.344   5.153  0.5202 -0.4791  0.4071
  317MOL0     C43617  11.491   5.488   5.158 -0.5218  0.2796 -0.1269
  317MOL0     C43618  11.631   5.528   5.195 -0.3004  0.5354  0.5811
  317MOL0     C43619  11.672   5.471   5.324  0.5739 -0.2324 -0.2780
  317MOL0     C43620  11.811   5.508   5.365 -0.4741 -0.2538  0.2631
  317MOL0     C43621  11.876   5.451   5.496  0.3137  0.9150  0.4697
  317MOL0     C43622  11.995   5.536   5.541  0.7259  0.4084 -0.7580
  317MOL0     C43623  12.125   5.529   5.461  0.0828 -0.0499  0.3572
  317MOL0     C43624  12.206   5.654   5.495 -0.0445  0.3827  0.2225
  317MOL0     N43625  12.326   5.638   5.409 -0.2547 -0.2073  0.6827
  317MOL0     C43626  12.347   5.665   5.277 -0.1328 -0.1783 -0.3361
  317MOL0     C43627  12.474   5.616   5.249 -0.2090 -0.0093 -0.4319
  317MOL0     C43628  12.527   5.599   5.110 -0.6272 -0.3402  0.1266
  317MOL0     C43629  12.663   5.542   5.089  1.1337 -0.4084  0.3048
  317MOL0     C43630  12.772   5.648   5.114  0.5111  0.3406  0.2714
  317MOL0     C43631  12.829   5.668   5.253 -0.0986 -0.0661 -0.5558
  317MOL0     O43632  12.901   5.789   5.260 -0.4003  0.4274 -0.3679
  317MOL0     C43633  13.042   5.792   5.273  0.0973  0.6466 -0.2141
  317MOL0     C43634  13.103   5.909   5.306 -0.0018  0.3103 -0.0604
  317MOL0     C43635  13.241   5.923   5.325  1.0977 -0.0704  0.2900
  317MOL0     C43636  13.289   6.060   5.379 -0.9295  0.7525 -0.2260
  317MOL0     C43637  13.320   5.814   5.303 -0.1990  0.5343  0.2714
  317MOL0     C43638  13.473   5.814   5.307  0.6056 -0.2572  0.5102
  317MOL0     O43639  13.540   5.922   5.366  0.1330  0.2452  0.5165
  317MOL0     C43640  13.677   5.912   5.358 -0.3032  0.3961 -0.4172
  317MOL0     C43641  13.748   5.858   5.253 -0.4858  0.5380  0.2277
  317MOL0     C43642  13.890   5.867   5.249 -0.2231 -0.9420  0.3578
  317MOL0     C43643  13.974   5.914   5.345 -0.4268 -0.2051 -0.6941
  317MOL0     O43644  14.110   5.916   5.346  0.6899 -0.8885 -0.0201
  317MOL0     C43645  14.177   5.916   5.216  0.6535 -0.5997  0.0463
  317MOL0     C43646  14.326   5.942   5.233 -0.1084  1.2750  0.7456
  317MOL0     C43647  14.338   6.086   5.252 -0.4283 -0.2457 -0.5505
  317MOL0     C43648  14.485   6.136   5.259 -0.0508  0.1142 -0.3889
  317MOL0     C43649  14.495   6.288   5.270 -0.2917 -0.4166 -0.3572
  317MOL0     C43650  14.629   6.333   5.302  0.0366  0.6987 -0.9320
  317MOL0     C43651  14.650   6.484   5.271 -0.9241  0.1776  1.4405
  317MOL0     C43652  14.785   6.536   5.322  0.2461 -0.0902 -0.0934
  317MOL0    Cl43653  14.914   6.437   5.257  0.1619  0.5207  0.1991
  317MOL0     C43654  13.901   5.961   5.458 -0.6021  0.3290 -0.5855
  317MOL0     C43655  13.756   5.955   5.469 -0.1819  0.4340 -0.8986
  317MOL0     O43656  13.526   5.711   5.254  0.7368 -0.0028  0.3123
  317MOL0     C43657  13.255   5.694   5.255 -0.4210  0.3908 -0.1225
  317MOL0     C43658  13.121   5.681   5.244  0.3030 -0.2634 -1.4446
  317MOL0     N43659  12.540   5.575   5.369  0.6562  0.1402  0.5311
  317MOL0     N43660  12.444   5.579   5.460 -0.5521 -0.6425 -0.4366
  317MOL0     C43661  11.232   5.363   5.174 -0.2893 -0.5499  0.8341
  317MOL0     C43662  11.107   5.312   5.150  0.9151  0.6293  0.3390
  317MOL0     C43663  10.814   4.970   5.201 -0.3502  0.8061  0.4675
  317MOL0     C43664  10.812   4.873   5.300 -0.9429  1.2752  0.5409
  317MOL0     C43665  10.724   4.766   5.300  0.4469 -0.1559 -0.8898
  317MOL0     C43666  10.627   4.764   5.197 -0.1401  0.1237 -0.9209
  317MOL0     O43667  10.543   4.653   5.212  0.2814  0.2785  0.2467
  317MOL0     C43668  10.424   4.655   5.127  0.2209  0.5731 -1.3731
  317MOL0     C43669  10.456   4.600   4.995  0.0025  0.3780 -0.6669
  317MOL0     C43670  10.474   4.449   4.993 -0.8667  0.2920  0.2399
  317MOL0     C43671  10.543   4.392   4.869 -0.9523 -0.0274 -0.0363
  317MOL0     C43672  10.449   4.384   4.762  0.0483 -0.0229  0.3111
  317MOL0     C43673  10.364   4.388   4.680  0.5496 -0.0573  0.4447
  317MOL0     C43674  10.616   4.864   5.099  0.1720 -0.5659  0.2860
  317MOL0     C43675  10.708   4.974   5.093 -0.4965  0.1919 -0.2645
  317MOL0     C43676  10.708   5.061   4.982 -0.0971 -0.5532 -0.6521
  317MOL0     H43677  11.207   5.005   5.031  0.6815  0.3534 -2.2994
  317MOL0     H43678  11.421   5.111   5.055 -0.4955 -0.1901 -1.1286
  317MOL0     H43679  11.415   5.526   5.228 -0.4962  0.1551 -0.0301
  317MOL0     H43680  11.454   5.530   5.064 -3.8408  1.8203  1.6729
  317MOL0     H43681  11.697   5.488   5.117 -0.1258  1.5083  0.2206
  317MOL0     H43682  11.635   5.637   5.194  3.0057  0.5037 -0.2542
  317MOL0     H43683  11.608   5.524   5.396  1.9732  1.9461 -0.5391
  317MOL0     H43684  11.660   5.362   5.332 -0.0267 -0.2708 -1.5303
  317MOL0     H43685  11.878   5.482   5.283  1.2727 -0.7925  1.7869
  317MOL0     H43686  11.815   5.617   5.359 -2.5424 -0.1959 -1.5024
  317MOL0     H43687  11.893   5.343   5.491 -1.1342  0.6380  0.9691
  317MOL0     H43688  11.796   5.461   5.569  0.4409  0.9709  0.6008
  317MOL0     H43689  11.964   5.640   5.557 -1.8206 -0.3179 -0.4767
  317MOL0     H43690  12.023   5.500   5.641 -0.1447  2.3189  0.2341
  317MOL0     H43691  12.100   5.532   5.355  1.0579  0.1800  0.1200
  317MOL0     H43692  12.178   5.437   5.485  2.5803  0.4304 -2.7190
  317MOL0     H43693  12.150   5.747   5.484 -1.6093 -0.4501  0.7096
  317MOL0     H43694  12.225   5.640   5.601 -0.6820 -0.5569  0.2278
  317MOL0     H43695  12.270   5.710   5.216 -0.7737  0.3036  0.7942
  317MOL0     H43696  12.514   5.698   5.064 -1.0484  0.0352  1.0313
  317MOL0     H43697  12.453   5.533   5.065 -0.0694  0.9817 -2.9868
  317MOL0     H43698  12.677   5.447   5.141  3.3181  0.1262  0.8075
  317MOL0     H43699  12.668   5.527   4.981  2.1335  2.3598 -0.1163
  317MOL0     H43700  12.860   5.616   5.058  1.0153  2.3422 -0.1583
  317MOL0     H43701  12.735   5.743   5.076 -1.8221 -0.1371  1.1644
  317MOL0     H43702  12.749   5.685   5.326 -0.3958 -1.8968 -0.3917
  317MOL0     H43703  12.873   5.580   5.301  0.2604 -0.8702 -2.2820
  317MOL0     H43704  13.050   6.003   5.316  0.6250  0.5360  1.4614
  317MOL0     H43705  13.208   6.130   5.402 -2.1984 -1.5450  3.1499
  317MOL0     H43706  13.350   6.109   5.303  0.8282  0.2486  0.8004
  317MOL0     H43707  13.352   6.046   5.467  0.9997 -0.4258 -1.7251
  317MOL0     H43708  13.713   5.813   5.161 -1.6877  1.2474  0.3089
  317MOL0     H43709  13.933   5.823   5.160 -0.9125  0.2969 -0.6161
  317MOL0     H43710  14.170   5.815   5.175  0.7011 -0.6736  0.2171
  317MOL0     H43711  14.122   5.985   5.151  0.2506 -0.0078  0.9963
  317MOL0     H43712  14.383   5.888   5.308 -0.2323  1.8935  1.2924
  317MOL0     H43713  14.365   5.917   5.134 -2.2911 -0.6741  0.2956
  317MOL0     H43714  14.282   6.113   5.342 -0.3455 -2.2857  0.1553
  317MOL0     H43715  14.291   6.141   5.170 -1.7161  2.1084  1.6512
  317MOL0     H43716  14.542   6.105   5.170 -0.2417 -1.5650  0.0303
  317MOL0     H43717  14.536   6.082   5.339 -1.0656  1.1294  0.9785
  317MOL0     H43718  14.457   6.330   5.176 -0.3927 -1.7093 -0.9246
  317MOL0     H43719  14.441   6.331   5.354  2.2189  4.7659 -1.0326
  317MOL0     H43720  14.696   6.280   5.235 -0.9596  0.4659 -1.7612
  317MOL0     H43721  14.650   6.312   5.408 -4.0961 -0.6355 -0.1995
  317MOL0     H43722  14.572   6.544   5.319 -0.4721  0.3231  1.9982
  317MOL0     H43723  14.652   6.496   5.162  3.2047 -0.2596  1.3256
  317MOL0     H43724  14.785   6.521   5.431 -1.7866  1.1034  0.1317
  317MOL0     H43725  14.790   6.644   5.305 -1.7330 -0.0286 -0.5635
  317MOL0     H43726  13.953   6.012   5.538 -2.5240 -3.0297  3.1420
  317MOL0     H43727  13.703   5.998   5.552  1.4720  0.3679  0.2392
  317MOL0     H43728  13.321   5.611   5.235 -1.2553  0.0114 -1.4291
  317MOL0     H43729  13.082   5.583   5.219  0.2094 -0.6211  0.0422
  317MOL0     H43730  11.233   5.465   5.210 -2.9619  0.2385 -0.9615
  317MOL0     H43731  11.028   5.381   5.175  0.1208 -0.3723  0.6799
  317MOL0     H43732  10.888   4.868   5.376  0.7476 -2.7619 -1.1131
  317MOL0     H43733  10.730   4.696   5.383  3.8170  1.0605  0.0498
  317MOL0     H43734  10.339   4.599   5.169  1.2665  1.4197  2.2906
  317MOL0     H43735  10.381   4.756   5.121 -2.2000 -0.1462  1.3981
  317MOL0     H43736  10.547   4.648   4.956  1.4410 -0.9778  0.8390
  317MOL0     H43737  10.377   4.622   4.922 -3.3697 -2.4548  1.8282
  317MOL0     H43738  10.536   4.425   5.080 -2.8001 -2.9010  0.8766
  317MOL0     H43739  10.381   4.392   5.004 -0.5796 -0.4932 -1.1961
  317MOL0     H43740  10.581   4.293   4.897  3.5093  1.3691 -0.2550
  317MOL0     H43741  10.627   4.455   4.839 -0.8777 -0.0329  0.1545
  317MOL0     H43742  10.291   4.403   4.603  2.3296 -1.9526 -1.7495
  317MOL0     H43743  10.535   4.853   5.027 -0.1914 -1.9026  0.8618
  317MOL0     H43744  10.629   5.046   4.909  0.7348 -0.9433 -1.4927
  317MOL0     H43745  10.707   5.159   5.031 -0.9993 -0.5033 -0.7622
  317MOL0     H43746  10.801   5.042   4.927  0.5481 -0.7698  0.4671
  318MOL0     O43747   7.919   6.401   6.230  0.0740 -0.5317 -0.2262
  318MOL0     C43748   7.835   6.406   6.146  0.3448 -0.4663  0.4743
  318MOL0     O43749   7.852   6.392   6.014  0.0009  0.7841  0.4959
  318MOL0     C43750   7.968   6.330   5.973  0.5122 -0.4636 -0.0635
  318MOL0     C43751   8.020   6.384   5.863  0.0004 -0.9267  0.4949
  318MOL0     C43752   8.141   6.325   5.813  0.0202  0.5824 -0.0100
  318MOL0     C43753   8.200   6.219   5.876  0.6176  0.2508 -0.3542
  318MOL0     O43754   8.310   6.146   5.831  0.0716 -0.8061  0.3580
  318MOL0     C43755   8.411   6.223   5.772 -0.1938 -0.7384 -0.9490
  318MOL0     C43756   8.493   6.126   5.692 -0.2869 -0.3801  0.0000
  318MOL0     C43757   8.602   6.196   5.609 -0.5218  0.2580  0.2454
  318MOL0     C43758   8.702   6.094   5.552 -0.2319  0.6956 -0.2104
  318MOL0     C43759   8.820   6.179   5.493 -0.0379 -0.2378 -1.0784
  318MOL0     C43760   8.922   6.085   5.421  1.3773 -0.8494 -0.2306
  318MOL0     C43761   9.051   6.171   5.379 -0.1080 -0.4816 -0.6963
  318MOL0     C43762   9.182   6.104   5.433 -0.1029  0.6057  0.0848
  318MOL0     N43763   9.310   6.143   5.380 -0.5392 -0.8213  0.3862
  318MOL0     C43764   9.375   6.262   5.402 -0.5583  0.6760  0.2933
  318MOL0     C43765   9.501   6.245   5.357 -0.3962 -0.0882  0.6426
  318MOL0     C43766   9.608   6.345   5.375 -0.3206  0.2781  0.5295
  318MOL0     C43767   9.713   6.364   5.262  0.2730  0.0930 -0.2028
  318MOL0     C43768   9.810   6.470   5.293 -1.1299  0.8871 -0.7184
  318MOL0     C43769   9.923   6.481   5.184  0.3112  0.8258 -0.0013
  318MOL0     O43770  10.023   6.378   5.211 -0.3270 -1.2184 -0.0771
  318MOL0     C43771  10.142   6.401   5.147 -0.0140 -0.1775 -0.1634
  318MOL0     C43772  10.196   6.298   5.066  0.0132  0.3267 -0.9123
  318MOL0     C43773  10.327   6.309   5.012  0.3901 -0.8415 -0.7244
  318MOL0     C43774  10.374   6.208   4.909  0.2685  0.6094  0.3241
  318MOL0     C43775  10.408   6.424   5.058  0.0169  0.1460 -0.3645
  318MOL0     C43776  10.545   6.431   5.009  0.0236 -0.5950 -0.5747
  318MOL0     O43777  10.580   6.554   4.958  0.2561 -0.5201 -0.9712
  318MOL0     C43778  10.713   6.579   4.941  0.1154  0.3924 -0.2709
  318MOL0     C43779  10.786   6.507   4.840 -0.8227 -0.4643 -0.2715
  318MOL0     C43780  10.920   6.540   4.817 -0.7256 -0.5395 -0.1197
  318MOL0     C43781  10.977   6.656   4.879 -0.2497 -1.2775 -0.1671
  318MOL0     O43782  11.111   6.683   4.885 -0.6259  0.1223  0.4273
  318MOL0     C43783  11.205   6.633   4.783 -0.6476  0.4582  0.2425
  318MOL0     C43784  11.339   6.696   4.799 -0.9738 -0.2569  0.3371
  318MOL0     C43785  11.332   6.848   4.780  0.4224 -0.4715 -0.1810
  318MOL0     C43786  11.467   6.925   4.791  0.3378 -0.6918 -0.7576
  318MOL0     C43787  11.450   7.064   4.853  0.0956  0.1177 -0.7817
  318MOL0     C43788  11.371   7.158   4.764  0.5926  0.0968  0.7302
  318MOL0     C43789  11.365   7.298   4.833  0.1986 -0.2541 -0.4678
  318MOL0     C43790  11.492   7.375   4.808  0.1206  0.5036 -0.7106
  318MOL0    Cl43791  11.616   7.349   4.937  0.2045  0.3996  0.2333
  318MOL0     C43792  10.900   6.730   4.965  0.3266 -0.1231 -0.1805
  318MOL0     C43793  10.772   6.692   5.001  0.1910  0.5955 -0.0904
  318MOL0     O43794  10.623   6.339   5.031  0.6851 -0.0897  0.2355
  318MOL0     C43795  10.355   6.518   5.147 -0.1988 -0.3060 -0.1081
  318MOL0     C43796  10.224   6.496   5.189 -0.2788 -0.7039 -0.1087
  318MOL0     N43797   9.514   6.112   5.310 -0.7367 -0.6101 -0.7630
  318MOL0     N43798   9.406   6.056   5.328  0.2618 -0.4396  0.5996
  318MOL0     C43799   8.137   6.164   5.984 -0.5620 -0.0688 -0.8436
  318MOL0     C43800   8.022   6.213   6.036  0.3032 -0.3714  0.2304
  318MOL0     C43801   7.694   6.458   6.180  0.1420  0.2629  0.6468
  318MOL0     C43802   7.623   6.528   6.080 -0.6342 -0.9598  0.0115
  318MOL0     C43803   7.493   6.559   6.100  0.8176  0.2154  1.2100
  318MOL0     C43804   7.431   6.539   6.222  0.8301 -0.6324 -0.1148
  318MOL0     O43805   7.301   6.582   6.224 -0.4425 -0.4999 -0.3225
  318MOL0     C43806   7.229   6.587   6.346 -0.2392  0.2621 -0.3470
  318MOL0     C43807   7.079   6.602   6.329  0.1537  0.8392  0.6897
  318MOL0     C43808   7.007   6.624   6.461 -0.2521  0.8220  0.7162
  318MOL0     C43809   6.994   6.498   6.542 -0.5355  0.0933  0.5878
  318MOL0     C43810   7.100   6.479   6.632  0.2240 -0.6644 -0.5677
  318MOL0     C43811   7.187   6.463   6.711 -0.6201  0.0685 -0.1243
  318MOL0     C43812   7.500   6.486   6.324  0.0914 -0.8912  0.5649
  318MOL0     C43813   7.626   6.432   6.304  0.2171 -0.5874 -0.5846
  318MOL0     C43814   7.689   6.376   6.426 -0.3593 -0.1015 -0.3814
  318MOL0     H43815   7.971   6.472   5.823 -0.3552 -0.9258  0.9217
  318MOL0     H43816   8.199   6.372   5.734  1.9678  0.8980  1.5213
  318MOL0     H43817   8.482   6.254   5.849 -0.3565 -1.4144 -0.5133
  318MOL0     H43818   8.374   6.307   5.712  1.6096 -0.5886 -1.9213
  318MOL0     H43819   8.544   6.056   5.759  2.3159  0.0987 -1.3561
  318MOL0     H43820   8.427   6.064   5.631  3.4391 -4.8878 -0.0427
  318MOL0     H43821   8.559   6.256   5.529 -0.6915 -0.4819 -0.2323
  318MOL0     H43822   8.658   6.265   5.672  0.9003 -2.2852  1.9967
  318MOL0     H43823   8.736   6.026   5.630 -1.5351 -1.6783 -1.5959
  318MOL0     H43824   8.649   6.029   5.481  0.0518  0.1099  0.1126
  318MOL0     H43825   8.866   6.218   5.585 -0.0177 -3.0855  0.2298
  318MOL0     H43826   8.785   6.249   5.417  0.1266 -0.5735 -1.4637
  318MOL0     H43827   8.952   6.003   5.487 -2.2535 -2.2682 -0.1443
  318MOL0     H43828   8.886   6.043   5.327  0.4694  0.6230 -0.5633
  318MOL0     H43829   9.043   6.276   5.406  0.2920 -0.2150 -1.5718
  318MOL0     H43830   9.058   6.174   5.270  1.6372 -3.6448 -0.8011
  318MOL0     H43831   9.177   6.122   5.541 -3.4558  0.6671  0.0308
  318MOL0     H43832   9.182   5.995   5.430  3.1653  0.5408 -1.7857
  318MOL0     H43833   9.348   6.354   5.454  0.1689  0.4612  1.0872
  318MOL0     H43834   9.660   6.325   5.469  1.3829  2.1129  0.0557
  318MOL0     H43835   9.557   6.442   5.386  2.0824  1.7234 -0.4158
  318MOL0     H43836   9.769   6.272   5.245  1.3680  0.7373 -0.2503
  318MOL0     H43837   9.649   6.390   5.177  2.2768  2.6946 -1.0742
  318MOL0     H43838   9.769   6.571   5.302  1.9730  2.4840 -2.4104
  318MOL0     H43839   9.852   6.453   5.392  1.5620 -0.5792 -1.9814
  318MOL0     H43840   9.872   6.468   5.088 -2.9754  0.4123  1.6446
  318MOL0     H43841   9.973   6.578   5.196  0.0262  1.0727 -0.7778
  318MOL0     H43842  10.136   6.209   5.051  0.8019 -0.0830 -1.7463
  318MOL0     H43843  10.461   6.245   4.854  1.3471 -0.1196  1.4906
  318MOL0     H43844  10.296   6.188   4.834  1.4036  1.4681 -1.1407
  318MOL0     H43845  10.403   6.114   4.957  0.6731  0.4565 -0.2197
  318MOL0     H43846  10.746   6.423   4.784 -0.7943 -0.3316 -0.4935
  318MOL0     H43847  10.981   6.482   4.748 -2.3070  0.1058 -2.1586
  318MOL0     H43848  11.219   6.526   4.800  1.5973  0.9230  1.6264
  318MOL0     H43849  11.164   6.645   4.683  1.3783 -1.7864 -0.9499
  318MOL0     H43850  11.365   6.675   4.903 -0.1785  0.4617  0.2964
  318MOL0     H43851  11.407   6.642   4.733 -1.0190 -1.5641  1.3111
  318MOL0     H43852  11.261   6.885   4.855  0.8499  2.2904 -1.0204
  318MOL0     H43853  11.295   6.875   4.680 -0.4606  0.2016  0.3160
  318MOL0     H43854  11.513   6.938   4.693  2.1280 -1.3893 -0.0546
  318MOL0     H43855  11.538   6.868   4.851  0.0407 -0.4939 -0.2087
  318MOL0     H43856  11.398   7.057   4.949 -1.8388 -1.1983 -1.8509
  318MOL0     H43857  11.553   7.095   4.872  0.9983 -0.8282 -3.6182
  318MOL0     H43858  11.269   7.119   4.757  1.0788 -1.0682 -0.2223
  318MOL0     H43859  11.417   7.172   4.665 -0.1845  0.4833  0.4166
  318MOL0     H43860  11.359   7.285   4.942  1.6563  0.0726 -0.3272
  318MOL0     H43861  11.277   7.352   4.797  0.3328 -0.8491 -1.7147
  318MOL0     H43862  11.467   7.482   4.808 -0.4400  0.3767 -0.4119
  318MOL0     H43863  11.534   7.347   4.711 -1.9323  2.2435 -2.1997
  318MOL0     H43864  10.952   6.809   5.018  4.2455 -0.0628 -3.5502
  318MOL0     H43865  10.724   6.758   5.073 -0.1943  0.9081 -0.6298
  318MOL0     H43866  10.406   6.606   5.186 -0.3614  0.0384 -0.6580
  318MOL0     H43867  10.178   6.563   5.260 -0.1285 -0.2809 -0.4098
  318MOL0     H43868   8.182   6.073   6.023  0.3038  0.0649 -1.5090
  318MOL0     H43869   7.990   6.158   6.124  2.2836  0.6320  1.6427
  318MOL0     H43870   7.674   6.548   5.987  1.1420 -3.3729  0.3719
  318MOL0     H43871   7.436   6.603   6.019  1.8642  0.9902  0.8567
  318MOL0     H43872   7.242   6.487   6.387  0.6310  0.1236 -0.9346
  318MOL0     H43873   7.281   6.657   6.413  1.1591 -0.3970 -0.7019
  318MOL0     H43874   7.033   6.516   6.280  0.6355  0.3914  1.0090
  318MOL0     H43875   7.061   6.685   6.260  0.9845 -1.9856 -3.2886
  318MOL0     H43876   7.047   6.710   6.515  1.6418  1.8835 -2.1044
  318MOL0     H43877   6.907   6.655   6.429  0.3538 -1.1983 -3.9964
  318MOL0     H43878   6.976   6.406   6.486  2.1322 -1.1293  1.5835
  318MOL0     H43879   6.915   6.517   6.616 -0.0292 -0.4255  1.2728
  318MOL0     H43880   7.253   6.427   6.788 -1.8697  0.0987  1.0110
  318MOL0     H43881   7.459   6.489   6.424  1.8114  2.3828  1.3293
  318MOL0     H43882   7.766   6.445   6.461 -0.3509 -1.6786  3.0941
  318MOL0     H43883   7.622   6.363   6.511  1.0469 -0.9506  0.6475
  318MOL0     H43884   7.723   6.274   6.409 -1.4802 -0.2284 -2.1358
  319MOL0     O43885   0.403  11.348  10.106 -0.2250  0.2483 -0.9720
  319MOL0     C43886   0.353  11.255  10.041  0.1735 -0.3747  0.2963
  319MOL0     O43887   0.424  11.159   9.961  0.1062 -0.5394  0.8057
  319MOL0     C43888   0.560  11.179   9.943 -0.2031  0.1804  0.9064
  319MOL0     C43889   0.616  11.163   9.819  0.0401 -0.5208 -0.1540
  319MOL0     C43890   0.752  11.162   9.809 -0.1851 -0.2601 -0.4810
  319MOL0     C43891   0.833  11.169   9.922 -0.2057 -0.2121 -0.0362
  319MOL0     O43892   0.966  11.149   9.921 -0.4168  0.6287 -0.1552
  319MOL0     C43893   1.044  11.175   9.797  0.3635 -0.2396 -0.2937
  319MOL0     C43894   1.180  11.235   9.839  0.1622  0.1405 -0.2170
  319MOL0     C43895   1.277  11.129   9.896 -0.2136  0.5980 -0.1569
  319MOL0     C43896   1.327  11.157  10.040 -0.2078  0.1287 -0.1325
  319MOL0     C43897   1.423  11.055  10.098  0.1957  0.8188  0.4443
  319MOL0     C43898   1.458  11.106  10.240 -0.2040 -0.7958 -0.3029
  319MOL0     C43899   1.560  11.016  10.300 -0.0273 -0.7180 -0.2237
  319MOL0     C43900   1.570  11.062  10.446  0.4957  0.2746  0.2021
  319MOL0     N43901   1.631  10.959  10.528  0.4031 -0.1468  0.3545
  319MOL0     C43902   1.581  10.829  10.554  0.4016 -0.6502  0.8348
  319MOL0     C43903   1.670  10.776  10.644  0.7602  0.2773  1.3003
  319MOL0     C43904   1.668  10.646  10.712 -0.2297 -0.3075 -0.1525
  319MOL0     C43905   1.553  10.549  10.677  0.2063 -0.7605 -0.0493
  319MOL0     C43906   1.570  10.414  10.750  0.4107 -0.1861  0.4242
  319MOL0     C43907   1.435  10.333  10.743  0.7989  0.3111 -0.3230
  319MOL0     O43908   1.312  10.402  10.791 -0.2714  0.4270  0.2292
  319MOL0     C43909   1.195  10.323  10.793 -1.7040 -1.1388  0.5136
  319MOL0     C43910   1.092  10.375  10.851  1.1927 -0.1770 -0.4205
  319MOL0     C43911   0.967  10.309  10.842  0.9419 -0.6695 -0.0839
  319MOL0     C43912   0.852  10.381  10.910 -0.6040 -0.0115  0.5812
  319MOL0     C43913   0.956  10.196  10.771 -0.5279  0.7242 -0.8638
  319MOL0     C43914   0.830  10.125  10.737  0.7341  0.3463  0.2312
  319MOL0     O43915   0.833  10.038  10.642  0.5480  0.4050 -0.4161
  319MOL0     C43916   0.733  10.038  10.556 -0.2328 -1.2688  0.4880
  319MOL0     C43917   0.736   9.926  10.473 -0.6514  1.3668  0.2982
  319MOL0     C43918   0.642   9.899  10.374 -0.4326  0.2785  0.4821
  319MOL0     C43919   0.539   9.983  10.358 -0.7641  0.4628  0.4934
  319MOL0     O43920   0.453   9.936  10.254  0.5413 -0.1516 -0.1323
  319MOL0     C43921   0.356  10.032  10.210 -0.3727 -0.3715 -0.4071
  319MOL0     C43922   0.233  10.008  10.300 -0.1647 -0.1282 -0.2717
  319MOL0     C43923   0.170   9.873  10.267  0.8014  1.0386 -0.4171
  319MOL0     C43924   0.038   9.868  10.345 -0.0230 -0.7309 -0.1642
  319MOL0     C43925  -0.057   9.760  10.293  0.3719 -0.0498 -1.1761
  319MOL0     C43926  -0.187   9.728  10.383 -0.4092  0.3731 -0.1117
  319MOL0     C43927  -0.263   9.606  10.324  0.3272 -0.8023  0.2258
  319MOL0     C43928  -0.362   9.543  10.420 -0.9164  0.1963 -0.3602
  319MOL0    Cl43929  -0.274   9.469  10.562  0.1154  0.3554  0.0709
  319MOL0     C43930   0.541  10.105  10.426  0.5933  0.3600  0.6551
  319MOL0     C43931   0.637  10.140  10.523 -0.4492 -0.0428  0.4554
  319MOL0     O43932   0.728  10.141  10.810 -0.4699 -0.1072  0.4169
  319MOL0     C43933   1.073  10.142  10.719 -0.7566  0.5669 -0.2327
  319MOL0     C43934   1.194  10.203  10.731  0.7440 -0.0652 -0.0483
  319MOL0     N43935   1.777  10.873  10.658  0.0138  0.8866 -0.7223
  319MOL0     N43936   1.759  10.970  10.580  0.2134 -0.0297  0.4873
  319MOL0     C43937   0.776  11.186  10.050 -0.1531 -0.1481  1.2901
  319MOL0     C43938   0.637  11.185  10.058  0.3080  0.2702  0.6454
  319MOL0     C43939   0.202  11.250  10.049 -0.3743 -0.1685  0.2220
  319MOL0     C43940   0.136  11.133   9.987  0.3470 -0.0097  0.4541
  319MOL0     C43941  -0.007  11.109   9.997 -0.8491 -0.1373 -0.2607
  319MOL0     C43942  -0.080  11.211  10.061 -0.4265  0.5743  0.0192
  319MOL0     O43943  -0.216  11.188  10.053 -0.3561 -0.4020  0.2395
  319MOL0     C43944  -0.299  11.305  10.048  0.4744  0.2568  0.0945
  319MOL0     C43945  -0.442  11.266  10.038  0.3810  0.7852  0.2140
  319MOL0     C43946  -0.458  11.155  10.141  1.0803 -0.4827 -0.1711
  319MOL0     C43947  -0.613  11.149  10.149  0.6839 -0.5265  0.2643
  319MOL0     C43948  -0.670  11.145  10.282  0.5257 -0.4313  0.4969
  319MOL0     C43949  -0.719  11.114  10.389  0.3430 -0.0075 -0.2774
  319MOL0     C43950  -0.016  11.323  10.117 -0.3019 -0.6984  0.4495
  319MOL0     C43951   0.119  11.341  10.121 -0.1690 -0.3510 -0.0374
  319MOL0     C43952   0.168  11.462  10.195 -0.2062  0.1504  0.3695
  319MOL0     H43953   0.543  11.155   9.738 -0.0329 -0.8032 -0.0630
  319MOL0     H43954   0.797  11.142   9.712 -0.3324  1.3217 -0.8990
  319MOL0     H43955   0.987  11.246   9.735 -2.2989 -1.7049  0.2975
  319MOL0     H43956   1.046  11.081   9.742  1.2622 -2.2892  2.9861
  319MOL0     H43957   1.226  11.273   9.747  0.3950  2.3486  0.7657
  319MOL0     H43958   1.165  11.321   9.904 -1.7456  1.3905 -2.1850
  319MOL0     H43959   1.241  11.026   9.887 -1.4139  1.1377 -2.3390
  319MOL0     H43960   1.369  11.138   9.837  0.2098 -0.9986  0.2321
  319MOL0     H43961   1.380  11.253  10.035  1.0816 -0.6068 -2.2189
  319MOL0     H43962   1.251  11.150  10.118  3.2222 -0.5327  3.4699
  319MOL0     H43963   1.510  11.052  10.032 -1.6985 -0.3973 -2.1588
  319MOL0     H43964   1.378  10.956  10.098 -0.5845  1.1532 -0.5459
  319MOL0     H43965   1.498  11.207  10.231 -0.1308 -0.8639 -0.8257
  319MOL0     H43966   1.366  11.100  10.298  0.9044 -1.8961  1.4261
  319MOL0     H43967   1.653  11.035  10.246 -0.3531  1.4641 -0.0967
  319MOL0     H43968   1.546  10.909  10.286  0.3376 -0.6024 -1.5895
  319MOL0     H43969   1.613  11.162  10.453 -0.4759  1.0344 -3.1176
  319MOL0     H43970   1.472  11.073  10.493  0.6833  0.7131  0.4997
  319MOL0     H43971   1.490  10.776  10.531 -2.1816  3.5447  0.3834
  319MOL0     H43972   1.656  10.663  10.820 -4.7566  3.5833 -0.9687
  319MOL0     H43973   1.765  10.596  10.699  1.0937  2.3287 -1.2569
  319MOL0     H43974   1.463  10.603  10.707  1.3064  2.5033 -2.0761
  319MOL0     H43975   1.548  10.545  10.568 -1.1225  0.8999 -0.1082
  319MOL0     H43976   1.651  10.350  10.714  0.4016  0.6854 -1.2620
  319MOL0     H43977   1.598  10.442  10.852 -1.5013  1.0459  0.6556
  319MOL0     H43978   1.414  10.309  10.638  0.3067 -0.5094 -0.0439
  319MOL0     H43979   1.442  10.245  10.807 -1.6874  0.5811  0.4133
  319MOL0     H43980   1.095  10.477  10.890  1.1949 -0.6927  1.0011
  319MOL0     H43981   0.881  10.478  10.951 -4.8022  1.5324  0.4221
  319MOL0     H43982   0.809  10.327  10.994  0.4192 -2.2548 -0.2453
  319MOL0     H43983   0.777  10.394  10.831  2.3344  2.2368 -2.1229
  319MOL0     H43984   0.814   9.852  10.489 -2.0493  0.1256  1.5703
  319MOL0     H43985   0.640   9.809  10.315  1.3383 -0.5127  1.5444
  319MOL0     H43986   0.395  10.134  10.222 -0.0884 -0.3683 -1.2619
  319MOL0     H43987   0.334  10.026  10.103 -2.7046  2.2082 -0.1891
  319MOL0     H43988   0.257  10.029  10.405  0.3502 -0.8290 -0.2438
  319MOL0     H43989   0.151  10.077  10.276 -2.3924 -1.7503  2.1027
  319MOL0     H43990   0.232   9.788  10.296  2.1738  1.9506 -0.5735
  319MOL0     H43991   0.146   9.866  10.161 -0.3944  1.6092 -0.2003
  319MOL0     H43992  -0.006   9.968  10.335  3.3045  0.9859  0.4959
  319MOL0     H43993   0.054   9.861  10.453 -0.0747 -1.0121 -0.1763
  319MOL0     H43994  -0.088   9.771  10.189  2.3668  0.8965 -1.7290
  319MOL0     H43995  -0.002   9.666  10.301  0.2328  0.0240  2.1537
  319MOL0     H43996  -0.245   9.820  10.390 -0.4278  0.8304 -4.0378
  319MOL0     H43997  -0.158   9.702  10.485 -0.7744 -1.0727 -0.3496
  319MOL0     H43998  -0.201   9.524  10.287 -0.5791 -1.8683  0.9754
  319MOL0     H43999  -0.324   9.650  10.245  0.0322 -1.0620  0.3055
  319MOL0     H44000  -0.428   9.470  10.372 -0.8625  0.1389 -0.3473
  319MOL0     H44001  -0.429   9.620  10.459  1.1184  1.7685  0.1665
  319MOL0     H44002   0.454  10.171  10.419 -0.3388 -1.0083 -1.3869
  319MOL0     H44003   0.643  10.230  10.582  1.3932 -0.8352  1.5429
  319MOL0     H44004   1.074  10.044  10.672 -1.3734  0.5786 -0.2701
  319MOL0     H44005   1.273  10.149  10.679 -0.8000  0.6664 -3.4943
  319MOL0     H44006   0.846  11.182  10.133  2.8476 -1.0820 -1.0497
  319MOL0     H44007   0.590  11.192  10.156 -0.3539 -0.0330  0.3534
  319MOL0     H44008   0.200  11.064   9.934  1.2489  2.4478 -1.8552
  319MOL0     H44009  -0.049  11.011   9.976 -1.1782 -0.6907  2.5397
  319MOL0     H44010  -0.287  11.371  10.134 -1.0328  0.8664 -0.1333
  319MOL0     H44011  -0.283  11.359   9.954  0.0595 -0.0891 -0.1786
  319MOL0     H44012  -0.465  11.228   9.938  1.6996 -2.7864  1.1203
  319MOL0     H44013  -0.503  11.355  10.057  0.6916  0.7353  1.5068
  319MOL0     H44014  -0.434  11.055  10.106 -1.2840 -1.3044  0.3938
  319MOL0     H44015  -0.414  11.177  10.238  0.3261 -3.2518  0.8756
  319MOL0     H44016  -0.646  11.062  10.091 -0.3036  0.5977 -0.9104
  319MOL0     H44017  -0.662  11.232  10.098  0.7697  0.4877  1.7861
  319MOL0     H44018  -0.757  11.072  10.479  0.2577 -0.0714 -0.3423
  319MOL0     H44019  -0.081  11.397  10.163  0.2637 -0.3123  0.6325
  319MOL0     H44020   0.224  11.521  10.122  1.3717 -2.1677 -0.3868
  319MOL0     H44021   0.091  11.531  10.232 -0.1135  0.7773 -0.5621
  319MOL0     H44022   0.233  11.429  10.277 -0.3618 -1.7479 -0.2195
  320MOL0     O44023  10.671   0.426   0.842  0.2723 -0.6356  0.1823
  320MOL0     C44024  10.556   0.471   0.834 -0.2302  0.0587  0.3756
  320MOL0     O44025  10.512   0.584   0.911  0.1532  0.2523 -0.3586
  320MOL0     C44026  10.606   0.652   0.975 -0.1036  0.5989 -1.3725
  320MOL0     C44027  10.688   0.752   0.919 -0.5884  0.1507  0.4081
  320MOL0     C44028  10.754   0.844   0.999 -0.1074 -0.5596 -0.8145
  320MOL0     C44029  10.756   0.838   1.137 -0.4331  0.5507  0.1110
  320MOL0     O44030  10.821   0.935   1.198  0.0766  0.0969  0.0958
  320MOL0     C44031  10.822   0.932   1.342  0.6881  0.3721  0.0887
  320MOL0     C44032  10.918   1.022   1.409  0.1659 -0.2714  0.2544
  320MOL0     C44033  10.890   1.040   1.558  1.1168  0.2046 -0.6469
  320MOL0     C44034  11.011   1.115   1.624 -0.5371 -0.8761  0.2017
  320MOL0     C44035  11.019   1.100   1.772  0.7104  0.4512 -0.6522
  320MOL0     C44036  11.131   1.174   1.851 -0.0567 -0.0347 -0.0165
  320MOL0     C44037  11.117   1.325   1.839  0.4604  0.1557  0.0926
  320MOL0     C44038  11.161   1.383   1.968 -0.4020 -0.1096  0.3384
  320MOL0     N44039  11.151   1.533   1.973 -0.4515  0.0271 -0.1888
  320MOL0     C44040  11.192   1.614   2.080  0.3162 -0.0505 -0.5962
  320MOL0     C44041  11.164   1.744   2.036 -0.2840  0.4040 -0.4055
  320MOL0     C44042  11.195   1.869   2.122 -0.9740 -0.2576  0.0404
  320MOL0     C44043  11.297   1.846   2.238  0.5246  0.9616 -0.0033
  320MOL0     C44044  11.317   1.979   2.298  0.1805 -0.4355 -0.1271
  320MOL0     C44045  11.452   1.986   2.359  0.0237 -0.7091 -0.2413
  320MOL0     O44046  11.486   2.124   2.384 -0.0800 -0.2783  0.6085
  320MOL0     C44047  11.605   2.158   2.435  0.3282 -0.1623 -0.2998
  320MOL0     C44048  11.645   2.288   2.419 -0.0773  0.6893  0.5788
  320MOL0     C44049  11.768   2.340   2.474 -0.2024  0.8811 -0.5492
  320MOL0     C44050  11.797   2.483   2.446 -1.0022 -0.4601 -0.3182
  320MOL0     C44051  11.861   2.244   2.527  0.5025  0.7024 -0.3019
  320MOL0     C44052  12.003   2.276   2.566 -0.0077  0.6625  1.0178
  320MOL0     O44053  12.073   2.176   2.619 -0.6936 -0.0253  0.1057
  320MOL0     C44054  12.200   2.183   2.669 -0.1184  0.0077 -0.1846
  320MOL0     C44055  12.299   2.089   2.637  0.3189  0.1511 -0.1992
  320MOL0     C44056  12.421   2.079   2.703 -0.2034  0.3499  1.3981
  320MOL0     C44057  12.455   2.171   2.801 -0.5096  0.5839  0.1840
  320MOL0     O44058  12.579   2.164   2.853  0.6536  0.3720  0.0086
  320MOL0     C44059  12.625   2.274   2.923  0.3453  0.4787 -0.2811
  320MOL0     C44060  12.771   2.262   2.909  0.9926 -0.5124 -0.1373
  320MOL0     C44061  12.841   2.384   2.978 -0.2668  0.0927 -0.4632
  320MOL0     C44062  12.991   2.371   2.977  0.2819  0.1756 -0.4570
  320MOL0     C44063  13.066   2.472   3.058  0.1138  0.7934 -0.3664
  320MOL0     C44064  13.218   2.443   3.050  0.1771  0.0988 -0.0537
  320MOL0     C44065  13.309   2.535   3.132  0.3818 -0.7736 -0.1106
  320MOL0     C44066  13.326   2.482   3.278  0.6202  0.2593  0.5738
  320MOL0    Cl44067  13.387   2.307   3.290  0.0249  0.0955 -0.0928
  320MOL0     C44068  12.354   2.262   2.846  0.1071  0.1492  0.1771
  320MOL0     C44069  12.233   2.267   2.774  0.2945  0.5081 -0.7858
  320MOL0     O44070  12.051   2.383   2.522 -0.5106  0.0728  0.4707
  320MOL0     C44071  11.821   2.110   2.535  0.5841  0.6202  0.5658
  320MOL0     C44072  11.695   2.072   2.497  0.2751  1.1035 -0.5373
  320MOL0     N44073  11.107   1.740   1.912 -0.1339 -0.0943  0.1472
  320MOL0     N44074  11.102   1.614   1.872  0.0588  0.6998  0.2465
  320MOL0     C44075  10.683   0.731   1.197 -0.8897  0.2785  0.5190
  320MOL0     C44076  10.605   0.641   1.119 -0.5797 -0.6362  1.1269
  320MOL0     C44077  10.457   0.417   0.731 -0.3227  0.7841 -0.6604
  320MOL0     C44078  10.337   0.495   0.717 -0.1475  0.3763  0.4295
  320MOL0     C44079  10.239   0.449   0.634  0.2492 -0.0063  0.4888
  320MOL0     C44080  10.260   0.335   0.554  0.4958  0.5664 -0.2719
  320MOL0     O44081  10.171   0.305   0.449 -0.5444 -0.0839  0.0292
  320MOL0     C44082  10.044   0.263   0.497 -0.4405  0.2804 -0.6884
  320MOL0     C44083   9.964   0.216   0.367  0.5123  0.0083  0.2121
  320MOL0     C44084   9.817   0.213   0.394  0.3707  0.1431 -0.3602
  320MOL0     C44085   9.729   0.191   0.271  0.4716  0.5479  0.3749
  320MOL0     C44086   9.760   0.059   0.209 -1.1687 -0.8615  0.8054
  320MOL0     C44087   9.788  -0.036   0.148 -0.3556 -0.7986  0.2774
  320MOL0     C44088  10.373   0.258   0.572  0.5787  0.0762 -0.9936
  320MOL0     C44089  10.473   0.298   0.655 -0.0060 -0.0356 -0.4203
  320MOL0     C44090  10.599   0.215   0.672  0.4600 -0.9860  0.1477
  320MOL0     H44091  10.684   0.773   0.812 -0.3302 -2.2725 -0.1356
  320MOL0     H44092  10.795   0.940   0.968  1.4923 -1.5584 -1.9709
  320MOL0     H44093  10.846   0.829   1.369 -1.4117 -0.6397 -1.6146
  320MOL0     H44094  10.720   0.951   1.376  0.5126 -0.3631 -0.0222
  320MOL0     H44095  11.010   0.964   1.398 -1.6183 -2.9275 -2.3344
  320MOL0     H44096  10.935   1.114   1.352 -0.4723 -0.9194 -1.0176
  320MOL0     H44097  10.810   1.112   1.570  2.5964  2.1128 -1.6724
  320MOL0     H44098  10.873   0.945   1.610  1.6884  0.8187  0.7055
  320MOL0     H44099  11.103   1.076   1.579 -0.5685  2.1608 -2.8458
  320MOL0     H44100  11.014   1.221   1.600  2.6570 -0.7316  0.8154
  320MOL0     H44101  11.020   0.992   1.788  0.9137  0.5067 -0.2843
  320MOL0     H44102  10.921   1.135   1.806  0.4670 -0.8138 -0.0034
  320MOL0     H44103  11.118   1.132   1.951 -0.9578 -0.2440 -0.2131
  320MOL0     H44104  11.232   1.145   1.819  0.5004  2.0537 -0.2809
  320MOL0     H44105  11.011   1.350   1.825  0.7210  0.9838 -0.4537
  320MOL0     H44106  11.169   1.361   1.750 -1.5946  0.3001 -1.1304
  320MOL0     H44107  11.105   1.344   2.053  0.4031 -1.2969  0.3543
  320MOL0     H44108  11.267   1.360   1.981  0.3260  1.2118 -2.4089
  320MOL0     H44109  11.243   1.579   2.169  3.1685  0.3340 -1.9536
  320MOL0     H44110  11.096   1.900   2.158 -0.3127  1.8401  0.1357
  320MOL0     H44111  11.231   1.946   2.053 -0.4841 -0.0478  0.5225
  320MOL0     H44112  11.265   1.769   2.309  1.4827  0.1558 -0.4190
  320MOL0     H44113  11.389   1.814   2.188  1.0243  1.1471  0.7865
  320MOL0     H44114  11.303   2.065   2.232  0.0711 -0.1847  0.2208
  320MOL0     H44115  11.240   1.984   2.375  0.3272  0.4644 -0.0262
  320MOL0     H44116  11.447   1.932   2.454  0.6484  2.3778  1.6513
  320MOL0     H44117  11.529   1.932   2.302  1.1554 -0.1820  0.7678
  320MOL0     H44118  11.581   2.350   2.357 -2.3683  1.6308  3.6617
  320MOL0     H44119  11.723   2.541   2.390  1.2313  3.1043  0.1113
  320MOL0     H44120  11.893   2.491   2.393 -0.0574 -3.0432  0.8239
  320MOL0     H44121  11.810   2.541   2.537 -2.2569 -0.0080 -0.4016
  320MOL0     H44122  12.270   2.022   2.557  1.1889 -0.9105  0.3509
  320MOL0     H44123  12.488   1.995   2.683 -0.0943  0.1786  2.4456
  320MOL0     H44124  12.598   2.375   2.888  1.1749  1.0792  0.7452
  320MOL0     H44125  12.602   2.258   3.028  1.2018  0.0277 -0.1542
  320MOL0     H44126  12.804   2.165   2.947  2.5441  0.5241  1.3249
  320MOL0     H44127  12.800   2.275   2.804  1.4444  0.3294  0.0782
  320MOL0     H44128  12.805   2.409   3.078 -2.7390 -0.6142 -1.1177
  320MOL0     H44129  12.803   2.470   2.922 -0.7050  0.0804 -0.1831
  320MOL0     H44130  13.021   2.366   2.872  0.9574 -0.0378 -0.2589
  320MOL0     H44131  13.010   2.270   3.014 -0.6507 -0.3875 -1.4618
  320MOL0     H44132  13.055   2.568   3.007  0.1737 -0.9153 -3.8926
  320MOL0     H44133  13.032   2.456   3.161 -0.7051 -0.7412 -0.8412
  320MOL0     H44134  13.250   2.435   2.946  0.6805  1.1055  0.0106
  320MOL0     H44135  13.237   2.344   3.093  1.3612  0.8141  1.1246
  320MOL0     H44136  13.272   2.637   3.147  1.8600 -0.4787  1.9019
  320MOL0     H44137  13.399   2.556   3.074 -0.3082 -0.3457 -1.0744
  320MOL0     H44138  13.232   2.496   3.332  0.1368  0.6886 -0.3624
  320MOL0     H44139  13.388   2.550   3.337  0.4230 -0.9885  2.3002
  320MOL0     H44140  12.368   2.331   2.928  1.8066  0.5273 -0.3929
  320MOL0     H44141  12.161   2.334   2.822  0.2249 -1.0711  1.4523
  320MOL0     H44142  11.892   2.033   2.562  1.5469  0.7936 -1.3204
  320MOL0     H44143  11.668   1.967   2.498  0.5305  1.0254 -1.0606
  320MOL0     H44144  10.688   0.707   1.303 -1.3151 -2.5906 -0.0343
  320MOL0     H44145  10.543   0.574   1.177 -2.3258  1.5308  1.8889
  320MOL0     H44146  10.327   0.592   0.764 -0.9998  0.1167  0.8059
  320MOL0     H44147  10.172   0.526   0.599  3.6753  1.4403 -3.8661
  320MOL0     H44148  10.057   0.175   0.560 -1.3092 -0.2470 -1.2361
  320MOL0     H44149   9.996   0.342   0.555 -0.2738 -0.7351  0.8721
  320MOL0     H44150   9.996   0.121   0.324 -0.1417  0.2354 -0.8105
  320MOL0     H44151   9.992   0.294   0.296  2.4412 -1.0281 -0.2347
  320MOL0     H44152   9.804   0.144   0.478 -0.4412 -0.1961 -0.7598
  320MOL0     H44153   9.777   0.312   0.417 -2.3199 -0.5276 -1.7297
  320MOL0     H44154   9.741   0.267   0.193  0.0559  0.8763  0.6229
  320MOL0     H44155   9.622   0.186   0.293  0.5346 -0.1133  0.5469
  320MOL0     H44156   9.798  -0.128   0.094 -1.2312  0.0454 -1.4210
  320MOL0     H44157  10.376   0.165   0.517 -2.8422 -0.0507 -1.1856
  320MOL0     H44158  10.685   0.279   0.650  0.8090 -1.8503 -1.0949
  320MOL0     H44159  10.607   0.168   0.771  1.3561 -1.3774 -0.0980
  320MOL0     H44160  10.604   0.139   0.593 -3.2730 -0.8607 -0.3733
  321MOL0     O44161  11.337   8.120   9.469 -0.2201 -0.8275 -0.6176
  321MOL0     C44162  11.338   8.126   9.593 -0.2231  0.0017 -0.8858
  321MOL0     O44163  11.458   8.130   9.662  0.9381 -0.0221 -0.2643
  321MOL0     C44164  11.576   8.110   9.590 -0.3838 -0.1044  0.3522
  321MOL0     C44165  11.633   7.988   9.569  0.2409  0.3859 -0.1626
  321MOL0     C44166  11.756   7.974   9.502 -0.3911  0.3886  0.8750
  321MOL0     C44167  11.836   8.079   9.465  0.4366  0.6518 -0.6095
  321MOL0     O44168  11.949   8.078   9.394 -0.1823 -0.3535  0.6408
  321MOL0     C44169  12.050   7.982   9.436 -0.1719 -0.2847 -0.6957
  321MOL0     C44170  12.179   8.021   9.359 -0.1019  0.4720  0.5429
  321MOL0     C44171  12.301   7.959   9.425  0.2922  0.5157  0.5334
  321MOL0     C44172  12.429   8.005   9.360 -0.4323  0.4015 -0.2441
  321MOL0     C44173  12.541   7.910   9.402 -0.0355  0.1114  1.2700
  321MOL0     C44174  12.543   7.799   9.290 -0.3532 -0.2214  0.0300
  321MOL0     C44175  12.656   7.708   9.334 -0.2756  0.4001  0.1123
  321MOL0     C44176  12.631   7.573   9.277  0.4334  0.2125  0.0794
  321MOL0     N44177  12.747   7.482   9.291  0.5140 -0.2547 -0.4377
  321MOL0     C44178  12.833   7.460   9.184 -0.0000 -0.3718  0.4881
  321MOL0     C44179  12.941   7.397   9.244 -0.5982 -0.3873  0.6825
  321MOL0     C44180  13.061   7.356   9.156 -0.3250 -0.0090 -0.2109
  321MOL0     C44181  13.183   7.455   9.138  0.1252  0.4218 -0.8378
  321MOL0     C44182  13.141   7.581   9.073 -0.9717 -0.3097  0.5868
  321MOL0     C44183  13.266   7.678   9.060 -0.4316  0.2526 -0.4445
  321MOL0     O44184  13.354   7.610   8.963  0.2104  0.4779  0.2239
  321MOL0     C44185  13.481   7.644   8.951 -1.1927 -0.1570  0.5130
  321MOL0     C44186  13.526   7.775   8.958 -0.0427 -0.3557  0.6507
  321MOL0     C44187  13.660   7.814   8.945  0.6959 -0.6253  0.3004
  321MOL0     C44188  13.674   7.962   8.975  0.8955 -0.0056  0.6455
  321MOL0     C44189  13.749   7.715   8.912  0.6375 -0.6814  0.0390
  321MOL0     C44190  13.891   7.749   8.888  0.2686 -0.1481  0.1332
  321MOL0     O44191  13.985   7.643   8.893  0.2359 -0.6440  0.4823
  321MOL0     C44192  14.109   7.683   8.851  0.7920 -1.1076  0.8834
  321MOL0     C44193  14.212   7.694   8.943 -0.4866  0.9921  0.5638
  321MOL0     C44194  14.343   7.709   8.900 -0.0137  0.0254 -1.0044
  321MOL0     C44195  14.371   7.747   8.766 -0.4219 -0.0349 -0.2586
  321MOL0     O44196  14.490   7.782   8.719 -0.1722 -0.5029  0.4428
  321MOL0     C44197  14.545   7.899   8.782 -0.5975  0.1578 -0.3810
  321MOL0     C44198  14.505   8.028   8.703 -0.3856  0.1565 -0.5824
  321MOL0     C44199  14.351   8.046   8.686 -1.1146 -0.4899  0.2171
  321MOL0     C44200  14.304   8.187   8.634 -0.9157  0.3763 -0.4793
  321MOL0     C44201  14.171   8.174   8.579  0.8416  0.9014  0.6183
  321MOL0     C44202  14.101   8.319   8.568  0.2893 -0.0979  0.2444
  321MOL0     C44203  14.171   8.418   8.477  0.3414  0.3328  0.8496
  321MOL0     C44204  14.094   8.551   8.482 -0.3111  0.7202 -0.3443
  321MOL0    Cl44205  14.153   8.673   8.365 -0.4793  0.1786 -0.0866
  321MOL0     C44206  14.264   7.728   8.672 -0.2714  0.4948  0.1184
  321MOL0     C44207  14.136   7.686   8.709 -0.0960  0.1839 -0.5201
  321MOL0     O44208  13.923   7.867   8.871 -0.1498  0.5120 -0.2484
  321MOL0     C44209  13.710   7.582   8.908  0.6243 -0.0338  0.3673
  321MOL0     C44210  13.575   7.548   8.924 -0.2008  0.4058 -1.0396
  321MOL0     N44211  12.909   7.366   9.375 -1.3343 -0.4556  0.7573
  321MOL0     N44212  12.795   7.421   9.399 -0.5642  0.1873  0.0119
  321MOL0     C44213  11.786   8.207   9.491  0.5684 -0.6151 -0.5613
  321MOL0     C44214  11.653   8.217   9.544 -0.0648 -0.4959  0.6504
  321MOL0     C44215  11.216   8.120   9.664 -0.0764  0.3425 -0.8701
  321MOL0     C44216  11.105   8.186   9.616 -0.5875  0.0781  0.1606
  321MOL0     C44217  10.988   8.189   9.691  0.2363 -0.2406 -0.2745
  321MOL0     C44218  10.976   8.129   9.813 -1.0364  0.2311 -0.2009
  321MOL0     O44219  10.863   8.126   9.893 -0.1029 -0.6648 -0.1312
  321MOL0     C44220  10.739   8.170   9.834 -0.1610 -0.5095  0.2090
  321MOL0     C44221  10.724   8.326   9.848 -0.4309  0.2681 -0.3436
  321MOL0     C44222  10.735   8.364   9.994  0.1228  0.0848 -0.1528
  321MOL0     C44223  10.681   8.501  10.040 -0.3576 -0.4632 -0.0214
  321MOL0     C44224  10.756   8.607   9.975 -0.4087 -0.7557  0.1513
  321MOL0     C44225  10.833   8.695   9.938 -0.5563  0.7363 -0.7784
  321MOL0     C44226  11.081   8.055   9.859 -0.8415  0.2582 -0.8918
  321MOL0     C44227  11.202   8.045   9.786 -0.6729 -0.5260 -0.0149
  321MOL0     C44228  11.309   7.956   9.838 -0.6473  0.1846 -0.2447
  321MOL0     H44229  11.573   7.905   9.605  0.3114  0.6484  0.5822
  321MOL0     H44230  11.788   7.872   9.480  1.4265  0.5419  2.5404
  321MOL0     H44231  12.012   7.883   9.408 -0.2239 -0.3118 -0.5304
  321MOL0     H44232  12.062   7.991   9.545  3.7055 -0.7981 -0.9133
  321MOL0     H44233  12.172   7.977   9.259 -0.5282  0.9421  0.3606
  321MOL0     H44234  12.184   8.129   9.342 -0.5657  0.6280  1.3484
  321MOL0     H44235  12.308   7.984   9.531 -0.6418  2.4854  0.1706
  321MOL0     H44236  12.290   7.852   9.406  2.7119  0.3610 -0.4613
  321MOL0     H44237  12.419   8.016   9.252  1.5428 -0.6971 -0.6013
  321MOL0     H44238  12.451   8.103   9.402 -1.6368  0.2056  0.9197
  321MOL0     H44239  12.521   7.880   9.505  0.5153  1.0766  1.6709
  321MOL0     H44240  12.634   7.968   9.394  0.4637 -0.9018 -4.0436
  321MOL0     H44241  12.449   7.744   9.285 -0.3849 -0.3860  1.7559
  321MOL0     H44242  12.566   7.843   9.193  3.5547 -0.6288  0.5937
  321MOL0     H44243  12.657   7.704   9.444 -0.0947  0.9046  0.1301
  321MOL0     H44244  12.750   7.747   9.294  0.5824  0.3546  1.9863
  321MOL0     H44245  12.544   7.526   9.323  0.0782  0.0044 -0.7955
  321MOL0     H44246  12.610   7.581   9.170  0.4848 -2.5860 -0.2146
  321MOL0     H44247  12.819   7.485   9.079 -5.1765 -0.8804  0.7746
  321MOL0     H44248  13.020   7.334   9.058  0.1187  0.5934 -0.5389
  321MOL0     H44249  13.099   7.260   9.192 -0.5061 -0.3388 -0.8915
  321MOL0     H44250  13.233   7.479   9.232  3.2559  2.8640 -2.9225
  321MOL0     H44251  13.256   7.402   9.076  0.0749 -0.2363 -0.3513
  321MOL0     H44252  13.110   7.564   8.969 -1.1969  1.6538  0.2874
  321MOL0     H44253  13.064   7.638   9.125 -2.3555 -0.5693 -1.0888
  321MOL0     H44254  13.246   7.779   9.024  4.4170  2.7271  2.7090
  321MOL0     H44255  13.314   7.687   9.158 -1.7060 -1.9745  0.4744
  321MOL0     H44256  13.453   7.852   8.978  0.2765 -0.4846  2.4487
  321MOL0     H44257  13.589   8.000   9.032  0.8909  2.1481 -0.7058
  321MOL0     H44258  13.684   8.016   8.881  1.9455  1.8842  1.7845
  321MOL0     H44259  13.756   7.976   9.047 -1.3218  2.7988  2.9122
  321MOL0     H44260  14.193   7.677   9.049  0.1626 -7.3265  0.0214
  321MOL0     H44261  14.426   7.713   8.969  0.8356  0.3353 -2.0167
  321MOL0     H44262  14.509   7.900   8.886 -0.5496 -0.7737 -0.3460
  321MOL0     H44263  14.653   7.887   8.785 -0.7394 -1.0471  1.3261
  321MOL0     H44264  14.549   8.110   8.760  0.5064 -1.4548  1.1595
  321MOL0     H44265  14.546   8.019   8.602 -0.6291 -0.1119 -0.6598
  321MOL0     H44266  14.294   8.038   8.779  1.4179 -0.3296  1.8851
  321MOL0     H44267  14.318   7.980   8.606  0.2282  0.0885 -0.8626
  321MOL0     H44268  14.377   8.231   8.565 -0.9290  3.4866  1.3095
  321MOL0     H44269  14.303   8.261   8.715  0.9013  2.3144 -2.1175
  321MOL0     H44270  14.164   8.129   8.480 -2.4763  0.2757  1.0156
  321MOL0     H44271  14.106   8.116   8.645 -1.3912  2.6099  0.0362
  321MOL0     H44272  14.098   8.355   8.671 -1.6051  0.4597  0.0393
  321MOL0     H44273  13.993   8.323   8.550  0.3038  1.6388  0.4249
  321MOL0     H44274  14.189   8.378   8.377 -0.0885 -0.1163  0.9488
  321MOL0     H44275  14.275   8.441   8.506  1.0888 -1.5929 -0.1200
  321MOL0     H44276  14.103   8.607   8.575 -0.3785  0.6970 -0.3248
  321MOL0     H44277  13.990   8.533   8.454 -0.2081  0.3980 -0.5202
  321MOL0     H44278  14.287   7.741   8.567 -1.4513  2.5272  0.0737
  321MOL0     H44279  14.063   7.655   8.636  0.3603 -0.8779 -0.5304
  321MOL0     H44280  13.767   7.492   8.888 -3.1663 -2.8006  0.8239
  321MOL0     H44281  13.535   7.448   8.910 -3.1104  1.3352 -0.1462
  321MOL0     H44282  11.848   8.294   9.470  1.2015 -0.9848 -0.2543
  321MOL0     H44283  11.622   8.315   9.577 -1.8313 -1.1492  1.0056
  321MOL0     H44284  11.114   8.246   9.526 -0.1031  1.5016  1.1171
  321MOL0     H44285  10.907   8.247   9.649  1.3073 -0.0779 -2.2175
  321MOL0     H44286  10.746   8.144   9.728  1.7414 -0.9108  0.3997
  321MOL0     H44287  10.656   8.112   9.873 -1.4135 -0.8366 -2.6639
  321MOL0     H44288  10.622   8.338   9.810 -1.3489  1.4899  2.2271
  321MOL0     H44289  10.795   8.393   9.800 -0.6537  0.3594 -0.5464
  321MOL0     H44290  10.667   8.294  10.044 -0.8837  0.7668 -0.5367
  321MOL0     H44291  10.837   8.350  10.031  0.2800  0.7222 -0.3352
  321MOL0     H44292  10.703   8.504  10.147 -0.3397  1.5105 -0.0457
  321MOL0     H44293  10.573   8.506  10.026 -0.2844 -0.5523 -0.6277
  321MOL0     H44294  10.916   8.754   9.904  2.5360 -3.7517 -1.9122
  321MOL0     H44295  11.079   8.002   9.953 -0.5609  1.1775 -0.3495
  321MOL0     H44296  11.387   8.025   9.874  1.2678 -2.1030  0.2987
  321MOL0     H44297  11.266   7.892   9.915 -0.8519  0.5959 -0.0155
  321MOL0     H44298  11.345   7.892   9.757  0.7369  0.7579 -0.1142
  322MOL0     O44299   3.830   2.512   1.004 -0.1216  0.1404  0.1826
  322MOL0     C44300   3.744   2.530   0.916  0.7858 -0.1220 -0.1058
  322MOL0     O44301   3.768   2.575   0.787 -0.1075 -0.3694 -0.0350
  322MOL0     C44302   3.881   2.651   0.753 -0.4824  0.3729 -0.0881
  322MOL0     C44303   4.016   2.628   0.796 -0.1167  0.4720 -0.1264
  322MOL0     C44304   4.118   2.706   0.739  0.4244  0.5066  0.1482
  322MOL0     C44305   4.092   2.802   0.642 -1.3300  0.5352 -0.5485
  322MOL0     O44306   4.206   2.865   0.589 -0.1094 -0.1000  0.3509
  322MOL0     C44307   4.194   2.959   0.484 -0.5896  0.7686  0.4969
  322MOL0     C44308   4.328   3.045   0.478 -0.3662  0.1963 -0.0699
  322MOL0     C44309   4.436   2.952   0.433 -0.0555  0.2721  0.8429
  322MOL0     C44310   4.566   3.030   0.421  0.8170 -0.3745  0.7577
  322MOL0     C44311   4.680   2.954   0.378  0.0416  0.4168  0.0013
  322MOL0     C44312   4.812   3.029   0.349  0.1326  0.8495  0.4051
  322MOL0     C44313   4.910   2.937   0.271  0.2597 -0.1601  0.8518
  322MOL0     C44314   4.971   2.831   0.359 -0.3576  0.2111  0.1081
  322MOL0     N44315   5.053   2.738   0.293 -0.2027  0.2613  0.2436
  322MOL0     C44316   5.170   2.758   0.218 -0.0822  0.2520 -0.0577
  322MOL0     C44317   5.205   2.637   0.158  0.1957 -0.5961  0.2868
  322MOL0     C44318   5.317   2.624   0.051 -0.2469  0.3143 -0.4426
  322MOL0     C44319   5.260   2.613  -0.096 -0.3622 -0.2452 -0.3940
  322MOL0     C44320   5.218   2.747  -0.157 -0.5286 -0.0902  0.2387
  322MOL0     C44321   5.154   2.734  -0.297  0.5501 -0.5268 -0.0757
  322MOL0     O44322   5.221   2.645  -0.386  0.1612 -0.0248 -0.6168
  322MOL0     C44323   5.299   2.699  -0.487 -0.5157  0.5489  0.4789
  322MOL0     C44324   5.379   2.610  -0.555  0.4654 -0.1295 -0.5443
  322MOL0     C44325   5.467   2.635  -0.659 -0.3105 -0.8994 -0.1426
  322MOL0     C44326   5.529   2.513  -0.728 -0.4858  0.0756 -0.0540
  322MOL0     C44327   5.487   2.765  -0.699 -0.3387 -0.3750 -0.0754
  322MOL0     C44328   5.572   2.812  -0.810 -0.5107 -0.3029 -0.0092
  322MOL0     O44329   5.694   2.758  -0.819 -0.2734 -1.0396  0.4503
  322MOL0     C44330   5.761   2.784  -0.940 -0.0267  0.3953 -0.3207
  322MOL0     C44331   5.884   2.846  -0.919 -0.3053  0.7841 -0.6511
  322MOL0     C44332   5.959   2.893  -1.026 -0.2020  0.3308  0.1876
  322MOL0     C44333   5.914   2.868  -1.156 -0.2666 -0.2018  0.2718
  322MOL0     O44334   6.000   2.918  -1.254 -0.2549  0.4538 -0.9192
  322MOL0     C44335   5.943   2.926  -1.384 -0.2783 -0.5787 -0.4839
  322MOL0     C44336   6.036   3.013  -1.479  0.1104 -0.1643 -0.4245
  322MOL0     C44337   6.178   2.967  -1.471  0.0309 -0.1128  0.2983
  322MOL0     C44338   6.266   3.061  -1.544 -0.1928 -0.1034  0.5849
  322MOL0     C44339   6.419   3.026  -1.516  0.6510  0.1798  0.9911
  322MOL0     C44340   6.507   3.101  -1.612 -0.4824 -0.1395 -0.0926
  322MOL0     C44341   6.648   3.121  -1.566 -0.5805 -0.5881 -1.2785
  322MOL0     C44342   6.733   3.155  -1.687 -0.5337 -0.2685  0.0330
  322MOL0    Cl44343   6.893   3.231  -1.644 -0.4359 -0.1895 -0.0958
  322MOL0     C44344   5.788   2.805  -1.176  0.2814 -0.5395 -0.5447
  322MOL0     C44345   5.712   2.760  -1.069 -0.3351 -0.1295  0.7308
  322MOL0     O44346   5.525   2.894  -0.888  0.9387  0.6068  0.0088
  322MOL0     C44347   5.408   2.863  -0.640 -0.0629  0.1584 -0.4890
  322MOL0     C44348   5.322   2.834  -0.529 -0.0428  0.0004 -0.2631
  322MOL0     N44349   5.100   2.552   0.190 -0.5598  0.6202 -0.7714
  322MOL0     N44350   5.032   2.604   0.278 -0.7657  0.4175 -0.2939
  322MOL0     C44351   3.958   2.830   0.605  0.6719  0.4996  0.0976
  322MOL0     C44352   3.849   2.757   0.660  0.3065  0.9800  0.6243
  322MOL0     C44353   3.605   2.512   0.947 -0.7503 -0.4633  0.6575
  322MOL0     C44354   3.513   2.599   0.889 -1.2540  0.4623 -0.0776
  322MOL0     C44355   3.383   2.590   0.926 -0.1571  0.3394  0.0094
  322MOL0     C44356   3.326   2.493   1.011 -0.2589 -0.0997 -0.0608
  322MOL0     O44357   3.188   2.479   1.018 -0.9792  0.7129  0.2948
  322MOL0     C44358   3.134   2.353   1.069  0.7183  0.1331 -0.4419
  322MOL0     C44359   2.987   2.348   1.047 -0.2233  0.9205 -0.3730
  322MOL0     C44360   2.911   2.212   1.067  0.9243  0.3125 -0.7916
  322MOL0     C44361   2.786   2.205   0.978 -0.3747 -0.0833  0.4397
  322MOL0     C44362   2.708   2.081   1.009 -0.2989 -0.4477  0.1450
  322MOL0     C44363   2.649   1.992   1.065 -0.2072 -0.0851 -0.9729
  322MOL0     C44364   3.416   2.416   1.072 -0.0005  0.9296 -1.0230
  322MOL0     C44365   3.556   2.415   1.039  0.2392 -0.2414 -0.3120
  322MOL0     C44366   3.636   2.295   1.083  0.2039 -0.0783 -0.3098
  322MOL0     H44367   4.026   2.544   0.865  0.8477  0.8097  0.1644
  322MOL0     H44368   4.220   2.686   0.772  0.5524 -0.0041 -0.5364
  322MOL0     H44369   4.111   3.025   0.510 -2.5784 -2.6274  3.7740
  322MOL0     H44370   4.182   2.899   0.393 -0.4772 -1.9592  2.1732
  322MOL0     H44371   4.305   3.125   0.407  1.0444  0.2686 -0.4738
  322MOL0     H44372   4.352   3.083   0.577  0.4123 -0.1868 -0.1006
  322MOL0     H44373   4.441   2.873   0.509  1.1713  0.7399  1.2752
  322MOL0     H44374   4.409   2.897   0.343  2.7154 -4.4669  2.5264
  322MOL0     H44375   4.548   3.115   0.354 -3.0792  0.1437  2.1915
  322MOL0     H44376   4.592   3.083   0.513  0.3243  1.3552 -0.0614
  322MOL0     H44377   4.657   2.900   0.286  0.0872 -0.1776  0.3373
  322MOL0     H44378   4.698   2.870   0.446 -1.1893  0.9071  0.9832
  322MOL0     H44379   4.786   3.113   0.284 -0.0452  0.6690  0.2417
  322MOL0     H44380   4.850   3.071   0.442 -0.5387 -0.9233  1.5229
  322MOL0     H44381   4.991   2.998   0.229 -1.3892  0.7956 -1.1079
  322MOL0     H44382   4.865   2.896   0.179  2.4864  2.1421 -1.4393
  322MOL0     H44383   5.040   2.883   0.427  1.3589 -1.9974  0.1592
  322MOL0     H44384   4.902   2.774   0.422 -2.3412  2.1558 -0.1528
  322MOL0     H44385   5.228   2.848   0.202  3.7854 -1.8871  0.7444
  322MOL0     H44386   5.377   2.535   0.073 -3.2559 -2.1851 -1.5148
  322MOL0     H44387   5.384   2.710   0.056  0.3114 -0.1702  0.6648
  322MOL0     H44388   5.337   2.584  -0.168 -0.9793 -1.5802 -0.5437
  322MOL0     H44389   5.181   2.538  -0.104 -1.3510  0.3118  2.7513
  322MOL0     H44390   5.140   2.786  -0.092  0.5041  2.2328  0.1810
  322MOL0     H44391   5.303   2.816  -0.154  0.6912 -1.5340  0.0770
  322MOL0     H44392   5.047   2.709  -0.288  0.5644 -0.0909  1.5063
  322MOL0     H44393   5.163   2.833  -0.343 -2.9502 -0.3041 -0.5639
  322MOL0     H44394   5.356   2.508  -0.526 -1.0424  0.2955 -0.2089
  322MOL0     H44395   5.456   2.432  -0.732 -0.4982  0.0269  0.8783
  322MOL0     H44396   5.611   2.477  -0.665  1.1038  1.0753 -1.4783
  322MOL0     H44397   5.564   2.537  -0.828  0.1987  0.7079  0.3290
  322MOL0     H44398   5.914   2.875  -0.819  1.5180 -0.4084 -0.7983
  322MOL0     H44399   6.050   2.944  -0.996  0.5420  0.2019 -1.7329
  322MOL0     H44400   5.943   2.824  -1.422  0.7227 -0.1360 -1.7370
  322MOL0     H44401   5.844   2.973  -1.392 -0.2149  0.5758  3.3008
  322MOL0     H44402   5.996   3.002  -1.580 -1.3888  3.5526 -0.4025
  322MOL0     H44403   6.025   3.120  -1.457  1.8052 -0.3376  1.6230
  322MOL0     H44404   6.183   2.866  -1.514  2.2504 -0.0129  0.2287
  322MOL0     H44405   6.207   2.956  -1.366 -3.4669 -1.7152  1.2593
  322MOL0     H44406   6.230   3.160  -1.514 -0.3549 -0.2509  0.8847
  322MOL0     H44407   6.252   3.052  -1.652 -0.8755 -0.3594  0.6895
  322MOL0     H44408   6.451   3.056  -1.416  1.2391  2.1460  0.2549
  322MOL0     H44409   6.433   2.919  -1.535  0.1632  0.3280 -0.3349
  322MOL0     H44410   6.467   3.200  -1.634  0.9828  0.2138 -1.3822
  322MOL0     H44411   6.510   3.054  -1.711 -2.4741  3.3884 -2.0109
  322MOL0     H44412   6.685   3.029  -1.518 -2.5300 -0.7171  0.0977
  322MOL0     H44413   6.651   3.207  -1.498  0.6828  0.4516 -2.5854
  322MOL0     H44414   6.678   3.234  -1.739 -1.0907 -1.0665 -0.6075
  322MOL0     H44415   6.756   3.067  -1.748 -1.3280 -0.5658  0.1554
  322MOL0     H44416   5.749   2.778  -1.273 -0.4593 -0.4387 -0.2833
  322MOL0     H44417   5.619   2.707  -1.089 -0.2074  0.1208 -0.5803
  322MOL0     H44418   5.426   2.963  -0.677 -3.1509  1.1843  0.4488
  322MOL0     H44419   5.275   2.915  -0.475  1.0200  0.9827 -0.7823
  322MOL0     H44420   3.933   2.900   0.526  0.3359 -0.3048 -0.5255
  322MOL0     H44421   3.747   2.773   0.625  0.8339  0.8952 -1.0665
  322MOL0     H44422   3.532   2.680   0.820 -1.4508  2.6070  2.2392
  322MOL0     H44423   3.312   2.660   0.883 -0.5332 -1.2244 -2.1351
  322MOL0     H44424   3.165   2.258   1.025 -0.9870 -0.9228  0.5451
  322MOL0     H44425   3.149   2.355   1.178 -0.2738  1.5196 -0.3071
  322MOL0     H44426   2.967   2.387   0.947 -1.2448  2.0942  0.2533
  322MOL0     H44427   2.942   2.425   1.111 -0.2720 -0.2340  1.0439
  322MOL0     H44428   2.980   2.131   1.041  1.5168 -0.1978  2.0382
  322MOL0     H44429   2.890   2.203   1.174 -1.6402  1.5637 -1.1061
  322MOL0     H44430   2.804   2.208   0.870  1.1555 -1.4163  0.6219
  322MOL0     H44431   2.728   2.294   1.005  0.1262 -0.0252  1.3549
  322MOL0     H44432   2.585   1.917   1.107 -0.9534  1.5472  0.9778
  322MOL0     H44433   3.375   2.338   1.135 -0.9295  2.2782  0.0995
  322MOL0     H44434   3.702   2.325   1.165 -0.9828 -0.5602  0.8511
  322MOL0     H44435   3.571   2.217   1.124 -1.2749  0.8629 -0.8150
  322MOL0     H44436   3.688   2.254   0.996  1.9302 -0.4230  0.8279
  323MOL0     O44437   8.431   9.255   5.979 -0.2056 -0.0691  0.8243
  323MOL0     C44438   8.422   9.157   5.907 -0.0886  0.1666 -0.4343
  323MOL0     O44439   8.521   9.079   5.873 -0.4340  0.0152 -0.3289
  323MOL0     C44440   8.634   9.094   5.953  0.5349  0.4628  0.1631
  323MOL0     C44441   8.631   9.034   6.076  0.2587 -0.5133  0.3664
  323MOL0     C44442   8.731   9.063   6.166 -0.7547  0.2544 -1.1534
  323MOL0     C44443   8.832   9.156   6.145 -0.8318 -0.8944  0.6030
  323MOL0     O44444   8.917   9.185   6.248  0.4454 -0.0505 -0.3161
  323MOL0     C44445   9.024   9.273   6.218 -0.5152 -0.1730 -0.3633
  323MOL0     C44446   9.102   9.269   6.342  0.2267 -0.7159 -0.2037
  323MOL0     C44447   9.237   9.329   6.324  0.1738  0.3972 -0.2696
  323MOL0     C44448   9.317   9.327   6.448  0.2525  0.2844 -0.1738
  323MOL0     C44449   9.460   9.383   6.432  0.0264 -0.6435  0.3731
  323MOL0     C44450   9.543   9.396   6.561  0.1288  0.5364 -0.0807
  323MOL0     C44451   9.693   9.430   6.538  0.4478  1.1000 -0.2406
  323MOL0     C44452   9.765   9.307   6.513  0.5261 -0.1565  1.2675
  323MOL0     N44453   9.909   9.336   6.480 -0.0416  0.4924 -0.0655
  323MOL0     C44454  10.003   9.406   6.558 -0.1345  0.3018  0.1569
  323MOL0     C44455  10.119   9.397   6.490 -0.9068 -0.9112  0.2223
  323MOL0     C44456  10.265   9.442   6.540 -0.1969  0.1310  0.2780
  323MOL0     C44457  10.336   9.331   6.605 -0.2270  0.3029  0.8068
  323MOL0     C44458  10.473   9.376   6.643 -0.1153  0.0551 -0.3687
  323MOL0     C44459  10.563   9.369   6.529 -0.3490 -0.4554 -0.6211
  323MOL0     O44460  10.697   9.366   6.576  0.4003  0.1614  0.1430
  323MOL0     C44461  10.802   9.351   6.489 -0.1246  0.3429  0.4436
  323MOL0     C44462  10.778   9.326   6.349 -0.1798 -0.2703  0.3850
  323MOL0     C44463  10.885   9.327   6.258  0.1221  0.4061  0.1606
  323MOL0     C44464  10.838   9.301   6.121  0.5495  0.0663 -0.2186
  323MOL0     C44465  11.017   9.355   6.295 -0.3046  0.3100  0.4388
  323MOL0     C44466  11.139   9.354   6.195  0.5394  0.0678  0.4396
  323MOL0     O44467  11.260   9.373   6.255  0.4772  0.2309 -0.3597
  323MOL0     C44468  11.374   9.405   6.181  0.6267  0.4712 -0.2110
  323MOL0     C44469  11.370   9.478   6.060  0.3312  0.4447  0.0785
  323MOL0     C44470  11.487   9.522   5.998  0.8275  0.0127  0.1930
  323MOL0     C44471  11.607   9.486   6.054  0.0195  0.1653  0.0317
  323MOL0     O44472  11.729   9.519   5.986  0.2248 -0.1513  0.0460
  323MOL0     C44473  11.732   9.526   5.847 -0.3068  0.2885 -0.4046
  323MOL0     C44474  11.883   9.530   5.796 -0.4191 -0.3939  0.1702
  323MOL0     C44475  11.954   9.666   5.834  0.1689  1.0982 -0.3131
  323MOL0     C44476  11.929   9.777   5.733 -0.0429 -1.0158 -0.1887
  323MOL0     C44477  11.965   9.924   5.773 -0.0141  0.8529  0.4021
  323MOL0     C44478  12.115   9.946   5.791  0.4640 -0.0107 -0.2882
  323MOL0     C44479  12.159  10.088   5.782  0.5283  0.6608  0.3350
  323MOL0     C44480  12.307  10.117   5.792  0.0129 -0.0381  0.8239
  323MOL0    Cl44481  12.391  10.043   5.656 -0.0849  0.1888 -0.0205
  323MOL0     C44482  11.617   9.418   6.178 -0.9127  0.5401  0.4887
  323MOL0     C44483  11.496   9.377   6.238 -0.2497 -0.3983  0.0164
  323MOL0     O44484  11.124   9.323   6.073  0.2248 -0.1064  0.0329
  323MOL0     C44485  11.043   9.362   6.433  0.2731 -0.4990 -0.5137
  323MOL0     C44486  10.936   9.356   6.526 -0.0761 -0.9933  0.6270
  323MOL0     N44487  10.098   9.317   6.373  0.0106 -0.1811  0.0340
  323MOL0     N44488   9.975   9.297   6.365  0.5973  0.6422 -0.6327
  323MOL0     C44489   8.841   9.218   6.014  0.1126 -0.2096 -0.3308
  323MOL0     C44490   8.739   9.181   5.927 -0.0636 -0.3637 -0.1510
  323MOL0     C44491   8.288   9.133   5.833 -0.3234 -0.4527  0.0197
  323MOL0     C44492   8.280   9.010   5.768  0.7947  0.4556  0.0794
  323MOL0     C44493   8.179   8.991   5.672 -1.3484 -0.4627 -0.3101
  323MOL0     C44494   8.070   9.078   5.663  0.4362 -0.5358 -0.3715
  323MOL0     O44495   7.963   9.069   5.568  0.2700 -0.0834  0.2635
  323MOL0     C44496   7.938   8.943   5.501  0.8000  0.1008  0.0851
  323MOL0     C44497   8.018   8.929   5.367 -0.3890  0.2882 -0.2693
  323MOL0     C44498   7.966   8.805   5.303 -0.0523 -0.0080 -0.6631
  323MOL0     C44499   8.028   8.776   5.162  0.0366  0.0131  0.8401
  323MOL0     C44500   7.926   8.717   5.076 -0.3132  0.1799 -0.0680
  323MOL0     C44501   7.838   8.668   5.014 -0.6968 -0.3814 -0.0213
  323MOL0     C44502   8.073   9.198   5.742 -0.1799 -0.4720 -0.5916
  323MOL0     C44503   8.189   9.236   5.813  0.7404 -0.3192 -0.9015
  323MOL0     C44504   8.202   9.373   5.874 -0.0230  1.0036 -0.2045
  323MOL0     H44505   8.543   8.974   6.096 -1.5673  1.5533 -0.9867
  323MOL0     H44506   8.727   9.020   6.265  1.7516 -0.9183 -1.5089
  323MOL0     H44507   8.987   9.372   6.192 -2.7211 -1.1341 -1.1584
  323MOL0     H44508   9.073   9.235   6.128  0.2160 -3.5533  1.2883
  323MOL0     H44509   9.043   9.328   6.412 -0.9682  1.1158 -2.6104
  323MOL0     H44510   9.122   9.165   6.371  1.3002 -0.1186  1.2938
  323MOL0     H44511   9.293   9.263   6.257  0.4617 -0.9983  1.2753
  323MOL0     H44512   9.231   9.428   6.279 -0.8492  0.5012  0.0738
  323MOL0     H44513   9.263   9.390   6.519  0.9529 -2.5047  3.0405
  323MOL0     H44514   9.322   9.227   6.490 -0.9785 -0.5460 -1.8588
  323MOL0     H44515   9.444   9.476   6.376 -2.3281 -0.4311  1.2951
  323MOL0     H44516   9.516   9.318   6.365  1.3591  3.0303 -2.4749
  323MOL0     H44517   9.495   9.465   6.631 -1.2598 -2.9220  2.6452
  323MOL0     H44518   9.541   9.302   6.617  0.1949  1.4395  1.5161
  323MOL0     H44519   9.734   9.481   6.626  1.0301 -0.0295  0.1628
  323MOL0     H44520   9.702   9.497   6.452 -1.4444 -1.1911 -2.3858
  323MOL0     H44521   9.770   9.241   6.600 -0.1266 -0.5023  1.0546
  323MOL0     H44522   9.704   9.258   6.436  0.1274 -0.1143  1.5526
  323MOL0     H44523   9.977   9.447   6.655 -1.0789  0.4016 -0.1198
  323MOL0     H44524  10.251   9.527   6.608  2.8255  0.6051  0.4603
  323MOL0     H44525  10.315   9.469   6.446 -1.5690 -2.4178 -1.2783
  323MOL0     H44526  10.278   9.300   6.693 -0.0373 -1.3148  0.4062
  323MOL0     H44527  10.335   9.239   6.546 -0.1653  1.1839 -0.6038
  323MOL0     H44528  10.475   9.481   6.673  2.5154  0.5274 -1.9242
  323MOL0     H44529  10.509   9.312   6.724  1.2929  0.9166 -0.2804
  323MOL0     H44530  10.530   9.278   6.478 -3.0059  0.0825  0.0203
  323MOL0     H44531  10.545   9.451   6.458  0.5090  1.9144  1.7468
  323MOL0     H44532  10.677   9.304   6.317  0.2093 -1.6990  0.0192
  323MOL0     H44533  10.844   9.397   6.070 -0.3925 -1.3449 -3.1735
  323MOL0     H44534  10.736   9.263   6.112  0.5773 -0.0272 -0.1497
  323MOL0     H44535  10.897   9.225   6.068  0.8418  0.6234 -0.7093
  323MOL0     H44536  11.272   9.510   6.026 -0.3442  0.1331  1.6896
  323MOL0     H44537  11.484   9.583   5.908 -2.4722  0.2033  0.2927
  323MOL0     H44538  11.698   9.432   5.802  3.5040 -0.5581 -1.9502
  323MOL0     H44539  11.673   9.609   5.807 -1.0215  0.6222  1.2623
  323MOL0     H44540  11.938   9.448   5.843 -0.0161  0.0607  0.5053
  323MOL0     H44541  11.877   9.534   5.686 -5.3326  1.4511  0.2747
  323MOL0     H44542  12.062   9.655   5.824  0.2763  1.6626  0.1299
  323MOL0     H44543  11.920   9.688   5.936  0.6006 -4.1289  1.2390
  323MOL0     H44544  11.822   9.777   5.709  0.0228 -1.8325 -0.5188
  323MOL0     H44545  11.992   9.752   5.647  2.0772 -0.4199  1.1068
  323MOL0     H44546  11.918   9.990   5.699 -3.6248 -1.8429  0.0359
  323MOL0     H44547  11.909   9.960   5.860  0.7760  0.5595  1.0441
  323MOL0     H44548  12.182   9.887   5.728  3.9806  0.2589  2.8248
  323MOL0     H44549  12.140   9.922   5.895  0.4931 -1.9562 -0.7026
  323MOL0     H44550  12.108  10.129   5.870  1.3596  0.1529  1.0696
  323MOL0     H44551  12.122  10.140   5.693  0.0620  0.3631  0.3584
  323MOL0     H44552  12.344  10.087   5.890 -1.8041 -1.1144  1.2215
  323MOL0     H44553  12.328  10.223   5.773  0.6724 -0.5627 -1.8046
  323MOL0     H44554  11.713   9.393   6.223  0.1094  0.4054 -1.6067
  323MOL0     H44555  11.499   9.307   6.321  0.2230  0.3561  0.6420
  323MOL0     H44556  11.141   9.371   6.478 -1.2427  1.9480  2.6891
  323MOL0     H44557  10.954   9.367   6.632  2.1916  2.3176  0.0604
  323MOL0     H44558   8.907   9.298   5.982  0.1762  0.6055  1.7146
  323MOL0     H44559   8.740   9.227   5.829 -0.3755 -2.0571 -0.9984
  323MOL0     H44560   8.349   8.930   5.790 -0.9535 -0.9662  0.6426
  323MOL0     H44561   8.172   8.905   5.607  3.5919 -0.8824 -0.6537
  323MOL0     H44562   7.946   8.860   5.572 -0.0851  0.6820  0.8867
  323MOL0     H44563   7.832   8.950   5.476  0.3573  2.0176  2.1594
  323MOL0     H44564   8.125   8.909   5.378 -0.3514  0.2575 -0.6607
  323MOL0     H44565   7.995   9.017   5.307  0.8465  1.3834  0.8269
  323MOL0     H44566   7.992   8.721   5.369 -2.7683  0.0312  0.5725
  323MOL0     H44567   7.857   8.807   5.297 -0.0063 -0.3887 -1.9362
  323MOL0     H44568   8.121   8.718   5.170  0.3115  0.4810  1.0445
  323MOL0     H44569   8.061   8.866   5.110 -0.0641  0.3945  1.4413
  323MOL0     H44570   7.752   8.635   4.959 -1.4881  0.3829  0.7296
  323MOL0     H44571   7.988   9.263   5.724  1.8158  2.7323  0.7229
  323MOL0     H44572   8.133   9.446   5.832 -0.8405 -0.6145 -1.7941
  323MOL0     H44573   8.183   9.368   5.981 -4.0335  0.9553 -0.7928
  323MOL0     H44574   8.306   9.402   5.854  1.1141 -2.0091  0.6759
  324MOL0     O44575   8.488   2.245   5.701  0.1870 -0.0906 -0.1602
  324MOL0     C44576   8.402   2.264   5.786  0.2654  0.5866  0.1109
  324MOL0     O44577   8.434   2.309   5.912  0.2627 -0.2604  0.3746
  324MOL0     C44578   8.553   2.361   5.951  0.4676  0.2124  0.3781
  324MOL0     C44579   8.676   2.350   5.888 -0.0915 -0.5716  0.1292
  324MOL0     C44580   8.790   2.400   5.951 -0.7553  0.1885 -0.0163
  324MOL0     C44581   8.785   2.465   6.072 -0.1642 -0.2737  0.4632
  324MOL0     O44582   8.896   2.522   6.131 -0.7501  0.4205 -0.7081
  324MOL0     C44583   9.031   2.469   6.104  0.7797 -0.4819  0.2766
  324MOL0     C44584   9.097   2.582   6.020 -1.0130  0.3019 -0.7556
  324MOL0     C44585   9.243   2.544   5.991 -0.0301  0.2475  0.8470
  324MOL0     C44586   9.313   2.639   5.889  0.0910 -0.5235 -0.2744
  324MOL0     C44587   9.466   2.605   5.876  0.5315 -0.5132  0.2095
  324MOL0     C44588   9.534   2.689   5.771 -0.1651  0.3048 -0.0485
  324MOL0     C44589   9.685   2.695   5.782 -0.0443  0.8967 -0.2511
  324MOL0     C44590   9.757   2.777   5.673  0.4444  0.2586  0.3441
  324MOL0     N44591   9.897   2.761   5.695 -0.8215 -0.1172 -0.6238
  324MOL0     C44592   9.977   2.857   5.750  0.0443 -0.0830 -0.3231
  324MOL0     C44593  10.106   2.820   5.720  0.1635  0.0181  0.1474
  324MOL0     C44594  10.226   2.904   5.749 -0.0094 -2.0813  0.4660
  324MOL0     C44595  10.324   2.930   5.627 -0.0359  1.0211  0.0929
  324MOL0     C44596  10.401   2.808   5.596 -0.3720  0.3449 -0.3003
  324MOL0     C44597  10.548   2.834   5.629 -0.1309  0.1655  1.0571
  324MOL0     O44598  10.620   2.712   5.615  0.1250 -0.0466  0.5474
  324MOL0     C44599  10.731   2.708   5.689 -0.0573  0.3175 -0.4989
  324MOL0     C44600  10.800   2.819   5.740  0.2202 -0.5285  1.1255
  324MOL0     C44601  10.916   2.802   5.819 -0.0985 -0.1354  0.0355
  324MOL0     C44602  10.983   2.927   5.861  0.6754  0.3210 -0.4379
  324MOL0     C44603  10.973   2.674   5.838 -0.2845  0.4625 -0.6512
  324MOL0     C44604  11.101   2.640   5.912  0.9942  0.2145 -0.1902
  324MOL0     O44605  11.147   2.512   5.910  0.4282  0.5501  0.3754
  324MOL0     C44606  11.285   2.493   5.901 -0.7346  0.5404 -0.3375
  324MOL0     C44607  11.330   2.397   5.986 -0.7125 -0.8743  0.1817
  324MOL0     C44608  11.467   2.380   6.000  0.4057 -0.8216  0.1407
  324MOL0     C44609  11.558   2.444   5.906 -0.2475 -0.5937  0.1601
  324MOL0     O44610  11.702   2.412   5.904  0.5032  0.3140  0.1107
  324MOL0     C44611  11.773   2.422   6.027 -0.5381  0.0264  0.7609
  324MOL0     C44612  11.906   2.489   6.005  0.1388 -0.7311 -0.3820
  324MOL0     C44613  12.004   2.475   6.126  0.0645 -0.7167 -0.4333
  324MOL0     C44614  12.103   2.600   6.122 -0.4940  0.0144 -0.4679
  324MOL0     C44615  12.190   2.605   6.246  0.7260  0.0185  0.1949
  324MOL0     C44616  12.314   2.507   6.231 -0.0924 -0.1901  0.2967
  324MOL0     C44617  12.384   2.498   6.365 -0.2689 -0.1570  0.2081
  324MOL0     C44618  12.495   2.391   6.362  0.1633  0.2178 -0.1791
  324MOL0    Cl44619  12.635   2.453   6.279 -0.2531 -0.2553 -0.1422
  324MOL0     C44620  11.504   2.529   5.805  0.9673 -0.4232  0.5605
  324MOL0     C44621  11.370   2.553   5.807 -0.5673  0.3048 -0.2916
  324MOL0     O44622  11.166   2.729   5.957 -0.3269  0.5687  0.2404
  324MOL0     C44623  10.909   2.564   5.777  0.4817  0.0698  0.1899
  324MOL0     C44624  10.788   2.582   5.713 -0.3462 -0.2992  0.1437
  324MOL0     N44625  10.102   2.699   5.654 -0.2237  0.5638  0.2132
  324MOL0     N44626   9.985   2.663   5.637  0.4058  0.3620 -0.3119
  324MOL0     C44627   8.660   2.485   6.132 -0.2169 -0.1335 -0.2754
  324MOL0     C44628   8.554   2.423   6.074  0.5027 -0.2997  0.1587
  324MOL0     C44629   8.259   2.220   5.760 -0.0710  0.3245  0.3122
  324MOL0     C44630   8.172   2.209   5.872  0.0843 -0.0874  0.3061
  324MOL0     C44631   8.042   2.172   5.858  0.3926  0.6466  0.2564
  324MOL0     C44632   7.985   2.135   5.734  0.7579 -0.7620 -0.2972
  324MOL0     O44633   7.849   2.107   5.724  0.3095 -0.2213  0.3238
  324MOL0     C44634   7.778   2.131   5.602 -0.6790  0.1577  0.0266
  324MOL0     C44635   7.627   2.115   5.640  0.2185  0.1064 -0.6271
  324MOL0     C44636   7.594   1.969   5.670  0.3576 -0.0265 -0.1783
  324MOL0     C44637   7.445   1.970   5.708  0.5378 -0.4015  0.3048
  324MOL0     C44638   7.407   1.833   5.727  0.8607  1.0470  0.2657
  324MOL0     C44639   7.363   1.717   5.716 -0.0632  0.0651  0.3167
  324MOL0     C44640   8.070   2.146   5.626 -0.2731 -0.2378 -0.3501
  324MOL0     C44641   8.205   2.192   5.632 -0.1459  0.2698  0.5416
  324MOL0     C44642   8.275   2.225   5.508  0.2030  0.5699 -0.7191
  324MOL0     H44643   8.698   2.311   5.789  0.3363 -4.1533  1.5041
  324MOL0     H44644   8.884   2.396   5.897 -1.0663 -1.4828 -0.4907
  324MOL0     H44645   9.022   2.370   6.057  1.4153 -0.6200  0.4268
  324MOL0     H44646   9.086   2.452   6.197  0.5769  1.5888  0.8137
  324MOL0     H44647   9.045   2.601   5.926 -0.5956 -0.7154 -1.2097
  324MOL0     H44648   9.111   2.676   6.073  4.3247 -0.6377  0.0986
  324MOL0     H44649   9.293   2.551   6.088  1.5382  2.9609 -0.0644
  324MOL0     H44650   9.246   2.442   5.951 -2.0149  0.3049  0.4460
  324MOL0     H44651   9.264   2.633   5.792  0.4640  0.1259 -0.5055
  324MOL0     H44652   9.316   2.742   5.925  1.0423 -1.1875  1.7256
  324MOL0     H44653   9.494   2.501   5.858  1.0127  0.0548 -2.7373
  324MOL0     H44654   9.501   2.643   5.973  0.7192  0.0546 -0.0775
  324MOL0     H44655   9.513   2.651   5.671  0.8152 -1.0761  0.2478
  324MOL0     H44656   9.500   2.792   5.784  1.6569  0.9674 -0.2600
  324MOL0     H44657   9.721   2.592   5.795  1.1956  1.5597  1.9172
  324MOL0     H44658   9.717   2.753   5.868 -0.2119  0.8012 -0.1234
  324MOL0     H44659   9.726   2.746   5.573 -1.3528  0.7343  0.7269
  324MOL0     H44660   9.724   2.881   5.683  0.6971  0.2200  1.6911
  324MOL0     H44661   9.946   2.948   5.800 -0.5080 -1.5558  2.1897
  324MOL0     H44662  10.276   2.853   5.832 -1.4673  3.7634  5.7918
  324MOL0     H44663  10.189   2.995   5.798  0.8536 -0.6113 -1.4638
  324MOL0     H44664  10.265   2.958   5.540 -2.4211 -1.1347  0.8828
  324MOL0     H44665  10.382   3.017   5.660 -3.3755  2.1134  3.8776
  324MOL0     H44666  10.366   2.715   5.642 -2.5303  1.0711 -0.3680
  324MOL0     H44667  10.393   2.793   5.488  0.9069 -0.7924 -0.2665
  324MOL0     H44668  10.597   2.908   5.566 -0.4208  0.1775  0.8491
  324MOL0     H44669  10.550   2.880   5.728 -1.0362  0.5762  0.8902
  324MOL0     H44670  10.765   2.919   5.714 -0.3296 -0.9748  0.1187
  324MOL0     H44671  11.082   2.932   5.815  1.2837 -0.9298  0.6837
  324MOL0     H44672  10.992   2.934   5.970  1.1546  3.0127 -0.5870
  324MOL0     H44673  10.920   3.012   5.832 -0.2805  0.6290  2.2021
  324MOL0     H44674  11.260   2.339   6.045 -1.5501 -2.1493 -1.9458
  324MOL0     H44675  11.503   2.302   6.067  0.5863 -0.4860  0.4404
  324MOL0     H44676  11.721   2.482   6.102  1.0162  1.4325  0.7729
  324MOL0     H44677  11.786   2.323   6.070  0.5919  0.1878  0.8195
  324MOL0     H44678  11.957   2.448   5.917  1.3816  1.6580 -0.8517
  324MOL0     H44679  11.884   2.594   5.982  3.0455 -0.4230 -2.2919
  324MOL0     H44680  12.051   2.376   6.118  2.9755  0.3688  1.5303
  324MOL0     H44681  11.954   2.487   6.222  3.3584  6.1487  1.0094
  324MOL0     H44682  12.039   2.688   6.125  1.4758  1.5056  2.3102
  324MOL0     H44683  12.163   2.602   6.031  1.1976  0.3760  0.6021
  324MOL0     H44684  12.237   2.703   6.246  1.2981 -0.2500  0.8820
  324MOL0     H44685  12.128   2.584   6.334 -2.3799  0.4663 -1.7001
  324MOL0     H44686  12.388   2.539   6.157  0.6493 -1.4569  0.4600
  324MOL0     H44687  12.284   2.405   6.208 -0.3309 -0.1271  0.3270
  324MOL0     H44688  12.320   2.448   6.438  1.1335 -4.8489 -1.4367
  324MOL0     H44689  12.422   2.597   6.393 -1.8865  1.0140 -1.4834
  324MOL0     H44690  12.464   2.295   6.319  1.4948 -0.1492 -0.3473
  324MOL0     H44691  12.530   2.373   6.464  0.6103 -2.5980 -0.7424
  324MOL0     H44692  11.564   2.568   5.724  0.1907 -2.5922 -1.1436
  324MOL0     H44693  11.319   2.603   5.725 -1.5640 -1.6406 -0.9244
  324MOL0     H44694  10.947   2.463   5.776 -1.6938 -0.8353 -1.6073
  324MOL0     H44695  10.750   2.496   5.658  2.8869  0.3088 -3.5046
  324MOL0     H44696   8.666   2.541   6.225  2.5560  0.5113 -0.7327
  324MOL0     H44697   8.460   2.433   6.128  1.8624  2.4851  2.2540
  324MOL0     H44698   8.193   2.239   5.974  1.0005 -0.6573  0.2912
  324MOL0     H44699   7.979   2.173   5.947 -0.1923 -0.8682 -0.1148
  324MOL0     H44700   7.801   2.228   5.558 -1.3588  1.0540  1.5552
  324MOL0     H44701   7.806   2.055   5.529  0.2231  1.2221 -0.7592
  324MOL0     H44702   7.561   2.141   5.557 -0.5370 -0.3708 -0.1970
  324MOL0     H44703   7.600   2.185   5.720 -1.6367  1.8623 -2.6465
  324MOL0     H44704   7.614   1.910   5.580  0.8804 -1.4332  0.8213
  324MOL0     H44705   7.646   1.922   5.754 -2.2606  0.7036  1.9924
  324MOL0     H44706   7.379   2.006   5.629 -1.0498 -0.6757  1.4480
  324MOL0     H44707   7.423   2.023   5.801  2.7018 -1.0493  1.2342
  324MOL0     H44708   7.337   1.613   5.716 -0.1884  0.0814  1.6264
  324MOL0     H44709   8.031   2.139   5.525  1.7252  0.2344 -1.1979
  324MOL0     H44710   8.322   2.323   5.521  1.3566 -0.1755  1.4688
  324MOL0     H44711   8.350   2.146   5.496 -0.9017 -0.2119 -3.1171
  324MOL0     H44712   8.203   2.226   5.426 -1.9856  0.2938  1.0941
  325MOL0     O44713  10.608   7.642   3.370  0.0762  0.3240 -0.1264
  325MOL0     C44714  10.493   7.613   3.382  0.3227  0.4704 -0.0567
  325MOL0     O44715  10.447   7.488   3.361 -0.0749  0.2492 -0.1553
  325MOL0     C44716  10.534   7.398   3.300 -0.0550  0.6958  0.7079
  325MOL0     C44717  10.610   7.426   3.190 -0.3874  0.3059  0.6012
  325MOL0     C44718  10.683   7.327   3.123 -0.1824 -0.7110 -0.1991
  325MOL0     C44719  10.684   7.195   3.170 -0.0962 -0.1971 -0.2999
  325MOL0     O44720  10.741   7.088   3.111 -0.6454 -0.0339  0.2391
  325MOL0     C44721  10.843   7.119   3.017  0.4591  0.3624  0.5952
  325MOL0     C44722  10.906   6.988   2.970  0.4386  0.2393 -0.8763
  325MOL0     C44723  11.028   6.934   3.056  0.0845  0.4320  0.1339
  325MOL0     C44724  11.167   6.966   2.989 -0.4393 -0.6306  0.4826
  325MOL0     C44725  11.285   6.877   3.036 -0.2873 -0.0423  0.4770
  325MOL0     C44726  11.321   6.906   3.179  0.0711 -0.1780  0.3564
  325MOL0     C44727  11.448   6.836   3.218  0.8431 -0.4724  0.8815
  325MOL0     C44728  11.578   6.851   3.134  0.0728  0.0514 -0.9780
  325MOL0     N44729  11.686   6.793   3.211 -0.0313  0.1905 -0.4464
  325MOL0     C44730  11.740   6.861   3.320  0.0985  0.1422  0.0651
  325MOL0     C44731  11.865   6.814   3.326  0.0391  0.2569 -0.2974
  325MOL0     C44732  11.965   6.882   3.416 -0.0233 -0.1596 -0.5001
  325MOL0     C44733  12.103   6.867   3.365  0.3670 -0.0227 -0.1936
  325MOL0     C44734  12.150   6.724   3.360 -0.1018  0.9475  0.4571
  325MOL0     C44735  12.305   6.728   3.334 -0.1144 -0.3011  0.1191
  325MOL0     O44736  12.360   6.602   3.351  0.3858  0.1425  0.3740
  325MOL0     C44737  12.487   6.586   3.381  0.1715 -1.1846 -0.6672
  325MOL0     C44738  12.578   6.696   3.400  0.3561 -0.3069 -1.2591
  325MOL0     C44739  12.698   6.682   3.453  1.0970  0.0529  0.4480
  325MOL0     C44740  12.772   6.814   3.484  0.6760  1.0931  0.3872
  325MOL0     C44741  12.745   6.548   3.455  0.1583  0.1848  0.6043
  325MOL0     C44742  12.886   6.509   3.496 -0.2431  0.7829  0.4589
  325MOL0     O44743  12.923   6.378   3.470  0.1947 -0.2988  0.4427
  325MOL0     C44744  13.041   6.334   3.532  0.0331  0.1188  0.0557
  325MOL0     C44745  13.037   6.294   3.667 -0.3915  0.1567  0.8659
  325MOL0     C44746  13.154   6.259   3.732  0.0531 -0.4741 -0.4131
  325MOL0     C44747  13.284   6.264   3.674  0.3514  0.0329  1.3125
  325MOL0     O44748  13.400   6.241   3.744  0.1615  0.5020 -0.3974
  325MOL0     C44749  13.407   6.154   3.860 -0.5136 -0.2768  1.2802
  325MOL0     C44750  13.538   6.168   3.940  0.3984 -0.4315  0.6199
  325MOL0     C44751  13.551   6.303   4.010  0.0270  0.6502 -0.7915
  325MOL0     C44752  13.693   6.318   4.060  0.4989 -0.7307  0.2565
  325MOL0     C44753  13.757   6.198   4.141 -0.6172  0.1952  0.3389
  325MOL0     C44754  13.898   6.238   4.204 -0.0719  0.2621  0.6055
  325MOL0     C44755  13.970   6.133   4.281  0.2220 -0.1595  0.4873
  325MOL0     C44756  14.091   6.193   4.347  0.4293 -0.3280  0.8201
  325MOL0    Cl44757  14.029   6.287   4.485 -0.1535 -0.0094  0.3318
  325MOL0     C44758  13.284   6.302   3.535 -0.0422 -0.9946  0.0740
  325MOL0     C44759  13.163   6.336   3.467 -0.1028 -0.1544  0.2766
  325MOL0     O44760  12.951   6.592   3.561  0.2190  0.1518 -0.7174
  325MOL0     C44761  12.660   6.435   3.426 -0.0193 -0.4242  0.7627
  325MOL0     C44762  12.528   6.457   3.394  0.0220 -0.5873  0.4083
  325MOL0     N44763  11.878   6.712   3.230  0.0331  0.2343 -0.1947
  325MOL0     N44764  11.772   6.695   3.162 -0.2380 -0.3749  0.4184
  325MOL0     C44765  10.605   7.165   3.282 -0.3165  0.2605 -0.2991
  325MOL0     C44766  10.537   7.264   3.347 -0.9472  0.2774  0.3878
  325MOL0     C44767  10.397   7.720   3.412  0.0439 -0.7263 -0.1467
  325MOL0     C44768  10.274   7.712   3.345  1.0256 -0.6665  0.4499
  325MOL0     C44769  10.170   7.793   3.383  0.1560  0.6648  0.1353
  325MOL0     C44770  10.186   7.886   3.483 -0.2453 -0.2750 -0.2420
  325MOL0     O44771  10.075   7.959   3.509  0.1056 -0.3355  0.0423
  325MOL0     C44772  10.087   8.075   3.588 -0.0952  0.2317 -0.2605
  325MOL0     C44773   9.945   8.138   3.590  0.3263 -0.4056 -0.8308
  325MOL0     C44774   9.890   8.179   3.446 -0.8256 -0.0370  0.7615
  325MOL0     C44775   9.753   8.241   3.438 -0.7642  0.1462  0.2151
  325MOL0     C44776   9.759   8.363   3.518 -0.0850  0.3532  0.4490
  325MOL0     C44777   9.768   8.453   3.595 -0.2014 -0.7115  0.6706
  325MOL0     C44778  10.314   7.903   3.548 -0.0474  0.8182  0.5904
  325MOL0     C44779  10.417   7.816   3.520  0.6514  0.0969 -0.2589
  325MOL0     C44780  10.546   7.820   3.596  1.2063 -0.3533 -0.1189
  325MOL0     H44781  10.617   7.524   3.144 -1.1187 -0.7383 -1.9212
  325MOL0     H44782  10.744   7.350   3.036  0.0190 -0.6619 -0.0482
  325MOL0     H44783  10.915   7.187   3.064 -0.3786  1.8957 -0.2593
  325MOL0     H44784  10.801   7.165   2.927 -2.0338 -0.9013  1.0185
  325MOL0     H44785  10.829   6.909   2.969  0.3379  0.3426 -1.1051
  325MOL0     H44786  10.930   7.001   2.865  1.3470 -1.1099 -0.8635
  325MOL0     H44787  11.020   6.960   3.162  0.9205  1.8902 -0.1423
  325MOL0     H44788  11.026   6.824   3.050  1.0251  0.3069  1.6111
  325MOL0     H44789  11.157   6.954   2.881  0.4600 -0.0864  0.3223
  325MOL0     H44790  11.201   7.068   3.011 -0.3969 -0.9830  2.2146
  325MOL0     H44791  11.373   6.886   2.972 -1.0650  0.6272 -0.5500
  325MOL0     H44792  11.254   6.772   3.038 -0.3875 -0.0223  3.4210
  325MOL0     H44793  11.326   7.013   3.200  0.7033 -0.6527  3.0801
  325MOL0     H44794  11.242   6.863   3.242 -1.7321  1.7306 -0.4853
  325MOL0     H44795  11.418   6.732   3.230 -1.0909  0.0914  1.2514
  325MOL0     H44796  11.464   6.874   3.319 -1.8761 -1.6782  1.8562
  325MOL0     H44797  11.555   6.798   3.041 -1.6393  3.0204 -2.3819
  325MOL0     H44798  11.617   6.950   3.114  2.6265 -1.2941 -3.3147
  325MOL0     H44799  11.690   6.940   3.375 -0.6171 -1.0452  1.1469
  325MOL0     H44800  11.961   6.845   3.519  0.4068  0.5068 -0.2397
  325MOL0     H44801  11.937   6.987   3.420 -2.2117 -0.6068 -1.8919
  325MOL0     H44802  12.099   6.890   3.258  0.6154 -0.8603 -0.3892
  325MOL0     H44803  12.172   6.936   3.415  0.8319 -0.8256  0.2853
  325MOL0     H44804  12.132   6.685   3.461 -2.1489 -3.0364 -1.2474
  325MOL0     H44805  12.112   6.652   3.288  1.5821 -0.2651  0.7056
  325MOL0     H44806  12.329   6.767   3.235 -0.1273  0.7076  0.5012
  325MOL0     H44807  12.336   6.798   3.412 -0.9879 -0.8455  0.9696
  325MOL0     H44808  12.549   6.795   3.365 -0.9071 -0.4973 -0.8224
  325MOL0     H44809  12.868   6.816   3.432 -0.5225  0.7438 -1.9742
  325MOL0     H44810  12.789   6.813   3.592  0.8982 -3.2599  0.4693
  325MOL0     H44811  12.708   6.898   3.455  0.1014  1.0403  1.4549
  325MOL0     H44812  12.941   6.284   3.717 -1.3487  0.3835 -0.8552
  325MOL0     H44813  13.158   6.242   3.839  1.6868  2.2847  0.0654
  325MOL0     H44814  13.337   6.193   3.935  1.3937  1.3056  2.3520
  325MOL0     H44815  13.400   6.047   3.841  1.6560 -0.5111  1.4856
  325MOL0     H44816  13.532   6.092   4.019  1.5286 -1.0611  0.1233
  325MOL0     H44817  13.622   6.151   3.872  0.3594 -0.3515  0.5516
  325MOL0     H44818  13.479   6.295   4.092 -0.5503 -1.6721 -1.4646
  325MOL0     H44819  13.526   6.380   3.937  1.3379 -0.1161 -2.0986
  325MOL0     H44820  13.690   6.413   4.115 -4.0002  1.3990 -3.0158
  325MOL0     H44821  13.746   6.337   3.967 -0.2007  1.4244  0.2279
  325MOL0     H44822  13.689   6.171   4.222 -1.4318  0.9763 -0.0647
  325MOL0     H44823  13.764   6.106   4.081  1.3836 -0.3357  1.3003
  325MOL0     H44824  13.883   6.331   4.259  2.8240 -0.0558  2.0956
  325MOL0     H44825  13.962   6.270   4.121 -1.6275  0.9042 -0.3917
  325MOL0     H44826  13.995   6.043   4.224 -1.7597 -0.1035 -0.5356
  325MOL0     H44827  13.911   6.091   4.363 -1.2166  0.9402  0.0527
  325MOL0     H44828  14.146   6.245   4.267  1.1904  0.5199  1.8678
  325MOL0     H44829  14.157   6.120   4.396 -1.6250 -1.1296  2.5484
  325MOL0     H44830  13.378   6.314   3.482  0.1132  2.5856  0.9199
  325MOL0     H44831  13.158   6.372   3.365 -2.8630  1.5547  0.9031
  325MOL0     H44832  12.697   6.333   3.425  1.2947  0.0063  2.3475
  325MOL0     H44833  12.458   6.379   3.365  1.9596 -1.4384 -2.3932
  325MOL0     H44834  10.604   7.066   3.328  0.9069  0.7229  0.7873
  325MOL0     H44835  10.478   7.234   3.433 -1.1853 -2.0567 -0.5419
  325MOL0     H44836  10.265   7.652   3.255  1.6062 -0.5970  0.3464
  325MOL0     H44837  10.081   7.779   3.323 -0.5317 -2.0880  1.6000
  325MOL0     H44838  10.118   8.049   3.690  1.0837  0.4215 -0.5569
  325MOL0     H44839  10.159   8.137   3.534 -0.7379 -1.5400 -3.4071
  325MOL0     H44840   9.950   8.221   3.661 -3.0004 -1.8583  1.3653
  325MOL0     H44841   9.873   8.072   3.639  2.2633 -1.2960  0.9889
  325MOL0     H44842   9.958   8.251   3.400 -1.0257 -0.8652 -0.9190
  325MOL0     H44843   9.897   8.094   3.378  1.0804  1.5088 -1.1375
  325MOL0     H44844   9.676   8.179   3.484 -0.9012  0.0934 -0.0838
  325MOL0     H44845   9.725   8.253   3.333  0.7581  1.2018 -0.1059
  325MOL0     H44846   9.783   8.533   3.665  0.8167 -0.6851  0.4417
  325MOL0     H44847  10.334   7.978   3.624 -1.1651  0.2443  1.4766
  325MOL0     H44848  10.572   7.720   3.631 -0.0051 -0.1422  1.5413
  325MOL0     H44849  10.627   7.847   3.528  0.5997  0.8613 -0.3998
  325MOL0     H44850  10.536   7.876   3.689  1.6810 -2.2783  1.1484
  326MOL0     O44851   4.095   6.645   9.133  0.1265 -0.1573 -0.2971
  326MOL0     C44852   4.023   6.588   9.213 -0.5421  0.2569 -0.6201
  326MOL0     O44853   4.058   6.471   9.279 -0.1427 -0.8431  0.1877
  326MOL0     C44854   4.182   6.411   9.248  0.0440 -0.2173 -0.0930
  326MOL0     C44855   4.254   6.407   9.124  0.0356  0.5661 -0.0418
  326MOL0     C44856   4.378   6.347   9.115  0.3318  0.3896  0.0894
  326MOL0     C44857   4.442   6.279   9.213  0.4055 -0.4011 -0.3470
  326MOL0     O44858   4.553   6.206   9.179 -0.2090  0.0037 -0.2478
  326MOL0     C44859   4.628   6.131   9.270  0.4904 -0.3115 -0.1818
  326MOL0     C44860   4.711   6.031   9.193 -0.6655 -0.4400 -0.7066
  326MOL0     C44861   4.823   5.969   9.278 -0.3862 -0.1401 -0.0920
  326MOL0     C44862   4.950   6.056   9.285  0.1700  0.2408 -0.9111
  326MOL0     C44863   5.085   5.979   9.304 -0.0438 -0.0073  0.4959
  326MOL0     C44864   5.200   6.075   9.278  0.1017 -0.0099 -0.0753
  326MOL0     C44865   5.340   6.019   9.320  0.2638  0.1838  0.4248
  326MOL0     C44866   5.339   5.980   9.469 -0.2634  0.2017  0.6841
  326MOL0     N44867   5.456   5.905   9.517  0.1677  0.1307  0.0127
  326MOL0     C44868   5.583   5.927   9.491 -1.2225 -0.5262  0.2218
  326MOL0     C44869   5.657   5.836   9.565 -0.7068  0.3116  0.3201
  326MOL0     C44870   5.806   5.840   9.566 -0.5303  0.6678  0.0222
  326MOL0     C44871   5.854   5.698   9.537  0.1344  0.9146  0.5968
  326MOL0     C44872   6.010   5.683   9.529  0.5315 -0.7366 -0.2118
  326MOL0     C44873   6.075   5.754   9.408  0.3376 -0.5448 -0.2477
  326MOL0     O44874   6.191   5.831   9.442  0.4745  0.5509 -0.0899
  326MOL0     C44875   6.316   5.791   9.394 -1.0197 -0.6474  0.3564
  326MOL0     C44876   6.425   5.794   9.482 -0.1594  0.2083  0.0745
  326MOL0     C44877   6.557   5.765   9.446  0.4682  0.2048 -0.4129
  326MOL0     C44878   6.650   5.778   9.563 -0.0814 -0.1566  0.3040
  326MOL0     C44879   6.591   5.718   9.312  0.4792  0.2943  0.1590
  326MOL0     C44880   6.725   5.681   9.265 -0.2281  0.7768 -0.4465
  326MOL0     O44881   6.836   5.692   9.346 -0.2944  0.4369  0.5054
  326MOL0     C44882   6.964   5.697   9.302  0.1680 -0.1670  0.0511
  326MOL0     C44883   7.054   5.704   9.399 -0.4601  0.0784 -0.5935
  326MOL0     C44884   7.193   5.704   9.373 -0.1775  0.6543 -0.6826
  326MOL0     C44885   7.242   5.686   9.247  0.1338  0.0477 -0.5986
  326MOL0     O44886   7.374   5.688   9.231  0.5648 -0.3036 -0.2873
  326MOL0     C44887   7.432   5.749   9.114  1.6121 -0.1452  0.7952
  326MOL0     C44888   7.512   5.869   9.151 -0.2284 -1.0121  0.8022
  326MOL0     C44889   7.574   5.952   9.034  0.6633  0.1374 -0.2243
  326MOL0     C44890   7.694   5.877   8.958  0.6279 -0.0646 -0.3531
  326MOL0     C44891   7.775   5.970   8.864  0.3202 -0.6177  0.8632
  326MOL0     C44892   7.697   6.056   8.754 -0.5750 -0.3556 -1.0079
  326MOL0     C44893   7.785   6.187   8.732 -0.3555  0.0198 -0.3552
  326MOL0     C44894   7.763   6.258   8.596  0.2563  0.2501 -0.8103
  326MOL0    Cl44895   7.893   6.386   8.563  0.3239  0.0097 -0.5702
  326MOL0     C44896   7.151   5.666   9.145 -0.3299 -0.2206 -0.4863
  326MOL0     C44897   7.010   5.679   9.172 -0.2316 -0.0916  1.1059
  326MOL0     O44898   6.724   5.654   9.148  0.2677 -0.2004  0.2056
  326MOL0     C44899   6.480   5.722   9.223 -0.4888 -0.5203 -0.2856
  326MOL0     C44900   6.348   5.759   9.262 -0.5495 -0.5229 -0.0252
  326MOL0     N44901   5.565   5.743   9.611 -0.3528 -0.3010  0.8135
  326MOL0     N44902   5.446   5.794   9.586  0.4022 -0.3076 -0.8883
  326MOL0     C44903   4.375   6.282   9.339  0.1958 -0.4862  0.2254
  326MOL0     C44904   4.245   6.345   9.366 -0.3117  0.4426  0.3352
  326MOL0     C44905   3.893   6.653   9.254  0.7842 -0.6215  0.4323
  326MOL0     C44906   3.819   6.597   9.359  0.8602 -0.2152 -0.0805
  326MOL0     C44907   3.699   6.657   9.397 -0.1719  0.2394 -0.5593
  326MOL0     C44908   3.641   6.767   9.337 -0.1819  0.2055  0.6989
  326MOL0     O44909   3.518   6.819   9.384 -0.0992  0.8093 -0.5803
  326MOL0     C44910   3.468   6.947   9.340  0.5776 -0.5373 -0.1345
  326MOL0     C44911   3.349   6.983   9.426  0.6794 -0.2148  0.3874
  326MOL0     C44912   3.232   6.877   9.405  0.4615 -0.2012 -0.9529
  326MOL0     C44913   3.097   6.935   9.433  0.7996  0.2243 -1.0510
  326MOL0     C44914   3.090   7.007   9.562  0.0147 -0.1390 -0.7090
  326MOL0     C44915   3.091   7.068   9.674 -0.6994 -0.2441  0.0582
  326MOL0     C44916   3.715   6.822   9.236 -0.5471 -0.0660 -0.6788
  326MOL0     C44917   3.840   6.772   9.188 -0.6640 -0.5647 -0.3651
  326MOL0     C44918   3.908   6.861   9.093 -0.1102 -0.1810  0.5930
  326MOL0     H44919   4.197   6.455   9.044 -1.5064 -2.2579 -0.7673
  326MOL0     H44920   4.430   6.342   9.020  1.5116  2.0374  0.6014
  326MOL0     H44921   4.562   6.081   9.341 -0.1034  2.1909  1.1398
  326MOL0     H44922   4.694   6.193   9.333 -2.0661  2.4066  0.0306
  326MOL0     H44923   4.643   5.963   9.141  1.9943 -2.7323 -1.4178
  326MOL0     H44924   4.753   6.084   9.106 -0.1962  3.0220  1.4283
  326MOL0     H44925   4.791   5.954   9.382  2.0201 -0.3354  0.6930
  326MOL0     H44926   4.848   5.867   9.245 -0.6564  0.0440 -0.8846
  326MOL0     H44927   4.959   6.111   9.191 -1.8999  0.2593 -1.1433
  326MOL0     H44928   4.945   6.127   9.369  1.0724 -0.4914 -0.2126
  326MOL0     H44929   5.095   5.903   9.226 -1.5662 -0.0194  0.2783
  326MOL0     H44930   5.083   5.927   9.400 -0.2951  0.4236  0.7277
  326MOL0     H44931   5.187   6.093   9.171 -0.9983 -1.5638 -0.2361
  326MOL0     H44932   5.196   6.174   9.326  0.0712  0.6836 -1.4794
  326MOL0     H44933   5.416   6.095   9.300 -0.1782  1.7414  4.0270
  326MOL0     H44934   5.343   5.930   9.257 -0.2391 -2.6847  4.1323
  326MOL0     H44935   5.343   6.080   9.512  2.9329  0.6648 -0.4252
  326MOL0     H44936   5.256   5.919   9.507  1.0791 -0.6802  2.3471
  326MOL0     H44937   5.629   6.006   9.433  0.3044 -1.9775 -0.6237
  326MOL0     H44938   5.833   5.866   9.669 -0.6993 -1.1669  0.5637
  326MOL0     H44939   5.835   5.912   9.490 -1.9500  0.0200 -1.1799
  326MOL0     H44940   5.826   5.623   9.610  0.4885 -0.3260 -0.5075
  326MOL0     H44941   5.802   5.673   9.444 -0.5521  0.0825  1.1937
  326MOL0     H44942   6.059   5.720   9.620 -0.5973 -1.6684  0.7960
  326MOL0     H44943   6.037   5.578   9.523  3.6827  0.0454 -1.6779
  326MOL0     H44944   6.089   5.677   9.332 -1.4071 -0.7643 -0.3784
  326MOL0     H44945   5.996   5.817   9.366 -1.1190  0.3454  3.4897
  326MOL0     H44946   6.387   5.822   9.580 -1.3040  0.5752 -0.4556
  326MOL0     H44947   6.718   5.859   9.536  1.0988 -0.3890  2.3829
  326MOL0     H44948   6.710   5.690   9.587 -1.4443 -0.8747  1.1473
  326MOL0     H44949   6.594   5.806   9.653 -1.1439  0.1664 -0.4294
  326MOL0     H44950   7.022   5.703   9.503 -0.1809 -3.8134 -0.4161
  326MOL0     H44951   7.270   5.716   9.448 -0.9080 -2.6757  0.7881
  326MOL0     H44952   7.497   5.669   9.078 -1.4588 -2.5788  0.1860
  326MOL0     H44953   7.359   5.773   9.036  1.0218  0.0497  1.3984
  326MOL0     H44954   7.451   5.947   9.198 -2.5534 -1.4621 -1.2478
  326MOL0     H44955   7.595   5.824   9.206 -0.4554 -0.3799  1.6740
  326MOL0     H44956   7.611   6.047   9.075  0.5876 -0.6167  1.7107
  326MOL0     H44957   7.490   5.971   8.967  2.3999 -1.1110 -2.9021
  326MOL0     H44958   7.641   5.796   8.907 -1.1005 -1.6008  3.5025
  326MOL0     H44959   7.768   5.834   9.026  0.8361 -0.8810 -1.0760
  326MOL0     H44960   7.835   6.044   8.918  2.1156 -1.7645  0.5277
  326MOL0     H44961   7.849   5.915   8.804 -2.1327 -2.0018 -1.0860
  326MOL0     H44962   7.598   6.080   8.796 -0.1032  0.9528 -0.5937
  326MOL0     H44963   7.691   5.996   8.663  1.0743 -0.6361 -0.9555
  326MOL0     H44964   7.892   6.164   8.737 -0.4285 -0.2858 -0.2052
  326MOL0     H44965   7.771   6.254   8.818  1.8642 -1.1493  1.0148
  326MOL0     H44966   7.665   6.306   8.606  0.8679  1.5051 -0.6055
  326MOL0     H44967   7.767   6.196   8.506 -0.9496 -1.5661  0.3148
  326MOL0     H44968   7.188   5.612   9.058  1.4303 -1.9208  1.2334
  326MOL0     H44969   6.951   5.676   9.081 -1.0892 -0.9288  1.6751
  326MOL0     H44970   6.488   5.696   9.118 -2.0666  0.0555 -0.5771
  326MOL0     H44971   6.263   5.762   9.194  0.7087 -0.7510 -1.6563
  326MOL0     H44972   4.406   6.223   9.425 -0.6201 -0.3016  0.6527
  326MOL0     H44973   4.200   6.336   9.464 -1.6133 -1.0715 -0.3459
  326MOL0     H44974   3.849   6.511   9.418  0.5943  0.1067  0.5266
  326MOL0     H44975   3.641   6.627   9.484 -0.7208  0.9111 -0.6910
  326MOL0     H44976   3.540   7.029   9.335 -0.6022  0.4447 -2.9172
  326MOL0     H44977   3.436   6.933   9.236  3.1118  0.0380 -1.0693
  326MOL0     H44978   3.310   7.085   9.415 -1.0610 -0.7334  1.3298
  326MOL0     H44979   3.376   6.974   9.531 -3.4153  0.7856  1.7242
  326MOL0     H44980   3.222   6.837   9.304 -1.2926 -1.2564 -0.4109
  326MOL0     H44981   3.245   6.788   9.468  0.4241 -0.1264 -0.8383
  326MOL0     H44982   3.036   6.844   9.433  1.4373 -0.2193 -1.7841
  326MOL0     H44983   3.055   7.005   9.360 -1.6045  1.7891  1.6480
  326MOL0     H44984   3.100   7.125   9.764 -3.4263 -1.9626  1.5369
  326MOL0     H44985   3.672   6.912   9.192  0.3639  0.5146 -0.4223
  326MOL0     H44986   3.982   6.927   9.139 -0.1065  1.2457 -1.3357
  326MOL0     H44987   3.948   6.798   9.013 -1.0633  0.5752 -0.4989
  326MOL0     H44988   3.830   6.923   9.050  1.4145  0.4294 -1.4276
  327MOL0     O44989   3.997  11.148   4.810  0.4156 -0.3073 -0.2166
  327MOL0     C44990   4.016  11.187   4.924  0.2946 -0.3433  0.4883
  327MOL0     O44991   4.141  11.203   4.981 -0.8422 -0.2075  0.3460
  327MOL0     C44992   4.248  11.137   4.920  0.2529  0.5549 -0.0156
  327MOL0     C44993   4.362  11.224   4.892  0.3974  0.5553 -0.7788
  327MOL0     C44994   4.464  11.168   4.813 -0.3270  0.8498 -0.7436
  327MOL0     C44995   4.479  11.032   4.792  0.0056 -0.6335  0.4478
  327MOL0     O44996   4.593  10.999   4.720 -0.2780  0.1888  0.2969
  327MOL0     C44997   4.584  10.889   4.627 -0.4172 -0.1305 -0.6896
  327MOL0     C44998   4.718  10.860   4.570  0.3517 -0.3748 -0.5719
  327MOL0     C44999   4.815  10.788   4.655 -0.1305  0.8166 -0.5386
  327MOL0     C45000   4.867  10.860   4.776 -0.0564  0.2567 -0.0063
  327MOL0     C45001   4.959  10.783   4.867  0.8150  0.5124  0.4448
  327MOL0     C45002   4.894  10.661   4.927 -0.0609 -0.2102  0.0389
  327MOL0     C45003   4.768  10.678   5.011 -0.2041  0.1826  0.0929
  327MOL0     C45004   4.724  10.538   5.044  0.0292 -0.0585 -0.3327
  327MOL0     N45005   4.662  10.482   4.926 -0.5937  0.3321  0.9449
  327MOL0     C45006   4.534  10.513   4.891  0.5338  0.7341 -0.3663
  327MOL0     C45007   4.503  10.420   4.798 -0.5167  0.6999  0.0368
  327MOL0     C45008   4.373  10.413   4.719 -0.2684 -0.3336  0.1553
  327MOL0     C45009   4.376  10.495   4.597 -0.7100  0.0894  0.2322
  327MOL0     C45010   4.508  10.504   4.516 -0.3550  0.4295  0.0731
  327MOL0     C45011   4.558  10.374   4.448  0.3946 -0.0986 -0.3855
  327MOL0     O45012   4.661  10.417   4.360 -0.5450 -0.0901  0.4559
  327MOL0     C45013   4.790  10.453   4.393 -0.1821 -0.3678  0.1486
  327MOL0     C45014   4.864  10.531   4.302  0.2282 -0.2633  0.2387
  327MOL0     C45015   4.982  10.601   4.338 -0.1005  0.3343 -0.4270
  327MOL0     C45016   5.030  10.681   4.221 -0.0140  0.0435  0.0542
  327MOL0     C45017   5.050  10.568   4.453  0.0027 -0.6196 -0.2169
  327MOL0     C45018   5.186  10.618   4.480  0.1507 -0.3161 -0.1268
  327MOL0     O45019   5.265  10.630   4.368 -0.1742 -0.6909  0.0585
  327MOL0     C45020   5.397  10.676   4.395 -0.4528  0.0430  0.3768
  327MOL0     C45021   5.429  10.790   4.474  0.2206  1.2856  0.3551
  327MOL0     C45022   5.566  10.810   4.499  0.0467  0.2531 -0.4425
  327MOL0     C45023   5.672  10.732   4.453 -0.1082 -0.1367  0.3514
  327MOL0     O45024   5.795  10.782   4.482  0.2837  0.2829 -0.3342
  327MOL0     C45025   5.890  10.745   4.381 -0.0750  1.0987  0.3902
  327MOL0     C45026   6.025  10.815   4.398 -1.1582 -0.5515  0.0262
  327MOL0     C45027   6.109  10.743   4.515 -0.4882 -0.2241  0.7325
  327MOL0     C45028   6.255  10.798   4.531 -0.1842 -0.0961  0.9433
  327MOL0     C45029   6.320  10.757   4.665  0.8466 -0.3997  0.0686
  327MOL0     C45030   6.322  10.610   4.692 -0.2346  1.0206  0.8452
  327MOL0     C45031   6.428  10.540   4.603 -0.2899 -0.6264  0.1660
  327MOL0     C45032   6.567  10.555   4.648 -0.8658 -0.4260 -0.3474
  327MOL0    Cl45033   6.615  10.443   4.769  0.5820 -0.2953  0.2641
  327MOL0     C45034   5.634  10.625   4.375  0.6762 -0.0633  0.3717
  327MOL0     C45035   5.499  10.594   4.347  0.3671  0.0891  0.1386
  327MOL0     O45036   5.220  10.643   4.597  0.2737 -0.0541  0.3569
  327MOL0     C45037   4.982  10.488   4.540 -0.1375 -0.4517 -0.4974
  327MOL0     C45038   4.857  10.434   4.513 -0.2726 -0.0538 -0.0313
  327MOL0     N45039   4.616  10.338   4.771  0.6432  0.1668  0.1076
  327MOL0     N45040   4.705  10.373   4.857  0.2364 -0.5714 -1.0872
  327MOL0     C45041   4.372  10.950   4.841  0.4595  0.4023  1.2892
  327MOL0     C45042   4.257  10.997   4.904  0.6291  0.1821  0.4697
  327MOL0     C45043   3.905  11.253   4.988 -0.6967 -1.0100 -0.4149
  327MOL0     C45044   3.927  11.381   5.046  0.2004  0.1966 -0.3935
  327MOL0     C45045   3.839  11.461   5.103  0.1883 -0.2436 -0.2907
  327MOL0     C45046   3.698  11.412   5.114  0.3371 -0.3564  0.2686
  327MOL0     O45047   3.598  11.475   5.175  0.5781  0.1912  0.2207
  327MOL0     C45048   3.629  11.584   5.259 -0.0036  0.0138 -0.1086
  327MOL0     C45049   3.504  11.624   5.342 -0.2004 -0.7123  0.9063
  327MOL0     C45050   3.538  11.738   5.438  0.1786 -0.6582 -0.5673
  327MOL0     C45051   3.440  11.759   5.548  0.1214  0.0137  1.1286
  327MOL0     C45052   3.500  11.857   5.644  0.2666 -0.0694  0.4460
  327MOL0     C45053   3.544  11.941   5.721 -0.1124 -0.3973 -0.2261
  327MOL0     C45054   3.667  11.300   5.039 -0.4514 -0.1906 -0.0025
  327MOL0     C45055   3.768  11.213   4.983 -0.2170  0.1342  0.1564
  327MOL0     C45056   3.720  11.092   4.913 -0.1660  0.5149 -0.5373
  327MOL0     H45057   4.364  11.329   4.920  2.4006  0.2972  0.2396
  327MOL0     H45058   4.544  11.237   4.788 -1.6758  2.4287 -0.8217
  327MOL0     H45059   4.535  10.933   4.540 -1.2075 -0.4038 -0.3863
  327MOL0     H45060   4.534  10.800   4.667 -1.3206  0.5435 -0.2893
  327MOL0     H45061   4.689  10.787   4.493 -3.5561  2.0316 -1.6672
  327MOL0     H45062   4.766  10.946   4.523 -0.0866  0.9811  1.3514
  327MOL0     H45063   4.781  10.686   4.676  1.3934  0.2370 -0.7228
  327MOL0     H45064   4.899  10.761   4.589 -1.1366  1.4034 -2.1094
  327MOL0     H45065   4.923  10.946   4.739 -0.7878  1.1304  0.8809
  327MOL0     H45066   4.777  10.889   4.831  0.9210 -0.5701  2.1462
  327MOL0     H45067   4.973  10.851   4.952  0.8239  0.2622  0.6450
  327MOL0     H45068   5.056  10.764   4.819 -0.4958 -1.2679 -1.7013
  327MOL0     H45069   4.874  10.586   4.850  2.7165 -1.8365  0.7760
  327MOL0     H45070   4.974  10.613   4.984  0.6666 -0.1179 -0.8783
  327MOL0     H45071   4.690  10.733   4.957 -0.0245  0.5156  0.1662
  327MOL0     H45072   4.791  10.729   5.105 -2.4642 -0.0878  0.8513
  327MOL0     H45073   4.805  10.478   5.086 -2.8922 -1.5347  3.8615
  327MOL0     H45074   4.651  10.538   5.125  1.0427  0.1298  0.6010
  327MOL0     H45075   4.478  10.599   4.928  0.0974  0.5214 -0.5230
  327MOL0     H45076   4.291  10.425   4.791  0.7022 -2.5285  1.7452
  327MOL0     H45077   4.358  10.308   4.688  0.4871 -0.0664 -1.1965
  327MOL0     H45078   4.297  10.460   4.530 -0.0026 -1.0721 -0.0136
  327MOL0     H45079   4.345  10.596   4.624  0.8195  1.3129 -2.1534
  327MOL0     H45080   4.491  10.586   4.445  0.7759  2.1827  1.7240
  327MOL0     H45081   4.590  10.541   4.578  1.6244 -2.6895 -0.4989
  327MOL0     H45082   4.598  10.295   4.512 -0.6256 -0.6656 -0.4352
  327MOL0     H45083   4.472  10.328   4.399 -0.3749  0.4337  0.4462
  327MOL0     H45084   4.827  10.542   4.200 -1.2927  3.2923  1.0186
  327MOL0     H45085   5.087  10.611   4.160 -0.3274 -2.0882  2.0554
  327MOL0     H45086   5.088  10.768   4.252  0.2428 -0.8227  2.1645
  327MOL0     H45087   4.945  10.719   4.163 -0.4363  2.0247  1.8663
  327MOL0     H45088   5.350  10.854   4.511 -0.3105  1.6991 -1.4428
  327MOL0     H45089   5.598  10.897   4.556  2.3095 -1.2481  0.7005
  327MOL0     H45090   5.905  10.638   4.392 -0.1253  1.2424  2.0077
  327MOL0     H45091   5.852  10.761   4.279  0.3020  0.3128  0.1169
  327MOL0     H45092   6.079  10.804   4.304 -1.7771  1.3642 -0.5825
  327MOL0     H45093   6.007  10.922   4.409 -0.1565 -0.5188  1.6504
  327MOL0     H45094   6.104  10.635   4.497  1.3528 -0.9613  3.9476
  327MOL0     H45095   6.065  10.752   4.615  1.5719  0.8422  1.5932
  327MOL0     H45096   6.251  10.907   4.522 -0.1465 -0.1106  0.7483
  327MOL0     H45097   6.310  10.767   4.441 -0.5885  2.9049 -0.4607
  327MOL0     H45098   6.414  10.812   4.679 -0.6170  1.7930  1.9569
  327MOL0     H45099   6.253  10.797   4.741  2.5049 -0.2275  1.4905
  327MOL0     H45100   6.223  10.563   4.690  0.1142  0.2905 -1.1696
  327MOL0     H45101   6.351  10.599   4.797 -1.8333 -0.1715  1.1979
  327MOL0     H45102   6.422  10.581   4.502 -3.3013 -0.7444  0.2073
  327MOL0     H45103   6.401  10.435   4.588 -0.8655 -0.2192 -1.9236
  327MOL0     H45104   6.592  10.659   4.673 -1.0875 -0.4039 -0.2227
  327MOL0     H45105   6.627  10.537   4.558  1.6588 -1.7408  1.4775
  327MOL0     H45106   5.703  10.561   4.320  1.8973  1.3823  0.1623
  327MOL0     H45107   5.469  10.500   4.301  0.4947  0.9005 -1.6710
  327MOL0     H45108   5.013  10.466   4.641 -0.6808  2.0122  0.2740
  327MOL0     H45109   4.836  10.371   4.599 -1.2045 -1.0390 -0.9480
  327MOL0     H45110   4.375  10.841   4.838 -0.5612  0.3095  2.7041
  327MOL0     H45111   4.169  10.937   4.928  0.8439 -0.1692  0.3798
  327MOL0     H45112   4.027  11.423   5.050  0.8566 -1.3543  0.7435
  327MOL0     H45113   3.874  11.552   5.151 -0.0069 -1.5533  2.5067
  327MOL0     H45114   3.702  11.550   5.333 -0.3764  1.2555  0.8644
  327MOL0     H45115   3.676  11.668   5.206  0.3922 -0.5889 -0.7291
  327MOL0     H45116   3.460  11.542   5.400 -2.6453 -0.3629 -0.3269
  327MOL0     H45117   3.428  11.669   5.278 -0.4479 -0.7796  1.1482
  327MOL0     H45118   3.639  11.726   5.478  0.5242 -0.1258 -1.2648
  327MOL0     H45119   3.531  11.836   5.392 -1.0954 -0.7442 -0.6091
  327MOL0     H45120   3.419  11.658   5.584 -2.5640  0.0338 -0.1583
  327MOL0     H45121   3.343  11.802   5.521  0.6832  1.7263  1.6875
  327MOL0     H45122   3.572  12.010   5.799 -1.4399 -1.6393  1.4333
  327MOL0     H45123   3.562  11.271   5.035 -0.7503  0.9666 -1.3399
  327MOL0     H45124   3.800  11.017   4.914 -1.3296 -0.8852  2.8376
  327MOL0     H45125   3.634  11.042   4.958  0.8677 -0.8835 -0.0555
  327MOL0     H45126   3.692  11.126   4.812 -3.0955  0.3440  0.1215
  328MOL0     O45127   7.372   3.692   6.013  0.5779 -0.2714  0.2955
  328MOL0     C45128   7.405   3.583   5.978  0.1057 -0.3929 -0.0333
  328MOL0     O45129   7.525   3.569   5.920  0.5359 -0.9153  0.2599
  328MOL0     C45130   7.600   3.684   5.899 -0.3348 -0.3390  0.1305
  328MOL0     C45131   7.562   3.780   5.812  0.5616  0.3399 -0.1884
  328MOL0     C45132   7.625   3.903   5.791  0.4451 -0.2969  1.1287
  328MOL0     C45133   7.735   3.934   5.865 -1.1041  0.1744 -0.5553
  328MOL0     O45134   7.800   4.046   5.834  0.8314 -0.3009 -0.7262
  328MOL0     C45135   7.846   4.118   5.951 -0.0845  0.1346  0.0639
  328MOL0     C45136   7.904   4.260   5.925 -0.0289  0.0574  0.3521
  328MOL0     C45137   8.023   4.266   5.836 -0.5764  0.4996  0.5046
  328MOL0     C45138   8.052   4.411   5.783  0.8624  0.0291  0.3399
  328MOL0     C45139   8.186   4.440   5.720  0.3823 -0.5909 -0.2470
  328MOL0     C45140   8.213   4.340   5.610 -0.2152 -0.7196  0.0697
  328MOL0     C45141   8.366   4.355   5.573  0.4297 -0.2388 -0.0323
  328MOL0     C45142   8.470   4.273   5.649 -0.2896  0.4473  0.3053
  328MOL0     N45143   8.499   4.317   5.781  0.0505  1.2025 -0.1767
  328MOL0     C45144   8.582   4.417   5.812  0.2306 -0.1724 -0.9159
  328MOL0     C45145   8.607   4.412   5.950 -0.2332 -0.4269 -0.2585
  328MOL0     C45146   8.709   4.486   6.029  0.3190  0.1087 -0.0813
  328MOL0     C45147   8.849   4.429   6.026  0.0246 -0.1796  0.2396
  328MOL0     C45148   8.949   4.538   6.060 -0.0884 -0.0743 -0.2160
  328MOL0     C45149   9.095   4.489   6.066  0.2986 -0.1422 -0.2602
  328MOL0     O45150   9.183   4.596   6.100  0.5505 -0.1647 -0.6854
  328MOL0     C45151   9.320   4.582   6.126  0.6378  0.4876  1.0393
  328MOL0     C45152   9.381   4.458   6.107 -0.3226  0.0641  0.1052
  328MOL0     C45153   9.520   4.451   6.131 -0.2844 -0.8403 -0.6802
  328MOL0     C45154   9.584   4.315   6.138 -0.1729 -0.3703  0.3407
  328MOL0     C45155   9.598   4.572   6.153  0.4771 -0.1730 -0.1513
  328MOL0     C45156   9.748   4.583   6.142  0.6641 -0.0038  0.2567
  328MOL0     O45157   9.793   4.702   6.186 -0.1301  1.1879 -0.4812
  328MOL0     C45158   9.927   4.742   6.191 -0.0780 -0.4922  0.7554
  328MOL0     C45159  10.040   4.659   6.214  0.2006 -0.2132 -0.0125
  328MOL0     C45160  10.162   4.718   6.235 -0.9934  0.1875  0.3565
  328MOL0     C45161  10.189   4.850   6.192 -0.2376 -0.2904 -0.6656
  328MOL0     O45162  10.319   4.889   6.197  0.0390 -0.0649  0.7758
  328MOL0     C45163  10.350   5.028   6.220 -0.1138 -0.3434 -0.1113
  328MOL0     C45164  10.501   5.040   6.259  0.1602 -0.8213 -0.2882
  328MOL0     C45165  10.603   5.023   6.147 -0.4878  0.6601 -0.1248
  328MOL0     C45166  10.723   4.937   6.200  0.2017  0.0742 -0.3716
  328MOL0     C45167  10.827   4.910   6.087  0.9317  0.6042  0.0335
  328MOL0     C45168  10.896   5.033   6.027  0.6314 -0.0160 -0.8554
  328MOL0     C45169  10.959   5.120   6.140 -0.1665  0.6113  0.2485
  328MOL0     C45170  11.075   5.209   6.085  0.7191 -0.4746 -0.3922
  328MOL0    Cl45171  11.011   5.372   6.036 -0.3596 -0.0792  0.4629
  328MOL0     C45172  10.075   4.927   6.156 -0.6828  0.3305  0.9120
  328MOL0     C45173   9.949   4.878   6.164 -0.1977 -0.4156  0.3031
  328MOL0     O45174   9.820   4.484   6.121 -0.5671 -0.5240 -0.0441
  328MOL0     C45175   9.525   4.692   6.162  0.0792  0.6481  0.0155
  328MOL0     C45176   9.386   4.694   6.159  0.6371  0.8396  0.3110
  328MOL0     N45177   8.556   4.286   5.985  0.6056 -0.2686 -0.2973
  328MOL0     N45178   8.493   4.235   5.888  0.1512  0.6160  0.5111
  328MOL0     C45179   7.776   3.840   5.969  1.1347 -0.4675  0.3626
  328MOL0     C45180   7.712   3.721   5.975  0.5693 -1.1754  0.3919
  328MOL0     C45181   7.330   3.459   6.014  0.3488  0.9979  0.5122
  328MOL0     C45182   7.390   3.330   6.008  0.2201 -0.8076  0.6421
  328MOL0     C45183   7.330   3.210   6.043  0.0926 -0.2936 -0.0748
  328MOL0     C45184   7.200   3.209   6.090 -0.2356  0.4418  0.7821
  328MOL0     O45185   7.158   3.085   6.129 -0.1964 -0.1972 -0.1862
  328MOL0     C45186   7.023   3.059   6.170 -0.6348  0.3135  1.2691
  328MOL0     C45187   6.922   3.034   6.054  0.3533  0.0727  0.8986
  328MOL0     C45188   6.949   2.912   5.970  0.0523 -0.3361  0.1720
  328MOL0     C45189   6.856   2.904   5.848  0.1952 -0.0144  0.2232
  328MOL0     C45190   6.872   2.795   5.757 -0.2427 -0.0496 -0.0160
  328MOL0     C45191   6.879   2.699   5.678  0.1336 -0.1525  0.0814
  328MOL0     C45192   7.139   3.333   6.106 -0.1772 -0.0222 -0.3044
  328MOL0     C45193   7.191   3.456   6.057  0.2632 -0.6203  0.0608
  328MOL0     C45194   7.107   3.585   6.088 -0.2414  0.2134 -0.5966
  328MOL0     H45195   7.479   3.743   5.752 -0.8860  1.1259  1.2470
  328MOL0     H45196   7.600   3.980   5.720  1.2413 -0.4748  0.6377
  328MOL0     H45197   7.929   4.059   5.989 -1.4810 -1.2066  1.1764
  328MOL0     H45198   7.784   4.108   6.041 -0.6712 -0.4273 -0.3868
  328MOL0     H45199   7.818   4.308   5.876  0.5573  0.5950 -0.1649
  328MOL0     H45200   7.914   4.309   6.023 -2.5896  1.8452 -0.1679
  328MOL0     H45201   8.113   4.220   5.878  1.2084  2.8633 -0.5241
  328MOL0     H45202   7.999   4.209   5.746 -2.6699  0.7444  0.8712
  328MOL0     H45203   7.970   4.446   5.719 -0.1192 -4.3909 -1.1450
  328MOL0     H45204   8.049   4.473   5.873  1.9410 -0.6282  0.8400
  328MOL0     H45205   8.266   4.439   5.795 -0.6038  1.8970  0.9513
  328MOL0     H45206   8.184   4.545   5.689 -1.6656 -0.7552 -0.8099
  328MOL0     H45207   8.207   4.238   5.649 -0.6028 -1.3178 -1.4629
  328MOL0     H45208   8.149   4.344   5.522  2.0845  1.7119 -1.6791
  328MOL0     H45209   8.394   4.461   5.570 -0.3017 -0.0459 -3.2650
  328MOL0     H45210   8.381   4.332   5.468  2.3877  0.3664  0.0697
  328MOL0     H45211   8.442   4.167   5.642  0.5537  0.3320 -3.2325
  328MOL0     H45212   8.566   4.276   5.597 -0.0555 -0.7973  0.6251
  328MOL0     H45213   8.630   4.496   5.755  3.6738 -0.4866  1.2782
  328MOL0     H45214   8.682   4.489   6.135 -1.7543  2.4724 -0.5797
  328MOL0     H45215   8.711   4.586   5.985 -0.0488 -0.2943 -1.0422
  328MOL0     H45216   8.856   4.339   6.089 -2.2518 -0.0853  0.7365
  328MOL0     H45217   8.868   4.399   5.923  1.8297 -0.4054  0.6051
  328MOL0     H45218   8.935   4.628   6.000 -1.1928  0.1495  0.3540
  328MOL0     H45219   8.934   4.569   6.164 -1.3238 -0.3595 -0.2952
  328MOL0     H45220   9.105   4.407   6.137 -2.9478 -1.9252 -1.6537
  328MOL0     H45221   9.136   4.465   5.968  1.1497  0.3319 -0.0363
  328MOL0     H45222   9.337   4.369   6.065  3.4071 -2.5409  1.1803
  328MOL0     H45223   9.629   4.285   6.043 -2.1202  1.7566 -1.3707
  328MOL0     H45224   9.507   4.241   6.160 -0.8195 -0.4203 -1.9027
  328MOL0     H45225   9.656   4.302   6.220 -2.3181 -1.5854  2.1552
  328MOL0     H45226  10.041   4.552   6.231 -0.3681 -0.0346  1.2716
  328MOL0     H45227  10.247   4.651   6.247 -1.1438 -0.9100 -3.2936
  328MOL0     H45228  10.350   5.077   6.122  2.7381  1.7043  0.7726
  328MOL0     H45229  10.272   5.082   6.276  0.5589 -2.1989  2.8141
  328MOL0     H45230  10.510   5.138   6.306 -0.5046 -0.3543 -1.1148
  328MOL0     H45231  10.498   4.961   6.335 -2.4261 -0.2163  0.3536
  328MOL0     H45232  10.649   5.120   6.121  2.4176 -0.4045  0.5848
  328MOL0     H45233  10.554   4.960   6.073  0.5505  0.2031 -0.4418
  328MOL0     H45234  10.687   4.838   6.229 -1.1529  0.5797 -0.2124
  328MOL0     H45235  10.765   4.994   6.284 -0.4484  4.0024 -2.4494
  328MOL0     H45236  10.886   4.832   6.135 -1.3835 -0.7170  0.8959
  328MOL0     H45237  10.767   4.855   6.015 -0.0192  0.6433  0.7707
  328MOL0     H45238  10.824   5.095   5.973 -0.7173  0.6674  1.5956
  328MOL0     H45239  10.972   4.986   5.962 -0.7682 -0.8357 -1.9543
  328MOL0     H45240  11.002   5.059   6.220 -1.2524  1.0151  1.1628
  328MOL0     H45241  10.882   5.186   6.181 -0.8905  0.7185 -1.2089
  328MOL0     H45242  11.138   5.157   6.012  1.0126 -1.1456  0.3180
  328MOL0     H45243  11.141   5.228   6.171 -0.2972 -1.2196  0.5867
  328MOL0     H45244  10.089   5.019   6.101 -1.4940 -0.1238 -0.0724
  328MOL0     H45245   9.868   4.935   6.120 -0.7215 -1.8233 -0.6715
  328MOL0     H45246   9.584   4.784   6.160  1.1074  0.0073 -1.3740
  328MOL0     H45247   9.322   4.781   6.170  0.5136  0.7953 -0.0370
  328MOL0     H45248   7.856   3.858   6.040  2.9318 -2.4629 -1.0130
  328MOL0     H45249   7.734   3.642   6.046 -2.1865 -3.1445 -0.7397
  328MOL0     H45250   7.489   3.325   5.963  0.3322  2.9177  0.1495
  328MOL0     H45251   7.393   3.122   6.035 -1.2448 -1.1374 -2.0155
  328MOL0     H45252   7.018   2.967   6.229  2.0637 -1.8865 -1.5658
  328MOL0     H45253   6.990   3.145   6.229 -4.0386 -0.0163  0.1055
  328MOL0     H45254   6.913   3.125   5.994  1.5459 -2.0103 -2.7356
  328MOL0     H45255   6.826   3.013   6.102 -0.5659 -3.2121 -1.9866
  328MOL0     H45256   7.055   2.917   5.942  0.8100 -3.1895  2.0901
  328MOL0     H45257   6.936   2.819   6.026  2.4232 -0.2789  0.9571
  328MOL0     H45258   6.860   3.002   5.800  0.6074 -0.7013 -1.2121
  328MOL0     H45259   6.757   2.893   5.894  0.6698  0.9500  1.5412
  328MOL0     H45260   6.880   2.614   5.612 -1.1550 -0.3849  0.3401
  328MOL0     H45261   7.037   3.333   6.145  0.3948  0.8122  1.2844
  328MOL0     H45262   7.091   3.649   6.000  1.5302  1.0769 -0.3359
  328MOL0     H45263   7.006   3.566   6.124  0.4246 -0.2693  1.0901
  328MOL0     H45264   7.172   3.633   6.162  1.1390  1.1724 -2.3356
  329MOL0     O45265   9.032   5.181   6.341  0.6698 -0.3516 -0.4194
  329MOL0     C45266   8.920   5.208   6.303 -0.5533  0.1659  0.3931
  329MOL0     O45267   8.857   5.143   6.205  0.2189  0.1763 -0.2216
  329MOL0     C45268   8.924   5.074   6.110  0.3345  0.4856  1.1587
  329MOL0     C45269   8.935   5.136   5.987 -0.1173 -0.7710  0.5801
  329MOL0     C45270   9.015   5.084   5.887 -0.2452  0.1491 -0.1274
  329MOL0     C45271   9.088   4.966   5.904  0.0718 -0.2491 -0.1024
  329MOL0     O45272   9.148   4.913   5.793  0.0454 -0.3940 -0.2074
  329MOL0     C45273   9.195   4.779   5.810 -0.2101  0.6769 -0.1994
  329MOL0     C45274   9.267   4.747   5.682  0.4543  0.2797 -0.0876
  329MOL0     C45275   9.312   4.594   5.670  0.1830 -0.7030  0.3446
  329MOL0     C45276   9.437   4.569   5.753  0.4608 -0.5683 -0.9322
  329MOL0     C45277   9.562   4.645   5.691  0.5957  0.3011  0.0636
  329MOL0     C45278   9.678   4.667   5.788 -0.8652 -0.7319 -0.5006
  329MOL0     C45279   9.791   4.749   5.725  0.5201 -0.4501  0.0363
  329MOL0     C45280   9.891   4.784   5.827  0.9001  0.7574 -0.7852
  329MOL0     N45281  10.013   4.830   5.772  0.2555  0.0738  0.2363
  329MOL0     C45282  10.088   4.764   5.676  0.2289  0.7524  0.6635
  329MOL0     C45283  10.199   4.842   5.650  0.0678 -1.2354  0.6241
  329MOL0     C45284  10.310   4.796   5.561 -1.1082  0.1024  0.2861
  329MOL0     C45285  10.450   4.794   5.628 -0.4936 -0.2267 -0.5374
  329MOL0     C45286  10.522   4.931   5.637 -0.4243  0.2716 -0.2865
  329MOL0     C45287  10.651   4.917   5.737  0.2765  0.2368 -0.0711
  329MOL0     O45288  10.756   4.851   5.663 -0.1674 -0.5416 -0.0084
  329MOL0     C45289  10.886   4.868   5.704  0.6281  0.0487  0.2007
  329MOL0     C45290  10.953   4.773   5.788  0.0997  0.0311 -0.0769
  329MOL0     C45291  11.074   4.799   5.841 -1.6481 -0.8262 -1.2813
  329MOL0     C45292  11.119   4.695   5.945  0.8726  0.1450  0.2362
  329MOL0     C45293  11.161   4.911   5.806 -0.1988 -0.0174  0.9125
  329MOL0     C45294  11.307   4.932   5.843 -0.4964 -1.0310 -0.3936
  329MOL0     O45295  11.346   5.056   5.799  0.0884 -0.2335  0.1419
  329MOL0     C45296  11.444   5.124   5.868 -0.2578 -0.2558  0.3740
  329MOL0     C45297  11.538   5.182   5.774 -0.7992  1.0936  0.8001
  329MOL0     C45298  11.644   5.253   5.814 -0.9506 -0.1838 -0.6337
  329MOL0     C45299  11.669   5.279   5.951  0.9897 -0.1540 -0.3382
  329MOL0     O45300  11.780   5.349   5.993  0.8880  0.1428  0.2350
  329MOL0     C45301  11.820   5.369   6.128 -0.1396  0.7133 -0.8440
  329MOL0     C45302  11.933   5.271   6.152 -0.0196  0.3982 -0.5989
  329MOL0     C45303  11.981   5.276   6.295 -0.5925 -0.6298  0.4208
  329MOL0     C45304  12.084   5.395   6.309  0.7909  0.3449  0.1203
  329MOL0     C45305  12.075   5.455   6.448  0.3972 -0.4961 -0.5509
  329MOL0     C45306  12.202   5.535   6.473  0.3430  0.2082  0.2285
  329MOL0     C45307  12.226   5.645   6.379 -0.6372 -0.1617  0.2959
  329MOL0     C45308  12.357   5.726   6.417  0.7906 -0.1384 -0.8859
  329MOL0    Cl45309  12.322   5.827   6.560 -0.2109 -0.0030  0.6413
  329MOL0     C45310  11.569   5.228   6.046 -0.2213 -0.5851  0.7709
  329MOL0     C45311  11.466   5.143   6.006  0.0696 -0.6346 -0.1082
  329MOL0     O45312  11.367   4.865   5.922 -0.5348  0.0517 -0.0609
  329MOL0     C45313  11.087   5.000   5.721 -0.4755 -0.4429 -0.0330
  329MOL0     C45314  10.957   4.982   5.674 -0.0616 -0.1453  0.2362
  329MOL0     N45315  10.187   4.951   5.732 -0.1851 -0.6777  0.4350
  329MOL0     N45316  10.077   4.950   5.801 -0.8810  0.1835 -0.4393
  329MOL0     C45317   9.080   4.906   6.035  0.0872  0.2415  0.2689
  329MOL0     C45318   8.996   4.956   6.135 -0.8537 -0.1025 -0.1697
  329MOL0     C45319   8.831   5.275   6.401 -0.1072 -0.0353  0.8923
  329MOL0     C45320   8.705   5.323   6.344 -0.9644 -0.9909  0.0036
  329MOL0     C45321   8.610   5.385   6.421  0.2475  0.3452 -0.2152
  329MOL0     C45322   8.632   5.411   6.562  0.3876  0.5834  0.8673
  329MOL0     O45323   8.542   5.456   6.648  0.2372 -0.2664 -0.2897
  329MOL0     C45324   8.404   5.461   6.602  0.2880 -0.5650 -0.1553
  329MOL0     C45325   8.313   5.508   6.717  0.1265  0.3165 -0.8371
  329MOL0     C45326   8.161   5.482   6.696 -0.4500 -0.5063 -0.3312
  329MOL0     C45327   8.108   5.587   6.598  0.2092  0.2526  0.4616
  329MOL0     C45328   7.961   5.578   6.585 -0.1210  0.0299 -0.0942
  329MOL0     C45329   7.845   5.555   6.580  0.3676  0.4277 -0.2397
  329MOL0     C45330   8.749   5.370   6.609 -0.1510  0.9316 -0.1590
  329MOL0     C45331   8.845   5.295   6.541  0.5710  0.0688 -0.1315
  329MOL0     C45332   8.965   5.249   6.619 -0.5224 -0.1047 -0.2099
  329MOL0     H45333   8.895   5.233   5.961  0.9975 -0.0923  1.3199
  329MOL0     H45334   9.026   5.132   5.790 -0.9222 -1.7216 -1.1853
  329MOL0     H45335   9.115   4.711   5.843 -0.2229  2.3089  3.7219
  329MOL0     H45336   9.273   4.785   5.887  0.0389 -2.3655 -0.0854
  329MOL0     H45337   9.193   4.754   5.602 -4.2083 -5.1654  2.9168
  329MOL0     H45338   9.344   4.822   5.665  1.2653 -0.1941  1.3251
  329MOL0     H45339   9.225   4.533   5.695  0.7685 -1.7622 -0.1054
  329MOL0     H45340   9.332   4.560   5.568 -2.3535 -2.0779  0.2446
  329MOL0     H45341   9.422   4.610   5.853  1.4301 -0.5104 -0.8039
  329MOL0     H45342   9.459   4.462   5.756 -0.3926 -0.7292  1.0015
  329MOL0     H45343   9.534   4.741   5.647  1.7441  0.4094 -0.4776
  329MOL0     H45344   9.601   4.586   5.607  1.5322 -0.5728  1.0745
  329MOL0     H45345   9.650   4.716   5.882  1.6139  0.1817 -0.1626
  329MOL0     H45346   9.721   4.572   5.819  1.0993 -0.5676 -2.4421
  329MOL0     H45347   9.741   4.834   5.679 -1.0057 -1.8018 -0.9167
  329MOL0     H45348   9.835   4.694   5.641 -0.7689  2.1504 -2.4755
  329MOL0     H45349   9.855   4.867   5.889 -0.8954 -2.2486  2.5505
  329MOL0     H45350   9.913   4.700   5.894  1.6506  0.1448 -1.7783
  329MOL0     H45351  10.062   4.664   5.643  1.4606  0.0857  1.6425
  329MOL0     H45352  10.316   4.864   5.476 -1.5376  1.1621  1.0796
  329MOL0     H45353  10.293   4.696   5.520 -1.1652  0.6564 -1.0633
  329MOL0     H45354  10.435   4.760   5.731 -3.7260 -0.2664 -0.9246
  329MOL0     H45355  10.521   4.726   5.581  1.0152  0.4973  0.5993
  329MOL0     H45356  10.558   4.972   5.542 -0.6782  0.9292 -0.1040
  329MOL0     H45357  10.456   5.006   5.682  0.5963  0.5295  0.8319
  329MOL0     H45358  10.679   5.018   5.770 -1.9995  1.7368 -2.3872
  329MOL0     H45359  10.624   4.860   5.826 -0.8988  0.4680 -0.2700
  329MOL0     H45360  10.891   4.686   5.805 -3.0132  1.8589 -1.2945
  329MOL0     H45361  11.052   4.608   5.951 -0.4362  1.0289 -0.9696
  329MOL0     H45362  11.114   4.738   6.046 -1.2533  0.3410  0.0861
  329MOL0     H45363  11.222   4.663   5.929  0.8624  0.4926 -0.5357
  329MOL0     H45364  11.517   5.166   5.669 -1.0095  3.1786  0.4702
  329MOL0     H45365  11.725   5.280   5.747  0.3228  0.9170  1.2670
  329MOL0     H45366  11.857   5.471   6.144 -1.8403  1.0832  1.1467
  329MOL0     H45367  11.738   5.350   6.198  1.5855  0.6628  1.2919
  329MOL0     H45368  11.901   5.168   6.133 -0.4012 -0.0153  2.0215
  329MOL0     H45369  12.019   5.295   6.088  0.3358  0.7367 -0.0077
  329MOL0     H45370  12.037   5.187   6.324 -0.2719 -1.1266 -1.5955
  329MOL0     H45371  11.889   5.304   6.348 -2.1638  2.4589 -3.4372
  329MOL0     H45372  12.069   5.475   6.236 -0.7054 -0.1237 -0.1197
  329MOL0     H45373  12.184   5.354   6.291 -0.0053 -1.3857 -0.5576
  329MOL0     H45374  11.981   5.507   6.468  0.9052  0.1922  0.1324
  329MOL0     H45375  12.071   5.368   6.514  0.1819 -0.5243 -0.6017
  329MOL0     H45376  12.289   5.468   6.468  0.3333  0.0917  1.3620
  329MOL0     H45377  12.200   5.566   6.578  1.8053  1.4883 -0.0868
  329MOL0     H45378  12.139   5.713   6.382 -1.0132 -0.6150 -0.0985
  329MOL0     H45379  12.233   5.611   6.275 -2.6672 -0.2350  0.1390
  329MOL0     H45380  12.378   5.802   6.341 -2.2500  0.6446 -1.0921
  329MOL0     H45381  12.442   5.660   6.437  1.2969  0.0739 -2.2470
  329MOL0     H45382  11.574   5.253   6.151  2.2674  2.8074  0.0194
  329MOL0     H45383  11.394   5.100   6.075  0.0040  0.8634  0.8073
  329MOL0     H45384  11.140   5.092   5.701  0.0869 -0.5328  0.9649
  329MOL0     H45385  10.919   5.057   5.605 -0.3040  0.7706  1.3317
  329MOL0     H45386   9.144   4.822   6.060  1.4735  1.1795 -0.0153
  329MOL0     H45387   8.984   4.903   6.229  3.5960 -2.0716 -0.4553
  329MOL0     H45388   8.688   5.331   6.237 -0.2014 -0.7222 -0.1089
  329MOL0     H45389   8.516   5.416   6.376 -0.1537 -0.1345  0.2693
  329MOL0     H45390   8.388   5.536   6.524 -0.3487  0.8736  1.3004
  329MOL0     H45391   8.373   5.364   6.562  0.1276 -0.7742  0.4741
  329MOL0     H45392   8.339   5.611   6.741 -0.2559  0.0601  0.8307
  329MOL0     H45393   8.343   5.445   6.802 -0.9346  0.4242 -0.3636
  329MOL0     H45394   8.146   5.380   6.660 -0.4835 -0.6152 -0.0113
  329MOL0     H45395   8.111   5.499   6.792 -1.8695  1.5782 -1.3654
  329MOL0     H45396   8.161   5.576   6.503  0.5071 -0.2268  0.6816
  329MOL0     H45397   8.133   5.687   6.636 -2.5330  2.0958 -2.1601
  329MOL0     H45398   7.740   5.539   6.571  0.4569 -1.1216  1.0999
  329MOL0     H45399   8.771   5.378   6.715 -3.5513 -0.0496  0.7461
  329MOL0     H45400   9.051   5.308   6.585 -1.9241  1.8023 -0.6419
  329MOL0     H45401   8.948   5.262   6.726  0.8296 -0.0952  0.0222
  329MOL0     H45402   8.973   5.145   6.588 -1.4886  1.0268 -5.0764
  330MOL0     O45403   8.793   9.456   2.872 -0.1074  0.9614 -1.0654
  330MOL0     C45404   8.761   9.349   2.932  0.7653  0.1605 -0.2393
  330MOL0     O45405   8.845   9.272   3.011 -0.2571  0.0470  0.4668
  330MOL0     C45406   8.962   9.307   3.071  1.0777 -0.3018  0.0558
  330MOL0     C45407   9.048   9.207   3.115  0.7688 -0.5717 -0.1009
  330MOL0     C45408   9.172   9.237   3.174 -0.5772 -0.1309  0.6281
  330MOL0     C45409   9.208   9.367   3.187  0.3945  0.4442 -0.5499
  330MOL0     O45410   9.334   9.391   3.239  0.0379  0.5004  0.0215
  330MOL0     C45411   9.388   9.520   3.252  0.2980 -0.1798  0.1588
  330MOL0     C45412   9.519   9.541   3.315 -0.6722 -0.2500 -0.4862
  330MOL0     C45413   9.623   9.444   3.258  1.0614 -0.2766  0.6055
  330MOL0     C45414   9.676   9.499   3.123 -0.2025  0.1795  0.0763
  330MOL0     C45415   9.767   9.397   3.050  0.9903  0.7066 -0.3827
  330MOL0     C45416   9.809   9.448   2.918  0.5293  1.0867  0.1916
  330MOL0     C45417   9.904   9.346   2.858 -0.0954 -0.6319  0.6454
  330MOL0     C45418  10.035   9.313   2.937 -0.1787  1.0073  0.3398
  330MOL0     N45419  10.146   9.282   2.849 -0.2434 -0.0698  0.4112
  330MOL0     C45420  10.265   9.347   2.844  0.5681  0.2067 -0.8251
  330MOL0     C45421  10.351   9.276   2.763  0.6501 -0.8721  0.4352
  330MOL0     C45422  10.494   9.300   2.715 -0.3243  0.0599 -0.6065
  330MOL0     C45423  10.595   9.317   2.828 -0.1671 -0.4557 -0.5597
  330MOL0     C45424  10.726   9.385   2.786 -0.7365 -0.1740 -0.2015
  330MOL0     C45425  10.824   9.360   2.905 -0.0979 -0.0645  0.0312
  330MOL0     O45426  10.840   9.217   2.937  0.6350 -0.6946 -0.0034
  330MOL0     C45427  10.968   9.168   2.940 -0.9502 -1.0907  0.0546
  330MOL0     C45428  11.035   9.123   3.059 -0.1958  0.1795  1.0943
  330MOL0     C45429  11.161   9.054   3.066  0.3952 -0.5316  0.8915
  330MOL0     C45430  11.214   9.004   3.195  0.7932 -0.5673 -0.6085
  330MOL0     C45431  11.242   9.057   2.948  0.9138 -0.4180 -0.9889
  330MOL0     C45432  11.374   9.001   2.942  1.1149  0.6522  0.9202
  330MOL0     O45433  11.458   9.043   2.832  0.2458  0.0383 -0.6646
  330MOL0     C45434  11.580   8.984   2.826  0.0076 -0.2382  0.3266
  330MOL0     C45435  11.676   9.021   2.919 -0.6091 -0.4695  0.6806
  330MOL0     C45436  11.804   8.964   2.903 -0.9666 -0.0568 -0.1891
  330MOL0     C45437  11.834   8.878   2.797 -0.9287  0.4879 -0.7446
  330MOL0     O45438  11.960   8.824   2.777  0.5749  0.0381 -0.1230
  330MOL0     C45439  12.077   8.903   2.805 -0.2549  0.7822  0.7439
  330MOL0     C45440  12.213   8.833   2.756 -0.3330 -0.5057 -0.3595
  330MOL0     C45441  12.342   8.869   2.822 -0.3230 -0.4492 -0.1397
  330MOL0     C45442  12.444   8.785   2.756  0.2121  0.7187 -0.0464
  330MOL0     C45443  12.587   8.840   2.762 -0.3072  0.3832  0.0128
  330MOL0     C45444  12.661   8.823   2.899 -0.1938  0.2348  0.5008
  330MOL0     C45445  12.805   8.851   2.880 -1.2514  0.7798 -0.3962
  330MOL0     C45446  12.873   8.826   3.011 -0.8642 -0.8596  0.0317
  330MOL0    Cl45447  13.046   8.878   3.010 -0.6906  0.3297 -0.0239
  330MOL0     C45448  11.734   8.843   2.710 -0.1056 -0.4365  0.0269
  330MOL0     C45449  11.607   8.895   2.721 -0.2562 -0.2704 -0.0313
  330MOL0     O45450  11.405   8.911   3.015 -0.1177  0.4624  0.1042
  330MOL0     C45451  11.177   9.097   2.828  0.5681 -0.3757  0.7286
  330MOL0     C45452  11.048   9.155   2.824  0.6570  0.4060  0.8352
  330MOL0     N45453  10.272   9.172   2.713 -0.1780  0.4479  0.1824
  330MOL0     N45454  10.156   9.178   2.769  0.1003  0.0465  0.8538
  330MOL0     C45455   9.115   9.468   3.159  0.5306  0.1451 -0.4622
  330MOL0     C45456   8.997   9.446   3.098 -0.0781  0.3318 -0.4332
  330MOL0     C45457   8.624   9.291   2.894 -0.0593  0.0718 -0.4051
  330MOL0     C45458   8.599   9.157   2.911 -0.4143 -0.0062 -0.1578
  330MOL0     C45459   8.477   9.096   2.873  0.3841  0.1748  0.3830
  330MOL0     C45460   8.376   9.175   2.820  0.6538  0.3768  0.7479
  330MOL0     O45461   8.268   9.103   2.787  0.7881 -0.0847  0.6600
  330MOL0     C45462   8.141   9.160   2.760  0.5223  0.4023 -0.0392
  330MOL0     C45463   8.039   9.040   2.749 -0.7610  0.1602  0.1637
  330MOL0     C45464   7.893   9.089   2.744 -0.5823 -0.1507 -0.6850
  330MOL0     C45465   7.795   8.984   2.700 -0.3919 -0.8240  0.7235
  330MOL0     C45466   7.823   8.854   2.756  0.5049  0.3447  0.1995
  330MOL0     C45467   7.847   8.741   2.793  0.3932  0.6888 -0.0174
  330MOL0     C45468   8.398   9.310   2.794 -0.1591 -0.7208  0.2272
  330MOL0     C45469   8.520   9.370   2.835  0.4897  0.0905 -0.1656
  330MOL0     C45470   8.539   9.516   2.799 -0.4336 -0.0005  0.3373
  330MOL0     H45471   9.025   9.109   3.073 -2.3086  0.1031 -0.2166
  330MOL0     H45472   9.243   9.160   3.203  4.3185  4.0517  1.2569
  330MOL0     H45473   9.310   9.583   3.296  1.2742 -0.5645  2.5914
  330MOL0     H45474   9.397   9.548   3.147  1.1642  3.1515  0.9882
  330MOL0     H45475   9.554   9.643   3.304 -0.9979 -0.3534 -2.8921
  330MOL0     H45476   9.514   9.514   3.421 -1.2258 -3.3689 -1.1825
  330MOL0     H45477   9.702   9.442   3.333 -1.8262 -0.1877  3.9125
  330MOL0     H45478   9.577   9.345   3.246  2.7351 -1.0490  0.3017
  330MOL0     H45479   9.593   9.521   3.055 -0.6818 -0.5897  0.4049
  330MOL0     H45480   9.733   9.592   3.131  0.8366 -0.3477 -0.8227
  330MOL0     H45481   9.711   9.305   3.030  1.1862  0.2132  1.1763
  330MOL0     H45482   9.852   9.374   3.116  0.9440  0.1562 -0.5087
  330MOL0     H45483   9.723   9.450   2.851  2.0104 -0.7506 -1.8827
  330MOL0     H45484   9.854   9.547   2.919 -1.0864  1.8583  0.1190
  330MOL0     H45485   9.927   9.387   2.760 -1.5589 -0.1843  0.4647
  330MOL0     H45486   9.859   9.250   2.829  0.5712 -0.5015 -0.8857
  330MOL0     H45487  10.059   9.403   2.994 -0.1791  0.2593  1.5364
  330MOL0     H45488  10.027   9.221   2.995  2.6142  0.1938 -0.4184
  330MOL0     H45489  10.294   9.433   2.905 -0.8943 -0.2857  0.6162
  330MOL0     H45490  10.497   9.393   2.657  0.5729  1.0219  0.8897
  330MOL0     H45491  10.537   9.222   2.652 -1.0806  0.2057 -1.3227
  330MOL0     H45492  10.539   9.368   2.907  0.2608 -1.7064  0.5906
  330MOL0     H45493  10.615   9.214   2.858 -2.7291 -0.5594  1.0800
  330MOL0     H45494  10.765   9.344   2.693 -0.2390 -0.5304  0.1571
  330MOL0     H45495  10.720   9.493   2.768  1.2950  0.0476  0.1481
  330MOL0     H45496  10.918   9.404   2.871 -0.5426  1.8645  1.1540
  330MOL0     H45497  10.784   9.419   2.989  1.3945  1.1038 -0.0312
  330MOL0     H45498  10.968   9.138   3.144 -2.7457 -0.1159 -0.7416
  330MOL0     H45499  11.145   9.038   3.273  0.9559 -3.4706  0.9456
  330MOL0     H45500  11.315   9.040   3.215  0.9455 -0.1515 -2.0656
  330MOL0     H45501  11.212   8.896   3.179 -1.6495 -0.4210 -1.6891
  330MOL0     H45502  11.651   9.083   3.004 -2.5612 -1.3455  0.7962
  330MOL0     H45503  11.877   8.976   2.982 -1.8805  1.0335  0.5165
  330MOL0     H45504  12.062   9.003   2.765 -1.6914 -0.3445 -1.8438
  330MOL0     H45505  12.080   8.909   2.914 -1.5188 -0.2700  0.8644
  330MOL0     H45506  12.202   8.725   2.765 -0.5734 -0.4238  0.4537
  330MOL0     H45507  12.208   8.859   2.650  0.5413 -0.5225 -0.4087
  330MOL0     H45508  12.345   8.854   2.930  0.0756  0.5254 -0.0034
  330MOL0     H45509  12.356   8.975   2.800 -1.9190 -0.5011 -1.6156
  330MOL0     H45510  12.420   8.780   2.649 -0.8899 -0.5862  0.2259
  330MOL0     H45511  12.435   8.682   2.792  3.8727 -0.1173 -1.1638
  330MOL0     H45512  12.648   8.805   2.679  0.3486 -0.0104  0.6421
  330MOL0     H45513  12.573   8.948   2.751  0.5582  0.3681 -1.4512
  330MOL0     H45514  12.639   8.729   2.950 -1.4658  1.1249  1.6835
  330MOL0     H45515  12.620   8.900   2.966 -2.4500 -2.3969  2.3328
  330MOL0     H45516  12.831   8.954   2.855  2.2654  0.0409 -0.3820
  330MOL0     H45517  12.855   8.789   2.805  0.5004  0.0119  1.3058
  330MOL0     H45518  12.877   8.718   3.028 -0.4391 -1.2408 -2.1904
  330MOL0     H45519  12.821   8.883   3.089  0.5883  2.0226 -0.9651
  330MOL0     H45520  11.771   8.791   2.622 -0.2262  0.4555 -0.5621
  330MOL0     H45521  11.528   8.864   2.654  0.3980 -2.3545  0.1100
  330MOL0     H45522  11.219   9.088   2.728 -3.7577 -0.9389 -1.2623
  330MOL0     H45523  11.013   9.185   2.726 -0.1402 -0.5366  0.8088
  330MOL0     H45524   9.144   9.571   3.175 -0.2004  0.3272 -0.2671
  330MOL0     H45525   8.943   9.524   3.046 -1.5739 -1.7567 -2.2252
  330MOL0     H45526   8.670   9.092   2.962  1.5303  0.8011 -1.6702
  330MOL0     H45527   8.462   8.991   2.893  1.0131  0.4435  2.4836
  330MOL0     H45528   8.108   9.223   2.843  1.1490 -0.7678  1.1199
  330MOL0     H45529   8.135   9.212   2.664 -1.9180 -0.2403 -0.3036
  330MOL0     H45530   8.057   8.970   2.832  2.9306 -1.2918 -1.6154
  330MOL0     H45531   8.063   8.991   2.654  0.7209  1.5047 -0.1875
  330MOL0     H45532   7.861   9.113   2.846  0.3711 -3.6199  0.5772
  330MOL0     H45533   7.872   9.172   2.677 -1.2938 -0.2789 -0.6298
  330MOL0     H45534   7.803   8.972   2.592 -1.5048 -0.6044  0.6062
  330MOL0     H45535   7.696   9.025   2.724 -0.1579  0.1728  0.0474
  330MOL0     H45536   7.865   8.636   2.808 -0.4606  0.1001 -2.5730
  330MOL0     H45537   8.326   9.368   2.736  1.4164 -0.0082 -1.1010
  330MOL0     H45538   8.607   9.578   2.859 -1.4549  1.5671 -0.0510
  330MOL0     H45539   8.578   9.524   2.697 -1.5274 -1.1338 -0.1850
  330MOL0     H45540   8.445   9.573   2.796  0.7852  2.1794  1.0367
  331MOL0     O45541   7.704   4.950   3.231 -0.2933 -0.8272  0.3055
  331MOL0     C45542   7.692   4.937   3.354 -0.1771  0.0904  0.6822
  331MOL0     O45543   7.808   4.937   3.436 -0.4438  0.2563  0.0882
  331MOL0     C45544   7.940   4.926   3.388  0.2616 -0.2328 -0.0507
  331MOL0     C45545   8.020   4.846   3.463  0.2078  0.4900 -0.1090
  331MOL0     C45546   8.146   4.816   3.425 -0.6388  0.9212 -0.4945
  331MOL0     C45547   8.209   4.885   3.321 -0.5346 -1.0778  0.4921
  331MOL0     O45548   8.335   4.859   3.290  0.1864  0.4628 -0.1619
  331MOL0     C45549   8.355   4.758   3.197 -0.5653  0.1274  0.2590
  331MOL0     C45550   8.423   4.639   3.270  0.1177 -0.4245 -0.1484
  331MOL0     C45551   8.579   4.656   3.289 -0.3347  0.5533 -0.2420
  331MOL0     C45552   8.625   4.528   3.364  0.0235 -0.4442 -0.5447
  331MOL0     C45553   8.769   4.531   3.383 -0.7675 -0.2274  0.0391
  331MOL0     C45554   8.817   4.423   3.479  0.6793 -0.8708  0.1052
  331MOL0     C45555   8.963   4.409   3.477  0.0209  0.6260  0.4251
  331MOL0     C45556   9.044   4.541   3.467 -0.1748  0.3852 -0.1772
  331MOL0     N45557   9.181   4.515   3.449 -0.2409  1.5852  0.4320
  331MOL0     C45558   9.280   4.537   3.540 -0.4671 -0.7838 -0.1787
  331MOL0     C45559   9.394   4.486   3.492  0.2672  0.1983 -0.5406
  331MOL0     C45560   9.524   4.505   3.575 -0.0204 -0.0082 -0.6035
  331MOL0     C45561   9.603   4.636   3.536  0.4209 -0.0167 -0.9905
  331MOL0     C45562   9.638   4.645   3.387  0.0341  0.1134  0.3614
  331MOL0     C45563   9.739   4.544   3.339 -1.0908  0.2878  0.0638
  331MOL0     O45564   9.858   4.530   3.421 -0.5471  0.2270  0.1568
  331MOL0     C45565   9.951   4.633   3.418 -0.3602 -0.2868 -0.6520
  331MOL0     C45566   9.964   4.727   3.323 -0.2192  0.0750  0.0559
  331MOL0     C45567  10.065   4.828   3.324 -0.5630  0.5956 -0.1151
  331MOL0     C45568  10.071   4.940   3.215 -0.0158 -0.5620 -0.6806
  331MOL0     C45569  10.162   4.822   3.429  0.2527  0.1292 -0.5322
  331MOL0     C45570  10.274   4.919   3.439 -0.3975 -0.0619  0.0555
  331MOL0     O45571  10.279   5.030   3.354 -0.0655  0.5599  0.4882
  331MOL0     C45572  10.385   5.121   3.348  0.0853 -0.1038  0.5090
  331MOL0     C45573  10.459   5.172   3.458 -1.1341  0.5415  0.2085
  331MOL0     C45574  10.572   5.255   3.434 -0.1733 -0.1272  0.5808
  331MOL0     C45575  10.617   5.271   3.304 -0.5470  0.2077  0.3104
  331MOL0     O45576  10.743   5.336   3.293 -0.0930 -0.1463  0.5063
  331MOL0     C45577  10.829   5.321   3.177 -0.8701 -0.5150 -0.1585
  331MOL0     C45578  10.968   5.340   3.245  0.2408  0.8329 -0.5655
  331MOL0     C45579  11.054   5.424   3.151 -0.4171  0.1060 -0.2775
  331MOL0     C45580  11.199   5.433   3.200 -0.2058 -1.3302  0.1777
  331MOL0     C45581  11.287   5.507   3.101  0.5756  0.4184 -0.3628
  331MOL0     C45582  11.426   5.452   3.104  0.6045 -0.5802 -0.0078
  331MOL0     C45583  11.536   5.539   3.026 -0.4183 -0.0132 -0.1929
  331MOL0     C45584  11.523   5.522   2.873  0.1002 -0.0738 -0.2609
  331MOL0    Cl45585  11.569   5.365   2.808 -0.3491  0.3669  0.0365
  331MOL0     C45586  10.550   5.217   3.195 -0.3090 -0.5123 -0.3820
  331MOL0     C45587  10.428   5.158   3.217 -0.4595  0.8780  0.3996
  331MOL0     O45588  10.351   4.903   3.535  0.4206  0.0265 -0.0721
  331MOL0     C45589  10.153   4.724   3.532  0.2384  0.1615 -0.2529
  331MOL0     C45590  10.044   4.629   3.528 -0.5537  0.0319 -0.2483
  331MOL0     N45591   9.363   4.427   3.374 -0.2306  0.1063  0.0983
  331MOL0     N45592   9.239   4.438   3.350  0.5408 -0.2025  0.1571
  331MOL0     C45593   8.132   4.970   3.240  0.7978 -0.5499  0.3119
  331MOL0     C45594   7.993   4.995   3.279 -0.5321 -0.1082  1.0125
  331MOL0     C45595   7.561   4.935   3.416  0.3654 -0.5687 -0.0579
  331MOL0     C45596   7.553   4.962   3.550 -0.0072  0.3121 -0.6142
  331MOL0     C45597   7.432   4.963   3.621 -0.0053 -0.4103  0.2511
  331MOL0     C45598   7.314   4.945   3.556 -0.3296 -0.0126 -0.8392
  331MOL0     O45599   7.191   4.954   3.619 -0.0067 -0.7191  0.2359
  331MOL0     C45600   7.173   4.947   3.763  0.4594 -0.6459  0.7979
  331MOL0     C45601   7.169   4.809   3.806 -0.9276 -0.2944 -0.5169
  331MOL0     C45602   7.078   4.713   3.723  1.2794 -0.0445  0.4048
  331MOL0     C45603   6.941   4.663   3.796 -0.5269 -0.6799 -0.5440
  331MOL0     C45604   6.846   4.766   3.837  0.1718  0.3955  0.2340
  331MOL0     C45605   6.792   4.864   3.890 -0.6275  0.4082 -0.5025
  331MOL0     C45606   7.317   4.910   3.417  0.6035 -0.0452 -0.1523
  331MOL0     C45607   7.437   4.908   3.345 -0.6356 -0.4041 -0.7687
  331MOL0     C45608   7.426   4.881   3.193 -0.5525  0.6190  0.5694
  331MOL0     H45609   7.982   4.796   3.552 -1.4365  3.1965  0.8063
  331MOL0     H45610   8.210   4.753   3.485  1.6995  1.7649 -1.9638
  331MOL0     H45611   8.413   4.805   3.117  0.2029  0.6044  1.0784
  331MOL0     H45612   8.259   4.724   3.158 -1.1502  0.2034  1.5901
  331MOL0     H45613   8.390   4.631   3.374  3.7229 -1.0892  1.1179
  331MOL0     H45614   8.405   4.552   3.207  1.7794 -0.5500 -0.5040
  331MOL0     H45615   8.630   4.668   3.193  1.5225  1.6745  0.8114
  331MOL0     H45616   8.609   4.748   3.340  2.0134  1.3130 -2.7566
  331MOL0     H45617   8.567   4.529   3.456  0.5814 -1.0552 -0.1744
  331MOL0     H45618   8.598   4.441   3.303  0.4341 -0.7011 -0.3687
  331MOL0     H45619   8.802   4.626   3.426  2.4214  0.3724 -3.2621
  331MOL0     H45620   8.823   4.514   3.289  2.2887 -0.2148  1.6559
  331MOL0     H45621   8.770   4.446   3.575 -3.0505 -1.3652 -1.4180
  331MOL0     H45622   8.780   4.328   3.440  0.2724 -0.0475 -1.6482
  331MOL0     H45623   8.988   4.348   3.390  0.5672 -0.3188  1.2186
  331MOL0     H45624   8.995   4.351   3.564  0.7058  1.7067  0.9156
  331MOL0     H45625   9.009   4.604   3.384  0.6049  0.2148 -0.6391
  331MOL0     H45626   9.030   4.602   3.557  1.8198  0.0217  0.4366
  331MOL0     H45627   9.272   4.583   3.639  0.8141 -0.5813 -0.1569
  331MOL0     H45628   9.587   4.416   3.569  1.4747  0.9572  0.0234
  331MOL0     H45629   9.497   4.505   3.681  0.8511  1.2163 -0.3635
  331MOL0     H45630   9.542   4.717   3.577 -4.0215 -2.5082 -2.1132
  331MOL0     H45631   9.700   4.647   3.588 -0.1185 -0.7489  0.2166
  331MOL0     H45632   9.547   4.634   3.328 -0.7817  0.7471  1.4566
  331MOL0     H45633   9.678   4.745   3.368 -1.3009  0.3969 -1.1549
  331MOL0     H45634   9.691   4.445   3.342 -1.7290  0.5558 -0.7790
  331MOL0     H45635   9.769   4.564   3.236  2.8994 -4.5062 -0.0965
  331MOL0     H45636   9.899   4.726   3.236  0.3279 -1.6368 -0.3825
  331MOL0     H45637   9.998   4.933   3.134 -1.8347 -2.6634  1.0072
  331MOL0     H45638  10.171   4.943   3.172 -0.0056  0.5691 -0.6028
  331MOL0     H45639  10.060   5.031   3.275 -3.2606 -0.8228 -0.7074
  331MOL0     H45640  10.420   5.149   3.557 -0.4097 -5.0009 -0.4363
  331MOL0     H45641  10.626   5.305   3.514 -1.0525  2.2023 -0.2159
  331MOL0     H45642  10.822   5.216   3.147 -1.6196 -0.4080 -0.3979
  331MOL0     H45643  10.821   5.386   3.089 -2.4625  3.2627  2.5312
  331MOL0     H45644  10.963   5.395   3.340 -1.0058  2.9841 -1.7916
  331MOL0     H45645  11.011   5.240   3.251  0.3416  0.9553  1.2655
  331MOL0     H45646  11.016   5.526   3.140 -0.5073  0.2466  1.1052
  331MOL0     H45647  11.061   5.372   3.055 -1.7311  1.6844 -1.2874
  331MOL0     H45648  11.238   5.333   3.221  1.4989 -0.2729  2.5116
  331MOL0     H45649  11.201   5.480   3.299 -0.6921 -3.0081  1.0266
  331MOL0     H45650  11.246   5.515   3.000  0.0489  3.4660 -0.0233
  331MOL0     H45651  11.290   5.611   3.134 -1.1962 -0.5833  3.5457
  331MOL0     H45652  11.430   5.354   3.054  2.8565 -1.0519  0.9638
  331MOL0     H45653  11.457   5.450   3.209 -1.5959 -2.6551  0.7045
  331MOL0     H45654  11.636   5.509   3.058  0.1832 -0.2485 -2.1623
  331MOL0     H45655  11.540   5.647   3.043  0.0335 -0.0324 -0.1647
  331MOL0     H45656  11.591   5.599   2.834 -0.8967  1.3952  0.8210
  331MOL0     H45657  11.419   5.549   2.851 -0.1375  2.4890  3.2498
  331MOL0     H45658  10.587   5.237   3.095  2.0160 -0.0102  0.5079
  331MOL0     H45659  10.370   5.104   3.142  0.5313  0.6381 -0.2106
  331MOL0     H45660  10.228   4.721   3.610 -1.8679 -0.6692  1.8388
  331MOL0     H45661  10.037   4.558   3.609  2.9294 -0.8613 -0.5916
  331MOL0     H45662   8.164   5.020   3.149 -1.1257  1.8487  0.8488
  331MOL0     H45663   7.931   5.056   3.214  0.4981  0.3155  0.3817
  331MOL0     H45664   7.649   4.982   3.597  0.5719 -1.2401 -1.0903
  331MOL0     H45665   7.433   4.995   3.725 -0.8277 -0.5246  0.3020
  331MOL0     H45666   7.244   5.003   3.824  0.7686  0.6002 -0.6466
  331MOL0     H45667   7.072   4.986   3.778 -1.1062 -3.2977 -1.8002
  331MOL0     H45668   7.143   4.813   3.912  2.5068  3.0722  0.4165
  331MOL0     H45669   7.273   4.773   3.808 -0.7929  0.0928  0.6185
  331MOL0     H45670   7.052   4.749   3.624 -0.5186  0.2597  0.9625
  331MOL0     H45671   7.129   4.617   3.708 -2.0157 -2.0553  0.9608
  331MOL0     H45672   6.976   4.596   3.875  3.1843  0.7276 -0.7823
  331MOL0     H45673   6.885   4.605   3.722 -2.0252  2.2633 -1.8680
  331MOL0     H45674   6.749   4.951   3.936 -2.1548  0.7454 -2.3922
  331MOL0     H45675   7.223   4.902   3.363  1.0491 -4.2698 -0.6852
  331MOL0     H45676   7.493   4.798   3.167  0.5053  1.0819  1.6919
  331MOL0     H45677   7.324   4.858   3.163 -0.1088  1.4771 -1.8017
  331MOL0     H45678   7.462   4.969   3.138  0.1446 -0.2253 -0.3730
  332MOL0     O45679   6.494   6.796   5.495 -0.8666 -0.5661  0.0917
  332MOL0     C45680   6.412   6.886   5.519  0.0663  0.0728 -0.3667
  332MOL0     O45681   6.450   7.018   5.525 -0.1097  0.4161 -0.9126
  332MOL0     C45682   6.585   7.048   5.493  0.2841 -0.2798  0.9455
  332MOL0     C45683   6.631   7.051   5.355  0.4088  0.2262 -0.2663
  332MOL0     C45684   6.767   7.078   5.330  0.8391 -0.0271 -0.0481
  332MOL0     C45685   6.846   7.111   5.437 -0.1158 -0.4858  0.0189
  332MOL0     O45686   6.982   7.107   5.413 -0.3816 -0.1645  0.5764
  332MOL0     C45687   7.048   7.227   5.452 -0.6731 -0.0326 -0.0772
  332MOL0     C45688   7.033   7.315   5.321  0.3577 -0.0840  0.2614
  332MOL0     C45689   7.097   7.460   5.330 -0.9624  1.2349  0.6871
  332MOL0     C45690   7.055   7.546   5.456 -0.6206  0.6434  0.3150
  332MOL0     C45691   7.154   7.668   5.454  0.2207  0.0080  0.3999
  332MOL0     C45692   7.148   7.765   5.579  0.3102  1.1332 -0.1494
  332MOL0     C45693   7.241   7.883   5.556  0.0481 -0.3586 -0.2263
  332MOL0     C45694   7.392   7.841   5.563  0.1747  0.8367 -0.4145
  332MOL0     N45695   7.471   7.960   5.567 -0.0787 -0.2450 -0.2478
  332MOL0     C45696   7.524   8.035   5.461  0.3755 -0.3601  0.1181
  332MOL0     C45697   7.582   8.144   5.511 -0.0081 -1.0360 -0.8275
  332MOL0     C45698   7.629   8.269   5.438  0.9959 -1.1142  0.6531
  332MOL0     C45699   7.706   8.221   5.307  0.6353 -0.4207  0.1714
  332MOL0     C45700   7.790   8.333   5.247 -1.2110 -0.3443  0.1721
  332MOL0     C45701   7.908   8.359   5.338  0.3171 -0.0487  0.4985
  332MOL0     O45702   8.021   8.403   5.258  0.2779 -0.2919  0.4401
  332MOL0     C45703   8.134   8.448   5.327 -0.5177 -0.1450  0.7941
  332MOL0     C45704   8.140   8.487   5.463  0.3799 -0.3343 -0.8569
  332MOL0     C45705   8.248   8.553   5.527  0.0978 -0.7687 -0.6841
  332MOL0     C45706   8.246   8.584   5.673 -0.2840  0.1299  0.4488
  332MOL0     C45707   8.362   8.571   5.441  0.7958 -0.8968 -0.9453
  332MOL0     C45708   8.487   8.642   5.487  0.3121 -0.1845  1.6056
  332MOL0     O45709   8.588   8.638   5.394 -0.1440  0.4514  0.5666
  332MOL0     C45710   8.718   8.645   5.439  0.3078 -0.5665  0.6428
  332MOL0     C45711   8.759   8.588   5.555  0.0274 -0.0295 -0.7504
  332MOL0     C45712   8.894   8.602   5.591  0.4983 -0.0352  0.2440
  332MOL0     C45713   8.995   8.661   5.508 -0.4238  0.6047 -0.3877
  332MOL0     O45714   9.121   8.661   5.562  0.8617  0.2370  0.0687
  332MOL0     C45715   9.234   8.656   5.469  0.8287  0.4726 -0.0090
  332MOL0     C45716   9.369   8.631   5.537 -0.2808  0.1546  0.6443
  332MOL0     C45717   9.484   8.598   5.437  0.0067  0.2539 -0.1994
  332MOL0     C45718   9.606   8.695   5.441  0.6261 -0.3610  0.3986
  332MOL0     C45719   9.721   8.628   5.378  0.1732  0.6820 -0.6480
  332MOL0     C45720   9.845   8.710   5.385 -0.8453 -0.2096 -0.0784
  332MOL0     C45721   9.963   8.638   5.321  0.8773 -0.7208 -0.4173
  332MOL0     C45722   9.947   8.642   5.166 -0.2677  0.2393 -0.0722
  332MOL0    Cl45723   9.963   8.814   5.108 -0.2787  0.0979 -0.6737
  332MOL0     C45724   8.955   8.712   5.381 -0.3595  0.6489  0.2767
  332MOL0     C45725   8.815   8.702   5.357  0.2927  0.4118  0.2072
  332MOL0     O45726   8.484   8.709   5.583 -0.0049 -0.5208 -0.6572
  332MOL0     C45727   8.368   8.511   5.310  0.1739 -0.3413 -0.2235
  332MOL0     C45728   8.251   8.454   5.255  0.8956  0.1932  0.2718
  332MOL0     N45729   7.566   8.146   5.643 -0.4491  0.4245  0.1060
  332MOL0     N45730   7.508   8.034   5.677 -0.0854  0.0708  0.2469
  332MOL0     C45731   6.810   7.108   5.568 -0.6120  0.6484 -0.4717
  332MOL0     C45732   6.672   7.080   5.598  0.0098  0.0618  0.2104
  332MOL0     C45733   6.270   6.850   5.549  0.1172 -0.7926 -0.3655
  332MOL0     C45734   6.182   6.954   5.574  1.1292 -0.4531  1.1216
  332MOL0     C45735   6.047   6.937   5.589  0.5069  0.0927  0.3161
  332MOL0     C45736   5.993   6.813   5.580  1.3329 -0.5401  0.0982
  332MOL0     O45737   5.858   6.799   5.590 -0.1613 -0.2867 -0.3393
  332MOL0     C45738   5.809   6.671   5.637 -0.0793  1.0157  0.5765
  332MOL0     C45739   5.689   6.681   5.729 -0.6098 -0.0104 -0.1221
  332MOL0     C45740   5.559   6.741   5.662 -0.6622 -0.7880 -0.4551
  332MOL0     C45741   5.571   6.896   5.676  0.0920 -0.2057 -0.4188
  332MOL0     C45742   5.455   6.956   5.603 -0.2743 -0.1314  0.4110
  332MOL0     C45743   5.361   7.004   5.549 -0.4608  0.1357  0.7231
  332MOL0     C45744   6.076   6.706   5.563 -0.6916 -0.1937  0.4000
  332MOL0     C45745   6.211   6.725   5.539 -0.4988 -0.6133 -0.1092
  332MOL0     C45746   6.290   6.598   5.508  0.0603 -0.4976  0.6355
  332MOL0     H45747   6.560   7.018   5.280  0.4996  0.6167 -0.5237
  332MOL0     H45748   6.807   7.072   5.229  1.3050 -0.0238  0.1335
  332MOL0     H45749   7.154   7.199   5.464 -0.4897 -0.9825 -3.0191
  332MOL0     H45750   7.018   7.267   5.549  2.9027  0.3788  1.0285
  332MOL0     H45751   7.069   7.258   5.235 -2.3089 -3.7324  1.3560
  332MOL0     H45752   6.926   7.324   5.302  0.6696  0.0484 -1.6451
  332MOL0     H45753   7.204   7.439   5.339 -1.0572  0.2253 -0.2635
  332MOL0     H45754   7.084   7.516   5.237 -0.5173 -1.8022 -1.3464
  332MOL0     H45755   6.949   7.572   5.451 -0.8288  0.4149  2.4553
  332MOL0     H45756   7.069   7.486   5.547  2.1083  1.5539  0.5851
  332MOL0     H45757   7.126   7.715   5.359 -0.8116 -1.0033  0.1859
  332MOL0     H45758   7.259   7.636   5.452  0.2792 -0.0483  2.3803
  332MOL0     H45759   7.044   7.798   5.593  0.1597  0.1636  1.3416
  332MOL0     H45760   7.188   7.717   5.669 -2.0144  0.3916  0.5667
  332MOL0     H45761   7.225   7.954   5.638 -1.2665  1.1478 -1.7236
  332MOL0     H45762   7.213   7.931   5.462 -2.9356 -0.4630  0.4892
  332MOL0     H45763   7.406   7.779   5.652 -0.8045 -1.4343 -1.7632
  332MOL0     H45764   7.409   7.784   5.471  1.3114  0.4664  0.0154
  332MOL0     H45765   7.504   8.009   5.358  2.8157 -0.2974 -0.4389
  332MOL0     H45766   7.699   8.323   5.503  0.3468  1.2231 -0.4849
  332MOL0     H45767   7.552   8.341   5.408  0.8171 -1.9558 -0.9825
  332MOL0     H45768   7.772   8.137   5.330 -1.0098 -2.1876 -1.3178
  332MOL0     H45769   7.631   8.185   5.236  0.2269  2.0181 -0.7245
  332MOL0     H45770   7.828   8.312   5.147 -0.2356  0.3251  0.3891
  332MOL0     H45771   7.729   8.421   5.227 -1.1279 -1.1754 -4.8840
  332MOL0     H45772   7.874   8.442   5.402 -0.3261 -0.0133  0.1136
  332MOL0     H45773   7.940   8.274   5.398  2.3369  1.6161  1.9566
  332MOL0     H45774   8.056   8.485   5.533  1.6968  0.3064  0.8020
  332MOL0     H45775   8.257   8.691   5.690  1.6948 -0.2463  2.0065
  332MOL0     H45776   8.329   8.534   5.725 -1.8736 -2.3638  0.7695
  332MOL0     H45777   8.152   8.559   5.722  0.2784 -0.3667  1.3151
  332MOL0     H45778   8.689   8.539   5.621  1.2346  1.2679  1.6206
  332MOL0     H45779   8.928   8.565   5.687 -1.2153  0.6068  1.1460
  332MOL0     H45780   9.207   8.572   5.405  1.1201  0.0386  0.4372
  332MOL0     H45781   9.242   8.746   5.407 -1.0258 -0.7740 -2.2033
  332MOL0     H45782   9.397   8.722   5.592 -0.3682  1.3836 -1.2299
  332MOL0     H45783   9.360   8.549   5.608 -1.8927  1.0975  1.5781
  332MOL0     H45784   9.448   8.602   5.333 -1.9458  0.5188  0.4546
  332MOL0     H45785   9.508   8.491   5.442  0.9122  0.4852  0.8720
  332MOL0     H45786   9.633   8.707   5.546 -5.1738  0.6618  2.1353
  332MOL0     H45787   9.584   8.792   5.395 -2.1121 -1.6032 -1.1446
  332MOL0     H45788   9.737   8.530   5.425 -0.1645  0.9966  0.1474
  332MOL0     H45789   9.687   8.618   5.275  0.9767  1.3301 -0.9788
  332MOL0     H45790   9.866   8.736   5.489  1.6752 -0.0636 -0.5711
  332MOL0     H45791   9.821   8.809   5.345  0.2540  0.0116 -0.2168
  332MOL0     H45792   9.960   8.536   5.361 -0.0057 -0.4166  0.3434
  332MOL0     H45793  10.062   8.680   5.336  0.4833  0.3188 -0.6476
  332MOL0     H45794   9.851   8.593   5.146  0.1708  0.2759 -2.5400
  332MOL0     H45795  10.026   8.577   5.129  1.3635  0.1816  3.1184
  332MOL0     H45796   9.033   8.761   5.324  0.0058 -1.0517 -0.7465
  332MOL0     H45797   8.783   8.763   5.273  3.2550  3.2514  0.9472
  332MOL0     H45798   8.461   8.510   5.253  0.1953 -0.5879 -0.1853
  332MOL0     H45799   8.239   8.407   5.158 -2.3563 -3.0956  2.0218
  332MOL0     H45800   6.882   7.118   5.649  0.6103 -0.7884 -1.3301
  332MOL0     H45801   6.628   7.088   5.697  1.4845  0.7963  0.8441
  332MOL0     H45802   6.210   7.059   5.574  0.7377 -0.3496  1.8130
  332MOL0     H45803   5.979   7.021   5.587 -2.1798 -1.9583  0.7355
  332MOL0     H45804   5.780   6.618   5.545 -0.1662 -0.2411  1.3091
  332MOL0     H45805   5.885   6.613   5.688 -0.6829 -0.4694 -0.1580
  332MOL0     H45806   5.721   6.738   5.817  1.1971 -1.2675  0.0783
  332MOL0     H45807   5.682   6.578   5.763  1.6945 -0.3462 -0.5258
  332MOL0     H45808   5.544   6.706   5.560 -3.0136  0.4864 -0.6193
  332MOL0     H45809   5.473   6.710   5.723  0.0463 -1.5170  0.2116
  332MOL0     H45810   5.668   6.928   5.637  0.6076 -1.9048 -0.6123
  332MOL0     H45811   5.569   6.926   5.781  1.0005 -1.4656 -0.0228
  332MOL0     H45812   5.279   7.056   5.503  0.1475  2.1508  1.8097
  332MOL0     H45813   6.030   6.611   5.536  0.2168  0.4257 -4.2099
  332MOL0     H45814   6.357   6.586   5.594  1.3747 -1.4408 -0.4967
  332MOL0     H45815   6.215   6.518   5.510 -1.0866  0.5471  1.6079
  332MOL0     H45816   6.340   6.596   5.411 -0.9632  0.8407  0.0448
  333MOL0     O45817   7.652   9.765   6.363  0.3824  0.6118  0.2450
  333MOL0     C45818   7.575   9.823   6.285 -0.7945  1.0874  0.2008
  333MOL0     O45819   7.598   9.935   6.207 -0.0996  1.1438  0.0391
  333MOL0     C45820   7.715  10.005   6.240  0.4883  0.9683 -0.5886
  333MOL0     C45821   7.794  10.034   6.133  0.9908  0.5943  0.2013
  333MOL0     C45822   7.917  10.095   6.140 -0.1282 -0.5340  0.7195
  333MOL0     C45823   7.971  10.128   6.262 -0.5515 -0.4126 -1.1067
  333MOL0     O45824   8.089  10.199   6.292  0.0776  0.3455 -0.2013
  333MOL0     C45825   8.182  10.161   6.191 -0.5493 -0.6980 -0.2356
  333MOL0     C45826   8.324  10.198   6.231 -0.5920  0.3210 -0.6693
  333MOL0     C45827   8.391  10.103   6.329  0.1376 -0.1847 -0.3277
  333MOL0     C45828   8.523  10.144   6.372 -0.2437 -0.2123  0.1079
  333MOL0     C45829   8.587  10.051   6.475 -0.0558  0.8193  0.2076
  333MOL0     C45830   8.722  10.112   6.524  0.5068  0.4533  0.4770
  333MOL0     C45831   8.787  10.044   6.644 -0.1593  0.1753  0.0396
  333MOL0     C45832   8.927  10.095   6.669  0.3848  0.3452  0.3642
  333MOL0     N45833   8.996  10.004   6.755 -0.0668  0.3334  0.6784
  333MOL0     C45834   9.060  10.043   6.873  0.4629 -0.3702 -0.1299
  333MOL0     C45835   9.096   9.926   6.930 -0.2140  0.4358 -0.0383
  333MOL0     C45836   9.159   9.927   7.069 -1.0324  0.0539  0.4672
  333MOL0     C45837   9.305   9.979   7.061  0.7308  0.6049  0.0514
  333MOL0     C45838   9.384   9.908   6.956 -0.4897  0.2460  0.6392
  333MOL0     C45839   9.526   9.952   6.962  0.2995 -0.2872  0.2855
  333MOL0     O45840   9.598   9.951   7.087  0.2461  0.7077 -0.3054
  333MOL0     C45841   9.733   9.958   7.080 -1.0501 -0.0834  0.2942
  333MOL0     C45842   9.809   9.906   7.191 -0.7408 -0.9502  0.5276
  333MOL0     C45843   9.944   9.879   7.200  0.2539  0.4437 -0.6748
  333MOL0     C45844  10.003   9.843   7.336  0.4668  0.8458 -0.3443
  333MOL0     C45845  10.018   9.905   7.081  0.3095 -0.2651 -0.4591
  333MOL0     C45846  10.166   9.883   7.075  0.1448  0.0451  0.8570
  333MOL0     O45847  10.223   9.957   6.975  0.0398  0.3094 -0.3169
  333MOL0     C45848  10.361   9.958   6.959  0.2335  0.5657  0.9794
  333MOL0     C45849  10.416   9.999   6.835  0.5463  0.5650  0.2349
  333MOL0     C45850  10.552   9.993   6.805 -0.6859 -0.0148 -0.4728
  333MOL0     C45851  10.646   9.941   6.903 -0.2351 -0.1079  0.5913
  333MOL0     O45852  10.777   9.933   6.889 -0.2946  0.2335 -0.3317
  333MOL0     C45853  10.825  10.039   6.801  0.1873 -0.1772 -0.1936
  333MOL0     C45854  10.974  10.058   6.821  0.6185  0.6229  0.4391
  333MOL0     C45855  11.003  10.076   6.972 -0.1355 -0.4704 -0.5594
  333MOL0     C45856  11.138  10.150   6.975 -0.0909 -0.1385 -0.2286
  333MOL0     C45857  11.252  10.053   6.945  0.3022 -0.3134 -0.3643
  333MOL0     C45858  11.381  10.120   6.946  0.5220  0.5338  0.2214
  333MOL0     C45859  11.414  10.183   7.081 -0.4121  0.6087 -0.0990
  333MOL0     C45860  11.563  10.230   7.072 -0.1891 -0.2059 -0.3401
  333MOL0    Cl45861  11.674  10.084   7.077 -0.3724 -0.6704 -0.1144
  333MOL0     C45862  10.593   9.908   7.029 -0.4372  0.5119  0.0979
  333MOL0     C45863  10.457   9.913   7.051 -0.1449  0.7779 -0.1417
  333MOL0     O45864  10.216   9.789   7.132 -0.2738 -0.1797  0.7122
  333MOL0     C45865   9.946   9.958   6.970 -0.7223  0.4603  0.9422
  333MOL0     C45866   9.811   9.997   6.969 -0.7662 -0.5295  0.3234
  333MOL0     N45867   9.059   9.822   6.847  0.4050  0.2586 -0.5428
  333MOL0     N45868   9.006   9.867   6.740 -0.3678  1.3937 -0.5065
  333MOL0     C45869   7.897  10.104   6.376  0.3713  0.0113 -0.0106
  333MOL0     C45870   7.771  10.041   6.369 -0.9485  0.3146  0.0092
  333MOL0     C45871   7.448   9.762   6.253 -0.3099  0.9844  0.7990
  333MOL0     C45872   7.338   9.835   6.200  0.2880  0.0510  0.2197
  333MOL0     C45873   7.214   9.770   6.158 -0.4455  0.1848 -0.9849
  333MOL0     C45874   7.195   9.636   6.194  0.0295 -0.6207  0.3104
  333MOL0     O45875   7.078   9.577   6.171 -0.5480  0.6992 -0.7266
  333MOL0     C45876   6.957   9.642   6.139 -0.2838  0.5375 -0.2538
  333MOL0     C45877   6.904   9.730   6.258 -0.3164  0.0686  0.3571
  333MOL0     C45878   6.838   9.662   6.382 -0.2032 -0.2600  0.0539
  333MOL0     C45879   6.742   9.743   6.462 -0.4929  0.2098 -0.2307
  333MOL0     C45880   6.616   9.767   6.401  1.0512  0.1232  0.2120
  333MOL0     C45881   6.515   9.774   6.338  0.7109  0.1039 -0.1999
  333MOL0     C45882   7.299   9.574   6.255 -1.2496 -0.5433 -0.1362
  333MOL0     C45883   7.427   9.624   6.277  0.1238 -0.4148 -0.7029
  333MOL0     C45884   7.522   9.534   6.359 -0.1602  0.0023  0.7855
  333MOL0     H45885   7.758  10.006   6.035  1.7603 -1.9586  0.5743
  333MOL0     H45886   7.965  10.114   6.044  1.8991 -3.7464  0.9569
  333MOL0     H45887   8.154  10.201   6.094 -2.1150 -4.5262 -1.5426
  333MOL0     H45888   8.180  10.052   6.179 -0.4776 -0.8058  0.6205
  333MOL0     H45889   8.384  10.202   6.140  0.6432 -1.4330 -0.0108
  333MOL0     H45890   8.316  10.296   6.279 -0.0588  0.1875 -0.2895
  333MOL0     H45891   8.322  10.108   6.414  2.9340  4.9575  2.1056
  333MOL0     H45892   8.391  10.000   6.290  1.0901 -0.4811  0.4325
  333MOL0     H45893   8.586  10.144   6.282 -1.1659 -0.3276 -0.5542
  333MOL0     H45894   8.515  10.247   6.409 -0.2302  0.0940 -0.7235
  333MOL0     H45895   8.605   9.950   6.437  1.8089  0.2567  2.3928
  333MOL0     H45896   8.523  10.030   6.561  0.8377 -0.1768  0.6576
  333MOL0     H45897   8.791  10.102   6.440 -0.8715 -2.1898 -0.4694
  333MOL0     H45898   8.718  10.219   6.545  1.9576  0.9652 -1.6281
  333MOL0     H45899   8.778   9.941   6.608  2.2206  0.7969 -2.6563
  333MOL0     H45900   8.735  10.057   6.739 -1.5940 -1.9447 -0.3809
  333MOL0     H45901   8.983  10.092   6.575  1.9543  2.8609  1.1279
  333MOL0     H45902   8.919  10.192   6.718  0.2487 -1.0962  3.4406
  333MOL0     H45903   9.073  10.139   6.922  0.5346 -0.3069 -0.2727
  333MOL0     H45904   9.160   9.825   7.109  0.2099  0.5092  1.7046
  333MOL0     H45905   9.105   9.988   7.141  3.2005  1.4052  2.8574
  333MOL0     H45906   9.300  10.088   7.050  0.6749  0.4047 -2.2231
  333MOL0     H45907   9.361   9.962   7.154  0.4308  0.3497  0.1878
  333MOL0     H45908   9.370   9.801   6.972  0.4815  0.1820  1.1305
  333MOL0     H45909   9.355   9.916   6.851  2.8594 -3.9396 -0.9050
  333MOL0     H45910   9.582   9.906   6.880 -1.9676 -0.3864 -1.2746
  333MOL0     H45911   9.532  10.057   6.931 -0.2857  0.3273  2.0968
  333MOL0     H45912   9.759   9.887   7.286  0.8218 -1.1240  1.3546
  333MOL0     H45913   9.924   9.831   7.410  0.1519  0.3320 -0.7569
  333MOL0     H45914  10.069   9.923   7.370 -1.0591  2.5884 -1.2546
  333MOL0     H45915  10.061   9.750   7.329  1.1816  1.2957 -0.4829
  333MOL0     H45916  10.341  10.026   6.762  1.1121  0.5553 -0.3544
  333MOL0     H45917  10.578  10.015   6.703 -1.1351  3.6626  0.0772
  333MOL0     H45918  10.813  10.014   6.695  0.7376  2.0131 -0.8238
  333MOL0     H45919  10.784  10.137   6.825  1.0247 -0.2049  1.5113
  333MOL0     H45920  11.034   9.972   6.789  0.0522  0.3488  0.1035
  333MOL0     H45921  10.992  10.153   6.770 -0.0188  0.3081 -0.3889
  333MOL0     H45922  11.027   9.976   7.007 -1.2378 -0.1089  1.3674
  333MOL0     H45923  10.921  10.124   7.026  0.6095 -1.1674  1.2843
  333MOL0     H45924  11.145  10.195   7.075  2.2881 -3.2134  1.1257
  333MOL0     H45925  11.137  10.230   6.900 -0.2206 -1.2543 -1.4487
  333MOL0     H45926  11.242   9.970   7.016 -2.3883  1.2303  1.2432
  333MOL0     H45927  11.245  10.011   6.844 -1.5168 -1.9814  0.3780
  333MOL0     H45928  11.389  10.189   6.861 -0.9543 -0.4648 -0.7812
  333MOL0     H45929  11.455  10.040   6.932 -0.2699 -0.2441  0.4213
  333MOL0     H45930  11.388  10.108   7.156 -3.5369  1.2186 -0.4545
  333MOL0     H45931  11.363  10.275   7.110  0.5234  0.3276  2.8387
  333MOL0     H45932  11.591  10.286   7.162 -2.1771  0.5850 -0.1477
  333MOL0     H45933  11.561  10.295   6.984 -3.4311  0.4746  0.0943
  333MOL0     H45934  10.655   9.854   7.099 -0.7804 -1.9658 -1.4068
  333MOL0     H45935  10.437   9.874   7.151 -1.3336  1.4134 -0.1262
  333MOL0     H45936  10.000   9.980   6.878 -0.7583 -2.2946  0.1680
  333MOL0     H45937   9.780  10.044   6.876  1.0294 -0.9847 -0.5595
  333MOL0     H45938   7.926  10.150   6.470  2.4487 -2.5372  0.7276
  333MOL0     H45939   7.725  10.006   6.461  2.0341 -1.4978  0.9469
  333MOL0     H45940   7.346   9.939   6.172  2.1884 -0.9994 -4.1312
  333MOL0     H45941   7.147   9.826   6.093 -1.6825  0.5995  0.5801
  333MOL0     H45942   6.971   9.694   6.044  0.0622  1.1383  0.1154
  333MOL0     H45943   6.879   9.566   6.132 -0.0136  0.2002  0.3509
  333MOL0     H45944   6.827   9.795   6.217 -1.2574 -0.8185  0.6768
  333MOL0     H45945   6.986   9.794   6.293  2.1030 -2.3890 -0.4470
  333MOL0     H45946   6.795   9.564   6.361 -0.6647 -0.2345  0.8567
  333MOL0     H45947   6.920   9.643   6.453  0.0130  0.3505 -0.0265
  333MOL0     H45948   6.789   9.836   6.496 -0.8725  0.3081  0.0293
  333MOL0     H45949   6.719   9.695   6.558 -0.3867  1.6774  0.5614
  333MOL0     H45950   6.439   9.812   6.272  0.3546  1.7362  1.0763
  333MOL0     H45951   7.279   9.469   6.275 -0.4702 -0.1823  3.1111
  333MOL0     H45952   7.487   9.432   6.343 -2.1674  1.1137 -3.3041
  333MOL0     H45953   7.619   9.534   6.308  0.4314 -1.5998  1.8548
  333MOL0     H45954   7.535   9.568   6.462  1.0568  3.9494 -0.4653
  334MOL0     O45955  10.672  10.767   8.303  0.6844  0.7338  0.3073
  334MOL0     C45956  10.598  10.855   8.352 -0.1266 -0.4973  0.2633
  334MOL0     O45957  10.600  10.880   8.481 -0.5125  0.6313 -0.1314
  334MOL0     C45958  10.703  10.840   8.566  0.3634  0.0650 -0.4234
  334MOL0     C45959  10.681  10.871   8.697 -0.2544 -0.1804 -0.1156
  334MOL0     C45960  10.781  10.854   8.797  0.0437  0.2984  0.6703
  334MOL0     C45961  10.912  10.818   8.765 -0.4162  0.0827 -0.1390
  334MOL0     O45962  11.011  10.812   8.864  0.1788  0.1070  0.0788
  334MOL0     C45963  11.131  10.747   8.826 -0.1911 -0.1983  0.1990
  334MOL0     C45964  11.212  10.710   8.938 -0.4604 -0.7458 -0.2467
  334MOL0     C45965  11.249  10.842   9.012  0.0177 -0.1558 -0.2417
  334MOL0     C45966  11.345  10.827   9.123 -0.1105  0.0699  0.1079
  334MOL0     C45967  11.307  10.922   9.241  0.1328  0.4282  0.2624
  334MOL0     C45968  11.404  10.909   9.361  0.4987 -0.0991 -0.3107
  334MOL0     C45969  11.476  11.038   9.395  0.5740  0.3018  0.6093
  334MOL0     C45970  11.548  11.031   9.528  0.4382 -0.1596 -0.0973
  334MOL0     N45971  11.579  11.163   9.583  0.0555 -0.2565 -0.1674
  334MOL0     C45972  11.486  11.238   9.649 -0.6182  0.5213  0.3256
  334MOL0     C45973  11.548  11.354   9.659 -0.8910 -0.1390 -0.1789
  334MOL0     C45974  11.501  11.481   9.732 -0.3773  0.3790 -0.4717
  334MOL0     C45975  11.371  11.533   9.663  0.1313  0.1356  0.5450
  334MOL0     C45976  11.306  11.658   9.723 -0.1148  0.1322 -0.5721
  334MOL0     C45977  11.249  11.643   9.864 -0.1912  0.0625 -0.1889
  334MOL0     O45978  11.119  11.579   9.871 -0.7321 -0.5031  0.4016
  334MOL0     C45979  11.003  11.660   9.834 -0.2305  0.2931  0.9227
  334MOL0     C45980  11.001  11.786   9.781 -0.3384  0.7882  0.3164
  334MOL0     C45981  10.880  11.854   9.746 -0.7486  0.8453 -0.1171
  334MOL0     C45982  10.892  11.992   9.693 -0.7708 -0.4902  0.3484
  334MOL0     C45983  10.761  11.784   9.775 -0.3495  0.5104  0.4181
  334MOL0     C45984  10.631  11.848   9.757 -0.0052 -0.0228 -0.3055
  334MOL0     O45985  10.524  11.768   9.781  0.3022  0.0519 -0.1245
  334MOL0     C45986  10.401  11.823   9.788  0.1250  0.2710  0.0186
  334MOL0     C45987  10.361  11.909   9.896  0.4759  0.8396 -0.3998
  334MOL0     C45988  10.242  11.968   9.893  0.0920  0.9442  0.3673
  334MOL0     C45989  10.159  11.963   9.779 -0.0193 -0.6739  0.1902
  334MOL0     O45990  10.036  12.026   9.765  0.3318  0.1025 -0.6428
  334MOL0     C45991   9.980  12.094   9.875  0.7024 -0.7159  0.2256
  334MOL0     C45992   9.899  11.998   9.961  0.6331 -1.1919 -0.3645
  334MOL0     C45993   9.782  11.926   9.892  0.8322  0.1006  0.4858
  334MOL0     C45994   9.646  11.982   9.941 -0.6217  0.7942  0.2524
  334MOL0     C45995   9.538  11.926   9.849 -0.5510  0.4096 -0.7852
  334MOL0     C45996   9.400  11.983   9.878  0.5493  0.2328  0.2956
  334MOL0     C45997   9.296  11.945   9.765  0.1240  0.4174 -0.6963
  334MOL0     C45998   9.149  11.960   9.803 -0.2822 -0.0777  0.0765
  334MOL0    Cl45999   9.051  11.861   9.696  0.4552  0.0062  0.6791
  334MOL0     C46000  10.198  11.886   9.672 -1.0194 -0.3191  0.4000
  334MOL0     C46001  10.313  11.808   9.675 -0.6318 -0.7699 -0.2483
  334MOL0     O46002  10.617  11.966   9.721 -0.1533 -0.3791 -0.4620
  334MOL0     C46003  10.763  11.660   9.829  0.1039  0.2162  0.0868
  334MOL0     C46004  10.881  11.597   9.863  0.2148  0.4350  0.7717
  334MOL0     N46005  11.669  11.354   9.592  0.3122  0.5818  0.0438
  334MOL0     N46006  11.691  11.231   9.549 -0.2640  0.1760  0.7204
  334MOL0     C46007  10.938  10.790   8.626 -0.2803 -0.1795  0.0694
  334MOL0     C46008  10.833  10.805   8.535 -0.6281  0.7014  0.2087
  334MOL0     C46009  10.501  10.941   8.276  0.6184 -0.6128  0.5012
  334MOL0     C46010  10.400  11.014   8.345 -0.0420 -0.1406 -0.0772
  334MOL0     C46011  10.318  11.106   8.274  0.1976  0.3631 -0.2107
  334MOL0     C46012  10.316  11.113   8.139 -0.1924  0.5003  0.5284
  334MOL0     O46013  10.235  11.191   8.056  0.1653 -0.4850  0.8526
  334MOL0     C46014  10.134  11.278   8.112  0.0304 -0.4335 -0.7191
  334MOL0     C46015  10.002  11.205   8.142 -0.5978  0.0777  0.1575
  334MOL0     C46016   9.899  11.293   8.224  0.0994  0.1261 -0.0016
  334MOL0     C46017   9.942  11.316   8.372  0.1094  0.2407 -0.8270
  334MOL0     C46018   9.940  11.185   8.444 -0.5220  0.1771 -0.8171
  334MOL0     C46019   9.928  11.080   8.511  0.0019 -0.2269 -0.0690
  334MOL0     C46020  10.417  11.040   8.067  0.8589  0.0002 -0.1835
  334MOL0     C46021  10.505  10.952   8.134  0.6034 -0.5725  0.0464
  334MOL0     C46022  10.611  10.896   8.044  0.1162  0.5945  0.6854
  334MOL0     H46023  10.581  10.897   8.731  0.2058  1.3332  0.1366
  334MOL0     H46024  10.769  10.882   8.902  1.1309 -1.2591  1.2559
  334MOL0     H46025  11.184  10.813   8.756  0.8956  0.2498  1.3910
  334MOL0     H46026  11.108  10.650   8.782 -1.0155  0.3368 -0.5878
  334MOL0     H46027  11.151  10.650   9.006 -0.6043 -0.8629 -0.4729
  334MOL0     H46028  11.305  10.655   8.916 -0.8909 -0.9919 -1.5555
  334MOL0     H46029  11.296  10.911   8.941  2.2709 -0.6162  0.7246
  334MOL0     H46030  11.163  10.901   9.044 -0.3440 -1.3608  1.1274
  334MOL0     H46031  11.345  10.728   9.169  3.0299 -0.2951 -0.4446
  334MOL0     H46032  11.442  10.856   9.081  0.0136  2.1550  1.7311
  334MOL0     H46033  11.204  10.910   9.275 -0.4720 -4.1256 -2.2741
  334MOL0     H46034  11.318  11.024   9.205 -1.2236 -0.0194 -1.6152
  334MOL0     H46035  11.354  10.865   9.448 -0.9164 -0.3488 -1.2223
  334MOL0     H46036  11.481  10.833   9.349 -0.2896 -1.0226  0.3676
  334MOL0     H46037  11.395  11.111   9.400 -1.5467 -1.8951 -0.2349
  334MOL0     H46038  11.552  11.065   9.320  0.5627 -0.8464  0.1756
  334MOL0     H46039  11.483  10.971   9.591 -0.2380 -1.4341 -1.9267
  334MOL0     H46040  11.638  10.969   9.519  0.6640 -0.0849  1.4757
  334MOL0     H46041  11.387  11.208   9.680 -0.9407 -1.0273 -1.9258
  334MOL0     H46042  11.565  11.569   9.719 -0.7709  0.2558 -4.9933
  334MOL0     H46043  11.471  11.458   9.834  0.4854  2.1058  0.2202
  334MOL0     H46044  11.395  11.548   9.557 -1.3926 -3.2303 -0.4101
  334MOL0     H46045  11.296  11.454   9.660  0.5767 -0.2741 -0.1014
  334MOL0     H46046  11.389  11.730   9.726 -0.1114  0.3075  4.5775
  334MOL0     H46047  11.226  11.690   9.655 -0.2622 -1.3422 -1.1147
  334MOL0     H46048  11.318  11.584   9.925 -0.6997  0.2713  0.6045
  334MOL0     H46049  11.239  11.746   9.899 -0.6634  0.9413 -2.7286
  334MOL0     H46050  11.097  11.834   9.760  1.2345 -2.8167 -1.5484
  334MOL0     H46051  10.840  11.989   9.597 -0.9863  0.4551  0.4249
  334MOL0     H46052  10.989  12.034   9.664 -1.5950 -0.4617 -2.7739
  334MOL0     H46053  10.852  12.061   9.769 -1.2919  0.4011 -0.7040
  334MOL0     H46054  10.423  11.931   9.982 -1.7446  0.0428  1.5153
  334MOL0     H46055  10.199  12.018   9.980 -1.4085  1.3526 -0.5636
  334MOL0     H46056  10.055  12.151   9.931  0.9481  0.1624 -0.9533
  334MOL0     H46057   9.909  12.166   9.834 -0.5497 -1.6868  0.6195
  334MOL0     H46058   9.970  11.930  10.009  2.4816  2.0572  1.9070
  334MOL0     H46059   9.858  12.065  10.037  0.9821 -0.5597 -0.7146
  334MOL0     H46060   9.782  11.818   9.912 -0.4373  0.2197  1.3000
  334MOL0     H46061   9.785  11.934   9.783  0.6011  1.2074  0.5519
  334MOL0     H46062   9.648  12.091   9.926  4.7443  0.8722 -0.4064
  334MOL0     H46063   9.625  11.964  10.046  0.7560  0.5125  0.4998
  334MOL0     H46064   9.554  11.960   9.746 -0.9129  0.4259 -0.8355
  334MOL0     H46065   9.539  11.818   9.868  1.0016  0.4551 -0.4959
  334MOL0     H46066   9.396  12.092   9.884  0.8748  0.4249 -2.0820
  334MOL0     H46067   9.356  11.936   9.966 -4.2700  3.7729  0.1898
  334MOL0     H46068   9.317  11.843   9.734  0.6299  0.9431 -2.1968
  334MOL0     H46069   9.304  12.006   9.675 -2.8896 -0.5409 -1.7642
  334MOL0     H46070   9.108  12.061   9.795 -0.9287 -0.3440 -0.1046
  334MOL0     H46071   9.131  11.923   9.904  0.3622 -2.0122 -0.4742
  334MOL0     H46072  10.141  11.897   9.580 -0.2935 -2.8961 -0.4500
  334MOL0     H46073  10.331  11.772   9.574 -2.4171  1.2756 -1.4050
  334MOL0     H46074  10.677  11.613   9.876  0.7999  1.0648  2.3122
  334MOL0     H46075  10.865  11.507   9.921 -0.6003  1.6326  2.4762
  334MOL0     H46076  11.038  10.777   8.585 -0.6139  0.2241 -0.9150
  334MOL0     H46077  10.858  10.792   8.430 -3.6122  0.9111 -0.6095
  334MOL0     H46078  10.400  11.022   8.453  1.6744 -0.1927 -0.0554
  334MOL0     H46079  10.240  11.164   8.323 -0.5229 -2.2094  1.8610
  334MOL0     H46080  10.175  11.320   8.205  0.1926  0.7370 -1.2980
  334MOL0     H46081  10.125  11.364   8.045  1.7596 -0.1274 -0.6190
  334MOL0     H46082  10.018  11.111   8.196  1.7476  0.3381  0.0138
  334MOL0     H46083   9.958  11.174   8.047  0.3178 -1.0643  0.0958
  334MOL0     H46084   9.902  11.386   8.167  0.6614 -0.4543 -0.9633
  334MOL0     H46085   9.800  11.249   8.213 -1.0899  2.4492  0.8439
  334MOL0     H46086   9.876  11.386   8.424  1.6601 -0.6690  2.7136
  334MOL0     H46087  10.038  11.368   8.382 -0.4755  0.9096  3.0456
  334MOL0     H46088   9.932  10.990   8.570 -1.3544 -1.5983 -1.9471
  334MOL0     H46089  10.415  11.053   7.960 -0.2055 -0.5394 -0.2503
  334MOL0     H46090  10.599  10.952   7.950 -0.9468  0.8620  0.9693
  334MOL0     H46091  10.711  10.908   8.087  1.3447 -2.4940 -0.9157
  334MOL0     H46092  10.595  10.790   8.022 -2.6011  1.4467 -2.1202
  335MOL0     O46093  11.188   4.778   0.298  0.0256 -0.3751 -0.0832
  335MOL0     C46094  11.118   4.777   0.204  0.1318  0.3096  0.6441
  335MOL0     O46095  11.171   4.792   0.072  0.3645  0.6592  0.1504
  335MOL0     C46096  11.312   4.810   0.046  0.2176 -0.3824  0.1658
  335MOL0     C46097  11.368   4.741  -0.061  0.1655  0.7933  0.1859
  335MOL0     C46098  11.503   4.756  -0.085  0.2921 -0.0749 -0.8315
  335MOL0     C46099  11.581   4.843  -0.003 -0.2744  0.1893  0.6126
  335MOL0     O46100  11.716   4.841  -0.033 -0.0870 -0.0116  0.5418
  335MOL0     C46101  11.785   4.957   0.000  0.0302  0.1976 -0.2625
  335MOL0     C46102  11.924   4.952  -0.043 -0.0527 -0.2902 -0.2336
  335MOL0     C46103  12.009   5.079  -0.022  0.5608  0.5463 -0.2065
  335MOL0     C46104  12.157   5.040  -0.012  0.0887 -0.0533  0.0640
  335MOL0     C46105  12.211   4.983  -0.144 -0.4115 -0.0225 -0.3065
  335MOL0     C46106  12.357   4.999  -0.141 -0.5076 -0.6081 -0.1260
  335MOL0     C46107  12.432   4.990  -0.272  0.1272  0.3622  0.5322
  335MOL0     C46108  12.434   4.856  -0.344 -0.5288  0.6923  0.4775
  335MOL0     N46109  12.564   4.808  -0.355  0.2009  0.1162  0.0492
  335MOL0     C46110  12.607   4.711  -0.267 -0.1572  0.3712 -0.4448
  335MOL0     C46111  12.720   4.668  -0.327  0.7446 -0.3576  0.1184
  335MOL0     C46112  12.820   4.574  -0.273 -0.1257  0.2917  0.0518
  335MOL0     C46113  12.944   4.654  -0.235  0.1611  0.4467  1.0710
  335MOL0     C46114  13.037   4.572  -0.148 -0.2210 -0.0700 -0.3042
  335MOL0     C46115  13.164   4.645  -0.123 -1.0251 -0.1560 -0.7328
  335MOL0     O46116  13.214   4.580  -0.004  0.1508  0.8176 -0.5248
  335MOL0     C46117  13.340   4.612   0.043 -0.6431 -0.0141 -0.6638
  335MOL0     C46118  13.378   4.555   0.159 -1.0365 -0.2453 -0.8220
  335MOL0     C46119  13.508   4.577   0.220 -0.0614  0.3565  0.3002
  335MOL0     C46120  13.541   4.505   0.348 -0.0118 -0.4393  0.0532
  335MOL0     C46121  13.588   4.676   0.158 -0.0423 -0.3432  0.0219
  335MOL0     C46122  13.721   4.723   0.204  0.0668 -0.3178 -0.1295
  335MOL0     O46123  13.772   4.843   0.158 -0.0994  0.7167 -0.1051
  335MOL0     C46124  13.903   4.880   0.190 -0.3932  0.3303 -1.1311
  335MOL0     C46125  13.947   4.910   0.319  0.8298 -0.0965  0.0933
  335MOL0     C46126  14.063   4.978   0.344 -0.1114 -0.0604  0.4164
  335MOL0     C46127  14.146   5.008   0.238  0.0237 -0.5369 -0.5756
  335MOL0     O46128  14.262   5.067   0.255 -0.0600 -0.0761 -0.5072
  335MOL0     C46129  14.269   5.172   0.350 -0.7275  0.5608 -0.3051
  335MOL0     C46130  14.406   5.236   0.330  0.4976  0.1199 -0.4845
  335MOL0     C46131  14.509   5.125   0.378  0.1996 -0.0011 -0.1312
  335MOL0     C46132  14.528   5.125   0.532  0.0329 -0.7068  0.0344
  335MOL0     C46133  14.639   5.028   0.582 -0.2808 -0.6748 -0.5725
  335MOL0     C46134  14.781   5.078   0.543  0.3569 -1.0965  0.8776
  335MOL0     C46135  14.806   5.218   0.617  0.2965  0.9129 -0.1883
  335MOL0     C46136  14.965   5.244   0.616 -0.3763  0.4910  0.0479
  335MOL0    Cl46137  15.033   5.145   0.749 -0.3652  0.1997  0.3918
  335MOL0     C46138  14.103   4.970   0.106  0.0644 -0.0258 -0.0358
  335MOL0     C46139  13.983   4.901   0.079  0.1739 -0.2877  1.1889
  335MOL0     O46140  13.783   4.635   0.257  0.1640  0.2993  0.1379
  335MOL0     C46141  13.541   4.735   0.043 -0.0349 -0.5810  0.6552
  335MOL0     C46142  13.423   4.710  -0.011  0.5854 -0.3304 -0.0812
  335MOL0     N46143  12.737   4.731  -0.450 -0.2820 -0.2043 -0.5331
  335MOL0     N46144  12.641   4.811  -0.467  0.7111  0.4367  0.6914
  335MOL0     C46145  11.522   4.919   0.102 -0.3449 -0.8882  0.2298
  335MOL0     C46146  11.388   4.903   0.118 -0.2138  0.7441  0.2872
  335MOL0     C46147  10.970   4.762   0.215  0.1474  0.0662 -0.6990
  335MOL0     C46148  10.889   4.780   0.102 -0.0127 -0.7750 -0.0213
  335MOL0     C46149  10.752   4.768   0.097  0.0378 -0.0675  0.5575
  335MOL0     C46150  10.690   4.722   0.211 -0.5957 -0.4028 -0.0777
  335MOL0     O46151  10.559   4.699   0.222  0.4324  0.3198  0.0931
  335MOL0     C46152  10.460   4.718   0.114 -0.1784  0.3233  0.1246
  335MOL0     C46153  10.444   4.611   0.012 -0.0341  0.2542 -0.3719
  335MOL0     C46154  10.350   4.630  -0.113  0.2685  0.2556  0.0543
  335MOL0     C46155  10.204   4.655  -0.064 -0.3142  0.7031 -0.0259
  335MOL0     C46156  10.106   4.620  -0.173  0.3569  0.6416  0.0807
  335MOL0     C46157  10.024   4.591  -0.258  0.1378  1.0270  0.0521
  335MOL0     C46158  10.769   4.693   0.326  0.0794  0.1387  0.9306
  335MOL0     C46159  10.905   4.712   0.335  0.0769  0.8659  0.3200
  335MOL0     C46160  10.973   4.687   0.469 -0.3842 -1.1308  0.4024
  335MOL0     H46161  11.306   4.671  -0.116  0.6754 -0.3380  1.0090
  335MOL0     H46162  11.556   4.699  -0.161  1.5547 -0.0398 -0.0045
  335MOL0     H46163  11.785   4.986   0.106  0.0884 -1.9054  0.3706
  335MOL0     H46164  11.729   5.035  -0.051 -3.1970 -0.8575  1.3639
  335MOL0     H46165  11.975   4.871   0.010 -0.1864  1.4918  2.8893
  335MOL0     H46166  11.919   4.932  -0.150 -3.2049  2.3536 -0.7413
  335MOL0     H46167  11.985   5.139  -0.111  1.5455  0.2715 -0.6741
  335MOL0     H46168  11.993   5.132   0.072  2.4123  0.0676  0.4270
  335MOL0     H46169  12.211   5.125   0.030  0.9598 -0.4160 -0.2817
  335MOL0     H46170  12.172   4.953   0.052 -2.9466 -1.1052 -0.4964
  335MOL0     H46171  12.166   5.028  -0.233  2.2549 -0.2441 -1.8406
  335MOL0     H46172  12.187   4.877  -0.156  2.3713 -0.9357  1.3713
  335MOL0     H46173  12.372   5.099  -0.100 -4.4518 -0.0198  0.2933
  335MOL0     H46174  12.396   4.925  -0.071 -1.8276 -0.1679  1.1333
  335MOL0     H46175  12.534   5.024  -0.252  0.5493 -0.7360  0.3297
  335MOL0     H46176  12.388   5.065  -0.338 -0.7193  1.7375  2.5662
  335MOL0     H46177  12.369   4.785  -0.292 -0.6756  0.7625  0.3887
  335MOL0     H46178  12.396   4.875  -0.444 -0.2930  1.7655  0.5778
  335MOL0     H46179  12.568   4.673  -0.174  0.5271 -1.0675 -0.7140
  335MOL0     H46180  12.836   4.493  -0.343 -2.6496  0.5476 -0.9285
  335MOL0     H46181  12.771   4.528  -0.186  0.9777  2.1504  1.7609
  335MOL0     H46182  12.992   4.680  -0.330  0.2651 -0.5435  0.8406
  335MOL0     H46183  12.911   4.745  -0.185  1.0981  0.9285  0.8527
  335MOL0     H46184  12.987   4.547  -0.054  1.4681 -0.9351  0.3909
  335MOL0     H46185  13.068   4.478  -0.196 -1.1924 -0.0924 -0.9298
  335MOL0     H46186  13.232   4.640  -0.209 -0.4558  2.2416 -0.4819
  335MOL0     H46187  13.135   4.747  -0.097 -1.2197 -0.7682  1.6137
  335MOL0     H46188  13.312   4.483   0.208  0.3005 -1.2475 -0.4196
  335MOL0     H46189  13.591   4.573   0.418 -0.2852 -2.0014  1.8452
  335MOL0     H46190  13.599   4.413   0.342 -1.3007 -1.4843  2.3040
  335MOL0     H46191  13.449   4.491   0.406 -0.9092  1.0340 -0.9303
  335MOL0     H46192  13.889   4.870   0.402  0.9523 -2.2241 -0.7966
  335MOL0     H46193  14.100   4.994   0.444 -1.0407 -1.2353  0.9778
  335MOL0     H46194  14.196   5.251   0.330  2.5746  4.5107  1.7233
  335MOL0     H46195  14.247   5.136   0.451 -1.8782  0.4460 -0.5818
  335MOL0     H46196  14.427   5.265   0.226 -0.7478  1.6032 -0.3689
  335MOL0     H46197  14.417   5.324   0.394  2.3092 -1.7769  2.0237
  335MOL0     H46198  14.609   5.135   0.335  0.5277 -0.0987  0.5859
  335MOL0     H46199  14.489   5.021   0.351  3.4556 -0.9285  0.5738
  335MOL0     H46200  14.432   5.122   0.585  0.8343 -0.1067  1.5738
  335MOL0     H46201  14.558   5.224   0.565 -0.7070 -0.4350 -0.0849
  335MOL0     H46202  14.639   5.033   0.691 -0.0898  0.8845 -0.6220
  335MOL0     H46203  14.637   4.923   0.551  3.1852 -1.7100  2.0018
  335MOL0     H46204  14.793   5.097   0.437  1.7399  1.9645  1.4933
  335MOL0     H46205  14.861   5.006   0.562  1.2568 -0.4896 -0.5394
  335MOL0     H46206  14.751   5.220   0.711 -0.4460  1.1091 -0.6174
  335MOL0     H46207  14.758   5.296   0.557 -1.2348 -0.4370 -0.7685
  335MOL0     H46208  14.996   5.347   0.638 -0.4561  1.0369 -2.1381
  335MOL0     H46209  15.006   5.210   0.520 -0.4954  1.0887 -0.2172
  335MOL0     H46210  14.167   5.002   0.024 -0.4453  0.2920 -0.3153
  335MOL0     H46211  13.941   4.887  -0.020  0.3601  1.1721  0.8804
  335MOL0     H46212  13.604   4.801  -0.015  0.0756 -2.8537 -2.0483
  335MOL0     H46213  13.402   4.758  -0.106 -0.7793 -0.8592 -0.0705
  335MOL0     H46214  11.584   4.991   0.153  0.0479 -2.0347  1.4429
  335MOL0     H46215  11.350   4.972   0.193  0.5980  1.3832  0.1234
  335MOL0     H46216  10.932   4.827   0.014  0.0659  1.2695  1.0554
  335MOL0     H46217  10.697   4.782   0.005  1.9338  0.3263 -0.5777
  335MOL0     H46218  10.365   4.725   0.166  0.5844 -1.8062  1.9269
  335MOL0     H46219  10.472   4.817   0.067 -2.0560  1.6076  2.1698
  335MOL0     H46220  10.429   4.522   0.074 -0.5063  0.1488 -0.6386
  335MOL0     H46221  10.544   4.603  -0.032 -0.1344  0.8896 -0.7193
  335MOL0     H46222  10.391   4.716  -0.168  1.6376  1.5724  2.9400
  335MOL0     H46223  10.355   4.541  -0.176  1.1001  2.0300 -2.5965
  335MOL0     H46224  10.196   4.760  -0.035  0.5235  0.7924 -0.0874
  335MOL0     H46225  10.173   4.595   0.022  0.0511 -1.0680 -1.0816
  335MOL0     H46226   9.962   4.555  -0.338  1.6903 -0.2368 -0.6123
  335MOL0     H46227  10.714   4.656   0.412  0.1661 -2.5268 -0.0588
  335MOL0     H46228  11.043   4.771   0.476 -1.3693 -0.1677 -0.7446
  335MOL0     H46229  10.903   4.693   0.552  1.2285 -3.9213  2.1117
  335MOL0     H46230  11.034   4.597   0.481 -0.0470 -0.6420  2.7573
  336MOL0     O46231   7.886   2.580   5.638  0.5839  0.2338  0.0430
  336MOL0     C46232   7.922   2.529   5.742 -0.5171  0.3618 -0.4975
  336MOL0     O46233   8.058   2.526   5.784  0.0198 -0.3200 -0.4366
  336MOL0     C46234   8.151   2.584   5.705 -0.0163  0.2264 -0.1964
  336MOL0     C46235   8.267   2.632   5.763  0.3262 -0.5513 -0.6747
  336MOL0     C46236   8.357   2.715   5.695  0.2444  0.0080  0.0741
  336MOL0     C46237   8.352   2.722   5.556 -1.1799  0.4289  0.4622
  336MOL0     O46238   8.428   2.796   5.481 -0.7466  0.0536  0.3914
  336MOL0     C46239   8.487   2.914   5.536 -0.3637  0.4398  0.3572
  336MOL0     C46240   8.582   2.968   5.438  0.8584 -1.1556  0.2470
  336MOL0     C46241   8.695   3.053   5.501 -0.5555 -0.4708 -0.0485
  336MOL0     C46242   8.793   3.095   5.386 -0.6428  0.4005 -0.4612
  336MOL0     C46243   8.902   3.202   5.435 -0.1484 -0.4472  0.6566
  336MOL0     C46244   9.011   3.202   5.334 -0.6724 -0.6871  0.3643
  336MOL0     C46245   9.119   3.315   5.349 -0.1140  0.0131 -0.4615
  336MOL0     C46246   9.237   3.278   5.445 -0.0244 -0.0664 -0.4346
  336MOL0     N46247   9.294   3.407   5.499 -0.0696  0.2677  0.3015
  336MOL0     C46248   9.287   3.443   5.629 -0.9766 -0.8303 -0.7337
  336MOL0     C46249   9.372   3.547   5.640 -0.5731  0.1845 -0.9923
  336MOL0     C46250   9.414   3.620   5.775  0.1792  0.3055 -0.3362
  336MOL0     C46251   9.570   3.644   5.787  0.6602  0.0051 -0.6319
  336MOL0     C46252   9.628   3.761   5.706 -0.3544 -0.5990  0.7039
  336MOL0     C46253   9.776   3.737   5.712  0.5693  0.2246 -0.3592
  336MOL0     O46254   9.842   3.814   5.614 -0.0384 -0.1111 -0.3865
  336MOL0     C46255   9.974   3.800   5.591 -0.2778  0.5256 -0.1086
  336MOL0     C46256  10.012   3.845   5.465  0.3774  0.3654  1.2871
  336MOL0     C46257  10.148   3.845   5.409  0.4433 -0.5503 -0.1706
  336MOL0     C46258  10.172   3.900   5.264  0.5959  0.2998 -1.3433
  336MOL0     C46259  10.256   3.793   5.499  0.1223  0.4736  0.0355
  336MOL0     C46260  10.398   3.762   5.464  0.0682 -0.3489  0.1898
  336MOL0     O46261  10.482   3.742   5.562  0.6706 -0.6967 -0.4420
  336MOL0     C46262  10.614   3.752   5.534 -0.9989 -0.4204 -0.1330
  336MOL0     C46263  10.688   3.658   5.449  0.5717  0.0819 -0.0210
  336MOL0     C46264  10.826   3.680   5.429  0.3272 -0.2751 -0.5283
  336MOL0     C46265  10.894   3.784   5.490  1.0727 -0.2304  0.5444
  336MOL0     O46266  11.029   3.798   5.485 -0.0542  1.0201  0.4863
  336MOL0     C46267  11.088   3.918   5.433  0.7146 -0.5974 -0.5423
  336MOL0     C46268  11.145   4.012   5.531  0.6468  0.7224 -0.6121
  336MOL0     C46269  11.219   4.114   5.463  0.6305  0.2535  0.8284
  336MOL0     C46270  11.282   4.219   5.557  0.0018 -0.5660  0.3575
  336MOL0     C46271  11.347   4.334   5.477 -0.1937  0.2260 -0.2640
  336MOL0     C46272  11.382   4.432   5.586 -0.3765 -1.4042 -0.1663
  336MOL0     C46273  11.452   4.546   5.515 -0.1048 -0.1277  0.1989
  336MOL0     C46274  11.495   4.662   5.604 -0.5735 -0.9045  0.5033
  336MOL0    Cl46275  11.570   4.598   5.758  0.1395  0.4613 -0.0823
  336MOL0     C46276  10.820   3.870   5.573 -0.3126 -1.0726  0.3441
  336MOL0     C46277  10.685   3.856   5.591 -0.1512  0.3608 -0.4183
  336MOL0     O46278  10.424   3.773   5.337  0.3792 -0.4466  0.3853
  336MOL0     C46279  10.208   3.748   5.623  0.3080  0.6893 -0.9110
  336MOL0     C46280  10.072   3.751   5.663 -0.7587  0.0543 -0.2103
  336MOL0     N46281   9.429   3.563   5.513  0.3785  0.4966 -0.1894
  336MOL0     N46282   9.371   3.491   5.426 -0.0664 -0.7441  0.6864
  336MOL0     C46283   8.249   2.651   5.491  0.5269 -0.2870  0.5052
  336MOL0     C46284   8.148   2.583   5.562  0.2307 -1.3106  0.5027
  336MOL0     C46285   7.814   2.497   5.839  0.8564 -0.4557 -0.1059
  336MOL0     C46286   7.854   2.459   5.968  0.3973  0.6126 -0.2404
  336MOL0     C46287   7.775   2.415   6.074  0.1852 -0.2989  1.2697
  336MOL0     C46288   7.640   2.391   6.036 -0.3756 -0.0720  0.0486
  336MOL0     O46289   7.554   2.356   6.135 -0.4769 -0.1095  0.2111
  336MOL0     C46290   7.419   2.313   6.106  0.7255 -0.7620 -0.3825
  336MOL0     C46291   7.346   2.262   6.239  0.6445 -0.2480  0.3752
  336MOL0     C46292   7.213   2.193   6.196  0.0904 -0.2811 -0.1809
  336MOL0     C46293   7.136   2.136   6.308  0.3304  0.2882  0.0213
  336MOL0     C46294   7.051   2.020   6.274 -1.0778 -0.2752  0.5681
  336MOL0     C46295   6.969   1.934   6.264  1.0549 -0.1997 -0.0119
  336MOL0     C46296   7.594   2.429   5.907 -0.8280  0.7679 -0.3516
  336MOL0     C46297   7.672   2.488   5.813  0.2906 -0.1830  0.5549
  336MOL0     C46298   7.590   2.542   5.696  0.1128  0.0572 -0.9117
  336MOL0     H46299   8.281   2.642   5.871  1.4159  0.5116 -0.8970
  336MOL0     H46300   8.425   2.771   5.759 -1.7688  0.3778  2.0030
  336MOL0     H46301   8.539   2.900   5.631  0.6147 -1.3545 -0.3865
  336MOL0     H46302   8.416   2.994   5.558 -0.2889  0.9478 -1.0895
  336MOL0     H46303   8.634   2.886   5.387  0.2743 -0.7931 -0.9576
  336MOL0     H46304   8.522   3.029   5.371 -0.8191 -2.1010  0.8200
  336MOL0     H46305   8.666   3.140   5.560  1.0383 -0.0109  0.1010
  336MOL0     H46306   8.754   2.987   5.566 -3.4748 -1.2712  1.9796
  336MOL0     H46307   8.836   2.998   5.358  1.5484 -0.3461  4.4826
  336MOL0     H46308   8.736   3.137   5.303  0.3776 -0.5465 -1.6959
  336MOL0     H46309   8.949   3.173   5.529  1.4120  0.0652  0.0666
  336MOL0     H46310   8.860   3.303   5.434  0.5349 -0.1593  0.3190
  336MOL0     H46311   9.071   3.111   5.334  1.9226  0.8701 -2.2348
  336MOL0     H46312   8.965   3.216   5.236 -0.2208 -0.4815  0.1784
  336MOL0     H46313   9.065   3.402   5.389 -1.0472 -1.3308  1.3225
  336MOL0     H46314   9.172   3.357   5.263  0.6183  2.2634  0.9945
  336MOL0     H46315   9.198   3.214   5.524 -0.0944 -1.1819 -1.3539
  336MOL0     H46316   9.323   3.220   5.412  1.7347  1.0010  1.9737
  336MOL0     H46317   9.234   3.395   5.711 -0.2882  0.1483  0.3112
  336MOL0     H46318   9.383   3.558   5.859  1.4497  0.3623  0.1946
  336MOL0     H46319   9.358   3.713   5.790  0.6808  0.6548 -0.5836
  336MOL0     H46320   9.583   3.663   5.894  3.5325  1.4310 -1.1565
  336MOL0     H46321   9.620   3.547   5.778  1.2360  0.4544 -2.6601
  336MOL0     H46322   9.596   3.765   5.601 -0.3041  2.4211  0.7154
  336MOL0     H46323   9.598   3.854   5.755 -1.2481  0.4469 -1.6349
  336MOL0     H46324   9.817   3.744   5.813 -0.9372  0.7729  0.2491
  336MOL0     H46325   9.786   3.631   5.686 -0.7249  0.0811 -0.3489
  336MOL0     H46326   9.930   3.889   5.409  0.8106 -1.7073 -1.1245
  336MOL0     H46327  10.264   3.957   5.246  0.2581  0.7309 -1.7410
  336MOL0     H46328  10.087   3.963   5.240 -0.1246  0.1628  0.6433
  336MOL0     H46329  10.162   3.810   5.203 -1.3249 -0.5023  0.0401
  336MOL0     H46330  10.626   3.579   5.408 -1.6596  1.8412 -0.2499
  336MOL0     H46331  10.878   3.602   5.374  0.8797  0.1965 -0.6803
  336MOL0     H46332  11.169   3.871   5.376  1.2486 -0.7476  0.3178
  336MOL0     H46333  11.023   3.977   5.368  1.3422  1.9573  1.0333
  336MOL0     H46334  11.060   4.051   5.586 -2.0282 -1.0410 -3.2195
  336MOL0     H46335  11.199   3.958   5.610 -0.0946 -0.1286 -0.6647
  336MOL0     H46336  11.160   4.179   5.397  2.3236  1.4462  0.4017
  336MOL0     H46337  11.290   4.065   5.395 -0.8832  0.1830 -0.7877
  336MOL0     H46338  11.361   4.171   5.615  0.9547  3.7814  3.1471
  336MOL0     H46339  11.212   4.262   5.629 -1.9445 -2.3431 -0.3519
  336MOL0     H46340  11.427   4.296   5.413 -0.4342  1.5642 -1.3952
  336MOL0     H46341  11.280   4.389   5.411 -1.1939  0.6426  1.0565
  336MOL0     H46342  11.447   4.393   5.665  1.3015  1.1879 -0.1258
  336MOL0     H46343  11.290   4.481   5.618  0.9790  3.7686 -2.9763
  336MOL0     H46344  11.387   4.582   5.434  1.2774  1.8189 -0.1067
  336MOL0     H46345  11.548   4.509   5.478  0.2103  0.6858  0.1835
  336MOL0     H46346  11.412   4.722   5.642 -0.2121  0.8925 -1.3453
  336MOL0     H46347  11.560   4.735   5.555 -1.4757  0.3969  1.1787
  336MOL0     H46348  10.877   3.948   5.622 -1.5091 -0.5756  1.0003
  336MOL0     H46349  10.631   3.917   5.664 -1.3595 -0.0599 -0.9348
  336MOL0     H46350  10.274   3.723   5.705 -2.1383  1.0981  1.3262
  336MOL0     H46351  10.054   3.719   5.765  1.0456 -2.0023 -0.4496
  336MOL0     H46352   8.249   2.639   5.383 -0.0738 -2.6348  0.7119
  336MOL0     H46353   8.071   2.530   5.506  0.3518 -0.2010 -0.7753
  336MOL0     H46354   7.962   2.459   5.978  0.2576  2.1282  1.8889
  336MOL0     H46355   7.819   2.382   6.167  0.4410 -1.2963  0.8144
  336MOL0     H46356   7.355   2.384   6.055  2.1583  1.2638  0.4903
  336MOL0     H46357   7.437   2.225   6.043 -1.3826 -1.0806 -0.5930
  336MOL0     H46358   7.318   2.344   6.305 -1.0552 -0.4533 -0.0477
  336MOL0     H46359   7.413   2.191   6.287 -0.9725 -1.8623  0.3571
  336MOL0     H46360   7.155   2.272   6.147  0.3995 -0.8950 -1.5786
  336MOL0     H46361   7.237   2.112   6.127 -0.3767 -0.0289 -0.6426
  336MOL0     H46362   7.088   2.225   6.352  1.0811  0.4932  0.4490
  336MOL0     H46363   7.200   2.103   6.391 -0.7263  0.6279  1.0051
  336MOL0     H46364   6.898   1.855   6.250  0.1442  0.2610  1.6775
  336MOL0     H46365   7.492   2.413   5.875 -0.0249 -0.9254 -2.3240
  336MOL0     H46366   7.543   2.456   5.648 -0.1775 -0.7512  0.7474
  336MOL0     H46367   7.510   2.610   5.726  0.5176  0.6228 -1.0809
  336MOL0     H46368   7.650   2.589   5.618 -0.2022  0.8835 -0.6673
  337MOL0     O46369   9.661   6.765   3.825  0.0673 -0.1629 -0.2188
  337MOL0     C46370   9.736   6.741   3.923  0.8596  0.6867  0.1645
  337MOL0     O46371   9.808   6.633   3.937  0.0151 -0.4034 -0.4955
  337MOL0     C46372   9.821   6.551   3.827 -0.1335 -0.4996 -0.6189
  337MOL0     C46373   9.764   6.424   3.821  0.0525  0.0149 -0.7401
  337MOL0     C46374   9.776   6.350   3.703 -0.7928  0.1246  0.8107
  337MOL0     C46375   9.827   6.412   3.582 -0.6454  0.6175  0.1250
  337MOL0     O46376   9.800   6.361   3.457 -0.6738  0.0295  1.4579
  337MOL0     C46377   9.772   6.221   3.439  0.6001  0.4692  0.1278
  337MOL0     C46378   9.769   6.194   3.290  0.3613 -0.8284 -0.1226
  337MOL0     C46379   9.700   6.056   3.266 -0.1268  0.0975 -0.1505
  337MOL0     C46380   9.630   6.058   3.129 -0.8222 -0.0007 -0.7446
  337MOL0     C46381   9.567   5.926   3.081 -1.0074 -0.0827 -0.1292
  337MOL0     C46382   9.662   5.812   3.049  0.2110  0.2161  0.0153
  337MOL0     C46383   9.596   5.679   3.006  0.3621 -0.1504  0.3621
  337MOL0     C46384   9.497   5.632   3.117  1.1451 -1.3219 -0.3938
  337MOL0     N46385   9.561   5.627   3.249  0.7663 -0.1957  0.4702
  337MOL0     C46386   9.658   5.536   3.289 -0.4380  0.2348 -0.9314
  337MOL0     C46387   9.703   5.596   3.403 -0.1845  0.1286 -0.5625
  337MOL0     C46388   9.813   5.556   3.496  0.3394 -0.1065 -0.2411
  337MOL0     C46389   9.929   5.657   3.498 -0.0242  0.0198 -0.5105
  337MOL0     C46390   9.999   5.639   3.633 -0.1255 -0.0101  0.7545
  337MOL0     C46391  10.131   5.712   3.645  0.1235 -0.2218  0.0625
  337MOL0     O46392  10.219   5.648   3.556  0.1718 -0.3771 -0.2896
  337MOL0     C46393  10.343   5.693   3.540 -0.0997 -0.5022 -0.1812
  337MOL0     C46394  10.424   5.645   3.434 -0.3518  0.7965 -0.0436
  337MOL0     C46395  10.556   5.695   3.413 -0.4332  0.1837  0.0966
  337MOL0     C46396  10.626   5.630   3.291 -0.2392 -0.0028 -0.2887
  337MOL0     C46397  10.619   5.789   3.487  0.4078  0.0886  0.0927
  337MOL0     C46398  10.760   5.818   3.479  0.3523 -0.1056  0.0627
  337MOL0     O46399  10.849   5.710   3.486  0.4977 -0.0189  0.2113
  337MOL0     C46400  10.982   5.744   3.458  0.5225  0.7503 -0.0832
  337MOL0     C46401  11.018   5.776   3.323 -0.0913  1.3236 -0.1039
  337MOL0     C46402  11.153   5.829   3.315  0.7261 -0.3477 -0.4140
  337MOL0     C46403  11.243   5.848   3.422 -0.5568  1.5414  0.6437
  337MOL0     O46404  11.371   5.886   3.386 -0.0629 -0.4857  0.2659
  337MOL0     C46405  11.475   5.867   3.479 -0.2638  0.2952 -0.6594
  337MOL0     C46406  11.622   5.905   3.421 -0.1399  0.4706  0.2582
  337MOL0     C46407  11.651   5.843   3.288  0.1540  0.3396 -0.3262
  337MOL0     C46408  11.773   5.899   3.216  1.0141 -0.2066 -0.5203
  337MOL0     C46409  11.861   5.795   3.154 -0.0506  0.3834  0.0382
  337MOL0     C46410  11.970   5.867   3.080 -0.6454  0.0592  0.6548
  337MOL0     C46411  12.076   5.775   3.027 -0.5411  0.2164  0.1728
  337MOL0     C46412  12.201   5.855   2.986 -0.0367  0.0963 -0.6031
  337MOL0    Cl46413  12.163   5.945   2.840  0.0263  0.1881 -0.5183
  337MOL0     C46414  11.195   5.817   3.550  0.3432  0.1589 -0.1729
  337MOL0     C46415  11.066   5.771   3.571  0.1077  0.3059  0.3131
  337MOL0     O46416  10.783   5.937   3.469  0.8208 -0.1496 -0.2687
  337MOL0     C46417  10.533   5.849   3.591  0.0626 -0.0689  0.5747
  337MOL0     C46418  10.407   5.794   3.623  0.2395  0.2859 -0.0615
  337MOL0     N46419   9.631   5.707   3.443 -0.8477 -0.2564  0.3272
  337MOL0     N46420   9.557   5.730   3.340 -0.0516  0.4425 -0.5576
  337MOL0     C46421   9.883   6.535   3.591 -0.2475  0.1720  0.0824
  337MOL0     C46422   9.884   6.607   3.712  0.8006  0.2801  0.4565
  337MOL0     C46423   9.741   6.844   4.026 -0.4913  0.4644 -0.7151
  337MOL0     C46424   9.706   6.818   4.156  0.5314 -0.5397 -0.5514
  337MOL0     C46425   9.730   6.920   4.257  1.2785 -0.1922  0.0154
  337MOL0     C46426   9.790   7.041   4.234 -0.4704 -0.1450  0.1890
  337MOL0     O46427   9.801   7.142   4.328 -0.8816  0.0691  0.0666
  337MOL0     C46428   9.842   7.273   4.291  0.5004 -0.1271 -0.6125
  337MOL0     C46429   9.722   7.349   4.239  0.8160  0.5524 -0.0760
  337MOL0     C46430   9.605   7.381   4.329 -0.2058  0.0638 -0.2671
  337MOL0     C46431   9.498   7.470   4.269  0.3042  0.3141  0.3355
  337MOL0     C46432   9.417   7.525   4.379 -0.1940  0.9963  0.2826
  337MOL0     C46433   9.336   7.571   4.456 -0.0754 -0.4046 -0.0112
  337MOL0     C46434   9.835   7.067   4.098 -0.0455 -0.1550 -0.1801
  337MOL0     C46435   9.799   6.972   3.996 -0.6225 -0.0084 -0.0334
  337MOL0     C46436   9.830   7.009   3.854  0.4663  0.2585  0.0944
  337MOL0     H46437   9.712   6.404   3.913 -0.0354  1.4252 -0.4543
  337MOL0     H46438   9.738   6.250   3.685  0.9864 -0.6428  1.0989
  337MOL0     H46439   9.671   6.207   3.477  0.2313  2.5648  0.0775
  337MOL0     H46440   9.843   6.156   3.492 -1.4139 -1.7767  0.1985
  337MOL0     H46441   9.709   6.270   3.240 -0.1442 -0.4355  1.0429
  337MOL0     H46442   9.869   6.200   3.246 -0.3435 -1.0821 -1.8431
  337MOL0     H46443   9.777   5.979   3.274  0.0011  0.4320  4.3121
  337MOL0     H46444   9.624   6.041   3.344  0.3941 -0.1559  0.3121
  337MOL0     H46445   9.551   6.135   3.131 -1.1003 -0.2919  0.2246
  337MOL0     H46446   9.700   6.097   3.055  1.2870 -0.3748  0.9615
  337MOL0     H46447   9.527   5.949   2.981  1.8206 -1.7428 -1.7898
  337MOL0     H46448   9.487   5.889   3.145 -0.7916 -1.3758 -0.5724
  337MOL0     H46449   9.718   5.850   2.963 -0.1666 -2.4076 -1.4677
  337MOL0     H46450   9.733   5.785   3.128 -1.4084  0.2521  1.5572
  337MOL0     H46451   9.654   5.587   2.990 -0.4797 -0.4134 -1.4211
  337MOL0     H46452   9.545   5.699   2.911  0.6518 -0.8811  0.0379
  337MOL0     H46453   9.406   5.693   3.128  3.4978  1.9907  2.9042
  337MOL0     H46454   9.475   5.527   3.095  1.0746 -1.1707 -1.0793
  337MOL0     H46455   9.679   5.455   3.221 -0.5001  0.6632 -1.4740
  337MOL0     H46456   9.851   5.461   3.457  0.8341 -0.3593  0.8253
  337MOL0     H46457   9.786   5.538   3.600  1.1619 -0.0652 -0.0077
  337MOL0     H46458  10.004   5.628   3.424 -0.7999  3.8311 -3.0978
  337MOL0     H46459   9.894   5.759   3.478 -0.0693  0.2509  0.6520
  337MOL0     H46460   9.937   5.684   3.710  1.5203  0.6348  1.7505
  337MOL0     H46461  10.013   5.532   3.649 -1.8407 -0.5341 -0.8755
  337MOL0     H46462  10.127   5.820   3.627 -1.5751 -0.3030 -0.2710
  337MOL0     H46463  10.169   5.700   3.747  0.4719 -1.6989 -0.2112
  337MOL0     H46464  10.381   5.566   3.374 -1.2882  1.2675 -0.0103
  337MOL0     H46465  10.720   5.592   3.334 -0.8065 -0.3735  0.6624
  337MOL0     H46466  10.650   5.711   3.221  1.6212 -1.4256 -1.3953
  337MOL0     H46467  10.568   5.552   3.243 -3.4523  2.0332 -0.0095
  337MOL0     H46468  10.953   5.772   3.236  0.0883  1.8326 -0.2620
  337MOL0     H46469  11.178   5.855   3.212 -0.9354 -1.0204 -1.0175
  337MOL0     H46470  11.463   5.930   3.568  1.7525  0.4547 -0.4528
  337MOL0     H46471  11.470   5.763   3.511  1.9384  0.6426  1.1162
  337MOL0     H46472  11.643   6.012   3.424  1.3163  0.5388 -4.4366
  337MOL0     H46473  11.687   5.857   3.495  2.5264  0.8966 -1.6692
  337MOL0     H46474  11.566   5.862   3.221 -0.8838 -0.8411  0.6123
  337MOL0     H46475  11.655   5.734   3.292  2.5350  0.1874 -3.0811
  337MOL0     H46476  11.832   5.960   3.285 -1.2396  1.5340 -0.0049
  337MOL0     H46477  11.738   5.969   3.140 -0.7095 -0.8495 -0.3726
  337MOL0     H46478  11.895   5.724   3.230 -1.1033  0.5112  0.6623
  337MOL0     H46479  11.802   5.736   3.083 -1.9449  0.5641  1.3620
  337MOL0     H46480  12.032   5.921   3.152  0.1349  0.9597 -0.6486
  337MOL0     H46481  11.927   5.927   2.999  1.0559  1.9223  1.0472
  337MOL0     H46482  12.042   5.726   2.936 -0.7432 -2.6208  1.6647
  337MOL0     H46483  12.095   5.697   3.101  1.1308  0.3306 -0.1038
  337MOL0     H46484  12.291   5.796   2.967  0.8483 -0.6771  4.6547
  337MOL0     H46485  12.230   5.916   3.072  1.5246 -1.1856 -0.1726
  337MOL0     H46486  11.263   5.839   3.631  0.5048 -3.8768  0.9708
  337MOL0     H46487  11.028   5.752   3.670 -0.5828 -0.5910 -0.1150
  337MOL0     H46488  10.575   5.924   3.657  0.4718  1.0472 -0.8925
  337MOL0     H46489  10.351   5.829   3.709  0.1776 -1.0465  0.4716
  337MOL0     H46490   9.923   6.580   3.501 -1.5328 -0.5776 -0.9085
  337MOL0     H46491   9.930   6.705   3.719  0.2389  0.5957 -0.0802
  337MOL0     H46492   9.668   6.719   4.180 -0.8105 -0.0997 -0.8152
  337MOL0     H46493   9.693   6.898   4.357 -3.1474  2.3210 -0.7903
  337MOL0     H46494   9.890   7.321   4.377  0.3863 -0.1317 -0.5447
  337MOL0     H46495   9.926   7.283   4.222  0.2040  1.1364 -0.8157
  337MOL0     H46496   9.684   7.285   4.159  1.5054 -1.2965  1.0191
  337MOL0     H46497   9.759   7.443   4.196 -0.3140  1.0191 -0.0728
  337MOL0     H46498   9.552   7.288   4.351 -0.7708  0.2123 -0.9546
  337MOL0     H46499   9.646   7.426   4.420  0.2405  2.0138 -1.3677
  337MOL0     H46500   9.433   7.421   4.196 -2.0422  2.6643  0.6815
  337MOL0     H46501   9.557   7.554   4.231  0.4274 -0.0463 -0.2845
  337MOL0     H46502   9.254   7.610   4.514 -0.9651 -2.0880 -0.0804
  337MOL0     H46503   9.892   7.150   4.058  0.9687 -0.6137  0.2589
  337MOL0     H46504   9.890   6.932   3.803 -1.5328 -1.2186 -0.1392
  337MOL0     H46505   9.740   7.031   3.795 -0.4856 -0.1732  1.3509
  337MOL0     H46506   9.886   7.103   3.857 -1.6064  1.6379 -1.4734
  338MOL0     O46507   6.314   9.049   4.771  0.1582 -1.0415 -0.4494
  338MOL0     C46508   6.348   8.937   4.786  0.1348  0.1310  0.0142
  338MOL0     O46509   6.446   8.881   4.718 -0.3335  0.7522 -0.1758
  338MOL0     C46510   6.505   8.936   4.610 -0.4567  0.0536 -0.1405
  338MOL0     C46511   6.650   8.933   4.604 -0.2601  0.4539 -0.2520
  338MOL0     C46512   6.713   8.983   4.488 -0.5764  0.0990 -0.2213
  338MOL0     C46513   6.640   9.036   4.379 -0.1301  1.1745 -0.8432
  338MOL0     O46514   6.701   9.074   4.264  0.2969 -0.5928 -0.0733
  338MOL0     C46515   6.814   9.154   4.287 -0.1239  0.6830  0.7820
  338MOL0     C46516   6.851   9.225   4.155  0.0558  0.3037 -0.7044
  338MOL0     C46517   6.976   9.169   4.098  0.3094  0.0022  0.0265
  338MOL0     C46518   7.012   9.256   3.973  0.7411  1.0412 -0.1651
  338MOL0     C46519   7.152   9.201   3.933 -0.3570 -0.0256  0.1073
  338MOL0     C46520   7.196   9.270   3.799  0.6792  0.0452  0.1960
  338MOL0     C46521   7.333   9.207   3.747 -0.6037 -0.2996 -0.2421
  338MOL0     C46522   7.445   9.266   3.838  0.3198  0.5935  0.5255
  338MOL0     N46523   7.577   9.207   3.816 -0.3448 -0.3141 -0.6622
  338MOL0     C46524   7.622   9.120   3.716 -0.4842  0.0001 -0.4452
  338MOL0     C46525   7.753   9.094   3.743  0.0694  0.1158 -0.1668
  338MOL0     C46526   7.846   8.997   3.668 -0.9051  0.1789 -0.7065
  338MOL0     C46527   7.964   9.055   3.582  1.1957  0.2490  0.1560
  338MOL0     C46528   8.096   8.998   3.629 -0.0190 -0.2026  0.5343
  338MOL0     C46529   8.217   9.045   3.543  0.1362  0.3426  0.5315
  338MOL0     O46530   8.275   9.159   3.604 -0.4493 -0.4213 -1.4249
  338MOL0     C46531   8.403   9.195   3.576  0.3250  0.3705 -0.3618
  338MOL0     C46532   8.464   9.158   3.451  0.1128 -0.2616  0.5518
  338MOL0     C46533   8.599   9.156   3.444  0.2838  0.0567 -0.7979
  338MOL0     C46534   8.663   9.112   3.314 -0.0015 -0.4459 -0.1267
  338MOL0     C46535   8.683   9.203   3.550  1.0342 -0.4102 -0.5723
  338MOL0     C46536   8.826   9.211   3.547  0.0203 -1.0428  0.9552
  338MOL0     O46537   8.889   9.323   3.605 -0.4423  0.0379 -0.0811
  338MOL0     C46538   9.024   9.305   3.638 -0.2845 -0.2267  0.3302
  338MOL0     C46539   9.126   9.337   3.542  0.3815  0.2122 -0.6255
  338MOL0     C46540   9.251   9.358   3.588  0.4529  0.1947 -0.4294
  338MOL0     C46541   9.287   9.343   3.715  0.0771  0.2529  0.4601
  338MOL0     O46542   9.424   9.357   3.742  0.8938 -0.4374 -0.1480
  338MOL0     C46543   9.473   9.263   3.834 -0.0190  0.3961 -0.8874
  338MOL0     C46544   9.623   9.273   3.861  0.1431 -0.1404 -0.0377
  338MOL0     C46545   9.694   9.236   3.730  0.2185 -0.0147 -0.2982
  338MOL0     C46546   9.838   9.215   3.754 -0.5278  0.3897  0.1155
  338MOL0     C46547   9.912   9.209   3.615 -0.4306 -0.3374 -0.1039
  338MOL0     C46548  10.060   9.185   3.635  0.0834  0.1188 -0.0155
  338MOL0     C46549  10.153   9.317   3.646  0.4128  0.6620 -0.1617
  338MOL0     C46550  10.290   9.267   3.700 -0.1421  0.8785 -0.0823
  338MOL0    Cl46551  10.361   9.141   3.587 -0.2225 -0.4205  0.3684
  338MOL0     C46552   9.194   9.320   3.813  0.5181 -0.2147  0.0461
  338MOL0     C46553   9.064   9.299   3.775 -0.0913  0.0582 -0.3440
  338MOL0     O46554   8.887   9.114   3.495  0.6642  0.0100 -0.9560
  338MOL0     C46555   8.622   9.246   3.672 -0.1185  0.3811  0.6088
  338MOL0     C46556   8.481   9.242   3.683 -0.0660  0.3235 -0.2457
  338MOL0     N46557   7.778   9.159   3.858 -0.1501 -0.5543  0.1123
  338MOL0     N46558   7.682   9.231   3.899  0.1068  0.3025 -0.0994
  338MOL0     C46559   6.505   9.046   4.397 -0.0362  0.7606 -0.4819
  338MOL0     C46560   6.435   8.995   4.503  0.6122  0.2269  0.3899
  338MOL0     C46561   6.285   8.855   4.886 -0.4565  0.8368 -0.0703
  338MOL0     C46562   6.169   8.906   4.955  0.0064 -0.0392 -0.2719
  338MOL0     C46563   6.099   8.833   5.048 -0.4158 -0.0926  0.2379
  338MOL0     C46564   6.145   8.706   5.081  0.8353 -0.0790  0.0400
  338MOL0     O46565   6.065   8.638   5.172 -0.1258  0.1993 -0.4743
  338MOL0     C46566   6.048   8.498   5.145 -0.1380  0.9540 -0.0002
  338MOL0     C46567   5.953   8.446   5.254 -0.0634 -0.2643  0.6083
  338MOL0     C46568   5.880   8.313   5.247  0.0347  0.6441  0.3316
  338MOL0     C46569   5.768   8.305   5.345  0.1774 -0.2795 -0.7912
  338MOL0     C46570   5.644   8.366   5.291 -0.0083 -0.3297 -0.0518
  338MOL0     C46571   5.560   8.432   5.233 -0.5858  1.1888 -1.0737
  338MOL0     C46572   6.263   8.652   5.027  0.6034 -0.0039  0.2419
  338MOL0     C46573   6.323   8.718   4.918 -0.6256 -0.2632  0.1042
  338MOL0     C46574   6.437   8.646   4.861 -0.1602  0.7307  1.2651
  338MOL0     H46575   6.710   8.902   4.689 -0.9251 -1.8839 -0.5666
  338MOL0     H46576   6.821   8.970   4.482 -0.7373 -1.1844 -0.5896
  338MOL0     H46577   6.895   9.087   4.320 -0.6613 -0.1790  0.4046
  338MOL0     H46578   6.792   9.224   4.368 -1.5392 -2.6679  3.5738
  338MOL0     H46579   6.773   9.203   4.082  1.7289 -2.4455 -1.8367
  338MOL0     H46580   6.867   9.333   4.159  0.8042  0.1806  0.2242
  338MOL0     H46581   7.064   9.160   4.161  1.2320  0.7941 -1.0963
  338MOL0     H46582   6.954   9.064   4.076  3.0203 -1.2613  2.5978
  338MOL0     H46583   6.931   9.248   3.900  0.6136 -1.5842  0.1604
  338MOL0     H46584   7.010   9.360   4.005 -3.6763  0.7144  1.2822
  338MOL0     H46585   7.131   9.094   3.922 -3.7698  0.7138 -2.1077
  338MOL0     H46586   7.226   9.218   4.012 -0.6570  0.4861  0.2833
  338MOL0     H46587   7.119   9.254   3.723  0.6301  0.0468  0.2462
  338MOL0     H46588   7.205   9.378   3.811 -0.6097  0.4168 -1.7278
  338MOL0     H46589   7.353   9.231   3.642 -0.7783 -1.9371 -0.6862
  338MOL0     H46590   7.329   9.098   3.758 -1.1397 -0.2700 -0.1247
  338MOL0     H46591   7.456   9.374   3.830 -0.9533  0.7289  0.2978
  338MOL0     H46592   7.426   9.243   3.944  1.9125  0.9052  0.8960
  338MOL0     H46593   7.569   9.079   3.631  1.8936 -2.0420 -1.0575
  338MOL0     H46594   7.781   8.934   3.606 -0.6919  0.3504 -1.1063
  338MOL0     H46595   7.885   8.934   3.749 -2.6080  0.1572  0.1549
  338MOL0     H46596   7.956   9.036   3.475 -1.6360  1.1479  0.1076
  338MOL0     H46597   7.960   9.164   3.577 -1.5555  0.1947 -0.7804
  338MOL0     H46598   8.099   9.026   3.735 -2.1226 -0.4077  0.6984
  338MOL0     H46599   8.084   8.890   3.618  0.9474 -0.2095 -0.6361
  338MOL0     H46600   8.296   8.970   3.544 -0.9014 -0.7935  0.8564
  338MOL0     H46601   8.180   9.069   3.443  1.4831  0.7856  0.1264
  338MOL0     H46602   8.412   9.113   3.368  0.2291  1.1822 -0.3389
  338MOL0     H46603   8.710   9.014   3.328  0.1652 -0.6426 -1.8462
  338MOL0     H46604   8.737   9.188   3.289 -0.4818  1.2539  3.1354
  338MOL0     H46605   8.595   9.098   3.229 -0.3687 -3.2295  0.5266
  338MOL0     H46606   9.120   9.345   3.434  2.5613 -1.1143 -0.9105
  338MOL0     H46607   9.327   9.375   3.513  0.5638 -0.1900 -0.4031
  338MOL0     H46608   9.425   9.263   3.933  1.7621 -1.0000  0.0359
  338MOL0     H46609   9.465   9.161   3.796 -0.2809  0.8132 -1.9926
  338MOL0     H46610   9.646   9.375   3.891 -3.3308 -0.4637  5.1569
  338MOL0     H46611   9.662   9.217   3.947  1.7261 -1.0077 -1.2641
  338MOL0     H46612   9.672   9.309   3.652 -2.1261 -0.2334  0.0938
  338MOL0     H46613   9.650   9.142   3.694 -0.4786  0.1464  0.1163
  338MOL0     H46614   9.848   9.117   3.802 -1.3461 -1.1436 -2.6529
  338MOL0     H46615   9.890   9.297   3.805  0.3452  0.3644 -0.7034
  338MOL0     H46616   9.867   9.128   3.557 -0.9976  0.7992 -1.2998
  338MOL0     H46617   9.886   9.301   3.562 -2.4880 -1.0450 -0.4347
  338MOL0     H46618  10.089   9.129   3.545  3.1913 -1.8001  1.9929
  338MOL0     H46619  10.071   9.122   3.723  2.3520 -0.0202 -0.3420
  338MOL0     H46620  10.109   9.383   3.721  0.6985  0.7874 -0.1050
  338MOL0     H46621  10.164   9.371   3.551  1.8234  1.4644  0.4292
  338MOL0     H46622  10.276   9.224   3.799 -1.0560 -0.0430 -0.5955
  338MOL0     H46623  10.366   9.346   3.702  1.6781 -0.7469  3.4859
  338MOL0     H46624   9.215   9.329   3.919  0.6551  3.3194 -0.1495
  338MOL0     H46625   8.990   9.292   3.853 -2.2339  1.5358 -2.1376
  338MOL0     H46626   8.685   9.284   3.752  1.6666  0.6076 -0.8470
  338MOL0     H46627   8.419   9.273   3.766 -0.1630 -1.0814  0.2176
  338MOL0     H46628   6.451   9.078   4.307  1.4720 -0.6125 -1.9409
  338MOL0     H46629   6.328   9.003   4.488  0.6573 -0.8871 -0.6191
  338MOL0     H46630   6.124   9.004   4.942 -1.4727 -1.1013 -4.7053
  338MOL0     H46631   6.014   8.876   5.100  0.2832  3.0839 -0.9982
  338MOL0     H46632   6.007   8.476   5.046  0.8190 -0.2543 -0.1505
  338MOL0     H46633   6.138   8.441   5.170  0.9249  3.2822  1.8428
  338MOL0     H46634   5.875   8.523   5.263 -0.9666 -0.8320 -1.7393
  338MOL0     H46635   6.014   8.452   5.345 -2.8886  0.6856  2.6045
  338MOL0     H46636   5.834   8.290   5.150  1.4709 -1.0219 -0.0053
  338MOL0     H46637   5.942   8.226   5.270  3.1172  2.7235  0.4470
  338MOL0     H46638   5.787   8.360   5.438 -3.2243 -0.2732  0.0647
  338MOL0     H46639   5.741   8.201   5.367  0.0517 -0.2815 -0.9522
  338MOL0     H46640   5.485   8.498   5.193 -1.3748  0.9441 -0.0573
  338MOL0     H46641   6.313   8.559   5.053  1.1457  0.2935  0.2654
  338MOL0     H46642   6.453   8.549   4.909  0.3914  1.0230  1.6936
  338MOL0     H46643   6.437   8.637   4.752 -0.2749  1.5864  1.1849
  338MOL0     H46644   6.535   8.692   4.882  2.5567 -3.5100 -0.7891
  339MOL0     O46645   8.777   1.008   7.930  0.2910 -0.4967  0.4514
  339MOL0     C46646   8.771   0.990   8.051 -0.0462 -0.2490  0.5571
  339MOL0     O46647   8.873   0.936   8.130  0.2566  0.1961 -0.0168
  339MOL0     C46648   8.981   0.902   8.057  0.3031  0.6564  0.9317
  339MOL0     C46649   9.079   0.986   8.000  0.6284  0.5614  0.1814
  339MOL0     C46650   9.188   0.935   7.925  0.3999  0.7742  0.8508
  339MOL0     C46651   9.213   0.794   7.914  0.5488 -0.6774 -0.5195
  339MOL0     O46652   9.313   0.735   7.841 -0.3557  0.0627 -0.1326
  339MOL0     C46653   9.424   0.812   7.795 -0.2471 -0.3271 -0.2489
  339MOL0     C46654   9.534   0.821   7.903  0.2510 -0.0872 -0.3318
  339MOL0     C46655   9.679   0.845   7.851  1.0658 -0.7269 -0.1177
  339MOL0     C46656   9.775   0.884   7.964 -0.3871  0.3733 -0.1903
  339MOL0     C46657   9.920   0.902   7.916 -0.3798  0.5889  0.6044
  339MOL0     C46658   9.995   0.770   7.895  0.4810  1.2263  0.1785
  339MOL0     C46659  10.134   0.793   7.843 -0.0813 -1.2645  0.2520
  339MOL0     C46660  10.212   0.657   7.845  0.4614  0.3318  0.2298
  339MOL0     N46661  10.327   0.670   7.758  0.3861  0.5736  0.1690
  339MOL0     C46662  10.417   0.761   7.751 -0.1752  0.1004 -0.5530
  339MOL0     C46663  10.508   0.722   7.660  0.1416 -0.1811 -0.5184
  339MOL0     C46664  10.635   0.801   7.617 -0.4736 -0.2750 -0.2979
  339MOL0     C46665  10.748   0.770   7.712  0.5851  0.2840  0.3458
  339MOL0     C46666  10.880   0.846   7.678 -0.0641  0.5118 -0.8735
  339MOL0     C46667  10.989   0.831   7.784  0.4359  0.9501  0.3188
  339MOL0     O46668  11.029   0.691   7.797  0.7083 -0.2944  0.0612
  339MOL0     C46669  11.166   0.679   7.821  0.6883  0.6563 -0.3264
  339MOL0     C46670  11.235   0.746   7.924 -0.3166 -0.1802  0.0303
  339MOL0     C46671  11.374   0.722   7.948 -0.2683  0.3029  0.0587
  339MOL0     C46672  11.434   0.799   8.076 -0.3215 -0.2437  0.4184
  339MOL0     C46673  11.443   0.633   7.869 -0.0036 -0.0476  0.4319
  339MOL0     C46674  11.590   0.603   7.873  0.4350 -0.0537  0.7954
  339MOL0     O46675  11.641   0.499   7.786 -0.3681 -0.3657  0.2184
  339MOL0     C46676  11.763   0.438   7.799 -0.1760 -0.1594  0.0534
  339MOL0     C46677  11.814   0.424   7.928  0.2204 -0.6591 -0.3317
  339MOL0     C46678  11.938   0.370   7.963 -0.1214 -0.0919  0.4371
  339MOL0     C46679  12.014   0.340   7.841 -0.7522 -0.6881  0.1751
  339MOL0     O46680  12.141   0.290   7.852  0.4502  0.4986 -0.7524
  339MOL0     C46681  12.144   0.161   7.920  0.1955 -0.4724  0.1188
  339MOL0     C46682  12.284   0.102   7.932  0.0061 -0.3779 -0.1372
  339MOL0     C46683  12.381   0.208   7.986  0.1223 -0.1314 -0.3525
  339MOL0     C46684  12.520   0.152   8.036  0.7717 -0.7425 -0.9073
  339MOL0     C46685  12.612   0.268   8.064 -0.1611  0.3897  0.6634
  339MOL0     C46686  12.569   0.368   8.177  0.3001  0.7652  0.6387
  339MOL0     C46687  12.526   0.309   8.312  0.0425  0.0163  0.5477
  339MOL0     C46688  12.565   0.399   8.425 -0.0859 -1.0145  0.1058
  339MOL0    Cl46689  12.731   0.398   8.464  0.1062  0.5562  0.0948
  339MOL0     C46690  11.956   0.347   7.711 -0.0289  0.2493 -0.1348
  339MOL0     C46691  11.829   0.396   7.689  1.1445  0.2796  0.7168
  339MOL0     O46692  11.659   0.681   7.935  0.1130 -0.4372 -0.0029
  339MOL0     C46693  11.371   0.580   7.759 -0.1977 -0.5717  0.1064
  339MOL0     C46694  11.234   0.588   7.740 -0.7778 -0.3114  0.1692
  339MOL0     N46695  10.465   0.606   7.599 -0.4587  0.1444  0.1996
  339MOL0     N46696  10.359   0.578   7.659  0.2409  0.3178  0.0264
  339MOL0     C46697   9.121   0.710   7.976  0.0718  0.5067  0.4535
  339MOL0     C46698   9.012   0.760   8.050  0.0585  0.1284  0.0838
  339MOL0     C46699   8.649   1.006   8.123 -0.1505 -0.4248  0.4944
  339MOL0     C46700   8.623   0.941   8.233  0.3070  0.5100 -0.8141
  339MOL0     C46701   8.500   0.953   8.305 -0.5185 -0.0185 -0.4619
  339MOL0     C46702   8.398   1.041   8.256  0.1502 -0.1511  0.0475
  339MOL0     O46703   8.284   1.066   8.319  0.4662 -0.8393 -0.2341
  339MOL0     C46704   8.270   1.036   8.462 -0.5920 -0.4273 -0.1459
  339MOL0     C46705   8.162   1.118   8.531  0.3281  1.0370  0.6999
  339MOL0     C46706   8.178   1.263   8.491 -0.0774 -1.3577  0.0263
  339MOL0     C46707   8.094   1.292   8.363 -0.2170 -0.5575 -0.5544
  339MOL0     C46708   8.072   1.440   8.344  0.9021 -0.3754 -0.2533
  339MOL0     C46709   8.070   1.557   8.324 -0.0587  0.3902 -0.7004
  339MOL0     C46710   8.424   1.112   8.145  0.1846  0.0839  1.0994
  339MOL0     C46711   8.550   1.099   8.078 -0.5928  0.2568 -0.8525
  339MOL0     C46712   8.562   1.191   7.958 -0.1977 -0.7128  1.0263
  339MOL0     H46713   9.067   1.094   7.995  0.2409  0.4839 -1.5003
  339MOL0     H46714   9.251   1.007   7.875  2.0815  0.0156  1.8096
  339MOL0     H46715   9.402   0.913   7.758  0.8745 -0.5328 -1.5603
  339MOL0     H46716   9.468   0.760   7.709 -0.7062 -0.8718 -0.1614
  339MOL0     H46717   9.507   0.903   7.972  0.5127  1.3542 -1.8791
  339MOL0     H46718   9.538   0.731   7.965  0.6152  1.0642  1.3929
  339MOL0     H46719   9.715   0.756   7.800 -0.1610 -1.1859 -0.2119
  339MOL0     H46720   9.675   0.928   7.779  2.3912 -1.4639 -1.0745
  339MOL0     H46721   9.741   0.979   8.006  0.3930 -0.0549  1.4952
  339MOL0     H46722   9.771   0.812   8.047 -1.1770  2.1184  1.3549
  339MOL0     H46723   9.982   0.951   7.992 -1.7761 -1.5397  3.2924
  339MOL0     H46724   9.914   0.955   7.821 -2.2288 -2.0823 -0.8927
  339MOL0     H46725  10.000   0.721   7.993  0.0485  2.5489  0.8951
  339MOL0     H46726   9.928   0.713   7.830 -1.2957  1.0666  2.0492
  339MOL0     H46727  10.192   0.866   7.900  1.5599 -3.3683  1.4200
  339MOL0     H46728  10.121   0.838   7.744  1.3358 -0.8673  0.2218
  339MOL0     H46729  10.248   0.624   7.943  3.0395 -4.2946 -1.9272
  339MOL0     H46730  10.145   0.579   7.810 -1.7785  1.1741  2.3277
  339MOL0     H46731  10.421   0.841   7.824 -4.1706 -2.3751  2.8903
  339MOL0     H46732  10.620   0.910   7.624  3.3725  0.4224 -0.9641
  339MOL0     H46733  10.655   0.764   7.516 -2.5762 -0.0412 -0.8592
  339MOL0     H46734  10.721   0.796   7.815 -1.5420 -0.2666 -0.0380
  339MOL0     H46735  10.766   0.663   7.718 -0.7950  0.0961  1.4890
  339MOL0     H46736  10.917   0.814   7.580  1.8636 -2.1124  0.5489
  339MOL0     H46737  10.859   0.953   7.680  0.5866  0.6673  1.8141
  339MOL0     H46738  11.075   0.895   7.761  2.9941 -1.9364  1.0978
  339MOL0     H46739  10.952   0.869   7.880  2.5033 -0.0163  1.5593
  339MOL0     H46740  11.184   0.815   7.990  2.3541  1.0213  0.9723
  339MOL0     H46741  11.355   0.868   8.109  0.0678  0.5102 -0.1851
  339MOL0     H46742  11.525   0.854   8.050 -0.0258 -0.4579  0.9865
  339MOL0     H46743  11.451   0.722   8.152 -0.7429 -1.5078 -0.7334
  339MOL0     H46744  11.753   0.453   8.013  3.6966  2.3388  1.3942
  339MOL0     H46745  11.967   0.351   8.066  0.6230 -0.7933  0.1081
  339MOL0     H46746  12.107   0.169   8.023 -1.3857  2.4572 -0.5439
  339MOL0     H46747  12.082   0.098   7.856 -1.0026  0.7044  0.0608
  339MOL0     H46748  12.266   0.017   7.999 -3.0539  0.5942  0.4420
  339MOL0     H46749  12.328   0.064   7.839  0.9177 -0.6532  0.3933
  339MOL0     H46750  12.341   0.259   8.074  0.9742 -1.3252  0.7758
  339MOL0     H46751  12.398   0.287   7.912 -1.4073 -0.5340 -1.1686
  339MOL0     H46752  12.564   0.085   7.962  2.1822 -1.0488  0.1738
  339MOL0     H46753  12.502   0.090   8.124 -0.5778  0.8483  0.0010
  339MOL0     H46754  12.702   0.223   8.106 -0.7999 -0.6274  0.9953
  339MOL0     H46755  12.657   0.316   7.977  1.1585 -1.4816  0.2548
  339MOL0     H46756  12.485   0.428   8.140  0.7322  0.1885 -1.4084
  339MOL0     H46757  12.654   0.438   8.182 -0.2783  1.4504  1.1092
  339MOL0     H46758  12.583   0.218   8.329 -0.2554  0.2546  3.2054
  339MOL0     H46759  12.418   0.295   8.317  0.1485 -0.6869  1.0007
  339MOL0     H46760  12.509   0.367   8.513  3.5191 -1.4723  2.4543
  339MOL0     H46761  12.531   0.500   8.402 -3.1873 -1.7911  0.8303
  339MOL0     H46762  12.012   0.308   7.627  1.1815 -1.1614  1.2844
  339MOL0     H46763  11.799   0.406   7.585  1.7687 -1.1985  0.3787
  339MOL0     H46764  11.417   0.509   7.690  0.4522 -0.4185  0.3787
  339MOL0     H46765  11.186   0.528   7.664 -0.1895 -1.0950  0.3979
  339MOL0     H46766   9.130   0.603   7.959  0.8966  0.5388  0.6203
  339MOL0     H46767   8.936   0.696   8.095 -0.4746  0.4220 -0.3928
  339MOL0     H46768   8.695   0.866   8.267  1.2067  1.1571 -1.2390
  339MOL0     H46769   8.485   0.876   8.380  0.7295 -3.7450 -3.6566
  339MOL0     H46770   8.255   0.928   8.471 -1.3521 -0.4894 -1.7645
  339MOL0     H46771   8.368   1.055   8.507 -0.3190 -3.2814  0.6442
  339MOL0     H46772   8.173   1.109   8.640 -1.0807  1.0481  0.8630
  339MOL0     H46773   8.062   1.075   8.515  0.4096 -1.6818  5.4377
  339MOL0     H46774   8.135   1.332   8.564 -0.7156 -0.2828 -1.3241
  339MOL0     H46775   8.285   1.279   8.476 -0.1803 -1.4145 -0.8309
  339MOL0     H46776   7.999   1.242   8.380  0.7530 -2.9685 -1.7329
  339MOL0     H46777   8.137   1.247   8.273 -1.7816 -2.5524 -0.3639
  339MOL0     H46778   8.073   1.663   8.314 -0.3637  0.8329  2.6393
  339MOL0     H46779   8.354   1.189   8.113 -0.5430 -1.3055 -0.8731
  339MOL0     H46780   8.516   1.134   7.876 -2.4223 -0.6142  2.1196
  339MOL0     H46781   8.508   1.286   7.962 -1.3343 -1.3322  0.9153
  339MOL0     H46782   8.664   1.225   7.941 -1.2853  2.1909 -0.2342
  340MOL0     O46783   6.619   6.805   7.101  0.6392  0.6932  0.2198
  340MOL0     C46784   6.595   6.688   7.073  0.3776 -0.7801 -0.1217
  340MOL0     O46785   6.691   6.597   7.061 -0.4641 -0.2936  0.7587
  340MOL0     C46786   6.819   6.625   7.064 -0.8887  0.1095 -0.4154
  340MOL0     C46787   6.898   6.637   6.944 -0.0388 -0.0975 -0.6096
  340MOL0     C46788   7.033   6.673   6.959  0.6988  0.0919  0.3362
  340MOL0     C46789   7.083   6.716   7.071 -0.3954  0.1954  0.0109
  340MOL0     O46790   7.203   6.779   7.062 -0.0039 -0.6492  0.2613
  340MOL0     C46791   7.311   6.682   7.051 -0.2285 -0.2858 -0.1366
  340MOL0     C46792   7.439   6.747   7.113 -0.7199  0.5939  0.6718
  340MOL0     C46793   7.564   6.666   7.072  0.4906 -1.1223 -1.1298
  340MOL0     C46794   7.693   6.712   7.137  0.0917 -0.7847  0.4388
  340MOL0     C46795   7.819   6.644   7.091 -0.5290  0.0633  0.3902
  340MOL0     C46796   7.937   6.697   7.168 -0.2652 -0.6087 -0.2341
  340MOL0     C46797   8.067   6.633   7.105  0.0528 -0.9628  0.3324
  340MOL0     C46798   8.194   6.670   7.177 -0.5558  0.0891  0.4555
  340MOL0     N46799   8.324   6.647   7.109 -0.1960 -0.8063 -0.3898
  340MOL0     C46800   8.381   6.526   7.074  0.1359  0.4680 -0.3103
  340MOL0     C46801   8.494   6.565   7.018 -0.5259  0.8186 -0.3726
  340MOL0     C46802   8.613   6.483   6.982 -0.0973 -0.0421  0.6241
  340MOL0     C46803   8.670   6.396   7.094  0.6842 -0.2359 -0.6740
  340MOL0     C46804   8.757   6.476   7.188 -0.7398 -0.2623  0.7387
  340MOL0     C46805   8.809   6.388   7.295  0.1640  0.5740 -0.1258
  340MOL0     O46806   8.903   6.457   7.372 -0.3492  0.2663  0.0125
  340MOL0     C46807   9.039   6.419   7.367 -0.0395 -0.3512 -0.1288
  340MOL0     C46808   9.124   6.456   7.474 -0.0677 -0.4012 -0.4466
  340MOL0     C46809   9.262   6.435   7.467 -0.3618 -0.0102 -0.3209
  340MOL0     C46810   9.329   6.511   7.578  0.0618 -0.3705 -0.3669
  340MOL0     C46811   9.320   6.360   7.370  0.1395 -0.0592  0.2933
  340MOL0     C46812   9.459   6.309   7.376  0.3251  0.3199  0.0840
  340MOL0     O46813   9.509   6.304   7.503 -0.1679 -0.2754  0.1819
  340MOL0     C46814   9.612   6.223   7.529  0.2351 -0.1668 -0.3176
  340MOL0     C46815   9.601   6.097   7.603  0.4989 -0.6229  0.4263
  340MOL0     C46816   9.713   6.013   7.623  1.5967  0.1540 -0.5360
  340MOL0     C46817   9.838   6.054   7.576  0.7723  0.0936  0.1502
  340MOL0     O46818   9.957   5.988   7.610 -0.0809  0.0181  0.1449
  340MOL0     C46819   9.964   5.861   7.674 -0.5882  0.3225 -0.2458
  340MOL0     C46820  10.111   5.817   7.663  0.2229 -0.3323  0.2196
  340MOL0     C46821  10.115   5.682   7.724 -0.4196  0.2697 -0.4540
  340MOL0     C46822  10.249   5.603   7.732  0.0462 -0.7929 -0.1584
  340MOL0     C46823  10.241   5.485   7.827 -0.6540  0.6344 -0.2438
  340MOL0     C46824  10.360   5.389   7.820 -0.2223 -0.4964 -0.9406
  340MOL0     C46825  10.365   5.294   7.952  0.5929  0.0789  0.2827
  340MOL0     C46826  10.244   5.190   7.964 -0.0642  0.1631  0.5722
  340MOL0    Cl46827  10.230   5.086   7.821  0.1407  0.1106  0.0527
  340MOL0     C46828   9.847   6.175   7.506 -0.6752  0.0450  0.2413
  340MOL0     C46829   9.740   6.265   7.481 -0.6887 -0.4289 -1.2568
  340MOL0     O46830   9.511   6.266   7.276 -0.1829 -0.2275  0.3424
  340MOL0     C46831   9.231   6.327   7.266 -0.1318  0.3853  0.2063
  340MOL0     C46832   9.099   6.350   7.261  0.1976  0.6240  0.0565
  340MOL0     N46833   8.505   6.700   7.022 -0.2130 -0.6718 -0.4665
  340MOL0     N46834   8.402   6.756   7.075  0.4358  0.0465 -0.1193
  340MOL0     C46835   7.007   6.730   7.187  0.6117  0.4245 -0.2825
  340MOL0     C46836   6.875   6.676   7.187 -0.4497  0.0023  0.3152
  340MOL0     C46837   6.460   6.638   7.077  0.3880 -0.3467 -0.7504
  340MOL0     C46838   6.437   6.517   7.013 -1.0014 -0.2468 -0.0313
  340MOL0     C46839   6.307   6.457   7.003 -0.8351  0.6608 -0.1918
  340MOL0     C46840   6.208   6.519   7.064 -0.5303  0.4276 -0.3867
  340MOL0     O46841   6.090   6.453   7.071  0.0224 -0.8381  0.0194
  340MOL0     C46842   5.999   6.513   6.987 -0.1248 -0.0395  0.3687
  340MOL0     C46843   5.873   6.530   7.066  0.1424 -0.1789  1.4579
  340MOL0     C46844   5.758   6.583   6.988 -0.4642 -0.4745 -0.0273
  340MOL0     C46845   5.622   6.599   7.059  0.3612  0.0201 -0.2495
  340MOL0     C46846   5.502   6.564   6.976 -1.1238  0.4870 -0.1260
  340MOL0     C46847   5.409   6.522   6.914  0.0376  0.4813 -0.0641
  340MOL0     C46848   6.224   6.653   7.112 -0.1833  0.1044  0.6201
  340MOL0     C46849   6.347   6.711   7.122 -0.1471  0.0290 -0.4161
  340MOL0     C46850   6.349   6.843   7.202 -0.0497  0.3728  0.7520
  340MOL0     H46851   6.857   6.611   6.848  0.8383 -1.4722 -0.6274
  340MOL0     H46852   7.100   6.677   6.875  1.8596 -0.2340  1.2215
  340MOL0     H46853   7.330   6.638   6.953  2.7617 -0.7729  0.5464
  340MOL0     H46854   7.281   6.601   7.119  0.1456 -0.0478  0.3245
  340MOL0     H46855   7.446   6.851   7.077 -3.3175  1.7021  2.9953
  340MOL0     H46856   7.431   6.742   7.222  3.1762 -3.6426  1.0353
  340MOL0     H46857   7.551   6.561   7.099 -0.4103 -0.6170  0.5781
  340MOL0     H46858   7.573   6.670   6.963  0.1849 -2.5447 -1.2234
  340MOL0     H46859   7.717   6.817   7.115  0.8465 -1.2643 -1.1961
  340MOL0     H46860   7.679   6.691   7.243  3.5021  2.2550  1.6948
  340MOL0     H46861   7.829   6.654   6.983 -1.4299 -2.9980 -0.0659
  340MOL0     H46862   7.814   6.537   7.109 -2.3711  0.2285  1.0118
  340MOL0     H46863   7.951   6.804   7.151 -1.4407 -0.5821 -1.2058
  340MOL0     H46864   7.916   6.665   7.270 -1.5127 -1.1198 -0.6359
  340MOL0     H46865   8.063   6.661   6.999  0.3153 -0.7055  0.3909
  340MOL0     H46866   8.058   6.524   7.108 -0.8602 -1.1680 -3.6474
  340MOL0     H46867   8.191   6.774   7.208 -2.2242  0.4713 -0.8439
  340MOL0     H46868   8.187   6.593   7.254  0.1061 -0.8216 -0.3607
  340MOL0     H46869   8.344   6.426   7.098  1.4677  0.8289  4.0034
  340MOL0     H46870   8.686   6.552   6.939 -1.2524  0.4216 -0.6609
  340MOL0     H46871   8.593   6.412   6.902 -1.7119  0.4589  0.5361
  340MOL0     H46872   8.589   6.340   7.141 -0.2745  0.4569 -1.4449
  340MOL0     H46873   8.735   6.320   7.051  3.5286  1.7936 -0.2648
  340MOL0     H46874   8.846   6.516   7.138 -0.0821 -1.0695  1.2481
  340MOL0     H46875   8.704   6.558   7.237  2.8525  2.1478  1.0275
  340MOL0     H46876   8.726   6.360   7.360  0.1352  3.5085  1.2579
  340MOL0     H46877   8.858   6.296   7.263  4.6692  2.4116  0.6479
  340MOL0     H46878   9.078   6.491   7.566 -0.7504 -1.4008 -0.3984
  340MOL0     H46879   9.291   6.614   7.578 -0.7795 -0.4826  3.7849
  340MOL0     H46880   9.437   6.519   7.570  0.3914 -2.2956  1.3477
  340MOL0     H46881   9.305   6.460   7.672 -1.6026 -0.3767 -0.7596
  340MOL0     H46882   9.501   6.064   7.628  0.7943 -1.8269  0.0584
  340MOL0     H46883   9.699   5.915   7.668 -0.0647  0.9326  0.7183
  340MOL0     H46884   9.943   5.858   7.782  1.1220 -0.0609  0.1119
  340MOL0     H46885   9.903   5.779   7.635 -0.6732 -1.5939  3.4357
  340MOL0     H46886  10.125   5.811   7.554 -0.5882 -0.7547  0.1308
  340MOL0     H46887  10.190   5.880   7.704  0.5610  0.0745 -1.0027
  340MOL0     H46888  10.048   5.608   7.680  0.8670 -0.9613 -0.4422
  340MOL0     H46889  10.078   5.690   7.827 -0.5802 -3.8045 -0.0142
  340MOL0     H46890  10.330   5.671   7.761  0.2288 -1.1130  0.0868
  340MOL0     H46891  10.284   5.572   7.633 -1.2383  1.2354 -1.2985
  340MOL0     H46892  10.239   5.531   7.926  0.1026  0.1145  0.0146
  340MOL0     H46893  10.155   5.419   7.811  0.8070 -0.5513 -4.6627
  340MOL0     H46894  10.447   5.454   7.803 -0.4793 -0.6136 -2.8992
  340MOL0     H46895  10.354   5.323   7.733 -3.4161 -0.2239 -1.0202
  340MOL0     H46896  10.374   5.358   8.040 -1.3954  0.2654  0.3777
  340MOL0     H46897  10.459   5.238   7.939  0.4719  0.5024 -3.7847
  340MOL0     H46898  10.154   5.251   7.977  0.6933  1.7440 -1.1165
  340MOL0     H46899  10.261   5.115   8.041  1.4756 -0.3993 -0.2750
  340MOL0     H46900   9.939   6.217   7.467 -0.4956 -0.1372  0.4642
  340MOL0     H46901   9.745   6.370   7.453 -2.8007 -0.7962 -3.3131
  340MOL0     H46902   9.267   6.259   7.190 -1.4249  0.5139 -0.5503
  340MOL0     H46903   9.036   6.318   7.178 -0.5037  2.4117 -0.1254
  340MOL0     H46904   7.036   6.777   7.280 -0.0814  0.1523  0.0789
  340MOL0     H46905   6.812   6.682   7.275 -1.7509  3.3335 -0.6654
  340MOL0     H46906   6.522   6.455   6.988  0.2042  1.1899  0.4063
  340MOL0     H46907   6.297   6.363   6.950  1.2751  0.2906 -0.0294
  340MOL0     H46908   6.028   6.616   6.962  1.6149 -1.1724 -2.8293
  340MOL0     H46909   5.984   6.451   6.898 -0.5726  1.9778 -1.0268
  340MOL0     H46910   5.889   6.596   7.152 -0.3263  3.4997 -1.0855
  340MOL0     H46911   5.847   6.431   7.105  2.1246 -1.9567 -1.3379
  340MOL0     H46912   5.790   6.678   6.946  0.6744  0.1844  2.2177
  340MOL0     H46913   5.742   6.513   6.905 -1.8306 -2.9553  2.1710
  340MOL0     H46914   5.613   6.704   7.091  0.4211 -0.6679  2.2901
  340MOL0     H46915   5.619   6.545   7.154  0.3645  0.5376  0.0521
  340MOL0     H46916   5.328   6.487   6.853  1.1758 -1.3521 -0.5776
  340MOL0     H46917   6.141   6.710   7.152  1.0473  0.8073  2.3186
  340MOL0     H46918   6.246   6.871   7.228 -0.4602  1.6748 -1.9701
  340MOL0     H46919   6.413   6.822   7.289  0.2036 -0.6050  0.3434
  340MOL0     H46920   6.387   6.921   7.136  1.4278 -0.5301  0.4832
  341MOL0     O46921   5.935   5.023  10.823 -0.3044 -0.1954  0.0960
  341MOL0     C46922   5.881   5.131  10.850 -0.5801  0.2756 -0.4070
  341MOL0     O46923   5.939   5.255  10.832  0.1695  0.2302 -0.0934
  341MOL0     C46924   6.063   5.271  10.794 -0.4009  1.0009 -0.8216
  341MOL0     C46925   6.085   5.336  10.675  0.2050 -0.5262  0.1547
  341MOL0     C46926   6.218   5.353  10.628 -0.2003  0.2369  0.2098
  341MOL0     C46927   6.321   5.292  10.699  0.0468 -0.2648 -0.5951
  341MOL0     O46928   6.453   5.287  10.646  0.0725 -0.9060 -0.1673
  341MOL0     C46929   6.453   5.270  10.499  0.3815  0.3224  0.6050
  341MOL0     C46930   6.594   5.241  10.445  0.2071 -0.5892  0.1237
  341MOL0     C46931   6.592   5.275  10.296 -0.2180  0.0011 -0.2841
  341MOL0     C46932   6.678   5.181  10.211  0.4715 -0.5479  0.6412
  341MOL0     C46933   6.832   5.198  10.245 -0.6188  0.1919 -0.1535
  341MOL0     C46934   6.908   5.337  10.229 -0.0525 -0.5324  0.3717
  341MOL0     C46935   6.933   5.382  10.077 -0.0936 -0.2787 -0.2901
  341MOL0     C46936   6.980   5.527  10.074 -0.3094  0.6208  0.2731
  341MOL0     N46937   7.048   5.551   9.943  0.9197 -0.1096 -0.0549
  341MOL0     C46938   7.179   5.535   9.925 -0.9531  0.7411  0.1430
  341MOL0     C46939   7.210   5.598   9.805  0.0976 -0.6727 -0.2586
  341MOL0     C46940   7.343   5.611   9.732  0.5355  0.6789  0.5778
  341MOL0     C46941   7.452   5.649   9.825 -0.6765 -0.1465 -0.9126
  341MOL0     C46942   7.590   5.663   9.753  0.0937  0.0459 -0.5230
  341MOL0     C46943   7.696   5.671   9.858  0.0310 -0.0128  0.4562
  341MOL0     O46944   7.710   5.550   9.938 -0.4723  0.0314  0.0636
  341MOL0     C46945   7.825   5.532  10.008 -0.5321 -0.4654 -0.1605
  341MOL0     C46946   7.820   5.493  10.138  0.1958  0.0261  0.0733
  341MOL0     C46947   7.930   5.468  10.217 -0.0058 -0.3731 -0.5806
  341MOL0     C46948   7.906   5.432  10.357 -1.0049  0.2318  0.2092
  341MOL0     C46949   8.053   5.495  10.163 -0.0720  0.0172  0.0874
  341MOL0     C46950   8.189   5.463  10.232  0.2467  0.0956 -0.4222
  341MOL0     O46951   8.304   5.490  10.168  0.2467 -0.3765  0.0588
  341MOL0     C46952   8.424   5.463  10.225 -0.3395  0.7752 -0.0880
  341MOL0     C46953   8.453   5.357  10.322  0.3741 -0.3402  0.4898
  341MOL0     C46954   8.581   5.347  10.372 -0.9721 -0.1410 -0.6230
  341MOL0     C46955   8.678   5.435  10.325  0.2522  0.3942  0.5071
  341MOL0     O46956   8.801   5.419  10.385  0.1837  0.8787 -0.6980
  341MOL0     C46957   8.931   5.423  10.322 -0.2495 -0.3009  1.2203
  341MOL0     C46958   9.034   5.387  10.428  0.0475 -0.3498 -0.4519
  341MOL0     C46959   9.014   5.242  10.484  0.0040 -0.1625 -0.1123
  341MOL0     C46960   9.147   5.193  10.552  0.6911 -0.0485  0.1787
  341MOL0     C46961   9.123   5.052  10.612  1.0952  0.0408 -0.0877
  341MOL0     C46962   9.237   5.013  10.714 -0.6540  0.2842 -0.0382
  341MOL0     C46963   9.365   4.964  10.642 -0.1873  0.2681 -0.0014
  341MOL0     C46964   9.465   4.901  10.740  0.6422  0.1111  0.3052
  341MOL0    Cl46965   9.495   4.982  10.892 -0.1936  0.0952  0.0941
  341MOL0     C46966   8.660   5.528  10.218 -0.2881 -0.6263 -0.2837
  341MOL0     C46967   8.530   5.545  10.177 -0.4002  0.3223  0.4584
  341MOL0     O46968   8.181   5.437  10.349 -0.1079 -0.2563 -0.0313
  341MOL0     C46969   8.060   5.539  10.029 -0.5933  0.1380  0.3345
  341MOL0     C46970   7.950   5.555   9.948 -0.2227 -0.4303 -0.3271
  341MOL0     N46971   7.089   5.647   9.753  0.1926 -0.6040  0.2179
  341MOL0     N46972   6.994   5.610   9.834 -0.0530 -0.2866 -0.1216
  341MOL0     C46973   6.295   5.225  10.818  0.4493  0.1234 -0.2439
  341MOL0     C46974   6.164   5.225  10.868 -0.2161 -0.4777 -1.0941
  341MOL0     C46975   5.740   5.125  10.897  0.7092 -0.4047  0.5514
  341MOL0     C46976   5.661   5.243  10.885 -0.4616  0.0038  0.1665
  341MOL0     C46977   5.525   5.243  10.923  0.6120 -0.3020 -0.1774
  341MOL0     C46978   5.464   5.128  10.970 -0.2355  0.3566  0.1181
  341MOL0     O46979   5.333   5.129  11.019  0.2785 -0.3069  0.5016
  341MOL0     C46980   5.322   5.206  11.133 -0.5006  0.0972 -0.2660
  341MOL0     C46981   5.179   5.212  11.182 -0.2615  0.0335 -0.7567
  341MOL0     C46982   5.071   5.271  11.088 -0.9660  0.0137  0.0969
  341MOL0     C46983   4.928   5.229  11.125  0.0907 -0.6000 -0.2252
  341MOL0     C46984   4.901   5.090  11.091  0.4645 -0.1529  0.2395
  341MOL0     C46985   4.895   4.965  11.077 -0.5578  0.1999  0.6713
  341MOL0     C46986   5.542   5.014  10.994 -0.5514 -0.0312 -0.5239
  341MOL0     C46987   5.677   5.013  10.944  0.1910 -1.0560  0.3595
  341MOL0     C46988   5.739   4.871  10.951 -0.1563 -1.7395 -0.4222
  341MOL0     H46989   5.994   5.374  10.631 -1.4339 -2.6035  1.5209
  341MOL0     H46990   6.243   5.414  10.541  1.3557  0.8500  1.0332
  341MOL0     H46991   6.422   5.366  10.457  1.3321  0.1888 -0.4511
  341MOL0     H46992   6.385   5.188  10.472  0.8516  0.7484 -2.2301
  341MOL0     H46993   6.666   5.310  10.490  0.4048 -1.8842  1.9381
  341MOL0     H46994   6.630   5.141  10.471  1.2914 -0.4758 -0.9093
  341MOL0     H46995   6.489   5.269  10.261 -0.4900  0.9839  0.3121
  341MOL0     H46996   6.628   5.378  10.286  1.4136 -0.2864  1.8502
  341MOL0     H46997   6.655   5.077  10.236  0.5419 -0.3724  1.4685
  341MOL0     H46998   6.667   5.189  10.102 -1.3141 -2.1985  0.6358
  341MOL0     H46999   6.890   5.124  10.189  1.3096  1.6297 -0.1169
  341MOL0     H47000   6.842   5.168  10.350  1.6935 -1.1569 -0.6982
  341MOL0     H47001   6.842   5.411  10.274  1.6227 -0.2656  2.5504
  341MOL0     H47002   7.005   5.341  10.280 -0.5015 -1.5335  1.3497
  341MOL0     H47003   6.833   5.378  10.034 -0.6478  0.5822  0.8374
  341MOL0     H47004   7.004   5.312  10.033  3.2695  3.0652 -0.7113
  341MOL0     H47005   6.893   5.592  10.088  0.9073  2.2295  0.6948
  341MOL0     H47006   7.054   5.558  10.148 -1.5511  0.6951  1.5230
  341MOL0     H47007   7.253   5.484   9.985  0.9984 -0.0742 -2.7362
  341MOL0     H47008   7.335   5.678   9.646  0.9764  1.0851  0.8470
  341MOL0     H47009   7.372   5.520   9.679  1.4155  1.8521 -1.0428
  341MOL0     H47010   7.420   5.742   9.874 -1.8223 -1.1688  0.3580
  341MOL0     H47011   7.460   5.576   9.905 -0.8113  1.4536  0.6350
  341MOL0     H47012   7.609   5.573   9.695 -3.5012  0.4066 -2.5910
  341MOL0     H47013   7.587   5.746   9.682 -0.3113 -0.0150 -0.5808
  341MOL0     H47014   7.785   5.685   9.797  0.3980 -1.5075  0.6111
  341MOL0     H47015   7.675   5.759   9.919 -3.0020  0.0701 -0.5127
  341MOL0     H47016   7.719   5.489  10.178 -0.1273 -5.6539 -0.5200
  341MOL0     H47017   7.928   5.525  10.410  0.5443  1.8379 -2.9994
  341MOL0     H47018   7.966   5.345  10.384 -1.7822 -0.7411 -1.0536
  341MOL0     H47019   7.802   5.405  10.374 -1.4472  1.8969  0.3623
  341MOL0     H47020   8.379   5.283  10.352 -0.3890  0.6966  1.2106
  341MOL0     H47021   8.606   5.262  10.435 -1.4423 -3.0137 -4.0435
  341MOL0     H47022   8.927   5.353  10.238  0.0675  1.4615 -0.3203
  341MOL0     H47023   8.948   5.525  10.285 -1.0873 -1.0801 -1.5270
  341MOL0     H47024   9.135   5.391  10.387 -0.2559  0.1347 -1.1738
  341MOL0     H47025   9.035   5.460  10.510 -3.0014 -3.2060  2.4777
  341MOL0     H47026   8.970   5.173  10.412 -1.7204  2.1781 -1.4321
  341MOL0     H47027   8.936   5.245  10.561  0.4380 -2.7924  0.5319
  341MOL0     H47028   9.181   5.263  10.629  0.0289  3.2996 -2.3485
  341MOL0     H47029   9.219   5.182  10.471 -1.5173 -0.4219 -1.8609
  341MOL0     H47030   9.022   5.042  10.653 -0.2806 -0.4120 -3.3062
  341MOL0     H47031   9.118   4.980  10.529  1.2950  1.6332 -1.5365
  341MOL0     H47032   9.198   4.935  10.780  0.4626  0.4581  0.8550
  341MOL0     H47033   9.265   5.101  10.774  1.4891  1.5367 -2.6515
  341MOL0     H47034   9.414   5.044  10.586  3.3742 -0.1337  2.2084
  341MOL0     H47035   9.327   4.894  10.567  0.4426 -0.3125  0.2149
  341MOL0     H47036   9.556   4.892  10.681  0.4586 -2.6640  0.3068
  341MOL0     H47037   9.432   4.800  10.769  3.3816 -2.7937 -5.1087
  341MOL0     H47038   8.734   5.598  10.183 -2.3349  2.1202  0.5448
  341MOL0     H47039   8.503   5.620  10.103  1.7268  1.1952  0.5108
  341MOL0     H47040   8.163   5.549   9.994 -0.2242 -2.6830  0.3871
  341MOL0     H47041   7.956   5.574   9.841  0.9512  2.8433  0.2011
  341MOL0     H47042   6.382   5.177  10.863 -0.9372 -1.4068  0.9240
  341MOL0     H47043   6.130   5.172  10.956 -2.1899  2.0963 -0.1662
  341MOL0     H47044   5.699   5.328  10.830 -0.0915 -0.2258  0.0657
  341MOL0     H47045   5.463   5.324  10.886  0.2235 -0.2870  0.5077
  341MOL0     H47046   5.384   5.158  11.209 -0.1426  1.0272  0.0406
  341MOL0     H47047   5.358   5.308  11.114  1.0387 -0.1726  0.9956
  341MOL0     H47048   5.184   5.279  11.268  0.9583 -0.9286 -0.0374
  341MOL0     H47049   5.151   5.114  11.221 -0.2084  0.0302 -0.7263
  341MOL0     H47050   5.083   5.379  11.082 -0.2976 -0.0845 -0.4305
  341MOL0     H47051   5.097   5.235  10.988  0.0436 -0.3574  0.4834
  341MOL0     H47052   4.865   5.289  11.059 -0.7813  0.3502  1.3967
  341MOL0     H47053   4.904   5.244  11.231  1.8097 -1.4426  0.3255
  341MOL0     H47054   4.891   4.858  11.071 -1.4248 -0.0272  3.7188
  341MOL0     H47055   5.495   4.924  11.031  0.2072 -0.4105 -0.4714
  341MOL0     H47056   5.767   4.840  10.850 -0.3018  0.3218 -1.1490
  341MOL0     H47057   5.829   4.869  11.015 -0.4457 -0.2590  0.0679
  341MOL0     H47058   5.664   4.803  10.991 -1.1916 -0.8653 -0.8508
  342MOL0     O47059   9.499   9.546   9.899  0.2656  0.9336 -0.4355
  342MOL0     C47060   9.453   9.538  10.010  0.4097 -0.3476 -0.2568
  342MOL0     O47061   9.518   9.565  10.126 -0.2544  0.2175 -0.0313
  342MOL0     C47062   9.648   9.613  10.132  0.5534  0.5390  0.5722
  342MOL0     C47063   9.664   9.748  10.139 -0.1100 -0.2875 -0.1662
  342MOL0     C47064   9.788   9.804  10.152  0.8318 -0.3382  0.2966
  342MOL0     C47065   9.899   9.719  10.154 -0.0609  0.4216  0.1283
  342MOL0     O47066  10.024   9.785  10.158  0.4554 -0.1631 -0.5442
  342MOL0     C47067  10.129   9.722  10.235  0.4156 -0.5436 -0.6313
  342MOL0     C47068  10.208   9.837  10.298 -0.1265  0.1397  0.3002
  342MOL0     C47069  10.133   9.951  10.362 -0.6673 -0.3865 -0.7090
  342MOL0     C47070  10.044   9.907  10.480  0.0518  0.1925 -0.5018
  342MOL0     C47071  10.006  10.034  10.559  0.1831  0.0532  0.2967
  342MOL0     C47072  10.114  10.093  10.651  0.5665 -1.1952  0.3124
  342MOL0     C47073  10.053  10.203  10.727  0.1941 -0.6201 -0.4931
  342MOL0     C47074  10.144  10.311  10.776  0.7159 -0.0616 -0.4550
  342MOL0     N47075  10.246  10.253  10.867 -0.4793 -0.5511  0.0987
  342MOL0     C47076  10.379  10.242  10.841 -0.4856  0.5454 -0.1546
  342MOL0     C47077  10.440  10.236  10.964  0.5345  0.6155 -0.4150
  342MOL0     C47078  10.590  10.232  11.001  0.4019  0.1481 -0.6868
  342MOL0     C47079  10.647  10.372  10.974 -0.4991 -0.0680  0.7096
  342MOL0     C47080  10.794  10.397  11.013 -0.9122 -0.0813 -0.0363
  342MOL0     C47081  10.825  10.361  11.161 -0.0288  0.1240  0.2043
  342MOL0     O47082  10.972  10.349  11.172  0.0573 -0.1856 -0.7052
  342MOL0     C47083  11.031  10.351  11.293 -0.4295 -0.1004 -0.5162
  342MOL0     C47084  11.162  10.311  11.303  0.0350 -0.1985 -0.4523
  342MOL0     C47085  11.236  10.307  11.416 -0.1524  0.3697  0.1301
  342MOL0     C47086  11.381  10.253  11.415 -0.3259 -0.4844 -0.4463
  342MOL0     C47087  11.164  10.347  11.532 -0.1568  0.3287 -0.3507
  342MOL0     C47088  11.221  10.331  11.668 -0.1562  0.0343 -0.1350
  342MOL0     O47089  11.172  10.423  11.765 -0.3209 -0.0056  0.4233
  342MOL0     C47090  11.237  10.429  11.889 -0.4981  1.1425 -0.1542
  342MOL0     C47091  11.162  10.423  12.012  0.1053  0.3553 -0.1182
  342MOL0     C47092  11.219  10.421  12.136  0.3017  0.1440 -0.4654
  342MOL0     C47093  11.362  10.390  12.144  0.1324  0.1789 -0.5952
  342MOL0     O47094  11.429  10.368  12.267  0.1746 -0.1093  0.1449
  342MOL0     C47095  11.380  10.430  12.389 -0.5398  0.4403  0.4772
  342MOL0     C47096  11.422  10.579  12.386  0.4577  0.2267 -0.7788
  342MOL0     C47097  11.357  10.666  12.493  0.0661  0.1546 -0.0371
  342MOL0     C47098  11.209  10.692  12.459 -0.5735 -0.5068 -0.1042
  342MOL0     C47099  11.118  10.720  12.576  0.4111  0.7476  0.5235
  342MOL0     C47100  11.011  10.822  12.543 -0.3178  0.0455  0.4825
  342MOL0     C47101  10.923  10.862  12.667  0.1062 -0.1957 -1.1019
  342MOL0     C47102  10.824  10.968  12.638  0.4263 -0.0500 -0.1357
  342MOL0    Cl47103  10.906  11.126  12.599 -0.1713  0.7278 -0.3472
  342MOL0     C47104  11.432  10.390  12.023 -0.9475 -0.0112  0.1685
  342MOL0     C47105  11.373  10.416  11.902 -0.7993  0.3265 -0.4191
  342MOL0     O47106  11.294  10.237  11.691 -0.2840  0.5542 -0.5720
  342MOL0     C47107  11.033  10.406  11.522  0.1764  0.2671 -0.2920
  342MOL0     C47108  10.970  10.407  11.398  0.2054 -0.6425 -0.3747
  342MOL0     N47109  10.338  10.202  11.051  0.1802 -0.5660 -0.0302
  342MOL0     N47110  10.225  10.224  10.993 -0.2930  0.7135  0.2782
  342MOL0     C47111   9.886   9.578  10.149  0.3781 -0.2443  0.0482
  342MOL0     C47112   9.756   9.528  10.146 -0.4861 -0.4340  0.0789
  342MOL0     C47113   9.308   9.500  10.022  0.2368 -0.7287  0.1591
  342MOL0     C47114   9.251   9.531  10.143  0.0635 -0.2188  0.6106
  342MOL0     C47115   9.114   9.504  10.164 -0.1999 -0.8062 -0.7506
  342MOL0     C47116   9.032   9.444  10.075  0.2166  0.1663 -0.3448
  342MOL0     O47117   8.893   9.426  10.089 -0.3765  0.1318  0.0519
  342MOL0     C47118   8.841   9.448  10.218 -0.0516 -0.4678  0.1237
  342MOL0     C47119   8.793   9.593  10.250 -0.2298  0.2210 -0.8411
  342MOL0     C47120   8.686   9.653  10.167  0.3837  0.9524 -0.0757
  342MOL0     C47121   8.549   9.578  10.153  0.5085  0.8650  0.0656
  342MOL0     C47122   8.487   9.516  10.276 -0.9954 -0.3933 -0.2365
  342MOL0     C47123   8.464   9.446  10.369 -0.1973 -0.4026  0.5374
  342MOL0     C47124   9.101   9.406   9.960  0.7025  1.0166  0.2257
  342MOL0     C47125   9.233   9.425   9.927 -0.2189  0.3891  0.3530
  342MOL0     C47126   9.278   9.363   9.794  0.5989 -0.0732 -0.2198
  342MOL0     H47127   9.582   9.818  10.149  0.5610  0.1717  3.0888
  342MOL0     H47128   9.807   9.908  10.173  0.7679 -0.4066  0.6982
  342MOL0     H47129  10.199   9.676  10.164  0.1357 -1.1634 -0.5175
  342MOL0     H47130  10.098   9.658  10.319 -3.5493  0.4785 -1.0867
  342MOL0     H47131  10.278   9.796  10.372  0.6907 -2.6991 -1.8490
  342MOL0     H47132  10.250   9.895  10.215 -1.5288  2.4138  1.0791
  342MOL0     H47133  10.210  10.020  10.398  0.2624 -0.5635 -2.2354
  342MOL0     H47134  10.072  10.006  10.289 -0.8221 -0.8961 -0.9691
  342MOL0     H47135   9.954   9.851  10.457 -0.7100  0.1620  2.2549
  342MOL0     H47136  10.107   9.850  10.549 -1.0898  0.8161  1.1328
  342MOL0     H47137   9.919  10.010  10.620 -0.0738  1.6418  0.6128
  342MOL0     H47138   9.981  10.105  10.479  1.3957  1.9545  1.5361
  342MOL0     H47139  10.149  10.018  10.722  0.1027 -1.2203  0.5205
  342MOL0     H47140  10.204  10.114  10.593 -0.6461 -2.9518 -2.4279
  342MOL0     H47141  10.003  10.162  10.815 -1.5507  1.3814 -0.4761
  342MOL0     H47142   9.982  10.255  10.662 -0.8409 -0.7403  0.5240
  342MOL0     H47143  10.207  10.351  10.696  4.1530 -3.7307  0.1493
  342MOL0     H47144  10.095  10.399  10.820  0.9011  2.0341 -4.0666
  342MOL0     H47145  10.421  10.265  10.744 -2.0079  2.6239 -0.3945
  342MOL0     H47146  10.636  10.157  10.936 -2.2942 -0.7192 -1.7286
  342MOL0     H47147  10.594  10.196  11.105 -1.5991 -1.1273 -0.9880
  342MOL0     H47148  10.628  10.398  10.870  2.3246  1.8670  0.5960
  342MOL0     H47149  10.590  10.438  11.040 -0.8271  1.7314 -1.3012
  342MOL0     H47150  10.857  10.349  10.937 -1.9098  1.7484 -2.1257
  342MOL0     H47151  10.814  10.504  11.001 -3.4594  0.1280 -4.5581
  342MOL0     H47152  10.776  10.427  11.233 -1.7172  0.8225 -1.5185
  342MOL0     H47153  10.778  10.265  11.185 -1.0892  0.1279 -1.6459
  342MOL0     H47154  11.200  10.261  11.214 -0.4483 -0.9880 -0.2204
  342MOL0     H47155  11.449  10.329  11.455  1.3531 -2.3576  0.4244
  342MOL0     H47156  11.422  10.225  11.317  1.9436 -3.3116  1.1549
  342MOL0     H47157  11.392  10.166  11.480  1.6465 -0.1075 -0.2047
  342MOL0     H47158  11.054  10.407  12.009 -0.1064  1.4909  0.5336
  342MOL0     H47159  11.152  10.414  12.220 -1.3387 -0.8929 -1.8035
  342MOL0     H47160  11.272  10.416  12.393 -0.4064 -0.8767 -0.0251
  342MOL0     H47161  11.435  10.385  12.472 -0.8206 -0.0077  0.4205
  342MOL0     H47162  11.532  10.582  12.390  0.4298  0.6451 -0.1662
  342MOL0     H47163  11.387  10.635  12.299  1.7663 -1.5150 -2.5112
  342MOL0     H47164  11.405  10.764  12.500  0.0275  0.1828 -0.1489
  342MOL0     H47165  11.372  10.623  12.592  3.3798 -4.3698 -2.1715
  342MOL0     H47166  11.165  10.605  12.409 -0.8376 -1.1834  1.2527
  342MOL0     H47167  11.197  10.771  12.385 -1.5231 -0.1748  0.3901
  342MOL0     H47168  11.072  10.626  12.609 -0.7464  0.1671 -2.4419
  342MOL0     H47169  11.176  10.767  12.656  0.4098 -2.2976  2.4942
  342MOL0     H47170  10.942  10.777  12.470 -0.0275 -1.4072  1.0658
  342MOL0     H47171  11.052  10.910  12.492  1.4111 -2.2468 -2.4573
  342MOL0     H47172  10.987  10.894  12.751  0.9229  3.1165 -2.8156
  342MOL0     H47173  10.864  10.777  12.702  0.1585 -0.5203 -1.7963
  342MOL0     H47174  10.764  10.992  12.727  0.8590  1.2296 -0.1695
  342MOL0     H47175  10.769  10.938  12.549 -0.2883 -0.2503  0.3596
  342MOL0     H47176  11.536  10.362  12.018 -0.6140  1.3451 -1.2915
  342MOL0     H47177  11.435  10.440  11.816 -0.0380 -0.0976  0.0003
  342MOL0     H47178  10.984  10.430  11.616  0.7264 -1.5153  0.4941
  342MOL0     H47179  10.871  10.453  11.399  0.5143  0.0321 -0.1922
  342MOL0     H47180   9.970   9.509  10.149  1.1259  0.6460 -0.3175
  342MOL0     H47181   9.735   9.423  10.133 -0.9650 -0.0217 -3.2762
  342MOL0     H47182   9.312   9.577  10.220  0.2214 -0.4513  0.6237
  342MOL0     H47183   9.084   9.549  10.257 -1.4160 -0.3971 -1.3239
  342MOL0     H47184   8.762   9.374  10.228 -3.8016  3.1698  0.3835
  342MOL0     H47185   8.923   9.424  10.287 -0.5343 -1.7646  0.2574
  342MOL0     H47186   8.880   9.657  10.262  0.3203 -0.9037  1.8983
  342MOL0     H47187   8.753   9.592  10.352  1.1322  2.0054 -0.2450
  342MOL0     H47188   8.674   9.755  10.206 -2.5471  0.3769  0.7538
  342MOL0     H47189   8.715   9.660  10.062 -0.7141  0.0879 -0.4580
  342MOL0     H47190   8.576   9.494  10.089 -1.8317  1.2918 -1.6227
  342MOL0     H47191   8.476   9.643  10.103 -0.4567  1.6901  2.3870
  342MOL0     H47192   8.431   9.406  10.463 -0.6938 -0.6146  0.2764
  342MOL0     H47193   9.031   9.364   9.888  0.0948  1.0630  0.7806
  342MOL0     H47194   9.379   9.323   9.789  0.7450 -0.0566  1.8174
  342MOL0     H47195   9.212   9.278   9.776  0.1254  0.6261 -1.9843
  342MOL0     H47196   9.260   9.442   9.720 -0.8840 -0.8045 -0.6762
  343MOL0     O47197   8.988   5.266   0.522  0.1115 -0.1969  0.8157
  343MOL0     C47198   8.970   5.240   0.405 -0.6132 -0.4282  0.1866
  343MOL0     O47199   9.032   5.141   0.336 -0.3629 -0.4665  0.1665
  343MOL0     C47200   9.152   5.087   0.389 -1.1189 -0.2560 -0.2124
  343MOL0     C47201   9.192   4.961   0.353  1.4896 -0.3024 -1.0236
  343MOL0     C47202   9.305   4.905   0.398 -1.3683 -1.1273 -0.4337
  343MOL0     C47203   9.393   4.982   0.484  0.6491  0.6279  0.2754
  343MOL0     O47204   9.514   4.925   0.506  0.0684 -0.1010 -0.5333
  343MOL0     C47205   9.618   5.020   0.536  0.3538 -0.3749 -0.1918
  343MOL0     C47206   9.747   4.941   0.549  0.4284 -0.5676  0.7165
  343MOL0     C47207   9.874   5.028   0.565 -0.1658 -0.2586 -0.4953
  343MOL0     C47208   9.984   4.928   0.609  1.1145  0.8797 -0.0619
  343MOL0     C47209  10.126   4.985   0.616 -0.4280  0.1883 -0.6298
  343MOL0     C47210  10.232   4.875   0.627 -0.3417 -0.7012  0.5027
  343MOL0     C47211  10.377   4.941   0.593  0.4821  0.8035  0.3875
  343MOL0     C47212  10.480   4.827   0.575  0.8247  0.2354 -0.0480
  343MOL0     N47213  10.552   4.782   0.697 -0.0218 -0.0235  0.3877
  343MOL0     C47214  10.626   4.874   0.770  0.4745 -0.2460 -0.0009
  343MOL0     C47215  10.677   4.807   0.875  0.0687  0.1471  0.0709
  343MOL0     C47216  10.758   4.872   0.992  0.0245  1.2743  0.9457
  343MOL0     C47217  10.912   4.870   0.976  0.3967  0.0096  0.2449
  343MOL0     C47218  10.962   4.867   0.833 -0.3091 -0.1290  0.2149
  343MOL0     C47219  11.117   4.850   0.837  0.7208 -0.1414  1.0014
  343MOL0     O47220  11.152   4.713   0.842  0.2661  0.2516  0.3145
  343MOL0     C47221  11.284   4.691   0.817  0.2016  0.4430 -0.6437
  343MOL0     C47222  11.330   4.661   0.689 -0.1249  0.4502 -0.2150
  343MOL0     C47223  11.466   4.650   0.659 -0.4713 -0.1123  0.2232
  343MOL0     C47224  11.491   4.604   0.506 -0.8016 -0.5904 -0.0324
  343MOL0     C47225  11.565   4.650   0.766  0.5822  0.0065 -0.0830
  343MOL0     C47226  11.706   4.621   0.747 -0.0827  0.4490 -0.2053
  343MOL0     O47227  11.746   4.586   0.620 -0.9658 -0.3912  0.2468
  343MOL0     C47228  11.874   4.555   0.580  0.2873  0.4258 -0.0213
  343MOL0     C47229  11.931   4.608   0.468  0.5695  0.4295  0.7002
  343MOL0     C47230  12.071   4.594   0.432  0.9424 -0.3941 -0.4136
  343MOL0     C47231  12.147   4.506   0.497  0.2566  0.2508 -0.4459
  343MOL0     O47232  12.267   4.484   0.441 -0.7903 -0.1217 -0.2191
  343MOL0     C47233  12.352   4.400   0.524 -0.0042  0.0412 -0.0959
  343MOL0     C47234  12.500   4.398   0.479  0.7504  0.4087  0.2118
  343MOL0     C47235  12.593   4.394   0.594 -0.3325  0.0974  0.1507
  343MOL0     C47236  12.731   4.349   0.554 -0.0834 -0.0147  0.5749
  343MOL0     C47237  12.796   4.415   0.441 -0.3503 -0.1026  0.1619
  343MOL0     C47238  12.824   4.561   0.470 -0.1974  0.1633 -0.4016
  343MOL0     C47239  12.938   4.617   0.372 -0.6417  0.0201 -0.5727
  343MOL0     C47240  12.923   4.619   0.221  0.0746 -0.3795  0.5441
  343MOL0    Cl47241  12.850   4.765   0.153 -0.2176  0.1542  0.1005
  343MOL0     C47242  12.090   4.435   0.611 -0.1784 -0.0553 -0.1820
  343MOL0     C47243  11.957   4.459   0.651  0.2116 -0.1272 -0.4657
  343MOL0     O47244  11.779   4.633   0.847  0.6477 -0.3473 -0.2757
  343MOL0     C47245  11.511   4.685   0.898 -0.3379  1.1980  0.2654
  343MOL0     C47246  11.378   4.708   0.921 -0.3638  0.2281 -0.1165
  343MOL0     N47247  10.621   4.674   0.863  0.4958 -0.4239 -0.8428
  343MOL0     N47248  10.555   4.660   0.748  0.9149  0.4447  0.0383
  343MOL0     C47249   9.362   5.113   0.511  0.1573 -0.8327 -0.3652
  343MOL0     C47250   9.246   5.167   0.459  0.1168  0.3389 -0.6023
  343MOL0     C47251   8.857   5.314   0.341 -0.2798  0.3011  0.2562
  343MOL0     C47252   8.758   5.237   0.278  0.7691 -0.0507 -0.5397
  343MOL0     C47253   8.633   5.295   0.236 -0.8584  0.3397 -0.1852
  343MOL0     C47254   8.606   5.430   0.266  0.8220 -0.0198  0.5719
  343MOL0     O47255   8.488   5.486   0.229 -0.5552 -0.4742 -0.1969
  343MOL0     C47256   8.478   5.547   0.105 -0.5585 -0.4531  0.4029
  343MOL0     C47257   8.591   5.648   0.069 -0.7102 -0.2372  0.0955
  343MOL0     C47258   8.566   5.713  -0.067  0.0077 -0.7242 -0.9018
  343MOL0     C47259   8.689   5.739  -0.144 -0.3878  0.5178 -0.3926
  343MOL0     C47260   8.723   5.613  -0.219 -0.1742 -0.3191  0.1716
  343MOL0     C47261   8.757   5.518  -0.287 -0.9375  0.1503  0.5090
  343MOL0     C47262   8.703   5.506   0.326 -0.1459 -0.4257  0.5128
  343MOL0     C47263   8.832   5.447   0.355  0.7716  0.3393 -0.5870
  343MOL0     C47264   8.937   5.536   0.427 -0.2559  0.9837  0.3130
  343MOL0     H47265   9.132   4.904   0.283  0.2592  1.5727 -1.5590
  343MOL0     H47266   9.345   4.807   0.373  0.1090 -0.2670 -1.6023
  343MOL0     H47267   9.599   5.073   0.630 -0.2929 -3.4755  1.5803
  343MOL0     H47268   9.642   5.090   0.455  1.8770  1.8511  2.0427
  343MOL0     H47269   9.741   4.877   0.637  2.5680  0.1450  1.4352
  343MOL0     H47270   9.762   4.885   0.456  1.4616  0.6646  0.1006
  343MOL0     H47271   9.901   5.078   0.471  0.7644  1.8785  0.8521
  343MOL0     H47272   9.850   5.108   0.636 -1.4871 -1.3313  0.3196
  343MOL0     H47273   9.951   4.893   0.707  2.3338  1.7121  0.6759
  343MOL0     H47274   9.989   4.842   0.541 -0.1271  1.6180 -1.1343
  343MOL0     H47275  10.122   5.058   0.698  0.6847  0.9977 -1.2682
  343MOL0     H47276  10.145   5.025   0.516  0.8288 -0.1778 -0.5598
  343MOL0     H47277  10.225   4.830   0.727 -1.6444 -1.3825  0.1206
  343MOL0     H47278  10.219   4.789   0.562  0.5402 -2.0029  1.9572
  343MOL0     H47279  10.412   5.011   0.670 -0.1002 -0.2812  1.6820
  343MOL0     H47280  10.378   5.001   0.501  2.6626  3.8959  2.2143
  343MOL0     H47281  10.432   4.745   0.521  0.7764  1.2158 -1.5454
  343MOL0     H47282  10.555   4.858   0.501  1.0551 -2.8126 -1.2186
  343MOL0     H47283  10.639   4.979   0.746  1.3809 -0.6778 -1.4739
  343MOL0     H47284  10.731   4.824   1.086  1.6474 -1.0869  0.3040
  343MOL0     H47285  10.719   4.973   1.008 -3.0363 -0.1528  3.5235
  343MOL0     H47286  10.960   4.957   1.022  4.5082 -1.8174 -0.1675
  343MOL0     H47287  10.950   4.780   1.026 -0.7584 -0.0534  1.0727
  343MOL0     H47288  10.918   4.783   0.780  0.8436 -1.0634  0.7026
  343MOL0     H47289  10.927   4.958   0.783  1.0684  1.2520  1.6143
  343MOL0     H47290  11.144   4.894   0.741  1.5467 -3.0728 -0.2031
  343MOL0     H47291  11.177   4.905   0.910 -0.8535  3.3144 -0.0655
  343MOL0     H47292  11.258   4.631   0.614 -2.0089 -0.5672  1.9111
  343MOL0     H47293  11.523   4.500   0.506  0.2833 -0.2778  0.5266
  343MOL0     H47294  11.572   4.671   0.475  1.1853 -2.8361 -0.0003
  343MOL0     H47295  11.409   4.629   0.439 -0.6831 -0.9988 -0.3348
  343MOL0     H47296  11.876   4.680   0.409  1.1289  0.3692  0.0872
  343MOL0     H47297  12.120   4.639   0.347  0.3649 -0.4810 -0.7940
  343MOL0     H47298  12.344   4.427   0.629 -2.6324  1.7777 -0.6447
  343MOL0     H47299  12.323   4.295   0.508  1.9026 -0.3506 -1.3806
  343MOL0     H47300  12.524   4.308   0.421  0.2672  0.8107 -0.6309
  343MOL0     H47301  12.520   4.486   0.418  2.8577 -1.6766 -2.3455
  343MOL0     H47302  12.550   4.324   0.666  0.8134  0.7415  1.5081
  343MOL0     H47303  12.588   4.491   0.644 -0.2046 -1.1478  2.7377
  343MOL0     H47304  12.723   4.241   0.543  1.1590 -0.1916  1.2148
  343MOL0     H47305  12.796   4.365   0.641 -0.3186  0.9708  0.5802
  343MOL0     H47306  12.892   4.366   0.425 -1.2208 -1.4251 -1.2001
  343MOL0     H47307  12.732   4.406   0.352  0.9205  0.9788 -0.9060
  343MOL0     H47308  12.870   4.554   0.569  0.4536  0.4218 -0.6808
  343MOL0     H47309  12.732   4.619   0.473 -0.0537  0.3653  2.3001
  343MOL0     H47310  13.025   4.552   0.386 -1.8883 -1.4918  0.5707
  343MOL0     H47311  12.953   4.718   0.411  1.2819 -1.8648  4.4299
  343MOL0     H47312  12.872   4.527   0.192  3.0088 -1.6229 -1.1571
  343MOL0     H47313  13.016   4.604   0.166 -0.9142  0.5625 -1.4913
  343MOL0     H47314  12.148   4.359   0.663 -1.2701 -1.8532 -1.4852
  343MOL0     H47315  11.918   4.403   0.735 -2.8533  0.2242 -1.5436
  343MOL0     H47316  11.585   4.687   0.978  1.6347 -2.1388 -1.2489
  343MOL0     H47317  11.334   4.727   1.018  0.9703  1.3981  0.3003
  343MOL0     H47318   9.413   5.176   0.583 -1.0502 -1.1289  0.7942
  343MOL0     H47319   9.228   5.270   0.486  3.1125  0.2671  2.4335
  343MOL0     H47320   8.781   5.132   0.266  2.5062  0.2246  0.0282
  343MOL0     H47321   8.558   5.231   0.192 -0.9150  0.8100 -0.7853
  343MOL0     H47322   8.482   5.473   0.024  0.1234 -0.6618  0.6184
  343MOL0     H47323   8.379   5.590   0.089 -0.5562 -1.0225 -1.4369
  343MOL0     H47324   8.682   5.586   0.067 -1.1669 -0.9402  0.6895
  343MOL0     H47325   8.612   5.725   0.144  2.6196 -1.4787  0.6142
  343MOL0     H47326   8.494   5.656  -0.127 -0.4130  0.1576 -1.2517
  343MOL0     H47327   8.519   5.808  -0.041  3.0347  0.6313  0.1040
  343MOL0     H47328   8.779   5.762  -0.085 -1.2086  2.3806  0.2180
  343MOL0     H47329   8.671   5.823  -0.211 -2.1155  0.9489  0.5756
  343MOL0     H47330   8.786   5.429  -0.337  0.4018  1.9591 -2.1675
  343MOL0     H47331   8.675   5.608   0.351 -0.0946  0.3975 -2.4116
  343MOL0     H47332   9.036   5.530   0.381 -0.1309  1.8896  0.4354
  343MOL0     H47333   8.894   5.637   0.423 -2.7752 -0.0443 -2.4326
  343MOL0     H47334   8.953   5.506   0.530  1.7461  3.5169  0.8531
  344MOL0     O47335   7.405   1.249   5.781 -0.0591 -0.2382 -0.1513
  344MOL0     C47336   7.375   1.229   5.901  0.8070 -0.4975  0.3160
  344MOL0     O47337   7.461   1.259   6.005 -0.3076 -0.0912  0.5133
  344MOL0     C47338   7.568   1.338   5.968  0.2639 -0.7623  0.2200
  344MOL0     C47339   7.694   1.285   5.966  0.4161  0.8873  0.4491
  344MOL0     C47340   7.798   1.370   5.949  0.9148 -0.0548  1.1573
  344MOL0     C47341   7.789   1.499   5.893 -0.3312  0.1510 -0.0804
  344MOL0     O47342   7.907   1.567   5.862 -0.6296 -0.0353  0.2422
  344MOL0     C47343   7.909   1.709   5.854 -0.2209  0.2386 -0.5348
  344MOL0     C47344   8.052   1.760   5.883  0.0269 -0.0345  0.3368
  344MOL0     C47345   8.155   1.711   5.777 -0.1415  0.0751  0.5152
  344MOL0     C47346   8.285   1.795   5.783 -0.4811  0.5606 -0.1227
  344MOL0     C47347   8.404   1.727   5.714  0.3240 -0.6315 -0.2126
  344MOL0     C47348   8.517   1.822   5.687 -0.7209 -0.3767 -0.4761
  344MOL0     C47349   8.609   1.840   5.807  0.1660 -0.0607  0.7025
  344MOL0     C47350   8.724   1.926   5.775 -0.8376 -0.0596 -0.3904
  344MOL0     N47351   8.812   1.924   5.901 -0.1395  0.2577 -0.2607
  344MOL0     C47352   8.793   1.992   6.016  0.1018  0.1625 -0.2178
  344MOL0     C47353   8.876   1.931   6.102 -0.0538 -0.4354 -0.0640
  344MOL0     C47354   8.887   1.986   6.250  0.3064  0.7001  0.8344
  344MOL0     C47355   8.897   2.137   6.251 -0.6741  0.8800  0.2459
  344MOL0     C47356   8.929   2.188   6.394  0.0751 -0.0741  0.2094
  344MOL0     C47357   9.070   2.151   6.442 -0.7028 -0.2466 -0.5253
  344MOL0     O47358   9.162   2.189   6.341  0.6103 -0.2702  0.1328
  344MOL0     C47359   9.288   2.148   6.356 -1.2235  0.2307  0.8394
  344MOL0     C47360   9.385   2.222   6.287  0.1896 -0.0389 -0.0149
  344MOL0     C47361   9.521   2.203   6.295 -0.3519 -0.5123  0.2855
  344MOL0     C47362   9.609   2.309   6.224  0.0672  0.3985  0.9480
  344MOL0     C47363   9.566   2.090   6.359  0.0410  0.0249 -0.4671
  344MOL0     C47364   9.717   2.051   6.380 -0.3566 -0.8242 -0.1329
  344MOL0     O47365   9.759   1.988   6.502  0.0218 -0.0081 -0.2549
  344MOL0     C47366   9.893   1.949   6.513  0.8934  0.2999 -0.5893
  344MOL0     C47367   9.972   1.975   6.620  0.1582  0.4751  0.0623
  344MOL0     C47368  10.096   1.919   6.634 -0.0984  0.3221 -0.0053
  344MOL0     C47369  10.155   1.843   6.532  0.7635  0.3384  0.4637
  344MOL0     O47370  10.285   1.791   6.551  0.3250 -0.1149 -0.8244
  344MOL0     C47371  10.348   1.769   6.425 -0.0494  0.0221  0.2328
  344MOL0     C47372  10.492   1.745   6.446 -0.3465 -0.1007 -0.2608
  344MOL0     C47373  10.578   1.872   6.443  0.2756 -0.3090  0.3096
  344MOL0     C47374  10.711   1.858   6.514  0.0048 -0.0193 -0.1351
  344MOL0     C47375  10.795   1.980   6.474  0.5164 -0.0634 -0.2004
  344MOL0     C47376  10.928   1.974   6.565  1.1069 -0.3522 -0.0210
  344MOL0     C47377  11.022   1.860   6.514 -1.4219  0.6306 -0.4187
  344MOL0     C47378  11.163   1.883   6.572  0.1280  0.8827 -1.1063
  344MOL0    Cl47379  11.294   1.762   6.531 -0.1142  0.1112 -0.3676
  344MOL0     C47380  10.073   1.820   6.428 -0.0807 -0.3459  0.7365
  344MOL0     C47381   9.936   1.859   6.417 -0.0132 -0.5220 -0.2354
  344MOL0     O47382   9.789   2.116   6.307  0.2173 -0.3156  0.0354
  344MOL0     C47383   9.470   2.009   6.429 -1.7195 -0.2456 -0.2123
  344MOL0     C47384   9.335   2.036   6.428  0.0047 -1.4680  0.2571
  344MOL0     N47385   8.941   1.829   6.035  0.0439 -0.0189  0.5161
  344MOL0     N47386   8.898   1.823   5.919 -0.7373  0.8284  0.9866
  344MOL0     C47387   7.663   1.552   5.878  0.6626 -0.2046  0.8579
  344MOL0     C47388   7.549   1.467   5.917  0.2130 -1.4941  0.3372
  344MOL0     C47389   7.254   1.158   5.919  0.3571  0.2591 -0.1764
  344MOL0     C47390   7.237   1.090   6.036 -0.0067 -1.0890 -0.2984
  344MOL0     C47391   7.110   1.040   6.069  0.0531  1.0115 -0.5554
  344MOL0     C47392   7.000   1.050   5.985 -0.3338 -0.6391 -0.2251
  344MOL0     O47393   6.882   1.025   6.044  0.1334 -0.0055  0.2910
  344MOL0     C47394   6.760   1.057   5.979 -0.1270 -0.0580 -0.1113
  344MOL0     C47395   6.642   0.995   6.057  0.2761  0.5474 -0.0263
  344MOL0     C47396   6.640   0.841   6.061  0.2892 -0.1503  0.4352
  344MOL0     C47397   6.532   0.781   6.144 -0.6655  0.7823  1.1088
  344MOL0     C47398   6.498   0.832   6.273 -0.5961 -0.2262 -0.5996
  344MOL0     C47399   6.466   0.864   6.387  0.0690  0.1042  0.6177
  344MOL0     C47400   7.018   1.101   5.862  0.4732  0.1656  0.9597
  344MOL0     C47401   7.141   1.162   5.827  0.1364 -0.0901 -0.4509
  344MOL0     C47402   7.142   1.236   5.688 -0.4570 -0.1556 -0.2922
  344MOL0     H47403   7.710   1.190   6.015  0.4667  0.4584 -0.3849
  344MOL0     H47404   7.897   1.331   5.968 -0.2447 -2.2927  3.1147
  344MOL0     H47405   7.837   1.754   5.923  1.1971  0.3159  0.9485
  344MOL0     H47406   7.870   1.744   5.758 -2.2165 -3.2581 -1.1538
  344MOL0     H47407   8.057   1.869   5.885  0.9460  0.2105 -3.9596
  344MOL0     H47408   8.084   1.731   5.983  0.3616 -1.1241 -0.0769
  344MOL0     H47409   8.189   1.611   5.805 -0.2217  0.0960  0.6922
  344MOL0     H47410   8.117   1.707   5.675  1.7258  1.0126 -0.2469
  344MOL0     H47411   8.270   1.884   5.721  0.2325 -0.4906 -1.8630
  344MOL0     H47412   8.316   1.826   5.884  0.5923  2.8124 -1.0678
  344MOL0     H47413   8.374   1.691   5.615  0.2138 -2.6530  0.5119
  344MOL0     H47414   8.438   1.641   5.772 -0.0774 -0.2780  0.5605
  344MOL0     H47415   8.580   1.780   5.608 -1.2900 -0.7856 -0.7244
  344MOL0     H47416   8.471   1.916   5.656 -1.2987  0.2895  2.1288
  344MOL0     H47417   8.641   1.742   5.843 -0.5415 -0.3917  0.4542
  344MOL0     H47418   8.544   1.880   5.885 -1.5835 -2.3622  0.5383
  344MOL0     H47419   8.786   1.880   5.697  0.7366 -0.6116  1.1079
  344MOL0     H47420   8.696   2.027   5.744 -2.7132  0.4130  2.3900
  344MOL0     H47421   8.727   2.076   6.037  0.4327  0.8040 -1.6450
  344MOL0     H47422   8.970   1.934   6.298  0.1860 -2.8609 -2.3874
  344MOL0     H47423   8.797   1.969   6.311 -0.0161  1.2453  0.5226
  344MOL0     H47424   8.983   2.155   6.186  0.0210  1.5801  1.3216
  344MOL0     H47425   8.809   2.191   6.215 -0.0894  0.7686 -1.4183
  344MOL0     H47426   8.920   2.297   6.393 -1.0131 -0.1133  1.7896
  344MOL0     H47427   8.847   2.162   6.462  0.1893 -1.7520 -0.2554
  344MOL0     H47428   9.097   2.200   6.536  0.6451 -0.9657 -0.5076
  344MOL0     H47429   9.074   2.050   6.482  1.2767 -0.1368 -0.3527
  344MOL0     H47430   9.338   2.301   6.230 -1.9781  0.5012  2.3256
  344MOL0     H47431   9.674   2.365   6.292  1.1327 -1.7464  1.8140
  344MOL0     H47432   9.545   2.385   6.178  3.1816  1.3022 -2.3748
  344MOL0     H47433   9.666   2.266   6.141 -0.6674 -0.6837  0.9764
  344MOL0     H47434   9.937   2.048   6.693  2.4872  2.0285 -0.2540
  344MOL0     H47435  10.163   1.922   6.720  1.8011 -2.2633 -1.2470
  344MOL0     H47436  10.299   1.686   6.374 -3.9812  2.0691  0.2643
  344MOL0     H47437  10.341   1.852   6.354  0.9157  0.9331  1.1588
  344MOL0     H47438  10.520   1.702   6.543  2.2023 -1.8719 -1.6342
  344MOL0     H47439  10.530   1.664   6.383  0.7173 -0.8238  1.2365
  344MOL0     H47440  10.526   1.962   6.477  0.1492 -1.0615  2.2224
  344MOL0     H47441  10.601   1.888   6.337 -1.0383 -1.2739 -0.1620
  344MOL0     H47442  10.757   1.763   6.485 -3.0488 -1.1865 -1.6047
  344MOL0     H47443  10.689   1.863   6.621  2.1477  1.2105  0.3102
  344MOL0     H47444  10.819   1.983   6.368  1.8592 -0.7408  0.0582
  344MOL0     H47445  10.743   2.075   6.491  1.3497  0.6123 -1.3406
  344MOL0     H47446  10.902   1.947   6.667 -0.9246 -0.0042 -0.3930
  344MOL0     H47447  10.967   2.076   6.556 -0.9873  0.4915 -0.1046
  344MOL0     H47448  11.036   1.863   6.406  3.1010 -1.8732 -0.1337
  344MOL0     H47449  10.981   1.761   6.534 -1.2817  0.7031  0.2525
  344MOL0     H47450  11.151   1.910   6.678 -1.6882  1.3716 -1.3976
  344MOL0     H47451  11.194   1.973   6.518  0.0231  1.2362 -0.5900
  344MOL0     H47452  10.101   1.757   6.344 -0.6003  0.8320 -0.3559
  344MOL0     H47453   9.870   1.808   6.347  0.3363  0.9211 -1.6798
  344MOL0     H47454   9.503   1.919   6.480  0.1522 -0.9396 -2.4788
  344MOL0     H47455   9.272   1.970   6.487 -1.0752  0.8758  1.8931
  344MOL0     H47456   7.643   1.650   5.837  0.8188 -1.0017 -1.2579
  344MOL0     H47457   7.447   1.503   5.908  0.9575  0.2360 -2.1835
  344MOL0     H47458   7.320   1.063   6.101 -2.4228 -3.2776  2.1201
  344MOL0     H47459   7.091   0.992   6.164 -0.6853  0.1499 -1.1286
  344MOL0     H47460   6.747   1.165   5.986 -0.5531 -0.0886 -0.4522
  344MOL0     H47461   6.760   1.022   5.876 -0.5660  1.0383 -0.4935
  344MOL0     H47462   6.553   1.046   6.018 -0.4890  0.9166  2.0185
  344MOL0     H47463   6.653   1.031   6.160 -0.8467  0.9372 -0.0208
  344MOL0     H47464   6.639   0.804   5.958 -0.0120 -0.3245  0.4975
  344MOL0     H47465   6.727   0.805   6.116  1.3895  0.0467 -1.1165
  344MOL0     H47466   6.540   0.672   6.141 -3.3868  0.5532 -0.4554
  344MOL0     H47467   6.446   0.799   6.080  1.4135  4.6731 -0.9525
  344MOL0     H47468   6.440   0.881   6.489 -0.0632 -0.5511  0.6961
  344MOL0     H47469   6.934   1.111   5.793  1.1678  1.3035  0.2330
  344MOL0     H47470   7.043   1.229   5.641 -0.6509  1.7066 -0.2388
  344MOL0     H47471   7.171   1.340   5.708  0.9945 -0.3278 -1.3178
  344MOL0     H47472   7.214   1.191   5.619  2.5081  0.9066  1.8787
  345MOL0     O47473   3.108  10.015   5.541 -0.7676 -0.3764 -0.2178
  345MOL0     C47474   3.058  10.126   5.522  0.3735 -0.6916  0.4721
  345MOL0     O47475   3.109  10.245   5.570  0.2123  0.7852  0.0726
  345MOL0     C47476   3.229  10.240   5.630 -1.0280 -0.4081  0.4055
  345MOL0     C47477   3.253  10.165   5.748  0.2319 -0.1169 -0.0719
  345MOL0     C47478   3.387  10.157   5.802  0.1550  1.3844 -0.2474
  345MOL0     C47479   3.489  10.239   5.751 -0.9605 -0.5718  0.1728
  345MOL0     O47480   3.627  10.216   5.781  0.8045 -0.1101  0.1929
  345MOL0     C47481   3.648  10.167   5.915  0.1513 -0.3178  0.1117
  345MOL0     C47482   3.799  10.193   5.946  0.0472  0.0661  0.2605
  345MOL0     C47483   3.837  10.168   6.096 -0.4293 -0.1471 -0.3302
  345MOL0     C47484   3.975  10.237   6.129 -1.0971  0.0971 -0.6794
  345MOL0     C47485   3.985  10.275   6.284  0.2015  0.1626  0.3192
  345MOL0     C47486   3.989  10.175   6.394  0.6482 -0.2500  0.0359
  345MOL0     C47487   4.091  10.061   6.368 -0.5392 -0.5937  0.6080
  345MOL0     C47488   4.069   9.934   6.450  0.9161 -1.2912 -0.5057
  345MOL0     N47489   4.170   9.831   6.417  0.1404  0.0639  0.3731
  345MOL0     C47490   4.181   9.752   6.298 -0.6788  0.4894 -0.2169
  345MOL0     C47491   4.270   9.653   6.333 -0.2610  0.1191  0.3956
  345MOL0     C47492   4.308   9.539   6.242 -0.1888 -0.7822  0.4274
  345MOL0     C47493   4.340   9.577   6.095 -0.0533  0.8124  0.1628
  345MOL0     C47494   4.353   9.447   6.019  0.2389 -0.1984 -0.0023
  345MOL0     C47495   4.496   9.387   6.031 -0.0137  0.4805  0.5961
  345MOL0     O47496   4.597   9.491   6.005  0.9915 -0.0041  0.0361
  345MOL0     C47497   4.733   9.474   6.032  0.7131  0.2739  0.5096
  345MOL0     C47498   4.786   9.345   6.076 -1.9035  0.2509  0.6202
  345MOL0     C47499   4.926   9.329   6.092 -1.2745 -0.2725  0.6208
  345MOL0     C47500   4.987   9.191   6.104  0.2422  0.1324  0.2130
  345MOL0     C47501   5.010   9.442   6.075 -0.1129 -0.0719  1.1858
  345MOL0     C47502   5.155   9.444   6.080 -1.1104  0.5414 -0.5500
  345MOL0     O47503   5.221   9.562   6.049 -0.1625  0.2634 -0.0290
  345MOL0     C47504   5.354   9.554   6.028  0.1556 -0.4668  0.1182
  345MOL0     C47505   5.387   9.534   5.900 -0.0769  0.3567  0.9280
  345MOL0     C47506   5.514   9.545   5.852 -0.1108  0.1533 -0.0003
  345MOL0     C47507   5.620   9.561   5.938 -0.5508 -0.6514  0.0884
  345MOL0     O47508   5.755   9.550   5.897  0.2127  0.4780 -0.1322
  345MOL0     C47509   5.872   9.579   5.976  0.3814  0.0628 -0.5761
  345MOL0     C47510   6.009   9.563   5.907  0.2522 -0.6484 -0.5240
  345MOL0     C47511   6.122   9.621   5.990  0.4170  0.0945  0.0991
  345MOL0     C47512   6.268   9.588   5.926  0.2463  0.6642 -0.0107
  345MOL0     C47513   6.371   9.627   6.035 -0.3501  0.4338 -0.2525
  345MOL0     C47514   6.517   9.601   5.990  0.1566  0.1038  0.6730
  345MOL0     C47515   6.563   9.685   5.874 -0.1006 -0.0429  0.2649
  345MOL0     C47516   6.714   9.699   5.861 -0.9301  0.0068  0.0419
  345MOL0    Cl47517   6.774   9.536   5.847 -0.4585  0.1036 -0.3545
  345MOL0     C47518   5.584   9.580   6.077 -0.5700  0.8097  0.0911
  345MOL0     C47519   5.451   9.569   6.122 -0.2058 -0.2771 -0.3644
  345MOL0     O47520   5.221   9.342   6.116 -0.0918 -0.1461  0.4580
  345MOL0     C47521   4.950   9.567   6.047 -0.2253  0.2925  0.1718
  345MOL0     C47522   4.814   9.580   6.027  0.1586 -0.9010  0.0422
  345MOL0     N47523   4.316   9.673   6.466  0.5463  0.5336 -0.7873
  345MOL0     N47524   4.260   9.775   6.513 -0.2446  0.2193  1.1529
  345MOL0     C47525   3.461  10.318   5.639  0.4530 -0.7520  0.5980
  345MOL0     C47526   3.334  10.313   5.573  0.2033 -0.0229  0.4139
  345MOL0     C47527   2.920  10.137   5.470  0.3541  0.3249  0.5772
  345MOL0     C47528   2.826  10.043   5.510 -0.2416 -0.2844  0.2571
  345MOL0     C47529   2.695  10.053   5.475 -0.0999 -0.0850  0.4059
  345MOL0     C47530   2.654  10.142   5.380 -0.3079 -0.6507 -0.1273
  345MOL0     O47531   2.529  10.144   5.321 -0.2499 -0.3729  0.0403
  345MOL0     C47532   2.456  10.256   5.357  0.0229 -0.4726  0.0662
  345MOL0     C47533   2.368  10.282   5.232  0.3862 -0.0423  0.1661
  345MOL0     C47534   2.273  10.159   5.209 -0.2116 -0.1213  0.0883
  345MOL0     C47535   2.148  10.188   5.116 -0.6313  0.2322  0.7364
  345MOL0     C47536   2.028  10.238   5.184 -0.7905  0.4257  0.0275
  345MOL0     C47537   1.931  10.261   5.246 -0.4236  0.5229  0.1328
  345MOL0     C47538   2.749  10.233   5.331 -0.3646  0.0578  0.2529
  345MOL0     C47539   2.888  10.229   5.373 -0.1040 -0.1496  0.2249
  345MOL0     C47540   2.986  10.328   5.314 -0.5354  0.2328  0.3293
  345MOL0     H47541   3.174  10.109   5.797  1.5639 -0.3713  1.9150
  345MOL0     H47542   3.402  10.090   5.886 -0.3259 -0.5462 -1.6460
  345MOL0     H47543   3.626  10.060   5.928 -0.1728 -0.2508  0.1273
  345MOL0     H47544   3.585  10.225   5.983 -0.3297 -0.4632 -0.2028
  345MOL0     H47545   3.864  10.129   5.887 -0.6731 -0.4898  0.0535
  345MOL0     H47546   3.816  10.296   5.914 -3.7116  0.3138 -1.4359
  345MOL0     H47547   3.757  10.202   6.162 -1.3386 -2.0487 -0.4049
  345MOL0     H47548   3.843  10.063   6.125  0.4604 -0.0944 -0.2786
  345MOL0     H47549   4.056  10.170   6.096 -0.2799  2.0693 -2.9922
  345MOL0     H47550   3.988  10.333   6.078 -1.1927  1.3158  1.5127
  345MOL0     H47551   3.903  10.348   6.290  1.0553  1.9474 -4.6525
  345MOL0     H47552   4.074  10.338   6.295  0.2760  0.2255 -0.5610
  345MOL0     H47553   4.033  10.232   6.477  1.8193  0.4439 -1.0373
  345MOL0     H47554   3.887  10.138   6.407  0.5977 -0.3226 -0.5780
  345MOL0     H47555   4.190  10.106   6.381  0.1899 -1.2169 -2.0580
  345MOL0     H47556   4.085  10.034   6.262  3.0236  0.9771 -0.1207
  345MOL0     H47557   4.075   9.963   6.555  0.1059 -1.6216 -0.3614
  345MOL0     H47558   3.968   9.897   6.434 -0.0929 -0.3842  2.9087
  345MOL0     H47559   4.141   9.768   6.199  1.0191  0.5262 -0.9308
  345MOL0     H47560   4.230   9.462   6.241 -0.4277 -0.7110 -3.6738
  345MOL0     H47561   4.397   9.490   6.282 -0.1658 -0.2455  1.0507
  345MOL0     H47562   4.266   9.636   6.041 -0.4204  0.2140  0.0075
  345MOL0     H47563   4.431   9.638   6.092  1.6477 -1.5652  0.5741
  345MOL0     H47564   4.284   9.371   6.055 -2.8842  1.1320 -2.7054
  345MOL0     H47565   4.332   9.459   5.912 -1.7687 -0.9019  0.2834
  345MOL0     H47566   4.512   9.337   6.126  1.3786 -1.5981 -0.6578
  345MOL0     H47567   4.501   9.302   5.962  1.9330  2.0728 -1.3915
  345MOL0     H47568   4.719   9.262   6.096 -0.5020 -1.3435 -0.9237
  345MOL0     H47569   5.054   9.173   6.019 -1.1470 -4.7482 -0.1429
  345MOL0     H47570   4.909   9.114   6.110  0.1083  0.3550  3.8785
  345MOL0     H47571   5.045   9.191   6.197  1.2341  1.1350 -0.3785
  345MOL0     H47572   5.306   9.520   5.829  1.2831 -1.1633 -0.3926
  345MOL0     H47573   5.519   9.538   5.744  1.3565 -3.6644  0.1530
  345MOL0     H47574   5.858   9.678   6.021  1.9718 -0.2185  0.6277
  345MOL0     H47575   5.876   9.502   6.053  0.1477  2.3075  1.8144
  345MOL0     H47576   6.030   9.458   5.882  2.4140 -0.3893  0.0047
  345MOL0     H47577   6.005   9.632   5.822 -1.1391  0.3731  0.3461
  345MOL0     H47578   6.110   9.572   6.087  1.2172 -1.7288 -0.6685
  345MOL0     H47579   6.119   9.729   6.005  3.4919  0.3104 -0.1087
  345MOL0     H47580   6.282   9.637   5.829 -0.6962 -1.5725 -1.3468
  345MOL0     H47581   6.280   9.481   5.905  0.8775  0.3779  1.7152
  345MOL0     H47582   6.352   9.732   6.058  1.5739  1.1647 -1.6872
  345MOL0     H47583   6.356   9.560   6.120 -0.3019  1.5426  0.6436
  345MOL0     H47584   6.521   9.505   5.938  0.1220  0.9203 -0.9100
  345MOL0     H47585   6.591   9.609   6.070 -1.0346 -0.7991  1.8953
  345MOL0     H47586   6.510   9.781   5.878 -0.9761 -0.5156  0.2182
  345MOL0     H47587   6.528   9.623   5.791  0.6825 -0.1532  0.0109
  345MOL0     H47588   6.756   9.743   5.952  2.2743 -2.9022  0.1967
  345MOL0     H47589   6.739   9.764   5.777 -1.6813 -0.2349 -0.3769
  345MOL0     H47590   5.660   9.574   6.154 -0.1601  0.7843 -0.3140
  345MOL0     H47591   5.417   9.577   6.224  1.4367 -1.3450  0.3164
  345MOL0     H47592   5.012   9.656   6.040  1.0608 -0.5508  0.5273
  345MOL0     H47593   4.783   9.680   6.000  1.7296  0.3890  2.6081
  345MOL0     H47594   3.542  10.372   5.591  0.8193 -1.2614  0.6372
  345MOL0     H47595   3.320  10.370   5.481  0.7414  2.4395  1.7903
  345MOL0     H47596   2.861   9.974   5.586  0.8375  3.3384  3.3445
  345MOL0     H47597   2.640   9.974   5.524  2.4380 -1.7222  0.8346
  345MOL0     H47598   2.393  10.247   5.445 -0.7832  1.5359 -0.2401
  345MOL0     H47599   2.519  10.346   5.368 -2.0532  1.3868 -2.1281
  345MOL0     H47600   2.431  10.301   5.145  2.6636  2.1534  2.1559
  345MOL0     H47601   2.307  10.370   5.251  0.8340  0.8161 -2.0743
  345MOL0     H47602   2.329  10.074   5.170 -1.0306 -1.4034  1.6208
  345MOL0     H47603   2.237  10.131   5.308 -2.3151  1.2521 -0.2182
  345MOL0     H47604   2.122  10.092   5.070  1.1575  0.3052 -0.5392
  345MOL0     H47605   2.166  10.259   5.035 -3.3738 -1.2655 -1.3683
  345MOL0     H47606   1.846  10.272   5.310  0.0749  2.4069  0.5294
  345MOL0     H47607   2.723  10.304   5.254  2.0939 -0.3164 -1.0118
  345MOL0     H47608   2.939  10.370   5.225 -3.3759 -0.3827  1.4378
  345MOL0     H47609   3.015  10.409   5.382  0.3952 -0.4839  0.8127
  345MOL0     H47610   3.090  10.301   5.291  0.2035  3.1209 -0.1425
  346MOL0     O47611   2.401   5.242  10.966 -0.7101 -0.1984 -0.0844
  346MOL0     C47612   2.497   5.212  11.041  1.3018  0.3480 -0.0245
  346MOL0     O47613   2.481   5.136  11.151 -0.2523  0.0294 -0.3426
  346MOL0     C47614   2.352   5.115  11.193  0.3106 -0.2035  0.0296
  346MOL0     C47615   2.325   5.150  11.323  0.9771  0.2770  0.2923
  346MOL0     C47616   2.194   5.107  11.380 -0.7623 -1.2225 -0.1674
  346MOL0     C47617   2.100   5.043  11.305  0.1870  0.0750  0.0229
  346MOL0     O47618   1.978   5.036  11.360 -0.2128  0.2792 -0.7074
  346MOL0     C47619   1.867   5.056  11.273 -0.0280 -0.2987  0.1598
  346MOL0     C47620   1.745   5.020  11.355 -0.0422 -0.3886 -0.5245
  346MOL0     C47621   1.613   5.020  11.279  0.4041  0.1384  0.7430
  346MOL0     C47622   1.574   5.155  11.222 -0.1724 -0.1770  0.3733
  346MOL0     C47623   1.430   5.166  11.175  0.5690 -0.5177  0.5487
  346MOL0     C47624   1.399   5.290  11.087 -0.4716 -0.3690  0.2670
  346MOL0     C47625   1.477   5.285  10.958 -0.1924  0.2093 -0.1140
  346MOL0     C47626   1.422   5.394  10.862  0.3974 -0.7685 -0.3462
  346MOL0     N47627   1.440   5.525  10.924 -0.3560 -0.1680 -0.3357
  346MOL0     C47628   1.555   5.589  10.946  0.2455  0.0559 -0.7354
  346MOL0     C47629   1.517   5.713  10.978  0.1243 -1.1541  0.2162
  346MOL0     C47630   1.600   5.831  11.011 -0.2926  0.2325 -0.0251
  346MOL0     C47631   1.730   5.797  11.081  0.2133 -0.7714  0.3540
  346MOL0     C47632   1.752   5.884  11.202  0.0960  0.0235 -1.3196
  346MOL0     C47633   1.878   5.869  11.280  1.0656  0.3488  0.6756
  346MOL0     O47634   1.984   5.910  11.188 -0.0027  0.4924  0.1478
  346MOL0     C47635   2.103   5.940  11.244  0.1709 -1.0901  0.4160
  346MOL0     C47636   2.134   5.947  11.390  0.7374  0.0708  0.3807
  346MOL0     C47637   2.259   5.987  11.439 -0.5763 -0.2073  0.0358
  346MOL0     C47638   2.288   5.989  11.587 -0.1628 -0.9709 -0.8273
  346MOL0     C47639   2.357   6.012  11.340 -0.1577 -0.2380 -0.3483
  346MOL0     C47640   2.499   6.053  11.370 -0.3984 -0.2077  0.7090
  346MOL0     O47641   2.596   6.016  11.280 -0.1531 -0.7955  0.0701
  346MOL0     C47642   2.731   6.052  11.299  0.3890 -0.3818  0.7082
  346MOL0     C47643   2.768   6.173  11.353  0.8213 -0.2748 -0.1401
  346MOL0     C47644   2.907   6.202  11.375  0.1975 -0.6620  1.3490
  346MOL0     C47645   3.010   6.118  11.332  1.0698 -0.3491 -0.0125
  346MOL0     O47646   3.140   6.134  11.354 -0.3942  0.6602  0.0456
  346MOL0     C47647   3.197   6.261  11.378  0.1967 -0.0764  0.2662
  346MOL0     C47648   3.334   6.294  11.320  0.1713  0.0148 -0.0509
  346MOL0     C47649   3.453   6.230  11.380  0.5186  0.0252 -0.0668
  346MOL0     C47650   3.556   6.153  11.287  0.1201 -0.4087  0.3965
  346MOL0     C47651   3.673   6.094  11.377  0.0834  0.0915 -0.3639
  346MOL0     C47652   3.782   6.035  11.290 -0.4433 -0.4086  0.7709
  346MOL0     C47653   3.851   5.908  11.356 -0.8307 -0.9155 -0.7983
  346MOL0     C47654   3.931   5.829  11.246  0.2129  0.5872 -0.3291
  346MOL0    Cl47655   4.054   5.929  11.163 -0.0849  0.2352 -0.1835
  346MOL0     C47656   2.972   5.996  11.280 -0.3881  0.8210  0.1209
  346MOL0     C47657   2.834   5.964  11.267  0.1682  0.4098  0.7017
  346MOL0     O47658   2.517   6.113  11.478  0.0447 -0.9862  0.2368
  346MOL0     C47659   2.332   6.016  11.202  0.0210  0.5248 -0.3769
  346MOL0     C47660   2.205   5.981  11.157  0.9495 -0.4447  0.2823
  346MOL0     N47661   1.378   5.721  10.986  0.1117  0.4891 -0.7849
  346MOL0     N47662   1.340   5.606  10.949 -0.2254  0.5739 -0.4198
  346MOL0     C47663   2.139   5.007  11.176 -0.1600  0.3624 -0.2627
  346MOL0     C47664   2.264   5.036  11.121  0.4726  0.5417  0.4441
  346MOL0     C47665   2.642   5.252  11.001 -0.0634  0.7831 -0.5035
  346MOL0     C47666   2.742   5.247  11.100  0.9737 -0.7618 -0.3505
  346MOL0     C47667   2.879   5.281  11.070 -0.4509  0.5573 -0.4232
  346MOL0     C47668   2.916   5.320  10.946  1.2657  0.0533  0.0120
  346MOL0     O47669   3.046   5.336  10.913  0.5710 -0.2051  0.1684
  346MOL0     C47670   3.084   5.344  10.776 -0.2726 -0.1874 -0.2233
  346MOL0     C47671   3.211   5.263  10.770  0.5685  0.3377  0.1714
  346MOL0     C47672   3.288   5.256  10.639  0.2283  0.3669 -0.6700
  346MOL0     C47673   3.223   5.316  10.518  0.4205 -0.6269 -0.7555
  346MOL0     C47674   3.245   5.465  10.528  0.4706 -0.9065  0.0360
  346MOL0     C47675   3.259   5.590  10.526 -0.4254  0.5419  0.1222
  346MOL0     C47676   2.813   5.330  10.849 -0.3928  0.6318 -1.0076
  346MOL0     C47677   2.680   5.308  10.876  0.0017 -0.0293  0.2692
  346MOL0     C47678   2.588   5.353  10.773  0.7738 -0.9699 -0.0744
  346MOL0     H47679   2.397   5.204  11.384  0.4113  1.8268 -0.3667
  346MOL0     H47680   2.186   5.149  11.480  2.1576  0.9303 -0.6934
  346MOL0     H47681   1.877   4.978  11.197  1.8344 -2.0661  2.0635
  346MOL0     H47682   1.867   5.155  11.228 -2.3683 -0.7923 -1.0496
  346MOL0     H47683   1.738   4.921  11.402 -2.9773 -1.2367 -2.4787
  346MOL0     H47684   1.751   5.094  11.435 -0.3364 -0.0804 -0.7867
  346MOL0     H47685   1.615   4.942  11.202 -1.6253 -2.4714  3.0988
  346MOL0     H47686   1.533   4.994  11.350  0.0333 -2.7302 -0.5869
  346MOL0     H47687   1.593   5.230  11.299  1.2416 -1.5000  1.3819
  346MOL0     H47688   1.646   5.181  11.143 -0.6388 -0.2433 -0.0772
  346MOL0     H47689   1.357   5.152  11.255 -2.0710 -0.2155 -1.6747
  346MOL0     H47690   1.416   5.079  11.111 -0.2603 -0.0161  0.0371
  346MOL0     H47691   1.294   5.314  11.073 -0.6481 -2.4179 -2.7379
  346MOL0     H47692   1.443   5.376  11.139  0.3330 -1.2501  1.0896
  346MOL0     H47693   1.465   5.187  10.909  0.7329 -0.0640  0.1762
  346MOL0     H47694   1.581   5.315  10.975 -0.4289  0.5866  0.6722
  346MOL0     H47695   1.465   5.397  10.761 -0.1218  1.3167 -0.5506
  346MOL0     H47696   1.315   5.377  10.851  0.4112  0.4468 -3.3558
  346MOL0     H47697   1.657   5.554  10.932  0.6621  1.3816 -1.1632
  346MOL0     H47698   1.541   5.885  11.086  0.7415 -1.2378  1.9667
  346MOL0     H47699   1.611   5.891  10.920  0.1342  0.4701  0.1809
  346MOL0     H47700   1.713   5.694  11.114 -1.0210 -0.6593  0.1218
  346MOL0     H47701   1.814   5.807  11.012  0.5053 -1.9787  0.5101
  346MOL0     H47702   1.730   5.983  11.162  0.1134 -0.9770 -3.9875
  346MOL0     H47703   1.666   5.875  11.269  1.7810  2.1137  1.3189
  346MOL0     H47704   1.882   5.925  11.374 -0.0404  2.6493 -0.5647
  346MOL0     H47705   1.886   5.761  11.298 -2.2163 -0.1456 -0.1871
  346MOL0     H47706   2.067   5.914  11.469  2.1261  0.4200  1.7649
  346MOL0     H47707   2.316   6.089  11.621 -1.1136 -1.5379  1.8488
  346MOL0     H47708   2.368   5.918  11.611  2.4799  1.8407 -0.7921
  346MOL0     H47709   2.198   5.977  11.648  0.9813  0.8646  1.3411
  346MOL0     H47710   2.686   6.238  11.382 -2.0098 -3.3443 -0.7006
  346MOL0     H47711   2.935   6.298  11.418 -2.9525  0.2610  1.5636
  346MOL0     H47712   3.139   6.341  11.330  2.1033  0.9694 -0.4066
  346MOL0     H47713   3.193   6.291  11.484 -2.6710  1.7695 -0.2619
  346MOL0     H47714   3.330   6.280  11.212 -3.3212  1.1063 -0.1800
  346MOL0     H47715   3.341   6.403  11.332  0.9878 -0.2335  2.1506
  346MOL0     H47716   3.414   6.156  11.451  0.9152  0.2386  0.3847
  346MOL0     H47717   3.510   6.312  11.426 -1.9122  2.0313 -0.3620
  346MOL0     H47718   3.603   6.225  11.220  1.0725  0.1064  1.5860
  346MOL0     H47719   3.502   6.075  11.232 -2.1116  1.6632 -0.5287
  346MOL0     H47720   3.720   6.167  11.444  1.7917 -0.6385 -0.7248
  346MOL0     H47721   3.621   6.017  11.435 -1.2434  2.2342  1.4894
  346MOL0     H47722   3.851   6.119  11.277 -1.3607  0.1755 -0.6204
  346MOL0     H47723   3.738   6.014  11.192  0.5095  0.6483  0.0929
  346MOL0     H47724   3.772   5.850  11.405 -0.5877  0.3800  1.2904
  346MOL0     H47725   3.914   5.949  11.436 -1.1996  1.0420 -1.4651
  346MOL0     H47726   3.872   5.791  11.162  0.1216  0.5278 -0.2393
  346MOL0     H47727   3.971   5.737  11.291  0.2549  0.3694 -0.8066
  346MOL0     H47728   3.054   5.928  11.259  1.1000  3.3603 -3.3160
  346MOL0     H47729   2.799   5.872  11.220 -1.0994  1.8000 -1.2209
  346MOL0     H47730   2.413   6.025  11.131  1.6246 -0.5607  1.2224
  346MOL0     H47731   2.200   5.968  11.049  1.3287  0.1530  0.1867
  346MOL0     H47732   2.076   4.951  11.108  0.6482 -2.1225  0.9300
  346MOL0     H47733   2.288   5.013  11.018 -0.8809  0.0396  0.2183
  346MOL0     H47734   2.714   5.217  11.201 -2.1537 -0.6293 -1.0651
  346MOL0     H47735   2.961   5.264  11.139  1.1237 -1.1179 -2.5571
  346MOL0     H47736   3.010   5.314  10.701 -0.1997 -2.2856  0.4808
  346MOL0     H47737   3.112   5.448  10.761  0.2560  0.0635  2.0882
  346MOL0     H47738   3.193   5.161  10.806 -0.0918  0.0515 -0.9330
  346MOL0     H47739   3.270   5.304  10.852 -0.6188 -2.0824  2.3992
  346MOL0     H47740   3.390   5.294  10.652  1.5103 -2.9568  0.1223
  346MOL0     H47741   3.305   5.151  10.613  1.0022  0.8700 -2.3409
  346MOL0     H47742   3.117   5.287  10.522 -0.2791  1.6055 -1.7681
  346MOL0     H47743   3.278   5.281  10.430  2.9429  1.9501 -0.3389
  346MOL0     H47744   3.261   5.697  10.525 -1.4308  0.5860 -1.5571
  346MOL0     H47745   2.833   5.349  10.744  3.8357 -2.7492 -1.1209
  346MOL0     H47746   2.638   5.411  10.694 -1.0550  0.8963  0.0459
  346MOL0     H47747   2.536   5.267  10.730  2.8997 -2.3020 -0.1270
  346MOL0     H47748   2.511   5.419  10.813 -0.0205 -1.7502 -0.2955
  347MOL0     O47749   7.841   3.200  10.981  0.0269 -0.3439 -0.3089
  347MOL0     C47750   7.803   3.086  10.946  0.3172  0.8394 -0.5723
  347MOL0     O47751   7.858   3.018  10.843  0.3789  0.4650 -0.4643
  347MOL0     C47752   7.943   3.085  10.764 -0.1210  0.3562 -0.3665
  347MOL0     C47753   7.894   3.197  10.697 -0.1049 -0.2217 -0.5294
  347MOL0     C47754   7.979   3.268  10.618 -0.6704 -0.1766 -0.0021
  347MOL0     C47755   8.116   3.234  10.608 -0.9342 -0.3434 -0.0679
  347MOL0     O47756   8.212   3.311  10.546 -0.1859  0.2314 -0.2444
  347MOL0     C47757   8.169   3.366  10.426 -0.9977 -0.3817 -0.3602
  347MOL0     C47758   8.290   3.396  10.341 -0.0596 -0.2078  0.4423
  347MOL0     C47759   8.389   3.493  10.407 -0.0003  0.5962  0.2411
  347MOL0     C47760   8.516   3.502  10.319 -0.7563  0.4077 -0.8796
  347MOL0     C47761   8.628   3.554  10.404  0.7372  0.4831  0.2117
  347MOL0     C47762   8.751   3.604  10.321 -0.0299  0.1854  0.1272
  347MOL0     C47763   8.801   3.730  10.395  0.7091  0.3684 -0.4512
  347MOL0     C47764   8.855   3.688  10.529  0.6469  0.0920  0.8552
  347MOL0     N47765   8.935   3.792  10.594 -0.2262  0.1278 -0.2737
  347MOL0     C47766   9.056   3.845  10.563 -0.8693  0.6654 -0.7450
  347MOL0     C47767   9.068   3.951  10.642  1.0791  0.2830  0.2033
  347MOL0     C47768   9.176   4.055  10.629  0.0767 -0.3676 -0.0006
  347MOL0     C47769   9.310   4.004  10.697  0.1208  0.3367  0.4744
  347MOL0     C47770   9.307   4.001  10.857 -0.4596  0.3917  0.2339
  347MOL0     C47771   9.453   4.001  10.904 -0.3868  0.3494  0.2368
  347MOL0     O47772   9.505   3.875  10.866  0.1704 -0.2868 -0.2944
  347MOL0     C47773   9.635   3.840  10.899 -0.1203  0.0877  0.0666
  347MOL0     C47774   9.677   3.709  10.881 -0.3598  0.4609  0.7445
  347MOL0     C47775   9.805   3.680  10.927 -1.2167 -0.0358  1.4884
  347MOL0     C47776   9.842   3.533  10.921 -0.1052 -0.5071  0.3672
  347MOL0     C47777   9.890   3.778  10.985 -0.7193 -0.3883 -0.0796
  347MOL0     C47778  10.016   3.738  11.036 -1.0543 -0.0277  0.5277
  347MOL0     O47779  10.086   3.656  10.953  0.1718 -0.3726 -0.4423
  347MOL0     C47780  10.222   3.618  10.975 -0.8520  0.2828  0.2893
  347MOL0     C47781  10.340   3.703  10.951 -0.5065  0.4106  0.2242
  347MOL0     C47782  10.470   3.652  10.964  0.0894 -0.5557 -0.3746
  347MOL0     C47783  10.498   3.521  10.991 -1.3822  0.9425 -0.7093
  347MOL0     O47784  10.632   3.482  10.997 -0.3956  0.1809 -0.7604
  347MOL0     C47785  10.675   3.396  11.107  0.6668  1.1669 -0.1293
  347MOL0     C47786  10.745   3.273  11.052  0.1727  1.1928 -0.5667
  347MOL0     C47787  10.886   3.314  11.013 -0.0309 -0.5602  0.7298
  347MOL0     C47788  10.973   3.200  10.946  1.1365  0.3399  0.0825
  347MOL0     C47789  11.106   3.252  10.891 -0.5488  0.1659  0.1318
  347MOL0     C47790  11.194   3.131  10.833 -0.2015 -1.0955 -0.0035
  347MOL0     C47791  11.247   3.049  10.946  0.0666  0.4250 -0.5272
  347MOL0     C47792  11.381   2.978  10.912 -0.2006 -0.5731  0.3559
  347MOL0    Cl47793  11.409   2.844  11.023  0.3664  0.3214  0.1012
  347MOL0     C47794  10.394   3.437  11.001 -0.0603  0.7089 -0.5947
  347MOL0     C47795  10.258   3.477  11.000 -0.0647  0.6827  0.4962
  347MOL0     O47796  10.063   3.797  11.135  0.6648  0.5254 -0.0622
  347MOL0     C47797   9.843   3.903  11.019 -0.2413 -1.0754  0.0689
  347MOL0     C47798   9.713   3.932  10.972  1.4467 -0.0690 -0.3217
  347MOL0     N47799   8.962   3.952  10.740 -0.0237  0.1826  0.2524
  347MOL0     N47800   8.886   3.853  10.708  0.8551 -0.8774  0.2529
  347MOL0     C47801   8.166   3.131  10.690  0.8934 -0.2604 -0.1865
  347MOL0     C47802   8.075   3.056  10.772 -0.4749 -1.1575  0.4006
  347MOL0     C47803   7.683   3.023  11.016 -0.3753 -0.0204  0.6807
  347MOL0     C47804   7.629   3.092  11.124  0.3076 -0.0952  0.9942
  347MOL0     C47805   7.524   3.033  11.190  0.1278 -0.4364 -0.2271
  347MOL0     C47806   7.469   2.909  11.154 -0.5759  0.0161 -0.0629
  347MOL0     O47807   7.376   2.842  11.219  0.2504  0.6237 -0.0835
  347MOL0     C47808   7.335   2.897  11.346 -0.3714 -1.3019 -0.0423
  347MOL0     C47809   7.230   2.802  11.412  0.2062  0.1821 -0.0519
  347MOL0     C47810   7.084   2.801  11.343  0.1103  0.5347 -0.2395
  347MOL0     C47811   6.990   2.899  11.409  0.1282  0.5720  0.0552
  347MOL0     C47812   6.930   2.859  11.537 -0.4872 -0.3476  0.3166
  347MOL0     C47813   6.882   2.866  11.648  0.1590  0.0686  0.9720
  347MOL0     C47814   7.513   2.852  11.035  0.3220  0.4249 -0.5604
  347MOL0     C47815   7.620   2.901  10.970 -0.4598  0.2394 -0.8629
  347MOL0     C47816   7.666   2.814  10.852  0.3449  0.0247  0.3573
  347MOL0     H47817   7.791   3.230  10.700  0.4352  2.2704 -3.7746
  347MOL0     H47818   7.947   3.362  10.574  2.2879  2.0964  2.1938
  347MOL0     H47819   8.128   3.466  10.441 -0.4126 -0.3253  0.9175
  347MOL0     H47820   8.092   3.311  10.371 -1.5875  0.4895 -0.4178
  347MOL0     H47821   8.347   3.303  10.329  0.3520  0.2055 -0.9139
  347MOL0     H47822   8.262   3.439  10.245 -0.4543  1.3034  1.1955
  347MOL0     H47823   8.344   3.593  10.418 -2.9082 -0.5638 -0.1309
  347MOL0     H47824   8.413   3.448  10.504  2.5406 -3.2089 -1.9050
  347MOL0     H47825   8.544   3.406  10.275  0.3734  0.9610 -1.4180
  347MOL0     H47826   8.479   3.560  10.234 -1.8293 -0.9717 -1.3852
  347MOL0     H47827   8.643   3.483  10.486 -0.5962  1.0254  0.9512
  347MOL0     H47828   8.585   3.646  10.444  0.1317 -0.7589  2.5950
  347MOL0     H47829   8.831   3.529  10.327  1.1736  1.4977  1.3162
  347MOL0     H47830   8.715   3.637  10.223 -1.2732 -0.3375  0.3939
  347MOL0     H47831   8.724   3.807  10.401 -0.6741 -1.0210  0.3446
  347MOL0     H47832   8.881   3.774  10.334 -0.4046  1.6887 -1.0166
  347MOL0     H47833   8.776   3.656  10.597  0.1406 -4.2001 -1.4355
  347MOL0     H47834   8.915   3.598  10.511  0.2903  0.4555 -2.8554
  347MOL0     H47835   9.123   3.817  10.482 -0.4893 -2.6159  0.5467
  347MOL0     H47836   9.149   4.150  10.676  3.3158  1.0605 -0.7493
  347MOL0     H47837   9.197   4.088  10.527 -0.2504  1.7283  0.5635
  347MOL0     H47838   9.337   3.908  10.652  2.0321  1.3985 -0.7738
  347MOL0     H47839   9.389   4.076  10.674  0.6598  0.2527  1.9448
  347MOL0     H47840   9.252   4.087  10.899  1.3846  1.9662 -0.4072
  347MOL0     H47841   9.256   3.915  10.900 -0.2896  1.0311  1.8088
  347MOL0     H47842   9.518   4.078  10.861 -1.8566  1.0620 -0.7889
  347MOL0     H47843   9.465   4.008  11.013 -0.8592 -1.6452  0.4434
  347MOL0     H47844   9.631   3.634  10.818  1.1851  0.3353 -0.3114
  347MOL0     H47845   9.898   3.499  11.008 -0.8518 -0.1611  1.0005
  347MOL0     H47846   9.898   3.522  10.828 -2.4088 -0.1996 -1.1454
  347MOL0     H47847   9.744   3.483  10.915 -1.3649  1.7011  1.1648
  347MOL0     H47848  10.340   3.804  10.910  2.2963  0.6101  0.5629
  347MOL0     H47849  10.562   3.708  10.947  0.3656 -1.2391 -1.1607
  347MOL0     H47850  10.728   3.455  11.183 -0.5166  0.1842  1.5306
  347MOL0     H47851  10.583   3.366  11.158  0.4884 -0.0340 -1.1054
  347MOL0     H47852  10.737   3.184  11.116  3.6722 -0.2701 -1.9228
  347MOL0     H47853  10.695   3.241  10.960 -3.5175 -2.9663  2.4484
  347MOL0     H47854  10.937   3.362  11.098 -2.2273  1.0599  1.2276
  347MOL0     H47855  10.877   3.395  10.940 -0.3789 -0.2307  1.1282
  347MOL0     H47856  10.909   3.153  10.871  0.7910 -0.7778  1.0493
  347MOL0     H47857  10.983   3.135  11.033 -3.1873  1.5119  1.7647
  347MOL0     H47858  11.096   3.323  10.809  3.8310  0.6255 -0.2815
  347MOL0     H47859  11.168   3.297  10.970 -0.9881 -0.7573  1.0227
  347MOL0     H47860  11.278   3.178  10.782  0.5580 -2.5493 -0.1580
  347MOL0     H47861  11.141   3.068  10.761 -1.5779  1.9618 -1.8936
  347MOL0     H47862  11.181   2.967  10.973  0.8787  0.4998  2.0492
  347MOL0     H47863  11.278   3.112  11.031  0.2744  0.8429 -0.9056
  347MOL0     H47864  11.463   3.050  10.913  1.1097 -1.9977 -0.1794
  347MOL0     H47865  11.380   2.942  10.809  1.9914 -1.6640  0.6483
  347MOL0     H47866  10.409   3.329  10.995 -3.3083  0.1197 -0.1928
  347MOL0     H47867  10.181   3.400  11.001  0.7694 -0.2103  2.9380
  347MOL0     H47868   9.896   3.977  11.077 -4.4785  0.4774  2.3709
  347MOL0     H47869   9.685   4.036  10.987  0.8401 -0.3631  0.6832
  347MOL0     H47870   8.268   3.108  10.718  0.1782 -0.2983  2.7065
  347MOL0     H47871   8.112   2.975  10.834  1.1366 -0.0852  0.9086
  347MOL0     H47872   7.678   3.184  11.157 -0.5760  1.2063 -1.0700
  347MOL0     H47873   7.495   3.073  11.287 -1.5492 -2.8972  0.3724
  347MOL0     H47874   7.417   2.905  11.418  0.2745 -1.4319 -0.7543
  347MOL0     H47875   7.291   2.996  11.335  1.5057 -0.6120 -1.8795
  347MOL0     H47876   7.220   2.838  11.515 -1.0020  0.7787 -0.3575
  347MOL0     H47877   7.267   2.700  11.423 -3.0354 -1.0465  0.5317
  347MOL0     H47878   7.100   2.829  11.238  1.3280 -1.5621 -0.6679
  347MOL0     H47879   7.047   2.698  11.349  0.4520  0.4867  1.9168
  347MOL0     H47880   6.903   2.913  11.344 -1.3913 -1.1514  1.5873
  347MOL0     H47881   7.039   2.995  11.425 -0.8773  0.7256  2.8819
  347MOL0     H47882   6.863   2.878  11.752  2.5312 -1.9675  1.7358
  347MOL0     H47883   7.459   2.765  10.999  0.9262  0.2892 -1.1698
  347MOL0     H47884   7.604   2.724  10.852  0.4107 -0.0267  1.2291
  347MOL0     H47885   7.639   2.869  10.761  0.5308 -1.9057 -0.9375
  347MOL0     H47886   7.772   2.791  10.866 -0.1053 -1.7692  1.0532
  348MOL0     O47887   1.628   2.877   4.422  0.4298  0.5918  0.2193
  348MOL0     C47888   1.563   2.968   4.464 -0.0903  0.2400 -0.6827
  348MOL0     O47889   1.560   3.004   4.596  1.0034  0.2954 -0.5849
  348MOL0     C47890   1.612   2.920   4.691  0.7733  0.6843 -0.0133
  348MOL0     C47891   1.735   2.946   4.753  0.4229 -0.0857 -0.0622
  348MOL0     C47892   1.784   2.851   4.837 -0.1617  0.3831 -0.1791
  348MOL0     C47893   1.728   2.724   4.853  0.0459 -0.2839 -0.6010
  348MOL0     O47894   1.795   2.642   4.935  0.9282 -0.6699 -0.2879
  348MOL0     C47895   1.734   2.631   5.061 -0.1553 -0.2803 -1.2048
  348MOL0     C47896   1.786   2.723   5.173 -0.0590  0.1605  0.1548
  348MOL0     C47897   1.922   2.669   5.244 -0.4784 -0.8257  0.1449
  348MOL0     C47898   1.969   2.763   5.349 -0.7158 -0.1402  0.2774
  348MOL0     C47899   2.123   2.756   5.380  0.8643 -0.7630 -0.1802
  348MOL0     C47900   2.153   2.633   5.445 -0.0802  0.1923  0.7128
  348MOL0     C47901   2.301   2.634   5.490  0.2753  0.8603  0.1361
  348MOL0     C47902   2.314   2.680   5.630 -0.7899 -0.0708 -0.1938
  348MOL0     N47903   2.439   2.740   5.680  0.5374  0.6687 -0.3492
  348MOL0     C47904   2.548   2.664   5.713  0.7596 -0.2610 -0.6844
  348MOL0     C47905   2.640   2.759   5.759  0.0013  0.6227  0.6125
  348MOL0     C47906   2.773   2.713   5.829 -0.1275 -0.5780  0.8129
  348MOL0     C47907   2.841   2.843   5.880 -1.0342 -0.3431  0.0116
  348MOL0     C47908   2.979   2.817   5.951  0.5012  0.3339  0.5310
  348MOL0     C47909   2.961   2.804   6.098 -0.4731  0.3005  0.0575
  348MOL0     O47910   3.071   2.863   6.176  0.2169  0.4030 -0.4199
  348MOL0     C47911   3.193   2.798   6.180 -0.5729  0.3801  0.4273
  348MOL0     C47912   3.212   2.656   6.169  0.1907 -0.3748  0.0147
  348MOL0     C47913   3.342   2.606   6.172 -0.8439 -0.1475 -0.3069
  348MOL0     C47914   3.353   2.455   6.180 -0.6664 -0.0211  0.2506
  348MOL0     C47915   3.456   2.695   6.190 -0.0401  0.4874 -0.3122
  348MOL0     C47916   3.604   2.635   6.176  0.6621  0.5786  0.5966
  348MOL0     O47917   3.697   2.682   6.250 -0.2997  0.0452  0.3983
  348MOL0     C47918   3.826   2.627   6.264 -1.0832  0.4707 -0.2790
  348MOL0     C47919   3.915   2.714   6.317 -0.3137  0.0249 -0.4569
  348MOL0     C47920   4.044   2.676   6.349 -0.5421 -0.2341 -0.7668
  348MOL0     C47921   4.094   2.546   6.320 -0.1025  0.4207  1.5360
  348MOL0     O47922   4.226   2.500   6.333  0.0803 -0.7532  0.1617
  348MOL0     C47923   4.330   2.579   6.400  0.0696 -0.0911 -0.2516
  348MOL0     C47924   4.465   2.527   6.349 -0.1304  0.6148 -0.4043
  348MOL0     C47925   4.588   2.576   6.422 -0.1056  0.2060 -0.2122
  348MOL0     C47926   4.708   2.526   6.350 -0.5979 -0.0345 -0.1537
  348MOL0     C47927   4.833   2.608   6.397 -0.5674  0.1758  0.0100
  348MOL0     C47928   4.967   2.538   6.355 -0.4777  0.1670 -0.5303
  348MOL0     C47929   5.102   2.615   6.369 -0.0279  0.3328 -0.5643
  348MOL0     C47930   5.128   2.649   6.514 -0.1359 -0.4309 -0.1290
  348MOL0    Cl47931   5.205   2.514   6.610  0.1316 -0.4984 -0.1326
  348MOL0     C47932   4.005   2.458   6.268  0.6296  0.0712  0.4473
  348MOL0     C47933   3.869   2.494   6.243  0.0811  0.0607 -0.2929
  348MOL0     O47934   3.623   2.547   6.089 -0.0440 -0.0135  0.1160
  348MOL0     C47935   3.434   2.833   6.213 -0.2876 -0.4551 -0.2095
  348MOL0     C47936   3.303   2.881   6.207 -0.3187 -0.1661 -0.1453
  348MOL0     N47937   2.587   2.886   5.752 -0.1514 -0.0748  0.9850
  348MOL0     N47938   2.466   2.868   5.707  0.0082  0.3513 -0.4239
  348MOL0     C47939   1.613   2.692   4.780  0.0176  0.4425 -0.6179
  348MOL0     C47940   1.558   2.792   4.702 -0.3301  0.7894  0.4480
  348MOL0     C47941   1.489   3.044   4.373 -0.5884  0.0788 -0.1868
  348MOL0     C47942   1.353   3.047   4.383 -0.2204  0.2469 -0.8335
  348MOL0     C47943   1.273   3.129   4.300 -0.1292  0.2016  0.8713
  348MOL0     C47944   1.336   3.211   4.194 -1.0555 -0.0686 -0.2058
  348MOL0     O47945   1.272   3.278   4.099  0.4297  0.2329 -0.3038
  348MOL0     C47946   1.127   3.257   4.095  0.1353 -0.3747 -0.8849
  348MOL0     C47947   1.059   3.324   3.968  0.8853  0.4918 -0.0567
  348MOL0     C47948   1.093   3.464   3.954  0.5757 -0.0456  0.6892
  348MOL0     C47949   1.055   3.519   3.817  0.1832 -0.3142 -0.2154
  348MOL0     C47950   0.908   3.533   3.801 -0.0634 -0.4357 -0.8533
  348MOL0     C47951   0.789   3.554   3.776  0.0278  0.3019 -0.8028
  348MOL0     C47952   1.482   3.203   4.195 -0.5776  0.9928  0.7209
  348MOL0     C47953   1.562   3.120   4.282  0.2005  0.0440  0.0134
  348MOL0     C47954   1.713   3.131   4.268  0.1007 -0.4183  0.0761
  348MOL0     H47955   1.773   3.047   4.742 -0.2418  0.4136  1.9416
  348MOL0     H47956   1.877   2.872   4.889  0.1248  2.6968 -1.4898
  348MOL0     H47957   1.738   2.524   5.082  0.7179 -0.6786 -3.1552
  348MOL0     H47958   1.625   2.636   5.068 -0.0301  0.1892  2.8257
  348MOL0     H47959   1.803   2.825   5.136 -1.5780  0.3847  0.0034
  348MOL0     H47960   1.711   2.729   5.253  0.3099  0.4351  0.4841
  348MOL0     H47961   1.914   2.565   5.279 -2.0255 -1.4233 -1.8296
  348MOL0     H47962   2.000   2.673   5.167  1.6347  1.0536  2.2439
  348MOL0     H47963   1.944   2.867   5.324 -1.6582 -0.6803 -1.1958
  348MOL0     H47964   1.916   2.741   5.442 -1.1973  0.4261  0.1466
  348MOL0     H47965   2.126   2.835   5.456 -1.3371 -0.6613 -0.1109
  348MOL0     H47966   2.179   2.788   5.292 -0.7258  0.6638 -0.7369
  348MOL0     H47967   2.085   2.622   5.531 -3.2192 -0.5394 -1.6970
  348MOL0     H47968   2.143   2.554   5.370  0.5489  1.0386 -0.2816
  348MOL0     H47969   2.363   2.685   5.416  0.5141 -0.0407 -0.3037
  348MOL0     H47970   2.341   2.532   5.486 -4.1566 -1.0586 -2.8827
  348MOL0     H47971   2.241   2.760   5.648  1.0112  1.0547  2.8809
  348MOL0     H47972   2.286   2.605   5.705  1.8237  1.9888  3.1379
  348MOL0     H47973   2.558   2.556   5.708  0.7366 -0.2426 -1.1597
  348MOL0     H47974   2.846   2.664   5.764 -0.5881 -1.5703  1.0367
  348MOL0     H47975   2.757   2.647   5.915  0.5320 -0.2860  1.1633
  348MOL0     H47976   2.857   2.907   5.793 -0.3058  0.0133  0.4042
  348MOL0     H47977   2.783   2.899   5.954 -0.6893 -1.6507  1.3204
  348MOL0     H47978   3.024   2.732   5.899 -4.3863 -1.2796 -1.6038
  348MOL0     H47979   3.052   2.896   5.928 -0.3779  0.2906 -2.8844
  348MOL0     H47980   2.872   2.858   6.134 -0.5219 -0.7369  1.5901
  348MOL0     H47981   2.946   2.699   6.122  1.0212  0.1316  0.3125
  348MOL0     H47982   3.122   2.594   6.170 -0.9217  1.1423 -1.4557
  348MOL0     H47983   3.265   2.409   6.227 -3.0490 -0.2726 -4.0002
  348MOL0     H47984   3.442   2.423   6.235 -0.5984  0.5340  0.4717
  348MOL0     H47985   3.349   2.402   6.085  1.3591 -4.5593  2.4128
  348MOL0     H47986   3.882   2.813   6.348  0.1114 -0.1872  0.7257
  348MOL0     H47987   4.108   2.750   6.396 -0.8048  1.3475 -2.7370
  348MOL0     H47988   4.326   2.686   6.378  0.8066 -0.1982 -0.9218
  348MOL0     H47989   4.320   2.564   6.508  0.0412 -0.2338 -0.2737
  348MOL0     H47990   4.465   2.419   6.371  1.0708  0.1895 -2.2998
  348MOL0     H47991   4.480   2.521   6.241 -1.2186 -0.4063 -0.5260
  348MOL0     H47992   4.593   2.540   6.525 -1.9211  1.9832  0.5699
  348MOL0     H47993   4.592   2.685   6.427  0.8737  0.1453  0.9684
  348MOL0     H47994   4.703   2.533   6.241  1.6615 -0.8843 -0.3611
  348MOL0     H47995   4.713   2.420   6.373  0.3729  0.2614  1.1177
  348MOL0     H47996   4.829   2.713   6.368  1.2646 -0.2448 -2.0586
  348MOL0     H47997   4.830   2.605   6.506  0.0948  0.5347  0.0458
  348MOL0     H47998   4.962   2.509   6.250  1.9079 -0.3631 -0.5409
  348MOL0     H47999   4.974   2.444   6.410  0.4664  1.1666  1.1515
  348MOL0     H48000   5.095   2.714   6.322  1.5867  1.1508  0.7876
  348MOL0     H48001   5.187   2.557   6.333  0.2168  0.7089 -0.5974
  348MOL0     H48002   5.033   2.665   6.566  2.1516  1.4842  3.9988
  348MOL0     H48003   5.189   2.739   6.523 -0.2661 -0.3210 -0.3569
  348MOL0     H48004   4.031   2.355   6.246  0.3071 -0.7932  3.5985
  348MOL0     H48005   3.815   2.414   6.193 -0.1539 -0.5282  0.8514
  348MOL0     H48006   3.519   2.896   6.236 -1.2467 -0.2111  3.2764
  348MOL0     H48007   3.271   2.984   6.203 -0.3605 -0.1753 -0.0597
  348MOL0     H48008   1.570   2.593   4.787 -0.6681  0.5119 -2.9446
  348MOL0     H48009   1.469   2.769   4.644 -0.4612 -0.1509  1.0007
  348MOL0     H48010   1.305   2.973   4.447 -1.6177  0.2310 -1.8524
  348MOL0     H48011   1.166   3.112   4.309 -0.2955  0.7508  0.0506
  348MOL0     H48012   1.105   3.150   4.087  3.3017 -1.0628 -1.7688
  348MOL0     H48013   1.088   3.292   4.191 -0.2257 -1.8203 -0.4885
  348MOL0     H48014   0.953   3.301   3.980  1.7512 -4.7873  0.0515
  348MOL0     H48015   1.100   3.271   3.881 -0.2870 -0.8699  0.1871
  348MOL0     H48016   1.036   3.515   4.033 -3.5150  0.8096 -2.4706
  348MOL0     H48017   1.202   3.459   3.960  0.5807 -0.3527  0.3053
  348MOL0     H48018   1.075   3.441   3.743  0.0905  1.9267 -2.7689
  348MOL0     H48019   1.118   3.602   3.784 -1.7235  1.0091 -0.7323
  348MOL0     H48020   0.686   3.583   3.779  0.2184  0.8986  1.2239
  348MOL0     H48021   1.530   3.263   4.118 -1.2724  1.5680  0.7206
  348MOL0     H48022   1.758   3.032   4.266 -1.2730 -1.0746 -1.5235
  348MOL0     H48023   1.729   3.181   4.171 -0.1381  0.1941  0.3471
  348MOL0     H48024   1.760   3.199   4.340  0.3301 -0.5297  0.0330
  349MOL0     O48025   7.259   2.728   8.385 -1.1044  0.6604 -0.3650
  349MOL0     C48026   7.193   2.718   8.487  0.1514 -0.2309 -0.3325
  349MOL0     O48027   7.245   2.708   8.608  0.9018  0.4631  0.3040
  349MOL0     C48028   7.356   2.784   8.641  0.6499  0.2925  0.9317
  349MOL0     C48029   7.454   2.723   8.714  0.0070 -0.1289 -0.4998
  349MOL0     C48030   7.560   2.789   8.757 -0.4706 -0.4024  0.1580
  349MOL0     C48031   7.587   2.920   8.711 -0.3786 -0.1804  0.0573
  349MOL0     O48032   7.689   3.008   8.743 -0.6852 -0.0191  0.2385
  349MOL0     C48033   7.817   2.951   8.777  0.5312 -0.5037 -0.4822
  349MOL0     C48034   7.895   3.081   8.821 -0.0520 -0.1666  0.0314
  349MOL0     C48035   8.039   3.063   8.873  0.1071 -0.4331 -0.2422
  349MOL0     C48036   8.127   3.010   8.756 -0.2390  0.8845  0.4629
  349MOL0     C48037   8.276   2.968   8.796  0.6575  0.3214 -0.8890
  349MOL0     C48038   8.355   3.050   8.902  0.5347 -0.7626  0.1524
  349MOL0     C48039   8.481   2.976   8.949 -0.7133 -1.1224 -0.3210
  349MOL0     C48040   8.595   3.076   8.984 -0.0687  0.3101  0.1377
  349MOL0     N48041   8.666   3.111   8.856  0.8738  0.6504 -0.4159
  349MOL0     C48042   8.616   3.196   8.757 -0.4773 -0.4840  0.6181
  349MOL0     C48043   8.725   3.191   8.667  0.2971 -1.4358  1.3392
  349MOL0     C48044   8.716   3.273   8.533  0.8092  0.5813  0.1484
  349MOL0     C48045   8.798   3.225   8.411 -1.0030  0.3432  0.6082
  349MOL0     C48046   8.952   3.214   8.439  0.7110  0.2580  0.1867
  349MOL0     C48047   9.006   3.335   8.529 -0.3199  0.4620  0.2539
  349MOL0     O48048   8.989   3.450   8.454 -0.4509  0.4175 -0.3061
  349MOL0     C48049   9.047   3.567   8.509  0.3777 -0.0286  0.4522
  349MOL0     C48050   9.031   3.691   8.438  1.2224  0.7232 -0.2506
  349MOL0     C48051   9.099   3.805   8.475  0.3949  0.0760 -0.3169
  349MOL0     C48052   9.059   3.926   8.396 -0.6725  0.5906  0.3292
  349MOL0     C48053   9.177   3.812   8.594 -0.4758  0.3956  0.4548
  349MOL0     C48054   9.230   3.932   8.634 -0.5983  0.1858 -0.0764
  349MOL0     O48055   9.159   4.011   8.720  0.2518 -0.8976 -0.3486
  349MOL0     C48056   9.234   4.110   8.782  0.2641  0.8850 -0.1489
  349MOL0     C48057   9.338   4.074   8.865 -0.1290  0.1270 -0.5573
  349MOL0     C48058   9.410   4.181   8.933 -0.4285 -0.1456 -0.3041
  349MOL0     C48059   9.376   4.318   8.915  1.2722  0.5401 -0.2179
  349MOL0     O48060   9.440   4.415   8.996 -0.5872  0.1090  0.3939
  349MOL0     C48061   9.578   4.403   9.044 -0.1892  0.0373  0.0089
  349MOL0     C48062   9.624   4.546   9.077  0.9878  0.5501  0.2760
  349MOL0     C48063   9.774   4.540   9.108  0.0406 -0.3862 -0.3130
  349MOL0     C48064   9.829   4.669   9.183  0.1771 -0.2700  1.1095
  349MOL0     C48065   9.981   4.652   9.218 -0.4122 -0.0140  0.2237
  349MOL0     C48066  10.026   4.771   9.301 -0.5472 -0.1123 -0.6378
  349MOL0     C48067  10.067   4.885   9.202 -0.5103 -0.5006  0.5959
  349MOL0     C48068  10.079   5.013   9.285  0.3244 -0.4772  1.0101
  349MOL0    Cl48069  10.120   5.158   9.190 -0.1731 -0.3173  0.2224
  349MOL0     C48070   9.268   4.347   8.823  0.1942  0.4141  0.4081
  349MOL0     C48071   9.201   4.244   8.756  0.3070 -0.8736  0.6488
  349MOL0     O48072   9.337   3.961   8.578 -0.4071  0.1186 -0.0197
  349MOL0     C48073   9.195   3.690   8.664  0.2881 -0.2077 -0.7738
  349MOL0     C48074   9.127   3.570   8.623  0.1457 -0.6740  0.5661
  349MOL0     N48075   8.822   3.109   8.713  0.4637  0.0792  0.6890
  349MOL0     N48076   8.781   3.055   8.821 -1.0572 -0.1327  0.7161
  349MOL0     C48077   7.500   2.978   8.619 -0.8094 -0.4049 -0.0212
  349MOL0     C48078   7.379   2.912   8.580 -0.8343 -0.4451  0.6030
  349MOL0     C48079   7.045   2.707   8.479 -0.4510  0.3825  0.2633
  349MOL0     C48080   6.981   2.634   8.589  0.6577 -0.6568 -0.1114
  349MOL0     C48081   6.844   2.613   8.571  1.0597  0.2013 -0.2918
  349MOL0     C48082   6.759   2.662   8.468 -0.4303  0.0742  0.2637
  349MOL0     O48083   6.626   2.631   8.453  0.4918 -0.4476 -0.6219
  349MOL0     C48084   6.599   2.490   8.425  0.3114  0.7469  0.3660
  349MOL0     C48085   6.456   2.467   8.454  0.3838  0.6261 -0.0689
  349MOL0     C48086   6.367   2.525   8.342  0.2211 -0.8424 -0.3331
  349MOL0     C48087   6.224   2.497   8.343  0.6395  0.0158 -0.0919
  349MOL0     C48088   6.156   2.552   8.222  0.1622 -0.0622  1.0441
  349MOL0     C48089   6.103   2.598   8.118  0.4151 -0.3467  0.2777
  349MOL0     C48090   6.825   2.736   8.370  0.1460 -0.5003  0.8029
  349MOL0     C48091   6.965   2.759   8.369 -0.5295  0.1078 -0.6714
  349MOL0     C48092   7.027   2.814   8.241  0.2336 -0.1016  0.7974
  349MOL0     H48093   7.439   2.627   8.762  0.1285  0.9044  1.7550
  349MOL0     H48094   7.627   2.738   8.826  0.3403  0.9929  0.4456
  349MOL0     H48095   7.860   2.906   8.687 -1.8590 -2.9262 -0.5285
  349MOL0     H48096   7.808   2.876   8.856 -1.0174 -1.8755 -1.8698
  349MOL0     H48097   7.888   3.153   8.740  2.4013  3.0244  2.3729
  349MOL0     H48098   7.829   3.129   8.894  0.2316  0.9929 -0.4594
  349MOL0     H48099   8.068   3.166   8.897 -0.7689  0.0248 -1.1005
  349MOL0     H48100   8.048   2.996   8.959  1.7197 -1.6248 -1.3092
  349MOL0     H48101   8.075   2.943   8.687 -0.5795 -0.1058  1.6357
  349MOL0     H48102   8.132   3.099   8.692 -1.6676 -0.5888 -1.8615
  349MOL0     H48103   8.335   2.980   8.705  3.2446 -3.0877  0.1328
  349MOL0     H48104   8.271   2.864   8.830 -1.4381  0.5308 -0.4332
  349MOL0     H48105   8.372   3.150   8.863  0.8255 -1.4451 -1.5663
  349MOL0     H48106   8.287   3.063   8.987 -0.9012  1.9401 -1.2876
  349MOL0     H48107   8.514   2.915   8.864  0.8881  1.2102 -1.4781
  349MOL0     H48108   8.463   2.919   9.041  1.4337 -0.5027  0.5319
  349MOL0     H48109   8.562   3.161   9.045 -1.3090 -0.9154  1.2462
  349MOL0     H48110   8.669   3.019   9.041 -2.1972 -1.2860  1.4987
  349MOL0     H48111   8.528   3.259   8.763 -1.2423 -1.5350  0.6925
  349MOL0     H48112   8.747   3.377   8.548 -1.0477  1.6634 -2.6893
  349MOL0     H48113   8.610   3.280   8.509  1.3050  1.8952 -1.9218
  349MOL0     H48114   8.757   3.129   8.376  0.2695 -0.6043  1.6070
  349MOL0     H48115   8.777   3.292   8.327 -1.6151 -0.5139  0.0445
  349MOL0     H48116   8.970   3.117   8.485 -0.8683  0.2713  0.9283
  349MOL0     H48117   9.002   3.218   8.342 -2.4081  3.4694 -1.5408
  349MOL0     H48118   8.957   3.327   8.626  1.3947 -0.9248  1.0679
  349MOL0     H48119   9.114   3.324   8.542  0.4920  0.7896 -4.4358
  349MOL0     H48120   8.965   3.684   8.352  0.1166 -1.1403  0.6786
  349MOL0     H48121   8.996   3.902   8.309 -0.3866  0.1476  0.2363
  349MOL0     H48122   9.150   3.962   8.346 -0.4121  0.3069  0.5889
  349MOL0     H48123   9.017   4.005   8.458 -0.1539  1.1774 -0.0592
  349MOL0     H48124   9.365   3.973   8.892  0.6739  0.7802  1.2487
  349MOL0     H48125   9.482   4.154   9.009 -3.4788 -1.4213  2.3812
  349MOL0     H48126   9.581   4.346   9.137 -1.2581 -2.9236 -1.6504
  349MOL0     H48127   9.645   4.363   8.967  1.3608 -2.1299  2.3303
  349MOL0     H48128   9.607   4.619   8.997 -2.7443  0.4802  0.8336
  349MOL0     H48129   9.588   4.594   9.169  0.2737  1.2469 -0.3461
  349MOL0     H48130   9.836   4.529   9.018  0.9787 -0.1781  0.2865
  349MOL0     H48131   9.809   4.457   9.170  2.5544  0.8932  0.1173
  349MOL0     H48132   9.767   4.692   9.269 -1.5058  0.0188 -0.1302
  349MOL0     H48133   9.809   4.752   9.115 -0.9357 -0.7581  0.8155
  349MOL0     H48134  10.003   4.561   9.277  1.6708 -0.6655 -1.4177
  349MOL0     H48135  10.040   4.634   9.127 -0.8128 -0.2785  0.0135
  349MOL0     H48136  10.115   4.744   9.358  0.0452  2.1724 -0.3961
  349MOL0     H48137   9.947   4.808   9.367  2.3753 -0.0481  3.2161
  349MOL0     H48138  10.003   4.899   9.115 -0.4148 -2.2419  0.2034
  349MOL0     H48139  10.159   4.858   9.150 -0.6965  0.3941 -0.2175
  349MOL0     H48140  10.166   4.999   9.350  0.8394  3.0836  1.2437
  349MOL0     H48141   9.989   5.034   9.342 -1.3502  1.8822 -2.1844
  349MOL0     H48142   9.220   4.441   8.796  0.7304  0.2740 -1.1274
  349MOL0     H48143   9.115   4.273   8.695  0.7689  0.6371  0.6754
  349MOL0     H48144   9.241   3.685   8.761 -3.4011 -1.1810  1.1229
  349MOL0     H48145   9.138   3.477   8.678  0.8181 -1.1367 -0.3285
  349MOL0     H48146   7.539   3.068   8.573 -0.1406  0.9411  2.9608
  349MOL0     H48147   7.317   2.940   8.495  0.9398 -2.3797 -1.4596
  349MOL0     H48148   7.027   2.594   8.679  1.3148 -0.1165 -0.2018
  349MOL0     H48149   6.794   2.553   8.646  3.6147 -1.5516  0.1334
  349MOL0     H48150   6.627   2.465   8.323 -0.4173 -1.3613  0.6156
  349MOL0     H48151   6.667   2.429   8.485  1.1530  2.3827  1.1361
  349MOL0     H48152   6.421   2.514   8.547 -1.5220 -1.1094  0.1570
  349MOL0     H48153   6.446   2.359   8.445 -0.7347  0.5017  2.0200
  349MOL0     H48154   6.368   2.634   8.349 -2.2971 -0.7168 -0.9773
  349MOL0     H48155   6.419   2.505   8.248 -1.3399 -1.6971 -1.0484
  349MOL0     H48156   6.177   2.546   8.428  0.7978  0.0466 -0.0216
  349MOL0     H48157   6.202   2.390   8.345  1.2172 -0.3078 -3.8929
  349MOL0     H48158   6.070   2.649   8.030  0.6176  1.2317  1.0842
  349MOL0     H48159   6.770   2.762   8.280  2.2048  0.5296 -0.2467
  349MOL0     H48160   6.946   2.839   8.173 -1.4439  1.2518  3.1218
  349MOL0     H48161   7.087   2.905   8.255 -1.3670  1.3465 -1.2401
  349MOL0     H48162   7.091   2.744   8.188 -0.4674 -0.1312 -0.0217
  350MOL0     O48163   0.620   0.782  10.280 -0.1945  0.1537 -0.2450
  350MOL0     C48164   0.549   0.796  10.378 -0.9095 -1.2980 -0.6602
  350MOL0     O48165   0.601   0.794  10.502  0.0777 -0.3559  0.0238
  350MOL0     C48166   0.740   0.804  10.526  0.1797  0.0374 -0.0611
  350MOL0     C48167   0.785   0.717  10.629 -0.4981 -0.0228 -0.1285
  350MOL0     C48168   0.926   0.726  10.655  0.0038 -0.6175 -1.1973
  350MOL0     C48169   1.009   0.813  10.586 -0.0750  1.1606  1.4785
  350MOL0     O48170   1.133   0.828  10.619 -0.7092 -0.1494  0.1329
  350MOL0     C48171   1.210   0.711  10.634  0.0734 -0.4941 -0.0975
  350MOL0     C48172   1.365   0.739  10.653 -0.1241  0.3222  0.2285
  350MOL0     C48173   1.428   0.777  10.526  0.1671  0.0836  0.3518
  350MOL0     C48174   1.581   0.744  10.525 -0.1430 -0.3109 -0.5538
  350MOL0     C48175   1.654   0.804  10.408  0.6978 -0.2497  0.2493
  350MOL0     C48176   1.787   0.748  10.408 -0.3725  1.2122  0.7164
  350MOL0     C48177   1.856   0.797  10.286 -0.0984  0.1080 -0.4278
  350MOL0     C48178   1.998   0.747  10.269 -0.2684  0.6372 -0.1913
  350MOL0     N48179   2.089   0.808  10.372 -0.6403  0.0194  0.0429
  350MOL0     C48180   2.163   0.920  10.354  0.5427  0.1177 -0.4678
  350MOL0     C48181   2.243   0.932  10.463  0.3277  0.1538 -0.1773
  350MOL0     C48182   2.349   1.032  10.497  0.0427  0.6839  0.5388
  350MOL0     C48183   2.481   0.953  10.470 -0.1848 -0.3922 -0.2836
  350MOL0     C48184   2.536   0.884  10.602  0.3489  0.0113 -0.2489
  350MOL0     C48185   2.668   0.797  10.576  0.4971 -0.1768  0.8330
  350MOL0     O48186   2.746   0.797  10.698 -0.4208 -0.2007 -0.0986
  350MOL0     C48187   2.869   0.729  10.695  0.1530 -0.1617  0.0292
  350MOL0     C48188   2.914   0.667  10.816 -0.0456 -0.5365 -0.4387
  350MOL0     C48189   3.031   0.594  10.821 -0.6235  0.4567 -0.1218
  350MOL0     C48190   3.062   0.538  10.960  0.2825 -0.2464  0.2463
  350MOL0     C48191   3.118   0.581  10.708  0.2757 -0.4057 -0.9020
  350MOL0     C48192   3.248   0.503  10.706  0.0648 -0.6504  0.6369
  350MOL0     O48193   3.304   0.494  10.585 -0.9839 -0.4265  0.1795
  350MOL0     C48194   3.424   0.426  10.588  0.6152 -0.6258  0.1699
  350MOL0     C48195   3.438   0.286  10.548  0.0483 -0.0996 -0.0539
  350MOL0     C48196   3.569   0.233  10.545  0.5804  0.3855  0.7299
  350MOL0     C48197   3.681   0.314  10.580 -0.9300 -1.1432  0.1341
  350MOL0     O48198   3.814   0.268  10.573  0.6177  0.2547  0.0358
  350MOL0     C48199   3.844   0.167  10.474 -0.5390  0.3381  0.9452
  350MOL0     C48200   4.001   0.149  10.455  0.8549 -0.6379 -0.2845
  350MOL0     C48201   4.033   0.025  10.359  0.1822 -0.5013  0.4508
  350MOL0     C48202   3.961   0.020  10.222 -0.1223 -0.3176 -0.3037
  350MOL0     C48203   4.045  -0.065  10.134  0.2091  0.5925 -0.1533
  350MOL0     C48204   4.006  -0.054   9.983 -0.2444 -0.3591 -0.7022
  350MOL0     C48205   4.070  -0.161   9.898  0.0253  0.5775 -0.2528
  350MOL0     C48206   4.033  -0.132   9.749 -0.2116 -0.1447  0.6824
  350MOL0    Cl48207   3.864  -0.188   9.714 -0.0271 -0.2913 -0.1412
  350MOL0     C48208   3.667   0.444  10.627  0.3101  0.2748 -0.0692
  350MOL0     C48209   3.535   0.500  10.641 -0.6611  0.3580  0.0087
  350MOL0     O48210   3.271   0.425  10.799  0.1525  1.3253 -0.1180
  350MOL0     C48211   3.079   0.654  10.594 -0.6134 -0.1486 -0.1348
  350MOL0     C48212   2.950   0.715  10.580  0.0107 -0.0835 -0.5489
  350MOL0     N48213   2.210   0.828  10.549 -0.1834  0.3428  0.2370
  350MOL0     N48214   2.121   0.748  10.497 -0.8375 -0.9427 -0.7285
  350MOL0     C48215   0.957   0.887  10.477  0.0124  0.0236 -0.3385
  350MOL0     C48216   0.824   0.885  10.449  0.2094  0.1312  0.1658
  350MOL0     C48217   0.403   0.831  10.368  0.3471 -0.4406  0.4541
  350MOL0     C48218   0.327   0.853  10.485 -0.1427  0.0557  0.1553
  350MOL0     C48219   0.195   0.886  10.472  0.2838  0.1644  0.0342
  350MOL0     C48220   0.128   0.895  10.351  0.7407 -0.3608  1.0812
  350MOL0     O48221  -0.004   0.938  10.331 -0.7131  0.6825  0.3951
  350MOL0     C48222  -0.063   1.030  10.426 -0.2280  0.4223  0.1619
  350MOL0     C48223  -0.207   1.006  10.431  0.2824 -0.0680 -0.1313
  350MOL0     C48224  -0.290   1.025  10.306  0.8506 -0.3177  0.3879
  350MOL0     C48225  -0.288   1.167  10.251 -0.2410  0.2006  0.2154
  350MOL0     C48226  -0.352   1.264  10.339 -1.2111  0.5702 -0.8497
  350MOL0     C48227  -0.388   1.354  10.413 -0.3178  0.0117 -0.3854
  350MOL0     C48228   0.204   0.875  10.237 -0.5088  0.0116  0.2868
  350MOL0     C48229   0.341   0.839  10.244  1.0263 -0.6364 -0.1372
  350MOL0     C48230   0.391   0.799  10.103  0.2034  0.2744  0.2692
  350MOL0     H48231   0.725   0.653  10.692 -1.0039  2.0776  1.6355
  350MOL0     H48232   0.963   0.673  10.742 -1.7202 -0.3138 -0.2274
  350MOL0     H48233   1.193   0.645  10.549 -0.1686 -0.6442  0.0654
  350MOL0     H48234   1.170   0.670  10.727  2.2084  1.2230  1.6966
  350MOL0     H48235   1.390   0.803  10.738 -0.8003 -1.7436  2.1141
  350MOL0     H48236   1.407   0.640  10.676  0.4406  0.5577  0.2120
  350MOL0     H48237   1.377   0.737  10.438 -1.5257  1.3020  0.7336
  350MOL0     H48238   1.413   0.885  10.511  0.1355 -0.1181 -1.2480
  350MOL0     H48239   1.641   0.775  10.611 -1.2198  0.0801  0.0736
  350MOL0     H48240   1.593   0.636  10.511  2.7955  0.1244 -2.2640
  350MOL0     H48241   1.655   0.912  10.427 -1.0182 -0.4691  1.7573
  350MOL0     H48242   1.600   0.779  10.316  1.9995 -1.0702 -0.3412
  350MOL0     H48243   1.848   0.771  10.496  0.1232  1.3110  0.3486
  350MOL0     H48244   1.790   0.639  10.399  3.2742  1.3337 -1.0878
  350MOL0     H48245   1.852   0.906  10.297  1.5793  0.0064  1.9191
  350MOL0     H48246   1.798   0.758  10.203 -0.6725 -1.5694  0.7036
  350MOL0     H48247   2.004   0.639  10.284  2.0290  1.1203  3.8389
  350MOL0     H48248   2.036   0.781  10.172 -0.9218 -0.9867 -1.0522
  350MOL0     H48249   2.158   0.977  10.261  1.8692  0.9840 -0.0444
  350MOL0     H48250   2.338   1.075  10.597 -2.6554  1.8058 -0.1580
  350MOL0     H48251   2.331   1.114  10.427  0.6225 -0.6866 -1.2810
  350MOL0     H48252   2.476   0.865  10.405  0.7104 -1.2897  0.8215
  350MOL0     H48253   2.551   1.031  10.442 -2.2310  0.5057 -3.4617
  350MOL0     H48254   2.561   0.961  10.676  1.7189 -2.0198  1.5159
  350MOL0     H48255   2.466   0.818  10.655  2.3627 -1.0879  1.1822
  350MOL0     H48256   2.655   0.697  10.535 -2.3547  1.0410 -1.6913
  350MOL0     H48257   2.728   0.848  10.500  0.1209  1.9279  1.8556
  350MOL0     H48258   2.855   0.682  10.906 -0.1734  2.0107 -0.8522
  350MOL0     H48259   3.157   0.575  11.000 -0.7988  0.4899  2.2647
  350MOL0     H48260   3.060   0.429  10.962  0.3486 -0.2543 -0.1049
  350MOL0     H48261   2.989   0.570  11.035  2.4275  3.7578  0.9045
  350MOL0     H48262   3.348   0.229  10.531  1.9606 -3.5106  0.2616
  350MOL0     H48263   3.593   0.133  10.512 -0.7886 -0.2687  1.6582
  350MOL0     H48264   3.811   0.067  10.502  1.7763 -1.6343 -2.7365
  350MOL0     H48265   3.807   0.189  10.373  2.5835  1.5282 -0.0411
  350MOL0     H48266   4.039   0.243  10.414  2.0135 -1.2010 -0.5260
  350MOL0     H48267   4.050   0.117  10.546  1.1721 -1.5402 -0.7608
  350MOL0     H48268   4.016  -0.068  10.415 -0.2539 -0.5430  0.2597
  350MOL0     H48269   4.139   0.038  10.335 -0.5028  0.5168 -2.5021
  350MOL0     H48270   3.941   0.121  10.184  0.5855  0.3202  0.9452
  350MOL0     H48271   3.863  -0.028  10.227  0.2670 -0.9591  2.2369
  350MOL0     H48272   4.152  -0.042  10.130  0.2243  0.3534 -1.1728
  350MOL0     H48273   4.044  -0.170  10.163  1.7566  0.5521 -0.1700
  350MOL0     H48274   4.052   0.036   9.939 -0.9864 -0.3139 -1.4115
  350MOL0     H48275   3.899  -0.061   9.964  0.0182 -0.3419 -2.3474
  350MOL0     H48276   4.039  -0.262   9.928 -1.5873  1.1002 -0.0321
  350MOL0     H48277   4.177  -0.150   9.914  0.2944  0.6781 -1.9318
  350MOL0     H48278   4.101  -0.183   9.680  0.1507  0.6162  0.4752
  350MOL0     H48279   4.040  -0.027   9.722  4.7032 -0.2205  0.8334
  350MOL0     H48280   3.761   0.486  10.661  0.8375  0.4270 -1.6371
  350MOL0     H48281   3.518   0.605  10.663  1.0031  1.1759 -2.1637
  350MOL0     H48282   3.138   0.659  10.504  1.0001 -2.8422  0.6480
  350MOL0     H48283   2.923   0.773  10.492 -1.7906  0.3785  0.2536
  350MOL0     H48284   1.030   0.939  10.416  0.3947  1.1749  1.0355
  350MOL0     H48285   0.787   0.943  10.364  0.3950  1.3721  0.9086
  350MOL0     H48286   0.372   0.852  10.584  1.0494 -0.1902 -0.3750
  350MOL0     H48287   0.137   0.891  10.564 -0.4006  0.9956 -0.4231
  350MOL0     H48288  -0.016   1.009  10.523  1.8558 -1.1910 -1.0981
  350MOL0     H48289  -0.037   1.131  10.391  0.6456 -0.2944 -1.3434
  350MOL0     H48290  -0.245   1.080  10.502 -1.2312  1.9156 -2.8297
  350MOL0     H48291  -0.242   0.916  10.483 -0.4636  0.0672 -0.3944
  350MOL0     H48292  -0.253   0.949  10.236 -0.6528 -1.0496  0.3452
  350MOL0     H48293  -0.397   1.003  10.313  0.7497  0.5371  1.6554
  350MOL0     H48294  -0.339   1.160  10.155  0.9836  0.5604 -0.4801
  350MOL0     H48295  -0.189   1.210  10.233  1.1152 -2.9213 -0.4135
  350MOL0     H48296  -0.405   1.441  10.473  2.4466 -0.5449  1.3824
  350MOL0     H48297   0.166   0.893  10.138  0.7986  0.6452 -0.1284
  350MOL0     H48298   0.434   0.699  10.112 -1.6797 -0.8452 -2.1900
  350MOL0     H48299   0.311   0.792  10.029 -0.9024  0.3020  1.4182
  350MOL0     H48300   0.466   0.868  10.062 -0.0616  0.1094 -0.5032
  351MOL0     O48301   6.009   1.746   1.054  0.7658  0.1592 -0.2412
  351MOL0     C48302   6.042   1.680   1.153  0.2429 -0.0276  1.2666
  351MOL0     O48303   6.170   1.664   1.187 -0.3266 -0.2667 -0.4322
  351MOL0     C48304   6.273   1.712   1.111 -0.0587  0.5440 -0.1312
  351MOL0     C48305   6.388   1.626   1.107  0.5110 -0.3220 -0.7895
  351MOL0     C48306   6.509   1.670   1.046  0.0421  0.4257  0.2225
  351MOL0     C48307   6.510   1.788   0.977 -0.2977 -0.6108 -0.4884
  351MOL0     O48308   6.634   1.821   0.931  0.6858  0.3359 -0.4842
  351MOL0     C48309   6.653   1.951   0.872 -0.6437  0.4647 -0.1771
  351MOL0     C48310   6.801   1.972   0.854  0.8218  0.6292  0.4482
  351MOL0     C48311   6.823   2.016   0.708 -0.1322  0.3351  0.0807
  351MOL0     C48312   6.974   2.011   0.660  0.4116 -0.3688  0.4282
  351MOL0     C48313   7.075   2.099   0.732 -0.0800  0.1365  0.2454
  351MOL0     C48314   7.214   2.059   0.701  0.3817  0.1778  0.7291
  351MOL0     C48315   7.310   2.164   0.762  0.3256 -0.3274  0.7689
  351MOL0     C48316   7.293   2.301   0.694 -1.0701 -0.3160 -0.2407
  351MOL0     N48317   7.423   2.378   0.680  0.2196  1.0504  0.5989
  351MOL0     C48318   7.527   2.357   0.591 -0.1267 -1.2992 -0.4777
  351MOL0     C48319   7.611   2.460   0.623 -0.8898 -0.1240  0.2716
  351MOL0     C48320   7.743   2.499   0.557 -0.1114 -0.9838  0.1679
  351MOL0     C48321   7.740   2.647   0.501  0.5038 -0.1695 -0.2724
  351MOL0     C48322   7.863   2.665   0.402 -0.7342 -0.3015 -0.5775
  351MOL0     C48323   8.001   2.680   0.462 -0.4668  0.0551 -0.2827
  351MOL0     O48324   7.981   2.794   0.552 -0.2971 -1.0349  0.5654
  351MOL0     C48325   8.089   2.821   0.632  0.0239 -0.7028 -0.2610
  351MOL0     C48326   8.059   2.904   0.735  0.1205 -0.5016  0.2580
  351MOL0     C48327   8.156   2.966   0.806 -0.4488 -0.0475 -0.3019
  351MOL0     C48328   8.118   3.079   0.905  0.2806  0.3566  0.8417
  351MOL0     C48329   8.295   2.926   0.792 -0.4292  0.1551  0.4747
  351MOL0     C48330   8.411   2.966   0.881 -0.3384 -0.8438 -0.7457
  351MOL0     O48331   8.538   2.948   0.822 -0.2181  0.1431  0.3328
  351MOL0     C48332   8.647   2.964   0.902 -0.3382  0.4222  0.3086
  351MOL0     C48333   8.687   2.856   0.980 -0.6423  0.0776 -0.8217
  351MOL0     C48334   8.812   2.866   1.046  0.2549  1.2866 -0.1541
  351MOL0     C48335   8.874   2.991   1.062 -0.4019 -0.1243  0.1701
  351MOL0     O48336   8.986   3.013   1.128 -0.0587 -0.1276 -0.2068
  351MOL0     C48337   9.049   2.906   1.200 -0.7442 -0.7924  0.0394
  351MOL0     C48338   9.180   2.950   1.266  0.6676  0.2023 -0.5066
  351MOL0     C48339   9.283   2.986   1.163 -0.0215  0.6323  0.3459
  351MOL0     C48340   9.394   3.077   1.224  0.2657 -0.8478  1.1873
  351MOL0     C48341   9.479   3.146   1.107 -0.4518 -0.4471 -0.6282
  351MOL0     C48342   9.555   3.038   1.017  0.4973 -0.6700 -0.8295
  351MOL0     C48343   9.603   3.109   0.890 -0.5308 -0.5772  0.1964
  351MOL0     C48344   9.718   3.031   0.820 -0.0462 -0.6091 -0.2936
  351MOL0    Cl48345   9.854   3.044   0.931  0.0060 -0.2514  0.0318
  351MOL0     C48346   8.828   3.104   0.990  0.6217 -0.9214  0.3223
  351MOL0     C48347   8.717   3.088   0.901  0.2937 -0.7947 -0.3504
  351MOL0     O48348   8.394   2.986   1.003 -0.2415  0.2054 -0.0458
  351MOL0     C48349   8.318   2.828   0.693  0.0011 -0.4473  0.5355
  351MOL0     C48350   8.219   2.781   0.608 -0.3189  0.3534  0.1974
  351MOL0     N48351   7.552   2.541   0.718  0.1608 -0.8155  0.6673
  351MOL0     N48352   7.441   2.487   0.760  0.2908 -0.4132  0.8492
  351MOL0     C48353   6.394   1.872   0.968  0.7318 -0.2459 -1.1330
  351MOL0     C48354   6.282   1.835   1.045  0.7453  0.0226 -0.3436
  351MOL0     C48355   5.931   1.614   1.227 -0.6685  0.1853  0.0419
  351MOL0     C48356   5.956   1.537   1.343 -0.5853  0.0332 -0.6463
  351MOL0     C48357   5.861   1.486   1.426 -0.7460 -0.4392  0.5722
  351MOL0     C48358   5.729   1.500   1.389 -0.3951  0.3444 -0.7354
  351MOL0     O48359   5.631   1.450   1.464 -0.3571  0.2394  0.0682
  351MOL0     C48360   5.639   1.326   1.532 -0.8698  1.0508  0.0205
  351MOL0     C48361   5.637   1.210   1.437  0.3057  0.1231  0.6806
  351MOL0     C48362   5.515   1.226   1.340  0.1406 -0.2175 -0.0767
  351MOL0     C48363   5.381   1.221   1.422 -0.7992  0.0623  0.4484
  351MOL0     C48364   5.319   1.350   1.433 -0.7214 -1.1795 -0.3683
  351MOL0     C48365   5.271   1.462   1.446  0.0865  0.0173  0.1644
  351MOL0     C48366   5.690   1.565   1.272 -0.4863 -0.5070 -0.4224
  351MOL0     C48367   5.795   1.618   1.187 -0.0531 -0.2095 -0.6118
  351MOL0     C48368   5.736   1.687   1.055 -0.5254  0.3017 -0.3169
  351MOL0     H48369   6.376   1.528   1.151 -2.6902  0.4742  0.4455
  351MOL0     H48370   6.603   1.617   1.043  0.2253  0.7789 -1.4021
  351MOL0     H48371   6.595   2.021   0.932 -1.4304 -2.3094  2.5968
  351MOL0     H48372   6.608   1.949   0.773  1.0113 -2.1029 -0.9679
  351MOL0     H48373   6.839   2.046   0.926 -0.8103  2.2373 -0.2593
  351MOL0     H48374   6.864   1.885   0.874  0.2536  0.8678  3.9606
  351MOL0     H48375   6.767   1.948   0.644 -0.4903 -0.6617  1.4031
  351MOL0     H48376   6.775   2.114   0.702  1.8510  1.2815 -1.8943
  351MOL0     H48377   7.002   1.906   0.666  0.2183 -0.5636 -1.6106
  351MOL0     H48378   6.974   2.038   0.554 -2.7979 -2.2096 -0.1839
  351MOL0     H48379   7.065   2.101   0.841  1.4440  0.9552  0.4070
  351MOL0     H48380   7.057   2.203   0.701 -1.1128  0.1286  0.7605
  351MOL0     H48381   7.230   1.957   0.737  1.1654 -0.8936 -2.3955
  351MOL0     H48382   7.224   2.058   0.593 -0.2876  0.4778  0.6596
  351MOL0     H48383   7.418   2.147   0.756  0.2701 -0.4011 -0.0479
  351MOL0     H48384   7.293   2.177   0.869 -2.3333  1.1836  0.2362
  351MOL0     H48385   7.257   2.283   0.592 -1.3868 -3.6097  0.3533
  351MOL0     H48386   7.226   2.369   0.748  2.1336  3.4953 -0.5748
  351MOL0     H48387   7.544   2.278   0.519  2.4939 -0.6763 -0.6412
  351MOL0     H48388   7.753   2.441   0.465  1.4606  2.1259 -1.7798
  351MOL0     H48389   7.828   2.485   0.625 -0.0307 -1.4441 -0.0236
  351MOL0     H48390   7.644   2.664   0.453 -1.2528 -1.0632  2.6461
  351MOL0     H48391   7.747   2.716   0.586 -0.8203 -0.5817  0.2058
  351MOL0     H48392   7.865   2.578   0.336 -3.1141 -1.7796  1.1646
  351MOL0     H48393   7.851   2.761   0.351  0.8013  0.0560 -0.3046
  351MOL0     H48394   8.033   2.587   0.511 -1.0622  0.6725  1.3727
  351MOL0     H48395   8.072   2.707   0.384 -0.2732  0.5933  0.0678
  351MOL0     H48396   7.960   2.931   0.772 -0.3402  0.8611 -1.8191
  351MOL0     H48397   8.126   3.038   1.006  0.1730  1.5840  1.3700
  351MOL0     H48398   8.022   3.123   0.877 -0.3393 -1.4282  0.0449
  351MOL0     H48399   8.179   3.170   0.915 -2.4924  2.5655 -0.7480
  351MOL0     H48400   8.640   2.759   0.965 -2.3773  0.9235 -1.0738
  351MOL0     H48401   8.839   2.782   1.109 -1.8472  2.3241  2.3001
  351MOL0     H48402   8.979   2.867   1.275 -1.3783 -2.4645 -1.3544
  351MOL0     H48403   9.062   2.832   1.120  0.2966 -1.1386  0.5062
  351MOL0     H48404   9.148   3.032   1.331  1.0499  0.1449 -0.2438
  351MOL0     H48405   9.221   2.873   1.332  0.4530  1.1635  0.7735
  351MOL0     H48406   9.230   3.030   1.078 -0.5112 -2.9913 -1.4003
  351MOL0     H48407   9.333   2.900   1.117 -3.0128 -1.1374  0.1740
  351MOL0     H48408   9.461   3.020   1.288 -0.1715 -1.3437  1.2113
  351MOL0     H48409   9.338   3.156   1.276 -0.3618  0.3603 -1.1947
  351MOL0     H48410   9.422   3.218   1.047  0.0588  1.8956  1.5367
  351MOL0     H48411   9.553   3.208   1.158 -0.5254  2.2967 -3.5348
  351MOL0     H48412   9.479   2.976   0.969  1.9166 -2.2596 -1.0997
  351MOL0     H48413   9.628   2.980   1.073 -1.3064 -0.6119  1.8050
  351MOL0     H48414   9.626   3.213   0.914 -3.4270  0.1131  0.3046
  351MOL0     H48415   9.520   3.126   0.822  0.6617 -1.1575 -1.4563
  351MOL0     H48416   9.749   3.066   0.721  1.1565 -0.4507  0.1210
  351MOL0     H48417   9.688   2.926   0.809 -2.3643 -0.1134  0.7437
  351MOL0     H48418   8.879   3.199   0.992 -1.6247  0.4015 -1.2128
  351MOL0     H48419   8.703   3.170   0.831 -3.0480 -1.0478 -0.1274
  351MOL0     H48420   8.420   2.792   0.689  0.0250 -0.2772 -0.8123
  351MOL0     H48421   8.256   2.727   0.521  2.4681  1.2567  0.7436
  351MOL0     H48422   6.380   1.963   0.911 -1.5356 -1.0926 -2.0556
  351MOL0     H48423   6.204   1.910   1.058  0.2305 -0.7825  1.3985
  351MOL0     H48424   6.063   1.521   1.353  0.2029  3.5324 -2.0413
  351MOL0     H48425   5.901   1.445   1.518 -0.5022  0.7187  1.0044
  351MOL0     H48426   5.730   1.324   1.593  1.1954  1.1032 -2.8506
  351MOL0     H48427   5.562   1.322   1.610  0.0982 -1.3627  0.9435
  351MOL0     H48428   5.636   1.119   1.498  2.1444 -2.0278 -2.2114
  351MOL0     H48429   5.727   1.202   1.376  0.3966  1.5720  0.5964
  351MOL0     H48430   5.526   1.320   1.285 -0.1144 -0.7032 -0.9918
  351MOL0     H48431   5.514   1.143   1.269 -1.8370  1.0993 -1.7111
  351MOL0     H48432   5.396   1.178   1.521  0.0923  0.6821  0.5925
  351MOL0     H48433   5.314   1.158   1.362  2.2823 -1.8443 -1.2657
  351MOL0     H48434   5.247   1.566   1.459  0.2007  0.2097 -1.0153
  351MOL0     H48435   5.584   1.573   1.249 -0.8091 -0.9107  0.8407
  351MOL0     H48436   5.780   1.780   1.016  3.0388 -0.9224  0.3938
  351MOL0     H48437   5.728   1.608   0.980  1.1547 -3.5963  3.2743
  351MOL0     H48438   5.636   1.722   1.082  0.1228  1.7337  0.3472
  352MOL0     O48439  11.162   4.544   2.721  0.1120  0.6084  1.1309
  352MOL0     C48440  11.185   4.437   2.768 -0.0596  0.2576  0.1349
  352MOL0     O48441  11.267   4.342   2.714 -0.3468  0.0342  0.7859
  352MOL0     C48442  11.313   4.355   2.582 -0.5722  0.3792  0.4497
  352MOL0     C48443  11.240   4.404   2.474 -0.0994 -0.3935 -0.5638
  352MOL0     C48444  11.300   4.408   2.346 -0.4846  0.2518  0.0075
  352MOL0     C48445  11.431   4.365   2.331 -0.3352 -0.5697  0.4620
  352MOL0     O48446  11.508   4.362   2.221  0.2296 -0.6973  0.1677
  352MOL0     C48447  11.441   4.389   2.095 -0.6858 -0.1442  0.1140
  352MOL0     C48448  11.533   4.419   1.982  0.1062  0.0374  0.9949
  352MOL0     C48449  11.646   4.320   1.953 -0.4365 -0.2787  0.6025
  352MOL0     C48450  11.735   4.365   1.845  0.1925 -0.3941  0.4446
  352MOL0     C48451  11.860   4.270   1.848 -0.5969  0.2095  0.3234
  352MOL0     C48452  11.948   4.278   1.718 -0.3022  0.2541 -0.5162
  352MOL0     C48453  12.074   4.201   1.722  0.1020 -0.0997  0.1057
  352MOL0     C48454  12.180   4.250   1.813 -0.5605  0.3770 -1.0096
  352MOL0     N48455  12.239   4.126   1.883  0.0865 -0.7655  0.9903
  352MOL0     C48456  12.229   4.088   2.013  0.3227  1.0663  0.7771
  352MOL0     C48457  12.307   3.975   2.025  0.8841 -0.0334  0.7028
  352MOL0     C48458  12.324   3.910   2.157 -0.3797  0.1388  0.4828
  352MOL0     C48459  12.469   3.858   2.163 -0.0328  0.3773  0.4419
  352MOL0     C48460  12.500   3.746   2.263  0.2297 -0.1857  0.0041
  352MOL0     C48461  12.651   3.700   2.258 -0.0926 -0.4283  0.6179
  352MOL0     O48462  12.738   3.814   2.272  0.5391 -0.0421 -1.3430
  352MOL0     C48463  12.880   3.808   2.272  0.7716  0.8855  0.4331
  352MOL0     C48464  12.955   3.918   2.295 -0.3903 -0.0080 -0.6831
  352MOL0     C48465  13.100   3.909   2.301  0.3936  0.3432 -0.0240
  352MOL0     C48466  13.165   4.037   2.337  0.0587 -0.9605 -0.5251
  352MOL0     C48467  13.164   3.780   2.280 -0.1704 -0.4994 -0.1034
  352MOL0     C48468  13.305   3.756   2.284 -0.9121  0.5206 -0.6173
  352MOL0     O48469  13.352   3.630   2.318  0.3618  0.1551  0.1836
  352MOL0     C48470  13.481   3.599   2.298 -0.9150  0.4587  0.8745
  352MOL0     C48471  13.535   3.502   2.383 -0.3008 -0.4849 -0.3073
  352MOL0     C48472  13.672   3.491   2.389 -0.3379  0.6388  0.9269
  352MOL0     C48473  13.755   3.562   2.299 -0.4958 -0.2992 -0.1652
  352MOL0     O48474  13.889   3.546   2.319  0.6777  0.6620 -0.0020
  352MOL0     C48475  13.985   3.644   2.260  0.3485 -0.2353 -0.1584
  352MOL0     C48476  13.971   3.789   2.316  0.0017  0.3482  0.1951
  352MOL0     C48477  14.099   3.879   2.297 -0.2086 -0.0503 -0.4877
  352MOL0     C48478  14.227   3.835   2.381 -0.3709  0.8316  0.1885
  352MOL0     C48479  14.349   3.916   2.339  0.6386  0.3027  0.8646
  352MOL0     C48480  14.332   4.065   2.378  0.5752 -0.0632 -0.1167
  352MOL0     C48481  14.467   4.137   2.369  0.3851 -0.2899  0.0491
  352MOL0     C48482  14.451   4.270   2.442 -0.4442 -0.6001 -0.6054
  352MOL0    Cl48483  14.618   4.332   2.458  0.4711 -0.1724  0.2701
  352MOL0     C48484  13.696   3.624   2.194  0.2771  0.0061 -0.2405
  352MOL0     C48485  13.561   3.651   2.199 -1.4208  0.5746  0.4816
  352MOL0     O48486  13.378   3.856   2.267 -0.0132  0.4507  0.2944
  352MOL0     C48487  13.083   3.673   2.245 -0.2504  0.3065  0.5752
  352MOL0     C48488  12.945   3.686   2.232  0.7797  0.5556  0.0910
  352MOL0     N48489  12.358   3.947   1.900 -0.1880 -0.1431  0.1230
  352MOL0     N48490  12.311   4.031   1.814 -0.7207  0.2907 -0.0906
  352MOL0     C48491  11.508   4.319   2.440  0.9678 -0.1645  0.3530
  352MOL0     C48492  11.443   4.310   2.561  0.0354 -0.4385  1.0357
  352MOL0     C48493  11.130   4.407   2.900  0.1308 -0.2828 -1.1367
  352MOL0     C48494  11.211   4.343   2.991  0.0739  0.2762  0.3679
  352MOL0     C48495  11.160   4.311   3.124  0.8375  0.0405  0.3996
  352MOL0     C48496  11.025   4.330   3.157 -0.7586  1.0710  0.4506
  352MOL0     O48497  10.970   4.275   3.264  0.0444  0.2242 -0.3230
  352MOL0     C48498  11.060   4.189   3.352  0.6486 -0.1223 -0.2546
  352MOL0     C48499  11.002   4.133   3.482  0.6183 -0.0876 -0.0309
  352MOL0     C48500  10.948   4.253   3.556 -0.1765 -0.2795  0.0663
  352MOL0     C48501  10.897   4.216   3.694  0.2302 -0.0817 -0.3295
  352MOL0     C48502  10.791   4.117   3.702 -0.4502  0.4560  0.2965
  352MOL0     C48503  10.704   4.038   3.674 -0.0829  0.7478 -0.2124
  352MOL0     C48504  10.949   4.388   3.060  0.0247 -0.1340 -0.3427
  352MOL0     C48505  10.999   4.430   2.938 -0.1179 -0.4950  0.5600
  352MOL0     C48506  10.899   4.477   2.828 -0.4480  0.9763  0.5739
  352MOL0     H48507  11.139   4.442   2.478 -0.6974 -1.8552 -1.1207
  352MOL0     H48508  11.235   4.427   2.262 -1.3306  2.6605  1.1123
  352MOL0     H48509  11.369   4.469   2.113 -0.2810 -0.1295  1.8785
  352MOL0     H48510  11.384   4.301   2.062 -0.0873 -0.1808 -0.8656
  352MOL0     H48511  11.481   4.421   1.886  1.8318 -2.3987 -0.0912
  352MOL0     H48512  11.567   4.522   1.999 -0.7311  0.6780 -0.9202
  352MOL0     H48513  11.712   4.310   2.040  2.6960 -0.4528 -1.6186
  352MOL0     H48514  11.600   4.223   1.931 -3.4740  1.3908 -1.0214
  352MOL0     H48515  11.691   4.356   1.745  1.6304  1.3878 -0.3862
  352MOL0     H48516  11.771   4.468   1.858 -0.8106  0.0222  0.0336
  352MOL0     H48517  11.809   4.174   1.837 -2.1942  1.0341  0.2509
  352MOL0     H48518  11.925   4.284   1.935  2.0281  1.3487 -1.7139
  352MOL0     H48519  11.887   4.240   1.636 -1.3573  2.8434 -1.0332
  352MOL0     H48520  11.971   4.382   1.691 -2.4366  0.9945  0.3236
  352MOL0     H48521  12.116   4.212   1.621 -1.6143 -3.4825 -1.1272
  352MOL0     H48522  12.054   4.095   1.741  0.9029  0.1530  2.6442
  352MOL0     H48523  12.262   4.298   1.758  1.3030 -0.8428  0.5892
  352MOL0     H48524  12.143   4.324   1.885  2.6006  1.0577  0.0658
  352MOL0     H48525  12.192   4.143   2.100  1.6108  1.1711  1.2904
  352MOL0     H48526  12.257   3.824   2.171  0.9623 -1.2127 -0.9190
  352MOL0     H48527  12.310   3.972   2.246 -2.5523  0.5477 -0.0899
  352MOL0     H48528  12.506   3.819   2.068 -2.3945 -0.1620 -0.3113
  352MOL0     H48529  12.531   3.945   2.188 -0.6554  0.8803  0.2666
  352MOL0     H48530  12.468   3.767   2.365 -2.0785 -0.7486 -0.5345
  352MOL0     H48531  12.441   3.659   2.232  1.3773 -0.3236 -1.9339
  352MOL0     H48532  12.661   3.630   2.342 -4.8750  0.7972  2.5481
  352MOL0     H48533  12.670   3.635   2.172  2.0653 -1.1024  1.5199
  352MOL0     H48534  12.902   4.013   2.298 -1.2646 -0.4981 -0.4166
  352MOL0     H48535  13.227   4.071   2.254  0.3438  3.0961  1.0848
  352MOL0     H48536  13.226   4.033   2.428  1.9394 -0.6349 -1.7152
  352MOL0     H48537  13.098   4.121   2.354  1.8414  0.4396 -0.0389
  352MOL0     H48538  13.467   3.448   2.448  1.6424 -2.5082  0.1889
  352MOL0     H48539  13.728   3.417   2.444 -2.5197 -0.0984  2.2903
  352MOL0     H48540  14.080   3.598   2.289  1.4728  2.9502  1.6914
  352MOL0     H48541  13.980   3.642   2.150 -1.6552 -1.6398 -0.0947
  352MOL0     H48542  13.884   3.831   2.265  0.0237  2.0855  1.5094
  352MOL0     H48543  13.950   3.782   2.423  2.9688  1.4038  0.9510
  352MOL0     H48544  14.077   3.983   2.322 -1.5725 -0.0120 -1.6591
  352MOL0     H48545  14.123   3.882   2.190 -2.1320  1.0550 -0.9468
  352MOL0     H48546  14.253   3.729   2.380 -1.2714  0.6037 -0.7403
  352MOL0     H48547  14.221   3.868   2.485  3.6134  2.0034  0.1817
  352MOL0     H48548  14.442   3.879   2.383 -0.6569 -1.8703  1.9844
  352MOL0     H48549  14.367   3.894   2.234 -0.0480  0.2197  0.7595
  352MOL0     H48550  14.286   4.065   2.477 -0.9978  0.3275 -0.8167
  352MOL0     H48551  14.262   4.109   2.306 -0.0012  0.1130  0.5407
  352MOL0     H48552  14.508   4.148   2.268 -0.7354 -2.5316 -0.7141
  352MOL0     H48553  14.545   4.084   2.424  2.1323  0.3520 -1.6393
  352MOL0     H48554  14.417   4.260   2.545 -0.4805  2.3137 -0.2592
  352MOL0     H48555  14.386   4.337   2.386 -0.7859 -0.3368  0.0964
  352MOL0     H48556  13.752   3.672   2.115 -1.3768 -1.3546 -2.3655
  352MOL0     H48557  13.517   3.719   2.127  0.5570  0.2796 -1.0722
  352MOL0     H48558  13.133   3.577   2.235  0.4479  0.4937  2.0808
  352MOL0     H48559  12.892   3.597   2.198 -0.3032  0.2951  2.2828
  352MOL0     H48560  11.606   4.278   2.423 -0.1702 -1.3247 -5.1030
  352MOL0     H48561  11.496   4.286   2.653  1.1605  0.8505  0.7653
  352MOL0     H48562  11.313   4.311   2.973  0.1548  0.0010  1.2400
  352MOL0     H48563  11.233   4.271   3.194 -0.0513 -0.4112  1.0837
  352MOL0     H48564  11.081   4.101   3.292  0.0262  0.0414 -0.7292
  352MOL0     H48565  11.158   4.231   3.377 -0.5241  2.1526  0.8234
  352MOL0     H48566  11.081   4.078   3.534  0.2198 -0.5417  0.0992
  352MOL0     H48567  10.921   4.062   3.461  0.3482  0.2669 -0.1908
  352MOL0     H48568  11.027   4.329   3.562 -0.5997  0.2608 -0.8860
  352MOL0     H48569  10.873   4.304   3.495  0.6297  0.0853 -0.6439
  352MOL0     H48570  10.849   4.299   3.746 -0.1941 -1.3173  1.3340
  352MOL0     H48571  10.978   4.179   3.757 -0.4757 -0.8988  0.1112
  352MOL0     H48572  10.638   3.960   3.642  0.3774  0.2137  0.1182
  352MOL0     H48573  10.845   4.403   3.087 -0.2544 -0.4522 -1.2086
  352MOL0     H48574  10.940   4.575   2.804  0.1985  0.6251  0.2018
  352MOL0     H48575  10.888   4.404   2.748 -0.3062 -0.1649  1.5650
  352MOL0     H48576  10.805   4.506   2.876  0.3971  1.2307  2.1624
  353MOL0     O48577   4.444   0.911   2.870  0.5341  0.4813 -0.4055
  353MOL0     C48578   4.387   0.985   2.790  0.1326 -0.1050  0.2215
  353MOL0     O48579   4.424   1.026   2.664  0.1756 -1.0312 -0.4312
  353MOL0     C48580   4.557   1.041   2.654  0.9977 -0.2064  0.4521
  353MOL0     C48581   4.606   1.035   2.521 -0.4689 -0.5698 -0.9190
  353MOL0     C48582   4.744   1.032   2.493 -0.8113  0.4833  0.4435
  353MOL0     C48583   4.833   1.052   2.597 -0.8772  0.4734  0.5910
  353MOL0     O48584   4.972   1.070   2.568 -0.0606  0.4611 -0.1221
  353MOL0     C48585   5.043   0.956   2.615  0.3505 -0.3884 -0.7571
  353MOL0     C48586   5.187   0.991   2.577  0.1751 -0.6681  0.2306
  353MOL0     C48587   5.286   0.874   2.585  0.8712  0.2950  0.0524
  353MOL0     C48588   5.421   0.928   2.619 -0.1610 -0.6544  0.1604
  353MOL0     C48589   5.486   1.039   2.524  0.4255 -0.1556  0.5529
  353MOL0     C48590   5.599   1.110   2.586 -0.5338 -0.5120  0.1616
  353MOL0     C48591   5.643   1.224   2.498  0.5696  0.1810 -0.0609
  353MOL0     C48592   5.757   1.307   2.565 -0.1311 -1.2051  0.4169
  353MOL0     N48593   5.883   1.232   2.585 -0.4009 -0.0028  0.1471
  353MOL0     C48594   5.941   1.141   2.495 -0.5650 -0.9784  1.2677
  353MOL0     C48595   6.059   1.120   2.552  0.1734 -0.4355  1.2153
  353MOL0     C48596   6.144   1.007   2.497  0.3224  0.1111 -0.4363
  353MOL0     C48597   6.289   1.053   2.478  0.2561  0.4746 -0.2541
  353MOL0     C48598   6.366   1.050   2.609  0.2400 -0.2448  0.0792
  353MOL0     C48599   6.515   1.094   2.588 -0.2650  0.4388  0.2299
  353MOL0     O48600   6.525   1.206   2.502  0.7208  0.2862 -0.3593
  353MOL0     C48601   6.645   1.277   2.480 -0.1541  0.0873 -0.7084
  353MOL0     C48602   6.657   1.372   2.385 -0.3358  0.2398 -0.4721
  353MOL0     C48603   6.781   1.430   2.353 -0.0321  0.6078 -0.2367
  353MOL0     C48604   6.788   1.523   2.244  1.2123  0.2661 -0.3382
  353MOL0     C48605   6.896   1.389   2.431 -0.5698  0.7604  0.1673
  353MOL0     C48606   7.034   1.444   2.392  0.1408 -0.1485 -0.5514
  353MOL0     O48607   7.137   1.367   2.424 -0.2072 -0.2563 -0.1171
  353MOL0     C48608   7.271   1.413   2.431  0.4569  0.6061  0.0248
  353MOL0     C48609   7.362   1.322   2.482  0.2286 -0.6633 -0.0129
  353MOL0     C48610   7.502   1.350   2.488 -0.0917 -0.0605  0.6754
  353MOL0     C48611   7.556   1.465   2.443  0.9243 -0.5057 -0.3038
  353MOL0     O48612   7.690   1.468   2.433  0.4455  0.1042  0.5977
  353MOL0     C48613   7.747   1.593   2.398  0.1155 -0.1426 -0.0225
  353MOL0     C48614   7.895   1.575   2.417 -0.2290 -0.5273  0.7560
  353MOL0     C48615   7.952   1.545   2.557 -0.5110  0.5237 -0.1096
  353MOL0     C48616   8.101   1.589   2.564 -0.0130  0.6607  0.0679
  353MOL0     C48617   8.174   1.555   2.694  0.8249 -0.0398 -0.9024
  353MOL0     C48618   8.136   1.668   2.801  0.3959  0.4483 -0.2745
  353MOL0     C48619   8.148   1.613   2.945  0.3063 -0.4646 -0.1413
  353MOL0     C48620   8.032   1.531   3.002  0.4932  0.1841  0.0368
  353MOL0    Cl48621   7.871   1.615   3.004 -0.7117  0.1629 -0.1691
  353MOL0     C48622   7.464   1.559   2.398 -0.7212 -0.0279 -0.1432
  353MOL0     C48623   7.332   1.531   2.389 -0.7933 -0.4756  0.1014
  353MOL0     O48624   7.041   1.562   2.356  0.0974 -0.0662  0.3834
  353MOL0     C48625   6.886   1.275   2.519  0.4778 -0.1892  0.5840
  353MOL0     C48626   6.761   1.228   2.540  0.2634 -0.3634  0.0937
  353MOL0     N48627   6.080   1.204   2.654 -0.1759  0.2944 -0.4634
  353MOL0     N48628   5.975   1.262   2.678  0.2309 -0.1381 -0.7459
  353MOL0     C48629   4.783   1.056   2.731 -0.2459 -0.8749  0.7360
  353MOL0     C48630   4.646   1.061   2.752  0.1476 -0.1215  0.5663
  353MOL0     C48631   4.239   1.004   2.812 -0.1077 -0.1038  0.2480
  353MOL0     C48632   4.162   1.057   2.709  0.3390 -0.2907 -0.5235
  353MOL0     C48633   4.018   1.072   2.711 -0.9165  1.0645  0.2674
  353MOL0     C48634   3.957   1.054   2.830 -0.1145  1.0760 -0.1437
  353MOL0     O48635   3.828   1.059   2.867 -0.1340  0.5376  0.1862
  353MOL0     C48636   3.739   1.101   2.763  0.2376 -0.0566 -0.0673
  353MOL0     C48637   3.597   1.068   2.817  0.5682 -0.0273  0.9680
  353MOL0     C48638   3.488   1.119   2.721 -0.0833 -0.1621 -0.5017
  353MOL0     C48639   3.358   1.073   2.790 -0.3402  0.9599 -0.3532
  353MOL0     C48640   3.322   0.939   2.743 -0.2804 -0.4712  0.0063
  353MOL0     C48641   3.285   0.831   2.702 -0.3108  0.6400  0.5309
  353MOL0     C48642   4.035   1.017   2.945 -0.1688  0.6750 -0.4331
  353MOL0     C48643   4.173   0.987   2.933 -0.8276  0.3142 -0.2216
  353MOL0     C48644   4.222   0.924   3.061  0.1629 -0.5118  0.2909
  353MOL0     H48645   4.534   1.050   2.441 -2.1778  1.5528  0.8694
  353MOL0     H48646   4.780   1.026   2.391 -0.7482  1.0617  0.4282
  353MOL0     H48647   5.013   0.865   2.561  0.0853 -1.5659  1.2285
  353MOL0     H48648   5.026   0.944   2.723 -1.0854 -2.2305 -1.1283
  353MOL0     H48649   5.191   1.034   2.476 -1.1131 -1.2287 -0.0762
  353MOL0     H48650   5.221   1.064   2.650  1.8236 -1.0143 -0.1273
  353MOL0     H48651   5.255   0.798   2.658  0.9240 -0.3472 -0.5737
  353MOL0     H48652   5.289   0.815   2.492  1.2224 -0.1325  0.3321
  353MOL0     H48653   5.412   0.968   2.720  1.0930  0.6277 -0.1973
  353MOL0     H48654   5.487   0.841   2.620  0.1368 -0.6043 -3.2050
  353MOL0     H48655   5.404   1.110   2.505 -1.0484 -2.2605 -1.4954
  353MOL0     H48656   5.507   0.996   2.426 -3.4934  1.4079 -1.1889
  353MOL0     H48657   5.579   1.140   2.690 -0.1533 -0.9112  0.3536
  353MOL0     H48658   5.682   1.040   2.598 -0.5070 -0.5526 -0.2460
  353MOL0     H48659   5.562   1.296   2.490 -1.2381 -1.8171 -0.6600
  353MOL0     H48660   5.673   1.191   2.398  1.1676  0.5486 -0.0118
  353MOL0     H48661   5.780   1.396   2.505 -0.7480 -0.9530  0.5460
  353MOL0     H48662   5.728   1.345   2.664  1.7619 -0.8573  0.8797
  353MOL0     H48663   5.905   1.098   2.402  2.7544  2.6461 -2.0622
  353MOL0     H48664   6.095   0.974   2.404  0.4492 -1.2168 -0.0560
  353MOL0     H48665   6.137   0.927   2.571 -5.2620 -0.7466 -1.4605
  353MOL0     H48666   6.336   0.984   2.408  0.8195  1.1721 -0.5804
  353MOL0     H48667   6.283   1.158   2.447  0.2887  1.3041  2.2718
  353MOL0     H48668   6.321   1.126   2.674  2.2528  1.8414 -0.8060
  353MOL0     H48669   6.365   0.953   2.660  0.9319 -1.3368 -1.8750
  353MOL0     H48670   6.571   1.110   2.680  0.5181 -2.4034  0.3397
  353MOL0     H48671   6.574   1.011   2.547  1.5957  0.7669  2.0513
  353MOL0     H48672   6.566   1.393   2.330 -1.3098  0.4373  1.1451
  353MOL0     H48673   6.811   1.626   2.273  2.9062  0.0956 -0.9901
  353MOL0     H48674   6.691   1.524   2.192 -1.2909  2.9547  3.7708
  353MOL0     H48675   6.870   1.492   2.179  1.4735 -0.8500  0.4898
  353MOL0     H48676   7.329   1.225   2.517 -0.2737 -0.0695  1.1769
  353MOL0     H48677   7.563   1.264   2.514 -2.1784 -1.5910  0.7646
  353MOL0     H48678   7.728   1.615   2.293  2.7120  3.9907  0.1304
  353MOL0     H48679   7.703   1.681   2.446  2.7455  2.2249 -1.6347
  353MOL0     H48680   7.927   1.493   2.352  0.7563 -0.7733  1.5215
  353MOL0     H48681   7.941   1.667   2.380  0.5485 -1.3769 -0.4518
  353MOL0     H48682   7.945   1.438   2.577 -0.1104  0.5355  0.0971
  353MOL0     H48683   7.884   1.598   2.624  0.7583 -0.7069  2.2873
  353MOL0     H48684   8.118   1.695   2.542  1.2642  0.0493 -2.2941
  353MOL0     H48685   8.173   1.545   2.494  1.1018 -0.6046  1.9150
  353MOL0     H48686   8.141   1.458   2.732  2.4797  0.5824  2.4934
  353MOL0     H48687   8.283   1.552   2.678  1.3147  0.3030  1.8998
  353MOL0     H48688   8.034   1.702   2.780 -0.5187 -2.4933 -1.0988
  353MOL0     H48689   8.204   1.752   2.781  1.1030  0.8509  3.0477
  353MOL0     H48690   8.154   1.704   3.006  3.1472  0.6636 -1.8913
  353MOL0     H48691   8.241   1.560   2.964  0.0531 -0.3599  1.5446
  353MOL0     H48692   8.056   1.507   3.106 -2.3725 -1.1311  0.4899
  353MOL0     H48693   8.021   1.441   2.941 -0.1161  0.5779 -0.4430
  353MOL0     H48694   7.493   1.656   2.359 -1.9962  0.7277  0.6963
  353MOL0     H48695   7.269   1.609   2.347 -1.5067 -0.9146  0.3544
  353MOL0     H48696   6.977   1.245   2.570  1.1456  2.3116  0.9816
  353MOL0     H48697   6.756   1.147   2.612 -0.0310 -0.0710  0.4086
  353MOL0     H48698   4.848   1.071   2.817 -0.6652 -0.0859  0.9201
  353MOL0     H48699   4.612   1.077   2.854 -0.9353 -2.3189  0.6207
  353MOL0     H48700   4.213   1.073   2.615  2.1974  0.1114  0.5136
  353MOL0     H48701   3.959   1.108   2.627  0.7329 -0.0838 -1.4916
  353MOL0     H48702   3.754   1.207   2.741  3.6345 -0.3021  0.4748
  353MOL0     H48703   3.755   1.040   2.674 -1.3636  0.5148 -0.7753
  353MOL0     H48704   3.595   1.120   2.913  0.9230  3.9134 -0.9441
  353MOL0     H48705   3.596   0.960   2.832  0.2271 -0.2361 -0.4208
  353MOL0     H48706   3.482   1.228   2.708  1.1923  0.1496  1.1598
  353MOL0     H48707   3.492   1.085   2.617  1.5402 -1.4608 -0.0545
  353MOL0     H48708   3.269   1.134   2.771 -0.2013  1.2230 -0.1574
  353MOL0     H48709   3.370   1.073   2.898 -2.4778 -0.6376 -0.0592
  353MOL0     H48710   3.244   0.741   2.659  1.3355 -0.2668  0.7829
  353MOL0     H48711   3.980   1.007   3.039 -0.3129 -1.6509 -0.6982
  353MOL0     H48712   4.140   0.867   3.106 -3.0329  4.6005  1.8623
  353MOL0     H48713   4.311   0.862   3.050  0.8011  0.3542  0.4390
  353MOL0     H48714   4.238   1.008   3.129 -0.6433 -0.0536 -0.0670
  354MOL0     O48715   5.724   2.813   9.140 -1.1002  0.3932 -1.0741
  354MOL0     C48716   5.679   2.915   9.200 -0.5946 -0.2443 -0.1588
  354MOL0     O48717   5.732   3.044   9.197 -0.9663 -0.2214 -0.1757
  354MOL0     C48718   5.845   3.067   9.132 -0.3424 -0.2356 -0.5814
  354MOL0     C48719   5.960   2.992   9.163  0.2841  0.4525 -0.0719
  354MOL0     C48720   6.086   3.016   9.103 -0.3262  0.2091  0.0008
  354MOL0     C48721   6.094   3.120   9.006 -0.2852  0.8307 -0.0881
  354MOL0     O48722   6.223   3.127   8.951  0.1174 -0.3421 -0.1065
  354MOL0     C48723   6.265   3.249   8.876 -0.0895 -0.3720  0.6131
  354MOL0     C48724   6.408   3.267   8.901  0.2042  0.4640 -0.8930
  354MOL0     C48725   6.466   3.363   8.801  0.3616 -0.0740  0.0631
  354MOL0     C48726   6.388   3.491   8.765  0.1717  0.5049 -0.2391
  354MOL0     C48727   6.477   3.579   8.685 -0.5838 -0.8620 -0.8004
  354MOL0     C48728   6.460   3.574   8.539  0.3143 -0.4755 -0.4153
  354MOL0     C48729   6.330   3.644   8.498  0.7672 -0.6086 -0.1274
  354MOL0     C48730   6.337   3.671   8.344  0.6929 -0.1481 -0.4501
  354MOL0     N48731   6.206   3.730   8.290 -0.4130 -0.7382  0.1162
  354MOL0     C48732   6.119   3.653   8.227 -0.0153 -0.0924  0.0744
  354MOL0     C48733   6.037   3.744   8.165 -0.0517  0.5550 -0.7651
  354MOL0     C48734   5.907   3.729   8.084 -1.2562  0.4223 -0.2331
  354MOL0     C48735   5.929   3.632   7.967 -0.3542  0.5440 -0.0072
  354MOL0     C48736   5.814   3.606   7.861 -0.0140  0.2937  0.6431
  354MOL0     C48737   5.670   3.607   7.905  0.1590  0.2761  0.8556
  354MOL0     O48738   5.645   3.508   8.003 -0.0542 -0.3956  0.0209
  354MOL0     C48739   5.518   3.462   8.009 -0.3021 -0.2301 -0.1123
  354MOL0     C48740   5.505   3.369   8.114  0.2409 -0.0555 -0.0740
  354MOL0     C48741   5.383   3.314   8.151  0.3426  0.0276 -0.1508
  354MOL0     C48742   5.393   3.222   8.274  0.4109  0.9029  0.4507
  354MOL0     C48743   5.267   3.363   8.087  0.4215 -0.4571  0.0966
  354MOL0     C48744   5.127   3.331   8.119  0.0254 -1.0712  0.0024
  354MOL0     O48745   5.033   3.427   8.091 -0.3990 -0.0322  0.0495
  354MOL0     C48746   4.901   3.391   8.136  0.2771  0.4688  0.0194
  354MOL0     C48747   4.829   3.471   8.229  0.8037  0.0068  0.6432
  354MOL0     C48748   4.705   3.433   8.276 -0.7586 -0.4222 -0.1731
  354MOL0     C48749   4.643   3.319   8.215 -0.2794  0.3137 -0.7272
  354MOL0     O48750   4.520   3.291   8.277 -0.5505 -0.5288 -0.4255
  354MOL0     C48751   4.446   3.191   8.214  0.3095  0.0357 -0.7684
  354MOL0     C48752   4.307   3.176   8.271  0.5469 -0.8177 -0.7925
  354MOL0     C48753   4.232   3.061   8.188  0.5230 -0.6717 -0.7282
  354MOL0     C48754   4.091   3.040   8.241 -0.0917  0.0075  0.4422
  354MOL0     C48755   3.975   2.987   8.147  0.1943 -0.7145  0.2146
  354MOL0     C48756   3.861   2.924   8.223  0.3212 -1.1606  0.5696
  354MOL0     C48757   3.747   2.891   8.118 -0.6639  0.2457  0.5774
  354MOL0     C48758   3.632   2.796   8.153  0.1098 -0.1092  0.0570
  354MOL0    Cl48759   3.539   2.874   8.281 -0.2277  0.4282 -0.1482
  354MOL0     C48760   4.707   3.242   8.118  0.0457  0.8351  0.2292
  354MOL0     C48761   4.830   3.277   8.072  0.4807 -0.7589  0.2188
  354MOL0     O48762   5.101   3.221   8.174  0.1733  0.4310 -0.6853
  354MOL0     C48763   5.282   3.454   7.983 -0.1825 -0.3010  0.7417
  354MOL0     C48764   5.405   3.507   7.939  0.8581  0.4759 -1.1002
  354MOL0     N48765   6.088   3.873   8.179 -0.3446 -0.2709  0.1635
  354MOL0     N48766   6.185   3.863   8.265 -0.0969 -0.4073 -0.2198
  354MOL0     C48767   5.986   3.211   8.988 -0.8503  0.6120  0.0247
  354MOL0     C48768   5.866   3.183   9.055  0.6130 -0.6495 -0.4395
  354MOL0     C48769   5.550   2.903   9.255 -0.3003  0.3715  0.1403
  354MOL0     C48770   5.531   2.878   9.389 -0.9670 -0.1998 -0.0413
  354MOL0     C48771   5.410   2.893   9.460  0.2984  0.1498 -0.1557
  354MOL0     C48772   5.295   2.924   9.388  0.1435 -1.0197  0.9777
  354MOL0     O48773   5.166   2.939   9.442  0.6137  0.2217  0.2618
  354MOL0     C48774   5.159   2.957   9.580 -0.1720  0.1167 -0.8524
  354MOL0     C48775   5.019   3.016   9.620  0.0603  0.0691 -0.3828
  354MOL0     C48776   4.971   2.997   9.762  0.2506 -0.4048  0.2180
  354MOL0     C48777   5.082   3.037   9.861  0.3403  0.3731 -0.8509
  354MOL0     C48778   5.115   3.181   9.848  1.0304 -0.1408 -0.3888
  354MOL0     C48779   5.126   3.296   9.824  0.8864 -0.4401  0.4564
  354MOL0     C48780   5.304   2.937   9.249 -0.4781 -0.4382  0.1133
  354MOL0     C48781   5.431   2.937   9.181 -0.1893  0.5736 -0.4485
  354MOL0     C48782   5.439   2.969   9.037 -0.9991  0.0852  0.2686
  354MOL0     H48783   5.942   2.910   9.231 -2.3374  1.4526  0.5630
  354MOL0     H48784   6.161   2.946   9.139 -0.0857  0.1358 -0.6250
  354MOL0     H48785   6.218   3.342   8.908 -0.3512 -0.0416 -0.6636
  354MOL0     H48786   6.241   3.230   8.770  0.4736 -4.1708  1.0067
  354MOL0     H48787   6.423   3.300   9.004  1.2725 -0.7073 -0.6559
  354MOL0     H48788   6.464   3.173   8.896  2.5272  1.7588 -0.5796
  354MOL0     H48789   6.563   3.387   8.846  0.4423 -0.5353  0.1403
  354MOL0     H48790   6.472   3.303   8.710  1.4786 -1.2876  0.9018
  354MOL0     H48791   6.299   3.460   8.708 -0.9202  1.5158  0.8430
  354MOL0     H48792   6.354   3.544   8.855  1.3530  1.8039 -0.5277
  354MOL0     H48793   6.581   3.564   8.715  0.4921  2.9466 -2.0579
  354MOL0     H48794   6.462   3.685   8.706 -0.3653 -0.8869 -0.5064
  354MOL0     H48795   6.546   3.623   8.493 -1.0469  1.9320 -0.5811
  354MOL0     H48796   6.462   3.468   8.512  0.4898 -0.9295  1.2664
  354MOL0     H48797   6.323   3.740   8.548  0.7064 -1.0749  0.7743
  354MOL0     H48798   6.239   3.591   8.527  1.0173  0.5737  3.2174
  354MOL0     H48799   6.420   3.737   8.317 -1.9958  3.5126 -0.5584
  354MOL0     H48800   6.358   3.570   8.307  1.2491  0.0063 -0.5636
  354MOL0     H48801   6.110   3.545   8.216 -0.1825  0.0292 -1.0982
  354MOL0     H48802   5.878   3.825   8.041  0.3875  1.6826  1.2881
  354MOL0     H48803   5.822   3.696   8.145 -2.0341  2.5422 -0.0747
  354MOL0     H48804   6.021   3.666   7.919 -2.1387  0.7145 -3.6691
  354MOL0     H48805   5.938   3.531   8.008 -0.3729 -0.9088 -3.3060
  354MOL0     H48806   5.835   3.675   7.779  0.5300 -0.6507 -0.0354
  354MOL0     H48807   5.845   3.510   7.819  3.4573  1.4412  0.2592
  354MOL0     H48808   5.640   3.706   7.942  3.5272  1.6246  0.3604
  354MOL0     H48809   5.610   3.589   7.816  2.9371  3.0615 -1.8301
  354MOL0     H48810   5.595   3.329   8.160  0.4226 -0.3542 -0.6725
  354MOL0     H48811   5.496   3.185   8.284  0.1886 -0.1312 -0.8495
  354MOL0     H48812   5.325   3.137   8.277  2.0732 -0.6654 -2.1714
  354MOL0     H48813   5.357   3.280   8.359 -0.4543  0.0747  0.6629
  354MOL0     H48814   4.871   3.563   8.270 -1.9647  1.9760 -0.6775
  354MOL0     H48815   4.650   3.495   8.347 -0.2047 -0.4475  0.2850
  354MOL0     H48816   4.450   3.208   8.106 -2.4521  0.6579 -0.8515
  354MOL0     H48817   4.491   3.095   8.238 -1.1173  0.2743  3.7772
  354MOL0     H48818   4.322   3.144   8.375  0.8682 -0.5355 -0.7508
  354MOL0     H48819   4.241   3.264   8.273  0.9721 -0.4924  1.6360
  354MOL0     H48820   4.292   2.970   8.196  0.5269 -0.5424  0.8246
  354MOL0     H48821   4.209   3.094   8.086 -1.3550 -3.8955 -1.4844
  354MOL0     H48822   4.061   3.140   8.275 -2.3618  0.3996 -2.2804
  354MOL0     H48823   4.107   2.970   8.323  0.1189 -2.9606 -1.9654
  354MOL0     H48824   3.941   3.068   8.083  1.1668 -0.6892 -0.2840
  354MOL0     H48825   4.016   2.911   8.080  4.2942  1.3438  0.0890
  354MOL0     H48826   3.829   3.005   8.288 -0.8268  0.2436 -1.6159
  354MOL0     H48827   3.892   2.831   8.273  1.7590 -0.5872  0.7916
  354MOL0     H48828   3.800   2.851   8.031  2.4351 -0.8098  2.7912
  354MOL0     H48829   3.709   2.988   8.083 -0.4518 -0.1125 -0.7155
  354MOL0     H48830   3.672   2.700   8.185 -0.1274  0.6867  3.0576
  354MOL0     H48831   3.579   2.780   8.059  2.0318 -1.3501 -0.8829
  354MOL0     H48832   4.658   3.166   8.059 -0.4420  1.7126 -0.5251
  354MOL0     H48833   4.888   3.219   8.001  2.5828 -0.5772  1.6912
  354MOL0     H48834   5.195   3.487   7.927 -0.9392  0.3553  2.2441
  354MOL0     H48835   5.401   3.581   7.860 -2.2441  1.6017 -0.0480
  354MOL0     H48836   5.982   3.285   8.909 -0.2718 -0.5413 -1.1294
  354MOL0     H48837   5.783   3.248   9.029  0.1985 -0.2998  1.6175
  354MOL0     H48838   5.619   2.860   9.449 -1.2627 -4.3215 -0.5732
  354MOL0     H48839   5.412   2.869   9.566  2.4359  0.1921 -0.1403
  354MOL0     H48840   5.163   2.861   9.633 -0.4349  0.7097  0.2849
  354MOL0     H48841   5.240   3.019   9.619 -0.1595  0.1865 -0.9903
  354MOL0     H48842   4.942   2.970   9.556  1.3205  0.3557 -2.1779
  354MOL0     H48843   5.019   3.123   9.600 -0.0091 -0.0406 -0.9829
  354MOL0     H48844   4.885   3.059   9.788  0.2837 -0.6902  1.0676
  354MOL0     H48845   4.939   2.893   9.779 -1.0263  0.0684  0.8195
  354MOL0     H48846   5.171   2.977   9.840 -0.0842 -0.1021 -1.2985
  354MOL0     H48847   5.051   3.024   9.965 -3.1179  0.6324 -1.7546
  354MOL0     H48848   5.134   3.402   9.812 -0.9722 -0.4970 -1.7788
  354MOL0     H48849   5.217   2.965   9.191  0.1507  0.7896 -0.2978
  354MOL0     H48850   5.475   3.072   9.021 -2.0099  0.6623  1.5100
  354MOL0     H48851   5.507   2.898   8.989  0.8597  0.2961  2.3896
  354MOL0     H48852   5.337   2.962   9.001 -2.2630 -0.3305  3.5885
  355MOL0     O48853  11.336  10.112  10.764  0.6646  0.5005  0.0279
  355MOL0     C48854  11.215  10.133  10.778  0.0340 -0.7021 -0.3246
  355MOL0     O48855  11.173  10.249  10.825 -0.7721  0.3789 -0.1256
  355MOL0     C48856  11.241  10.328  10.912  0.0959 -1.0896 -0.1699
  355MOL0     C48857  11.362  10.291  10.980 -0.4067 -0.3734  1.3393
  355MOL0     C48858  11.440  10.398  11.033 -0.0891  0.5299  0.4774
  355MOL0     C48859  11.392  10.535  11.034  0.0928  0.8174 -0.1827
  355MOL0     O48860  11.458  10.646  11.088 -0.1953  0.3553 -0.3058
  355MOL0     C48861  11.569  10.633  11.177  0.2373  0.7240  0.8375
  355MOL0     C48862  11.513  10.638  11.321 -0.3829 -0.5307  1.1336
  355MOL0     C48863  11.626  10.611  11.423  0.6258 -0.4938 -0.2056
  355MOL0     C48864  11.564  10.598  11.561 -0.5023 -0.7175  0.3454
  355MOL0     C48865  11.665  10.565  11.667  0.0796 -0.3965  0.0247
  355MOL0     C48866  11.685  10.413  11.681 -0.4136  0.3546 -0.1741
  355MOL0     C48867  11.755  10.382  11.820  0.0590 -0.0553  0.1449
  355MOL0     C48868  11.903  10.404  11.821  0.2569  0.0915  0.5097
  355MOL0     N48869  11.980  10.344  11.710  0.1904 -1.0634  0.8059
  355MOL0     C48870  12.022  10.212  11.699 -1.2372  0.3212 -0.2680
  355MOL0     C48871  12.076  10.210  11.580  0.2066  0.1088  0.4111
  355MOL0     C48872  12.153  10.092  11.527  0.4507 -0.1767 -0.7649
  355MOL0     C48873  12.309  10.121  11.534  0.4561  0.6913 -0.0911
  355MOL0     C48874  12.385   9.989  11.498  0.3068 -0.3747 -0.1655
  355MOL0     C48875  12.542  10.000  11.506  0.2041  0.5556  0.3192
  355MOL0     O48876  12.592   9.873  11.463  0.0590  0.0538 -0.3834
  355MOL0     C48877  12.727   9.830  11.483 -0.3832  0.2152  0.4578
  355MOL0     C48878  12.753   9.695  11.450  0.1116 -0.6137  0.1359
  355MOL0     C48879  12.880   9.643  11.471  0.2533 -0.4513 -0.9094
  355MOL0     C48880  12.894   9.501  11.422  0.7131 -0.2011 -0.2275
  355MOL0     C48881  12.985   9.726  11.524  0.3015  0.2161  0.7261
  355MOL0     C48882  13.117   9.667  11.545 -0.0997 -0.1823 -1.2396
  355MOL0     O48883  13.194   9.749  11.628  0.6624 -0.1632  0.0962
  355MOL0     C48884  13.323   9.714  11.659  0.1441 -0.2282 -0.2307
  355MOL0     C48885  13.426   9.764  11.590 -0.2085 -0.5957  0.3089
  355MOL0     C48886  13.555   9.748  11.633 -1.0415 -0.2348 -0.3166
  355MOL0     C48887  13.584   9.666  11.743 -0.0191  0.3522 -0.2281
  355MOL0     O48888  13.718   9.648  11.764 -0.3127  0.2158 -0.4806
  355MOL0     C48889  13.743   9.531  11.846 -0.3024 -0.1269  0.4211
  355MOL0     C48890  13.889   9.537  11.882  0.0077  0.1979  0.6701
  355MOL0     C48891  13.935   9.425  11.980 -0.3185  0.6965  0.3256
  355MOL0     C48892  14.088   9.425  12.013 -0.8259 -0.1793 -0.4061
  355MOL0     C48893  14.125   9.323  12.125 -0.2357 -1.2315  0.4819
  355MOL0     C48894  14.275   9.303  12.135  0.0180 -0.2992 -0.0246
  355MOL0     C48895  14.344   9.226  12.022  0.1053  1.0631 -0.3297
  355MOL0     C48896  14.500   9.222  12.030  0.5779 -0.8147  0.2678
  355MOL0    Cl48897  14.577   9.382  11.990  0.0220 -0.1017 -0.1245
  355MOL0     C48898  13.475   9.604  11.821 -1.1338  0.2847  0.3087
  355MOL0     C48899  13.348   9.636  11.773  0.1201  0.5175 -1.1433
  355MOL0     O48900  13.159   9.564  11.496 -0.1370 -0.2682 -0.0685
  355MOL0     C48901  12.954   9.854  11.563 -0.2011 -0.3053  0.1586
  355MOL0     C48902  12.823   9.909  11.538 -0.7968 -0.6764 -0.0820
  355MOL0     N48903  12.068  10.332  11.513 -0.1610  0.2959 -0.4544
  355MOL0     N48904  12.006  10.409  11.602 -0.1856 -0.1092  0.2490
  355MOL0     C48905  11.268  10.572  10.974 -0.3473 -0.0643  0.0787
  355MOL0     C48906  11.197  10.467  10.904  0.4919  0.0405 -0.6439
  355MOL0     C48907  11.117  10.037  10.728  0.1165  0.2572 -0.6160
  355MOL0     C48908  11.153   9.900  10.720 -0.0370  0.4032 -0.0178
  355MOL0     C48909  11.056   9.799  10.698  0.2095 -0.1829  0.7467
  355MOL0     C48910  10.921   9.837  10.667  0.0876  0.4593  0.1563
  355MOL0     O48911  10.842   9.729  10.629  0.0910 -0.0273  0.1983
  355MOL0     C48912  10.709   9.746  10.590 -0.4867  0.0903  0.4960
  355MOL0     C48913  10.619   9.762  10.710 -0.0550  1.0037 -0.1060
  355MOL0     C48914  10.474   9.791  10.652  0.2883 -0.5250 -0.1208
  355MOL0     C48915  10.362   9.809  10.749  0.0779 -1.0130 -0.2638
  355MOL0     C48916  10.364   9.717  10.859  0.1491 -0.4485 -0.8734
  355MOL0     C48917  10.339   9.659  10.963 -0.5246  1.2799 -0.0893
  355MOL0     C48918  10.889   9.979  10.667  0.4800 -0.4026  0.1884
  355MOL0     C48919  10.985  10.074  10.699  1.1215 -0.3814 -0.6321
  355MOL0     C48920  10.927  10.212  10.695 -0.2925 -0.4673  0.1489
  355MOL0     H48921  11.399  10.190  10.971  4.0750  1.1522  0.0791
  355MOL0     H48922  11.540  10.385  11.072  0.3727  1.6697 -0.2761
  355MOL0     H48923  11.646  10.704  11.147  2.9547 -1.8940  1.0714
  355MOL0     H48924  11.618  10.535  11.171  0.4412  0.7880  1.3710
  355MOL0     H48925  11.474  10.738  11.342 -0.0921 -0.1349 -0.1026
  355MOL0     H48926  11.433  10.566  11.342 -2.6160  1.0795 -1.2134
  355MOL0     H48927  11.683  10.522  11.395  0.8799  0.1240 -1.7775
  355MOL0     H48928  11.693  10.697  11.418  1.6362 -1.1436  1.4687
  355MOL0     H48929  11.532  10.692  11.607 -1.7380 -2.5860  3.6444
  355MOL0     H48930  11.478  10.530  11.563 -1.8351  0.7061 -2.3586
  355MOL0     H48931  11.610  10.588  11.759  0.0737 -1.4462  0.2939
  355MOL0     H48932  11.753  10.626  11.647  0.3543 -1.3354 -1.8846
  355MOL0     H48933  11.587  10.364  11.678  0.4871 -1.5528 -3.4088
  355MOL0     H48934  11.750  10.369  11.605  1.6685  1.3674  0.9468
  355MOL0     H48935  11.742  10.275  11.837  2.4243 -0.5759 -0.8620
  355MOL0     H48936  11.706  10.439  11.899 -2.4431 -2.5065  0.4911
  355MOL0     H48937  11.923  10.510  11.837 -0.8346  0.5828 -1.1132
  355MOL0     H48938  11.941  10.358  11.913  3.0449 -0.4057 -0.7891
  355MOL0     H48939  12.020  10.125  11.763  0.3871  0.6599  0.2917
  355MOL0     H48940  12.126  10.079  11.422 -3.5574  0.2373  0.0641
  355MOL0     H48941  12.130  10.004  11.588  0.5256 -0.5158 -1.2260
  355MOL0     H48942  12.344  10.212  11.483  0.1725  0.3640 -0.8891
  355MOL0     H48943  12.340  10.148  11.635  1.8525 -0.8192 -0.0753
  355MOL0     H48944  12.359   9.909  11.566 -0.9514 -0.2990 -0.5308
  355MOL0     H48945  12.350   9.955  11.400 -2.6178 -2.3482  1.4315
  355MOL0     H48946  12.581  10.080  11.443  2.7094 -0.9489 -0.1686
  355MOL0     H48947  12.581  10.022  11.606  0.9778  3.5149 -0.5316
  355MOL0     H48948  12.676   9.639  11.398  1.3545 -1.8361 -0.4300
  355MOL0     H48949  12.921   9.428  11.499  1.9925  0.9829  0.4954
  355MOL0     H48950  12.968   9.497  11.341  2.5541 -3.4722  1.3878
  355MOL0     H48951  12.797   9.478  11.378 -0.5297 -0.1203  2.2901
  355MOL0     H48952  13.401   9.827  11.505 -1.4523  0.1370  1.1876
  355MOL0     H48953  13.632   9.788  11.567 -1.8771 -1.8954 -2.3973
  355MOL0     H48954  13.686   9.538  11.939 -0.2365  0.7247  0.3976
  355MOL0     H48955  13.709   9.441  11.793 -1.7414  1.7152 -1.9248
  355MOL0     H48956  13.931   9.524  11.782 -2.7753  2.4344 -0.9709
  355MOL0     H48957  13.921   9.636  11.917  2.4463  0.4782 -1.9723
  355MOL0     H48958  13.913   9.330  11.929  1.8099 -0.5710  1.5965
  355MOL0     H48959  13.876   9.437  12.071 -0.6393 -0.7173  0.3372
  355MOL0     H48960  14.121   9.526  12.039  0.6997 -0.7016 -0.2312
  355MOL0     H48961  14.136   9.398  11.919  0.8056 -0.0296  0.3611
  355MOL0     H48962  14.077   9.344  12.222 -0.7131  1.8633 -0.2964
  355MOL0     H48963  14.081   9.232  12.084  0.3122 -0.9895 -0.6790
  355MOL0     H48964  14.300   9.255  12.229 -0.0649 -2.6610 -1.1397
  355MOL0     H48965  14.322   9.402  12.132 -2.2270  0.8245 -2.0954
  355MOL0     H48966  14.318   9.278  11.929  2.0544  0.4140 -1.2990
  355MOL0     H48967  14.305   9.124  12.016  2.9051 -0.0086 -3.9008
  355MOL0     H48968  14.536   9.146  11.959  1.0714 -0.0441 -0.3122
  355MOL0     H48969  14.535   9.193  12.130  0.0391 -1.7645  0.1995
  355MOL0     H48970  13.495   9.532  11.899  1.6389 -0.0183 -0.5617
  355MOL0     H48971  13.266   9.597  11.832  2.8096 -1.8282  1.3614
  355MOL0     H48972  13.020   9.920  11.618 -0.0765 -0.4335  0.1635
  355MOL0     H48973  12.798  10.014  11.550  2.6549  0.5724 -2.2504
  355MOL0     H48974  11.227  10.672  10.981 -2.5405 -0.8483 -0.9101
  355MOL0     H48975  11.105  10.475  10.846 -1.2168 -1.2020  1.7245
  355MOL0     H48976  11.255   9.868  10.734  0.5146  0.9636 -2.4036
  355MOL0     H48977  11.081   9.694  10.692 -2.3388 -0.7872 -2.7634
  355MOL0     H48978  10.707   9.832  10.523 -1.3024  0.0287  0.4360
  355MOL0     H48979  10.673   9.656  10.540  0.2057 -0.6779  1.3291
  355MOL0     H48980  10.659   9.844  10.769 -0.7789  1.4660 -0.2404
  355MOL0     H48981  10.615   9.667  10.764  1.7361  1.2412  0.5110
  355MOL0     H48982  10.481   9.880  10.589  0.0103 -2.7428 -3.5329
  355MOL0     H48983  10.439   9.712  10.585  0.3977 -0.0996 -0.6839
  355MOL0     H48984  10.270   9.790  10.694 -0.9618 -0.7800  1.3524
  355MOL0     H48985  10.363   9.913  10.781  1.0440 -1.0239 -0.2168
  355MOL0     H48986  10.301   9.603  11.047 -0.4426  0.1886 -0.7576
  355MOL0     H48987  10.789  10.006  10.634  0.3427 -0.8420  0.2408
  355MOL0     H48988  10.995  10.269  10.633 -1.6765  0.1803 -0.8152
  355MOL0     H48989  10.825  10.220  10.655 -0.1672  2.5888  0.2638
  355MOL0     H48990  10.925  10.237  10.802 -2.4067  1.4398 -0.2485
  356MOL0     O48991   8.503   8.508   6.604  0.0465 -0.2965  0.1163
  356MOL0     C48992   8.451   8.419   6.533 -0.5628 -0.1080 -0.1239
  356MOL0     O48993   8.514   8.300   6.500  0.2329 -0.6730 -0.3238
  356MOL0     C48994   8.622   8.249   6.575  0.7416  0.0008  0.2169
  356MOL0     C48995   8.732   8.322   6.614  0.7911  0.5647  0.2486
  356MOL0     C48996   8.825   8.265   6.700 -0.1368 -0.0909 -0.7086
  356MOL0     C48997   8.821   8.135   6.740 -0.3222  0.5419  0.5282
  356MOL0     O48998   8.908   8.060   6.821 -0.2621 -0.2707  0.3139
  356MOL0     C48999   9.017   8.140   6.876  0.8941  0.1323 -0.4893
  356MOL0     C49000   9.104   8.037   6.955  0.2987 -0.1533 -0.4662
  356MOL0     C49001   9.246   8.097   6.970 -0.6085 -0.0520 -0.4258
  356MOL0     C49002   9.345   7.993   7.036 -0.2295  0.4427  0.1983
  356MOL0     C49003   9.476   8.055   7.075 -0.7051 -0.6203 -0.2920
  356MOL0     C49004   9.552   8.085   6.946  0.6453  0.4991  0.2840
  356MOL0     C49005   9.699   8.096   6.964  0.3830  0.3688  0.3985
  356MOL0     C49006   9.744   8.188   7.078 -0.2904  0.1179  0.5035
  356MOL0     N49007   9.883   8.211   7.063  0.7408 -0.4161  1.4930
  356MOL0     C49008   9.992   8.131   7.094 -0.6487 -0.6132  0.0384
  356MOL0     C49009  10.103   8.203   7.070 -0.0680 -0.4394  0.7726
  356MOL0     C49010  10.250   8.188   7.113 -0.1369 -0.3483 -0.3726
  356MOL0     C49011  10.336   8.139   7.003  0.3879  0.3365  0.1815
  356MOL0     C49012  10.470   8.089   7.058 -0.0280  0.8175 -0.6558
  356MOL0     C49013  10.562   8.190   7.130  0.1919 -0.2404 -0.5573
  356MOL0     O49014  10.625   8.276   7.033 -0.3348  0.2855  0.3259
  356MOL0     C49015  10.760   8.306   7.038 -0.1398 -0.3285  0.9025
  356MOL0     C49016  10.843   8.291   6.928 -0.0065  0.1790  0.6275
  356MOL0     C49017  10.982   8.325   6.943  0.8756  0.0569  1.0824
  356MOL0     C49018  11.063   8.286   6.819  0.4179  0.5793 -0.0431
  356MOL0     C49019  11.036   8.373   7.056  0.0993 -0.7400 -0.0390
  356MOL0     C49020  11.182   8.410   7.084 -0.3008 -0.0110 -0.4301
  356MOL0     O49021  11.225   8.419   7.211 -0.3029  0.0707 -0.6140
  356MOL0     C49022  11.357   8.420   7.238 -0.2899  0.8324 -0.6251
  356MOL0     C49023  11.442   8.305   7.225 -0.2403 -0.3389 -0.4650
  356MOL0     C49024  11.582   8.320   7.264  0.4334  0.3723 -0.6925
  356MOL0     C49025  11.641   8.433   7.322 -0.0093 -0.5079  0.2186
  356MOL0     O49026  11.774   8.422   7.363  0.0034 -0.0732  1.0135
  356MOL0     C49027  11.819   8.513   7.456  0.1019  0.3999  0.2138
  356MOL0     C49028  11.962   8.498   7.501 -0.3910 -0.2778  0.4978
  356MOL0     C49029  12.010   8.613   7.595 -0.2253  0.1545 -1.2563
  356MOL0     C49030  12.165   8.629   7.606 -0.1191  0.1053  0.3100
  356MOL0     C49031  12.199   8.700   7.739 -0.8694 -0.2048  0.8599
  356MOL0     C49032  12.354   8.710   7.757  0.0924  0.0402 -0.0374
  356MOL0     C49033  12.389   8.783   7.885  0.0434 -0.4470  0.2040
  356MOL0     C49034  12.502   8.727   7.966 -0.3260 -0.4556  0.2765
  356MOL0    Cl49035  12.513   8.818   8.112  0.3997  0.1463 -0.0058
  356MOL0     C49036  11.552   8.545   7.334  0.4403 -0.0491 -0.6490
  356MOL0     C49037  11.415   8.536   7.296  0.0394  0.4273 -0.2654
  356MOL0     O49038  11.256   8.424   6.990 -0.0153  0.2233  0.2240
  356MOL0     C49039  10.947   8.383   7.171 -0.4312  0.2771 -0.6583
  356MOL0     C49040  10.812   8.351   7.161 -0.0404 -0.1526  0.4164
  356MOL0     N49041  10.064   8.325   7.010  0.2771  0.5308 -0.5572
  356MOL0     N49042   9.935   8.327   7.009 -0.5222 -0.4860 -0.8810
  356MOL0     C49043   8.707   8.064   6.705 -0.0339 -0.1050 -0.5915
  356MOL0     C49044   8.606   8.120   6.623  0.7623  0.1633 -0.3179
  356MOL0     C49045   8.322   8.447   6.473  0.0948  0.8443  0.3132
  356MOL0     C49046   8.282   8.584   6.457 -0.0235 -0.5325  0.0529
  356MOL0     C49047   8.171   8.621   6.393 -0.5397 -0.7312  0.4830
  356MOL0     C49048   8.089   8.525   6.340  0.5065 -0.7342 -0.6863
  356MOL0     O49049   7.977   8.581   6.287  0.4866 -0.1721  0.1394
  356MOL0     C49050   7.896   8.506   6.188 -0.4662 -0.3016  0.3639
  356MOL0     C49051   7.770   8.449   6.256  0.0317 -0.3451 -0.2258
  356MOL0     C49052   7.681   8.564   6.315 -0.7916  0.2648 -0.1559
  356MOL0     C49053   7.547   8.513   6.372 -0.4103 -0.6247  0.4914
  356MOL0     C49054   7.467   8.450   6.265  0.1297 -0.6388 -0.7072
  356MOL0     C49055   7.405   8.406   6.173  0.3354 -0.3714  0.8724
  356MOL0     C49056   8.124   8.388   6.347  0.2068  0.5310  0.6491
  356MOL0     C49057   8.239   8.346   6.414 -0.0994 -0.0136  0.4145
  356MOL0     C49058   8.255   8.200   6.421  0.7711  0.3088 -0.6580
  356MOL0     H49059   8.752   8.424   6.583 -0.3149  1.1936  1.5313
  356MOL0     H49060   8.919   8.319   6.708 -0.7911  1.1012 -0.8825
  356MOL0     H49061   8.977   8.219   6.941 -0.1825 -0.6476 -0.1788
  356MOL0     H49062   9.075   8.174   6.790  3.3553 -3.5836 -0.4923
  356MOL0     H49063   9.065   8.017   7.055 -0.5290  2.3239 -0.2386
  356MOL0     H49064   9.116   7.946   6.895  1.6004 -0.1086 -0.3107
  356MOL0     H49065   9.286   8.115   6.869  0.8735 -0.2091  0.1123
  356MOL0     H49066   9.242   8.193   7.022 -3.1246 -0.3556  0.0472
  356MOL0     H49067   9.301   7.965   7.132 -0.9233  2.7560  0.6212
  356MOL0     H49068   9.361   7.905   6.973 -0.3534  1.9496 -2.0877
  356MOL0     H49069   9.538   7.988   7.136 -0.1514  0.4224  0.3147
  356MOL0     H49070   9.461   8.151   7.124 -0.7004 -0.6866 -0.1615
  356MOL0     H49071   9.531   8.011   6.868  1.2083  0.2948  0.3247
  356MOL0     H49072   9.519   8.183   6.910  1.9737  0.0297 -2.4809
  356MOL0     H49073   9.752   8.137   6.878  1.6325  2.1022  1.9117
  356MOL0     H49074   9.745   7.998   6.983 -0.4455 -0.4071 -1.4141
  356MOL0     H49075   9.702   8.287   7.059 -0.2551 -0.4306 -3.0311
  356MOL0     H49076   9.717   8.157   7.179  0.3710 -0.6550  0.4567
  356MOL0     H49077   9.999   8.034   7.143 -0.9020 -0.6742 -0.0419
  356MOL0     H49078  10.261   8.126   7.202  0.6328  0.2302 -0.0479
  356MOL0     H49079  10.289   8.284   7.147  3.8871 -1.6793 -0.7026
  356MOL0     H49080  10.281   8.061   6.949  1.4709 -0.2318 -0.1196
  356MOL0     H49081  10.352   8.214   6.925  1.7677 -1.1633 -1.0433
  356MOL0     H49082  10.449   8.016   7.137 -1.6093  2.1860  0.2513
  356MOL0     H49083  10.525   8.031   6.984  0.6412 -1.1054  1.2350
  356MOL0     H49084  10.511   8.253   7.203 -2.3659  0.5063 -2.8391
  356MOL0     H49085  10.645   8.142   7.182 -1.4775 -0.7334  1.7875
  356MOL0     H49086  10.797   8.244   6.842 -0.2851 -1.4920  1.6328
  356MOL0     H49087  11.166   8.254   6.838  1.2001  1.4692 -2.2948
  356MOL0     H49088  11.067   8.372   6.751 -0.7824  0.2187 -0.6009
  356MOL0     H49089  11.007   8.210   6.765  1.1660 -1.3076  1.7334
  356MOL0     H49090  11.420   8.209   7.179 -0.4004 -0.0468 -1.0160
  356MOL0     H49091  11.648   8.236   7.250  0.4872  0.6524 -2.2412
  356MOL0     H49092  11.803   8.613   7.416  0.0957  1.3827  2.5809
  356MOL0     H49093  11.772   8.513   7.554  1.6171 -1.8133  1.0163
  356MOL0     H49094  11.969   8.404   7.556 -1.4648 -1.4129 -1.2407
  356MOL0     H49095  12.023   8.501   7.410 -3.7453 -1.2711 -1.9788
  356MOL0     H49096  11.977   8.590   7.696  1.2309 -1.4036 -1.0933
  356MOL0     H49097  11.968   8.710   7.566 -0.3899  0.7146  0.6948
  356MOL0     H49098  12.210   8.674   7.517  1.1793 -3.2464 -0.9098
  356MOL0     H49099  12.208   8.529   7.616  1.8796  1.0381  1.6359
  356MOL0     H49100  12.149   8.797   7.750 -0.2123 -0.1029  3.8713
  356MOL0     H49101  12.176   8.633   7.822  2.5765  1.9134  3.8382
  356MOL0     H49102  12.398   8.758   7.668 -0.0441 -2.6134 -1.6467
  356MOL0     H49103  12.404   8.613   7.750 -2.7840 -1.5791  0.3860
  356MOL0     H49104  12.293   8.784   7.937 -0.7643  0.2029 -1.2174
  356MOL0     H49105  12.419   8.883   7.852 -1.4819 -0.6467 -1.9810
  356MOL0     H49106  12.596   8.743   7.913 -0.3446 -3.6179 -0.9156
  356MOL0     H49107  12.489   8.622   7.994 -0.4235 -0.6971 -0.6202
  356MOL0     H49108  11.581   8.632   7.390  0.8090 -1.1071  0.8604
  356MOL0     H49109  11.353   8.624   7.308 -1.7361 -0.9296  1.1370
  356MOL0     H49110  10.985   8.419   7.266  1.8273  1.1019 -1.8148
  356MOL0     H49111  10.747   8.359   7.248 -1.6382 -0.2864 -0.7183
  356MOL0     H49112   8.710   7.956   6.720  0.2503  0.2424  2.4636
  356MOL0     H49113   8.517   8.066   6.594 -1.6330  2.5163  2.0760
  356MOL0     H49114   8.350   8.661   6.493 -0.4561 -1.9132  4.4091
  356MOL0     H49115   8.154   8.727   6.378 -1.9924 -0.3622  3.7731
  356MOL0     H49116   7.882   8.579   6.107 -0.6298  1.2469  1.7227
  356MOL0     H49117   7.958   8.424   6.150  0.2434  0.8377 -1.0419
  356MOL0     H49118   7.790   8.372   6.330 -1.8061  0.5771  1.3241
  356MOL0     H49119   7.712   8.403   6.176 -1.3358 -0.3277  0.7201
  356MOL0     H49120   7.735   8.632   6.382  2.4212  1.2986 -3.4359
  356MOL0     H49121   7.658   8.627   6.228 -2.7043 -1.5251 -1.0431
  356MOL0     H49122   7.495   8.603   6.404  0.6815  0.2828 -0.1912
  356MOL0     H49123   7.555   8.443   6.456  1.1583 -1.5033 -0.3306
  356MOL0     H49124   7.342   8.364   6.097  0.4975 -0.0118  0.5362
  356MOL0     H49125   8.057   8.321   6.295  0.3202  0.5520  0.4748
  356MOL0     H49126   8.335   8.172   6.352  0.2354 -1.7128 -0.5241
  356MOL0     H49127   8.274   8.173   6.525  1.7348  0.1564 -0.8625
  356MOL0     H49128   8.165   8.145   6.392  0.6143 -0.8893  1.8330
  357MOL0     O49129   3.005   3.977   5.379  0.1686 -0.4316 -0.4469
  357MOL0     C49130   2.948   3.962   5.266  0.0615  0.7033  0.4416
  357MOL0     O49131   2.997   3.895   5.162  0.5981 -0.3060  0.7854
  357MOL0     C49132   3.123   3.845   5.162  0.4002 -0.2269  0.0321
  357MOL0     C49133   3.139   3.713   5.137  0.6008 -0.6348  0.1055
  357MOL0     C49134   3.268   3.654   5.133 -0.0154 -0.8624 -0.9183
  357MOL0     C49135   3.376   3.731   5.157 -0.5432  0.0536  0.5010
  357MOL0     O49136   3.497   3.669   5.137  0.4068  0.0803 -0.0683
  357MOL0     C49137   3.622   3.731   5.138  0.4373 -0.3155  0.2529
  357MOL0     C49138   3.733   3.630   5.096 -0.3258 -0.3175 -0.0502
  357MOL0     C49139   3.875   3.694   5.114  0.2871 -0.5184 -0.0057
  357MOL0     C49140   3.898   3.806   5.013 -0.6854 -0.3779  0.3660
  357MOL0     C49141   4.044   3.858   5.005  0.9297 -0.3225 -0.5888
  357MOL0     C49142   4.147   3.748   4.971  0.0820  0.2220  0.0844
  357MOL0     C49143   4.277   3.809   4.936  1.0799 -0.4401  0.8610
  357MOL0     C49144   4.290   3.851   4.788  0.4797  0.1565  0.0558
  357MOL0     N49145   4.419   3.918   4.755  0.0392 -0.3620  0.6312
  357MOL0     C49146   4.524   3.864   4.681 -0.2070 -0.2227  0.0789
  357MOL0     C49147   4.617   3.968   4.678 -0.1447 -0.9467 -0.8392
  357MOL0     C49148   4.751   3.973   4.616 -0.6257  1.4046 -0.0613
  357MOL0     C49149   4.737   4.011   4.461 -0.3057 -0.1021 -0.5461
  357MOL0     C49150   4.711   4.158   4.438 -0.8469 -0.1179  0.6099
  357MOL0     C49151   4.752   4.196   4.295  0.3360  0.1489  0.4706
  357MOL0     O49152   4.894   4.170   4.291 -0.1329  0.0606  0.2447
  357MOL0     C49153   4.980   4.253   4.222  0.8369 -0.7387  0.2463
  357MOL0     C49154   5.103   4.257   4.276 -0.1389  0.1815  0.2742
  357MOL0     C49155   5.209   4.322   4.217  0.2221 -0.4552 -0.5833
  357MOL0     C49156   5.342   4.319   4.295 -0.3169 -0.5453 -0.2784
  357MOL0     C49157   5.187   4.395   4.102  0.5403 -0.0429 -0.0613
  357MOL0     C49158   5.289   4.481   4.029  0.2621 -0.5393 -0.0552
  357MOL0     O49159   5.423   4.439   4.027  0.0375 -0.3291  0.6619
  357MOL0     C49160   5.515   4.525   3.978 -0.1477 -0.3336  0.7717
  357MOL0     C49161   5.585   4.495   3.866 -0.4312  0.0257  1.6346
  357MOL0     C49162   5.675   4.588   3.796  1.2802  0.5168  0.3249
  357MOL0     C49163   5.682   4.711   3.846 -0.6669  0.2745 -0.0533
  357MOL0     O49164   5.772   4.804   3.788  0.3700 -1.2190  0.6031
  357MOL0     C49165   5.858   4.773   3.674  0.6321  0.3754 -0.2202
  357MOL0     C49166   5.947   4.882   3.637 -0.5328 -0.2521  0.5868
  357MOL0     C49167   6.001   4.872   3.487  0.4579 -0.4206 -0.2996
  357MOL0     C49168   6.056   5.011   3.456  0.8408  0.3419 -0.6599
  357MOL0     C49169   6.124   5.016   3.315 -0.6365  1.0622 -0.5230
  357MOL0     C49170   6.167   5.159   3.285  0.5277  0.8677  0.0934
  357MOL0     C49171   6.234   5.174   3.146  0.2290 -0.5305  0.1274
  357MOL0     C49172   6.281   5.322   3.125 -0.0944 -0.0303 -1.4778
  357MOL0    Cl49173   6.358   5.385   3.263 -0.2285 -0.2011 -0.0321
  357MOL0     C49174   5.612   4.746   3.959  1.1356 -0.3718 -0.2659
  357MOL0     C49175   5.530   4.656   4.024 -0.3026 -0.7460 -0.6171
  357MOL0     O49176   5.243   4.590   3.987  0.3837  0.2687  0.3840
  357MOL0     C49177   5.057   4.401   4.051  0.2865 -0.0066  0.2657
  357MOL0     C49178   4.946   4.331   4.111 -0.5944 -0.1966 -0.2172
  357MOL0     N49179   4.573   4.076   4.760  0.3966  0.3612 -0.5766
  357MOL0     N49180   4.455   4.045   4.796  0.3394 -0.1846  0.3014
  357MOL0     C49181   3.365   3.865   5.189 -0.5190 -0.0545  0.0450
  357MOL0     C49182   3.233   3.924   5.190  0.1161 -0.2521 -1.3106
  357MOL0     C49183   2.817   4.026   5.234  0.8709 -0.6951 -0.1435
  357MOL0     C49184   2.773   4.035   5.102 -0.0470 -0.0800  0.6062
  357MOL0     C49185   2.644   4.072   5.065 -0.9830  0.0930 -0.5010
  357MOL0     C49186   2.555   4.125   5.155 -0.1620 -0.1169 -0.4420
  357MOL0     O49187   2.424   4.141   5.107 -1.0235 -0.5689 -0.0084
  357MOL0     C49188   2.320   4.179   5.202 -0.8403  0.0743  0.4078
  357MOL0     C49189   2.194   4.236   5.139  0.2610 -0.3959  0.5380
  357MOL0     C49190   2.111   4.128   5.069  0.4056 -0.3884 -0.2972
  357MOL0     C49191   2.076   3.998   5.150  0.8549 -0.9365 -0.2064
  357MOL0     C49192   1.998   4.056   5.271  0.1705 -0.5457  1.4499
  357MOL0     C49193   1.926   4.099   5.357  0.7745  0.0554 -0.1747
  357MOL0     C49194   2.607   4.152   5.285  0.3014  0.6576 -0.1532
  357MOL0     C49195   2.736   4.097   5.323  0.2465 -0.4164 -0.5839
  357MOL0     C49196   2.790   4.126   5.462  0.5256  0.8326 -0.0586
  357MOL0     H49197   3.055   3.647   5.114 -1.0067  1.5224 -0.5994
  357MOL0     H49198   3.280   3.550   5.105  2.7603 -1.1369  0.9335
  357MOL0     H49199   3.639   3.774   5.237 -0.9370 -0.3972  0.5503
  357MOL0     H49200   3.616   3.815   5.068  4.8883 -1.3466 -1.7079
  357MOL0     H49201   3.716   3.535   5.146 -1.6599 -0.5598 -0.9204
  357MOL0     H49202   3.730   3.602   4.990  1.2218 -5.2336  0.9524
  357MOL0     H49203   3.878   3.737   5.214 -1.2246  0.7126 -0.4402
  357MOL0     H49204   3.955   3.621   5.099  2.2110  1.9588 -3.1367
  357MOL0     H49205   3.865   3.764   4.917 -2.3446  0.7241  0.4220
  357MOL0     H49206   3.832   3.892   5.023  1.0066  1.2686 -1.6603
  357MOL0     H49207   4.072   3.886   5.107 -0.5739 -2.0913  0.3823
  357MOL0     H49208   4.046   3.937   4.930  2.3387 -0.7404 -1.0412
  357MOL0     H49209   4.178   3.692   5.059  0.3151 -0.6120 -0.5078
  357MOL0     H49210   4.105   3.689   4.888  0.8501 -0.2856  0.0474
  357MOL0     H49211   4.358   3.740   4.962  0.6243 -1.4859 -0.3598
  357MOL0     H49212   4.298   3.901   4.990  1.1959 -1.3258  2.3937
  357MOL0     H49213   4.263   3.766   4.726  1.1128 -0.4739  0.6250
  357MOL0     H49214   4.221   3.936   4.776 -0.8717 -0.6759  1.4650
  357MOL0     H49215   4.546   3.774   4.625  3.7637  3.0685 -4.3567
  357MOL0     H49216   4.781   3.868   4.619 -1.5522  1.1561  1.3449
  357MOL0     H49217   4.818   4.041   4.669 -0.5796  1.1477  0.2128
  357MOL0     H49218   4.822   3.969   4.407  0.2083  1.7547 -1.2302
  357MOL0     H49219   4.646   3.957   4.433 -1.3959  0.6420  1.3782
  357MOL0     H49220   4.606   4.185   4.448 -0.7038  0.5671  0.3041
  357MOL0     H49221   4.775   4.220   4.502  0.9598 -1.0095 -0.2509
  357MOL0     H49222   4.701   4.128   4.226 -1.7069  0.3140  1.7284
  357MOL0     H49223   4.715   4.296   4.272 -2.5078 -1.0153 -0.4733
  357MOL0     H49224   5.119   4.190   4.360 -0.4711  1.2973  1.2570
  357MOL0     H49225   5.422   4.285   4.230  1.0379  0.7800  0.6099
  357MOL0     H49226   5.338   4.241   4.371 -0.0819 -1.0506 -0.7782
  357MOL0     H49227   5.370   4.417   4.337 -1.4116 -1.2613  2.3342
  357MOL0     H49228   5.580   4.396   3.820 -3.6610  1.2529 -1.1178
  357MOL0     H49229   5.728   4.555   3.708 -2.2719 -1.1130 -1.4031
  357MOL0     H49230   5.908   4.678   3.688  1.6917  0.7582 -1.2867
  357MOL0     H49231   5.801   4.751   3.583  0.2893  0.8835 -0.1390
  357MOL0     H49232   5.885   4.973   3.641  0.0480  0.1098  1.9627
  357MOL0     H49233   6.040   4.875   3.694  0.7588 -1.7012 -1.5710
  357MOL0     H49234   5.926   4.842   3.414  1.1320 -0.4095 -1.0119
  357MOL0     H49235   6.080   4.796   3.494  4.0110  3.1041  1.7047
  357MOL0     H49236   6.126   5.034   3.537 -0.3026  1.4688  0.0556
  357MOL0     H49237   5.978   5.087   3.466 -1.4227 -2.1232  3.7846
  357MOL0     H49238   6.217   4.959   3.318 -0.7273  0.8347 -1.7330
  357MOL0     H49239   6.052   4.977   3.243 -1.5484  1.2436  0.2674
  357MOL0     H49240   6.233   5.191   3.366  0.5338  1.3522 -0.0970
  357MOL0     H49241   6.071   5.212   3.285  0.3834  0.6086  0.6094
  357MOL0     H49242   6.169   5.137   3.065  3.9452 -1.5117 -2.6535
  357MOL0     H49243   6.326   5.115   3.142 -0.1710 -1.2021  0.5299
  357MOL0     H49244   6.188   5.378   3.112  0.8215  1.8368 -0.4069
  357MOL0     H49245   6.354   5.339   3.045  2.3350 -3.0391 -0.1181
  357MOL0     H49246   5.617   4.849   3.994 -1.9137 -0.6444  1.2924
  357MOL0     H49247   5.491   4.707   4.112  4.4204 -0.3162  1.4991
  357MOL0     H49248   5.033   4.466   3.967  2.5115 -0.2594 -0.6264
  357MOL0     H49249   4.841   4.338   4.083 -0.7094 -0.3277  0.1638
  357MOL0     H49250   3.455   3.919   5.217  0.6438 -1.4327 -0.9329
  357MOL0     H49251   3.211   4.029   5.211  1.2371 -0.4074  0.9933
  357MOL0     H49252   2.840   4.005   5.022 -0.6654  2.0116 -0.7641
  357MOL0     H49253   2.601   4.073   4.965 -0.7180 -0.1104 -0.6189
  357MOL0     H49254   2.299   4.091   5.263 -2.1813 -1.8896 -2.6768
  357MOL0     H49255   2.355   4.257   5.271 -1.2657  1.6990 -1.1182
  357MOL0     H49256   2.229   4.321   5.079 -2.4708  2.2180  2.3103
  357MOL0     H49257   2.136   4.289   5.216  0.7217  1.7711 -0.5370
  357MOL0     H49258   2.012   4.164   5.040  0.5027 -0.5483 -0.8258
  357MOL0     H49259   2.168   4.097   4.981  0.3003 -3.4399  0.5887
  357MOL0     H49260   2.164   3.941   5.182  0.8656 -1.7674 -1.6737
  357MOL0     H49261   2.018   3.932   5.086 -1.7504 -0.5732  1.6235
  357MOL0     H49262   1.860   4.127   5.436 -1.0134 -2.1190 -0.7803
  357MOL0     H49263   2.542   4.193   5.361 -1.9059 -2.2035 -0.3285
  357MOL0     H49264   2.891   4.167   5.454  0.6775  0.1111 -2.5152
  357MOL0     H49265   2.723   4.198   5.511  0.3089  1.0906 -0.7226
  357MOL0     H49266   2.804   4.037   5.525  0.8861  2.4107  2.2146
  358MOL0     O49267   7.288   4.804   8.024  0.6136  0.1477 -0.1235
  358MOL0     C49268   7.208   4.868   8.097 -0.0841 -0.4138  0.1641
  358MOL0     O49269   7.215   5.004   8.115 -0.3722 -0.1723  0.9005
  358MOL0     C49270   7.309   5.076   8.051 -0.0209  0.1952 -0.4634
  358MOL0     C49271   7.277   5.199   7.988  0.1110  0.6070  0.3227
  358MOL0     C49272   7.375   5.286   7.936 -1.1517  0.0736  0.6483
  358MOL0     C49273   7.512   5.251   7.939  0.3411  0.3606 -0.6128
  358MOL0     O49274   7.601   5.340   7.897 -0.2781  0.0786  0.3837
  358MOL0     C49275   7.741   5.297   7.894 -0.1170  0.6513  0.4442
  358MOL0     C49276   7.787   5.316   8.044  0.5266 -0.5608 -0.6872
  358MOL0     C49277   7.905   5.232   8.080 -0.0393  0.2486  0.3888
  358MOL0     C49278   8.039   5.296   8.029 -0.6572  0.0469 -0.6749
  358MOL0     C49279   8.171   5.228   8.083 -0.0115  0.9373  0.1552
  358MOL0     C49280   8.191   5.088   8.028 -0.4816 -0.0280 -0.3417
  358MOL0     C49281   8.219   5.058   7.876  0.0340 -0.7191 -0.7233
  358MOL0     C49282   8.353   5.108   7.815 -0.2389 -0.4782  0.1925
  358MOL0     N49283   8.459   5.093   7.904 -0.6300  0.5329 -0.7584
  358MOL0     C49284   8.552   4.992   7.885 -0.3443 -0.0128  0.3867
  358MOL0     C49285   8.648   5.027   7.976 -0.2495  0.2708 -0.4934
  358MOL0     C49286   8.778   4.960   7.998  0.3359 -0.9069 -0.6584
  358MOL0     C49287   8.834   4.980   8.143  0.2699  0.1151  0.3476
  358MOL0     C49288   8.964   4.903   8.185  0.5631 -0.4174 -0.2956
  358MOL0     C49289   9.088   4.965   8.131  0.1236  1.2127  0.5100
  358MOL0     O49290   9.192   4.859   8.131 -0.4582  0.5057  0.5092
  358MOL0     C49291   9.319   4.883   8.181  0.5026  0.0618 -0.1889
  358MOL0     C49292   9.385   4.997   8.218 -0.4704  0.7207  0.3133
  358MOL0     C49293   9.516   4.994   8.274  0.4522  0.1463  0.7017
  358MOL0     C49294   9.586   5.117   8.273  0.1402 -0.4231 -0.0105
  358MOL0     C49295   9.572   4.865   8.298 -0.7118 -0.2716 -0.1914
  358MOL0     C49296   9.711   4.849   8.354  0.0040  0.0811 -0.0220
  358MOL0     O49297   9.759   4.943   8.427  0.4642  0.2035  0.0314
  358MOL0     C49298   9.883   4.933   8.479  0.2417  0.2884 -0.5289
  358MOL0     C49299   9.908   4.895   8.613 -0.4019  0.7697  0.0822
  358MOL0     C49300  10.042   4.877   8.661 -0.7585  0.0177 -0.0929
  358MOL0     C49301  10.153   4.899   8.582 -0.4712 -1.2179  0.4956
  358MOL0     O49302  10.282   4.895   8.616 -0.2298  1.2012 -0.4349
  358MOL0     C49303  10.319   4.774   8.695  0.4557 -0.0040  0.1420
  358MOL0     C49304  10.467   4.756   8.717  0.5107 -0.1182 -0.7069
  358MOL0     C49305  10.545   4.869   8.792  0.5606  0.0480  0.6943
  358MOL0     C49306  10.486   4.894   8.935 -0.7272  1.6023 -0.7683
  358MOL0     C49307  10.549   5.016   8.996 -0.4601 -0.0003  0.5109
  358MOL0     C49308  10.459   5.054   9.123  0.4982  0.7413  0.3031
  358MOL0     C49309  10.505   5.176   9.193 -0.3158  0.0517 -0.4562
  358MOL0     C49310  10.437   5.224   9.321 -0.2536 -0.2781  0.1807
  358MOL0    Cl49311  10.420   5.099   9.452 -0.2487  0.1178  0.3137
  358MOL0     C49312  10.128   4.954   8.452  0.9971  0.6139 -0.0127
  358MOL0     C49313   9.991   4.957   8.402 -0.2603 -0.3853 -0.7925
  358MOL0     O49314   9.759   4.742   8.323 -0.1382  0.3542  0.1114
  358MOL0     C49315   9.504   4.746   8.269 -0.2111 -0.1209 -0.7222
  358MOL0     C49316   9.378   4.763   8.214 -0.6853  0.2864  0.1827
  358MOL0     N49317   8.617   5.143   8.045 -0.1119  1.2635  0.1930
  358MOL0     N49318   8.512   5.188   7.995  0.0110  0.4018 -0.2691
  358MOL0     C49319   7.537   5.129   8.007  0.4199  0.6079  0.8344
  358MOL0     C49320   7.443   5.049   8.066  0.5442  0.7953 -1.0873
  358MOL0     C49321   7.086   4.804   8.163  0.7514 -0.5766 -0.0070
  358MOL0     C49322   7.006   4.887   8.250 -0.0130  0.0116 -0.2194
  358MOL0     C49323   6.899   4.825   8.323 -0.0078  0.4743 -0.4208
  358MOL0     C49324   6.874   4.689   8.316 -0.2781  0.0309  0.3301
  358MOL0     O49325   6.766   4.647   8.388  0.0754 -0.3281 -0.2146
  358MOL0     C49326   6.707   4.527   8.343 -0.1146 -0.1165 -0.3052
  358MOL0     C49327   6.558   4.515   8.398  0.5335 -0.0158 -1.0275
  358MOL0     C49328   6.498   4.376   8.357  0.5848  0.4335  0.5357
  358MOL0     C49329   6.569   4.263   8.413  0.2800  0.4283  0.9267
  358MOL0     C49330   6.514   4.133   8.384  1.0884  0.2171 -0.6716
  358MOL0     C49331   6.463   4.028   8.352  0.2918 -0.0420  0.7646
  358MOL0     C49332   6.953   4.617   8.227  0.5844 -0.6622  0.4285
  358MOL0     C49333   7.057   4.663   8.147 -0.3437 -0.5599 -0.0422
  358MOL0     C49334   7.134   4.577   8.055 -0.7606  0.2853 -0.0452
  358MOL0     H49335   7.174   5.228   7.971  0.4429  1.0927 -0.9545
  358MOL0     H49336   7.343   5.370   7.876  2.4487  0.7245 -0.6265
  358MOL0     H49337   7.796   5.356   7.820 -2.4435  0.3884 -1.6265
  358MOL0     H49338   7.744   5.193   7.862 -1.9662 -0.7441  4.2511
  358MOL0     H49339   7.794   5.423   8.066  0.0429 -1.0072  1.8688
  358MOL0     H49340   7.715   5.273   8.114 -1.2478  1.3732 -1.2394
  358MOL0     H49341   7.901   5.211   8.188 -1.2770 -2.3457 -0.0995
  358MOL0     H49342   7.899   5.131   8.040 -0.1919 -0.7894  2.8528
  358MOL0     H49343   8.038   5.306   7.920  1.6306  0.7149 -0.6890
  358MOL0     H49344   8.048   5.393   8.079 -0.1188  1.2216 -2.8792
  358MOL0     H49345   8.165   5.230   8.193 -0.8179  0.2827  0.1298
  358MOL0     H49346   8.256   5.280   8.039  1.2634 -0.2755  1.0915
  358MOL0     H49347   8.281   5.039   8.067 -0.7906 -0.7637 -0.5406
  358MOL0     H49348   8.110   5.025   8.066 -2.1435  0.8246 -2.3194
  358MOL0     H49349   8.135   5.098   7.818  0.8742  2.2134 -0.0720
  358MOL0     H49350   8.221   4.949   7.862  2.4607 -0.8602  0.3093
  358MOL0     H49351   8.380   5.055   7.724  3.7713  2.5780 -0.6765
  358MOL0     H49352   8.332   5.212   7.790  0.9523 -0.2723 -0.0042
  358MOL0     H49353   8.550   4.906   7.819 -4.6409  0.3878 -0.2722
  358MOL0     H49354   8.848   4.995   7.922 -0.8982  0.2355 -1.3305
  358MOL0     H49355   8.766   4.852   7.984 -2.4366 -0.8206  0.3186
  358MOL0     H49356   8.850   5.087   8.160 -4.1302  0.6044  3.1548
  358MOL0     H49357   8.748   4.944   8.200 -0.5451  1.8242  0.2617
  358MOL0     H49358   8.965   4.905   8.295 -0.2745 -1.0966 -0.2602
  358MOL0     H49359   8.966   4.796   8.161  4.1058 -0.5801  0.1795
  358MOL0     H49360   9.071   4.984   8.025 -3.4628  1.6173  1.0473
  358MOL0     H49361   9.127   5.051   8.187  1.1010  1.9387 -1.2090
  358MOL0     H49362   9.343   5.094   8.195 -0.9231  1.2776  3.0765
  358MOL0     H49363   9.674   5.089   8.213 -1.1719 -0.4555 -2.0219
  358MOL0     H49364   9.614   5.144   8.375  1.8865  1.5501 -0.9259
  358MOL0     H49365   9.524   5.193   8.225 -0.4637  0.6337  2.3060
  358MOL0     H49366   9.822   4.883   8.678  0.5669  1.3034  1.5320
  358MOL0     H49367  10.047   4.839   8.763  0.9667 -2.7990 -1.1205
  358MOL0     H49368  10.290   4.786   8.799  0.2875  1.2793 -0.0345
  358MOL0     H49369  10.276   4.677   8.670 -0.0654  0.3161 -0.2296
  358MOL0     H49370  10.485   4.659   8.765 -0.1825 -0.1352 -0.4674
  358MOL0     H49371  10.506   4.746   8.616  4.0601  1.9548  0.2706
  358MOL0     H49372  10.540   4.963   8.736  0.1187  1.8336  3.5530
  358MOL0     H49373  10.651   4.841   8.800  0.5664 -0.2428 -0.2773
  358MOL0     H49374  10.516   4.804   8.989  0.8205 -0.6051 -4.9220
  358MOL0     H49375  10.378   4.909   8.925 -0.9691  0.2020 -0.4675
  358MOL0     H49376  10.653   4.994   9.023  0.7354  0.3897 -3.2476
  358MOL0     H49377  10.567   5.099   8.927 -0.1463  1.2176  1.9926
  358MOL0     H49378  10.459   4.964   9.185 -0.3948 -0.2758 -1.0991
  358MOL0     H49379  10.353   5.072   9.103 -0.1532  1.9605  4.0510
  358MOL0     H49380  10.518   5.257   9.121  0.6598 -0.0981 -0.4654
  358MOL0     H49381  10.609   5.151   9.217  1.1002  1.9441 -3.9114
  358MOL0     H49382  10.339   5.257   9.286 -0.2859 -0.4876  0.0725
  358MOL0     H49383  10.497   5.310   9.352 -2.1723  1.8713 -1.6653
  358MOL0     H49384  10.216   4.971   8.391  0.9974  1.0130  0.0943
  358MOL0     H49385   9.965   4.983   8.300 -1.5836  1.2567 -0.0815
  358MOL0     H49386   9.532   4.644   8.292  0.4249  0.0904 -0.5380
  358MOL0     H49387   9.323   4.670   8.202  1.1675 -0.9832  1.0645
  358MOL0     H49388   7.631   5.077   8.022 -0.2977 -1.4392 -1.1337
  358MOL0     H49389   7.467   4.962   8.126 -3.6420 -1.4568 -2.3309
  358MOL0     H49390   7.015   4.994   8.265  2.7039 -0.4041  1.8856
  358MOL0     H49391   6.839   4.884   8.392 -2.0250  0.4858 -2.0996
  358MOL0     H49392   6.698   4.519   8.234 -0.9903 -2.8647 -0.1025
  358MOL0     H49393   6.774   4.452   8.386  0.9266  0.9951  0.0661
  358MOL0     H49394   6.505   4.595   8.345  1.4569  1.8262  0.7117
  358MOL0     H49395   6.553   4.523   8.507 -1.3710 -1.2712 -0.9818
  358MOL0     H49396   6.397   4.378   8.399  0.2567 -1.2238 -0.0905
  358MOL0     H49397   6.484   4.366   8.249 -1.5140 -1.0088  0.8779
  358MOL0     H49398   6.565   4.271   8.522 -1.7937 -0.2191  0.9478
  358MOL0     H49399   6.670   4.259   8.371 -0.8926  2.0049 -2.4645
  358MOL0     H49400   6.423   3.938   8.309  0.9779  0.3101 -0.6660
  358MOL0     H49401   6.942   4.509   8.221  1.5297 -0.8643  1.9389
  358MOL0     H49402   7.222   4.535   8.105 -1.1051 -0.4460 -0.0357
  358MOL0     H49403   7.072   4.487   8.043 -0.5303  0.2474 -1.0599
  358MOL0     H49404   7.157   4.613   7.954 -3.1031  0.2603 -0.6535
  359MOL0     O49405  11.131   3.054   9.291  0.2008 -0.3667  0.3733
  359MOL0     C49406  11.073   3.135   9.221  0.3930 -0.5853  0.5105
  359MOL0     O49407  11.124   3.253   9.168  0.1434  0.1508  0.2604
  359MOL0     C49408  11.248   3.295   9.212 -0.1482 -0.9824 -0.8372
  359MOL0     C49409  11.314   3.266   9.332 -0.0490 -0.4707  0.6875
  359MOL0     C49410  11.434   3.331   9.363 -0.4526  0.0808 -0.6043
  359MOL0     C49411  11.490   3.423   9.282 -0.8638 -0.1896  0.5087
  359MOL0     O49412  11.607   3.492   9.312  0.7134  0.4197 -0.2427
  359MOL0     C49413  11.682   3.438   9.424 -0.2592 -0.8213  0.2070
  359MOL0     C49414  11.801   3.533   9.432  0.1775  0.7672  0.8645
  359MOL0     C49415  11.910   3.475   9.513  0.4262 -0.0913  0.4209
  359MOL0     C49416  12.015   3.586   9.544 -0.3955 -0.0487 -0.6010
  359MOL0     C49417  12.118   3.520   9.640 -0.2131  0.3607 -0.1498
  359MOL0     C49418  12.213   3.622   9.695 -0.1113  0.1904  0.4660
  359MOL0     C49419  12.321   3.555   9.772 -0.2279 -0.4998  0.5862
  359MOL0     C49420  12.409   3.641   9.863  0.1602  0.2923 -0.5085
  359MOL0     N49421  12.518   3.711   9.798 -0.4787 -0.1367 -0.2426
  359MOL0     C49422  12.523   3.800   9.692  0.4804  0.3708 -0.4980
  359MOL0     C49423  12.646   3.850   9.698 -0.4297 -0.6335 -0.8317
  359MOL0     C49424  12.692   3.959   9.603  0.3169 -0.4562 -0.2795
  359MOL0     C49425  12.638   4.097   9.641  0.5305  0.2563 -0.0261
  359MOL0     C49426  12.676   4.203   9.540  0.5326  0.2733 -0.1497
  359MOL0     C49427  12.664   4.344   9.604  0.8207 -0.4657  0.7086
  359MOL0     O49428  12.752   4.376   9.716 -0.1681  0.0641  0.5569
  359MOL0     C49429  12.884   4.381   9.690  0.4762 -0.7768 -0.8213
  359MOL0     C49430  12.986   4.390   9.797  0.6078 -0.4229 -0.4945
  359MOL0     C49431  13.125   4.386   9.783  0.7578  0.1729  0.9932
  359MOL0     C49432  13.207   4.411   9.904 -1.1412  0.4729 -0.2006
  359MOL0     C49433  13.174   4.375   9.653  0.3975  0.2290 -0.7910
  359MOL0     C49434  13.317   4.347   9.622  1.4389  0.5192 -0.0801
  359MOL0     O49435  13.398   4.323   9.733 -0.2811  0.6754 -0.5780
  359MOL0     C49436  13.526   4.273   9.701 -0.8506 -0.6788 -0.4281
  359MOL0     C49437  13.559   4.156   9.633  1.1150 -0.0515 -0.2275
  359MOL0     C49438  13.692   4.130   9.600  0.8280 -0.6487  0.4198
  359MOL0     C49439  13.797   4.220   9.627 -0.5170 -0.5106  0.3791
  359MOL0     O49440  13.921   4.175   9.597  0.4892 -0.6982  0.0998
  359MOL0     C49441  14.035   4.260   9.626  0.2807 -0.2102  0.6279
  359MOL0     C49442  14.086   4.248   9.776 -0.7920 -0.1504  0.6732
  359MOL0     C49443  14.223   4.306   9.805  0.1389  0.7070  0.0954
  359MOL0     C49444  14.334   4.254   9.715  0.6225  0.3633  0.7624
  359MOL0     C49445  14.472   4.302   9.776 -0.0958  0.8524  1.1278
  359MOL0     C49446  14.593   4.254   9.691  0.3629  0.1257  0.6664
  359MOL0     C49447  14.736   4.283   9.746 -0.2476  0.7544 -1.4699
  359MOL0     C49448  14.841   4.207   9.670 -0.0671  0.0038 -0.4781
  359MOL0    Cl49449  15.011   4.250   9.727 -0.4409 -0.1015  0.1801
  359MOL0     C49450  13.760   4.335   9.700 -0.2554  0.4627 -0.1706
  359MOL0     C49451  13.632   4.362   9.734  0.2106  0.1802  0.4186
  359MOL0     O49452  13.348   4.358   9.503  0.6333 -0.6239  0.1843
  359MOL0     C49453  13.084   4.362   9.542 -0.2152  0.5693 -0.0455
  359MOL0     C49454  12.945   4.380   9.566  0.0873  0.1911  0.3874
  359MOL0     N49455  12.719   3.801   9.803 -0.3031  1.2340  0.1117
  359MOL0     N49456  12.641   3.723   9.866 -0.6486  0.2000  0.2721
  359MOL0     C49457  11.429   3.447   9.161  0.5599 -0.7176  0.5027
  359MOL0     C49458  11.305   3.384   9.126  0.3702  0.4481  0.7957
  359MOL0     C49459  10.926   3.102   9.196  0.1341 -0.4976 -0.3880
  359MOL0     C49460  10.852   3.158   9.087 -0.2774 -0.0240  1.0805
  359MOL0     C49461  10.715   3.129   9.069 -0.3111 -0.7330 -0.4361
  359MOL0     C49462  10.642   3.033   9.143  0.0936  0.3166 -1.4503
  359MOL0     O49463  10.507   3.000   9.130 -0.3014  0.7373 -0.6469
  359MOL0     C49464  10.443   3.029   9.009  0.1271  0.3894  0.1421
  359MOL0     C49465  10.329   2.938   8.992 -0.4492  0.4205 -0.4430
  359MOL0     C49466  10.224   2.962   9.096  0.4951 -1.0071  0.1777
  359MOL0     C49467  10.113   2.856   9.115 -0.0559 -0.2612 -0.2822
  359MOL0     C49468  10.013   2.845   9.004 -0.0427  1.0745 -0.6866
  359MOL0     C49469   9.945   2.843   8.906  0.0663  0.5245  0.4989
  359MOL0     C49470  10.716   2.976   9.244  0.3249  0.1504 -0.7356
  359MOL0     C49471  10.851   3.004   9.277 -0.0010  0.1713 -0.4164
  359MOL0     C49472  10.904   2.936   9.403  0.2012  0.7608  0.4245
  359MOL0     H49473  11.277   3.194   9.404  0.5856 -1.3666  0.1517
  359MOL0     H49474  11.480   3.296   9.454  5.3155 -0.2073 -3.1802
  359MOL0     H49475  11.720   3.341   9.389  0.8919 -0.5376  0.6394
  359MOL0     H49476  11.619   3.428   9.512  0.0601  1.1408  0.6948
  359MOL0     H49477  11.833   3.549   9.328 -1.4213  1.4755  0.4516
  359MOL0     H49478  11.759   3.629   9.465 -0.8385  0.3091  0.9305
  359MOL0     H49479  11.862   3.442   9.605 -1.0305 -0.4048 -0.4147
  359MOL0     H49480  11.944   3.391   9.451  0.5399  0.3223 -0.0868
  359MOL0     H49481  12.062   3.628   9.455 -0.5405  0.7132 -0.3233
  359MOL0     H49482  11.961   3.665   9.597  0.9546  0.4804  0.0259
  359MOL0     H49483  12.167   3.449   9.572 -0.5467 -1.6602  1.6292
  359MOL0     H49484  12.061   3.468   9.718  0.2815 -0.9672 -0.6401
  359MOL0     H49485  12.263   3.687   9.623  0.7846 -0.0004  0.9074
  359MOL0     H49486  12.155   3.687   9.760  0.8568  1.9461 -0.3689
  359MOL0     H49487  12.387   3.512   9.696 -1.1354 -0.6670 -0.1300
  359MOL0     H49488  12.273   3.481   9.837 -0.9375  0.2303  0.9118
  359MOL0     H49489  12.341   3.703   9.922 -0.2125 -1.0961  0.5676
  359MOL0     H49490  12.454   3.575   9.938  0.3759 -0.0809 -0.9557
  359MOL0     H49491  12.443   3.835   9.627  0.9661  2.5756  0.0305
  359MOL0     H49492  12.675   3.935   9.498 -1.1837 -2.6590  0.3921
  359MOL0     H49493  12.801   3.970   9.608  0.2563  1.1291 -1.5071
  359MOL0     H49494  12.529   4.102   9.655  0.7744  0.3232  2.2106
  359MOL0     H49495  12.691   4.120   9.734  1.2005  0.4218 -0.4406
  359MOL0     H49496  12.780   4.193   9.507  0.9418  0.9168  0.9023
  359MOL0     H49497  12.607   4.192   9.456  3.5119  1.1993 -2.9265
  359MOL0     H49498  12.671   4.416   9.522 -0.1309 -2.3966 -1.1355
  359MOL0     H49499  12.564   4.357   9.645  0.6744 -0.4670  0.3501
  359MOL0     H49500  12.951   4.410   9.897 -1.8871 -0.8938 -1.1840
  359MOL0     H49501  13.154   4.437   9.996 -1.4702 -2.4580  0.5390
  359MOL0     H49502  13.272   4.493   9.873 -0.5589 -0.6312 -2.0316
  359MOL0     H49503  13.262   4.322   9.936 -0.9696  0.8694  0.6296
  359MOL0     H49504  13.473   4.096   9.607  1.1307 -0.3111  0.3231
  359MOL0     H49505  13.726   4.036   9.558 -0.1689 -1.3938  1.2589
  359MOL0     H49506  14.113   4.219   9.561 -1.5893 -0.7513 -1.4036
  359MOL0     H49507  14.024   4.365   9.598  1.6140  0.0247  0.9060
  359MOL0     H49508  14.009   4.291   9.841 -0.3065  2.5382 -0.4283
  359MOL0     H49509  14.097   4.140   9.791 -0.8516 -0.0336  1.6065
  359MOL0     H49510  14.240   4.285   9.911 -2.5776  3.0165  1.1289
  359MOL0     H49511  14.213   4.415   9.794 -1.2604  0.6334  0.4560
  359MOL0     H49512  14.311   4.294   9.616 -0.6045  0.3827  1.0375
  359MOL0     H49513  14.315   4.146   9.716 -1.4104  0.6853  0.6412
  359MOL0     H49514  14.459   4.410   9.795 -1.9080  0.7198  0.8596
  359MOL0     H49515  14.481   4.247   9.870 -1.4834  1.3673  1.5949
  359MOL0     H49516  14.580   4.302   9.593 -0.2008 -0.2656  0.5437
  359MOL0     H49517  14.588   4.145   9.683  2.6057  0.1148 -2.2460
  359MOL0     H49518  14.744   4.269   9.854  1.6535  1.4371 -1.4748
  359MOL0     H49519  14.761   4.389   9.730  0.5137  0.6475 -1.0337
  359MOL0     H49520  14.833   4.219   9.562 -0.0993 -0.2895 -0.5078
  359MOL0     H49521  14.826   4.100   9.688 -0.4095  0.2211  0.6340
  359MOL0     H49522  13.841   4.395   9.741  0.4634 -0.6446  0.0883
  359MOL0     H49523  13.617   4.456   9.787  0.0803  0.1134  0.5023
  359MOL0     H49524  13.109   4.351   9.437  2.5012  1.4526  0.4161
  359MOL0     H49525  12.885   4.372   9.476 -0.8535 -1.3660  1.1108
  359MOL0     H49526  11.482   3.516   9.095  2.4172 -1.2326  1.3747
  359MOL0     H49527  11.253   3.408   9.034  1.4645 -2.8816 -0.8499
  359MOL0     H49528  10.892   3.216   9.004 -3.1088 -0.0317 -0.3844
  359MOL0     H49529  10.656   3.187   9.000 -0.1452  2.1132  1.6229
  359MOL0     H49530  10.415   3.133   8.996  0.4466  0.2860 -1.6849
  359MOL0     H49531  10.510   3.007   8.925 -0.6016 -0.2229 -0.2864
  359MOL0     H49532  10.357   2.833   8.999 -0.6696  0.3133 -1.0563
  359MOL0     H49533  10.278   2.958   8.897 -2.6989  1.5808  0.9039
  359MOL0     H49534  10.276   2.977   9.191  2.6407 -3.4531 -0.5003
  359MOL0     H49535  10.181   3.060   9.072  3.4458  0.8593  1.7725
  359MOL0     H49536  10.056   2.882   9.205  1.5600 -3.1214  1.7191
  359MOL0     H49537  10.151   2.757   9.143 -0.3720 -0.0721  0.8776
  359MOL0     H49538   9.879   2.862   8.824  2.2471  2.1151 -1.0131
  359MOL0     H49539  10.668   2.894   9.297 -0.9176  2.0004  1.1948
  359MOL0     H49540  10.819   2.911   9.467 -1.0127  0.2403 -1.3451
  359MOL0     H49541  10.968   2.848   9.389 -1.7105 -0.6189  0.0429
  359MOL0     H49542  10.960   3.016   9.455  0.5327 -0.5039  2.1082
  360MOL0     O49543   2.286  10.555   0.532 -0.1923 -1.2594 -0.2107
  360MOL0     C49544   2.297  10.504   0.645  0.3725  0.7595  0.2840
  360MOL0     O49545   2.192  10.502   0.736  0.3590 -0.5278  0.0346
  360MOL0     C49546   2.074  10.556   0.684 -0.4830 -0.2171  0.0668
  360MOL0     C49547   2.037  10.680   0.731 -0.1920  0.1457  0.6018
  360MOL0     C49548   1.920  10.747   0.692 -0.3841 -0.1530 -0.4283
  360MOL0     C49549   1.845  10.691   0.591 -0.1829 -0.7338 -1.0113
  360MOL0     O49550   1.735  10.760   0.557  0.1777 -0.0170  0.4295
  360MOL0     C49551   1.669  10.730   0.431 -0.0461  0.9436  0.0222
  360MOL0     C49552   1.539  10.812   0.413  0.1027 -0.0962 -0.1936
  360MOL0     C49553   1.458  10.782   0.285  0.1898 -0.4416 -0.2234
  360MOL0     C49554   1.303  10.814   0.303  0.5679  0.6083  0.2411
  360MOL0     C49555   1.231  10.810   0.168 -0.2245 -0.6937 -0.5273
  360MOL0     C49556   1.221  10.941   0.095 -0.1474 -0.2839 -0.9349
  360MOL0     C49557   1.086  11.014   0.107  0.2349 -0.8651 -0.7901
  360MOL0     C49558   0.978  10.958   0.013 -0.1761  0.6513 -0.4987
  360MOL0     N49559   0.843  10.994   0.060 -0.1780 -1.2410 -0.7799
  360MOL0     C49560   0.750  11.078  -0.011 -0.1101  0.0074 -0.3591
  360MOL0     C49561   0.659  11.112   0.082  0.4032 -0.4335 -0.1951
  360MOL0     C49562   0.542  11.210   0.060  0.1495 -0.5859  0.1937
  360MOL0     C49563   0.409  11.147   0.018  0.1460 -0.1065  0.0964
  360MOL0     C49564   0.358  11.036   0.118 -0.4347  0.4921 -0.0422
  360MOL0     C49565   0.332  11.086   0.263 -0.9703  0.0042  0.2986
  360MOL0     O49566   0.256  10.993   0.342  0.1580 -0.1692  0.2954
  360MOL0     C49567   0.325  10.918   0.436 -0.4544 -0.2658  0.4348
  360MOL0     C49568   0.253  10.859   0.534  0.5962 -0.6218  0.0911
  360MOL0     C49569   0.307  10.771   0.639 -0.5712 -0.0800  0.3089
  360MOL0     C49570   0.206  10.699   0.721  0.8697 -0.1621 -0.5042
  360MOL0     C49571   0.450  10.750   0.647 -0.1993 -0.4764  0.4435
  360MOL0     C49572   0.522  10.685   0.757  0.4032  1.0520 -0.4049
  360MOL0     O49573   0.644  10.621   0.724  0.0739  0.3081  0.0172
  360MOL0     C49574   0.712  10.552   0.833 -0.1019  0.2710  0.0667
  360MOL0     C49575   0.744  10.422   0.797 -0.5341 -0.3587  0.0656
  360MOL0     C49576   0.821  10.349   0.897  0.1727 -0.4638  1.4118
  360MOL0     C49577   0.846  10.393   1.027 -0.1659  0.1761 -0.2345
  360MOL0     O49578   0.935  10.331   1.115  0.4206 -0.1340  0.1075
  360MOL0     C49579   1.013  10.228   1.067  0.0677  0.0981  0.5081
  360MOL0     C49580   1.137  10.210   1.145  0.0204  0.0512  0.1880
  360MOL0     C49581   1.250  10.311   1.120 -0.5795 -0.3407 -0.0765
  360MOL0     C49582   1.326  10.268   0.992  0.5860  0.5755 -0.2032
  360MOL0     C49583   1.443  10.356   0.959  0.2008  0.0025 -0.0116
  360MOL0     C49584   1.493  10.321   0.820 -1.1698  0.6302 -0.4351
  360MOL0     C49585   1.613  10.402   0.780  0.5914 -0.4895  0.4430
  360MOL0     C49586   1.599  10.552   0.801  0.3222  0.5145  0.0026
  360MOL0    Cl49587   1.439  10.608   0.735  0.1033  0.2937  0.0444
  360MOL0     C49588   0.807  10.521   1.055 -0.1296 -0.0409  0.0519
  360MOL0     C49589   0.740  10.602   0.958  0.5557 -0.5694 -0.3320
  360MOL0     O49590   0.477  10.684   0.870 -0.7590  0.2285 -0.1240
  360MOL0     C49591   0.523  10.809   0.536 -0.2681 -0.3242 -0.5547
  360MOL0     C49592   0.466  10.882   0.439  0.1814 -0.6504  1.0128
  360MOL0     N49593   0.688  11.048   0.206  0.4998  0.1916 -0.2946
  360MOL0     N49594   0.787  10.971   0.186  0.3351 -0.3593  0.2141
  360MOL0     C49595   1.868  10.557   0.564  0.4394 -0.3539 -0.0073
  360MOL0     C49596   1.980  10.487   0.605  0.2635 -0.0849  0.5343
  360MOL0     C49597   2.413  10.419   0.684  0.2429 -0.3656  0.5707
  360MOL0     C49598   2.385  10.299   0.757 -0.2860  0.0593 -0.8188
  360MOL0     C49599   2.483  10.203   0.787 -0.2847  0.3015 -0.3148
  360MOL0     C49600   2.612  10.219   0.732  0.0942 -0.5243 -0.9522
  360MOL0     O49601   2.712  10.126   0.759  0.0365  0.1579 -0.1350
  360MOL0     C49602   2.836  10.123   0.684 -0.2570  1.0620  0.6802
  360MOL0     C49603   2.923  10.017   0.745 -0.6408 -0.0481 -0.0486
  360MOL0     C49604   3.067   9.998   0.689 -0.1736 -0.3809  0.4544
  360MOL0     C49605   3.056   9.953   0.545  0.4321 -0.4043  0.3533
  360MOL0     C49606   2.967   9.837   0.524 -0.1181  0.2226  0.6399
  360MOL0     C49607   2.891   9.740   0.516  0.5017 -0.1579 -0.5145
  360MOL0     C49608   2.645  10.336   0.661  0.0273 -0.0758 -0.4313
  360MOL0     C49609   2.551  10.440   0.640  0.0670 -1.0260  0.6322
  360MOL0     C49610   2.598  10.554   0.544 -0.2536 -0.6187 -0.5159
  360MOL0     H49611   2.094  10.727   0.809 -1.4615  2.9667 -0.0470
  360MOL0     H49612   1.891  10.842   0.736 -1.4614  0.1548 -1.7357
  360MOL0     H49613   1.645  10.623   0.423  0.4188  0.9404 -1.8195
  360MOL0     H49614   1.730  10.754   0.343 -1.6497 -0.0931 -1.4589
  360MOL0     H49615   1.470  10.784   0.492  0.5168 -1.4511 -0.2861
  360MOL0     H49616   1.565  10.918   0.421  0.0866  0.0689 -1.9763
  360MOL0     H49617   1.497  10.845   0.204 -2.3247 -1.2199 -2.1660
  360MOL0     H49618   1.476  10.677   0.264 -0.8793 -0.9866  1.4121
  360MOL0     H49619   1.264  10.737   0.370  0.2442  0.8274  0.3046
  360MOL0     H49620   1.297  10.914   0.348 -1.8102  1.4217 -1.6733
  360MOL0     H49621   1.131  10.765   0.177 -1.1576  1.0434 -1.5233
  360MOL0     H49622   1.283  10.743   0.100  2.4811  1.1770 -0.4567
  360MOL0     H49623   1.298  11.011   0.130 -0.5687  0.0080 -0.5714
  360MOL0     H49624   1.224  10.926  -0.013  0.7647 -0.8912 -0.8365
  360MOL0     H49625   1.112  11.115   0.076 -1.7897 -0.2716 -0.7313
  360MOL0     H49626   1.046  11.029   0.208  1.0832  1.5678 -0.7533
  360MOL0     H49627   0.993  10.978  -0.093 -2.8762  1.2952 -0.8154
  360MOL0     H49628   0.983  10.848   0.010  0.4178  0.6901 -1.2472
  360MOL0     H49629   0.756  11.108  -0.115  4.2288  1.3308  0.0602
  360MOL0     H49630   0.580  11.280  -0.015  1.5748 -1.3378  0.1633
  360MOL0     H49631   0.520  11.255   0.157 -2.5743 -0.1698 -0.5541
  360MOL0     H49632   0.338  11.230   0.020 -1.3604 -1.3703  1.4396
  360MOL0     H49633   0.412  11.105  -0.083  0.6154 -0.3967  0.2271
  360MOL0     H49634   0.269  10.984   0.083  0.0754 -1.3962  1.3280
  360MOL0     H49635   0.439  10.963   0.118 -0.2145  0.7236 -0.9319
  360MOL0     H49636   0.433  11.107   0.300  0.3635 -0.7951 -2.5979
  360MOL0     H49637   0.270  11.176   0.265 -0.5349  0.3047  1.2679
  360MOL0     H49638   0.149  10.889   0.526  1.0638  0.7382 -1.5397
  360MOL0     H49639   0.227  10.592   0.719 -1.9421 -0.8032 -1.7387
  360MOL0     H49640   0.108  10.712   0.673 -0.8190 -3.4145  1.6906
  360MOL0     H49641   0.203  10.732   0.825 -0.7475  0.6632 -0.7723
  360MOL0     H49642   0.735  10.391   0.693 -3.3867 -0.1167  0.1720
  360MOL0     H49643   0.844  10.251   0.856 -1.1227  0.7619 -2.7562
  360MOL0     H49644   0.947  10.141   1.075  0.6712 -0.5212 -0.7866
  360MOL0     H49645   1.043  10.251   0.964  0.3889  1.8672  0.9629
  360MOL0     H49646   1.105  10.193   1.248 -1.8039  1.0274 -0.1760
  360MOL0     H49647   1.163  10.109   1.110 -1.5478 -0.0034 -0.9800
  360MOL0     H49648   1.312  10.318   1.209  2.1887  3.2562 -2.0438
  360MOL0     H49649   1.199  10.403   1.088 -0.2819 -1.6687 -5.3511
  360MOL0     H49650   1.256  10.271   0.909  1.2782 -1.3615 -0.9041
  360MOL0     H49651   1.360  10.165   1.000 -0.3990  0.1942 -0.8148
  360MOL0     H49652   1.418  10.463   0.964 -0.7828 -0.0269 -2.5858
  360MOL0     H49653   1.514  10.329   1.037 -0.0307 -0.9969 -0.1422
  360MOL0     H49654   1.414  10.334   0.746 -1.7104  1.2911  0.2455
  360MOL0     H49655   1.523  10.216   0.814 -0.6832  0.7118  0.4025
  360MOL0     H49656   1.629  10.382   0.674  0.2042 -3.6893  0.8910
  360MOL0     H49657   1.689  10.353   0.841  0.6286 -0.8166  0.1373
  360MOL0     H49658   1.676  10.613   0.752 -0.6242  1.9714  0.2422
  360MOL0     H49659   1.602  10.585   0.905 -2.5519  2.4332 -0.3942
  360MOL0     H49660   0.841  10.568   1.147  1.1709 -2.7518  1.0426
  360MOL0     H49661   0.709  10.702   0.988  0.3229 -0.3475 -1.2915
  360MOL0     H49662   0.630  10.798   0.539 -0.3154 -0.6563  0.0148
  360MOL0     H49663   0.529  10.934   0.367  0.4222  0.8278  2.2554
  360MOL0     H49664   1.794  10.502   0.506 -1.7915 -1.3245  3.4813
  360MOL0     H49665   1.998  10.384   0.575 -1.5821 -0.0397 -0.8540
  360MOL0     H49666   2.286  10.278   0.796  0.1395  1.2575  1.0438
  360MOL0     H49667   2.472  10.111   0.843  2.3823 -2.4725 -3.8920
  360MOL0     H49668   2.820  10.095   0.579 -0.4933  0.0167  0.9782
  360MOL0     H49669   2.889  10.217   0.697  2.6770 -0.7154  2.9257
  360MOL0     H49670   2.863   9.925   0.752  1.8427 -1.9848 -2.2290
  360MOL0     H49671   2.951  10.040   0.848 -4.7460 -1.6815  1.6809
  360MOL0     H49672   3.127  10.089   0.682 -0.0272 -0.4360  0.9681
  360MOL0     H49673   3.122   9.938   0.762  1.3514  0.2920 -0.1116
  360MOL0     H49674   3.155   9.930   0.504 -0.3049 -0.2114 -1.6592
  360MOL0     H49675   3.028  10.039   0.484 -0.1691  0.4442  1.7713
  360MOL0     H49676   2.826   9.656   0.507 -0.3821 -0.0022  2.8879
  360MOL0     H49677   2.746  10.352   0.625  0.1701  0.0299  0.0144
  360MOL0     H49678   2.547  10.642   0.583  0.0621 -0.4338 -0.5194
  360MOL0     H49679   2.704  10.576   0.529 -0.0275 -1.2256  0.1374
  360MOL0     H49680   2.553  10.529   0.447 -2.2371  1.5158 -0.2182
  361MOL0     O49681   5.886   3.757   9.848  0.4829 -0.2109 -0.3454
  361MOL0     C49682   5.833   3.650   9.807  0.3967  0.0221  0.0634
  361MOL0     O49683   5.900   3.555   9.731 -0.2877  0.1517 -0.7673
  361MOL0     C49684   6.028   3.575   9.689 -0.3773 -0.2301  0.1651
  361MOL0     C49685   6.124   3.483   9.737 -0.2278  1.3839  0.4324
  361MOL0     C49686   6.254   3.481   9.688  0.0682 -0.3712 -0.1851
  361MOL0     C49687   6.287   3.578   9.594 -0.2825  0.5403 -0.4567
  361MOL0     O49688   6.415   3.567   9.558  0.3012  0.1991  0.3970
  361MOL0     C49689   6.466   3.661   9.462  0.0042  0.3633  0.9202
  361MOL0     C49690   6.614   3.649   9.460  0.1478 -0.5914  0.1239
  361MOL0     C49691   6.671   3.523   9.407  0.5226 -0.1090  0.0651
  361MOL0     C49692   6.651   3.506   9.263  0.0073  0.4077 -0.3160
  361MOL0     C49693   6.718   3.385   9.187  0.0616  1.1528 -0.4070
  361MOL0     C49694   6.875   3.380   9.192 -0.1628  0.4795  0.4490
  361MOL0     C49695   6.936   3.267   9.109 -0.1090 -0.2799 -0.1592
  361MOL0     C49696   6.910   3.131   9.171 -0.2575 -0.1965 -0.3256
  361MOL0     N49697   6.988   3.100   9.288 -0.8941 -0.3399  0.2179
  361MOL0     C49698   7.116   3.037   9.283 -0.2984 -0.3208 -0.0725
  361MOL0     C49699   7.138   3.030   9.416 -0.1840 -0.1140 -0.3562
  361MOL0     C49700   7.265   2.967   9.485 -0.0416  0.3685  0.0267
  361MOL0     C49701   7.328   3.070   9.576  0.7762 -1.3361  0.7247
  361MOL0     C49702   7.473   3.024   9.608  0.5880  0.4911  0.2120
  361MOL0     C49703   7.479   2.899   9.701  0.2185  1.0812 -0.5787
  361MOL0     O49704   7.616   2.891   9.738 -0.1206 -0.2266  0.2174
  361MOL0     C49705   7.650   2.795   9.833 -0.1930  0.1235  0.0680
  361MOL0     C49706   7.553   2.706   9.893  0.4179 -0.1505  1.1926
  361MOL0     C49707   7.589   2.600   9.979  0.0350  0.3628  0.6332
  361MOL0     C49708   7.480   2.506  10.030 -0.2223 -0.1884  0.3029
  361MOL0     C49709   7.725   2.583  10.014 -0.5475  0.0613 -0.6359
  361MOL0     C49710   7.784   2.466  10.092  0.3384 -0.2833  0.0909
  361MOL0     O49711   7.915   2.439  10.054 -0.5410  0.3477  0.3038
  361MOL0     C49712   7.996   2.393  10.150  0.4436  0.6509 -0.9464
  361MOL0     C49713   8.021   2.464  10.274 -1.5597 -0.0980  0.3546
  361MOL0     C49714   8.100   2.413  10.376  0.1112  0.3745  0.1940
  361MOL0     C49715   8.154   2.279  10.365  1.1447  0.3364 -0.1741
  361MOL0     O49716   8.243   2.231  10.453 -0.1746  0.1431 -0.4848
  361MOL0     C49717   8.255   2.298  10.582  0.0110 -0.1308 -0.4456
  361MOL0     C49718   8.314   2.198  10.678 -0.1336  0.4493 -0.0961
  361MOL0     C49719   8.373   2.273  10.796 -0.4287  0.2535 -0.2796
  361MOL0     C49720   8.455   2.181  10.891  0.0193 -0.8222  0.2288
  361MOL0     C49721   8.561   2.267  10.969 -1.1939  0.2018 -0.0785
  361MOL0     C49722   8.656   2.175  11.052 -0.0193 -0.0159  0.4543
  361MOL0     C49723   8.752   2.263  11.135  0.1848  0.1436  0.1940
  361MOL0     C49724   8.894   2.206  11.157  0.1881 -0.6541  0.0676
  361MOL0    Cl49725   8.979   2.321  11.265  0.3046  0.2201 -0.1690
  361MOL0     C49726   8.132   2.214  10.245  0.3006 -0.0125 -0.5168
  361MOL0     C49727   8.063   2.270  10.132 -0.3228  0.2587 -0.2829
  361MOL0     O49728   7.714   2.410  10.183  0.2817  0.1926 -0.8251
  361MOL0     C49729   7.819   2.673   9.962  0.2288 -0.2435  0.8505
  361MOL0     C49730   7.784   2.776   9.870 -0.3780  0.9870 -1.2710
  361MOL0     N49731   7.041   3.089   9.501  0.4595  0.1848 -0.3099
  361MOL0     N49732   6.949   3.130   9.421  0.1413  0.1833 -0.2761
  361MOL0     C49733   6.193   3.677   9.542 -0.2990 -0.1440 -0.1371
  361MOL0     C49734   6.063   3.676   9.590  0.2801  0.0469  0.1251
  361MOL0     C49735   5.686   3.627   9.834  0.0159 -0.4138  0.0732
  361MOL0     C49736   5.612   3.744   9.867 -0.1534  0.9306  0.3010
  361MOL0     C49737   5.480   3.727   9.917 -0.3864  0.1875 -1.1133
  361MOL0     C49738   5.428   3.603   9.938  0.6205 -0.2181 -0.2012
  361MOL0     O49739   5.311   3.583  10.010  0.0008  0.3797 -0.3878
  361MOL0     C49740   5.212   3.687   9.983  0.5539 -0.4415 -0.5363
  361MOL0     C49741   5.080   3.632  10.031  0.0323  0.1762  0.4978
  361MOL0     C49742   4.966   3.715   9.959  0.5183  0.0368  0.4227
  361MOL0     C49743   4.950   3.672   9.808 -0.1689 -0.1742  0.1360
  361MOL0     C49744   4.815   3.668   9.756 -0.2252 -0.8067 -0.3454
  361MOL0     C49745   4.698   3.674   9.718 -0.3669  0.3413 -0.1626
  361MOL0     C49746   5.499   3.495   9.895  0.4568 -0.5699 -0.5502
  361MOL0     C49747   5.624   3.501   9.841  0.2516  0.3149 -0.2852
  361MOL0     C49748   5.681   3.375   9.798  0.0337  0.8326  0.0325
  361MOL0     H49749   6.083   3.410   9.805  0.1804 -1.5922 -2.2871
  361MOL0     H49750   6.326   3.410   9.727  1.5434  0.8723 -0.5089
  361MOL0     H49751   6.439   3.766   9.476 -2.1986  0.0385 -0.3973
  361MOL0     H49752   6.431   3.624   9.365  3.1623 -2.0230  0.5452
  361MOL0     H49753   6.656   3.734   9.404 -1.0150 -0.1357 -0.0745
  361MOL0     H49754   6.661   3.669   9.556  3.2925 -0.3107 -1.3357
  361MOL0     H49755   6.781   3.526   9.411  0.4921  0.4609  0.5042
  361MOL0     H49756   6.630   3.439   9.463 -1.5881  0.4685 -0.5492
  361MOL0     H49757   6.546   3.498   9.235  0.4869 -5.2709 -1.6099
  361MOL0     H49758   6.680   3.594   9.204 -0.3312  0.8388  0.1468
  361MOL0     H49759   6.692   3.390   9.081  0.4989 -0.8570 -0.6521
  361MOL0     H49760   6.674   3.299   9.238  0.1021  0.7991 -0.9559
  361MOL0     H49761   6.924   3.476   9.176  1.6356 -0.3047  0.9049
  361MOL0     H49762   6.906   3.349   9.293  1.2303 -0.9354 -0.3704
  361MOL0     H49763   7.043   3.287   9.110 -0.4042  1.6025 -0.9885
  361MOL0     H49764   6.905   3.269   9.004 -2.2615  0.1623  0.4284
  361MOL0     H49765   6.803   3.111   9.179 -0.8162  2.6397  0.5553
  361MOL0     H49766   6.950   3.059   9.100  1.0294 -1.4988  1.5985
  361MOL0     H49767   7.160   2.997   9.193  0.3174 -0.3030  0.2184
  361MOL0     H49768   7.343   2.936   9.414  1.3787  0.7376  1.3674
  361MOL0     H49769   7.236   2.875   9.536 -1.2126  0.2340 -0.8341
  361MOL0     H49770   7.324   3.169   9.529 -1.1913 -1.2794  0.9144
  361MOL0     H49771   7.277   3.072   9.673 -0.0043 -2.0556  0.3425
  361MOL0     H49772   7.537   3.010   9.521  1.2948 -2.7531  1.1248
  361MOL0     H49773   7.508   3.113   9.662  2.1016  0.2886 -0.4023
  361MOL0     H49774   7.418   2.913   9.791 -0.3245 -0.6980 -0.6196
  361MOL0     H49775   7.441   2.802   9.666 -0.1791  0.9807  0.1186
  361MOL0     H49776   7.447   2.720   9.877 -0.0655 -0.8401  3.4756
  361MOL0     H49777   7.381   2.543  10.001 -0.5431  0.0375  1.6112
  361MOL0     H49778   7.484   2.495  10.139 -1.9257  2.1258  0.6982
  361MOL0     H49779   7.504   2.409   9.987  3.8200  1.5575 -1.9141
  361MOL0     H49780   7.974   2.562  10.283 -1.3391  0.1773 -1.2883
  361MOL0     H49781   8.119   2.471  10.467  2.5158  1.5471 -0.9648
  361MOL0     H49782   8.322   2.383  10.565  1.9722 -1.7974 -1.3478
  361MOL0     H49783   8.156   2.324  10.621 -0.6197 -1.6453 -0.9527
  361MOL0     H49784   8.234   2.129  10.705 -1.9800  1.5711 -2.3621
  361MOL0     H49785   8.395   2.138  10.635  1.5882  1.4686  1.5476
  361MOL0     H49786   8.292   2.319  10.853 -2.2160  0.3115 -2.6878
  361MOL0     H49787   8.430   2.360  10.763 -2.0864  1.7620  0.6416
  361MOL0     H49788   8.507   2.098  10.842  2.3870 -0.2720  1.6123
  361MOL0     H49789   8.385   2.131  10.959  0.0845  0.6644  1.4500
  361MOL0     H49790   8.621   2.337  10.911 -1.6264  0.9083  0.3211
  361MOL0     H49791   8.518   2.332  11.045 -0.0797  0.2955  0.4873
  361MOL0     H49792   8.702   2.091  10.999 -0.7396 -0.8572  1.1383
  361MOL0     H49793   8.586   2.134  11.125 -2.8598 -0.9346 -2.5151
  361MOL0     H49794   8.719   2.275  11.239  1.1497 -1.7587  0.7671
  361MOL0     H49795   8.765   2.363  11.093  2.4463  0.2186  0.9006
  361MOL0     H49796   8.939   2.194  11.057  0.0654 -0.4324 -0.0139
  361MOL0     H49797   8.894   2.107  11.205  1.5310 -1.4203 -1.3837
  361MOL0     H49798   8.184   2.120  10.226  2.4626  1.3047 -1.4771
  361MOL0     H49799   8.049   2.213  10.040 -1.7073 -1.7332  1.0653
  361MOL0     H49800   7.924   2.670   9.992  1.3026  0.9063 -2.3740
  361MOL0     H49801   7.867   2.830   9.825  1.8396 -0.6496  0.5966
  361MOL0     H49802   6.222   3.747   9.464  1.7804  1.1422  1.6766
  361MOL0     H49803   5.991   3.740   9.541  0.8067 -1.3960 -2.6950
  361MOL0     H49804   5.651   3.844   9.851 -2.0920  1.2245 -4.3023
  361MOL0     H49805   5.422   3.818   9.932 -1.4919 -0.6713 -0.1136
  361MOL0     H49806   5.233   3.776  10.042 -1.8840  0.4013 -0.8313
  361MOL0     H49807   5.213   3.717   9.877 -0.3712  1.2624 -0.0981
  361MOL0     H49808   5.072   3.642  10.139 -1.1692 -0.7311  0.5207
  361MOL0     H49809   5.061   3.525  10.015 -1.0108  0.5902 -1.3888
  361MOL0     H49810   4.870   3.704  10.010  0.3831 -1.6581 -0.1299
  361MOL0     H49811   4.994   3.818   9.937 -0.0287 -0.1501 -1.3169
  361MOL0     H49812   4.979   3.568   9.791 -4.2495 -1.3037 -1.1165
  361MOL0     H49813   5.024   3.730   9.751 -0.3586 -1.5071 -1.5570
  361MOL0     H49814   4.600   3.648   9.684 -0.5595 -0.1778  0.7436
  361MOL0     H49815   5.460   3.396   9.917  0.9513 -0.5088  0.6486
  361MOL0     H49816   5.781   3.362   9.840  0.2328 -1.6000 -1.0455
  361MOL0     H49817   5.619   3.290   9.830  2.5585 -1.1489 -0.0558
  361MOL0     H49818   5.694   3.367   9.690  0.7342  1.4163  0.0659
  362MOL0     O49819   9.937   4.266  11.288  0.0552 -0.6928 -0.7645
  362MOL0     C49820   9.924   4.284  11.174  0.5001  0.1025 -0.4909
  362MOL0     O49821  10.022   4.258  11.075  0.1589  0.0188 -0.3731
  362MOL0     C49822  10.150   4.216  11.113  0.8131  0.1682 -0.4024
  362MOL0     C49823  10.261   4.298  11.085 -0.4467  0.4291 -0.2591
  362MOL0     C49824  10.397   4.266  11.117  0.0070 -0.0494  0.1080
  362MOL0     C49825  10.421   4.135  11.164 -0.5045  0.0924 -0.1819
  362MOL0     O49826  10.548   4.088  11.190  0.2963 -0.5754 -0.2415
  362MOL0     C49827  10.581   3.949  11.198  0.3555  0.7368 -0.3691
  362MOL0     C49828  10.701   3.931  11.288  0.0371  0.0196 -0.4088
  362MOL0     C49829  10.815   4.026  11.249  0.8119 -0.3591 -0.1291
  362MOL0     C49830  10.947   3.983  11.324 -0.0086  0.0881  0.1093
  362MOL0     C49831  11.070   4.040  11.247 -0.5128 -0.2147 -0.4244
  362MOL0     C49832  11.194   4.022  11.333 -0.1796  0.3736  0.3500
  362MOL0     C49833  11.313   4.045  11.232  0.8447  0.1485 -0.7466
  362MOL0     C49834  11.447   4.027  11.299  0.3006  0.2650  0.4399
  362MOL0     N49835  11.468   3.885  11.326  0.1828  0.2179  0.2799
  362MOL0     C49836  11.514   3.794  11.237 -0.8795 -0.3368 -0.3939
  362MOL0     C49837  11.558   3.690  11.312  0.5877  0.0525  0.1491
  362MOL0     C49838  11.610   3.556  11.265 -0.4248 -0.0129 -0.1528
  362MOL0     C49839  11.731   3.496  11.335 -0.1607 -0.5873 -0.7610
  362MOL0     C49840  11.866   3.564  11.294  0.2331  0.4547 -0.6122
  362MOL0     C49841  11.977   3.503  11.381 -0.5784 -0.7723  0.4420
  362MOL0     O49842  12.005   3.363  11.348  0.2052 -0.1028 -0.0140
  362MOL0     C49843  12.088   3.292  11.433 -0.0279  0.2832  0.0829
  362MOL0     C49844  12.158   3.328  11.551 -0.2557 -0.2375  0.6230
  362MOL0     C49845  12.252   3.245  11.605 -0.1004 -0.1058 -0.1169
  362MOL0     C49846  12.291   3.279  11.748  0.0228  0.3275 -0.5610
  362MOL0     C49847  12.293   3.128  11.543  0.0939 -0.4440  0.0391
  362MOL0     C49848  12.404   3.031  11.576  0.6347 -1.3050 -0.3607
  362MOL0     O49849  12.405   2.895  11.535  0.3322  0.5986  0.3951
  362MOL0     C49850  12.500   2.804  11.584  0.0894 -0.0155 -0.1328
  362MOL0     C49851  12.634   2.814  11.546  0.1364  0.6434 -0.1267
  362MOL0     C49852  12.724   2.717  11.603 -0.3634  0.1276 -0.2375
  362MOL0     C49853  12.682   2.617  11.690 -0.6617 -0.1789  0.0389
  362MOL0     O49854  12.762   2.528  11.747 -0.8489  0.7376  0.8111
  362MOL0     C49855  12.722   2.406  11.813 -0.0697 -1.1395  0.0974
  362MOL0     C49856  12.843   2.328  11.867  0.1593  0.0879  0.1469
  362MOL0     C49857  12.919   2.257  11.759 -0.4966 -0.3665  0.1862
  362MOL0     C49858  13.053   2.191  11.807  0.2324 -0.2456  0.0801
  362MOL0     C49859  13.101   2.099  11.689  0.3452  0.1508 -0.2303
  362MOL0     C49860  13.240   2.027  11.719  0.0349 -0.1608  0.5649
  362MOL0     C49861  13.362   2.118  11.712 -0.5883  0.6750  0.3713
  362MOL0     C49862  13.477   2.058  11.793  0.4811  0.5677 -0.5966
  362MOL0    Cl49863  13.586   2.197  11.811  0.4063 -0.3243 -0.3625
  362MOL0     C49864  12.550   2.621  11.738 -0.1336  0.1154  0.6343
  362MOL0     C49865  12.463   2.718  11.686 -0.2144  0.1676  0.7606
  362MOL0     O49866  12.489   3.091  11.646 -0.4342 -0.2712  0.4113
  362MOL0     C49867  12.215   3.083  11.439  0.4363 -0.4311  0.3960
  362MOL0     C49868  12.120   3.165  11.380  0.0562 -0.9405  1.2606
  362MOL0     N49869  11.545   3.728  11.445 -0.1555 -0.2474  0.1805
  362MOL0     N49870  11.494   3.843  11.453 -0.1953 -0.6658  0.3854
  362MOL0     C49871  10.304   4.053  11.199 -0.2285 -0.9341 -0.1828
  362MOL0     C49872  10.172   4.104  11.189  0.3756 -0.2030  1.0954
  362MOL0     C49873   9.782   4.325  11.131 -0.4560 -0.1800 -0.3004
  362MOL0     C49874   9.762   4.320  10.991  0.0580 -0.7479 -0.0345
  362MOL0     C49875   9.638   4.336  10.945  0.1380  0.0223  0.4856
  362MOL0     C49876   9.530   4.376  11.026  0.1101  0.6450 -0.3871
  362MOL0     O49877   9.406   4.409  10.979 -0.2509  0.3672 -0.2916
  362MOL0     C49878   9.367   4.363  10.853  0.2521 -1.8136  0.6921
  362MOL0     C49879   9.231   4.409  10.801  0.1622  0.8101  0.3038
  362MOL0     C49880   9.202   4.558  10.806  0.0393  0.2700 -0.2228
  362MOL0     C49881   9.096   4.604  10.697 -0.2608  0.2123 -0.4667
  362MOL0     C49882   8.996   4.502  10.654 -0.0457  0.1210  0.6071
  362MOL0     C49883   8.898   4.425  10.624  0.0229 -0.4526  0.4828
  362MOL0     C49884   9.561   4.397  11.161  0.2216  0.0522  0.8509
  362MOL0     C49885   9.688   4.371  11.220  0.5257  0.6290  0.2423
  362MOL0     C49886   9.713   4.406  11.363 -0.1129 -0.0988 -0.4148
  362MOL0     H49887  10.242   4.389  11.029 -0.0547  0.0619 -0.9992
  362MOL0     H49888  10.471   4.342  11.093 -1.0321  1.1771  0.6922
  362MOL0     H49889  10.594   3.919  11.094 -0.9063 -1.5737  0.0657
  362MOL0     H49890  10.501   3.888  11.242 -2.7003  5.8182  2.0539
  362MOL0     H49891  10.673   3.938  11.394  1.9210  1.3992  0.0644
  362MOL0     H49892  10.734   3.827  11.274 -1.8369 -0.3979 -2.1417
  362MOL0     H49893  10.820   4.022  11.140  0.8412  1.2302 -0.2055
  362MOL0     H49894  10.787   4.128  11.274 -1.5059 -1.2411  1.2462
  362MOL0     H49895  10.947   4.024  11.426 -1.5210  1.7448 -0.4933
  362MOL0     H49896  10.952   3.874  11.326 -1.0516  0.0154 -0.5853
  362MOL0     H49897  11.064   4.149  11.237  0.9337  0.1218  1.6669
  362MOL0     H49898  11.069   3.984  11.153 -0.1297  0.1403 -0.6460
  362MOL0     H49899  11.200   4.101  11.408  1.4779  2.9191 -2.2634
  362MOL0     H49900  11.199   3.920  11.373  2.3275  1.1076  2.2222
  362MOL0     H49901  11.314   4.146  11.190  0.0215  0.1071 -0.8737
  362MOL0     H49902  11.299   3.979  11.146 -3.0019  1.0030 -0.9473
  362MOL0     H49903  11.526   4.061  11.231 -0.5956  2.0639  0.2448
  362MOL0     H49904  11.453   4.093  11.386  1.1948 -1.5883  1.8520
  362MOL0     H49905  11.510   3.801  11.129 -0.4495 -1.1993 -0.4746
  362MOL0     H49906  11.637   3.558  11.159 -0.7055 -2.9341 -0.3465
  362MOL0     H49907  11.529   3.483  11.274 -0.0566 -0.4473 -0.3434
  362MOL0     H49908  11.719   3.494  11.444  1.9600 -1.7543 -0.5119
  362MOL0     H49909  11.728   3.391  11.306  0.9456 -0.5961 -0.8658
  362MOL0     H49910  11.886   3.547  11.188  1.1987  1.4428 -0.5993
  362MOL0     H49911  11.855   3.670  11.316 -0.0535  0.3250 -0.0874
  362MOL0     H49912  12.065   3.568  11.372 -1.0853  0.0692  1.3142
  362MOL0     H49913  11.947   3.504  11.486  3.6328 -4.5585  2.0104
  362MOL0     H49914  12.130   3.420  11.602  1.5617  1.4340 -1.2273
  362MOL0     H49915  12.397   3.262  11.770 -0.3170  0.9866  1.7793
  362MOL0     H49916  12.225   3.220  11.811 -2.1688 -0.7420 -3.5883
  362MOL0     H49917  12.285   3.386  11.773 -0.7111  0.5497 -1.6087
  362MOL0     H49918  12.662   2.897  11.481 -2.8016  0.4537 -1.8148
  362MOL0     H49919  12.832   2.719  11.596 -0.2188 -0.3361  1.4752
  362MOL0     H49920  12.664   2.430  11.903 -1.8860  2.8556 -1.8958
  362MOL0     H49921  12.661   2.331  11.761  0.9843 -0.4125 -2.3036
  362MOL0     H49922  12.914   2.401  11.908  0.5873  0.0558 -0.5172
  362MOL0     H49923  12.811   2.255  11.942  1.1537  1.7811  2.3174
  362MOL0     H49924  12.955   2.327  11.683  0.2880 -0.9255  0.0268
  362MOL0     H49925  12.852   2.187  11.708 -1.4349  1.8384 -1.8247
  362MOL0     H49926  13.042   2.142  11.904  0.0936  0.2399  0.3128
  362MOL0     H49927  13.127   2.270  11.824 -1.4369  0.9823  2.0997
  362MOL0     H49928  13.028   2.019  11.677 -2.3887  2.5696 -0.8909
  362MOL0     H49929  13.111   2.155  11.595 -2.0458  2.9290  0.9946
  362MOL0     H49930  13.246   1.942  11.650 -5.6697  0.7441 -1.5827
  362MOL0     H49931  13.234   1.979  11.817 -3.5654 -0.6661  0.2241
  362MOL0     H49932  13.345   2.222  11.742  1.9663  0.5976  2.4052
  362MOL0     H49933  13.392   2.125  11.607  0.4479 -0.2105  0.5999
  362MOL0     H49934  13.520   1.971  11.744  0.2090 -0.0332  0.2057
  362MOL0     H49935  13.438   2.023  11.889 -0.8653  2.6523 -0.3119
  362MOL0     H49936  12.510   2.551  11.810 -0.0664 -0.3433  0.2316
  362MOL0     H49937  12.361   2.724  11.723 -0.7259  1.5039 -0.7538
  362MOL0     H49938  12.219   2.986  11.390 -2.7495 -0.3332 -0.2488
  362MOL0     H49939  12.043   3.135  11.309  1.9187  0.8359 -1.7278
  362MOL0     H49940  10.305   3.963  11.259  2.1849 -2.6747 -2.5885
  362MOL0     H49941  10.089   4.046  11.230 -1.3815 -0.7195 -2.7984
  362MOL0     H49942   9.834   4.286  10.918  3.3981  0.8102  2.3045
  362MOL0     H49943   9.625   4.307  10.842  0.7178 -1.9605  0.9312
  362MOL0     H49944   9.437   4.406  10.780 -1.0661  0.4369  0.6525
  362MOL0     H49945   9.368   4.254  10.850  0.0542 -1.8037 -0.2573
  362MOL0     H49946   9.167   4.344  10.861  2.0403 -1.1706  0.2682
  362MOL0     H49947   9.225   4.357  10.705 -1.3406  1.8097 -0.1792
  362MOL0     H49948   9.151   4.564  10.903 -0.1814 -1.1597 -0.2187
  362MOL0     H49949   9.289   4.623  10.798 -2.2870  3.6027 -0.7523
  362MOL0     H49950   9.143   4.636  10.604 -2.6501  2.3580 -1.0569
  362MOL0     H49951   9.041   4.689  10.738 -2.5998  0.3249 -3.4939
  362MOL0     H49952   8.811   4.368  10.598 -1.9585  2.9872 -1.1541
  362MOL0     H49953   9.476   4.422  11.223 -2.5120 -1.2636 -2.0802
  362MOL0     H49954   9.735   4.319  11.425  0.5430  0.7675  0.6225
  362MOL0     H49955   9.801   4.471  11.368 -0.8029  0.8637 -0.5863
  362MOL0     H49956   9.633   4.460  11.414  2.2278  1.0192  2.3489
  363MOL0     O49957   8.693   8.942   5.125  0.5280 -0.0612 -0.1738
  363MOL0     C49958   8.737   8.876   5.039  0.2543 -0.4174 -0.6529
  363MOL0     O49959   8.871   8.871   5.005 -0.9092  0.5264 -0.3107
  363MOL0     C49960   8.976   8.936   5.078  0.5178 -0.3614 -0.3958
  363MOL0     C49961   8.956   9.044   5.172 -0.1796 -0.3964  0.5273
  363MOL0     C49962   9.068   9.084   5.241  0.5769  0.3078 -0.4289
  363MOL0     C49963   9.187   9.009   5.234  0.5667 -0.0508 -0.1324
  363MOL0     O49964   9.297   9.038   5.318  0.1464  0.3862 -0.0407
  363MOL0     C49965   9.276   9.128   5.426 -0.4584 -0.3803  0.0290
  363MOL0     C49966   9.391   9.121   5.521  0.9316  0.3844 -0.5275
  363MOL0     C49967   9.527   9.166   5.469  0.1863  1.0682 -0.0303
  363MOL0     C49968   9.536   9.314   5.469 -0.5004 -0.3515  0.6739
  363MOL0     C49969   9.678   9.371   5.453 -0.6002  0.0224 -0.1902
  363MOL0     C49970   9.736   9.372   5.594 -0.1663  1.0411  0.9993
  363MOL0     C49971   9.845   9.486   5.600  0.1936 -0.0450  0.0042
  363MOL0     C49972   9.966   9.466   5.507 -0.3644 -0.1389 -0.1990
  363MOL0     N49973  10.034   9.594   5.491  1.0704  0.2971 -1.0855
  363MOL0     C49974  10.144   9.627   5.569 -0.3081  0.2819 -0.1254
  363MOL0     C49975  10.179   9.755   5.532 -0.1028 -0.4689 -0.2952
  363MOL0     C49976  10.302   9.832   5.571  0.3019 -0.7719 -0.5899
  363MOL0     C49977  10.433   9.787   5.515 -0.1431 -0.7746  0.3190
  363MOL0     C49978  10.565   9.814   5.596  0.1559 -0.1198  0.9165
  363MOL0     C49979  10.694   9.778   5.529 -0.1169 -0.0702  0.2135
  363MOL0     O49980  10.720   9.872   5.421 -0.3380 -0.4255  0.4277
  363MOL0     C49981  10.839   9.857   5.342 -0.3963  1.1128 -0.3904
  363MOL0     C49982  10.945   9.782   5.388 -0.8953  0.6920  0.5877
  363MOL0     C49983  11.069   9.771   5.319  0.2657  0.2921  0.6101
  363MOL0     C49984  11.163   9.669   5.367 -1.1490 -0.4633 -0.4527
  363MOL0     C49985  11.090   9.858   5.210  0.5956 -0.0854 -0.4382
  363MOL0     C49986  11.214   9.870   5.133  0.5018  0.7323  0.9358
  363MOL0     O49987  11.206   9.942   5.019 -0.0944 -1.0436  0.8571
  363MOL0     C49988  11.325   9.953   4.945  0.5369 -0.8659  0.2978
  363MOL0     C49989  11.347   9.857   4.852  0.7372 -0.4022 -0.0371
  363MOL0     C49990  11.463   9.865   4.777 -0.4298 -0.6964  0.0571
  363MOL0     C49991  11.548   9.972   4.790 -0.3592 -0.1861  0.0199
  363MOL0     O49992  11.659   9.971   4.710 -0.1702  1.1897  0.6209
  363MOL0     C49993  11.717  10.103   4.674  0.5519 -0.2986 -0.4251
  363MOL0     C49994  11.846  10.077   4.587  1.0580 -0.2781  0.0759
  363MOL0     C49995  11.909  10.205   4.550 -1.0970  0.7135  0.5716
  363MOL0     C49996  12.018  10.185   4.441 -0.4863  0.0186 -0.3323
  363MOL0     C49997  12.102  10.316   4.415 -0.1191  0.3934  0.9164
  363MOL0     C49998  12.219  10.324   4.511 -0.5336  0.8898 -0.1174
  363MOL0     C49999  12.318  10.430   4.469  1.0949  0.8074 -0.3069
  363MOL0     C50000  12.409  10.476   4.590  0.0598 -0.2546  0.1591
  363MOL0    Cl50001  12.547  10.567   4.538  0.2305 -0.2405 -0.1126
  363MOL0     C50002  11.534  10.066   4.895  0.3560  0.9453  0.4075
  363MOL0     C50003  11.417  10.054   4.968 -0.1303 -0.5202 -0.2826
  363MOL0     O50004  11.322   9.816   5.173 -0.6749 -0.4658  0.3022
  363MOL0     C50005  10.985   9.935   5.167 -0.1683  0.2805  0.2914
  363MOL0     C50006  10.858   9.930   5.228 -0.2966 -0.0437  0.1919
  363MOL0     N50007  10.090   9.783   5.430 -0.6361 -0.5647  0.2290
  363MOL0     N50008  10.007   9.691   5.403  0.7758  0.3393 -0.2155
  363MOL0     C50009   9.210   8.915   5.136 -0.0472  0.6394  0.6264
  363MOL0     C50010   9.101   8.878   5.058  0.1617  0.0275 -0.1486
  363MOL0     C50011   8.645   8.781   4.982  0.0157 -0.0809  0.5350
  363MOL0     C50012   8.515   8.773   5.038  0.2833  0.0599 -0.5216
  363MOL0     C50013   8.410   8.697   4.981 -0.3376  0.6055 -0.3546
  363MOL0     C50014   8.441   8.622   4.874  1.1450  0.9553  0.0396
  363MOL0     O50015   8.350   8.537   4.820 -0.8717 -0.2620  0.6637
  363MOL0     C50016   8.250   8.590   4.737 -0.5834  0.1835 -0.0934
  363MOL0     C50017   8.140   8.487   4.708  0.7736 -0.4519 -0.1166
  363MOL0     C50018   7.989   8.528   4.701 -0.4223 -0.1846  0.0374
  363MOL0     C50019   7.889   8.404   4.704 -0.6702 -0.2149  0.0469
  363MOL0     C50020   7.748   8.450   4.679 -0.2607  0.5971 -0.6422
  363MOL0     C50021   7.637   8.485   4.658  0.8557 -0.2701 -0.2752
  363MOL0     C50022   8.567   8.627   4.816 -0.7309  0.7405  0.2180
  363MOL0     C50023   8.673   8.699   4.868 -0.4116  0.4697 -0.4812
  363MOL0     C50024   8.807   8.702   4.798  0.0282  0.0531 -0.1972
  363MOL0     H50025   8.858   9.087   5.191  0.2577  1.5582 -1.2514
  363MOL0     H50026   9.063   9.168   5.309  2.2998  0.7446 -0.8055
  363MOL0     H50027   9.182   9.095   5.471 -2.5705  2.6914 -1.7521
  363MOL0     H50028   9.264   9.231   5.390 -1.5418 -1.3144 -2.5562
  363MOL0     H50029   9.367   9.179   5.610 -0.0336 -2.3718  1.1182
  363MOL0     H50030   9.398   9.018   5.558 -1.1707 -0.1811 -1.5328
  363MOL0     H50031   9.604   9.111   5.523 -2.6668 -2.6871  0.6031
  363MOL0     H50032   9.541   9.134   5.366  1.3921 -1.7963  0.9318
  363MOL0     H50033   9.474   9.357   5.390 -5.1572  0.7169  4.4659
  363MOL0     H50034   9.493   9.351   5.563  0.6084 -1.2888  1.5848
  363MOL0     H50035   9.666   9.472   5.413  0.6421 -0.5862 -2.2092
  363MOL0     H50036   9.743   9.311   5.388 -0.1166 -0.2835  0.5593
  363MOL0     H50037   9.660   9.396   5.669 -1.0009  0.4616  0.3660
  363MOL0     H50038   9.782   9.275   5.613  0.2665  1.2767  1.1737
  363MOL0     H50039   9.879   9.498   5.703  0.6204  1.6070 -0.2889
  363MOL0     H50040   9.793   9.577   5.568 -2.1640 -1.6771 -1.0455
  363MOL0     H50041  10.028   9.387   5.551  0.0474  0.2595 -0.0616
  363MOL0     H50042   9.927   9.435   5.410  0.0639 -0.2417 -0.3430
  363MOL0     H50043  10.189   9.560   5.643 -1.9271 -1.0653 -0.3003
  363MOL0     H50044  10.321   9.842   5.678  0.2197 -0.2453 -0.6223
  363MOL0     H50045  10.285   9.933   5.533 -1.6361  0.7001  3.6010
  363MOL0     H50046  10.425   9.680   5.491 -0.9058 -0.6238 -0.1027
  363MOL0     H50047  10.437   9.839   5.419  2.5775 -0.9870  0.2110
  363MOL0     H50048  10.576   9.917   5.630  2.6084 -0.4210  1.2400
  363MOL0     H50049  10.552   9.761   5.691  0.8467 -1.4366  0.3153
  363MOL0     H50050  10.767   9.778   5.611  0.4517  0.6066 -0.2792
  363MOL0     H50051  10.685   9.677   5.488 -2.0257  0.3647 -0.5564
  363MOL0     H50052  10.934   9.723   5.479 -3.1612 -0.0867 -0.1191
  363MOL0     H50053  11.260   9.714   5.391 -1.6886  1.4206 -1.5711
  363MOL0     H50054  11.184   9.596   5.287  0.3206 -0.4089 -0.1407
  363MOL0     H50055  11.121   9.617   5.453  0.0892  0.8991  1.0287
  363MOL0     H50056  11.281   9.775   4.824 -1.1082  1.3911 -1.2395
  363MOL0     H50057  11.488   9.796   4.696  0.4731 -0.4819  0.1510
  363MOL0     H50058  11.647  10.167   4.620 -0.1559  1.8651  2.7608
  363MOL0     H50059  11.762  10.158   4.757  0.1956 -0.1385 -0.3382
  363MOL0     H50060  11.917  10.020   4.647  2.0644  1.8526  0.9964
  363MOL0     H50061  11.823  10.026   4.493  1.7221 -0.3375 -0.0596
  363MOL0     H50062  11.967  10.235   4.638 -1.2302 -4.1783  2.5861
  363MOL0     H50063  11.837  10.283   4.523 -1.3632  0.5716  0.8788
  363MOL0     H50064  11.960  10.164   4.351  1.9390  2.7144 -2.7600
  363MOL0     H50065  12.087  10.104   4.467 -1.0635 -0.2179  0.5249
  363MOL0     H50066  12.131  10.327   4.310  1.2953  4.5739  1.5431
  363MOL0     H50067  12.043  10.403   4.447  2.4709  1.4106  3.2986
  363MOL0     H50068  12.266  10.225   4.505 -1.8544  0.1125  1.4863
  363MOL0     H50069  12.172  10.341   4.609 -0.7830 -0.1742 -0.0364
  363MOL0     H50070  12.256  10.509   4.426 -1.8881 -1.3909 -0.3380
  363MOL0     H50071  12.386  10.387   4.394 -2.0347 -5.1365 -0.3252
  363MOL0     H50072  12.430  10.389   4.654 -0.6162  1.1692  2.4258
  363MOL0     H50073  12.360  10.557   4.644 -0.8539 -0.6946  0.0063
  363MOL0     H50074  11.615  10.134   4.920  2.2176 -1.5378  1.6274
  363MOL0     H50075  11.400  10.124   5.050 -1.5805  1.3056 -2.0160
  363MOL0     H50076  10.993   9.993   5.075  0.2211  0.8773  0.7023
  363MOL0     H50077  10.792  10.002   5.182  0.9544  1.7345  1.0733
  363MOL0     H50078   9.312   8.879   5.127 -1.0778 -2.1866 -1.4019
  363MOL0     H50079   9.112   8.790   4.995 -0.7921  0.9644 -1.6608
  363MOL0     H50080   8.478   8.835   5.119 -3.9458 -0.7095 -1.6486
  363MOL0     H50081   8.310   8.702   5.021  0.3059  2.1523  1.2000
  363MOL0     H50082   8.202   8.667   4.798 -0.2797  2.8835 -3.0119
  363MOL0     H50083   8.293   8.635   4.647  1.9728 -0.3689  0.7388
  363MOL0     H50084   8.152   8.409   4.784  1.2057  0.7499  1.0858
  363MOL0     H50085   8.160   8.461   4.604 -2.9173  3.5100 -2.1821
  363MOL0     H50086   7.978   8.594   4.787  0.6218 -0.8097  0.6827
  363MOL0     H50087   7.968   8.584   4.609 -1.8171 -0.5820  0.0963
  363MOL0     H50088   7.902   8.378   4.810 -0.8729 -1.9843 -0.3250
  363MOL0     H50089   7.927   8.319   4.646 -0.9998  0.5537 -1.3322
  363MOL0     H50090   7.539   8.527   4.654  0.7089 -0.4163  1.2946
  363MOL0     H50091   8.582   8.572   4.723 -1.2302 -0.9061  1.0797
  363MOL0     H50092   8.814   8.619   4.728 -1.3818  0.4216 -0.8187
  363MOL0     H50093   8.820   8.802   4.755  1.4357  1.7149  3.5734
  363MOL0     H50094   8.890   8.685   4.868 -1.7492  0.1339  2.0456
  364MOL0     O50095   6.300   4.288   7.893  0.7746  0.7740  0.6002
  364MOL0     C50096   6.183   4.303   7.848  0.1705 -0.0041  0.4259
  364MOL0     O50097   6.162   4.351   7.730 -0.0771 -0.1752  0.5086
  364MOL0     C50098   6.270   4.398   7.648 -0.2703 -0.3096 -0.1605
  364MOL0     C50099   6.337   4.299   7.593 -0.0337  0.5127  0.4949
  364MOL0     C50100   6.449   4.320   7.509  0.3582  0.5200 -0.5003
  364MOL0     C50101   6.480   4.452   7.469  0.1484 -0.4682  0.2261
  364MOL0     O50102   6.577   4.477   7.373 -0.3351  0.0832  0.2108
  364MOL0     C50103   6.686   4.562   7.419 -0.7411  0.0391 -0.1816
  364MOL0     C50104   6.752   4.623   7.291 -0.1140 -0.6679  0.8734
  364MOL0     C50105   6.860   4.724   7.336  0.2205 -0.8229 -0.0210
  364MOL0     C50106   6.890   4.829   7.219 -0.5384 -0.3122 -0.7076
  364MOL0     C50107   7.001   4.925   7.265 -0.0262 -0.1492 -0.0442
  364MOL0     C50108   7.048   5.012   7.153 -0.4340 -0.0062  0.2876
  364MOL0     C50109   7.135   5.129   7.210 -0.1849 -1.0776 -0.5932
  364MOL0     C50110   7.256   5.073   7.282 -0.5405  0.0807 -0.4979
  364MOL0     N50111   7.332   4.973   7.199  0.8336 -0.3590 -0.6921
  364MOL0     C50112   7.396   5.004   7.080 -0.7309 -0.0414  0.0433
  364MOL0     C50113   7.445   4.885   7.041 -0.0384 -0.6338 -0.0018
  364MOL0     C50114   7.526   4.857   6.910 -0.4843 -0.4314 -0.1708
  364MOL0     C50115   7.659   4.783   6.931  0.5386 -0.6381 -0.1273
  364MOL0     C50116   7.760   4.859   7.012 -0.5207  0.7309 -0.0418
  364MOL0     C50117   7.884   4.769   7.023  0.0816 -0.8503 -0.0600
  364MOL0     O50118   7.952   4.760   6.898 -0.1320 -0.8430  0.1487
  364MOL0     C50119   8.051   4.668   6.888 -0.4322  0.0769 -0.6718
  364MOL0     C50120   8.187   4.709   6.878 -0.0070  0.4987  0.6370
  364MOL0     C50121   8.290   4.613   6.853 -0.2509 -0.0677  0.2518
  364MOL0     C50122   8.423   4.672   6.805  0.3701 -0.1310  0.5726
  364MOL0     C50123   8.265   4.473   6.869  0.1707  0.1609  0.6253
  364MOL0     C50124   8.368   4.375   6.852 -0.3031  1.1468 -0.4869
  364MOL0     O50125   8.467   4.386   6.940  0.0745 -0.4394  0.7861
  364MOL0     C50126   8.563   4.301   6.924 -0.6096 -0.6812 -0.1158
  364MOL0     C50127   8.563   4.180   6.987  0.0135 -0.4727  0.7225
  364MOL0     C50128   8.666   4.087   6.975  0.5240 -1.4776 -0.3270
  364MOL0     C50129   8.778   4.120   6.907  0.3612  0.3754 -0.0661
  364MOL0     O50130   8.887   4.033   6.917 -0.3938  0.0489  0.1698
  364MOL0     C50131   8.976   4.015   6.808  0.1916 -0.0443  0.1581
  364MOL0     C50132   9.081   3.918   6.858  0.4735  0.4592  0.1095
  364MOL0     C50133   9.179   3.890   6.747  0.9086 -0.0948  0.2702
  364MOL0     C50134   9.292   3.798   6.795 -0.5254 -0.0275  0.5247
  364MOL0     C50135   9.396   3.760   6.689 -0.6058  0.3708 -0.3199
  364MOL0     C50136   9.531   3.706   6.743 -0.5819 -0.5341  0.4847
  364MOL0     C50137   9.602   3.623   6.633 -0.1378  0.4016 -0.3707
  364MOL0     C50138   9.744   3.600   6.691 -0.8727 -0.3297  0.2382
  364MOL0    Cl50139   9.855   3.526   6.575  0.1941  0.1049 -0.5808
  364MOL0     C50140   8.791   4.251   6.857 -0.0449  0.5228  0.0995
  364MOL0     C50141   8.685   4.339   6.857  0.3855 -1.0404  0.5851
  364MOL0     O50142   8.348   4.280   6.775 -0.6278  0.0981 -0.4370
  364MOL0     C50143   8.131   4.435   6.898  0.9564 -0.2372  0.2845
  364MOL0     C50144   8.027   4.532   6.912  0.3120  0.1325  0.6078
  364MOL0     N50145   7.424   4.794   7.141 -0.4506  0.2371 -0.0881
  364MOL0     N50146   7.358   4.847   7.236  0.5083 -0.5512 -0.3631
  364MOL0     C50147   6.410   4.563   7.534  0.9021  0.5949  0.6774
  364MOL0     C50148   6.304   4.533   7.621  0.2874  0.2925 -0.7121
  364MOL0     C50149   6.061   4.284   7.944 -0.1290  0.3941  0.3861
  364MOL0     C50150   5.932   4.331   7.903 -0.5470 -0.0439  0.1700
  364MOL0     C50151   5.820   4.318   7.987 -0.9007  0.0408 -0.4121
  364MOL0     C50152   5.829   4.256   8.110 -0.7624 -0.1670 -1.3485
  364MOL0     O50153   5.725   4.238   8.200  0.6717  0.9281 -0.1901
  364MOL0     C50154   5.604   4.308   8.175 -0.1504 -0.2992 -0.2372
  364MOL0     C50155   5.491   4.302   8.287 -0.0311 -0.5874 -0.2520
  364MOL0     C50156   5.439   4.156   8.315 -0.4467  0.2165 -0.3937
  364MOL0     C50157   5.358   4.163   8.443  0.2025  0.0104 -0.2244
  364MOL0     C50158   5.328   4.029   8.492 -0.8427 -0.3685 -0.4044
  364MOL0     C50159   5.285   3.914   8.527 -1.1204 -0.6029  0.3985
  364MOL0     C50160   5.948   4.212   8.155 -0.0692 -1.2179  0.8913
  364MOL0     C50161   6.068   4.225   8.074 -0.1403 -0.9618 -0.8277
  364MOL0     C50162   6.197   4.176   8.133 -0.0326 -0.2514 -0.0222
  364MOL0     H50163   6.312   4.201   7.632  1.3372 -1.1496 -2.4372
  364MOL0     H50164   6.496   4.243   7.448 -1.6947  0.5779 -2.2871
  364MOL0     H50165   6.752   4.497   7.476 -2.6570 -2.0480 -0.2312
  364MOL0     H50166   6.653   4.645   7.481 -5.3166 -0.5673 -1.4486
  364MOL0     H50167   6.810   4.562   7.223  1.6077  1.1575  0.6038
  364MOL0     H50168   6.674   4.677   7.236 -0.2259 -1.5247  0.1692
  364MOL0     H50169   6.817   4.782   7.418 -2.9966 -0.4225 -1.8252
  364MOL0     H50170   6.948   4.666   7.364  0.5835 -1.0456 -1.5398
  364MOL0     H50171   6.916   4.771   7.130 -2.2448 -2.2368 -0.0336
  364MOL0     H50172   6.799   4.883   7.191 -0.2282  1.0646  0.7810
  364MOL0     H50173   7.078   4.854   7.299  0.0376  0.1874  0.5396
  364MOL0     H50174   6.968   4.975   7.356  0.8249 -1.1001  0.8216
  364MOL0     H50175   7.096   4.952   7.074 -1.9240  1.7653 -2.1035
  364MOL0     H50176   6.956   5.049   7.107 -2.0118 -3.2011  0.6414
  364MOL0     H50177   7.078   5.182   7.286  0.7643 -2.3795  1.0805
  364MOL0     H50178   7.164   5.202   7.133  1.4724 -0.4174  0.5967
  364MOL0     H50179   7.324   5.154   7.308  0.4331 -0.6586 -0.6939
  364MOL0     H50180   7.216   5.026   7.373 -0.9817  0.4110 -0.5183
  364MOL0     H50181   7.386   5.092   7.017  0.5187  0.8645  1.0618
  364MOL0     H50182   7.543   4.947   6.850  0.0801 -1.5092 -1.6959
  364MOL0     H50183   7.465   4.796   6.842  0.9748 -0.4294 -1.5321
  364MOL0     H50184   7.630   4.694   6.988  0.7991 -0.1344  0.8132
  364MOL0     H50185   7.707   4.745   6.841  1.9880  0.7232  0.0176
  364MOL0     H50186   7.783   4.957   6.967  0.9622  0.8186  0.8388
  364MOL0     H50187   7.729   4.879   7.115  0.7139 -1.2971  0.7793
  364MOL0     H50188   7.948   4.820   7.096  0.0921  1.2319 -1.4410
  364MOL0     H50189   7.864   4.667   7.058 -1.3293 -2.2807 -4.4617
  364MOL0     H50190   8.202   4.817   6.879  1.6791  0.2853  1.0787
  364MOL0     H50191   8.503   4.599   6.787  1.3025  0.8408  0.6581
  364MOL0     H50192   8.463   4.725   6.893  2.6700 -2.7324  1.2305
  364MOL0     H50193   8.417   4.743   6.722 -1.4190  1.2330  1.7851
  364MOL0     H50194   8.481   4.137   7.043  0.4900  0.0713  1.8760
  364MOL0     H50195   8.655   3.993   7.027 -2.2613 -0.7189  0.6256
  364MOL0     H50196   8.928   3.969   6.721  0.6234 -3.2769  1.4750
  364MOL0     H50197   9.023   4.106   6.769 -0.1061  0.2693  0.5328
  364MOL0     H50198   9.124   3.951   6.953  1.1588 -2.2535  0.8406
  364MOL0     H50199   9.027   3.829   6.893 -1.9287  2.2609  1.2903
  364MOL0     H50200   9.231   3.979   6.711  1.9236 -0.4412  0.8476
  364MOL0     H50201   9.118   3.846   6.667  0.6551  2.3846 -1.0078
  364MOL0     H50202   9.266   3.708   6.851  3.3090 -1.2069  0.7462
  364MOL0     H50203   9.352   3.855   6.868  3.3594  0.5943 -2.7859
  364MOL0     H50204   9.351   3.677   6.634  1.0789  0.4624 -1.9195
  364MOL0     H50205   9.421   3.848   6.630  3.4455  0.6797  1.4778
  364MOL0     H50206   9.505   3.641   6.828  0.8244 -5.2488 -2.2928
  364MOL0     H50207   9.594   3.793   6.762  0.7015 -0.4686 -3.3535
  364MOL0     H50208   9.598   3.673   6.536  1.7235  1.7614  0.2047
  364MOL0     H50209   9.540   3.534   6.616 -1.2178  1.0051  0.2809
  364MOL0     H50210   9.741   3.527   6.773  3.1654  1.0781  1.9129
  364MOL0     H50211   9.784   3.697   6.721  0.4070 -0.2796 -1.4987
  364MOL0     H50212   8.885   4.284   6.814 -1.4732  1.5721 -2.4564
  364MOL0     H50213   8.697   4.428   6.796  2.1257 -2.2181 -0.8657
  364MOL0     H50214   8.101   4.332   6.909  2.3395 -1.0325 -2.3727
  364MOL0     H50215   7.925   4.506   6.936  0.4444 -0.5851  0.4165
  364MOL0     H50216   6.432   4.666   7.509 -1.2830  0.7521 -0.8483
  364MOL0     H50217   6.247   4.614   7.666  0.6615  0.4230 -0.4584
  364MOL0     H50218   5.909   4.359   7.800 -1.8104  0.4159  0.5468
  364MOL0     H50219   5.727   4.350   7.941 -1.4544 -3.1690 -1.7970
  364MOL0     H50220   5.630   4.412   8.152 -0.6762  0.7262  3.2609
  364MOL0     H50221   5.554   4.264   8.088  0.0461  0.9370 -0.9946
  364MOL0     H50222   5.418   4.370   8.243  2.6299  1.4260 -1.9167
  364MOL0     H50223   5.532   4.344   8.379 -1.4761 -0.5619  0.4067
  364MOL0     H50224   5.383   4.121   8.228 -0.4912  0.1780 -0.3494
  364MOL0     H50225   5.528   4.094   8.329 -1.4692 -1.7590 -2.0772
  364MOL0     H50226   5.264   4.219   8.429 -0.1956 -0.6166 -0.1081
  364MOL0     H50227   5.418   4.222   8.512  2.4262 -1.7161 -0.5937
  364MOL0     H50228   5.246   3.820   8.558  1.2798 -2.2414 -1.2000
  364MOL0     H50229   5.964   4.156   8.246  0.6395 -0.4021  1.2810
  364MOL0     H50230   6.252   4.118   8.058  1.1292 -0.4160  0.9267
  364MOL0     H50231   6.263   4.256   8.168 -0.0030 -0.0120 -0.5994
  364MOL0     H50232   6.185   4.117   8.225 -3.8784  0.7337  0.2986
  365MOL0     O50233   8.376   9.918   9.936  0.9805  0.0245  0.6155
  365MOL0     C50234   8.318  10.012   9.889 -0.3693 -0.0046 -0.2658
  365MOL0     O50235   8.378  10.124   9.839 -0.4823  0.0448 -0.4749
  365MOL0     C50236   8.508  10.142   9.855  0.4193  0.0644  0.2204
  365MOL0     C50237   8.584  10.144   9.748 -0.0980  0.4050  0.5067
  365MOL0     C50238   8.720  10.178   9.757  0.7140  0.3087 -0.0661
  365MOL0     C50239   8.778  10.226   9.872 -0.7267 -0.8357 -0.5616
  365MOL0     O50240   8.912  10.266   9.863 -0.5530  0.5226  0.4065
  365MOL0     C50241   8.958  10.338   9.979  0.9235 -0.5288 -0.6822
  365MOL0     C50242   9.102  10.383   9.954 -0.1654  0.0175 -0.4473
  365MOL0     C50243   9.190  10.415  10.077 -0.2080 -0.1407  0.8399
  365MOL0     C50244   9.174  10.552  10.151  0.1018 -0.1109 -1.0334
  365MOL0     C50245   9.263  10.577  10.276 -0.5197  0.4163  0.6978
  365MOL0     C50246   9.406  10.548  10.245  0.5575  0.9443 -0.1069
  365MOL0     C50247   9.499  10.565  10.364  0.1164  0.4182 -0.3532
  365MOL0     C50248   9.649  10.576  10.318  0.2274 -0.7002 -0.4736
  365MOL0     N50249   9.740  10.599  10.428  0.5405 -0.3050 -0.1608
  365MOL0     C50250   9.750  10.709  10.506  0.0669 -0.0079  0.0955
  365MOL0     C50251   9.834  10.669  10.605 -0.8620 -0.6221  0.8651
  365MOL0     C50252   9.881  10.766  10.708 -0.1691  0.1804  0.2786
  365MOL0     C50253   9.991  10.863  10.652 -0.1508 -0.2264 -1.0461
  365MOL0     C50254  10.077  10.937  10.757 -0.7618  0.6752  0.7153
  365MOL0     C50255  10.148  10.838  10.852  0.4228  1.0790 -0.0808
  365MOL0     O50256  10.259  10.890  10.930  0.2783 -0.6790  0.0261
  365MOL0     C50257  10.301  10.826  11.040  0.2574  0.2141 -0.4067
  365MOL0     C50258  10.263  10.700  11.083 -0.4249 -0.1539  0.7300
  365MOL0     C50259  10.315  10.645  11.202 -0.5467  0.3260  0.5220
  365MOL0     C50260  10.279  10.501  11.235 -0.6098 -0.3269 -0.9485
  365MOL0     C50261  10.406  10.723  11.281  0.1760  0.2870 -0.7686
  365MOL0     C50262  10.477  10.674  11.407  0.5683  0.1186 -0.2075
  365MOL0     O50263  10.460  10.548  11.448  0.6391 -0.2385  0.3837
  365MOL0     C50264  10.550  10.487  11.534  0.1777  0.1474 -0.2538
  365MOL0     C50265  10.622  10.549  11.638 -0.4608 -0.3016 -0.0201
  365MOL0     C50266  10.708  10.468  11.719 -0.0816  0.2530  0.1197
  365MOL0     C50267  10.717  10.326  11.708 -0.3777  0.0361  0.5499
  365MOL0     O50268  10.781  10.266  11.810 -0.5044 -0.5762 -0.4213
  365MOL0     C50269  10.853  10.154  11.758  0.0687  0.3506  1.0169
  365MOL0     C50270  10.964  10.126  11.852 -0.1943 -0.0339  0.6426
  365MOL0     C50271  11.053  10.010  11.795 -0.3973  0.0891 -0.1681
  365MOL0     C50272  11.179   9.997  11.883  0.3200 -0.3174  0.0859
  365MOL0     C50273  11.274   9.894  11.812  1.0098 -1.5338 -0.0970
  365MOL0     C50274  11.364   9.818  11.902 -0.1962  0.0292 -1.0872
  365MOL0     C50275  11.446   9.724  11.813 -0.1964  0.2443  0.4000
  365MOL0     C50276  11.553   9.657  11.890  0.1378 -0.5000  0.1899
  365MOL0    Cl50277  11.676   9.600  11.775  0.4490  0.0308  0.4299
  365MOL0     C50278  10.636  10.259  11.608  0.8949 -0.0670  0.6745
  365MOL0     C50279  10.560  10.339  11.523 -0.2589  0.4598  0.1821
  365MOL0     O50280  10.553  10.757  11.453 -0.2652 -0.2414 -0.3581
  365MOL0     C50281  10.430  10.860  11.247  0.0993  1.0247  0.3257
  365MOL0     C50282  10.380  10.903  11.124 -0.2441 -0.2407 -0.2150
  365MOL0     N50283   9.866  10.539  10.597  0.0908 -0.4738  0.1612
  365MOL0     N50284   9.800  10.495  10.491 -0.2799  0.1530 -0.3235
  365MOL0     C50285   8.697  10.227   9.986 -0.2677 -0.1081 -0.2385
  365MOL0     C50286   8.559  10.192   9.971 -0.7410 -0.6374 -1.6925
  365MOL0     C50287   8.173  10.002   9.886  0.5966  0.0453 -0.2251
  365MOL0     C50288   8.111   9.943   9.777 -0.7637  0.6232  0.5225
  365MOL0     C50289   7.973   9.926   9.774  1.0036 -0.3718  0.7465
  365MOL0     C50290   7.892   9.969   9.885  0.0770 -0.0168 -0.1308
  365MOL0     O50291   7.752   9.956   9.881 -0.3928 -0.3609  0.0220
  365MOL0     C50292   7.709  10.055   9.790  0.4822 -0.2142 -0.3757
  365MOL0     C50293   7.563  10.080   9.830 -0.1850 -0.0307  0.0108
  365MOL0     C50294   7.492  10.144   9.714 -0.1800  0.2877  0.3642
  365MOL0     C50295   7.351  10.178   9.741 -0.3994 -0.5112 -0.3036
  365MOL0     C50296   7.285  10.226   9.623 -0.4525  0.0028 -0.2068
  365MOL0     C50297   7.222  10.278   9.533  0.5085 -0.0310  0.0947
  365MOL0     C50298   7.957  10.029   9.990  0.0549  0.3458 -0.1204
  365MOL0     C50299   8.090  10.062   9.985  0.0715 -0.2915  0.0712
  365MOL0     C50300   8.160  10.122  10.101  0.0876  0.1210  0.3794
  365MOL0     H50301   8.548  10.116   9.650 -3.4500  2.9376  0.8449
  365MOL0     H50302   8.788  10.180   9.672  1.2773  0.6892  0.3808
  365MOL0     H50303   8.953  10.278  10.070  2.7491 -0.7268 -0.6609
  365MOL0     H50304   8.894  10.426   9.993 -1.6180 -2.3758 -0.0131
  365MOL0     H50305   9.159  10.302   9.907 -0.9186 -2.3903  2.4979
  365MOL0     H50306   9.096  10.468   9.884  0.4303 -0.8710 -1.6202
  365MOL0     H50307   9.204  10.336  10.151  1.6312 -1.2673 -0.6275
  365MOL0     H50308   9.294  10.426  10.043  0.5446 -1.1755  2.6452
  365MOL0     H50309   9.191  10.632  10.078  0.2507  0.1814 -0.6829
  365MOL0     H50310   9.073  10.568  10.189  1.1494  1.7725  1.2033
  365MOL0     H50311   9.232  10.497  10.344 -1.4607 -1.8973 -2.2568
  365MOL0     H50312   9.249  10.676  10.322 -0.7467  0.3392  0.7962
  365MOL0     H50313   9.422  10.449  10.200  0.3667  0.9997 -0.2922
  365MOL0     H50314   9.429  10.632  10.179  0.1382 -0.2175 -1.7967
  365MOL0     H50315   9.490  10.477  10.429  1.5614 -1.8887 -3.0618
  365MOL0     H50316   9.466  10.643  10.434  0.4781 -0.6382  1.0436
  365MOL0     H50317   9.681  10.491  10.258 -0.3881 -1.6616  0.5247
  365MOL0     H50318   9.662  10.665  10.256 -0.7968  0.7403  1.2399
  365MOL0     H50319   9.706  10.808  10.500 -0.0592 -0.1485 -1.8585
  365MOL0     H50320   9.932  10.711  10.789 -0.1899 -2.4382 -1.3657
  365MOL0     H50321   9.798  10.827  10.746 -0.3852  1.0072 -1.4459
  365MOL0     H50322  10.062  10.809  10.589 -0.4827 -0.7533 -0.9710
  365MOL0     H50323   9.931  10.936  10.598 -2.4254  0.5720  2.2188
  365MOL0     H50324  10.160  10.990  10.708 -0.6444  0.6321  0.8656
  365MOL0     H50325  10.028  11.017  10.814  0.3271  1.3085  0.8019
  365MOL0     H50326  10.071  10.823  10.927  0.5712 -0.1889 -0.1558
  365MOL0     H50327  10.170  10.743  10.802 -1.0900  0.1859  0.8850
  365MOL0     H50328  10.200  10.647  11.012  1.4903  0.3287 -1.4364
  365MOL0     H50329  10.206  10.466  11.162 -1.9839  1.0727 -0.2969
  365MOL0     H50330  10.230  10.515  11.331  0.1183 -0.2041 -0.5871
  365MOL0     H50331  10.358  10.427  11.247 -2.7433 -2.4647  0.7398
  365MOL0     H50332  10.617  10.655  11.658 -1.8464 -0.1866 -0.8373
  365MOL0     H50333  10.772  10.508  11.797  1.0170 -1.9164  0.3913
  365MOL0     H50334  10.792  10.063  11.755 -0.7573  0.9185 -0.1650
  365MOL0     H50335  10.890  10.172  11.657  1.9595 -2.0970  1.1640
  365MOL0     H50336  11.014  10.222  11.864 -0.8638  0.4645 -0.4123
  365MOL0     H50337  10.925  10.093  11.949 -1.2762 -2.7873 -0.6130
  365MOL0     H50338  11.089  10.035  11.695  3.3953  0.8183  1.2175
  365MOL0     H50339  10.994   9.917  11.795  0.0359 -0.1886  0.5571
  365MOL0     H50340  11.162   9.969  11.987  1.4050 -1.3864 -0.0064
  365MOL0     H50341  11.223  10.095  11.901  0.1115 -0.1841 -0.1253
  365MOL0     H50342  11.200   9.823  11.773  0.3215 -0.8165 -0.1141
  365MOL0     H50343  11.331   9.948  11.737 -1.6753  0.8716 -0.5796
  365MOL0     H50344  11.312   9.772  11.988 -2.6956  1.9108 -1.4753
  365MOL0     H50345  11.442   9.880  11.947  2.0460 -3.2998  0.0063
  365MOL0     H50346  11.493   9.785  11.735 -1.0529  1.0222  0.4821
  365MOL0     H50347  11.385   9.654  11.756 -0.7480 -0.6350  2.0241
  365MOL0     H50348  11.516   9.581  11.961  0.6401 -1.1596 -0.2385
  365MOL0     H50349  11.605   9.742  11.936  2.9967  0.1765 -3.7257
  365MOL0     H50350  10.627  10.152  11.592  0.7165 -0.2949  2.1668
  365MOL0     H50351  10.510  10.274  11.452 -0.7328  0.1049  0.8242
  365MOL0     H50352  10.496  10.927  11.302  1.3469 -1.4201  2.0242
  365MOL0     H50353  10.410  11.006  11.110  0.3198 -0.1837  1.2851
  365MOL0     H50354   8.730  10.268  10.081 -4.9433  2.6255  0.5323
  365MOL0     H50355   8.495  10.182  10.058 -0.1131 -2.0349 -1.3499
  365MOL0     H50356   8.171   9.903   9.696 -1.1801 -0.8296  0.8990
  365MOL0     H50357   7.935   9.888   9.680  0.1668 -0.4110  1.0948
  365MOL0     H50358   7.773  10.144   9.788  1.0592 -0.6452 -1.7021
  365MOL0     H50359   7.714  10.017   9.688  0.1677  0.1255 -0.5232
  365MOL0     H50360   7.546  10.141   9.919 -2.4936 -0.7201  0.1172
  365MOL0     H50361   7.517   9.983   9.851 -0.1549  0.3460  2.0795
  365MOL0     H50362   7.542  10.237   9.685 -0.8768  0.2597 -1.0088
  365MOL0     H50363   7.503  10.078   9.627  3.6550  0.4793  0.5224
  365MOL0     H50364   7.347  10.254   9.819  1.3841  0.7063 -1.3203
  365MOL0     H50365   7.298  10.087   9.772 -1.9439  0.3901 -0.2280
  365MOL0     H50366   7.164  10.324   9.455 -1.8694 -1.0490  1.1773
  365MOL0     H50367   7.897  10.055  10.077 -1.8810 -1.0188 -0.9813
  365MOL0     H50368   8.220  10.205  10.062 -0.6796  0.5682  0.1139
  365MOL0     H50369   8.088  10.165  10.172 -1.3939 -1.7377  0.0697
  365MOL0     H50370   8.236  10.059  10.148  1.6082  2.3484  1.0759
  366MOL0     O50371   2.127  10.165   8.708 -0.5820 -0.4433  0.1367
  366MOL0     C50372   2.020  10.155   8.656  0.4177 -0.2717  0.2103
  366MOL0     O50373   1.989  10.046   8.577  0.1166 -0.3037 -0.1223
  366MOL0     C50374   2.093   9.967   8.529  0.6682  1.0582 -0.2254
  366MOL0     C50375   2.171  10.019   8.427 -0.0433 -0.5037  0.3042
  366MOL0     C50376   2.277   9.946   8.381  0.1151  0.3776  0.4060
  366MOL0     C50377   2.305   9.810   8.427 -0.3868  0.1202  0.3208
  366MOL0     O50378   2.414   9.741   8.379  0.6606  0.0737 -0.1436
  366MOL0     C50379   2.536   9.806   8.380  0.5942 -0.5723 -0.3033
  366MOL0     C50380   2.655   9.714   8.346 -0.2343 -0.7126  0.1814
  366MOL0     C50381   2.790   9.781   8.363  0.0904 -0.0297 -0.3514
  366MOL0     C50382   2.914   9.694   8.327 -0.1576 -0.6007 -0.3762
  366MOL0     C50383   2.904   9.644   8.185  0.1776 -0.3612 -0.5552
  366MOL0     C50384   2.967   9.509   8.163  0.2434 -0.4491  0.1065
  366MOL0     C50385   3.116   9.499   8.190  0.4091 -0.3889 -0.2600
  366MOL0     C50386   3.164   9.355   8.145 -0.5632  0.3406 -0.2922
  366MOL0     N50387   3.299   9.329   8.181  0.9350  0.1782  0.0548
  366MOL0     C50388   3.369   9.205   8.162  0.2204 -0.3564  0.0976
  366MOL0     C50389   3.492   9.220   8.224  0.9055  0.6282  0.1634
  366MOL0     C50390   3.599   9.115   8.237 -0.7956  0.0592 -0.3806
  366MOL0     C50391   3.732   9.195   8.221 -0.2877 -0.0159  0.7611
  366MOL0     C50392   3.843   9.107   8.242  0.2949 -0.5828  0.0691
  366MOL0     C50393   3.969   9.175   8.213 -0.6532  0.5630 -0.4713
  366MOL0     O50394   4.062   9.067   8.219  0.0830  0.1565  0.0617
  366MOL0     C50395   4.197   9.084   8.216 -0.1366 -0.5101 -0.0374
  366MOL0     C50396   4.287   8.979   8.179 -0.9308  0.0966 -0.2726
  366MOL0     C50397   4.427   9.003   8.173  0.6762  0.7829 -0.1778
  366MOL0     C50398   4.512   8.888   8.109 -0.7160  0.6150 -0.1135
  366MOL0     C50399   4.477   9.129   8.211 -0.0528  0.0529  0.3231
  366MOL0     C50400   4.625   9.160   8.206  0.4465 -0.3823 -0.9933
  366MOL0     O50401   4.715   9.067   8.178  0.0322 -0.7440 -0.3389
  366MOL0     C50402   4.841   9.115   8.139 -0.2883 -0.7231 -0.3218
  366MOL0     C50403   4.865   9.147   8.002 -0.1345 -0.3321 -0.1616
  366MOL0     C50404   4.983   9.216   7.957  0.2793  0.2111  0.5582
  366MOL0     C50405   5.076   9.265   8.059  0.8614  0.0478 -0.4190
  366MOL0     O50406   5.191   9.334   8.024 -0.1039  0.3172  0.3979
  366MOL0     C50407   5.292   9.351   8.125 -0.9239  0.3108 -0.4505
  366MOL0     C50408   5.412   9.434   8.072 -0.7850  0.4287 -0.0913
  366MOL0     C50409   5.500   9.374   7.968 -0.5094  0.6337 -1.0407
  366MOL0     C50410   5.604   9.468   7.907 -0.1742  0.0940  0.0835
  366MOL0     C50411   5.670   9.418   7.775 -0.7296  0.2433  0.1354
  366MOL0     C50412   5.804   9.490   7.756  0.0782  0.2237  0.1912
  366MOL0     C50413   5.853   9.466   7.615 -0.4987  0.0528  0.5089
  366MOL0     C50414   5.992   9.541   7.618 -0.3429  0.2240  0.1376
  366MOL0    Cl50415   6.121   9.485   7.509 -0.1060  0.5972 -0.5634
  366MOL0     C50416   5.052   9.229   8.201 -0.7866 -0.2399  0.8687
  366MOL0     C50417   4.931   9.166   8.235  0.3075  0.6492  0.3233
  366MOL0     O50418   4.657   9.273   8.239  0.4283 -0.1545 -0.1434
  366MOL0     C50419   4.384   9.223   8.257 -0.4211  0.3613 -0.0961
  366MOL0     C50420   4.253   9.199   8.265 -0.0019 -0.9054 -0.0180
  366MOL0     N50421   3.490   9.347   8.284 -0.0744  0.0263 -0.5493
  366MOL0     N50422   3.383   9.409   8.255 -0.1872  0.5875 -0.2934
  366MOL0     C50423   2.217   9.760   8.527  0.7194 -0.0214  0.4718
  366MOL0     C50424   2.110   9.832   8.568  0.0150  0.5507  0.1449
  366MOL0     C50425   1.911  10.250   8.682 -0.3584 -0.1493 -1.4816
  366MOL0     C50426   1.814  10.271   8.583 -0.0782 -0.7643  0.1031
  366MOL0     C50427   1.712  10.371   8.603 -0.9243 -0.5182  0.1780
  366MOL0     C50428   1.702  10.443   8.723  0.1022  0.2392 -0.5841
  366MOL0     O50429   1.609  10.540   8.747  0.4007 -0.5357 -0.1766
  366MOL0     C50430   1.501  10.549   8.647 -0.6272  0.3877  0.1566
  366MOL0     C50431   1.426  10.678   8.679 -0.7463 -0.5113 -0.3074
  366MOL0     C50432   1.308  10.702   8.585  0.1155 -0.2756  0.3605
  366MOL0     C50433   1.231  10.831   8.603  0.7556 -1.0291  0.1341
  366MOL0     C50434   1.198  10.861   8.743  0.3505 -0.2091 -0.7770
  366MOL0     C50435   1.179  10.868   8.865  0.1200  0.2096  0.0708
  366MOL0     C50436   1.797  10.423   8.820  0.3757  0.8319 -0.1616
  366MOL0     C50437   1.900  10.332   8.802  0.0639  0.0915  0.5814
  366MOL0     C50438   2.003  10.320   8.920 -0.2242 -0.6025  0.7903
  366MOL0     H50439   2.157  10.121   8.390  1.1097 -0.4048  0.1060
  366MOL0     H50440   2.337   9.989   8.300 -0.7766 -0.4744 -0.7477
  366MOL0     H50441   2.545   9.858   8.476  0.2859 -0.2749 -0.4353
  366MOL0     H50442   2.535   9.879   8.299  0.4561 -1.8967 -1.5548
  366MOL0     H50443   2.648   9.637   8.423  1.2984  0.5286  1.6374
  366MOL0     H50444   2.640   9.668   8.248  1.0117 -0.4584 -0.1377
  366MOL0     H50445   2.794   9.869   8.297  0.4332 -0.6176 -1.1304
  366MOL0     H50446   2.801   9.820   8.465 -0.6041  0.2753 -0.3889
  366MOL0     H50447   3.003   9.757   8.340 -0.5719  0.0474 -0.6159
  366MOL0     H50448   2.928   9.612   8.398  0.4755 -0.9003 -0.8449
  366MOL0     H50449   2.966   9.710   8.123  0.0073 -0.4202 -0.7895
  366MOL0     H50450   2.801   9.637   8.150 -0.5123  1.9470  0.7901
  366MOL0     H50451   2.914   9.429   8.216 -1.5130  0.4185 -0.2801
  366MOL0     H50452   2.945   9.504   8.056  0.2324  3.2269 -0.1799
  366MOL0     H50453   3.141   9.506   8.296  0.7369  0.4806 -0.3845
  366MOL0     H50454   3.168   9.576   8.131  1.6563 -2.1083 -1.5116
  366MOL0     H50455   3.109   9.265   8.170  0.1731 -0.3577 -1.1007
  366MOL0     H50456   3.162   9.363   8.036 -0.0480  1.5082 -0.2347
  366MOL0     H50457   3.340   9.110   8.119  0.3248 -1.6473  2.6751
  366MOL0     H50458   3.596   9.044   8.154  1.8918  1.4088 -1.7778
  366MOL0     H50459   3.601   9.075   8.338 -0.3053  0.2968 -0.2903
  366MOL0     H50460   3.747   9.238   8.121 -0.4825 -1.1620  0.2260
  366MOL0     H50461   3.738   9.271   8.299  2.5840 -0.0248  0.6763
  366MOL0     H50462   3.841   9.080   8.348 -2.0262  0.8967  0.4817
  366MOL0     H50463   3.835   9.020   8.176  0.4828 -0.4093 -0.1855
  366MOL0     H50464   3.984   9.218   8.114  0.1112 -1.2078 -1.1612
  366MOL0     H50465   3.997   9.242   8.295 -1.9541  0.9532 -0.3235
  366MOL0     H50466   4.241   8.887   8.144  0.0693 -1.1385  1.5157
  366MOL0     H50467   4.558   8.926   8.017 -2.1186  0.9558 -0.7024
  366MOL0     H50468   4.456   8.797   8.088  1.2103 -1.1305  1.8595
  366MOL0     H50469   4.593   8.848   8.170  0.8506  1.3306 -1.6281
  366MOL0     H50470   4.796   9.106   7.929  0.7599 -1.4194 -0.4194
  366MOL0     H50471   5.009   9.238   7.854  0.3568  0.8420  0.7058
  366MOL0     H50472   5.254   9.389   8.220 -0.1060 -1.8378  0.8057
  366MOL0     H50473   5.341   9.256   8.148 -0.8209  0.4247 -0.1928
  366MOL0     H50474   5.368   9.531   8.045 -3.0092 -0.4527  0.1034
  366MOL0     H50475   5.481   9.452   8.155 -1.0522  1.0500  0.0030
  366MOL0     H50476   5.432   9.339   7.889  0.6458  1.3358 -2.3791
  366MOL0     H50477   5.550   9.287   8.012  1.4412  1.8174 -0.8111
  366MOL0     H50478   5.682   9.490   7.980 -0.2007  2.4453 -0.5265
  366MOL0     H50479   5.561   9.565   7.882 -1.2402 -0.7401 -1.5027
  366MOL0     H50480   5.693   9.311   7.775  1.8149  0.6903  1.5735
  366MOL0     H50481   5.598   9.430   7.694 -0.9747 -0.2484  0.2818
  366MOL0     H50482   5.876   9.444   7.825 -0.5418 -0.6584  0.2679
  366MOL0     H50483   5.787   9.596   7.772  2.9227  0.7428  0.4095
  366MOL0     H50484   5.796   9.501   7.529 -0.6246 -1.7394 -0.1871
  366MOL0     H50485   5.864   9.359   7.594  1.7893  0.9521 -4.2775
  366MOL0     H50486   6.034   9.531   7.719 -1.3777 -0.5456  0.5079
  366MOL0     H50487   5.982   9.650   7.611  1.0414  0.3872  0.3605
  366MOL0     H50488   5.117   9.260   8.282 -0.0446  1.7086 -0.3954
  366MOL0     H50489   4.905   9.135   8.336 -1.3353  0.1433 -0.2234
  366MOL0     H50490   4.402   9.321   8.299  0.3154  0.2883 -0.2346
  366MOL0     H50491   4.189   9.280   8.300  1.2954 -0.5705  1.7358
  366MOL0     H50492   2.241   9.664   8.572 -3.1026  0.0256  3.0961
  366MOL0     H50493   2.053   9.805   8.657  1.6684  0.1515  1.1453
  366MOL0     H50494   1.822  10.214   8.491  3.3074  1.7710 -1.3504
  366MOL0     H50495   1.641  10.374   8.521 -0.6476 -1.1700 -0.0903
  366MOL0     H50496   1.554  10.555   8.551  0.8647 -2.6152  0.6919
  366MOL0     H50497   1.439  10.460   8.658 -1.1550  1.0223  3.1921
  366MOL0     H50498   1.497  10.760   8.666  0.0102 -1.0895  0.1214
  366MOL0     H50499   1.393  10.676   8.783  1.1128  0.5808  0.3402
  366MOL0     H50500   1.338  10.713   8.480 -2.2204 -1.2483 -0.4773
  366MOL0     H50501   1.239  10.618   8.578  0.0508 -0.3387  1.5757
  366MOL0     H50502   1.139  10.836   8.544  0.7409  0.3578  0.2494
  366MOL0     H50503   1.298  10.912   8.572  0.1543 -0.8573 -0.7610
  366MOL0     H50504   1.163  10.876   8.971 -2.4327  2.9388 -0.3773
  366MOL0     H50505   1.777  10.482   8.910  0.2096  1.3004 -0.5009
  366MOL0     H50506   2.019  10.213   8.932 -4.1252 -1.6220 -1.3544
  366MOL0     H50507   2.101  10.367   8.907  0.6804 -1.7073  3.0846
  366MOL0     H50508   1.966  10.372   9.009 -1.2789 -1.8079  1.0783
  367MOL0     O50509   6.359   4.129   9.532  0.6808 -0.5314  0.3482
  367MOL0     C50510   6.295   4.226   9.567 -0.8018 -0.8160  0.4070
  367MOL0     O50511   6.332   4.352   9.539  0.5014  0.0122  0.1803
  367MOL0     C50512   6.421   4.374   9.443 -0.1625  0.0626 -0.3314
  367MOL0     C50513   6.544   4.411   9.481  0.0544  0.1399  0.3447
  367MOL0     C50514   6.638   4.465   9.398 -0.2380  0.8142  0.5941
  367MOL0     C50515   6.605   4.483   9.267 -0.3995 -0.2904  0.1615
  367MOL0     O50516   6.691   4.552   9.182 -0.1488  0.3278  0.2282
  367MOL0     C50517   6.834   4.564   9.208 -0.3727 -0.1784 -0.4385
  367MOL0     C50518   6.897   4.670   9.116 -0.7442  0.7071  0.2961
  367MOL0     C50519   7.053   4.659   9.106  0.1128  0.4785  0.6429
  367MOL0     C50520   7.105   4.547   9.004  0.5861 -0.1362  0.2453
  367MOL0     C50521   7.250   4.562   8.966  0.3092  0.3502 -0.1860
  367MOL0     C50522   7.349   4.518   9.078 -0.4460  0.2440  0.9209
  367MOL0     C50523   7.486   4.486   9.012 -0.5091 -0.0104  0.0580
  367MOL0     C50524   7.552   4.594   8.922  0.3429  0.0346  1.2334
  367MOL0     N50525   7.637   4.543   8.818 -0.0721 -0.1317 -0.0244
  367MOL0     C50526   7.613   4.445   8.728  0.1722  0.4935 -0.2231
  367MOL0     C50527   7.724   4.431   8.654  0.4113  0.8173 -0.6163
  367MOL0     C50528   7.737   4.361   8.528  0.1292 -0.4839  0.3863
  367MOL0     C50529   7.833   4.240   8.524 -1.0472 -0.6966 -0.8352
  367MOL0     C50530   7.822   4.147   8.404 -0.0443 -0.3621  0.6031
  367MOL0     C50531   7.815   4.216   8.265 -0.1607 -0.0390 -0.7459
  367MOL0     O50532   7.798   4.120   8.156  0.0256  0.0552 -0.3557
  367MOL0     C50533   7.670   4.079   8.113 -0.8317 -0.7396  0.6016
  367MOL0     C50534   7.563   4.167   8.108  0.5153 -0.3996  0.2107
  367MOL0     C50535   7.439   4.150   8.033 -1.0769  0.5179 -1.0687
  367MOL0     C50536   7.332   4.254   8.056  0.4391  0.2784  0.1082
  367MOL0     C50537   7.443   4.035   7.945  0.6817  0.9521  0.1838
  367MOL0     C50538   7.334   4.020   7.846  0.0886  0.2802 -0.2012
  367MOL0     O50539   7.316   3.889   7.793 -0.9460 -0.3804  0.1554
  367MOL0     C50540   7.205   3.879   7.720 -0.1395  0.8720 -0.0372
  367MOL0     C50541   7.198   3.883   7.581 -0.2830  0.1243  0.4837
  367MOL0     C50542   7.075   3.867   7.515  0.0731 -0.5596  0.1650
  367MOL0     C50543   6.958   3.822   7.579  0.6845 -0.0726  0.6956
  367MOL0     O50544   6.843   3.807   7.506  0.9032  0.2566 -0.1235
  367MOL0     C50545   6.719   3.835   7.576  0.4528  0.2852 -0.1378
  367MOL0     C50546   6.614   3.866   7.475  0.4080  0.0955 -0.5756
  367MOL0     C50547   6.602   3.767   7.359 -0.2384  0.6998 -0.2780
  367MOL0     C50548   6.520   3.640   7.408  0.5300  0.2343 -0.0605
  367MOL0     C50549   6.367   3.671   7.433 -0.4386 -0.2570 -0.6519
  367MOL0     C50550   6.281   3.541   7.453  0.2524 -0.9684  0.5691
  367MOL0     C50551   6.142   3.577   7.504  0.3317 -0.2296  0.6060
  367MOL0     C50552   6.039   3.584   7.395 -0.3245 -0.1249  0.3724
  367MOL0    Cl50553   5.896   3.614   7.468  0.2659  0.1782 -0.1469
  367MOL0     C50554   6.967   3.817   7.721 -0.6234 -0.1625  0.5614
  367MOL0     C50555   7.086   3.852   7.793 -0.7254 -0.2795  0.7827
  367MOL0     O50556   7.261   4.113   7.810  0.2776 -0.0881  0.1779
  367MOL0     C50557   7.543   3.937   7.958  0.6848  0.5409  0.3371
  367MOL0     C50558   7.648   3.966   8.046  0.0772  0.4188  0.5937
  367MOL0     N50559   7.816   4.531   8.698  0.0894  0.3262  0.5374
  367MOL0     N50560   7.764   4.592   8.793  0.1172 -0.0580 -0.3328
  367MOL0     C50561   6.481   4.444   9.217 -0.1460  0.0772 -0.0610
  367MOL0     C50562   6.387   4.390   9.307  0.1536  0.2811  0.0747
  367MOL0     C50563   6.178   4.205   9.649  0.6703 -0.0378  0.5461
  367MOL0     C50564   6.093   4.321   9.667 -1.3446 -0.0530  0.3345
  367MOL0     C50565   5.979   4.313   9.739 -0.0235 -0.4765 -0.7372
  367MOL0     C50566   5.934   4.196   9.806  0.5491  0.7885  0.1744
  367MOL0     O50567   5.811   4.175   9.872 -0.2951  0.4380 -0.0653
  367MOL0     C50568   5.718   4.274   9.862 -0.0863 -0.6747  0.4786
  367MOL0     C50569   5.597   4.239   9.944 -1.0342 -0.9376  0.9648
  367MOL0     C50570   5.491   4.340   9.914  0.3460 -0.1894  0.1007
  367MOL0     C50571   5.381   4.335  10.036 -0.0028  0.7547 -0.0924
  367MOL0     C50572   5.292   4.219   9.988 -0.6223 -0.7152 -0.2245
  367MOL0     C50573   5.222   4.126   9.956 -0.1406  1.0123 -0.0063
  367MOL0     C50574   6.017   4.085   9.789  0.3799  0.0520  0.3572
  367MOL0     C50575   6.134   4.087   9.714 -0.1615  0.2924 -0.6530
  367MOL0     C50576   6.204   3.950   9.709  0.0813 -0.3822 -0.1477
  367MOL0     H50577   6.561   4.383   9.584  3.3244  0.0150 -0.1308
  367MOL0     H50578   6.741   4.476   9.432  0.2835 -2.1669  0.2390
  367MOL0     H50579   6.878   4.464   9.207  0.6997  0.2360  1.2050
  367MOL0     H50580   6.843   4.608   9.308 -2.3889  4.6340 -2.0488
  367MOL0     H50581   6.844   4.669   9.021  1.5140 -1.0058 -1.0476
  367MOL0     H50582   6.883   4.773   9.152  0.9453  0.5757  1.4518
  367MOL0     H50583   7.093   4.754   9.068  0.2621  0.6656  1.2578
  367MOL0     H50584   7.093   4.656   9.208  0.8319 -0.4846  0.3405
  367MOL0     H50585   7.080   4.450   9.049  0.0132 -0.2082 -0.2154
  367MOL0     H50586   7.042   4.560   8.915  0.6619 -1.2804  0.0048
  367MOL0     H50587   7.262   4.669   8.948  0.8525  0.1175 -1.3216
  367MOL0     H50588   7.261   4.501   8.876 -1.1168  2.1818 -1.6757
  367MOL0     H50589   7.354   4.599   9.151 -0.6048  1.1197 -0.0024
  367MOL0     H50590   7.317   4.432   9.136 -0.4114  0.1194  0.7588
  367MOL0     H50591   7.473   4.403   8.942  0.6187  0.1677 -0.3845
  367MOL0     H50592   7.558   4.447   9.084 -0.8091 -0.4572  0.1252
  367MOL0     H50593   7.476   4.656   8.874  1.6538  0.1486 -0.8324
  367MOL0     H50594   7.614   4.667   8.975  1.3045  1.4394 -1.6381
  367MOL0     H50595   7.519   4.394   8.709  0.6097 -0.7736  0.8121
  367MOL0     H50596   7.773   4.431   8.451 -0.8310  0.3537  0.6812
  367MOL0     H50597   7.634   4.334   8.504 -1.1863  2.8175  1.7862
  367MOL0     H50598   7.939   4.265   8.532 -1.1283 -0.2439 -1.1109
  367MOL0     H50599   7.808   4.182   8.613  1.0589 -0.9547 -0.3470
  367MOL0     H50600   7.908   4.079   8.406  0.2585 -0.1422 -1.6549
  367MOL0     H50601   7.736   4.082   8.417 -0.1570 -0.4095 -0.3131
  367MOL0     H50602   7.739   4.295   8.267 -0.6653 -0.5346  0.7098
  367MOL0     H50603   7.915   4.259   8.255  0.4324 -1.3922 -0.9082
  367MOL0     H50604   7.560   4.266   8.152 -0.2387  0.9957 -2.7353
  367MOL0     H50605   7.294   4.304   7.966  0.1522 -1.4742 -0.8044
  367MOL0     H50606   7.366   4.321   8.135 -1.8791  0.6659  0.8737
  367MOL0     H50607   7.243   4.207   8.100 -0.2496  0.7305 -0.7543
  367MOL0     H50608   7.284   3.897   7.516 -1.5888 -0.3233 -1.4154
  367MOL0     H50609   7.077   3.871   7.407  2.1811  2.2427  0.2034
  367MOL0     H50610   6.679   3.759   7.643 -1.8725 -0.2040 -1.9523
  367MOL0     H50611   6.727   3.925   7.637 -2.4162 -0.3493  1.3514
  367MOL0     H50612   6.514   3.891   7.511  1.4474  3.4824  0.3615
  367MOL0     H50613   6.635   3.964   7.429 -2.5639  1.0911 -0.0524
  367MOL0     H50614   6.700   3.732   7.325 -0.5855 -2.2810  1.4623
  367MOL0     H50615   6.560   3.822   7.275 -0.9082  0.4095 -0.1450
  367MOL0     H50616   6.562   3.603   7.502  2.0754  0.8382 -0.4815
  367MOL0     H50617   6.520   3.555   7.339 -0.2929 -1.2289  1.6600
  367MOL0     H50618   6.349   3.732   7.522 -1.4351 -0.2025 -0.8798
  367MOL0     H50619   6.322   3.733   7.356 -2.5236 -0.2114  0.5193
  367MOL0     H50620   6.339   3.479   7.522  2.8270  2.3095  1.6185
  367MOL0     H50621   6.272   3.490   7.356 -2.5719 -0.2036  0.3381
  367MOL0     H50622   6.146   3.673   7.556 -2.1213  0.2829 -0.0498
  367MOL0     H50623   6.102   3.511   7.581  0.1476 -0.9829 -0.1184
  367MOL0     H50624   6.026   3.490   7.341  4.3983 -0.6220 -0.3353
  367MOL0     H50625   6.062   3.661   7.320 -3.0539  3.4022  2.8167
  367MOL0     H50626   6.881   3.777   7.775 -1.7379 -0.8323 -1.5863
  367MOL0     H50627   7.085   3.855   7.901 -4.1392  1.9607  0.8441
  367MOL0     H50628   7.542   3.844   7.903  0.4086 -0.5407  2.1206
  367MOL0     H50629   7.726   3.892   8.054 -1.4373 -1.4164 -0.6844
  367MOL0     H50630   6.462   4.451   9.110  0.4547 -1.6184 -0.3117
  367MOL0     H50631   6.289   4.369   9.265 -0.6043  1.4104  1.1969
  367MOL0     H50632   6.110   4.417   9.620  0.8998 -1.0852 -1.0795
  367MOL0     H50633   5.926   4.408   9.746  0.0178 -0.5791  2.9756
  367MOL0     H50634   5.756   4.371   9.897 -0.1963 -0.0875 -0.9413
  367MOL0     H50635   5.696   4.287   9.755  2.5939  1.5913  0.0543
  367MOL0     H50636   5.621   4.240  10.051  0.4933  1.4933  0.6891
  367MOL0     H50637   5.558   4.143   9.910 -1.4030 -0.1158 -1.1246
  367MOL0     H50638   5.535   4.440   9.905 -0.1325  0.0113 -0.0597
  367MOL0     H50639   5.452   4.308   9.816  3.2268 -0.0973 -1.1826
  367MOL0     H50640   5.323   4.428  10.034 -0.0866  0.6953 -0.6135
  367MOL0     H50641   5.417   4.314  10.137  0.0175 -0.5176 -0.3564
  367MOL0     H50642   5.152   4.053   9.924 -0.8136  1.1661  1.0604
  367MOL0     H50643   5.981   3.993   9.834 -0.1918 -0.2915 -0.7469
  367MOL0     H50644   6.230   3.928   9.605  0.4057 -2.1121  0.2728
  367MOL0     H50645   6.284   3.953   9.784 -0.8384 -2.1434  0.9717
  367MOL0     H50646   6.137   3.873   9.748  1.7938 -0.7624  2.2568
  368MOL0     O50647   0.246   3.855  10.571  0.3192 -0.0855 -0.0425
  368MOL0     C50648   0.184   3.768  10.510 -0.2611 -0.3226 -1.0100
  368MOL0     O50649   0.245   3.666  10.436 -0.1636  0.1563  0.3154
  368MOL0     C50650   0.366   3.620  10.474 -0.4351 -0.3258  0.6311
  368MOL0     C50651   0.388   3.510  10.559 -0.2913 -0.0357  0.0649
  368MOL0     C50652   0.521   3.478  10.600 -0.4081 -0.1170  0.8427
  368MOL0     C50653   0.630   3.547  10.554 -0.0879  0.2083 -0.3217
  368MOL0     O50654   0.759   3.521  10.586 -0.3620 -1.2300 -0.0524
  368MOL0     C50655   0.786   3.428  10.688 -0.4671  0.4420 -1.2627
  368MOL0     C50656   0.937   3.405  10.710 -0.7474 -0.5739 -0.2548
  368MOL0     C50657   1.002   3.332  10.589  0.4475  0.1919 -0.7696
  368MOL0     C50658   1.130   3.275  10.635  0.0302 -0.1448  0.4475
  368MOL0     C50659   1.218   3.270  10.514 -0.0584 -0.1291  0.3047
  368MOL0     C50660   1.349   3.185  10.538 -0.5647  0.6879 -1.2181
  368MOL0     C50661   1.430   3.171  10.411 -0.6375 -1.0160 -0.0612
  368MOL0     C50662   1.543   3.072  10.425 -0.3146 -0.1473  0.0672
  368MOL0     N50663   1.635   3.113  10.532  0.0674  0.3400 -0.7294
  368MOL0     C50664   1.642   3.054  10.649 -0.9163  0.5600 -0.5448
  368MOL0     C50665   1.727   3.126  10.720  0.0625 -0.3819  0.1653
  368MOL0     C50666   1.752   3.100  10.874  0.0634 -0.3867  0.3288
  368MOL0     C50667   1.910   3.082  10.888 -0.3223 -0.4007  0.7755
  368MOL0     C50668   1.968   3.020  11.018  0.2044  0.3592  0.2543
  368MOL0     C50669   2.112   3.001  11.024 -0.4413 -0.5134  0.3838
  368MOL0     O50670   2.148   2.937  11.143 -0.4881  0.0027  0.7852
  368MOL0     C50671   2.279   2.940  11.182  0.0911  0.9361 -0.6091
  368MOL0     C50672   2.386   2.973  11.102 -1.1124  0.0422  0.1465
  368MOL0     C50673   2.519   2.969  11.146  0.5590  0.4759 -0.0005
  368MOL0     C50674   2.626   3.028  11.058  0.2011  0.5653  0.1655
  368MOL0     C50675   2.547   2.917  11.269  0.3179 -0.1650 -0.1315
  368MOL0     C50676   2.686   2.884  11.320  0.4740  0.0653 -0.2461
  368MOL0     O50677   2.770   2.824  11.235 -0.4214 -0.0893  0.4570
  368MOL0     C50678   2.903   2.819  11.261 -0.6081  0.8713 -0.2969
  368MOL0     C50679   2.954   2.708  11.330 -0.4498  0.1004  0.1269
  368MOL0     C50680   3.094   2.706  11.371 -0.3874 -0.1185  0.5701
  368MOL0     C50681   3.182   2.815  11.334  0.7183 -0.0718 -1.0327
  368MOL0     O50682   3.316   2.814  11.373 -0.0231 -0.0343 -0.0207
  368MOL0     C50683   3.408   2.883  11.284  0.1681  0.2604  0.1764
  368MOL0     C50684   3.556   2.863  11.336  0.9239 -0.5347  0.7774
  368MOL0     C50685   3.647   2.925  11.222  0.2101  0.2106  0.1635
  368MOL0     C50686   3.797   2.943  11.263 -0.1601  0.0589 -0.5932
  368MOL0     C50687   3.849   2.804  11.304 -0.2689  0.1223 -0.4550
  368MOL0     C50688   4.000   2.818  11.343  0.2990  0.3304  0.3149
  368MOL0     C50689   4.054   2.694  11.409 -0.2885 -0.2275  0.9116
  368MOL0     C50690   4.199   2.695  11.430  0.3168  1.0835  0.0160
  368MOL0    Cl50691   4.282   2.722  11.282  0.2031  0.1860  0.1071
  368MOL0     C50692   3.137   2.924  11.259  0.3553  0.5488 -0.5760
  368MOL0     C50693   2.992   2.925  11.227  0.4111 -0.1474 -0.5406
  368MOL0     O50694   2.716   2.901  11.441 -0.6884 -0.1546  0.9963
  368MOL0     C50695   2.434   2.897  11.348 -0.5311 -0.5234 -0.3020
  368MOL0     C50696   2.303   2.912  11.309  0.0860 -0.5117 -0.3439
  368MOL0     N50697   1.787   3.218  10.637  0.4426 -0.0821  0.5474
  368MOL0     N50698   1.738   3.203  10.518  0.2636 -0.0698  0.4630
  368MOL0     C50699   0.610   3.651  10.458 -0.3633  0.2950 -0.5534
  368MOL0     C50700   0.480   3.683  10.421  0.1323 -0.3672  0.4437
  368MOL0     C50701   0.039   3.780  10.492  0.8390  0.6258  0.4580
  368MOL0     C50702  -0.017   3.911  10.463  0.8377  0.2267  0.3003
  368MOL0     C50703  -0.157   3.930  10.432  0.3042  0.2112  0.5897
  368MOL0     C50704  -0.240   3.819  10.450  0.2776 -0.5940  0.2297
  368MOL0     O50705  -0.379   3.831  10.448  0.0073  0.6641  0.2082
  368MOL0     C50706  -0.439   3.916  10.345 -0.1170  0.1537  0.1585
  368MOL0     C50707  -0.589   3.911  10.357 -0.5242  0.1184  0.4655
  368MOL0     C50708  -0.653   3.945  10.227  0.3964 -0.5173  0.3504
  368MOL0     C50709  -0.791   3.892  10.226  0.0892 -0.1198  0.1647
  368MOL0     C50710  -0.887   3.926  10.334  0.6478 -1.1141  0.2687
  368MOL0     C50711  -0.955   3.938  10.438 -0.0682 -0.2703  0.6646
  368MOL0     C50712  -0.183   3.694  10.477  0.0162 -0.0284 -0.1138
  368MOL0     C50713  -0.049   3.671  10.489  0.9110  0.7835 -0.5295
  368MOL0     C50714  -0.018   3.539  10.534 -0.1783  0.1749 -0.5442
  368MOL0     H50715   0.301   3.452  10.591 -1.3402  1.4415  0.0149
  368MOL0     H50716   0.541   3.405  10.677 -1.8663 -1.5074 -0.0292
  368MOL0     H50717   0.747   3.328  10.667  0.7461 -0.8536  1.9005
  368MOL0     H50718   0.740   3.464  10.781  2.2168 -0.2938  0.4804
  368MOL0     H50719   0.982   3.504  10.724 -4.4317  1.4234 -1.2957
  368MOL0     H50720   0.938   3.349  10.803 -1.9989  0.1630  0.2263
  368MOL0     H50721   0.932   3.257  10.550 -1.3305  1.4031 -0.0590
  368MOL0     H50722   1.016   3.400  10.504  2.0726  0.0128 -0.6809
  368MOL0     H50723   1.180   3.330  10.715  0.1806  0.6374 -0.1777
  368MOL0     H50724   1.103   3.176  10.672  0.0046 -0.0420  0.7053
  368MOL0     H50725   1.253   3.371  10.489 -3.0745  1.2837  1.2269
  368MOL0     H50726   1.159   3.218  10.439 -0.6061 -2.0386  1.9635
  368MOL0     H50727   1.410   3.226  10.619 -0.7615 -0.7285 -0.3076
  368MOL0     H50728   1.316   3.083  10.560 -0.0758  0.0245 -3.3360
  368MOL0     H50729   1.477   3.269  10.398 -0.2391 -0.8219  2.3208
  368MOL0     H50730   1.368   3.143  10.325 -0.9261 -2.8378  0.7048
  368MOL0     H50731   1.502   2.976  10.456  1.6826 -1.2538 -0.5138
  368MOL0     H50732   1.605   3.061  10.335  3.7398  0.4417  2.5085
  368MOL0     H50733   1.588   2.967  10.683  1.5223 -0.6320  0.5590
  368MOL0     H50734   1.699   3.008  10.902 -2.3599  0.4752 -1.0773
  368MOL0     H50735   1.708   3.182  10.931  0.8666 -0.1261  0.5839
  368MOL0     H50736   1.946   3.025  10.802  0.5846 -0.2449  1.0363
  368MOL0     H50737   1.954   3.182  10.884 -0.6973 -0.2231  1.0409
  368MOL0     H50738   1.954   3.084  11.105 -1.9113  0.7509 -0.3189
  368MOL0     H50739   1.919   2.923  11.031  0.6667  0.3041  1.8239
  368MOL0     H50740   2.141   2.952  10.931 -2.0027 -0.2370 -0.2686
  368MOL0     H50741   2.159   3.100  11.027 -1.3123 -0.0266 -1.2611
  368MOL0     H50742   2.368   2.999  10.998 -0.1117  0.7794  0.1436
  368MOL0     H50743   2.591   3.082  10.969 -1.4044 -3.0979 -1.6495
  368MOL0     H50744   2.701   2.961  11.015 -0.3393  1.4820 -2.3924
  368MOL0     H50745   2.672   3.097  11.129 -3.0822  1.2331  1.8634
  368MOL0     H50746   2.886   2.631  11.366  0.2352 -0.6707 -0.1849
  368MOL0     H50747   3.122   2.615  11.424  0.8837  0.2655  0.5781
  368MOL0     H50748   3.392   2.853  11.180 -1.5370  0.5170  0.3426
  368MOL0     H50749   3.390   2.991  11.285 -0.9113  0.1205 -1.2289
  368MOL0     H50750   3.554   2.933  11.421 -0.3593  0.6289 -0.1708
  368MOL0     H50751   3.569   2.759  11.366 -2.9025 -1.4214 -0.1778
  368MOL0     H50752   3.619   3.028  11.198 -0.7891  0.0268  0.4906
  368MOL0     H50753   3.633   2.868  11.130  0.2903  1.8738 -0.9323
  368MOL0     H50754   3.809   3.016  11.343 -0.2998 -0.1762 -0.3537
  368MOL0     H50755   3.849   2.986  11.177  3.2237 -0.8021  0.8545
  368MOL0     H50756   3.799   2.761  11.391  2.2336 -1.2733  0.3645
  368MOL0     H50757   3.833   2.738  11.218 -0.8967  0.0567 -0.2941
  368MOL0     H50758   4.016   2.904  11.408 -1.7660  0.1745  1.0991
  368MOL0     H50759   4.058   2.829  11.251  0.5503 -2.4041  0.0510
  368MOL0     H50760   4.035   2.612  11.339  1.6979  0.4747 -0.5387
  368MOL0     H50761   3.989   2.682  11.496 -2.4270 -0.1200 -0.5838
  368MOL0     H50762   4.242   2.606  11.477  1.3652  1.6533  0.1673
  368MOL0     H50763   4.226   2.785  11.487 -1.8415  0.7015  1.7722
  368MOL0     H50764   3.191   3.013  11.231  1.1391  0.3529  0.2580
  368MOL0     H50765   2.953   3.011  11.174 -1.5803 -2.1852 -2.6076
  368MOL0     H50766   2.459   2.879  11.453  5.7803 -1.5556 -1.5764
  368MOL0     H50767   2.224   2.887  11.379  1.0975  0.9534  1.3869
  368MOL0     H50768   0.705   3.693  10.427  0.4191 -1.3121 -0.4930
  368MOL0     H50769   0.466   3.775  10.364 -3.9718  0.3332  2.2146
  368MOL0     H50770   0.049   3.997  10.464 -0.4179  1.3432 -2.5577
  368MOL0     H50771  -0.183   4.035  10.423  2.0243  0.6951  0.9549
  368MOL0     H50772  -0.418   4.022  10.358  0.7710  0.0856 -0.6425
  368MOL0     H50773  -0.397   3.890  10.248  0.9819 -1.7742  1.0758
  368MOL0     H50774  -0.619   3.983  10.434  4.7570  2.1637  1.0197
  368MOL0     H50775  -0.612   3.806  10.381  3.5023 -1.3958 -1.5399
  368MOL0     H50776  -0.656   4.050  10.197 -2.6250 -0.9492 -1.2668
  368MOL0     H50777  -0.589   3.901  10.150  0.2172  1.6221 -1.1118
  368MOL0     H50778  -0.780   3.784  10.242  2.2145 -0.1148 -0.9168
  368MOL0     H50779  -0.843   3.908  10.131 -0.9254 -1.0341  0.5431
  368MOL0     H50780  -1.018   3.929  10.524 -0.8239 -0.6502  0.0789
  368MOL0     H50781  -0.254   3.615  10.501 -0.8936  0.1469 -2.0074
  368MOL0     H50782  -0.105   3.481  10.570  2.0343 -2.5770  0.7974
  368MOL0     H50783   0.032   3.470  10.466  1.0038 -0.5493  0.9899
  368MOL0     H50784   0.040   3.546  10.627 -0.9102 -3.5736  0.3616
  369MOL0     O50785   7.525   7.645   7.551  0.1906  0.4579 -0.4506
  369MOL0     C50786   7.465   7.540   7.513  0.0141 -0.1612 -0.1980
  369MOL0     O50787   7.488   7.409   7.545  0.1426 -0.6174 -0.5565
  369MOL0     C50788   7.607   7.375   7.610 -0.4017  0.9849 -0.7111
  369MOL0     C50789   7.601   7.247   7.670  0.6597  0.4181 -0.2329
  369MOL0     C50790   7.719   7.197   7.725 -0.4229  0.6201  0.4507
  369MOL0     C50791   7.845   7.251   7.698 -0.5019  0.8306 -0.1818
  369MOL0     O50792   7.946   7.176   7.747 -0.1182  0.3920  0.1203
  369MOL0     C50793   8.075   7.224   7.735  0.6572  0.0129 -0.1559
  369MOL0     C50794   8.153   7.165   7.619 -1.2170  0.0029  0.2170
  369MOL0     C50795   8.271   7.258   7.582  0.6036  0.0495 -0.0937
  369MOL0     C50796   8.317   7.227   7.438  0.2249 -1.4684 -0.6116
  369MOL0     C50797   8.382   7.098   7.425 -0.5420  0.1537  0.4570
  369MOL0     C50798   8.409   7.078   7.275  0.2732  0.2401 -0.1207
  369MOL0     C50799   8.472   7.180   7.186  0.3698 -0.6969 -1.0317
  369MOL0     C50800   8.523   7.112   7.060 -0.0811  0.5115  0.2371
  369MOL0     N50801   8.669   7.087   7.086  0.3943  0.3842 -0.3869
  369MOL0     C50802   8.729   6.958   7.100 -0.6220  1.0846  0.3576
  369MOL0     C50803   8.860   6.986   7.111  0.4605 -0.5603 -0.4247
  369MOL0     C50804   8.960   6.879   7.103 -0.3451 -0.4448 -0.4125
  369MOL0     C50805   9.050   6.883   7.223 -0.7337 -0.1111  0.1426
  369MOL0     C50806   9.149   6.775   7.226 -0.3723  0.1445  0.0673
  369MOL0     C50807   9.230   6.740   7.097  0.6242  0.3612 -0.2214
  369MOL0     O50808   9.255   6.865   7.018  0.4503 -0.5410  0.1356
  369MOL0     C50809   9.381   6.876   6.967 -0.4295 -0.7979 -0.3696
  369MOL0     C50810   9.458   6.975   7.026 -0.1732 -1.0565 -0.6809
  369MOL0     C50811   9.590   6.987   7.001 -0.2231 -0.0815  0.6629
  369MOL0     C50812   9.672   7.094   7.070  0.3197 -0.1093 -0.6934
  369MOL0     C50813   9.642   6.901   6.896  0.0049 -0.6572  0.4505
  369MOL0     C50814   9.774   6.902   6.838  0.0463  0.1783 -0.6044
  369MOL0     O50815   9.829   6.786   6.802  0.3767  0.2720 -0.1011
  369MOL0     C50816   9.952   6.772   6.749  0.5345  0.5919  0.0899
  369MOL0     C50817  10.031   6.863   6.683 -0.4119 -0.5358  0.0803
  369MOL0     C50818  10.161   6.836   6.629 -0.2855  1.4060 -0.1260
  369MOL0     C50819  10.206   6.697   6.638 -1.7517  0.3988 -0.3391
  369MOL0     O50820  10.329   6.651   6.597 -0.3265 -1.1132 -0.3155
  369MOL0     C50821  10.411   6.739   6.525  0.2428  0.0513  0.4805
  369MOL0     C50822  10.540   6.660   6.491  0.1784  0.0689  0.2240
  369MOL0     C50823  10.626   6.745   6.393  0.5006 -1.0887 -0.4257
  369MOL0     C50824  10.735   6.667   6.322 -0.4360 -0.4243 -0.9305
  369MOL0     C50825  10.839   6.761   6.271  0.6784  0.3763 -0.4229
  369MOL0     C50826  10.957   6.680   6.190  0.3723 -0.7500 -0.3288
  369MOL0     C50827  11.073   6.783   6.165  0.6699  0.1750 -0.2091
  369MOL0     C50828  11.198   6.699   6.121  0.7770  0.6498  1.1292
  369MOL0    Cl50829  11.322   6.703   6.245  0.1293  0.1966  0.2676
  369MOL0     C50830  10.126   6.603   6.704 -0.4809  0.9049 -0.5940
  369MOL0     C50831  10.001   6.641   6.753 -0.6510  0.6337 -0.0305
  369MOL0     O50832   9.816   7.019   6.813  0.1082 -0.2070  0.3784
  369MOL0     C50833   9.561   6.812   6.831  0.1336 -0.7989  0.4738
  369MOL0     C50834   9.426   6.787   6.873  0.2891 -0.0789 -0.3213
  369MOL0     N50835   8.879   7.123   7.100  0.4022  0.3087 -0.0232
  369MOL0     N50836   8.762   7.177   7.076 -0.7597 -0.4661 -0.2710
  369MOL0     C50837   7.857   7.368   7.622 -0.4374 -0.3746 -0.5578
  369MOL0     C50838   7.735   7.425   7.582 -0.5730  0.8162 -0.9460
  369MOL0     C50839   7.345   7.558   7.436  0.4990 -0.2205  0.2064
  369MOL0     C50840   7.352   7.659   7.339  0.6498 -0.2469 -0.0656
  369MOL0     C50841   7.239   7.682   7.267 -0.2080  0.1213  0.0329
  369MOL0     C50842   7.124   7.604   7.275 -0.8147  0.0824  0.1785
  369MOL0     O50843   7.026   7.647   7.192  0.5151 -0.5066 -0.0435
  369MOL0     C50844   6.953   7.551   7.116 -0.7292  0.5448  0.0804
  369MOL0     C50845   6.808   7.600   7.102 -0.6013  0.6522  0.5171
  369MOL0     C50846   6.731   7.591   7.234  0.2727  0.3580  0.3207
  369MOL0     C50847   6.584   7.594   7.208 -0.3627  0.2188  0.1655
  369MOL0     C50848   6.515   7.607   7.342  0.1948  0.5278  0.5767
  369MOL0     C50849   6.465   7.612   7.456  0.2764  0.4287 -0.1389
  369MOL0     C50850   7.125   7.493   7.353  0.2933 -0.4553  0.0598
  369MOL0     C50851   7.227   7.471   7.439 -0.1808  0.4789 -0.0859
  369MOL0     C50852   7.223   7.346   7.529 -0.1900  0.4294 -0.2891
  369MOL0     H50853   7.507   7.192   7.673  0.5751  0.6140  1.3766
  369MOL0     H50854   7.715   7.104   7.781  0.5416  0.5037  0.3500
  369MOL0     H50855   8.119   7.187   7.828  0.4323 -1.0216 -0.4399
  369MOL0     H50856   8.083   7.332   7.745  1.0989 -0.0810  0.6246
  369MOL0     H50857   8.191   7.063   7.634 -1.2840 -0.4589 -2.3248
  369MOL0     H50858   8.086   7.170   7.533 -0.4918  0.3411 -0.3380
  369MOL0     H50859   8.231   7.359   7.596 -0.6867 -0.7901  3.6883
  369MOL0     H50860   8.346   7.259   7.662 -0.9072  1.0881  1.3781
  369MOL0     H50861   8.223   7.227   7.382 -1.8437 -1.4928  2.5776
  369MOL0     H50862   8.372   7.311   7.396  0.2307 -0.1335  1.9029
  369MOL0     H50863   8.316   7.015   7.453 -1.8523  0.3961 -1.6890
  369MOL0     H50864   8.475   7.107   7.481  1.3960 -2.2515 -2.0846
  369MOL0     H50865   8.479   6.995   7.280 -1.3120 -1.1916 -0.5702
  369MOL0     H50866   8.322   7.034   7.225  0.5165  0.1644 -0.4783
  369MOL0     H50867   8.543   7.247   7.235 -1.0915 -0.2796  0.5912
  369MOL0     H50868   8.390   7.246   7.155  1.6044  0.6464 -1.5328
  369MOL0     H50869   8.471   7.019   7.037  1.4003 -0.7318  1.6333
  369MOL0     H50870   8.512   7.174   6.971 -3.7678  0.1694  0.2895
  369MOL0     H50871   8.693   6.856   7.091  2.3719  0.0984 -2.1029
  369MOL0     H50872   9.021   6.891   7.012 -0.4098  0.2333 -0.3712
  369MOL0     H50873   8.912   6.781   7.114 -2.9218  0.7873  0.1355
  369MOL0     H50874   9.100   6.980   7.214 -0.7524 -0.2412 -1.8103
  369MOL0     H50875   8.994   6.876   7.316 -0.5366  1.5728  0.4244
  369MOL0     H50876   9.222   6.816   7.296 -0.7927  2.8931 -0.9834
  369MOL0     H50877   9.101   6.683   7.263 -1.0842 -0.4352 -2.1083
  369MOL0     H50878   9.323   6.691   7.127  0.0397 -0.9555 -0.4630
  369MOL0     H50879   9.178   6.674   7.027  0.1500 -1.6969  1.9323
  369MOL0     H50880   9.409   7.031   7.106  1.5716 -1.7573  0.9500
  369MOL0     H50881   9.640   7.198   7.065  3.4888  1.2304  2.1868
  369MOL0     H50882   9.772   7.084   7.026 -0.2243  0.7233 -2.1921
  369MOL0     H50883   9.674   7.060   7.174  0.5277 -0.9318 -0.9615
  369MOL0     H50884  10.005   6.968   6.673  4.1321  0.8125  0.1975
  369MOL0     H50885  10.228   6.905   6.581 -0.3630  2.2112  0.8835
  369MOL0     H50886  10.366   6.775   6.432 -1.5607  1.5390  1.8576
  369MOL0     H50887  10.442   6.827   6.582 -4.1223  1.6038  0.8358
  369MOL0     H50888  10.595   6.631   6.582 -1.4453 -0.5420  1.0551
  369MOL0     H50889  10.505   6.570   6.439 -0.0087 -0.6273  1.5061
  369MOL0     H50890  10.670   6.829   6.447 -1.9820  0.3065 -0.4221
  369MOL0     H50891  10.562   6.787   6.315  3.1488  0.9601 -1.6692
  369MOL0     H50892  10.701   6.594   6.247 -0.3183  1.7522 -3.2478
  369MOL0     H50893  10.784   6.608   6.400 -0.6542  2.2176  1.3602
  369MOL0     H50894  10.784   6.825   6.201  1.7614 -0.1228 -1.7934
  369MOL0     H50895  10.886   6.817   6.352  3.9809 -0.7210 -1.3929
  369MOL0     H50896  10.920   6.649   6.092  0.4271 -0.5084 -0.4266
  369MOL0     H50897  10.983   6.593   6.250 -2.8757 -1.3187  0.3972
  369MOL0     H50898  11.104   6.833   6.257  0.6997  0.2066 -0.2371
  369MOL0     H50899  11.054   6.849   6.080  2.9457 -1.5910 -2.2363
  369MOL0     H50900  11.240   6.738   6.028 -2.5241  1.0522 -0.3633
  369MOL0     H50901  11.175   6.593   6.110  0.3845  0.8958 -0.8330
  369MOL0     H50902  10.157   6.500   6.713 -0.5153  0.5420 -3.5322
  369MOL0     H50903   9.932   6.567   6.793 -0.9554  1.7963  1.7081
  369MOL0     H50904   9.605   6.757   6.749  0.2961  0.3574 -0.2394
  369MOL0     H50905   9.366   6.706   6.834  0.4026 -0.6112  0.5743
  369MOL0     H50906   7.951   7.408   7.585  0.8870 -0.8572  2.0736
  369MOL0     H50907   7.742   7.520   7.531  0.3307  1.7769  0.8629
  369MOL0     H50908   7.437   7.718   7.307  0.8740 -1.5383 -2.0396
  369MOL0     H50909   7.247   7.758   7.190  2.2858  0.8452  0.9213
  369MOL0     H50910   7.004   7.551   7.019  3.0728  1.5672  1.8910
  369MOL0     H50911   6.953   7.448   7.154 -2.3999  0.1195 -0.9396
  369MOL0     H50912   6.754   7.533   7.035  0.3998 -0.4568  0.7823
  369MOL0     H50913   6.804   7.700   7.058 -2.8532  0.8512  1.0429
  369MOL0     H50914   6.751   7.492   7.276 -2.2794  0.6465  2.4354
  369MOL0     H50915   6.767   7.664   7.307 -2.3079  3.0128 -0.8666
  369MOL0     H50916   6.558   7.508   7.145  1.6421 -1.3902  1.4312
  369MOL0     H50917   6.550   7.683   7.154 -2.4881  0.1386  1.2552
  369MOL0     H50918   6.432   7.606   7.558 -0.7750  0.8250 -0.4463
  369MOL0     H50919   7.034   7.435   7.366 -0.3413  0.3341 -0.7235
  369MOL0     H50920   7.286   7.269   7.483 -0.6891  0.4115 -0.9604
  369MOL0     H50921   7.263   7.375   7.626 -1.7517  1.3508  0.1215
  369MOL0     H50922   7.119   7.315   7.547 -0.4404 -0.0981 -2.4215
  370MOL0     O50923   2.056   7.996  10.672  0.1932 -0.6705  0.0131
  370MOL0     C50924   1.954   8.061  10.653 -0.4314  0.3447 -0.2906
  370MOL0     O50925   1.937   8.192  10.674  0.2306 -0.5896 -0.5701
  370MOL0     C50926   2.039   8.273  10.711 -0.6687  0.6703 -0.1627
  370MOL0     C50927   2.148   8.305  10.624 -0.4958  0.5645 -1.5097
  370MOL0     C50928   2.254   8.385  10.662  0.3175  0.2121  0.4509
  370MOL0     C50929   2.248   8.447  10.783  0.0488 -0.0511 -0.7575
  370MOL0     O50930   2.360   8.523  10.828  0.2735 -0.4794 -0.6553
  370MOL0     C50931   2.492   8.483  10.797  0.4363 -0.0967  0.6595
  370MOL0     C50932   2.536   8.555  10.669 -0.4731 -0.0315 -0.5947
  370MOL0     C50933   2.699   8.549  10.668 -0.0242  0.4204  0.2593
  370MOL0     C50934   2.757   8.673  10.583  0.8368  0.2208 -0.3169
  370MOL0     C50935   2.912   8.665  10.589  0.2728  0.3826 -0.5436
  370MOL0     C50936   2.991   8.726  10.471  0.6477  0.1095  0.7423
  370MOL0     C50937   2.977   8.872  10.472 -0.2528 -0.9984 -0.1165
  370MOL0     C50938   3.026   8.944  10.587 -0.1580 -0.0608  0.1001
  370MOL0     N50939   3.156   8.898  10.632  0.2361 -0.2399 -0.2701
  370MOL0     C50940   3.277   8.929  10.574  0.0870 -0.0863 -0.3262
  370MOL0     C50941   3.358   8.887  10.669 -0.7434  0.0615 -0.5435
  370MOL0     C50942   3.509   8.911  10.669  0.3434  0.1604 -0.4514
  370MOL0     C50943   3.579   8.781  10.706  0.9299  0.5888 -0.3343
  370MOL0     C50944   3.731   8.802  10.712  0.7637  0.4066 -1.3298
  370MOL0     C50945   3.807   8.671  10.743 -0.1257  0.1057 -0.1992
  370MOL0     O50946   3.945   8.695  10.753  0.2594  1.2756 -0.0073
  370MOL0     C50947   4.031   8.593  10.795 -0.5864 -0.4393  0.1836
  370MOL0     C50948   4.167   8.626  10.784  1.1904  0.2454  0.2422
  370MOL0     C50949   4.268   8.532  10.791 -0.5031 -0.4121  0.3468
  370MOL0     C50950   4.418   8.570  10.780  1.2060  0.1733  0.1249
  370MOL0     C50951   4.235   8.395  10.820  0.8708  1.2727 -0.1641
  370MOL0     C50952   4.328   8.270  10.800  0.5530 -0.0522  0.6490
  370MOL0     O50953   4.270   8.160  10.734  0.2534 -0.0858 -0.0380
  370MOL0     C50954   4.340   8.043  10.714 -1.2830 -0.4210  0.5930
  370MOL0     C50955   4.453   8.045  10.628 -0.5026  0.9110 -0.9754
  370MOL0     C50956   4.527   7.925  10.602 -0.3915  0.1242  0.7377
  370MOL0     C50957   4.490   7.803  10.658 -0.1913 -0.2187  0.0107
  370MOL0     O50958   4.555   7.682  10.638 -0.3631 -0.4021  0.7220
  370MOL0     C50959   4.680   7.681  10.573 -0.9589 -0.4314  0.4399
  370MOL0     C50960   4.726   7.539  10.561 -0.5001  0.3349 -0.6086
  370MOL0     C50961   4.847   7.517  10.465  0.7360  0.0442  0.0541
  370MOL0     C50962   4.980   7.576  10.513 -0.9574  0.4717  0.0484
  370MOL0     C50963   5.090   7.534  10.415  0.2403 -0.4976  0.7918
  370MOL0     C50964   5.230   7.582  10.455 -0.5509  0.2378 -0.5162
  370MOL0     C50965   5.244   7.726  10.484 -0.0001  0.1961  0.1904
  370MOL0     C50966   5.243   7.765  10.634  0.2834 -0.3377 -0.1516
  370MOL0    Cl50967   5.371   7.687  10.737 -0.5455 -0.1306  0.2061
  370MOL0     C50968   4.387   7.804  10.751  0.5524 -0.7307 -0.6183
  370MOL0     C50969   4.308   7.922  10.780 -0.2340 -0.6840  0.0692
  370MOL0     O50970   4.446   8.275  10.833  0.6441  0.3909  0.8126
  370MOL0     C50971   4.101   8.363  10.840  0.7331  0.1223  0.1377
  370MOL0     C50972   3.996   8.457  10.831 -0.8789 -0.0300 -0.2831
  370MOL0     N50973   3.287   8.818  10.778 -0.3063  0.0537 -0.2862
  370MOL0     N50974   3.161   8.832  10.756  0.5567 -0.8154  0.9223
  370MOL0     C50975   2.139   8.425  10.866  0.8070  0.0840 -0.0600
  370MOL0     C50976   2.038   8.337  10.834 -0.6304  0.1530  0.6257
  370MOL0     C50977   1.835   7.997  10.604 -0.1318  0.0927  0.3422
  370MOL0     C50978   1.705   8.029  10.654  0.0544  0.0712 -0.2792
  370MOL0     C50979   1.600   7.944  10.633  1.0201 -0.7384  0.3962
  370MOL0     C50980   1.599   7.839  10.551  0.5839  0.3968  0.0895
  370MOL0     O50981   1.487   7.768  10.547  0.4511  0.3470  0.0078
  370MOL0     C50982   1.432   7.755  10.414 -0.1910 -0.3405 -0.8531
  370MOL0     C50983   1.315   7.849  10.408 -0.2821 -0.2972  0.1477
  370MOL0     C50984   1.193   7.790  10.480 -0.1064  0.0632 -0.2216
  370MOL0     C50985   1.074   7.887  10.485  0.0482  0.1401  1.1004
  370MOL0     C50986   0.996   7.862  10.362 -1.1787  0.3913 -0.3009
  370MOL0     C50987   0.921   7.859  10.267  0.0472 -0.3823 -0.9113
  370MOL0     C50988   1.721   7.817  10.479 -0.2620  0.5638  0.1990
  370MOL0     C50989   1.842   7.887  10.511  0.2847  0.0762 -0.5706
  370MOL0     C50990   1.963   7.850  10.427 -0.0730  0.0120  0.6121
  370MOL0     H50991   2.145   8.262  10.524 -0.2828  4.5837 -3.4389
  370MOL0     H50992   2.344   8.387  10.601  0.0571  0.0328  0.0560
  370MOL0     H50993   2.483   8.375  10.786 -1.9234 -0.0243  1.3577
  370MOL0     H50994   2.547   8.505  10.889  1.5196 -0.2198  0.0645
  370MOL0     H50995   2.508   8.508  10.575  0.9453 -1.3319 -0.3969
  370MOL0     H50996   2.499   8.657  10.657 -3.4654 -0.9865 -0.2299
  370MOL0     H50997   2.723   8.555  10.774  0.8707 -0.3508  0.1101
  370MOL0     H50998   2.737   8.454  10.630 -1.1527 -0.7729  1.9417
  370MOL0     H50999   2.726   8.674  10.478  0.4271 -1.4964 -0.2417
  370MOL0     H51000   2.725   8.769  10.623 -1.9084 -0.0948 -1.5679
  370MOL0     H51001   2.943   8.561  10.589 -0.7669  0.0498 -0.0135
  370MOL0     H51002   2.951   8.703  10.684  1.0143 -1.2931 -0.1539
  370MOL0     H51003   3.096   8.694  10.472  0.6178 -0.1859 -1.4777
  370MOL0     H51004   2.958   8.691  10.373 -0.7361 -0.4622  1.3943
  370MOL0     H51005   2.877   8.915  10.459 -0.1552 -1.0829 -1.2917
  370MOL0     H51006   3.036   8.891  10.382 -0.0528 -2.9227 -0.4454
  370MOL0     H51007   3.032   9.051  10.566 -0.9235  0.3637  1.8885
  370MOL0     H51008   2.952   8.927  10.666  0.2039 -0.1251  0.4239
  370MOL0     H51009   3.302   8.975  10.479  0.5651 -0.1634 -0.2416
  370MOL0     H51010   3.543   8.991  10.735  3.1493  0.7331 -2.3945
  370MOL0     H51011   3.544   8.940  10.569  1.4607 -1.1159 -0.4642
  370MOL0     H51012   3.555   8.748  10.808  0.5434  1.9723  0.0406
  370MOL0     H51013   3.543   8.709  10.632  0.3209  0.7167 -0.1666
  370MOL0     H51014   3.767   8.842  10.616  2.6165  1.5615 -0.2269
  370MOL0     H51015   3.756   8.874  10.791 -0.6467 -1.3769  0.8448
  370MOL0     H51016   3.774   8.621  10.835 -0.8113  0.1063 -0.4399
  370MOL0     H51017   3.796   8.602  10.659  0.6014  0.1808 -0.3630
  370MOL0     H51018   4.190   8.731  10.768 -1.5358  0.6148 -2.1408
  370MOL0     H51019   4.440   8.677  10.770  0.7060  0.2864  0.2374
  370MOL0     H51020   4.464   8.513  10.699 -1.7409  0.6079 -2.0199
  370MOL0     H51021   4.480   8.539  10.865  1.8404 -0.3407 -0.5060
  370MOL0     H51022   4.476   8.134  10.571  0.6430  0.4731 -1.2330
  370MOL0     H51023   4.611   7.921  10.534  2.1533  0.5123  3.6701
  370MOL0     H51024   4.659   7.714  10.471 -2.1677  1.2516  1.1709
  370MOL0     H51025   4.754   7.747  10.619  2.0781 -0.0917 -4.2153
  370MOL0     H51026   4.761   7.499  10.657 -2.3983 -1.3535 -0.5452
  370MOL0     H51027   4.643   7.475  10.532  0.6853 -0.8651 -1.5028
  370MOL0     H51028   4.824   7.553  10.364  2.3405  0.6577 -0.1078
  370MOL0     H51029   4.875   7.411  10.463 -0.0490 -0.1975  1.0906
  370MOL0     H51030   5.006   7.547  10.615 -0.1386  1.8587  0.2536
  370MOL0     H51031   4.971   7.685  10.517  0.8933  0.6223  0.7488
  370MOL0     H51032   5.093   7.426  10.400 -0.5544 -0.3958 -0.2935
  370MOL0     H51033   5.069   7.576  10.316 -0.6127  0.4593  1.3582
  370MOL0     H51034   5.292   7.557  10.369 -2.0821 -2.1813 -1.0171
  370MOL0     H51035   5.265   7.523  10.540  1.4469 -1.6585 -2.5154
  370MOL0     H51036   5.168   7.784  10.431 -0.7269 -1.3520 -0.5066
  370MOL0     H51037   5.339   7.753  10.436 -0.2484  0.4833 -0.1524
  370MOL0     H51038   5.144   7.743  10.677 -0.4445  1.2507 -0.9366
  370MOL0     H51039   5.261   7.872  10.639  0.8586 -0.4658  0.6070
  370MOL0     H51040   4.370   7.720  10.818  1.7829  2.2896  3.9326
  370MOL0     H51041   4.245   7.925  10.868  1.1351  0.3208  1.0657
  370MOL0     H51042   4.064   8.261  10.836  1.7283 -0.2875  0.9415
  370MOL0     H51043   3.893   8.424  10.827 -1.0674  0.5047 -3.9061
  370MOL0     H51044   2.133   8.491  10.952  1.4419  1.0612 -0.7358
  370MOL0     H51045   1.956   8.313  10.900 -0.2575  0.8417  1.3501
  370MOL0     H51046   1.697   8.120  10.713 -2.4769  0.0740 -0.5250
  370MOL0     H51047   1.508   7.962  10.686  0.3118 -1.0362 -0.6930
  370MOL0     H51048   1.513   7.762  10.341  1.0515 -0.6198  0.4430
  370MOL0     H51049   1.391   7.654  10.408  0.7618 -0.9400  1.4594
  370MOL0     H51050   1.292   7.869  10.303  2.0656 -3.3251 -1.1129
  370MOL0     H51051   1.351   7.940  10.457 -0.7746  2.1350 -3.6153
  370MOL0     H51052   1.169   7.690  10.444  0.2214 -0.5135  1.1013
  370MOL0     H51053   1.227   7.772  10.583  2.4319  0.5681 -0.9149
  370MOL0     H51054   1.103   7.992  10.493 -1.3093  0.9532 -2.7229
  370MOL0     H51055   1.011   7.851  10.566 -1.2543 -1.0388 -0.3760
  370MOL0     H51056   0.878   7.858  10.169  1.6587  1.4539 -1.7109
  370MOL0     H51057   1.720   7.740  10.402  1.6239  0.8566 -0.1622
  370MOL0     H51058   2.038   7.929  10.417 -0.2869  0.3053  1.2595
  370MOL0     H51059   2.013   7.764  10.472  1.0869 -0.7604 -1.9644
  370MOL0     H51060   1.919   7.825  10.330 -1.2500 -0.1101  1.1556
  371MOL0     O51061   7.495   2.715   1.445  0.2281  0.4623  0.1312
  371MOL0     C51062   7.431   2.788   1.525 -0.3301  0.6937  0.4855
  371MOL0     O51063   7.475   2.900   1.593 -0.4956 -0.2243 -0.6049
  371MOL0     C51064   7.590   2.969   1.554 -0.6921 -0.3557 -0.4199
  371MOL0     C51065   7.631   2.977   1.422  0.2159  0.7835 -0.2987
  371MOL0     C51066   7.739   3.045   1.379  0.3718  0.1992 -0.0097
  371MOL0     C51067   7.809   3.124   1.466 -0.4859  0.3171 -0.7690
  371MOL0     O51068   7.905   3.209   1.424  0.3922  0.8234  0.8073
  371MOL0     C51069   8.035   3.202   1.476  0.2119  0.1692 -0.2608
  371MOL0     C51070   8.125   3.189   1.359 -0.1695  0.1036  0.1308
  371MOL0     C51071   8.156   3.336   1.323  0.3500  0.3518 -0.0562
  371MOL0     C51072   8.219   3.350   1.177 -0.3983  0.6882 -0.8954
  371MOL0     C51073   8.338   3.255   1.153  0.6086  0.0417  0.7449
  371MOL0     C51074   8.462   3.275   1.239 -0.2189  0.8284  0.0153
  371MOL0     C51075   8.540   3.411   1.223  1.2776  0.7661 -1.3252
  371MOL0     C51076   8.569   3.447   1.075  0.3376  0.1335  0.6494
  371MOL0     N51077   8.645   3.570   1.075  0.4907 -0.5734 -0.2232
  371MOL0     C51078   8.594   3.700   1.083  0.2808 -0.2116 -0.1301
  371MOL0     C51079   8.704   3.781   1.093 -0.4530  0.2467  0.4079
  371MOL0     C51080   8.706   3.930   1.097 -0.1703 -0.2075  0.6200
  371MOL0     C51081   8.726   3.995   1.239 -0.2685  0.5189 -0.1918
  371MOL0     C51082   8.820   4.113   1.223  0.3491 -0.0792 -0.3533
  371MOL0     C51083   8.957   4.084   1.278 -0.1983  0.3153 -0.2742
  371MOL0     O51084   8.959   4.079   1.425  0.3155 -0.1860 -0.7925
  371MOL0     C51085   9.073   4.080   1.503  0.2457  0.3743  0.1540
  371MOL0     C51086   9.062   4.062   1.639 -1.2204 -0.0687 -0.1032
  371MOL0     C51087   9.178   4.064   1.720 -0.6361  0.2792 -0.1605
  371MOL0     C51088   9.159   4.046   1.867  0.2370  0.3436 -0.6698
  371MOL0     C51089   9.306   4.077   1.653 -0.6709  0.1410 -0.0360
  371MOL0     C51090   9.439   4.099   1.732 -0.6512  0.0562  1.4759
  371MOL0     O51091   9.543   4.140   1.651  0.3604 -0.2371 -0.4113
  371MOL0     C51092   9.668   4.163   1.694  0.1481  0.3982  0.4500
  371MOL0     C51093   9.712   4.196   1.827  0.7144 -0.0988  0.5819
  371MOL0     C51094   9.849   4.206   1.859 -0.0973  0.1565  0.5824
  371MOL0     C51095   9.944   4.178   1.769 -0.5123  0.1726 -0.4585
  371MOL0     O51096  10.074   4.179   1.818 -0.3603 -0.0597 -0.1177
  371MOL0     C51097  10.178   4.155   1.721  1.2166 -0.2914  0.2493
  371MOL0     C51098  10.307   4.159   1.795  0.0336 -0.4333  0.1983
  371MOL0     C51099  10.434   4.101   1.730  0.5037  0.5608  0.3262
  371MOL0     C51100  10.552   4.181   1.771 -0.6234 -0.5844  0.5049
  371MOL0     C51101  10.670   4.131   1.687  0.3229  0.5562 -0.0411
  371MOL0     C51102  10.797   4.222   1.681 -0.0179  0.1031 -0.3236
  371MOL0     C51103  10.772   4.357   1.614  0.9388  0.6347 -0.8934
  371MOL0     C51104  10.897   4.438   1.595 -0.7163  0.0512 -0.8521
  371MOL0    Cl51105  10.996   4.351   1.466 -0.1079 -0.5131  0.2679
  371MOL0     C51106   9.899   4.146   1.637  0.1141  0.7223  0.3636
  371MOL0     C51107   9.768   4.131   1.599  0.0342  0.5298  0.2182
  371MOL0     O51108   9.443   4.083   1.854  0.2476  0.1196  0.4102
  371MOL0     C51109   9.314   4.082   1.512  0.4568 -0.2103  0.2148
  371MOL0     C51110   9.196   4.095   1.443 -0.1546  0.0935  0.0676
  371MOL0     N51111   8.818   3.704   1.077  0.1492  0.1315  0.5656
  371MOL0     N51112   8.781   3.578   1.073  0.0821 -0.0677 -0.3617
  371MOL0     C51113   7.779   3.117   1.600 -0.3208 -0.0096 -0.2007
  371MOL0     C51114   7.667   3.051   1.643  1.5448  0.0247 -0.3572
  371MOL0     C51115   7.302   2.744   1.570  0.0754 -0.6024 -0.1927
  371MOL0     C51116   7.286   2.738   1.708 -0.2582  0.3096  0.3485
  371MOL0     C51117   7.159   2.700   1.760 -0.5297 -0.8883 -1.6188
  371MOL0     C51118   7.046   2.675   1.676 -0.9088  0.7369  0.4507
  371MOL0     O51119   6.912   2.652   1.704  0.1844 -0.0236 -0.3236
  371MOL0     C51120   6.877   2.642   1.852 -0.8361  0.0371  1.0615
  371MOL0     C51121   6.739   2.591   1.875  0.0213 -0.6271  0.0691
  371MOL0     C51122   6.689   2.475   1.787  0.4979  0.2758  0.1488
  371MOL0     C51123   6.782   2.360   1.744 -0.6405  0.2117 -0.2205
  371MOL0     C51124   6.754   2.232   1.813  0.8091 -0.3385  1.3383
  371MOL0     C51125   6.712   2.127   1.853  0.9504 -0.5097 -0.5009
  371MOL0     C51126   7.069   2.682   1.545 -0.1225 -0.4102 -0.4668
  371MOL0     C51127   7.193   2.713   1.487  0.6912  0.4815  0.0514
  371MOL0     C51128   7.194   2.713   1.342  0.3322 -0.4311 -0.0564
  371MOL0     H51129   7.575   2.933   1.341  0.9620  0.1636 -0.4861
  371MOL0     H51130   7.765   3.055   1.274 -0.5526 -3.2187 -0.6899
  371MOL0     H51131   8.036   3.110   1.535 -0.4486 -0.2153 -0.8439
  371MOL0     H51132   8.067   3.283   1.543 -1.3176  1.7866 -1.4214
  371MOL0     H51133   8.222   3.145   1.381  0.0342 -0.3649 -1.5434
  371MOL0     H51134   8.081   3.137   1.273 -0.0797 -0.0951  0.2054
  371MOL0     H51135   8.058   3.384   1.320 -0.2917 -0.7465 -4.8706
  371MOL0     H51136   8.224   3.381   1.396 -0.0816 -0.2133  0.7100
  371MOL0     H51137   8.139   3.316   1.111  0.0358  1.3372 -1.7666
  371MOL0     H51138   8.239   3.456   1.159  0.6773  0.5055 -0.8550
  371MOL0     H51139   8.366   3.263   1.048 -0.9415 -0.7239  0.2341
  371MOL0     H51140   8.311   3.151   1.176  0.5113  0.5734  3.3053
  371MOL0     H51141   8.429   3.263   1.342 -0.0505  1.0557  0.0956
  371MOL0     H51142   8.532   3.194   1.216 -1.7397 -0.1296 -1.4480
  371MOL0     H51143   8.625   3.427   1.290 -0.2616  0.0287  0.8919
  371MOL0     H51144   8.471   3.488   1.260 -0.0929 -0.8883 -0.2851
  371MOL0     H51145   8.635   3.371   1.033  2.5678  0.4762  3.2392
  371MOL0     H51146   8.480   3.454   1.013  2.6102 -0.6735 -3.0349
  371MOL0     H51147   8.498   3.745   1.104  1.9683  3.4654  0.6091
  371MOL0     H51148   8.623   3.976   1.044  0.9916 -0.4051 -1.5015
  371MOL0     H51149   8.791   3.946   1.030 -1.0595  0.1269 -0.4607
  371MOL0     H51150   8.638   4.042   1.283  1.4736  1.1458  2.8686
  371MOL0     H51151   8.770   3.920   1.305 -0.7241 -4.9647 -5.1978
  371MOL0     H51152   8.825   4.155   1.122  1.7996 -1.5012 -0.9006
  371MOL0     H51153   8.788   4.192   1.292  0.6887  1.3081 -1.7239
  371MOL0     H51154   8.999   3.990   1.243  1.3417  0.9458 -0.1869
  371MOL0     H51155   9.027   4.159   1.240 -0.4198  0.2825 -0.7615
  371MOL0     H51156   8.966   4.046   1.688 -0.8628  0.5445  0.8238
  371MOL0     H51157   9.214   3.958   1.903 -2.0634 -0.4984  1.0809
  371MOL0     H51158   9.057   4.025   1.902 -0.0589 -0.8702 -2.1245
  371MOL0     H51159   9.204   4.133   1.915 -2.1516 -0.3843  3.3560
  371MOL0     H51160   9.645   4.231   1.904 -0.3356  1.2158 -0.8622
  371MOL0     H51161   9.872   4.236   1.961 -1.6963 -0.1490  1.0632
  371MOL0     H51162  10.166   4.055   1.676 -1.4711  0.8183 -1.7875
  371MOL0     H51163  10.185   4.228   1.639  1.0856 -1.3835 -0.7713
  371MOL0     H51164  10.331   4.262   1.822  1.3393 -0.4673 -0.7221
  371MOL0     H51165  10.286   4.121   1.896 -1.2686  0.5562  0.3182
  371MOL0     H51166  10.419   4.093   1.622  0.1470  0.1831  0.4050
  371MOL0     H51167  10.448   3.998   1.764 -2.8996  0.1387  0.7796
  371MOL0     H51168  10.574   4.169   1.878  2.6368  1.1369  0.1917
  371MOL0     H51169  10.534   4.286   1.748  2.5450 -0.0669 -0.1629
  371MOL0     H51170  10.695   4.032   1.727  0.2834  0.8410  0.7037
  371MOL0     H51171  10.641   4.111   1.583 -1.0314  0.8506  0.2668
  371MOL0     H51172  10.875   4.168   1.627  1.9615  2.0608  0.4229
  371MOL0     H51173  10.829   4.231   1.785 -1.6930  0.4966  0.1885
  371MOL0     H51174  10.707   4.423   1.673  0.4886  1.3376 -2.1533
  371MOL0     H51175  10.723   4.346   1.518 -0.0734 -0.7175 -0.2563
  371MOL0     H51176  10.959   4.434   1.685  2.3621  0.6310 -2.8277
  371MOL0     H51177  10.880   4.543   1.569  2.3962  1.0270  0.6070
  371MOL0     H51178   9.967   4.112   1.559  0.0438  2.0078 -0.2765
  371MOL0     H51179   9.732   4.097   1.502  1.4493 -0.5625  0.0460
  371MOL0     H51180   9.407   4.091   1.456 -0.4002 -0.5575 -1.3489
  371MOL0     H51181   9.213   4.104   1.336  3.5360  1.1685  0.5950
  371MOL0     H51182   7.840   3.175   1.669 -1.2443  2.6847 -1.5014
  371MOL0     H51183   7.638   3.055   1.748 -2.0001  0.7956 -1.2518
  371MOL0     H51184   7.373   2.767   1.767 -1.0300  1.0397  1.1609
  371MOL0     H51185   7.144   2.692   1.867  0.3716  1.8705 -1.2096
  371MOL0     H51186   6.942   2.572   1.905  0.4795  0.4462  0.0482
  371MOL0     H51187   6.898   2.730   1.913  1.8181 -1.3194  2.2920
  371MOL0     H51188   6.673   2.671   1.839  2.2951  0.7815 -1.1963
  371MOL0     H51189   6.725   2.563   1.980 -0.4460 -2.0592 -0.3502
  371MOL0     H51190   6.597   2.442   1.835  0.6667  0.8869  0.9132
  371MOL0     H51191   6.655   2.529   1.698  0.5030 -1.7023 -1.1115
  371MOL0     H51192   6.883   2.383   1.780 -0.5957  1.5173 -1.0957
  371MOL0     H51193   6.783   2.338   1.637  3.3947 -1.1880 -0.0957
  371MOL0     H51194   6.675   2.034   1.891 -0.5197 -0.1305 -0.9231
  371MOL0     H51195   6.980   2.670   1.484  0.5463  1.1897 -1.8411
  371MOL0     H51196   7.246   2.796   1.294 -1.2979  0.8094  0.2402
  371MOL0     H51197   7.243   2.620   1.311 -0.8235 -1.0737 -0.0038
  371MOL0     H51198   7.093   2.713   1.300  0.0667  0.1134  0.5654
  372MOL0     O51199   7.039  11.050   1.356 -0.0539  0.0725 -0.9908
  372MOL0     C51200   7.046  10.932   1.382 -0.3866  0.4726  0.2634
  372MOL0     O51201   7.133  10.852   1.319 -0.0205 -0.1633  0.0293
  372MOL0     C51202   7.189  10.891   1.202 -0.0144  0.6561  0.5016
  372MOL0     C51203   7.310  10.827   1.160 -0.9373  0.5019  0.1662
  372MOL0     C51204   7.384  10.860   1.048  0.5787 -0.3051  0.6739
  372MOL0     C51205   7.322  10.950   0.956 -0.0483  0.3636 -0.4452
  372MOL0     O51206   7.384  10.976   0.843  0.6111 -0.4841  0.7815
  372MOL0     C51207   7.512  11.045   0.849 -0.3729  0.8962 -0.8665
  372MOL0     C51208   7.481  11.184   0.798  0.1344 -0.5850 -0.3281
  372MOL0     C51209   7.587  11.299   0.833  0.6383  0.6917 -0.0934
  372MOL0     C51210   7.732  11.267   0.806 -0.6395  0.6713  0.6754
  372MOL0     C51211   7.827  11.388   0.841 -0.5233  0.1760  0.1797
  372MOL0     C51212   7.964  11.330   0.807  0.3607 -0.8613 -0.2178
  372MOL0     C51213   8.063  11.439   0.842 -1.1484 -0.0627 -0.4746
  372MOL0     C51214   8.192  11.400   0.771 -0.2150  0.3709  0.8626
  372MOL0     N51215   8.290  11.516   0.765  0.3149 -0.6217  0.0376
  372MOL0     C51216   8.277  11.627   0.693  0.6847  0.1685 -0.0349
  372MOL0     C51217   8.385  11.710   0.714  0.5804 -1.3169 -0.5022
  372MOL0     C51218   8.394  11.849   0.666  0.8845  0.7469 -0.2071
  372MOL0     C51219   8.498  11.867   0.560 -0.8689 -0.5228  0.3993
  372MOL0     C51220   8.498  12.009   0.502 -1.2537 -0.1118 -1.2893
  372MOL0     C51221   8.614  12.022   0.402 -0.3491  0.7600  0.1897
  372MOL0     O51222   8.747  11.968   0.434  0.0289 -0.3318  0.6000
  372MOL0     C51223   8.852  12.043   0.384  0.1994  0.3536  0.6392
  372MOL0     C51224   8.844  12.126   0.276 -0.3906  0.1065 -0.1056
  372MOL0     C51225   8.950  12.209   0.243 -0.0758  0.6288 -0.3436
  372MOL0     C51226   8.930  12.304   0.132  0.0500 -0.1790  0.6850
  372MOL0     C51227   9.073  12.200   0.327 -1.1510  0.4433 -0.9462
  372MOL0     C51228   9.195  12.289   0.302  0.1756 -0.3161 -0.5113
  372MOL0     O51229   9.304  12.272   0.384  0.4828  0.2346 -0.4139
  372MOL0     C51230   9.420  12.336   0.352 -0.2656  0.6124  0.1605
  372MOL0     C51231   9.467  12.431   0.433  1.1782  0.0249  0.5141
  372MOL0     C51232   9.586  12.500   0.407 -0.2822 -0.6579 -0.2259
  372MOL0     C51233   9.671  12.470   0.304  0.1130 -0.0588  0.4964
  372MOL0     O51234   9.798  12.520   0.290  0.0747  0.0391 -0.6547
  372MOL0     C51235   9.896  12.439   0.223 -0.9105  0.4690  0.5744
  372MOL0     C51236  10.031  12.508   0.231 -0.2344 -0.1862  0.2421
  372MOL0     C51237  10.131  12.410   0.177 -0.8241  0.0036  0.6561
  372MOL0     C51238  10.281  12.453   0.207 -0.3808  0.0107 -0.2063
  372MOL0     C51239  10.324  12.592   0.173 -0.3230 -0.1168 -0.0921
  372MOL0     C51240  10.472  12.600   0.217 -0.5155  0.5242  0.6542
  372MOL0     C51241  10.517  12.744   0.246  0.2816  0.5300  0.6757
  372MOL0     C51242  10.540  12.816   0.113  0.4299 -0.0884  0.1761
  372MOL0    Cl51243  10.675  12.733   0.027  0.0981  0.0247 -0.0085
  372MOL0     C51244   9.623  12.361   0.227 -0.9602  0.5044  0.2371
  372MOL0     C51245   9.500  12.293   0.244  0.3920  0.6159  0.4530
  372MOL0     O51246   9.190  12.366   0.209 -0.5688 -0.4825  0.1119
  372MOL0     C51247   9.078  12.121   0.442  0.2778  0.4717 -0.2321
  372MOL0     C51248   8.968  12.031   0.460  0.6643 -0.2334 -0.7517
  372MOL0     N51249   8.464  11.647   0.808  0.6301 -0.1959 -0.2279
  372MOL0     N51250   8.412  11.533   0.829  0.6731  0.5065 -0.5945
  372MOL0     C51251   7.199  10.997   0.978 -0.4986  0.9864 -0.3026
  372MOL0     C51252   7.132  10.968   1.097  0.6139  0.3402  0.8673
  372MOL0     C51253   6.957  10.865   1.485  0.0492 -0.7206  0.6693
  372MOL0     C51254   6.989  10.730   1.526 -0.4454 -0.0980  0.1574
  372MOL0     C51255   6.911  10.666   1.611  0.0543  0.1351 -0.1376
  372MOL0     C51256   6.785  10.716   1.655  0.2337  0.8310 -0.4537
  372MOL0     O51257   6.711  10.640   1.732  0.0919  0.1829 -0.4872
  372MOL0     C51258   6.680  10.504   1.689 -0.3727  0.3887  0.0260
  372MOL0     C51259   6.543  10.458   1.743  0.5732  0.1992 -0.6161
  372MOL0     C51260   6.420  10.536   1.684 -0.6723 -0.1589 -0.1859
  372MOL0     C51261   6.292  10.510   1.766  0.8620 -0.3074  0.2099
  372MOL0     C51262   6.286  10.551   1.911 -0.9124  0.6103  1.0055
  372MOL0     C51263   6.267  10.607   2.014  0.4177  0.0174  1.0751
  372MOL0     C51264   6.756  10.841   1.616 -0.2634 -0.9404  0.3981
  372MOL0     C51265   6.839  10.924   1.542  0.7391 -0.0550 -0.4090
  372MOL0     C51266   6.790  11.062   1.503  0.0395 -0.6973 -0.3121
  372MOL0     H51267   7.348  10.752   1.228  2.8515  1.0486 -1.1274
  372MOL0     H51268   7.476  10.809   1.023  2.2844  1.9924  1.8252
  372MOL0     H51269   7.592  10.993   0.794  1.5661  0.8082  1.8183
  372MOL0     H51270   7.544  11.047   0.954  0.8105 -2.1616 -1.0564
  372MOL0     H51271   7.490  11.175   0.689 -1.7684  1.2226 -0.6947
  372MOL0     H51272   7.380  11.213   0.828 -0.1109 -0.6599 -1.0505
  372MOL0     H51273   7.544  11.381   0.775 -3.2669 -0.8987  0.1794
  372MOL0     H51274   7.583  11.330   0.938  1.4991  1.1157 -0.1802
  372MOL0     H51275   7.755  11.178   0.865 -0.3402  1.5762  1.9823
  372MOL0     H51276   7.752  11.246   0.701  1.7836 -0.0844  1.2166
  372MOL0     H51277   7.813  11.433   0.940 -3.3943  2.0541 -0.9426
  372MOL0     H51278   7.808  11.463   0.764  1.5304  1.2768  0.6718
  372MOL0     H51279   7.991  11.238   0.858 -0.4017 -0.4739  0.9299
  372MOL0     H51280   7.968  11.314   0.699  0.3596  2.1646 -0.7649
  372MOL0     H51281   8.072  11.443   0.951 -0.7739 -0.8702 -0.4694
  372MOL0     H51282   8.021  11.538   0.819 -0.0014  0.9130  1.3283
  372MOL0     H51283   8.238  11.314   0.820  1.2146  1.1073  0.8834
  372MOL0     H51284   8.166  11.369   0.670 -2.1574 -0.8132  1.6887
  372MOL0     H51285   8.193  11.651   0.628  0.2219  1.6806  1.0666
  372MOL0     H51286   8.405  11.910   0.756 -2.3145 -0.0579  0.8811
  372MOL0     H51287   8.300  11.890   0.627  1.4209  1.3057 -0.9341
  372MOL0     H51288   8.588  11.840   0.616 -1.2209  0.7466  1.6182
  372MOL0     H51289   8.480  11.796   0.479  3.3823 -1.1779 -0.2338
  372MOL0     H51290   8.398  12.043   0.476 -2.1067  0.4130  2.1523
  372MOL0     H51291   8.531  12.072   0.586  2.2480 -0.7623 -2.0283
  372MOL0     H51292   8.578  11.972   0.311 -2.4831  1.4034  0.6199
  372MOL0     H51293   8.613  12.129   0.379 -0.0901  1.0084  1.2843
  372MOL0     H51294   8.758  12.139   0.211  0.2114  0.4963 -0.8379
  372MOL0     H51295   8.837  12.281   0.079  0.7689  1.0416 -1.2159
  372MOL0     H51296   9.005  12.298   0.053 -0.3242  2.1587  0.0870
  372MOL0     H51297   8.933  12.406   0.172  0.5563 -0.5965  1.7400
  372MOL0     H51298   9.417  12.463   0.523 -0.1081  3.1642 -1.1351
  372MOL0     H51299   9.614  12.573   0.482 -0.6170 -2.1274  1.4026
  372MOL0     H51300   9.896  12.335   0.254  1.5957 -0.0487 -0.8649
  372MOL0     H51301   9.874  12.440   0.116  1.6323  0.3590 -0.0101
  372MOL0     H51302  10.030  12.592   0.161  0.7916 -0.9445 -0.7095
  372MOL0     H51303  10.059  12.535   0.333  0.4914  0.7698 -0.2002
  372MOL0     H51304  10.117  12.410   0.068 -0.7096  2.1994  0.5974
  372MOL0     H51305  10.111  12.311   0.218 -0.4502 -0.7884 -0.9755
  372MOL0     H51306  10.345  12.378   0.161 -0.7372  0.1134 -0.8726
  372MOL0     H51307  10.283  12.446   0.317  1.1426 -2.1411 -0.3277
  372MOL0     H51308  10.319  12.606   0.065 -0.3210  2.8156  0.1914
  372MOL0     H51309  10.264  12.664   0.231  0.0521  1.0162 -1.0602
  372MOL0     H51310  10.536  12.551   0.144  1.0234 -0.5787  2.6451
  372MOL0     H51311  10.475  12.534   0.304  0.9196 -0.1842  0.0980
  372MOL0     H51312  10.611  12.744   0.301  1.0112 -1.6555 -0.4556
  372MOL0     H51313  10.435  12.801   0.291 -1.5729  0.2558 -2.1182
  372MOL0     H51314  10.567  12.921   0.126 -1.5306  0.3290  1.2699
  372MOL0     H51315  10.453  12.811   0.047  0.2012 -1.8301  0.5869
  372MOL0     H51316   9.693  12.321   0.154 -0.1766  1.3836  0.4778
  372MOL0     H51317   9.467  12.218   0.173  0.4556  0.7656  0.2648
  372MOL0     H51318   9.166  12.109   0.505 -0.0242 -1.6516 -0.1377
  372MOL0     H51319   8.990  11.958   0.537  2.5801  1.5493  0.4992
  372MOL0     H51320   7.145  11.057   0.906  0.9001  1.3864 -1.0710
  372MOL0     H51321   7.039  11.024   1.109 -1.4180 -2.3768 -0.9737
  372MOL0     H51322   7.085  10.689   1.494  0.7444  1.2432  1.8225
  372MOL0     H51323   6.942  10.570   1.652  1.8887 -0.4698 -2.6863
  372MOL0     H51324   6.683  10.487   1.581  2.4011 -2.3343  0.3706
  372MOL0     H51325   6.758  10.444   1.738  1.4936  1.4781 -1.4693
  372MOL0     H51326   6.549  10.481   1.850  1.3777 -0.3899 -0.5273
  372MOL0     H51327   6.528  10.353   1.715 -2.5186  0.3039  0.3340
  372MOL0     H51328   6.443  10.643   1.683 -0.0679 -0.2375 -3.3466
  372MOL0     H51329   6.411  10.518   1.577  1.7176  0.0182 -0.4714
  372MOL0     H51330   6.263  10.404   1.762 -0.6235  0.1205 -1.1502
  372MOL0     H51331   6.215  10.559   1.706  0.0760 -1.6150  0.1017
  372MOL0     H51332   6.236  10.660   2.101 -1.7543  1.3365 -0.3853
  372MOL0     H51333   6.669  10.883   1.665  0.9376  1.0351  0.9204
  372MOL0     H51334   6.774  11.069   1.394 -0.6273  0.3056 -0.1669
  372MOL0     H51335   6.694  11.084   1.550  1.4314  1.3918  1.7340
  372MOL0     H51336   6.865  11.135   1.535 -0.2815 -1.0537  1.3392
  373MOL0     O51337  11.266   3.372   1.453 -0.2983 -0.6768 -0.4471
  373MOL0     C51338  11.221   3.336   1.567  0.0991  0.3025  0.0697
  373MOL0     O51339  11.293   3.270   1.662 -0.0571 -0.6443 -0.4045
  373MOL0     C51340  11.415   3.218   1.624  0.5456  0.0486  0.1165
  373MOL0     C51341  11.415   3.103   1.542  0.1524  0.2701 -0.5444
  373MOL0     C51342  11.538   3.046   1.513 -0.0172  0.5791 -0.0735
  373MOL0     C51343  11.663   3.092   1.570 -0.3853 -0.5141 -0.0726
  373MOL0     O51344  11.781   3.030   1.564  0.0620  0.3628  0.1792
  373MOL0     C51345  11.802   2.908   1.491 -0.2537  0.9758  1.1510
  373MOL0     C51346  11.936   2.842   1.532  0.1549 -0.6785 -0.9582
  373MOL0     C51347  11.998   2.745   1.429  0.1132  0.2433 -1.1228
  373MOL0     C51348  12.108   2.648   1.484 -0.5187 -0.6035 -0.5198
  373MOL0     C51349  12.232   2.724   1.543 -0.4258 -0.7512  0.4199
  373MOL0     C51350  12.339   2.625   1.581 -0.4587  0.3514 -0.1175
  373MOL0     C51351  12.488   2.686   1.602 -0.0670 -0.3302  0.3370
  373MOL0     C51352  12.498   2.799   1.703  0.1727  0.9417  0.2336
  373MOL0     N51353  12.634   2.855   1.709 -0.5913 -0.1945  0.1924
  373MOL0     C51354  12.692   2.953   1.629 -0.3270  0.7653  0.5608
  373MOL0     C51355  12.815   2.977   1.679  0.3873  0.8430  0.6690
  373MOL0     C51356  12.888   3.094   1.634 -0.4186  0.0285  0.3146
  373MOL0     C51357  13.036   3.098   1.673 -0.5586 -0.3934 -0.1045
  373MOL0     C51358  13.100   3.247   1.661  0.0041 -0.4043  0.1169
  373MOL0     C51359  13.250   3.249   1.668 -0.1400 -0.9210 -0.2059
  373MOL0     O51360  13.289   3.200   1.541  0.0537  0.1022 -0.1359
  373MOL0     C51361  13.425   3.187   1.503 -0.4537  0.0084  0.3581
  373MOL0     C51362  13.449   3.152   1.373 -1.0632  0.2735 -0.5696
  373MOL0     C51363  13.580   3.129   1.319  0.5654 -0.1449  0.7594
  373MOL0     C51364  13.572   3.111   1.172 -0.0120  0.3918 -0.0985
  373MOL0     C51365  13.690   3.156   1.396 -0.5361  0.0596 -0.8112
  373MOL0     C51366  13.829   3.151   1.345  0.6108 -0.4540 -0.6766
  373MOL0     O51367  13.927   3.192   1.429  0.0475  0.2834  0.2416
  373MOL0     C51368  14.058   3.166   1.400  0.7966 -0.4301 -1.0078
  373MOL0     C51369  14.107   3.033   1.412 -0.3188 -0.1357 -0.1368
  373MOL0     C51370  14.241   3.008   1.398  0.2896  0.1111  0.8420
  373MOL0     C51371  14.329   3.109   1.359 -0.1159 -0.1951  1.0736
  373MOL0     O51372  14.463   3.077   1.342  0.1261 -0.3693  0.3767
  373MOL0     C51373  14.554   3.166   1.408 -0.4174 -0.2145  0.6713
  373MOL0     C51374  14.693   3.100   1.412 -0.6175  0.9854 -0.3248
  373MOL0     C51375  14.798   3.194   1.461  0.1649  0.1550 -0.4036
  373MOL0     C51376  14.943   3.124   1.431  0.2239  0.4456 -0.1207
  373MOL0     C51377  15.059   3.203   1.477 -0.0766 -0.6166 -0.1345
  373MOL0     C51378  15.088   3.300   1.365  0.4664  0.6527  0.4829
  373MOL0     C51379  15.187   3.416   1.402 -0.3263 -0.2683 -0.3950
  373MOL0     C51380  15.312   3.384   1.480  0.0564 -0.4750  0.1391
  373MOL0    Cl51381  15.401   3.531   1.497 -0.5312  0.1839  0.4025
  373MOL0     C51382  14.278   3.234   1.325 -0.3192 -0.2669 -0.2771
  373MOL0     C51383  14.143   3.263   1.349  0.1127 -0.5353 -0.7023
  373MOL0     O51384  13.852   3.098   1.233  0.5304  0.0539  0.1872
  373MOL0     C51385  13.668   3.194   1.531  0.9090  0.1459 -0.3932
  373MOL0     C51386  13.538   3.205   1.588 -0.0067 -0.2291  0.5598
  373MOL0     N51387  12.822   2.902   1.801 -0.3397  0.1973  0.2671
  373MOL0     N51388  12.719   2.827   1.811  0.5609  0.8732 -0.1965
  373MOL0     C51389  11.651   3.208   1.656  0.3848 -0.0436 -0.1326
  373MOL0     C51390  11.532   3.273   1.677 -0.0790 -0.0029 -0.0847
  373MOL0     C51391  11.083   3.395   1.603  0.7233  0.0651 -0.5080
  373MOL0     C51392  11.045   3.367   1.731  0.5538 -0.0397  1.0765
  373MOL0     C51393  10.911   3.388   1.772  0.4451 -0.2769 -0.3242
  373MOL0     C51394  10.811   3.444   1.691  0.1989  0.0837  0.1124
  373MOL0     O51395  10.685   3.462   1.743  0.5233 -0.0561  0.2540
  373MOL0     C51396  10.600   3.556   1.673  0.0048  0.2167 -0.3602
  373MOL0     C51397  10.478   3.584   1.759  0.2370  0.5704 -0.6699
  373MOL0     C51398  10.357   3.649   1.672  1.2568  0.8056 -0.7754
  373MOL0     C51399  10.219   3.578   1.707 -1.1411 -0.4349 -0.5185
  373MOL0     C51400  10.206   3.440   1.658 -0.1932 -0.9545 -0.4738
  373MOL0     C51401  10.192   3.323   1.626 -1.3401  0.3009  0.8681
  373MOL0     C51402  10.848   3.472   1.559 -0.3978 -0.1930  0.7360
  373MOL0     C51403  10.990   3.459   1.516  0.1060 -0.4942 -1.2321
  373MOL0     C51404  11.021   3.491   1.375  0.0174  0.1724 -0.6722
  373MOL0     H51405  11.317   3.064   1.515 -0.7128  1.7489  0.3332
  373MOL0     H51406  11.544   2.960   1.446  3.5933  0.5079  0.1435
  373MOL0     H51407  11.805   2.939   1.386 -0.9257  2.5350  1.5662
  373MOL0     H51408  11.724   2.835   1.513 -0.3212  0.3493 -0.9502
  373MOL0     H51409  12.000   2.930   1.539 -0.0980 -0.6429  1.3761
  373MOL0     H51410  11.928   2.792   1.629 -0.6593 -1.2797 -1.3210
  373MOL0     H51411  11.921   2.695   1.369  0.0965  1.8091 -2.4890
  373MOL0     H51412  12.050   2.800   1.350  1.2548 -1.0223 -1.2884
  373MOL0     H51413  12.072   2.574   1.556  0.1018 -2.2565 -1.8316
  373MOL0     H51414  12.152   2.598   1.397  1.5083 -0.7451  0.5256
  373MOL0     H51415  12.198   2.784   1.628  1.2993  3.3618 -1.4909
  373MOL0     H51416  12.271   2.805   1.480  2.1609 -1.3418  1.1459
  373MOL0     H51417  12.304   2.582   1.675  0.3707  2.5249  1.2545
  373MOL0     H51418  12.340   2.549   1.502  1.1494 -0.5128  0.6923
  373MOL0     H51419  12.510   2.720   1.500 -2.3140  4.7918  1.2407
  373MOL0     H51420  12.565   2.619   1.641  1.7675  0.6886 -1.3550
  373MOL0     H51421  12.424   2.878   1.684 -1.1145 -0.2163  0.2008
  373MOL0     H51422  12.477   2.756   1.802  2.1650  0.5680  0.5205
  373MOL0     H51423  12.643   3.008   1.549 -1.0438  1.0531  1.1765
  373MOL0     H51424  12.838   3.183   1.673 -4.0142 -0.1248 -3.2784
  373MOL0     H51425  12.886   3.107   1.525 -7.1079  0.9217  0.1435
  373MOL0     H51426  13.049   3.055   1.773 -1.6218 -0.5047 -0.0087
  373MOL0     H51427  13.095   3.040   1.602  0.2540  1.0807 -0.6902
  373MOL0     H51428  13.065   3.291   1.568 -0.9456  1.7355  1.4031
  373MOL0     H51429  13.060   3.318   1.735 -0.7544 -1.4643  0.7516
  373MOL0     H51430  13.273   3.355   1.680  0.7785 -1.0393 -0.8018
  373MOL0     H51431  13.296   3.200   1.754  2.8475  2.4578  0.3197
  373MOL0     H51432  13.361   3.151   1.308 -0.2063 -0.0042 -1.7632
  373MOL0     H51433  13.643   3.044   1.123 -1.2034 -3.4670  2.9150
  373MOL0     H51434  13.582   3.214   1.138 -0.2648  0.1632 -0.8827
  373MOL0     H51435  13.471   3.077   1.147 -1.3538  3.1958  1.0417
  373MOL0     H51436  14.036   2.954   1.433  0.1172 -0.9855 -1.6719
  373MOL0     H51437  14.274   2.909   1.430 -0.2018  0.6265  3.0493
  373MOL0     H51438  14.565   3.256   1.348  0.6963  0.2079  1.4841
  373MOL0     H51439  14.517   3.186   1.508  1.4659 -3.4826  2.2029
  373MOL0     H51440  14.702   3.011   1.476  0.9358  0.9027 -0.6238
  373MOL0     H51441  14.715   3.069   1.310 -1.0426  0.3072 -0.2175
  373MOL0     H51442  14.784   3.192   1.569 -2.3004 -4.1011 -0.5641
  373MOL0     H51443  14.800   3.286   1.402 -0.3623  0.7834  0.5359
  373MOL0     H51444  14.957   3.089   1.329  1.9240 -3.5292  1.2713
  373MOL0     H51445  14.937   3.036   1.495 -2.1674  0.8004  0.2642
  373MOL0     H51446  15.032   3.256   1.569  2.5130 -1.9788  1.5352
  373MOL0     H51447  15.144   3.141   1.509 -1.1716 -2.0937  0.0001
  373MOL0     H51448  14.998   3.335   1.315 -0.7782 -2.4876  0.2646
  373MOL0     H51449  15.141   3.244   1.287 -1.7054  2.1180 -2.2075
  373MOL0     H51450  15.142   3.503   1.450 -1.0818 -1.1599  0.5588
  373MOL0     H51451  15.211   3.438   1.297 -0.2800 -0.4521 -0.4236
  373MOL0     H51452  15.372   3.306   1.434  0.2612 -1.1548  1.5063
  373MOL0     H51453  15.289   3.353   1.583  1.7275  0.5447  0.8614
  373MOL0     H51454  14.349   3.305   1.286  2.1825 -1.7417  1.3363
  373MOL0     H51455  14.110   3.367   1.346 -1.7606 -0.9977  1.2370
  373MOL0     H51456  13.756   3.220   1.589  0.5507  2.9195 -0.9620
  373MOL0     H51457  13.532   3.229   1.694 -0.4358 -1.1345  0.7516
  373MOL0     H51458  11.733   3.255   1.709 -1.2822  1.0230  1.6386
  373MOL0     H51459  11.508   3.356   1.743  0.2495 -0.2989  0.4148
  373MOL0     H51460  11.105   3.324   1.810 -0.5626 -1.1443  1.3708
  373MOL0     H51461  10.892   3.377   1.878 -0.0413 -0.2671 -0.4083
  373MOL0     H51462  10.646   3.655   1.668 -0.6902  0.5213 -0.8099
  373MOL0     H51463  10.565   3.527   1.573  0.0951  0.6162 -0.5092
  373MOL0     H51464  10.516   3.652   1.835  0.5411 -0.4457  0.1177
  373MOL0     H51465  10.440   3.493   1.807  0.5010  1.8015  2.0283
  373MOL0     H51466  10.352   3.754   1.701  2.6753  0.8235 -0.5372
  373MOL0     H51467  10.368   3.648   1.563 -2.3836  1.1129 -1.2778
  373MOL0     H51468  10.143   3.648   1.673  2.9922  4.8726 -0.2203
  373MOL0     H51469  10.206   3.577   1.816  3.3415  1.7413  0.3110
  373MOL0     H51470  10.172   3.219   1.610 -3.2300  0.9670 -1.9402
  373MOL0     H51471  10.767   3.492   1.490 -1.8017  0.3509  2.4609
  373MOL0     H51472  11.118   3.542   1.382  1.5125 -2.6808  1.3583
  373MOL0     H51473  11.034   3.396   1.323  2.9268 -1.7275  2.9782
  373MOL0     H51474  10.944   3.550   1.326  1.5920  2.5751 -0.4354
  374MOL0     O51475   5.832   4.000   2.139 -0.9981  0.3095  0.6491
  374MOL0     C51476   5.806   4.107   2.086 -0.2781  0.0014 -0.4203
  374MOL0     O51477   5.891   4.193   2.033 -0.3135  0.4243 -0.4731
  374MOL0     C51478   6.027   4.173   2.023 -0.1086 -0.2340 -0.2194
  374MOL0     C51479   6.130   4.248   2.094  0.7165  0.0475 -0.0713
  374MOL0     C51480   6.266   4.222   2.068  0.2690 -0.6160  0.3323
  374MOL0     C51481   6.304   4.130   1.977 -0.0739 -0.2225  0.0700
  374MOL0     O51482   6.435   4.107   1.949 -0.8445 -0.3361 -0.1819
  374MOL0     C51483   6.518   4.214   1.919  0.7336  0.1460  0.6128
  374MOL0     C51484   6.643   4.153   1.869  0.3458 -0.6889  1.0606
  374MOL0     C51485   6.745   4.255   1.811  0.2915 -0.1431  0.0180
  374MOL0     C51486   6.869   4.176   1.759  0.0197 -0.4258 -0.4494
  374MOL0     C51487   6.978   4.278   1.719  0.3959 -0.4414 -0.0217
  374MOL0     C51488   7.112   4.185   1.717 -0.5959 -0.0979  0.1343
  374MOL0     C51489   7.226   4.278   1.713 -0.9940 -0.2889 -0.4611
  374MOL0     C51490   7.214   4.413   1.640 -0.0737  0.3655 -0.3065
  374MOL0     N51491   7.341   4.477   1.621  0.0731 -0.2769 -0.5909
  374MOL0     C51492   7.396   4.526   1.506 -0.3785 -0.6762 -0.2726
  374MOL0     C51493   7.519   4.564   1.547  0.2946  0.5180 -0.8077
  374MOL0     C51494   7.627   4.615   1.457 -0.0871  0.7677  0.0464
  374MOL0     C51495   7.776   4.566   1.486  0.4342 -0.3897  0.3242
  374MOL0     C51496   7.864   4.664   1.415  0.4070  0.4968 -0.4377
  374MOL0     C51497   7.941   4.775   1.501  0.0572  0.0526  0.0852
  374MOL0     O51498   7.872   4.784   1.622  0.2262 -1.0744  0.4120
  374MOL0     C51499   7.931   4.840   1.727  0.1289  0.1128 -0.1720
  374MOL0     C51500   8.043   4.924   1.723 -0.2090 -0.0768  0.1568
  374MOL0     C51501   8.103   4.971   1.844  0.3060  0.1060  0.8148
  374MOL0     C51502   8.219   5.063   1.834 -0.0027 -0.3790  0.3841
  374MOL0     C51503   8.049   4.923   1.971  0.5761  1.0295  0.8561
  374MOL0     C51504   8.097   4.960   2.106 -0.2162 -0.1441  0.1293
  374MOL0     O51505   8.161   5.079   2.118  0.1549  0.8603  0.4718
  374MOL0     C51506   8.229   5.099   2.230  0.7417  0.2888  0.6660
  374MOL0     C51507   8.358   5.086   2.220 -0.1394 -0.1808  1.1241
  374MOL0     C51508   8.445   5.107   2.332  0.2621  0.3335  0.1141
  374MOL0     C51509   8.394   5.135   2.455 -0.8730  0.3095  0.0016
  374MOL0     O51510   8.482   5.153   2.560 -0.1216  0.3636  0.0867
  374MOL0     C51511   8.441   5.238   2.671  0.2944 -0.3542 -0.6522
  374MOL0     C51512   8.558   5.312   2.743  0.0788  0.3945 -0.0387
  374MOL0     C51513   8.659   5.209   2.771  0.6101 -1.0090  0.6902
  374MOL0     C51514   8.777   5.263   2.858  0.0263  0.1069 -0.1117
  374MOL0     C51515   8.901   5.170   2.841 -0.3719  0.5258 -0.2985
  374MOL0     C51516   9.025   5.206   2.925 -0.9421 -0.1040 -0.3093
  374MOL0     C51517   9.007   5.201   3.076  0.3299 -0.7468  0.4727
  374MOL0     C51518   9.134   5.229   3.157 -1.0285 -0.0861  0.0150
  374MOL0    Cl51519   9.184   5.394   3.164  0.0276  0.6904  0.1441
  374MOL0     C51520   8.261   5.152   2.461 -0.0775 -0.2243 -0.3566
  374MOL0     C51521   8.174   5.147   2.351 -0.0730  0.2234  0.6059
  374MOL0     O51522   8.091   4.872   2.193  0.4901  0.6878  0.5294
  374MOL0     C51523   7.937   4.836   1.968  0.5962  0.6537  0.0476
  374MOL0     C51524   7.877   4.803   1.846  0.2304  0.7172  0.2571
  374MOL0     N51525   7.527   4.552   1.685 -0.4031 -0.6225  0.8414
  374MOL0     N51526   7.418   4.504   1.728 -0.0919  0.5674 -0.2613
  374MOL0     C51527   6.204   4.053   1.908 -0.0595  0.1163  0.3382
  374MOL0     C51528   6.065   4.079   1.926  0.4111  0.3088  0.2187
  374MOL0     C51529   5.664   4.146   2.121  0.7875 -0.1903 -0.1939
  374MOL0     C51530   5.576   4.050   2.172  0.4800  0.5691 -0.6638
  374MOL0     C51531   5.453   4.078   2.225  0.7140 -0.5752  0.1165
  374MOL0     C51532   5.406   4.210   2.222  0.0669 -0.0459  0.3316
  374MOL0     O51533   5.283   4.245   2.274 -0.1138  0.2175 -0.0497
  374MOL0     C51534   5.196   4.144   2.334 -0.3052  0.7171 -0.6338
  374MOL0     C51535   5.060   4.200   2.377 -0.4975  0.4322  0.2593
  374MOL0     C51536   5.079   4.276   2.510  0.1253 -0.9356  0.1237
  374MOL0     C51537   5.088   4.182   2.636  0.4762 -0.1413  0.1415
  374MOL0     C51538   4.957   4.134   2.669  0.7991 -0.2122 -0.2419
  374MOL0     C51539   4.854   4.087   2.712 -0.2115  0.3114 -0.2714
  374MOL0     C51540   5.487   4.306   2.161  0.9373 -0.3424 -0.4130
  374MOL0     C51541   5.613   4.275   2.105  0.9085 -0.4255  0.4229
  374MOL0     C51542   5.679   4.379   2.013 -0.6821 -0.5148 -0.2507
  374MOL0     H51543   6.100   4.326   2.163  1.5619  0.2161  0.1172
  374MOL0     H51544   6.341   4.282   2.118  0.2184 -1.3899  1.3677
  374MOL0     H51545   6.541   4.270   2.010  1.7713 -1.6457  1.5189
  374MOL0     H51546   6.465   4.276   1.846 -1.9423 -1.4979  1.0095
  374MOL0     H51547   6.680   4.112   1.964 -1.4729  0.4452  2.3393
  374MOL0     H51548   6.620   4.078   1.793 -0.8362 -0.1672  0.8819
  374MOL0     H51549   6.700   4.311   1.729  0.7199  2.4906  1.4772
  374MOL0     H51550   6.771   4.331   1.885  0.4469 -1.9235  1.8755
  374MOL0     H51551   6.908   4.121   1.845 -1.0377  0.6344  0.7444
  374MOL0     H51552   6.841   4.109   1.678  0.0990  0.5126 -1.2692
  374MOL0     H51553   6.975   4.364   1.786  1.6286  1.1826 -1.9436
  374MOL0     H51554   6.968   4.320   1.619 -0.2358  1.7321  0.9063
  374MOL0     H51555   7.119   4.120   1.804 -1.7380 -1.9742 -1.1014
  374MOL0     H51556   7.103   4.120   1.629 -2.2143  2.4209 -1.6973
  374MOL0     H51557   7.310   4.223   1.669 -0.7835 -0.3461  0.0021
  374MOL0     H51558   7.244   4.295   1.819 -1.2402 -0.1945 -0.4328
  374MOL0     H51559   7.155   4.405   1.548 -0.2941  0.5748 -0.1849
  374MOL0     H51560   7.163   4.488   1.701 -0.2609  0.7816 -0.9679
  374MOL0     H51561   7.367   4.528   1.401 -0.5242  1.3197 -0.2340
  374MOL0     H51562   7.623   4.724   1.448 -3.8856  1.0285  2.4044
  374MOL0     H51563   7.602   4.574   1.359 -0.8281  2.3671 -0.4671
  374MOL0     H51564   7.788   4.562   1.594  1.8426 -0.6198  0.1826
  374MOL0     H51565   7.792   4.466   1.443 -1.7995 -1.0216  0.8056
  374MOL0     H51566   7.940   4.602   1.367  2.4649  0.9590  2.0112
  374MOL0     H51567   7.813   4.709   1.329  2.2650  0.6465 -1.5302
  374MOL0     H51568   8.039   4.738   1.532 -1.2627 -2.5039  1.5560
  374MOL0     H51569   7.947   4.870   1.448  1.5161 -0.8573 -1.4984
  374MOL0     H51570   8.079   4.940   1.622  0.0058 -2.7494 -0.2741
  374MOL0     H51571   8.292   5.011   1.896  0.9613  2.1015  1.4302
  374MOL0     H51572   8.186   5.157   1.879 -2.2113 -1.1714  0.5888
  374MOL0     H51573   8.242   5.082   1.729  0.3271  2.0172  0.8397
  374MOL0     H51574   8.395   5.059   2.121 -3.5253  1.1671 -0.6801
  374MOL0     H51575   8.550   5.078   2.329 -0.3555 -2.2560  0.7733
  374MOL0     H51576   8.359   5.307   2.649 -0.3903 -0.8716  0.2340
  374MOL0     H51577   8.392   5.165   2.737  2.8714 -0.8948  0.8132
  374MOL0     H51578   8.608   5.392   2.689  0.5585 -0.6438 -1.1643
  374MOL0     H51579   8.512   5.343   2.838 -1.3379  2.1354 -1.2332
  374MOL0     H51580   8.697   5.177   2.674  0.6947  1.3125 -0.1032
  374MOL0     H51581   8.613   5.120   2.816 -3.5348 -0.1378 -1.2583
  374MOL0     H51582   8.758   5.270   2.965  1.4433 -1.1978  0.2645
  374MOL0     H51583   8.790   5.369   2.832 -1.9151  0.7469  1.2317
  374MOL0     H51584   8.877   5.069   2.877  2.6287  0.3449  1.5312
  374MOL0     H51585   8.920   5.159   2.733 -0.1724 -2.9521 -0.0343
  374MOL0     H51586   9.076   5.299   2.897  0.5473 -0.3969  1.2704
  374MOL0     H51587   9.092   5.123   2.901  0.0817  1.2641 -2.5740
  374MOL0     H51588   8.967   5.102   3.100  0.1210 -0.7555  0.1039
  374MOL0     H51589   8.932   5.278   3.097 -0.2569 -0.3282 -2.5693
  374MOL0     H51590   9.218   5.170   3.121 -0.8794  0.8174 -1.1844
  374MOL0     H51591   9.098   5.199   3.256  0.4617  0.5536  0.7784
  374MOL0     H51592   8.202   5.160   2.552 -2.4812 -4.5080 -1.2735
  374MOL0     H51593   8.074   5.185   2.365  0.1941  0.9570  0.5757
  374MOL0     H51594   7.886   4.798   2.056  1.1179 -0.8326 -0.2612
  374MOL0     H51595   7.789   4.739   1.847 -0.3935  1.5547  0.3882
  374MOL0     H51596   6.234   3.983   1.830  1.1978  1.0908 -0.0780
  374MOL0     H51597   5.995   4.023   1.866  0.4897  1.3526 -0.9044
  374MOL0     H51598   5.615   3.949   2.171  0.0255  0.2634  2.4352
  374MOL0     H51599   5.393   3.998   2.268 -0.7823  0.3422 -0.1770
  374MOL0     H51600   5.181   4.061   2.264  0.6161  0.7484 -0.8796
  374MOL0     H51601   5.250   4.111   2.422 -0.8774  1.9068  0.1907
  374MOL0     H51602   4.996   4.111   2.384 -0.5349  0.1492 -2.4927
  374MOL0     H51603   5.008   4.259   2.301 -0.0032  0.4752 -0.0530
  374MOL0     H51604   5.169   4.339   2.509 -2.0501  2.4331  0.5274
  374MOL0     H51605   5.000   4.351   2.523 -0.0905 -0.0055 -4.5452
  374MOL0     H51606   5.128   4.238   2.721  0.7671 -2.4091  1.5926
  374MOL0     H51607   5.154   4.096   2.620 -0.4608 -0.6531 -1.1019
  374MOL0     H51608   4.764   4.049   2.755  0.4542 -0.5281  0.4136
  374MOL0     H51609   5.445   4.405   2.158  0.1314 -0.6934 -1.7862
  374MOL0     H51610   5.676   4.334   1.913 -0.2614 -2.4238  0.5514
  374MOL0     H51611   5.632   4.477   2.001  0.6850 -0.0160 -1.8020
  374MOL0     H51612   5.778   4.399   2.055 -0.7797 -1.2950  0.3918
  375MOL0     O51613   7.123   8.216  10.982  0.4966 -0.2152  0.4207
  375MOL0     C51614   7.013   8.163  11.016 -0.1822  0.2120  0.4326
  375MOL0     O51615   6.959   8.054  10.957 -0.5249 -0.0375 -0.1768
  375MOL0     C51616   7.023   7.985  10.851 -0.1381  0.0074  0.3567
  375MOL0     C51617   7.151   7.925  10.857 -0.1125  0.5288  0.0056
  375MOL0     C51618   7.207   7.864  10.744 -0.3850  0.1349 -0.1277
  375MOL0     C51619   7.138   7.856  10.628  0.5007  0.6967  0.7004
  375MOL0     O51620   7.204   7.793  10.520 -0.0293  0.7666 -0.0734
  375MOL0     C51621   7.195   7.859  10.392  0.5282  0.3782 -0.3644
  375MOL0     C51622   7.273   7.781  10.279  0.0091  0.7195  0.3378
  375MOL0     C51623   7.403   7.731  10.334  0.4160 -0.0351 -0.2670
  375MOL0     C51624   7.459   7.614  10.261  0.9574 -0.2699  1.1969
  375MOL0     C51625   7.590   7.559  10.320  0.2047  0.7162  0.0402
  375MOL0     C51626   7.614   7.419  10.271  0.4224 -0.2511  0.0063
  375MOL0     C51627   7.764   7.382  10.281  0.7617 -0.0384 -0.3737
  375MOL0     C51628   7.772   7.227  10.260 -0.1518  0.5103  0.1037
  375MOL0     N51629   7.885   7.173  10.185  0.5565  0.3436 -0.0501
  375MOL0     C51630   8.014   7.225  10.181 -0.3394  0.0198 -0.4993
  375MOL0     C51631   8.079   7.145  10.093 -0.1145 -0.6168 -0.3143
  375MOL0     C51632   8.220   7.176  10.042  0.3953 -0.3309 -0.1026
  375MOL0     C51633   8.261   7.074   9.938 -0.1922  0.5243 -0.3227
  375MOL0     C51634   8.383   7.123   9.867 -0.1347  0.2617 -0.2670
  375MOL0     C51635   8.510   7.156   9.949 -0.4968  0.4080  0.1828
  375MOL0     O51636   8.536   7.040  10.019  0.1347  0.9244  0.2001
  375MOL0     C51637   8.660   7.043  10.084  0.4351 -0.8565  0.7282
  375MOL0     C51638   8.674   7.100  10.208  0.2003 -0.3109 -0.2956
  375MOL0     C51639   8.794   7.120  10.268 -0.4183  1.0219 -0.2040
  375MOL0     C51640   8.789   7.196  10.407  0.5713  0.3426  0.2529
  375MOL0     C51641   8.918   7.066  10.209  0.0781 -0.2574  0.3523
  375MOL0     C51642   9.053   7.093  10.256  0.0001 -0.0918  0.0246
  375MOL0     O51643   9.149   7.007  10.209 -0.4093 -0.1896  0.3371
  375MOL0     C51644   9.280   7.004  10.262  0.1365  1.0692 -0.8043
  375MOL0     C51645   9.326   6.893  10.333 -1.2830  0.4589 -0.0638
  375MOL0     C51646   9.458   6.886  10.388  0.2252  1.0088  0.0443
  375MOL0     C51647   9.544   6.996  10.379 -0.2835 -0.0369 -0.2627
  375MOL0     O51648   9.676   6.975  10.423  0.1693 -0.5821  0.3351
  375MOL0     C51649   9.765   7.089  10.396  0.0922 -0.0077  0.2800
  375MOL0     C51650   9.814   7.080  10.253 -0.3295  0.0902  0.0289
  375MOL0     C51651   9.880   6.947  10.220  0.7116 -0.4923  0.1762
  375MOL0     C51652   9.965   6.956  10.087  0.3154 -0.0561 -0.4675
  375MOL0     C51653  10.050   6.836  10.065  0.2725  0.8172  0.1107
  375MOL0     C51654  10.144   6.796  10.171  0.2911  0.2049 -0.3194
  375MOL0     C51655  10.234   6.904  10.222 -0.3627 -1.0312 -1.0020
  375MOL0     C51656  10.325   6.847  10.335 -0.8608 -0.4844 -0.3643
  375MOL0    Cl51657  10.454   6.970  10.368  0.1344  0.0233  0.0168
  375MOL0     C51658   9.496   7.107  10.306 -0.4568 -0.8483  0.2997
  375MOL0     C51659   9.369   7.110  10.252  0.4819  1.2738  0.1170
  375MOL0     O51660   9.074   7.176  10.340  0.0482  0.7352  0.2039
  375MOL0     C51661   8.897   7.001  10.093  1.3406  0.6033  0.1316
  375MOL0     C51662   8.771   6.984  10.026 -0.7768  0.1129 -0.1852
  375MOL0     N51663   7.993   7.045  10.039 -0.2702 -0.6419 -0.5707
  375MOL0     N51664   7.876   7.079  10.090  0.2010  0.1631 -0.4119
  375MOL0     C51665   7.011   7.912  10.620 -0.4383 -0.1063 -0.1326
  375MOL0     C51666   6.955   7.975  10.732 -0.1671  0.5653  0.2542
  375MOL0     C51667   6.928   8.237  11.113 -0.1459  0.7530  0.1936
  375MOL0     C51668   6.982   8.357  11.161  0.2510  0.0683 -1.1243
  375MOL0     C51669   6.890   8.443  11.230 -0.7196 -0.0789 -0.3949
  375MOL0     C51670   6.763   8.400  11.261  0.1679  0.0833 -0.1033
  375MOL0     O51671   6.666   8.470  11.326  0.5216 -0.6951 -0.1067
  375MOL0     C51672   6.686   8.605  11.373  1.0200  0.5247  0.3814
  375MOL0     C51673   6.773   8.604  11.509 -0.3954 -0.0140  0.2726
  375MOL0     C51674   6.714   8.528  11.625 -0.7056  0.3846 -0.0172
  375MOL0     C51675   6.613   8.601  11.712 -0.5523  0.0170 -0.2688
  375MOL0     C51676   6.668   8.723  11.767 -0.1187  0.7359  0.4119
  375MOL0     C51677   6.720   8.818  11.825 -0.8114 -0.4843 -0.0604
  375MOL0     C51678   6.721   8.272  11.236 -1.5218  0.8614 -0.2841
  375MOL0     C51679   6.805   8.189  11.161  0.2860  0.3333 -0.6161
  375MOL0     C51680   6.760   8.043  11.147  0.2368  0.4583  0.4192
  375MOL0     H51681   7.204   7.945  10.949  0.7927  0.6358 -0.5224
  375MOL0     H51682   7.302   7.812  10.755 -1.5558 -1.6667  2.2616
  375MOL0     H51683   7.235   7.961  10.389  2.5036 -0.3617 -1.0243
  375MOL0     H51684   7.092   7.856  10.357  0.7421 -3.4586 -1.1341
  375MOL0     H51685   7.210   7.699  10.245  1.4069 -0.4975  0.5621
  375MOL0     H51686   7.285   7.836  10.186  0.6808  0.2820  0.1532
  375MOL0     H51687   7.454   7.825  10.312  0.9010 -0.2170  0.0704
  375MOL0     H51688   7.390   7.722  10.442 -2.8069  3.5070 -0.1828
  375MOL0     H51689   7.394   7.526  10.261 -0.6021  0.8375  0.1552
  375MOL0     H51690   7.471   7.645  10.156  0.4051 -2.4971  0.4238
  375MOL0     H51691   7.587   7.547  10.429 -0.5896 -1.6576 -0.1991
  375MOL0     H51692   7.668   7.631  10.295 -0.1033  1.6751  1.6428
  375MOL0     H51693   7.557   7.350  10.334  0.4785 -1.5455 -1.3172
  375MOL0     H51694   7.580   7.396  10.170  2.1381 -1.8221 -0.2512
  375MOL0     H51695   7.793   7.410  10.383 -1.2880  0.8469  0.0052
  375MOL0     H51696   7.818   7.436  10.203  0.1596 -1.8114 -2.0905
  375MOL0     H51697   7.771   7.181  10.359 -1.2985 -1.1805 -0.6506
  375MOL0     H51698   7.695   7.194  10.190 -2.7657  1.9992  2.1203
  375MOL0     H51699   8.050   7.312  10.235  0.8137 -1.2343  0.8221
  375MOL0     H51700   8.295   7.160  10.120 -1.6308 -3.0010  1.4696
  375MOL0     H51701   8.240   7.277  10.007 -1.0078 -1.0987 -3.5271
  375MOL0     H51702   8.278   6.976   9.983  2.6563  1.9021  1.8950
  375MOL0     H51703   8.184   7.063   9.861 -1.4887  0.8950  0.8796
  375MOL0     H51704   8.403   7.052   9.786 -1.8595 -1.3739  0.6580
  375MOL0     H51705   8.363   7.219   9.818 -0.0009 -0.6571 -2.1993
  375MOL0     H51706   8.600   7.176   9.891  0.7054 -0.9265  1.4730
  375MOL0     H51707   8.499   7.231  10.028  0.4693 -0.1526  0.8784
  375MOL0     H51708   8.585   7.147  10.248  0.4914 -1.3445  1.6733
  375MOL0     H51709   8.823   7.299  10.388  0.8166  0.4342  1.1624
  375MOL0     H51710   8.870   7.144  10.459  2.3379  0.5250 -2.1065
  375MOL0     H51711   8.693   7.193  10.459 -0.1051  1.3070 -0.8748
  375MOL0     H51712   9.268   6.803  10.346  1.5933 -1.6418 -0.7647
  375MOL0     H51713   9.486   6.794  10.439 -0.6740  0.5242 -0.3308
  375MOL0     H51714   9.726   7.188  10.421 -1.5540  0.2955 -2.9779
  375MOL0     H51715   9.848   7.081  10.467  0.0162 -0.0936  0.3601
  375MOL0     H51716   9.729   7.102  10.188 -0.3868 -1.9422 -0.6397
  375MOL0     H51717   9.896   7.150  10.231 -0.9567  1.0860  0.7769
  375MOL0     H51718   9.810   6.863  10.222  2.1332 -1.7441 -0.0491
  375MOL0     H51719   9.944   6.926  10.307  0.3628 -0.0309  0.5480
  375MOL0     H51720  10.031   7.043  10.094 -1.0175  0.8726  1.6336
  375MOL0     H51721   9.900   6.973  10.001  0.0001 -1.2538 -0.4920
  375MOL0     H51722   9.983   6.752  10.044  0.9805  0.4458 -0.7186
  375MOL0     H51723  10.110   6.849   9.975  2.6198 -3.1730  0.8841
  375MOL0     H51724  10.206   6.720  10.122  0.1707 -0.1594  0.0877
  375MOL0     H51725  10.107   6.742  10.259  1.1445 -1.6612 -1.0389
  375MOL0     H51726  10.186   6.996  10.259  2.0359  0.3174 -1.0269
  375MOL0     H51727  10.298   6.943  10.143 -2.3517  0.8073 -1.8290
  375MOL0     H51728  10.366   6.760  10.283 -0.8787  0.5836 -2.2839
  375MOL0     H51729  10.270   6.814  10.424  0.3582  2.0832  1.4696
  375MOL0     H51730   9.557   7.194  10.283 -0.9915 -0.4513  0.3578
  375MOL0     H51731   9.317   7.198  10.216 -1.6480  0.6215  1.3529
  375MOL0     H51732   8.980   6.971  10.029  1.4585 -1.7820  1.3156
  375MOL0     H51733   8.748   6.937   9.930 -0.2727 -1.1289  0.2867
  375MOL0     H51734   6.958   7.916  10.526  0.8244 -1.5855 -0.9698
  375MOL0     H51735   6.852   8.010  10.737 -0.6166 -0.0956 -2.6157
  375MOL0     H51736   7.081   8.392  11.133  0.9952  0.1935  1.3992
  375MOL0     H51737   6.923   8.541  11.262  0.2878 -0.1444 -1.1954
  375MOL0     H51738   6.723   8.662  11.288 -2.7470  0.8223 -1.2504
  375MOL0     H51739   6.589   8.653  11.390  0.1090  0.1211 -3.0271
  375MOL0     H51740   6.790   8.708  11.540  0.9254 -0.1598  0.1135
  375MOL0     H51741   6.864   8.545  11.492 -1.0305 -1.1814  0.8189
  375MOL0     H51742   6.662   8.436  11.596 -3.3014  0.2654  4.1917
  375MOL0     H51743   6.797   8.491  11.687 -1.6575 -1.9768 -0.0341
  375MOL0     H51744   6.583   8.533  11.793 -0.5765 -0.2079 -0.4648
  375MOL0     H51745   6.517   8.614  11.660 -1.4312 -2.0374  0.7014
  375MOL0     H51746   6.761   8.904  11.874  2.1948 -0.2115 -2.7225
  375MOL0     H51747   6.636   8.228  11.286  1.4747 -2.6670  2.3312
  375MOL0     H51748   6.823   7.968  11.195 -4.4342 -2.6237  2.5640
  375MOL0     H51749   6.669   8.031  11.207  0.0419 -1.4969 -0.1649
  375MOL0     H51750   6.724   8.014  11.047  1.0988  0.4312  0.1160
  376MOL0     O51751   0.169  11.286  11.163 -0.0209  0.7213 -0.5243
  376MOL0     C51752   0.150  11.286  11.042  0.0935  0.3424  0.5597
  376MOL0     O51753   0.220  11.358  10.955 -0.2388  0.6735  0.1979
  376MOL0     C51754   0.336  11.428  10.984 -0.5765  0.3905 -0.2618
  376MOL0     C51755   0.436  11.391  11.075  1.0396 -0.5531  0.0235
  376MOL0     C51756   0.535  11.475  11.106  0.2108 -0.0048  0.2754
  376MOL0     C51757   0.556  11.599  11.050  0.2593 -0.6562  0.3026
  376MOL0     O51758   0.668  11.669  11.074  0.1908  0.0828 -0.0346
  376MOL0     C51759   0.651  11.812  11.079  0.0645 -0.2244 -1.2005
  376MOL0     C51760   0.765  11.889  11.147 -0.1938  0.1206 -0.6814
  376MOL0     C51761   0.801  11.837  11.290  0.2883  0.2330  0.1207
  376MOL0     C51762   0.912  11.908  11.346 -0.5690 -0.7071  0.0973
  376MOL0     C51763   0.956  11.828  11.471  0.3276 -0.4798  0.4056
  376MOL0     C51764   1.076  11.893  11.534  0.3250 -0.1970 -0.4006
  376MOL0     C51765   1.153  11.797  11.623  0.7182  0.2409 -0.1223
  376MOL0     C51766   1.282  11.860  11.681  0.5337  0.4803  0.5068
  376MOL0     N51767   1.357  11.753  11.743  0.4243 -0.1508  0.2122
  376MOL0     C51768   1.375  11.623  11.693 -0.6854 -1.1327 -0.0175
  376MOL0     C51769   1.472  11.577  11.772 -0.3151  0.2691 -0.7750
  376MOL0     C51770   1.545  11.442  11.744  0.4172 -0.4626 -0.3506
  376MOL0     C51771   1.651  11.417  11.852 -0.7182  0.3495  0.0830
  376MOL0     C51772   1.760  11.310  11.818 -0.6943  0.2948 -0.6948
  376MOL0     C51773   1.861  11.299  11.935  0.6714 -0.1572  0.2977
  376MOL0     O51774   1.938  11.185  11.907 -0.2010 -0.4060 -0.4948
  376MOL0     C51775   2.071  11.164  11.944 -0.1691 -0.6934 -0.5840
  376MOL0     C51776   2.142  11.257  12.023  0.5994  0.6836  0.0870
  376MOL0     C51777   2.262  11.213  12.082 -0.5635 -0.4807 -0.5615
  376MOL0     C51778   2.331  11.316  12.173  0.3837 -0.4205  0.6077
  376MOL0     C51779   2.306  11.082  12.072 -0.8089 -0.3165  0.1110
  376MOL0     C51780   2.433  11.035  12.136 -0.1503  0.7212  0.2452
  376MOL0     O51781   2.449  10.893  12.160 -0.5984  0.1206 -0.3224
  376MOL0     C51782   2.545  10.824  12.228 -0.5268  0.3018  0.2059
  376MOL0     C51783   2.514  10.695  12.278 -0.0222  0.1038 -0.7288
  376MOL0     C51784   2.617  10.617  12.339  0.4624 -1.4177  0.0896
  376MOL0     C51785   2.752  10.664  12.336 -0.5365  0.4885  0.2944
  376MOL0     O51786   2.858  10.589  12.376  0.3828  0.0484  0.3908
  376MOL0     C51787   2.838  10.465  12.441 -0.7879 -0.1465  0.7562
  376MOL0     C51788   2.976  10.408  12.475  0.6498 -0.1930  0.2145
  376MOL0     C51789   3.053  10.356  12.355 -0.1477 -0.3482 -0.0995
  376MOL0     C51790   3.208  10.370  12.351  0.0090  0.3160  0.5529
  376MOL0     C51791   3.276  10.322  12.224 -0.1620  0.2951  0.0354
  376MOL0     C51792   3.433  10.340  12.239 -0.1733 -0.8547  0.1556
  376MOL0     C51793   3.520  10.316  12.113  0.2117 -0.0599  0.0601
  376MOL0     C51794   3.665  10.322  12.149  0.8557  0.9176 -0.9848
  376MOL0    Cl51795   3.701  10.460  12.244  0.4503  0.0627 -0.3929
  376MOL0     C51796   2.781  10.786  12.278 -0.3637  0.3677  0.1451
  376MOL0     C51797   2.683  10.873  12.235 -0.4791  0.1880 -0.1681
  376MOL0     O51798   2.521  11.117  12.159  0.4294  0.1300 -0.6104
  376MOL0     C51799   2.247  11.001  11.979 -0.0411 -0.3189  0.4411
  376MOL0     C51800   2.126  11.038  11.916 -0.1406  0.0874 -0.0907
  376MOL0     N51801   1.494  11.662  11.880 -0.7025  0.0568 -0.0527
  376MOL0     N51802   1.424  11.765  11.863  0.0752  0.1172  0.4314
  376MOL0     C51803   0.456  11.640  10.953 -0.4289  0.0299  0.0119
  376MOL0     C51804   0.351  11.555  10.919 -0.0022  0.2176 -0.5365
  376MOL0     C51805   0.037  11.215  10.985  0.1589  0.0278 -1.1044
  376MOL0     C51806  -0.034  11.282  10.884 -0.4966  0.0757  0.1920
  376MOL0     C51807  -0.142  11.235  10.827 -0.1071 -0.2829 -0.0750
  376MOL0     C51808  -0.183  11.105  10.850  0.1246 -0.7426  0.0467
  376MOL0     O51809  -0.296  11.040  10.805 -0.0633 -0.3060  0.6868
  376MOL0     C51810  -0.346  11.105  10.685 -0.2292  0.2931  0.4905
  376MOL0     C51811  -0.422  11.006  10.586  0.0403  0.0291  0.2251
  376MOL0     C51812  -0.339  10.892  10.527 -0.0889 -0.7933 -0.0238
  376MOL0     C51813  -0.430  10.786  10.460  0.6575  0.5694 -0.7083
  376MOL0     C51814  -0.479  10.681  10.554 -0.4083 -0.4103 -0.2075
  376MOL0     C51815  -0.495  10.575  10.615  0.2162 -0.6911  0.0527
  376MOL0     C51816  -0.127  11.035  10.958 -0.4646 -0.0399  0.2215
  376MOL0     C51817  -0.018  11.094  11.032  0.0093  0.0474 -0.0538
  376MOL0     C51818   0.044  11.013  11.145 -0.2306  0.4519 -0.9339
  376MOL0     H51819   0.425  11.289  11.111 -1.4004 -0.6295 -0.7269
  376MOL0     H51820   0.619  11.449  11.169  0.2729  0.6636  0.4749
  376MOL0     H51821   0.562  11.835  11.138  1.3493 -3.5238  2.5403
  376MOL0     H51822   0.646  11.855  10.979  0.3310  1.6868 -0.4473
  376MOL0     H51823   0.849  11.879  11.079  0.9584 -1.5074  0.8768
  376MOL0     H51824   0.742  11.996  11.141  0.9083  0.5073  1.2896
  376MOL0     H51825   0.715  11.840  11.358 -1.0674  3.5833 -1.5190
  376MOL0     H51826   0.830  11.732  11.277 -2.9467 -0.6701 -0.7562
  376MOL0     H51827   0.985  11.916  11.265 -2.6351  0.3616 -1.7657
  376MOL0     H51828   0.872  12.004  11.381 -2.5534 -1.5037  0.1806
  376MOL0     H51829   0.981  11.728  11.435 -3.4288 -1.8213  1.0583
  376MOL0     H51830   0.871  11.823  11.540 -2.0677  0.7095 -2.2547
  376MOL0     H51831   1.141  11.935  11.456  2.2986 -1.7763  0.3008
  376MOL0     H51832   1.047  11.978  11.597  2.3043 -0.5971  1.1555
  376MOL0     H51833   1.183  11.713  11.559 -1.2138 -0.9123  0.4344
  376MOL0     H51834   1.086  11.751  11.695 -2.6524  0.4318 -2.8362
  376MOL0     H51835   1.336  11.911  11.600 -0.4333 -0.1611 -0.5747
  376MOL0     H51836   1.259  11.937  11.756  2.1469  2.7306 -1.1469
  376MOL0     H51837   1.333  11.581  11.602 -0.7129 -0.6434 -0.2334
  376MOL0     H51838   1.594  11.456  11.647  4.9013  1.8794  1.9144
  376MOL0     H51839   1.475  11.359  11.737  0.5126 -0.6158  0.4069
  376MOL0     H51840   1.702  11.508  11.883  1.8600 -1.7833  2.6138
  376MOL0     H51841   1.592  11.390  11.940 -2.5638  1.7799 -0.6649
  376MOL0     H51842   1.711  11.213  11.804  0.3604 -0.2368 -0.7951
  376MOL0     H51843   1.812  11.345  11.728  0.5795  2.3626  0.7543
  376MOL0     H51844   1.922  11.390  11.942 -0.4910  0.8585 -1.7815
  376MOL0     H51845   1.786  11.292  12.014 -2.2047 -2.0453 -2.3641
  376MOL0     H51846   2.105  11.356  12.047  0.1850  0.6495 -0.3892
  376MOL0     H51847   2.421  11.354  12.125 -0.0301 -3.5997 -3.1985
  376MOL0     H51848   2.366  11.280  12.270  1.7275 -2.0141 -0.4113
  376MOL0     H51849   2.267  11.400  12.201 -0.0762 -0.9397  1.1561
  376MOL0     H51850   2.410  10.664  12.272  0.0078  0.1748 -1.7908
  376MOL0     H51851   2.589  10.521  12.379 -0.8833 -0.1904  2.3091
  376MOL0     H51852   2.777  10.479  12.531 -1.2672 -0.3361  0.4648
  376MOL0     H51853   2.786  10.390  12.381  1.7649 -0.4253 -1.2682
  376MOL0     H51854   3.034  10.481  12.531  3.1525 -1.5624 -0.4685
  376MOL0     H51855   2.948  10.327  12.543 -1.1117 -1.2775 -1.6708
  376MOL0     H51856   3.000  10.406  12.274 -2.7957 -2.0160  0.4638
  376MOL0     H51857   3.028  10.251  12.338 -3.1688 -0.0204  1.4493
  376MOL0     H51858   3.242  10.320  12.441  2.2435  1.2787  0.3230
  376MOL0     H51859   3.223  10.478  12.364 -4.0813  1.2394 -0.6662
  376MOL0     H51860   3.259  10.216  12.202 -0.9345  0.2536  0.8019
  376MOL0     H51861   3.243  10.379  12.137 -1.1453  0.2998  0.4060
  376MOL0     H51862   3.473  10.284  12.324  0.0936 -0.5428  0.2376
  376MOL0     H51863   3.449  10.444  12.269  1.5507 -0.9698 -0.2715
  376MOL0     H51864   3.488  10.389  12.038  0.5735  1.4710  1.3533
  376MOL0     H51865   3.490  10.221  12.068 -1.1148  0.3808 -0.0107
  376MOL0     H51866   3.728  10.324  12.060  0.8795 -2.2269 -1.1524
  376MOL0     H51867   3.686  10.235  12.213 -3.7612  0.8346  0.7796
  376MOL0     H51868   2.884  10.822  12.272 -1.0881  2.3066 -2.2199
  376MOL0     H51869   2.728  10.966  12.202  2.4110 -1.3093 -0.8270
  376MOL0     H51870   2.293  10.910  11.943 -0.2318  0.0052 -0.6807
  376MOL0     H51871   2.086  10.973  11.839 -0.3355  1.8066 -1.5162
  376MOL0     H51872   0.488  11.728  10.899  1.2761  0.2133  1.2479
  376MOL0     H51873   0.277  11.582  10.845 -1.6791  1.3182  1.4449
  376MOL0     H51874  -0.005  11.379  10.844  1.6207 -1.1143 -1.3269
  376MOL0     H51875  -0.191  11.303  10.757  1.5314  0.8727 -0.1649
  376MOL0     H51876  -0.406  11.192  10.710  0.1207  0.9462 -0.8522
  376MOL0     H51877  -0.259  11.128  10.622  1.1981 -3.5271  0.8083
  376MOL0     H51878  -0.457  11.072  10.505 -0.8661  1.6930  1.8947
  376MOL0     H51879  -0.516  10.973  10.631 -0.4499 -0.1263 -0.8622
  376MOL0     H51880  -0.282  10.931  10.442  0.9068 -1.8009  0.1534
  376MOL0     H51881  -0.270  10.853  10.603  0.1610  2.0152  1.3379
  376MOL0     H51882  -0.367  10.733  10.389 -1.5770 -2.7968 -0.3805
  376MOL0     H51883  -0.518  10.839  10.420 -0.5619  0.6122  1.8263
  376MOL0     H51884  -0.523  10.481  10.657  0.2356 -0.2624  1.0638
  376MOL0     H51885  -0.167  10.937  10.985 -1.6737  0.7081  1.2786
  376MOL0     H51886   0.034  11.070  11.238  3.5596 -2.2173  1.4249
  376MOL0     H51887  -0.011  10.919  11.155 -0.0262  0.0215 -3.3948
  376MOL0     H51888   0.148  10.994  11.116  0.8696  2.7482  1.1075
  377MOL0     O51889   0.929   4.379  11.052  0.1611  0.7433 -0.3388
  377MOL0     C51890   0.851   4.280  11.065 -0.3972 -0.3351  0.1697
  377MOL0     O51891   0.879   4.154  11.029  0.0206 -0.2989 -0.0421
  377MOL0     C51892   1.012   4.120  11.023 -0.1794  0.0059  0.4247
  377MOL0     C51893   1.103   4.173  10.938  0.4519 -0.5659 -0.3909
  377MOL0     C51894   1.239   4.135  10.946 -0.3204  0.2482  0.5260
  377MOL0     C51895   1.284   4.042  11.044 -0.2256  0.3549  0.2746
  377MOL0     O51896   1.415   4.005  11.074  0.4527  0.2348  0.4136
  377MOL0     C51897   1.515   4.030  10.980  1.2115 -0.8295  0.4531
  377MOL0     C51898   1.637   3.973  11.041  0.4779 -0.2669  0.1022
  377MOL0     C51899   1.768   4.044  10.995  0.3581  0.2150 -0.7444
  377MOL0     C51900   1.875   4.005  11.093 -0.1043 -0.3840 -0.2939
  377MOL0     C51901   1.996   4.095  11.089 -0.3121  1.0975  0.5088
  377MOL0     C51902   2.002   4.214  11.181  0.4697  0.3482  0.1774
  377MOL0     C51903   2.114   4.311  11.124 -0.2491 -0.3112 -0.1572
  377MOL0     C51904   2.107   4.453  11.196  0.3532  1.4527  0.7187
  377MOL0     N51905   2.176   4.557  11.109 -0.2047  0.7071 -0.2760
  377MOL0     C51906   2.307   4.570  11.063  1.0580  0.3604 -0.2316
  377MOL0     C51907   2.295   4.674  10.978 -0.1496 -0.6833  0.1177
  377MOL0     C51908   2.403   4.724  10.884  0.0235 -0.4773 -0.3247
  377MOL0     C51909   2.419   4.634  10.763 -0.1790  0.2429  0.6477
  377MOL0     C51910   2.497   4.703  10.654  0.6027  1.1042  0.7447
  377MOL0     C51911   2.648   4.701  10.685 -0.4130  0.0685  0.7266
  377MOL0     O51912   2.697   4.566  10.709 -0.0257 -0.2353  0.1118
  377MOL0     C51913   2.826   4.577  10.747 -0.5563  0.1633  0.6445
  377MOL0     C51914   2.866   4.529  10.867 -0.7805 -0.2206  0.3985
  377MOL0     C51915   2.995   4.546  10.911  0.3211  0.3192  0.0108
  377MOL0     C51916   3.040   4.499  11.041  0.5392 -0.4007 -0.9400
  377MOL0     C51917   3.083   4.622  10.828 -0.1576 -0.0543 -0.0033
  377MOL0     C51918   3.225   4.661  10.875 -0.1057  0.0420  0.0884
  377MOL0     O51919   3.244   4.793  10.867 -0.0885  0.2117 -1.3940
  377MOL0     C51920   3.371   4.836  10.882  0.5599 -0.6336 -0.9385
  377MOL0     C51921   3.457   4.797  10.983  0.2859  0.2225  0.0532
  377MOL0     C51922   3.592   4.826  10.968 -1.1554 -0.3715  0.7417
  377MOL0     C51923   3.641   4.902  10.852 -0.2340  0.1508  0.4437
  377MOL0     O51924   3.770   4.942  10.827 -0.2846 -0.1534  0.9984
  377MOL0     C51925   3.866   4.845  10.867 -0.5060 -0.0191  0.6814
  377MOL0     C51926   4.003   4.894  10.828  0.7489  0.2921  0.4036
  377MOL0     C51927   4.023   4.943  10.677  1.1429  0.6277 -0.7486
  377MOL0     C51928   3.967   5.079  10.639 -0.1937 -0.7459  0.0431
  377MOL0     C51929   4.068   5.134  10.535 -0.4308 -0.4155  0.5464
  377MOL0     C51930   4.005   5.267  10.468 -0.2474  1.3143  0.3535
  377MOL0     C51931   4.108   5.327  10.381 -0.5683 -0.3705 -0.3549
  377MOL0     C51932   4.064   5.461  10.311 -0.3964  0.1570 -0.3500
  377MOL0    Cl51933   4.186   5.512  10.193  0.1658  0.3000 -0.1841
  377MOL0     C51934   3.545   4.955  10.768  0.1388 -0.8007 -0.3442
  377MOL0     C51935   3.413   4.916  10.777  0.0453  0.1290 -0.7583
  377MOL0     O51936   3.295   4.579  10.926 -0.0161 -0.5744  0.6290
  377MOL0     C51937   3.052   4.666  10.700  0.6073  0.1363  0.1723
  377MOL0     C51938   2.924   4.641  10.657  1.3459  0.3962  0.5471
  377MOL0     N51939   2.168   4.718  10.962  0.0140 -0.1879 -0.8050
  377MOL0     N51940   2.100   4.653  11.045 -0.2079  0.2198  0.9804
  377MOL0     C51941   1.190   3.981  11.127  0.5956 -0.3296  0.0385
  377MOL0     C51942   1.058   4.020  11.112  0.5131  0.0191 -0.0808
  377MOL0     C51943   0.708   4.294  11.088  0.2801 -0.2319 -1.5250
  377MOL0     C51944   0.615   4.199  11.042  1.2547  0.9750 -0.0717
  377MOL0     C51945   0.481   4.216  11.076 -0.6521  0.2262  1.2799
  377MOL0     C51946   0.438   4.329  11.138  0.5165  0.6210 -0.4411
  377MOL0     O51947   0.304   4.339  11.167  0.4683 -0.2367 -0.5461
  377MOL0     C51948   0.228   4.358  11.042 -1.0455  0.2996 -0.5946
  377MOL0     C51949   0.094   4.417  11.085 -0.4162 -0.6854 -0.5752
  377MOL0     C51950  -0.003   4.447  10.975  0.7459 -0.5653  0.6419
  377MOL0     C51951   0.012   4.592  10.924 -0.5537  0.4115  0.6707
  377MOL0     C51952   0.124   4.611  10.832  0.3433 -0.2690  0.4168
  377MOL0     C51953   0.218   4.636  10.752 -0.4482 -0.6035 -0.4187
  377MOL0     C51954   0.526   4.434  11.175  1.1475  0.0965  0.0529
  377MOL0     C51955   0.661   4.417  11.153 -0.5266  0.7019  0.3395
  377MOL0     C51956   0.755   4.539  11.192 -0.1098 -1.3135 -0.0409
  377MOL0     H51957   1.071   4.246  10.864  2.2032 -0.5587 -1.2179
  377MOL0     H51958   1.314   4.191  10.892  0.2457 -2.8968 -2.3396
  377MOL0     H51959   1.526   4.137  10.958 -0.1801 -0.4263  1.6548
  377MOL0     H51960   1.493   3.973  10.889 -0.2034 -2.4477  1.7538
  377MOL0     H51961   1.625   3.994  11.148 -4.3704  1.9303 -0.6004
  377MOL0     H51962   1.652   3.865  11.032  2.2199 -0.1358  1.0147
  377MOL0     H51963   1.795   4.013  10.894  0.5533 -0.7791 -0.3991
  377MOL0     H51964   1.757   4.152  11.000 -1.2576  0.2460 -3.2557
  377MOL0     H51965   1.840   4.012  11.196 -1.4168 -0.5774 -0.7092
  377MOL0     H51966   1.910   3.903  11.076  2.6742  0.4544 -0.0943
  377MOL0     H51967   2.021   4.115  10.984 -0.3283  1.2582  0.5367
  377MOL0     H51968   2.072   4.021  11.117  1.8210  2.2521 -1.7836
  377MOL0     H51969   1.915   4.278  11.167 -0.6531 -0.5781  2.4355
  377MOL0     H51970   2.007   4.181  11.285  1.1272  0.3970  0.1698
  377MOL0     H51971   2.097   4.333  11.018  2.2913 -3.3776 -1.3578
  377MOL0     H51972   2.212   4.262  11.115 -0.6115 -1.1893  0.5701
  377MOL0     H51973   2.003   4.479  11.217 -1.0251 -2.2033 -0.7668
  377MOL0     H51974   2.157   4.448  11.293  2.3999  1.6266 -0.2639
  377MOL0     H51975   2.395   4.513  11.091  1.3032  1.4029  1.2204
  377MOL0     H51976   2.503   4.730  10.928  0.0303 -2.2609 -0.0340
  377MOL0     H51977   2.359   4.817  10.846  2.7349  0.0094 -2.5055
  377MOL0     H51978   2.460   4.540  10.803 -0.0047  0.2876  0.5725
  377MOL0     H51979   2.325   4.616  10.711  1.7010  0.0090 -3.0102
  377MOL0     H51980   2.478   4.648  10.562 -1.9803  1.1805  1.1545
  377MOL0     H51981   2.464   4.807  10.648  1.1930  1.3409  1.4053
  377MOL0     H51982   2.701   4.742  10.598  1.5599 -1.2056  1.2854
  377MOL0     H51983   2.666   4.768  10.769  1.1159  1.4106 -0.5967
  377MOL0     H51984   2.775   4.486  10.909 -0.9270  0.0357  0.3438
  377MOL0     H51985   3.092   4.569  11.106 -1.0247 -1.1369  1.2104
  377MOL0     H51986   3.098   4.407  11.029 -0.5073 -1.3944  1.1191
  377MOL0     H51987   2.951   4.477  11.101  1.2250  2.4830  1.3791
  377MOL0     H51988   3.420   4.741  11.068 -0.9640  0.1552 -0.5115
  377MOL0     H51989   3.663   4.795  11.045  0.4046  0.3935 -0.3302
  377MOL0     H51990   3.871   4.831  10.975  0.9257 -1.7491  0.4379
  377MOL0     H51991   3.851   4.753  10.809  0.6199  0.7410 -0.9000
  377MOL0     H51992   4.020   4.969  10.906 -2.5540 -2.8293  4.6438
  377MOL0     H51993   4.067   4.808  10.851  0.3886  0.1337  0.8312
  377MOL0     H51994   3.974   4.861  10.624 -0.9365 -0.0882  2.0800
  377MOL0     H51995   4.131   4.933  10.661  1.2801 -0.4875  0.6954
  377MOL0     H51996   3.969   5.151  10.722  1.5089 -1.8586  1.0485
  377MOL0     H51997   3.862   5.073  10.611 -0.0261  1.0045 -1.0942
  377MOL0     H51998   4.163   5.165  10.579 -0.7375 -1.3823  1.9584
  377MOL0     H51999   4.088   5.062  10.456 -1.8229  1.0126 -1.1993
  377MOL0     H52000   3.978   5.344  10.541  1.8493  2.8890 -0.4502
  377MOL0     H52001   3.926   5.250  10.393  0.5643 -0.6046 -0.1409
  377MOL0     H52002   4.124   5.251  10.304  1.8795 -0.8330  0.5340
  377MOL0     H52003   4.207   5.349  10.421 -1.1936 -0.2625  1.1886
  377MOL0     H52004   4.057   5.534  10.391 -2.7557 -0.3933  0.0160
  377MOL0     H52005   3.965   5.450  10.267 -0.3701  0.6034 -0.5294
  377MOL0     H52006   3.588   5.025  10.697  1.4520  2.7275  3.5349
  377MOL0     H52007   3.353   4.924  10.687  1.0168 -2.5036 -1.7273
  377MOL0     H52008   3.123   4.726  10.643  0.5501 -0.0795 -0.1285
  377MOL0     H52009   2.899   4.673  10.556  1.1915 -1.5250 -0.0648
  377MOL0     H52010   1.221   3.908  11.202 -2.3554 -1.6166  0.1761
  377MOL0     H52011   0.994   3.974  11.187  0.1334  0.2569 -0.2551
  377MOL0     H52012   0.645   4.100  11.012 -0.3000 -1.0550  4.2109
  377MOL0     H52013   0.414   4.134  11.051 -0.9712  1.0627 -0.7565
  377MOL0     H52014   0.274   4.433  10.978 -2.4064 -0.6850 -2.8320
  377MOL0     H52015   0.211   4.269  10.980  4.0079  0.0214 -1.9875
  377MOL0     H52016   0.101   4.489  11.167 -1.9186 -0.2191 -0.8164
  377MOL0     H52017   0.049   4.329  11.132 -1.1568  0.7618  1.5650
  377MOL0     H52018   0.020   4.374  10.896  2.0122  0.1585  0.3092
  377MOL0     H52019  -0.109   4.440  11.000 -0.0269 -0.3535 -2.2229
  377MOL0     H52020   0.020   4.665  11.006  1.4684  0.2904  0.6280
  377MOL0     H52021  -0.076   4.618  10.865  0.6225  0.9064 -0.9438
  377MOL0     H52022   0.294   4.661  10.681  1.2037 -0.0700  1.4259
  377MOL0     H52023   0.501   4.529  11.222  0.6172  0.9893 -1.9271
  377MOL0     H52024   0.808   4.585  11.108  2.3340 -0.0664  2.0257
  377MOL0     H52025   0.697   4.628  11.220  1.4224 -0.6087  1.0153
  377MOL0     H52026   0.826   4.518  11.273 -0.9094  1.0823  1.3965
  378MOL0     O52027   8.323   6.075   3.979  0.0932 -0.6101  0.3372
  378MOL0     C52028   8.243   6.163   4.003  0.1151  0.3767 -0.2058
  378MOL0     O52029   8.275   6.293   4.001  0.4341 -0.4142  0.5135
  378MOL0     C52030   8.384   6.334   3.920  0.2665  0.1780 -0.1022
  378MOL0     C52031   8.477   6.429   3.973  0.7396 -0.4063 -0.1056
  378MOL0     C52032   8.569   6.485   3.888  0.5192 -0.3535  0.3066
  378MOL0     C52033   8.572   6.450   3.753 -0.4618  0.0359  0.2987
  378MOL0     O52034   8.665   6.498   3.669 -0.1140 -0.4188 -0.4189
  378MOL0     C52035   8.641   6.633   3.617  0.0173 -0.3067 -0.0438
  378MOL0     C52036   8.751   6.646   3.505  0.2677 -0.4278 -0.2877
  378MOL0     C52037   8.687   6.635   3.369  0.5043 -0.8462 -0.5460
  378MOL0     C52038   8.791   6.657   3.259 -0.2119 -0.4764  0.2052
  378MOL0     C52039   8.734   6.629   3.127 -0.1482 -0.4826  0.8562
  378MOL0     C52040   8.814   6.683   3.017  0.3098  0.4946  0.1186
  378MOL0     C52041   8.751   6.638   2.883  0.0056  0.2939  0.1753
  378MOL0     C52042   8.820   6.709   2.763 -0.1184 -0.2029 -0.1488
  378MOL0     N52043   8.823   6.857   2.783  0.1512  0.0483  0.6830
  378MOL0     C52044   8.722   6.952   2.814  0.9198  0.4184  0.0940
  378MOL0     C52045   8.762   7.072   2.765  0.5706 -0.6778  0.6100
  378MOL0     C52046   8.688   7.208   2.768  0.1182 -0.0839 -0.6343
  378MOL0     C52047   8.686   7.274   2.634 -0.9349 -0.4699 -0.3713
  378MOL0     C52048   8.629   7.419   2.642  0.8545  1.3004  0.2709
  378MOL0     C52049   8.602   7.478   2.504  0.9213  0.4358  0.6902
  378MOL0     O52050   8.709   7.479   2.401  0.2725 -0.1775  0.2364
  378MOL0     C52051   8.812   7.566   2.413  0.3379 -0.6518  0.8034
  378MOL0     C52052   8.824   7.654   2.527 -0.5671 -0.4389 -0.0685
  378MOL0     C52053   8.951   7.717   2.537 -0.1618  0.3057 -0.3537
  378MOL0     C52054   8.977   7.772   2.672  0.6490 -0.4736 -0.0099
  378MOL0     C52055   9.049   7.711   2.436 -0.0550  0.0216  0.3619
  378MOL0     C52056   9.177   7.783   2.448  1.1969  0.6458 -0.0927
  378MOL0     O52057   9.290   7.715   2.414 -0.4878  0.3039 -0.0869
  378MOL0     C52058   9.406   7.757   2.474 -0.0161 -0.1059  0.8799
  378MOL0     C52059   9.481   7.826   2.383 -0.2964 -0.0220 -0.1704
  378MOL0     C52060   9.601   7.868   2.413 -0.6861 -0.4775  0.3969
  378MOL0     C52061   9.664   7.854   2.537  0.3036 -0.5735 -0.2646
  378MOL0     O52062   9.784   7.893   2.575  0.2838  0.9198  0.1632
  378MOL0     C52063   9.877   7.941   2.475 -0.6347  0.2623  0.1978
  378MOL0     C52064  10.015   7.919   2.520  0.3088 -0.0865  0.0986
  378MOL0     C52065  10.059   8.006   2.640  0.0035 -0.1842  0.1813
  378MOL0     C52066  10.211   8.002   2.650 -0.3034 -0.0906 -0.0204
  378MOL0     C52067  10.262   7.865   2.711  0.0491 -0.5884  0.1150
  378MOL0     C52068  10.409   7.859   2.761  0.6763 -0.1199  0.0876
  378MOL0     C52069  10.502   7.906   2.638 -0.2740  0.0299 -0.3947
  378MOL0     C52070  10.562   8.040   2.674  0.3588 -0.0720  0.0046
  378MOL0    Cl52071  10.666   8.096   2.534 -0.0232 -0.3073 -0.1662
  378MOL0     C52072   9.584   7.788   2.633  0.5872  0.7469 -0.6770
  378MOL0     C52073   9.452   7.734   2.603  0.4702 -0.2834  0.4873
  378MOL0     O52074   9.175   7.903   2.468 -0.1564 -0.3978 -0.0719
  378MOL0     C52075   9.012   7.655   2.315 -0.2270  0.1539  0.2411
  378MOL0     C52076   8.905   7.576   2.308  0.2343 -0.1369 -0.2527
  378MOL0     N52077   8.888   7.056   2.703  0.2693  0.4968 -0.0374
  378MOL0     N52078   8.922   6.927   2.715  0.2323 -0.2313  0.1175
  378MOL0     C52079   8.483   6.354   3.704 -0.7877  0.2785  0.7035
  378MOL0     C52080   8.388   6.296   3.786  0.4095  0.0542  0.7545
  378MOL0     C52081   8.105   6.118   4.038  0.0374 -0.4310  0.1501
  378MOL0     C52082   8.024   6.217   4.088 -0.0638  0.9896 -0.2800
  378MOL0     C52083   7.888   6.193   4.130 -0.5732 -0.1714  0.6573
  378MOL0     C52084   7.830   6.072   4.097  0.7391  0.0938  0.2067
  378MOL0     O52085   7.700   6.066   4.126  0.1224 -0.1093 -0.3964
  378MOL0     C52086   7.610   5.984   4.042 -0.7037  0.3369 -0.3438
  378MOL0     C52087   7.489   6.062   4.010 -0.3254  0.4686  0.4496
  378MOL0     C52088   7.526   6.193   3.942 -0.1079  1.1225  0.1619
  378MOL0     C52089   7.412   6.277   3.899  0.0574  0.3534 -0.0658
  378MOL0     C52090   7.319   6.192   3.821  0.5507 -0.0038 -0.4556
  378MOL0     C52091   7.242   6.144   3.744  0.1175  0.6351  0.3471
  378MOL0     C52092   7.911   5.968   4.059 -0.5627  0.1578  0.0576
  378MOL0     C52093   8.045   5.987   4.026 -0.0948  0.2624  0.0183
  378MOL0     C52094   8.110   5.867   3.968 -0.5073 -0.1695 -0.3541
  378MOL0     H52095   8.458   6.468   4.073 -2.2876 -1.1053 -0.3019
  378MOL0     H52096   8.631   6.565   3.927 -1.8302  2.4386 -1.3207
  378MOL0     H52097   8.661   6.712   3.691 -1.4233 -1.0240  1.1458
  378MOL0     H52098   8.543   6.653   3.573 -0.7794 -1.8234  0.9687
  378MOL0     H52099   8.803   6.742   3.504  2.1082 -1.3766  0.0816
  378MOL0     H52100   8.823   6.566   3.521 -0.5462 -1.2173 -0.4855
  378MOL0     H52101   8.653   6.533   3.349 -1.3722 -0.2943 -0.3348
  378MOL0     H52102   8.597   6.697   3.366  2.5646  2.3937 -0.4481
  378MOL0     H52103   8.814   6.764   3.265 -0.6186 -0.3934  0.2469
  378MOL0     H52104   8.875   6.591   3.284 -2.2735 -2.1634  3.2835
  378MOL0     H52105   8.638   6.681   3.119  0.3208  0.4999  1.4379
  378MOL0     H52106   8.713   6.524   3.102  0.8727 -0.4150 -0.3451
  378MOL0     H52107   8.803   6.792   3.020 -1.0192  0.3625  2.1358
  378MOL0     H52108   8.921   6.664   3.024  0.5272  0.8259 -1.8214
  378MOL0     H52109   8.646   6.667   2.882  0.3783  1.7490 -1.7708
  378MOL0     H52110   8.766   6.532   2.858 -1.7353 -0.3318  1.5672
  378MOL0     H52111   8.922   6.674   2.744 -0.2709 -0.5088 -0.4256
  378MOL0     H52112   8.770   6.686   2.668 -0.4147 -0.6238  0.1031
  378MOL0     H52113   8.638   6.923   2.877  1.2401  0.1598  0.4128
  378MOL0     H52114   8.742   7.273   2.837  2.8623 -1.2363 -1.5430
  378MOL0     H52115   8.585   7.205   2.805  0.3570  1.4106  0.2120
  378MOL0     H52116   8.781   7.273   2.581 -1.2732 -2.0739 -1.0005
  378MOL0     H52117   8.612   7.225   2.569 -1.6528  1.3507 -1.0019
  378MOL0     H52118   8.539   7.422   2.703 -0.0330  3.1876 -1.0101
  378MOL0     H52119   8.701   7.483   2.694 -0.4400  0.5162  3.2157
  378MOL0     H52120   8.524   7.417   2.456 -0.4832  0.0408  3.3164
  378MOL0     H52121   8.556   7.574   2.527 -0.2570 -0.4276  2.0767
  378MOL0     H52122   8.752   7.657   2.608  0.1466 -4.1344  0.8969
  378MOL0     H52123   8.974   7.704   2.758  1.8942  0.0928  0.4928
  378MOL0     H52124   8.901   7.848   2.692  1.3114  0.5842 -1.3736
  378MOL0     H52125   9.074   7.822   2.679  1.1665 -1.3973 -0.3536
  378MOL0     H52126   9.436   7.851   2.288 -2.9415  2.1339  1.4776
  378MOL0     H52127   9.655   7.929   2.341 -0.3274 -0.1271  0.9539
  378MOL0     H52128   9.872   7.893   2.377 -2.7733 -1.0734  0.8904
  378MOL0     H52129   9.850   8.046   2.459  0.2388  0.2975 -1.1975
  378MOL0     H52130  10.019   7.813   2.548  1.8774  0.0739  0.6079
  378MOL0     H52131  10.085   7.931   2.437  0.6051 -5.2432 -0.7275
  378MOL0     H52132  10.015   7.983   2.737  2.7629  1.8762  2.0765
  378MOL0     H52133  10.036   8.111   2.620 -3.3255 -0.4589  2.0028
  378MOL0     H52134  10.230   8.076   2.729 -0.5544 -0.9828  0.8973
  378MOL0     H52135  10.260   8.030   2.556  1.1836 -0.0220  0.7476
  378MOL0     H52136  10.196   7.838   2.793 -0.3311 -1.5112 -0.4885
  378MOL0     H52137  10.242   7.786   2.639 -0.1825 -0.5414  0.1262
  378MOL0     H52138  10.438   7.757   2.788  0.7399  0.0516  0.6765
  378MOL0     H52139  10.426   7.916   2.853 -0.0796 -0.2241  0.2960
  378MOL0     H52140  10.453   7.918   2.540  1.9085  0.9867 -1.4512
  378MOL0     H52141  10.585   7.835   2.631  0.8851  1.3183 -0.2418
  378MOL0     H52142  10.624   8.034   2.764  2.5380 -2.9552 -1.5050
  378MOL0     H52143  10.483   8.111   2.696 -0.6482 -1.0620 -0.2856
  378MOL0     H52144   9.626   7.775   2.732 -0.9357  2.6525  0.2833
  378MOL0     H52145   9.393   7.677   2.675  1.9431 -2.6424 -0.0475
  378MOL0     H52146   9.076   7.673   2.229 -0.7460 -2.2672 -0.7178
  378MOL0     H52147   8.880   7.512   2.224 -0.9678  0.3122 -0.2583
  378MOL0     H52148   8.485   6.332   3.598 -0.5828 -0.3238  0.8277
  378MOL0     H52149   8.325   6.220   3.742  3.1124 -1.5789 -0.5542
  378MOL0     H52150   8.064   6.314   4.113 -0.6255  0.5089  2.9750
  378MOL0     H52151   7.823   6.275   4.159 -0.8157 -0.6915  1.6144
  378MOL0     H52152   7.670   5.961   3.953 -0.4474 -1.1222  0.1731
  378MOL0     H52153   7.592   5.893   4.100  0.4978  1.1270  1.3867
  378MOL0     H52154   7.437   6.084   4.103 -1.6630 -1.3815  0.1821
  378MOL0     H52155   7.419   6.002   3.952  0.6053  0.7220 -0.9961
  378MOL0     H52156   7.601   6.246   4.002 -1.8414  1.3749  2.2492
  378MOL0     H52157   7.581   6.154   3.856 -0.7881 -1.4532  0.8182
  378MOL0     H52158   7.463   6.354   3.840  0.7427  0.0107  0.0820
  378MOL0     H52159   7.368   6.329   3.985  0.8876  1.9962 -0.5973
  378MOL0     H52160   7.168   6.122   3.671 -0.1995  2.8124 -0.0502
  378MOL0     H52161   7.862   5.872   4.044 -0.6234  0.3647 -1.1811
  378MOL0     H52162   8.196   5.902   3.910  2.1920 -0.5672  3.0908
  378MOL0     H52163   8.160   5.812   4.048  2.2292  0.1080 -1.7378
  378MOL0     H52164   8.049   5.789   3.921 -1.8654  0.2938  0.5715
  379MOL0     O52165   8.820  10.728   0.023 -0.4510 -0.2499  0.0278
  379MOL0     C52166   8.731  10.723   0.112 -0.1693 -0.6752  0.0548
  379MOL0     O52167   8.706  10.822   0.207 -0.7596 -0.0619  0.1058
  379MOL0     C52168   8.814  10.911   0.220  0.0741  0.4807 -0.4603
  379MOL0     C52169   8.805  11.037   0.164 -0.3349 -0.1805 -0.4416
  379MOL0     C52170   8.921  11.124   0.171  0.9399  0.4712  0.3992
  379MOL0     C52171   9.040  11.089   0.235  0.0887  0.0898  0.1478
  379MOL0     O52172   9.155  11.163   0.244  0.2650 -0.5781  0.0307
  379MOL0     C52173   9.161  11.307   0.244  0.2684  0.7759 -0.2235
  379MOL0     C52174   9.188  11.376   0.110  0.4035  0.7167  0.5182
  379MOL0     C52175   9.302  11.295   0.032  0.6291 -0.5040 -0.3133
  379MOL0     C52176   9.353  11.368  -0.099 -0.1894 -0.0762  0.3541
  379MOL0     C52177   9.443  11.487  -0.062  0.2803 -0.4877 -0.2032
  379MOL0     C52178   9.542  11.521  -0.183  1.1176  0.4346 -0.5475
  379MOL0     C52179   9.637  11.630  -0.152 -0.7359 -0.4037 -0.1097
  379MOL0     C52180   9.751  11.654  -0.265  0.4666  0.3328 -0.9385
  379MOL0     N52181   9.842  11.529  -0.277 -0.7641 -0.7003 -0.5694
  379MOL0     C52182   9.924  11.482  -0.182  0.2915 -0.0297  0.1909
  379MOL0     C52183   9.984  11.375  -0.237  0.7591  0.8685  0.4163
  379MOL0     C52184  10.071  11.279  -0.171 -0.0946 -0.4755 -0.0368
  379MOL0     C52185  10.215  11.306  -0.214 -0.3562  0.4083  0.3216
  379MOL0     C52186  10.318  11.220  -0.136  0.7076  1.1140  0.1911
  379MOL0     C52187  10.329  11.257   0.009 -0.6937 -0.3827  0.4922
  379MOL0     O52188  10.259  11.155   0.083 -1.0544 -0.5620 -0.2831
  379MOL0     C52189  10.222  11.186   0.215  0.2539  1.0296 -0.3830
  379MOL0     C52190  10.100  11.162   0.277 -0.1776  0.2992  0.0271
  379MOL0     C52191  10.075  11.163   0.416 -0.3594  0.0858  0.3773
  379MOL0     C52192   9.932  11.133   0.473  0.6684  0.6036 -0.0732
  379MOL0     C52193  10.184  11.203   0.494  0.5081  0.0846 -0.1396
  379MOL0     C52194  10.172  11.210   0.641 -0.4353 -0.0447 -0.4623
  379MOL0     O52195  10.261  11.138   0.714  0.2059  0.4453 -0.4638
  379MOL0     C52196  10.250  11.144   0.851  0.4121 -0.3113 -0.3071
  379MOL0     C52197  10.281  11.257   0.929 -0.8831  0.1414  0.7475
  379MOL0     C52198  10.271  11.255   1.071  0.0908  0.4083  0.1229
  379MOL0     C52199  10.213  11.140   1.135 -0.0004  0.4315  0.7750
  379MOL0     O52200  10.192  11.157   1.266 -0.3176  0.8108  0.2123
  379MOL0     C52201  10.066  11.196   1.320 -0.2008  1.0613 -0.8021
  379MOL0     C52202  10.019  11.121   1.446  0.0275 -0.0355 -0.0163
  379MOL0     C52203  10.118  11.098   1.557  0.1027 -0.3114 -0.5539
  379MOL0     C52204  10.242  11.006   1.524 -0.1496  0.8120  0.7209
  379MOL0     C52205  10.341  10.990   1.644 -0.8976 -0.2359 -0.2660
  379MOL0     C52206  10.443  10.895   1.612 -0.5434  0.1810 -0.3503
  379MOL0     C52207  10.511  10.842   1.736 -0.4460 -0.0713  0.7918
  379MOL0     C52208  10.638  10.758   1.702  0.2575 -0.6792  0.1209
  379MOL0    Cl52209  10.602  10.631   1.589  0.2409 -0.0779 -0.2092
  379MOL0     C52210  10.169  11.030   1.054  0.2173  0.4765 -0.0497
  379MOL0     C52211  10.191  11.036   0.917 -1.0278 -0.3790 -0.2193
  379MOL0     O52212  10.090  11.292   0.687  0.1783  0.2508 -0.0351
  379MOL0     C52213  10.314  11.228   0.437  0.4513 -0.4032  0.3313
  379MOL0     C52214  10.335  11.231   0.301  0.2838 -0.1377  0.0077
  379MOL0     N52215   9.925  11.352  -0.358 -0.4809 -0.1854 -0.8071
  379MOL0     N52216   9.847  11.449  -0.383  0.2951 -0.3536 -0.8533
  379MOL0     C52217   9.048  10.962   0.298 -1.1471  1.0231  0.6929
  379MOL0     C52218   8.939  10.874   0.279  0.2475 -0.5136 -0.4838
  379MOL0     C52219   8.632  10.616   0.113 -0.4833  0.2405  0.2351
  379MOL0     C52220   8.566  10.587  -0.008 -1.0068 -0.4491  0.4193
  379MOL0     C52221   8.483  10.474  -0.013  0.3813  0.9574  0.4163
  379MOL0     C52222   8.457  10.402   0.101  0.2036 -0.0094  0.0224
  379MOL0     O52223   8.375  10.308   0.075  0.2454  0.5998  0.0537
  379MOL0     C52224   8.361  10.200   0.170 -0.6688 -0.2293  0.4092
  379MOL0     C52225   8.495  10.113   0.185  0.4681  0.0177  0.6222
  379MOL0     C52226   8.494  10.022   0.309 -0.5348  0.1123 -0.4541
  379MOL0     C52227   8.621   9.947   0.341  0.3066  0.2854  0.3300
  379MOL0     C52228   8.728  10.025   0.402 -0.2877 -0.1175  0.6879
  379MOL0     C52229   8.815  10.099   0.449  0.3404  0.2208 -0.7099
  379MOL0     C52230   8.518  10.438   0.220 -0.1683 -0.6053  0.1747
  379MOL0     C52231   8.612  10.536   0.224 -0.9788  0.0692 -0.3251
  379MOL0     C52232   8.677  10.554   0.360 -0.1539  0.2107 -0.0668
  379MOL0     H52233   8.709  11.066   0.121 -0.4657  0.1204  0.0453
  379MOL0     H52234   8.923  11.221   0.121 -0.1503 -0.3860 -1.3828
  379MOL0     H52235   9.248  11.328   0.307  0.1278  0.4079  0.0985
  379MOL0     H52236   9.076  11.349   0.300  0.9024  1.2873  0.3821
  379MOL0     H52237   9.089  11.372   0.065 -0.1176 -3.0686  1.6138
  379MOL0     H52238   9.225  11.478   0.123 -2.0922  2.3953 -3.7046
  379MOL0     H52239   9.382  11.270   0.103 -1.3542  0.4390  2.4007
  379MOL0     H52240   9.260  11.202  -0.008 -3.0510  1.1966 -0.7711
  379MOL0     H52241   9.408  11.296  -0.159  0.6268  1.1268 -0.3992
  379MOL0     H52242   9.270  11.391  -0.166 -0.2157 -3.3225 -0.9057
  379MOL0     H52243   9.508  11.450   0.018 -1.4717  0.3472  1.7020
  379MOL0     H52244   9.385  11.573  -0.028 -1.1311 -0.5218 -2.3392
  379MOL0     H52245   9.603  11.436  -0.216  0.0486 -0.8598  0.6731
  379MOL0     H52246   9.485  11.558  -0.269  0.2765  1.6984  0.5076
  379MOL0     H52247   9.686  11.612  -0.056  1.0491  1.3333 -0.6170
  379MOL0     H52248   9.576  11.721  -0.145 -2.3189 -0.8650 -4.7106
  379MOL0     H52249   9.705  11.668  -0.364 -1.8580  0.8388  0.1488
  379MOL0     H52250   9.801  11.750  -0.252 -0.5342  0.7571 -0.1023
  379MOL0     H52251   9.933  11.521  -0.081 -4.0896 -0.4787  0.9467
  379MOL0     H52252  10.029  11.182  -0.198 -3.2437  0.4514  1.0697
  379MOL0     H52253  10.056  11.280  -0.063 -0.7675  1.7077 -0.0944
  379MOL0     H52254  10.220  11.289  -0.322  1.7367 -1.8007  0.6945
  379MOL0     H52255  10.241  11.411  -0.199  2.3182 -0.0679 -0.5889
  379MOL0     H52256  10.295  11.114  -0.147  0.8247  1.2473 -1.7631
  379MOL0     H52257  10.415  11.243  -0.181  0.6279  0.3970 -0.3555
  379MOL0     H52258  10.432  11.234   0.037 -1.5261 -4.2905  0.9138
  379MOL0     H52259  10.306  11.360   0.035  5.3443  1.0120  1.8877
  379MOL0     H52260  10.024  11.125   0.208  1.1086 -1.9044 -0.3192
  379MOL0     H52261   9.871  11.110   0.385  3.0004 -0.0628 -1.6212
  379MOL0     H52262   9.891  11.225   0.515 -1.0395 -0.3999  0.5370
  379MOL0     H52263   9.938  11.054   0.548 -0.2483 -0.4772 -1.0995
  379MOL0     H52264  10.322  11.346   0.882 -0.3584 -1.3917 -1.9558
  379MOL0     H52265  10.305  11.330   1.142 -1.8374 -1.4014  3.1973
  379MOL0     H52266  10.065  11.297   1.361  0.5508  0.0784  1.8226
  379MOL0     H52267   9.985  11.170   1.251 -0.9843  1.0706  0.0947
  379MOL0     H52268   9.938  11.177   1.494 -0.7032 -0.6704 -0.4886
  379MOL0     H52269   9.996  11.020   1.412 -2.9370  0.7787 -0.6660
  379MOL0     H52270  10.065  11.055   1.642 -3.7900  0.2925 -2.4657
  379MOL0     H52271  10.163  11.193   1.587 -0.7939  0.3279 -1.2049
  379MOL0     H52272  10.295  11.033   1.432 -0.0776  1.3082  0.9088
  379MOL0     H52273  10.197  10.908   1.505 -0.5142  1.4589 -2.2401
  379MOL0     H52274  10.393  11.084   1.664  0.6991 -1.0846 -0.2592
  379MOL0     H52275  10.279  10.966   1.731 -1.0187  2.2623  0.4135
  379MOL0     H52276  10.518  10.936   1.543  2.1973 -0.3182  2.1419
  379MOL0     H52277  10.400  10.803   1.571 -0.5324 -1.0407  2.1958
  379MOL0     H52278  10.443  10.781   1.796  1.8814 -1.8588  1.7608
  379MOL0     H52279  10.536  10.926   1.802 -2.4914  1.3223 -0.1088
  379MOL0     H52280  10.676  10.722   1.798  1.4887  0.2195 -0.0010
  379MOL0     H52281  10.718  10.826   1.670  0.8300 -0.4370  1.9455
  379MOL0     H52282  10.132  10.937   1.095  0.2350 -1.1000 -3.2611
  379MOL0     H52283  10.175  10.943   0.863 -1.0900  0.3946 -1.5776
  379MOL0     H52284  10.401  11.239   0.502  2.0757  2.0299 -2.0108
  379MOL0     H52285  10.442  11.237   0.281  0.8844 -2.2087  1.9971
  379MOL0     H52286   9.138  10.942   0.355 -0.6119 -2.2510 -1.0410
  379MOL0     H52287   8.948  10.785   0.340 -4.0774 -0.3099  0.7370
  379MOL0     H52288   8.585  10.638  -0.102  0.9556  1.9501  1.9858
  379MOL0     H52289   8.430  10.457  -0.106  1.5879  0.6952 -0.2431
  379MOL0     H52290   8.326  10.242   0.265  0.1536  1.9869 -0.2062
  379MOL0     H52291   8.285  10.129   0.135 -2.7426  1.8203  0.5719
  379MOL0     H52292   8.583  10.177   0.177  0.2546  0.2185 -0.2225
  379MOL0     H52293   8.493  10.050   0.095 -2.3307  0.9180 -0.0596
  379MOL0     H52294   8.460  10.082   0.394 -1.0033  0.1834 -0.6938
  379MOL0     H52295   8.418   9.946   0.289 -0.5581 -0.0773  0.3101
  379MOL0     H52296   8.651   9.901   0.246  1.4644  1.6052  0.0313
  379MOL0     H52297   8.585   9.866   0.406  0.9507 -0.5676 -0.3561
  379MOL0     H52298   8.885  10.171   0.487 -0.8381  0.7861  0.4711
  379MOL0     H52299   8.501  10.373   0.305  0.2051 -1.3317 -0.3004
  379MOL0     H52300   8.603  10.606   0.422  0.3444  1.1672 -0.2735
  379MOL0     H52301   8.694  10.458   0.411 -0.3810  1.5905  2.7774
  379MOL0     H52302   8.768  10.613   0.360 -0.2471  0.3945  1.3817
  380MOL0     O52303   3.494   6.933   7.137  0.6491  0.2451  0.2303
  380MOL0     C52304   3.433   7.040   7.122 -0.7080 -0.5222 -0.5212
  380MOL0     O52305   3.492   7.160   7.111  0.6607  0.1117  0.7202
  380MOL0     C52306   3.628   7.170   7.120 -0.2624 -0.1517 -0.4583
  380MOL0     C52307   3.700   7.170   7.001 -0.5535  0.3293 -0.4913
  380MOL0     C52308   3.843   7.194   7.008  0.0863  0.4534  0.2597
  380MOL0     C52309   3.897   7.223   7.136 -0.2738  0.2241 -0.8041
  380MOL0     O52310   4.028   7.269   7.147  0.4372  0.3098 -0.3303
  380MOL0     C52311   4.134   7.175   7.121 -1.0583  0.2560  1.2072
  380MOL0     C52312   4.192   7.197   6.981 -0.3642  1.2216  0.7451
  380MOL0     C52313   4.332   7.130   6.967 -0.0294 -0.3485 -0.3785
  380MOL0     C52314   4.401   7.161   6.836 -0.1604  0.2038 -0.2353
  380MOL0     C52315   4.539   7.113   6.813 -0.1105  0.2371 -0.7896
  380MOL0     C52316   4.643   7.136   6.927  0.1222  1.2514 -0.0668
  380MOL0     C52317   4.784   7.092   6.905 -0.3269  0.4147  0.4978
  380MOL0     C52318   4.880   7.149   7.009 -0.1880  0.4914  0.0818
  380MOL0     N52319   5.026   7.144   6.982 -0.0951  0.0486 -0.3606
  380MOL0     C52320   5.085   7.142   6.858 -0.0578  0.4352  0.1167
  380MOL0     C52321   5.213   7.143   6.883  0.3066 -0.2355 -0.1784
  380MOL0     C52322   5.335   7.148   6.789  0.2914 -0.4308 -0.4998
  380MOL0     C52323   5.385   7.014   6.755 -0.3280  0.2475 -0.1664
  380MOL0     C52324   5.511   6.975   6.833 -0.1223  0.1961 -0.5557
  380MOL0     C52325   5.562   6.845   6.777 -0.3792  0.0849  0.2790
  380MOL0     O52326   5.654   6.877   6.670  0.6713  0.1032 -0.2195
  380MOL0     C52327   5.748   6.787   6.622  0.2061 -0.0173  0.4352
  380MOL0     C52328   5.722   6.649   6.644  0.9213 -0.3125 -0.3747
  380MOL0     C52329   5.810   6.563   6.577  0.2556  0.1354  0.0624
  380MOL0     C52330   5.799   6.418   6.607  0.6332  0.3358 -0.0215
  380MOL0     C52331   5.925   6.608   6.512 -0.1663  0.0890  0.0026
  380MOL0     C52332   6.037   6.515   6.474 -0.2154  0.1839 -0.2050
  380MOL0     O52333   6.092   6.542   6.355  0.5146  0.2375  0.6591
  380MOL0     C52334   6.209   6.493   6.324 -0.3623 -0.0342 -0.1642
  380MOL0     C52335   6.313   6.573   6.338 -1.0693  0.0948 -1.0005
  380MOL0     C52336   6.434   6.528   6.297  0.0704  0.0008 -0.4646
  380MOL0     C52337   6.454   6.394   6.255  0.2160 -1.0723  0.0215
  380MOL0     O52338   6.576   6.333   6.221  0.1245  0.2426 -0.2425
  380MOL0     C52339   6.691   6.415   6.222  0.2328  0.1136  0.1547
  380MOL0     C52340   6.808   6.348   6.146  0.2055  0.3779  0.2319
  380MOL0     C52341   6.775   6.352   5.998  0.7182  0.3866 -0.1152
  380MOL0     C52342   6.861   6.253   5.915  0.5943  0.3701 -0.2683
  380MOL0     C52343   6.857   6.301   5.767  0.4076  0.7096 -0.8018
  380MOL0     C52344   6.854   6.183   5.662  0.6296 -0.3099 -0.0092
  380MOL0     C52345   7.004   6.147   5.638 -0.6353 -0.1106  0.0772
  380MOL0     C52346   7.044   6.032   5.539  0.3250  0.8646 -0.5926
  380MOL0    Cl52347   7.026   5.878   5.613  0.2148 -0.0426  0.5690
  380MOL0     C52348   6.345   6.315   6.252 -1.4341  0.6129  0.1409
  380MOL0     C52349   6.218   6.359   6.290  0.0868  0.7299 -0.3982
  380MOL0     O52350   6.086   6.427   6.554  0.4939  0.5027 -0.2655
  380MOL0     C52351   5.941   6.745   6.489  0.4967 -0.0049 -0.1806
  380MOL0     C52352   5.849   6.836   6.538  0.1487  0.7574  0.1439
  380MOL0     N52353   5.240   7.153   7.022 -0.4496  0.4739  0.0909
  380MOL0     N52354   5.121   7.157   7.083 -0.1972  0.2914  1.3710
  380MOL0     C52355   3.817   7.205   7.257  0.0777  0.6211 -0.2374
  380MOL0     C52356   3.686   7.163   7.245 -0.6031  0.2107 -0.7354
  380MOL0     C52357   3.287   7.027   7.122 -0.2200  0.5877  0.7494
  380MOL0     C52358   3.218   7.124   7.185 -0.7588  0.4292  0.2812
  380MOL0     C52359   3.080   7.120   7.199  0.7478  0.0302 -0.4551
  380MOL0     C52360   3.005   7.013   7.153 -0.2965 -0.9004  0.4689
  380MOL0     O52361   2.871   7.008   7.183  0.0078 -0.3521  0.4106
  380MOL0     C52362   2.818   6.895   7.257 -0.3809 -0.7166 -0.1618
  380MOL0     C52363   2.663   6.881   7.255 -0.2984 -1.0708  0.1164
  380MOL0     C52364   2.633   6.851   7.111  0.5280  0.5475 -0.3243
  380MOL0     C52365   2.502   6.781   7.084  0.2482  0.6763  0.5834
  380MOL0     C52366   2.381   6.858   7.107 -0.0578 -0.2734 -0.4515
  380MOL0     C52367   2.284   6.917   7.143  0.3264  0.2883  0.3058
  380MOL0     C52368   3.069   6.909   7.096 -0.6668 -0.2852  0.3657
  380MOL0     C52369   3.207   6.911   7.078 -0.2446 -0.0818  0.0517
  380MOL0     C52370   3.278   6.799   6.996  0.4826 -0.3091 -0.1114
  380MOL0     H52371   3.658   7.156   6.902 -2.6696 -1.4711  0.5763
  380MOL0     H52372   3.905   7.198   6.919 -0.6406 -1.7335 -0.4125
  380MOL0     H52373   4.110   7.070   7.143 -1.2900 -0.3739 -1.6579
  380MOL0     H52374   4.209   7.204   7.196 -0.6550  1.1244  0.4884
  380MOL0     H52375   4.119   7.156   6.911 -0.1826 -1.0424  1.8147
  380MOL0     H52376   4.191   7.306   6.966 -2.1948  1.2137  0.5510
  380MOL0     H52377   4.390   7.172   7.050  0.0032  1.7521 -1.4080
  380MOL0     H52378   4.317   7.022   6.978 -0.0232 -0.0996  3.3988
  380MOL0     H52379   4.335   7.130   6.754  0.2815  1.9144 -1.2740
  380MOL0     H52380   4.410   7.270   6.832 -0.4638  0.3104  1.2546
  380MOL0     H52381   4.583   7.157   6.723  0.9348  2.5189  0.7419
  380MOL0     H52382   4.533   7.004   6.806  0.0999  0.0903  0.9088
  380MOL0     H52383   4.641   7.240   6.962 -0.9841  1.5266 -0.8895
  380MOL0     H52384   4.620   7.067   7.009  2.4274 -1.2552 -1.3714
  380MOL0     H52385   4.814   7.127   6.806  3.3075  2.4999  2.1433
  380MOL0     H52386   4.787   6.983   6.916 -3.0596  0.1171 -0.8458
  380MOL0     H52387   4.845   7.249   7.036 -2.4100  0.0276 -0.8061
  380MOL0     H52388   4.864   7.087   7.098 -2.7238  0.1835 -0.5009
  380MOL0     H52389   5.038   7.138   6.760 -2.0891  0.5701  1.0261
  380MOL0     H52390   5.411   7.209   6.840 -0.7565  0.5120 -0.0031
  380MOL0     H52391   5.310   7.201   6.697  1.2501  0.9155 -0.0177
  380MOL0     H52392   5.307   6.940   6.775  2.1974 -3.8247 -3.4655
  380MOL0     H52393   5.400   7.008   6.647 -1.8030 -1.0353 -0.3329
  380MOL0     H52394   5.593   7.046   6.818 -0.3762  0.4927 -0.5590
  380MOL0     H52395   5.498   6.974   6.942  0.6025 -0.2949 -0.4650
  380MOL0     H52396   5.600   6.783   6.858 -0.5106  2.3504  2.2092
  380MOL0     H52397   5.478   6.792   6.731  0.7287 -1.1465 -0.3555
  380MOL0     H52398   5.650   6.611   6.715  1.1747  0.8755  0.5439
  380MOL0     H52399   5.841   6.348   6.534 -0.5861 -1.7614  1.1670
  380MOL0     H52400   5.694   6.389   6.620  1.0904 -0.2343  3.1362
  380MOL0     H52401   5.839   6.405   6.708  0.1982  1.2828  0.2874
  380MOL0     H52402   6.303   6.672   6.380 -0.5146  0.8924 -2.6441
  380MOL0     H52403   6.514   6.601   6.306  0.7765 -0.9245  1.2421
  380MOL0     H52404   6.675   6.509   6.169 -1.8063 -1.0914 -1.5267
  380MOL0     H52405   6.732   6.424   6.323  1.1457  0.8904 -0.2713
  380MOL0     H52406   6.899   6.406   6.163 -0.1073  1.5511 -1.8591
  380MOL0     H52407   6.821   6.245   6.183  1.2926  0.5162  0.2435
  380MOL0     H52408   6.801   6.453   5.965  2.8865  0.8122  2.5630
  380MOL0     H52409   6.670   6.332   5.973  0.3737  1.3042  0.5556
  380MOL0     H52410   6.816   6.154   5.926  0.7737  0.5164  2.2658
  380MOL0     H52411   6.964   6.245   5.949  1.0045 -1.0782 -1.7084
  380MOL0     H52412   6.758   6.347   5.752 -0.4618  0.3369  2.9754
  380MOL0     H52413   6.940   6.368   5.741  1.2820 -0.3572 -0.8087
  380MOL0     H52414   6.792   6.206   5.575  1.8198  1.1449 -0.5014
  380MOL0     H52415   6.791   6.099   5.696 -1.8610 -0.6534 -4.6892
  380MOL0     H52416   7.048   6.117   5.733  0.0336 -2.0998 -0.8123
  380MOL0     H52417   7.051   6.235   5.592  1.7270 -2.0957 -1.5695
  380MOL0     H52418   7.141   6.052   5.492  0.3950  0.0270 -0.8316
  380MOL0     H52419   6.969   6.025   5.460 -0.6025 -1.2565  0.3915
  380MOL0     H52420   6.354   6.216   6.207 -2.3354  0.2729  0.6759
  380MOL0     H52421   6.127   6.301   6.296 -0.2189  1.2979  0.8154
  380MOL0     H52422   6.029   6.788   6.443  1.4035 -2.3121 -0.7315
  380MOL0     H52423   5.857   6.940   6.510  1.9706  1.0106  1.4189
  380MOL0     H52424   3.852   7.236   7.355 -1.8028 -0.9646  0.9877
  380MOL0     H52425   3.625   7.148   7.333  0.3614  3.2679  0.5988
  380MOL0     H52426   3.270   7.209   7.226  1.3109 -0.0255 -1.2091
  380MOL0     H52427   3.029   7.199   7.254  2.7268  0.3492  1.0203
  380MOL0     H52428   2.862   6.799   7.229 -1.2438 -0.7713 -1.3666
  380MOL0     H52429   2.839   6.920   7.362 -1.8580 -0.2059  0.0364
  380MOL0     H52430   2.626   6.982   7.275 -0.3719 -0.9096 -0.7916
  380MOL0     H52431   2.621   6.808   7.324  3.1672 -2.7262  0.6651
  380MOL0     H52432   2.637   6.936   7.043  0.8352  0.4919 -0.3767
  380MOL0     H52433   2.703   6.773   7.081 -0.8097 -0.8363  0.0203
  380MOL0     H52434   2.489   6.688   7.140  0.9832  0.2354  0.0352
  380MOL0     H52435   2.508   6.747   6.981 -0.6221 -3.3000  1.6769
  380MOL0     H52436   2.198   6.971   7.177 -0.4779 -0.0332 -1.1576
  380MOL0     H52437   3.012   6.830   7.048 -1.2980  0.0110  0.6171
  380MOL0     H52438   3.326   6.735   7.071 -2.9556 -1.1790  1.5499
  380MOL0     H52439   3.205   6.735   6.947 -1.1668  0.2585  1.4877
  380MOL0     H52440   3.344   6.829   6.914 -1.1578 -3.0619 -2.6439
  381MOL0     O52441   3.905   0.402   4.766 -0.0976 -0.4662  0.0756
  381MOL0     C52442   3.875   0.287   4.781 -0.2758 -0.0694  0.0947
  381MOL0     O52443   3.972   0.186   4.778  0.0628  0.0110  0.7787
  381MOL0     C52444   4.096   0.227   4.778 -1.1865  0.6449 -0.1743
  381MOL0     C52445   4.172   0.238   4.663 -0.7798 -0.4020  0.8492
  381MOL0     C52446   4.306   0.286   4.668  0.4897  0.1361  0.7115
  381MOL0     C52447   4.371   0.316   4.790  0.3950 -0.4224  0.4994
  381MOL0     O52448   4.504   0.360   4.805 -0.3243 -0.0038  0.5044
  381MOL0     C52449   4.572   0.433   4.693 -0.1082  0.2093 -0.6932
  381MOL0     C52450   4.681   0.520   4.744 -0.1531  1.0819  0.5854
  381MOL0     C52451   4.797   0.460   4.815  0.4353 -0.9946  1.3971
  381MOL0     C52452   4.899   0.426   4.712 -0.0871  0.0560  0.3107
  381MOL0     C52453   4.999   0.345   4.795  0.9467 -1.4596  0.4241
  381MOL0     C52454   5.136   0.331   4.715 -0.7093  0.0266 -0.7291
  381MOL0     C52455   5.237   0.240   4.793  0.0086  0.0095 -0.0116
  381MOL0     C52456   5.281   0.313   4.920  0.5700 -0.1366 -0.5246
  381MOL0     N52457   5.358   0.238   5.017 -0.6867  0.6269  0.4426
  381MOL0     C52458   5.467   0.154   4.988  0.4001 -0.1384  0.1391
  381MOL0     C52459   5.486   0.089   5.110 -0.1949  0.7354 -0.0495
  381MOL0     C52460   5.600   0.000   5.132 -0.1213 -0.7316 -0.0791
  381MOL0     C52461   5.731   0.077   5.105  0.3419  0.5430 -0.2535
  381MOL0     C52462   5.852   0.015   5.175  0.3812 -0.4635  0.7446
  381MOL0     C52463   5.885  -0.126   5.126 -0.0089 -0.1325 -0.1715
  381MOL0     O52464   5.999  -0.175   5.205 -0.0295  0.1967  0.3324
  381MOL0     C52465   6.115  -0.196   5.128  0.0190  0.2383 -0.5697
  381MOL0     C52466   6.128  -0.250   5.003 -0.6346  0.1762  1.5206
  381MOL0     C52467   6.252  -0.253   4.933  0.8062  0.2111 -0.3697
  381MOL0     C52468   6.267  -0.294   4.789  0.4773  0.3034 -0.8335
  381MOL0     C52469   6.366  -0.205   4.991  0.1099 -0.1795 -0.1250
  381MOL0     C52470   6.501  -0.205   4.920  0.0713 -0.8201 -0.3279
  381MOL0     O52471   6.511  -0.157   4.796 -0.2794  0.1691 -0.0750
  381MOL0     C52472   6.619  -0.175   4.714  0.6065 -0.2072  0.0848
  381MOL0     C52473   6.731  -0.273   4.728  0.2000 -0.1587 -0.3383
  381MOL0     C52474   6.838  -0.283   4.634 -0.7159  0.2950 -0.3639
  381MOL0     C52475   6.829  -0.197   4.522 -0.5553  0.0010 -0.5612
  381MOL0     O52476   6.945  -0.211   4.447 -0.2598 -0.4003  0.5444
  381MOL0     C52477   6.931  -0.174   4.303  0.0469  0.0530  0.3093
  381MOL0     C52478   7.040  -0.242   4.220 -0.5103 -0.2956 -0.6173
  381MOL0     C52479   7.178  -0.176   4.235  0.2727  0.8126 -0.2642
  381MOL0     C52480   7.194  -0.027   4.195 -0.7533  1.2094 -0.8414
  381MOL0     C52481   7.345   0.019   4.180  0.4010 -0.4899  0.1889
  381MOL0     C52482   7.382   0.023   4.036 -1.0481 -0.6239  0.1666
  381MOL0     C52483   7.388  -0.119   3.960 -0.2526 -0.0211  1.2924
  381MOL0     C52484   7.460  -0.114   3.821 -0.0634 -0.6311 -0.7801
  381MOL0    Cl52485   7.628  -0.041   3.842  0.4927  0.5936 -0.2048
  381MOL0     C52486   6.722  -0.107   4.497  0.4195 -0.1457  0.2056
  381MOL0     C52487   6.624  -0.096   4.586 -0.0994 -0.2748 -1.0091
  381MOL0     O52488   6.591  -0.254   4.984 -0.3974 -0.1476  0.1277
  381MOL0     C52489   6.359  -0.153   5.125 -0.4776  0.2089 -0.1795
  381MOL0     C52490   6.233  -0.151   5.186 -0.7428 -0.0198 -0.5925
  381MOL0     N52491   5.385   0.121   5.197  0.7399 -0.7156  0.4144
  381MOL0     N52492   5.315   0.213   5.144  0.8990 -0.1325 -0.6531
  381MOL0     C52493   4.299   0.291   4.914  0.2603 -0.3587  0.1423
  381MOL0     C52494   4.161   0.250   4.904  0.9893  0.4139 -0.0029
  381MOL0     C52495   3.727   0.259   4.786  0.2330  0.3147  1.0826
  381MOL0     C52496   3.694   0.119   4.770 -0.3935  0.1246  0.3651
  381MOL0     C52497   3.565   0.078   4.773 -0.1218  0.7412  0.3870
  381MOL0     C52498   3.458   0.166   4.794 -0.1016  0.1186 -0.1002
  381MOL0     O52499   3.325   0.140   4.816  0.3637 -0.0337  0.5666
  381MOL0     C52500   3.280   0.016   4.878  0.0941  0.0063  0.7866
  381MOL0     C52501   3.171  -0.050   4.792  0.5201 -0.8300 -0.0888
  381MOL0     C52502   3.046   0.025   4.807  0.0180 -0.5552 -0.9972
  381MOL0     C52503   2.927  -0.019   4.714 -0.8398  0.2496 -0.7731
  381MOL0     C52504   2.899  -0.160   4.751 -1.2409 -0.0740  0.9399
  381MOL0     C52505   2.876  -0.278   4.783 -0.3433 -0.4549  0.1786
  381MOL0     C52506   3.488   0.306   4.794 -0.3711 -0.4584 -0.2932
  381MOL0     C52507   3.622   0.354   4.791  0.8174 -0.3062 -0.0198
  381MOL0     C52508   3.633   0.500   4.805 -0.5830 -0.2122 -0.4649
  381MOL0     H52509   4.129   0.229   4.564  2.1522  1.0285 -0.7105
  381MOL0     H52510   4.360   0.303   4.575  0.4729  1.0929  0.8658
  381MOL0     H52511   4.497   0.486   4.634 -2.4477 -3.6797 -1.5997
  381MOL0     H52512   4.619   0.352   4.636  3.3426  1.0303  0.7484
  381MOL0     H52513   4.710   0.598   4.672  1.5159  1.5202  1.6528
  381MOL0     H52514   4.622   0.589   4.805 -0.3105 -0.0155  1.7192
  381MOL0     H52515   4.841   0.538   4.878 -1.6376  1.9991 -0.5766
  381MOL0     H52516   4.756   0.377   4.872 -0.6505 -2.4799 -1.3702
  381MOL0     H52517   4.863   0.359   4.633 -2.8068  0.0916  1.4175
  381MOL0     H52518   4.937   0.521   4.673  0.6625 -0.5098 -0.3818
  381MOL0     H52519   4.952   0.250   4.821 -3.1393 -0.2554 -1.6717
  381MOL0     H52520   5.016   0.405   4.884 -1.4866 -0.4076  0.2462
  381MOL0     H52521   5.128   0.284   4.617 -0.4600 -2.8069  0.5097
  381MOL0     H52522   5.177   0.432   4.702 -1.3102  0.4736  0.6205
  381MOL0     H52523   5.332   0.220   4.742 -0.8795 -1.8990 -1.0249
  381MOL0     H52524   5.195   0.146   4.831  1.3065  0.2547  2.2101
  381MOL0     H52525   5.346   0.397   4.891 -0.6835  0.8382 -0.6245
  381MOL0     H52526   5.199   0.360   4.974  1.0482  1.0636 -0.8016
  381MOL0     H52527   5.532   0.152   4.901  0.7985  3.3967  0.2088
  381MOL0     H52528   5.588  -0.085   5.065 -0.5915 -0.1679 -0.7281
  381MOL0     H52529   5.600  -0.028   5.238 -0.1574  0.7190  0.3294
  381MOL0     H52530   5.744   0.087   4.997  1.1108  0.5504 -0.1633
  381MOL0     H52531   5.716   0.181   5.137 -2.1077  0.5239 -1.1087
  381MOL0     H52532   5.941   0.070   5.145 -0.7460  0.1454 -1.7660
  381MOL0     H52533   5.842   0.026   5.284 -0.8554  1.5447  0.4829
  381MOL0     H52534   5.799  -0.189   5.152 -2.2051  1.9371 -1.9575
  381MOL0     H52535   5.890  -0.132   5.017  0.7250  0.5006 -0.1807
  381MOL0     H52536   6.036  -0.283   4.955 -1.4088  2.3472  1.3551
  381MOL0     H52537   6.240  -0.209   4.725 -0.9244  2.7244  2.6849
  381MOL0     H52538   6.199  -0.377   4.768  2.1792 -1.1312 -0.8591
  381MOL0     H52539   6.356  -0.345   4.753 -1.3023 -3.8922  0.1176
  381MOL0     H52540   6.725  -0.346   4.808  1.0532  0.4803  0.3324
  381MOL0     H52541   6.912  -0.362   4.642  1.2479  2.0033 -0.6668
  381MOL0     H52542   6.833  -0.214   4.275  0.7980 -1.4299 -0.3500
  381MOL0     H52543   6.928  -0.065   4.296 -1.6060  0.0776  1.0091
  381MOL0     H52544   7.029  -0.344   4.256  0.2919  0.0738  0.7729
  381MOL0     H52545   7.026  -0.246   4.112 -0.2769  2.5499 -0.8372
  381MOL0     H52546   7.249  -0.230   4.173  1.1546 -0.5268  1.8020
  381MOL0     H52547   7.210  -0.181   4.340 -0.4337  2.6662  0.0809
  381MOL0     H52548   7.147   0.030   4.276 -2.1799 -0.1691 -0.6486
  381MOL0     H52549   7.138  -0.005   4.104 -4.7549 -1.6050  0.6788
  381MOL0     H52550   7.362   0.119   4.222 -0.2661 -0.7717  1.1599
  381MOL0     H52551   7.402  -0.055   4.237  0.4190 -1.2897 -0.8368
  381MOL0     H52552   7.480   0.072   4.036 -0.4360 -1.7718 -0.7253
  381MOL0     H52553   7.311   0.092   3.990 -1.5680 -0.1863  1.5826
  381MOL0     H52554   7.288  -0.157   3.937  0.9775 -3.9835  1.7486
  381MOL0     H52555   7.440  -0.187   4.029  1.9613 -3.1545 -2.9479
  381MOL0     H52556   7.413  -0.038   3.757 -0.3173  1.0688  1.3169
  381MOL0     H52557   7.474  -0.208   3.766  1.2938 -1.6832  1.2442
  381MOL0     H52558   6.707  -0.040   4.413  2.9105  0.7793  0.4496
  381MOL0     H52559   6.549  -0.022   4.559  1.4781  0.9854 -2.1824
  381MOL0     H52560   6.440  -0.108   5.181 -0.9373  1.0565 -0.1825
  381MOL0     H52561   6.212  -0.121   5.288 -0.8228 -0.1371 -0.5742
  381MOL0     H52562   4.350   0.319   5.006 -0.3956  0.8901  0.1503
  381MOL0     H52563   4.091   0.241   4.987 -1.4011 -1.0236 -2.0222
  381MOL0     H52564   3.770   0.043   4.754 -0.7943 -1.9671  6.1156
  381MOL0     H52565   3.541  -0.027   4.759  2.1463 -0.2120  2.8357
  381MOL0     H52566   3.356  -0.060   4.896  3.3179  2.9033  0.3092
  381MOL0     H52567   3.249   0.047   4.978  4.1257 -0.2067  2.2490
  381MOL0     H52568   3.169  -0.151   4.833 -0.4618  0.2770  2.8980
  381MOL0     H52569   3.203  -0.049   4.688 -1.9268  1.1215 -0.9190
  381MOL0     H52570   3.009   0.028   4.910  1.3184  2.3828 -0.5148
  381MOL0     H52571   3.065   0.128   4.776  1.9046 -0.4790  0.2534
  381MOL0     H52572   2.966  -0.019   4.612  2.2677  0.3326  0.2968
  381MOL0     H52573   2.833   0.035   4.724 -0.7014  0.1921  1.3344
  381MOL0     H52574   2.855  -0.375   4.822  0.0338 -0.7813 -0.4065
  381MOL0     H52575   3.410   0.380   4.808 -0.5318 -0.9684  1.8717
  381MOL0     H52576   3.722   0.519   4.866 -1.3244  0.0142  0.5950
  381MOL0     H52577   3.639   0.551   4.709  2.8896  1.7975  0.6215
  381MOL0     H52578   3.545   0.536   4.861 -3.2606 -3.0996 -2.4940
  382MOL0     O52579   2.372   5.353   0.372  0.3287 -0.2304 -0.0499
  382MOL0     C52580   2.373   5.259   0.452 -0.5664  1.0656  0.0312
  382MOL0     O52581   2.475   5.223   0.544  0.4323 -0.1091  0.2444
  382MOL0     C52582   2.596   5.291   0.553 -0.3425 -0.0125 -0.7392
  382MOL0     C52583   2.693   5.234   0.644 -0.1217 -0.1567  0.9448
  382MOL0     C52584   2.826   5.293   0.657  1.1056  0.0429  0.1652
  382MOL0     C52585   2.854   5.419   0.602  0.0666  0.4301  0.0606
  382MOL0     O52586   2.964   5.494   0.612  0.0870 -0.4576  0.3904
  382MOL0     C52587   3.042   5.484   0.736  0.2438 -0.8006 -0.7874
  382MOL0     C52588   3.172   5.550   0.704 -0.2821 -0.3547 -0.4358
  382MOL0     C52589   3.264   5.553   0.831  0.0075  0.3126  0.4345
  382MOL0     C52590   3.400   5.614   0.794 -0.2975  0.2329 -0.0882
  382MOL0     C52591   3.483   5.652   0.914 -0.4159  0.0326  0.1897
  382MOL0     C52592   3.504   5.803   0.934 -0.0617 -0.4129 -0.4014
  382MOL0     C52593   3.382   5.892   0.959 -0.9523 -0.6598  0.8746
  382MOL0     C52594   3.336   5.867   1.099 -0.1974  0.1790 -0.3749
  382MOL0     N52595   3.232   5.962   1.131  0.5368 -0.1402 -0.5918
  382MOL0     C52596   3.099   5.922   1.149 -0.7579 -1.3021 -0.0592
  382MOL0     C52597   3.033   6.040   1.164  0.1166 -0.5953 -0.2144
  382MOL0     C52598   2.885   6.060   1.176 -0.5122  0.2663 -0.0669
  382MOL0     C52599   2.828   5.977   1.287 -0.0468 -0.1487 -0.0214
  382MOL0     C52600   2.695   6.033   1.348  0.0322  0.3794 -0.6658
  382MOL0     C52601   2.582   6.063   1.246  0.4354  0.5222 -0.1926
  382MOL0     O52602   2.560   5.945   1.174 -0.2552 -0.4207  1.0970
  382MOL0     C52603   2.445   5.949   1.095  0.5198  0.2197  0.5785
  382MOL0     C52604   2.394   6.063   1.035 -1.0141  0.4735  0.4520
  382MOL0     C52605   2.272   6.058   0.961  0.6584  0.3501 -0.0604
  382MOL0     C52606   2.213   6.194   0.921  0.2209 -0.2859  0.0116
  382MOL0     C52607   2.198   5.938   0.952  0.4467  0.1439  0.6015
  382MOL0     C52608   2.075   5.920   0.872  0.0117 -0.4348  0.2250
  382MOL0     O52609   1.990   6.030   0.859  0.2793  0.6741 -0.0756
  382MOL0     C52610   1.889   6.001   0.764 -0.6473 -0.6254  0.2821
  382MOL0     C52611   1.902   6.045   0.630 -0.0895  0.2146 -0.5524
  382MOL0     C52612   1.798   6.034   0.540  0.0905 -0.3061  0.2205
  382MOL0     C52613   1.675   5.975   0.571  0.0896 -0.6142  0.2861
  382MOL0     O52614   1.574   5.974   0.489 -0.1211 -0.0799  0.5775
  382MOL0     C52615   1.457   5.890   0.508 -0.5517 -0.1810  0.3628
  382MOL0     C52616   1.354   5.935   0.390  0.8796 -0.2296  0.2403
  382MOL0     C52617   1.223   5.841   0.407 -0.5525  0.5072  0.1120
  382MOL0     C52618   1.113   5.890   0.312 -0.7279 -0.5162 -1.2485
  382MOL0     C52619   1.163   5.900   0.171 -0.2022  0.4154  0.0460
  382MOL0     C52620   1.044   5.926   0.072  1.4548 -1.1001 -0.0400
  382MOL0     C52621   1.094   5.974  -0.061 -0.0135 -0.3563  0.4443
  382MOL0     C52622   0.976   6.017  -0.151 -0.0116 -0.5080  1.4312
  382MOL0    Cl52623   0.878   5.859  -0.162  0.0373 -0.2619  0.1827
  382MOL0     C52624   1.664   5.932   0.711  0.8065  1.2566  0.0749
  382MOL0     C52625   1.769   5.946   0.798 -0.0346  0.1937 -0.8398
  382MOL0     O52626   2.045   5.810   0.822  0.1641  1.0775 -0.6275
  382MOL0     C52627   2.258   5.819   1.009 -0.1306 -0.2973  0.9814
  382MOL0     C52628   2.378   5.824   1.074  0.1494  0.1498 -0.4461
  382MOL0     N52629   3.122   6.147   1.159 -0.1529  0.3694 -0.4589
  382MOL0     N52630   3.237   6.093   1.142 -0.2645  0.4813 -0.2917
  382MOL0     C52631   2.754   5.472   0.520 -0.6234  0.1425 -0.0947
  382MOL0     C52632   2.630   5.408   0.496 -0.2012 -0.2772  0.0395
  382MOL0     C52633   2.262   5.156   0.434  0.9931  0.6160 -1.0430
  382MOL0     C52634   2.276   5.026   0.493 -0.3179  1.1900  0.4719
  382MOL0     C52635   2.186   4.926   0.468  0.1868 -0.6159 -0.8983
  382MOL0     C52636   2.071   4.943   0.402  1.0702 -0.3398 -0.5038
  382MOL0     O52637   1.989   4.840   0.372  0.5878 -0.0236 -0.0942
  382MOL0     C52638   1.844   4.866   0.381 -0.7222  0.5109 -0.0455
  382MOL0     C52639   1.820   4.872   0.534  0.0527 -0.1083 -0.5115
  382MOL0     C52640   1.848   4.729   0.598 -1.0351  0.5613 -0.7967
  382MOL0     C52641   1.839   4.727   0.755 -0.3840 -0.2991 -0.0548
  382MOL0     C52642   1.958   4.766   0.830  0.1940 -0.0861  1.0633
  382MOL0     C52643   2.061   4.794   0.882  0.4136  0.0295  0.2242
  382MOL0     C52644   2.052   5.066   0.342 -0.6403 -0.5375  0.2706
  382MOL0     C52645   2.140   5.177   0.360 -0.6049 -0.2566  0.1605
  382MOL0     C52646   2.096   5.309   0.309  0.8260 -0.9714 -0.1892
  382MOL0     H52647   2.664   5.138   0.687  0.3476 -2.4822 -3.3468
  382MOL0     H52648   2.893   5.234   0.719  1.0338 -2.4722 -1.9800
  382MOL0     H52649   3.066   5.380   0.761 -0.2755 -0.6783  0.2733
  382MOL0     H52650   2.996   5.529   0.824 -0.3018  2.1334 -2.4481
  382MOL0     H52651   3.223   5.489   0.629  0.2636 -0.8764  0.3349
  382MOL0     H52652   3.151   5.650   0.667 -4.4806 -1.6983 -2.2100
  382MOL0     H52653   3.211   5.601   0.914  0.7063  0.4848  0.7930
  382MOL0     H52654   3.290   5.453   0.865 -2.5145 -0.2418  0.9182
  382MOL0     H52655   3.454   5.541   0.734  0.7373 -0.4979  1.6500
  382MOL0     H52656   3.377   5.697   0.726 -0.1681 -1.3375 -2.1397
  382MOL0     H52657   3.584   5.614   0.898 -0.2282  0.4326  0.4051
  382MOL0     H52658   3.433   5.606   0.999 -1.7093  0.6571 -0.2118
  382MOL0     H52659   3.571   5.811   1.021 -2.4702 -0.1963  1.5383
  382MOL0     H52660   3.553   5.842   0.844 -0.2212  0.9214  0.0730
  382MOL0     H52661   3.305   5.871   0.884 -1.6522 -2.2124  1.9640
  382MOL0     H52662   3.415   5.995   0.943 -4.1419  0.4936  0.9821
  382MOL0     H52663   3.302   5.764   1.112 -1.0300  0.0385 -3.0299
  382MOL0     H52664   3.413   5.891   1.174 -0.0475 -3.4857  0.8424
  382MOL0     H52665   3.077   5.817   1.160 -1.6079 -1.0048  1.3012
  382MOL0     H52666   2.841   6.036   1.079  1.1642 -0.0972 -0.7819
  382MOL0     H52667   2.872   6.167   1.191  1.1750  0.7993 -1.9206
  382MOL0     H52668   2.801   5.876   1.255  0.5608 -0.2369 -0.2781
  382MOL0     H52669   2.904   5.971   1.366  2.1773 -3.1709 -2.1711
  382MOL0     H52670   2.665   5.950   1.414  0.7015 -0.1922 -1.0586
  382MOL0     H52671   2.704   6.121   1.412 -2.8022  0.8863 -0.8796
  382MOL0     H52672   2.492   6.096   1.299  1.4338  1.9708  0.7024
  382MOL0     H52673   2.609   6.146   1.180 -0.1306  3.7476  3.2869
  382MOL0     H52674   2.454   6.153   1.034 -0.6735  0.2800 -1.6014
  382MOL0     H52675   2.283   6.277   0.930  0.6314 -0.2747 -2.6219
  382MOL0     H52676   2.124   6.218   0.980  0.4533 -0.4572  0.4391
  382MOL0     H52677   2.183   6.195   0.816  0.1214 -4.7200 -0.1870
  382MOL0     H52678   1.996   6.088   0.597  0.8315 -2.1520 -1.2721
  382MOL0     H52679   1.803   6.083   0.443  0.0703 -0.3320  0.2065
  382MOL0     H52680   1.479   5.783   0.503 -0.7816 -0.1934 -0.5458
  382MOL0     H52681   1.409   5.904   0.605 -2.2271 -2.6630 -0.0179
  382MOL0     H52682   1.337   6.042   0.398  0.6058 -0.3091  0.7458
  382MOL0     H52683   1.413   5.924   0.298  3.3468  2.4219  1.3497
  382MOL0     H52684   1.198   5.832   0.513  4.4494  1.6703  1.6528
  382MOL0     H52685   1.256   5.745   0.367  0.7335 -0.0378  2.2932
  382MOL0     H52686   1.072   5.986   0.345  0.2335 -0.6671  0.4547
  382MOL0     H52687   1.032   5.816   0.310  0.5604 -2.1105  1.4022
  382MOL0     H52688   1.228   5.988   0.172  2.8809 -1.6884  2.0718
  382MOL0     H52689   1.215   5.809   0.141 -3.1212 -2.1103  1.9563
  382MOL0     H52690   0.988   6.013   0.108  2.0104 -0.2031 -1.2750
  382MOL0     H52691   0.982   5.836   0.064 -1.2897  0.6555 -0.1933
  382MOL0     H52692   1.160   5.904  -0.113 -0.3423 -0.2264 -0.1559
  382MOL0     H52693   1.152   6.065  -0.047 -0.1273 -0.3255  0.7314
  382MOL0     H52694   1.004   6.050  -0.252  1.5889 -0.0747  1.9840
  382MOL0     H52695   0.921   6.103  -0.112 -4.2058 -1.3925 -1.8554
  382MOL0     H52696   1.573   5.889   0.751  2.0316 -0.0506  1.6151
  382MOL0     H52697   1.746   5.904   0.896  0.4690 -1.4965 -1.4090
  382MOL0     H52698   2.208   5.723   1.000 -1.4623  0.3596  1.0890
  382MOL0     H52699   2.414   5.740   1.132  0.3818  1.2312  1.0333
  382MOL0     H52700   2.766   5.564   0.464 -3.1113  1.2310  1.0118
  382MOL0     H52701   2.575   5.473   0.430  0.4612 -0.2264 -0.4781
  382MOL0     H52702   2.360   4.994   0.555  0.4005  0.8207 -0.6664
  382MOL0     H52703   2.208   4.826   0.503  3.3114 -0.0311 -0.9086
  382MOL0     H52704   1.808   4.960   0.339 -0.2507  1.4125  1.4851
  382MOL0     H52705   1.793   4.785   0.328  0.2946 -1.7299  2.1887
  382MOL0     H52706   1.716   4.894   0.561  0.0528  1.7915 -1.8594
  382MOL0     H52707   1.877   4.955   0.578  2.1534 -1.6500 -0.1814
  382MOL0     H52708   1.767   4.658   0.576 -0.6403 -0.8821  1.8954
  382MOL0     H52709   1.948   4.693   0.572 -1.7865 -0.8324 -1.9102
  382MOL0     H52710   1.809   4.626   0.784 -0.9714 -0.1001  0.0450
  382MOL0     H52711   1.750   4.782   0.788  1.1325  0.2887  3.4304
  382MOL0     H52712   2.159   4.819   0.915 -0.0494  1.2223  0.7565
  382MOL0     H52713   1.975   5.078   0.266  0.8009 -0.0865 -1.1840
  382MOL0     H52714   1.997   5.311   0.263  1.2611 -3.1344 -1.3687
  382MOL0     H52715   2.096   5.381   0.392 -3.4901 -0.6714 -0.2059
  382MOL0     H52716   2.165   5.353   0.236  1.9640  0.2111  1.5340
  383MOL0     O52717   1.246   4.614   6.688 -0.3769  0.0887  0.4565
  383MOL0     C52718   1.256   4.608   6.569 -0.5244  0.0738  0.3842
  383MOL0     O52719   1.378   4.592   6.506 -0.0612  0.4455  0.3708
  383MOL0     C52720   1.486   4.606   6.580 -0.5525  0.0664 -0.8314
  383MOL0     C52721   1.520   4.722   6.646  0.7942  0.5477 -0.5557
  383MOL0     C52722   1.636   4.729   6.726 -1.0653  0.8081 -0.3940
  383MOL0     C52723   1.735   4.629   6.721 -0.5808  0.0744 -0.0874
  383MOL0     O52724   1.843   4.654   6.807 -0.0205 -0.7610  0.4236
  383MOL0     C52725   1.971   4.606   6.760  0.2236  0.0874 -0.7846
  383MOL0     C52726   2.067   4.722   6.731  0.3068 -0.4464 -0.0933
  383MOL0     C52727   2.210   4.677   6.730  0.6306 -0.0534 -0.2240
  383MOL0     C52728   2.299   4.796   6.714 -0.0844  0.7316  0.9528
  383MOL0     C52729   2.440   4.738   6.744  0.3018 -0.0771  0.2502
  383MOL0     C52730   2.547   4.848   6.714 -1.0315  0.3439  0.5820
  383MOL0     C52731   2.680   4.789   6.674  0.2456  0.3937  0.2476
  383MOL0     C52732   2.762   4.720   6.786  0.1337 -0.0680 -0.3666
  383MOL0     N52733   2.894   4.673   6.727  0.2269  0.1633  0.0065
  383MOL0     C52734   2.921   4.585   6.625 -0.7201 -0.3080 -0.2468
  383MOL0     C52735   3.051   4.563   6.620  0.5060 -0.1075 -0.8211
  383MOL0     C52736   3.126   4.472   6.527 -0.7217 -0.7215 -0.7219
  383MOL0     C52737   3.249   4.393   6.584  0.2158 -0.5281 -0.0311
  383MOL0     C52738   3.358   4.504   6.600 -0.4110  0.3853  0.2942
  383MOL0     C52739   3.510   4.469   6.588  0.2658  0.3449 -0.9019
  383MOL0     O52740   3.538   4.445   6.451 -0.6830  0.3750 -0.1655
  383MOL0     C52741   3.666   4.473   6.415 -0.2525  0.4699 -0.7222
  383MOL0     C52742   3.735   4.381   6.333  0.3020 -0.2182 -0.1325
  383MOL0     C52743   3.852   4.414   6.268 -0.4407 -0.3402  0.1222
  383MOL0     C52744   3.894   4.318   6.157  0.9521  0.1898  0.4752
  383MOL0     C52745   3.924   4.531   6.309 -0.9663 -0.5020 -0.4760
  383MOL0     C52746   4.064   4.566   6.264  0.6914  0.3080  0.0033
  383MOL0     O52747   4.145   4.461   6.248 -0.0720 -0.0305  0.2915
  383MOL0     C52748   4.276   4.494   6.226 -0.4394  0.0509  0.0607
  383MOL0     C52749   4.357   4.539   6.333  0.1854 -0.9163 -0.3118
  383MOL0     C52750   4.488   4.580   6.309 -0.1407 -0.6161 -0.6593
  383MOL0     C52751   4.555   4.546   6.186 -0.8705  0.9022  0.6076
  383MOL0     O52752   4.689   4.578   6.154  0.0814 -0.1770 -0.0077
  383MOL0     C52753   4.758   4.665   6.243  0.1634  0.4047  0.2431
  383MOL0     C52754   4.899   4.670   6.187 -0.7938  0.1735 -0.7086
  383MOL0     C52755   4.979   4.547   6.240 -0.0921  0.0773 -0.2157
  383MOL0     C52756   5.115   4.546   6.165  0.8864 -0.8503  0.4604
  383MOL0     C52757   5.195   4.678   6.190 -0.0018 -0.2481  0.1544
  383MOL0     C52758   5.351   4.664   6.162 -0.3766 -0.2058 -1.4895
  383MOL0     C52759   5.380   4.672   6.015  0.0776  0.8275  0.4054
  383MOL0     C52760   5.524   4.676   5.975  0.2323  1.1079 -0.0038
  383MOL0    Cl52761   5.608   4.537   6.053  0.2703  0.0722 -0.2880
  383MOL0     C52762   4.472   4.484   6.087 -0.4675 -0.9976  0.2151
  383MOL0     C52763   4.339   4.469   6.107 -0.1014 -0.1390  0.7256
  383MOL0     O52764   4.095   4.686   6.251 -0.3336 -0.5339 -0.2471
  383MOL0     C52765   3.852   4.628   6.387  0.6990 -0.6558  0.5971
  383MOL0     C52766   3.726   4.600   6.429  1.9780  0.4702  0.2841
  383MOL0     N52767   3.104   4.647   6.717 -1.0459 -0.3094  0.2201
  383MOL0     N52768   3.014   4.694   6.795  0.3564  0.6778  0.1915
  383MOL0     C52769   1.708   4.516   6.639  0.4898 -0.7323 -0.7417
  383MOL0     C52770   1.583   4.506   6.573  0.2491  0.0506 -0.1113
  383MOL0     C52771   1.139   4.603   6.480  0.6289  0.1659  0.1110
  383MOL0     C52772   1.164   4.571   6.343  0.2043  1.0544  0.1633
  383MOL0     C52773   1.059   4.541   6.250 -0.6650  0.2324 -1.0010
  383MOL0     C52774   0.926   4.577   6.282 -0.6950  0.5097  0.7790
  383MOL0     O52775   0.830   4.550   6.188  0.4361  0.0466 -0.7250
  383MOL0     C52776   0.695   4.573   6.236  0.2283 -0.5095 -0.0448
  383MOL0     C52777   0.611   4.562   6.107 -0.5897 -0.8774 -0.0948
  383MOL0     C52778   0.464   4.576   6.133  0.0751  0.2401 -0.5059
  383MOL0     C52779   0.378   4.616   6.013  0.5310  0.7387 -0.7615
  383MOL0     C52780   0.371   4.763   5.983  0.1406 -1.0172  0.3561
  383MOL0     C52781   0.372   4.880   5.961 -0.4292 -0.1853 -0.6523
  383MOL0     C52782   0.906   4.619   6.417 -0.2131 -0.5528  1.0085
  383MOL0     C52783   1.000   4.623   6.511  0.5379 -0.8757  0.0910
  383MOL0     C52784   0.947   4.660   6.654  0.3324  0.3138  0.9047
  383MOL0     H52785   1.449   4.804   6.638  0.9595  0.8624  0.9447
  383MOL0     H52786   1.659   4.822   6.777  3.5069  0.6913 -1.7951
  383MOL0     H52787   1.955   4.537   6.676 -2.4996 -0.2419 -0.0904
  383MOL0     H52788   2.007   4.540   6.840 -2.0254 -0.6126 -0.2641
  383MOL0     H52789   2.039   4.766   6.634  1.8133 -2.4244 -1.4938
  383MOL0     H52790   2.050   4.795   6.811  2.0103 -2.0203  1.7833
  383MOL0     H52791   2.230   4.629   6.827 -0.0295 -0.8478 -0.4755
  383MOL0     H52792   2.229   4.595   6.660  0.9256 -1.3841  1.3253
  383MOL0     H52793   2.297   4.835   6.612 -0.2474  0.1280  0.7219
  383MOL0     H52794   2.262   4.869   6.788 -3.1517  1.4847 -1.1159
  383MOL0     H52795   2.459   4.654   6.676  0.6348  1.0172 -1.0539
  383MOL0     H52796   2.451   4.706   6.848 -3.2637 -1.9043  0.1897
  383MOL0     H52797   2.513   4.906   6.627  0.5976  1.5805  0.7356
  383MOL0     H52798   2.555   4.918   6.797 -1.4700 -1.4854  2.2284
  383MOL0     H52799   2.747   4.866   6.634  0.1286  1.5014  2.0760
  383MOL0     H52800   2.671   4.715   6.593 -1.4885  0.2029  0.5764
  383MOL0     H52801   2.794   4.780   6.871  2.5788 -0.8928 -0.6444
  383MOL0     H52802   2.704   4.632   6.816  1.0471  0.1289  2.2143
  383MOL0     H52803   2.850   4.540   6.557 -1.1218  0.9386 -0.6839
  383MOL0     H52804   3.152   4.508   6.427  0.2224  1.5846  0.2782
  383MOL0     H52805   3.051   4.396   6.502 -2.5876  1.7515 -3.3530
  383MOL0     H52806   3.217   4.342   6.675 -2.3968 -3.1118 -2.1927
  383MOL0     H52807   3.278   4.312   6.516  1.6266  0.9702 -1.3011
  383MOL0     H52808   3.336   4.594   6.544 -1.3076  0.0367  0.0711
  383MOL0     H52809   3.344   4.538   6.704 -2.8998 -3.3161  1.3938
  383MOL0     H52810   3.556   4.564   6.615 -0.9508  0.9276 -0.8047
  383MOL0     H52811   3.545   4.385   6.649 -1.9792 -0.5457 -0.7582
  383MOL0     H52812   3.679   4.288   6.329 -0.8068  0.4617 -1.1858
  383MOL0     H52813   3.858   4.368   6.066 -0.9523  1.3733  1.7977
  383MOL0     H52814   3.829   4.231   6.171 -2.0538  2.0182 -0.9360
  383MOL0     H52815   3.997   4.284   6.145 -0.5027 -5.1778  0.4276
  383MOL0     H52816   4.312   4.556   6.430 -1.0296  0.7047 -1.1024
  383MOL0     H52817   4.536   4.631   6.392 -1.5670  1.1822 -0.8815
  383MOL0     H52818   4.711   4.763   6.257  0.4925  0.9194 -1.9094
  383MOL0     H52819   4.761   4.621   6.342  0.8208  2.7437  1.3443
  383MOL0     H52820   4.886   4.679   6.079 -0.1232 -3.4064 -1.2155
  383MOL0     H52821   4.943   4.769   6.203 -0.6980  0.6614 -3.5189
  383MOL0     H52822   4.912   4.461   6.237 -1.7612  1.1540  2.1332
  383MOL0     H52823   5.005   4.558   6.346  1.5973  0.5765 -0.6471
  383MOL0     H52824   5.096   4.537   6.058  1.0894 -3.7639  0.5849
  383MOL0     H52825   5.169   4.454   6.189  0.1052 -1.8915 -1.5463
  383MOL0     H52826   5.151   4.754   6.126  0.2826 -0.0594  0.1808
  383MOL0     H52827   5.184   4.694   6.297 -1.4173 -2.3213  0.3754
  383MOL0     H52828   5.389   4.566   6.190  4.3404  1.6512 -0.5122
  383MOL0     H52829   5.399   4.746   6.217 -1.1543  0.2543 -1.4762
  383MOL0     H52830   5.330   4.761   5.976  0.1914  0.4697 -0.5769
  383MOL0     H52831   5.332   4.585   5.968  0.8455  0.7670 -0.2714
  383MOL0     H52832   5.565   4.773   6.004 -0.0318  1.1474  0.2379
  383MOL0     H52833   5.526   4.684   5.866  1.0556  5.5736  0.1720
  383MOL0     H52834   4.522   4.455   5.996 -1.5263 -2.0414 -0.0625
  383MOL0     H52835   4.292   4.412   6.027  0.5690 -0.5282  0.5962
  383MOL0     H52836   3.894   4.719   6.430  0.8067 -1.0981  1.4466
  383MOL0     H52837   3.677   4.670   6.495  1.5342 -0.6720  1.1903
  383MOL0     H52838   1.780   4.436   6.627  1.5047 -0.4014  2.1538
  383MOL0     H52839   1.545   4.424   6.513 -1.7867  0.9394 -0.1353
  383MOL0     H52840   1.266   4.566   6.307  1.4653 -3.0129  3.5372
  383MOL0     H52841   1.076   4.506   6.149  2.2631 -3.8615  0.6256
  383MOL0     H52842   0.673   4.505   6.318 -1.8049  0.5185  0.3182
  383MOL0     H52843   0.684   4.675   6.275 -0.3438  0.0426 -1.5667
  383MOL0     H52844   0.622   4.470   6.049 -2.2266 -0.0497 -1.8148
  383MOL0     H52845   0.654   4.645   6.050  1.7078 -0.4796  2.0499
  383MOL0     H52846   0.423   4.480   6.163  0.6006  0.9712  3.0422
  383MOL0     H52847   0.449   4.649   6.213 -0.2100 -0.9509  0.5597
  383MOL0     H52848   0.273   4.596   6.040  0.5379 -1.2748 -2.0080
  383MOL0     H52849   0.396   4.556   5.924  3.1522  0.5713 -0.1860
  383MOL0     H52850   0.362   4.987   5.967  2.6349  0.2669 -1.9103
  383MOL0     H52851   0.807   4.639   6.457 -0.0305  0.6967  0.8622
  383MOL0     H52852   0.847   4.627   6.682  0.6469 -1.3020  0.2555
  383MOL0     H52853   1.013   4.614   6.729  0.6102  0.6157  0.8470
  383MOL0     H52854   0.943   4.768   6.667  2.2478  0.4973  0.3566
  384MOL0     O52855   6.881   0.694   3.721  0.0237 -0.0486  0.2637
  384MOL0     C52856   6.848   0.591   3.663  0.2049 -0.0329  0.2992
  384MOL0     O52857   6.929   0.511   3.585 -0.4331 -0.0849  0.2672
  384MOL0     C52858   7.056   0.547   3.564  0.0846 -0.8931 -0.0340
  384MOL0     C52859   7.149   0.559   3.667 -0.4122 -0.0003  0.2064
  384MOL0     C52860   7.283   0.561   3.633  0.2834 -0.2457 -0.4256
  384MOL0     C52861   7.334   0.577   3.505 -0.5899 -0.5033 -0.2991
  384MOL0     O52862   7.469   0.586   3.478 -0.3674  0.2539 -0.2625
  384MOL0     C52863   7.497   0.629   3.346 -0.2789 -0.3526  0.4066
  384MOL0     C52864   7.646   0.669   3.319 -0.1153  0.2606 -1.0622
  384MOL0     C52865   7.693   0.792   3.403  1.4388  0.3888  0.6345
  384MOL0     C52866   7.827   0.855   3.349 -0.0409 -0.2214  0.1174
  384MOL0     C52867   7.827   0.999   3.384  0.0332 -0.8928  0.1308
  384MOL0     C52868   7.836   1.022   3.531 -0.7467 -1.4490  1.2919
  384MOL0     C52869   7.943   0.930   3.591  0.0986 -0.2916  0.3125
  384MOL0     C52870   8.003   0.982   3.730  0.3094  0.7652 -0.0801
  384MOL0     N52871   8.123   0.922   3.780  0.0969 -0.0580  0.0746
  384MOL0     C52872   8.146   0.797   3.836 -0.3648 -0.0008  0.0208
  384MOL0     C52873   8.280   0.777   3.831  0.2148 -0.1229 -0.6270
  384MOL0     C52874   8.352   0.651   3.850 -0.5146  0.8017  0.0525
  384MOL0     C52875   8.311   0.560   3.970 -0.6577 -0.5319  0.7329
  384MOL0     C52876   8.385   0.425   3.961  0.0494 -1.1818 -0.0211
  384MOL0     C52877   8.360   0.338   4.079  0.9565  0.1378  0.2555
  384MOL0     O52878   8.428   0.394   4.191 -0.5328 -0.8391  0.1532
  384MOL0     C52879   8.567   0.410   4.198 -0.8312 -0.1790 -0.3233
  384MOL0     C52880   8.660   0.312   4.150  0.5778  0.6143 -0.9572
  384MOL0     C52881   8.792   0.322   4.180 -0.2222  0.2890 -0.1857
  384MOL0     C52882   8.885   0.226   4.109  0.5974 -1.0531 -0.2098
  384MOL0     C52883   8.843   0.422   4.269 -0.0070 -0.0699 -0.2912
  384MOL0     C52884   8.987   0.438   4.304  0.0858  0.5359 -0.2109
  384MOL0     O52885   9.061   0.322   4.302  0.2214 -1.1463 -0.0692
  384MOL0     C52886   9.176   0.315   4.376  1.1128  1.2478 -0.4896
  384MOL0     C52887   9.173   0.327   4.519 -0.7815  0.3498 -0.4391
  384MOL0     C52888   9.291   0.313   4.595 -0.3495 -0.6555 -0.8110
  384MOL0     C52889   9.405   0.276   4.527  0.2880  0.6941 -0.0356
  384MOL0     O52890   9.529   0.270   4.587 -0.5667 -0.2053  0.4691
  384MOL0     C52891   9.564   0.379   4.670  0.4681 -0.5696  0.1557
  384MOL0     C52892   9.682   0.334   4.750  0.7902 -0.5742  1.1075
  384MOL0     C52893   9.734   0.452   4.839 -0.1023 -0.2811  0.3019
  384MOL0     C52894   9.862   0.408   4.912 -0.3485 -0.0195  0.0509
  384MOL0     C52895   9.938   0.514   4.993  0.3192  0.3340  0.1313
  384MOL0     C52896   9.871   0.569   5.114  0.4473  0.5229 -0.3919
  384MOL0     C52897   9.952   0.642   5.214  0.2663 -0.6598 -0.0604
  384MOL0     C52898   9.863   0.729   5.304  0.0508 -0.1000 -0.6746
  384MOL0    Cl52899   9.799   0.640   5.435 -0.1763 -0.1489 -0.7896
  384MOL0     C52900   9.402   0.252   4.388  0.4142 -0.3471  0.1376
  384MOL0     C52901   9.287   0.252   4.319  1.1681  0.4437  0.4804
  384MOL0     O52902   9.025   0.547   4.336 -0.2775  0.0224 -0.5573
  384MOL0     C52903   8.753   0.521   4.313 -0.0205 -0.0922  0.0208
  384MOL0     C52904   8.611   0.520   4.273 -0.5104 -0.6687  0.7299
  384MOL0     N52905   8.338   0.895   3.778 -0.7449 -0.2868 -0.6000
  384MOL0     N52906   8.242   0.976   3.747 -0.0788  0.3743  0.0492
  384MOL0     C52907   7.234   0.571   3.403 -0.1150  0.6606  0.3813
  384MOL0     C52908   7.094   0.546   3.428  0.9814 -0.0432  0.7354
  384MOL0     C52909   6.708   0.540   3.659 -0.5866 -0.5145 -0.5754
  384MOL0     C52910   6.668   0.415   3.612 -1.1954  1.2595 -0.7677
  384MOL0     C52911   6.534   0.375   3.608  0.0450 -0.1243  0.1833
  384MOL0     C52912   6.423   0.451   3.650 -0.7150 -0.8025  0.9298
  384MOL0     O52913   6.300   0.389   3.644 -0.8664  0.1036 -0.2258
  384MOL0     C52914   6.201   0.466   3.721 -0.5693  0.0963  0.0714
  384MOL0     C52915   6.093   0.362   3.747 -0.4962  0.2637  0.3234
  384MOL0     C52916   6.041   0.306   3.606  0.5606  0.1274 -0.4212
  384MOL0     C52917   5.893   0.324   3.576 -0.6191  0.6685 -0.0705
  384MOL0     C52918   5.879   0.270   3.440  0.0799 -0.1434  0.5424
  384MOL0     C52919   5.854   0.231   3.334 -0.0228 -0.2468 -0.1180
  384MOL0     C52920   6.457   0.580   3.700  0.6164 -1.0475  0.1726
  384MOL0     C52921   6.594   0.626   3.708  1.1622 -0.1046  0.5065
  384MOL0     C52922   6.607   0.774   3.757 -0.2600  0.4778  0.3499
  384MOL0     H52923   7.096   0.558   3.763  0.2384 -0.1220  0.5687
  384MOL0     H52924   7.360   0.569   3.710 -0.9900  0.1342  0.8481
  384MOL0     H52925   7.433   0.714   3.318  0.9680  0.5151  0.1303
  384MOL0     H52926   7.473   0.547   3.277  1.7648  0.0503 -0.8581
  384MOL0     H52927   7.706   0.586   3.357 -2.1026 -1.1226 -0.8006
  384MOL0     H52928   7.671   0.688   3.214 -0.2271  0.2504 -1.0911
  384MOL0     H52929   7.612   0.866   3.400 -1.6933 -2.8338 -0.6580
  384MOL0     H52930   7.695   0.765   3.509 -0.3368 -0.4988  0.4789
  384MOL0     H52931   7.922   0.813   3.382  0.8162  0.6212 -1.1929
  384MOL0     H52932   7.838   0.868   3.241 -0.7239  0.3906  0.1096
  384MOL0     H52933   7.745   1.057   3.340  2.3806  4.4379  1.8652
  384MOL0     H52934   7.912   1.053   3.340  0.0290  2.1397  3.3764
  384MOL0     H52935   7.855   1.129   3.544  0.1704 -0.8629 -3.0651
  384MOL0     H52936   7.742   1.003   3.582 -0.6922 -0.6937  1.6956
  384MOL0     H52937   8.026   0.924   3.520 -0.6824  1.1842 -0.7910
  384MOL0     H52938   7.902   0.829   3.590  1.8255 -1.0348  0.3032
  384MOL0     H52939   8.036   1.086   3.733  1.1253  0.5231  3.0129
  384MOL0     H52940   7.931   0.956   3.809  0.4922  0.2623 -0.0767
  384MOL0     H52941   8.069   0.726   3.863 -0.0159 -1.1110 -1.7087
  384MOL0     H52942   8.459   0.674   3.861 -0.2752  0.7052 -1.8248
  384MOL0     H52943   8.339   0.601   3.754  0.6412  0.2447  0.1662
  384MOL0     H52944   8.344   0.603   4.065  0.9964  0.0317 -0.0702
  384MOL0     H52945   8.202   0.552   3.976 -0.8786  0.6166 -0.8900
  384MOL0     H52946   8.350   0.370   3.872 -0.6478  0.7123 -0.9931
  384MOL0     H52947   8.493   0.438   3.951  0.0625 -2.0600 -1.1557
  384MOL0     H52948   8.254   0.340   4.105  0.7956 -4.8171  0.9394
  384MOL0     H52949   8.389   0.238   4.047  2.2068  0.3695  0.6255
  384MOL0     H52950   8.623   0.224   4.099  0.8276  0.3627 -0.7078
  384MOL0     H52951   8.833   0.193   4.018 -0.2687 -0.3462  0.0066
  384MOL0     H52952   8.888   0.127   4.155 -1.9525 -0.7786  0.7505
  384MOL0     H52953   8.977   0.271   4.070 -1.1000  2.1628 -0.9504
  384MOL0     H52954   9.080   0.358   4.565  0.6070  2.3863  1.1909
  384MOL0     H52955   9.294   0.325   4.702 -2.3950  5.7291 -1.0451
  384MOL0     H52956   9.581   0.474   4.617  4.0456 -0.5721  1.0104
  384MOL0     H52957   9.492   0.381   4.752 -0.1489 -1.5091 -0.3501
  384MOL0     H52958   9.658   0.245   4.808 -0.7523 -2.2935 -1.8980
  384MOL0     H52959   9.751   0.290   4.677  0.1539 -0.4453  0.4135
  384MOL0     H52960   9.656   0.479   4.911  0.2974 -1.1388  1.0769
  384MOL0     H52961   9.747   0.541   4.777  0.7154 -1.2339 -0.9396
  384MOL0     H52962   9.929   0.366   4.836  0.5499  1.3748  0.0435
  384MOL0     H52963   9.822   0.330   4.978 -1.2614 -3.0453 -3.6997
  384MOL0     H52964  10.033   0.470   5.025  0.3167  0.0077 -0.3032
  384MOL0     H52965   9.967   0.596   4.926  3.6222 -0.3695  0.5317
  384MOL0     H52966   9.843   0.474   5.159  3.0479 -1.5546 -2.7755
  384MOL0     H52967   9.781   0.628   5.090 -1.3393 -1.0516  1.9919
  384MOL0     H52968  10.021   0.709   5.162  0.3305 -1.1470 -0.6184
  384MOL0     H52969  10.006   0.574   5.281  0.4336  0.3058  0.8150
  384MOL0     H52970   9.775   0.775   5.256  0.5125  1.5337 -0.0275
  384MOL0     H52971   9.922   0.810   5.348 -2.9690  1.3844  0.9446
  384MOL0     H52972   9.498   0.226   4.345  0.8696  0.9848  0.3059
  384MOL0     H52973   9.271   0.211   4.220 -1.4353  1.1915  0.5231
  384MOL0     H52974   8.781   0.601   4.381 -1.0257  0.2493  0.0593
  384MOL0     H52975   8.555   0.594   4.329  0.3087 -1.6121  2.9294
  384MOL0     H52976   7.264   0.554   3.301 -2.9806 -0.1272 -0.4299
  384MOL0     H52977   7.017   0.552   3.351  0.1134  2.2298  1.6969
  384MOL0     H52978   6.746   0.351   3.571 -0.0302  1.3208  1.2701
  384MOL0     H52979   6.514   0.281   3.559  0.6262  0.5730 -1.4670
  384MOL0     H52980   6.242   0.507   3.814 -1.4421  0.2624  0.3905
  384MOL0     H52981   6.161   0.555   3.671  1.0077  0.9150  0.2119
  384MOL0     H52982   6.013   0.403   3.809  1.5652  3.1155  1.2798
  384MOL0     H52983   6.132   0.276   3.801 -1.5879  2.1214  4.4220
  384MOL0     H52984   6.095   0.347   3.521  1.6552 -0.8003 -0.2000
  384MOL0     H52985   6.059   0.198   3.617  0.1458  0.1580  0.7927
  384MOL0     H52986   5.854   0.425   3.591  0.0429  0.7184  1.5995
  384MOL0     H52987   5.845   0.250   3.641  0.6298  0.1604  0.3250
  384MOL0     H52988   5.847   0.209   3.229 -0.6669  3.0851 -0.8948
  384MOL0     H52989   6.379   0.650   3.731 -1.3475 -2.0382 -2.1620
  384MOL0     H52990   6.519   0.804   3.815  2.3704  0.8148  4.5821
  384MOL0     H52991   6.692   0.795   3.823 -0.8330  1.4079  0.8209
  384MOL0     H52992   6.608   0.831   3.664 -2.9730  0.5472  0.2688
  385MOL0     O52993   4.207   0.493   8.685  0.1278 -0.1485 -0.3937
  385MOL0     C52994   4.319   0.456   8.654  0.6678  0.1265  0.0311
  385MOL0     O52995   4.348   0.375   8.554  0.5518  0.1201  0.6915
  385MOL0     C52996   4.259   0.306   8.473  0.3118 -0.3838 -0.6271
  385MOL0     C52997   4.120   0.317   8.463 -1.0449 -1.2943 -0.2391
  385MOL0     C52998   4.050   0.240   8.376 -0.9999  0.2549 -0.9002
  385MOL0     C52999   4.123   0.145   8.303  0.1583 -0.7072  0.5505
  385MOL0     O53000   4.066   0.064   8.204 -0.1067 -0.2163  1.1419
  385MOL0     C53001   3.959   0.125   8.128 -0.0293  0.8756  0.1103
  385MOL0     C53002   3.950   0.042   7.997 -0.5027  0.7316 -0.5667
  385MOL0     C53003   3.832   0.069   7.909 -0.0436  0.0301  0.3675
  385MOL0     C53004   3.819   0.212   7.862  0.2914 -0.0668  0.0583
  385MOL0     C53005   3.705   0.247   7.766  0.0446  1.0056 -0.5320
  385MOL0     C53006   3.738   0.188   7.631 -0.6034 -0.5480  0.7659
  385MOL0     C53007   3.625   0.214   7.531  0.8003 -0.0890 -0.5445
  385MOL0     C53008   3.656   0.163   7.395  0.9522  0.7078  0.8430
  385MOL0     N53009   3.779   0.219   7.318  0.1038  0.3850  0.4620
  385MOL0     C53010   3.819   0.344   7.298 -0.2133  0.1173  0.1799
  385MOL0     C53011   3.944   0.339   7.257 -0.8620 -0.2779 -0.3585
  385MOL0     C53012   4.037   0.459   7.236  0.0109  0.4117 -0.0306
  385MOL0     C53013   4.089   0.521   7.368  0.0065  1.3821 -0.0073
  385MOL0     C53014   4.176   0.412   7.451  0.0878 -0.1856 -0.5017
  385MOL0     C53015   4.214   0.458   7.592 -0.5877 -0.0874  0.2442
  385MOL0     O53016   4.308   0.572   7.589 -0.0248  0.6884  0.3015
  385MOL0     C53017   4.442   0.553   7.621 -0.2140 -0.0288 -0.4696
  385MOL0     C53018   4.518   0.440   7.581 -0.1853 -0.3674 -1.3834
  385MOL0     C53019   4.656   0.438   7.608  0.7638  0.2402 -0.2275
  385MOL0     C53020   4.717   0.309   7.561 -0.6784 -0.6086  0.0769
  385MOL0     C53021   4.724   0.548   7.679  0.7240 -0.4972  0.8252
  385MOL0     C53022   4.868   0.545   7.717  0.0162 -0.1791 -0.1910
  385MOL0     O53023   4.913   0.668   7.768 -0.0702  0.8950 -0.0668
  385MOL0     C53024   5.051   0.694   7.782  0.3756 -1.0727  0.2920
  385MOL0     C53025   5.127   0.627   7.877  0.1070  0.0154  0.2608
  385MOL0     C53026   5.272   0.656   7.892  0.7561  0.2045  0.3533
  385MOL0     C53027   5.334   0.754   7.824  0.1645  0.2122  0.1658
  385MOL0     O53028   5.471   0.759   7.832 -0.2792  0.3910  0.3826
  385MOL0     C53029   5.530   0.881   7.792 -0.1004  0.0467  0.1920
  385MOL0     C53030   5.688   0.868   7.791  0.5946 -0.6146  1.0855
  385MOL0     C53031   5.737   0.814   7.923  1.2738  0.2747 -0.4567
  385MOL0     C53032   5.886   0.818   7.935 -0.8215 -0.3137 -0.1744
  385MOL0     C53033   5.929   0.768   8.070 -0.5689  0.6376 -0.5244
  385MOL0     C53034   6.084   0.770   8.070  0.1083 -0.7937  0.9620
  385MOL0     C53035   6.137   0.666   8.168 -0.1620  0.5345  0.6677
  385MOL0     C53036   6.289   0.657   8.193  0.4731 -0.0543  0.8605
  385MOL0    Cl53037   6.342   0.576   8.342 -0.6065 -0.0970 -0.1939
  385MOL0     C53038   5.253   0.827   7.731 -0.6080 -0.0744  0.0145
  385MOL0     C53039   5.120   0.794   7.701  0.4535  0.5623  0.0155
  385MOL0     O53040   4.943   0.452   7.684 -0.1501 -0.4007 -0.0586
  385MOL0     C53041   4.645   0.665   7.708 -0.0077 -0.2884 -0.6266
  385MOL0     C53042   4.509   0.665   7.669  0.1375 -0.0827  0.0120
  385MOL0     N53043   3.975   0.211   7.241 -0.4996  0.8558 -0.0495
  385MOL0     N53044   3.879   0.138   7.276  0.6761  0.1474 -0.1891
  385MOL0     C53045   4.260   0.127   8.312  0.6400  0.7504  0.1219
  385MOL0     C53046   4.328   0.211   8.398  0.1319 -0.1063 -0.0093
  385MOL0     C53047   4.433   0.508   8.729  0.3617 -0.7961 -0.6297
  385MOL0     C53048   4.565   0.460   8.693 -0.2772  0.6093  0.2539
  385MOL0     C53049   4.680   0.518   8.733  0.2566  0.4591  0.4464
  385MOL0     C53050   4.678   0.629   8.818  0.3197  0.3194 -0.2140
  385MOL0     O53051   4.783   0.689   8.884  0.3633  0.7337  0.1800
  385MOL0     C53052   4.917   0.652   8.850 -1.2479 -0.0914  0.6447
  385MOL0     C53053   5.017   0.707   8.960 -0.1180 -0.5859  0.4751
  385MOL0     C53054   5.011   0.632   9.095 -0.6001 -0.8004 -0.2358
  385MOL0     C53055   5.103   0.685   9.207  0.0846 -0.8038 -0.4026
  385MOL0     C53056   5.048   0.814   9.248  0.0800 -0.1270  1.0626
  385MOL0     C53057   5.022   0.931   9.268  0.1081  0.6019 -0.3431
  385MOL0     C53058   4.552   0.672   8.876  0.3345  0.3437  0.4416
  385MOL0     C53059   4.431   0.620   8.824  0.3208 -0.4509  0.1576
  385MOL0     C53060   4.311   0.686   8.867 -0.0432 -0.4753  0.1483
  385MOL0     H53061   4.072   0.405   8.504  1.9524  1.2198 -1.6838
  385MOL0     H53062   3.943   0.251   8.365 -1.3914  0.9506  2.5499
  385MOL0     H53063   3.978   0.230   8.105  0.1772  0.3945 -2.1686
  385MOL0     H53064   3.866   0.119   8.185 -0.4726 -3.5850 -0.7534
  385MOL0     H53065   4.043   0.030   7.941 -0.4915 -2.2641 -0.0747
  385MOL0     H53066   3.931  -0.062   8.025  1.3967  0.0471 -1.5887
  385MOL0     H53067   3.829  -0.002   7.826  1.3067 -0.1800  0.4774
  385MOL0     H53068   3.751   0.055   7.981 -0.6857  0.4761 -0.2526
  385MOL0     H53069   3.804   0.272   7.952 -0.5620 -0.5217  0.2257
  385MOL0     H53070   3.907   0.243   7.805  0.1888  0.4515  0.1744
  385MOL0     H53071   3.701   0.356   7.756 -0.6530  1.1410  0.8593
  385MOL0     H53072   3.616   0.203   7.813  1.1573 -1.7860 -0.8797
  385MOL0     H53073   3.826   0.243   7.599  0.5222 -1.3500  2.3504
  385MOL0     H53074   3.760   0.081   7.641  0.5617 -0.3866  0.0747
  385MOL0     H53075   3.608   0.322   7.526 -0.2815 -0.2950 -3.3517
  385MOL0     H53076   3.532   0.171   7.569  0.5364  1.5163  0.7330
  385MOL0     H53077   3.673   0.056   7.409  1.1931  0.2171 -2.5527
  385MOL0     H53078   3.571   0.179   7.327  0.9086 -1.7821  0.2246
  385MOL0     H53079   3.765   0.436   7.314 -1.2262 -0.5920  0.9626
  385MOL0     H53080   3.972   0.532   7.187 -1.3860 -0.6949  0.0844
  385MOL0     H53081   4.120   0.423   7.176 -2.0821 -4.0705 -0.6820
  385MOL0     H53082   4.147   0.613   7.356  1.3690  0.9571  2.5957
  385MOL0     H53083   4.000   0.549   7.427  0.0729 -0.8005  1.2621
  385MOL0     H53084   4.125   0.319   7.478  1.2915 -0.5845  0.4688
  385MOL0     H53085   4.256   0.375   7.387  1.0896  2.6939 -1.0646
  385MOL0     H53086   4.124   0.503   7.635 -1.0171  0.7913 -1.4609
  385MOL0     H53087   4.247   0.373   7.651  1.3991  0.4419 -0.0103
  385MOL0     H53088   4.462   0.362   7.530 -0.3380 -0.8170 -0.5443
  385MOL0     H53089   4.798   0.343   7.496  0.3663  1.3086  2.2342
  385MOL0     H53090   4.650   0.245   7.503 -0.0401  2.4779 -4.6454
  385MOL0     H53091   4.764   0.263   7.648  1.3700  0.7336 -0.2509
  385MOL0     H53092   5.065   0.558   7.933  1.4469 -0.8281  0.7271
  385MOL0     H53093   5.329   0.596   7.963  0.4796 -2.0039 -1.1650
  385MOL0     H53094   5.505   0.915   7.691 -0.7085  0.9696  0.6328
  385MOL0     H53095   5.513   0.973   7.849  2.0977  0.0637  0.8995
  385MOL0     H53096   5.716   0.808   7.704 -0.4760 -1.6575  1.4383
  385MOL0     H53097   5.732   0.968   7.780  0.6212 -0.7255  0.1464
  385MOL0     H53098   5.714   0.707   7.926  1.4257 -0.0787 -5.0865
  385MOL0     H53099   5.694   0.860   8.012  2.7391 -0.7218  0.8219
  385MOL0     H53100   5.918   0.922   7.927  0.4092 -0.5723  0.9751
  385MOL0     H53101   5.933   0.756   7.858 -0.7197 -3.2466  2.0521
  385MOL0     H53102   5.889   0.822   8.156 -0.7809 -0.8930  0.3675
  385MOL0     H53103   5.900   0.664   8.087 -1.4173  0.6051 -1.9828
  385MOL0     H53104   6.136   0.864   8.092 -1.3157  0.0498  0.8338
  385MOL0     H53105   6.122   0.741   7.971  1.9798  0.7028  1.1793
  385MOL0     H53106   6.102   0.563   8.156  1.8470 -0.3099  1.6877
  385MOL0     H53107   6.096   0.689   8.267  0.7632  1.4379  0.8523
  385MOL0     H53108   6.330   0.758   8.185  0.4097 -0.1120 -0.3146
  385MOL0     H53109   6.334   0.601   8.111  1.2653 -0.3741  1.4970
  385MOL0     H53110   5.302   0.900   7.667  0.5779 -1.2903 -0.5123
  385MOL0     H53111   5.063   0.844   7.624  0.7379  1.1034  0.1534
  385MOL0     H53112   4.686   0.752   7.758 -0.3149 -1.3466  1.5713
  385MOL0     H53113   4.463   0.762   7.685  2.0645  0.5039  2.8567
  385MOL0     H53114   4.312   0.056   8.249  0.2630 -0.1173  0.7654
  385MOL0     H53115   4.433   0.194   8.417  0.2767  0.5241 -0.2116
  385MOL0     H53116   4.562   0.381   8.618 -0.8231  1.3027 -0.4849
  385MOL0     H53117   4.777   0.483   8.699 -0.1111 -1.0883  0.9035
  385MOL0     H53118   4.930   0.543   8.851 -0.4957 -0.0334 -0.8005
  385MOL0     H53119   4.940   0.691   8.750  0.1886  1.5938  1.5794
  385MOL0     H53120   4.989   0.812   8.976  2.2222  0.2706 -0.6286
  385MOL0     H53121   5.114   0.700   8.911 -1.2664 -1.7339 -1.8072
  385MOL0     H53122   4.913   0.620   9.142 -0.3983  0.6233  0.6336
  385MOL0     H53123   5.039   0.528   9.081 -1.6060 -1.3630  1.5635
  385MOL0     H53124   5.207   0.697   9.176  0.9355 -2.5257  1.5344
  385MOL0     H53125   5.110   0.619   9.294 -0.0353 -0.5750 -0.2140
  385MOL0     H53126   4.995   1.033   9.283  0.2027  0.4312  1.0622
  385MOL0     H53127   4.550   0.759   8.942  1.1387  3.0755 -2.8300
  385MOL0     H53128   4.330   0.766   8.939  1.9212 -0.3309 -0.4848
  385MOL0     H53129   4.259   0.725   8.779 -2.2725 -1.2832  1.0166
  385MOL0     H53130   4.244   0.608   8.906  1.4298 -2.2627 -0.7502
  386MOL0     O53131   9.192   6.019   8.166 -0.7048 -0.2581  0.2249
  386MOL0     C53132   9.134   6.049   8.271  0.3767  0.2829  0.7150
  386MOL0     O53133   9.182   6.117   8.378 -0.2676 -0.4390 -0.5676
  386MOL0     C53134   9.316   6.154   8.377 -0.2061  0.3776 -0.5171
  386MOL0     C53135   9.339   6.288   8.397 -0.8036  0.5682  0.3142
  386MOL0     C53136   9.467   6.345   8.393  0.4987 -0.3952 -0.9222
  386MOL0     C53137   9.577   6.264   8.371 -0.0555 -0.0744  0.1601
  386MOL0     O53138   9.710   6.304   8.377  0.3863  0.4412 -0.2824
  386MOL0     C53139   9.739   6.443   8.378 -0.0906 -0.0684 -0.1855
  386MOL0     C53140   9.883   6.468   8.408  0.3920 -0.0827  0.0609
  386MOL0     C53141   9.976   6.412   8.302 -0.4496 -0.2529 -0.1648
  386MOL0     C53142  10.125   6.443   8.327 -0.0754 -0.6776 -0.0262
  386MOL0     C53143  10.208   6.368   8.222  0.2097 -0.3551  0.2057
  386MOL0     C53144  10.360   6.363   8.264  0.4951  0.2775 -0.2559
  386MOL0     C53145  10.447   6.275   8.169 -0.1687 -0.4166 -1.0281
  386MOL0     C53146  10.591   6.265   8.226  0.3461 -0.3663 -0.1403
  386MOL0     N53147  10.660   6.164   8.151 -0.3163 -0.0227  0.5608
  386MOL0     C53148  10.728   6.181   8.030 -0.3676 -0.3327 -1.1467
  386MOL0     C53149  10.801   6.069   8.008 -0.2408  0.4581 -0.1043
  386MOL0     C53150  10.900   6.041   7.899 -0.6502 -0.0553  0.1818
  386MOL0     C53151  11.044   6.087   7.919 -0.7504 -1.0600 -0.4230
  386MOL0     C53152  11.061   6.237   7.936 -0.0381 -0.4467  0.2833
  386MOL0     C53153  11.214   6.266   7.942 -0.1949 -0.1109 -0.4895
  386MOL0     O53154  11.261   6.262   7.808 -0.9397  0.0674 -0.6579
  386MOL0     C53155  11.393   6.272   7.811 -0.3478 -1.2827  0.4733
  386MOL0     C53156  11.464   6.217   7.707 -0.2982  0.1910  0.8552
  386MOL0     C53157  11.604   6.236   7.708  0.4877  0.4829  0.0776
  386MOL0     C53158  11.668   6.181   7.581 -0.0794 -0.3332 -0.1483
  386MOL0     C53159  11.681   6.309   7.803  0.2741  0.9298 -0.3943
  386MOL0     C53160  11.831   6.323   7.805  0.3435 -0.3616 -0.5064
  386MOL0     O53161  11.887   6.354   7.921  0.6289 -0.2372 -0.7250
  386MOL0     C53162  12.023   6.339   7.937  0.0459  0.0267 -0.7396
  386MOL0     C53163  12.094   6.453   7.908  0.1215  0.4345  0.0245
  386MOL0     C53164  12.232   6.446   7.911 -0.1600 -0.2844 -0.6109
  386MOL0     C53165  12.308   6.327   7.959  0.3527  0.7264  0.5164
  386MOL0     O53166  12.445   6.312   7.956  0.8509  0.2077  0.1720
  386MOL0     C53167  12.534   6.419   7.944  0.9500 -0.2782 -0.9679
  386MOL0     C53168  12.676   6.356   7.966 -0.2396  0.0576 -0.3825
  386MOL0     C53169  12.684   6.276   8.096  0.0767  0.0303 -0.2744
  386MOL0     C53170  12.828   6.275   8.155  1.3425 -0.2246  0.4761
  386MOL0     C53171  12.831   6.206   8.303 -0.0403 -0.4713 -0.1634
  386MOL0     C53172  12.976   6.185   8.356 -0.2483 -0.3456 -0.2294
  386MOL0     C53173  12.972   6.115   8.492 -0.2609 -0.1253 -0.5810
  386MOL0     C53174  13.108   6.069   8.537  0.0859  0.1680 -0.5876
  386MOL0    Cl53175  13.157   5.916   8.463 -0.1625  0.7406 -0.2390
  386MOL0     C53176  12.226   6.218   7.996  0.6178  0.1734 -0.6664
  386MOL0     C53177  12.089   6.220   7.980 -0.7162  0.0274  0.9306
  386MOL0     O53178  11.892   6.289   7.702 -0.2296 -1.3336 -0.3624
  386MOL0     C53179  11.602   6.368   7.899 -0.6753 -0.0992 -0.5114
  386MOL0     C53180  11.464   6.363   7.896  0.6776 -0.3699 -0.0546
  386MOL0     N53181  10.772   5.980   8.110 -0.8095 -0.5986 -0.0607
  386MOL0     N53182  10.685   6.036   8.186  0.2107 -0.0070  0.2661
  386MOL0     C53183   9.554   6.129   8.344  0.1728  0.2289  0.2215
  386MOL0     C53184   9.428   6.069   8.357 -0.6844  1.2209 -0.5035
  386MOL0     C53185   8.994   6.001   8.275 -0.3769 -0.3768 -0.6594
  386MOL0     C53186   8.942   5.907   8.184 -0.6879  0.9440 -1.2274
  386MOL0     C53187   8.812   5.876   8.158  0.4006 -0.1111 -0.3001
  386MOL0     C53188   8.711   5.945   8.230 -0.5637 -0.1414  0.7312
  386MOL0     O53189   8.583   5.928   8.184  0.7083 -0.0210 -0.1243
  386MOL0     C53190   8.481   5.954   8.274  0.4778  0.0347  0.1289
  386MOL0     C53191   8.380   6.059   8.223  0.8900  0.6989  0.9142
  386MOL0     C53192   8.354   6.060   8.065 -0.4921  0.3046 -0.1602
  386MOL0     C53193   8.234   6.148   8.031 -0.7889 -0.5580 -0.5679
  386MOL0     C53194   8.111   6.094   8.079  0.6228  0.3080  0.2761
  386MOL0     C53195   8.014   6.022   8.112  0.1456  0.4681 -0.4258
  386MOL0     C53196   8.761   6.028   8.332 -0.3170 -0.3145  0.0087
  386MOL0     C53197   8.892   6.057   8.365 -1.1810 -0.4871  0.3067
  386MOL0     C53198   8.922   6.167   8.468  0.3607  0.2836  0.3363
  386MOL0     H53199   9.258   6.353   8.425 -1.6319  0.3223 -1.4246
  386MOL0     H53200   9.463   6.453   8.407 -1.1847 -0.4552 -0.7488
  386MOL0     H53201   9.689   6.488   8.465  1.8242  1.4640  0.1985
  386MOL0     H53202   9.697   6.487   8.287  1.0797 -1.3789 -1.3980
  386MOL0     H53203   9.892   6.577   8.409  0.6396 -0.0791 -1.0723
  386MOL0     H53204   9.898   6.426   8.508  1.7917  1.1044  0.3870
  386MOL0     H53205   9.964   6.303   8.297 -0.2263 -0.4033  1.8456
  386MOL0     H53206   9.936   6.447   8.207  0.4257  3.6518  0.7263
  386MOL0     H53207  10.143   6.549   8.341 -1.6838 -0.6050  1.9086
  386MOL0     H53208  10.147   6.393   8.422 -1.2650 -1.2396 -0.0297
  386MOL0     H53209  10.188   6.409   8.122 -2.7608 -1.2692  0.3279
  386MOL0     H53210  10.175   6.264   8.225  2.8174 -1.2184  1.6393
  386MOL0     H53211  10.400   6.465   8.258  1.2063 -0.0692 -2.7401
  386MOL0     H53212  10.368   6.333   8.368  0.7913  4.4809  1.1320
  386MOL0     H53213  10.447   6.320   8.069  2.3654 -3.4587 -2.5802
  386MOL0     H53214  10.405   6.174   8.165  0.4100 -0.6150 -3.0424
  386MOL0     H53215  10.637   6.363   8.211  1.0807 -0.4782  1.2066
  386MOL0     H53216  10.590   6.241   8.333  1.4409  0.0927 -0.0176
  386MOL0     H53217  10.721   6.275   7.975 -1.0648  1.2090  1.4307
  386MOL0     H53218  10.864   6.082   7.804 -1.3443 -1.8071 -0.3548
  386MOL0     H53219  10.914   5.934   7.881 -0.6623  0.2909 -2.3975
  386MOL0     H53220  11.088   6.046   8.011  0.5881  2.9596  0.9383
  386MOL0     H53221  11.101   6.057   7.831  1.7751 -1.2771  1.1620
  386MOL0     H53222  11.015   6.281   7.847 -0.7710  1.5585  1.5853
  386MOL0     H53223  11.004   6.274   8.022  0.5083  1.5813 -0.1760
  386MOL0     H53224  11.220   6.366   7.984 -2.3107 -0.3979  0.6077
  386MOL0     H53225  11.273   6.200   8.006 -0.5084  0.0951  0.0103
  386MOL0     H53226  11.412   6.148   7.641  2.8696  0.8146 -2.6160
  386MOL0     H53227  11.756   6.119   7.600  1.7294  1.4182 -2.2893
  386MOL0     H53228  11.695   6.260   7.510 -1.1704 -1.4060 -1.8463
  386MOL0     H53229  11.593   6.119   7.530  0.5350 -1.5650  0.3933
  386MOL0     H53230  12.046   6.540   7.865 -0.9761  0.4175  1.1480
  386MOL0     H53231  12.291   6.533   7.887 -2.7024  1.6357 -0.3002
  386MOL0     H53232  12.534   6.461   7.843 -0.2481  0.0796 -0.8361
  386MOL0     H53233  12.526   6.490   8.027  2.0639 -3.3807  2.0556
  386MOL0     H53234  12.703   6.285   7.887  0.6220  1.5714 -1.5239
  386MOL0     H53235  12.753   6.434   7.970 -0.3120  0.0812  1.4106
  386MOL0     H53236  12.660   6.171   8.080  0.8473 -0.2569  0.3618
  386MOL0     H53237  12.615   6.313   8.173 -1.8493 -0.0828 -1.8715
  386MOL0     H53238  12.866   6.376   8.174 -0.2075  0.5122 -0.1710
  386MOL0     H53239  12.894   6.226   8.082  1.0532 -0.8387  0.6228
  386MOL0     H53240  12.770   6.271   8.366 -0.2821 -2.0594  1.2926
  386MOL0     H53241  12.779   6.110   8.290 -0.4656 -0.1080 -1.3407
  386MOL0     H53242  13.040   6.274   8.363 -0.1446 -0.2680 -1.7550
  386MOL0     H53243  13.029   6.111   8.296  1.5560 -1.3904  2.4439
  386MOL0     H53244  12.908   6.026   8.491 -0.8294  0.2800 -1.6405
  386MOL0     H53245  12.933   6.179   8.572  0.0299  1.6852 -1.8335
  386MOL0     H53246  13.107   6.055   8.646 -3.8065 -2.2684 -0.7465
  386MOL0     H53247  13.176   6.148   8.506  1.0803  1.1526  3.4591
  386MOL0     H53248  12.278   6.127   8.022 -0.4450 -1.3280 -3.4085
  386MOL0     H53249  12.033   6.132   8.012  3.3692 -2.4510  2.0498
  386MOL0     H53250  11.650   6.440   7.965  0.7015 -0.9530 -0.5596
  386MOL0     H53251  11.412   6.428   7.966  0.5088  0.3866 -0.8716
  386MOL0     H53252   9.644   6.068   8.340  1.8487  2.6235 -2.5104
  386MOL0     H53253   9.424   5.961   8.343 -1.9662  1.3371 -1.2371
  386MOL0     H53254   9.016   5.862   8.120  0.1788 -1.1692  1.1038
  386MOL0     H53255   8.781   5.801   8.087 -1.7418  0.9681 -0.6007
  386MOL0     H53256   8.424   5.861   8.287  0.6145 -0.2479 -1.2162
  386MOL0     H53257   8.505   5.983   8.377  0.5658  1.3544 -0.2356
  386MOL0     H53258   8.410   6.158   8.259  2.7476  0.4734  0.1274
  386MOL0     H53259   8.285   6.051   8.277 -0.8438 -0.0255 -2.0314
  386MOL0     H53260   8.445   6.108   8.029 -0.3465  0.2325  0.1093
  386MOL0     H53261   8.351   5.960   8.019 -0.0582  0.2986 -0.1797
  386MOL0     H53262   8.228   6.157   7.922 -0.1499 -1.6830 -0.7075
  386MOL0     H53263   8.250   6.248   8.074 -0.7332 -0.1974 -1.4020
  386MOL0     H53264   7.935   5.957   8.143 -0.8078  1.3889 -0.8655
  386MOL0     H53265   8.685   6.086   8.383  0.3729 -0.8734  1.7293
  386MOL0     H53266   8.839   6.209   8.526  2.8536  1.6099  3.2310
  386MOL0     H53267   8.991   6.123   8.541  0.3292 -0.3553 -0.0080
  386MOL0     H53268   8.965   6.252   8.414  0.0287 -0.2549 -0.8179
  387MOL0     O53269   2.873   8.596   7.056 -0.0881 -0.2970 -0.3098
  387MOL0     C53270   2.765   8.618   6.995 -0.6426 -0.6227 -0.9735
  387MOL0     O53271   2.752   8.696   6.885 -0.4524  0.1605  0.1945
  387MOL0     C53272   2.869   8.715   6.812  0.3232 -0.2005 -0.3300
  387MOL0     C53273   2.931   8.601   6.745  0.7072  0.0125  0.0005
  387MOL0     C53274   3.042   8.635   6.666  0.3657  0.2266 -1.0887
  387MOL0     C53275   3.099   8.763   6.671 -0.6633 -0.2036 -0.1220
  387MOL0     O53276   3.218   8.771   6.610 -0.1400 -0.4161 -0.3207
  387MOL0     C53277   3.312   8.870   6.663  0.3643 -0.2299 -0.5326
  387MOL0     C53278   3.460   8.838   6.613  1.3860 -0.3861 -0.0409
  387MOL0     C53279   3.512   8.711   6.673 -0.6228  0.3731 -0.2523
  387MOL0     C53280   3.638   8.652   6.612 -0.0736 -0.8327  0.2684
  387MOL0     C53281   3.728   8.580   6.709 -0.4300 -0.1696 -0.3765
  387MOL0     C53282   3.852   8.498   6.645 -0.0454  0.1871  0.0410
  387MOL0     C53283   3.955   8.437   6.745  0.5414 -1.1224 -0.2013
  387MOL0     C53284   4.043   8.322   6.695 -1.1850 -0.5224 -0.9108
  387MOL0     N53285   4.140   8.366   6.600 -0.2841  0.1953 -0.6672
  387MOL0     C53286   4.107   8.412   6.476  0.7196  0.2699  0.6054
  387MOL0     C53287   4.223   8.434   6.413 -0.2939 -0.6793 -0.3019
  387MOL0     C53288   4.254   8.472   6.278 -0.4480 -0.3334  0.8103
  387MOL0     C53289   4.302   8.344   6.213 -0.1841  0.5746 -0.1385
  387MOL0     C53290   4.316   8.373   6.059  0.5279 -0.4406 -0.4743
  387MOL0     C53291   4.410   8.481   6.015 -0.6575 -1.3894  0.3170
  387MOL0     O53292   4.341   8.606   5.992  0.1227 -0.7162  0.7734
  387MOL0     C53293   4.426   8.707   5.940 -1.0087  0.0332 -0.4955
  387MOL0     C53294   4.356   8.810   5.869 -0.0518  0.1104 -0.4338
  387MOL0     C53295   4.424   8.913   5.794  0.0148 -0.1732  0.6380
  387MOL0     C53296   4.350   9.011   5.712 -0.0050 -0.5113 -0.2256
  387MOL0     C53297   4.568   8.917   5.803  0.8676 -0.0733  0.0719
  387MOL0     C53298   4.649   9.019   5.742 -0.0066 -0.2168 -0.2331
  387MOL0     O53299   4.786   8.993   5.724  0.2580 -0.1893 -0.1646
  387MOL0     C53300   4.861   9.091   5.662 -0.1552  0.3152  0.5621
  387MOL0     C53301   4.904   9.199   5.732 -0.2517 -0.6274 -0.4608
  387MOL0     C53302   4.980   9.304   5.687 -0.5347  0.1304 -0.0298
  387MOL0     C53303   5.026   9.304   5.555  0.2887  0.1893 -0.1482
  387MOL0     O53304   5.091   9.416   5.515  0.1663  0.3037  0.1980
  387MOL0     C53305   5.065   9.462   5.379 -0.2471  0.1103 -0.0049
  387MOL0     C53306   4.931   9.521   5.378 -0.1425 -0.6367  0.3579
  387MOL0     C53307   4.897   9.593   5.239  0.4102 -0.4175  0.3431
  387MOL0     C53308   4.749   9.638   5.242 -0.5308  0.7506  0.3072
  387MOL0     C53309   4.635   9.538   5.190  0.5893  0.4810 -0.1611
  387MOL0     C53310   4.515   9.619   5.155 -0.2728 -0.3436  0.6023
  387MOL0     C53311   4.460   9.714   5.266 -0.1067  0.2114  0.5164
  387MOL0     C53312   4.337   9.798   5.227  0.6604 -0.2726 -0.3112
  387MOL0    Cl53313   4.185   9.704   5.249  0.1540 -0.3269 -0.1275
  387MOL0     C53314   4.977   9.199   5.480 -0.3495  0.2388  0.2051
  387MOL0     C53315   4.898   9.091   5.531  0.2538 -0.3008  1.2052
  387MOL0     O53316   4.597   9.132   5.731 -0.0452  0.3425 -0.3088
  387MOL0     C53317   4.635   8.819   5.880  0.4899  0.0135  0.1305
  387MOL0     C53318   4.569   8.716   5.944  0.7886 -0.0845 -0.0453
  387MOL0     N53319   4.321   8.392   6.497 -0.4534 -0.8190  0.0918
  387MOL0     N53320   4.272   8.349   6.610  0.1066  0.0455  0.0799
  387MOL0     C53321   3.032   8.871   6.718 -0.3660 -1.1279 -0.4732
  387MOL0     C53322   2.916   8.838   6.795 -0.6675  0.1840  1.2373
  387MOL0     C53323   2.643   8.581   7.067  0.3325  0.1845  0.4820
  387MOL0     C53324   2.657   8.508   7.193  0.4465 -0.5367  0.7141
  387MOL0     C53325   2.550   8.474   7.274  0.6077  1.0699 -1.1176
  387MOL0     C53326   2.423   8.501   7.233  0.1006  0.2753 -1.4516
  387MOL0     O53327   2.313   8.467   7.310 -0.4137 -0.0190 -0.6279
  387MOL0     C53328   2.331   8.425   7.447  0.3104 -0.1551  0.8128
  387MOL0     C53329   2.206   8.387   7.516 -0.0807  0.3561 -0.2287
  387MOL0     C53330   2.150   8.264   7.450 -0.1430 -0.8762 -0.1499
  387MOL0     C53331   2.010   8.231   7.505  0.8513  0.1020 -0.1332
  387MOL0     C53332   1.938   8.142   7.410  0.9812 -0.1754 -0.0947
  387MOL0     C53333   1.898   8.084   7.315 -0.4751  0.2318 -0.2708
  387MOL0     C53334   2.403   8.567   7.112  0.1210 -0.4533  0.0598
  387MOL0     C53335   2.510   8.604   7.024  1.2076  0.4845  0.4587
  387MOL0     C53336   2.478   8.654   6.886 -0.5863 -0.2813 -0.7612
  387MOL0     H53337   2.892   8.500   6.753 -2.3329  0.7130 -3.3667
  387MOL0     H53338   3.087   8.545   6.626 -1.3413 -1.4926  0.6431
  387MOL0     H53339   3.313   8.860   6.772 -0.8335  3.0925 -0.0798
  387MOL0     H53340   3.275   8.970   6.637  0.6352 -0.5827 -2.4076
  387MOL0     H53341   3.458   8.843   6.504  0.4351  2.5533  0.0086
  387MOL0     H53342   3.516   8.922   6.656  0.4499 -0.3739  1.1886
  387MOL0     H53343   3.519   8.733   6.779 -3.6720  3.6863 -0.5486
  387MOL0     H53344   3.431   8.636   6.672  0.0221 -0.3706  1.0510
  387MOL0     H53345   3.605   8.572   6.545 -0.4565 -1.0794  0.7417
  387MOL0     H53346   3.707   8.722   6.564  2.2916 -2.1782  1.5386
  387MOL0     H53347   3.683   8.498   6.766  2.3457 -0.7446  1.1540
  387MOL0     H53348   3.778   8.647   6.778  0.3267  1.0135 -1.9968
  387MOL0     H53349   3.812   8.417   6.584 -0.3822  1.2304 -1.1712
  387MOL0     H53350   3.906   8.571   6.585 -0.3172  0.6599  0.3595
  387MOL0     H53351   3.906   8.413   6.840 -0.6641  1.6588 -0.0095
  387MOL0     H53352   4.019   8.523   6.769 -0.1308 -0.7817  0.3975
  387MOL0     H53353   4.090   8.269   6.778 -4.0153 -0.5676  0.8094
  387MOL0     H53354   3.979   8.252   6.641 -1.6444  0.1790 -1.2998
  387MOL0     H53355   4.007   8.416   6.434 -0.4429  0.5009  3.2428
  387MOL0     H53356   4.326   8.555   6.274 -2.2188  1.2366 -0.5484
  387MOL0     H53357   4.166   8.512   6.227 -1.1978  1.5694  3.3869
  387MOL0     H53358   4.386   8.297   6.264  0.2312  2.9166  1.4970
  387MOL0     H53359   4.219   8.273   6.212 -0.9161  1.3467  1.3954
  387MOL0     H53360   4.366   8.284   6.018  1.2281 -0.4982  0.4835
  387MOL0     H53361   4.227   8.387   5.997 -1.0813  0.6001  1.9323
  387MOL0     H53362   4.485   8.503   6.092  2.6116  1.1141 -3.2015
  387MOL0     H53363   4.471   8.451   5.930 -1.3269 -2.0004  0.0441
  387MOL0     H53364   4.248   8.799   5.868  0.0368 -0.8451 -0.4243
  387MOL0     H53365   4.253   8.967   5.688  0.2330 -1.0212 -0.2681
  387MOL0     H53366   4.412   9.028   5.624  3.5993 -0.0954  2.1630
  387MOL0     H53367   4.331   9.106   5.763 -2.0882  1.3037 -3.9492
  387MOL0     H53368   4.876   9.215   5.836 -0.5836  2.0115 -0.9129
  387MOL0     H53369   4.998   9.387   5.755  1.9311  2.0097 -2.6946
  387MOL0     H53370   5.143   9.529   5.342 -0.8437  0.5464 -0.5055
  387MOL0     H53371   5.068   9.385   5.302  1.1742  2.1699 -2.1462
  387MOL0     H53372   4.847   9.455   5.399 -2.2828  2.3148  1.7753
  387MOL0     H53373   4.916   9.587   5.464 -5.2953 -0.6332 -0.2346
  387MOL0     H53374   4.902   9.521   5.157  1.7820  1.1738 -1.0362
  387MOL0     H53375   4.964   9.676   5.215 -1.0665  0.7942  0.2652
  387MOL0     H53376   4.744   9.728   5.181  0.0240  2.0545  2.1025
  387MOL0     H53377   4.719   9.678   5.339 -1.7920 -0.1282  0.3026
  387MOL0     H53378   4.678   9.487   5.103  0.8763  3.6965 -2.0376
  387MOL0     H53379   4.606   9.462   5.264  0.2701 -1.1194 -1.8477
  387MOL0     H53380   4.435   9.553   5.118  0.2410 -1.1057  0.8116
  387MOL0     H53381   4.543   9.678   5.067  2.3222 -1.7763  0.3716
  387MOL0     H53382   4.540   9.787   5.280  1.4253 -1.3594  0.3481
  387MOL0     H53383   4.454   9.650   5.354  1.5964 -3.0985 -1.5496
  387MOL0     H53384   4.344   9.829   5.122 -0.1486  0.7816 -0.0774
  387MOL0     H53385   4.331   9.893   5.281  1.3957  0.6587 -1.7987
  387MOL0     H53386   5.002   9.202   5.374 -2.9092  0.2705 -0.4653
  387MOL0     H53387   4.873   9.006   5.469  0.8647 -0.4686  1.1854
  387MOL0     H53388   4.741   8.829   5.901  1.0136 -3.0776 -0.5511
  387MOL0     H53389   4.631   8.640   5.990  1.2895 -1.5973 -2.9978
  387MOL0     H53390   3.080   8.968   6.715  1.5230 -1.8222  2.5760
  387MOL0     H53391   2.853   8.916   6.837 -0.4171  1.6023 -0.8336
  387MOL0     H53392   2.757   8.484   7.227  1.0774 -0.1458 -0.7788
  387MOL0     H53393   2.570   8.425   7.368  1.3605  0.5317 -1.5434
  387MOL0     H53394   2.397   8.338   7.453  1.0098  0.1731 -1.2301
  387MOL0     H53395   2.369   8.510   7.504  0.2046  1.8997 -1.9584
  387MOL0     H53396   2.131   8.466   7.509 -0.9794 -0.5560 -1.3624
  387MOL0     H53397   2.215   8.363   7.622  0.3888 -1.2161 -0.5985
  387MOL0     H53398   2.157   8.276   7.341 -0.5733  1.3131  0.0211
  387MOL0     H53399   2.218   8.183   7.476  1.3864  1.6603  5.0031
  387MOL0     H53400   1.956   8.326   7.507  1.6080  0.5847  3.2186
  387MOL0     H53401   2.018   8.195   7.608 -0.6555  2.8742  1.0796
  387MOL0     H53402   1.838   8.041   7.236 -1.6149  1.0947  0.0970
  387MOL0     H53403   2.303   8.576   7.071  1.2928  4.1187 -2.3941
  387MOL0     H53404   2.490   8.591   6.797 -4.1610  0.0169 -1.6354
  387MOL0     H53405   2.370   8.675   6.885 -0.0431  3.2942 -2.7971
  387MOL0     H53406   2.523   8.751   6.864 -0.7192  0.2695  1.2039
  388MOL0     O53407   1.782   5.776   2.480 -0.4338  0.6354  1.0468
  388MOL0     C53408   1.778   5.713   2.376  0.4844  0.6774 -0.0981
  388MOL0     O53409   1.887   5.651   2.314 -0.5582  0.6281 -0.1192
  388MOL0     C53410   2.015   5.697   2.346  0.3646  0.0944  0.1812
  388MOL0     C53411   2.113   5.608   2.382  0.0887 -0.0843  0.6782
  388MOL0     C53412   2.238   5.659   2.404 -0.5146  0.7899  0.2260
  388MOL0     C53413   2.272   5.791   2.386 -0.2232 -0.2807  0.4751
  388MOL0     O53414   2.402   5.834   2.416  0.5687  0.2352  0.0708
  388MOL0     C53415   2.425   5.961   2.493 -0.1999  0.0225  0.3911
  388MOL0     C53416   2.535   5.945   2.598  0.6292 -0.8674  0.3808
  388MOL0     C53417   2.525   6.052   2.711  0.8036 -0.0235  0.9215
  388MOL0     C53418   2.643   6.051   2.811 -0.3608  0.4249 -0.5752
  388MOL0     C53419   2.631   6.167   2.906 -0.3064  0.2009 -0.4317
  388MOL0     C53420   2.743   6.171   3.008  0.2187 -0.5610 -0.4363
  388MOL0     C53421   2.867   6.256   2.960  0.0572  0.2503 -0.1741
  388MOL0     C53422   2.975   6.265   3.062  0.2389  0.2169  0.0688
  388MOL0     N53423   3.040   6.135   3.085  0.3423 -0.0469 -0.3014
  388MOL0     C53424   3.019   6.054   3.197 -1.0392 -0.2880 -0.4835
  388MOL0     C53425   3.126   5.971   3.192  1.2146 -0.6550  0.9901
  388MOL0     C53426   3.157   5.860   3.292  0.5282 -0.1750 -0.7380
  388MOL0     C53427   3.306   5.817   3.290  0.2768  0.0242  0.3334
  388MOL0     C53428   3.329   5.690   3.372 -0.6631  0.0067  0.4143
  388MOL0     C53429   3.481   5.652   3.372  0.0578  0.1947  0.3639
  388MOL0     O53430   3.502   5.521   3.416 -0.0467  0.3863 -0.6529
  388MOL0     C53431   3.633   5.484   3.436 -0.6314  0.3410 -0.3267
  388MOL0     C53432   3.669   5.378   3.521 -0.7711  0.7330 -0.1875
  388MOL0     C53433   3.805   5.345   3.549  0.0178  0.9820  0.6491
  388MOL0     C53434   3.815   5.237   3.655 -0.2170  0.8759 -1.0718
  388MOL0     C53435   3.911   5.414   3.491 -0.0490  0.0995  0.3685
  388MOL0     C53436   4.058   5.379   3.500 -0.6050  0.2408  0.8007
  388MOL0     O53437   4.127   5.426   3.383 -0.1420  0.1078 -0.0852
  388MOL0     C53438   4.265   5.437   3.385 -0.4922 -0.2989  0.3853
  388MOL0     C53439   4.315   5.516   3.282  1.4877  0.2519 -0.5963
  388MOL0     C53440   4.452   5.550   3.280 -0.0162 -0.0859 -0.3256
  388MOL0     C53441   4.548   5.482   3.364 -0.4898 -0.1541  0.3721
  388MOL0     O53442   4.683   5.515   3.367 -1.0006 -0.2179  0.0924
  388MOL0     C53443   4.739   5.632   3.292 -0.2069 -0.5010 -0.3731
  388MOL0     C53444   4.893   5.645   3.337 -0.0190 -0.0414  0.4304
  388MOL0     C53445   4.988   5.735   3.246 -0.0158 -0.3167 -0.2308
  388MOL0     C53446   4.955   5.879   3.284 -0.2243 -0.4634  0.9428
  388MOL0     C53447   5.062   5.974   3.236 -0.5568  0.5406 -0.0582
  388MOL0     C53448   5.033   6.117   3.279 -0.6092  0.7533  0.6727
  388MOL0     C53449   5.137   6.217   3.224  0.5260  0.7382 -0.1510
  388MOL0     C53450   5.062   6.353   3.236  0.3671 -1.1091 -0.1390
  388MOL0    Cl53451   5.171   6.480   3.152 -0.2012 -0.1636  0.3227
  388MOL0     C53452   4.498   5.395   3.460  0.0089 -0.2874 -0.2717
  388MOL0     C53453   4.359   5.376   3.470  0.1021  1.2792  0.1424
  388MOL0     O53454   4.106   5.330   3.600 -1.0213 -0.4583 -0.4574
  388MOL0     C53455   3.872   5.519   3.405  0.0827  0.3920 -0.5509
  388MOL0     C53456   3.738   5.552   3.381 -0.2662  1.3044 -0.1232
  388MOL0     N53457   3.203   5.994   3.077 -0.1361  0.7785  0.3441
  388MOL0     N53458   3.134   6.078   3.009 -1.1973 -0.3880  0.8907
  388MOL0     C53459   2.175   5.877   2.339  0.4465  0.9940  1.3846
  388MOL0     C53460   2.046   5.828   2.316  0.7173  0.1798 -0.0519
  388MOL0     C53461   1.650   5.696   2.316  0.1144 -0.7019 -0.4855
  388MOL0     C53462   1.597   5.567   2.303  0.0588 -0.6075  0.0441
  388MOL0     C53463   1.475   5.552   2.236  1.3900  0.0412 -0.5415
  388MOL0     C53464   1.402   5.658   2.199  1.0129 -0.1817 -0.9313
  388MOL0     O53465   1.273   5.632   2.159 -0.1739 -0.6572 -0.7952
  388MOL0     C53466   1.242   5.678   2.034  0.0381  0.7200 -0.2609
  388MOL0     C53467   1.314   5.600   1.919  0.0269  0.1136 -0.1460
  388MOL0     C53468   1.274   5.455   1.904  0.6451 -0.0974  0.0799
  388MOL0     C53469   1.331   5.400   1.774  0.6712 -0.1618 -0.1847
  388MOL0     C53470   1.461   5.329   1.790  1.1263  0.0307  0.2317
  388MOL0     C53471   1.559   5.263   1.780  0.6246 -0.7501 -0.4107
  388MOL0     C53472   1.454   5.792   2.216  0.0425 -0.5918  0.3561
  388MOL0     C53473   1.579   5.812   2.269 -0.0142 -0.4153 -0.2969
  388MOL0     C53474   1.627   5.947   2.286  0.0132  0.0596 -0.0058
  388MOL0     H53475   2.080   5.505   2.395  0.9691 -0.0493  4.1986
  388MOL0     H53476   2.315   5.586   2.426 -1.7772 -1.0011 -1.0319
  388MOL0     H53477   2.327   5.981   2.538 -0.4528 -0.7302  0.2011
  388MOL0     H53478   2.445   6.038   2.418 -1.3700  1.6753  1.7265
  388MOL0     H53479   2.535   5.844   2.639 -1.9264 -0.6125  1.2473
  388MOL0     H53480   2.631   5.961   2.549  1.4007 -0.0418  2.0700
  388MOL0     H53481   2.522   6.148   2.659  2.6770 -0.3714  0.0660
  388MOL0     H53482   2.433   6.044   2.768 -0.6692 -2.1361 -1.5246
  388MOL0     H53483   2.645   5.953   2.861  2.9592  1.1653  1.0640
  388MOL0     H53484   2.739   6.059   2.758 -0.2574  0.5170 -0.3734
  388MOL0     H53485   2.536   6.150   2.959 -1.1204 -1.4688 -2.2832
  388MOL0     H53486   2.623   6.263   2.854  1.8116  1.1982  0.9247
  388MOL0     H53487   2.699   6.221   3.095 -1.6318 -0.8452 -1.1653
  388MOL0     H53488   2.770   6.070   3.040 -1.7420 -1.3046 -0.9756
  388MOL0     H53489   2.839   6.353   2.919  2.5764  1.1257 -0.0019
  388MOL0     H53490   2.912   6.199   2.878 -1.6361 -1.7801  0.2067
  388MOL0     H53491   3.057   6.329   3.027  1.5887 -0.9705  0.9387
  388MOL0     H53492   2.938   6.292   3.161  1.7037  0.0924  0.6843
  388MOL0     H53493   2.944   6.054   3.277  1.3073  0.2418  1.8683
  388MOL0     H53494   3.091   5.776   3.270 -2.0828  1.2310  1.1434
  388MOL0     H53495   3.129   5.888   3.394  0.4322 -2.1475 -0.1836
  388MOL0     H53496   3.345   5.801   3.189  2.2889  1.2693  0.8718
  388MOL0     H53497   3.360   5.902   3.333  0.1266  1.9716 -2.9821
  388MOL0     H53498   3.309   5.714   3.477  0.7857  0.3713  0.6375
  388MOL0     H53499   3.265   5.609   3.337 -0.5510  0.6878 -1.5245
  388MOL0     H53500   3.528   5.661   3.274  0.7721  1.4088  0.7886
  388MOL0     H53501   3.532   5.729   3.431  1.1967  1.4366 -2.0819
  388MOL0     H53502   3.596   5.333   3.586 -0.8038  0.6823 -0.2591
  388MOL0     H53503   3.828   5.136   3.616  0.3683  0.3965  0.2878
  388MOL0     H53504   3.726   5.245   3.717 -0.9316 -1.6753 -1.6611
  388MOL0     H53505   3.896   5.253   3.728 -0.9750  0.8059 -0.2044
  388MOL0     H53506   4.244   5.564   3.215  2.5972 -0.6433 -2.5021
  388MOL0     H53507   4.479   5.631   3.213  1.0066  1.6661  2.0603
  388MOL0     H53508   4.742   5.609   3.186 -1.3762 -1.2019 -0.2714
  388MOL0     H53509   4.689   5.729   3.304  1.1304  0.2612 -0.7015
  388MOL0     H53510   4.902   5.685   3.438  3.2425  1.2525 -0.2575
  388MOL0     H53511   4.940   5.548   3.321  0.6096 -0.0133  1.9503
  388MOL0     H53512   4.974   5.719   3.139 -2.2598  2.7963 -0.5301
  388MOL0     H53513   5.089   5.719   3.285 -0.3916 -0.5724  0.6538
  388MOL0     H53514   4.962   5.883   3.393 -3.1259 -0.0132  1.1810
  388MOL0     H53515   4.862   5.925   3.250  1.1391  1.8476  0.1101
  388MOL0     H53516   5.158   5.947   3.280 -0.9780  1.7582  1.7049
  388MOL0     H53517   5.072   5.972   3.127  0.0813  3.2058 -0.1148
  388MOL0     H53518   5.044   6.122   3.387 -0.6901 -0.3636  0.7429
  388MOL0     H53519   4.931   6.146   3.253 -1.3547  0.5819  3.1630
  388MOL0     H53520   5.166   6.190   3.122  0.4400 -0.2843  0.0896
  388MOL0     H53521   5.229   6.222   3.284  1.1901  2.8391 -1.2176
  388MOL0     H53522   5.036   6.377   3.340 -2.2858  1.1034 -1.2029
  388MOL0     H53523   4.973   6.349   3.174  1.2893  1.0845 -1.7190
  388MOL0     H53524   4.568   5.351   3.531 -0.5482  1.7721  1.6795
  388MOL0     H53525   4.326   5.301   3.542 -1.8129 -0.0195 -1.9579
  388MOL0     H53526   3.949   5.573   3.351  1.3729 -2.4287 -1.7165
  388MOL0     H53527   3.740   5.628   3.304  1.7476 -0.9644 -2.4987
  388MOL0     H53528   2.195   5.982   2.324 -0.8692  0.8035 -2.9963
  388MOL0     H53529   1.968   5.895   2.283  0.2494 -0.9963 -1.4039
  388MOL0     H53530   1.649   5.477   2.338 -0.1269 -1.2508 -1.2780
  388MOL0     H53531   1.416   5.461   2.238  0.0443  0.8887 -0.6353
  388MOL0     H53532   1.135   5.660   2.019 -0.3166  1.2818  1.4389
  388MOL0     H53533   1.259   5.786   2.025  2.8226  0.6342  2.5195
  388MOL0     H53534   1.422   5.608   1.931 -0.3579  3.1898  2.4009
  388MOL0     H53535   1.272   5.652   1.832 -4.4226  0.5919  2.0166
  388MOL0     H53536   1.296   5.399   1.995 -4.6930  0.6346  2.1870
  388MOL0     H53537   1.165   5.450   1.893  0.4348  0.7917  1.5256
  388MOL0     H53538   1.350   5.474   1.695  1.6635  0.3161  0.4813
  388MOL0     H53539   1.255   5.333   1.731 -0.5167  0.9228  0.1623
  388MOL0     H53540   1.652   5.213   1.760 -0.2130 -1.4425 -2.9249
  388MOL0     H53541   1.395   5.875   2.176  2.5429  0.6556 -0.9593
  388MOL0     H53542   1.633   5.965   2.394 -1.3235  0.3604  0.0349
  388MOL0     H53543   1.722   5.961   2.235  0.0236  0.6298  0.1568
  388MOL0     H53544   1.561   6.015   2.232  0.7711  0.0819 -0.9266
  389MOL0     O53545   9.522   2.534   2.970  0.1961  0.2703  0.2081
  389MOL0     C53546   9.508   2.419   2.917 -0.2916 -0.2273  1.0902
  389MOL0     O53547   9.604   2.319   2.926 -0.0264 -0.0019 -0.4143
  389MOL0     C53548   9.721   2.333   3.003 -0.8174  0.0825  0.2997
  389MOL0     C53549   9.829   2.402   2.945 -0.1656 -0.4359  0.9319
  389MOL0     C53550   9.956   2.414   3.010 -0.0777  0.4856 -0.2889
  389MOL0     C53551   9.970   2.360   3.140 -0.9130 -1.3837 -0.4228
  389MOL0     O53552  10.087   2.379   3.217  0.1921 -0.4052  0.1480
  389MOL0     C53553  10.209   2.398   3.147 -0.0128 -0.9227 -0.2156
  389MOL0     C53554  10.335   2.374   3.225  0.8797 -0.3023 -0.0417
  389MOL0     C53555  10.351   2.478   3.337 -0.5326 -0.2424 -0.1845
  389MOL0     C53556  10.449   2.428   3.446 -0.6785  0.0825  0.9764
  389MOL0     C53557  10.599   2.412   3.397 -0.2825  0.4977 -0.0336
  389MOL0     C53558  10.681   2.544   3.382  0.6228 -0.8167  0.4740
  389MOL0     C53559  10.818   2.516   3.306  0.6622 -0.1011 -0.2085
  389MOL0     C53560  10.907   2.645   3.300  0.6407  0.9558  0.8739
  389MOL0     N53561  10.976   2.671   3.431 -0.1440  0.4121 -0.1226
  389MOL0     C53562  11.052   2.588   3.502  0.7800  0.0344 -0.1435
  389MOL0     C53563  11.056   2.634   3.632  1.0014  0.1077  0.6136
  389MOL0     C53564  11.126   2.561   3.746 -0.4826 -0.4378  0.6498
  389MOL0     C53565  11.032   2.578   3.862 -1.3006 -0.1612  1.5017
  389MOL0     C53566  11.045   2.466   3.972  0.0660 -0.1065 -0.2948
  389MOL0     C53567  11.175   2.458   4.056 -0.0033  0.4164 -1.0046
  389MOL0     O53568  11.291   2.410   3.984 -0.0676  0.0199 -0.3503
  389MOL0     C53569  11.410   2.398   4.062  0.4231  0.9724  0.7004
  389MOL0     C53570  11.511   2.327   4.005  0.3257 -1.3208 -0.1966
  389MOL0     C53571  11.639   2.318   4.067 -0.2564  0.7687  0.1432
  389MOL0     C53572  11.737   2.218   3.997  0.1264  0.1791  0.1080
  389MOL0     C53573  11.659   2.374   4.187 -0.9725 -0.7606 -0.3222
  389MOL0     C53574  11.789   2.365   4.262 -0.3344 -0.7224  0.7392
  389MOL0     O53575  11.780   2.369   4.396 -0.4597  0.4627  0.2732
  389MOL0     C53576  11.694   2.284   4.465  0.7588  0.5469  0.5623
  389MOL0     C53577  11.630   2.339   4.571 -1.0519 -0.0237 -0.0715
  389MOL0     C53578  11.544   2.261   4.651 -0.5226 -0.6966  0.8640
  389MOL0     C53579  11.537   2.123   4.643  0.2449  0.7258  1.2419
  389MOL0     O53580  11.451   2.056   4.731  0.5416 -0.0320  0.2570
  389MOL0     C53581  11.479   1.912   4.760 -0.3531 -0.5405  0.1368
  389MOL0     C53582  11.372   1.814   4.717 -0.0164 -1.0650 -0.1552
  389MOL0     C53583  11.403   1.671   4.700 -1.0892  0.6046 -1.1115
  389MOL0     C53584  11.420   1.608   4.844  0.8908  0.0617  0.7600
  389MOL0     C53585  11.474   1.472   4.822 -0.7850  0.0138  0.3069
  389MOL0     C53586  11.512   1.387   4.944  0.1542 -0.1594  0.0397
  389MOL0     C53587  11.602   1.258   4.913 -0.0787  0.3632 -0.4080
  389MOL0     C53588  11.548   1.140   4.829 -1.0021  0.0171  0.7831
  389MOL0    Cl53589  11.684   1.054   4.754 -0.0194  0.1591 -0.3017
  389MOL0     C53590  11.587   2.066   4.524 -0.2901 -0.2827  0.1291
  389MOL0     C53591  11.667   2.149   4.429  0.1441  0.6835 -0.6602
  389MOL0     O53592  11.899   2.384   4.208  0.1520  0.1030  0.5116
  389MOL0     C53593  11.555   2.439   4.246  0.5491  0.3265  0.0508
  389MOL0     C53594  11.433   2.453   4.189 -0.0035 -0.9034  0.0121
  389MOL0     N53595  10.987   2.750   3.636  0.0651 -0.0604 -0.8296
  389MOL0     N53596  10.952   2.774   3.514  0.2462 -0.2528 -0.0638
  389MOL0     C53597   9.863   2.291   3.198  0.3796 -0.0969  0.0164
  389MOL0     C53598   9.734   2.269   3.130 -0.4602 -0.1552  0.8770
  389MOL0     C53599   9.379   2.384   2.865 -0.3125 -0.1187 -0.4248
  389MOL0     C53600   9.373   2.257   2.808 -0.1732 -0.3391 -0.1134
  389MOL0     C53601   9.250   2.203   2.763 -0.7046 -0.2364  0.2800
  389MOL0     C53602   9.133   2.280   2.770  0.2079  0.2993  0.1674
  389MOL0     O53603   9.007   2.230   2.736  0.3707  0.2912 -0.7929
  389MOL0     C53604   8.991   2.116   2.659 -0.6032  0.8336  0.1268
  389MOL0     C53605   8.990   1.990   2.750 -0.0547 -0.4000  0.3680
  389MOL0     C53606   8.856   1.967   2.830  0.8942  0.3292  0.1869
  389MOL0     C53607   8.722   1.944   2.749 -0.0737  0.5772  0.0947
  389MOL0     C53608   8.621   1.890   2.848  0.1506 -0.0099  1.1143
  389MOL0     C53609   8.534   1.862   2.927  0.2284  0.6939  0.1380
  389MOL0     C53610   9.143   2.404   2.835  0.1325 -0.4069 -0.1287
  389MOL0     C53611   9.262   2.457   2.882  0.0480  0.4387  0.0875
  389MOL0     C53612   9.254   2.594   2.931  0.2118 -0.2220  0.1300
  389MOL0     H53613   9.813   2.449   2.848 -0.3713  2.2069  2.1604
  389MOL0     H53614  10.027   2.483   2.965 -0.1042 -0.7862 -2.3968
  389MOL0     H53615  10.211   2.501   3.111  0.5242 -0.5785  0.7552
  389MOL0     H53616  10.216   2.328   3.063 -1.1926 -2.7011  1.0969
  389MOL0     H53617  10.323   2.275   3.270  0.2316 -1.0341 -1.7371
  389MOL0     H53618  10.410   2.395   3.148 -2.1614 -2.8421 -4.1354
  389MOL0     H53619  10.387   2.569   3.289  2.4454 -0.5710  1.2306
  389MOL0     H53620  10.252   2.492   3.381 -0.9567 -4.1461  0.4790
  389MOL0     H53621  10.448   2.500   3.529  2.2771  0.1472  1.0678
  389MOL0     H53622  10.425   2.330   3.488  0.8638 -0.6484  0.2469
  389MOL0     H53623  10.602   2.365   3.299 -1.3338 -0.1568  0.2331
  389MOL0     H53624  10.659   2.348   3.462 -1.5545 -0.5334  0.1470
  389MOL0     H53625  10.621   2.615   3.324  5.0078  5.2692  2.3258
  389MOL0     H53626  10.688   2.586   3.483  0.7077 -1.5352  0.7706
  389MOL0     H53627  10.792   2.473   3.209  1.2046 -1.5259  0.2629
  389MOL0     H53628  10.879   2.436   3.347  0.1614 -0.1007  0.5449
  389MOL0     H53629  10.981   2.627   3.222 -1.0867  0.7951 -0.7933
  389MOL0     H53630  10.855   2.737   3.273 -1.5898  1.1108  4.8576
  389MOL0     H53631  11.097   2.500   3.456  2.2063  1.8354 -2.3804
  389MOL0     H53632  11.230   2.592   3.763  0.1696 -0.3409 -2.7436
  389MOL0     H53633  11.130   2.454   3.723  2.9782 -0.4175  0.6439
  389MOL0     H53634  11.059   2.676   3.901  0.4103 -0.4086  1.0290
  389MOL0     H53635  10.929   2.586   3.826 -0.8427  2.5759  0.6001
  389MOL0     H53636  10.962   2.473   4.042 -2.3913 -1.3820 -2.8633
  389MOL0     H53637  11.031   2.372   3.918 -1.9537  0.1975 -0.3827
  389MOL0     H53638  11.198   2.548   4.113  0.2812 -0.4570  0.3114
  389MOL0     H53639  11.148   2.387   4.134 -0.2389 -0.5765 -1.9611
  389MOL0     H53640  11.491   2.284   3.908 -0.1695 -0.5322 -0.4558
  389MOL0     H53641  11.708   2.210   3.892 -1.7976  0.9129  0.5377
  389MOL0     H53642  11.736   2.120   4.045  1.6030 -0.5610 -1.2884
  389MOL0     H53643  11.843   2.245   4.002 -0.0668  0.7332  3.8679
  389MOL0     H53644  11.652   2.442   4.599 -3.4628  0.4988  0.1839
  389MOL0     H53645  11.490   2.304   4.735 -0.0741 -1.0009  1.3137
  389MOL0     H53646  11.582   1.888   4.733  0.7160  3.3712  0.0805
  389MOL0     H53647  11.491   1.916   4.868  2.4424  2.1671 -0.1213
  389MOL0     H53648  11.289   1.813   4.788 -1.4204 -1.7485 -1.7381
  389MOL0     H53649  11.337   1.848   4.619 -2.5719 -0.2556  0.9463
  389MOL0     H53650  11.497   1.658   4.646 -0.4783 -1.6668  0.3417
  389MOL0     H53651  11.324   1.614   4.650 -1.3537 -2.2692  2.1717
  389MOL0     H53652  11.330   1.594   4.905  3.5142 -0.6955  4.8848
  389MOL0     H53653  11.483   1.666   4.912  0.3492 -0.2815  1.5667
  389MOL0     H53654  11.398   1.415   4.768  0.0880 -0.9021  0.0118
  389MOL0     H53655  11.557   1.480   4.751 -1.7721 -0.5143 -0.9542
  389MOL0     H53656  11.417   1.358   4.989 -0.7999  3.2549  0.5034
  389MOL0     H53657  11.566   1.450   5.017 -1.1781  2.4409 -1.0977
  389MOL0     H53658  11.653   1.219   5.001 -0.7160 -0.5033 -0.4135
  389MOL0     H53659  11.691   1.301   4.865  2.4957 -2.0975  1.7859
  389MOL0     H53660  11.478   1.172   4.751 -1.0583 -4.5308 -1.3366
  389MOL0     H53661  11.493   1.086   4.907 -0.1555 -0.6443  0.9357
  389MOL0     H53662  11.566   1.961   4.503  2.2100 -0.5140 -1.6730
  389MOL0     H53663  11.719   2.108   4.343  0.0851  2.2465 -1.4912
  389MOL0     H53664  11.576   2.498   4.335  3.3994 -1.6530  0.8080
  389MOL0     H53665  11.357   2.517   4.231 -1.1256  0.0642 -3.1981
  389MOL0     H53666   9.880   2.249   3.296 -0.6843 -0.3341  0.1089
  389MOL0     H53667   9.673   2.195   3.181  2.4988 -3.3406  0.1974
  389MOL0     H53668   9.464   2.199   2.796  1.4034  1.7530  1.0835
  389MOL0     H53669   9.260   2.106   2.716 -2.4614  0.5409 -1.9185
  389MOL0     H53670   8.900   2.114   2.598  0.3610  0.0852 -1.3606
  389MOL0     H53671   9.078   2.116   2.592 -0.6412 -0.6057  0.0520
  389MOL0     H53672   9.081   1.986   2.812 -0.0410  0.9560  0.4704
  389MOL0     H53673   9.003   1.904   2.685  2.6687 -1.1079  1.6941
  389MOL0     H53674   8.871   1.885   2.900 -1.2909 -0.3936 -0.1156
  389MOL0     H53675   8.835   2.051   2.897  1.9838 -0.9092  2.1621
  389MOL0     H53676   8.731   1.876   2.664  0.0305  0.9458 -0.1928
  389MOL0     H53677   8.681   2.037   2.708 -1.5731  0.4698  1.2720
  389MOL0     H53678   8.454   1.844   2.996  0.9868 -2.3302  0.3448
  389MOL0     H53679   9.052   2.464   2.837  0.9131  0.7928  0.7886
  389MOL0     H53680   9.324   2.652   2.871  1.2863 -1.8884 -0.3048
  389MOL0     H53681   9.153   2.634   2.925  0.4816  0.7514  1.4952
  389MOL0     H53682   9.290   2.594   3.035 -0.1359 -0.9396  0.2564
  390MOL0     O53683   0.060   5.494  10.527 -0.1978  0.0968 -0.3288
  390MOL0     C53684  -0.004   5.509  10.422 -0.1543 -1.5202  0.1214
  390MOL0     O53685   0.040   5.590  10.313  0.0124 -0.2339 -0.1691
  390MOL0     C53686   0.168   5.629  10.322 -0.0467  0.8426 -0.4547
  390MOL0     C53687   0.265   5.598  10.222  0.1997  0.3444  0.3533
  390MOL0     C53688   0.396   5.644  10.228 -0.4419 -0.7548  0.4511
  390MOL0     C53689   0.434   5.735  10.334 -0.8779 -0.0995  0.2588
  390MOL0     O53690   0.562   5.787  10.346 -0.4372 -0.1962 -0.0105
  390MOL0     C53691   0.639   5.799  10.223 -0.2621  0.3730  0.7552
  390MOL0     C53692   0.747   5.897  10.233 -0.0577 -0.1444 -0.1139
  390MOL0     C53693   0.852   5.874  10.338 -0.9286  0.1630  0.2098
  390MOL0     C53694   0.928   5.742  10.335 -1.0641  1.1910  0.2941
  390MOL0     C53695   1.037   5.770  10.439 -0.0789  0.7036 -0.4091
  390MOL0     C53696   1.134   5.651  10.443 -0.5439 -0.4811 -0.0166
  390MOL0     C53697   1.210   5.650  10.570  0.3785  0.8285 -1.0749
  390MOL0     C53698   1.282   5.771  10.600 -0.5756 -0.5870  0.4799
  390MOL0     N53699   1.412   5.745  10.542  0.1494  0.1669  0.3727
  390MOL0     C53700   1.514   5.664  10.581 -0.2830 -0.0657  0.7681
  390MOL0     C53701   1.595   5.661  10.473  0.1637 -0.0470  0.1597
  390MOL0     C53702   1.707   5.556  10.444 -0.3426  0.1518 -0.0097
  390MOL0     C53703   1.845   5.584  10.513  0.7480 -0.1206 -0.6556
  390MOL0     C53704   1.838   5.596  10.664 -0.5506 -0.4501  0.6640
  390MOL0     C53705   1.860   5.471  10.738  0.1723  0.5583 -0.2467
  390MOL0     O53706   1.737   5.398  10.752  0.1922 -0.7434 -0.2444
  390MOL0     C53707   1.760   5.265  10.795  1.2187 -0.6553 -0.4820
  390MOL0     C53708   1.680   5.171  10.727  0.9513  0.1814  0.9439
  390MOL0     C53709   1.673   5.034  10.754  0.4003 -0.8743 -0.4703
  390MOL0     C53710   1.563   4.942  10.684 -0.2971 -0.3436  0.5406
  390MOL0     C53711   1.758   4.989  10.853  0.1090 -0.2345  0.1631
  390MOL0     C53712   1.774   4.848  10.896 -0.9431 -0.2218 -0.3360
  390MOL0     O53713   1.717   4.753  10.821 -0.2112  0.5693  0.8802
  390MOL0     C53714   1.748   4.620  10.820  0.2902  0.2160  0.4299
  390MOL0     C53715   1.644   4.537  10.792 -0.5364  0.9273  0.5015
  390MOL0     C53716   1.675   4.401  10.776 -0.4741 -0.4379 -0.0984
  390MOL0     C53717   1.810   4.357  10.783  0.1608 -0.0429  0.5260
  390MOL0     O53718   1.848   4.227  10.746 -0.3401 -0.0232 -0.5646
  390MOL0     C53719   1.940   4.232  10.640  0.0725 -0.2195 -1.1236
  390MOL0     C53720   1.939   4.093  10.581  0.3373  0.5136  0.0767
  390MOL0     C53721   2.011   4.078  10.442  0.2399 -0.5229  0.0068
  390MOL0     C53722   1.979   3.946  10.384  0.2245  0.2301  0.3250
  390MOL0     C53723   2.011   3.945  10.236 -0.0345 -0.2302  0.3158
  390MOL0     C53724   2.037   3.801  10.189  0.8685 -0.4618 -0.0217
  390MOL0     C53725   2.184   3.771  10.171 -0.3751  0.4465  0.4414
  390MOL0     C53726   2.206   3.633  10.104  0.1413  0.0880  0.0550
  390MOL0    Cl53727   2.370   3.564  10.146  0.1009 -0.0987  0.3102
  390MOL0     C53728   1.910   4.445  10.825  0.1791 -0.4772 -0.4930
  390MOL0     C53729   1.880   4.576  10.833 -0.5621  0.8765  0.1438
  390MOL0     O53730   1.847   4.834  10.996  0.1050  0.4402  0.0102
  390MOL0     C53731   1.840   5.080  10.930 -0.6567 -0.6417  0.1840
  390MOL0     C53732   1.843   5.222  10.898  0.2267 -0.1105 -0.6847
  390MOL0     N53733   1.554   5.752  10.377  0.0108 -0.1804  0.0635
  390MOL0     N53734   1.439   5.803  10.422 -0.0441 -0.1606  0.1781
  390MOL0     C53735   0.336   5.768  10.428 -0.1407  0.4017 -0.5534
  390MOL0     C53736   0.207   5.716  10.425  0.2438  0.1759 -0.3964
  390MOL0     C53737  -0.142   5.450  10.398  0.0894  0.5130  0.2045
  390MOL0     C53738  -0.208   5.474  10.275  0.1945  0.8077  0.2421
  390MOL0     C53739  -0.328   5.410  10.254  1.2453 -0.1246 -0.6889
  390MOL0     C53740  -0.389   5.322  10.345  0.1342 -0.2941  0.3581
  390MOL0     O53741  -0.507   5.249  10.332 -0.3014 -0.2152 -0.6797
  390MOL0     C53742  -0.578   5.272  10.210 -0.3338 -1.3365  0.9737
  390MOL0     C53743  -0.692   5.182  10.200  0.5846 -0.7090 -0.9657
  390MOL0     C53744  -0.792   5.232  10.099  0.7201  1.3342 -0.8938
  390MOL0     C53745  -0.913   5.142  10.092  0.4888  0.6397 -0.4422
  390MOL0     C53746  -0.885   5.037   9.994  0.0826  0.2769 -0.1375
  390MOL0     C53747  -0.861   4.953   9.908 -0.0855 -0.1842  0.4905
  390MOL0     C53748  -0.322   5.301  10.462  0.1416 -1.0150 -0.2662
  390MOL0     C53749  -0.202   5.363  10.497  0.8461 -0.3905 -0.3494
  390MOL0     C53750  -0.142   5.328  10.634 -0.0633 -0.3261 -1.0386
  390MOL0     H53751   0.246   5.546  10.129  2.7718  2.1582 -1.3442
  390MOL0     H53752   0.465   5.613  10.150  0.4810 -1.1644  1.3957
  390MOL0     H53753   0.576   5.832  10.141  0.6372  0.5841  0.1324
  390MOL0     H53754   0.683   5.707  10.182 -2.6725 -0.4351 -0.2039
  390MOL0     H53755   0.800   5.903  10.137  2.5661  2.1612  1.3414
  390MOL0     H53756   0.702   5.995  10.253  0.6870 -0.2302  2.2076
  390MOL0     H53757   0.920   5.959  10.340  0.6388 -1.0219  2.4866
  390MOL0     H53758   0.804   5.892  10.435  0.1669  4.9065  0.0811
  390MOL0     H53759   0.867   5.659  10.370 -0.5238  0.7126  0.1028
  390MOL0     H53760   0.972   5.724  10.237 -3.6374  0.9759 -0.9190
  390MOL0     H53761   1.001   5.795  10.539 -0.7876 -3.2684  0.4807
  390MOL0     H53762   1.100   5.849  10.398 -0.4709  0.2281 -1.9878
  390MOL0     H53763   1.078   5.557  10.436  1.3492 -1.8516  2.1075
  390MOL0     H53764   1.205   5.660  10.360  2.0308 -1.1082  1.9864
  390MOL0     H53765   1.264   5.554  10.572 -0.2017  0.3716  3.7679
  390MOL0     H53766   1.139   5.630  10.650 -1.2882 -0.4073 -2.7741
  390MOL0     H53767   1.237   5.864  10.566 -0.0561 -0.0883  1.1379
  390MOL0     H53768   1.301   5.782  10.707  0.7416 -2.7980  0.5326
  390MOL0     H53769   1.530   5.592  10.661 -0.1399 -2.7697 -1.5540
  390MOL0     H53770   1.733   5.559  10.337  1.9023 -1.0035  0.4364
  390MOL0     H53771   1.680   5.453  10.470  1.2193  0.3089  2.5235
  390MOL0     H53772   1.925   5.513  10.488  0.7241  0.1491 -1.5412
  390MOL0     H53773   1.875   5.678  10.467 -1.5096  0.6808 -0.6070
  390MOL0     H53774   1.922   5.665  10.682 -1.6103  1.4001 -1.0009
  390MOL0     H53775   1.747   5.653  10.686 -0.2226  2.3339 -3.8240
  390MOL0     H53776   1.936   5.403  10.699 -1.0491 -1.5154  0.8105
  390MOL0     H53777   1.901   5.507  10.834 -3.1504 -1.3292  2.0590
  390MOL0     H53778   1.615   5.208  10.649  0.2108 -3.7832 -0.5389
  390MOL0     H53779   1.605   4.875  10.609  1.4830  1.7068 -0.4183
  390MOL0     H53780   1.499   5.014  10.631  0.4042  0.8185  1.2286
  390MOL0     H53781   1.506   4.887  10.759  0.8558 -0.1728  1.5651
  390MOL0     H53782   1.545   4.581  10.792 -0.6701  0.7380 -1.4352
  390MOL0     H53783   1.586   4.339  10.771 -0.7798  0.0093 -0.3348
  390MOL0     H53784   1.889   4.299  10.570 -2.0081  0.4165  0.8622
  390MOL0     H53785   2.041   4.262  10.669 -0.5537  0.9412  0.0273
  390MOL0     H53786   1.977   4.018  10.651 -0.1854 -0.2186 -0.4135
  390MOL0     H53787   1.833   4.070  10.567  0.9665 -3.0108  0.2539
  390MOL0     H53788   2.118   4.088  10.462  0.3637  1.3743 -1.3830
  390MOL0     H53789   1.976   4.153  10.371 -0.4835 -1.0761 -0.2323
  390MOL0     H53790   1.873   3.927  10.404 -0.7810  4.2019 -0.4026
  390MOL0     H53791   2.031   3.862  10.431 -3.9322 -2.4886  0.5655
  390MOL0     H53792   1.933   4.000  10.182 -0.7536 -1.3795  0.1515
  390MOL0     H53793   2.106   3.996  10.218  1.0229 -2.6792 -1.7125
  390MOL0     H53794   1.990   3.801  10.090 -1.0955  0.7412  0.8507
  390MOL0     H53795   1.987   3.729  10.255 -1.4312  2.4264  1.6562
  390MOL0     H53796   2.238   3.774  10.266  2.2822 -3.4048 -0.7007
  390MOL0     H53797   2.238   3.834  10.099  2.8477 -0.4250  1.9352
  390MOL0     H53798   2.204   3.642   9.995  1.2687  2.8557  0.1812
  390MOL0     H53799   2.136   3.552  10.127  1.0669 -1.2897 -1.6453
  390MOL0     H53800   2.016   4.421  10.813 -0.0978 -0.3501 -4.9180
  390MOL0     H53801   1.958   4.651  10.842 -0.0062  0.8645 -3.2786
  390MOL0     H53802   1.907   5.046  11.009 -0.4293  0.3326  0.4261
  390MOL0     H53803   1.910   5.290  10.950  1.2166 -1.4997 -0.1041
  390MOL0     H53804   0.348   5.829  10.517 -2.1062 -0.1052  0.1053
  390MOL0     H53805   0.138   5.750  10.501  1.6273  1.7096  0.2442
  390MOL0     H53806  -0.159   5.538  10.203 -0.1310  2.3552  1.3459
  390MOL0     H53807  -0.378   5.425  10.158 -0.7081  0.4666  0.3762
  390MOL0     H53808  -0.616   5.374  10.218 -0.4447 -1.0146 -2.3043
  390MOL0     H53809  -0.520   5.266  10.117  0.2067 -1.7987  1.3348
  390MOL0     H53810  -0.743   5.163  10.294 -2.1989 -0.5611 -2.3352
  390MOL0     H53811  -0.647   5.087  10.170 -0.8686 -1.3859 -1.0779
  390MOL0     H53812  -0.831   5.328  10.135 -1.5611 -0.7359  2.8573
  390MOL0     H53813  -0.760   5.250   9.996  0.5781  0.3121 -1.1288
  390MOL0     H53814  -1.004   5.193  10.059  0.2588  1.3652  1.1935
  390MOL0     H53815  -0.936   5.107  10.193 -0.5480  0.7399 -0.6334
  390MOL0     H53816  -0.837   4.897   9.819  1.5213  0.0691  0.7324
  390MOL0     H53817  -0.356   5.230  10.537 -1.2045 -0.9297 -0.7782
  390MOL0     H53818  -0.043   5.281  10.631 -0.1712 -0.7272  0.5682
  390MOL0     H53819  -0.144   5.421  10.692 -1.5168 -0.4389 -0.8633
  390MOL0     H53820  -0.203   5.246  10.672  1.5934 -1.5171 -0.8255
  391MOL0     O53821   6.402   4.790   0.280  0.5419  0.0119 -0.0284
  391MOL0     C53822   6.360   4.678   0.318  0.5509 -0.3837 -0.1307
  391MOL0     O53823   6.436   4.580   0.377  0.0756  0.1524  0.5679
  391MOL0     C53824   6.565   4.617   0.419  0.1491  0.1519 -0.1760
  391MOL0     C53825   6.584   4.694   0.535 -0.2627 -0.5847 -0.1166
  391MOL0     C53826   6.715   4.730   0.563 -0.3595 -0.9150 -0.2162
  391MOL0     C53827   6.818   4.677   0.487  0.4986  0.1771  1.7668
  391MOL0     O53828   6.944   4.689   0.527  0.1288 -0.1602 -0.4501
  391MOL0     C53829   7.034   4.578   0.543 -0.0535  0.2660 -0.0051
  391MOL0     C53830   7.162   4.606   0.623 -0.5229 -0.0963  0.3111
  391MOL0     C53831   7.269   4.510   0.579 -0.2530  0.2337 -0.6606
  391MOL0     C53832   7.396   4.550   0.653  0.2542  0.2420  0.7196
  391MOL0     C53833   7.449   4.690   0.605 -0.1429  0.2164 -0.4375
  391MOL0     C53834   7.491   4.680   0.456 -0.3398 -0.7736 -0.5246
  391MOL0     C53835   7.584   4.800   0.420  0.5039 -0.2428 -0.0747
  391MOL0     C53836   7.635   4.787   0.272  0.0907 -0.3076 -0.0937
  391MOL0     N53837   7.768   4.840   0.255  0.2438 -0.5727  0.0039
  391MOL0     C53838   7.800   4.974   0.277 -0.7771  0.0693  1.3316
  391MOL0     C53839   7.935   4.972   0.253 -1.0281  0.2422  0.0438
  391MOL0     C53840   8.027   5.091   0.275  0.0005 -0.9505 -0.2798
  391MOL0     C53841   8.134   5.074   0.379 -0.5460  0.1886  0.0800
  391MOL0     C53842   8.226   5.191   0.377 -0.7692  0.3570  0.5345
  391MOL0     C53843   8.348   5.159   0.461  0.0831 -0.2346 -0.4320
  391MOL0     O53844   8.440   5.072   0.391  0.2789  0.3601  0.2411
  391MOL0     C53845   8.550   5.031   0.466 -0.5064  0.2751 -0.1232
  391MOL0     C53846   8.647   4.954   0.400  0.2475  1.2580  0.5263
  391MOL0     C53847   8.761   4.909   0.468 -0.6962  1.1551 -0.2423
  391MOL0     C53848   8.846   4.806   0.400 -0.1871  0.0920  0.5527
  391MOL0     C53849   8.800   4.959   0.599  0.0887  0.1744  0.2668
  391MOL0     C53850   8.927   4.927   0.667 -0.1458 -0.4723  0.4106
  391MOL0     O53851   8.933   4.956   0.802  0.1010 -0.3475  0.0713
  391MOL0     C53852   9.059   4.947   0.860 -0.2287  0.3025 -0.8943
  391MOL0     C53853   9.086   4.827   0.931 -0.6442  0.5737 -0.1981
  391MOL0     C53854   9.220   4.814   0.970  0.1966 -0.2960 -0.5171
  391MOL0     C53855   9.315   4.915   0.957  0.3163 -0.0100 -0.2250
  391MOL0     O53856   9.447   4.903   0.991  0.4088 -0.2956  0.9245
  391MOL0     C53857   9.462   4.836   1.113  0.1050 -0.6410 -0.1579
  391MOL0     C53858   9.602   4.871   1.169  0.4132 -0.1333 -0.0385
  391MOL0     C53859   9.711   4.826   1.075  0.1709 -0.4649 -0.0361
  391MOL0     C53860   9.849   4.861   1.132  0.3621  1.6357 -0.0231
  391MOL0     C53861   9.954   4.822   1.035  0.4188  0.0824 -0.3780
  391MOL0     C53862  10.091   4.866   1.092  0.0585  0.0335 -0.5981
  391MOL0     C53863  10.169   4.759   1.172  0.2791 -0.3664  0.6301
  391MOL0     C53864  10.295   4.810   1.250  0.0028 -0.0218  0.1190
  391MOL0    Cl53865  10.429   4.824   1.129  0.0463  0.2808  0.0829
  391MOL0     C53866   9.279   5.030   0.878  0.5460  0.4042  0.0463
  391MOL0     C53867   9.145   5.047   0.833 -0.0558  0.3069 -0.2492
  391MOL0     O53868   9.019   4.883   0.602 -0.1409 -0.9275 -0.0597
  391MOL0     C53869   8.710   5.039   0.659  0.2950  0.0697  0.0258
  391MOL0     C53870   8.589   5.077   0.586  0.0597 -0.2637  0.6673
  391MOL0     N53871   7.979   4.840   0.224  0.3165 -0.8620  0.0314
  391MOL0     N53872   7.874   4.760   0.224 -0.0834 -0.1231 -0.4645
  391MOL0     C53873   6.794   4.593   0.374 -0.8872  0.9335 -0.1679
  391MOL0     C53874   6.666   4.569   0.333  0.0642 -0.3202  0.3116
  391MOL0     C53875   6.210   4.661   0.333 -0.2663 -0.0257 -0.1093
  391MOL0     C53876   6.171   4.586   0.443  0.1300  0.2859 -0.2612
  391MOL0     C53877   6.039   4.543   0.462 -0.6945 -0.4760 -0.2108
  391MOL0     C53878   5.941   4.571   0.362 -0.3469  0.9586 -0.8181
  391MOL0     O53879   5.806   4.529   0.350 -0.5163  0.2892 -0.0652
  391MOL0     C53880   5.777   4.425   0.444 -0.8416  1.2012 -0.6751
  391MOL0     C53881   5.627   4.396   0.445 -1.1352 -0.1700  0.5029
  391MOL0     C53882   5.545   4.514   0.502 -0.7653  0.0572  0.2162
  391MOL0     C53883   5.401   4.463   0.515  0.7560 -0.3577  0.1226
  391MOL0     C53884   5.337   4.477   0.386  0.0598 -0.3046  0.1088
  391MOL0     C53885   5.291   4.493   0.276  0.1853 -0.0627  0.1973
  391MOL0     C53886   5.984   4.640   0.251 -0.6585  0.3135  0.3938
  391MOL0     C53887   6.116   4.697   0.235 -0.6533  0.2335 -0.4920
  391MOL0     C53888   6.154   4.768   0.103  0.2220  0.4710 -0.0574
  391MOL0     H53889   6.497   4.723   0.594 -0.0257  1.1472 -0.5745
  391MOL0     H53890   6.737   4.800   0.643  2.8006 -0.5714 -1.2374
  391MOL0     H53891   7.065   4.537   0.446  0.3463  2.2125 -0.7574
  391MOL0     H53892   6.974   4.511   0.604  2.1797 -0.5729  1.4228
  391MOL0     H53893   7.189   4.708   0.596 -0.2679  0.5727  2.7853
  391MOL0     H53894   7.150   4.593   0.731  1.4831  1.7852  0.8311
  391MOL0     H53895   7.249   4.408   0.612 -1.0621  0.2553 -1.0650
  391MOL0     H53896   7.285   4.513   0.471  0.1741 -0.0293 -0.6099
  391MOL0     H53897   7.367   4.557   0.759 -2.2458  2.4500 -0.0294
  391MOL0     H53898   7.474   4.473   0.647 -1.5473 -1.9155  2.7045
  391MOL0     H53899   7.540   4.708   0.663 -1.4232 -4.1621  3.4836
  391MOL0     H53900   7.382   4.772   0.631  1.7069  1.2928  1.2913
  391MOL0     H53901   7.556   4.593   0.439  0.4744 -0.7180  1.9374
  391MOL0     H53902   7.405   4.667   0.389  1.0082 -3.8327 -1.8979
  391MOL0     H53903   7.672   4.793   0.484  0.4055 -0.5520  0.0225
  391MOL0     H53904   7.506   4.875   0.437 -0.1709 -1.5033  2.9498
  391MOL0     H53905   7.645   4.679   0.254 -1.8588 -0.2767 -1.8477
  391MOL0     H53906   7.566   4.830   0.199  0.2507 -1.4829 -0.9603
  391MOL0     H53907   7.743   5.057   0.317 -0.1515  0.9538  0.4398
  391MOL0     H53908   7.969   5.181   0.295 -0.8371 -1.0774 -1.9627
  391MOL0     H53909   8.081   5.102   0.180  1.6986 -0.5214  0.6858
  391MOL0     H53910   8.099   5.058   0.482  2.1360  3.7614  1.8001
  391MOL0     H53911   8.185   4.982   0.351 -2.3088 -0.6953 -0.3875
  391MOL0     H53912   8.255   5.216   0.275  0.1662 -1.1475  0.3901
  391MOL0     H53913   8.180   5.280   0.421 -2.9523  0.0543 -0.9539
  391MOL0     H53914   8.396   5.254   0.488 -1.8721  1.8360 -3.6245
  391MOL0     H53915   8.315   5.100   0.547  1.8443 -1.3857 -0.5109
  391MOL0     H53916   8.630   4.922   0.298 -1.6918  1.9282  0.6130
  391MOL0     H53917   8.861   4.714   0.457  0.1378 -0.6605 -0.7202
  391MOL0     H53918   8.941   4.849   0.369  0.7260 -0.6050  2.2566
  391MOL0     H53919   8.813   4.767   0.303 -1.5949  1.0284  0.6200
  391MOL0     H53920   9.011   4.749   0.932 -1.0744  0.9615 -0.9932
  391MOL0     H53921   9.266   4.720   0.999 -0.5490 -1.0594 -1.7337
  391MOL0     H53922   9.381   4.870   1.178 -1.2973  0.6231 -2.4239
  391MOL0     H53923   9.444   4.730   1.094  2.0504 -0.3735 -4.7791
  391MOL0     H53924   9.609   4.980   1.183 -0.0025 -0.0755 -0.2643
  391MOL0     H53925   9.614   4.821   1.265 -3.0202 -3.2588 -1.0322
  391MOL0     H53926   9.702   4.884   0.983  0.1674 -1.9824 -1.0254
  391MOL0     H53927   9.698   4.720   1.054  1.7700 -0.7915  0.5078
  391MOL0     H53928   9.864   4.802   1.222 -2.2789 -2.5415 -2.0259
  391MOL0     H53929   9.856   4.965   1.167  1.9025  0.5421  3.2342
  391MOL0     H53930   9.955   4.714   1.019  1.0711  0.1254 -0.6567
  391MOL0     H53931   9.926   4.868   0.940 -1.7929  0.2617  0.3068
  391MOL0     H53932  10.088   4.963   1.142 -0.0390 -0.9770  1.5025
  391MOL0     H53933  10.151   4.885   1.003 -0.1488 -1.8876 -1.2093
  391MOL0     H53934  10.194   4.673   1.108 -0.9246 -1.2830  1.3592
  391MOL0     H53935  10.107   4.720   1.253 -1.0921 -3.4175 -1.6854
  391MOL0     H53936  10.334   4.744   1.328  2.5982 -0.4450 -1.4284
  391MOL0     H53937  10.273   4.910   1.290 -1.1428  0.9231 -2.6631
  391MOL0     H53938   9.353   5.108   0.862  2.1851 -1.3900 -1.6027
  391MOL0     H53939   9.115   5.131   0.771 -2.0441 -0.1396  0.0434
  391MOL0     H53940   8.734   5.076   0.759 -0.3373 -2.1476  1.0534
  391MOL0     H53941   8.530   5.154   0.635 -1.2693 -0.9805  0.2561
  391MOL0     H53942   6.884   4.563   0.321  0.6646  2.9709  1.1379
  391MOL0     H53943   6.647   4.499   0.253 -1.7227 -0.1467  0.5529
  391MOL0     H53944   6.251   4.547   0.505  0.8711  1.8037 -0.2259
  391MOL0     H53945   6.027   4.484   0.553  0.6625 -1.0804 -0.3944
  391MOL0     H53946   5.832   4.337   0.409 -3.1625 -0.5425 -0.1295
  391MOL0     H53947   5.811   4.448   0.545  3.2635 -1.8183 -1.0976
  391MOL0     H53948   5.596   4.311   0.507 -1.4209 -0.6258 -0.2545
  391MOL0     H53949   5.597   4.370   0.343 -0.2394  1.6296 -0.2576
  391MOL0     H53950   5.583   4.557   0.596 -0.3305  0.2190 -0.0301
  391MOL0     H53951   5.562   4.592   0.428 -0.1340  0.2754  0.5789
  391MOL0     H53952   5.336   4.526   0.578 -0.0880 -0.1944 -0.8876
  391MOL0     H53953   5.388   4.362   0.555 -2.2317  0.1989  0.8024
  391MOL0     H53954   5.253   4.512   0.178  0.6976 -0.2674 -0.0450
  391MOL0     H53955   5.916   4.665   0.170  0.4202  0.1468 -0.5935
  391MOL0     H53956   6.213   4.705   0.036 -0.1444 -2.5546  2.2714
  391MOL0     H53957   6.064   4.804   0.053 -1.1917 -0.4953  1.7187
  391MOL0     H53958   6.215   4.854   0.135  2.9777 -1.8561  1.4356
  392MOL0     O53959   2.939   0.616   8.030 -0.1553  0.5470 -0.2037
  392MOL0     C53960   3.001   0.527   8.093 -0.4008  0.3465  0.2252
  392MOL0     O53961   3.141   0.524   8.104  0.4272 -0.1735  0.0390
  392MOL0     C53962   3.219   0.616   8.032 -1.1085 -0.4045  0.2040
  392MOL0     C53963   3.337   0.651   8.092 -0.3632 -0.3889  0.0558
  392MOL0     C53964   3.438   0.709   8.016 -0.4914  0.7096 -0.9469
  392MOL0     C53965   3.426   0.735   7.882  0.4875  0.6529 -0.9367
  392MOL0     O53966   3.515   0.799   7.810 -0.1978 -0.0112 -0.2675
  392MOL0     C53967   3.638   0.829   7.880  0.4194  0.0423  1.2619
  392MOL0     C53968   3.739   0.888   7.783  0.4510  0.4758  0.2545
  392MOL0     C53969   3.860   0.944   7.854  1.0102  0.1436  0.5971
  392MOL0     C53970   3.831   1.081   7.912  0.1923  0.9091 -0.3458
  392MOL0     C53971   3.963   1.142   7.957 -0.8835 -0.0822 -0.4168
  392MOL0     C53972   4.056   1.057   8.051  0.0689  0.2524 -0.8007
  392MOL0     C53973   4.165   1.147   8.122  0.2041 -0.4233 -0.0012
  392MOL0     C53974   4.287   1.175   8.024  0.9385 -1.0527 -0.1309
  392MOL0     N53975   4.371   1.059   8.002 -0.3975 -0.3888  0.7789
  392MOL0     C53976   4.451   0.997   8.095  0.3332  1.0138  0.5711
  392MOL0     C53977   4.501   0.891   8.026 -0.0247 -0.4922 -0.8844
  392MOL0     C53978   4.596   0.797   8.082  0.3118  0.1203 -0.1247
  392MOL0     C53979   4.746   0.855   8.073 -0.6963 -0.3660  0.2558
  392MOL0     C53980   4.862   0.761   8.098  0.3914  0.2489  0.1212
  392MOL0     C53981   4.995   0.836   8.109 -0.3470 -0.0095  0.6458
  392MOL0     O53982   4.995   0.957   8.195 -0.2691 -0.0914 -0.3997
  392MOL0     C53983   5.111   1.020   8.207 -0.2896  0.1317  0.7362
  392MOL0     C53984   5.124   1.140   8.279 -0.4804 -1.0225 -0.1537
  392MOL0     C53985   5.244   1.214   8.290 -0.0374 -0.0813  0.7960
  392MOL0     C53986   5.241   1.326   8.391 -0.4041 -0.0686 -1.0449
  392MOL0     C53987   5.367   1.159   8.235 -0.5928 -0.3499 -0.4670
  392MOL0     C53988   5.502   1.227   8.249  0.7441  0.3464 -0.9360
  392MOL0     O53989   5.609   1.141   8.220  0.7231  0.1429 -0.2936
  392MOL0     C53990   5.738   1.184   8.243 -0.8947 -0.4016 -0.0594
  392MOL0     C53991   5.838   1.137   8.167  0.0040  0.0481  0.3722
  392MOL0     C53992   5.974   1.155   8.193 -0.0129  0.0665 -0.4721
  392MOL0     C53993   6.014   1.241   8.300  0.9170 -0.0762  0.2223
  392MOL0     O53994   6.135   1.283   8.334 -0.3818 -0.4660 -0.4700
  392MOL0     C53995   6.256   1.234   8.283 -1.0375  0.5308  1.5398
  392MOL0     C53996   6.370   1.325   8.325 -0.1122  0.1948 -0.3605
  392MOL0     C53997   6.510   1.284   8.268 -0.0801  0.7228  0.8422
  392MOL0     C53998   6.611   1.399   8.295  0.1400  0.4014  0.0529
  392MOL0     C53999   6.764   1.353   8.279 -0.4937  0.5694  0.6264
  392MOL0     C54000   6.843   1.484   8.308  0.6833  0.0138 -0.0383
  392MOL0     C54001   6.995   1.476   8.279 -0.3530 -0.7022 -0.5023
  392MOL0     C54002   7.063   1.352   8.346  0.4110  0.2401 -0.2240
  392MOL0    Cl54003   7.235   1.373   8.312 -0.2061  0.6380  0.2217
  392MOL0     C54004   5.910   1.306   8.370 -0.6984  0.3074  0.6775
  392MOL0     C54005   5.774   1.270   8.343 -0.3948 -0.3950 -0.5360
  392MOL0     O54006   5.512   1.339   8.294 -0.0872 -1.0230  0.0440
  392MOL0     C54007   5.357   1.036   8.167 -0.6259  0.1247 -0.3449
  392MOL0     C54008   5.237   0.968   8.156 -0.0999 -0.1682 -0.2321
  392MOL0     N54009   4.450   0.890   7.894 -0.3619  0.6342  0.1570
  392MOL0     N54010   4.368   0.989   7.882 -0.3569  0.6672  0.1443
  392MOL0     C54011   3.307   0.700   7.821  0.4610 -0.2881  0.4038
  392MOL0     C54012   3.204   0.637   7.893  0.3405 -0.6596  1.1960
  392MOL0     C54013   2.933   0.419   8.170 -0.0821  0.3551  0.2295
  392MOL0     C54014   2.988   0.396   8.294  0.7918  0.4652 -0.8389
  392MOL0     C54015   2.938   0.291   8.370 -0.8390  0.2040 -0.0545
  392MOL0     C54016   2.822   0.222   8.337 -0.1928 -0.2520  1.2010
  392MOL0     O54017   2.763   0.115   8.403  0.5594  0.5039  0.8197
  392MOL0     C54018   2.800   0.073   8.531  0.2407 -0.6087 -0.2287
  392MOL0     C54019   2.765  -0.083   8.543  0.3492  0.6648 -0.5122
  392MOL0     C54020   2.824  -0.189   8.434  0.5014 -0.7347  0.3732
  392MOL0     C54021   2.805  -0.152   8.282 -0.8165 -0.3956 -0.1135
  392MOL0     C54022   2.797  -0.277   8.205 -0.6187 -0.1617 -0.0674
  392MOL0     C54023   2.818  -0.384   8.157 -0.3628  0.5219 -1.3582
  392MOL0     C54024   2.760   0.260   8.212 -0.3000  0.3165 -0.3991
  392MOL0     C54025   2.817   0.352   8.124  0.2962  0.8904  0.5363
  392MOL0     C54026   2.744   0.404   7.997  0.7440  0.7167 -0.6951
  392MOL0     H54027   3.348   0.624   8.197  0.9919  2.2562  0.6944
  392MOL0     H54028   3.521   0.723   8.084 -2.6348 -0.5280  2.1230
  392MOL0     H54029   3.689   0.738   7.913 -1.7934 -1.3079  1.1335
  392MOL0     H54030   3.631   0.890   7.971 -0.9900  0.0309  1.1748
  392MOL0     H54031   3.774   0.816   7.707  1.7985  1.9186 -0.5415
  392MOL0     H54032   3.693   0.967   7.722 -0.8115  0.4439  1.1356
  392MOL0     H54033   3.883   0.875   7.936 -0.8830 -2.0601 -0.6391
  392MOL0     H54034   3.948   0.958   7.790 -0.0149  0.8810 -0.6998
  392MOL0     H54035   3.770   1.140   7.843 -0.6296 -1.3120 -1.6693
  392MOL0     H54036   3.765   1.072   7.999  0.8067 -0.0551  0.0399
  392MOL0     H54037   3.941   1.242   7.996 -1.1315 -0.9577  1.8720
  392MOL0     H54038   4.009   1.161   7.859  3.9068  0.2664  1.6267
  392MOL0     H54039   3.995   1.009   8.127  0.6036  2.3313  1.0532
  392MOL0     H54040   4.106   0.976   7.997  2.4243  1.0933  0.0096
  392MOL0     H54041   4.188   1.105   8.220 -0.2569  0.2671  0.4018
  392MOL0     H54042   4.107   1.236   8.147  0.3048 -0.2074 -0.5263
  392MOL0     H54043   4.249   1.223   7.933  3.8981  0.2960 -0.7731
  392MOL0     H54044   4.355   1.251   8.064  2.3668 -1.3915 -1.7928
  392MOL0     H54045   4.460   1.020   8.200 -1.1523 -0.3945  1.0365
  392MOL0     H54046   4.586   0.699   8.035  0.3802 -0.1450  0.4160
  392MOL0     H54047   4.567   0.778   8.185 -0.2769  2.1885  0.1488
  392MOL0     H54048   4.751   0.886   7.969  1.7127 -1.5480 -0.0578
  392MOL0     H54049   4.755   0.949   8.129  0.3924 -1.0891  1.3660
  392MOL0     H54050   4.858   0.705   8.192  0.1924 -0.5528 -0.3516
  392MOL0     H54051   4.858   0.678   8.026 -2.8276  0.6861 -0.3288
  392MOL0     H54052   5.067   0.764   8.147 -3.0995 -3.2492  0.1894
  392MOL0     H54053   5.028   0.862   8.008 -2.8035  0.0751 -0.2145
  392MOL0     H54054   5.033   1.177   8.325 -1.0132 -0.8779 -1.2918
  392MOL0     H54055   5.271   1.423   8.350  1.8633 -0.4081 -0.3626
  392MOL0     H54056   5.293   1.297   8.483 -0.6300 -2.7743 -1.6889
  392MOL0     H54057   5.136   1.336   8.418 -0.9678  0.3127 -3.2194
  392MOL0     H54058   5.800   1.076   8.086  0.6299 -1.6575  1.3042
  392MOL0     H54059   6.054   1.108   8.137  0.3720  1.4278 -1.1090
  392MOL0     H54060   6.273   1.132   8.320  0.1551  0.9379  2.1462
  392MOL0     H54061   6.251   1.231   8.174 -1.5745 -0.3762  1.5755
  392MOL0     H54062   6.347   1.427   8.291 -0.0430  0.8002  1.3251
  392MOL0     H54063   6.374   1.331   8.434 -1.5540 -0.5090 -0.2393
  392MOL0     H54064   6.489   1.262   8.164  0.2968 -3.1155  1.4599
  392MOL0     H54065   6.560   1.198   8.313  0.0479  0.3012 -0.0954
  392MOL0     H54066   6.592   1.435   8.396 -0.4890 -0.3053  0.1931
  392MOL0     H54067   6.585   1.487   8.236 -2.2925 -0.4120 -0.2316
  392MOL0     H54068   6.790   1.272   8.347 -0.6437  0.4816  0.5769
  392MOL0     H54069   6.784   1.324   8.175 -3.7400  0.2293  0.0033
  392MOL0     H54070   6.831   1.514   8.413 -0.8869 -0.1061 -0.1492
  392MOL0     H54071   6.802   1.560   8.241 -0.2914 -0.4177  0.0437
  392MOL0     H54072   7.043   1.570   8.307  2.7542 -1.8166 -1.6849
  392MOL0     H54073   7.012   1.479   8.171 -0.2742  2.1176 -0.5029
  392MOL0     H54074   7.032   1.267   8.286 -1.6836  1.6201 -1.2006
  392MOL0     H54075   7.034   1.346   8.452  0.2051  1.1261 -0.2192
  392MOL0     H54076   5.932   1.373   8.452 -1.5673  0.2896  0.9345
  392MOL0     H54077   5.702   1.305   8.417 -0.0830  1.0165 -0.8709
  392MOL0     H54078   5.427   0.997   8.093 -0.6418 -1.4604  0.4149
  392MOL0     H54079   5.239   0.895   8.075 -0.5379  1.1840 -1.5059
  392MOL0     H54080   3.281   0.739   7.723 -0.3331 -0.3290  0.5878
  392MOL0     H54081   3.111   0.614   7.843  0.6887 -0.3857  0.4148
  392MOL0     H54082   3.069   0.456   8.334  1.1197 -1.7698  2.2229
  392MOL0     H54083   2.990   0.272   8.464  3.2349  0.6017 -2.0135
  392MOL0     H54084   2.909   0.071   8.544  0.1842 -3.6941  0.6620
  392MOL0     H54085   2.746   0.129   8.609  0.1569 -0.6354 -0.2683
  392MOL0     H54086   2.657  -0.093   8.552  0.6005 -1.6225  0.4847
  392MOL0     H54087   2.802  -0.117   8.640  4.0179 -0.5041 -2.1515
  392MOL0     H54088   2.933  -0.191   8.445  0.4673 -0.9741  0.6692
  392MOL0     H54089   2.780  -0.288   8.445  1.5411 -1.3828 -1.0091
  392MOL0     H54090   2.889  -0.095   8.242  0.2030 -1.9139 -0.2460
  392MOL0     H54091   2.711  -0.099   8.268 -2.6314 -3.1190  0.9168
  392MOL0     H54092   2.850  -0.478   8.116  3.0141 -0.2624  2.4202
  392MOL0     H54093   2.664   0.214   8.190  0.0451  0.8239 -3.5196
  392MOL0     H54094   2.661   0.338   7.971  1.6694 -1.3027  1.2146
  392MOL0     H54095   2.707   0.503   8.026  0.6140  0.8628 -1.3349
  392MOL0     H54096   2.812   0.413   7.911  0.2618 -1.2459 -1.3446
  393MOL0     O54097   9.431   5.023   2.253  0.4907 -0.5831 -0.0921
  393MOL0     C54098   9.346   5.063   2.173 -0.1930  0.4021  0.1316
  393MOL0     O54099   9.316   5.192   2.157  0.0926 -0.0629 -0.0054
  393MOL0     C54100   9.381   5.295   2.223 -0.1896 -0.8742  0.1484
  393MOL0     C54101   9.515   5.297   2.258  0.1092 -0.8469 -0.2152
  393MOL0     C54102   9.574   5.408   2.330 -0.5774 -0.9502 -0.2316
  393MOL0     C54103   9.498   5.517   2.368 -1.0398 -0.2241  0.1473
  393MOL0     O54104   9.552   5.628   2.420 -0.5369  0.8035  0.4594
  393MOL0     C54105   9.550   5.616   2.563  0.5863 -0.9021 -0.5771
  393MOL0     C54106   9.668   5.703   2.608 -0.9644  0.3891  1.4167
  393MOL0     C54107   9.799   5.624   2.598  0.0961  0.2762 -0.2542
  393MOL0     C54108   9.907   5.708   2.657  0.2929  0.1965  0.8783
  393MOL0     C54109  10.046   5.642   2.682 -0.3835 -0.1804 -0.4907
  393MOL0     C54110  10.136   5.646   2.551  0.4410 -1.2642  0.6640
  393MOL0     C54111  10.289   5.642   2.575  0.0149 -0.1566 -0.3252
  393MOL0     C54112  10.351   5.647   2.433 -0.4204 -0.0971  0.3133
  393MOL0     N54113  10.499   5.640   2.445 -0.4450 -0.3798  0.0320
  393MOL0     C54114  10.584   5.646   2.341  0.8271 -0.1074  0.1582
  393MOL0     C54115  10.690   5.692   2.398 -0.7697  0.4465 -0.4846
  393MOL0     C54116  10.818   5.718   2.316 -0.0270  0.9439  0.8711
  393MOL0     C54117  10.817   5.860   2.261  0.6218  0.7340  1.1408
  393MOL0     C54118  10.851   5.958   2.375 -0.2377  0.0193  0.2251
  393MOL0     C54119  10.820   6.104   2.332 -0.4270  0.5307 -0.4039
  393MOL0     O54120  10.706   6.129   2.251 -0.6431 -0.5915 -0.3914
  393MOL0     C54121  10.579   6.116   2.293 -0.5765  0.5547  0.3079
  393MOL0     C54122  10.535   6.078   2.423  0.4463 -0.1400 -1.3867
  393MOL0     C54123  10.401   6.063   2.458  0.6312  0.0953  0.2820
  393MOL0     C54124  10.377   6.003   2.598  0.1183 -0.4326  0.5442
  393MOL0     C54125  10.299   6.090   2.363  0.2018  0.5434 -0.1154
  393MOL0     C54126  10.158   6.080   2.392  0.9077 -0.6033  0.7975
  393MOL0     O54127  10.069   6.054   2.290 -0.3997 -0.9784 -0.5071
  393MOL0     C54128   9.935   6.041   2.322  0.1659 -0.0827  0.0182
  393MOL0     C54129   9.850   6.141   2.373 -0.0850 -0.2559 -0.2976
  393MOL0     C54130   9.711   6.124   2.389 -0.0590 -0.8165  0.3954
  393MOL0     C54131   9.652   6.002   2.349  0.0355 -0.0792 -0.4062
  393MOL0     O54132   9.509   5.978   2.351 -0.4950 -0.0629 -0.3645
  393MOL0     C54133   9.437   6.088   2.408 -0.2187 -0.1863 -0.9017
  393MOL0     C54134   9.288   6.058   2.439 -0.8507  0.4566 -0.6387
  393MOL0     C54135   9.282   5.933   2.528  0.3313  0.4485  0.1887
  393MOL0     C54136   9.312   5.960   2.677 -0.0936 -0.2673  0.2004
  393MOL0     C54137   9.204   5.911   2.768  0.6300  0.5954 -0.2656
  393MOL0     C54138   9.229   5.942   2.921 -0.1368  0.2960  0.9494
  393MOL0     C54139   9.119   5.873   3.010 -0.2957 -0.3965  0.3666
  393MOL0     C54140   9.132   5.900   3.175  0.4548  1.1601  0.3984
  393MOL0    Cl54141   8.985   5.831   3.253  0.3896 -0.2667  0.2142
  393MOL0     C54142   9.735   5.899   2.301  0.1746 -0.5102 -0.2633
  393MOL0     C54143   9.876   5.921   2.292 -0.1376  0.1151  0.2143
  393MOL0     O54144  10.127   6.094   2.513 -0.1130 -0.5055  0.1633
  393MOL0     C54145  10.336   6.135   2.245 -0.6080  0.1060  0.1971
  393MOL0     C54146  10.471   6.152   2.205 -0.0134  0.3715 -0.4847
  393MOL0     N54147  10.686   5.690   2.540  0.4074 -0.1751 -0.2059
  393MOL0     N54148  10.563   5.653   2.562 -0.1437 -0.2884 -0.2463
  393MOL0     C54149   9.363   5.513   2.342  0.2921  1.3302  0.1939
  393MOL0     C54150   9.309   5.409   2.261 -0.2048 -0.2819  0.4765
  393MOL0     C54151   9.254   4.955   2.110 -0.0007  0.4742  0.6405
  393MOL0     C54152   9.134   4.996   2.037 -0.2653  0.0306  0.6209
  393MOL0     C54153   9.050   4.908   1.966 -1.4178 -0.0411 -0.6753
  393MOL0     C54154   9.071   4.770   1.986  0.2898 -1.1023  1.1171
  393MOL0     O54155   8.976   4.683   1.946  0.0127  0.1726 -0.2377
  393MOL0     C54156   9.004   4.543   1.957 -0.4263  0.0391 -0.3409
  393MOL0     C54157   8.881   4.477   1.898 -0.8664  0.2433  0.2514
  393MOL0     C54158   8.884   4.316   1.909  0.9548  0.1342  0.5608
  393MOL0     C54159   8.743   4.268   1.868  0.1671 -0.4371  0.2691
  393MOL0     C54160   8.739   4.128   1.903  0.2952  0.2630 -0.9531
  393MOL0     C54161   8.726   4.010   1.933 -0.1386 -0.0114 -0.3945
  393MOL0     C54162   9.181   4.728   2.052 -0.5831  0.0442 -0.5901
  393MOL0     C54163   9.270   4.815   2.118  0.2953 -1.3005 -0.3098
  393MOL0     C54164   9.384   4.748   2.197  2.0366 -0.6077  0.8935
  393MOL0     H54165   9.576   5.208   2.242  0.5015 -1.1130  2.2949
  393MOL0     H54166   9.678   5.405   2.363 -0.6198 -1.1029 -0.1105
  393MOL0     H54167   9.566   5.519   2.610 -0.1280 -0.2972  0.9756
  393MOL0     H54168   9.453   5.645   2.602  0.2987 -1.2931 -0.9885
  393MOL0     H54169   9.670   5.794   2.548 -0.5875 -1.3116 -1.3385
  393MOL0     H54170   9.650   5.731   2.712 -2.7116  0.4672  1.1155
  393MOL0     H54171   9.791   5.528   2.649 -0.2161  0.0777 -0.6744
  393MOL0     H54172   9.827   5.603   2.494  3.6464  1.4312  0.3365
  393MOL0     H54173   9.922   5.792   2.588  0.3968  0.3949  1.1380
  393MOL0     H54174   9.865   5.745   2.751  0.4872  0.0939  1.0072
  393MOL0     H54175  10.040   5.538   2.715  1.8368 -0.1145  0.3040
  393MOL0     H54176  10.100   5.692   2.763 -0.3515 -0.9227 -0.0477
  393MOL0     H54177  10.090   5.578   2.479 -1.9229 -0.1441  1.0203
  393MOL0     H54178  10.120   5.748   2.516  0.7551 -0.8426  1.7026
  393MOL0     H54179  10.318   5.547   2.621 -2.2717 -0.2789  1.0617
  393MOL0     H54180  10.332   5.711   2.648 -3.4004 -0.1304  1.9204
  393MOL0     H54181  10.319   5.570   2.362  2.7002  0.1925 -1.5704
  393MOL0     H54182  10.319   5.738   2.382 -1.1329 -0.6982 -0.3373
  393MOL0     H54183  10.557   5.623   2.239 -3.0008  2.1478  0.5057
  393MOL0     H54184  10.822   5.650   2.230  0.9135 -1.1766  2.5011
  393MOL0     H54185  10.908   5.696   2.374 -0.6246 -1.7328  0.9411
  393MOL0     H54186  10.883   5.883   2.177  0.3570  1.2712  1.0776
  393MOL0     H54187  10.712   5.875   2.234  0.1135 -2.2325  1.0931
  393MOL0     H54188  10.799   5.936   2.469  0.0150  0.3392  0.4447
  393MOL0     H54189  10.954   5.951   2.410 -0.7205 -0.1046  1.7134
  393MOL0     H54190  10.823   6.170   2.419 -1.9813 -1.0946  0.9620
  393MOL0     H54191  10.900   6.135   2.265 -0.6338 -0.0090 -0.9117
  393MOL0     H54192  10.607   6.062   2.503 -0.9323 -0.0155 -0.0648
  393MOL0     H54193  10.458   5.939   2.634 -1.6578 -2.4034  1.2268
  393MOL0     H54194  10.290   5.937   2.595 -0.7729  0.6709  1.4849
  393MOL0     H54195  10.358   6.072   2.680  0.5123  2.6084 -1.7197
  393MOL0     H54196   9.887   6.235   2.412  0.2993 -1.2633  1.8848
  393MOL0     H54197   9.653   6.214   2.406  0.1343  0.0266 -2.7026
  393MOL0     H54198   9.483   6.109   2.505 -2.9578 -2.8601  1.1863
  393MOL0     H54199   9.437   6.173   2.340 -1.4007  0.3722 -0.2451
  393MOL0     H54200   9.257   6.152   2.485  0.3124  0.6499 -0.2054
  393MOL0     H54201   9.223   6.041   2.353 -1.9526  0.1770  0.2337
  393MOL0     H54202   9.338   5.849   2.485  0.7555  1.1433 -0.6476
  393MOL0     H54203   9.174   5.915   2.518  0.4103  0.5251 -0.9693
  393MOL0     H54204   9.341   6.063   2.699  2.0925 -0.8056 -0.0201
  393MOL0     H54205   9.405   5.905   2.687  0.3104  0.0096 -1.6518
  393MOL0     H54206   9.107   5.951   2.736  0.4176  1.1007  0.9365
  393MOL0     H54207   9.209   5.803   2.754  1.7870 -0.0237  3.7718
  393MOL0     H54208   9.223   6.050   2.941 -2.0808  0.0361  2.0516
  393MOL0     H54209   9.322   5.890   2.946  0.2012  0.5190  0.1776
  393MOL0     H54210   9.125   5.768   2.982  0.2914 -0.5236  0.9389
  393MOL0     H54211   9.030   5.923   2.970  0.7723  0.9349 -0.4472
  393MOL0     H54212   9.111   6.005   3.194  1.3260  1.3780  0.2040
  393MOL0     H54213   9.226   5.876   3.227  0.5585  0.2202 -0.1897
  393MOL0     H54214   9.691   5.804   2.273  0.7269 -0.7096 -0.4806
  393MOL0     H54215   9.947   5.844   2.260 -0.0776  1.1282 -2.3480
  393MOL0     H54216  10.258   6.163   2.175  0.1680  0.8701 -0.3898
  393MOL0     H54217  10.490   6.190   2.105  2.9171  0.3591  0.0057
  393MOL0     H54218   9.299   5.596   2.370 -0.5850  1.4766 -2.0968
  393MOL0     H54219   9.203   5.414   2.234  0.4262 -1.3530 -2.5813
  393MOL0     H54220   9.110   5.102   2.027 -2.7978 -0.2129  3.1115
  393MOL0     H54221   8.958   4.933   1.915 -0.5878  1.0910 -1.6489
  393MOL0     H54222   9.100   4.515   1.914  1.3518  3.0830  1.3093
  393MOL0     H54223   9.004   4.521   2.064  1.5161 -2.0302 -0.6961
  393MOL0     H54224   8.868   4.520   1.798 -1.8170 -1.3572 -0.3544
  393MOL0     H54225   8.794   4.511   1.955 -0.5203 -1.8985  2.2091
  393MOL0     H54226   8.964   4.279   1.844  0.5770  0.2793  0.0071
  393MOL0     H54227   8.906   4.275   2.008 -2.7325  0.4209  1.6119
  393MOL0     H54228   8.719   4.279   1.762 -2.9176  0.2906  0.9264
  393MOL0     H54229   8.666   4.322   1.926  2.2726  2.3822  0.6835
  393MOL0     H54230   8.701   3.907   1.950 -1.8350 -0.0428 -2.6061
  393MOL0     H54231   9.193   4.623   2.075 -1.4879 -0.4672 -2.2627
  393MOL0     H54232   9.397   4.642   2.169 -1.2877 -0.6465 -1.0641
  393MOL0     H54233   9.483   4.789   2.174  0.8722  2.2484  0.6196
  393MOL0     H54234   9.362   4.740   2.303  1.1326 -0.7942  0.7048
  394MOL0     O54235  10.907   7.963   5.575 -0.0464 -0.3962  0.6238
  394MOL0     C54236  10.794   7.991   5.604  0.1281 -0.4303  0.0192
  394MOL0     O54237  10.765   8.091   5.694  0.2362  0.0284 -0.2853
  394MOL0     C54238  10.869   8.166   5.739 -0.1560  0.2177 -0.0398
  394MOL0     C54239  10.979   8.104   5.801  0.2814 -0.2367 -0.2451
  394MOL0     C54240  11.083   8.184   5.847 -0.5897  0.4596  0.5892
  394MOL0     C54241  11.094   8.318   5.815  0.7298 -0.1312  0.8949
  394MOL0     O54242  11.206   8.395   5.833 -0.3768 -0.0200  0.2400
  394MOL0     C54243  11.297   8.340   5.924 -0.4380 -0.7329 -0.5960
  394MOL0     C54244  11.391   8.458   5.957 -0.4587  0.1121  0.5288
  394MOL0     C54245  11.423   8.464   6.107 -0.2341 -0.0480 -0.3048
  394MOL0     C54246  11.477   8.599   6.146 -0.6948 -0.9724 -0.4442
  394MOL0     C54247  11.549   8.580   6.282  0.5470  0.1582 -0.2668
  394MOL0     C54248  11.592   8.703   6.338 -0.6144  0.4617 -0.9128
  394MOL0     C54249  11.691   8.788   6.248 -0.2046 -0.4017 -0.0877
  394MOL0     C54250  11.836   8.738   6.244 -0.2838 -0.6347  0.7116
  394MOL0     N54251  11.922   8.854   6.204  0.3858  0.1205 -0.0970
  394MOL0     C54252  11.930   8.904   6.075  0.9048 -0.5657  0.5518
  394MOL0     C54253  11.999   9.021   6.102  0.1861 -0.5150 -0.0271
  394MOL0     C54254  12.049   9.121   5.997  0.2317 -0.4523  0.4983
  394MOL0     C54255  12.164   9.074   5.906 -0.5131 -0.4841 -0.4022
  394MOL0     C54256  12.274   9.172   5.908 -1.4487 -0.6720  0.1080
  394MOL0     C54257  12.250   9.307   5.848  1.1146 -0.4554  0.1848
  394MOL0     O54258  12.232   9.292   5.706  0.0303  0.3644  0.4037
  394MOL0     C54259  12.214   9.405   5.625  0.0423 -0.2815 -0.3181
  394MOL0     C54260  12.149   9.391   5.506 -0.8717 -0.3535 -0.1201
  394MOL0     C54261  12.131   9.501   5.420 -0.0262  0.0970 -0.8940
  394MOL0     C54262  12.058   9.479   5.293 -0.7013 -0.3334  0.1725
  394MOL0     C54263  12.169   9.627   5.459  0.5824 -0.6179 -0.4383
  394MOL0     C54264  12.139   9.755   5.388 -0.6816  0.9377  0.0306
  394MOL0     O54265  12.241   9.843   5.368  0.5490 -0.2095 -0.0984
  394MOL0     C54266  12.214   9.980   5.360  0.6637  0.7280 -0.1903
  394MOL0     C54267  12.101  10.053   5.407 -0.1748  0.7983  0.2971
  394MOL0     C54268  12.084  10.187   5.383  0.2462  0.3635 -0.1257
  394MOL0     C54269  12.185  10.256   5.324  0.4123 -0.1679  1.4555
  394MOL0     O54270  12.184  10.393   5.306 -0.1294  0.7263 -0.3917
  394MOL0     C54271  12.116  10.483   5.400 -0.5300  0.4557 -0.2888
  394MOL0     C54272  12.171  10.503   5.546  0.0052  0.0032  0.3634
  394MOL0     C54273  12.276  10.608   5.552 -0.9853  0.6688 -0.4537
  394MOL0     C54274  12.401  10.572   5.624 -0.0708  0.6182 -0.7121
  394MOL0     C54275  12.382  10.563   5.773  0.0365 -0.2436  0.0379
  394MOL0     C54276  12.380  10.694   5.851 -0.0752 -0.7442  0.0863
  394MOL0     C54277  12.344  10.666   5.997 -0.2539 -0.5046 -0.6071
  394MOL0     C54278  12.465  10.607   6.066 -0.4212  0.2621 -0.5935
  394MOL0    Cl54279  12.451  10.630   6.244  0.0939  0.3747 -0.1876
  394MOL0     C54280  12.299  10.194   5.278 -0.8120 -0.1502  0.0516
  394MOL0     C54281  12.318  10.056   5.295  0.4345 -0.6497  0.0481
  394MOL0     O54282  12.022   9.771   5.343 -0.7741 -0.0184 -0.3214
  394MOL0     C54283  12.253   9.636   5.576  0.3161 -0.2982 -0.0517
  394MOL0     C54284  12.278   9.532   5.657 -0.2999  1.4172  0.0187
  394MOL0     N54285  12.023   9.042   6.239  0.8168 -0.4282  0.0540
  394MOL0     N54286  11.984   8.931   6.298  0.4790 -0.6974  0.3814
  394MOL0     C54287  10.982   8.375   5.743  0.6826 -1.1735 -0.2720
  394MOL0     C54288  10.872   8.298   5.704 -0.3577 -0.2304 -0.7934
  394MOL0     C54289  10.681   7.927   5.536  0.6580  0.1650 -1.1523
  394MOL0     C54290  10.559   7.935   5.599  0.9756 -0.3625 -0.0455
  394MOL0     C54291  10.448   7.865   5.558  0.1370 -0.0522 -0.0618
  394MOL0     C54292  10.463   7.771   5.458  0.2767 -0.0266  0.9831
  394MOL0     O54293  10.379   7.669   5.406 -0.1608 -0.1459  0.0104
  394MOL0     C54294  10.250   7.668   5.471 -0.2203 -0.8214 -0.5211
  394MOL0     C54295  10.148   7.739   5.379 -0.1547  0.0277 -0.1140
  394MOL0     C54296  10.002   7.720   5.436  0.5461  0.1877 -0.0804
  394MOL0     C54297   9.893   7.742   5.327  0.1256  0.5738  0.2533
  394MOL0     C54298   9.926   7.870   5.258 -0.3253  0.2069 -0.4019
  394MOL0     C54299   9.938   7.979   5.201  0.0505 -0.3460  0.0521
  394MOL0     C54300  10.588   7.751   5.397 -0.0902  0.2140  0.0346
  394MOL0     C54301  10.692   7.832   5.431 -0.9623  0.1699 -0.3867
  394MOL0     C54302  10.825   7.812   5.356 -0.0322 -0.5213 -0.4056
  394MOL0     H54303  10.982   7.997   5.820  0.2944 -0.0237  1.0619
  394MOL0     H54304  11.174   8.143   5.888 -0.0708 -1.0509 -1.8895
  394MOL0     H54305  11.362   8.259   5.888  2.7829  1.6296 -0.4854
  394MOL0     H54306  11.245   8.305   6.013  1.5896 -1.0862  0.5031
  394MOL0     H54307  11.480   8.447   5.894 -1.6001  1.4068 -1.4182
  394MOL0     H54308  11.349   8.552   5.919 -1.7008 -0.5108  0.3135
  394MOL0     H54309  11.328   8.455   6.160 -1.0691 -1.6047 -1.9762
  394MOL0     H54310  11.493   8.383   6.130  3.7925  2.2081 -3.2093
  394MOL0     H54311  11.546   8.623   6.065  0.7435 -3.2222 -0.0015
  394MOL0     H54312  11.404   8.680   6.143  0.1810 -0.1940 -1.8416
  394MOL0     H54313  11.640   8.521   6.279  0.6690  0.2953  0.5477
  394MOL0     H54314  11.482   8.528   6.351  2.0784 -0.6382  0.6537
  394MOL0     H54315  11.497   8.757   6.349  0.4974  2.5064 -0.8693
  394MOL0     H54316  11.643   8.681   6.432  0.1725 -0.9818 -1.6471
  394MOL0     H54317  11.700   8.885   6.298  2.3556 -0.5249 -0.1422
  394MOL0     H54318  11.652   8.806   6.148 -1.5170 -1.7899  0.1522
  394MOL0     H54319  11.858   8.699   6.344 -5.3484 -1.8463  1.6289
  394MOL0     H54320  11.863   8.660   6.172  3.5721  1.6713 -0.6145
  394MOL0     H54321  11.889   8.868   5.981 -0.3308  1.0546  0.4248
  394MOL0     H54322  12.082   9.205   6.059  1.9595 -0.4025 -0.4081
  394MOL0     H54323  11.972   9.144   5.923  0.8895 -2.3206 -0.8524
  394MOL0     H54324  12.215   8.982   5.936  2.2623  0.9892 -0.2956
  394MOL0     H54325  12.128   9.051   5.806  1.3188 -0.8912 -1.0120
  394MOL0     H54326  12.328   9.179   6.003  1.9035 -0.3425 -1.6510
  394MOL0     H54327  12.358   9.125   5.854 -0.7317 -0.5419  1.0896
  394MOL0     H54328  12.157   9.347   5.889  1.2137 -0.6063  0.5570
  394MOL0     H54329  12.335   9.369   5.877  1.8261 -0.4979 -1.6527
  394MOL0     H54330  12.107   9.293   5.483 -1.1747 -0.5129  1.0464
  394MOL0     H54331  12.116   9.517   5.209  1.8012 -3.0993  0.5052
  394MOL0     H54332  11.967   9.539   5.301  1.0257  2.3024  1.6246
  394MOL0     H54333  12.046   9.373   5.271 -2.2274  0.0477 -0.9783
  394MOL0     H54334  12.022  10.000   5.460 -0.3886  0.5504 -0.2619
  394MOL0     H54335  11.997  10.233   5.430 -0.1065 -1.7737  1.4833
  394MOL0     H54336  12.117  10.584   5.356  0.1505  0.2106 -0.8654
  394MOL0     H54337  12.010  10.457   5.403 -0.4765  0.3581  1.0836
  394MOL0     H54338  12.088  10.541   5.606  0.8545  2.1998  0.2614
  394MOL0     H54339  12.207  10.406   5.583 -1.6235 -0.2097  1.4958
  394MOL0     H54340  12.230  10.696   5.600 -0.7620 -0.4312  1.9465
  394MOL0     H54341  12.306  10.634   5.450 -0.8218  0.7478 -0.3865
  394MOL0     H54342  12.480  10.644   5.602  0.2292  1.1274  1.7575
  394MOL0     H54343  12.427  10.478   5.574 -3.3542  0.2596 -2.0039
  394MOL0     H54344  12.285  10.512   5.783  0.3995 -1.7986 -3.0103
  394MOL0     H54345  12.459  10.499   5.818 -0.6659 -1.0988  0.0671
  394MOL0     H54346  12.300  10.766   5.830  1.9531  1.1263 -1.8245
  394MOL0     H54347  12.474  10.748   5.837 -0.1131 -0.8890 -0.7642
  394MOL0     H54348  12.249  10.616   6.014 -0.7463  0.9843  1.3243
  394MOL0     H54349  12.332  10.767   6.037 -0.9165 -0.5392 -0.7107
  394MOL0     H54350  12.554  10.664   6.038 -0.0902  0.6460  1.1286
  394MOL0     H54351  12.469  10.502   6.034  3.2335  0.1324 -0.2250
  394MOL0     H54352  12.377  10.256   5.235 -1.1298  3.0399  3.5390
  394MOL0     H54353  12.411  10.011   5.262  0.7177  0.5882 -0.9411
  394MOL0     H54354  12.307   9.728   5.597  0.7935 -0.0802 -2.0742
  394MOL0     H54355  12.332   9.537   5.750 -0.2944 -1.6535  0.2846
  394MOL0     H54356  10.995   8.480   5.717  1.1184 -0.5500  2.2148
  394MOL0     H54357  10.791   8.342   5.646 -1.4000 -0.5796  0.3535
  394MOL0     H54358  10.555   7.995   5.690 -0.9127  1.4276 -1.2220
  394MOL0     H54359  10.351   7.883   5.602 -1.3471 -1.1042 -2.6858
  394MOL0     H54360  10.216   7.568   5.500 -0.1563 -0.0650  2.4920
  394MOL0     H54361  10.235   7.709   5.572 -2.2441 -2.7851  0.0642
  394MOL0     H54362  10.154   7.714   5.273 -3.1660  2.1915 -0.9220
  394MOL0     H54363  10.164   7.847   5.388  0.2483 -0.0088 -0.3787
  394MOL0     H54364   9.992   7.614   5.461 -0.6667 -0.4448 -2.9076
  394MOL0     H54365   9.992   7.786   5.522  2.5695  1.3343 -0.6386
  394MOL0     H54366   9.794   7.756   5.371 -0.3611  0.5418 -0.8062
  394MOL0     H54367   9.892   7.661   5.254  0.8985  1.7581 -1.1389
  394MOL0     H54368   9.946   8.074   5.153 -2.7472  1.2847  2.4819
  394MOL0     H54369  10.599   7.672   5.323  0.7847  0.5723 -0.2403
  394MOL0     H54370  10.863   7.914   5.346 -0.8937 -0.2504 -1.0733
  394MOL0     H54371  10.885   7.749   5.422 -0.0295 -0.3486 -0.2411
  394MOL0     H54372  10.814   7.763   5.259 -0.6191 -2.2125  0.4787
  395MOL0     O54373   8.880   1.866  10.899  0.0769 -0.1498  0.3547
  395MOL0     C54374   8.823   1.783  10.968  0.2222 -0.9526  0.1936
  395MOL0     O54375   8.877   1.711  11.075 -0.5929  0.2430  0.7008
  395MOL0     C54376   9.003   1.730  11.122  0.1906 -0.3496  0.7956
  395MOL0     C54377   9.036   1.722  11.261 -0.0090 -0.7746 -0.4702
  395MOL0     C54378   9.165   1.745  11.309  0.2433  0.6137  1.1013
  395MOL0     C54379   9.263   1.797  11.225  0.4505 -0.5479  0.7871
  395MOL0     O54380   9.386   1.819  11.275 -0.0951  0.0949 -0.3484
  395MOL0     C54381   9.506   1.789  11.208 -0.0333  0.7066 -0.3965
  395MOL0     C54382   9.612   1.754  11.312  0.1351  0.2822 -0.6478
  395MOL0     C54383   9.752   1.749  11.254  0.0752 -0.6842 -1.3218
  395MOL0     C54384   9.768   1.637  11.153 -0.4944 -0.2825  0.8324
  395MOL0     C54385   9.906   1.633  11.080  0.1453  0.1563  0.0608
  395MOL0     C54386  10.033   1.635  11.174  0.1431 -0.5947  0.0779
  395MOL0     C54387  10.154   1.621  11.092  0.2884 -0.0586  0.9443
  395MOL0     C54388  10.279   1.599  11.169 -0.6858 -0.6791 -0.1930
  395MOL0     N54389  10.387   1.544  11.083 -0.0151  0.0904  0.1034
  395MOL0     C54390  10.405   1.410  11.053  0.0563  0.3422  0.4206
  395MOL0     C54391  10.515   1.414  10.969  0.2297 -0.1617 -0.4259
  395MOL0     C54392  10.560   1.287  10.898 -0.2647 -0.5582  0.8296
  395MOL0     C54393  10.704   1.231  10.922 -0.2354 -0.5702 -0.3500
  395MOL0     C54394  10.815   1.327  10.869 -0.1971 -0.4868  0.2135
  395MOL0     C54395  10.954   1.273  10.894 -0.0953  0.0199 -0.4305
  395MOL0     O54396  11.037   1.345  10.796 -0.4489 -0.2271  0.5075
  395MOL0     C54397  11.172   1.314  10.788  0.3588 -0.7465  0.4626
  395MOL0     C54398  11.239   1.238  10.874  0.1919  0.4470  0.3864
  395MOL0     C54399  11.371   1.199  10.853  0.2039 -0.0820  0.0361
  395MOL0     C54400  11.451   1.114  10.949 -0.0756 -0.1189  0.9871
  395MOL0     C54401  11.439   1.245  10.735  0.7643  0.4859  0.8209
  395MOL0     C54402  11.580   1.211  10.680  0.5877 -0.3521  0.2927
  395MOL0     O54403  11.594   1.220  10.542 -0.0185 -0.3898 -0.3824
  395MOL0     C54404  11.709   1.205  10.476 -0.8551  0.5246 -0.8739
  395MOL0     C54405  11.704   1.183  10.341  0.3555  0.5437  0.5421
  395MOL0     C54406  11.817   1.183  10.257 -0.8631  0.3309  0.5099
  395MOL0     C54407  11.949   1.187  10.312  0.3504 -0.4673 -0.3615
  395MOL0     O54408  12.067   1.182  10.245 -0.0088  0.4650  0.1915
  395MOL0     C54409  12.069   1.121  10.114  0.4312 -0.0172  0.0166
  395MOL0     C54410  12.213   1.155  10.062 -0.5462  0.8884  0.1882
  395MOL0     C54411  12.319   1.080  10.130  0.3449 -0.4613 -0.1323
  395MOL0     C54412  12.464   1.092  10.071  0.2204  0.2394 -0.3407
  395MOL0     C54413  12.584   1.043  10.166  0.1020 -0.3057 -0.4975
  395MOL0     C54414  12.704   1.038  10.078 -0.1754 -0.2696 -0.4721
  395MOL0     C54415  12.816   0.965  10.160  0.0637  0.1421  0.1988
  395MOL0     C54416  12.940   0.960  10.074  0.0144  0.4924 -0.3227
  395MOL0    Cl54417  13.017   1.117  10.064  0.2183 -0.0016  0.2319
  395MOL0     C54418  11.953   1.205  10.449 -0.3200 -0.5664 -0.0151
  395MOL0     C54419  11.838   1.215  10.531  0.0306 -0.4086 -0.3578
  395MOL0     O54420  11.663   1.163  10.758 -0.1884  0.7591  0.6140
  395MOL0     C54421  11.356   1.327  10.646  0.3568  0.0522  0.3548
  395MOL0     C54422  11.228   1.362  10.677 -0.1506 -0.4288  0.1709
  395MOL0     N54423  10.578   1.539  10.968 -0.0395  0.2340 -0.9899
  395MOL0     N54424  10.489   1.615  11.033 -0.1007 -0.3124  0.3857
  395MOL0     C54425   9.230   1.808  11.091  0.2849 -1.0829 -0.2727
  395MOL0     C54426   9.111   1.765  11.038 -0.0930  0.2661  0.3437
  395MOL0     C54427   8.675   1.774  10.956 -0.0103  0.1573 -0.4519
  395MOL0     C54428   8.597   1.738  11.059  0.0382  0.2773 -0.0761
  395MOL0     C54429   8.459   1.728  11.054  0.5778  0.4837  0.7109
  395MOL0     C54430   8.383   1.769  10.938 -0.6411 -0.7365 -0.4136
  395MOL0     O54431   8.243   1.772  10.936 -0.4579 -0.2894  0.7682
  395MOL0     C54432   8.182   1.645  10.919  0.2224 -0.9615 -0.6053
  395MOL0     C54433   8.029   1.658  10.905 -0.1303 -0.0922  0.5617
  395MOL0     C54434   7.960   1.533  10.944  0.0223 -0.0087  0.1090
  395MOL0     C54435   7.985   1.420  10.854  0.5885 -0.4818  0.5993
  395MOL0     C54436   7.887   1.319  10.890 -0.0764 -0.5234 -0.4215
  395MOL0     C54437   7.816   1.223  10.910 -0.7093  0.0189  0.1481
  395MOL0     C54438   8.460   1.829  10.847 -0.5630 -0.8436 -0.2216
  395MOL0     C54439   8.602   1.829  10.841 -1.5596 -0.0350  0.1242
  395MOL0     C54440   8.672   1.871  10.714  0.4839  0.4153  0.1505
  395MOL0     H54441   8.965   1.694  11.339  0.9675  1.2623  1.2500
  395MOL0     H54442   9.184   1.728  11.415  1.2892  1.8605  1.1465
  395MOL0     H54443   9.541   1.880  11.157  1.9829  0.2323  0.0441
  395MOL0     H54444   9.486   1.714  11.131  0.5297 -0.5398  0.6191
  395MOL0     H54445   9.605   1.842  11.376 -0.3804  1.0435 -1.7321
  395MOL0     H54446   9.581   1.662  11.362 -2.7320  0.6487 -1.5736
  395MOL0     H54447   9.764   1.850  11.214 -0.0312 -0.5547 -1.0232
  395MOL0     H54448   9.816   1.726  11.339 -0.4882  1.8012 -0.1550
  395MOL0     H54449   9.752   1.541  11.203  0.9065 -2.1216 -1.9745
  395MOL0     H54450   9.691   1.650  11.076  1.5224  1.2843 -1.0174
  395MOL0     H54451   9.895   1.713  11.006  1.8230 -1.1063 -1.6359
  395MOL0     H54452   9.908   1.549  11.011  2.0114  1.5135 -1.6407
  395MOL0     H54453  10.039   1.734  11.220  0.1698 -1.0027  0.9746
  395MOL0     H54454  10.030   1.566  11.259 -3.8510 -1.0350 -0.2041
  395MOL0     H54455  10.163   1.713  11.034  0.0593 -1.2310 -1.0612
  395MOL0     H54456  10.147   1.533  11.026 -1.9919  0.6362  0.1704
  395MOL0     H54457  10.312   1.688  11.224 -1.4235 -0.5036 -0.0128
  395MOL0     H54458  10.243   1.525  11.241  1.4911  1.7380  3.7227
  395MOL0     H54459  10.355   1.318  11.082  3.2270 -1.3167  1.1099
  395MOL0     H54460  10.540   1.295  10.790 -0.1142  0.2737  0.8545
  395MOL0     H54461  10.487   1.210  10.926 -0.5459 -1.7859 -2.6700
  395MOL0     H54462  10.730   1.223  11.028  2.2172  0.1820 -0.8157
  395MOL0     H54463  10.709   1.127  10.889 -1.4974 -0.8751  0.3544
  395MOL0     H54464  10.804   1.338  10.760  1.0878  1.5974  0.2464
  395MOL0     H54465  10.814   1.426  10.914  0.9439 -0.3537 -0.0412
  395MOL0     H54466  10.978   1.302  10.997 -1.3811 -2.1681  0.5383
  395MOL0     H54467  10.961   1.165  10.881 -1.3279  0.1365 -2.5423
  395MOL0     H54468  11.186   1.190  10.956  0.5031 -0.7033 -0.0547
  395MOL0     H54469  11.382   1.060  11.015 -1.0677  2.3153  2.0441
  395MOL0     H54470  11.511   1.190  10.999 -2.8066  2.8709  0.0500
  395MOL0     H54471  11.512   1.033  10.908  0.2345  0.0705  1.0749
  395MOL0     H54472  11.603   1.194  10.302  0.3932  0.5074  0.4323
  395MOL0     H54473  11.810   1.183  10.148 -1.4980  0.1004  0.5478
  395MOL0     H54474  12.045   1.015  10.124  1.5828 -0.2725  0.1559
  395MOL0     H54475  11.993   1.174  10.055  1.0815  1.8587  0.7880
  395MOL0     H54476  12.228   1.141   9.954  0.8990  0.6826  0.3991
  395MOL0     H54477  12.225   1.264  10.073 -1.3664  1.3652 -2.6373
  395MOL0     H54478  12.289   0.976  10.135 -1.2282  0.0136  1.3386
  395MOL0     H54479  12.334   1.113  10.234 -0.9666  1.2086 -0.4237
  395MOL0     H54480  12.476   1.199  10.050 -2.4787  0.3613 -1.8664
  395MOL0     H54481  12.465   1.035   9.978  1.7245  0.5308 -0.5155
  395MOL0     H54482  12.598   1.101  10.258 -0.7993 -0.2241 -0.4034
  395MOL0     H54483  12.555   0.939  10.184 -2.8273  0.7576  1.8636
  395MOL0     H54484  12.731   1.141  10.051 -1.2307 -0.1690 -1.2330
  395MOL0     H54485  12.677   0.977   9.992 -0.1058  0.1948 -0.8302
  395MOL0     H54486  12.776   0.868  10.192 -0.9106  1.5649  3.8754
  395MOL0     H54487  12.835   1.026  10.249  0.2113 -1.0833  1.0232
  395MOL0     H54488  12.921   0.924   9.973  0.3653 -0.5845 -0.0235
  395MOL0     H54489  13.014   0.890  10.114  1.4266 -0.0157 -3.5417
  395MOL0     H54490  12.048   1.226  10.497  1.1760  0.1778 -3.0017
  395MOL0     H54491  11.850   1.223  10.639  0.1084 -0.9694 -0.3243
  395MOL0     H54492  11.400   1.363  10.554  0.1176 -0.7416 -0.0813
  395MOL0     H54493  11.165   1.429  10.620 -2.4063 -2.1824  0.4637
  395MOL0     H54494   9.303   1.824  11.013 -0.6879 -1.8156 -1.3691
  395MOL0     H54495   9.096   1.753  10.931  1.0873 -3.0942  0.4595
  395MOL0     H54496   8.639   1.712  11.156 -1.6562  1.2726  0.9786
  395MOL0     H54497   8.411   1.686  11.142 -4.6291  0.7559 -1.6495
  395MOL0     H54498   8.221   1.607  10.824 -0.0178  0.0188 -1.1105
  395MOL0     H54499   8.198   1.585  11.008 -2.6107 -1.0661 -0.0939
  395MOL0     H54500   8.005   1.670  10.798  0.1420 -0.4176  0.4603
  395MOL0     H54501   7.996   1.751  10.952  1.1629  1.8400 -2.0854
  395MOL0     H54502   7.985   1.504  11.046 -0.3352 -0.5156  0.0575
  395MOL0     H54503   7.855   1.563  10.943 -0.1866 -0.4113 -3.4843
  395MOL0     H54504   8.086   1.379  10.860  0.1389 -1.7976 -0.3705
  395MOL0     H54505   7.966   1.451  10.751 -0.0788  0.0480  0.8718
  395MOL0     H54506   7.761   1.132  10.916 -2.8359  1.2959  0.8580
  395MOL0     H54507   8.402   1.878  10.769  1.5683  0.4329 -1.1022
  395MOL0     H54508   8.743   1.793  10.685  1.7510  1.9832 -1.1574
  395MOL0     H54509   8.602   1.888  10.631  0.0863  0.4633  0.4906
  395MOL0     H54510   8.724   1.965  10.732 -0.0843  1.3544 -2.5902
  396MOL0     O54511   9.723  10.307  11.215  0.2713 -0.0635  0.5426
  396MOL0     C54512   9.782  10.205  11.191  0.0820  0.8305 -0.0441
  396MOL0     O54513   9.892  10.164  11.254 -0.3330 -0.0957 -0.2779
  396MOL0     C54514   9.951  10.240  11.351 -0.4928  0.3686  0.2843
  396MOL0     C54515  10.091  10.253  11.355  0.0154  0.2788  0.5744
  396MOL0     C54516  10.162  10.283  11.475 -0.2567  0.4415 -0.3271
  396MOL0     C54517  10.084  10.306  11.593 -0.1120 -0.2234 -1.0704
  396MOL0     O54518  10.129  10.365  11.715 -1.0630  0.2271  0.1811
  396MOL0     C54519  10.270  10.346  11.750 -0.1654 -0.5390 -0.3059
  396MOL0     C54520  10.299  10.395  11.895  0.1046 -1.2373  0.2215
  396MOL0     C54521  10.440  10.350  11.935 -0.6600 -0.0771 -0.9991
  396MOL0     C54522  10.471  10.423  12.068  0.1440  0.5174 -0.3999
  396MOL0     C54523  10.603  10.390  12.123 -0.0692 -0.0664  0.2923
  396MOL0     C54524  10.630  10.237  12.154 -0.0561 -0.4029  0.3858
  396MOL0     C54525  10.731  10.217  12.262 -0.4277 -0.7598  0.2991
  396MOL0     C54526  10.859  10.296  12.227 -0.3832 -0.1856  0.2737
  396MOL0     N54527  10.956  10.269  12.336  0.1241 -0.7748 -0.2663
  396MOL0     C54528  11.034  10.159  12.340 -0.5114  0.4125 -0.2903
  396MOL0     C54529  11.124  10.189  12.440  1.5497  0.2158  0.1839
  396MOL0     C54530  11.228  10.097  12.500  0.4139 -1.0138 -0.5428
  396MOL0     C54531  11.319  10.053  12.394 -0.1663 -0.4787 -0.0299
  396MOL0     C54532  11.267   9.924  12.321  0.2603  0.3248 -0.1230
  396MOL0     C54533  11.250   9.793  12.412 -0.1228 -0.1193 -0.6217
  396MOL0     O54534  11.361   9.767  12.488 -0.0478 -0.2387 -0.2023
  396MOL0     C54535  11.473   9.702  12.438  0.0719 -0.1525  0.1082
  396MOL0     C54536  11.578   9.674  12.529 -0.0703  0.0496  0.8343
  396MOL0     C54537  11.701   9.627  12.487 -0.8416  0.6385 -0.8210
  396MOL0     C54538  11.805   9.620  12.598  0.4861 -0.1482  0.6361
  396MOL0     C54539  11.727   9.609  12.350  0.0560  0.3493 -0.5644
  396MOL0     C54540  11.855   9.562  12.297 -0.2436 -0.2204 -0.8236
  396MOL0     O54541  11.941   9.489  12.386  0.4159  0.0021 -0.1113
  396MOL0     C54542  12.082   9.474  12.369 -0.0126 -0.1720 -0.6273
  396MOL0     C54543  12.141   9.381  12.451 -0.3712  1.0825  0.7736
  396MOL0     C54544  12.277   9.358  12.443  0.2269  0.1028  0.4073
  396MOL0     C54545  12.358   9.445  12.372 -0.6022 -0.0478 -0.7856
  396MOL0     O54546  12.501   9.426  12.384  0.5652 -0.4120 -0.3428
  396MOL0     C54547  12.598   9.518  12.327 -0.4493  0.3745 -0.0455
  396MOL0     C54548  12.732   9.465  12.365  0.3427  0.4622 -0.1124
  396MOL0     C54549  12.836   9.560  12.310  0.2670  0.7435 -0.6001
  396MOL0     C54550  12.971   9.539  12.383  0.0346 -0.1188  0.2336
  396MOL0     C54551  13.094   9.591  12.305 -0.3088 -0.3208 -0.0746
  396MOL0     C54552  13.227   9.608  12.380  0.5061 -0.2760 -0.8418
  396MOL0     C54553  13.338   9.673  12.289  0.1897 -0.5417  0.1428
  396MOL0     C54554  13.417   9.567  12.208  0.6524  0.5537  0.8081
  396MOL0    Cl54555  13.522   9.469  12.304 -0.1336 -0.0408  0.0569
  396MOL0     C54556  12.298   9.541  12.297  0.6556  0.3835  0.2056
  396MOL0     C54557  12.159   9.558  12.290  0.6287  1.0110 -0.1963
  396MOL0     O54558  11.883   9.596  12.181 -0.4382 -0.2655 -0.8075
  396MOL0     C54559  11.619   9.616  12.266 -0.0441  0.8415 -0.4985
  396MOL0     C54560  11.496   9.653  12.305  0.2279 -0.5138  0.0120
  396MOL0     N54561  11.095  10.316  12.488 -0.1069 -0.3546  0.2140
  396MOL0     N54562  10.997  10.364  12.424  0.3428 -0.0144 -0.1897
  396MOL0     C54563   9.943  10.309  11.579 -0.1093  0.2892  0.1663
  396MOL0     C54564   9.874  10.275  11.464  0.1724  0.0933  1.5339
  396MOL0     C54565   9.735  10.112  11.086  0.8280  0.2469 -0.1319
  396MOL0     C54566   9.818  10.015  11.041  0.1407 -0.6679  0.4268
  396MOL0     C54567   9.806   9.948  10.917 -0.5322 -0.0108 -0.5516
  396MOL0     C54568   9.685   9.965  10.843 -0.3938  0.5355 -0.0289
  396MOL0     O54569   9.670   9.886  10.731  0.3282 -0.5070  0.4839
  396MOL0     C54570   9.555   9.911  10.646 -0.0311 -0.5476 -0.0223
  396MOL0     C54571   9.586   9.876  10.499 -0.0017  1.1287 -0.2594
  396MOL0     C54572   9.606   9.991  10.409 -0.6460  0.4154 -0.6550
  396MOL0     C54573   9.494  10.097  10.394 -0.0603 -0.6037 -0.2258
  396MOL0     C54574   9.516  10.163  10.268 -0.2999 -0.7204 -0.6056
  396MOL0     C54575   9.514  10.218  10.162 -0.3666  0.0908  0.8669
  396MOL0     C54576   9.593  10.054  10.896  0.2474 -0.4768 -0.1874
  396MOL0     C54577   9.607  10.120  11.021  0.4723  0.0786 -0.3477
  396MOL0     C54578   9.495  10.203  11.077  0.3425 -0.6093 -0.3264
  396MOL0     H54579  10.146  10.211  11.271 -2.6097 -2.1323 -0.0594
  396MOL0     H54580  10.270  10.278  11.476 -0.1065  1.6402  3.2213
  396MOL0     H54581  10.322  10.419  11.688 -0.1664  1.1833  1.5907
  396MOL0     H54582  10.309  10.245  11.736  1.8613  0.5109 -2.9585
  396MOL0     H54583  10.295  10.504  11.905 -0.1925 -1.1908 -0.3539
  396MOL0     H54584  10.217  10.358  11.958 -1.5521 -1.4326 -1.8929
  396MOL0     H54585  10.430  10.242  11.947 -2.8310  0.3221  1.9475
  396MOL0     H54586  10.514  10.369  11.857 -0.7736  1.2852 -0.8020
  396MOL0     H54587  10.476  10.529  12.041  0.6767  0.4973 -0.3975
  396MOL0     H54588  10.399  10.399  12.147 -0.6045 -1.3619 -1.5767
  396MOL0     H54589  10.619  10.453  12.211  2.9092 -1.8312  1.1543
  396MOL0     H54590  10.681  10.419  12.051  0.8529  0.5341  1.4835
  396MOL0     H54591  10.531  10.196  12.177 -1.3910  3.3955  2.2811
  396MOL0     H54592  10.651  10.188  12.059  3.8636 -0.7349  1.2781
  396MOL0     H54593  10.757  10.111  12.270  1.4762 -0.1896  3.1868
  396MOL0     H54594  10.686  10.251  12.356 -3.0357 -1.7710 -0.5034
  396MOL0     H54595  10.907  10.270  12.132 -0.1883  3.4816 -0.8068
  396MOL0     H54596  10.841  10.404  12.224  0.3899 -0.0539  0.0413
  396MOL0     H54597  11.019  10.072  12.276 -3.5700  1.3868 -1.0872
  396MOL0     H54598  11.188  10.011  12.554  0.2915 -0.8545 -0.3784
  396MOL0     H54599  11.290  10.165  12.559 -1.7817  1.5737 -0.9835
  396MOL0     H54600  11.326  10.134  12.320 -2.7241  0.7544  0.9538
  396MOL0     H54601  11.415  10.028  12.439 -1.7099 -1.6656  2.8629
  396MOL0     H54602  11.171   9.931  12.269 -0.3586 -3.0521  0.3369
  396MOL0     H54603  11.341   9.896  12.245  0.2448 -0.3903  0.1206
  396MOL0     H54604  11.171   9.810  12.485 -2.5578 -0.0319 -3.1002
  396MOL0     H54605  11.214   9.706  12.355 -0.3386 -0.4536  0.0127
  396MOL0     H54606  11.551   9.693  12.632 -1.0433  0.9736  0.4343
  396MOL0     H54607  11.902   9.660  12.567  1.1213 -2.8348 -1.1699
  396MOL0     H54608  11.830   9.518  12.628  0.2592 -0.8824 -1.4994
  396MOL0     H54609  11.775   9.679  12.686  2.5051  0.8061  0.7524
  396MOL0     H54610  12.077   9.325  12.517 -1.6830  1.6396  0.0028
  396MOL0     H54611  12.328   9.283  12.503 -0.6076 -1.5521 -0.8826
  396MOL0     H54612  12.592   9.523  12.218 -1.8424 -0.7800 -0.0576
  396MOL0     H54613  12.566   9.613  12.370  1.0069  0.2384  1.4445
  396MOL0     H54614  12.746   9.443  12.471 -3.3565 -0.3843  0.3461
  396MOL0     H54615  12.748   9.364  12.326 -0.7716 -0.3168  1.3210
  396MOL0     H54616  12.800   9.663  12.309 -2.5626 -0.0613 -4.1725
  396MOL0     H54617  12.849   9.535  12.204  1.2926  2.3080 -0.8605
  396MOL0     H54618  12.998   9.434  12.398  3.2112  0.8939  2.9039
  396MOL0     H54619  12.954   9.568  12.487  1.3788  0.0832  0.4265
  396MOL0     H54620  13.116   9.522  12.223 -0.0223 -2.4968  1.7385
  396MOL0     H54621  13.062   9.686  12.262 -0.2508  0.1920  0.9891
  396MOL0     H54622  13.260   9.506  12.403 -0.2053  0.1310  2.5855
  396MOL0     H54623  13.206   9.649  12.479 -2.3010 -0.5693 -1.2391
  396MOL0     H54624  13.410   9.721  12.356  0.2962 -0.3494 -0.1109
  396MOL0     H54625  13.302   9.748  12.218  2.4221  1.0729  0.6142
  396MOL0     H54626  13.465   9.607  12.119  0.1758 -0.8472 -0.1136
  396MOL0     H54627  13.341   9.506  12.159  1.7065  0.1986 -0.4063
  396MOL0     H54628  12.357   9.599  12.227  0.8500 -0.4220 -0.3094
  396MOL0     H54629  12.119   9.640  12.230  2.0847  0.6956 -1.6644
  396MOL0     H54630  11.631   9.594  12.160 -2.9033 -0.1045 -0.6888
  396MOL0     H54631  11.417   9.656  12.230 -2.5478 -3.1968  2.5397
  396MOL0     H54632   9.893  10.334  11.672 -0.7615  0.7049 -0.2846
  396MOL0     H54633   9.766  10.267  11.469  0.1804 -0.7140  0.7115
  396MOL0     H54634   9.912  10.000  11.092  1.0746  2.3093 -0.2249
  396MOL0     H54635   9.884   9.877  10.892  0.4564  0.5068  0.9685
  396MOL0     H54636   9.465   9.864  10.685  0.6502 -0.7198  1.3918
  396MOL0     H54637   9.529  10.017  10.646  0.2168 -0.4862  0.2831
  396MOL0     H54638   9.504   9.815  10.460  1.4004 -0.7722 -0.4074
  396MOL0     H54639   9.674   9.812  10.488 -0.1351  0.8435  0.2799
  396MOL0     H54640   9.690  10.040  10.461  0.8853 -2.0511 -0.6560
  396MOL0     H54641   9.638   9.959  10.309  1.7080 -1.7460  0.6641
  396MOL0     H54642   9.491  10.172  10.474 -0.0135 -0.4234 -0.3921
  396MOL0     H54643   9.392  10.059  10.392  0.3420 -1.8450 -3.9454
  396MOL0     H54644   9.527  10.272  10.070 -0.2877  0.7462  1.2602
  396MOL0     H54645   9.492  10.073  10.861 -0.0568 -0.7562  0.5181
  396MOL0     H54646   9.403  10.147  11.059 -0.2782 -0.4529  2.0482
  396MOL0     H54647   9.497  10.214  11.186 -3.3258  1.5054 -0.3195
  396MOL0     H54648   9.478  10.299  11.029  0.2117  0.1523  1.1793
  397MOL0     O54649   1.154   4.242   6.275  0.3157 -0.4774 -0.0640
  397MOL0     C54650   1.070   4.187   6.346 -0.0350  1.4993 -0.0857
  397MOL0     O54651   1.101   4.103   6.455 -0.6052 -0.1829 -0.4413
  397MOL0     C54652   1.234   4.111   6.498 -0.4157  0.2165  0.8437
  397MOL0     C54653   1.273   4.210   6.580 -0.2886 -0.4996  0.4426
  397MOL0     C54654   1.393   4.189   6.647  0.5586 -0.1302  0.1669
  397MOL0     C54655   1.481   4.080   6.619 -0.1025 -0.4874  0.4780
  397MOL0     O54656   1.604   4.059   6.677 -0.4135 -0.2659 -0.3161
  397MOL0     C54657   1.638   4.162   6.783 -0.0891  0.3282  0.0138
  397MOL0     C54658   1.783   4.144   6.830  0.6385  0.7412  0.0523
  397MOL0     C54659   1.880   4.137   6.714  0.1937 -0.0574 -0.5080
  397MOL0     C54660   2.036   4.155   6.748 -0.1462 -0.1501 -0.0209
  397MOL0     C54661   2.127   4.109   6.627 -0.3156  0.2008 -0.8660
  397MOL0     C54662   2.277   4.143   6.640 -0.0454  0.3609  0.1852
  397MOL0     C54663   2.303   4.290   6.617  0.6902 -0.1479  0.2736
  397MOL0     C54664   2.445   4.327   6.578 -0.0772  0.1195 -0.1349
  397MOL0     N54665   2.541   4.269   6.670 -0.2439  0.3710  0.6150
  397MOL0     C54666   2.552   4.312   6.801  0.1661 -0.0342  0.1598
  397MOL0     C54667   2.654   4.240   6.854  0.1147 -1.0468 -1.5987
  397MOL0     C54668   2.720   4.260   6.989  0.8527 -0.1534 -0.2469
  397MOL0     C54669   2.853   4.329   6.982  0.5739 -0.6726 -1.3810
  397MOL0     C54670   2.977   4.246   6.987 -0.0401  0.4280 -0.4023
  397MOL0     C54671   3.102   4.335   6.982 -0.6072 -0.1275 -0.2830
  397MOL0     O54672   3.213   4.245   7.005  0.1325 -0.0681  0.2259
  397MOL0     C54673   3.338   4.296   6.978  0.0164  0.3781  0.5318
  397MOL0     C54674   3.435   4.196   6.947 -0.5794  0.2688 -0.3705
  397MOL0     C54675   3.564   4.230   6.922  0.2073  0.4750 -0.1927
  397MOL0     C54676   3.667   4.116   6.886  0.0242 -0.2732  0.2227
  397MOL0     C54677   3.598   4.364   6.920  0.1048  0.1597 -0.3806
  397MOL0     C54678   3.739   4.406   6.901 -0.1607 -0.9612 -0.5870
  397MOL0     O54679   3.815   4.344   6.815 -0.4719  0.2784  0.1312
  397MOL0     C54680   3.941   4.387   6.789 -0.2619 -0.2080 -0.6222
  397MOL0     C54681   4.047   4.428   6.877  0.5565 -0.0494 -0.5241
  397MOL0     C54682   4.177   4.449   6.836 -0.3961  0.2525  0.4478
  397MOL0     C54683   4.211   4.431   6.703 -0.1872  0.5692  0.0562
  397MOL0     O54684   4.336   4.467   6.664  0.3806  0.0553  0.4171
  397MOL0     C54685   4.446   4.380   6.714 -0.6565 -0.0970  0.3751
  397MOL0     C54686   4.572   4.476   6.715 -0.5637  0.9139  0.4188
  397MOL0     C54687   4.698   4.402   6.764 -1.0962  0.3000 -0.5488
  397MOL0     C54688   4.828   4.468   6.712  0.1062 -0.3698  0.3207
  397MOL0     C54689   4.954   4.399   6.753  0.3248  0.4693  0.8303
  397MOL0     C54690   4.978   4.402   6.906 -0.7555  0.1470 -0.0700
  397MOL0     C54691   5.027   4.543   6.959  0.3631 -0.2791  0.7234
  397MOL0     C54692   5.066   4.557   7.097 -0.1953 -0.3762  0.3611
  397MOL0    Cl54693   4.931   4.563   7.211 -0.0952 -0.2655 -0.0038
  397MOL0     C54694   4.108   4.397   6.610  0.4880 -0.4679 -1.3283
  397MOL0     C54695   3.975   4.373   6.653 -0.5266  0.4516 -0.5530
  397MOL0     O54696   3.775   4.508   6.964  0.0229  0.1342  0.0705
  397MOL0     C54697   3.502   4.460   6.952 -0.3252  0.0668 -0.1311
  397MOL0     C54698   3.377   4.423   6.980  0.6647 -0.3078 -0.0252
  397MOL0     N54699   2.710   4.159   6.754  0.0219 -1.1292 -0.0466
  397MOL0     N54700   2.639   4.182   6.642  0.7375  0.0866  0.3868
  397MOL0     C54701   1.438   3.995   6.523 -0.1558  0.8481 -0.3684
  397MOL0     C54702   1.316   4.008   6.466 -0.2894  0.5643  0.0270
  397MOL0     C54703   0.926   4.201   6.294 -0.4001 -0.1250 -0.2663
  397MOL0     C54704   0.826   4.162   6.394  0.2499  0.2900 -0.5774
  397MOL0     C54705   0.688   4.160   6.358  0.2873  0.3178 -0.0466
  397MOL0     C54706   0.655   4.184   6.228 -0.6162 -1.3604  0.5218
  397MOL0     O54707   0.523   4.179   6.192  0.1461 -0.1001 -0.1081
  397MOL0     C54708   0.486   4.074   6.100 -0.5363 -0.7440  0.1644
  397MOL0     C54709   0.454   3.944   6.175 -0.1353  0.2431  0.8217
  397MOL0     C54710   0.309   3.965   6.216 -0.5241  0.3618  0.3864
  397MOL0     C54711   0.252   3.837   6.276  0.0990  0.1361  0.4176
  397MOL0     C54712   0.223   3.733   6.174 -0.3078  0.5981 -1.6864
  397MOL0     C54713   0.208   3.647   6.085 -0.9334 -0.0628 -0.6998
  397MOL0     C54714   0.754   4.209   6.130  0.5030 -1.0599 -0.6341
  397MOL0     C54715   0.886   4.226   6.160  0.0597  0.9530 -0.0894
  397MOL0     C54716   0.981   4.245   6.040  0.0612 -0.0606 -0.9377
  397MOL0     H54717   1.215   4.302   6.587  0.3377 -0.0452 -0.2255
  397MOL0     H54718   1.421   4.263   6.722 -0.1786  2.2599 -1.8158
  397MOL0     H54719   1.567   4.157   6.866  0.5198 -0.9402  0.4845
  397MOL0     H54720   1.622   4.262   6.741 -1.0834 -0.2743 -1.1103
  397MOL0     H54721   1.801   4.231   6.894 -2.3395  1.1428  0.4626
  397MOL0     H54722   1.806   4.052   6.886 -2.5320  0.7776  1.5950
  397MOL0     H54723   1.864   4.044   6.658  2.3978 -0.0979 -1.1778
  397MOL0     H54724   1.859   4.214   6.639 -0.7493  2.0671  1.7784
  397MOL0     H54725   2.052   4.262   6.765  0.6796  0.0688 -1.9977
  397MOL0     H54726   2.058   4.098   6.839  0.2297 -0.9374 -0.6039
  397MOL0     H54727   2.084   4.143   6.532  0.6734  2.4231 -0.5928
  397MOL0     H54728   2.115   4.000   6.624  1.1077 -0.2534  3.4298
  397MOL0     H54729   2.319   4.123   6.739 -1.6048  0.6400  0.9358
  397MOL0     H54730   2.330   4.080   6.568  2.2374  2.4590 -0.1038
  397MOL0     H54731   2.281   4.341   6.711 -0.5508  0.4063 -0.3037
  397MOL0     H54732   2.241   4.332   6.538  3.4776  0.5996 -1.6813
  397MOL0     H54733   2.463   4.303   6.472 -1.9141  1.0336 -0.7020
  397MOL0     H54734   2.459   4.433   6.596  1.9850 -0.1880  0.2768
  397MOL0     H54735   2.505   4.399   6.845  0.0861  0.7316 -1.3924
  397MOL0     H54736   2.726   4.170   7.050  3.1741  1.2515  1.7805
  397MOL0     H54737   2.657   4.329   7.046  0.9645 -2.3246  2.7272
  397MOL0     H54738   2.863   4.394   6.895 -0.7253  1.2648 -0.1392
  397MOL0     H54739   2.845   4.395   7.068 -2.4869  0.3423 -2.3535
  397MOL0     H54740   2.975   4.195   7.084  0.9583 -1.2891 -1.2504
  397MOL0     H54741   2.971   4.162   6.918 -3.5037 -1.8848  2.3234
  397MOL0     H54742   3.104   4.380   6.883 -4.2763  1.0342  0.0182
  397MOL0     H54743   3.101   4.419   7.052 -1.7734 -0.7887  0.5353
  397MOL0     H54744   3.395   4.095   6.940 -2.3693  0.9740 -0.7637
  397MOL0     H54745   3.619   4.020   6.907 -1.4248  0.5705  0.9734
  397MOL0     H54746   3.753   4.129   6.953 -2.0433  0.5311  2.9279
  397MOL0     H54747   3.699   4.124   6.782  1.7350  2.9099  0.8503
  397MOL0     H54748   4.020   4.455   6.979 -2.5601 -0.3098 -1.1923
  397MOL0     H54749   4.250   4.489   6.907  0.5375  0.6854 -0.7236
  397MOL0     H54750   4.429   4.332   6.811  1.3436 -3.1209 -0.6454
  397MOL0     H54751   4.473   4.294   6.653  1.8180  0.6797  0.2780
  397MOL0     H54752   4.595   4.497   6.610  3.2017  0.4591  1.0226
  397MOL0     H54753   4.555   4.567   6.773 -2.2126  0.5476  0.5688
  397MOL0     H54754   4.707   4.296   6.737  1.1470  0.1885  0.4668
  397MOL0     H54755   4.698   4.409   6.873  0.2607 -0.0201 -0.5108
  397MOL0     H54756   4.844   4.569   6.749 -1.9734 -0.2266  0.9117
  397MOL0     H54757   4.831   4.473   6.603  0.8623 -1.6028  0.2564
  397MOL0     H54758   4.945   4.295   6.721  1.0051  0.4445  0.6945
  397MOL0     H54759   5.046   4.438   6.707 -0.7501  2.6389  0.3903
  397MOL0     H54760   5.058   4.333   6.935 -0.1445  1.1725  0.8036
  397MOL0     H54761   4.884   4.376   6.955 -0.3415  0.9151  1.1781
  397MOL0     H54762   4.932   4.594   6.940  0.0771 -0.9693  0.2383
  397MOL0     H54763   5.107   4.574   6.892  0.3507  2.4899  1.8713
  397MOL0     H54764   5.119   4.651   7.114  0.6622 -0.7884  0.0181
  397MOL0     H54765   5.138   4.481   7.129  0.1697  0.8119  2.5997
  397MOL0     H54766   4.130   4.385   6.504 -0.9253 -0.3270 -1.6670
  397MOL0     H54767   3.894   4.361   6.583 -2.5639  0.6592  1.6531
  397MOL0     H54768   3.522   4.567   6.961  2.4140 -0.3646 -0.1229
  397MOL0     H54769   3.300   4.500   6.988  0.4706 -0.4880 -0.1516
  397MOL0     H54770   1.506   3.918   6.488 -2.9115 -1.0922 -1.7579
  397MOL0     H54771   1.277   3.937   6.393  0.2955 -0.7059  0.9015
  397MOL0     H54772   0.852   4.132   6.495 -0.5994  0.9235 -0.1587
  397MOL0     H54773   0.612   4.130   6.430  0.0478  0.3462 -0.2832
  397MOL0     H54774   0.412   4.098   6.023  1.2530  1.9328 -0.8757
  397MOL0     H54775   0.575   4.063   6.038 -0.2262 -2.1655  0.8187
  397MOL0     H54776   0.518   3.943   6.264  0.1985  0.4299  0.5875
  397MOL0     H54777   0.479   3.860   6.110 -0.1973 -0.0192  1.1397
  397MOL0     H54778   0.306   4.036   6.299 -0.5206  0.9912 -0.1508
  397MOL0     H54779   0.249   3.996   6.130 -0.2934 -1.3899 -0.4583
  397MOL0     H54780   0.156   3.850   6.328 -0.1465  2.6312 -0.5306
  397MOL0     H54781   0.318   3.783   6.344  0.8666  0.6356  0.0730
  397MOL0     H54782   0.203   3.572   6.009  0.5002 -1.7554  0.8023
  397MOL0     H54783   0.732   4.221   6.025  0.6463  2.8607 -0.3438
  397MOL0     H54784   0.923   4.208   5.955 -1.9758  0.5573  0.1082
  397MOL0     H54785   1.001   4.352   6.036 -1.1471  0.3455  1.6552
  397MOL0     H54786   1.075   4.190   6.045  0.2523 -0.1787 -4.0954
  398MOL0     O54787   0.709   1.722   0.511  0.1464 -0.0425  0.4957
  398MOL0     C54788   0.638   1.632   0.553  0.3852  0.5260  0.3574
  398MOL0     O54789   0.674   1.546   0.652 -0.0385 -0.1913  0.1584
  398MOL0     C54790   0.807   1.542   0.698 -0.1783  0.0955  0.0986
  398MOL0     C54791   0.832   1.522   0.834  0.0655  0.1438 -0.2055
  398MOL0     C54792   0.965   1.502   0.875  0.5044  0.6986  0.6040
  398MOL0     C54793   1.067   1.499   0.786  0.4330 -0.0085  0.1255
  398MOL0     O54794   1.190   1.484   0.843  0.1358 -0.0234 -0.2293
  398MOL0     C54795   1.302   1.441   0.758  0.4297  0.7851 -0.6131
  398MOL0     C54796   1.429   1.388   0.827 -0.7018  0.0518  0.9190
  398MOL0     C54797   1.488   1.502   0.918 -0.2919 -0.3131 -0.2311
  398MOL0     C54798   1.618   1.461   0.976 -0.2709  0.0655  0.7301
  398MOL0     C54799   1.687   1.582   1.042 -0.1723 -0.9123 -0.7048
  398MOL0     C54800   1.822   1.542   1.110  0.7649  0.0066  1.5448
  398MOL0     C54801   1.900   1.663   1.163 -0.5335 -0.8348 -0.5744
  398MOL0     C54802   2.042   1.600   1.191  0.2186  0.2656 -0.4596
  398MOL0     N54803   2.118   1.707   1.264  0.8164 -0.4756 -0.0235
  398MOL0     C54804   2.131   1.836   1.217 -0.3655  0.2580 -0.0440
  398MOL0     C54805   2.215   1.909   1.298 -0.2093 -0.0729  0.3244
  398MOL0     C54806   2.235   2.058   1.283 -0.2998  0.6375 -0.1716
  398MOL0     C54807   2.102   2.142   1.308 -0.2341 -0.2374 -0.2287
  398MOL0     C54808   2.092   2.263   1.214 -0.0495 -0.4513  0.4770
  398MOL0     C54809   2.211   2.365   1.215 -0.8650 -0.4496  0.4835
  398MOL0     O54810   2.329   2.309   1.147  0.1005  0.2621 -0.8903
  398MOL0     C54811   2.450   2.352   1.197 -0.1194  0.5604 -0.0897
  398MOL0     C54812   2.481   2.484   1.169  0.3643  0.4360 -0.3761
  398MOL0     C54813   2.598   2.537   1.221  0.4195  0.4923  1.0162
  398MOL0     C54814   2.630   2.676   1.176 -0.1367 -0.0323 -0.0468
  398MOL0     C54815   2.693   2.452   1.296 -0.2307 -0.5802 -0.7277
  398MOL0     C54816   2.827   2.498   1.339 -0.2149  0.0467  0.6955
  398MOL0     O54817   2.860   2.638   1.339  0.1690 -0.3797 -0.0682
  398MOL0     C54818   2.999   2.658   1.357 -0.1722  0.4730 -0.3205
  398MOL0     C54819   3.062   2.633   1.483 -0.5065 -0.5760  0.3699
  398MOL0     C54820   3.193   2.672   1.501 -0.5396  0.3661  0.2559
  398MOL0     C54821   3.266   2.721   1.390  0.4542 -0.1970 -0.0207
  398MOL0     O54822   3.393   2.767   1.406  0.1601  0.1210 -0.1900
  398MOL0     C54823   3.498   2.727   1.315 -0.7395 -0.3031 -0.3551
  398MOL0     C54824   3.624   2.740   1.398  0.0321 -0.7761  0.3758
  398MOL0     C54825   3.737   2.683   1.320 -0.8813 -0.4952  0.7448
  398MOL0     C54826   3.874   2.747   1.349  0.1325  1.1672  0.2910
  398MOL0     C54827   3.990   2.660   1.290 -0.8106 -0.3576 -0.2922
  398MOL0     C54828   4.127   2.725   1.315  0.2261 -1.0282  0.4693
  398MOL0     C54829   4.174   2.714   1.453 -0.4983 -0.6910 -0.4119
  398MOL0     C54830   4.324   2.744   1.449 -0.1394  0.1926  0.1819
  398MOL0    Cl54831   4.374   2.732   1.616  0.1253  0.4315 -0.0266
  398MOL0     C54832   3.202   2.744   1.267 -0.9448 -0.2154  0.0149
  398MOL0     C54833   3.067   2.717   1.250 -0.1545 -0.1189  0.1569
  398MOL0     O54834   2.905   2.409   1.369 -0.1371  0.0628  0.9247
  398MOL0     C54835   2.661   2.314   1.311  0.7706  0.6240 -0.7420
  398MOL0     C54836   2.537   2.267   1.270 -0.2086 -0.1231  0.0133
  398MOL0     N54837   2.258   1.822   1.393 -0.1414 -0.1838  0.6269
  398MOL0     N54838   2.191   1.708   1.381 -0.6784  0.1306  0.7827
  398MOL0     C54839   1.043   1.521   0.648 -0.0892  0.2370  0.1518
  398MOL0     C54840   0.909   1.533   0.605  0.3028  0.1222  0.5568
  398MOL0     C54841   0.498   1.615   0.505 -0.3907  0.6591  0.7401
  398MOL0     C54842   0.422   1.736   0.497  0.1248 -0.1794  0.0001
  398MOL0     C54843   0.288   1.741   0.460 -0.7801 -0.7105  0.0620
  398MOL0     C54844   0.223   1.625   0.433  0.1694 -0.4242 -0.5100
  398MOL0     O54845   0.088   1.619   0.398 -0.2791 -0.0603 -0.1635
  398MOL0     C54846   0.014   1.737   0.385 -0.1161  0.2660 -0.3171
  398MOL0     C54847  -0.132   1.698   0.391 -0.5362 -0.2815 -0.4386
  398MOL0     C54848  -0.230   1.810   0.366  0.3135  0.9055  0.0924
  398MOL0     C54849  -0.372   1.766   0.389  0.2708 -0.3753  0.3603
  398MOL0     C54850  -0.458   1.883   0.358 -0.1526  0.4208  0.0067
  398MOL0     C54851  -0.536   1.976   0.331 -0.3731 -0.0990 -0.2980
  398MOL0     C54852   0.291   1.502   0.432  0.2843  0.0527  0.0119
  398MOL0     C54853   0.427   1.494   0.471 -0.4270  0.5477 -0.6983
  398MOL0     C54854   0.499   1.358   0.470  0.5195  0.2781  0.1341
  398MOL0     H54855   0.760   1.533   0.914 -0.1961 -0.6072 -0.3345
  398MOL0     H54856   0.990   1.499   0.980  0.4811  3.9699  0.7923
  398MOL0     H54857   1.338   1.523   0.696  0.8064  1.5021  0.5141
  398MOL0     H54858   1.262   1.366   0.689  1.8898  0.0170 -0.6616
  398MOL0     H54859   1.408   1.298   0.887  0.5461 -1.3341 -0.6234
  398MOL0     H54860   1.506   1.361   0.754  0.4298  0.8473  1.7886
  398MOL0     H54861   1.490   1.596   0.862 -0.5685  1.6615  2.8421
  398MOL0     H54862   1.426   1.520   1.006 -1.3509  0.2516 -1.0672
  398MOL0     H54863   1.606   1.377   1.044  3.7299  1.0122  2.8934
  398MOL0     H54864   1.676   1.414   0.896 -3.6132 -0.4439 -1.6139
  398MOL0     H54865   1.618   1.621   1.118  0.7720  3.5970 -1.9239
  398MOL0     H54866   1.710   1.666   0.976  0.9255  1.5562  2.5416
  398MOL0     H54867   1.804   1.464   1.184 -0.5984  0.1725  1.4130
  398MOL0     H54868   1.884   1.502   1.029  0.5722  0.7694  1.0032
  398MOL0     H54869   1.848   1.703   1.250 -2.6482 -2.3612 -1.0548
  398MOL0     H54870   1.909   1.746   1.093  1.5295 -0.8517 -0.3855
  398MOL0     H54871   2.033   1.520   1.266  0.8205 -0.3483 -1.0280
  398MOL0     H54872   2.089   1.570   1.097  1.1750 -2.4839  0.7927
  398MOL0     H54873   2.084   1.879   1.129  1.0089  0.7881 -0.5436
  398MOL0     H54874   2.270   2.076   1.181  0.6854 -1.5048 -0.2449
  398MOL0     H54875   2.313   2.083   1.354 -0.5617  2.0234 -0.3346
  398MOL0     H54876   2.018   2.074   1.291  1.6610 -2.8905  0.4000
  398MOL0     H54877   2.099   2.175   1.412 -1.3172 -0.1272 -0.2857
  398MOL0     H54878   2.066   2.228   1.113  3.0463  1.4032 -1.1204
  398MOL0     H54879   2.004   2.311   1.259 -0.1106  0.0550 -0.1644
  398MOL0     H54880   2.186   2.451   1.152 -1.3803 -2.0387 -1.5973
  398MOL0     H54881   2.221   2.411   1.314  1.6612 -0.8953  0.4970
  398MOL0     H54882   2.412   2.552   1.120  0.7992  1.4288  0.3555
  398MOL0     H54883   2.644   2.738   1.264  1.1904 -1.6745  0.9708
  398MOL0     H54884   2.551   2.727   1.120  2.4045  4.9298  0.3520
  398MOL0     H54885   2.717   2.679   1.110 -1.7121  0.6317 -2.1975
  398MOL0     H54886   3.018   2.595   1.575  3.8594 -1.4455  2.3592
  398MOL0     H54887   3.250   2.666   1.593  1.5791  2.2496 -0.8157
  398MOL0     H54888   3.479   2.622   1.289  0.5265 -0.4858 -0.6044
  398MOL0     H54889   3.507   2.786   1.223  0.5293 -1.2497 -0.8680
  398MOL0     H54890   3.640   2.845   1.424 -1.8125  0.6798 -3.5477
  398MOL0     H54891   3.612   2.688   1.493  0.3494 -0.4585  0.5895
  398MOL0     H54892   3.720   2.693   1.213 -3.3486  1.8428  1.2195
  398MOL0     H54893   3.742   2.577   1.347  0.1809 -1.0784 -1.5352
  398MOL0     H54894   3.887   2.760   1.457 -2.2765 -0.0436  0.8052
  398MOL0     H54895   3.879   2.841   1.295  0.8596  0.7726 -0.3411
  398MOL0     H54896   3.982   2.557   1.328  1.1023 -0.5653 -0.3556
  398MOL0     H54897   3.983   2.653   1.181 -1.3802  0.5816 -0.3269
  398MOL0     H54898   4.126   2.831   1.292  1.2473 -0.3542  3.0996
  398MOL0     H54899   4.202   2.681   1.248 -1.2921 -4.7191  0.9125
  398MOL0     H54900   4.154   2.612   1.488  1.0595 -0.9820 -0.2806
  398MOL0     H54901   4.127   2.787   1.520  0.6448 -0.1605 -0.1463
  398MOL0     H54902   4.362   2.838   1.409 -1.1292  0.0322 -1.2572
  398MOL0     H54903   4.376   2.664   1.394 -2.3895 -0.7890 -0.6646
  398MOL0     H54904   3.249   2.781   1.176  1.1052 -0.5081  0.8895
  398MOL0     H54905   3.013   2.733   1.157 -1.6427  3.4716  1.4534
  398MOL0     H54906   2.721   2.246   1.371  0.8643  1.2069 -0.1567
  398MOL0     H54907   2.498   2.171   1.303  1.4095 -0.5090  0.9272
  398MOL0     H54908   1.124   1.534   0.576 -0.1401  1.3731  0.2730
  398MOL0     H54909   0.890   1.542   0.499  0.8587  0.0385  0.4489
  398MOL0     H54910   0.472   1.833   0.502 -1.0488  0.5284 -1.1797
  398MOL0     H54911   0.243   1.839   0.452 -2.5292 -1.5729 -1.4472
  398MOL0     H54912   0.041   1.804   0.468 -0.0003  0.6851 -0.6853
  398MOL0     H54913   0.032   1.792   0.292 -0.7184 -1.3667 -1.4381
  398MOL0     H54914  -0.140   1.659   0.493  0.6366 -2.6019 -1.1750
  398MOL0     H54915  -0.151   1.614   0.324  1.5919 -0.9835 -0.2129
  398MOL0     H54916  -0.201   1.893   0.431 -2.8577  4.2377 -2.3452
  398MOL0     H54917  -0.221   1.838   0.260 -1.3241 -1.0004 -0.6015
  398MOL0     H54918  -0.384   1.735   0.494 -0.3221 -0.7999  0.1708
  398MOL0     H54919  -0.399   1.685   0.320  0.7059  0.2043 -0.5012
  398MOL0     H54920  -0.604   2.058   0.317 -0.4877 -0.1462 -0.0255
  398MOL0     H54921   0.236   1.421   0.385 -1.0550  0.1894  1.2724
  398MOL0     H54922   0.483   1.320   0.571 -2.8111 -1.4237 -0.8744
  398MOL0     H54923   0.455   1.282   0.404  0.0524  1.0602 -0.4680
  398MOL0     H54924   0.608   1.364   0.466  0.6238  0.3526  2.0669
  399MOL0     O54925   1.282   5.299   9.802  0.0206 -0.3182 -0.2333
  399MOL0     C54926   1.242   5.284   9.686 -0.3648 -0.0360  0.2093
  399MOL0     O54927   1.325   5.300   9.573  0.6761  0.4343  0.2168
  399MOL0     C54928   1.457   5.318   9.590 -1.0685  0.5953  0.2368
  399MOL0     C54929   1.532   5.426   9.543 -0.3431 -0.3251 -0.7019
  399MOL0     C54930   1.676   5.431   9.560  0.0547 -0.5062 -0.8264
  399MOL0     C54931   1.745   5.322   9.618 -0.8800 -0.8435  0.3306
  399MOL0     O54932   1.887   5.317   9.633  0.0306  0.0862 -0.0920
  399MOL0     C54933   1.950   5.445   9.609 -0.5666  0.4084 -0.7687
  399MOL0     C54934   2.088   5.444   9.683 -0.0857  0.4862  0.2629
  399MOL0     C54935   2.207   5.441   9.579  0.0219 -0.3545  0.4080
  399MOL0     C54936   2.339   5.462   9.648 -0.1175 -0.3541 -0.6361
  399MOL0     C54937   2.448   5.466   9.544 -0.5232 -0.0693  0.0233
  399MOL0     C54938   2.586   5.477   9.612 -0.2501 -0.2512  0.0677
  399MOL0     C54939   2.699   5.512   9.519  0.3883  1.0969  0.1936
  399MOL0     C54940   2.835   5.515   9.592  0.2191  0.6481 -0.3547
  399MOL0     N54941   2.870   5.391   9.670  0.6578  0.4904 -0.1437
  399MOL0     C54942   2.920   5.279   9.610 -0.4066  0.2121  0.3425
  399MOL0     C54943   2.994   5.215   9.702  0.7764  0.0917 -0.0150
  399MOL0     C54944   3.084   5.101   9.669  0.5694 -0.0506 -0.7080
  399MOL0     C54945   3.175   5.122   9.553  0.1755  0.6076 -0.9095
  399MOL0     C54946   3.252   5.258   9.555 -0.2406  0.1568  0.0583
  399MOL0     C54947   3.349   5.282   9.672  0.5241  0.3347 -0.3471
  399MOL0     O54948   3.437   5.175   9.686 -0.1129  0.1874 -0.2271
  399MOL0     C54949   3.554   5.177   9.758 -0.1769 -1.5287  0.9395
  399MOL0     C54950   3.606   5.290   9.820 -0.4302 -0.8972 -0.6486
  399MOL0     C54951   3.716   5.277   9.906 -0.4788 -0.3929  0.5964
  399MOL0     C54952   3.744   5.403   9.975 -0.0755 -0.5014  0.3213
  399MOL0     C54953   3.781   5.152   9.917 -0.4716  0.3860 -0.3311
  399MOL0     C54954   3.899   5.130  10.005  0.1474 -0.5087  0.0502
  399MOL0     O54955   4.015   5.086   9.943  0.1154  0.4642 -0.3245
  399MOL0     C54956   4.124   5.068  10.029 -0.2015 -0.0737  0.1159
  399MOL0     C54957   4.198   5.184  10.051  0.8668 -0.0339  0.1722
  399MOL0     C54958   4.303   5.177  10.133 -0.8548 -0.3499  0.7335
  399MOL0     C54959   4.348   5.060  10.183 -0.5880  0.8307 -0.8158
  399MOL0     O54960   4.464   5.047  10.253  0.5007  0.7425  0.7894
  399MOL0     C54961   4.558   4.966  10.184 -0.2221  1.2931  0.5615
  399MOL0     C54962   4.695   5.002  10.236 -0.1314 -0.4788 -0.7813
  399MOL0     C54963   4.804   4.927  10.156 -0.1129  0.4034 -0.4906
  399MOL0     C54964   4.938   4.936  10.236  0.3515 -0.9563  1.4597
  399MOL0     C54965   5.038   4.845  10.183  0.6572 -0.2646  0.1232
  399MOL0     C54966   5.083   4.886  10.041 -0.5459  0.3618  0.3342
  399MOL0     C54967   5.188   4.787   9.980  0.0439  0.4101  0.8913
  399MOL0     C54968   5.318   4.803  10.054  0.2889 -0.1696  0.7332
  399MOL0    Cl54969   5.437   4.698   9.988  0.4767 -0.0389  0.4910
  399MOL0     C54970   4.270   4.943  10.165 -0.6849  0.4713 -0.6901
  399MOL0     C54971   4.156   4.951  10.086  0.1076  0.0769 -0.3976
  399MOL0     O54972   3.885   5.149  10.126  0.9401 -0.1595  0.2664
  399MOL0     C54973   3.726   5.048   9.846 -0.0273  0.3608  0.4672
  399MOL0     C54974   3.623   5.056   9.763 -0.2551  0.2023  0.6116
  399MOL0     N54975   2.993   5.286   9.822 -0.0116  0.6403 -0.2207
  399MOL0     N54976   2.908   5.382   9.800 -0.8159 -0.4994 -0.1735
  399MOL0     C54977   1.676   5.212   9.653  0.0093 -0.1358 -1.0783
  399MOL0     C54978   1.536   5.209   9.646  0.2513  0.3170  0.3083
  399MOL0     C54979   1.096   5.255   9.660  0.7757 -0.4290  0.2563
  399MOL0     C54980   1.047   5.262   9.526  0.5575 -0.0725  0.5881
  399MOL0     C54981   0.913   5.252   9.497  0.2026  0.5123  0.7885
  399MOL0     C54982   0.822   5.216   9.598 -0.2275 -0.4363  0.2034
  399MOL0     O54983   0.696   5.188   9.554  1.4016 -0.9010 -0.7478
  399MOL0     C54984   0.600   5.163   9.655 -0.0497  0.1928  0.3113
  399MOL0     C54985   0.467   5.120   9.598  0.0628 -0.1630  0.4128
  399MOL0     C54986   0.485   5.019   9.487  0.1426 -0.0269 -0.4046
  399MOL0     C54987   0.502   4.874   9.526  0.2578  0.4706  0.2422
  399MOL0     C54988   0.442   4.783   9.432  0.3517  0.1062  0.6002
  399MOL0     C54989   0.399   4.707   9.348  0.2240 -0.6886  0.8446
  399MOL0     C54990   0.868   5.199   9.732 -0.3657  0.0122 -0.0471
  399MOL0     C54991   1.001   5.221   9.768  0.0328  0.1742  0.6665
  399MOL0     C54992   1.038   5.214   9.912 -0.0084  0.1822 -0.3149
  399MOL0     H54993   1.489   5.512   9.492  2.4424  0.4129 -1.9682
  399MOL0     H54994   1.720   5.518   9.513 -1.7859 -0.2883 -2.2683
  399MOL0     H54995   1.891   5.528   9.649  0.0709  0.0526  0.9803
  399MOL0     H54996   1.958   5.468   9.502  3.3349  0.1062 -0.6603
  399MOL0     H54997   2.100   5.534   9.744  0.1024  1.5219 -1.2475
  399MOL0     H54998   2.097   5.362   9.754 -0.1662  1.2100  1.1264
  399MOL0     H54999   2.210   5.343   9.530 -1.5398  0.4174 -1.3796
  399MOL0     H55000   2.190   5.524   9.510 -1.6490 -0.0284  1.1508
  399MOL0     H55001   2.332   5.553   9.708 -2.1549 -0.1101 -1.1668
  399MOL0     H55002   2.360   5.382   9.720  2.7541  1.1829  0.4023
  399MOL0     H55003   2.430   5.555   9.482 -0.5315  1.2686  1.8591
  399MOL0     H55004   2.448   5.372   9.488  2.1166 -0.1941  0.1303
  399MOL0     H55005   2.580   5.556   9.686  1.9017  1.0683 -1.0730
  399MOL0     H55006   2.599   5.380   9.661  0.1486 -1.8505 -2.9568
  399MOL0     H55007   2.664   5.595   9.457 -0.8372 -0.7544 -1.7530
  399MOL0     H55008   2.713   5.435   9.443 -1.1635  0.3050  0.6656
  399MOL0     H55009   2.911   5.526   9.514 -1.3475 -2.3520 -2.5011
  399MOL0     H55010   2.830   5.593   9.669  1.5564 -1.1974  1.7291
  399MOL0     H55011   2.932   5.261   9.504  1.1759  0.0564  0.5268
  399MOL0     H55012   3.025   5.011   9.650 -2.2747  2.0042 -2.4379
  399MOL0     H55013   3.143   5.070   9.756 -1.4191  0.1660  0.7775
  399MOL0     H55014   3.243   5.037   9.543  0.5882  1.0224 -1.8346
  399MOL0     H55015   3.121   5.126   9.458  1.5881  2.1779 -1.7166
  399MOL0     H55016   3.318   5.255   9.468 -0.3404  0.0732 -0.0143
  399MOL0     H55017   3.180   5.340   9.558  1.2198  1.4828  0.1036
  399MOL0     H55018   3.396   5.381   9.670 -2.3778  1.9063  1.2504
  399MOL0     H55019   3.289   5.292   9.764 -0.1760  0.9409 -0.8587
  399MOL0     H55020   3.545   5.379   9.808  1.7381  0.8674  0.5095
  399MOL0     H55021   3.652   5.460   9.993  0.3072 -0.0305  0.8282
  399MOL0     H55022   3.810   5.464   9.912  1.0700 -0.1736  1.8030
  399MOL0     H55023   3.781   5.381  10.075 -1.7503 -2.4366  0.5914
  399MOL0     H55024   4.181   5.288  10.029 -2.9586 -0.2338  1.3998
  399MOL0     H55025   4.362   5.267  10.145 -2.1499  0.7274 -0.5526
  399MOL0     H55026   4.537   4.860  10.197  4.1870  0.4893  3.1588
  399MOL0     H55027   4.555   4.987  10.076 -3.6208  1.6825  0.6359
  399MOL0     H55028   4.720   5.108  10.226  0.1605 -0.4219  0.3930
  399MOL0     H55029   4.691   4.986  10.345  0.2897 -0.3616 -0.7493
  399MOL0     H55030   4.817   4.972  10.057  1.4704  0.7176 -0.1673
  399MOL0     H55031   4.769   4.824  10.148 -1.8844  1.0632 -1.9562
  399MOL0     H55032   4.925   4.907  10.341 -0.9715 -1.3896  1.1824
  399MOL0     H55033   4.969   5.041  10.238  2.7137 -1.4979 -1.0754
  399MOL0     H55034   5.132   4.849  10.239  1.1088 -0.8496 -0.5644
  399MOL0     H55035   5.001   4.742  10.184 -0.6525  0.1980  0.7875
  399MOL0     H55036   5.128   4.986  10.048  0.4461 -0.1580  1.8838
  399MOL0     H55037   5.000   4.903   9.972  0.8039  1.0849 -1.1778
  399MOL0     H55038   5.200   4.814   9.874 -1.0913 -0.1547  0.5994
  399MOL0     H55039   5.155   4.684   9.999  0.4059  0.0997 -0.0925
  399MOL0     H55040   5.307   4.767  10.157 -4.1860 -2.5010 -0.3073
  399MOL0     H55041   5.344   4.909  10.053 -4.9440  1.3907 -1.7053
  399MOL0     H55042   4.290   4.849  10.216  0.3760 -1.2248 -3.9533
  399MOL0     H55043   4.093   4.863  10.089  0.1991 -0.0185  3.0852
  399MOL0     H55044   3.777   4.953   9.846 -2.0634 -0.8068 -0.0065
  399MOL0     H55045   3.596   4.974   9.698  0.5434  0.6571 -0.3220
  399MOL0     H55046   1.732   5.130   9.698 -0.2586  0.9110  1.3203
  399MOL0     H55047   1.478   5.117   9.654 -0.3228 -0.0600 -4.6127
  399MOL0     H55048   1.106   5.296   9.442 -1.1694  2.3171  0.2633
  399MOL0     H55049   0.891   5.258   9.391 -0.2089  0.0493  0.8434
  399MOL0     H55050   0.633   5.091   9.730  3.7527  0.3358 -0.9725
  399MOL0     H55051   0.582   5.250   9.718 -1.0474 -0.9819  1.7183
  399MOL0     H55052   0.415   5.203   9.549 -1.9294 -1.3350  0.4377
  399MOL0     H55053   0.403   5.083   9.679  0.0218 -0.1384  0.3912
  399MOL0     H55054   0.400   5.030   9.419 -2.6801 -0.3835  2.7569
  399MOL0     H55055   0.576   5.050   9.436  1.6583 -1.0513  1.5249
  399MOL0     H55056   0.447   4.848   9.617  0.0384 -0.9094 -0.2601
  399MOL0     H55057   0.607   4.849   9.540 -0.4203 -1.9955  1.5939
  399MOL0     H55058   0.357   4.642   9.273  3.5256  0.7117 -2.5202
  399MOL0     H55059   0.802   5.165   9.812  1.4803 -3.3568  0.2247
  399MOL0     H55060   1.121   5.145   9.929 -0.6256 -0.0678  1.9044
  399MOL0     H55061   1.057   5.314   9.953 -0.5496  0.0575  0.2565
  399MOL0     H55062   0.953   5.171   9.965  1.4746 -1.1640  1.0904
  400MOL0     O55063   4.978   5.574   7.508  0.2665  0.1036 -0.1141
  400MOL0     C55064   4.885   5.605   7.582 -0.3233  0.2638 -0.3077
  400MOL0     O55065   4.901   5.672   7.696  0.2896 -0.2716 -0.3327
  400MOL0     C55066   5.024   5.719   7.735  0.3620  0.4783 -0.4016
  400MOL0     C55067   5.047   5.722   7.876  0.6133  0.1141 -0.1282
  400MOL0     C55068   5.174   5.758   7.926  0.1133 -0.1256 -0.2891
  400MOL0     C55069   5.269   5.824   7.849 -0.3843  0.2252  0.8105
  400MOL0     O55070   5.372   5.875   7.910  0.0830 -0.1256 -0.4541
  400MOL0     C55071   5.496   5.868   7.840 -0.8690 -0.2316  0.4117
  400MOL0     C55072   5.614   5.897   7.935  0.6918 -0.1190 -0.3468
  400MOL0     C55073   5.635   6.039   7.983  0.1199 -0.9174 -0.5438
  400MOL0     C55074   5.659   6.150   7.881 -0.1177 -0.2971  0.7384
  400MOL0     C55075   5.772   6.115   7.784  0.2795 -0.5344 -0.5486
  400MOL0     C55076   5.916   6.127   7.831 -0.4018  0.3994  0.8249
  400MOL0     C55077   5.954   6.258   7.917 -0.3595  1.0060 -0.7707
  400MOL0     C55078   6.109   6.266   7.950 -0.3369  0.6017  0.2460
  400MOL0     N55079   6.145   6.366   8.043 -0.6663 -0.2923  0.0040
  400MOL0     C55080   6.169   6.499   8.017 -0.3862 -0.3634 -0.8269
  400MOL0     C55081   6.225   6.537   8.137 -0.0868  0.2705  0.6154
  400MOL0     C55082   6.283   6.669   8.185  0.7387 -0.4064 -0.1025
  400MOL0     C55083   6.432   6.697   8.158 -0.3725  0.1911  0.4323
  400MOL0     C55084   6.479   6.700   8.006  0.4383 -0.4510 -0.2281
  400MOL0     C55085   6.395   6.796   7.912  0.7191 -0.1473 -0.3397
  400MOL0     O55086   6.351   6.918   7.971 -0.4255  0.2620  0.5770
  400MOL0     C55087   6.420   7.034   7.939 -0.6544  0.3314 -0.2067
  400MOL0     C55088   6.344   7.149   7.939  0.8357 -0.7152  0.3038
  400MOL0     C55089   6.396   7.277   7.898  0.4354  0.6941  0.1138
  400MOL0     C55090   6.302   7.398   7.897 -0.5918  0.0963 -0.2796
  400MOL0     C55091   6.537   7.292   7.881  0.5243 -0.2454  0.3552
  400MOL0     C55092   6.605   7.418   7.854 -0.0078  1.0061 -0.7567
  400MOL0     O55093   6.736   7.403   7.832 -0.2807  0.1847 -0.6437
  400MOL0     C55094   6.819   7.505   7.786  0.2157  0.5456 -0.7712
  400MOL0     C55095   6.795   7.566   7.664  0.1144 -0.4106 -0.6027
  400MOL0     C55096   6.883   7.662   7.614 -0.0780 -0.8841 -0.6450
  400MOL0     C55097   6.995   7.702   7.685 -0.2660  0.2006  0.2482
  400MOL0     O55098   7.077   7.795   7.617  0.7176  0.2177  0.2393
  400MOL0     C55099   7.197   7.833   7.683  1.0560  0.7942  0.1116
  400MOL0     C55100   7.257   7.942   7.582 -0.3570  0.3884  0.3041
  400MOL0     C55101   7.401   7.968   7.610  0.8678  0.6994  0.5744
  400MOL0     C55102   7.434   8.082   7.704 -0.7507  0.4546  0.3618
  400MOL0     C55103   7.559   8.060   7.788 -0.2556  0.5950 -0.2107
  400MOL0     C55104   7.596   8.160   7.904 -0.5583 -0.4199  0.5352
  400MOL0     C55105   7.744   8.160   7.930 -0.7407  0.3860  0.9077
  400MOL0     C55106   7.775   8.227   8.060 -0.0615  0.3417 -0.7245
  400MOL0    Cl55107   7.943   8.213   8.089  0.1939 -0.1962  0.3433
  400MOL0     C55108   7.005   7.646   7.812  0.0751 -0.3070 -0.0373
  400MOL0     C55109   6.927   7.553   7.864  0.0595 -0.2627 -0.0463
  400MOL0     O55110   6.543   7.523   7.848  0.5043  0.1645  0.5375
  400MOL0     C55111   6.610   7.173   7.880  0.1509 -0.0998  0.3033
  400MOL0     C55112   6.550   7.045   7.902 -0.6247 -0.8411  0.4910
  400MOL0     N55113   6.229   6.434   8.225  0.5764  0.0335  0.4061
  400MOL0     N55114   6.174   6.338   8.174  0.0710 -0.7320  0.2164
  400MOL0     C55115   5.243   5.834   7.708  0.7106  0.6910  0.5302
  400MOL0     C55116   5.120   5.786   7.654 -0.5417  0.6654  0.7022
  400MOL0     C55117   4.744   5.561   7.554  0.3338 -0.1339  0.6137
  400MOL0     C55118   4.642   5.635   7.629 -0.7191  0.2376  0.0915
  400MOL0     C55119   4.524   5.578   7.624  0.8981  0.6451 -0.4532
  400MOL0     C55120   4.481   5.464   7.552 -0.7271  0.0677  0.4035
  400MOL0     O55121   4.355   5.409   7.542 -0.2437 -0.3697 -0.3030
  400MOL0     C55122   4.256   5.468   7.630  0.2514 -0.0882  1.0117
  400MOL0     C55123   4.123   5.393   7.591  0.8112  0.1282 -0.3477
  400MOL0     C55124   4.044   5.347   7.712 -0.5756  0.7249  0.1674
  400MOL0     C55125   3.907   5.284   7.668 -0.0694 -0.0112  0.1792
  400MOL0     C55126   3.856   5.213   7.783 -0.6637 -0.4512 -0.8344
  400MOL0     C55127   3.825   5.169   7.890 -0.2468  0.1659 -0.2016
  400MOL0     C55128   4.580   5.396   7.483  0.2004 -0.0835  0.1022
  400MOL0     C55129   4.713   5.448   7.484  0.0570 -0.2438 -0.3087
  400MOL0     C55130   4.810   5.379   7.401  0.7845  0.3777  0.2158
  400MOL0     H55131   4.971   5.673   7.936  0.4651 -0.3772 -0.6976
  400MOL0     H55132   5.206   5.741   8.028  2.3527  0.9280 -0.7560
  400MOL0     H55133   5.488   5.938   7.756 -1.3331 -1.2011 -0.3724
  400MOL0     H55134   5.513   5.775   7.785 -1.2982  0.1740 -0.4215
  400MOL0     H55135   5.587   5.838   8.024 -1.4307 -0.8783 -1.4191
  400MOL0     H55136   5.701   5.843   7.897 -0.0666 -0.8647 -1.0562
  400MOL0     H55137   5.549   6.061   8.047  0.2312  1.4118 -1.1184
  400MOL0     H55138   5.720   6.038   8.052 -2.9913  1.6712  3.8194
  400MOL0     H55139   5.575   6.164   7.812  2.5471  1.4058 -2.4754
  400MOL0     H55140   5.670   6.240   7.940  1.6880 -0.0386  0.0577
  400MOL0     H55141   5.765   6.166   7.687  0.1541  1.0393  0.2567
  400MOL0     H55142   5.758   6.010   7.757 -1.3766 -0.8833  1.4294
  400MOL0     H55143   5.959   6.037   7.875  0.0459 -0.0138 -0.4289
  400MOL0     H55144   5.969   6.141   7.737 -1.8209  1.8518  0.1839
  400MOL0     H55145   5.899   6.269   8.011  2.2115  3.2851  0.6298
  400MOL0     H55146   5.929   6.348   7.860  0.5295  1.0189 -1.1654
  400MOL0     H55147   6.136   6.166   7.985  0.8446  0.6608 -0.4578
  400MOL0     H55148   6.170   6.279   7.861  3.6042 -0.2416  2.5807
  400MOL0     H55149   6.134   6.556   7.932 -0.2709  0.3099 -0.4232
  400MOL0     H55150   6.261   6.668   8.292 -0.5995 -0.7869 -0.3610
  400MOL0     H55151   6.216   6.742   8.138  1.6625 -0.1832 -1.1104
  400MOL0     H55152   6.451   6.789   8.213  2.1311 -1.9160  3.5256
  400MOL0     H55153   6.489   6.628   8.221 -0.2376  0.4896  0.6393
  400MOL0     H55154   6.585   6.726   7.999  0.4414 -0.6580 -1.0360
  400MOL0     H55155   6.466   6.593   7.989  1.2307 -0.1559 -3.5434
  400MOL0     H55156   6.456   6.820   7.824 -0.9873  0.9126 -1.2752
  400MOL0     H55157   6.310   6.739   7.873 -0.9041  0.3124  2.2782
  400MOL0     H55158   6.236   7.140   7.938  0.8442 -1.1093  1.9072
  400MOL0     H55159   6.197   7.382   7.925 -0.5252 -1.8850 -1.0519
  400MOL0     H55160   6.289   7.455   7.804  0.9058 -0.5281 -0.9002
  400MOL0     H55161   6.343   7.472   7.967  0.5253 -0.9969  0.2461
  400MOL0     H55162   6.706   7.533   7.610 -0.2107  0.1694 -0.4295
  400MOL0     H55163   6.866   7.706   7.516 -0.6276 -1.1541 -0.6772
  400MOL0     H55164   7.176   7.871   7.783  2.4310  3.1599 -0.4261
  400MOL0     H55165   7.263   7.746   7.684  0.7040  0.4927 -1.0230
  400MOL0     H55166   7.261   7.905   7.479  1.1041  0.7151  0.2262
  400MOL0     H55167   7.201   8.036   7.585 -1.2479 -0.0787 -0.6463
  400MOL0     H55168   7.447   7.989   7.513 -1.0959 -1.9040 -1.0348
  400MOL0     H55169   7.455   7.877   7.639 -0.8055 -1.2998 -2.1697
  400MOL0     H55170   7.362   8.086   7.786 -0.2342 -1.8228  0.9973
  400MOL0     H55171   7.424   8.175   7.646 -0.6114 -1.1898 -2.4604
  400MOL0     H55172   7.558   7.962   7.838 -0.3230  0.9666  0.5207
  400MOL0     H55173   7.651   8.059   7.728  1.0074 -0.7664  1.5948
  400MOL0     H55174   7.534   8.143   7.993  0.7379  2.2804  2.0876
  400MOL0     H55175   7.570   8.259   7.865 -0.3634 -0.6145 -0.0961
  400MOL0     H55176   7.796   8.206   7.845 -2.1157 -2.1594 -1.4848
  400MOL0     H55177   7.779   8.056   7.928 -1.5447  0.0794 -2.1931
  400MOL0     H55178   7.717   8.184   8.142  1.8080  1.5426  1.3345
  400MOL0     H55179   7.742   8.332   8.053  1.3830  0.8160 -0.6445
  400MOL0     H55180   7.097   7.672   7.864  0.0422 -1.1464  0.4696
  400MOL0     H55181   6.948   7.503   7.958 -1.4096 -0.3298  0.2584
  400MOL0     H55182   6.716   7.159   7.864  0.6224  1.4400  1.7312
  400MOL0     H55183   6.609   6.954   7.904 -0.7954 -0.9838 -0.3351
  400MOL0     H55184   5.322   5.878   7.648  1.8721  0.6318  1.9386
  400MOL0     H55185   5.115   5.783   7.546  2.2151 -3.8553  0.4306
  400MOL0     H55186   4.654   5.726   7.687 -0.1616 -0.5362  1.2214
  400MOL0     H55187   4.444   5.629   7.678 -0.0037 -2.6826  1.6632
  400MOL0     H55188   4.280   5.453   7.736  1.2902 -2.8629  0.4403
  400MOL0     H55189   4.256   5.576   7.611  0.5893 -0.4750 -1.4946
  400MOL0     H55190   4.152   5.305   7.533  1.2741  0.0912 -0.0671
  400MOL0     H55191   4.065   5.461   7.528 -0.0146 -0.3504 -0.1137
  400MOL0     H55192   4.101   5.275   7.771 -1.1292 -0.9992 -1.3099
  400MOL0     H55193   4.037   5.441   7.767  1.1931 -0.2110  2.1223
  400MOL0     H55194   3.908   5.213   7.585 -2.1404  0.8184 -0.6256
  400MOL0     H55195   3.822   5.351   7.651 -0.9946 -0.2252  3.2444
  400MOL0     H55196   3.785   5.121   7.977  1.9586 -2.0399 -0.2791
  400MOL0     H55197   4.551   5.311   7.422  2.9308 -1.1896  0.1888
  400MOL0     H55198   4.757   5.322   7.323 -1.0127 -0.0234  1.6505
  400MOL0     H55199   4.872   5.447   7.342  2.2766 -0.1823  1.1039
  400MOL0     H55200   4.863   5.307   7.464  0.4113  1.2804  1.5890
  401MOL0     O55201   7.225  11.302   2.449 -0.3106 -0.2344  0.1926
  401MOL0     C55202   7.135  11.284   2.375  0.4869  0.6374  0.3039
  401MOL0     O55203   7.144  11.283   2.235  0.1054 -0.4456 -0.6057
  401MOL0     C55204   7.261  11.322   2.177  0.5263 -0.3917  1.0848
  401MOL0     C55205   7.282  11.259   2.051 -0.2708 -0.3584 -0.0925
  401MOL0     C55206   7.393  11.290   1.967 -0.4517 -1.0336  0.4393
  401MOL0     C55207   7.481  11.388   2.016 -0.3884 -0.0840  1.2865
  401MOL0     O55208   7.591  11.415   1.939  0.3340  0.1766 -0.0670
  401MOL0     C55209   7.665  11.310   1.867 -0.8587  0.2222 -0.8927
  401MOL0     C55210   7.784  11.386   1.808 -0.6285  0.7327 -0.6648
  401MOL0     C55211   7.896  11.301   1.755 -0.4700  0.5474  0.0675
  401MOL0     C55212   8.018  11.379   1.706 -0.2683 -0.2889 -0.7201
  401MOL0     C55213   8.140  11.286   1.668  0.2816  0.0832  0.2040
  401MOL0     C55214   8.259  11.373   1.664  0.4708  0.3538 -0.0833
  401MOL0     C55215   8.383  11.302   1.600  0.5349 -0.1179  0.0471
  401MOL0     C55216   8.435  11.186   1.687  0.1390 -0.2291  0.8989
  401MOL0     N55217   8.531  11.109   1.607 -0.9088 -0.5966  0.3059
  401MOL0     C55218   8.656  11.153   1.563  0.7559  0.1087  0.8117
  401MOL0     C55219   8.732  11.040   1.540  0.7775 -1.0736  0.1619
  401MOL0     C55220   8.877  11.059   1.491  0.6155  0.8014 -0.2731
  401MOL0     C55221   8.980  11.008   1.594 -0.2463  0.5075 -0.3187
  401MOL0     C55222   8.988  11.088   1.729 -0.9388 -0.0560  0.3418
  401MOL0     C55223   9.110  11.041   1.806  0.6476 -0.5569 -0.0520
  401MOL0     O55224   9.227  11.096   1.744  1.1596  0.1984  0.3541
  401MOL0     C55225   9.343  11.027   1.731 -0.6329 -0.3326  0.3868
  401MOL0     C55226   9.445  11.090   1.659 -0.3472 -0.2762  0.0072
  401MOL0     C55227   9.563  11.030   1.629  0.6625 -0.3620  0.7128
  401MOL0     C55228   9.671  11.114   1.568  0.4302 -0.1894 -0.6315
  401MOL0     C55229   9.574  10.888   1.660  0.0186  0.6458 -0.1059
  401MOL0     C55230   9.696  10.799   1.625  0.3010  0.4502  0.2980
  401MOL0     O55231   9.799  10.855   1.543 -0.0664 -0.3427 -0.4485
  401MOL0     C55232   9.899  10.775   1.495 -0.2949  0.3093 -0.0215
  401MOL0     C55233   9.906  10.753   1.356 -0.4210  0.4092 -0.3995
  401MOL0     C55234  10.001  10.669   1.303 -0.2893 -0.6142 -0.1479
  401MOL0     C55235  10.089  10.598   1.386 -0.2195 -0.2464 -0.4422
  401MOL0     O55236  10.176  10.507   1.329  0.0262 -0.7680  0.1825
  401MOL0     C55237  10.294  10.474   1.402 -0.1422  0.2065  0.3499
  401MOL0     C55238  10.281  10.337   1.475  0.0995 -0.0796  0.2022
  401MOL0     C55239  10.417  10.288   1.523 -0.0947  0.2728  0.1967
  401MOL0     C55240  10.405  10.152   1.595 -0.1569  0.4105  0.6981
  401MOL0     C55241  10.532  10.094   1.667  0.4038  0.5461  1.3521
  401MOL0     C55242  10.581  10.173   1.787  0.3073 -0.2003  0.6153
  401MOL0     C55243  10.736  10.151   1.805 -0.6614 -0.1683 -0.3466
  401MOL0     C55244  10.812  10.244   1.710  0.5221  0.7297  0.2167
  401MOL0    Cl55245  10.975  10.165   1.686  0.2253  0.1151 -0.2302
  401MOL0     C55246  10.074  10.618   1.524  0.6265 -0.2929 -0.5807
  401MOL0     C55247   9.984  10.707   1.574  1.0178  0.2741 -0.6391
  401MOL0     O55248   9.688  10.682   1.662  0.1515 -0.3433 -0.6751
  401MOL0     C55249   9.473  10.822   1.735 -0.4870  0.2923 -0.6229
  401MOL0     C55250   9.365  10.895   1.773 -0.5111 -1.2045  0.3547
  401MOL0     N55251   8.645  10.937   1.558  0.0986  0.4809  0.0559
  401MOL0     N55252   8.526  10.976   1.597 -0.0182 -0.4865  0.0126
  401MOL0     C55253   7.448  11.469   2.124  0.3525  1.0350 -0.8293
  401MOL0     C55254   7.342  11.437   2.209 -0.2202  0.0721  0.0100
  401MOL0     C55255   7.012  11.230   2.431  1.2075 -0.3671 -0.0646
  401MOL0     C55256   7.001  11.199   2.573 -0.3988 -0.7832 -0.3378
  401MOL0     C55257   6.887  11.141   2.629 -0.3982 -0.0378 -0.3333
  401MOL0     C55258   6.775  11.113   2.552 -0.7036 -0.6070 -0.1312
  401MOL0     O55259   6.663  11.072   2.622  0.4273 -0.1153 -1.0841
  401MOL0     C55260   6.543  11.057   2.549  0.3525 -0.4112  0.2093
  401MOL0     C55261   6.437  11.000   2.647  0.8554 -0.1650  0.3294
  401MOL0     C55262   6.472  10.861   2.682 -0.3228 -0.5294 -0.6746
  401MOL0     C55263   6.342  10.800   2.742 -0.1909 -0.5197 -0.4456
  401MOL0     C55264   6.382  10.670   2.796  0.1814 -0.2265 -0.0124
  401MOL0     C55265   6.411  10.559   2.845  0.1938 -0.5125  0.8293
  401MOL0     C55266   6.780  11.126   2.412 -0.1115  0.4388  0.7449
  401MOL0     C55267   6.893  11.199   2.354 -0.4924  1.4332 -0.1582
  401MOL0     C55268   6.872  11.226   2.205 -0.4713 -0.5663 -0.7047
  401MOL0     H55269   7.210  11.183   2.023 -2.0611  0.8893  0.9070
  401MOL0     H55270   7.415  11.231   1.878 -0.3582  0.2212 -0.3936
  401MOL0     H55271   7.612  11.271   1.780  0.8147  1.4690 -2.5696
  401MOL0     H55272   7.708  11.238   1.937  3.3969  2.3606 -0.9741
  401MOL0     H55273   7.734  11.446   1.731  0.2546  0.9320 -1.0884
  401MOL0     H55274   7.826  11.459   1.877 -1.4210  2.3747 -1.8397
  401MOL0     H55275   7.929  11.243   1.842 -2.6474  1.2004  1.4299
  401MOL0     H55276   7.857  11.223   1.689  0.2772 -0.7684  1.1182
  401MOL0     H55277   8.002  11.437   1.614  0.2435  2.2978  0.7295
  401MOL0     H55278   8.047  11.445   1.788 -3.2264  1.2554 -0.7810
  401MOL0     H55279   8.124  11.222   1.580  2.9092 -0.6501  0.1845
  401MOL0     H55280   8.154  11.205   1.740 -0.3295  0.6855  1.0132
  401MOL0     H55281   8.240  11.463   1.605 -0.4620  1.4855  1.8603
  401MOL0     H55282   8.283  11.413   1.762  0.3333  3.1806 -1.1163
  401MOL0     H55283   8.458  11.382   1.593  0.2545  0.0675 -1.1239
  401MOL0     H55284   8.360  11.281   1.495 -1.0572  2.8500 -0.3331
  401MOL0     H55285   8.478  11.224   1.781 -0.3076  1.9182  0.2672
  401MOL0     H55286   8.363  11.109   1.715  1.8058 -0.8657  3.9863
  401MOL0     H55287   8.690  11.254   1.540 -3.3110  1.0397 -2.1392
  401MOL0     H55288   8.902  11.162   1.464  0.4879  1.0040  0.3670
  401MOL0     H55289   8.883  11.002   1.397 -1.5088  1.8102 -1.0794
  401MOL0     H55290   8.948  10.907   1.621 -0.7597  0.3690 -1.4013
  401MOL0     H55291   9.078  10.994   1.546 -0.1872  2.7092 -0.9491
  401MOL0     H55292   8.992  11.196   1.713 -2.1780 -0.0059  0.2703
  401MOL0     H55293   8.896  11.057   1.780 -0.5562 -3.3708 -0.7382
  401MOL0     H55294   9.103  11.082   1.907  0.6414  0.7214 -0.5557
  401MOL0     H55295   9.097  10.932   1.804 -1.7871 -0.3237 -2.3799
  401MOL0     H55296   9.420  11.191   1.628 -1.4084 -0.9132 -1.3430
  401MOL0     H55297   9.765  11.102   1.623  0.5735  3.2940  0.0813
  401MOL0     H55298   9.658  11.222   1.580  1.7463 -0.1876  1.3118
  401MOL0     H55299   9.671  11.085   1.462 -0.9096 -0.2394 -0.6357
  401MOL0     H55300   9.837  10.819   1.304 -0.3090  1.5607  0.8404
  401MOL0     H55301  10.020  10.646   1.199  1.5908 -1.7246  0.3935
  401MOL0     H55302  10.384  10.467   1.340 -0.0479  0.9061  0.4027
  401MOL0     H55303  10.307  10.556   1.474 -1.9968  0.4934  0.4015
  401MOL0     H55304  10.217  10.345   1.563 -0.9978  0.5490 -0.6209
  401MOL0     H55305  10.243  10.252   1.416 -0.4604 -1.2827  2.2093
  401MOL0     H55306  10.449  10.358   1.601 -1.5931 -1.4238  2.4502
  401MOL0     H55307  10.483  10.288   1.437 -1.2513 -0.0176 -0.7165
  401MOL0     H55308  10.368  10.075   1.527  0.2079  1.1762 -0.4020
  401MOL0     H55309  10.326  10.164   1.670  0.2420  0.1258  1.1672
  401MOL0     H55310  10.512   9.988   1.683 -0.0259  0.5657  0.9503
  401MOL0     H55311  10.618  10.101   1.599 -1.0735  0.4801 -0.5983
  401MOL0     H55312  10.543  10.125   1.877  0.1220 -3.8094 -1.2281
  401MOL0     H55313  10.544  10.276   1.777  0.9479 -0.0575 -0.4495
  401MOL0     H55314  10.756  10.044   1.798  3.4609  0.3365  1.0339
  401MOL0     H55315  10.764  10.176   1.908 -4.4250 -0.1952  0.8326
  401MOL0     H55316  10.826  10.341   1.759 -0.7852 -0.4195  3.0958
  401MOL0     H55317  10.753  10.260   1.619 -1.4457 -4.9231  0.0973
  401MOL0     H55318  10.130  10.557   1.594 -1.0545 -1.4422 -0.1836
  401MOL0     H55319   9.982  10.722   1.682 -0.8872  3.7030 -1.0090
  401MOL0     H55320   9.485  10.718   1.765  1.9102  1.3288  2.6707
  401MOL0     H55321   9.288  10.848   1.833 -2.0452 -0.3026 -0.8277
  401MOL0     H55322   7.523  11.544   2.148  2.3379 -0.8890 -0.7469
  401MOL0     H55323   7.327  11.504   2.293  2.4140  0.2041  0.4332
  401MOL0     H55324   7.081  11.227   2.640  1.4903  0.6086 -3.0212
  401MOL0     H55325   6.885  11.108   2.732  3.3432  4.6521  1.6335
  401MOL0     H55326   6.517  11.155   2.508 -2.7561 -1.3627 -0.4048
  401MOL0     H55327   6.560  10.988   2.466  0.1845 -1.2732  0.8722
  401MOL0     H55328   6.341  10.997   2.596  1.7025  0.9418 -1.4610
  401MOL0     H55329   6.429  11.076   2.725  0.3414  2.3905 -2.0449
  401MOL0     H55330   6.502  10.801   2.596 -0.0391 -2.3947  0.6453
  401MOL0     H55331   6.555  10.857   2.753  0.5259  0.5444 -1.5741
  401MOL0     H55332   6.266  10.791   2.664  0.2957  0.1405 -1.0050
  401MOL0     H55333   6.304  10.861   2.825  0.2903  0.8230 -1.1897
  401MOL0     H55334   6.437  10.473   2.904  2.3265 -1.9249 -1.8841
  401MOL0     H55335   6.709  11.089   2.338  0.8722 -1.3911  0.6689
  401MOL0     H55336   6.768  11.240   2.173  0.0071 -0.8873 -2.5305
  401MOL0     H55337   6.910  11.324   2.177  1.8168 -1.5973 -1.4621
  401MOL0     H55338   6.916  11.142   2.150  0.5284 -0.4116 -0.1647
  402MOL0     O55339   8.497   3.932   1.475 -0.1163  0.1806 -0.1000
  402MOL0     C55340   8.522   3.814   1.505  0.5255 -0.1692  0.1955
  402MOL0     O55341   8.626   3.736   1.449  0.1004  0.0401  0.5993
  402MOL0     C55342   8.745   3.747   1.523 -0.5420 -0.8960  0.7845
  402MOL0     C55343   8.767   3.818   1.646  0.3452 -0.9655 -0.2960
  402MOL0     C55344   8.884   3.802   1.722 -0.0787 -0.3649 -0.4479
  402MOL0     C55345   8.991   3.718   1.679  0.2198  0.0280 -0.3382
  402MOL0     O55346   9.102   3.690   1.755  0.6946 -0.5215 -0.0492
  402MOL0     C55347   9.218   3.616   1.706  1.7306  0.4764 -0.0613
  402MOL0     C55348   9.303   3.577   1.825  0.2712  0.1498 -0.1081
  402MOL0     C55349   9.374   3.708   1.873 -0.9463 -1.1904 -0.2947
  402MOL0     C55350   9.468   3.686   1.995 -0.6757 -0.6146 -0.8226
  402MOL0     C55351   9.514   3.814   2.049 -0.0378 -0.2994  1.1827
  402MOL0     C55352   9.634   3.794   2.148  0.1893  0.5189 -0.0726
  402MOL0     C55353   9.679   3.934   2.189  0.7353  1.3484 -0.2044
  402MOL0     C55354   9.809   3.936   2.274  0.1525  0.2216  0.0469
  402MOL0     N55355   9.799   3.880   2.410  0.5232  0.4576  0.8842
  402MOL0     C55356   9.758   3.957   2.514 -0.4575 -0.2236  0.2071
  402MOL0     C55357   9.768   3.869   2.622 -0.1251  0.1450  0.2818
  402MOL0     C55358   9.761   3.903   2.769 -0.3303 -0.4068 -0.2867
  402MOL0     C55359   9.640   3.982   2.817  0.6584 -0.7853 -0.2146
  402MOL0     C55360   9.527   3.881   2.841 -0.0083 -0.3525  0.3441
  402MOL0     C55361   9.540   3.788   2.966  0.2230 -0.6078  0.1800
  402MOL0     O55362   9.439   3.692   2.963  0.1858 -0.1807  1.0718
  402MOL0     C55363   9.310   3.722   2.982  0.7938 -0.3213  0.4614
  402MOL0     C55364   9.251   3.803   3.082 -0.0010 -0.7612  0.3452
  402MOL0     C55365   9.111   3.823   3.094  0.0035  0.6909 -0.6289
  402MOL0     C55366   9.072   3.901   3.225 -0.0120  0.1692  0.3732
  402MOL0     C55367   9.025   3.758   3.003 -1.2635  0.1361 -0.0516
  402MOL0     C55368   8.877   3.765   3.010 -0.4106  0.8814  0.6049
  402MOL0     O55369   8.808   3.730   2.901 -0.6016 -0.2270  0.4997
  402MOL0     C55370   8.668   3.756   2.909 -0.4136  0.7445  0.8929
  402MOL0     C55371   8.573   3.668   2.956 -0.3921  0.0766 -0.1642
  402MOL0     C55372   8.444   3.710   2.965 -0.2730  0.7570 -0.7845
  402MOL0     C55373   8.404   3.834   2.917  0.1082  0.3256 -0.9225
  402MOL0     O55374   8.275   3.872   2.927  0.3775  0.0065 -0.6010
  402MOL0     C55375   8.234   4.008   2.899 -0.1246 -0.1926  0.0053
  402MOL0     C55376   8.087   4.036   2.920 -0.7744 -0.0683 -0.7620
  402MOL0     C55377   8.006   3.958   2.821  0.4283  0.3725 -0.2631
  402MOL0     C55378   7.862   3.991   2.840  0.6919 -0.0149  0.7469
  402MOL0     C55379   7.782   3.932   2.723 -0.4240  0.2091 -0.4150
  402MOL0     C55380   7.634   3.962   2.732 -0.6784  0.5097 -0.9872
  402MOL0     C55381   7.541   3.868   2.658  0.6254  0.0543  0.5882
  402MOL0     C55382   7.519   3.927   2.522 -0.1012  0.1674  0.3510
  402MOL0    Cl55383   7.414   4.070   2.519 -0.0091  0.4480  0.1854
  402MOL0     C55384   8.498   3.919   2.858  0.8516 -0.1825 -0.0380
  402MOL0     C55385   8.629   3.881   2.864 -0.1199 -0.3894  0.7603
  402MOL0     O55386   8.825   3.790   3.120  0.2859 -0.3807 -0.4151
  402MOL0     C55387   9.083   3.674   2.907 -0.5086 -0.2883  0.2363
  402MOL0     C55388   9.224   3.653   2.903 -0.4226 -0.6417 -0.3863
  402MOL0     N55389   9.790   3.743   2.585  0.4134 -0.2515  0.2346
  402MOL0     N55390   9.802   3.750   2.456 -0.4121  0.9680  0.1656
  402MOL0     C55391   8.967   3.656   1.558 -0.7588  0.4699  0.2818
  402MOL0     C55392   8.849   3.672   1.478 -1.0403  0.1172 -0.5064
  402MOL0     C55393   8.429   3.741   1.598  0.7083  0.2494  0.3965
  402MOL0     C55394   8.396   3.612   1.576  0.6533  0.5338  0.8898
  402MOL0     C55395   8.300   3.547   1.648 -0.5611  0.2913  0.1953
  402MOL0     C55396   8.216   3.610   1.748  1.1759  0.0098 -0.3440
  402MOL0     O55397   8.107   3.542   1.796 -0.0621 -0.0344  0.8710
  402MOL0     C55398   8.035   3.597   1.909  0.7166  0.0137  0.0876
  402MOL0     C55399   7.960   3.490   1.977  0.2309 -0.7610  0.2868
  402MOL0     C55400   7.874   3.404   1.880 -0.3717 -0.3499  0.1492
  402MOL0     C55401   7.759   3.334   1.965  0.0799  0.5620  0.0304
  402MOL0     C55402   7.791   3.184   1.970  0.3265  0.1505 -0.7459
  402MOL0     C55403   7.788   3.059   1.978 -0.4855 -0.1668  0.1888
  402MOL0     C55404   8.260   3.739   1.773  1.0086 -0.2648 -1.2524
  402MOL0     C55405   8.357   3.809   1.703 -0.1755  0.1472  0.5657
  402MOL0     C55406   8.372   3.959   1.736 -1.1765  0.9059  0.4134
  402MOL0     H55407   8.695   3.893   1.675  2.2152  0.1308  1.8227
  402MOL0     H55408   8.894   3.862   1.812  0.0118 -1.0910  0.0359
  402MOL0     H55409   9.271   3.678   1.634  2.1658 -1.4105 -1.4487
  402MOL0     H55410   9.180   3.523   1.662  1.4525 -0.2060  1.5402
  402MOL0     H55411   9.254   3.523   1.907  2.5542 -0.6305  0.8303
  402MOL0     H55412   9.382   3.507   1.800  1.7465  1.3486  1.0035
  402MOL0     H55413   9.423   3.757   1.788 -1.6003  0.0480  0.0131
  402MOL0     H55414   9.292   3.774   1.904 -0.4425 -1.3336  1.5042
  402MOL0     H55415   9.412   3.637   2.075  0.5423 -1.2823 -0.3467
  402MOL0     H55416   9.557   3.624   1.982  0.4466  0.9762 -0.9259
  402MOL0     H55417   9.424   3.861   2.091  0.3667  3.3376 -1.4994
  402MOL0     H55418   9.544   3.880   1.967  1.6728 -0.0251  1.9830
  402MOL0     H55419   9.599   3.732   2.232 -1.3942  0.8698 -0.4259
  402MOL0     H55420   9.718   3.740   2.104 -0.2942 -1.6570  1.5159
  402MOL0     H55421   9.592   3.976   2.238  0.0936 -0.2245  0.0796
  402MOL0     H55422   9.685   3.996   2.099 -1.8432  3.3902  0.9219
  402MOL0     H55423   9.887   3.879   2.222  0.6148  2.2719 -1.6440
  402MOL0     H55424   9.830   4.043   2.273 -0.2263  0.4480  3.4976
  402MOL0     H55425   9.747   4.065   2.511  1.9407  0.0649 -1.3764
  402MOL0     H55426   9.837   3.981   2.775  0.4769 -1.2793  1.2583
  402MOL0     H55427   9.782   3.822   2.839  0.8761  1.0385  1.0999
  402MOL0     H55428   9.660   4.031   2.913 -3.6109  1.4958 -0.2623
  402MOL0     H55429   9.612   4.068   2.756  2.6152 -0.2078 -0.3876
  402MOL0     H55430   9.428   3.926   2.850 -0.1769 -0.5754 -0.3116
  402MOL0     H55431   9.517   3.823   2.748  3.6587 -0.1092 -0.3395
  402MOL0     H55432   9.641   3.748   2.979  0.5139  0.8478  3.2489
  402MOL0     H55433   9.536   3.860   3.048  1.5023  0.5604 -0.7315
  402MOL0     H55434   9.320   3.850   3.151  0.0775 -1.8325  1.0012
  402MOL0     H55435   9.158   3.893   3.293  0.5543 -0.8590 -0.4436
  402MOL0     H55436   8.985   3.857   3.273  0.0400  0.1461  0.4445
  402MOL0     H55437   9.052   4.003   3.191  2.2886 -0.4916 -3.5757
  402MOL0     H55438   8.610   3.578   3.004  2.2175  0.4380 -1.3431
  402MOL0     H55439   8.374   3.644   3.015 -0.9829  1.2304 -1.1515
  402MOL0     H55440   8.281   4.089   2.955  0.9691  1.2449 -2.7843
  402MOL0     H55441   8.264   4.027   2.795 -0.1461  1.0334  0.2151
  402MOL0     H55442   8.058   4.014   3.023  1.0571  0.8058 -0.0066
  402MOL0     H55443   8.074   4.144   2.909  2.0256  0.4909  0.4756
  402MOL0     H55444   8.025   3.850   2.832  0.5765  0.0068 -3.2485
  402MOL0     H55445   8.034   3.993   2.721 -0.5002  1.8981 -0.0152
  402MOL0     H55446   7.842   4.099   2.848 -0.0628  0.0992 -1.9501
  402MOL0     H55447   7.816   3.955   2.933 -0.5625 -0.5820 -0.0777
  402MOL0     H55448   7.821   3.969   2.628  0.3243  1.1578  0.2400
  402MOL0     H55449   7.797   3.824   2.730  1.1923  0.4760  0.9671
  402MOL0     H55450   7.604   4.067   2.738 -3.1036 -0.2043  0.9064
  402MOL0     H55451   7.609   3.935   2.835  0.0800  1.2661 -0.5870
  402MOL0     H55452   7.446   3.848   2.708  0.5725  1.5596  1.1365
  402MOL0     H55453   7.592   3.771   2.649  2.4765  0.9219  1.1970
  402MOL0     H55454   7.487   3.845   2.458  0.4056 -1.2772  1.8968
  402MOL0     H55455   7.614   3.953   2.473 -1.3285  0.9996 -1.7234
  402MOL0     H55456   8.472   4.016   2.818  2.3281  1.2803  2.3267
  402MOL0     H55457   8.703   3.935   2.806 -0.4265 -0.6144  0.1494
  402MOL0     H55458   9.022   3.607   2.847  2.4515 -0.4706 -2.8527
  402MOL0     H55459   9.262   3.583   2.830  0.7327 -0.8996  0.4369
  402MOL0     H55460   9.035   3.580   1.522 -0.9501  0.4325 -0.0028
  402MOL0     H55461   8.834   3.621   1.383  0.5021  0.5659 -1.0215
  402MOL0     H55462   8.440   3.558   1.492  0.4394 -0.7590  1.5910
  402MOL0     H55463   8.272   3.450   1.608 -1.9091  1.4083 -1.7543
  402MOL0     H55464   8.095   3.645   1.986  0.0392 -1.0526  1.3177
  402MOL0     H55465   7.959   3.671   1.881  2.3307  2.5415  1.9052
  402MOL0     H55466   7.902   3.538   2.057 -0.1612 -0.6499 -0.0562
  402MOL0     H55467   8.039   3.430   2.022  1.8725  0.7699 -0.4196
  402MOL0     H55468   7.825   3.465   1.804 -3.7076 -2.3432  0.4899
  402MOL0     H55469   7.929   3.329   1.823 -1.1934  0.7673 -2.2179
  402MOL0     H55470   7.662   3.343   1.916 -0.4437 -2.2186  0.3704
  402MOL0     H55471   7.751   3.379   2.064 -2.5330  2.1754 -0.8216
  402MOL0     H55472   7.769   2.954   1.983  0.3141 -0.2897  0.8133
  402MOL0     H55473   8.205   3.801   1.843  1.0841  0.9398 -2.2074
  402MOL0     H55474   8.478   3.962   1.762 -0.8613 -4.4586  0.9665
  402MOL0     H55475   8.344   4.020   1.651  1.5038  3.8717  1.4555
  402MOL0     H55476   8.313   3.993   1.822 -0.7265  3.2670 -0.1524
  403MOL0     O55477   8.532   4.129   9.305 -0.0182  0.3347 -0.1903
  403MOL0     C55478   8.477   4.106   9.413 -0.8029  0.5342  0.0909
  403MOL0     O55479   8.539   4.122   9.543  0.1203 -0.8440  0.1184
  403MOL0     C55480   8.654   4.199   9.557  0.3378  0.4170 -0.2671
  403MOL0     C55481   8.711   4.290   9.466  0.0143  0.2429  0.3207
  403MOL0     C55482   8.829   4.350   9.498  0.8717 -1.4883 -0.1640
  403MOL0     C55483   8.893   4.332   9.622  0.0881 -0.3163  0.1528
  403MOL0     O55484   9.014   4.396   9.648 -1.0538  0.4399 -0.7057
  403MOL0     C55485   9.078   4.384   9.775 -0.0092 -0.5166  1.1643
  403MOL0     C55486   9.231   4.405   9.767  0.2830  0.8877  0.4702
  403MOL0     C55487   9.290   4.386   9.913 -0.3727 -0.7010  0.1622
  403MOL0     C55488   9.437   4.410   9.904 -0.3267 -0.4208 -0.6689
  403MOL0     C55489   9.499   4.404  10.047 -0.4821 -0.2145  0.2918
  403MOL0     C55490   9.647   4.441  10.051 -0.5742  0.3463  0.0113
  403MOL0     C55491   9.706   4.400  10.184  0.4736 -0.1417 -0.4201
  403MOL0     C55492   9.847   4.342  10.181  0.5145 -0.0785  0.7808
  403MOL0     N55493   9.939   4.445  10.139 -0.5782 -0.6311  0.0422
  403MOL0     C55494   9.956   4.557  10.222 -0.5583  0.0209 -0.3924
  403MOL0     C55495  10.065   4.608  10.169 -0.4654 -0.5038 -0.0359
  403MOL0     C55496  10.136   4.728  10.223 -0.1908 -0.1185 -0.0010
  403MOL0     C55497  10.284   4.685  10.254  0.1052  0.2788  0.4995
  403MOL0     C55498  10.375   4.810  10.246  0.6313  0.3811 -0.2397
  403MOL0     C55499  10.532   4.790  10.248 -0.1223  0.2486  0.7518
  403MOL0     O55500  10.579   4.746  10.374  0.3428 -0.1773 -0.4826
  403MOL0     C55501  10.705   4.775  10.409 -0.4576  0.0424  0.4668
  403MOL0     C55502  10.746   4.742  10.533 -0.5779  0.2202  0.2441
  403MOL0     C55503  10.875   4.774  10.586 -0.6662  0.4252  0.3666
  403MOL0     C55504  10.914   4.717  10.720  0.2964 -0.1536 -0.4908
  403MOL0     C55505  10.965   4.846  10.504  0.2821  0.2919  0.4757
  403MOL0     C55506  11.101   4.904  10.551 -0.1182  0.7294 -0.5586
  403MOL0     O55507  11.172   4.980  10.457  0.4695  0.7999 -0.2442
  403MOL0     C55508  11.305   5.012  10.478  0.4394  0.2026 -0.1575
  403MOL0     C55509  11.396   4.951  10.569  0.6097  0.5110  0.0828
  403MOL0     C55510  11.530   5.001  10.586 -0.0016 -0.7982 -0.5989
  403MOL0     C55511  11.573   5.120  10.526  0.3878 -0.2115 -0.0872
  403MOL0     O55512  11.700   5.175  10.556 -0.5706  0.0623  0.6790
  403MOL0     C55513  11.712   5.319  10.563  0.6806  0.3300  0.4612
  403MOL0     C55514  11.839   5.372  10.614  0.6695  0.1424 -0.3201
  403MOL0     C55515  11.872   5.517  10.596 -0.4616  0.2765  0.7340
  403MOL0     C55516  11.992   5.559  10.680  0.0743  0.4668  0.4318
  403MOL0     C55517  12.042   5.690  10.633  0.5089 -0.2422  0.4907
  403MOL0     C55518  12.131   5.771  10.728 -0.1093  0.1272  0.2928
  403MOL0     C55519  12.068   5.807  10.856 -0.0983  0.5161  0.0325
  403MOL0     C55520  12.077   5.955  10.890 -0.7203  0.8966  0.4120
  403MOL0    Cl55521  11.966   6.002  11.013 -0.4854  0.0373  0.2075
  403MOL0     C55522  11.488   5.162  10.419  0.2034  1.1886  0.7422
  403MOL0     C55523  11.354   5.116  10.402  0.8746  0.8668  0.6535
  403MOL0     O55524  11.126   4.894  10.672  0.2725  0.9637  0.2769
  403MOL0     C55525  10.921   4.884  10.368 -0.0016  0.4885 -0.7672
  403MOL0     C55526  10.795   4.843  10.323 -0.2285 -0.0849 -0.6156
  403MOL0     N55527  10.102   4.536  10.051  0.7640 -0.4812 -0.4318
  403MOL0     N55528  10.025   4.440  10.029  1.1320  0.5489  0.1809
  403MOL0     C55529   8.821   4.257   9.723 -0.1784 -1.0457 -0.0075
  403MOL0     C55530   8.699   4.193   9.688 -0.6663  0.5771  0.4828
  403MOL0     C55531   8.343   4.048   9.414  0.7447  0.7250  0.7739
  403MOL0     C55532   8.304   3.961   9.513  0.1407  0.2953  0.0249
  403MOL0     C55533   8.187   3.896   9.513 -0.0195 -0.2670 -0.0687
  403MOL0     C55534   8.082   3.923   9.418 -1.1042 -0.0605  0.1318
  403MOL0     O55535   7.963   3.859   9.441 -0.0315 -0.1121  0.0062
  403MOL0     C55536   7.847   3.897   9.362  1.0066 -0.0058  0.7718
  403MOL0     C55537   7.742   3.807   9.422 -0.0381 -0.4404  0.6856
  403MOL0     C55538   7.703   3.859   9.566  0.3542 -0.4442  0.2532
  403MOL0     C55539   7.584   3.787   9.628 -0.1231 -0.1410  0.4311
  403MOL0     C55540   7.462   3.836   9.559 -0.3537  0.8943 -0.0057
  403MOL0     C55541   7.369   3.874   9.500  0.6655  0.3526  0.1851
  403MOL0     C55542   8.116   4.000   9.308  0.1198  0.4285 -0.4960
  403MOL0     C55543   8.239   4.068   9.303 -0.4629  0.2333 -0.5300
  403MOL0     C55544   8.270   4.149   9.181  0.3048 -0.1850  0.3331
  403MOL0     H55545   8.677   4.318   9.367 -1.8983  0.2194  0.9425
  403MOL0     H55546   8.862   4.426   9.428 -2.0982  1.8595  1.7674
  403MOL0     H55547   9.074   4.285   9.821 -1.4187 -0.7653  0.5571
  403MOL0     H55548   9.028   4.464   9.831  0.6027  1.3236 -0.7845
  403MOL0     H55549   9.282   4.343   9.693 -0.6487 -0.5885  1.0299
  403MOL0     H55550   9.251   4.509   9.739 -0.3139  0.5563 -1.2794
  403MOL0     H55551   9.248   4.466   9.974  1.7528 -0.3542  1.2859
  403MOL0     H55552   9.272   4.290   9.963  1.8758 -0.7257  1.0427
  403MOL0     H55553   9.485   4.328   9.850  2.9099  1.6046 -1.1554
  403MOL0     H55554   9.471   4.494   9.842 -2.0645  0.4931 -0.4439
  403MOL0     H55555   9.484   4.302  10.083  0.7262  0.2968  2.4406
  403MOL0     H55556   9.442   4.473  10.109 -1.8254  1.6573 -2.7739
  403MOL0     H55557   9.696   4.386   9.971  1.2038  1.1344  0.4932
  403MOL0     H55558   9.649   4.550  10.041 -1.1162  0.3673  0.1355
  403MOL0     H55559   9.653   4.315  10.229 -0.1842 -0.3797 -1.6090
  403MOL0     H55560   9.699   4.481  10.258  1.3916 -2.2681  2.1920
  403MOL0     H55561   9.873   4.286  10.271  0.3550  0.0464  0.9059
  403MOL0     H55562   9.844   4.267  10.102 -2.8755  1.1614 -0.4792
  403MOL0     H55563   9.913   4.589  10.316 -0.6578 -1.1363 -0.0203
  403MOL0     H55564  10.095   4.765  10.317  0.4951  1.6348 -0.3528
  403MOL0     H55565  10.129   4.804  10.145 -0.6446 -1.5054 -1.3655
  403MOL0     H55566  10.289   4.656  10.359  0.6469  0.4169  0.5205
  403MOL0     H55567  10.329   4.608  10.190  0.4223  0.7582  0.1327
  403MOL0     H55568  10.348   4.877  10.163  0.6544  0.4038 -0.2288
  403MOL0     H55569  10.351   4.861  10.340 -1.9012  1.7053 -1.4918
  403MOL0     H55570  10.562   4.722  10.167 -1.8938  0.2898  0.0146
  403MOL0     H55571  10.566   4.888  10.212 -2.8620  0.7287 -0.8029
  403MOL0     H55572  10.666   4.692  10.586 -0.4442 -0.1087  0.1377
  403MOL0     H55573  10.924   4.799  10.791  0.9444  0.5504 -1.3702
  403MOL0     H55574  11.012   4.669  10.721 -0.1681 -1.2187  2.0140
  403MOL0     H55575  10.840   4.649  10.763 -1.7404  1.8087 -0.7376
  403MOL0     H55576  11.364   4.857  10.614  0.3053  0.9477  0.7918
  403MOL0     H55577  11.604   4.959  10.653 -0.2758  2.4066  1.9496
  403MOL0     H55578  11.683   5.365  10.468 -2.9354  1.3972  1.9306
  403MOL0     H55579  11.634   5.350  10.632 -1.9466 -1.3060 -1.5505
  403MOL0     H55580  11.840   5.344  10.719 -1.5608  1.2857  0.0488
  403MOL0     H55581  11.915   5.307  10.569 -0.5636 -2.7542  1.4948
  403MOL0     H55582  11.784   5.575  10.625 -0.7911  0.1087  0.1041
  403MOL0     H55583  11.903   5.533  10.492  0.4412 -2.0191  0.5868
  403MOL0     H55584  12.079   5.499  10.651 -0.7456  0.5667 -2.6434
  403MOL0     H55585  11.980   5.545  10.788  3.2867 -2.3755  0.5841
  403MOL0     H55586  12.105   5.682  10.544 -0.1201  1.9522 -0.1985
  403MOL0     H55587  11.958   5.757  10.615  0.5015 -0.7870 -1.7852
  403MOL0     H55588  12.161   5.861  10.673 -2.6805 -0.1646 -1.7853
  403MOL0     H55589  12.220   5.711  10.748 -2.0395 -2.6809  0.9283
  403MOL0     H55590  12.106   5.758  10.945 -2.1324  1.7971  1.7000
  403MOL0     H55591  11.961   5.783  10.858  0.1907 -0.8134  1.3252
  403MOL0     H55592  12.061   6.013  10.798  0.8031  1.1672  0.2871
  403MOL0     H55593  12.171   5.997  10.926 -1.6782  2.8847  0.7796
  403MOL0     H55594  11.533   5.234  10.352 -1.9113 -0.7751 -3.1359
  403MOL0     H55595  11.293   5.162  10.324  1.4563  3.3635  1.5545
  403MOL0     H55596  10.972   4.949  10.298  0.7119  1.8330  0.9458
  403MOL0     H55597  10.778   4.863  10.218 -2.2939 -1.4993 -0.6068
  403MOL0     H55598   8.857   4.241   9.824 -1.3477  2.9954  1.2758
  403MOL0     H55599   8.642   4.127   9.753 -0.9106 -0.1783 -0.4731
  403MOL0     H55600   8.379   3.956   9.591  2.1004  0.6197 -1.7474
  403MOL0     H55601   8.161   3.848   9.607 -1.9992  1.9487  0.6005
  403MOL0     H55602   7.820   4.001   9.383  1.9168  0.7537 -1.4998
  403MOL0     H55603   7.863   3.873   9.256 -1.3041  0.5445  0.2566
  403MOL0     H55604   7.780   3.705   9.427  0.6203 -0.3039 -0.9958
  403MOL0     H55605   7.651   3.798   9.361  0.2578 -0.5103  0.2462
  403MOL0     H55606   7.785   3.842   9.637 -0.8265 -1.4966  1.4124
  403MOL0     H55607   7.678   3.966   9.560  0.7564 -0.4193 -1.8019
  403MOL0     H55608   7.585   3.816   9.733 -1.3683  2.3282 -0.1495
  403MOL0     H55609   7.599   3.679   9.620 -2.9434 -0.5249 -1.4360
  403MOL0     H55610   7.285   3.901   9.439 -0.7553 -0.1010  1.8560
  403MOL0     H55611   8.046   4.021   9.227 -0.7060 -0.0008  0.0826
  403MOL0     H55612   8.191   4.186   9.115  1.8879 -2.2730 -3.0357
  403MOL0     H55613   8.316   4.245   9.205 -2.7613  1.6101 -0.3368
  403MOL0     H55614   8.343   4.094   9.120 -1.0527  0.0522 -1.6176
  404MOL0     O55615   5.877   2.446   2.648  0.0470 -0.9195 -0.0269
  404MOL0     C55616   5.876   2.328   2.614 -1.4621 -1.2248  0.9278
  404MOL0     O55617   5.938   2.279   2.500  0.0756 -0.1330 -0.1661
  404MOL0     C55618   6.076   2.311   2.481  0.5230  0.9322 -0.5175
  404MOL0     C55619   6.126   2.234   2.370 -0.3568 -0.0406  0.4068
  404MOL0     C55620   6.255   2.252   2.317  0.5979  0.5192  0.7084
  404MOL0     C55621   6.341   2.345   2.376  0.5844  0.4029 -0.5774
  404MOL0     O55622   6.472   2.348   2.331  0.7783 -0.0013 -0.1033
  404MOL0     C55623   6.568   2.416   2.419  0.2859  0.1013 -0.1807
  404MOL0     C55624   6.715   2.372   2.394  0.1222 -0.1527  0.2135
  404MOL0     C55625   6.725   2.356   2.241 -0.0860 -0.2442  0.0798
  404MOL0     C55626   6.871   2.314   2.208 -0.8035 -0.0127 -0.2479
  404MOL0     C55627   6.970   2.432   2.201  0.3425 -0.2192  0.5206
  404MOL0     C55628   7.114   2.390   2.148  0.0029 -0.0639  0.0000
  404MOL0     C55629   7.196   2.525   2.131  1.1024  0.2860 -0.1712
  404MOL0     C55630   7.343   2.499   2.151 -0.5836  0.1781 -0.9585
  404MOL0     N55631   7.428   2.623   2.149 -0.1784  0.3350  0.3151
  404MOL0     C55632   7.452   2.709   2.253  0.1418 -0.6151  0.5713
  404MOL0     C55633   7.516   2.817   2.191  0.6440  0.4040  0.4485
  404MOL0     C55634   7.563   2.952   2.239  0.0156 -0.4233  0.5067
  404MOL0     C55635   7.478   3.070   2.164 -0.0600 -0.9082  0.6208
  404MOL0     C55636   7.521   3.210   2.211  0.3157 -0.1685 -0.4915
  404MOL0     C55637   7.564   3.231   2.360 -0.2355  0.4897 -0.0350
  404MOL0     O55638   7.685   3.160   2.380 -0.2920 -0.3947  0.4634
  404MOL0     C55639   7.800   3.208   2.335 -0.6098  0.1247  0.6356
  404MOL0     C55640   7.900   3.110   2.342  0.6392  0.2864  0.7471
  404MOL0     C55641   8.035   3.133   2.307 -0.2761 -0.7130  0.5919
  404MOL0     C55642   8.133   3.020   2.321 -0.1759 -0.3838  0.3804
  404MOL0     C55643   8.075   3.265   2.271  0.1112  0.5122 -1.0953
  404MOL0     C55644   8.211   3.311   2.246 -0.2954  0.3743 -0.1949
  404MOL0     O55645   8.222   3.448   2.230 -0.3894  0.7392  0.0273
  404MOL0     C55646   8.353   3.497   2.200  0.2633 -0.2454  0.6274
  404MOL0     C55647   8.384   3.532   2.066  0.4523  0.8785 -0.9473
  404MOL0     C55648   8.501   3.597   2.033 -0.0718 -0.1521 -0.2013
  404MOL0     C55649   8.596   3.604   2.136 -0.3738 -1.1852 -0.0246
  404MOL0     O55650   8.715   3.664   2.098  0.0768  0.3275  0.4093
  404MOL0     C55651   8.828   3.612   2.168 -0.5368 -0.2054  1.1586
  404MOL0     C55652   8.961   3.637   2.089  0.1707  0.5456  0.3588
  404MOL0     C55653   8.998   3.784   2.092 -1.0729 -0.2689  0.5178
  404MOL0     C55654   9.092   3.799   2.211  0.3048 -0.6456  0.0334
  404MOL0     C55655   9.143   3.942   2.226  0.4052 -0.1319 -0.4068
  404MOL0     C55656   9.234   3.929   2.350 -0.7756 -0.0662 -0.4180
  404MOL0     C55657   9.325   4.052   2.369 -0.2551  0.7939 -0.6579
  404MOL0     C55658   9.410   4.049   2.491 -0.4515 -0.1113 -0.6463
  404MOL0    Cl55659   9.347   4.155   2.619  0.1789  0.0272  0.3282
  404MOL0     C55660   8.571   3.569   2.267 -0.7188 -0.3275 -0.0414
  404MOL0     C55661   8.451   3.515   2.296 -0.0278 -0.5267 -1.3209
  404MOL0     O55662   8.300   3.227   2.226  0.0890 -0.4330  0.4222
  404MOL0     C55663   7.965   3.363   2.275 -0.4144  0.2996 -0.8986
  404MOL0     C55664   7.835   3.337   2.300 -0.3733  0.3732  0.5687
  404MOL0     N55665   7.545   2.778   2.063 -0.3910 -0.4201  0.0164
  404MOL0     N55666   7.499   2.661   2.040  0.4289 -0.2681 -0.5788
  404MOL0     C55667   6.293   2.416   2.498  1.1022 -0.2171  0.0909
  404MOL0     C55668   6.163   2.394   2.550 -0.5123  0.0125  0.5118
  404MOL0     C55669   5.799   2.241   2.703  0.2319 -0.5738  0.2725
  404MOL0     C55670   5.674   2.284   2.747  0.8167 -1.6030 -0.5625
  404MOL0     C55671   5.594   2.200   2.823 -0.2913 -0.4361  0.7052
  404MOL0     C55672   5.637   2.070   2.864 -0.2077 -0.9618  0.0040
  404MOL0     O55673   5.562   1.984   2.931 -0.8063  0.6963  0.0212
  404MOL0     C55674   5.433   2.017   2.987 -0.2799 -0.1114  0.3914
  404MOL0     C55675   5.376   1.892   3.032  0.2011 -0.0768  0.4094
  404MOL0     C55676   5.440   1.843   3.162 -0.4547 -0.0620 -0.1985
  404MOL0     C55677   5.360   1.746   3.247  0.0036  0.0560 -0.0962
  404MOL0     C55678   5.248   1.813   3.305  0.3362 -1.6260 -0.0674
  404MOL0     C55679   5.173   1.886   3.373 -0.0802  0.3495 -0.0798
  404MOL0     C55680   5.761   2.030   2.826  0.3414  0.8037  0.3821
  404MOL0     C55681   5.841   2.112   2.742  0.5727 -0.2729 -0.4703
  404MOL0     C55682   5.967   2.052   2.676  0.2729  0.0894 -0.4579
  404MOL0     H55683   6.041   2.189   2.320 -1.6387  1.0653  1.5126
  404MOL0     H55684   6.297   2.196   2.234  2.3247  0.4994  1.5737
  404MOL0     H55685   6.548   2.393   2.524  0.9859 -1.3458 -0.3564
  404MOL0     H55686   6.572   2.520   2.385  3.8528 -0.0865 -0.7074
  404MOL0     H55687   6.799   2.428   2.437  1.1544 -1.0831 -0.5338
  404MOL0     H55688   6.725   2.272   2.438 -0.4893  0.9011  2.9973
  404MOL0     H55689   6.661   2.278   2.200 -1.6452 -0.0280  1.9990
  404MOL0     H55690   6.711   2.448   2.183 -0.1122  0.4592  1.1828
  404MOL0     H55691   6.922   2.250   2.281  0.2468 -2.6819 -3.0924
  404MOL0     H55692   6.869   2.263   2.111  0.5496  0.2940 -0.4561
  404MOL0     H55693   6.971   2.466   2.305 -1.5994 -2.4292  1.3372
  404MOL0     H55694   6.933   2.510   2.134  0.4505 -1.0743 -0.5592
  404MOL0     H55695   7.157   2.328   2.228  2.5161 -0.0771 -1.2437
  404MOL0     H55696   7.122   2.328   2.058  1.6778 -0.4560  0.3778
  404MOL0     H55697   7.157   2.591   2.209 -0.0402  0.5357 -0.9387
  404MOL0     H55698   7.178   2.563   2.030 -2.4714 -2.6724 -0.8527
  404MOL0     H55699   7.350   2.460   2.253  0.3641  1.6540 -0.4301
  404MOL0     H55700   7.386   2.423   2.085  2.4016  1.4196 -0.6041
  404MOL0     H55701   7.414   2.707   2.354  0.9163  1.0008  0.9281
  404MOL0     H55702   7.668   2.955   2.209 -0.0890  2.9871  0.1680
  404MOL0     H55703   7.573   2.949   2.348  2.6267 -2.0238  0.3154
  404MOL0     H55704   7.488   3.065   2.056 -1.5055 -2.8129  0.5279
  404MOL0     H55705   7.376   3.060   2.202 -0.4578  1.6872  0.4154
  404MOL0     H55706   7.590   3.252   2.137 -0.0333 -0.8686 -1.2258
  404MOL0     H55707   7.424   3.258   2.199  0.4069  0.2350  0.3383
  404MOL0     H55708   7.570   3.336   2.388 -0.7068  0.4151  0.3561
  404MOL0     H55709   7.482   3.197   2.423 -1.2732 -1.5253 -2.2688
  404MOL0     H55710   7.877   3.007   2.368  0.7112 -0.7103 -2.6839
  404MOL0     H55711   8.175   3.006   2.220 -0.3678  1.0770  0.0739
  404MOL0     H55712   8.091   2.926   2.358  0.0206 -1.2564 -1.4381
  404MOL0     H55713   8.212   3.053   2.389  2.0855  0.2749 -2.3648
  404MOL0     H55714   8.307   3.513   1.992 -1.2726  3.0602  0.1363
  404MOL0     H55715   8.526   3.638   1.936  0.3887 -0.5155 -0.2379
  404MOL0     H55716   8.826   3.669   2.261 -1.8693 -1.1169  1.7146
  404MOL0     H55717   8.825   3.504   2.187  2.0940 -1.1171 -2.4581
  404MOL0     H55718   9.037   3.568   2.125 -0.2836  0.9413  2.1972
  404MOL0     H55719   8.940   3.626   1.982  2.7139  0.6912 -0.2020
  404MOL0     H55720   8.912   3.851   2.105  0.4495  1.8069  0.5131
  404MOL0     H55721   9.056   3.816   2.005 -1.1041 -0.4217  0.4407
  404MOL0     H55722   9.176   3.730   2.199  0.1550 -0.8602  0.2119
  404MOL0     H55723   9.034   3.765   2.297 -0.5622 -2.2446 -1.1392
  404MOL0     H55724   9.200   3.973   2.138  1.9793  2.7283  1.4705
  404MOL0     H55725   9.060   4.011   2.244  0.7299  0.3186 -0.6149
  404MOL0     H55726   9.303   3.844   2.336 -0.1390  0.6723 -1.9744
  404MOL0     H55727   9.174   3.913   2.440  0.0624 -0.5975  0.0648
  404MOL0     H55728   9.263   4.141   2.357 -1.9090 -0.4892 -2.2384
  404MOL0     H55729   9.391   4.060   2.283  2.2657  1.1822  1.1941
  404MOL0     H55730   9.516   4.073   2.473 -0.6964  2.2325  0.6915
  404MOL0     H55731   9.417   3.946   2.527  0.2562  0.3866  0.7380
  404MOL0     H55732   8.652   3.588   2.337  0.5341  1.0875 -1.7546
  404MOL0     H55733   8.425   3.473   2.392 -0.7483 -2.6205 -2.3587
  404MOL0     H55734   7.993   3.467   2.260  0.3097  0.2426 -0.0540
  404MOL0     H55735   7.763   3.419   2.297  0.2653  0.9134 -1.9843
  404MOL0     H55736   6.356   2.463   2.573 -0.2859 -0.2318  1.3189
  404MOL0     H55737   6.130   2.450   2.637  0.8907 -1.5304  2.0861
  404MOL0     H55738   5.654   2.390   2.739  5.5401  0.0288  3.7476
  404MOL0     H55739   5.496   2.224   2.861 -0.4410 -1.1203  0.7638
  404MOL0     H55740   5.449   2.088   3.068  3.8538 -0.8814  0.4472
  404MOL0     H55741   5.367   2.070   2.916  0.1533 -0.1778 -0.0680
  404MOL0     H55742   5.375   1.828   2.943 -1.5218  2.5206 -1.5931
  404MOL0     H55743   5.271   1.914   3.056  1.0141  3.3570  1.3952
  404MOL0     H55744   5.536   1.799   3.133 -1.4833 -0.5831 -3.2573
  404MOL0     H55745   5.468   1.933   3.217  1.1942 -1.4521  1.3676
  404MOL0     H55746   5.408   1.727   3.344 -0.7854 -1.4779  0.0204
  404MOL0     H55747   5.341   1.653   3.192  0.4425  0.8036 -1.5830
  404MOL0     H55748   5.102   1.925   3.443 -1.0875  1.8340 -1.8627
  404MOL0     H55749   5.783   1.933   2.869 -1.1288  0.0561 -0.4577
  404MOL0     H55750   6.009   1.972   2.737  2.5699 -0.5186 -2.6683
  404MOL0     H55751   5.949   2.011   2.577  1.2553 -0.7721 -0.2883
  404MOL0     H55752   6.044   2.129   2.672 -1.0658  1.4264 -1.9750
  405MOL0     O55753   2.560   7.425   0.713 -0.0966 -0.0675  0.0230
  405MOL0     C55754   2.504   7.523   0.752  0.2166  0.0953  0.3801
  405MOL0     O55755   2.532   7.587   0.867  0.2794 -0.7779 -0.2569
  405MOL0     C55756   2.657   7.568   0.922 -0.3082 -0.5068  0.4669
  405MOL0     C55757   2.663   7.508   1.046  0.1917  0.1779 -0.2901
  405MOL0     C55758   2.790   7.493   1.100 -0.6208 -0.1100  0.3332
  405MOL0     C55759   2.913   7.532   1.040 -0.7808  0.1863 -0.5442
  405MOL0     O55760   3.042   7.513   1.089 -0.5437 -0.6248 -0.3637
  405MOL0     C55761   3.064   7.392   1.163  0.2551  0.7029  0.0165
  405MOL0     C55762   3.210   7.330   1.140 -0.4840 -0.7578  0.0050
  405MOL0     C55763   3.313   7.436   1.100 -0.7909 -0.0175  0.1944
  405MOL0     C55764   3.457   7.377   1.100 -0.4176  0.3278 -0.4936
  405MOL0     C55765   3.555   7.483   1.048  0.6227  0.1596  0.5879
  405MOL0     C55766   3.699   7.435   1.073  0.9000 -0.3034 -0.4082
  405MOL0     C55767   3.801   7.539   1.014  1.1187  0.2141  0.3099
  405MOL0     C55768   3.939   7.535   1.076  0.4435  1.1856  0.1226
  405MOL0     N55769   4.025   7.636   1.014 -0.2274 -0.2320  0.3946
  405MOL0     C55770   4.073   7.747   1.079 -0.5950 -0.3906 -0.0055
  405MOL0     C55771   4.125   7.824   0.974  1.0016  0.4130 -0.3587
  405MOL0     C55772   4.199   7.951   0.970 -0.3543 -0.2406  1.0031
  405MOL0     C55773   4.210   8.031   1.090  0.0610  0.5675 -0.2261
  405MOL0     C55774   4.073   8.085   1.121 -0.0278  0.4986 -0.5980
  405MOL0     C55775   4.057   8.104   1.277 -0.5903 -0.1384 -0.2600
  405MOL0     O55776   4.043   7.973   1.348  0.1791 -0.3837 -0.4454
  405MOL0     C55777   3.932   7.939   1.409  0.1489 -0.1318 -0.0630
  405MOL0     C55778   3.883   7.805   1.402 -0.2083 -0.4332 -0.4851
  405MOL0     C55779   3.766   7.768   1.473 -0.4484  0.7104 -0.2486
  405MOL0     C55780   3.720   7.626   1.455 -0.5732 -0.3194  0.7269
  405MOL0     C55781   3.686   7.866   1.546 -0.5463  0.0120  0.1730
  405MOL0     C55782   3.557   7.841   1.612  0.1687 -0.8377 -0.2833
  405MOL0     O55783   3.477   7.952   1.620 -0.1414  0.0034 -0.4437
  405MOL0     C55784   3.384   7.957   1.724 -0.0125 -0.1588  0.3887
  405MOL0     C55785   3.285   7.865   1.756 -0.3457  0.3639  0.7461
  405MOL0     C55786   3.212   7.887   1.875 -0.0779 -1.7941 -0.1034
  405MOL0     C55787   3.234   8.011   1.945 -0.9921 -0.1050  0.4830
  405MOL0     O55788   3.150   8.029   2.057  0.7308 -0.2293 -0.2014
  405MOL0     C55789   3.182   8.130   2.160  0.0032  0.6614  0.2926
  405MOL0     C55790   3.091   8.121   2.281 -0.8220  0.7759  0.1213
  405MOL0     C55791   3.126   8.002   2.365 -0.4433 -0.4947  0.0092
  405MOL0     C55792   3.089   8.034   2.514 -0.7729 -0.5378 -0.5792
  405MOL0     C55793   2.936   8.033   2.526 -0.3882  0.3342  0.9483
  405MOL0     C55794   2.862   7.903   2.517  0.4341  0.2114  0.0049
  405MOL0     C55795   2.859   7.811   2.644  0.7156  0.2696  1.0083
  405MOL0     C55796   2.845   7.670   2.588  0.5147  1.0511 -0.5590
  405MOL0    Cl55797   2.827   7.560   2.727 -0.1661  0.1122  0.0977
  405MOL0     C55798   3.336   8.103   1.915  0.2169 -0.3443  0.6809
  405MOL0     C55799   3.417   8.067   1.809  0.4431 -0.0597 -0.1157
  405MOL0     O55800   3.536   7.738   1.674 -0.1672 -0.0317 -0.0583
  405MOL0     C55801   3.730   8.000   1.539 -0.4621  0.2519 -0.0970
  405MOL0     C55802   3.853   8.031   1.474  0.1555 -0.9257 -0.1700
  405MOL0     N55803   4.113   7.753   0.859 -0.8444  0.0242  0.3789
  405MOL0     N55804   4.060   7.637   0.885 -0.0476 -0.2319 -0.0583
  405MOL0     C55805   2.898   7.588   0.915  0.1650 -0.2984 -0.0576
  405MOL0     C55806   2.780   7.603   0.850  0.6145 -0.0745 -0.3198
  405MOL0     C55807   2.388   7.571   0.678 -0.1699 -0.2218 -0.1232
  405MOL0     C55808   2.302   7.667   0.740 -0.5249 -0.2233  0.1687
  405MOL0     C55809   2.177   7.699   0.681 -0.0548 -0.0895  0.0002
  405MOL0     C55810   2.132   7.654   0.555 -0.6108 -0.0110 -0.3755
  405MOL0     O55811   2.002   7.685   0.522 -0.5880  0.2815 -0.0830
  405MOL0     C55812   1.928   7.623   0.424 -0.1428 -0.6182 -0.8945
  405MOL0     C55813   1.820   7.725   0.388  1.0583 -0.4062 -0.4670
  405MOL0     C55814   1.739   7.682   0.263  0.3814 -0.1671 -0.9947
  405MOL0     C55815   1.617   7.769   0.251 -0.8195  0.1005  0.4705
  405MOL0     C55816   1.548   7.712   0.133  0.3493 -0.2020 -0.0599
  405MOL0     C55817   1.505   7.680   0.029  0.1898 -0.9464 -0.7438
  405MOL0     C55818   2.226   7.565   0.487 -0.8412 -0.7069  0.6580
  405MOL0     C55819   2.351   7.529   0.546  0.8140  0.1479  0.3041
  405MOL0     C55820   2.438   7.429   0.463 -0.1971 -0.3926  0.1188
  405MOL0     H55821   2.581   7.484   1.112  1.8613 -0.9018  1.5081
  405MOL0     H55822   2.789   7.437   1.193 -3.5350  1.7453  1.5534
  405MOL0     H55823   3.005   7.304   1.135  0.1436  1.0427 -0.8356
  405MOL0     H55824   3.047   7.415   1.269  2.5340  1.0802  0.3554
  405MOL0     H55825   3.227   7.284   1.238  1.1589  1.5245  0.8878
  405MOL0     H55826   3.201   7.253   1.063  0.8324 -0.4752 -0.4557
  405MOL0     H55827   3.295   7.482   1.003 -1.4797 -2.1272 -0.7466
  405MOL0     H55828   3.313   7.508   1.182  0.2990 -1.6179  1.6898
  405MOL0     H55829   3.484   7.345   1.201 -2.4011 -0.8005 -0.2683
  405MOL0     H55830   3.462   7.292   1.032  1.7227  0.1390 -0.1941
  405MOL0     H55831   3.543   7.583   1.091  0.8136  0.1830  0.5879
  405MOL0     H55832   3.532   7.493   0.941 -1.5525  1.8478  1.1186
  405MOL0     H55833   3.711   7.436   1.182 -0.6073  4.3691 -0.0516
  405MOL0     H55834   3.710   7.334   1.034 -0.1526 -0.8839  0.7041
  405MOL0     H55835   3.763   7.639   1.033  0.8962 -0.1704  2.0728
  405MOL0     H55836   3.803   7.514   0.908  1.9045  0.4358  0.2684
  405MOL0     H55837   3.931   7.561   1.182  3.4149  0.1956  0.6907
  405MOL0     H55838   3.979   7.433   1.073 -4.5247 -1.0367  0.7810
  405MOL0     H55839   4.085   7.772   1.184  0.3248 -0.2158 -0.1430
  405MOL0     H55840   4.159   8.025   0.900 -2.0536  0.5936  2.7780
  405MOL0     H55841   4.303   7.933   0.941 -0.7401 -0.9491 -0.0036
  405MOL0     H55842   4.253   7.979   1.176  4.7112 -0.0798 -2.6272
  405MOL0     H55843   4.276   8.117   1.072  0.0528  0.5654 -0.2691
  405MOL0     H55844   4.045   8.180   1.075 -1.0462  0.8059  0.5896
  405MOL0     H55845   3.996   8.010   1.099  0.0358 -0.3381  1.7425
  405MOL0     H55846   4.143   8.156   1.319  0.1205 -1.6343  0.1871
  405MOL0     H55847   3.973   8.169   1.304  0.2763  0.4982  0.9774
  405MOL0     H55848   3.941   7.730   1.348  1.5766 -0.2387  1.0661
  405MOL0     H55849   3.758   7.556   1.531  0.2469  0.9245  1.4934
  405MOL0     H55850   3.753   7.576   1.363 -2.0207  2.6961 -1.5800
  405MOL0     H55851   3.611   7.623   1.449 -0.4711 -0.7585 -1.9783
  405MOL0     H55852   3.280   7.776   1.695  1.0407  0.2281  0.7880
  405MOL0     H55853   3.133   7.830   1.922 -0.3120 -1.4534 -0.0766
  405MOL0     H55854   3.288   8.125   2.187 -0.6884 -0.6574  3.1316
  405MOL0     H55855   3.165   8.225   2.109  2.4203 -0.3918 -2.7847
  405MOL0     H55856   3.099   8.219   2.329 -0.1965  0.5166  0.5715
  405MOL0     H55857   2.990   8.101   2.245 -0.5970 -0.8194  0.3070
  405MOL0     H55858   3.236   7.997   2.368 -0.3255  1.5557  1.8461
  405MOL0     H55859   3.088   7.908   2.326 -0.1689 -1.2127  1.3984
  405MOL0     H55860   3.127   8.132   2.546 -0.1334 -1.5135  1.8380
  405MOL0     H55861   3.130   7.965   2.588 -0.1934  0.4403  0.0390
  405MOL0     H55862   2.917   8.076   2.625  2.7703  0.3194  1.6579
  405MOL0     H55863   2.889   8.104   2.456  1.3844 -0.7201 -1.4554
  405MOL0     H55864   2.892   7.846   2.429  0.7788 -0.2322  0.4033
  405MOL0     H55865   2.755   7.920   2.506  0.4823  1.1934  0.8833
  405MOL0     H55866   2.770   7.844   2.698  1.0416 -1.6664  2.8614
  405MOL0     H55867   2.955   7.812   2.696  1.7204 -2.7873 -0.5161
  405MOL0     H55868   2.930   7.643   2.525  0.8948 -1.4527  0.8901
  405MOL0     H55869   2.759   7.655   2.522  0.6180 -1.9821 -0.1221
  405MOL0     H55870   3.347   8.196   1.969  1.2192 -1.2003  2.0226
  405MOL0     H55871   3.492   8.140   1.779  1.2713 -0.4437  0.9554
  405MOL0     H55872   3.685   8.091   1.575  1.4809  0.2327  2.6791
  405MOL0     H55873   3.882   8.134   1.487  0.5776 -0.9299 -1.0596
  405MOL0     H55874   2.991   7.597   0.860 -0.9133 -0.4358 -1.9515
  405MOL0     H55875   2.783   7.657   0.756 -0.6516 -0.6557 -0.7145
  405MOL0     H55876   2.322   7.694   0.843  1.0245 -2.0783  0.4118
  405MOL0     H55877   2.116   7.776   0.726  1.9939  1.0336  1.0131
  405MOL0     H55878   1.978   7.597   0.330  1.1616 -0.1772 -0.3457
  405MOL0     H55879   1.882   7.534   0.468  0.5967  0.1347  1.5953
  405MOL0     H55880   1.857   7.827   0.373  0.0421 -0.3062 -2.6635
  405MOL0     H55881   1.754   7.732   0.474  3.1241  2.2138  1.0739
  405MOL0     H55882   1.797   7.682   0.170  0.4410  0.8657 -0.9612
  405MOL0     H55883   1.696   7.583   0.283  1.4674 -0.4812 -0.1573
  405MOL0     H55884   1.657   7.869   0.234 -1.3909 -0.0556 -2.2041
  405MOL0     H55885   1.549   7.760   0.336  0.3343  1.0749  1.5224
  405MOL0     H55886   1.454   7.641  -0.057 -1.0064  0.2445 -0.5979
  405MOL0     H55887   2.203   7.527   0.388 -0.1546  2.1375 -0.6897
  405MOL0     H55888   2.403   7.427   0.359 -2.8132 -0.9564  0.9357
  405MOL0     H55889   2.538   7.474   0.459 -0.4314  0.1336  0.0127
  405MOL0     H55890   2.444   7.332   0.512  0.9450  1.5077  4.1948
  406MOL0     O55891   6.405   9.841   0.654  0.2124 -0.0835  0.1556
  406MOL0     C55892   6.372   9.937   0.573  0.0388 -0.2574  0.0990
  406MOL0     O55893   6.253  10.007   0.574  0.1306  0.2114  0.0939
  406MOL0     C55894   6.162   9.961   0.664 -0.1064 -0.0448  1.0091
  406MOL0     C55895   6.064   9.866   0.626 -0.7706 -0.6344  0.4980
  406MOL0     C55896   5.971   9.833   0.717  0.5130  0.5002  0.4846
  406MOL0     C55897   5.959   9.892   0.844 -0.7545 -1.0677  0.2894
  406MOL0     O55898   5.867   9.872   0.930 -0.5425 -0.0036  0.2162
  406MOL0     C55899   5.734   9.910   0.882 -0.0608  0.1543  0.2626
  406MOL0     C55900   5.702  10.048   0.940  0.7382 -0.1917  0.1953
  406MOL0     C55901   5.706  10.045   1.094  0.5174 -0.8150  0.4726
  406MOL0     C55902   5.656  10.179   1.159 -0.6093  0.7152 -0.2343
  406MOL0     C55903   5.653  10.174   1.315 -0.6556 -0.6379  0.2519
  406MOL0     C55904   5.608  10.302   1.383 -0.2882  0.4603 -0.1773
  406MOL0     C55905   5.592  10.278   1.535 -0.1833  0.7359  0.6281
  406MOL0     C55906   5.572  10.415   1.593  0.1794  0.3192 -1.0961
  406MOL0     N55907   5.536  10.393   1.737 -0.5708 -0.6318  0.0035
  406MOL0     C55908   5.613  10.339   1.838 -0.4259  0.7500 -1.0616
  406MOL0     C55909   5.534  10.285   1.939 -0.4780  0.4554 -0.4547
  406MOL0     C55910   5.592  10.222   2.064  0.6737  0.6288  0.4788
  406MOL0     C55911   5.681  10.103   2.023 -0.2773 -0.0142 -1.0275
  406MOL0     C55912   5.785  10.065   2.139  0.6942 -1.3218  0.3750
  406MOL0     C55913   5.903   9.997   2.090 -0.0328 -0.0621  0.3334
  406MOL0     O55914   5.986  10.072   1.995  0.5627 -0.4516 -0.2077
  406MOL0     C55915   6.107  10.137   2.029 -0.8013  0.2932  0.2805
  406MOL0     C55916   6.149  10.156   2.161  0.1538  0.1460 -0.0179
  406MOL0     C55917   6.289  10.179   2.194 -0.0429 -0.2706  0.7613
  406MOL0     C55918   6.334  10.183   2.339  0.7339 -0.4802  0.1141
  406MOL0     C55919   6.384  10.197   2.085  1.0789 -0.3195  0.3221
  406MOL0     C55920   6.522  10.256   2.093  0.4054 -0.5971  0.0109
  406MOL0     O55921   6.604  10.258   1.985 -0.3906 -0.0189  0.3061
  406MOL0     C55922   6.732  10.292   1.993 -1.3024 -0.0637  0.1649
  406MOL0     C55923   6.777  10.404   2.063 -0.3430 -0.4818  0.1254
  406MOL0     C55924   6.916  10.423   2.060 -0.1880  0.2147  0.3270
  406MOL0     C55925   7.007  10.330   1.994  0.1008  0.1775  0.2733
  406MOL0     O55926   7.142  10.358   1.989 -0.0876 -0.7487 -0.6414
  406MOL0     C55927   7.212  10.354   2.120 -0.2486  1.1417  0.8302
  406MOL0     C55928   7.349  10.286   2.085 -0.6249 -0.4499 -0.8800
  406MOL0     C55929   7.438  10.274   2.208  0.3750  0.2824  0.0439
  406MOL0     C55930   7.576  10.206   2.177  0.6189 -0.4749 -0.1481
  406MOL0     C55931   7.666  10.212   2.299 -0.8020  0.0246  0.7354
  406MOL0     C55932   7.595  10.151   2.422  0.3880  0.2985  0.0160
  406MOL0     C55933   7.690  10.124   2.535 -0.4691  0.1351 -0.0042
  406MOL0     C55934   7.717   9.979   2.559  0.2436  0.9785  0.2158
  406MOL0    Cl55935   7.831   9.971   2.697 -0.1581 -0.0530 -0.0499
  406MOL0     C55936   6.953  10.225   1.928 -0.4772 -0.1368 -0.0314
  406MOL0     C55937   6.815  10.213   1.921 -0.4124 -0.5267 -0.3324
  406MOL0     O55938   6.547  10.320   2.194  0.1910  0.2395 -0.2694
  406MOL0     C55939   6.340  10.175   1.955  0.0083  0.3218 -0.2821
  406MOL0     C55940   6.206  10.144   1.931 -0.0287  0.4964  1.6529
  406MOL0     N55941   5.408  10.317   1.898 -0.1370  0.3012 -1.1215
  406MOL0     N55942   5.412  10.383   1.785  0.8242  0.5034  0.1920
  406MOL0     C55943   6.057   9.982   0.881  0.5165 -0.4710 -0.2630
  406MOL0     C55944   6.156  10.017   0.794  0.0230 -0.9464  0.8662
  406MOL0     C55945   6.472   9.982   0.461  1.3970  0.4498 -0.5439
  406MOL0     C55946   6.409  10.064   0.363  0.1369  0.8251 -0.4409
  406MOL0     C55947   6.482  10.114   0.260  0.5143  0.5798  0.0816
  406MOL0     C55948   6.617  10.088   0.242 -0.0807 -0.2729 -0.2260
  406MOL0     O55949   6.667  10.148   0.129 -0.7377 -0.0151 -0.2311
  406MOL0     C55950   6.785  10.097   0.069 -0.2923  0.6362  0.7071
  406MOL0     C55951   6.910  10.168   0.131 -0.2928  0.1228  0.5897
  406MOL0     C55952   7.049  10.109   0.140  0.2769  0.1087  0.0401
  406MOL0     C55953   7.129  10.091   0.014  0.3896  0.0739  0.0278
  406MOL0     C55954   7.162  10.211  -0.059  0.8261 -0.7016 -0.0670
  406MOL0     C55955   7.182  10.308  -0.128 -0.2864 -0.5785  0.1773
  406MOL0     C55956   6.680  10.001   0.334  0.9404 -0.0208  1.2093
  406MOL0     C55957   6.608   9.943   0.444 -0.4816  0.0511  0.3248
  406MOL0     C55958   6.671   9.861   0.554  0.6897 -0.1366 -0.8600
  406MOL0     H55959   6.070   9.820   0.528  4.2628 -0.9463  0.7060
  406MOL0     H55960   5.892   9.766   0.685 -0.8197  0.7150  3.0848
  406MOL0     H55961   5.673   9.826   0.915  2.4000 -1.9977 -0.2825
  406MOL0     H55962   5.722   9.922   0.774  0.4093  1.3265  0.3231
  406MOL0     H55963   5.768  10.123   0.897 -0.4753  0.0590 -1.3384
  406MOL0     H55964   5.600  10.078   0.914  1.0116 -0.4275 -1.2718
  406MOL0     H55965   5.643   9.963   1.128 -0.2780  0.4891  2.2579
  406MOL0     H55966   5.808  10.020   1.124  0.9660  1.0286  0.6468
  406MOL0     H55967   5.717  10.264   1.128  2.0227 -0.0833  2.3012
  406MOL0     H55968   5.551  10.195   1.132 -0.8116  0.5402  0.4510
  406MOL0     H55969   5.757  10.153   1.342  0.8371  3.5925 -1.4215
  406MOL0     H55970   5.591  10.092   1.354 -4.4242 -0.2209 -4.0109
  406MOL0     H55971   5.688  10.377   1.378 -0.8885  1.0396 -1.4105
  406MOL0     H55972   5.513  10.332   1.338 -0.1350  0.1038 -0.7565
  406MOL0     H55973   5.681  10.234   1.580 -0.2155  1.6559  1.6198
  406MOL0     H55974   5.504  10.215   1.553  1.5606 -1.9034  0.4741
  406MOL0     H55975   5.667  10.469   1.584  0.2530  0.5910  0.8538
  406MOL0     H55976   5.496  10.480   1.549  0.0176  1.5471  0.8539
  406MOL0     H55977   5.721  10.324   1.847 -0.3997  2.0119  1.9038
  406MOL0     H55978   5.515  10.191   2.135 -0.1738 -0.0974 -0.7358
  406MOL0     H55979   5.650  10.302   2.112 -1.0939  2.8139 -0.8579
  406MOL0     H55980   5.610  10.024   1.997 -0.2454  0.5030 -2.7554
  406MOL0     H55981   5.754  10.133   1.947  2.5453 -0.6811  1.2442
  406MOL0     H55982   5.810  10.161   2.185 -0.3147 -0.6532 -0.4077
  406MOL0     H55983   5.748   9.997   2.216  2.3535 -1.8472  0.7405
  406MOL0     H55984   5.968   9.960   2.169 -1.3923  1.3750  2.2400
  406MOL0     H55985   5.865   9.912   2.033 -1.0436 -0.6276  1.7859
  406MOL0     H55986   6.085  10.141   2.247 -0.3367  2.1161  0.0212
  406MOL0     H55987   6.425  10.127   2.359  0.7810 -0.5356 -0.2486
  406MOL0     H55988   6.252  10.145   2.400  0.6585  1.3119  1.2070
  406MOL0     H55989   6.356  10.285   2.372  1.1361 -1.1231  1.9427
  406MOL0     H55990   6.722  10.478   2.121  1.1879 -0.0101  1.0274
  406MOL0     H55991   6.957  10.509   2.112 -0.4184  1.1739 -1.0058
  406MOL0     H55992   7.235  10.449   2.168  1.2306 -0.7144  4.1558
  406MOL0     H55993   7.149  10.297   2.189 -0.7009  0.2734 -0.2683
  406MOL0     H55994   7.325  10.190   2.040 -1.0385  0.6078 -3.0755
  406MOL0     H55995   7.393  10.349   2.006 -2.1939  1.8411 -0.0234
  406MOL0     H55996   7.375  10.221   2.281 -2.1088  1.4329 -1.1456
  406MOL0     H55997   7.456  10.374   2.247  0.5983  1.0809 -1.9871
  406MOL0     H55998   7.624  10.256   2.092 -0.8173 -0.3914 -0.9526
  406MOL0     H55999   7.567  10.102   2.145  1.4904 -0.4286 -0.5765
  406MOL0     H56000   7.756  10.152   2.282 -1.2614 -0.7573  1.0282
  406MOL0     H56001   7.697  10.312   2.331 -1.1231  0.1606  0.6271
  406MOL0     H56002   7.556  10.055   2.385  0.7343  0.1438  0.0441
  406MOL0     H56003   7.510  10.214   2.447 -1.9289 -2.9327  1.0067
  406MOL0     H56004   7.629  10.153   2.622 -0.4625 -3.0747  1.2159
  406MOL0     H56005   7.783  10.180   2.522 -0.1649  0.3017  2.3185
  406MOL0     H56006   7.766   9.940   2.470  0.7870  1.3960  0.3230
  406MOL0     H56007   7.631   9.915   2.585  1.1428  0.5396  2.3590
  406MOL0     H56008   7.023  10.163   1.873  0.5207  2.6692 -2.2056
  406MOL0     H56009   6.768  10.137   1.859 -2.4703  0.3533  0.0671
  406MOL0     H56010   6.404  10.181   1.868  0.1930 -2.2830 -0.3875
  406MOL0     H56011   6.191  10.125   1.825  2.7237  1.3757  1.0161
  406MOL0     H56012   6.052  10.026   0.980  0.8402  1.1213 -0.9227
  406MOL0     H56013   6.234  10.089   0.819  0.9523 -0.2042 -3.3609
  406MOL0     H56014   6.302  10.084   0.359 -0.5552 -2.4528 -2.8217
  406MOL0     H56015   6.430  10.180   0.191 -1.7108 -2.4720 -1.3859
  406MOL0     H56016   6.793   9.989   0.090 -0.0778  0.7247  1.0960
  406MOL0     H56017   6.784  10.121  -0.037  2.8715 -2.2512 -0.1750
  406MOL0     H56018   6.892  10.200   0.234  3.8169  3.6043  0.5295
  406MOL0     H56019   6.916  10.264   0.078  1.5972 -1.2341 -1.8369
  406MOL0     H56020   7.107  10.171   0.209  1.6054 -1.0774  0.0254
  406MOL0     H56021   7.038  10.003   0.164  0.4628 -0.2184 -1.2356
  406MOL0     H56022   7.075  10.020  -0.049 -0.1718 -1.3123  1.9851
  406MOL0     H56023   7.223  10.048   0.049 -0.2958 -2.0582 -0.5887
  406MOL0     H56024   7.187  10.387  -0.200  0.3051 -1.2413 -0.5282
  406MOL0     H56025   6.782   9.969   0.314  1.6985  2.2130  1.2530
  406MOL0     H56026   6.621   9.766   0.573  0.4003  0.4303  1.3940
  406MOL0     H56027   6.776   9.839   0.528  2.4195  3.3743  2.2034
  406MOL0     H56028   6.679   9.922   0.644  3.2678  1.5157 -2.0574
  407MOL0     O56029   5.567   8.619   0.193  0.1946  0.0315 -0.0298
  407MOL0     C56030   5.594   8.633   0.070 -0.8329 -0.4445 -0.6815
  407MOL0     O56031   5.711   8.698   0.023  0.9233  0.5180 -0.8074
  407MOL0     C56032   5.794   8.737   0.119 -0.5278 -0.2805  0.3289
  407MOL0     C56033   5.871   8.654   0.203  0.5718 -0.0927 -0.1510
  407MOL0     C56034   5.948   8.707   0.306  0.5734  0.4486  0.1814
  407MOL0     C56035   5.972   8.845   0.318  0.9191 -0.4790  0.5197
  407MOL0     O56036   6.066   8.914   0.397  0.6598 -0.1466  0.6240
  407MOL0     C56037   6.170   8.835   0.455 -0.1527 -0.2413  0.3811
  407MOL0     C56038   6.281   8.931   0.501  0.7065 -0.7656 -0.4442
  407MOL0     C56039   6.391   8.968   0.402  0.4426  1.4847  0.5326
  407MOL0     C56040   6.349   9.082   0.314 -0.4944 -0.2306 -0.0039
  407MOL0     C56041   6.450   9.131   0.212  0.2218  0.3720  1.3918
  407MOL0     C56042   6.494   9.020   0.113  0.3145 -0.2746 -0.9113
  407MOL0     C56043   6.581   9.077  -0.005  0.5027  0.6467 -0.3624
  407MOL0     C56044   6.608   8.963  -0.102 -1.0458  0.1048  0.2102
  407MOL0     N56045   6.691   8.993  -0.221  0.3813  0.0596 -0.5240
  407MOL0     C56046   6.712   8.914  -0.329 -0.2263  0.1307  0.0522
  407MOL0     C56047   6.811   8.964  -0.404 -0.4553  0.3268 -0.0564
  407MOL0     C56048   6.856   8.923  -0.537  0.1977 -0.3149 -0.8171
  407MOL0     C56049   6.760   8.999  -0.632  0.0616 -0.1336  0.2323
  407MOL0     C56050   6.817   8.982  -0.785  0.0643  0.6986 -0.1265
  407MOL0     C56051   6.775   9.105  -0.865  0.1146  0.3383  0.0753
  407MOL0     O56052   6.828   9.225  -0.812  0.2305 -0.3780  0.0404
  407MOL0     C56053   6.955   9.253  -0.855  0.9658 -0.1950  0.3039
  407MOL0     C56054   7.000   9.259  -0.986  0.2941 -0.5513 -0.2866
  407MOL0     C56055   7.139   9.261  -1.018  0.0703  0.8239 -1.0935
  407MOL0     C56056   7.179   9.236  -1.163  0.3870  0.4906 -0.1406
  407MOL0     C56057   7.234   9.263  -0.907 -0.0456  0.5732  0.1296
  407MOL0     C56058   7.381   9.279  -0.921 -0.0332  1.5681  0.2488
  407MOL0     O56059   7.450   9.274  -0.799 -0.3604 -0.3318 -0.1159
  407MOL0     C56060   7.588   9.290  -0.781  0.2497  0.0964 -0.2625
  407MOL0     C56061   7.689   9.247  -0.861 -0.6194  1.1217 -0.5250
  407MOL0     C56062   7.825   9.287  -0.839  0.2258 -0.2167  0.7512
  407MOL0     C56063   7.861   9.372  -0.739 -0.2399 -0.5387  0.2216
  407MOL0     O56064   7.991   9.414  -0.714  0.0724  0.6719 -0.3124
  407MOL0     C56065   8.025   9.451  -0.582  0.3516 -0.8054  0.0166
  407MOL0     C56066   8.179   9.465  -0.564  0.3174  0.7005 -0.4353
  407MOL0     C56067   8.224   9.592  -0.627 -0.4354  0.7163 -0.1456
  407MOL0     C56068   8.373   9.602  -0.643 -0.5400  0.8086 -0.4953
  407MOL0     C56069   8.417   9.700  -0.743 -0.9094 -0.2589  1.1863
  407MOL0     C56070   8.570   9.723  -0.741  0.7103 -0.6071 -0.2334
  407MOL0     C56071   8.626   9.809  -0.858  0.6034  0.1461 -0.2498
  407MOL0     C56072   8.566   9.948  -0.871  0.4745  0.2736 -0.2611
  407MOL0    Cl56073   8.600  10.055  -0.732 -0.3030  0.0196  0.1520
  407MOL0     C56074   7.758   9.437  -0.665  0.7725 -0.2067 -0.9954
  407MOL0     C56075   7.628   9.388  -0.680 -0.2266  0.7943  0.0046
  407MOL0     O56076   7.432   9.285  -1.030  0.7983 -0.0273  0.9402
  407MOL0     C56077   7.178   9.273  -0.776  0.0538  0.0571 -0.0170
  407MOL0     C56078   7.041   9.263  -0.747  0.4033 -0.3411  0.5440
  407MOL0     N56079   6.844   9.088  -0.348  0.5053  0.1604 -0.3249
  407MOL0     N56080   6.770   9.105  -0.237  0.1118  0.7818 -0.0118
  407MOL0     C56081   5.895   8.924   0.237 -0.8233 -0.1052  0.4678
  407MOL0     C56082   5.805   8.879   0.139  0.3099  0.1409  0.6235
  407MOL0     C56083   5.486   8.594  -0.024  0.8527 -0.5453 -0.3279
  407MOL0     C56084   5.395   8.499   0.027 -1.0466  0.3897  0.7130
  407MOL0     C56085   5.291   8.469  -0.051  1.1019  0.3035 -0.1109
  407MOL0     C56086   5.265   8.519  -0.176  0.0235  0.6606 -0.8748
  407MOL0     O56087   5.151   8.480  -0.241  0.5724  0.1313  0.8026
  407MOL0     C56088   5.023   8.515  -0.194  0.5056 -0.2697  0.2777
  407MOL0     C56089   4.903   8.497  -0.297 -0.1218 -0.5392  0.0692
  407MOL0     C56090   4.893   8.362  -0.364  0.0505  0.6316  0.6229
  407MOL0     C56091   4.798   8.346  -0.483  0.7271  0.3654 -0.9456
  407MOL0     C56092   4.845   8.409  -0.606 -0.1154  0.1898  0.3423
  407MOL0     C56093   4.869   8.472  -0.709  0.2298  0.0347  0.1229
  407MOL0     C56094   5.358   8.606  -0.229 -1.0528  0.0572  0.7995
  407MOL0     C56095   5.466   8.651  -0.152 -0.2453 -0.2182  0.1774
  407MOL0     C56096   5.566   8.757  -0.213 -0.4510  0.0317  0.0873
  407MOL0     H56097   5.868   8.549   0.177 -1.5927  0.6873 -3.8279
  407MOL0     H56098   5.989   8.644   0.385  0.7121 -1.4243 -1.3238
  407MOL0     H56099   6.199   8.754   0.386 -1.7978 -0.1344 -0.4894
  407MOL0     H56100   6.130   8.779   0.540 -1.4483  0.6489  0.3803
  407MOL0     H56101   6.228   9.016   0.546 -0.2581 -2.4853  1.8118
  407MOL0     H56102   6.328   8.873   0.580  2.1224 -1.1775 -1.5495
  407MOL0     H56103   6.482   8.991   0.458  1.1548 -1.5143  0.7658
  407MOL0     H56104   6.416   8.884   0.337  0.9331  0.9101  1.4457
  407MOL0     H56105   6.260   9.054   0.257 -0.6387 -1.2875  0.6995
  407MOL0     H56106   6.324   9.166   0.380  0.6124 -1.3902  2.0217
  407MOL0     H56107   6.542   9.171   0.256  3.1356 -3.9822  0.0037
  407MOL0     H56108   6.403   9.203   0.145 -0.0801  1.3071  2.5875
  407MOL0     H56109   6.551   8.942   0.166 -0.0875 -0.9496 -1.4604
  407MOL0     H56110   6.399   8.977   0.082  0.6993 -3.6784  2.0054
  407MOL0     H56111   6.678   9.111   0.031  0.6658 -0.8438  0.7166
  407MOL0     H56112   6.522   9.151  -0.060  0.5872 -1.0918 -2.9921
  407MOL0     H56113   6.660   8.884  -0.048  4.4189  1.3777 -2.4400
  407MOL0     H56114   6.516   8.927  -0.149  0.0222 -1.1115 -1.0350
  407MOL0     H56115   6.646   8.840  -0.372  0.4676 -0.4553 -0.0326
  407MOL0     H56116   6.854   8.814  -0.542  0.5959 -0.3043 -1.2991
  407MOL0     H56117   6.955   8.966  -0.559 -0.9734  2.4555 -1.0254
  407MOL0     H56118   6.657   8.962  -0.629  0.6735 -2.4185 -2.2545
  407MOL0     H56119   6.765   9.106  -0.611  4.2394 -0.5168  2.1516
  407MOL0     H56120   6.926   8.985  -0.775 -0.0941  3.6172  2.0302
  407MOL0     H56121   6.790   8.891  -0.839  0.8580  1.2825 -1.5761
  407MOL0     H56122   6.807   9.094  -0.970  0.7917 -0.7154  0.3859
  407MOL0     H56123   6.666   9.101  -0.858  0.0909 -3.0227 -0.5713
  407MOL0     H56124   6.930   9.243  -1.068  0.4595  0.9406 -0.7393
  407MOL0     H56125   7.260   9.163  -1.163 -0.1066 -0.0709 -1.0699
  407MOL0     H56126   7.217   9.328  -1.209  0.2956  0.9521  0.6816
  407MOL0     H56127   7.098   9.199  -1.226 -0.0692 -0.3938  0.9231
  407MOL0     H56128   7.675   9.173  -0.939  1.0971 -0.8326  0.8810
  407MOL0     H56129   7.911   9.252  -0.895 -0.8037 -0.3634 -0.7957
  407MOL0     H56130   7.982   9.551  -0.577  1.5525 -0.1567 -1.7220
  407MOL0     H56131   7.983   9.383  -0.507  1.9988 -2.0686 -0.1363
  407MOL0     H56132   8.202   9.452  -0.458  2.5597  0.9061 -0.8485
  407MOL0     H56133   8.211   9.372  -0.613 -0.0675  0.6445 -0.5856
  407MOL0     H56134   8.184   9.674  -0.566 -0.9031  0.2703  0.1608
  407MOL0     H56135   8.177   9.596  -0.726 -0.9464 -0.1915  0.0505
  407MOL0     H56136   8.412   9.502  -0.660  0.3480  1.4049 -2.2655
  407MOL0     H56137   8.406   9.624  -0.541  0.7156 -1.5229 -0.3433
  407MOL0     H56138   8.381   9.663  -0.840 -0.5203 -0.3511  1.0762
  407MOL0     H56139   8.367   9.794  -0.718  0.5878  0.5159  1.3674
  407MOL0     H56140   8.615   9.624  -0.747  1.1395 -0.3605 -1.3214
  407MOL0     H56141   8.592   9.759  -0.640 -0.3733  2.3057 -0.9217
  407MOL0     H56142   8.606   9.758  -0.953 -1.0525  0.3002 -0.0119
  407MOL0     H56143   8.736   9.812  -0.854  0.6356 -0.4604 -0.5560
  407MOL0     H56144   8.459   9.954  -0.889  0.7005  0.7882 -1.6156
  407MOL0     H56145   8.612   9.985  -0.964 -1.0706 -0.5561 -1.3984
  407MOL0     H56146   7.771   9.509  -0.585  1.0020 -1.4047  0.0794
  407MOL0     H56147   7.548   9.431  -0.621 -1.4152  0.1405 -1.0820
  407MOL0     H56148   7.234   9.280  -0.682 -4.6346  0.7911  3.0434
  407MOL0     H56149   7.008   9.247  -0.645  0.8517 -0.4961  0.6663
  407MOL0     H56150   5.902   9.032   0.236  1.6454 -0.2149  0.3855
  407MOL0     H56151   5.737   8.944   0.085 -0.9276  0.3889  2.3958
  407MOL0     H56152   5.410   8.448   0.122  0.2743  1.4627  1.1130
  407MOL0     H56153   5.223   8.392  -0.016  1.4319  0.3630  0.6934
  407MOL0     H56154   5.007   8.460  -0.101  2.6376 -0.5230  0.5544
  407MOL0     H56155   5.021   8.623  -0.175  1.9886  0.2778 -2.2416
  407MOL0     H56156   4.909   8.569  -0.379 -0.1824 -1.8627 -1.1482
  407MOL0     H56157   4.813   8.522  -0.241 -0.6001  0.1604 -0.9718
  407MOL0     H56158   4.989   8.331  -0.405 -0.3004 -0.9190  0.9364
  407MOL0     H56159   4.880   8.291  -0.282  0.4766  1.6597  1.6091
  407MOL0     H56160   4.700   8.385  -0.455 -0.3257 -0.2852 -3.3936
  407MOL0     H56161   4.781   8.239  -0.501  0.1315  0.5385 -1.4770
  407MOL0     H56162   4.887   8.516  -0.804  1.0655  0.4043  0.4456
  407MOL0     H56163   5.350   8.644  -0.330 -1.2104 -4.1936 -0.9834
  407MOL0     H56164   5.673   8.736  -0.217 -0.9123 -2.7885  0.7193
  407MOL0     H56165   5.546   8.780  -0.318  0.1215 -0.8777 -0.2325
  407MOL0     H56166   5.550   8.849  -0.156 -1.4027 -0.9922  1.5367
  408MOL0     O56167   5.620   8.355   5.733 -0.2559  0.0725 -0.2907
  408MOL0     C56168   5.544   8.455   5.733  0.5151 -0.3644 -0.3087
  408MOL0     O56169   5.572   8.588   5.711 -0.8951 -0.3199 -0.5048
  408MOL0     C56170   5.708   8.611   5.695 -0.1763 -0.6287 -0.7565
  408MOL0     C56171   5.789   8.626   5.810 -0.0368 -0.7495 -0.1288
  408MOL0     C56172   5.928   8.653   5.796 -0.3805 -0.7067  0.5778
  408MOL0     C56173   5.991   8.662   5.668  0.4662  0.4725  0.0779
  408MOL0     O56174   6.125   8.705   5.669  0.2423 -0.0903  0.2320
  408MOL0     C56175   6.173   8.721   5.536  0.2805  0.4825 -0.1724
  408MOL0     C56176   6.331   8.729   5.545 -0.2003  0.1171  0.2260
  408MOL0     C56177   6.404   8.747   5.406  0.1830 -0.1907 -0.2836
  408MOL0     C56178   6.544   8.798   5.420 -0.4108  0.5651 -0.4792
  408MOL0     C56179   6.625   8.840   5.294  0.2428  0.3774  0.1177
  408MOL0     C56180   6.571   8.943   5.198  0.6596 -0.7514 -0.0311
  408MOL0     C56181   6.661   8.959   5.075  0.1336  0.3241 -1.1226
  408MOL0     C56182   6.801   8.996   5.098  0.3292 -0.2871  0.4269
  408MOL0     N56183   6.880   9.007   4.970 -0.5935  0.0622 -0.5466
  408MOL0     C56184   6.883   9.100   4.872  0.1360 -0.5277 -0.1831
  408MOL0     C56185   6.994   9.071   4.798 -0.6437  0.3249 -0.1710
  408MOL0     C56186   7.068   9.145   4.688 -0.2393  0.6262  0.0153
  408MOL0     C56187   7.127   9.049   4.583  1.0756  0.2578  0.6742
  408MOL0     C56188   7.196   9.125   4.464 -0.2713 -0.8009 -0.8548
  408MOL0     C56189   7.343   9.145   4.503  0.2259  0.9976 -0.4906
  408MOL0     O56190   7.397   9.243   4.414  0.3947  0.4182  0.3170
  408MOL0     C56191   7.522   9.284   4.434  0.4704  0.4786  0.2654
  408MOL0     C56192   7.587   9.327   4.317  0.9450  0.0613  0.2636
  408MOL0     C56193   7.715   9.379   4.317 -0.0455  0.1570 -0.9326
  408MOL0     C56194   7.774   9.423   4.180  0.2424  0.5928 -0.8822
  408MOL0     C56195   7.787   9.380   4.436 -0.1311 -0.1301 -0.7357
  408MOL0     C56196   7.925   9.425   4.451 -0.5910 -0.2846  0.5415
  408MOL0     O56197   8.025   9.411   4.350 -0.5775 -0.4049  0.8396
  408MOL0     C56198   8.149   9.460   4.388  0.8697 -0.5237  0.2520
  408MOL0     C56199   8.227   9.401   4.486  0.1968  0.0083 -0.0958
  408MOL0     C56200   8.359   9.436   4.492 -0.3897 -0.7773  0.5371
  408MOL0     C56201   8.401   9.550   4.421 -0.0912  0.5891 -0.3357
  408MOL0     O56202   8.521   9.614   4.450  0.1744 -1.0236  0.4623
  408MOL0     C56203   8.591   9.593   4.575  0.2341 -0.4360 -1.1246
  408MOL0     C56204   8.737   9.634   4.566  0.0630 -0.1589  0.0683
  408MOL0     C56205   8.805   9.605   4.706  0.2755 -0.8566 -0.1249
  408MOL0     C56206   8.935   9.683   4.740  0.0827 -0.8627  0.0124
  408MOL0     C56207   8.984   9.635   4.869  0.2216 -0.0997 -0.4607
  408MOL0     C56208   9.116   9.689   4.908 -0.0981  0.1111 -0.0412
  408MOL0     C56209   9.168   9.646   5.047 -0.1082 -0.8062  0.3770
  408MOL0     C56210   9.311   9.694   5.052  0.4445 -0.1201  1.7303
  408MOL0    Cl56211   9.360   9.668   5.211 -0.2380 -0.2737  0.1557
  408MOL0     C56212   8.321   9.612   4.324 -0.1181 -0.5144  0.4983
  408MOL0     C56213   8.200   9.561   4.301 -0.9396  0.0516 -0.8694
  408MOL0     O56214   7.950   9.463   4.565 -0.0784 -0.1392 -0.9016
  408MOL0     C56215   7.720   9.338   4.558  0.6355  0.0858 -0.5812
  408MOL0     C56216   7.592   9.281   4.551  0.6470  0.6695 -1.4665
  408MOL0     N56217   7.043   8.953   4.843 -0.2304  0.0616  0.0973
  408MOL0     N56218   6.981   8.912   4.948 -0.1052 -0.1427 -0.2623
  408MOL0     C56219   5.906   8.648   5.556 -0.0886 -0.5768 -0.5540
  408MOL0     C56220   5.766   8.624   5.572 -0.2158  0.6113  0.9540
  408MOL0     C56221   5.403   8.423   5.755  0.0615 -0.9332  0.0093
  408MOL0     C56222   5.370   8.359   5.874 -0.1846  0.7452  0.1667
  408MOL0     C56223   5.243   8.305   5.899 -0.1971 -0.2970  0.5161
  408MOL0     C56224   5.137   8.341   5.811 -0.0906  0.5562 -0.2140
  408MOL0     O56225   4.999   8.326   5.831  0.0399 -0.0073  0.2636
  408MOL0     C56226   4.957   8.308   5.972 -0.0849 -0.7711  0.2472
  408MOL0     C56227   4.944   8.156   6.011  0.3930 -0.3002 -0.4878
  408MOL0     C56228   4.888   8.156   6.159 -0.4592  0.3063 -0.2677
  408MOL0     C56229   4.748   8.215   6.186  0.8365  0.1944  0.1712
  408MOL0     C56230   4.651   8.164   6.086  0.4776 -0.1866  0.0877
  408MOL0     C56231   4.567   8.120   6.003 -0.5735 -0.3393  0.0983
  408MOL0     C56232   5.163   8.407   5.691 -0.9402  0.8164  0.0376
  408MOL0     C56233   5.297   8.427   5.653 -0.3290 -0.3785  0.0376
  408MOL0     C56234   5.326   8.483   5.514 -0.3053  0.1217  0.2030
  408MOL0     H56235   5.738   8.614   5.905  0.4581 -1.2142  0.0782
  408MOL0     H56236   5.985   8.671   5.886  2.1222  0.9857 -1.1858
  408MOL0     H56237   6.125   8.804   5.483 -1.5080 -1.3823 -1.6352
  408MOL0     H56238   6.150   8.632   5.475 -1.4067  1.3595 -0.8776
  408MOL0     H56239   6.363   8.810   5.611  1.2883  1.8455 -2.4338
  408MOL0     H56240   6.371   8.634   5.582 -1.8699 -0.8929 -0.4293
  408MOL0     H56241   6.411   8.649   5.358 -2.5786 -0.8991  0.6009
  408MOL0     H56242   6.344   8.815   5.345  1.0767  1.2445  0.3899
  408MOL0     H56243   6.534   8.880   5.492  0.1517  2.4934 -2.4984
  408MOL0     H56244   6.598   8.720   5.475  0.2413  2.5973  1.9817
  408MOL0     H56245   6.647   8.746   5.244  1.8390  0.2161  1.0663
  408MOL0     H56246   6.713   8.887   5.339  0.1124 -1.3713  2.4183
  408MOL0     H56247   6.471   8.913   5.168  0.3345 -0.1287  0.4012
  408MOL0     H56248   6.570   9.040   5.248  2.1514 -0.6356 -0.1804
  408MOL0     H56249   6.613   9.033   5.010  0.0503 -0.6442 -2.1862
  408MOL0     H56250   6.660   8.860   5.028 -6.1095 -0.6191  0.1719
  408MOL0     H56251   6.812   9.093   5.148  2.3485 -0.4065  0.3200
  408MOL0     H56252   6.856   8.918   5.153  0.8829 -0.3319 -0.1777
  408MOL0     H56253   6.821   9.189   4.862 -1.3451 -1.6436 -1.7189
  408MOL0     H56254   7.148   9.207   4.729  1.9768 -3.4387  2.3932
  408MOL0     H56255   6.994   9.216   4.648 -1.0502  2.6991  4.5729
  408MOL0     H56256   7.203   8.981   4.623  1.7303  0.9995  0.7154
  408MOL0     H56257   7.052   8.984   4.538  1.5488 -0.8971  1.5018
  408MOL0     H56258   7.199   9.061   4.375  2.1699 -0.1873 -1.3111
  408MOL0     H56259   7.147   9.219   4.437  0.7410 -0.7281 -2.6147
  408MOL0     H56260   7.337   9.186   4.604 -1.2322 -1.0339  0.2964
  408MOL0     H56261   7.397   9.050   4.506 -1.5294 -0.0191 -0.0726
  408MOL0     H56262   7.536   9.333   4.222  1.3215 -1.3379 -0.0480
  408MOL0     H56263   7.862   9.363   4.153  0.1970 -0.0405  0.3014
  408MOL0     H56264   7.791   9.530   4.176  0.6142  0.8231  3.0958
  408MOL0     H56265   7.702   9.409   4.098 -0.6324 -1.3330  0.1470
  408MOL0     H56266   8.190   9.317   4.544 -1.2217  0.5626 -0.1698
  408MOL0     H56267   8.432   9.374   4.542 -0.0140 -1.5396 -0.9037
  408MOL0     H56268   8.539   9.647   4.654 -0.4341  0.2574 -2.0090
  408MOL0     H56269   8.592   9.489   4.608 -0.9580 -0.1492 -0.0996
  408MOL0     H56270   8.782   9.572   4.488 -0.2095 -0.0078 -0.2113
  408MOL0     H56271   8.746   9.739   4.537  1.5786 -0.2760  0.0328
  408MOL0     H56272   8.828   9.498   4.711  1.4436 -0.5495  1.8561
  408MOL0     H56273   8.737   9.614   4.791  2.3527 -2.3371  1.8141
  408MOL0     H56274   8.927   9.792   4.736 -0.3333 -0.9380 -2.2415
  408MOL0     H56275   9.008   9.662   4.662  1.8181 -0.5267  1.4772
  408MOL0     H56276   8.897   9.654   4.931 -1.0285 -2.0953 -1.4982
  408MOL0     H56277   8.984   9.526   4.872 -2.0544 -0.1300  1.2469
  408MOL0     H56278   9.124   9.796   4.888  1.8216  0.1333  0.7146
  408MOL0     H56279   9.181   9.654   4.827  1.4273 -0.6204  1.4479
  408MOL0     H56280   9.166   9.539   5.069 -0.5272 -0.3935  2.5028
  408MOL0     H56281   9.113   9.705   5.120  0.6249 -0.0596  0.3500
  408MOL0     H56282   9.315   9.801   5.030  1.5011 -0.2385  1.3195
  408MOL0     H56283   9.372   9.640   4.980 -1.6499  1.2790 -1.2997
  408MOL0     H56284   8.366   9.694   4.269  0.2928 -1.0004  0.1056
  408MOL0     H56285   8.138   9.599   4.220  0.7652  1.1168 -1.7183
  408MOL0     H56286   7.770   9.337   4.655 -2.4142 -0.2163  1.1172
  408MOL0     H56287   7.544   9.245   4.641  0.6832 -1.4565 -2.2258
  408MOL0     H56288   5.937   8.657   5.452  0.0654 -2.8557 -0.7596
  408MOL0     H56289   5.698   8.614   5.489 -1.3150 -1.8569  2.0517
  408MOL0     H56290   5.445   8.343   5.951 -1.2708  0.8196  1.2685
  408MOL0     H56291   5.236   8.246   5.990  0.1122  1.3611  1.6562
  408MOL0     H56292   5.031   8.343   6.045  2.2422 -4.1702 -0.2315
  408MOL0     H56293   4.861   8.360   5.982  0.7211  0.6625  0.8226
  408MOL0     H56294   5.036   8.096   6.013 -0.2321 -1.2797  0.2560
  408MOL0     H56295   4.877   8.110   5.938 -1.9076  1.8851  0.1151
  408MOL0     H56296   4.890   8.051   6.191 -0.5192  1.1208  2.7290
  408MOL0     H56297   4.951   8.207   6.233 -3.9520  1.2843  2.3127
  408MOL0     H56298   4.746   8.324   6.186 -2.2146  0.2350 -1.5551
  408MOL0     H56299   4.711   8.172   6.279 -3.6857  0.8470 -1.0941
  408MOL0     H56300   4.505   8.080   5.925  1.4092  0.2902 -1.9163
  408MOL0     H56301   5.081   8.437   5.626  0.7130  2.2081 -1.5136
  408MOL0     H56302   5.348   8.590   5.520 -2.2195  0.7555 -2.3646
  408MOL0     H56303   5.421   8.439   5.480 -0.3552  1.2060 -1.4530
  408MOL0     H56304   5.257   8.463   5.431  0.3833  2.3222 -0.9588
  409MOL0     O56305   7.141  11.077   7.239 -0.0308  1.1744  0.1550
  409MOL0     C56306   7.075  11.087   7.133  0.0787  0.5632 -1.0310
  409MOL0     O56307   7.111  11.050   7.005  0.5406  0.7749  0.4247
  409MOL0     C56308   7.214  10.966   6.983 -0.9480 -0.1276 -0.5603
  409MOL0     C56309   7.210  10.831   6.944  0.5040  0.6637 -0.4471
  409MOL0     C56310   7.318  10.751   6.914 -0.2888  0.0531  0.1242
  409MOL0     C56311   7.448  10.815   6.909  0.7086  0.4132 -0.0077
  409MOL0     O56312   7.555  10.742   6.858 -0.2962  0.2158  0.6192
  409MOL0     C56313   7.531  10.690   6.718  0.4149  0.0080 -1.2873
  409MOL0     C56314   7.651  10.622   6.657  1.0298  0.4603 -0.3333
  409MOL0     C56315   7.764  10.722   6.636 -0.3897  0.0404 -0.4237
  409MOL0     C56316   7.897  10.665   6.604  0.0007  0.0689 -0.1578
  409MOL0     C56317   7.902  10.612   6.464 -0.2364 -0.2897  0.0864
  409MOL0     C56318   8.033  10.533   6.437 -0.2886 -0.7551 -0.4286
  409MOL0     C56319   8.167  10.598   6.470 -0.3181 -0.0754  0.1053
  409MOL0     C56320   8.199  10.715   6.371 -0.2076 -0.5389 -0.6930
  409MOL0     N56321   8.323  10.788   6.404 -0.5526 -0.4603  0.1835
  409MOL0     C56322   8.449  10.730   6.415 -0.1549 -0.6991  0.2054
  409MOL0     C56323   8.528  10.834   6.453  0.5961 -0.8618 -0.4850
  409MOL0     C56324   8.673  10.852   6.492 -0.5760 -0.2840 -0.1526
  409MOL0     C56325   8.751  10.892   6.376  0.0937 -0.0538 -0.3172
  409MOL0     C56326   8.892  10.941   6.413 -0.5404 -0.5106 -0.0433
  409MOL0     C56327   8.979  10.941   6.284  0.8916  0.4151  0.2744
  409MOL0     O56328   9.102  10.998   6.330  0.2780  1.2127 -0.2715
  409MOL0     C56329   9.208  11.015   6.247  0.5183  0.1126  0.4886
  409MOL0     C56330   9.212  10.974   6.117 -0.3483 -0.9723  0.4274
  409MOL0     C56331   9.328  10.996   6.042  0.0115  0.1680 -0.2435
  409MOL0     C56332   9.331  10.968   5.886 -0.1769 -0.1978 -0.1128
  409MOL0     C56333   9.446  11.044   6.108 -0.4720 -0.6902  0.6488
  409MOL0     C56334   9.577  11.069   6.043  0.7957 -0.2114  0.7788
  409MOL0     O56335   9.670  11.136   6.118 -0.3696 -0.4233  0.3747
  409MOL0     C56336   9.772  11.201   6.047  0.5412  0.5901  0.6822
  409MOL0     C56337   9.905  11.169   6.074 -0.1368  0.2818 -0.0608
  409MOL0     C56338  10.012  11.248   6.022  0.4243 -0.3496 -0.3570
  409MOL0     C56339   9.982  11.351   5.944  0.4315 -0.2171  0.3728
  409MOL0     O56340  10.082  11.438   5.911  0.4730 -0.2339 -0.0857
  409MOL0     C56341  10.120  11.420   5.776  0.3936 -0.4827 -0.2482
  409MOL0     C56342  10.233  11.520   5.756  0.3131  0.1750  0.0796
  409MOL0     C56343  10.265  11.534   5.603  0.0964  0.3080  0.2982
  409MOL0     C56344  10.405  11.611   5.600 -0.8335 -0.8741 -0.4467
  409MOL0     C56345  10.467  11.640   5.467  0.6921  0.3914 -0.3540
  409MOL0     C56346  10.368  11.693   5.358  0.8681  0.0321 -0.7426
  409MOL0     C56347  10.437  11.733   5.236  1.1254  0.5455  0.2678
  409MOL0     C56348  10.335  11.768   5.130  0.2136 -0.1900  0.1990
  409MOL0    Cl56349  10.268  11.939   5.155  0.1954  0.0377 -0.0151
  409MOL0     C56350   9.848  11.369   5.902 -0.5298  0.6497  0.7000
  409MOL0     C56351   9.740  11.299   5.956 -0.6219 -0.5876  0.5948
  409MOL0     O56352   9.595  11.031   5.925  0.5565 -0.5306  0.2371
  409MOL0     C56353   9.438  11.081   6.245 -0.5308  0.6981 -0.1656
  409MOL0     C56354   9.318  11.058   6.312  0.3092 -0.6683 -0.2829
  409MOL0     N56355   8.447  10.946   6.454  0.0135  0.2615 -1.0256
  409MOL0     N56356   8.317  10.918   6.442 -0.3958  0.0459  0.2088
  409MOL0     C56357   7.457  10.947   6.959 -0.5415  0.1582 -0.6591
  409MOL0     C56358   7.340  11.020   6.996 -0.6330  0.4196 -0.6109
  409MOL0     C56359   6.947  11.155   7.138 -0.1280  0.4083  0.3710
  409MOL0     C56360   6.942  11.258   7.241  0.0929 -0.3106 -0.0592
  409MOL0     C56361   6.831  11.340   7.250  0.3613 -0.3432  0.5758
  409MOL0     C56362   6.720  11.317   7.173 -0.2557  0.8586 -0.5280
  409MOL0     O56363   6.605  11.388   7.166  0.0305  0.6152 -0.2117
  409MOL0     C56364   6.580  11.496   7.263 -0.3445  0.3884  0.3771
  409MOL0     C56365   6.463  11.589   7.231 -0.3224  0.8296  0.1007
  409MOL0     C56366   6.343  11.486   7.216 -0.4003  0.3394  0.9986
  409MOL0     C56367   6.198  11.540   7.187 -0.0541 -0.0300 -0.4815
  409MOL0     C56368   6.164  11.657   7.270 -0.1610  0.2526 -0.0004
  409MOL0     C56369   6.114  11.758   7.321 -0.0288 -0.1285  0.0352
  409MOL0     C56370   6.717  11.217   7.078  0.6236 -0.2193  0.3476
  409MOL0     C56371   6.831  11.135   7.059 -0.1873  1.1385  0.2756
  409MOL0     C56372   6.813  11.010   6.971 -0.1486  0.6131  0.1015
  409MOL0     H56373   7.113  10.785   6.929  0.6510 -1.0732  3.0006
  409MOL0     H56374   7.289  10.648   6.895 -0.5960 -0.3449  2.4438
  409MOL0     H56375   7.516  10.776   6.652  2.7362  1.8974  0.4726
  409MOL0     H56376   7.452  10.614   6.717  0.0735  0.3651 -1.7904
  409MOL0     H56377   7.695  10.547   6.722  2.0672  1.4759  0.1747
  409MOL0     H56378   7.610  10.581   6.564 -0.5807 -1.0548  0.9957
  409MOL0     H56379   7.729  10.786   6.555  1.4045  2.4871  0.6203
  409MOL0     H56380   7.779  10.786   6.723  0.8168  1.2151 -1.4723
  409MOL0     H56381   7.974  10.743   6.609  0.6997 -0.4578 -1.9413
  409MOL0     H56382   7.920  10.582   6.671 -1.1735 -0.6028 -0.5554
  409MOL0     H56383   7.906  10.700   6.399 -0.7986  0.8843  1.5876
  409MOL0     H56384   7.812  10.559   6.432 -1.1066  0.5235  1.1347
  409MOL0     H56385   8.022  10.452   6.510  1.4371 -0.4883  0.1729
  409MOL0     H56386   8.034  10.487   6.338  0.2735 -3.3879  0.7232
  409MOL0     H56387   8.240  10.520   6.448  1.4792  1.7165 -0.6109
  409MOL0     H56388   8.174  10.631   6.574  1.4594  1.1333 -0.3460
  409MOL0     H56389   8.199  10.685   6.266 -2.8999  0.2682 -0.9900
  409MOL0     H56390   8.115  10.783   6.387  0.4078  0.1427 -0.2687
  409MOL0     H56391   8.467  10.625   6.398 -0.6990 -0.7117 -0.3008
  409MOL0     H56392   8.715  10.761   6.537 -1.0798  0.7679  2.6614
  409MOL0     H56393   8.679  10.920   6.578  0.6702 -0.6389  0.0624
  409MOL0     H56394   8.757  10.806   6.308 -1.1634 -0.2301 -0.2180
  409MOL0     H56395   8.690  10.970   6.329 -1.0227 -1.1280 -0.6991
  409MOL0     H56396   8.900  11.039   6.461  1.8362 -0.8960  0.4650
  409MOL0     H56397   8.942  10.877   6.487  0.4436  0.9555  0.6089
  409MOL0     H56398   8.986  10.835   6.256 -0.3562 -0.0031  1.4520
  409MOL0     H56399   8.927  10.993   6.203 -0.5475 -3.3598 -1.4670
  409MOL0     H56400   9.127  10.927   6.069 -0.5194  0.6476 -0.9271
  409MOL0     H56401   9.229  10.944   5.852  0.0762  0.7414 -1.6197
  409MOL0     H56402   9.402  10.891   5.856  0.2332  0.5541 -1.1127
  409MOL0     H56403   9.359  11.055   5.827  0.3946 -0.9937 -1.0388
  409MOL0     H56404   9.933  11.089   6.142  0.6888 -2.0190 -2.9522
  409MOL0     H56405  10.109  11.229   6.067 -0.7742 -1.9164  1.7868
  409MOL0     H56406  10.149  11.315   5.759 -1.8148 -0.7843 -2.8051
  409MOL0     H56407  10.038  11.444   5.708  0.6410 -0.1129 -0.4183
  409MOL0     H56408  10.189  11.616   5.785 -1.6464 -0.3166 -1.0371
  409MOL0     H56409  10.323  11.491   5.810  1.0368 -0.9591 -1.6390
  409MOL0     H56410  10.187  11.585   5.546  2.6808 -1.0341 -5.1917
  409MOL0     H56411  10.282  11.440   5.549  2.7368  1.0633 -0.3226
  409MOL0     H56412  10.483  11.551   5.648 -2.1627 -2.4283 -0.1649
  409MOL0     H56413  10.388  11.702   5.658  1.3485  1.0586 -2.5541
  409MOL0     H56414  10.552  11.706   5.483 -1.7041  3.3204  1.4761
  409MOL0     H56415  10.497  11.544   5.423 -2.7251 -0.6475 -0.7686
  409MOL0     H56416  10.324  11.782   5.404  2.7293  0.8671 -0.4798
  409MOL0     H56417  10.286  11.621   5.342  0.7342 -0.2972  1.1693
  409MOL0     H56418  10.496  11.652   5.191 -0.8864 -0.2475 -1.0605
  409MOL0     H56419  10.495  11.821   5.266  3.4922 -0.8018 -0.0342
  409MOL0     H56420  10.259  11.690   5.137 -1.2631  0.7155 -3.4985
  409MOL0     H56421  10.378  11.768   5.030 -0.2020 -2.4842 -0.0123
  409MOL0     H56422   9.825  11.461   5.849 -0.6157  0.0790 -0.2888
  409MOL0     H56423   9.634  11.322   5.946 -0.6405 -1.1361 -0.7506
  409MOL0     H56424   9.522  11.113   6.306  0.1000 -2.7616  1.0381
  409MOL0     H56425   9.313  11.068   6.420  0.2788 -0.7201 -0.2798
  409MOL0     H56426   7.554  10.996   6.966 -0.7551  0.8217 -2.0491
  409MOL0     H56427   7.354  11.123   7.026  2.8864 -0.3635  0.9703
  409MOL0     H56428   7.020  11.281   7.313 -1.1148  0.5716  1.0156
  409MOL0     H56429   6.817  11.406   7.335  1.0009 -3.7418  3.5851
  409MOL0     H56430   6.564  11.445   7.359  1.1743  0.0073  0.4472
  409MOL0     H56431   6.669  11.559   7.262 -1.1280  1.5384  1.0450
  409MOL0     H56432   6.492  11.631   7.134  0.8131 -1.8987 -0.8138
  409MOL0     H56433   6.465  11.668   7.307  2.2186 -0.3885  1.3941
  409MOL0     H56434   6.368  11.409   7.143  0.9603  0.4943  1.2776
  409MOL0     H56435   6.340  11.431   7.311 -0.4856  0.2375  0.9360
  409MOL0     H56436   6.118  11.470   7.210 -1.4884  1.2532 -1.3962
  409MOL0     H56437   6.187  11.573   7.083  0.0889 -3.1219 -1.5704
  409MOL0     H56438   6.086  11.857   7.352  0.9210  1.5613 -3.8733
  409MOL0     H56439   6.628  11.201   7.018 -0.6748  0.8339  1.9114
  409MOL0     H56440   6.711  10.999   6.933  0.6452  0.3836 -2.1018
  409MOL0     H56441   6.874  11.024   6.880  0.1471  0.4586  0.2732
  409MOL0     H56442   6.844  10.920   7.025  1.3767  1.1279  0.1381
  410MOL0     O56443  10.635   2.091   5.414 -0.5261  0.3153 -0.1339
  410MOL0     C56444  10.605   2.208   5.370  1.0563  1.6224 -0.0584
  410MOL0     O56445  10.688   2.307   5.324  0.3990  0.2520 -0.2713
  410MOL0     C56446  10.824   2.304   5.355 -0.8545  0.0436  0.4678
  410MOL0     C56447  10.891   2.413   5.409 -0.2445  0.3180  0.8155
  410MOL0     C56448  11.018   2.401   5.455 -0.2946  0.4258 -0.9987
  410MOL0     C56449  11.094   2.281   5.442  0.3130 -0.4258 -0.2354
  410MOL0     O56450  11.222   2.266   5.501 -0.5151  0.0364 -0.3964
  410MOL0     C56451  11.230   2.289   5.642  0.2333  0.8186  0.0769
  410MOL0     C56452  11.207   2.153   5.715 -0.8021  0.2715 -0.4587
  410MOL0     C56453  11.323   2.052   5.681  0.9490 -0.3141 -0.2304
  410MOL0     C56454  11.442   2.072   5.783  0.2269  0.1507  0.2590
  410MOL0     C56455  11.579   2.009   5.759  0.5724 -0.1108  0.7405
  410MOL0     C56456  11.628   2.030   5.611  0.2694  0.1534 -0.7631
  410MOL0     C56457  11.621   2.177   5.566 -0.5720 -0.2897 -0.6270
  410MOL0     C56458  11.671   2.203   5.428 -0.6256 -0.6832 -0.2031
  410MOL0     N56459  11.826   2.211   5.424  0.3998 -0.1694 -0.0589
  410MOL0     C56460  11.896   2.323   5.454 -0.0373  0.2684  0.4968
  410MOL0     C56461  12.029   2.289   5.444  0.0251 -1.4459  0.5953
  410MOL0     C56462  12.114   2.402   5.488 -0.4640 -0.2117 -0.1359
  410MOL0     C56463  12.262   2.360   5.461  0.7668 -0.4966  0.4296
  410MOL0     C56464  12.370   2.473   5.472  0.2833 -0.1919 -0.1272
  410MOL0     C56465  12.503   2.415   5.436  0.0080 -0.0847  0.5127
  410MOL0     O56466  12.601   2.511   5.467 -0.4555  0.4723 -0.3552
  410MOL0     C56467  12.731   2.480   5.443 -0.3689  0.4013 -0.5307
  410MOL0     C56468  12.824   2.561   5.506 -0.2883  0.5258 -0.3448
  410MOL0     C56469  12.962   2.523   5.509 -0.2391 -0.2701  0.6700
  410MOL0     C56470  13.049   2.612   5.590 -0.6513  0.3341  0.0619
  410MOL0     C56471  13.010   2.409   5.430  0.0168  0.3321  1.0253
  410MOL0     C56472  13.149   2.360   5.417 -0.0939 -0.7251  0.2831
  410MOL0     O56473  13.185   2.277   5.319 -0.3157  0.5991  0.2883
  410MOL0     C56474  13.318   2.234   5.322  1.6728 -0.7527  1.0261
  410MOL0     C56475  13.353   2.126   5.402 -0.1038  0.0335 -0.6158
  410MOL0     C56476  13.487   2.078   5.401  0.7747 -0.0512 -0.6683
  410MOL0     C56477  13.586   2.151   5.322  0.1659  0.1987 -0.3047
  410MOL0     O56478  13.718   2.120   5.325 -0.2784 -0.6431 -0.2684
  410MOL0     C56479  13.767   2.020   5.415  0.0590 -0.2174  0.0935
  410MOL0     C56480  13.921   2.041   5.418  1.1907  0.0318  0.3885
  410MOL0     C56481  13.983   2.010   5.286  0.3563 -0.0510 -0.8152
  410MOL0     C56482  14.140   1.996   5.310 -0.2018 -0.1655 -0.5038
  410MOL0     C56483  14.230   1.988   5.186  0.6614  0.0400 -0.6296
  410MOL0     C56484  14.222   1.836   5.133  0.2028 -0.2765 -0.1968
  410MOL0     C56485  14.319   1.833   5.011  0.7965 -0.7219 -0.1483
  410MOL0     C56486  14.462   1.882   5.022  0.5246  0.5282  0.7154
  410MOL0    Cl56487  14.569   1.829   5.168 -0.0776  0.2329  0.3648
  410MOL0     C56488  13.544   2.256   5.240  0.2485  0.6391 -0.1902
  410MOL0     C56489  13.408   2.293   5.239 -0.4649  0.4664  0.1813
  410MOL0     O56490  13.224   2.398   5.502  0.7870  0.0352 -0.7273
  410MOL0     C56491  12.910   2.340   5.356 -0.0664  0.1493 -0.1021
  410MOL0     C56492  12.776   2.376   5.362 -0.3059 -1.0160  0.0668
  410MOL0     N56493  12.030   2.152   5.429  0.0717  0.1597 -0.7288
  410MOL0     N56494  11.907   2.106   5.404  0.1577  0.0500  0.1121
  410MOL0     C56495  11.024   2.178   5.381 -0.2929 -0.1855  0.3491
  410MOL0     C56496  10.894   2.187   5.341  0.0310 -0.5769 -0.2455
  410MOL0     C56497  10.459   2.228   5.352 -0.4330  0.5587  0.4562
  410MOL0     C56498  10.391   2.132   5.276  0.1005 -0.0276  0.5320
  410MOL0     C56499  10.253   2.140   5.261  1.1873 -0.3471 -0.0489
  410MOL0     C56500  10.182   2.240   5.336  0.2842  0.1943 -0.2529
  410MOL0     O56501  10.040   2.241   5.341  0.3812  0.2150 -0.4824
  410MOL0     C56502   9.971   2.351   5.404 -0.1159  0.6786  0.2253
  410MOL0     C56503   9.983   2.476   5.317 -0.4927  1.4786 -0.6207
  410MOL0     C56504   9.921   2.455   5.175  0.1371  0.2458  0.4739
  410MOL0     C56505   9.977   2.566   5.089 -0.2712  0.9571 -0.0250
  410MOL0     C56506   9.923   2.550   4.954 -0.1592 -0.0230  0.7181
  410MOL0     C56507   9.883   2.545   4.844 -0.0277 -0.6879  0.0555
  410MOL0     C56508  10.256   2.336   5.407  0.9999  0.2374 -0.8697
  410MOL0     C56509  10.393   2.327   5.427  0.0687  0.3820 -0.7312
  410MOL0     C56510  10.458   2.416   5.523 -0.5004 -0.1906 -0.4495
  410MOL0     H56511  10.843   2.509   5.428  0.3350  0.9501 -0.7983
  410MOL0     H56512  11.064   2.477   5.518 -0.6596 -1.2024  1.3402
  410MOL0     H56513  11.155   2.358   5.681  0.2667  0.6238  0.4981
  410MOL0     H56514  11.328   2.333   5.666 -0.4511  2.2691  0.3141
  410MOL0     H56515  11.198   2.167   5.823  2.0748  2.6367 -0.4001
  410MOL0     H56516  11.107   2.117   5.688 -0.2863 -1.5000 -0.1656
  410MOL0     H56517  11.282   1.951   5.689  0.0846 -0.1550 -1.9852
  410MOL0     H56518  11.347   2.067   5.575 -4.4941 -0.1703 -1.7784
  410MOL0     H56519  11.460   2.179   5.792  0.8593 -0.0464  1.7222
  410MOL0     H56520  11.407   2.046   5.883 -0.1138  0.3807  0.1987
  410MOL0     H56521  11.566   1.900   5.769 -1.9413  0.1485  0.7920
  410MOL0     H56522  11.656   2.041   5.830  0.2082  3.7946 -0.3983
  410MOL0     H56523  11.726   1.989   5.590  0.1275 -0.7626  0.2982
  410MOL0     H56524  11.565   1.964   5.551  2.5110 -2.9305  0.0648
  410MOL0     H56525  11.676   2.248   5.628 -1.4118  0.3131 -0.5590
  410MOL0     H56526  11.513   2.198   5.563 -1.2012 -3.2256 -1.4493
  410MOL0     H56527  11.634   2.133   5.353  2.2451  0.5796 -2.9803
  410MOL0     H56528  11.642   2.305   5.402 -0.2966 -0.3587  0.6580
  410MOL0     H56529  11.849   2.417   5.483 -4.7123 -1.8454  0.6508
  410MOL0     H56530  12.100   2.413   5.596  1.5601  2.8122 -0.0338
  410MOL0     H56531  12.080   2.488   5.430 -0.6567 -1.7217 -2.3818
  410MOL0     H56532  12.283   2.286   5.539 -0.5262  0.3082  1.5925
  410MOL0     H56533  12.273   2.310   5.364  1.7201  1.1360 -0.3537
  410MOL0     H56534  12.349   2.558   5.407  1.9561 -0.5910 -1.2431
  410MOL0     H56535  12.383   2.515   5.571  2.2689  1.3725 -0.9978
  410MOL0     H56536  12.510   2.322   5.493 -1.9870  0.5094  1.8248
  410MOL0     H56537  12.500   2.393   5.329  0.9170  0.5798  0.3403
  410MOL0     H56538  12.795   2.651   5.559  1.2718  1.3846 -0.8973
  410MOL0     H56539  13.002   2.709   5.612 -3.0017 -0.9826  1.1399
  410MOL0     H56540  13.146   2.626   5.541  0.4036 -0.4022  1.8438
  410MOL0     H56541  13.075   2.565   5.685 -1.2473  0.5074  0.3115
  410MOL0     H56542  13.273   2.075   5.454 -0.5819  1.2181 -0.1439
  410MOL0     H56543  13.509   1.994   5.466  1.2810  0.7619  0.2489
  410MOL0     H56544  13.713   2.014   5.510 -2.0738  2.6492 -0.7769
  410MOL0     H56545  13.755   1.922   5.369 -0.4293 -0.5807  0.9704
  410MOL0     H56546  13.939   2.148   5.436  1.0428  0.4824 -1.8559
  410MOL0     H56547  13.962   1.985   5.503  0.0084  3.0455  3.1989
  410MOL0     H56548  13.967   2.099   5.225 -0.2199 -0.6221 -1.5155
  410MOL0     H56549  13.935   1.924   5.238 -2.4746  0.4681  0.8520
  410MOL0     H56550  14.174   1.925   5.385  0.4392 -0.1158 -0.7435
  410MOL0     H56551  14.172   2.092   5.352 -1.5040  0.6219 -1.2407
  410MOL0     H56552  14.192   2.062   5.115 -3.0404 -0.9306  0.1240
  410MOL0     H56553  14.332   2.020   5.205  1.4020 -1.7143 -1.4708
  410MOL0     H56554  14.122   1.804   5.100  0.1573 -1.4706  0.9888
  410MOL0     H56555  14.254   1.766   5.211 -2.1783 -0.5992  0.5715
  410MOL0     H56556  14.279   1.885   4.923  1.7881 -0.6721 -0.5807
  410MOL0     H56557  14.325   1.724   5.006 -1.9864 -0.8851 -1.9439
  410MOL0     H56558  14.455   1.991   5.035 -0.7785  0.3730  1.4878
  410MOL0     H56559  14.519   1.869   4.930 -1.3358  1.3823 -0.6330
  410MOL0     H56560  13.605   2.315   5.173 -2.1315  1.9268 -1.3571
  410MOL0     H56561  13.374   2.374   5.175 -0.6302  1.2946  1.2865
  410MOL0     H56562  12.925   2.250   5.296  1.6710 -0.0422  0.5676
  410MOL0     H56563  12.693   2.320   5.319 -2.8929  4.1973 -2.6491
  410MOL0     H56564  11.062   2.077   5.381 -1.9253 -0.8298  0.5262
  410MOL0     H56565  10.844   2.109   5.283 -0.7214  1.3008 -2.2813
  410MOL0     H56566  10.439   2.047   5.228  3.6361  1.8882  0.3121
  410MOL0     H56567  10.207   2.071   5.190  0.3338  0.9740 -0.8352
  410MOL0     H56568   9.864   2.325   5.406  0.1134 -0.3164 -0.0207
  410MOL0     H56569  10.003   2.367   5.507 -2.5158  0.8973  1.0188
  410MOL0     H56570  10.089   2.504   5.315  0.6519 -2.3123  0.1777
  410MOL0     H56571   9.924   2.552   5.370 -1.7656 -0.9828  1.7334
  410MOL0     H56572   9.936   2.354   5.137  1.2573  0.3953  0.4750
  410MOL0     H56573   9.812   2.455   5.181 -0.0452 -2.2838 -1.2347
  410MOL0     H56574  10.085   2.549   5.082 -0.4079 -0.0492  0.1895
  410MOL0     H56575   9.958   2.663   5.136 -0.7574  0.5109  0.7162
  410MOL0     H56576   9.858   2.532   4.741 -3.7058  3.0832  0.2165
  410MOL0     H56577  10.211   2.409   5.474  1.1053 -1.0478  0.6665
  410MOL0     H56578  10.530   2.488   5.481 -2.8570  0.5748 -3.5251
  410MOL0     H56579  10.390   2.474   5.586  0.4456  2.4341 -1.6657
  410MOL0     H56580  10.503   2.339   5.586 -2.4129 -1.8929 -1.0609
  411MOL0     O56581   9.999   8.187   2.925 -0.5505 -0.8910 -0.4669
  411MOL0     C56582   9.939   8.094   2.982  0.1081 -0.0973  0.1779
  411MOL0     O56583  10.001   8.001   3.061 -0.2264  0.1235 -0.0624
  411MOL0     C56584  10.138   8.020   3.078 -0.0475 -0.2781  0.3820
  411MOL0     C56585  10.190   8.128   3.139 -0.1721 -0.4463 -1.0036
  411MOL0     C56586  10.321   8.139   3.183 -0.7388  0.6138  0.5117
  411MOL0     C56587  10.408   8.032   3.162  0.6841  0.1391  0.1748
  411MOL0     O56588  10.525   8.043   3.224 -0.7452  0.0848 -0.2860
  411MOL0     C56589  10.628   7.943   3.224 -0.1409 -0.4266 -0.1120
  411MOL0     C56590  10.719   7.950   3.105  0.3796  0.2404 -0.0688
  411MOL0     C56591  10.802   7.822   3.084 -0.2206  0.4902  0.4202
  411MOL0     C56592  10.901   7.800   3.197 -0.2535  0.4789  0.1763
  411MOL0     C56593  10.969   7.660   3.173  0.8331 -1.4708  0.1060
  411MOL0     C56594  11.066   7.604   3.279 -0.0408 -0.2744 -0.1655
  411MOL0     C56595  11.185   7.703   3.303  0.4080  0.7351  0.1757
  411MOL0     C56596  11.305   7.633   3.381 -0.0071  0.2056  1.0030
  411MOL0     N56597  11.256   7.552   3.491  0.1174 -0.7479 -0.4011
  411MOL0     C56598  11.205   7.596   3.612 -0.6242  0.1084  0.3793
  411MOL0     C56599  11.167   7.482   3.668 -0.2674  1.3200 -0.3392
  411MOL0     C56600  11.134   7.473   3.818 -0.4502  0.1248  0.7424
  411MOL0     C56601  10.973   7.482   3.831 -0.1511  0.3112 -0.3747
  411MOL0     C56602  10.899   7.432   3.707  0.3856 -0.3269 -0.1622
  411MOL0     C56603  10.746   7.446   3.701 -0.4348  0.5077 -0.0437
  411MOL0     O56604  10.695   7.385   3.816 -0.1968  0.0033  0.1299
  411MOL0     C56605  10.557   7.398   3.831  0.6592 -0.1516 -0.1165
  411MOL0     C56606  10.509   7.320   3.937  0.9448  1.4882  1.1387
  411MOL0     C56607  10.366   7.304   3.956  0.8239 -0.1440  0.2479
  411MOL0     C56608  10.327   7.217   4.074  0.0268  0.8418 -0.0100
  411MOL0     C56609  10.275   7.372   3.870 -0.1329  1.0436  0.1980
  411MOL0     C56610  10.126   7.367   3.888 -1.0177 -0.4021 -0.6007
  411MOL0     O56611  10.062   7.427   3.789  0.8545 -0.2136  0.1781
  411MOL0     C56612   9.922   7.424   3.802 -0.0954 -0.1657 -1.0454
  411MOL0     C56613   9.858   7.496   3.901 -0.0329 -0.9744  0.0960
  411MOL0     C56614   9.717   7.483   3.923  0.3868  0.4970 -0.4264
  411MOL0     C56615   9.642   7.400   3.843 -0.3765  0.7031  0.9194
  411MOL0     O56616   9.511   7.397   3.871 -0.2831 -1.0463 -0.3129
  411MOL0     C56617   9.424   7.328   3.777  0.1166 -0.1588 -0.4538
  411MOL0     C56618   9.284   7.350   3.844  0.5324  0.3594  0.3121
  411MOL0     C56619   9.165   7.309   3.765  0.3718  0.7553  0.0586
  411MOL0     C56620   9.149   7.152   3.755  0.1693 -0.1643 -0.8588
  411MOL0     C56621   9.085   7.113   3.622  0.0875 -0.2533  0.6631
  411MOL0     C56622   9.104   6.966   3.580 -0.3782  0.0814 -1.0655
  411MOL0     C56623   9.148   6.963   3.427 -0.7970  0.8568  1.4282
  411MOL0     C56624   9.138   6.816   3.379  0.4159 -0.0795  0.0528
  411MOL0    Cl56625   9.157   6.819   3.203 -0.1560  0.0835  0.4631
  411MOL0     C56626   9.714   7.328   3.742  0.0056  0.2608  0.3942
  411MOL0     C56627   9.847   7.341   3.720  0.7318 -0.0143  0.6794
  411MOL0     O56628  10.085   7.325   3.998  0.0848 -0.5120  0.5478
  411MOL0     C56629  10.327   7.438   3.757  0.0383  0.8209 -0.4972
  411MOL0     C56630  10.466   7.450   3.741  0.0706  0.5843  0.2886
  411MOL0     N56631  11.187   7.373   3.584 -0.2019 -0.1678  1.1119
  411MOL0     N56632  11.252   7.419   3.487 -0.3048 -0.3980  0.9796
  411MOL0     C56633  10.357   7.910   3.111  0.5455  0.0148  0.4518
  411MOL0     C56634  10.218   7.902   3.074 -0.4344  0.1046 -0.7352
  411MOL0     C56635   9.794   8.083   2.952  0.0425  0.2336  1.1387
  411MOL0     C56636   9.750   8.119   2.818  0.1739 -0.0627 -0.6325
  411MOL0     C56637   9.614   8.109   2.775  0.0371 -0.3744 -0.9337
  411MOL0     C56638   9.519   8.056   2.872 -0.0089  0.1250  0.0144
  411MOL0     O56639   9.379   8.045   2.854 -0.1571  0.0391  0.9794
  411MOL0     C56640   9.331   8.059   2.720 -0.4659 -0.7464  0.7366
  411MOL0     C56641   9.310   8.202   2.661 -0.1141  0.4247  0.1872
  411MOL0     C56642   9.203   8.266   2.741  0.0440 -0.5710  0.1160
  411MOL0     C56643   9.178   8.423   2.725  0.2427  0.1927  0.3856
  411MOL0     C56644   9.287   8.504   2.785 -0.1901 -0.1780 -0.0576
  411MOL0     C56645   9.373   8.570   2.845 -0.1408 -0.4760  0.1927
  411MOL0     C56646   9.561   8.017   2.995  0.0655  0.3648  0.6585
  411MOL0     C56647   9.692   8.031   3.036  0.4235 -0.1729 -0.3122
  411MOL0     C56648   9.714   7.996   3.186 -0.4887 -0.1237 -0.0468
  411MOL0     H56649  10.121   8.208   3.165 -1.4666 -2.4437  2.3294
  411MOL0     H56650  10.358   8.231   3.228  0.5746  0.4720 -0.2371
  411MOL0     H56651  10.574   7.848   3.225 -1.4953  0.3111 -0.2880
  411MOL0     H56652  10.684   7.955   3.317 -0.0532  0.9173 -0.3116
  411MOL0     H56653  10.652   7.961   3.019 -0.8979  0.3342  0.8949
  411MOL0     H56654  10.776   8.043   3.113 -1.3066  1.3699 -0.5927
  411MOL0     H56655  10.736   7.738   3.061  0.3333 -0.4457  2.1050
  411MOL0     H56656  10.859   7.853   2.996 -0.8839  1.1712  0.2217
  411MOL0     H56657  10.973   7.882   3.197  0.9617 -0.5589 -0.1926
  411MOL0     H56658  10.843   7.789   3.289  0.0461  0.3758  0.3547
  411MOL0     H56659  11.029   7.677   3.083  0.1865  1.3522  0.1016
  411MOL0     H56660  10.893   7.581   3.164 -0.8021 -0.0843  1.0877
  411MOL0     H56661  11.013   7.598   3.375  0.9905 -0.2622  0.4200
  411MOL0     H56662  11.100   7.503   3.255  1.1733  0.3432 -1.1353
  411MOL0     H56663  11.156   7.787   3.366  0.9585  1.5698 -0.6594
  411MOL0     H56664  11.224   7.744   3.210  2.6568 -2.5628 -0.5269
  411MOL0     H56665  11.339   7.558   3.308  0.7848 -1.6078  3.1125
  411MOL0     H56666  11.381   7.705   3.410 -1.3523  1.2605  1.9925
  411MOL0     H56667  11.196   7.696   3.652  0.3156  0.9530 -1.4034
  411MOL0     H56668  11.195   7.540   3.879  0.8913 -1.9460  1.7632
  411MOL0     H56669  11.166   7.378   3.860  1.5293 -0.3741 -1.6411
  411MOL0     H56670  10.958   7.420   3.919  1.3193  0.5831  0.0873
  411MOL0     H56671  10.967   7.591   3.838  0.7430  0.3066  0.6213
  411MOL0     H56672  10.927   7.486   3.616 -2.4464  0.4080 -0.7060
  411MOL0     H56673  10.928   7.327   3.700  2.4737  0.2848 -1.4205
  411MOL0     H56674  10.717   7.550   3.680  0.6277  0.3653 -2.6056
  411MOL0     H56675  10.711   7.388   3.615 -2.0812 -1.6922  1.9851
  411MOL0     H56676  10.582   7.273   4.002  2.0608 -1.1624 -1.7874
  411MOL0     H56677  10.298   7.286   4.153  2.2164  1.2391  0.5237
  411MOL0     H56678  10.410   7.164   4.122  0.2052  3.8008  3.3435
  411MOL0     H56679  10.255   7.140   4.044  1.3383 -0.4786  0.1010
  411MOL0     H56680   9.899   7.571   3.968 -0.3732 -1.1215  0.4713
  411MOL0     H56681   9.648   7.540   3.986 -1.9099  0.1195 -2.4372
  411MOL0     H56682   9.431   7.363   3.674  1.9355  2.2869  0.4039
  411MOL0     H56683   9.453   7.222   3.778 -2.6650 -0.9948  0.1565
  411MOL0     H56684   9.288   7.295   3.939 -2.1703 -0.3729  0.0648
  411MOL0     H56685   9.277   7.457   3.869 -0.9685  0.3898 -0.1898
  411MOL0     H56686   9.185   7.349   3.665 -0.5827  1.0204 -0.0359
  411MOL0     H56687   9.083   7.364   3.812 -0.7691 -0.0908 -0.9005
  411MOL0     H56688   9.087   7.122   3.840 -0.7600  0.7298 -1.2079
  411MOL0     H56689   9.241   7.092   3.758 -1.3062 -2.5657  1.1248
  411MOL0     H56690   8.981   7.148   3.625  0.8563  2.1209  1.9325
  411MOL0     H56691   9.129   7.177   3.545 -2.1793  0.5841 -0.0243
  411MOL0     H56692   9.013   6.914   3.610 -0.5892  0.4664 -1.0274
  411MOL0     H56693   9.190   6.920   3.630  1.0779  2.4386 -1.2441
  411MOL0     H56694   9.253   6.991   3.411  0.3141 -3.0339  0.8639
  411MOL0     H56695   9.094   7.029   3.358 -1.4490 -1.5493 -0.5252
  411MOL0     H56696   9.040   6.785   3.415 -0.1659  2.2930  0.7409
  411MOL0     H56697   9.215   6.749   3.419  0.6245 -0.6671 -1.3009
  411MOL0     H56698   9.655   7.265   3.676 -1.1588  2.2109 -0.5476
  411MOL0     H56699   9.894   7.281   3.643 -1.0621 -0.3455 -0.2023
  411MOL0     H56700  10.258   7.480   3.685  1.1536  2.3188 -0.7475
  411MOL0     H56701  10.504   7.496   3.650  2.7488 -0.0101  1.0067
  411MOL0     H56702  10.405   7.814   3.095 -1.7221 -0.9474 -1.0101
  411MOL0     H56703  10.165   7.810   3.050  1.4233 -1.5358  1.0590
  411MOL0     H56704   9.813   8.154   2.737 -0.1058  0.7739 -0.4997
  411MOL0     H56705   9.583   8.140   2.675 -1.8157 -0.7293 -0.4991
  411MOL0     H56706   9.396   8.002   2.652  0.4008  0.1624  0.7871
  411MOL0     H56707   9.237   8.002   2.719  0.2187 -1.9044  0.7344
  411MOL0     H56708   9.279   8.197   2.557  1.2151  2.1068 -0.3374
  411MOL0     H56709   9.406   8.255   2.657  2.2187 -3.2763  1.7481
  411MOL0     H56710   9.107   8.215   2.727  1.4829 -3.3506 -0.3178
  411MOL0     H56711   9.226   8.256   2.847  0.1983  1.2798  0.2934
  411MOL0     H56712   9.084   8.452   2.771  0.4442  0.9625  0.3236
  411MOL0     H56713   9.151   8.438   2.620 -0.3257 -1.6307  0.2224
  411MOL0     H56714   9.452   8.610   2.904 -0.4083 -1.6421  1.4122
  411MOL0     H56715   9.488   7.977   3.064  1.4144 -2.9213  0.3665
  411MOL0     H56716   9.695   7.889   3.197  2.4257 -0.5535  2.1075
  411MOL0     H56717   9.816   8.014   3.222 -0.8365  0.8506  0.5142
  411MOL0     H56718   9.655   8.057   3.256 -1.0411 -0.7677  0.0579
  412MOL0     O56719   8.370   1.595   6.348 -0.0959 -0.3112 -0.1050
  412MOL0     C56720   8.359   1.665   6.251  0.1687  0.3491 -0.1696
  412MOL0     O56721   8.442   1.667   6.141  0.3080  0.1320  0.0851
  412MOL0     C56722   8.566   1.603   6.156 -0.1718  0.7069 -0.7729
  412MOL0     C56723   8.582   1.473   6.106  0.1132 -0.9925  0.4852
  412MOL0     C56724   8.710   1.408   6.121  0.4753 -0.1313 -0.2224
  412MOL0     C56725   8.813   1.476   6.181 -0.2950  0.2269 -0.6382
  412MOL0     O56726   8.938   1.424   6.208  0.0921 -0.1162  0.7368
  412MOL0     C56727   9.026   1.430   6.097 -0.6014 -0.1383  0.3265
  412MOL0     C56728   9.140   1.528   6.115  0.2765 -0.0380 -1.0426
  412MOL0     C56729   9.235   1.488   6.229  0.7113 -0.9383 -0.0394
  412MOL0     C56730   9.337   1.600   6.234  0.1149  0.3453  0.8357
  412MOL0     C56731   9.445   1.574   6.335  0.7399  0.0459  0.0729
  412MOL0     C56732   9.386   1.584   6.478 -0.3174 -0.0219 -0.3168
  412MOL0     C56733   9.499   1.560   6.572 -0.8533 -0.3856  0.1888
  412MOL0     C56734   9.458   1.563   6.715  0.4285 -0.0622 -0.6304
  412MOL0     N56735   9.536   1.643   6.809 -0.2563 -0.1824 -0.5483
  412MOL0     C56736   9.669   1.631   6.833 -0.4322 -0.0548 -0.3981
  412MOL0     C56737   9.691   1.714   6.942 -0.0047  0.2682  0.6702
  412MOL0     C56738   9.829   1.721   7.003 -0.0309  0.3588 -0.1839
  412MOL0     C56739   9.802   1.772   7.147  0.1526  0.7422 -0.2461
  412MOL0     C56740   9.913   1.745   7.248  0.0096 -0.0654  0.6958
  412MOL0     C56741  10.035   1.836   7.235 -0.5203 -0.1067 -0.8029
  412MOL0     O56742  10.108   1.804   7.108 -0.1459 -0.2123 -0.8076
  412MOL0     C56743  10.245   1.838   7.093  0.1538 -0.0761 -0.3213
  412MOL0     C56744  10.306   1.797   6.977  0.0295 -0.1291 -0.4028
  412MOL0     C56745  10.439   1.808   6.947  0.0034  0.1386  0.1178
  412MOL0     C56746  10.493   1.746   6.824 -0.2628  0.1622 -0.1697
  412MOL0     C56747  10.522   1.862   7.048 -0.5146 -0.0897  1.1307
  412MOL0     C56748  10.670   1.861   7.047  0.8723  0.6093  0.2467
  412MOL0     O56749  10.732   1.901   6.935  0.2401 -0.5215 -0.2628
  412MOL0     C56750  10.869   1.868   6.924 -0.2802  0.0204 -0.4610
  412MOL0     C56751  10.968   1.952   6.974  0.2845 -0.4986  0.3968
  412MOL0     C56752  11.105   1.927   6.971 -0.4982 -0.4645  0.4941
  412MOL0     C56753  11.143   1.806   6.911 -0.1116 -1.0741 -0.2926
  412MOL0     O56754  11.274   1.767   6.896 -0.0107  0.2557  0.0931
  412MOL0     C56755  11.370   1.862   6.881 -0.5123 -0.4597  0.7425
  412MOL0     C56756  11.494   1.792   6.823 -0.4815  0.6338 -0.2306
  412MOL0     C56757  11.614   1.887   6.804 -0.0243 -0.1899 -0.0403
  412MOL0     C56758  11.592   1.977   6.679  0.2108  0.1141  0.1595
  412MOL0     C56759  11.709   2.077   6.678 -0.5833 -0.4532  0.2846
  412MOL0     C56760  11.683   2.206   6.756  0.1478 -0.4600 -0.1811
  412MOL0     C56761  11.578   2.301   6.683  0.0028 -0.4504  0.1891
  412MOL0     C56762  11.544   2.424   6.775  0.1186  1.1474  0.3744
  412MOL0    Cl56763  11.410   2.507   6.688 -0.0536 -0.3714  0.4653
  412MOL0     C56764  11.050   1.723   6.845 -0.2243 -0.3604  0.0019
  412MOL0     C56765  10.904   1.746   6.854 -0.2497  0.5843 -1.3294
  412MOL0     O56766  10.722   1.815   7.149 -0.0594  0.0659 -0.3702
  412MOL0     C56767  10.461   1.919   7.161 -0.7146 -0.3322 -0.0871
  412MOL0     C56768  10.329   1.908   7.185  1.1404  0.2464 -1.0583
  412MOL0     N56769   9.566   1.776   6.969 -0.9917  0.6281 -0.4562
  412MOL0     N56770   9.476   1.729   6.893 -0.0594 -0.3210 -0.2598
  412MOL0     C56771   8.796   1.607   6.232  0.5762 -0.2398  0.2280
  412MOL0     C56772   8.669   1.663   6.220  0.0329 -0.5827  0.0544
  412MOL0     C56773   8.255   1.769   6.235 -1.0679 -0.5743  0.0120
  412MOL0     C56774   8.293   1.894   6.199 -0.2148 -0.0365  0.2614
  412MOL0     C56775   8.196   1.995   6.203  0.6257  0.1049 -0.1658
  412MOL0     C56776   8.064   1.973   6.245  0.5815  0.0070  0.3774
  412MOL0     O56777   7.976   2.072   6.279 -0.1915  0.0649  0.9254
  412MOL0     C56778   7.838   2.049   6.297  0.1068  0.1309  0.7142
  412MOL0     C56779   7.761   2.035   6.161 -0.4142 -0.1362 -0.3270
  412MOL0     C56780   7.615   2.000   6.189 -0.0991  0.3664 -0.0650
  412MOL0     C56781   7.559   1.868   6.139  0.0992  0.0392  0.6548
  412MOL0     C56782   7.425   1.835   6.172  0.3676  0.4159 -0.4826
  412MOL0     C56783   7.328   1.803   6.232  0.4135 -0.0752  1.0943
  412MOL0     C56784   8.029   1.842   6.281  0.7318  0.3527  0.7981
  412MOL0     C56785   8.122   1.736   6.269  0.5033  0.1135  0.7442
  412MOL0     C56786   8.074   1.595   6.286 -0.3042  0.8149 -0.6007
  412MOL0     H56787   8.504   1.411   6.062 -0.9454 -0.8256  2.0680
  412MOL0     H56788   8.716   1.311   6.074 -0.4194  0.5870 -1.8831
  412MOL0     H56789   8.973   1.474   6.012 -1.3406 -0.2862  0.6992
  412MOL0     H56790   9.064   1.331   6.069 -2.5923 -0.7223 -0.5047
  412MOL0     H56791   9.187   1.547   6.018  1.4463  1.5674 -0.1983
  412MOL0     H56792   9.090   1.622   6.139  0.1194 -0.7492  1.8196
  412MOL0     H56793   9.186   1.481   6.326  0.8554  0.3746  0.1448
  412MOL0     H56794   9.280   1.388   6.227  0.8404 -0.8823  0.0964
  412MOL0     H56795   9.388   1.583   6.139 -0.2261  0.3702  0.6477
  412MOL0     H56796   9.290   1.697   6.253 -1.7234 -0.2063 -0.5714
  412MOL0     H56797   9.522   1.651   6.319  1.5944 -0.1740  2.6472
  412MOL0     H56798   9.504   1.483   6.320  0.5043 -0.0073 -0.5208
  412MOL0     H56799   9.340   1.678   6.507 -0.7357 -0.2998 -0.0639
  412MOL0     H56800   9.312   1.506   6.502 -0.6431  0.6725  0.9729
  412MOL0     H56801   9.581   1.630   6.558  1.7217 -2.8788  1.6992
  412MOL0     H56802   9.550   1.466   6.549  0.3688  0.7155 -1.9276
  412MOL0     H56803   9.353   1.579   6.741  0.2206 -1.7894 -0.2988
  412MOL0     H56804   9.473   1.461   6.754 -3.3440 -1.6331 -2.7851
  412MOL0     H56805   9.728   1.551   6.789 -2.8929 -1.1859 -1.8070
  412MOL0     H56806   9.893   1.791   6.948  1.3004 -0.1461  0.6792
  412MOL0     H56807   9.870   1.620   7.005 -0.6734  0.1116  0.7430
  412MOL0     H56808   9.784   1.880   7.148  2.2475  1.1304  0.2039
  412MOL0     H56809   9.717   1.713   7.181  0.7928 -1.7588 -2.6291
  412MOL0     H56810   9.854   1.760   7.339 -1.2865 -1.1968  0.0866
  412MOL0     H56811   9.950   1.642   7.246  1.3136  0.3753 -2.0683
  412MOL0     H56812  10.000   1.940   7.231  0.5904  0.2907 -0.4713
  412MOL0     H56813  10.099   1.826   7.323 -1.2957 -1.0757 -0.3386
  412MOL0     H56814  10.239   1.745   6.909  2.2244 -1.0208 -2.0020
  412MOL0     H56815  10.538   1.814   6.752  0.6693 -0.1192  0.1351
  412MOL0     H56816  10.408   1.698   6.774 -0.9764  0.1208  1.0368
  412MOL0     H56817  10.569   1.674   6.857 -0.8204  0.1869  1.2288
  412MOL0     H56818  10.935   2.037   7.032 -2.2735 -0.2754 -1.2549
  412MOL0     H56819  11.175   1.989   7.026 -1.1660  0.1144  0.7083
  412MOL0     H56820  11.337   1.940   6.812  0.6931 -1.1751 -0.7063
  412MOL0     H56821  11.395   1.905   6.978  0.5504 -0.0595  0.3066
  412MOL0     H56822  11.528   1.723   6.901  1.2773  0.4248 -1.1331
  412MOL0     H56823  11.458   1.743   6.732  0.2454 -2.0870  0.8658
  412MOL0     H56824  11.706   1.829   6.796 -0.3074 -0.6721  0.1828
  412MOL0     H56825  11.626   1.946   6.896  0.4158 -0.1126 -0.1474
  412MOL0     H56826  11.496   2.029   6.680  0.1563  0.1453  3.2293
  412MOL0     H56827  11.609   1.907   6.597  0.7694 -0.1065  0.4565
  412MOL0     H56828  11.803   2.035   6.715 -0.2337 -0.3671 -0.4919
  412MOL0     H56829  11.723   2.096   6.571 -0.7809  2.3806  0.6969
  412MOL0     H56830  11.782   2.251   6.768  0.4056 -0.9490 -0.4448
  412MOL0     H56831  11.650   2.177   6.856  0.1749  1.1604  0.3357
  412MOL0     H56832  11.488   2.242   6.666 -2.5879  3.2310  0.1176
  412MOL0     H56833  11.619   2.332   6.586 -0.0656 -1.2100 -0.0882
  412MOL0     H56834  11.620   2.500   6.792 -0.6919  2.5376 -1.7913
  412MOL0     H56835  11.508   2.388   6.872  0.6409 -0.6587 -0.0593
  412MOL0     H56836  11.089   1.630   6.805 -2.8561 -2.6530  2.3771
  412MOL0     H56837  10.827   1.683   6.810 -0.3579  0.1939 -0.5889
  412MOL0     H56838  10.516   1.971   7.239 -1.2224 -0.2535  0.2271
  412MOL0     H56839  10.284   1.962   7.268 -0.6499  2.4219 -3.2749
  412MOL0     H56840   8.873   1.667   6.279  1.4285 -2.2439  1.5257
  412MOL0     H56841   8.657   1.769   6.239 -1.0623  0.3618 -4.7698
  412MOL0     H56842   8.397   1.905   6.172 -0.5320 -1.2383 -1.6690
  412MOL0     H56843   8.226   2.093   6.169 -2.2193  1.1431  0.0133
  412MOL0     H56844   7.824   1.958   6.357  1.4187 -0.6446 -0.1137
  412MOL0     H56845   7.793   2.136   6.346 -1.4211  1.1617 -2.2800
  412MOL0     H56846   7.807   1.950   6.109  0.8438 -0.1007  0.6763
  412MOL0     H56847   7.767   2.123   6.095  0.0134 -1.3680 -1.9832
  412MOL0     H56848   7.603   2.006   6.298  1.3421 -1.1605  0.2331
  412MOL0     H56849   7.556   2.079   6.141 -0.6088  0.5027  0.7599
  412MOL0     H56850   7.622   1.789   6.181 -1.0309 -0.5680  1.2774
  412MOL0     H56851   7.570   1.869   6.030  1.5826  1.7621  0.7889
  412MOL0     H56852   7.243   1.779   6.293  0.8788  1.3631  2.3557
  412MOL0     H56853   7.934   1.807   6.320  1.0225  0.5682  1.7295
  412MOL0     H56854   7.969   1.583   6.317 -1.5862  2.5031 -3.8063
  412MOL0     H56855   8.095   1.544   6.192  1.1701  0.5385 -0.1441
  412MOL0     H56856   8.136   1.542   6.358 -0.1903  0.8918 -0.6416
  413MOL0     O56857   8.584   6.697   5.678  0.3793 -0.1720  1.2850
  413MOL0     C56858   8.505   6.678   5.587  0.6743  0.4349 -0.5778
  413MOL0     O56859   8.546   6.658   5.454 -0.6054 -0.2371  0.1035
  413MOL0     C56860   8.673   6.620   5.419 -0.2033  0.6465 -0.0580
  413MOL0     C56861   8.763   6.552   5.502  0.8770  0.5890 -0.2111
  413MOL0     C56862   8.898   6.519   5.447  0.6204 -0.3331 -0.6800
  413MOL0     C56863   8.925   6.547   5.319  0.3338  0.1226 -0.0518
  413MOL0     O56864   9.047   6.505   5.276 -0.3930 -0.2715  0.2402
  413MOL0     C56865   9.083   6.540   5.151 -0.4751  0.3106  0.6294
  413MOL0     C56866   9.219   6.472   5.110 -0.2667 -0.0589 -0.1062
  413MOL0     C56867   9.255   6.482   4.964  0.7066 -0.5451 -0.4957
  413MOL0     C56868   9.384   6.411   4.927 -0.2640 -0.4212 -0.3427
  413MOL0     C56869   9.450   6.457   4.795  0.4614  0.6711  0.0157
  413MOL0     C56870   9.564   6.361   4.757 -0.1301 -0.0482  0.0305
  413MOL0     C56871   9.625   6.400   4.623 -0.4983 -0.1029 -0.2396
  413MOL0     C56872   9.756   6.326   4.602 -0.3663 -0.6322  0.8556
  413MOL0     N56873   9.867   6.375   4.683 -0.0030  0.4454  0.1621
  413MOL0     C56874   9.950   6.475   4.646 -0.8520 -0.2023  0.2534
  413MOL0     C56875  10.052   6.466   4.731 -0.2495  0.3335 -0.2342
  413MOL0     C56876  10.170   6.547   4.729 -0.0463 -0.8822  0.4162
  413MOL0     C56877  10.300   6.495   4.684 -0.0301  0.7454  0.1226
  413MOL0     C56878  10.322   6.470   4.530  0.3914  0.7467 -0.4188
  413MOL0     C56879  10.463   6.428   4.497 -0.1013  0.9232  0.6533
  413MOL0     O56880  10.555   6.534   4.524 -0.5305  0.1057 -0.0238
  413MOL0     C56881  10.685   6.526   4.480 -0.2146  0.6830  1.0910
  413MOL0     C56882  10.761   6.635   4.507 -0.8314 -0.4149 -1.0073
  413MOL0     C56883  10.895   6.636   4.469 -0.3024 -0.6467 -0.0052
  413MOL0     C56884  10.969   6.767   4.493 -0.0831 -0.3805  0.1763
  413MOL0     C56885  10.958   6.524   4.416 -0.6931 -0.1434  0.4997
  413MOL0     C56886  11.101   6.516   4.375  0.2754  0.1151 -0.5494
  413MOL0     O56887  11.131   6.411   4.296 -0.3467  0.2134  0.1493
  413MOL0     C56888  11.258   6.361   4.322 -0.3645  0.1805  0.4095
  413MOL0     C56889  11.285   6.280   4.436  0.3528 -0.0996  0.4010
  413MOL0     C56890  11.416   6.241   4.457 -0.0856 -0.0087 -0.5891
  413MOL0     C56891  11.513   6.260   4.360  0.6949  0.3099 -0.0674
  413MOL0     O56892  11.643   6.205   4.378 -0.3227 -0.4431 -0.4803
  413MOL0     C56893  11.732   6.215   4.264  0.0235 -0.5165 -0.0229
  413MOL0     C56894  11.834   6.103   4.277 -0.8366 -0.1332  0.4292
  413MOL0     C56895  11.981   6.164   4.263  0.5363  0.5746 -0.9278
  413MOL0     C56896  12.084   6.068   4.326 -0.3928 -0.5825  0.1493
  413MOL0     C56897  12.224   6.113   4.305  0.8945  0.0568  0.4615
  413MOL0     C56898  12.324   6.036   4.388  1.1568  0.0640  0.3151
  413MOL0     C56899  12.473   6.057   4.355  0.8140 -1.0500  0.7471
  413MOL0     C56900  12.570   5.975   4.436  0.7861 -0.2727 -0.2217
  413MOL0    Cl56901  12.741   6.021   4.411  0.0298  0.4317 -0.4483
  413MOL0     C56902  11.476   6.324   4.242 -0.3248 -0.0380 -0.9897
  413MOL0     C56903  11.355   6.383   4.228  0.2311  0.2961  0.1657
  413MOL0     O56904  11.180   6.600   4.424  0.2471  0.8130  0.3245
  413MOL0     C56905  10.878   6.411   4.393 -0.1308 -0.0455 -0.2412
  413MOL0     C56906  10.744   6.410   4.425  0.6297 -0.3403 -0.1155
  413MOL0     N56907  10.022   6.364   4.817 -0.9920 -0.4363  0.4033
  413MOL0     N56908   9.918   6.295   4.783  0.6896  0.4365 -0.1535
  413MOL0     C56909   8.830   6.612   5.240  0.6242 -0.1832  0.2560
  413MOL0     C56910   8.707   6.651   5.295  0.3778  0.2487  0.2313
  413MOL0     C56911   8.357   6.670   5.612  0.2113  0.1090 -0.0303
  413MOL0     C56912   8.279   6.662   5.492  0.6300  0.4102 -0.6197
  413MOL0     C56913   8.144   6.646   5.496  0.2243  0.2248 -0.5490
  413MOL0     C56914   8.075   6.658   5.617  0.2186  0.2847  0.0048
  413MOL0     O56915   7.940   6.653   5.640 -0.0334 -0.2170 -0.1857
  413MOL0     C56916   7.853   6.674   5.529 -0.5236  0.1649 -0.6189
  413MOL0     C56917   7.718   6.730   5.568  0.1246 -0.1014  0.2655
  413MOL0     C56918   7.626   6.621   5.625  1.0680  0.1151 -0.5893
  413MOL0     C56919   7.474   6.660   5.634  0.1040  0.3120 -0.6079
  413MOL0     C56920   7.406   6.554   5.710  0.2429  0.2587  0.1277
  413MOL0     C56921   7.345   6.465   5.764  0.0996 -0.4228 -1.0102
  413MOL0     C56922   8.158   6.665   5.734  0.6721 -0.1889 -0.1506
  413MOL0     C56923   8.295   6.675   5.732  0.5079 -0.2688 -0.2700
  413MOL0     C56924   8.369   6.658   5.868  0.5794  0.3616 -0.0157
  413MOL0     H56925   8.744   6.535   5.607  1.4803 -1.0710 -0.3452
  413MOL0     H56926   8.976   6.482   5.513  3.3643 -3.7067 -5.2713
  413MOL0     H56927   9.100   6.648   5.143 -0.6455  0.6111  3.3164
  413MOL0     H56928   9.013   6.507   5.074 -1.5646  0.3659  1.5586
  413MOL0     H56929   9.304   6.512   5.166  1.2279 -1.6187 -1.1621
  413MOL0     H56930   9.222   6.365   5.134 -1.2553  0.1871  1.2306
  413MOL0     H56931   9.183   6.442   4.893 -0.2148  0.5049 -0.1846
  413MOL0     H56932   9.262   6.589   4.939 -1.4483 -0.3658 -0.5148
  413MOL0     H56933   9.455   6.435   5.006 -1.3591 -1.8711  1.1554
  413MOL0     H56934   9.365   6.303   4.926 -3.1127 -0.1107  2.6233
  413MOL0     H56935   9.483   6.561   4.797  1.5457  0.3847 -1.2595
  413MOL0     H56936   9.379   6.447   4.713 -0.4200 -2.0014  0.9890
  413MOL0     H56937   9.637   6.362   4.838 -1.6500 -1.1458  1.5063
  413MOL0     H56938   9.523   6.259   4.762  1.3214 -0.5912  2.0855
  413MOL0     H56939   9.656   6.505   4.623 -1.4118  0.2132 -2.3271
  413MOL0     H56940   9.556   6.389   4.539  0.1982  1.3706 -1.0491
  413MOL0     H56941   9.754   6.217   4.605 -0.9904 -0.6813 -0.6201
  413MOL0     H56942   9.786   6.345   4.499  0.2350  1.3553  1.3402
  413MOL0     H56943   9.938   6.542   4.562  2.7509  2.0815  1.3058
  413MOL0     H56944  10.192   6.580   4.831  3.1074  1.4179 -0.8633
  413MOL0     H56945  10.156   6.644   4.680  3.3188 -0.8455 -0.7189
  413MOL0     H56946  10.384   6.559   4.713 -0.3262  0.6423  1.2780
  413MOL0     H56947  10.314   6.402   4.741 -2.4376  1.0989  1.4389
  413MOL0     H56948  10.261   6.390   4.487 -1.7214  2.6275 -1.1332
  413MOL0     H56949  10.291   6.561   4.477 -0.5230  1.4075  1.1624
  413MOL0     H56950  10.484   6.331   4.544 -0.2759  0.6916  0.2645
  413MOL0     H56951  10.467   6.406   4.389  0.1273 -0.2026  0.8771
  413MOL0     H56952  10.714   6.718   4.559  2.0784  0.8145 -0.1645
  413MOL0     H56953  10.891   6.843   4.498 -0.1445 -0.3464 -0.9839
  413MOL0     H56954  11.032   6.800   4.409 -0.6313 -0.8804 -0.4498
  413MOL0     H56955  11.032   6.774   4.582 -1.2168  1.4575  0.8888
  413MOL0     H56956  11.205   6.250   4.503  0.3693 -0.9686  0.0377
  413MOL0     H56957  11.451   6.196   4.549  2.6188  1.8380 -0.6046
  413MOL0     H56958  11.680   6.208   4.168  2.1019  3.0080 -1.6144
  413MOL0     H56959  11.779   6.314   4.261 -0.0018 -0.4728  0.7993
  413MOL0     H56960  11.816   6.050   4.371 -0.6195 -1.7544 -0.4020
  413MOL0     H56961  11.819   6.033   4.194  0.0552 -0.0336  0.1777
  413MOL0     H56962  11.988   6.266   4.303 -1.1859  0.8095 -1.1280
  413MOL0     H56963  11.989   6.170   4.154  0.5833  0.0729 -0.9557
  413MOL0     H56964  12.076   5.964   4.291 -1.9004 -0.2567 -0.6010
  413MOL0     H56965  12.063   6.066   4.433  1.2671 -1.6903  0.4874
  413MOL0     H56966  12.239   6.092   4.199  2.1921 -2.1484  1.0086
  413MOL0     H56967  12.233   6.220   4.327 -0.7402  0.3004  0.0527
  413MOL0     H56968  12.304   5.929   4.384  0.3477  0.0305  3.1942
  413MOL0     H56969  12.301   6.062   4.492  0.4774 -0.4425  0.3048
  413MOL0     H56970  12.487   6.163   4.377 -3.1305  0.3576 -2.1666
  413MOL0     H56971  12.489   6.057   4.247 -0.7196  0.2605  0.4777
  413MOL0     H56972  12.566   5.871   4.402 -0.0845 -0.2308 -0.2659
  413MOL0     H56973  12.542   5.976   4.541  0.2155  3.3243 -0.2980
  413MOL0     H56974  11.545   6.345   4.161  0.6348  3.3979  0.4945
  413MOL0     H56975  11.325   6.438   4.139 -1.6875  0.0454  0.6247
  413MOL0     H56976  10.910   6.319   4.345  0.9450 -0.0261  0.4050
  413MOL0     H56977  10.698   6.315   4.400  2.6858 -1.3925 -0.1596
  413MOL0     H56978   8.848   6.639   5.136 -0.1354 -0.3169  0.0840
  413MOL0     H56979   8.630   6.709   5.244 -1.0268 -1.6156  0.1434
  413MOL0     H56980   8.319   6.652   5.391 -0.0535 -0.2910 -0.8211
  413MOL0     H56981   8.096   6.635   5.400  2.1010 -0.6435 -1.4384
  413MOL0     H56982   7.910   6.742   5.465 -0.4099  0.9268  0.2708
  413MOL0     H56983   7.844   6.581   5.472  0.4166 -0.3462  0.0495
  413MOL0     H56984   7.659   6.777   5.489 -2.1025  1.6468  2.8061
  413MOL0     H56985   7.728   6.802   5.649 -0.9757 -1.7089  1.8962
  413MOL0     H56986   7.626   6.526   5.571  2.8254 -0.8721  0.9871
  413MOL0     H56987   7.670   6.590   5.721 -0.9754 -2.5052 -0.3645
  413MOL0     H56988   7.436   6.675   5.532 -0.5487  0.7888 -0.2975
  413MOL0     H56989   7.464   6.757   5.683 -0.4173 -0.3257  0.5963
  413MOL0     H56990   7.299   6.383   5.815 -0.5799 -0.2548 -1.3457
  413MOL0     H56991   8.106   6.649   5.828  0.6082  0.7787 -0.0125
  413MOL0     H56992   8.302   6.646   5.954 -0.8838 -1.1504 -1.2886
  413MOL0     H56993   8.441   6.576   5.856 -0.3592 -0.3653 -0.8337
  413MOL0     H56994   8.429   6.748   5.885 -0.1279  1.3224 -2.3023
  414MOL0     O56995  10.126   9.907   8.767 -1.2678  0.0747  0.0832
  414MOL0     C56996  10.149   9.781   8.768  0.2392  0.0344  0.1753
  414MOL0     O56997  10.267   9.722   8.752  0.5991 -0.2715  0.1921
  414MOL0     C56998  10.371   9.802   8.792 -0.2804  0.1379  0.2548
  414MOL0     C56999  10.479   9.803   8.706 -0.1693 -1.0473 -0.2533
  414MOL0     C57000  10.604   9.850   8.748 -0.3823 -0.0278 -0.5559
  414MOL0     C57001  10.624   9.906   8.875 -0.2028  0.2666 -0.7586
  414MOL0     O57002  10.740   9.964   8.923 -0.5686  0.2264  0.5359
  414MOL0     C57003  10.863   9.934   8.851 -0.1597 -0.0200 -0.3571
  414MOL0     C57004  10.975  10.008   8.912 -0.8789  0.5967  0.0472
  414MOL0     C57005  11.061   9.927   9.007  0.3621 -0.3489 -0.3906
  414MOL0     C57006  11.170  10.014   9.057 -0.8890 -0.2119 -0.7320
  414MOL0     C57007  11.240   9.956   9.185  0.9022  1.1716  0.0753
  414MOL0     C57008  11.369  10.043   9.221  0.7524 -0.1480 -0.4038
  414MOL0     C57009  11.436   9.984   9.341  0.2047  0.1123 -0.6551
  414MOL0     C57010  11.344   9.961   9.471 -0.1196 -0.2137 -0.1408
  414MOL0     N57011  11.434   9.951   9.579 -0.2995 -0.1936  0.2563
  414MOL0     C57012  11.473   9.834   9.631  0.7803 -0.0075 -0.1524
  414MOL0     C57013  11.548   9.873   9.738 -0.0534  0.9916 -0.1065
  414MOL0     C57014  11.632   9.780   9.827 -0.3897 -0.5747  0.1605
  414MOL0     C57015  11.731   9.706   9.735  0.6192 -0.4220 -0.0741
  414MOL0     C57016  11.807   9.587   9.795 -0.0944 -0.5772  0.1686
  414MOL0     C57017  11.897   9.632   9.918 -0.3816 -0.0404 -0.4903
  414MOL0     O57018  11.977   9.748   9.892  0.0091  0.8263  0.7357
  414MOL0     C57019  12.085   9.771   9.978  0.3130  0.6626 -0.1553
  414MOL0     C57020  12.139   9.677  10.068 -0.3176 -0.4011  0.1126
  414MOL0     C57021  12.251   9.710  10.145 -0.4757  0.0721 -0.4296
  414MOL0     C57022  12.312   9.600  10.226 -0.3555 -0.2232 -0.6685
  414MOL0     C57023  12.310   9.838  10.143  0.5845  1.2788  0.2033
  414MOL0     C57024  12.418   9.885  10.228 -1.2867 -0.0428 -1.4000
  414MOL0     O57025  12.473   9.998  10.185 -0.3978 -0.2940  0.1665
  414MOL0     C57026  12.590  10.058  10.239 -0.8382 -0.2566  0.5994
  414MOL0     C57027  12.580  10.168  10.319  0.2608 -0.3259  0.6783
  414MOL0     C57028  12.697  10.231  10.362  0.8777 -0.1838  0.4369
  414MOL0     C57029  12.822  10.177  10.329 -0.9462  0.0387  0.3070
  414MOL0     O57030  12.936  10.245  10.377  1.0074  0.1069  0.2717
  414MOL0     C57031  13.064  10.187  10.361  0.2244  1.1553 -0.7114
  414MOL0     C57032  13.169  10.273  10.428  0.1601  0.1584 -0.1636
  414MOL0     C57033  13.225  10.389  10.358 -0.0157  0.0052  0.5536
  414MOL0     C57034  13.118  10.466  10.268  0.2760 -0.7191 -0.0038
  414MOL0     C57035  13.150  10.618  10.255 -0.1041 -0.0135 -0.0624
  414MOL0     C57036  13.287  10.655  10.188  0.2706 -0.2269  0.4879
  414MOL0     C57037  13.308  10.812  10.164  0.2369  0.3558 -0.3059
  414MOL0     C57038  13.293  10.891  10.290  0.2753  0.3540 -0.2825
  414MOL0    Cl57039  13.311  11.059  10.257  0.5471 -0.0529 -0.2992
  414MOL0     C57040  12.833  10.064  10.260 -0.0662  0.0192  0.6786
  414MOL0     C57041  12.717  10.001  10.214 -0.7357  0.1333  0.3019
  414MOL0     O57042  12.449   9.831  10.339 -0.6165 -0.0488 -0.0394
  414MOL0     C57043  12.251   9.932  10.056 -0.0329 -0.7374 -1.5630
  414MOL0     C57044  12.145   9.899   9.978 -0.0110 -0.9102 -0.5304
  414MOL0     N57045  11.540  10.009   9.755  0.1841  0.4891 -0.5038
  414MOL0     N57046  11.468  10.053   9.658 -0.1112  0.2220 -0.3361
  414MOL0     C57047  10.526   9.897   8.971 -0.2192  0.2145  0.4673
  414MOL0     C57048  10.406   9.839   8.925  0.4801 -0.0045  0.6661
  414MOL0     C57049  10.036   9.688   8.767  0.6046 -0.4714 -0.1384
  414MOL0     C57050  10.058   9.557   8.817 -0.0183 -0.2317 -1.7260
  414MOL0     C57051   9.966   9.452   8.819  0.1647  0.6213 -0.2777
  414MOL0     C57052   9.833   9.492   8.786  0.4751 -0.7999  0.6850
  414MOL0     O57053   9.715   9.422   8.807 -0.1369  0.0040 -0.2333
  414MOL0     C57054   9.711   9.282   8.840 -0.3180  0.0735  0.8148
  414MOL0     C57055   9.662   9.264   8.983 -0.5433 -0.0799 -0.3903
  414MOL0     C57056   9.533   9.325   9.019  0.1207  0.0080  0.6804
  414MOL0     C57057   9.428   9.218   9.016 -0.9056  0.6363  0.1978
  414MOL0     C57058   9.320   9.243   9.115  0.5894 -0.0168 -0.0150
  414MOL0     C57059   9.227   9.267   9.187  0.0543 -0.0924  0.4259
  414MOL0     C57060   9.807   9.621   8.746  0.6532 -0.5079  0.7846
  414MOL0     C57061   9.907   9.721   8.725  0.3673 -0.3822  0.0718
  414MOL0     C57062   9.869   9.846   8.660  0.2575 -0.5478 -0.5548
  414MOL0     H57063  10.468   9.774   8.602 -1.2156 -0.1035 -0.4344
  414MOL0     H57064  10.679   9.860   8.670 -0.7277 -1.8376 -1.1593
  414MOL0     H57065  10.854   9.965   8.747 -1.0386  0.1979 -0.2180
  414MOL0     H57066  10.887   9.827   8.857 -2.0985 -0.4145  1.8945
  414MOL0     H57067  11.038  10.024   8.824 -0.9833 -1.9904 -0.5541
  414MOL0     H57068  10.950  10.099   8.968  0.9475  0.7764  0.6382
  414MOL0     H57069  10.997   9.899   9.091 -1.5478  2.4669 -0.7564
  414MOL0     H57070  11.103   9.833   8.970  0.0973 -0.2642 -0.9061
  414MOL0     H57071  11.244  10.036   8.980  1.4997 -0.0236  1.4810
  414MOL0     H57072  11.140  10.116   9.083 -1.8689  0.0031 -2.5157
  414MOL0     H57073  11.274   9.854   9.166  0.0281  0.3274  2.5682
  414MOL0     H57074  11.166   9.943   9.264  4.6897 -2.6875  3.5335
  414MOL0     H57075  11.426  10.052   9.128 -1.6355 -2.3710 -2.2551
  414MOL0     H57076  11.335  10.138   9.264  0.9962 -1.3235  2.6075
  414MOL0     H57077  11.508  10.061   9.369 -0.4289  0.5546 -0.1812
  414MOL0     H57078  11.490   9.891   9.326 -0.4257 -0.2732 -0.5859
  414MOL0     H57079  11.289  10.055   9.479  3.0893  1.8708 -0.5621
  414MOL0     H57080  11.274   9.878   9.457 -1.3960  0.7581  0.3438
  414MOL0     H57081  11.459   9.736   9.587  3.2982 -0.2640 -0.5134
  414MOL0     H57082  11.564   9.708   9.872 -1.5820 -0.6335 -1.6106
  414MOL0     H57083  11.682   9.841   9.902  1.1623  1.3489 -2.2573
  414MOL0     H57084  11.676   9.655   9.655 -1.0673 -2.2807  2.1358
  414MOL0     H57085  11.804   9.780   9.699 -1.2399  1.2350 -0.6492
  414MOL0     H57086  11.739   9.509   9.831 -0.2391 -0.5775 -0.0995
  414MOL0     H57087  11.875   9.551   9.717  0.9990  0.8293  0.4435
  414MOL0     H57088  11.839   9.661  10.006  3.5207  1.1317  1.9617
  414MOL0     H57089  11.965   9.547   9.935  2.0596  2.2267  2.1379
  414MOL0     H57090  12.107   9.573  10.061 -0.4583 -0.3440 -0.0875
  414MOL0     H57091  12.273   9.592  10.328 -1.5418 -0.6206 -1.1288
  414MOL0     H57092  12.421   9.608  10.228 -0.2249 -1.7589  1.2949
  414MOL0     H57093  12.297   9.498  10.188 -4.4971 -2.1221  4.8160
  414MOL0     H57094  12.485  10.213  10.345  0.2555  0.0953 -0.0505
  414MOL0     H57095  12.677  10.325  10.411 -2.0587 -0.0207 -0.8535
  414MOL0     H57096  13.064  10.090  10.412  0.9992  1.3007 -0.4140
  414MOL0     H57097  13.075  10.180  10.253  0.0113  0.6447 -0.7032
  414MOL0     H57098  13.135  10.296  10.529 -0.4769  0.2911 -0.4091
  414MOL0     H57099  13.256  10.207  10.438  0.7865  1.1911  1.7931
  414MOL0     H57100  13.313  10.358  10.301  1.5998  3.5898  0.7976
  414MOL0     H57101  13.263  10.441  10.447 -1.4437 -3.7237  3.6069
  414MOL0     H57102  13.016  10.460  10.307 -0.2016 -0.1984 -1.1254
  414MOL0     H57103  13.118  10.410  10.174  1.3291 -2.1422  0.8089
  414MOL0     H57104  13.063  10.677  10.224  1.9131  3.2632  0.0739
  414MOL0     H57105  13.162  10.658  10.356  0.0394 -1.7212  0.6226
  414MOL0     H57106  13.281  10.605  10.090  0.6386  1.5115 -0.4718
  414MOL0     H57107  13.372  10.619  10.246  1.1112  0.5214 -0.2453
  414MOL0     H57108  13.230  10.850  10.098 -1.0462  0.4038  1.1646
  414MOL0     H57109  13.408  10.830  10.123  1.3470 -0.3707  1.9172
  414MOL0     H57110  13.365  10.866  10.369  0.4559  1.1645 -0.1825
  414MOL0     H57111  13.197  10.878  10.341  2.3660 -1.3741  3.6429
  414MOL0     H57112  12.929  10.025  10.226 -0.5461  0.5120 -1.3854
  414MOL0     H57113  12.719   9.909  10.156  0.4671  1.3914 -1.7873
  414MOL0     H57114  12.283  10.035  10.060 -1.2003 -0.2372  4.4704
  414MOL0     H57115  12.094   9.964   9.907  0.4801 -1.5218 -1.4635
  414MOL0     H57116  10.535   9.924   9.076  1.8495  1.0785  0.1089
  414MOL0     H57117  10.322   9.836   8.994  0.4953  0.7583  0.7274
  414MOL0     H57118  10.157   9.535   8.856 -1.1596 -0.3053  1.4041
  414MOL0     H57119   9.977   9.350   8.855 -2.1511  0.7671  1.0454
  414MOL0     H57120   9.649   9.232   8.766  0.9618  1.5413 -1.3593
  414MOL0     H57121   9.807   9.234   8.818 -0.5558  0.2499 -0.6580
  414MOL0     H57122   9.739   9.310   9.045  0.4245  1.4784 -2.6513
  414MOL0     H57123   9.661   9.156   9.005  3.3918 -0.3726 -0.9486
  414MOL0     H57124   9.540   9.368   9.119  1.2371  3.3116 -0.6493
  414MOL0     H57125   9.503   9.405   8.950  1.3026 -1.4754 -1.6664
  414MOL0     H57126   9.470   9.126   9.060  0.3681  1.2566  0.3196
  414MOL0     H57127   9.400   9.201   8.912 -0.0916  1.6735 -0.2028
  414MOL0     H57128   9.155   9.273   9.266  1.0526 -0.5889  1.3980
  414MOL0     H57129   9.705   9.653   8.728  1.1762  1.3723  0.9020
  414MOL0     H57130   9.890   9.919   8.739  2.0761  0.2306 -1.7071
  414MOL0     H57131   9.939   9.854   8.576 -0.7906  0.7248 -1.3460
  414MOL0     H57132   9.762   9.849   8.637 -0.0339 -1.7503  0.5400
  415MOL0     O57133   6.200   6.164  10.086 -0.0667  0.6021 -0.2834
  415MOL0     C57134   6.189   6.067  10.006  0.6768 -0.8171 -0.4591
  415MOL0     O57135   6.269   6.046   9.892 -0.0245 -0.5526 -0.2291
  415MOL0     C57136   6.382   6.112   9.865 -0.3946  0.4731 -0.1002
  415MOL0     C57137   6.405   6.252   9.883 -0.0573  0.3575 -0.9128
  415MOL0     C57138   6.524   6.311   9.842 -0.1002 -0.1711 -0.3265
  415MOL0     C57139   6.633   6.237   9.791  0.5202  0.1571 -0.1196
  415MOL0     O57140   6.743   6.300   9.753  0.0724  0.7326  0.6111
  415MOL0     C57141   6.865   6.225   9.740  0.2300 -0.4906 -0.1329
  415MOL0     C57142   6.990   6.311   9.751 -0.1223 -1.1490  0.5854
  415MOL0     C57143   6.980   6.416   9.864 -1.0327 -0.3688 -0.2368
  415MOL0     C57144   7.118   6.475   9.896  0.6464 -0.4806 -0.6270
  415MOL0     C57145   7.118   6.630   9.873 -0.5875 -0.4167  1.5316
  415MOL0     C57146   7.265   6.688   9.883 -0.1426 -0.7675 -0.7009
  415MOL0     C57147   7.269   6.845   9.878  0.3552 -0.1742  0.4269
  415MOL0     C57148   7.416   6.878   9.891 -0.7721  0.0269 -0.3092
  415MOL0     N57149   7.435   7.019   9.931 -0.4589  0.2150  0.7206
  415MOL0     C57150   7.416   7.135   9.853 -0.4029  0.1692 -0.9746
  415MOL0     C57151   7.436   7.239   9.929 -0.2641 -0.0839 -0.5757
  415MOL0     C57152   7.420   7.381   9.894 -0.7991  0.0896  0.6241
  415MOL0     C57153   7.540   7.430   9.812 -0.0393  0.3871 -0.3553
  415MOL0     C57154   7.684   7.404   9.872 -0.0314 -0.8219 -0.2745
  415MOL0     C57155   7.740   7.267   9.843 -0.4681 -0.6751 -0.2866
  415MOL0     O57156   7.724   7.230   9.706  0.2796  0.8697 -0.9625
  415MOL0     C57157   7.728   7.097   9.670  0.6157 -0.1408 -0.7132
  415MOL0     C57158   7.680   7.069   9.544 -0.1053 -0.5576 -0.1068
  415MOL0     C57159   7.658   6.937   9.497  0.2145 -0.0422 -0.8440
  415MOL0     C57160   7.620   6.911   9.356 -0.7066 -0.3544 -1.0141
  415MOL0     C57161   7.686   6.830   9.586 -0.1481  0.5361  0.2329
  415MOL0     C57162   7.670   6.692   9.542  0.1852 -0.9548 -0.4222
  415MOL0     O57163   7.539   6.656   9.512 -0.7099 -0.0889  0.1226
  415MOL0     C57164   7.502   6.525   9.514  0.1283 -0.5338  1.1014
  415MOL0     C57165   7.416   6.487   9.415 -0.5340 -0.6288 -0.5736
  415MOL0     C57166   7.366   6.350   9.413  0.2241 -0.1219  0.1149
  415MOL0     C57167   7.400   6.255   9.507  0.2297  0.4171 -0.1862
  415MOL0     O57168   7.348   6.128   9.523 -0.0285 -0.5461 -0.2318
  415MOL0     C57169   7.249   6.085   9.428  0.3281  0.4247 -0.0945
  415MOL0     C57170   7.112   6.130   9.466  0.6009  0.0371 -0.8184
  415MOL0     C57171   7.019   6.122   9.337 -0.1087  0.0959 -0.9371
  415MOL0     C57172   6.868   6.148   9.368 -0.6852  0.0637 -0.1068
  415MOL0     C57173   6.790   6.112   9.250  0.4535  0.2733 -0.2297
  415MOL0     C57174   6.630   6.094   9.272 -0.1411 -1.4533  0.4870
  415MOL0     C57175   6.566   6.207   9.350  0.0347 -1.0441  0.0401
  415MOL0     C57176   6.418   6.165   9.396 -0.4656  0.5793 -0.4300
  415MOL0    Cl57177   6.305   6.163   9.255 -0.0629 -0.3651 -0.1857
  415MOL0     C57178   7.481   6.300   9.611  0.1112  0.1079 -0.3070
  415MOL0     C57179   7.527   6.434   9.616  0.1197 -0.1210 -0.9134
  415MOL0     O57180   7.768   6.625   9.539 -0.1293  0.6432 -0.1803
  415MOL0     C57181   7.728   6.855   9.714 -0.1981  0.2718 -0.4605
  415MOL0     C57182   7.752   6.988   9.757  0.0550 -0.4857  0.5329
  415MOL0     N57183   7.459   7.188  10.056  0.2891 -0.5820  0.4331
  415MOL0     N57184   7.449   7.054  10.057  0.3450 -0.5161 -0.5053
  415MOL0     C57185   6.608   6.098   9.765  0.8698 -0.3274  0.4612
  415MOL0     C57186   6.487   6.038   9.813 -0.4502 -0.3282  0.1614
  415MOL0     C57187   6.076   5.978  10.019  0.7461  0.4076  0.4604
  415MOL0     C57188   6.068   5.870   9.927 -1.0134  0.1926 -0.3514
  415MOL0     C57189   5.981   5.770   9.934  0.3265 -0.5264  0.0918
  415MOL0     C57190   5.870   5.779  10.020 -0.3405  0.8536  0.6776
  415MOL0     O57191   5.758   5.693  10.017  0.3652  0.0875 -0.3696
  415MOL0     C57192   5.752   5.602   9.905 -0.6968  0.1494 -0.2352
  415MOL0     C57193   5.622   5.528   9.896 -0.7213 -0.1688 -0.0310
  415MOL0     C57194   5.621   5.414  10.001  0.6566 -0.5757 -0.2257
  415MOL0     C57195   5.491   5.343  10.013  0.7384 -0.2212  0.2624
  415MOL0     C57196   5.469   5.251  10.119 -0.8546  0.6178  0.4059
  415MOL0     C57197   5.422   5.165  10.189 -0.4541  0.5857 -0.0956
  415MOL0     C57198   5.864   5.888  10.110  0.6284  0.1057 -0.1660
  415MOL0     C57199   5.966   5.987  10.115 -0.2826 -0.0888 -0.1593
  415MOL0     C57200   5.961   6.099  10.207 -0.4422  0.0073 -0.4617
  415MOL0     H57201   6.335   6.322   9.927  0.8587  0.5145  0.3486
  415MOL0     H57202   6.518   6.419   9.843 -1.7819 -0.2429  0.6879
  415MOL0     H57203   6.871   6.156   9.656  1.8931  1.1753 -1.4592
  415MOL0     H57204   6.863   6.159   9.828 -2.1150 -0.6588 -0.2573
  415MOL0     H57205   7.080   6.249   9.761 -0.3020 -1.3265  1.1505
  415MOL0     H57206   7.003   6.369   9.659  2.2860 -2.8919 -0.2567
  415MOL0     H57207   6.912   6.497   9.836  0.4750  0.7799 -0.7496
  415MOL0     H57208   6.940   6.361   9.950  0.9054  0.2030  1.1245
  415MOL0     H57209   7.121   6.459  10.004  0.2659 -1.8790 -0.8100
  415MOL0     H57210   7.200   6.421   9.849  0.5629 -1.6649  0.5533
  415MOL0     H57211   7.043   6.673   9.941 -2.5388 -1.3544  0.0624
  415MOL0     H57212   7.074   6.651   9.775  1.0324  5.0748  1.6245
  415MOL0     H57213   7.311   6.658   9.977 -4.2624 -4.0151  0.6303
  415MOL0     H57214   7.318   6.650   9.796  1.8775  1.6294 -0.6015
  415MOL0     H57215   7.210   6.880   9.963 -0.1636 -1.2909  0.5399
  415MOL0     H57216   7.227   6.891   9.788 -1.0281 -0.2923  0.9904
  415MOL0     H57217   7.462   6.815   9.967  1.9923  0.9833 -1.0777
  415MOL0     H57218   7.475   6.860   9.801  1.9933 -1.5921  1.7006
  415MOL0     H57219   7.397   7.132   9.746  0.8089 -1.8015 -1.1949
  415MOL0     H57220   7.405   7.449   9.978 -0.8391 -0.1063  0.7771
  415MOL0     H57221   7.339   7.399   9.823 -0.2334 -0.8813 -0.3021
  415MOL0     H57222   7.538   7.392   9.709  0.4169  1.6357 -0.8506
  415MOL0     H57223   7.531   7.539   9.798  0.3702  0.5194  0.3445
  415MOL0     H57224   7.746   7.490   9.845 -2.4243  1.1002  0.0005
  415MOL0     H57225   7.681   7.410   9.981 -2.8294  1.6668 -0.3560
  415MOL0     H57226   7.847   7.261   9.862 -0.0384  0.4271 -2.1122
  415MOL0     H57227   7.689   7.194   9.907 -0.7140  1.5590  2.2437
  415MOL0     H57228   7.662   7.150   9.474  1.6432  0.7793  0.9263
  415MOL0     H57229   7.516   6.884   9.337 -2.1334  3.5277  0.1861
  415MOL0     H57230   7.685   6.829   9.326  2.2912  0.7718  1.8102
  415MOL0     H57231   7.647   7.002   9.302  2.5660  0.5044  1.6630
  415MOL0     H57232   7.370   6.558   9.348  0.1157  0.5565  0.2062
  415MOL0     H57233   7.303   6.328   9.328 -1.9058  1.1300  1.2822
  415MOL0     H57234   7.287   6.106   9.327  2.8736 -1.4304  0.3933
  415MOL0     H57235   7.254   5.976   9.423  0.7139  0.4792 -1.3486
  415MOL0     H57236   7.081   6.060   9.544 -1.3675  1.7011 -0.0410
  415MOL0     H57237   7.101   6.228   9.513  0.0759 -0.0223 -0.8093
  415MOL0     H57238   7.014   6.018   9.305  0.0476 -0.1132 -0.2947
  415MOL0     H57239   7.057   6.183   9.255 -2.2255 -0.2479 -2.2509
  415MOL0     H57240   6.854   6.255   9.387 -1.2100 -0.5756  4.0701
  415MOL0     H57241   6.834   6.086   9.452 -3.0844 -1.5554 -2.1089
  415MOL0     H57242   6.804   6.191   9.175  0.6362 -1.1280 -1.7214
  415MOL0     H57243   6.829   6.023   9.200 -2.0069  0.3015 -2.3937
  415MOL0     H57244   6.600   6.001   9.322  2.2595 -4.3578 -2.9848
  415MOL0     H57245   6.580   6.096   9.175  0.9010  1.4107 -0.0808
  415MOL0     H57246   6.557   6.293   9.283 -0.4763 -1.4336 -0.3983
  415MOL0     H57247   6.631   6.229   9.435 -2.2285  0.7628  1.4356
  415MOL0     H57248   6.388   6.234   9.475  0.4728 -0.0328  0.4746
  415MOL0     H57249   6.424   6.065   9.439 -0.4414  0.1880 -1.3146
  415MOL0     H57250   7.509   6.238   9.696 -0.2509 -0.2005 -0.4058
  415MOL0     H57251   7.595   6.464   9.695 -0.1659 -0.0315 -0.7005
  415MOL0     H57252   7.726   6.777   9.789 -2.3977 -0.5036 -1.2298
  415MOL0     H57253   7.787   7.012   9.857  0.6389  1.2446 -0.0599
  415MOL0     H57254   6.683   6.041   9.710  1.2343  3.0206 -2.8568
  415MOL0     H57255   6.468   5.932   9.827 -0.4170 -0.1010  2.2475
  415MOL0     H57256   6.142   5.871   9.848  1.5594  1.5096  1.8716
  415MOL0     H57257   5.988   5.688   9.864 -0.7337 -0.0486 -0.6074
  415MOL0     H57258   5.762   5.660   9.812 -2.2649 -3.3692 -2.8104
  415MOL0     H57259   5.837   5.533   9.905 -0.9502 -0.1708 -0.7178
  415MOL0     H57260   5.601   5.488   9.797 -1.7820 -1.1221  0.5522
  415MOL0     H57261   5.540   5.599   9.909 -1.0914 -0.4016 -1.0149
  415MOL0     H57262   5.698   5.340   9.977 -0.6901 -2.2039  0.2490
  415MOL0     H57263   5.640   5.462  10.097  2.8392  1.1864 -1.4480
  415MOL0     H57264   5.464   5.308   9.913  1.7207 -0.2545  0.0025
  415MOL0     H57265   5.428   5.429  10.037  1.1185  0.2837 -0.5021
  415MOL0     H57266   5.373   5.086  10.242 -0.1551 -0.3046 -1.1161
  415MOL0     H57267   5.774   5.895  10.170 -0.5348 -1.6024 -1.6015
  415MOL0     H57268   6.051   6.095  10.268  0.2408  0.8499 -1.3941
  415MOL0     H57269   5.956   6.197  10.158 -2.9476  1.1517  1.8467
  415MOL0     H57270   5.871   6.089  10.269 -0.8227 -4.5540 -1.3272
  416MOL0     O57271   1.269   5.729   7.848 -0.2990 -0.2629 -0.1970
  416MOL0     C57272   1.218   5.839   7.839  0.1178 -0.6989 -0.3276
  416MOL0     O57273   1.287   5.958   7.864  0.1019  0.1390  0.5248
  416MOL0     C57274   1.424   5.963   7.891  0.0383  0.0795  0.2718
  416MOL0     C57275   1.471   5.907   8.004 -0.2994  0.8129  0.0486
  416MOL0     C57276   1.607   5.901   8.038  0.4599  0.3289  0.1534
  416MOL0     C57277   1.700   5.956   7.943 -0.6459 -0.2388  0.0203
  416MOL0     O57278   1.838   5.966   7.974 -0.1037 -0.4647 -0.6550
  416MOL0     C57279   1.884   5.889   8.087  0.3920 -0.8464 -0.4943
  416MOL0     C57280   2.036   5.895   8.083  0.5182 -0.5866 -0.4064
  416MOL0     C57281   2.103   5.911   8.212 -0.2399 -0.1092  0.1714
  416MOL0     C57282   2.257   5.927   8.190 -0.4364 -0.1730  0.2996
  416MOL0     C57283   2.327   5.946   8.323  0.2538 -0.4867  0.3754
  416MOL0     C57284   2.476   5.922   8.317 -0.1651 -0.5924 -0.4016
  416MOL0     C57285   2.563   5.983   8.437  0.0479  0.3410 -0.2166
  416MOL0     C57286   2.697   5.912   8.451  0.3812  0.5418  0.8253
  416MOL0     N57287   2.783   5.958   8.560  0.2002 -0.9267 -0.1104
  416MOL0     C57288   2.804   6.094   8.602  0.7889  0.2844  0.2079
  416MOL0     C57289   2.887   6.083   8.717  0.6192 -0.4506 -0.3373
  416MOL0     C57290   2.921   6.187   8.817  0.6401 -0.3284 -0.4874
  416MOL0     C57291   2.819   6.193   8.936  0.1142 -0.2625  0.2900
  416MOL0     C57292   2.866   6.282   9.047  0.7261 -1.2417 -0.3323
  416MOL0     C57293   2.751   6.304   9.153 -0.3785 -0.9602 -1.0727
  416MOL0     O57294   2.741   6.182   9.226 -0.8155  0.0266  0.5330
  416MOL0     C57295   2.623   6.163   9.293 -0.1156 -0.0864 -0.8820
  416MOL0     C57296   2.584   6.248   9.392 -1.2527 -0.4172  0.6211
  416MOL0     C57297   2.455   6.236   9.455 -0.6594 -0.4664  0.2368
  416MOL0     C57298   2.413   6.362   9.524  0.7180 -0.3335  0.2901
  416MOL0     C57299   2.378   6.116   9.435 -1.9685  0.4675 -1.1744
  416MOL0     C57300   2.263   6.080   9.506 -0.1519 -0.4494 -0.1391
  416MOL0     O57301   2.255   5.954   9.560 -0.0545  0.0378 -0.2030
  416MOL0     C57302   2.135   5.901   9.595 -0.3137  0.2210 -0.1621
  416MOL0     C57303   2.106   5.883   9.734 -0.2809  0.6341  0.0192
  416MOL0     C57304   1.979   5.828   9.771 -0.9624  0.7913 -0.3406
  416MOL0     C57305   1.888   5.775   9.677 -0.1891 -0.6215  0.7359
  416MOL0     O57306   1.765   5.723   9.708  0.2860  0.3381 -0.3998
  416MOL0     C57307   1.726   5.708   9.848 -0.0069  0.7007  0.8687
  416MOL0     C57308   1.581   5.659   9.848  0.4287  0.5575  0.0162
  416MOL0     C57309   1.519   5.651   9.985 -0.1069  0.0777 -0.3460
  416MOL0     C57310   1.406   5.540  10.009 -0.0954 -0.3151  0.8031
  416MOL0     C57311   1.476   5.413  10.054 -0.4703  0.4124  0.4752
  416MOL0     C57312   1.393   5.319  10.143 -0.0207  0.1778 -0.1957
  416MOL0     C57313   1.396   5.353  10.290 -0.0522 -0.3500 -0.1805
  416MOL0     C57314   1.368   5.232  10.371 -0.1416 -0.5080  0.9681
  416MOL0    Cl57315   1.365   5.276  10.547  0.0536  0.3738  0.0524
  416MOL0     C57316   1.914   5.798   9.545 -0.0658 -0.5538 -0.4728
  416MOL0     C57317   2.035   5.857   9.499 -0.1131 -0.8696  0.4362
  416MOL0     O57318   2.168   6.162   9.491  0.3437 -0.4661  0.4744
  416MOL0     C57319   2.419   6.030   9.329 -0.3906  0.3099  0.5623
  416MOL0     C57320   2.538   6.055   9.263  0.0413  0.3906 -0.3314
  416MOL0     N57321   2.912   5.951   8.734 -0.5184 -0.3105  0.0635
  416MOL0     N57322   2.845   5.880   8.647 -0.4023 -0.2439  0.4791
  416MOL0     C57323   1.651   6.009   7.821 -0.2411  0.4106 -0.5408
  416MOL0     C57324   1.513   6.021   7.804 -0.0075  0.0832  0.0159
  416MOL0     C57325   1.074   5.838   7.798 -0.4243  0.0412 -0.7345
  416MOL0     C57326   1.010   5.966   7.793  0.5844  0.0034 -0.0354
  416MOL0     C57327   0.878   5.997   7.743  0.2558 -0.2091 -0.0649
  416MOL0     C57328   0.817   5.887   7.687  0.0501 -1.2423 -0.7683
  416MOL0     O57329   0.691   5.880   7.620  0.2797 -0.2672 -0.5158
  416MOL0     C57330   0.623   5.999   7.568 -0.8176 -0.4976 -0.0651
  416MOL0     C57331   0.682   6.048   7.435  0.3214 -0.5259  0.0958
  416MOL0     C57332   0.591   6.165   7.369 -0.4112  0.5437 -1.0310
  416MOL0     C57333   0.620   6.152   7.222 -0.1485 -0.0703  0.5348
  416MOL0     C57334   0.753   6.180   7.179 -0.2342  1.3783 -0.4546
  416MOL0     C57335   0.870   6.191   7.157 -0.5413 -0.6858  0.0368
  416MOL0     C57336   0.864   5.758   7.708 -0.0171  0.4154  0.1023
  416MOL0     C57337   0.993   5.727   7.760  0.1992 -0.0206 -0.3669
  416MOL0     C57338   1.038   5.582   7.756  0.0737 -0.3704 -0.1146
  416MOL0     H57339   1.406   5.860   8.077  2.3303  0.0281  2.0550
  416MOL0     H57340   1.631   5.846   8.128 -0.5944 -3.6691 -1.7834
  416MOL0     H57341   1.850   5.785   8.078  0.4140 -0.7276 -2.1822
  416MOL0     H57342   1.840   5.938   8.175  2.1991 -0.6152  0.3135
  416MOL0     H57343   2.066   5.801   8.036 -0.9031 -0.8413 -0.8412
  416MOL0     H57344   2.072   5.977   8.021 -3.4015  2.1570  0.6373
  416MOL0     H57345   2.062   5.995   8.267  1.0282 -0.2124  1.3280
  416MOL0     H57346   2.095   5.815   8.263 -1.6445 -0.2993 -0.3774
  416MOL0     H57347   2.294   5.835   8.142 -0.3416  0.0963 -0.1504
  416MOL0     H57348   2.279   6.006   8.119 -0.1117  1.4239  2.1038
  416MOL0     H57349   2.287   5.880   8.400 -0.2624 -2.8746 -1.8164
  416MOL0     H57350   2.303   6.048   8.355 -0.7212  0.4398 -2.8845
  416MOL0     H57351   2.485   5.813   8.307 -4.2576 -1.2637  1.1402
  416MOL0     H57352   2.509   5.964   8.221  0.0710 -0.0496 -0.0840
  416MOL0     H57353   2.495   5.971   8.523 -0.7428 -0.3740 -0.9249
  416MOL0     H57354   2.574   6.091   8.428 -3.6568  1.1597  2.3518
  416MOL0     H57355   2.679   5.804   8.460  2.1684  0.0899 -0.4036
  416MOL0     H57356   2.756   5.920   8.359  0.9359 -2.4253  0.8027
  416MOL0     H57357   2.767   6.187   8.562 -0.7253 -0.1962  0.4319
  416MOL0     H57358   2.934   6.290   8.782  1.5434 -0.9448 -2.0826
  416MOL0     H57359   3.012   6.158   8.869  1.3196  0.6665 -1.0608
  416MOL0     H57360   2.723   6.229   8.898  0.8812  2.6381  0.8247
  416MOL0     H57361   2.805   6.097   8.985 -1.2848  1.0353  2.5974
  416MOL0     H57362   2.957   6.250   9.098  0.9437 -0.3482 -0.1471
  416MOL0     H57363   2.895   6.382   9.013 -1.4108  0.8079  3.2625
  416MOL0     H57364   2.772   6.393   9.213  0.5964 -1.9508  0.1265
  416MOL0     H57365   2.652   6.321   9.110 -1.2938 -3.0186  0.0404
  416MOL0     H57366   2.659   6.321   9.422 -1.4001  0.0516 -0.1284
  416MOL0     H57367   2.494   6.435   9.530 -0.0617  0.5852  0.0355
  416MOL0     H57368   2.389   6.337   9.627 -0.9627 -0.8117 -0.1838
  416MOL0     H57369   2.320   6.397   9.477  0.2516 -2.2494 -0.3007
  416MOL0     H57370   2.179   5.919   9.806 -0.2483  1.3176 -0.3561
  416MOL0     H57371   1.951   5.830   9.876  1.3584 -1.1003  0.3974
  416MOL0     H57372   1.790   5.642   9.908  0.3398 -0.5913 -0.8454
  416MOL0     H57373   1.723   5.808   9.891  0.5182  2.9172 -3.6929
  416MOL0     H57374   1.519   5.720   9.781 -0.4379 -1.0788 -0.7359
  416MOL0     H57375   1.584   5.557   9.807  0.6573  0.0717  1.2029
  416MOL0     H57376   1.462   5.744   9.998  1.2750  1.2510 -2.1331
  416MOL0     H57377   1.594   5.649  10.064 -1.2460  0.7637  0.7880
  416MOL0     H57378   1.332   5.519   9.931 -1.2950 -1.0169  2.0843
  416MOL0     H57379   1.347   5.575  10.093 -0.7929  0.4173  0.0302
  416MOL0     H57380   1.510   5.349   9.972 -4.0912 -1.6827  0.4041
  416MOL0     H57381   1.563   5.440  10.115 -0.5626  2.8413 -0.3706
  416MOL0     H57382   1.435   5.221  10.120 -0.8428 -0.2628  0.1340
  416MOL0     H57383   1.286   5.317  10.120  0.5796 -0.3341 -3.4741
  416MOL0     H57384   1.325   5.430  10.321 -0.4378 -0.9259  0.4017
  416MOL0     H57385   1.496   5.378  10.325 -0.3900  2.2547 -0.8888
  416MOL0     H57386   1.446   5.161  10.342 -0.2509 -0.6860  1.1105
  416MOL0     H57387   1.269   5.197  10.339  1.4007 -1.3120 -3.7936
  416MOL0     H57388   1.844   5.787   9.463  0.3474 -0.3996 -0.8523
  416MOL0     H57389   2.051   5.870   9.392  2.9155 -0.5118  0.8537
  416MOL0     H57390   2.358   5.947   9.293  1.2742 -0.4684 -0.5690
  416MOL0     H57391   2.569   6.000   9.175  2.2744  0.4334  0.3655
  416MOL0     H57392   1.719   6.043   7.743  0.3778  1.9695  0.6269
  416MOL0     H57393   1.471   6.058   7.711  1.2120  2.4027  0.3015
  416MOL0     H57394   1.050   6.059   7.832 -2.5403  1.4023  0.2053
  416MOL0     H57395   0.825   6.092   7.749  2.4976  1.1721 -0.6373
  416MOL0     H57396   0.523   5.960   7.551 -0.7574 -1.5412  1.7192
  416MOL0     H57397   0.626   6.084   7.637  1.7608 -1.6613  1.4127
  416MOL0     H57398   0.696   5.962   7.368  1.3754 -1.6354  1.6779
  416MOL0     H57399   0.780   6.092   7.453  0.5600 -0.1158 -1.9744
  416MOL0     H57400   0.487   6.153   7.401  0.4740 -2.6054  1.2130
  416MOL0     H57401   0.618   6.264   7.406  2.4643 -0.3346 -0.5341
  416MOL0     H57402   0.557   6.230   7.178 -3.9965 -2.3844  1.4807
  416MOL0     H57403   0.586   6.057   7.180  3.4246 -1.2041 -0.1568
  416MOL0     H57404   0.974   6.215   7.157 -0.8298  0.9572  2.2732
  416MOL0     H57405   0.809   5.669   7.679  4.2867 -2.3227 -0.4382
  416MOL0     H57406   1.142   5.573   7.722 -0.2619 -2.2552 -0.7592
  416MOL0     H57407   1.040   5.534   7.855  2.5693  1.7960  1.0004
  416MOL0     H57408   0.972   5.522   7.693  2.5334 -0.1784 -3.1382
  417MOL0     O57409   4.976   1.830   1.433  0.2075  0.2739 -0.3272
  417MOL0     C57410   4.869   1.889   1.437  0.8608 -0.4552 -0.1620
  417MOL0     O57411   4.858   2.026   1.458 -0.2847 -0.1517  0.1280
  417MOL0     C57412   4.975   2.102   1.464  0.4733  0.2951  0.1132
  417MOL0     C57413   5.041   2.126   1.587 -0.2939  0.3397  0.3248
  417MOL0     C57414   5.154   2.209   1.597 -0.8436 -0.3874  0.2407
  417MOL0     C57415   5.210   2.272   1.485 -0.2164 -0.0848  0.4112
  417MOL0     O57416   5.324   2.353   1.486  0.4941  0.2536  0.1156
  417MOL0     C57417   5.433   2.300   1.401  0.4784  0.6889  0.4074
  417MOL0     C57418   5.492   2.426   1.333 -0.4923  0.0029 -0.6650
  417MOL0     C57419   5.625   2.400   1.257  0.5543 -0.2808 -0.5953
  417MOL0     C57420   5.704   2.535   1.258 -0.7130 -0.6411 -0.2082
  417MOL0     C57421   5.803   2.542   1.145  0.2246 -0.2113  0.0403
  417MOL0     C57422   5.905   2.653   1.153 -0.2225  0.2276 -0.8814
  417MOL0     C57423   6.016   2.648   1.049 -0.7855  0.6316  0.8005
  417MOL0     C57424   6.155   2.618   1.111 -0.2161  0.3851  0.9833
  417MOL0     N57425   6.267   2.645   1.015 -0.6201 -0.5867  0.0214
  417MOL0     C57426   6.373   2.718   1.051  0.5309 -0.1571  0.1495
  417MOL0     C57427   6.443   2.723   0.934 -0.4044 -0.7217 -0.2757
  417MOL0     C57428   6.576   2.802   0.919  0.6935 -0.0161  0.0199
  417MOL0     C57429   6.674   2.753   0.811  0.4831 -0.1825  0.7823
  417MOL0     C57430   6.774   2.858   0.774 -0.8148 -0.3113  0.4924
  417MOL0     C57431   6.881   2.813   0.681  0.1360  0.1372  0.4108
  417MOL0     O57432   6.936   2.937   0.619 -0.2396 -0.2249 -0.2592
  417MOL0     C57433   7.064   2.930   0.559  0.3516  0.2721 -0.2589
  417MOL0     C57434   7.145   2.814   0.555 -0.9787 -0.5223 -0.0789
  417MOL0     C57435   7.255   2.807   0.478  0.7710 -0.4089  0.3942
  417MOL0     C57436   7.346   2.687   0.487  0.5633 -0.0020 -0.0215
  417MOL0     C57437   7.291   2.923   0.400 -0.2122  0.2831  0.1612
  417MOL0     C57438   7.412   2.929   0.303 -0.7572 -0.3003 -0.5474
  417MOL0     O57439   7.445   3.051   0.251 -0.6281  0.0879  0.5442
  417MOL0     C57440   7.569   3.074   0.201  0.1705  0.1383 -0.7972
  417MOL0     C57441   7.585   3.201   0.143  0.5610  0.8257 -0.5021
  417MOL0     C57442   7.703   3.234   0.082  0.2367  0.5491  0.2308
  417MOL0     C57443   7.813   3.154   0.065  0.0475 -0.1624  0.3131
  417MOL0     O57444   7.927   3.196  -0.001  0.6205  0.0311  0.9962
  417MOL0     C57445   8.012   3.096  -0.067  0.2980 -0.4328 -0.8478
  417MOL0     C57446   8.100   3.181  -0.152  0.0240  0.6540 -0.4353
  417MOL0     C57447   8.180   3.095  -0.250  0.0522 -0.2285  0.5312
  417MOL0     C57448   8.267   2.983  -0.190 -0.0689 -0.2081 -0.3221
  417MOL0     C57449   8.372   2.941  -0.289  0.3072  0.2052  0.1969
  417MOL0     C57450   8.458   2.818  -0.244  0.2604  0.0993  0.0269
  417MOL0     C57451   8.579   2.798  -0.331 -1.0024 -0.1207 -0.5509
  417MOL0     C57452   8.646   2.670  -0.297 -0.3739  0.7949  1.2146
  417MOL0    Cl57453   8.758   2.686  -0.161  0.0957  0.1559 -0.4330
  417MOL0     C57454   7.798   3.024   0.118  0.8858 -0.9576 -0.9139
  417MOL0     C57455   7.682   2.990   0.191  0.1610  0.6989  0.4240
  417MOL0     O57456   7.478   2.828   0.290  0.1743  0.2971 -0.4101
  417MOL0     C57457   7.213   3.043   0.407 -0.4782  0.4944  0.8989
  417MOL0     C57458   7.101   3.048   0.495  0.0590 -0.6794  0.3926
  417MOL0     N57459   6.376   2.661   0.831  0.4316 -0.1482 -0.8061
  417MOL0     N57460   6.263   2.615   0.887  0.6835 -0.3622  0.3329
  417MOL0     C57461   5.142   2.247   1.363 -0.2085 -0.1366  0.4161
  417MOL0     C57462   5.028   2.174   1.351 -0.5673 -0.3791  0.1019
  417MOL0     C57463   4.744   1.804   1.413  0.3289 -0.7405 -0.0631
  417MOL0     C57464   4.617   1.871   1.421  0.5174  0.3119  0.5560
  417MOL0     C57465   4.500   1.793   1.410 -0.0875  0.2314 -0.0933
  417MOL0     C57466   4.503   1.659   1.379  0.3266 -0.1241  0.3958
  417MOL0     O57467   4.394   1.574   1.366 -0.6956  0.2906  0.5444
  417MOL0     C57468   4.254   1.610   1.391  0.1894  0.2710  0.2771
  417MOL0     C57469   4.186   1.662   1.271  0.4135 -0.0304  0.3083
  417MOL0     C57470   4.184   1.548   1.171 -0.1502 -0.4056 -0.3147
  417MOL0     C57471   4.097   1.585   1.052 -0.0200 -0.0890 -0.5580
  417MOL0     C57472   3.956   1.579   1.105 -0.3671 -0.0997 -0.1295
  417MOL0     C57473   3.838   1.580   1.142  0.2753 -0.5171 -0.5705
  417MOL0     C57474   4.627   1.600   1.367  0.4440  1.0934  0.4426
  417MOL0     C57475   4.751   1.666   1.381 -0.4170 -0.2402  0.4225
  417MOL0     C57476   4.878   1.579   1.362 -0.1206 -0.7663  0.2019
  417MOL0     H57477   5.000   2.073   1.672 -0.2270  0.7779  0.6350
  417MOL0     H57478   5.201   2.220   1.694  0.2788  0.8546 -0.4283
  417MOL0     H57479   5.404   2.220   1.334 -0.0494 -0.8508  2.3730
  417MOL0     H57480   5.513   2.262   1.466  0.4222  1.5309  0.9926
  417MOL0     H57481   5.418   2.471   1.265 -0.2550  0.1970 -0.7956
  417MOL0     H57482   5.510   2.491   1.419 -2.4306  0.1411 -0.2963
  417MOL0     H57483   5.683   2.322   1.305 -0.6342 -0.1179  1.1947
  417MOL0     H57484   5.603   2.374   1.153 -2.9762  2.6294 -0.7944
  417MOL0     H57485   5.643   2.625   1.254  1.0256  0.6098  0.2231
  417MOL0     H57486   5.758   2.536   1.353  1.2784 -0.7691 -1.2725
  417MOL0     H57487   5.740   2.553   1.056 -1.1435 -2.1681  0.6938
  417MOL0     H57488   5.853   2.446   1.126 -1.4915 -0.8072 -1.8855
  417MOL0     H57489   5.854   2.750   1.155 -0.2458  0.2136  0.6424
  417MOL0     H57490   5.950   2.643   1.252  1.5316  2.4667 -1.3852
  417MOL0     H57491   6.015   2.743   0.994  1.4747  1.9907  2.9576
  417MOL0     H57492   5.993   2.573   0.972  1.3158  1.1671 -0.4210
  417MOL0     H57493   6.156   2.689   1.195  2.9324  1.7166 -0.0471
  417MOL0     H57494   6.157   2.515   1.147 -0.3343  0.7221  1.9857
  417MOL0     H57495   6.389   2.757   1.151  0.2178 -2.8379  1.3364
  417MOL0     H57496   6.619   2.809   1.019  0.0713 -1.2276  0.3951
  417MOL0     H57497   6.553   2.907   0.900  0.3418  0.0644  0.8584
  417MOL0     H57498   6.726   2.667   0.853  1.2711  0.1775  0.5773
  417MOL0     H57499   6.616   2.732   0.721  2.1465 -0.4604 -0.2748
  417MOL0     H57500   6.725   2.935   0.714  2.1713  0.4217 -1.2255
  417MOL0     H57501   6.822   2.908   0.858 -2.6995  0.2564  1.2912
  417MOL0     H57502   6.952   2.752   0.738 -0.9259 -0.1933  1.4089
  417MOL0     H57503   6.838   2.760   0.595  0.5379  2.6018 -1.4081
  417MOL0     H57504   7.126   2.736   0.627 -2.6598 -0.3499 -0.2941
  417MOL0     H57505   7.446   2.717   0.518  0.0190  1.6078  0.3074
  417MOL0     H57506   7.338   2.656   0.382  1.2905  0.8631 -0.3491
  417MOL0     H57507   7.301   2.606   0.546 -0.7599 -1.4526 -2.7866
  417MOL0     H57508   7.499   3.264   0.164 -0.3384 -0.3961 -0.4011
  417MOL0     H57509   7.700   3.332   0.036 -1.3165  0.2505 -0.3889
  417MOL0     H57510   8.069   3.034   0.003  0.8619  1.1628  0.1608
  417MOL0     H57511   7.949   3.041  -0.137  2.4990 -2.0313 -1.6930
  417MOL0     H57512   8.040   3.252  -0.210 -2.9682 -1.4180 -0.1215
  417MOL0     H57513   8.166   3.248  -0.096 -2.7184  0.9154  2.8131
  417MOL0     H57514   8.237   3.161  -0.316 -1.3999 -0.1694 -0.7214
  417MOL0     H57515   8.104   3.055  -0.318  1.0419 -1.7031  0.2342
  417MOL0     H57516   8.207   2.895  -0.164  2.2159 -1.3228  1.6118
  417MOL0     H57517   8.311   3.028  -0.101  3.1061  0.0386 -1.8354
  417MOL0     H57518   8.328   2.914  -0.386 -0.8078 -1.4260  1.1150
  417MOL0     H57519   8.434   3.030  -0.304 -0.8611  1.4525  2.3136
  417MOL0     H57520   8.396   2.728  -0.242 -1.2746  1.0828 -1.0887
  417MOL0     H57521   8.499   2.843  -0.146 -1.1038  0.4942  0.5294
  417MOL0     H57522   8.647   2.884  -0.330  2.5699 -2.7266 -0.7111
  417MOL0     H57523   8.540   2.791  -0.433  0.2453 -0.9410 -0.9901
  417MOL0     H57524   8.695   2.629  -0.386 -0.5396 -0.5111  1.7054
  417MOL0     H57525   8.576   2.592  -0.267 -1.8131  2.1098  1.4190
  417MOL0     H57526   7.876   2.949   0.122 -1.8306 -3.9772  1.1054
  417MOL0     H57527   7.684   2.891   0.235  1.4983  0.2358 -0.5752
  417MOL0     H57528   7.252   3.128   0.353 -1.0540 -0.1361 -0.5469
  417MOL0     H57529   7.056   3.147   0.496  0.3291 -0.4978 -1.5045
  417MOL0     H57530   5.179   2.297   1.274  0.6257 -1.3642  0.0483
  417MOL0     H57531   4.981   2.169   1.253 -2.2932 -1.2728  0.9270
  417MOL0     H57532   4.604   1.977   1.437  0.1312  0.4014 -0.2681
  417MOL0     H57533   4.407   1.848   1.412  0.9147  2.1041 -1.5129
  417MOL0     H57534   4.209   1.517   1.425 -0.8397  1.4913  2.5366
  417MOL0     H57535   4.235   1.681   1.473  0.1078  0.3811  0.1624
  417MOL0     H57536   4.242   1.739   1.218  2.0459 -0.9299  0.6429
  417MOL0     H57537   4.086   1.694   1.299  0.4704  0.2849  0.1475
  417MOL0     H57538   4.282   1.530   1.125 -0.6538  0.2048 -1.6653
  417MOL0     H57539   4.150   1.459   1.225 -0.7754 -0.0165 -0.0544
  417MOL0     H57540   4.109   1.517   0.968  0.7348 -0.0014 -0.5241
  417MOL0     H57541   4.120   1.685   1.016  0.2415  0.5112  1.1749
  417MOL0     H57542   3.734   1.585   1.168  0.1963  1.9551 -1.0975
  417MOL0     H57543   4.631   1.494   1.343  1.7686  0.8121  1.7456
  417MOL0     H57544   4.931   1.577   1.458 -0.9033 -2.0939  0.6310
  417MOL0     H57545   4.848   1.479   1.330  0.9968 -0.6864 -1.2061
  417MOL0     H57546   4.942   1.617   1.283  0.2963 -0.9930  0.4285
  418MOL0     O57547   2.753   1.771   6.068  0.2342  0.1833  0.3562
  418MOL0     C57548   2.717   1.681   6.143 -0.0374 -0.4273  0.1522
  418MOL0     O57549   2.797   1.584   6.207  0.7063 -1.1170  0.3380
  418MOL0     C57550   2.931   1.612   6.218 -0.3940  0.4782  0.4425
  418MOL0     C57551   2.983   1.731   6.266  0.4847  0.3954  1.3397
  418MOL0     C57552   3.116   1.739   6.299 -0.6299  0.0670 -0.4781
  418MOL0     C57553   3.202   1.628   6.298  0.2113  0.1694 -0.0673
  418MOL0     O57554   3.337   1.632   6.333  1.0832  0.4630  0.5633
  418MOL0     C57555   3.384   1.544   6.443  0.9192  0.1188  0.1279
  418MOL0     C57556   3.527   1.577   6.476  0.1204 -0.6750  1.1940
  418MOL0     C57557   3.606   1.587   6.347  0.0842  0.1117  0.1336
  418MOL0     C57558   3.755   1.621   6.373 -0.2739 -0.0245  0.7609
  418MOL0     C57559   3.830   1.645   6.248  0.3706  0.2306  0.2211
  418MOL0     C57560   3.967   1.694   6.266 -0.0549 -0.1418  0.2691
  418MOL0     C57561   4.035   1.699   6.137  0.8244  0.2054 -0.1315
  418MOL0     C57562   4.183   1.753   6.153  0.4327  0.2932 -0.0419
  418MOL0     N57563   4.249   1.733   6.020  0.0836 -0.5585 -0.3816
  418MOL0     C57564   4.249   1.827   5.925  0.4213 -0.1156  0.7472
  418MOL0     C57565   4.335   1.785   5.839 -0.8849  0.0653  0.4232
  418MOL0     C57566   4.363   1.854   5.707  1.0515 -0.0687 -0.3499
  418MOL0     C57567   4.472   1.956   5.729 -0.4380  0.2739 -0.1629
  418MOL0     C57568   4.511   1.997   5.585  0.5544 -1.1424 -0.0156
  418MOL0     C57569   4.585   2.132   5.593  0.5066 -0.2603  0.1088
  418MOL0     O57570   4.711   2.107   5.645 -0.1000  0.4090  0.1166
  418MOL0     C57571   4.824   2.081   5.568  0.7631  1.1797  0.1534
  418MOL0     C57572   4.829   2.078   5.425  0.1181  1.0091 -0.6478
  418MOL0     C57573   4.951   2.029   5.359 -0.0455  0.5890  0.7035
  418MOL0     C57574   4.929   2.017   5.209 -0.3689 -0.1967 -0.3414
  418MOL0     C57575   5.071   2.012   5.432  0.2927  0.4157 -1.5057
  418MOL0     C57576   5.203   1.975   5.363  0.3371 -0.3179 -1.3996
  418MOL0     O57577   5.299   1.931   5.448 -0.3194  0.1169  0.1422
  418MOL0     C57578   5.428   1.926   5.396  0.1549  0.2117  0.4211
  418MOL0     C57579   5.525   2.032   5.422 -0.1188 -0.1584  0.2059
  418MOL0     C57580   5.657   2.020   5.373  0.6881  0.1878  0.4648
  418MOL0     C57581   5.692   1.930   5.269 -0.9370  0.1854  0.0188
  418MOL0     O57582   5.820   1.920   5.225 -0.1959  0.8000 -0.0200
  418MOL0     C57583   5.843   1.902   5.082 -1.2554 -0.3441  1.1220
  418MOL0     C57584   5.994   1.934   5.048 -0.4771 -0.1682 -0.1453
  418MOL0     C57585   6.032   1.914   4.901  0.1133 -0.0337  0.4321
  418MOL0     C57586   6.184   1.934   4.891  0.4210  0.6606  0.4228
  418MOL0     C57587   6.226   1.905   4.750 -0.5011 -0.0867 -0.7159
  418MOL0     C57588   6.379   1.869   4.724 -0.0800  0.2737 -0.6352
  418MOL0     C57589   6.453   1.995   4.676  0.0242 -0.3243  0.9552
  418MOL0     C57590   6.597   1.956   4.636  0.4006 -0.0670 -0.3782
  418MOL0    Cl57591   6.689   2.086   4.551  0.4497 -0.1164 -0.0749
  418MOL0     C57592   5.592   1.839   5.228 -0.0574 -0.0723  0.2965
  418MOL0     C57593   5.466   1.832   5.299 -0.6219  0.4078 -0.3514
  418MOL0     O57594   5.210   1.989   5.242  0.8910 -0.6127  0.2631
  418MOL0     C57595   5.063   2.016   5.575  0.3906 -0.6804  0.0852
  418MOL0     C57596   4.939   2.056   5.637 -0.4306 -0.5087 -0.0065
  418MOL0     N57597   4.394   1.671   5.880  0.3772  0.3650  0.1923
  418MOL0     N57598   4.343   1.638   5.993  0.1596 -0.2538  0.6448
  418MOL0     C57599   3.145   1.504   6.250 -0.3368 -0.4996  0.4747
  418MOL0     C57600   3.018   1.492   6.206  0.4116 -0.3528 -0.3487
  418MOL0     C57601   2.572   1.656   6.160 -0.5114 -0.3525  1.7742
  418MOL0     C57602   2.526   1.525   6.198 -0.0992 -0.7579 -0.1503
  418MOL0     C57603   2.391   1.495   6.215  0.3969  0.4252 -0.4500
  418MOL0     C57604   2.299   1.587   6.183  0.6861  0.0389 -0.5062
  418MOL0     O57605   2.165   1.548   6.189 -0.2904  0.3153 -0.5435
  418MOL0     C57606   2.062   1.647   6.151  0.1118  0.0984  0.0422
  418MOL0     C57607   1.917   1.591   6.158  0.0122 -0.7711  0.1117
  418MOL0     C57608   1.896   1.471   6.064  0.0573  0.1819 -0.2339
  418MOL0     C57609   1.751   1.422   6.067 -0.1466 -0.8054 -0.7866
  418MOL0     C57610   1.747   1.282   6.026 -0.1293 -0.7740 -0.1401
  418MOL0     C57611   1.767   1.165   5.994 -0.7987 -0.5669  0.0473
  418MOL0     C57612   2.340   1.716   6.153 -0.5681 -0.4354 -0.0666
  418MOL0     C57613   2.471   1.751   6.144 -0.1208  0.8755 -0.2398
  418MOL0     C57614   2.493   1.897   6.136  0.7790 -0.2621  0.6432
  418MOL0     H57615   2.928   1.822   6.289  0.2531  1.3094 -2.2970
  418MOL0     H57616   3.147   1.836   6.336 -2.7809  0.4216  0.5097
  418MOL0     H57617   3.393   1.442   6.405  0.1876  0.5485 -1.2567
  418MOL0     H57618   3.318   1.540   6.530  1.1791  0.7569  0.3618
  418MOL0     H57619   3.528   1.668   6.536 -0.4690 -0.0094  0.2229
  418MOL0     H57620   3.567   1.499   6.542  2.7051  1.1294  1.9223
  418MOL0     H57621   3.602   1.492   6.293 -0.0730  0.3249 -0.2339
  418MOL0     H57622   3.570   1.668   6.283  2.6656 -0.4791 -2.2922
  418MOL0     H57623   3.761   1.709   6.438  1.2816  1.7697 -1.6333
  418MOL0     H57624   3.799   1.536   6.427 -0.7373 -1.6557 -1.2676
  418MOL0     H57625   3.769   1.715   6.190 -1.1203 -1.1409  0.0718
  418MOL0     H57626   3.815   1.557   6.184 -1.1501 -0.2038  1.1295
  418MOL0     H57627   3.976   1.797   6.300  0.4595  0.7498 -2.3285
  418MOL0     H57628   4.026   1.626   6.328  0.6130 -0.7723 -1.0315
  418MOL0     H57629   3.989   1.773   6.070  0.0639  0.8420  1.0520
  418MOL0     H57630   4.025   1.600   6.092 -1.6185 -0.6079  1.9527
  418MOL0     H57631   4.175   1.854   6.193  0.4824  0.1864  0.2430
  418MOL0     H57632   4.234   1.691   6.227 -0.5282 -1.4419 -0.7728
  418MOL0     H57633   4.170   1.899   5.904  0.0984 -1.4890 -4.1070
  418MOL0     H57634   4.269   1.900   5.675  0.7021  1.4631  2.5721
  418MOL0     H57635   4.389   1.790   5.622  1.7379 -0.5691  0.2180
  418MOL0     H57636   4.433   2.042   5.786 -1.7359  0.1869 -0.8920
  418MOL0     H57637   4.565   1.915   5.771  0.0476  0.4401 -1.0506
  418MOL0     H57638   4.578   1.923   5.542  0.0140 -0.7622 -1.5677
  418MOL0     H57639   4.430   2.002   5.512  0.7477  1.9545 -0.1573
  418MOL0     H57640   4.593   2.178   5.494  3.0755  1.1130  0.8621
  418MOL0     H57641   4.530   2.207   5.650  2.0276  1.7611 -0.9627
  418MOL0     H57642   4.740   2.112   5.372 -1.2405 -2.8644 -1.1777
  418MOL0     H57643   4.913   1.911   5.187  1.3505 -0.4806 -0.3301
  418MOL0     H57644   5.010   2.051   5.143 -0.4556 -0.0165 -0.3551
  418MOL0     H57645   4.832   2.056   5.175  0.1787 -0.9994 -3.1174
  418MOL0     H57646   5.508   2.118   5.487  0.6871  1.3532 -1.5054
  418MOL0     H57647   5.723   2.100   5.405  1.0997 -1.1750  3.2665
  418MOL0     H57648   5.833   1.798   5.050  0.5270 -0.6325  1.4216
  418MOL0     H57649   5.780   1.972   5.026 -0.6145  0.2394  1.1049
  418MOL0     H57650   6.004   2.040   5.071 -2.0576 -0.5151  2.6354
  418MOL0     H57651   6.060   1.882   5.119  0.7475  0.4262 -0.8114
  418MOL0     H57652   5.983   1.989   4.837  2.1897  1.2906  0.3132
  418MOL0     H57653   6.006   1.812   4.873  1.2629 -0.3401  0.4596
  418MOL0     H57654   6.227   1.856   4.955  1.3133  0.0677 -0.8432
  418MOL0     H57655   6.222   2.030   4.927  1.9321  0.5794 -0.8629
  418MOL0     H57656   6.160   1.831   4.705 -2.9831  1.7198 -0.2634
  418MOL0     H57657   6.205   1.993   4.688 -0.2321 -0.4094 -1.2744
  418MOL0     H57658   6.376   1.794   4.645 -0.6105 -0.0742 -0.2888
  418MOL0     H57659   6.421   1.825   4.815 -1.9968 -0.8059 -0.2233
  418MOL0     H57660   6.439   2.076   4.748 -0.0451  0.2977  0.2488
  418MOL0     H57661   6.404   2.024   4.583  2.4383 -2.6601 -1.2241
  418MOL0     H57662   6.592   1.876   4.561  0.7808  2.3165 -3.1161
  418MOL0     H57663   6.656   1.922   4.722  2.4706  1.7520 -0.9804
  418MOL0     H57664   5.608   1.762   5.153  1.1236  1.7181 -1.3666
  418MOL0     H57665   5.392   1.756   5.275 -2.6159  1.4271  2.0971
  418MOL0     H57666   5.151   1.999   5.635  3.1599  2.5401 -2.6161
  418MOL0     H57667   4.924   2.066   5.744 -1.7619  0.9685 -0.2843
  418MOL0     H57668   3.209   1.418   6.234  0.0037 -0.0390 -0.7967
  418MOL0     H57669   2.964   1.406   6.166 -0.9068  0.4954 -0.4899
  418MOL0     H57670   2.593   1.441   6.207 -1.3912 -1.8100 -0.0949
  418MOL0     H57671   2.366   1.394   6.246 -0.7521  0.5463 -0.9444
  418MOL0     H57672   2.061   1.724   6.229  0.8905  0.9012 -0.7196
  418MOL0     H57673   2.088   1.693   6.055  1.4271 -0.5631  0.0647
  418MOL0     H57674   1.849   1.675   6.142 -0.9179 -1.4491  0.4045
  418MOL0     H57675   1.901   1.558   6.261 -1.6847 -1.4496 -0.3310
  418MOL0     H57676   1.923   1.482   5.958 -1.5285  0.9568 -0.5774
  418MOL0     H57677   1.971   1.395   6.090 -0.5789 -0.4586 -0.2579
  418MOL0     H57678   1.693   1.489   6.003 -1.3404  0.4111  1.4586
  418MOL0     H57679   1.723   1.430   6.172  1.1393 -2.6194 -0.2510
  418MOL0     H57680   1.777   1.069   5.949  0.5179  0.4214 -1.9096
  418MOL0     H57681   2.253   1.781   6.143 -1.1380 -1.1417  0.2197
  418MOL0     H57682   2.509   1.945   6.233  1.5208 -0.4005  0.5978
  418MOL0     H57683   2.568   1.912   6.058 -1.8954 -1.0374 -2.3086
  418MOL0     H57684   2.406   1.943   6.088  0.3405 -0.7975  0.9058
  419MOL0     O57685  10.305   9.070   6.847  0.8929  0.2399  0.2425
  419MOL0     C57686  10.269   8.966   6.898 -0.1730  0.1052 -0.3226
  419MOL0     O57687  10.311   8.929   7.016 -0.5195  1.1863 -0.1871
  419MOL0     C57688  10.416   8.987   7.078  0.1459 -0.7264  0.0253
  419MOL0     C57689  10.394   9.048   7.196  0.8546  0.6401  0.7618
  419MOL0     C57690  10.495   9.120   7.260 -1.1577  0.5602 -0.5869
  419MOL0     C57691  10.627   9.108   7.206 -0.3005 -0.2139  0.4357
  419MOL0     O57692  10.733   9.163   7.277  0.5467 -0.5108 -0.6406
  419MOL0     C57693  10.869   9.184   7.219  0.9354  0.5868 -0.2694
  419MOL0     C57694  10.953   9.269   7.321 -0.3352 -0.2882  0.7377
  419MOL0     C57695  11.101   9.270   7.280  0.2486 -0.1589 -0.2906
  419MOL0     C57696  11.186   9.319   7.396 -1.0788 -0.6481 -0.0373
  419MOL0     C57697  11.327   9.334   7.338  0.4735  0.5124 -0.7456
  419MOL0     C57698  11.416   9.393   7.441 -0.8568  0.4632 -0.1728
  419MOL0     C57699  11.556   9.380   7.388  0.8881  0.2546 -0.0332
  419MOL0     C57700  11.655   9.453   7.480 -0.4009  0.5631  1.1269
  419MOL0     N57701  11.779   9.473   7.402 -0.2449 -0.4106  0.0512
  419MOL0     C57702  11.855   9.585   7.413 -0.3205 -0.3567 -0.0171
  419MOL0     C57703  11.962   9.545   7.338 -0.7904  0.6431 -0.4341
  419MOL0     C57704  12.087   9.634   7.327 -0.0530 -0.5435  0.3523
  419MOL0     C57705  12.140   9.662   7.183  0.7800 -0.1371 -0.7958
  419MOL0     C57706  12.275   9.729   7.179 -0.7802  0.9262  0.6472
  419MOL0     C57707  12.319   9.761   7.030 -0.1628  0.8511 -0.8311
  419MOL0     O57708  12.235   9.858   6.986  0.1610 -0.1908  0.0064
  419MOL0     C57709  12.253   9.902   6.853  0.2625 -0.4871 -0.5642
  419MOL0     C57710  12.339   9.856   6.754  0.0276  0.5320 -0.4574
  419MOL0     C57711  12.355   9.903   6.626  0.6851 -0.0996  0.3917
  419MOL0     C57712  12.448   9.825   6.540  0.0923 -0.1426 -0.6931
  419MOL0     C57713  12.265  10.012   6.589  0.7768  0.4133  0.4904
  419MOL0     C57714  12.257  10.066   6.448  0.4729  0.2052 -0.9787
  419MOL0     O57715  12.219  10.192   6.432  0.4105  0.4117  0.5057
  419MOL0     C57716  12.184  10.235   6.313  0.0495 -0.2814 -0.2740
  419MOL0     C57717  12.055  10.286   6.295 -0.2709  0.1172 -0.4232
  419MOL0     C57718  12.022  10.358   6.178 -0.6402 -0.0201  0.3372
  419MOL0     C57719  12.112  10.367   6.076 -0.5150 -0.6069 -0.3757
  419MOL0     O57720  12.093  10.440   5.965  0.5765 -0.1996  0.9898
  419MOL0     C57721  11.978  10.527   5.951 -0.2469 -0.0524  0.0580
  419MOL0     C57722  11.872  10.446   5.879 -0.6251  0.1678 -0.2412
  419MOL0     C57723  11.748  10.531   5.860 -0.5038 -0.7405  0.2487
  419MOL0     C57724  11.621  10.443   5.838  0.1403  0.2244  0.3883
  419MOL0     C57725  11.640  10.351   5.709 -0.4253 -0.0175  0.1575
  419MOL0     C57726  11.658  10.421   5.577  0.1746  0.0627  0.4477
  419MOL0     C57727  11.695  10.321   5.470  0.0922 -0.1478 -0.2399
  419MOL0     C57728  11.648  10.372   5.329 -0.0714  0.1288 -0.1877
  419MOL0    Cl57729  11.711  10.246   5.228  0.0640 -0.0361  0.0892
  419MOL0     C57730  12.243  10.317   6.097  0.4001  0.8157 -0.8863
  419MOL0     C57731  12.276  10.245   6.210  0.7711 -0.5448 -0.6022
  419MOL0     O57732  12.264   9.983   6.354 -0.6940  0.3230  0.1082
  419MOL0     C57733  12.187  10.064   6.688  0.0164 -0.1079  1.0615
  419MOL0     C57734  12.176  10.007   6.813  0.4463 -0.2085 -0.6219
  419MOL0     N57735  11.951   9.413   7.297  0.4682 -0.6126  0.8306
  419MOL0     N57736  11.839   9.372   7.331  0.6650 -0.5026  0.3059
  419MOL0     C57737  10.656   9.021   7.098  0.1431 -0.2060  0.1540
  419MOL0     C57738  10.544   8.963   7.033  0.0804 -0.6037  0.2606
  419MOL0     C57739  10.168   8.883   6.827 -1.1648 -0.1754 -0.5671
  419MOL0     C57740  10.139   8.760   6.878 -0.8855 -0.5132  1.1418
  419MOL0     C57741  10.042   8.675   6.829 -0.7127  0.6306  0.4480
  419MOL0     C57742   9.966   8.714   6.713  0.2877 -0.8601  0.2891
  419MOL0     O57743   9.857   8.641   6.680 -0.2104 -0.2038 -0.1979
  419MOL0     C57744   9.805   8.545   6.766 -0.6610  0.2842 -0.2475
  419MOL0     C57745   9.671   8.504   6.700 -0.2740  0.2471 -1.1523
  419MOL0     C57746   9.580   8.625   6.694 -0.1154  0.0388  0.2600
  419MOL0     C57747   9.444   8.598   6.630 -0.0663  0.4996 -0.1772
  419MOL0     C57748   9.449   8.570   6.490  0.9734  1.0355 -0.1103
  419MOL0     C57749   9.431   8.545   6.369  1.0713 -0.4191 -1.4453
  419MOL0     C57750   9.991   8.840   6.657 -0.1920  0.2896  0.2086
  419MOL0     C57751  10.097   8.925   6.705 -0.1337  0.4349  0.3359
  419MOL0     C57752  10.116   9.059   6.636 -0.3632  0.2978  0.0500
  419MOL0     H57753  10.294   9.050   7.236 -0.4791  0.7382 -2.2808
  419MOL0     H57754  10.488   9.187   7.345 -2.6814  0.6969 -0.8011
  419MOL0     H57755  10.877   9.228   7.119 -1.0358  0.4469 -0.5360
  419MOL0     H57756  10.928   9.092   7.215  1.9341  1.2423 -2.7740
  419MOL0     H57757  10.923   9.374   7.326 -0.6858 -0.2951 -0.7771
  419MOL0     H57758  10.950   9.239   7.426 -1.2975  0.8471  1.0517
  419MOL0     H57759  11.137   9.169   7.260 -0.2202  0.1882 -3.3101
  419MOL0     H57760  11.120   9.323   7.186  1.8978 -2.3477 -1.2973
  419MOL0     H57761  11.149   9.413   7.438 -0.0757 -1.3977  2.6929
  419MOL0     H57762  11.194   9.258   7.486  0.3492 -2.9225 -1.5969
  419MOL0     H57763  11.319   9.398   7.250 -3.2248  0.7641 -0.3846
  419MOL0     H57764  11.354   9.229   7.320  0.0929 -0.2000  2.2782
  419MOL0     H57765  11.389   9.496   7.464  0.0942  0.5382  0.6924
  419MOL0     H57766  11.396   9.335   7.531 -0.0878  1.2506  0.5338
  419MOL0     H57767  11.567   9.425   7.288  2.2175 -0.0072 -0.0176
  419MOL0     H57768  11.580   9.276   7.368  2.9086  0.7446 -0.4012
  419MOL0     H57769  11.614   9.552   7.506  0.7038  0.8745  1.7843
  419MOL0     H57770  11.676   9.395   7.570 -0.5782  2.3761  2.4101
  419MOL0     H57771  11.827   9.673   7.469 -0.4879 -0.5029  0.1282
  419MOL0     H57772  12.167   9.577   7.376  0.6226  2.2380  2.7920
  419MOL0     H57773  12.072   9.725   7.386  2.6584  1.4688 -1.8122
  419MOL0     H57774  12.136   9.576   7.115 -0.9891 -1.0902  0.4340
  419MOL0     H57775  12.075   9.737   7.139 -1.0716  0.6748  2.9284
  419MOL0     H57776  12.279   9.825   7.232  2.6567  0.0634  2.2740
  419MOL0     H57777  12.345   9.657   7.222 -1.3495 -0.7220 -1.0798
  419MOL0     H57778  12.427   9.780   7.028  0.0633  1.1774  3.5901
  419MOL0     H57779  12.295   9.678   6.963  2.7589 -0.9993  0.1870
  419MOL0     H57780  12.402   9.774   6.789 -0.8446 -0.4369 -1.1060
  419MOL0     H57781  12.491   9.744   6.598 -0.2812  0.7837  0.9270
  419MOL0     H57782  12.537   9.881   6.511  1.4864 -1.5033  0.8043
  419MOL0     H57783  12.389   9.780   6.459  0.2045  0.0749 -0.8981
  419MOL0     H57784  11.993  10.282   6.384  3.4203  1.5197  2.4719
  419MOL0     H57785  11.922  10.398   6.177 -0.7438 -0.0122  2.8697
  419MOL0     H57786  11.948  10.563   6.050 -0.4690 -0.4593  0.1443
  419MOL0     H57787  11.994  10.616   5.890 -1.9452  1.1213  1.2534
  419MOL0     H57788  11.906  10.417   5.780 -1.6903 -0.8984 -0.3122
  419MOL0     H57789  11.855  10.352   5.932 -0.8079  0.9865  1.2155
  419MOL0     H57790  11.761  10.602   5.778 -0.4268 -0.4410  0.5214
  419MOL0     H57791  11.727  10.593   5.947 -1.7675 -0.8855  0.0692
  419MOL0     H57792  11.532  10.504   5.818  0.8576  1.0233 -0.5023
  419MOL0     H57793  11.598  10.384   5.926  1.3764 -3.2844 -1.4701
  419MOL0     H57794  11.726  10.286   5.727 -0.5814 -0.4041 -0.4795
  419MOL0     H57795  11.549  10.291   5.700 -0.3283 -0.3871  1.4076
  419MOL0     H57796  11.722  10.510   5.585  2.1091 -1.0678 -1.3576
  419MOL0     H57797  11.558  10.456   5.549 -0.0793 -0.2240  0.9776
  419MOL0     H57798  11.649  10.224   5.487  1.6492 -1.0613 -1.0059
  419MOL0     H57799  11.803  10.309   5.485 -0.2616 -1.6878  1.4591
  419MOL0     H57800  11.694  10.468   5.301  2.0918 -0.4514  1.1720
  419MOL0     H57801  11.540  10.386   5.335  0.3865  4.3276  3.6979
  419MOL0     H57802  12.332  10.319   6.033  0.7751  0.0895 -0.4027
  419MOL0     H57803  12.377  10.205   6.216  0.0641 -2.5369 -1.2124
  419MOL0     H57804  12.118  10.145   6.669  0.3596 -0.2214 -0.7982
  419MOL0     H57805  12.119  10.060   6.889  2.4461  2.2119 -0.6942
  419MOL0     H57806  10.757   9.007   7.062 -0.1427 -0.5316 -0.5344
  419MOL0     H57807  10.555   8.898   6.946 -2.4457  0.0379 -0.6368
  419MOL0     H57808  10.195   8.712   6.958  2.0283 -2.8924 -1.9889
  419MOL0     H57809  10.037   8.575   6.871  1.0507 -0.2717 -1.3127
  419MOL0     H57810   9.882   8.468   6.779  0.9497  1.6194 -1.3865
  419MOL0     H57811   9.796   8.592   6.865  0.4598 -2.7160  1.4000
  419MOL0     H57812   9.630   8.426   6.764  3.1974 -0.9290 -0.1081
  419MOL0     H57813   9.692   8.466   6.599 -0.7369 -1.9228 -0.4820
  419MOL0     H57814   9.575   8.649   6.800  3.7880 -1.2695  0.8956
  419MOL0     H57815   9.629   8.711   6.647  0.3516  1.2376  2.8007
  419MOL0     H57816   9.367   8.672   6.652 -0.4045  0.3044 -0.6877
  419MOL0     H57817   9.411   8.509   6.684 -0.5479  0.8794  0.1536
  419MOL0     H57818   9.417   8.510   6.269  1.9734 -2.7290 -0.8267
  419MOL0     H57819   9.927   8.864   6.572  0.8936 -3.6186 -1.9965
  419MOL0     H57820  10.113   9.145   6.704 -0.4584 -0.7929  1.4665
  419MOL0     H57821  10.208   9.067   6.577 -1.7742 -2.1109 -2.7422
  419MOL0     H57822  10.032   9.080   6.568  0.7332  3.9270 -0.3769
  420MOL0     O57823   5.433  11.189   1.331 -0.8865  0.3125 -0.8197
  420MOL0     C57824   5.428  11.264   1.429 -0.4497  0.5131 -1.1288
  420MOL0     O57825   5.525  11.354   1.467  0.6705  0.0917  0.2083
  420MOL0     C57826   5.655  11.362   1.417 -0.4577  0.6793 -0.4839
  420MOL0     C57827   5.736  11.248   1.426 -0.9187 -0.0738 -0.2875
  420MOL0     C57828   5.870  11.254   1.388  0.9320  0.3531  0.5517
  420MOL0     C57829   5.923  11.379   1.341 -0.2491  0.4621 -0.5494
  420MOL0     O57830   6.046  11.386   1.288 -0.4667  0.1252  0.2525
  420MOL0     C57831   6.113  11.267   1.250 -0.2730 -0.6579  0.2443
  420MOL0     C57832   6.248  11.313   1.183  0.8536  0.4896 -0.1139
  420MOL0     C57833   6.358  11.216   1.198  0.5066  1.0825 -0.5141
  420MOL0     C57834   6.322  11.074   1.171  0.4750  0.3116  0.3354
  420MOL0     C57835   6.441  10.973   1.185 -0.0524  0.1728 -0.4482
  420MOL0     C57836   6.548  10.992   1.070 -0.2037 -0.2588 -0.5471
  420MOL0     C57837   6.651  10.879   1.055 -0.3902 -0.0731 -0.0383
  420MOL0     C57838   6.740  10.860   1.171 -0.5642 -0.1462 -1.3927
  420MOL0     N57839   6.796  10.725   1.153 -0.9417 -0.4499  0.2396
  420MOL0     C57840   6.918  10.713   1.088 -0.5570  0.0134 -0.3416
  420MOL0     C57841   6.937  10.581   1.106  0.4539  1.0623  0.5425
  420MOL0     C57842   7.056  10.514   1.051  0.0526 -0.7896 -0.2246
  420MOL0     C57843   7.137  10.447   1.169  0.3390  0.4011 -0.0158
  420MOL0     C57844   7.257  10.384   1.100 -0.2265 -0.2330  0.5536
  420MOL0     C57845   7.344  10.320   1.200  0.0765 -0.3948  0.2972
  420MOL0     O57846   7.470  10.281   1.148 -1.0965  0.4504  0.0982
  420MOL0     C57847   7.578  10.368   1.152 -0.0132 -0.3287  0.1121
  420MOL0     C57848   7.572  10.502   1.193 -0.1497  0.3803 -0.6658
  420MOL0     C57849   7.690  10.575   1.213 -0.6031  0.9180  0.2512
  420MOL0     C57850   7.672  10.703   1.296  0.6108  0.0694  0.4222
  420MOL0     C57851   7.823  10.519   1.183  0.7773  0.0975 -0.1972
  420MOL0     C57852   7.957  10.592   1.199 -0.2927 -0.8404  0.7396
  420MOL0     O57853   8.062  10.499   1.203  0.2119 -0.2610 -0.2766
  420MOL0     C57854   8.191  10.549   1.200  0.0833  0.0467 -0.0276
  420MOL0     C57855   8.265  10.549   1.075 -0.2924 -0.3417  0.5894
  420MOL0     C57856   8.399  10.581   1.082 -0.0833 -1.0557 -0.9230
  420MOL0     C57857   8.461  10.633   1.194  0.0923  0.4120 -0.3119
  420MOL0     O57858   8.594  10.669   1.181  0.7416 -0.2741  0.3829
  420MOL0     C57859   8.638  10.786   1.259 -0.5963 -0.4943  0.5266
  420MOL0     C57860   8.742  10.850   1.167  0.7758 -1.3480  0.4585
  420MOL0     C57861   8.879  10.790   1.171 -0.4554 -0.1948  0.4260
  420MOL0     C57862   8.970  10.844   1.059  0.3942 -0.1007  0.0497
  420MOL0     C57863   9.110  10.798   1.059  0.4605  0.4553 -0.3776
  420MOL0     C57864   9.191  10.840   1.172 -0.7753 -0.4097  0.0913
  420MOL0     C57865   9.340  10.807   1.156  0.6627  0.5106 -0.4092
  420MOL0     C57866   9.418  10.868   1.261  0.4328  0.1067  0.1939
  420MOL0    Cl57867   9.566  10.769   1.278  0.0956 -0.4533 -0.2662
  420MOL0     C57868   8.389  10.655   1.306  0.2897  1.4353 -0.4951
  420MOL0     C57869   8.251  10.619   1.304 -0.3747  0.3331 -1.3249
  420MOL0     O57870   7.959  10.713   1.207  0.2352  0.1668  0.0856
  420MOL0     C57871   7.818  10.390   1.129  0.2431  0.0245  0.0785
  420MOL0     C57872   7.699  10.322   1.109 -0.5894 -0.3355  0.0695
  420MOL0     N57873   6.843  10.529   1.189 -0.7268  0.2249  1.0104
  420MOL0     N57874   6.755  10.615   1.220 -0.0243  0.0290 -0.2987
  420MOL0     C57875   5.837  11.490   1.340 -0.2031 -0.4204 -0.3491
  420MOL0     C57876   5.708  11.480   1.376 -0.1550  0.7674  0.3397
  420MOL0     C57877   5.306  11.267   1.525 -0.6667 -1.1009 -0.0885
  420MOL0     C57878   5.312  11.348   1.640  0.3107  0.2227 -0.0023
  420MOL0     C57879   5.217  11.330   1.735 -0.2844 -0.4337 -0.1978
  420MOL0     C57880   5.103  11.254   1.711  0.0244 -0.0006 -0.2657
  420MOL0     O57881   4.995  11.234   1.802 -0.0438 -0.3737  0.3880
  420MOL0     C57882   5.007  11.251   1.939 -0.1330  1.4652 -0.2541
  420MOL0     C57883   5.078  11.124   1.994  0.2752 -0.0423 -0.1358
  420MOL0     C57884   5.075  11.104   2.145 -0.0725  0.1598 -0.8906
  420MOL0     C57885   5.144  10.971   2.187  0.0073 -0.2357 -0.2698
  420MOL0     C57886   5.069  10.855   2.164 -0.4720  0.5508 -0.3325
  420MOL0     C57887   5.026  10.739   2.150 -0.4006 -0.7471  0.7232
  420MOL0     C57888   5.093  11.185   1.593 -0.1622  0.1852 -0.2188
  420MOL0     C57889   5.194  11.185   1.497  0.7360 -0.4075  0.5486
  420MOL0     C57890   5.179  11.093   1.382 -0.3872  0.0921  0.0732
  420MOL0     H57891   5.700  11.161   1.480 -0.9427  1.0020  1.5157
  420MOL0     H57892   5.925  11.161   1.385 -2.4330 -1.7578 -1.5943
  420MOL0     H57893   6.060  11.211   1.172  0.4046  0.5310 -1.1126
  420MOL0     H57894   6.130  11.204   1.338 -0.5344  0.3965  1.0705
  420MOL0     H57895   6.235  11.335   1.076  2.4344  2.3370  0.0233
  420MOL0     H57896   6.276  11.407   1.232 -0.1418  0.0323  1.4101
  420MOL0     H57897   6.441  11.247   1.133  2.6042 -2.0083  0.4397
  420MOL0     H57898   6.397  11.220   1.301 -2.7233  0.3717  0.8647
  420MOL0     H57899   6.245  11.046   1.244  0.9368 -1.2740  0.2735
  420MOL0     H57900   6.277  11.060   1.073 -0.2670 -2.0515  0.9340
  420MOL0     H57901   6.404  10.870   1.191 -1.9217  0.8317  0.2992
  420MOL0     H57902   6.480  10.999   1.284 -0.1384  1.8276 -0.8190
  420MOL0     H57903   6.490  11.008   0.978  0.2076 -1.7593 -1.0942
  420MOL0     H57904   6.602  11.083   1.096  1.9837 -1.7796  0.4752
  420MOL0     H57905   6.714  10.894   0.967  0.3158 -0.3666  0.4096
  420MOL0     H57906   6.591  10.790   1.034  0.2118 -0.7240  0.9377
  420MOL0     H57907   6.822  10.931   1.178  2.0928 -3.0693 -0.6012
  420MOL0     H57908   6.687  10.852   1.266  3.2483  0.1480  0.9583
  420MOL0     H57909   6.980  10.781   1.031  0.8172  0.7281  1.8855
  420MOL0     H57910   7.103  10.594   0.993 -3.1165  1.0629 -0.4571
  420MOL0     H57911   7.032  10.435   0.980 -1.5455 -1.4279  0.9586
  420MOL0     H57912   7.183  10.508   1.247  0.5139 -1.6957  1.6128
  420MOL0     H57913   7.074  10.369   1.214 -0.1953 -0.4050 -2.0360
  420MOL0     H57914   7.222  10.311   1.026 -0.3129  1.0117 -0.6801
  420MOL0     H57915   7.308  10.466   1.050  1.4702 -1.5723 -0.0062
  420MOL0     H57916   7.362  10.373   1.294  1.7130 -0.8970  0.2990
  420MOL0     H57917   7.291  10.231   1.236 -0.4381 -0.5855 -0.8664
  420MOL0     H57918   7.478  10.549   1.220  0.9010  1.8185  0.6744
  420MOL0     H57919   7.635  10.781   1.228 -1.1921 -1.8530 -0.9524
  420MOL0     H57920   7.768  10.746   1.325  0.6493 -0.3501  0.9211
  420MOL0     H57921   7.595  10.679   1.370 -2.1999  0.4938 -2.1457
  420MOL0     H57922   8.223  10.517   0.980  1.0881  0.1911 -0.2389
  420MOL0     H57923   8.454  10.571   0.989 -0.3714 -1.2723 -1.0717
  420MOL0     H57924   8.560  10.861   1.272  0.6557  1.0312 -0.4034
  420MOL0     H57925   8.687  10.762   1.354 -1.7250 -0.4226  1.1457
  420MOL0     H57926   8.708  10.861   1.064  0.1767 -0.7982  0.7046
  420MOL0     H57927   8.750  10.954   1.199  0.1881 -1.3800  0.7155
  420MOL0     H57928   8.868  10.682   1.159 -2.6435 -0.0124  0.4210
  420MOL0     H57929   8.918  10.813   1.271 -0.6446  1.1364  0.2121
  420MOL0     H57930   8.970  10.952   1.075 -0.7284 -0.2058  0.9419
  420MOL0     H57931   8.928  10.814   0.963 -0.9454 -2.9223  1.3901
  420MOL0     H57932   9.099  10.690   1.062  0.5824  0.3899 -1.7459
  420MOL0     H57933   9.157  10.834   0.968 -2.2370  3.2112 -0.8646
  420MOL0     H57934   9.156  10.797   1.266  0.8052 -2.7398 -0.3007
  420MOL0     H57935   9.191  10.950   1.180  0.1540 -0.4207  0.3453
  420MOL0     H57936   9.379  10.825   1.055 -0.9298  2.7899 -0.6831
  420MOL0     H57937   9.344  10.699   1.174  0.3849  0.6592  0.5780
  420MOL0     H57938   9.363  10.870   1.355 -0.7898  0.7128 -0.5159
  420MOL0     H57939   9.450  10.969   1.232 -0.7770 -0.4484 -3.7354
  420MOL0     H57940   8.438  10.688   1.397 -2.3213 -0.3328  1.7008
  420MOL0     H57941   8.202  10.633   1.400  0.8864  0.3592 -0.6649
  420MOL0     H57942   7.911  10.340   1.105 -0.0606 -0.3200 -0.4145
  420MOL0     H57943   7.702  10.226   1.059 -0.2610  0.5618 -1.7120
  420MOL0     H57944   5.877  11.582   1.298  0.1432 -0.4446 -0.0727
  420MOL0     H57945   5.637  11.561   1.363 -0.8138  0.3417  1.1492
  420MOL0     H57946   5.392  11.417   1.664  0.3626  1.4514 -3.1640
  420MOL0     H57947   5.217  11.393   1.823 -2.3325 -2.5524  1.4539
  420MOL0     H57948   5.052  11.341   1.979 -0.9199  0.4671  3.2030
  420MOL0     H57949   4.906  11.249   1.981 -1.2951 -1.4023 -2.7459
  420MOL0     H57950   5.180  11.118   1.957  0.4541 -2.8996  0.5507
  420MOL0     H57951   5.028  11.035   1.954 -1.3509 -0.1766  2.0343
  420MOL0     H57952   5.146  11.174   2.190  1.0894 -0.6354 -1.4527
  420MOL0     H57953   4.974  11.116   2.186  0.1631  0.6447 -0.4461
  420MOL0     H57954   5.146  10.974   2.296  0.2142 -0.8976 -0.2500
  420MOL0     H57955   5.246  10.973   2.148  0.6713  2.9218  1.3153
  420MOL0     H57956   4.982  10.641   2.141 -0.5719 -0.7690  1.6560
  420MOL0     H57957   5.004  11.126   1.574 -2.2891  2.4202  2.0262
  420MOL0     H57958   5.224  11.143   1.296  0.7986 -0.2620  0.4598
  420MOL0     H57959   5.228  10.998   1.407  0.5749  0.2489 -1.1216
  420MOL0     H57960   5.077  11.064   1.356 -0.4907  0.4162  0.1248
  421MOL0     O57961   8.997   4.508   8.227  0.7259  0.3102  0.0664
  421MOL0     C57962   8.968   4.392   8.201 -0.4765 -0.6727 -0.2567
  421MOL0     O57963   9.064   4.288   8.172  0.6119 -0.7650  0.1290
  421MOL0     C57964   9.200   4.322   8.154 -0.7816 -0.6645 -0.1896
  421MOL0     C57965   9.292   4.280   8.250 -0.7616 -0.2968 -0.3739
  421MOL0     C57966   9.431   4.310   8.239  0.0243  0.2651  0.0288
  421MOL0     C57967   9.483   4.367   8.117  0.2829  0.8028 -0.2530
  421MOL0     O57968   9.615   4.377   8.080 -0.7386 -0.2745  0.4789
  421MOL0     C57969   9.694   4.462   8.161 -0.0689 -0.5518 -0.5053
  421MOL0     C57970   9.839   4.422   8.133  0.4892  0.3208  0.1726
  421MOL0     C57971   9.871   4.281   8.165  0.2856  0.3487 -0.0319
  421MOL0     C57972  10.015   4.262   8.215  0.1483 -0.0549  0.1376
  421MOL0     C57973  10.052   4.112   8.229 -0.2162 -0.4134 -0.5327
  421MOL0     C57974  10.199   4.085   8.273 -0.0135  0.0235  0.7236
  421MOL0     C57975  10.313   4.131   8.175 -0.1734  0.8173  0.5938
  421MOL0     C57976  10.445   4.146   8.253  0.2051 -0.4344 -0.3439
  421MOL0     N57977  10.516   4.021   8.275  1.0112 -0.3725 -0.0375
  421MOL0     C57978  10.472   3.913   8.338  0.0894  0.7231 -0.3077
  421MOL0     C57979  10.560   3.811   8.300  0.1549 -0.6040 -0.6745
  421MOL0     C57980  10.548   3.670   8.342  0.4379  0.7470 -0.0256
  421MOL0     C57981  10.531   3.655   8.493  0.1545  0.2023 -0.4137
  421MOL0     C57982  10.500   3.506   8.517 -0.7815  0.4464 -0.2987
  421MOL0     C57983  10.464   3.466   8.661  0.1901 -0.5677 -0.2710
  421MOL0     O57984  10.419   3.331   8.678  0.0026  0.0576 -0.1906
  421MOL0     C57985  10.288   3.300   8.642 -0.1546  0.0198 -0.1425
  421MOL0     C57986  10.186   3.394   8.609  0.1998 -0.9612 -1.0397
  421MOL0     C57987  10.066   3.354   8.546  0.4142 -0.6887  0.3483
  421MOL0     C57988   9.980   3.472   8.509  0.3223  0.3785  0.3721
  421MOL0     C57989  10.033   3.215   8.535  0.2472  0.1139 -0.3228
  421MOL0     C57990   9.922   3.167   8.455  0.5928  0.1295  0.0963
  421MOL0     O57991   9.885   3.234   8.346 -0.3291 -0.3500  0.3271
  421MOL0     C57992   9.784   3.191   8.263  0.2507  0.7646  0.1782
  421MOL0     C57993   9.782   3.076   8.192 -0.1120 -0.3832 -0.6370
  421MOL0     C57994   9.677   3.039   8.114 -0.2748  0.5227  1.0317
  421MOL0     C57995   9.567   3.128   8.087 -0.6644  0.4202  0.5312
  421MOL0     O57996   9.466   3.105   8.001  0.4554  0.1399 -0.0005
  421MOL0     C57997   9.405   2.977   8.019 -0.4189 -0.1285 -0.3878
  421MOL0     C57998   9.271   2.972   7.955  0.6721 -0.0782 -0.0271
  421MOL0     C57999   9.275   3.014   7.808  0.3973  1.2013  0.1369
  421MOL0     C58000   9.371   2.953   7.713  1.3264 -0.5355 -0.0593
  421MOL0     C58001   9.314   2.937   7.579  0.4723  0.2831 -0.2384
  421MOL0     C58002   9.225   2.815   7.545  0.5425  0.6030  0.4163
  421MOL0     C58003   9.194   2.816   7.394  0.3260 -0.2282 -0.0643
  421MOL0     C58004   9.300   2.767   7.304  0.6827 -0.9963  0.6024
  421MOL0    Cl58005   9.262   2.844   7.138 -0.2815  0.2574  0.0931
  421MOL0     C58006   9.575   3.254   8.145  0.5083 -0.2687  0.5685
  421MOL0     C58007   9.681   3.281   8.231 -0.3505 -0.1187 -0.3017
  421MOL0     O58008   9.861   3.070   8.496 -0.4056  0.1703 -0.2822
  421MOL0     C58009  10.129   3.122   8.581 -0.7219  0.2316  0.4345
  421MOL0     C58010  10.254   3.167   8.627 -0.3376  0.1148 -0.7843
  421MOL0     N58011  10.659   3.866   8.218  0.5386  0.4587 -0.7196
  421MOL0     N58012  10.626   3.993   8.200 -0.1800  0.1861  0.4872
  421MOL0     C58013   9.381   4.408   8.019 -0.0203  0.4001  0.4172
  421MOL0     C58014   9.242   4.393   8.046 -0.1469 -0.0081  0.6997
  421MOL0     C58015   8.828   4.350   8.174 -0.1771  0.2203 -0.8941
  421MOL0     C58016   8.792   4.214   8.171 -0.2119 -0.6323  0.9018
  421MOL0     C58017   8.670   4.170   8.151  0.7105  0.8740 -0.6211
  421MOL0     C58018   8.565   4.253   8.114  0.3988 -0.9184 -0.1974
  421MOL0     O58019   8.439   4.218   8.070 -0.0010  0.8779  0.3898
  421MOL0     C58020   8.410   4.077   8.059  0.1419 -0.7094  0.2079
  421MOL0     C58021   8.266   4.042   8.027  0.0162  0.0741  0.8273
  421MOL0     C58022   8.265   3.886   8.008  0.7055 -1.3412  0.1433
  421MOL0     C58023   8.224   3.817   8.143 -0.3588  0.0313 -0.7904
  421MOL0     C58024   8.090   3.854   8.191 -0.0883 -0.5223  0.2566
  421MOL0     C58025   7.984   3.874   8.244 -0.3205 -0.1825 -0.0478
  421MOL0     C58026   8.599   4.388   8.117 -0.3877 -0.0002  0.8346
  421MOL0     C58027   8.722   4.444   8.163  0.6848 -0.2578 -0.8997
  421MOL0     C58028   8.746   4.599   8.163 -0.0911  0.3334 -0.7567
  421MOL0     H58029   9.244   4.234   8.336 -0.0752 -1.2046 -0.4548
  421MOL0     H58030   9.498   4.272   8.315 -1.5470  2.0424  2.4768
  421MOL0     H58031   9.664   4.445   8.265  2.0902  0.2850  0.3197
  421MOL0     H58032   9.677   4.567   8.136 -4.7267 -0.6131  1.4013
  421MOL0     H58033   9.859   4.448   8.028 -0.7085  3.8310  0.6699
  421MOL0     H58034   9.898   4.490   8.196 -0.2294  0.7610  0.3878
  421MOL0     H58035   9.797   4.248   8.239  0.2132 -0.2242 -0.3545
  421MOL0     H58036   9.861   4.211   8.082  0.4250 -0.0679  0.2960
  421MOL0     H58037  10.087   4.308   8.146 -0.7334 -0.5318 -1.1398
  421MOL0     H58038  10.021   4.312   8.312 -1.4313  5.0172 -2.0315
  421MOL0     H58039  10.024   4.068   8.133 -1.5228  1.6908 -1.1819
  421MOL0     H58040   9.987   4.068   8.306 -0.3282 -0.9072 -0.9044
  421MOL0     H58041  10.219   4.146   8.362  0.4333  0.1986  0.5069
  421MOL0     H58042  10.204   3.981   8.305  0.7314 -0.2030 -0.0793
  421MOL0     H58043  10.286   4.224   8.124  0.8011  0.7429 -0.0890
  421MOL0     H58044  10.316   4.060   8.091  0.0277 -1.2054  2.2365
  421MOL0     H58045  10.517   4.208   8.199  3.0805 -2.9853  0.3173
  421MOL0     H58046  10.427   4.204   8.344 -0.8392  0.6091 -1.1760
  421MOL0     H58047  10.374   3.892   8.380  0.2959  0.4318  0.0293
  421MOL0     H58048  10.642   3.620   8.316 -0.3955 -2.0626  1.8806
  421MOL0     H58049  10.475   3.623   8.276  0.0122 -2.3403  2.3726
  421MOL0     H58050  10.608   3.697   8.558  0.5634 -2.0993  0.6936
  421MOL0     H58051  10.434   3.702   8.514  0.3841 -0.2144  1.8121
  421MOL0     H58052  10.412   3.480   8.457 -1.1422 -2.7680  1.3879
  421MOL0     H58053  10.585   3.447   8.480  0.2425  2.5709 -1.4948
  421MOL0     H58054  10.558   3.469   8.717  1.2373  0.3443 -1.9535
  421MOL0     H58055  10.397   3.539   8.707  0.4947 -0.3789 -0.1186
  421MOL0     H58056  10.214   3.498   8.626 -2.3097 -0.2449 -0.9181
  421MOL0     H58057   9.942   3.531   8.593 -0.7209  2.4382 -1.4535
  421MOL0     H58058   9.894   3.432   8.453  0.4860 -2.1397  1.7410
  421MOL0     H58059  10.028   3.549   8.449  0.0649  1.4381  1.5000
  421MOL0     H58060   9.869   3.016   8.215  1.1344  0.8390 -1.9028
  421MOL0     H58061   9.684   2.942   8.067 -0.8885  1.7476 -1.8015
  421MOL0     H58062   9.471   2.898   7.982 -1.6179 -1.2818 -0.1552
  421MOL0     H58063   9.400   2.951   8.125 -0.4080  0.1747 -0.3134
  421MOL0     H58064   9.235   2.868   7.957  5.1193 -1.8751 -0.3767
  421MOL0     H58065   9.199   3.027   8.016 -3.9290 -6.2351  1.0701
  421MOL0     H58066   9.294   3.122   7.802  1.2913  1.0007 -1.3594
  421MOL0     H58067   9.172   2.997   7.776  0.3809 -1.6599  1.3935
  421MOL0     H58068   9.391   2.852   7.751 -0.5017 -0.4215  1.3024
  421MOL0     H58069   9.466   3.008   7.711 -0.0307  1.9471  0.2163
  421MOL0     H58070   9.261   3.029   7.552  1.0931  0.5651 -0.5273
  421MOL0     H58071   9.395   2.941   7.505  0.3256  2.8425 -0.3476
  421MOL0     H58072   9.127   2.811   7.593  1.4012 -0.4855  2.1551
  421MOL0     H58073   9.264   2.715   7.566 -2.5359 -1.4783 -2.7402
  421MOL0     H58074   9.164   2.918   7.368 -0.9914 -0.5077  0.2842
  421MOL0     H58075   9.103   2.759   7.375 -1.0027  1.0910  1.9809
  421MOL0     H58076   9.286   2.658   7.311 -0.0377 -0.9099  0.5285
  421MOL0     H58077   9.405   2.778   7.333  1.1024 -1.6293 -0.6205
  421MOL0     H58078   9.488   3.318   8.139 -0.7974 -2.1176 -1.8082
  421MOL0     H58079   9.679   3.376   8.283 -1.1975 -0.9440  1.2655
  421MOL0     H58080  10.105   3.016   8.579  0.2800 -0.0073  0.5226
  421MOL0     H58081  10.324   3.095   8.667 -1.2902 -0.8851 -0.8842
  421MOL0     H58082   9.423   4.461   7.934  0.0178 -0.4981 -0.1384
  421MOL0     H58083   9.173   4.421   7.967 -0.2268  1.7948  1.3700
  421MOL0     H58084   8.871   4.139   8.181  0.7603  0.5180  2.5618
  421MOL0     H58085   8.656   4.062   8.145 -0.1037  0.8841  0.7709
  421MOL0     H58086   8.474   4.036   7.980  0.7753  0.6313  0.0042
  421MOL0     H58087   8.443   4.024   8.149 -2.6536  1.4038  2.6729
  421MOL0     H58088   8.232   4.085   7.933  2.8505 -1.5415 -1.0902
  421MOL0     H58089   8.199   4.077   8.106 -1.6828  1.6996 -1.2399
  421MOL0     H58090   8.186   3.864   7.935  1.2191 -2.3169 -0.1403
  421MOL0     H58091   8.355   3.858   7.953 -1.0192 -0.1194 -3.6800
  421MOL0     H58092   8.300   3.847   8.216  0.0743 -0.1255 -1.1740
  421MOL0     H58093   8.220   3.707   8.140 -0.7930  0.0783 -2.8625
  421MOL0     H58094   7.891   3.887   8.296  1.4617  0.5262  3.2554
  421MOL0     H58095   8.533   4.463   8.074  0.8439  0.7711  0.2043
  421MOL0     H58096   8.793   4.635   8.255 -0.1328 -2.4724  0.4505
  421MOL0     H58097   8.809   4.625   8.078  0.5903  0.8830 -0.0983
  421MOL0     H58098   8.651   4.650   8.143 -1.0158 -0.3618  1.4899
  422MOL0     O58099   3.019   3.686   3.100  0.2707 -0.5816  0.6849
  422MOL0     C58100   3.041   3.676   3.216  0.3793 -0.5572  0.1359
  422MOL0     O58101   3.076   3.555   3.282 -0.0092 -0.3569  0.7703
  422MOL0     C58102   3.131   3.564   3.407 -0.2024 -0.0171 -0.1805
  422MOL0     C58103   3.098   3.461   3.489  0.1421  0.4503  0.1564
  422MOL0     C58104   3.146   3.466   3.625  0.3064  0.2090 -0.1232
  422MOL0     C58105   3.224   3.571   3.667  0.9518 -0.1712  0.2111
  422MOL0     O58106   3.272   3.575   3.793 -0.3312 -0.3641  0.3153
  422MOL0     C58107   3.289   3.463   3.877  0.2569 -0.1724  0.2303
  422MOL0     C58108   3.396   3.369   3.819  0.1102 -0.0070 -0.2504
  422MOL0     C58109   3.526   3.419   3.754 -0.3767  0.0925 -0.6446
  422MOL0     C58110   3.644   3.312   3.766 -0.6998  0.1082 -0.4155
  422MOL0     C58111   3.801   3.358   3.737  0.5903 -0.9118 -0.1726
  422MOL0     C58112   3.898   3.245   3.779 -0.5939  0.2015  0.1659
  422MOL0     C58113   4.036   3.288   3.730  0.5301  0.1476 -0.1777
  422MOL0     C58114   4.134   3.178   3.774 -0.4639  0.1618  0.0026
  422MOL0     N58115   4.278   3.204   3.756  0.3266  0.1833  0.6862
  422MOL0     C58116   4.362   3.223   3.851  0.6263  0.3248  0.0587
  422MOL0     C58117   4.481   3.220   3.791  0.6797 -0.1126  0.1752
  422MOL0     C58118   4.607   3.217   3.869 -1.0103  0.3127 -0.2450
  422MOL0     C58119   4.726   3.253   3.770  0.1788  0.1584 -0.1795
  422MOL0     C58120   4.860   3.256   3.838 -0.0521  0.5969  0.6574
  422MOL0     C58121   4.956   3.351   3.772  0.5243  0.0773  0.0669
  422MOL0     O58122   4.957   3.312   3.635 -0.3142 -0.1439 -0.1427
  422MOL0     C58123   5.056   3.228   3.599 -0.2396 -0.7930 -0.4327
  422MOL0     C58124   5.038   3.095   3.594 -0.3087 -0.3785 -0.0611
  422MOL0     C58125   5.138   3.001   3.568 -0.4350  0.4381 -0.3670
  422MOL0     C58126   5.109   2.859   3.544  0.1099 -0.6001 -1.1360
  422MOL0     C58127   5.269   3.053   3.541 -0.1694 -0.5482 -0.3558
  422MOL0     C58128   5.398   2.976   3.531 -0.5529 -0.1485 -0.4191
  422MOL0     O58129   5.512   3.049   3.495  0.1859 -0.3737  0.6661
  422MOL0     C58130   5.621   2.974   3.457 -0.1623 -0.1391  0.2688
  422MOL0     C58131   5.692   2.897   3.549  0.5247 -0.3839 -0.6276
  422MOL0     C58132   5.797   2.818   3.500  0.2831  0.2351  0.0222
  422MOL0     C58133   5.842   2.829   3.362 -0.2331 -0.2193  1.3225
  422MOL0     O58134   5.947   2.751   3.319 -0.0295 -0.0432  0.2969
  422MOL0     C58135   6.024   2.800   3.200  0.8811  0.4431 -0.0127
  422MOL0     C58136   6.097   2.929   3.230  0.3782  0.5974 -0.8765
  422MOL0     C58137   6.178   2.979   3.114 -0.2139 -0.2211  0.1979
  422MOL0     C58138   6.283   3.082   3.144 -0.4526 -0.2763  0.2222
  422MOL0     C58139   6.374   3.119   3.025 -0.7338 -0.5478  0.1015
  422MOL0     C58140   6.452   3.236   3.059  0.5713 -0.1342  0.1427
  422MOL0     C58141   6.568   3.284   2.961  1.2123 -0.1824 -0.1576
  422MOL0     C58142   6.639   3.398   3.031  0.4122  0.3313  0.1354
  422MOL0    Cl58143   6.535   3.533   3.076  0.4014  0.0038 -0.6542
  422MOL0     C58144   5.770   2.912   3.279  0.0513 -0.5872 -0.1020
  422MOL0     C58145   5.665   2.992   3.330 -0.4889 -0.1425  0.1272
  422MOL0     O58146   5.407   2.851   3.558 -0.3847 -0.2990  0.1780
  422MOL0     C58147   5.289   3.193   3.561 -0.5427  0.6255 -0.1666
  422MOL0     C58148   5.183   3.279   3.586  0.1406 -0.7344  0.0889
  422MOL0     N58149   4.471   3.227   3.649 -0.1025 -0.2957 -0.8435
  422MOL0     N58150   4.342   3.210   3.638  0.3088 -0.5366 -0.3685
  422MOL0     C58151   3.252   3.675   3.580  0.1154 -0.2553  0.2667
  422MOL0     C58152   3.209   3.675   3.453 -0.9883 -0.3798 -0.5744
  422MOL0     C58153   3.002   3.802   3.281  0.0174  0.4840 -0.1784
  422MOL0     C58154   3.064   3.916   3.233 -0.3040 -0.1806 -0.6356
  422MOL0     C58155   3.041   4.034   3.304  0.0050 -0.6033  1.5021
  422MOL0     C58156   2.947   4.041   3.409 -0.8697  0.1535  1.0964
  422MOL0     O58157   2.926   4.160   3.471  0.7758  0.7081  0.1505
  422MOL0     C58158   2.794   4.212   3.439 -0.2757  0.1987  0.3098
  422MOL0     C58159   2.685   4.175   3.544 -0.3312 -1.1866 -1.1979
  422MOL0     C58160   2.722   4.237   3.681  0.4926 -0.2764 -0.5739
  422MOL0     C58161   2.631   4.209   3.799  0.5548 -0.6086 -0.9954
  422MOL0     C58162   2.628   4.061   3.819  0.0514 -0.9517 -0.5010
  422MOL0     C58163   2.633   3.941   3.840 -0.7616  0.7246 -0.1166
  422MOL0     C58164   2.896   3.924   3.457  0.1607  0.6934 -0.5407
  422MOL0     C58165   2.909   3.805   3.381 -0.7213 -0.9998  0.3346
  422MOL0     C58166   2.836   3.692   3.445 -0.0674 -0.1346  1.2704
  422MOL0     H58167   3.040   3.375   3.458 -0.1696  0.7302 -0.0394
  422MOL0     H58168   3.110   3.388   3.691  0.3389 -0.1516 -0.5261
  422MOL0     H58169   3.193   3.410   3.889  0.9605 -1.5483  0.0133
  422MOL0     H58170   3.328   3.495   3.973 -0.3965 -1.2118  0.8575
  422MOL0     H58171   3.425   3.306   3.904 -1.2904  0.6661  0.7583
  422MOL0     H58172   3.340   3.317   3.741 -0.4834  4.1641 -2.9207
  422MOL0     H58173   3.500   3.453   3.654 -1.5168  0.2375 -0.3108
  422MOL0     H58174   3.555   3.506   3.815 -1.7021  0.1641 -0.0844
  422MOL0     H58175   3.642   3.269   3.867  3.7894  1.0185  0.2765
  422MOL0     H58176   3.627   3.234   3.692 -0.3759  0.5224 -0.9339
  422MOL0     H58177   3.821   3.448   3.797  0.1995 -0.7321 -0.3032
  422MOL0     H58178   3.809   3.401   3.637  1.0985 -2.4685 -0.8311
  422MOL0     H58179   3.901   3.225   3.886 -1.7898 -1.3315 -0.0568
  422MOL0     H58180   3.873   3.154   3.723 -0.0039  0.1884 -0.0904
  422MOL0     H58181   4.069   3.382   3.775  2.5487 -1.4199  1.8373
  422MOL0     H58182   4.040   3.295   3.621  0.4675 -1.4112 -0.3133
  422MOL0     H58183   4.119   3.159   3.880  0.9671  2.1294  0.6036
  422MOL0     H58184   4.106   3.094   3.709 -2.1620 -0.4579  1.4606
  422MOL0     H58185   4.349   3.237   3.957 -0.9712  0.3596 -0.1217
  422MOL0     H58186   4.633   3.120   3.912  1.9830  1.8611  1.8653
  422MOL0     H58187   4.595   3.291   3.949  0.5042  0.5736 -0.2203
  422MOL0     H58188   4.740   3.174   3.696 -1.8707 -2.3718  1.9331
  422MOL0     H58189   4.709   3.354   3.729  0.6425  1.1237  1.8728
  422MOL0     H58190   4.852   3.306   3.936 -0.7909  0.5416  0.6332
  422MOL0     H58191   4.901   3.156   3.853  1.4690  1.1916  0.6310
  422MOL0     H58192   4.919   3.453   3.781  1.3254  0.3817  0.0098
  422MOL0     H58193   5.058   3.352   3.813  0.7233  2.6820 -0.3710
  422MOL0     H58194   4.945   3.046   3.621  0.9751 -2.1806  1.3011
  422MOL0     H58195   5.136   2.822   3.445 -1.3329 -1.8127 -1.1135
  422MOL0     H58196   5.001   2.841   3.548  0.0921 -0.9620 -2.8027
  422MOL0     H58197   5.155   2.798   3.622  0.9562  1.1395 -0.2008
  422MOL0     H58198   5.653   2.894   3.650  0.7578  1.3594 -0.4567
  422MOL0     H58199   5.856   2.752   3.563  0.5681 -0.7764 -1.2792
  422MOL0     H58200   6.094   2.720   3.175  0.0852 -0.7859  1.5424
  422MOL0     H58201   5.954   2.815   3.118  0.7473  0.5641  0.1219
  422MOL0     H58202   6.021   3.003   3.255  0.6806  1.5703 -2.6680
  422MOL0     H58203   6.166   2.908   3.311  2.0531  0.4181 -2.2846
  422MOL0     H58204   6.110   3.018   3.037  2.2804 -0.0552 -2.0657
  422MOL0     H58205   6.222   2.890   3.066 -1.9319 -0.7067 -0.5702
  422MOL0     H58206   6.348   3.047   3.225 -0.1271  0.2506  0.1945
  422MOL0     H58207   6.241   3.175   3.184 -0.3916 -0.7188  1.3554
  422MOL0     H58208   6.443   3.036   3.006  1.5104  0.8177  1.7134
  422MOL0     H58209   6.318   3.145   2.935  0.9883 -0.8203 -1.1039
  422MOL0     H58210   6.495   3.213   3.157  0.8386 -0.8912 -0.1447
  422MOL0     H58211   6.388   3.324   3.068  0.3134 -0.1764 -1.1024
  422MOL0     H58212   6.534   3.293   2.857  0.6105 -0.2622  0.0318
  422MOL0     H58213   6.642   3.205   2.949  0.0990 -1.2796  0.0079
  422MOL0     H58214   6.715   3.439   2.963 -0.2630  2.0129  0.3441
  422MOL0     H58215   6.692   3.379   3.125  1.7188  1.6648 -0.2957
  422MOL0     H58216   5.804   2.926   3.177 -0.7903  0.8636 -0.2074
  422MOL0     H58217   5.614   3.068   3.272  1.7690  0.5456 -1.0866
  422MOL0     H58218   5.383   3.246   3.549 -0.5471  1.1208  1.6345
  422MOL0     H58219   5.182   3.387   3.590 -0.3806 -0.6013 -2.4101
  422MOL0     H58220   3.318   3.753   3.618 -1.4101 -0.0609  2.7348
  422MOL0     H58221   3.247   3.753   3.388  2.0967 -2.3425 -1.3326
  422MOL0     H58222   3.125   3.912   3.143 -0.8222 -0.5987 -0.9748
  422MOL0     H58223   3.101   4.118   3.272 -1.2076 -0.7129 -1.3357
  422MOL0     H58224   2.801   4.321   3.438 -1.3516  0.3620 -3.0885
  422MOL0     H58225   2.765   4.182   3.338  0.8431 -2.2430  0.6527
  422MOL0     H58226   2.684   4.066   3.558 -2.1873 -1.2759 -1.7963
  422MOL0     H58227   2.586   4.206   3.510  0.2961 -0.8970 -2.8891
  422MOL0     H58228   2.823   4.201   3.706  0.4463 -1.5371 -2.0409
  422MOL0     H58229   2.726   4.345   3.668  1.5763 -0.5396 -3.0436
  422MOL0     H58230   2.530   4.250   3.798  0.6386 -0.1524  1.4306
  422MOL0     H58231   2.671   4.250   3.893 -1.4490 -1.1569  0.1490
  422MOL0     H58232   2.655   3.838   3.861 -0.3330  0.8009 -0.1794
  422MOL0     H58233   2.838   3.913   3.549  2.7954 -2.1056  0.9398
  422MOL0     H58234   2.830   3.606   3.377 -4.2279  1.1529 -0.2704
  422MOL0     H58235   2.894   3.667   3.535  1.9604 -0.3521 -0.0221
  422MOL0     H58236   2.735   3.730   3.461 -0.1763  0.5809 -0.8581
  423MOL0     O58237   6.668  11.380   7.594 -0.2731 -0.8131  1.0382
  423MOL0     C58238   6.615  11.338   7.693  0.0002  0.8425 -0.3522
  423MOL0     O58239   6.677  11.287   7.800  0.2056 -0.4131 -0.3551
  423MOL0     C58240   6.813  11.281   7.791 -1.0509  0.1367  0.2816
  423MOL0     C58241   6.878  11.154   7.805  0.4036  0.5487 -0.5626
  423MOL0     C58242   7.017  11.138   7.799 -0.2118  0.6110 -0.0153
  423MOL0     C58243   7.095  11.252   7.764  0.2633  0.3653  0.0337
  423MOL0     O58244   7.227  11.238   7.741  0.0433  0.7594 -0.6251
  423MOL0     C58245   7.258  11.154   7.631 -0.1178  0.5113  0.5592
  423MOL0     C58246   7.414  11.140   7.628 -0.0295  0.0990 -0.5116
  423MOL0     C58247   7.467  11.056   7.751  0.0203  0.1241 -0.5333
  423MOL0     C58248   7.619  11.060   7.747 -0.1974  0.4934  1.2276
  423MOL0     C58249   7.674  10.996   7.882  0.4049 -0.0628  0.0821
  423MOL0     C58250   7.829  11.008   7.894 -0.3343 -0.0229  0.5066
  423MOL0     C58251   7.908  10.880   7.860  0.1201  0.0867 -0.1641
  423MOL0     C58252   8.047  10.919   7.835 -2.0998  0.1594 -0.0043
  423MOL0     N58253   8.129  10.803   7.799  0.9145 -0.4473  0.3471
  423MOL0     C58254   8.247  10.786   7.847  0.7304  0.4006  0.6281
  423MOL0     C58255   8.264  10.653   7.824 -0.4287 -0.7480  0.4725
  423MOL0     C58256   8.368  10.551   7.876  1.9506 -0.4874  0.2615
  423MOL0     C58257   8.504  10.594   7.826  0.1626 -0.0988  0.5742
  423MOL0     C58258   8.620  10.500   7.865  0.9798  0.2142 -0.3383
  423MOL0     C58259   8.764  10.545   7.815 -0.3690 -0.1527  0.0547
  423MOL0     O58260   8.753  10.576   7.671  0.2774  0.5159 -0.5553
  423MOL0     C58261   8.876  10.603   7.602  0.0129 -0.7512 -0.2880
  423MOL0     C58262   8.868  10.629   7.459  0.5711 -0.7914 -0.8314
  423MOL0     C58263   8.971  10.672   7.379  0.4108 -0.1127  0.6470
  423MOL0     C58264   8.935  10.691   7.234  0.5810  0.6330 -0.0119
  423MOL0     C58265   9.095  10.700   7.440 -0.2399 -0.1049 -0.9474
  423MOL0     C58266   9.225  10.733   7.358 -0.2674 -0.0010  0.2282
  423MOL0     O58267   9.334  10.761   7.436  0.3805 -0.6730 -0.4987
  423MOL0     C58268   9.466  10.749   7.390 -0.0838 -0.2467  0.4474
  423MOL0     C58269   9.557  10.814   7.470  0.3897  0.0166 -0.2577
  423MOL0     C58270   9.690  10.832   7.430 -0.3905  0.1480  0.4469
  423MOL0     C58271   9.732  10.793   7.300  0.2675 -0.4018  0.1013
  423MOL0     O58272   9.853  10.820   7.244 -0.3326  0.2598 -0.1921
  423MOL0     C58273   9.960  10.762   7.315 -0.4391  0.6936  0.2874
  423MOL0     C58274  10.041  10.876   7.377 -0.4662 -0.4329  0.1719
  423MOL0     C58275  10.173  10.827   7.442  0.2553 -0.0203  0.2484
  423MOL0     C58276  10.279  10.822   7.330  0.5695  0.6408 -0.5191
  423MOL0     C58277  10.368  10.690   7.333 -0.2155 -0.4852 -0.8820
  423MOL0     C58278  10.440  10.650   7.470  0.1182 -0.5640 -0.7953
  423MOL0     C58279  10.548  10.740   7.516  0.0020  0.3418 -0.1327
  423MOL0     C58280  10.565  10.741   7.668 -0.4157  0.5667  0.1331
  423MOL0    Cl58281  10.416  10.789   7.755  0.0284 -0.0584 -0.1371
  423MOL0     C58282   9.638  10.716   7.224 -0.5653  0.0953  0.8109
  423MOL0     C58283   9.509  10.696   7.263  0.7878 -0.8970  0.4390
  423MOL0     O58284   9.234  10.742   7.235  0.1471 -0.2049  0.0462
  423MOL0     C58285   9.114  10.661   7.575  0.1031 -0.2197  0.2600
  423MOL0     C58286   9.005  10.618   7.657  0.1187 -0.9877  0.0057
  423MOL0     N58287   8.163  10.605   7.744 -0.3601  0.6108  0.1974
  423MOL0     N58288   8.082  10.697   7.727 -0.6041  0.4902 -0.1295
  423MOL0     C58289   7.042  11.378   7.766 -0.2006 -0.6815 -0.3570
  423MOL0     C58290   6.903  11.394   7.771  0.7243 -0.1208  0.6650
  423MOL0     C58291   6.466  11.355   7.701  0.4707  1.4715 -0.5669
  423MOL0     C58292   6.400  11.466   7.642 -0.8566  0.5321 -0.2110
  423MOL0     C58293   6.263  11.483   7.635 -0.1812 -0.2545  0.2445
  423MOL0     C58294   6.177  11.384   7.692 -0.1625  1.1184  0.5678
  423MOL0     O58295   6.039  11.375   7.689  0.3032  0.2510 -0.0295
  423MOL0     C58296   5.961  11.455   7.594 -0.0556  0.5037 -0.2087
  423MOL0     C58297   5.950  11.407   7.445 -0.8601  0.7745  0.0003
  423MOL0     C58298   5.841  11.302   7.426 -1.1539 -0.6299 -0.4128
  423MOL0     C58299   5.831  11.249   7.285  0.6426 -0.0250  0.1067
  423MOL0     C58300   5.714  11.167   7.277  0.0110 -0.1304 -0.1969
  423MOL0     C58301   5.623  11.090   7.240 -0.1384  0.4289  0.2580
  423MOL0     C58302   6.237  11.271   7.747  0.1940 -0.2497 -0.4791
  423MOL0     C58303   6.373  11.256   7.755  0.1026 -0.8700 -0.2313
  423MOL0     C58304   6.412  11.126   7.816 -0.0555 -0.3180 -0.3040
  423MOL0     H58305   6.827  11.062   7.834  0.7719 -0.0749 -1.8036
  423MOL0     H58306   7.065  11.043   7.822  1.2978  1.1107 -0.9167
  423MOL0     H58307   7.234  11.200   7.535  0.8765 -1.0685 -0.4950
  423MOL0     H58308   7.198  11.062   7.638 -0.7365  0.9334  0.9148
  423MOL0     H58309   7.435  11.088   7.534  0.6168  0.3601 -0.5126
  423MOL0     H58310   7.472  11.232   7.625  1.7157 -0.9823 -1.0699
  423MOL0     H58311   7.428  11.112   7.837  0.0731  2.0567 -1.7096
  423MOL0     H58312   7.441  10.950   7.758 -0.7157  0.3848  4.1560
  423MOL0     H58313   7.653  10.988   7.672  0.1962  2.0601 -0.1645
  423MOL0     H58314   7.667  11.155   7.720  1.0360 -0.5614 -0.5569
  423MOL0     H58315   7.651  10.890   7.896 -0.0309  0.1063  0.6464
  423MOL0     H58316   7.629  11.043   7.970  2.2315 -2.3999  2.4038
  423MOL0     H58317   7.863  11.082   7.821 -2.4703 -0.1386 -0.7061
  423MOL0     H58318   7.864  11.043   7.992  1.8534 -0.8582  0.0730
  423MOL0     H58319   7.873  10.833   7.768  1.5824 -1.1500 -0.1198
  423MOL0     H58320   7.898  10.799   7.933 -1.8993  0.9247  0.5474
  423MOL0     H58321   8.051  10.980   7.745 -0.6284  0.5148  0.2760
  423MOL0     H58322   8.091  10.973   7.919 -1.7684  1.9652 -1.2816
  423MOL0     H58323   8.307  10.859   7.902 -1.8827  1.8115  1.7947
  423MOL0     H58324   8.343  10.448   7.850  2.0500 -0.9457  1.8750
  423MOL0     H58325   8.362  10.563   7.984 -1.2267 -0.4624  0.1801
  423MOL0     H58326   8.491  10.592   7.717 -0.7817 -0.6455  0.6838
  423MOL0     H58327   8.533  10.694   7.860  0.4015 -0.8159  2.5772
  423MOL0     H58328   8.620  10.491   7.974 -0.6197  3.7971  0.0936
  423MOL0     H58329   8.605  10.401   7.820  0.8598 -0.1677  0.5021
  423MOL0     H58330   8.812  10.627   7.869 -0.5882  0.2371 -0.3366
  423MOL0     H58331   8.829  10.457   7.823  0.0623 -0.0157 -1.5316
  423MOL0     H58332   8.768  10.632   7.417 -0.3778 -3.2205  0.9967
  423MOL0     H58333   8.862  10.772   7.234 -1.4307 -1.0614  0.6717
  423MOL0     H58334   8.885  10.601   7.197 -3.5726  1.3606  3.0633
  423MOL0     H58335   9.018  10.724   7.171  1.4431  1.0560  1.2971
  423MOL0     H58336   9.539  10.856   7.569  1.1629  0.2726 -0.2160
  423MOL0     H58337   9.753  10.882   7.503 -0.8478  1.2977  0.0711
  423MOL0     H58338   9.929  10.694   7.395 -2.2354  1.5430  0.3493
  423MOL0     H58339  10.023  10.706   7.245 -0.5494  0.8087  0.0984
  423MOL0     H58340  10.068  10.948   7.299  2.7126 -1.8561 -0.1697
  423MOL0     H58341   9.982  10.926   7.454  2.7197 -0.4842  2.8437
  423MOL0     H58342  10.161  10.728   7.486 -2.0960 -0.4026 -1.0784
  423MOL0     H58343  10.206  10.899   7.518  0.4259  1.4494 -1.1546
  423MOL0     H58344  10.342  10.908   7.355  1.2105 -0.3368  1.4041
  423MOL0     H58345  10.242  10.841   7.228 -0.2503  2.4712  0.0734
  423MOL0     H58346  10.296  10.615   7.298 -0.9800 -1.4134  2.3327
  423MOL0     H58347  10.450  10.693   7.261  0.8765 -1.6058  0.2561
  423MOL0     H58348  10.478  10.547   7.470 -1.4096 -1.2621  2.4376
  423MOL0     H58349  10.362  10.634   7.545 -0.7684  1.2991 -1.2694
  423MOL0     H58350  10.510  10.840   7.492 -2.0835 -0.6372 -1.1545
  423MOL0     H58351  10.642  10.714   7.467 -0.7113 -1.6073 -0.5531
  423MOL0     H58352  10.637  10.822   7.683 -0.4998  1.6219 -4.0311
  423MOL0     H58353  10.612  10.647   7.699  2.8955  1.7840 -0.7040
  423MOL0     H58354   9.666  10.657   7.137 -0.5916 -0.7444  1.3642
  423MOL0     H58355   9.437  10.644   7.199 -1.0084  2.6081 -0.6414
  423MOL0     H58356   9.205  10.680   7.632 -1.2398  0.6961  2.2338
  423MOL0     H58357   9.025  10.611   7.763 -2.2761 -2.2192  0.4299
  423MOL0     H58358   7.112  11.459   7.750  0.8939 -1.8436 -1.8085
  423MOL0     H58359   6.859  11.493   7.772  1.5137  0.2330  1.6427
  423MOL0     H58360   6.456  11.553   7.607 -1.0559  1.3107  1.3339
  423MOL0     H58361   6.226  11.570   7.581  2.2454  0.5422 -0.2947
  423MOL0     H58362   5.861  11.457   7.639  0.1024 -0.7176  0.2146
  423MOL0     H58363   5.992  11.560   7.586 -0.0740  0.4870 -0.5043
  423MOL0     H58364   6.043  11.357   7.417 -0.6087  0.7424  0.8894
  423MOL0     H58365   5.947  11.489   7.372  2.9176 -1.5896 -3.2112
  423MOL0     H58366   5.861  11.225   7.501  0.0327  1.5119  1.6394
  423MOL0     H58367   5.745  11.345   7.457 -0.8694 -1.2527  1.5160
  423MOL0     H58368   5.922  11.196   7.257  1.4722  1.7317 -0.7095
  423MOL0     H58369   5.816  11.336   7.220  0.7202 -1.4172 -1.8412
  423MOL0     H58370   5.538  11.035   7.206 -0.8205  1.9754 -0.6657
  423MOL0     H58371   6.168  11.193   7.778 -0.4748 -0.8139 -3.1247
  423MOL0     H58372   6.517  11.098   7.803 -0.1826 -0.9288 -0.0409
  423MOL0     H58373   6.389  11.138   7.922 -2.3916  2.2592 -0.9806
  423MOL0     H58374   6.352  11.047   7.769 -0.4815  0.6222 -1.3971
  424MOL0     O58375   6.063   4.744   2.008  0.5960 -0.3402  0.3090
  424MOL0     C58376   6.080   4.659   2.097 -0.1617 -0.5575  0.6382
  424MOL0     O58377   6.177   4.566   2.094 -0.6863 -0.8342 -0.0020
  424MOL0     C58378   6.280   4.604   2.010 -0.0354  0.9980 -0.0688
  424MOL0     C58379   6.266   4.561   1.877  0.1929  0.5243 -0.3543
  424MOL0     C58380   6.375   4.582   1.790  0.0381 -0.4602 -0.4111
  424MOL0     C58381   6.489   4.646   1.834 -0.3818  0.3939  0.3108
  424MOL0     O58382   6.599   4.645   1.741  0.4055  0.4198 -0.0548
  424MOL0     C58383   6.722   4.691   1.789 -0.5407 -0.2269  1.2252
  424MOL0     C58384   6.837   4.690   1.683  1.3939  0.3116 -0.0950
  424MOL0     C58385   6.945   4.795   1.708 -0.9129 -0.1268 -0.3661
  424MOL0     C58386   7.000   4.797   1.851 -0.4012 -0.0807 -1.0544
  424MOL0     C58387   7.128   4.876   1.876  0.4171 -1.0727  0.0306
  424MOL0     C58388   7.249   4.832   1.798 -0.2469  0.0485 -0.9199
  424MOL0     C58389   7.352   4.942   1.796  0.0412 -0.2307  0.6257
  424MOL0     C58390   7.480   4.880   1.742  0.2028  0.3170  0.0877
  424MOL0     N58391   7.588   4.980   1.712  0.3925 -0.0321 -0.2434
  424MOL0     C58392   7.648   5.060   1.807  0.1940 -0.3726 -0.6426
  424MOL0     C58393   7.727   5.140   1.726  0.0867 -0.8086  0.2620
  424MOL0     C58394   7.821   5.250   1.773  0.0670  0.8579 -0.0799
  424MOL0     C58395   7.811   5.262   1.923 -0.0100  0.0815  0.1274
  424MOL0     C58396   7.920   5.352   1.980  0.1888 -0.5545 -0.0940
  424MOL0     C58397   7.924   5.492   1.901 -0.3312 -0.2991  0.5590
  424MOL0     O58398   7.805   5.577   1.918 -0.1187  0.0087 -0.3450
  424MOL0     C58399   7.784   5.609   2.054 -0.1963 -0.0908 -0.0788
  424MOL0     C58400   7.647   5.648   2.079 -0.4504  0.0786 -0.8843
  424MOL0     C58401   7.618   5.711   2.200 -0.6542  0.2177  0.4009
  424MOL0     C58402   7.471   5.747   2.217 -1.2094  0.1766 -0.8335
  424MOL0     C58403   7.719   5.727   2.304 -0.5164  0.6866 -0.2452
  424MOL0     C58404   7.696   5.795   2.439 -0.9720 -0.1646 -0.5479
  424MOL0     O58405   7.802   5.804   2.524 -0.5672 -0.1131  0.3398
  424MOL0     C58406   7.775   5.853   2.650 -0.3848  0.9246 -0.0873
  424MOL0     C58407   7.800   5.768   2.761 -0.4995  0.7202  0.5259
  424MOL0     C58408   7.784   5.826   2.888 -0.2626  0.0506 -0.6861
  424MOL0     C58409   7.757   5.960   2.900 -0.7568  0.6576  0.0784
  424MOL0     O58410   7.771   6.029   3.020 -0.0855 -0.4656  0.1352
  424MOL0     C58411   7.755   5.957   3.141 -0.5028 -0.0978  0.1005
  424MOL0     C58412   7.762   6.064   3.244 -0.2493  0.0891 -0.5652
  424MOL0     C58413   7.634   6.141   3.257 -0.9215 -0.7675  0.1630
  424MOL0     C58414   7.636   6.247   3.370  0.0515 -0.6742 -0.0517
  424MOL0     C58415   7.499   6.312   3.376  0.2885 -0.4349  0.4787
  424MOL0     C58416   7.493   6.440   3.463 -1.3083  0.4320 -0.5098
  424MOL0     C58417   7.366   6.519   3.457 -0.2604 -0.5853 -0.3775
  424MOL0     C58418   7.357   6.639   3.558 -0.1228  0.1210  0.6520
  424MOL0    Cl58419   7.441   6.783   3.486 -0.1197  0.1841 -0.3610
  424MOL0     C58420   7.738   6.038   2.793  0.5553  0.3443 -0.5536
  424MOL0     C58421   7.753   5.985   2.669 -0.4941  0.0363 -0.3177
  424MOL0     O58422   7.587   5.843   2.463  0.9743 -0.0144  0.1752
  424MOL0     C58423   7.850   5.673   2.282  0.2859 -0.5277 -0.6257
  424MOL0     C58424   7.881   5.628   2.159 -0.2768  0.9821  0.5693
  424MOL0     N58425   7.731   5.091   1.601  0.6623 -0.7273  0.2833
  424MOL0     N58426   7.654   4.994   1.593 -0.1505 -0.4700  0.6420
  424MOL0     C58427   6.497   4.686   1.969 -0.2716 -0.3775  0.7247
  424MOL0     C58428   6.396   4.667   2.058 -0.2816  0.2222 -0.1215
  424MOL0     C58429   5.990   4.652   2.208  0.1522  0.0831  0.6071
  424MOL0     C58430   6.031   4.584   2.322 -1.4196  0.0997 -0.6002
  424MOL0     C58431   5.946   4.552   2.424  0.4031  0.0777  0.2489
  424MOL0     C58432   5.811   4.587   2.423  0.0387  0.0758  0.2570
  424MOL0     O58433   5.724   4.571   2.533 -0.3483  0.2799 -0.5568
  424MOL0     C58434   5.760   4.473   2.625 -0.4330 -0.1424 -0.9083
  424MOL0     C58435   5.658   4.427   2.726 -0.1881 -0.0996  0.2477
  424MOL0     C58436   5.526   4.401   2.663  0.4006 -0.9039 -1.3937
  424MOL0     C58437   5.411   4.350   2.763 -0.0597 -0.7923 -0.4766
  424MOL0     C58438   5.446   4.243   2.849  0.3846  0.1452  0.4115
  424MOL0     C58439   5.468   4.151   2.928 -0.7143  0.3019 -0.7151
  424MOL0     C58440   5.766   4.655   2.311  0.3356  0.1877  0.6235
  424MOL0     C58441   5.850   4.694   2.204 -0.2042 -0.2993  0.0815
  424MOL0     C58442   5.788   4.773   2.096  0.1486 -0.1939  0.2202
  424MOL0     H58443   6.169   4.520   1.850  0.1827 -1.3209  2.1530
  424MOL0     H58444   6.367   4.568   1.683  0.4545  2.0037 -0.8329
  424MOL0     H58445   6.762   4.617   1.859  0.8192  0.9557  1.7546
  424MOL0     H58446   6.714   4.790   1.836  0.0578 -0.5014  1.9113
  424MOL0     H58447   6.874   4.587   1.689 -1.0276 -0.6064  5.0724
  424MOL0     H58448   6.789   4.713   1.587  0.2673 -0.8709  0.1499
  424MOL0     H58449   7.031   4.772   1.644 -2.9121 -0.0671 -3.2236
  424MOL0     H58450   6.915   4.899   1.691 -1.4065 -0.4127 -1.2743
  424MOL0     H58451   6.922   4.852   1.903 -0.4700 -1.4525  0.3894
  424MOL0     H58452   7.012   4.691   1.877 -1.8687 -0.3881 -1.5831
  424MOL0     H58453   7.151   4.865   1.983  0.5020 -0.1858  0.1096
  424MOL0     H58454   7.113   4.981   1.850  2.4569 -0.6206  0.5575
  424MOL0     H58455   7.301   4.747   1.843 -0.0150 -0.6409 -2.4194
  424MOL0     H58456   7.228   4.803   1.694 -1.1978  0.8706 -0.9618
  424MOL0     H58457   7.353   4.980   1.899 -2.6609  1.6904  0.0436
  424MOL0     H58458   7.331   5.026   1.730  2.5227  1.3251  1.6909
  424MOL0     H58459   7.522   4.811   1.815 -2.0400 -1.4054 -0.1368
  424MOL0     H58460   7.463   4.823   1.650  3.4583 -1.2368  0.2844
  424MOL0     H58461   7.633   5.073   1.914  0.2194  0.6923 -0.7586
  424MOL0     H58462   7.790   5.335   1.711  1.6929 -1.4373 -4.5470
  424MOL0     H58463   7.924   5.226   1.743  0.3158  2.2876 -0.4465
  424MOL0     H58464   7.711   5.291   1.957 -0.7985 -2.2774  0.0542
  424MOL0     H58465   7.834   5.166   1.971 -0.0338 -0.1563 -0.3282
  424MOL0     H58466   7.906   5.370   2.087  1.8727  0.2899  0.0233
  424MOL0     H58467   8.013   5.295   1.977  0.7524  0.3898 -1.6958
  424MOL0     H58468   8.012   5.546   1.937  0.2102  1.9520 -3.4807
  424MOL0     H58469   7.925   5.489   1.791 -2.7850  1.0253  0.4129
  424MOL0     H58470   7.572   5.636   2.001  0.3308 -2.2426 -1.3697
  424MOL0     H58471   7.422   5.713   2.309  0.2145 -0.6546 -0.3557
  424MOL0     H58472   7.436   5.695   2.128  3.2672 -1.8779 -1.6316
  424MOL0     H58473   7.460   5.856   2.211 -0.7003  0.3920  1.4097
  424MOL0     H58474   7.835   5.666   2.748  2.5074  1.8061 -0.8528
  424MOL0     H58475   7.825   5.767   2.969  1.3214  2.2016  0.2065
  424MOL0     H58476   7.663   5.898   3.137 -0.9939  0.5972  0.9603
  424MOL0     H58477   7.839   5.888   3.152 -0.3561 -0.2672 -1.7267
  424MOL0     H58478   7.791   6.018   3.339 -0.8950  0.4392 -0.1973
  424MOL0     H58479   7.851   6.125   3.223  0.5459 -0.1355  1.7742
  424MOL0     H58480   7.551   6.075   3.284 -1.0034 -0.3817  0.8810
  424MOL0     H58481   7.607   6.188   3.162 -2.8951  0.5966  1.3120
  424MOL0     H58482   7.712   6.324   3.354 -0.2772 -0.6000 -1.3932
  424MOL0     H58483   7.648   6.188   3.461 -2.1938  0.2447  0.9300
  424MOL0     H58484   7.469   6.323   3.271  1.0828 -3.7066 -0.2005
  424MOL0     H58485   7.435   6.234   3.419  2.1394 -1.5020  1.3880
  424MOL0     H58486   7.566   6.508   3.418  1.2620 -0.2452  2.2769
  424MOL0     H58487   7.519   6.423   3.568  2.2511 -0.0318 -1.3268
  424MOL0     H58488   7.281   6.451   3.470 -1.1877  0.2702 -1.7341
  424MOL0     H58489   7.354   6.561   3.357  1.8597  4.4520  1.1815
  424MOL0     H58490   7.388   6.605   3.657 -0.4179 -1.0723  0.3579
  424MOL0     H58491   7.252   6.664   3.574 -0.9429 -1.4122 -1.7529
  424MOL0     H58492   7.709   6.141   2.808 -3.3168 -0.6813  0.0103
  424MOL0     H58493   7.754   6.048   2.581 -2.9985  0.7099  0.0498
  424MOL0     H58494   7.929   5.705   2.349 -0.0104 -1.5657  0.2502
  424MOL0     H58495   7.984   5.608   2.133 -1.0507 -2.5493 -0.3336
  424MOL0     H58496   6.579   4.733   2.023  1.7612 -1.6923 -1.0156
  424MOL0     H58497   6.404   4.674   2.166  0.9913 -1.4767 -0.0552
  424MOL0     H58498   6.137   4.567   2.337 -1.6772  0.1907  1.6009
  424MOL0     H58499   5.986   4.509   2.516 -1.3649 -0.4477  0.8046
  424MOL0     H58500   5.793   4.393   2.558  0.9415 -0.0591 -0.3689
  424MOL0     H58501   5.851   4.493   2.683 -0.4509 -1.2860 -0.4541
  424MOL0     H58502   5.652   4.497   2.811  0.6511  1.3242 -0.8291
  424MOL0     H58503   5.691   4.334   2.773 -0.9932 -1.5799 -2.0070
  424MOL0     H58504   5.484   4.486   2.610  0.3478  0.7470  1.1204
  424MOL0     H58505   5.546   4.312   2.602  1.5316 -2.5013  1.1083
  424MOL0     H58506   5.326   4.333   2.697 -0.6743  4.7065 -1.5944
  424MOL0     H58507   5.369   4.425   2.831 -0.5424 -2.2239  0.8793
  424MOL0     H58508   5.482   4.076   3.003 -0.1405  2.3040  1.2860
  424MOL0     H58509   5.661   4.681   2.315  0.1907  0.1393 -1.6143
  424MOL0     H58510   5.804   4.881   2.109 -2.6477  0.0446  3.1098
  424MOL0     H58511   5.817   4.733   1.999  1.2925  1.0058  0.0314
  424MOL0     H58512   5.680   4.767   2.114  0.3030 -0.8678  0.9893
  425MOL0     O58513  11.097   9.492   0.357 -0.2407  0.3162  0.0866
  425MOL0     C58514  11.028   9.569   0.284 -0.1107  0.1199  0.0177
  425MOL0     O58515  11.078   9.618   0.171  0.6591  0.2060  0.2259
  425MOL0     C58516  11.210   9.599   0.130  0.4533  0.4852 -0.3092
  425MOL0     C58517  11.286   9.715   0.100 -0.7173 -0.0192  0.3031
  425MOL0     C58518  11.423   9.700   0.079 -1.5535 -0.4171 -0.8007
  425MOL0     C58519  11.479   9.568   0.084 -0.1189 -1.0314  0.2867
  425MOL0     O58520  11.616   9.538   0.072  0.5733  0.0329 -0.5702
  425MOL0     C58521  11.705   9.646   0.052  0.0999 -0.5271 -0.0161
  425MOL0     C58522  11.834   9.592   0.012 -1.0114  0.2632  0.0416
  425MOL0     C58523  11.920   9.535   0.129 -0.4073  0.1207  0.1807
  425MOL0     C58524  12.066   9.582   0.125 -0.2321  0.1483  0.4157
  425MOL0     C58525  12.162   9.474   0.076  0.1333  0.6977 -0.1909
  425MOL0     C58526  12.302   9.509   0.101 -0.0785  0.1665  0.5362
  425MOL0     C58527  12.404   9.412   0.034  0.2230  0.5596 -0.4350
  425MOL0     C58528  12.417   9.273   0.107 -0.0907 -0.0968 -0.5910
  425MOL0     N58529  12.490   9.190   0.019 -0.1029  0.2744  0.9075
  425MOL0     C58530  12.629   9.193  -0.001 -0.9061 -0.2373 -0.2812
  425MOL0     C58531  12.643   9.109  -0.099 -0.6269 -0.3585 -0.3251
  425MOL0     C58532  12.772   9.084  -0.178 -0.2802  0.7284  0.0012
  425MOL0     C58533  12.787   9.196  -0.283  0.2548  0.9279 -0.5624
  425MOL0     C58534  12.911   9.179  -0.369  0.7836  0.1151  0.3314
  425MOL0     C58535  13.041   9.216  -0.301 -0.4999  0.4619  0.6304
  425MOL0     O58536  13.085   9.096  -0.231  0.4063 -0.2180 -0.7688
  425MOL0     C58537  13.217   9.066  -0.204  0.1889 -0.3837  0.6571
  425MOL0     C58538  13.329   9.158  -0.211  0.2841  0.0706 -0.1013
  425MOL0     C58539  13.461   9.128  -0.178 -0.9330  0.1662 -0.5613
  425MOL0     C58540  13.577   9.228  -0.188  0.3679 -0.3697 -0.1037
  425MOL0     C58541  13.485   9.000  -0.136  0.1340 -0.2480 -0.7695
  425MOL0     C58542  13.627   8.957  -0.102  1.2422 -0.1188 -0.0914
  425MOL0     O58543  13.712   9.036  -0.042  0.3027 -0.1172  0.2750
  425MOL0     C58544  13.839   8.996  -0.011  0.0760  0.4515  0.2676
  425MOL0     C58545  13.953   9.075  -0.041  0.2333  0.1089  0.4275
  425MOL0     C58546  14.085   9.041  -0.001 -0.3735  0.6792 -0.1042
  425MOL0     C58547  14.103   8.917   0.061  0.0176  0.2139  0.6814
  425MOL0     O58548  14.222   8.878   0.098 -0.3604  0.2356 -0.0922
  425MOL0     C58549  14.250   8.913   0.234  0.1292 -0.2681 -0.8047
  425MOL0     C58550  14.401   8.894   0.256  0.4723 -0.2949 -0.3339
  425MOL0     C58551  14.441   8.748   0.244 -0.0320  0.1337  0.4370
  425MOL0     C58552  14.591   8.739   0.205 -0.8494 -0.1453 -0.1929
  425MOL0     C58553  14.634   8.597   0.230 -0.1790  0.0296  0.1185
  425MOL0     C58554  14.733   8.564   0.123  0.3956  0.1555 -0.1845
  425MOL0     C58555  14.814   8.435   0.159  0.6843 -0.6597 -0.9750
  425MOL0     C58556  14.879   8.386   0.037  0.1471 -1.0317 -0.4251
  425MOL0    Cl58557  15.001   8.272   0.098 -0.4242  0.1451  0.3483
  425MOL0     C58558  13.998   8.840   0.090 -0.4016 -0.1193  0.5075
  425MOL0     C58559  13.871   8.881   0.056 -0.1606  0.6688  0.0262
  425MOL0     O58560  13.649   8.839  -0.127 -0.7779 -0.1393  0.3816
  425MOL0     C58561  13.374   8.904  -0.117  0.8796 -0.2078  0.6583
  425MOL0     C58562  13.242   8.936  -0.153  0.0290  0.4951 -0.2169
  425MOL0     N58563  12.517   9.049  -0.129 -0.2844 -0.8868  0.8141
  425MOL0     N58564  12.424   9.109  -0.059  0.2483 -0.0283 -0.4741
  425MOL0     C58565  11.399   9.454   0.112  0.1386  0.3961 -1.2206
  425MOL0     C58566  11.258   9.467   0.134 -0.5388  0.1441  0.8825
  425MOL0     C58567  10.886   9.596   0.318 -0.2742  0.3443  0.9560
  425MOL0     C58568  10.834   9.532   0.433 -0.5715  0.2354 -0.7537
  425MOL0     C58569  10.695   9.560   0.467  0.0871  0.3521  0.1291
  425MOL0     C58570  10.622   9.657   0.396 -0.0013 -0.0889 -0.3574
  425MOL0     O58571  10.490   9.684   0.423  0.5797  0.1332  0.4007
  425MOL0     C58572  10.417   9.609   0.514  0.3990  0.9189 -0.0331
  425MOL0     C58573  10.360   9.474   0.466 -0.4423  0.1173  0.1562
  425MOL0     C58574  10.257   9.490   0.348 -0.6367  0.3643  0.4496
  425MOL0     C58575  10.118   9.516   0.407  0.8886 -1.0555  0.0160
  425MOL0     C58576  10.041   9.524   0.285  1.0104  0.0134 -0.6148
  425MOL0     C58577   9.970   9.537   0.187 -0.4873  0.3265 -0.3766
  425MOL0     C58578  10.683   9.727   0.299 -0.2239  0.7194 -0.4165
  425MOL0     C58579  10.805   9.702   0.255  0.2650  0.6381  0.0545
  425MOL0     C58580  10.855   9.785   0.146 -0.1521 -0.3968  0.1585
  425MOL0     H58581  11.245   9.815   0.108  2.1765  1.4221 -1.4568
  425MOL0     H58582  11.491   9.784   0.083  2.3314 -3.3116  2.4354
  425MOL0     H58583  11.710   9.719   0.133 -1.1378  2.6790 -2.6345
  425MOL0     H58584  11.661   9.696  -0.034  1.6565  0.9075 -0.0084
  425MOL0     H58585  11.813   9.502  -0.048 -2.2383 -0.2843  1.2446
  425MOL0     H58586  11.891   9.663  -0.049  0.1426 -0.4042  0.2984
  425MOL0     H58587  11.876   9.570   0.223 -0.9161 -0.0701  0.0203
  425MOL0     H58588  11.905   9.427   0.120  0.7726 -0.0653  0.2781
  425MOL0     H58589  12.079   9.679   0.075  0.4783 -0.3404 -0.3685
  425MOL0     H58590  12.105   9.609   0.224  3.8203  2.7991 -1.6592
  425MOL0     H58591  12.149   9.454  -0.031  1.9893  2.2428 -0.7691
  425MOL0     H58592  12.144   9.379   0.126  3.8790 -0.4107 -0.6484
  425MOL0     H58593  12.317   9.610   0.063 -0.8866  0.5510  1.2031
  425MOL0     H58594  12.318   9.507   0.210 -1.0108 -4.7452  0.8223
  425MOL0     H58595  12.505   9.453   0.041 -0.4227  2.2594 -0.6088
  425MOL0     H58596  12.376   9.403  -0.071 -1.6723 -1.1608  0.1579
  425MOL0     H58597  12.484   9.276   0.194 -1.7108  1.0642  0.6573
  425MOL0     H58598  12.320   9.224   0.121 -0.2119 -0.2330 -1.8281
  425MOL0     H58599  12.704   9.252   0.050 -0.0106 -1.1253 -0.5556
  425MOL0     H58600  12.766   8.987  -0.229 -0.5221  0.3997  0.6531
  425MOL0     H58601  12.862   9.075  -0.116  0.2166  5.2716  0.2650
  425MOL0     H58602  12.700   9.186  -0.349 -1.8105 -0.9078  2.2555
  425MOL0     H58603  12.787   9.299  -0.247  2.0128  1.5369 -2.1111
  425MOL0     H58604  12.921   9.079  -0.413  2.4120  0.8156 -0.9826
  425MOL0     H58605  12.898   9.232  -0.464  2.1725 -2.7001 -1.5643
  425MOL0     H58606  13.116   9.252  -0.372  0.7357  1.6364  2.4477
  425MOL0     H58607  13.025   9.299  -0.231  1.6530  0.9120  0.6507
  425MOL0     H58608  13.316   9.261  -0.244 -1.4202 -0.7413 -2.1479
  425MOL0     H58609  13.612   9.259  -0.089  1.1301 -4.4019  1.0817
  425MOL0     H58610  13.541   9.313  -0.247  0.9613 -0.2512 -0.3125
  425MOL0     H58611  13.670   9.193  -0.235 -1.1751 -2.1483 -1.9955
  425MOL0     H58612  13.947   9.171  -0.091 -1.8140  0.1541  0.6945
  425MOL0     H58613  14.170   9.104  -0.027 -0.3241  0.4626 -0.4798
  425MOL0     H58614  14.230   9.020   0.246 -4.2144 -0.9542 -0.0272
  425MOL0     H58615  14.209   8.853   0.316  0.1627  4.2843  2.9820
  425MOL0     H58616  14.450   8.957   0.180 -0.7576  0.1698 -0.7588
  425MOL0     H58617  14.435   8.933   0.352 -2.5178 -0.9498  1.0874
  425MOL0     H58618  14.374   8.700   0.172 -1.9499  0.7191  1.7311
  425MOL0     H58619  14.430   8.701   0.342  2.2468  1.0344  1.1689
  425MOL0     H58620  14.655   8.807   0.262  0.4886 -0.5139 -1.1769
  425MOL0     H58621  14.596   8.759   0.097  0.4084 -0.5938 -0.2350
  425MOL0     H58622  14.676   8.572   0.328  1.1687 -1.1203 -0.7038
  425MOL0     H58623  14.555   8.525   0.208 -0.4628 -0.0521  1.3646
  425MOL0     H58624  14.808   8.639   0.100  0.9840 -0.3307  0.1018
  425MOL0     H58625  14.679   8.549   0.029 -1.4755 -2.1967  1.1473
  425MOL0     H58626  14.761   8.352   0.207  1.6622  0.3191  1.9903
  425MOL0     H58627  14.886   8.455   0.238  0.4143 -0.3220 -0.8134
  425MOL0     H58628  14.921   8.474  -0.012  1.0555 -0.7411  0.8484
  425MOL0     H58629  14.820   8.333  -0.039  0.5663 -2.4209  0.1835
  425MOL0     H58630  14.023   8.747   0.141  1.2226  0.6825  1.2782
  425MOL0     H58631  13.795   8.809   0.086 -2.2117  2.7366  0.0247
  425MOL0     H58632  13.410   8.804  -0.094  1.5966 -0.5412 -1.6287
  425MOL0     H58633  13.166   8.860  -0.170  1.9421 -1.1146 -2.0020
  425MOL0     H58634  11.442   9.354   0.110 -3.3607 -1.2589 -0.6513
  425MOL0     H58635  11.193   9.381   0.142  1.6895 -1.9694 -1.8702
  425MOL0     H58636  10.897   9.455   0.478  4.2097  3.7313 -0.6069
  425MOL0     H58637  10.645   9.499   0.541 -0.0681 -1.2637 -1.2519
  425MOL0     H58638  10.481   9.600   0.602  0.1340  2.7126  0.3798
  425MOL0     H58639  10.339   9.684   0.528  3.0994  4.0177 -0.4038
  425MOL0     H58640  10.321   9.418   0.552  1.7485 -0.2375  0.9828
  425MOL0     H58641  10.446   9.422   0.422  0.0517  1.3985 -0.4291
  425MOL0     H58642  10.295   9.566   0.280 -0.9355  3.6246  3.5813
  425MOL0     H58643  10.252   9.393   0.298 -2.8563  1.1831 -1.0326
  425MOL0     H58644  10.118   9.610   0.463  1.5633 -0.4112 -1.0171
  425MOL0     H58645  10.089   9.429   0.466  0.3692 -1.2206 -0.4776
  425MOL0     H58646   9.910   9.553   0.100 -0.9727  0.2990 -0.0498
  425MOL0     H58647  10.620   9.801   0.248 -3.1305 -2.6313 -2.1544
  425MOL0     H58648  10.874   9.729   0.054  0.7749  0.5579 -0.2513
  425MOL0     H58649  10.795   9.870   0.114  1.0455  0.1917 -0.6157
  425MOL0     H58650  10.950   9.830   0.178 -2.3357  2.8605  2.6803
  426MOL0     O58651   2.116   7.979   5.519  0.1277  1.2276 -0.8448
  426MOL0     C58652   2.040   7.933   5.608  0.5245 -0.0664 -0.3666
  426MOL0     O58653   2.078   7.897   5.735  0.0462 -0.2006 -0.2114
  426MOL0     C58654   2.215   7.906   5.750 -0.6528  1.1144  0.7670
  426MOL0     C58655   2.292   8.032   5.731  0.8826  0.7688  0.4598
  426MOL0     C58656   2.426   8.036   5.758 -0.0348  0.2936  1.1580
  426MOL0     C58657   2.492   7.917   5.799 -0.3688 -0.0667 -0.7661
  426MOL0     O58658   2.629   7.922   5.821 -0.4579 -0.1052 -0.7178
  426MOL0     C58659   2.703   7.920   5.698  0.1137  0.1245 -0.8758
  426MOL0     C58660   2.852   7.943   5.719 -0.0935  0.1029 -0.2282
  426MOL0     C58661   2.918   7.848   5.819 -0.1529  0.3693  0.0554
  426MOL0     C58662   3.074   7.844   5.817  0.3411  0.2541  0.3377
  426MOL0     C58663   3.115   7.727   5.903  0.0495 -0.9540  0.1557
  426MOL0     C58664   3.265   7.708   5.904  0.3422  0.0731 -0.5429
  426MOL0     C58665   3.299   7.594   6.004 -0.0822 -1.1196  0.2571
  426MOL0     C58666   3.441   7.542   5.981 -0.7756 -0.2674  0.1795
  426MOL0     N58667   3.445   7.463   5.862 -0.0441  0.2319 -0.6695
  426MOL0     C58668   3.412   7.336   5.862  0.1071 -0.6285 -0.2722
  426MOL0     C58669   3.412   7.301   5.732  0.1109  0.6291 -0.3487
  426MOL0     C58670   3.387   7.156   5.689 -0.0764  0.5089  0.2805
  426MOL0     C58671   3.525   7.082   5.702 -0.1330  0.3555  0.6543
  426MOL0     C58672   3.510   6.943   5.632 -0.5627 -0.7846 -1.0011
  426MOL0     C58673   3.634   6.861   5.665 -1.0449 -0.9112 -0.1810
  426MOL0     O58674   3.744   6.924   5.602 -0.9212 -0.2507 -0.3523
  426MOL0     C58675   3.874   6.905   5.637  0.1749  1.0294  0.6103
  426MOL0     C58676   3.976   6.971   5.583  0.3436 -0.3515  0.3875
  426MOL0     C58677   4.113   6.941   5.605  0.1831 -0.6159 -0.6284
  426MOL0     C58678   4.216   7.042   5.546  0.4173  0.3375 -0.3515
  426MOL0     C58679   4.143   6.839   5.695 -0.8091 -0.0164 -0.4127
  426MOL0     C58680   4.289   6.800   5.725  0.0755 -0.8445  0.1208
  426MOL0     O58681   4.296   6.717   5.839 -0.7151 -0.3590 -0.0915
  426MOL0     C58682   4.419   6.671   5.874  0.5664  0.4535 -0.0870
  426MOL0     C58683   4.416   6.549   5.940  0.5608  0.6153  0.0199
  426MOL0     C58684   4.532   6.484   5.997  0.0505 -0.5756  0.0649
  426MOL0     C58685   4.654   6.537   5.961  1.2964  0.0253 -0.0166
  426MOL0     O58686   4.778   6.479   5.996  0.5225 -0.1141  0.1530
  426MOL0     C58687   4.788   6.340   5.982  0.0204 -0.1317  0.6373
  426MOL0     C58688   4.937   6.311   6.011 -0.1571  0.9275  0.2393
  426MOL0     C58689   5.041   6.403   5.937  0.0417  0.2351  0.3888
  426MOL0     C58690   5.180   6.347   5.950  0.6609 -0.5588  0.4500
  426MOL0     C58691   5.278   6.460   5.897  0.0167 -0.5276  0.0984
  426MOL0     C58692   5.311   6.586   5.984  0.2297 -0.2497 -0.3428
  426MOL0     C58693   5.429   6.558   6.079  0.5821 -0.3888  0.5852
  426MOL0     C58694   5.438   6.678   6.179 -0.1654  0.1248 -0.3070
  426MOL0    Cl58695   5.585   6.653   6.285  0.5526 -0.0637 -0.1580
  426MOL0     C58696   4.654   6.665   5.901  0.3351  0.2269  0.0339
  426MOL0     C58697   4.542   6.730   5.856 -0.9042  0.0367  0.1696
  426MOL0     O58698   4.374   6.830   5.644 -0.2699 -0.0306  0.6789
  426MOL0     C58699   4.041   6.767   5.755 -0.6469  0.2192  0.0873
  426MOL0     C58700   3.908   6.799   5.729 -0.4076  0.2819 -0.7194
  426MOL0     N58701   3.455   7.401   5.654 -0.5697  0.5817  0.0146
  426MOL0     N58702   3.485   7.496   5.732  0.2413  0.4355 -0.2156
  426MOL0     C58703   2.421   7.801   5.824  0.7137  0.2241 -0.4793
  426MOL0     C58704   2.283   7.801   5.809 -0.5730 -0.0174 -0.1949
  426MOL0     C58705   1.902   7.902   5.566 -0.8668  0.2982  1.0080
  426MOL0     C58706   1.825   7.818   5.659  0.3383  0.5969 -0.1463
  426MOL0     C58707   1.710   7.758   5.622  0.0864 -0.5465 -0.5617
  426MOL0     C58708   1.645   7.798   5.502  0.3991  0.3426  0.9036
  426MOL0     O58709   1.517   7.755   5.480 -0.3147  0.8884 -0.2852
  426MOL0     C58710   1.455   7.771   5.358  0.0464  0.4691  0.5850
  426MOL0     C58711   1.326   7.691   5.364 -0.5156 -0.3207 -0.4149
  426MOL0     C58712   1.221   7.754   5.462  0.1835 -0.3857  0.6891
  426MOL0     C58713   1.094   7.675   5.455 -0.3577 -0.0079 -0.2781
  426MOL0     C58714   1.107   7.535   5.490  0.3006 -0.2427 -0.2654
  426MOL0     C58715   1.131   7.419   5.528  0.6885  0.2150 -0.5387
  426MOL0     C58716   1.710   7.879   5.411  0.2910  0.5887 -0.3840
  426MOL0     C58717   1.841   7.930   5.443  0.1028  0.1846 -0.0899
  426MOL0     C58718   1.915   8.018   5.330  0.5313  0.1893 -0.3697
  426MOL0     H58719   2.250   8.119   5.682  1.4154 -0.1625 -1.7531
  426MOL0     H58720   2.490   8.122   5.741 -1.8825  1.4784 -0.1224
  426MOL0     H58721   2.665   7.997   5.630 -0.8295  1.5511  1.1617
  426MOL0     H58722   2.688   7.820   5.654  3.3922 -0.2705 -1.3261
  426MOL0     H58723   2.894   7.937   5.618 -1.1178 -0.0455 -0.6606
  426MOL0     H58724   2.873   8.048   5.744 -0.8401 -0.0205  0.9910
  426MOL0     H58725   2.886   7.896   5.912 -1.2285  2.6800 -1.3904
  426MOL0     H58726   2.871   7.752   5.799 -1.0294  0.9629 -0.8774
  426MOL0     H58727   3.113   7.821   5.718  2.6941 -0.8316  1.4510
  426MOL0     H58728   3.103   7.942   5.856  0.0770  1.1964 -1.7209
  426MOL0     H58729   3.066   7.636   5.865  0.9500 -0.6115 -1.9852
  426MOL0     H58730   3.082   7.747   6.005 -1.3880 -0.1887 -0.4275
  426MOL0     H58731   3.288   7.691   5.799 -0.8138  0.8032 -0.9253
  426MOL0     H58732   3.325   7.791   5.943  2.2832 -1.0054 -1.0897
  426MOL0     H58733   3.235   7.507   5.991 -2.1229  0.3347  0.0938
  426MOL0     H58734   3.276   7.627   6.106 -0.3821  0.3195 -0.2463
  426MOL0     H58735   3.525   7.612   5.985 -0.3935 -0.1618 -4.4350
  426MOL0     H58736   3.467   7.479   6.066 -2.8065 -1.4223  0.0023
  426MOL0     H58737   3.384   7.280   5.951  2.3935 -2.3404 -0.5229
  426MOL0     H58738   3.356   7.149   5.584  3.0066  0.7977 -0.7555
  426MOL0     H58739   3.298   7.117   5.738 -1.4786 -0.2229 -2.6188
  426MOL0     H58740   3.589   7.149   5.644 -2.3054  2.8547  0.9201
  426MOL0     H58741   3.562   7.081   5.805 -0.9234  1.9585  0.9891
  426MOL0     H58742   3.416   6.900   5.667  0.4500 -1.1942  1.4110
  426MOL0     H58743   3.525   6.946   5.523  1.7737 -0.5861 -0.7217
  426MOL0     H58744   3.657   6.862   5.772 -0.6157  1.5777 -0.2578
  426MOL0     H58745   3.621   6.760   5.624 -0.5180 -1.2415  0.4570
  426MOL0     H58746   3.948   7.045   5.508 -1.6121  0.9436  2.2734
  426MOL0     H58747   4.171   7.141   5.531 -1.4817 -0.4652 -0.2417
  426MOL0     H58748   4.252   6.998   5.452  0.2049 -1.1970  0.2565
  426MOL0     H58749   4.293   7.055   5.622  0.1832 -0.2744 -0.0038
  426MOL0     H58750   4.315   6.512   5.955 -0.5701  3.7397  0.9996
  426MOL0     H58751   4.528   6.388   6.048  0.9571 -1.6600 -1.8212
  426MOL0     H58752   4.715   6.293   6.048 -0.1102  1.2952  1.5337
  426MOL0     H58753   4.751   6.316   5.882 -2.4453 -0.6961  1.6226
  426MOL0     H58754   4.934   6.311   6.120 -2.3621  0.4511  0.2403
  426MOL0     H58755   4.969   6.210   5.983 -1.0132  0.9148 -0.7619
  426MOL0     H58756   5.034   6.506   5.973 -0.8261  0.1498  0.5052
  426MOL0     H58757   5.015   6.412   5.831  1.4431 -0.0241  0.0111
  426MOL0     H58758   5.191   6.246   5.908 -2.1479 -0.9622  0.5266
  426MOL0     H58759   5.216   6.333   6.052  2.3101  2.6043  0.4240
  426MOL0     H58760   5.372   6.407   5.883 -1.1498 -2.9597  1.0045
  426MOL0     H58761   5.254   6.492   5.795  0.3074 -0.5205  0.0328
  426MOL0     H58762   5.226   6.635   6.031  1.2977  0.9178  0.4434
  426MOL0     H58763   5.343   6.658   5.908  0.2580  0.2824  0.1705
  426MOL0     H58764   5.520   6.539   6.023 -0.9157 -1.5564 -1.6109
  426MOL0     H58765   5.407   6.461   6.126  1.2585 -1.9828 -2.1514
  426MOL0     H58766   5.348   6.690   6.240 -0.2954  0.7938 -0.6149
  426MOL0     H58767   5.454   6.780   6.141 -0.0850  0.0844 -0.3809
  426MOL0     H58768   4.754   6.703   5.879  0.0762  0.6486 -0.4377
  426MOL0     H58769   4.548   6.820   5.796 -1.9221 -2.2771 -3.7234
  426MOL0     H58770   4.071   6.685   5.820 -0.8642  0.6068  0.6808
  426MOL0     H58771   3.835   6.730   5.772  0.3803 -0.3177 -0.3283
  426MOL0     H58772   2.475   7.714   5.860  0.6740  0.4405  0.1076
  426MOL0     H58773   2.224   7.715   5.838 -2.1978  1.4400  1.0802
  426MOL0     H58774   1.854   7.782   5.758 -0.7799 -0.0541 -0.0460
  426MOL0     H58775   1.667   7.687   5.692 -0.9713  0.8673  0.2724
  426MOL0     H58776   1.428   7.876   5.343 -0.7163 -0.0009 -1.6822
  426MOL0     H58777   1.529   7.738   5.284  1.1296  1.3491  1.2488
  426MOL0     H58778   1.363   7.592   5.393  1.7491  0.4962 -0.2821
  426MOL0     H58779   1.280   7.688   5.265 -1.7661 -2.0367  0.1633
  426MOL0     H58780   1.261   7.764   5.563 -1.2780 -0.3630  1.2941
  426MOL0     H58781   1.199   7.854   5.424  0.4193  0.3682  2.4186
  426MOL0     H58782   1.051   7.692   5.356  0.1967 -0.1876 -0.5537
  426MOL0     H58783   1.025   7.721   5.526 -0.8084  0.6488 -1.1222
  426MOL0     H58784   1.165   7.320   5.554 -0.5553 -0.4672 -1.4120
  426MOL0     H58785   1.667   7.903   5.315 -0.0555 -1.4076 -0.7632
  426MOL0     H58786   1.857   8.033   5.239  0.5916  1.9179 -0.1666
  426MOL0     H58787   1.934   8.121   5.363  1.0392  0.1093 -0.4167
  426MOL0     H58788   2.005   7.962   5.307 -0.3044 -0.5122 -2.0528
  427MOL0     O58789   8.622   6.134   9.351 -0.5716  0.3728 -0.4824
  427MOL0     C58790   8.611   6.253   9.384 -0.2402 -0.0128  0.5051
  427MOL0     O58791   8.710   6.332   9.437 -0.4077 -0.2549  0.2965
  427MOL0     C58792   8.841   6.300   9.432 -0.3216  0.1658  0.1051
  427MOL0     C58793   8.932   6.365   9.525 -0.2997  0.1728  0.6849
  427MOL0     C58794   9.073   6.353   9.510  0.1632 -0.0777  0.6891
  427MOL0     C58795   9.135   6.282   9.398 -0.3525  0.4184 -0.2450
  427MOL0     O58796   9.274   6.289   9.374 -0.8119 -0.4983  0.2111
  427MOL0     C58797   9.355   6.251   9.486 -0.2624 -0.1820  1.1194
  427MOL0     C58798   9.499   6.279   9.422 -0.4024 -0.0037 -0.0099
  427MOL0     C58799   9.546   6.427   9.412  0.2604  0.1305  0.6738
  427MOL0     C58800   9.687   6.434   9.353 -0.1958 -0.1406  0.5091
  427MOL0     C58801   9.791   6.405   9.461 -0.8580  0.5651 -0.3058
  427MOL0     C58802   9.925   6.468   9.409  0.0656  0.3504 -0.0180
  427MOL0     C58803   9.990   6.415   9.281  0.5783  0.0055 -0.7042
  427MOL0     C58804  10.013   6.259   9.299  0.0551 -0.3272  0.2677
  427MOL0     N58805  10.107   6.219   9.191  0.3202 -0.1948  0.6772
  427MOL0     C58806  10.071   6.118   9.106  0.4366  0.5191 -0.2442
  427MOL0     C58807  10.175   6.103   9.016  1.2157 -0.3173 -0.0552
  427MOL0     C58808  10.173   6.011   8.901 -0.0690 -0.5309  0.0739
  427MOL0     C58809  10.191   5.858   8.939 -0.3252 -0.1209  0.2064
  427MOL0     C58810  10.329   5.805   8.915 -0.0539  0.1472  0.3657
  427MOL0     C58811  10.428   5.883   9.006  0.2966 -0.3161  0.7678
  427MOL0     O58812  10.552   5.810   9.016 -0.2963  0.7194 -0.3484
  427MOL0     C58813  10.654   5.881   9.074  0.0442  0.1453  0.7333
  427MOL0     C58814  10.640   5.987   9.152 -0.6795  0.6022 -1.3151
  427MOL0     C58815  10.749   6.065   9.197 -0.2026 -0.3060 -0.0764
  427MOL0     C58816  10.710   6.192   9.270 -0.5562 -0.6518 -0.4534
  427MOL0     C58817  10.880   6.021   9.189 -0.0727 -0.2630  0.3356
  427MOL0     C58818  11.002   6.073   9.263 -0.0446  0.6950  0.0072
  427MOL0     O58819  11.104   5.985   9.286 -0.4500  0.5359  0.2204
  427MOL0     C58820  11.223   6.038   9.308 -0.6831  0.3554 -0.4171
  427MOL0     C58821  11.302   5.983   9.405 -0.1126  0.5172 -0.6286
  427MOL0     C58822  11.438   6.021   9.422  0.7015  0.0336 -0.7595
  427MOL0     C58823  11.484   6.129   9.346  0.3522 -0.2584 -0.1503
  427MOL0     O58824  11.617   6.165   9.364  0.2234 -1.1826 -0.8031
  427MOL0     C58825  11.701   6.155   9.252 -0.5491 -0.4206  0.4094
  427MOL0     C58826  11.843   6.146   9.305  0.2003 -0.6413 -0.5731
  427MOL0     C58827  11.958   6.124   9.202  0.0859  0.2772  0.1884
  427MOL0     C58828  12.059   6.018   9.262  0.0982  0.2811 -0.2278
  427MOL0     C58829  12.177   5.985   9.174  0.6233 -0.2120 -0.4857
  427MOL0     C58830  12.278   6.102   9.164  0.0367 -0.2236 -0.2976
  427MOL0     C58831  12.388   6.077   9.070  0.1086  0.1841  0.3616
  427MOL0     C58832  12.480   5.967   9.124 -0.1138 -0.3371  0.1304
  427MOL0    Cl58833  12.631   5.946   9.023 -0.1213  0.4267 -0.0106
  427MOL0     C58834  11.405   6.197   9.259  0.4283 -0.6789 -0.2806
  427MOL0     C58835  11.273   6.144   9.235  0.1937 -0.2243 -0.2426
  427MOL0     O58836  10.999   6.192   9.304  0.7726  0.8424 -0.1060
  427MOL0     C58837  10.894   5.908   9.099 -0.8915 -0.0655  0.2013
  427MOL0     C58838  10.781   5.839   9.046 -0.8169 -0.5658  0.4703
  427MOL0     N58839  10.271   6.185   9.062  0.3439  0.2056 -0.1026
  427MOL0     N58840  10.236   6.255   9.163 -0.1862 -0.5371 -0.0181
  427MOL0     C58841   9.045   6.234   9.297  0.4269  0.1623 -0.6024
  427MOL0     C58842   8.899   6.234   9.320  0.0685 -0.7317 -0.4740
  427MOL0     C58843   8.476   6.305   9.369 -0.7175  0.3715 -0.1344
  427MOL0     C58844   8.461   6.428   9.313  0.6944 -0.1475  0.5533
  427MOL0     C58845   8.332   6.482   9.294  0.2485 -0.4259  0.4692
  427MOL0     C58846   8.220   6.405   9.332 -0.0341  0.1335 -0.7355
  427MOL0     O58847   8.092   6.446   9.309  0.4383  0.5807  0.0460
  427MOL0     C58848   8.063   6.568   9.232  0.1562 -0.1394  0.6248
  427MOL0     C58849   7.922   6.603   9.206 -0.0780  0.4861  0.1213
  427MOL0     C58850   7.860   6.502   9.111 -0.6415 -0.1721 -0.1730
  427MOL0     C58851   7.711   6.532   9.080 -0.8510  0.1651  0.6960
  427MOL0     C58852   7.651   6.427   8.997 -0.7364 -0.2299 -0.8832
  427MOL0     C58853   7.586   6.344   8.945  0.7612 -0.3623  0.0814
  427MOL0     C58854   8.237   6.276   9.386  0.3614  0.4488 -0.3183
  427MOL0     C58855   8.366   6.226   9.417 -0.2252  0.5562  0.2123
  427MOL0     C58856   8.380   6.095   9.497 -0.8031  0.1049 -0.5479
  427MOL0     H58857   8.897   6.400   9.621 -0.1086 -2.7636  1.9464
  427MOL0     H58858   9.144   6.392   9.583 -1.9469  0.0133  2.8090
  427MOL0     H58859   9.346   6.145   9.512 -1.5340 -0.4322 -0.1802
  427MOL0     H58860   9.338   6.316   9.572 -1.0990  2.4410 -0.9063
  427MOL0     H58861   9.576   6.230   9.482  0.2174  0.8617 -0.0795
  427MOL0     H58862   9.515   6.240   9.321  2.8494 -0.4022  0.5457
  427MOL0     H58863   9.480   6.486   9.347 -0.7285 -1.8871 -0.2239
  427MOL0     H58864   9.527   6.478   9.507  0.9303  0.7070  0.5079
  427MOL0     H58865   9.707   6.355   9.280  0.2376 -2.0410  2.5669
  427MOL0     H58866   9.699   6.532   9.307  0.3545 -0.2463  0.4150
  427MOL0     H58867   9.812   6.298   9.469 -0.0522  0.7356 -0.0881
  427MOL0     H58868   9.763   6.437   9.562  0.6775 -0.6633  0.5509
  427MOL0     H58869   9.912   6.576   9.400  0.5858  0.2820 -2.7068
  427MOL0     H58870   9.994   6.462   9.494 -0.3457 -0.2523  0.2783
  427MOL0     H58871  10.081   6.470   9.258 -0.0501  1.2218 -0.3359
  427MOL0     H58872   9.924   6.430   9.195  1.8248  4.1839 -1.1175
  427MOL0     H58873  10.055   6.229   9.395  0.2716 -3.0728 -0.5771
  427MOL0     H58874   9.914   6.213   9.289 -0.5814  1.2805 -1.5165
  427MOL0     H58875   9.980   6.059   9.098 -1.3562  3.1122 -0.1821
  427MOL0     H58876  10.243   6.048   8.825 -0.1074  0.7947  0.6593
  427MOL0     H58877  10.080   6.018   8.845  0.7569  2.2435 -1.1073
  427MOL0     H58878  10.149   5.833   9.036 -2.4155 -0.7288 -0.7832
  427MOL0     H58879  10.125   5.808   8.867 -0.4132  1.8461 -1.1948
  427MOL0     H58880  10.331   5.701   8.950  0.9972 -0.0793 -0.3198
  427MOL0     H58881  10.346   5.807   8.807 -0.6693  0.6973  0.2719
  427MOL0     H58882  10.439   5.981   8.959 -2.6709 -0.7322 -1.1162
  427MOL0     H58883  10.376   5.893   9.102 -2.0529  0.8020 -0.5317
  427MOL0     H58884  10.542   6.028   9.170 -0.3057  1.0990 -0.3767
  427MOL0     H58885  10.753   6.280   9.221 -0.1985  0.2097  1.3452
  427MOL0     H58886  10.754   6.188   9.369 -1.4012 -3.1336 -0.1096
  427MOL0     H58887  10.602   6.199   9.283 -0.3651  0.1979  0.7515
  427MOL0     H58888  11.258   5.907   9.468  1.2547 -0.8107 -1.2153
  427MOL0     H58889  11.504   5.969   9.489  0.4390 -1.6987 -1.7913
  427MOL0     H58890  11.680   6.065   9.193 -1.7244  1.7291 -2.7083
  427MOL0     H58891  11.681   6.236   9.181 -2.5614 -0.6353  0.6785
  427MOL0     H58892  11.856   6.239   9.361 -1.6674 -0.5699 -0.2119
  427MOL0     H58893  11.844   6.062   9.375  2.6187  0.4924  0.8850
  427MOL0     H58894  12.009   6.220   9.189  2.2051 -0.9176 -1.0070
  427MOL0     H58895  11.928   6.091   9.102  2.3657  0.7770 -0.7304
  427MOL0     H58896  12.010   5.923   9.285 -0.0483  1.3227  5.0206
  427MOL0     H58897  12.095   6.045   9.362  0.3736  1.6534 -0.6666
  427MOL0     H58898  12.232   5.898   9.212  1.5289  1.5935  2.7322
  427MOL0     H58899  12.130   5.959   9.079 -0.7462  2.5520 -0.6458
  427MOL0     H58900  12.317   6.120   9.265 -0.5400 -1.2229  0.1254
  427MOL0     H58901  12.217   6.186   9.129  0.1320  0.5362  1.2703
  427MOL0     H58902  12.439   6.171   9.048 -2.7773  1.3098 -2.2099
  427MOL0     H58903  12.343   6.044   8.976 -0.2389  1.1595  0.1768
  427MOL0     H58904  12.436   5.867   9.135  3.1140 -2.4538 -3.6672
  427MOL0     H58905  12.513   5.988   9.226 -1.5253  1.4806  0.2590
  427MOL0     H58906  11.442   6.281   9.200 -2.0061 -0.1266 -1.1667
  427MOL0     H58907  11.210   6.189   9.159 -0.1633 -1.0699 -0.4535
  427MOL0     H58908  10.994   5.872   9.075 -1.6930 -0.0594 -3.9586
  427MOL0     H58909  10.788   5.754   8.979 -3.3725  0.5873 -1.4628
  427MOL0     H58910   9.087   6.191   9.207  3.5155  0.5162  0.5512
  427MOL0     H58911   8.840   6.178   9.248  0.4143  1.5324 -2.6544
  427MOL0     H58912   8.553   6.477   9.283  0.5671  0.6320  1.4020
  427MOL0     H58913   8.332   6.581   9.249  0.1413  0.1835  1.7767
  427MOL0     H58914   8.093   6.649   9.299 -1.8186 -2.0351  4.0848
  427MOL0     H58915   8.123   6.564   9.140 -1.7538 -1.8053 -0.6449
  427MOL0     H58916   7.916   6.707   9.174  2.9606  0.3441 -1.2441
  427MOL0     H58917   7.871   6.596   9.303  0.4353 -2.8615  0.2705
  427MOL0     H58918   7.924   6.505   9.022  1.4041 -0.4519  1.2241
  427MOL0     H58919   7.865   6.404   9.159  0.0338  0.3343  0.8240
  427MOL0     H58920   7.695   6.630   9.034 -0.2541  0.3367  0.8477
  427MOL0     H58921   7.652   6.532   9.172 -0.7144  2.5803  0.8598
  427MOL0     H58922   7.530   6.262   8.903  1.4067 -0.4961 -0.5401
  427MOL0     H58923   8.148   6.229   9.427  1.2617 -1.2998 -0.2497
  427MOL0     H58924   8.285   6.071   9.546 -1.4077  0.6116 -1.4494
  427MOL0     H58925   8.400   6.006   9.436  1.4797  0.2291 -0.0464
  427MOL0     H58926   8.457   6.093   9.574 -0.0449 -0.9698 -1.3095
  428MOL0     O58927   9.181   3.504   3.578 -0.0304  0.4596 -0.3854
  428MOL0     C58928   9.130   3.547   3.476  0.2087 -0.0391 -0.3507
  428MOL0     O58929   9.191   3.631   3.382  0.2643 -0.2138  0.0102
  428MOL0     C58930   9.323   3.632   3.375 -0.5011 -0.2396 -0.2026
  428MOL0     C58931   9.385   3.708   3.475  0.2982 -0.3234 -0.0565
  428MOL0     C58932   9.527   3.705   3.478  0.2390  0.7972 -0.2985
  428MOL0     C58933   9.604   3.640   3.380  0.4735  1.3685 -0.4926
  428MOL0     O58934   9.737   3.640   3.378 -0.4967  0.2130 -0.0752
  428MOL0     C58935   9.797   3.752   3.443 -0.0712  0.1916 -0.8870
  428MOL0     C58936   9.940   3.778   3.375  0.2993 -0.4280  0.3513
  428MOL0     C58937   9.944   3.815   3.230  0.1046  0.4452 -0.3182
  428MOL0     C58938  10.088   3.848   3.172  0.1131  0.4197 -0.5878
  428MOL0     C58939  10.075   3.897   3.029  0.2902  0.5626  0.6004
  428MOL0     C58940  10.212   3.931   2.967 -0.9087 -0.4109 -0.1184
  428MOL0     C58941  10.200   4.028   2.848  0.4666 -0.2175 -0.2760
  428MOL0     C58942  10.140   3.963   2.720 -0.1779 -0.3051 -0.4096
  428MOL0     N58943  10.129   4.059   2.609  0.6638 -0.5407 -0.2895
  428MOL0     C58944  10.224   4.077   2.513 -0.0685  0.1961  0.3972
  428MOL0     C58945  10.189   4.185   2.446 -0.3707  0.2058 -0.0494
  428MOL0     C58946  10.266   4.261   2.341 -0.1454  0.2709  0.0693
  428MOL0     C58947  10.186   4.335   2.238  0.4793  0.5887  0.1459
  428MOL0     C58948  10.254   4.365   2.107  0.4076  0.1871 -0.7447
  428MOL0     C58949  10.387   4.441   2.119  1.4915 -0.3365  0.7366
  428MOL0     O58950  10.493   4.348   2.140  0.1358  0.0696  0.3266
  428MOL0     C58951  10.614   4.393   2.083 -0.1696 -0.4547  0.0484
  428MOL0     C58952  10.715   4.301   2.112 -0.3992 -0.4563  0.1530
  428MOL0     C58953  10.850   4.325   2.069 -0.0418  0.7766 -0.1217
  428MOL0     C58954  10.961   4.220   2.102  0.3280 -0.2355  0.2626
  428MOL0     C58955  10.887   4.429   1.986 -0.0564  0.1072 -0.7095
  428MOL0     C58956  11.027   4.462   1.936  0.1474  0.2147  0.2836
  428MOL0     O58957  11.036   4.580   1.871  0.6830  0.3596 -0.9230
  428MOL0     C58958  11.153   4.641   1.853 -0.6374  0.6560 -0.9083
  428MOL0     C58959  11.248   4.597   1.758 -0.5445 -0.3874 -0.6489
  428MOL0     C58960  11.370   4.660   1.757  0.8607 -0.4214  0.7827
  428MOL0     C58961  11.409   4.754   1.847  1.0690  0.2628  0.2602
  428MOL0     O58962  11.529   4.816   1.848  0.4708  0.1092  0.1995
  428MOL0     C58963  11.629   4.778   1.760  0.2852 -0.5215  0.1245
  428MOL0     C58964  11.741   4.874   1.794 -0.3593  0.0109  0.1097
  428MOL0     C58965  11.790   4.842   1.936 -0.3763 -0.4900 -0.4156
  428MOL0     C58966  11.935   4.896   1.957  0.0014 -0.2727 -0.2437
  428MOL0     C58967  11.989   4.844   2.096  0.3152 -0.2904  0.6210
  428MOL0     C58968  12.134   4.870   2.110 -0.3991 -0.2989 -0.5864
  428MOL0     C58969  12.180   4.811   2.242  0.9057  0.3350 -0.5914
  428MOL0     C58970  12.329   4.842   2.261 -0.9399 -0.0124 -0.3989
  428MOL0    Cl58971  12.394   4.770   2.422 -0.2987 -0.3188  0.2856
  428MOL0     C58972  11.308   4.806   1.924  0.5036 -0.4516  0.1051
  428MOL0     C58973  11.185   4.744   1.942 -0.6680 -0.0285  1.0528
  428MOL0     O58974  11.128   4.403   1.974  0.1988  0.5037 -0.2808
  428MOL0     C58975  10.783   4.522   1.964  0.2501  0.2628  0.4979
  428MOL0     C58976  10.651   4.503   2.007 -0.2198 -0.8004 -0.0100
  428MOL0     N58977  10.071   4.231   2.495 -1.2554  0.5329 -0.7599
  428MOL0     N58978  10.034   4.158   2.592  0.2828  0.3454 -0.0324
  428MOL0     C58979   9.535   3.569   3.274 -0.2857 -0.0275  0.1239
  428MOL0     C58980   9.395   3.562   3.278 -0.6161 -0.7366  0.4219
  428MOL0     C58981   8.994   3.501   3.442 -0.6050 -0.3236 -0.4232
  428MOL0     C58982   8.935   3.557   3.327 -0.0435 -0.3528  0.4750
  428MOL0     C58983   8.800   3.524   3.296 -0.0181 -0.2692  0.2253
  428MOL0     C58984   8.724   3.446   3.376  0.4850  0.0668 -0.9688
  428MOL0     O58985   8.590   3.435   3.346 -0.2881 -0.6518  0.3770
  428MOL0     C58986   8.510   3.537   3.402  0.5242 -0.3693 -0.4066
  428MOL0     C58987   8.462   3.501   3.548  0.0180 -0.7050  1.1300
  428MOL0     C58988   8.406   3.355   3.551  0.0552  0.3280  0.3400
  428MOL0     C58989   8.349   3.316   3.691 -0.3924 -0.8499  0.1328
  428MOL0     C58990   8.299   3.184   3.676  0.3187 -0.2934  0.0560
  428MOL0     C58991   8.257   3.072   3.667 -0.3235  0.3057 -0.1287
  428MOL0     C58992   8.782   3.395   3.491 -0.0351 -0.4358  0.5931
  428MOL0     C58993   8.916   3.417   3.527  0.2852 -0.3227  0.1470
  428MOL0     C58994   8.958   3.350   3.656 -0.4013  0.1977 -0.2180
  428MOL0     H58995   9.317   3.743   3.552 -0.3770 -1.8639  0.0898
  428MOL0     H58996   9.582   3.748   3.561  3.0753 -4.4157  1.0249
  428MOL0     H58997   9.816   3.740   3.550 -0.5869  5.9604  0.1201
  428MOL0     H58998   9.738   3.843   3.436  1.3305  1.0243 -2.5340
  428MOL0     H58999   9.995   3.849   3.438  1.9592 -0.1966 -1.2726
  428MOL0     H59000   9.988   3.680   3.387 -0.0907 -0.4734  1.7517
  428MOL0     H59001   9.900   3.741   3.163  1.9884 -0.0096 -1.1075
  428MOL0     H59002   9.885   3.907   3.219 -1.3588 -0.3124  0.7869
  428MOL0     H59003  10.141   3.921   3.234 -0.5926 -0.1040  0.6600
  428MOL0     H59004  10.146   3.756   3.180  0.6897  0.6929 -1.4510
  428MOL0     H59005  10.010   3.984   3.017  0.3264  0.2399 -2.6193
  428MOL0     H59006  10.026   3.823   2.966 -0.1137 -0.4995  2.0875
  428MOL0     H59007  10.279   3.973   3.043  0.6317 -0.3375 -1.4535
  428MOL0     H59008  10.256   3.835   2.936 -1.1816 -0.4661 -0.3351
  428MOL0     H59009  10.295   4.075   2.820  0.5426 -0.2413 -0.0562
  428MOL0     H59010  10.131   4.103   2.885  1.6782  1.3192 -0.9920
  428MOL0     H59011  10.192   3.871   2.691 -0.0647 -0.7736  1.1781
  428MOL0     H59012  10.038   3.934   2.747  0.0711  1.1509  2.5228
  428MOL0     H59013  10.312   4.014   2.502 -0.2481 -0.6720  3.1680
  428MOL0     H59014  10.333   4.191   2.289 -0.0632 -1.7754  2.7235
  428MOL0     H59015  10.339   4.332   2.382 -1.2095  2.1232 -1.0954
  428MOL0     H59016  10.088   4.289   2.228  0.9505 -1.8222  4.2764
  428MOL0     H59017  10.160   4.434   2.277  0.0942  0.9649 -1.0247
  428MOL0     H59018  10.264   4.273   2.050 -3.9642 -1.0222  0.1095
  428MOL0     H59019  10.184   4.419   2.043  0.6437  2.0152  0.4599
  428MOL0     H59020  10.401   4.484   2.019 -1.3204 -0.5396  0.1697
  428MOL0     H59021  10.386   4.525   2.189 -0.6871  1.7576 -1.6326
  428MOL0     H59022  10.694   4.220   2.181  0.8552  0.1523  1.3031
  428MOL0     H59023  10.918   4.133   2.152 -1.2193 -0.1291 -0.8043
  428MOL0     H59024  11.036   4.268   2.166  1.2742  0.3625 -1.2474
  428MOL0     H59025  11.013   4.182   2.014  2.1051  1.2292  0.6222
  428MOL0     H59026  11.217   4.520   1.688 -0.0668  0.7522 -2.1770
  428MOL0     H59027  11.442   4.633   1.680 -1.2285  1.9780 -2.2611
  428MOL0     H59028  11.648   4.671   1.775  2.3375 -0.7267 -2.8908
  428MOL0     H59029  11.595   4.796   1.657 -0.5958  1.6873  0.7473
  428MOL0     H59030  11.836   4.855   1.743 -0.5982  1.3255 -0.8788
  428MOL0     H59031  11.719   4.981   1.782 -0.2974  0.2724  2.0419
  428MOL0     H59032  11.804   4.735   1.955  2.3913 -0.3883 -1.5444
  428MOL0     H59033  11.712   4.875   2.006  0.3674 -1.8803  1.1454
  428MOL0     H59034  11.937   5.005   1.948 -3.9072  0.4219  3.7837
  428MOL0     H59035  11.998   4.863   1.874  0.2881 -1.0634  0.2741
  428MOL0     H59036  11.947   4.888   2.187 -0.5436  0.9277 -0.3242
  428MOL0     H59037  11.963   4.738   2.092 -3.0799  0.4563  0.5021
  428MOL0     H59038  12.151   4.978   2.113  1.6463 -0.6083  1.3973
  428MOL0     H59039  12.192   4.826   2.029  0.1058  2.0817 -1.5877
  428MOL0     H59040  12.171   4.702   2.229 -1.5486  0.3819  0.1820
  428MOL0     H59041  12.125   4.853   2.326 -1.2205 -0.3664 -1.5588
  428MOL0     H59042  12.347   4.948   2.278  2.3054 -0.2011 -1.7741
  428MOL0     H59043  12.383   4.802   2.175  0.1390 -3.1686  1.5468
  428MOL0     H59044  11.336   4.893   1.984 -1.6674  0.4385 -0.0549
  428MOL0     H59045  11.114   4.781   2.015  0.2312 -1.4356  2.7089
  428MOL0     H59046  10.801   4.615   1.910  0.4030 -2.3255 -4.4241
  428MOL0     H59047  10.577   4.581   1.992 -1.3491 -1.4882  1.6659
  428MOL0     H59048   9.597   3.511   3.207  0.8979  2.5679 -1.2037
  428MOL0     H59049   9.350   3.492   3.208 -0.6551 -1.3276  1.0192
  428MOL0     H59050   8.986   3.626   3.261  0.1118  1.4529  2.3861
  428MOL0     H59051   8.756   3.570   3.208 -1.1195  3.2874  2.4153
  428MOL0     H59052   8.561   3.633   3.411 -0.5444  0.0300  2.7238
  428MOL0     H59053   8.425   3.560   3.336 -0.7419  0.9753  1.5688
  428MOL0     H59054   8.380   3.568   3.573 -0.9299 -0.2506 -2.6297
  428MOL0     H59055   8.546   3.506   3.618 -0.1488 -0.4839  1.3174
  428MOL0     H59056   8.326   3.351   3.477  1.1384  0.3012 -0.8516
  428MOL0     H59057   8.477   3.278   3.519 -0.9312 -1.2108  1.6282
  428MOL0     H59058   8.269   3.385   3.721 -0.0778 -1.0477  1.4756
  428MOL0     H59059   8.421   3.323   3.772  0.5607 -2.4452 -0.5315
  428MOL0     H59060   8.214   2.977   3.639  1.0147 -0.3300 -0.1047
  428MOL0     H59061   8.715   3.345   3.560  0.7631 -2.3165  0.0688
  428MOL0     H59062   9.059   3.309   3.647 -0.1458  0.3306  1.6343
  428MOL0     H59063   8.970   3.426   3.735  0.5654 -1.7114  1.5884
  428MOL0     H59064   8.901   3.262   3.686  1.5859 -0.4314  2.0795
  429MOL0     O59065   5.075   7.174   0.141 -0.1276  0.4672 -0.0078
  429MOL0     C59066   5.047   7.112   0.043 -0.0122  0.2200  0.4055
  429MOL0     O59067   5.145   7.065  -0.051  0.1469  0.4027  0.9926
  429MOL0     C59068   5.276   7.076  -0.016  0.2199 -0.8939 -0.0420
  429MOL0     C59069   5.344   6.965   0.035 -1.1537  0.2032  0.0216
  429MOL0     C59070   5.481   6.963   0.061 -0.7033  0.3362  0.4226
  429MOL0     C59071   5.552   7.086   0.044 -0.9923 -1.0734  0.0800
  429MOL0     O59072   5.681   7.119   0.097 -0.2042 -0.1412  0.6251
  429MOL0     C59073   5.723   7.042   0.205 -0.5124 -1.0181 -0.1145
  429MOL0     C59074   5.836   7.100   0.290 -0.3804 -0.3601  0.4318
  429MOL0     C59075   5.960   7.016   0.255  0.5795  0.3844 -0.0196
  429MOL0     C59076   6.083   7.065   0.336 -0.0937 -1.0549 -0.2220
  429MOL0     C59077   6.216   6.992   0.305 -0.3557  0.3580  0.1900
  429MOL0     C59078   6.330   7.047   0.395  0.1037 -0.2421 -0.0301
  429MOL0     C59079   6.464   6.972   0.367  0.5705  0.4699 -0.3478
  429MOL0     C59080   6.508   6.983   0.221  0.2462  0.3458 -0.2753
  429MOL0     N59081   6.644   6.936   0.202  0.0110  0.1346 -0.3320
  429MOL0     C59082   6.757   7.002   0.245  0.4974  0.7402 -0.9956
  429MOL0     C59083   6.859   6.947   0.176 -0.0145  0.6196  0.2929
  429MOL0     C59084   6.999   6.973   0.213  0.5909 -0.2766  0.1900
  429MOL0     C59085   7.083   7.061   0.115  0.5866  0.6944 -0.4678
  429MOL0     C59086   7.231   7.055   0.157  0.3178 -0.6056  0.4551
  429MOL0     C59087   7.326   7.126   0.063  1.4148  1.1776  0.4516
  429MOL0     O59088   7.457   7.131   0.132 -0.6664  0.3974 -0.0835
  429MOL0     C59089   7.558   7.199   0.076  0.2832  0.5449  0.7696
  429MOL0     C59090   7.549   7.332   0.036 -0.1332  0.6855  0.1471
  429MOL0     C59091   7.654   7.410  -0.016  0.5868  0.2493  0.0811
  429MOL0     C59092   7.618   7.554  -0.064  0.2976  0.4483 -0.2127
  429MOL0     C59093   7.775   7.345  -0.022  0.4288 -0.3767  0.0471
  429MOL0     C59094   7.885   7.400  -0.095  0.7793  1.1119 -0.0774
  429MOL0     O59095   7.947   7.308  -0.172 -0.1779 -0.1623 -0.7955
  429MOL0     C59096   8.047   7.369  -0.245 -0.9951  0.6016  0.1703
  429MOL0     C59097   8.034   7.361  -0.378 -0.5287  0.0759  1.1068
  429MOL0     C59098   8.142   7.406  -0.459  0.3446 -0.4589  0.5301
  429MOL0     C59099   8.257   7.456  -0.404  0.1753 -0.6104  1.1099
  429MOL0     O59100   8.351   7.480  -0.500  1.1907 -0.0884  0.0772
  429MOL0     C59101   8.485   7.476  -0.462  0.5877  0.2712 -0.1819
  429MOL0     C59102   8.566   7.446  -0.596 -0.2574  0.0664 -1.8593
  429MOL0     C59103   8.720   7.472  -0.562 -0.7129  0.6765  0.7754
  429MOL0     C59104   8.808   7.414  -0.674  0.1350  1.1794 -0.5290
  429MOL0     C59105   8.961   7.434  -0.636  0.7458 -1.2360 -0.5649
  429MOL0     C59106   9.046   7.344  -0.726  0.6387 -0.5034  0.4556
  429MOL0     C59107   9.200   7.369  -0.700 -0.1985  0.3445  0.7930
  429MOL0     C59108   9.289   7.265  -0.785 -0.1083  0.5968 -0.0689
  429MOL0    Cl59109   9.473   7.263  -0.758 -0.6798 -0.6278  0.0414
  429MOL0     C59110   8.269   7.481  -0.266 -0.0849 -0.1434 -0.6977
  429MOL0     C59111   8.162   7.431  -0.188  0.6220  0.5967  0.7732
  429MOL0     O59112   7.912   7.517  -0.073  1.3036  0.4992  0.0832
  429MOL0     C59113   7.800   7.213   0.028 -0.1858 -0.2612 -0.0334
  429MOL0     C59114   7.684   7.145   0.077 -0.3129 -0.2824  0.0191
  429MOL0     N59115   6.807   6.860   0.085  0.6819  0.1862  0.2272
  429MOL0     N59116   6.676   6.857   0.097  0.4672 -0.0777  0.7624
  429MOL0     C59117   5.480   7.196  -0.002 -0.4975 -0.1032 -0.9274
  429MOL0     C59118   5.348   7.192  -0.044 -0.2243 -0.6049 -0.1661
  429MOL0     C59119   4.903   7.065   0.013  1.0504 -0.0823 -0.6296
  429MOL0     C59120   4.870   6.923   0.031 -0.0956 -0.2238  0.8337
  429MOL0     C59121   4.742   6.882   0.022  0.5985 -0.1632 -0.0348
  429MOL0     C59122   4.634   6.973   0.009  0.2910 -0.5129  0.5119
  429MOL0     O59123   4.506   6.914   0.006  0.1445  0.1304 -0.1296
  429MOL0     C59124   4.398   6.993  -0.028  1.0245  0.0611 -0.2867
  429MOL0     C59125   4.267   6.907  -0.005  0.5298  0.3308  0.1334
  429MOL0     C59126   4.267   6.836   0.129  0.3971  0.5937 -0.3959
  429MOL0     C59127   4.125   6.782   0.165 -0.0662  0.9025  0.5941
  429MOL0     C59128   4.121   6.708   0.288  0.1647 -0.8317 -0.3870
  429MOL0     C59129   4.129   6.651   0.394  0.2872 -0.5354  0.0789
  429MOL0     C59130   4.664   7.110   0.003  0.0496 -0.1387 -0.0311
  429MOL0     C59131   4.800   7.160   0.007  0.4263  0.3775 -0.6481
  429MOL0     C59132   4.821   7.311   0.004 -0.0848 -0.5243 -0.0498
  429MOL0     H59133   5.291   6.871   0.048 -0.9370 -0.0400 -0.8059
  429MOL0     H59134   5.540   6.879   0.096  0.1102  1.0489  0.7806
  429MOL0     H59135   5.755   6.946   0.161 -1.0016 -1.1258 -0.2460
  429MOL0     H59136   5.638   7.015   0.268 -0.4078 -0.5941  0.2031
  429MOL0     H59137   5.856   7.206   0.268  0.7835 -0.2069  2.0262
  429MOL0     H59138   5.794   7.084   0.390 -0.8649 -2.5938 -0.0814
  429MOL0     H59139   5.935   6.912   0.279 -0.5186  1.1233  2.4136
  429MOL0     H59140   5.977   7.028   0.148  0.5413 -1.4980 -0.2820
  429MOL0     H59141   6.087   7.173   0.321 -2.4487 -1.1782 -2.3679
  429MOL0     H59142   6.056   7.052   0.442 -0.0473 -0.6331 -0.1580
  429MOL0     H59143   6.238   7.007   0.199 -1.3468 -1.9464 -0.3962
  429MOL0     H59144   6.190   6.887   0.319 -5.2326  1.5580  2.4236
  429MOL0     H59145   6.343   7.153   0.373 -0.4631 -0.1080  0.2642
  429MOL0     H59146   6.304   7.032   0.500 -0.4373 -2.5241 -0.4276
  429MOL0     H59147   6.455   6.870   0.406 -0.6829  0.7462  0.1354
  429MOL0     H59148   6.544   7.019   0.424 -0.0510  1.9220 -0.6452
  429MOL0     H59149   6.437   6.928   0.158  1.2135 -0.9532 -0.2748
  429MOL0     H59150   6.498   7.088   0.194 -0.7254 -0.0250 -1.4458
  429MOL0     H59151   6.757   7.068   0.331 -0.3757 -0.1474 -0.2847
  429MOL0     H59152   7.059   6.883   0.225  0.3503 -0.8919 -2.6431
  429MOL0     H59153   6.994   7.032   0.305  2.0278 -0.7645  0.6096
  429MOL0     H59154   7.072   7.015   0.016 -2.7408 -0.9707  0.5130
  429MOL0     H59155   7.053   7.166   0.118  1.9928  1.0899  1.2619
  429MOL0     H59156   7.241   7.114   0.248 -0.5913  1.9116 -0.9561
  429MOL0     H59157   7.270   6.955   0.178  0.3562 -0.1594  2.6730
  429MOL0     H59158   7.337   7.083  -0.037  1.6817  2.1637  0.0515
  429MOL0     H59159   7.285   7.224   0.039  1.3273  1.0124 -0.0845
  429MOL0     H59160   7.451   7.378   0.041  0.0672  1.0363  1.0366
  429MOL0     H59161   7.533   7.595  -0.010 -1.1220 -0.4048 -1.6864
  429MOL0     H59162   7.599   7.561  -0.172 -1.1756  0.1914  0.0045
  429MOL0     H59163   7.701   7.621  -0.039  0.0620  0.3010  1.0303
  429MOL0     H59164   7.942   7.319  -0.418 -0.5244  0.9468  0.1288
  429MOL0     H59165   8.146   7.382  -0.565 -1.3321  0.4521  0.2277
  429MOL0     H59166   8.528   7.568  -0.421 -0.8210  0.9576 -0.1839
  429MOL0     H59167   8.511   7.399  -0.388  0.9639 -0.6048 -1.1901
  429MOL0     H59168   8.537   7.344  -0.624  1.4216 -1.1777  0.5619
  429MOL0     H59169   8.542   7.531  -0.661  0.4353  2.1491  0.4817
  429MOL0     H59170   8.747   7.415  -0.472  1.0998  0.7508  0.3157
  429MOL0     H59171   8.754   7.575  -0.547  2.8075 -0.5662  2.2890
  429MOL0     H59172   8.791   7.458  -0.773 -2.1657  2.6458  0.4370
  429MOL0     H59173   8.781   7.309  -0.689 -1.9497  1.6044 -0.0663
  429MOL0     H59174   8.983   7.539  -0.654 -0.2417 -1.3167 -2.5629
  429MOL0     H59175   8.966   7.425  -0.527  1.4802  2.1322 -0.2019
  429MOL0     H59176   9.026   7.368  -0.831  2.2805  0.2809  0.3008
  429MOL0     H59177   9.020   7.238  -0.719 -1.4349  0.0189  1.4752
  429MOL0     H59178   9.229   7.351  -0.596 -2.7288 -0.3701  1.4560
  429MOL0     H59179   9.221   7.474  -0.721  2.4757 -0.0921  0.9410
  429MOL0     H59180   9.265   7.272  -0.892  1.1959 -0.5161 -0.4630
  429MOL0     H59181   9.257   7.172  -0.739 -1.6041  1.3179  0.4197
  429MOL0     H59182   8.357   7.525  -0.221  0.9853  0.7524 -3.4359
  429MOL0     H59183   8.172   7.433  -0.080  3.6047 -1.5024  0.6762
  429MOL0     H59184   7.892   7.157   0.026 -0.4512 -0.7671  1.1026
  429MOL0     H59185   7.709   7.049   0.122  1.1024  0.0421 -0.0304
  429MOL0     H59186   5.548   7.279  -0.022  0.4640 -0.4932  0.5788
  429MOL0     H59187   5.305   7.284  -0.083  2.1450  1.8720  2.5350
  429MOL0     H59188   4.950   6.851   0.045 -0.1092 -1.0265 -2.5329
  429MOL0     H59189   4.716   6.779   0.043  0.9721 -0.1916  0.3172
  429MOL0     H59190   4.394   7.086   0.028 -0.8348  0.0471 -0.3638
  429MOL0     H59191   4.406   7.023  -0.133  0.0263  1.0452 -0.0970
  429MOL0     H59192   4.251   6.839  -0.089 -1.6836  0.7155  0.1779
  429MOL0     H59193   4.180   6.973  -0.004  1.9524  2.3765  2.7825
  429MOL0     H59194   4.350   6.765   0.122  0.1274  0.4102 -2.2140
  429MOL0     H59195   4.287   6.909   0.208 -1.0072  1.2447 -0.6012
  429MOL0     H59196   4.107   6.710   0.085  0.1441  0.7797  0.6572
  429MOL0     H59197   4.049   6.859   0.146 -1.7969 -1.2001 -1.6384
  429MOL0     H59198   4.136   6.604   0.490  2.3315 -1.6729 -0.5825
  429MOL0     H59199   4.586   7.184  -0.012 -0.5488 -0.3164  1.9241
  429MOL0     H59200   4.725   7.364   0.009  0.3290  0.6220 -2.4692
  429MOL0     H59201   4.888   7.343   0.084 -1.2502  0.6871  0.4765
  429MOL0     H59202   4.867   7.351  -0.088 -0.0177  0.9448  0.5929
  430MOL0     O59203   2.125   9.462   6.424  0.3733 -0.1739 -1.0048
  430MOL0     C59204   2.136   9.347   6.464  0.1479 -0.7333  0.7748
  430MOL0     O59205   2.252   9.276   6.470  0.6588  0.9877  0.2531
  430MOL0     C59206   2.371   9.342   6.445 -0.0981  1.0280  0.5052
  430MOL0     C59207   2.445   9.414   6.544 -0.1336 -0.3724  0.9135
  430MOL0     C59208   2.563   9.483   6.509  0.4186 -0.1771  0.3368
  430MOL0     C59209   2.623   9.475   6.383 -0.9533  0.3135 -0.4833
  430MOL0     O59210   2.743   9.538   6.346 -0.0685  0.2227 -0.4570
  430MOL0     C59211   2.715   9.665   6.279 -0.3121 -0.0700  0.1692
  430MOL0     C59212   2.807   9.778   6.310  0.2418  0.0621  0.9114
  430MOL0     C59213   2.950   9.717   6.322 -0.1060  0.0815 -0.0914
  430MOL0     C59214   3.043   9.821   6.353 -0.2853 -0.1521 -0.0888
  430MOL0     C59215   3.182   9.770   6.324 -0.4350  0.6066 -0.1266
  430MOL0     C59216   3.276   9.877   6.363 -0.6767 -0.0097 -0.2132
  430MOL0     C59217   3.422   9.847   6.362  0.1370  0.0845 -0.6956
  430MOL0     C59218   3.469   9.835   6.220  0.7192  0.8222  0.3281
  430MOL0     N59219   3.612   9.803   6.214 -0.7020  0.7322  0.7369
  430MOL0     C59220   3.672   9.724   6.111  0.0395  0.1955 -0.7396
  430MOL0     C59221   3.801   9.740   6.125  0.4133 -0.3678  0.2421
  430MOL0     C59222   3.906   9.681   6.031 -0.2364 -0.1940 -0.5017
  430MOL0     C59223   3.955   9.555   6.106 -0.5231  0.6806 -0.0437
  430MOL0     C59224   3.846   9.447   6.107  0.0651 -0.0134 -0.0781
  430MOL0     C59225   3.900   9.330   6.180  0.2930 -0.1077  0.0225
  430MOL0     O59226   3.792   9.243   6.210 -0.0534 -0.6493  0.0151
  430MOL0     C59227   3.822   9.110   6.235  0.1190 -0.0029  0.4005
  430MOL0     C59228   3.950   9.058   6.243  0.8591 -0.1494 -0.5824
  430MOL0     C59229   3.981   8.917   6.239 -0.1448  1.3293 -0.4626
  430MOL0     C59230   4.128   8.875   6.239  0.2324 -0.1548 -0.3942
  430MOL0     C59231   3.873   8.832   6.222 -0.2864  0.0683 -0.8820
  430MOL0     C59232   3.890   8.685   6.232 -0.7430  0.4767 -0.2367
  430MOL0     O59233   3.828   8.614   6.143  0.0192 -0.0461 -0.7101
  430MOL0     C59234   3.843   8.474   6.160  0.3333 -0.4948 -0.1647
  430MOL0     C59235   3.920   8.410   6.066 -0.3307  0.7603 -0.2599
  430MOL0     C59236   3.918   8.266   6.074 -0.0566  0.8599 -0.0564
  430MOL0     C59237   3.852   8.193   6.179 -0.2914 -0.2893 -0.4365
  430MOL0     O59238   3.882   8.059   6.206  0.3590  0.1934  0.1651
  430MOL0     C59239   3.958   8.028   6.332  0.4307  0.1135  0.6633
  430MOL0     C59240   3.896   7.894   6.400 -0.2941 -0.9110 -0.5335
  430MOL0     C59241   3.947   7.766   6.335 -0.5826  0.5175  0.2274
  430MOL0     C59242   3.855   7.711   6.230  1.0480 -0.5114  0.2839
  430MOL0     C59243   3.916   7.580   6.163 -0.0856 -0.5352 -0.1210
  430MOL0     C59244   3.821   7.525   6.063 -0.6107  0.9789 -0.1030
  430MOL0     C59245   3.861   7.386   6.005  0.1151  1.3463 -0.3067
  430MOL0     C59246   3.769   7.344   5.894  0.7632 -0.6107 -0.6595
  430MOL0    Cl59247   3.836   7.200   5.820 -0.3745 -0.0959 -0.3579
  430MOL0     C59248   3.777   8.269   6.267 -0.2317  0.7379 -0.1963
  430MOL0     C59249   3.775   8.410   6.265 -0.7138 -0.2572  0.6224
  430MOL0     O59250   3.954   8.649   6.329  0.3889  0.0270 -0.4415
  430MOL0     C59251   3.747   8.889   6.195 -0.1047 -0.0722 -1.2359
  430MOL0     C59252   3.719   9.017   6.204  0.4602 -0.5844 -0.3164
  430MOL0     N59253   3.829   9.818   6.235  0.6163  0.9945 -0.7904
  430MOL0     N59254   3.716   9.854   6.287 -0.2917 -0.8109  0.4198
  430MOL0     C59255   2.556   9.394   6.288  0.0915 -0.2752 -1.0076
  430MOL0     C59256   2.427   9.342   6.315 -0.8079  0.2483  0.6568
  430MOL0     C59257   2.020   9.275   6.508  0.5360  0.0506  0.2013
  430MOL0     C59258   1.921   9.335   6.595 -0.3140  0.0021  0.4836
  430MOL0     C59259   1.807   9.270   6.640 -0.0049  0.1955  0.3870
  430MOL0     C59260   1.779   9.145   6.594  0.2525  0.1291 -0.9636
  430MOL0     O59261   1.673   9.076   6.652  0.0343 -0.1724  0.7680
  430MOL0     C59262   1.551   9.139   6.704  0.0176  0.3606  0.5546
  430MOL0     C59263   1.458   9.032   6.746 -0.2252  0.3930 -0.1411
  430MOL0     C59264   1.317   9.083   6.766  0.3168 -0.3523  0.1763
  430MOL0     C59265   1.226   8.979   6.796 -0.6904  0.7852  0.4697
  430MOL0     C59266   1.197   8.881   6.687  0.5352 -0.2024  0.0452
  430MOL0     C59267   1.174   8.807   6.602 -0.3262  0.0768 -0.5959
  430MOL0     C59268   1.867   9.079   6.501  0.4778 -0.2508  0.4146
  430MOL0     C59269   1.982   9.146   6.466 -0.6178  0.7117  0.1251
  430MOL0     C59270   2.058   9.072   6.355 -0.0564  0.0467  0.6628
  430MOL0     H59271   2.415   9.414   6.648 -1.8416 -1.6153  0.4798
  430MOL0     H59272   2.624   9.538   6.580  0.1713  1.0629 -0.3761
  430MOL0     H59273   2.617   9.706   6.306  0.4054  0.9154  1.3181
  430MOL0     H59274   2.715   9.653   6.170  0.2627  1.4091 -0.0160
  430MOL0     H59275   2.795   9.852   6.230 -4.2222 -3.9139 -2.7062
  430MOL0     H59276   2.788   9.838   6.399  3.0392  3.1459 -0.3463
  430MOL0     H59277   2.961   9.637   6.396  1.1715  2.0548  2.0011
  430MOL0     H59278   2.972   9.675   6.224 -2.5139  0.8768 -1.0510
  430MOL0     H59279   3.021   9.908   6.291 -1.0853 -2.0117 -2.5620
  430MOL0     H59280   3.023   9.843   6.458 -2.8571  1.1452 -0.7814
  430MOL0     H59281   3.183   9.735   6.220  3.3307 -1.5195  0.4106
  430MOL0     H59282   3.191   9.681   6.387  0.1009  0.4201 -0.4564
  430MOL0     H59283   3.253   9.966   6.305 -0.4044  0.8177  0.9210
  430MOL0     H59284   3.265   9.903   6.468  0.2056  2.6575 -0.7175
  430MOL0     H59285   3.439   9.763   6.430 -2.5120  2.8452  3.9011
  430MOL0     H59286   3.479   9.928   6.409 -1.6728  0.4593  0.9803
  430MOL0     H59287   3.400   9.764   6.173 -0.4047  1.5566  0.8131
  430MOL0     H59288   3.452   9.927   6.164  0.0645  0.6957  0.2976
  430MOL0     H59289   3.627   9.653   6.043  1.6980  0.8701 -2.6011
  430MOL0     H59290   3.992   9.748   6.019  1.0838 -1.9682 -1.4327
  430MOL0     H59291   3.864   9.646   5.936 -3.0301 -0.4547  0.7277
  430MOL0     H59292   4.045   9.515   6.059 -0.6971 -1.3494  1.2290
  430MOL0     H59293   3.976   9.586   6.209 -2.4434 -0.2459  0.6868
  430MOL0     H59294   3.760   9.482   6.164 -0.0430 -0.2201 -0.1116
  430MOL0     H59295   3.823   9.406   6.008 -0.3146 -1.8865  0.7251
  430MOL0     H59296   3.980   9.276   6.128  1.6503  0.2007  1.6956
  430MOL0     H59297   3.939   9.370   6.274 -0.7458  2.8515 -0.6861
  430MOL0     H59298   4.037   9.122   6.251  0.1355  0.8540 -0.4702
  430MOL0     H59299   4.145   8.787   6.175 -2.6019 -2.4276  1.6635
  430MOL0     H59300   4.162   8.868   6.342 -0.8097  1.0419  0.0436
  430MOL0     H59301   4.179   8.959   6.192 -0.9779  0.3210 -0.9016
  430MOL0     H59302   3.968   8.474   5.993 -0.0067  0.4984 -0.2762
  430MOL0     H59303   3.968   8.207   5.997 -3.7959 -5.0581  1.4405
  430MOL0     H59304   4.061   8.011   6.298 -0.3641 -1.0948 -1.3622
  430MOL0     H59305   3.957   8.114   6.399 -1.7469 -0.3678  1.3291
  430MOL0     H59306   3.924   7.901   6.506 -1.3510  2.6175 -0.3741
  430MOL0     H59307   3.787   7.894   6.409 -0.2298 -0.5180  0.4476
  430MOL0     H59308   3.960   7.692   6.414 -0.3720 -0.1480 -0.4270
  430MOL0     H59309   4.051   7.775   6.303 -0.2084  0.4862  1.3797
  430MOL0     H59310   3.837   7.790   6.156  2.7064 -0.4972 -0.1467
  430MOL0     H59311   3.760   7.701   6.283  1.8160 -1.6108  1.4934
  430MOL0     H59312   4.004   7.607   6.103 -0.6944  0.0825 -0.7468
  430MOL0     H59313   3.944   7.504   6.236 -0.1428 -0.8497 -0.4293
  430MOL0     H59314   3.821   7.584   5.970 -0.0368  1.1545  0.0093
  430MOL0     H59315   3.722   7.516   6.110  0.4229 -2.0071  1.7782
  430MOL0     H59316   3.850   7.319   6.090 -2.9003  3.6234  1.3246
  430MOL0     H59317   3.959   7.385   5.956 -1.2688 -1.5466 -3.4472
  430MOL0     H59318   3.761   7.422   5.817  0.6498 -0.5755 -0.6133
  430MOL0     H59319   3.669   7.317   5.931  0.9493 -1.5463 -0.8142
  430MOL0     H59320   3.730   8.217   6.350  1.5645 -3.5126 -1.5579
  430MOL0     H59321   3.714   8.454   6.343  0.2202 -1.2698  1.9926
  430MOL0     H59322   3.665   8.823   6.166 -0.5678 -0.2689  0.4440
  430MOL0     H59323   3.619   9.054   6.184  0.0314 -2.2204 -1.4191
  430MOL0     H59324   2.601   9.387   6.190  2.3125  0.1290 -0.0818
  430MOL0     H59325   2.376   9.298   6.231  3.2036 -2.1119 -0.8379
  430MOL0     H59326   1.917   9.438   6.626 -0.2722  0.5078 -1.0811
  430MOL0     H59327   1.736   9.321   6.705 -2.3336 -2.6371  0.2970
  430MOL0     H59328   1.585   9.202   6.788 -1.6454  0.0794  1.4726
  430MOL0     H59329   1.503   9.196   6.624 -3.3150 -0.9684  1.4753
  430MOL0     H59330   1.492   8.992   6.842  3.9930  2.2199 -0.6898
  430MOL0     H59331   1.452   8.950   6.674 -0.7885  0.4860 -0.2059
  430MOL0     H59332   1.320   9.152   6.851 -0.9005 -1.6911  1.3559
  430MOL0     H59333   1.274   9.133   6.679 -2.2860 -1.4388  0.7535
  430MOL0     H59334   1.128   9.018   6.823 -0.5897  0.2636  1.6281
  430MOL0     H59335   1.261   8.925   6.885 -1.6669  0.3468  0.6018
  430MOL0     H59336   1.151   8.724   6.538 -0.0844 -1.3106  1.0353
  430MOL0     H59337   1.840   8.985   6.456  1.2847  0.3479 -1.4284
  430MOL0     H59338   2.066   9.142   6.271  0.8691 -2.2183 -1.2441
  430MOL0     H59339   2.158   9.045   6.390 -0.2998 -0.7082  0.7891
  430MOL0     H59340   2.012   8.985   6.307 -1.1701 -0.0838  1.9176
  431MOL0     O59341   3.319   0.704   1.945 -0.3858  0.1938  0.3400
  431MOL0     C59342   3.276   0.593   1.969  0.3822 -0.1314 -0.3457
  431MOL0     O59343   3.347   0.489   2.019  0.5537  0.2214  0.3858
  431MOL0     C59344   3.477   0.506   2.029 -0.1959 -0.8525  0.7662
  431MOL0     C59345   3.531   0.545   2.156 -0.1783 -0.1357 -0.3952
  431MOL0     C59346   3.668   0.552   2.180  0.1205 -0.5477 -0.3387
  431MOL0     C59347   3.758   0.514   2.075 -0.3457 -0.1442  0.4630
  431MOL0     O59348   3.896   0.525   2.070 -0.3414 -0.3831 -0.6200
  431MOL0     C59349   3.941   0.632   2.157  0.2688  0.3149 -0.0921
  431MOL0     C59350   4.076   0.670   2.100 -0.2872  0.0118  0.3073
  431MOL0     C59351   4.184   0.562   2.126 -0.4033 -0.9046 -0.6803
  431MOL0     C59352   4.326   0.613   2.119  0.1841  0.5692 -0.3400
  431MOL0     C59353   4.416   0.489   2.129  0.6706 -0.0385  0.5647
  431MOL0     C59354   4.566   0.529   2.132  0.9013 -0.4327 -0.1676
  431MOL0     C59355   4.650   0.406   2.140  0.6735 -0.5465 -0.0732
  431MOL0     C59356   4.798   0.441   2.148  0.1753 -0.6333 -0.7159
  431MOL0     N59357   4.863   0.320   2.188 -0.1036  1.3697  0.0610
  431MOL0     C59358   4.878   0.281   2.314 -0.6403 -0.1547 -0.2958
  431MOL0     C59359   4.927   0.156   2.304  0.2493  0.2449  0.1164
  431MOL0     C59360   4.962   0.065   2.416  0.7407  0.0668 -0.3098
  431MOL0     C59361   5.111   0.039   2.412 -0.9848 -0.0302  0.3376
  431MOL0     C59362   5.196   0.156   2.461  0.5190  0.8853  0.2801
  431MOL0     C59363   5.342   0.128   2.420  0.2772  0.3478 -1.4822
  431MOL0     O59364   5.351   0.155   2.277  0.2582  0.4619  0.1238
  431MOL0     C59365   5.476   0.191   2.235  0.0103  0.1589 -0.1187
  431MOL0     C59366   5.473   0.276   2.121  0.1436  0.1701 -0.1059
  431MOL0     C59367   5.588   0.337   2.077  0.0611  0.4722  0.4102
  431MOL0     C59368   5.563   0.449   1.976 -0.2171  0.0088 -1.0325
  431MOL0     C59369   5.718   0.290   2.129  0.7790 -0.1299  0.7914
  431MOL0     C59370   5.850   0.354   2.093 -0.0565  0.7612 -0.5359
  431MOL0     O59371   5.964   0.336   2.177  0.2292 -0.3777 -0.2061
  431MOL0     C59372   6.090   0.361   2.139 -0.4197  0.0022 -0.0173
  431MOL0     C59373   6.191   0.361   2.242 -0.6145  0.2885 -0.2349
  431MOL0     C59374   6.325   0.382   2.214 -0.4665  0.0087  0.1728
  431MOL0     C59375   6.367   0.403   2.084 -0.4075 -0.3166  0.1977
  431MOL0     O59376   6.498   0.432   2.056 -0.1797 -0.0959 -0.0950
  431MOL0     C59377   6.537   0.472   1.926 -1.1274 -0.1129  0.5870
  431MOL0     C59378   6.682   0.504   1.928 -0.4147  0.1862 -1.4850
  431MOL0     C59379   6.744   0.583   1.816 -0.6880 -1.2767  0.3306
  431MOL0     C59380   6.893   0.599   1.824  0.0185 -0.5658 -0.1605
  431MOL0     C59381   6.941   0.717   1.735  0.0086  0.0722  0.1997
  431MOL0     C59382   7.085   0.755   1.768  0.3068  0.3611 -0.1244
  431MOL0     C59383   7.142   0.836   1.657 -0.2410 -0.1506 -0.2945
  431MOL0     C59384   7.293   0.875   1.677 -0.3794  0.0696  0.9197
  431MOL0    Cl59385   7.315   0.931   1.852 -0.2276  0.3816  0.2352
  431MOL0     C59386   6.273   0.408   1.986  0.0661 -0.1661 -0.4265
  431MOL0     C59387   6.138   0.387   2.014  0.3703  0.0519  0.5520
  431MOL0     O59388   5.850   0.412   1.986  0.0368 -0.2535  0.2129
  431MOL0     C59389   5.715   0.183   2.218 -0.7921 -0.2879 -0.2903
  431MOL0     C59390   5.599   0.139   2.287  0.2936  0.7159 -0.5126
  431MOL0     N59391   4.937   0.125   2.172  0.5556 -0.0165 -0.6418
  431MOL0     N59392   4.906   0.219   2.097 -0.4761 -0.7993  0.0981
  431MOL0     C59393   3.705   0.488   1.950  0.2184  0.3764  0.2560
  431MOL0     C59394   3.569   0.487   1.927  1.1443  0.7126 -0.4486
  431MOL0     C59395   3.129   0.590   1.963  0.2280  0.2783 -0.6782
  431MOL0     C59396   3.057   0.540   2.076  0.8000 -0.7724  0.7420
  431MOL0     C59397   2.920   0.527   2.081  0.0815 -0.8859 -0.1597
  431MOL0     C59398   2.837   0.552   1.966  0.4171  0.5134 -0.0722
  431MOL0     O59399   2.698   0.534   1.947 -0.1182  0.9217 -0.6724
  431MOL0     C59400   2.617   0.479   2.052 -0.2326  0.5710 -0.4947
  431MOL0     C59401   2.549   0.576   2.153  1.1285  0.0253 -0.3795
  431MOL0     C59402   2.471   0.486   2.263 -0.1519  0.4335 -0.1728
  431MOL0     C59403   2.414   0.574   2.378 -0.0427  0.3579  0.5105
  431MOL0     C59404   2.307   0.508   2.455  1.0869 -0.9690  0.0717
  431MOL0     C59405   2.223   0.458   2.522 -0.0629 -0.3542 -0.0357
  431MOL0     C59406   2.900   0.596   1.855 -0.6383  0.0289 -0.1171
  431MOL0     C59407   3.043   0.624   1.848  0.0081 -0.2501  0.8258
  431MOL0     C59408   3.104   0.661   1.713 -0.4750 -0.7528  0.5541
  431MOL0     H59409   3.469   0.531   2.244 -0.9950 -0.3647 -0.9941
  431MOL0     H59410   3.700   0.583   2.279  0.9772  0.6878 -0.9665
  431MOL0     H59411   3.953   0.593   2.259  0.8450  0.7275  0.0009
  431MOL0     H59412   3.877   0.720   2.155  0.9624  0.8345  0.1544
  431MOL0     H59413   4.070   0.678   1.991  0.2594 -0.4768  0.2310
  431MOL0     H59414   4.099   0.769   2.138 -2.4625  0.5779  0.2719
  431MOL0     H59415   4.169   0.521   2.227 -1.2186  0.7787 -0.0697
  431MOL0     H59416   4.166   0.487   2.049 -1.8627 -2.1880  0.8056
  431MOL0     H59417   4.338   0.680   2.033 -0.8532 -1.2382 -1.9669
  431MOL0     H59418   4.338   0.668   2.213  2.2563 -1.1552  0.4799
  431MOL0     H59419   4.403   0.415   2.050  2.7762 -1.9466  1.8847
  431MOL0     H59420   4.388   0.442   2.224  0.3274  2.0247  1.5483
  431MOL0     H59421   4.589   0.577   2.037 -3.4874  1.0708 -0.7023
  431MOL0     H59422   4.591   0.588   2.220 -2.9912  1.0531  0.1232
  431MOL0     H59423   4.638   0.358   2.042  0.3346 -1.9606  0.6396
  431MOL0     H59424   4.617   0.335   2.216  1.2752 -2.0162 -1.1235
  431MOL0     H59425   4.840   0.478   2.054  1.4724  1.9943  0.7668
  431MOL0     H59426   4.811   0.521   2.222  0.1834 -0.6941 -0.6526
  431MOL0     H59427   4.841   0.346   2.393 -2.4639  0.6349 -1.7569
  431MOL0     H59428   4.921  -0.036   2.409  0.0241  0.0685  2.5868
  431MOL0     H59429   4.936   0.099   2.517 -0.3502 -0.7490 -0.2980
  431MOL0     H59430   5.124  -0.050   2.474 -0.5579  0.3426  0.7928
  431MOL0     H59431   5.139   0.015   2.309  1.2084  3.4070 -0.0611
  431MOL0     H59432   5.168   0.258   2.434  1.4207  0.4895 -2.5125
  431MOL0     H59433   5.198   0.164   2.570 -1.1678  1.7390  0.2677
  431MOL0     H59434   5.401   0.194   2.485 -1.6880 -0.8921  1.8346
  431MOL0     H59435   5.366   0.024   2.443 -2.3282  0.3686  2.1326
  431MOL0     H59436   5.380   0.297   2.070  0.9249 -1.1113 -2.1950
  431MOL0     H59437   5.613   0.538   2.015  0.2082 -1.1793  1.2640
  431MOL0     H59438   5.455   0.470   1.974 -0.1000  1.3432  1.7944
  431MOL0     H59439   5.597   0.421   1.876  1.0893  0.3892 -0.7079
  431MOL0     H59440   6.162   0.352   2.346 -2.0385 -1.0311 -0.6943
  431MOL0     H59441   6.393   0.391   2.299 -1.7760  1.9741  1.0948
  431MOL0     H59442   6.527   0.393   1.851 -1.5573 -1.9317  2.4717
  431MOL0     H59443   6.477   0.557   1.893  0.0585  0.5128 -0.0569
  431MOL0     H59444   6.697   0.559   2.021 -0.3053  0.0204 -1.4050
  431MOL0     H59445   6.731   0.408   1.943 -1.2687 -0.0292  0.1198
  431MOL0     H59446   6.712   0.687   1.825  3.1369  0.1534 -0.6607
  431MOL0     H59447   6.713   0.545   1.718 -0.1495 -1.8101  0.3655
  431MOL0     H59448   6.945   0.510   1.787  1.4453  0.2078 -0.0895
  431MOL0     H59449   6.923   0.605   1.929 -4.2605 -1.0315  1.2923
  431MOL0     H59450   6.923   0.705   1.627  0.5403  0.2140  0.0919
  431MOL0     H59451   6.873   0.801   1.750 -0.0687  0.3530 -1.5236
  431MOL0     H59452   7.139   0.661   1.776  1.8980  1.0538 -2.1064
  431MOL0     H59453   7.082   0.819   1.857 -2.5514 -0.1887  0.2994
  431MOL0     H59454   7.078   0.924   1.642 -0.7689 -0.3267  0.7888
  431MOL0     H59455   7.141   0.782   1.561  1.3535  0.5525 -0.7277
  431MOL0     H59456   7.320   0.955   1.607  0.1947  0.4308  1.5509
  431MOL0     H59457   7.356   0.787   1.658 -0.0461  0.4844  0.0325
  431MOL0     H59458   6.313   0.416   1.885  2.3291 -0.2978  0.3896
  431MOL0     H59459   6.070   0.389   1.930  1.0214  1.3258  0.0282
  431MOL0     H59460   5.803   0.136   2.261 -0.5001 -1.4167 -2.0135
  431MOL0     H59461   5.613   0.084   2.380  1.8378  2.0974  0.1063
  431MOL0     H59462   3.778   0.466   1.873  0.0001  0.3156  0.0645
  431MOL0     H59463   3.539   0.458   1.827  1.8329  1.7904 -0.9811
  431MOL0     H59464   3.107   0.500   2.164  0.7784 -2.2499  0.1051
  431MOL0     H59465   2.874   0.508   2.178  1.2269 -2.5290  0.1033
  431MOL0     H59466   2.540   0.426   1.994  1.4691 -1.5358 -0.9663
  431MOL0     H59467   2.672   0.406   2.112  1.6008  1.5816 -0.9052
  431MOL0     H59468   2.478   0.641   2.103  1.1862  0.2850 -0.1259
  431MOL0     H59469   2.620   0.636   2.211  0.4271 -1.1158  1.7864
  431MOL0     H59470   2.388   0.437   2.212 -0.1694 -1.4197  1.5005
  431MOL0     H59471   2.531   0.403   2.302 -0.2259 -0.4095 -1.7744
  431MOL0     H59472   2.370   0.666   2.338 -1.8609  0.0835  1.7255
  431MOL0     H59473   2.490   0.609   2.448 -0.3848  0.4484  0.8448
  431MOL0     H59474   2.144   0.408   2.574  0.4086 -2.0338 -0.8671
  431MOL0     H59475   2.849   0.604   1.760  0.9691  0.8714 -0.9282
  431MOL0     H59476   3.160   0.582   1.663 -1.0822 -1.9617  1.6950
  431MOL0     H59477   3.024   0.693   1.646 -0.6239  2.3460  2.0147
  431MOL0     H59478   3.164   0.752   1.728 -0.5367 -1.0018  2.7677
  432MOL0     O59479   6.808   0.453   2.817 -0.1056 -0.1985  0.2799
  432MOL0     C59480   6.773   0.537   2.902 -0.2466  0.5090  0.4277
  432MOL0     O59481   6.819   0.662   2.922  0.1058  0.0016  0.1141
  432MOL0     C59482   6.916   0.732   2.851 -0.8899 -0.3899  0.2162
  432MOL0     C59483   6.941   0.713   2.713 -1.9513  0.6121 -0.3168
  432MOL0     C59484   7.041   0.778   2.651 -0.8196  0.4566  0.8734
  432MOL0     C59485   7.118   0.867   2.712  0.6466  0.3536 -0.8057
  432MOL0     O59486   7.217   0.932   2.658  0.2086  0.0699  0.5835
  432MOL0     C59487   7.337   0.851   2.682  0.8572  0.5886  0.4136
  432MOL0     C59488   7.458   0.937   2.647 -0.3195 -0.2611  0.6489
  432MOL0     C59489   7.583   0.861   2.602  0.0099  0.3303 -0.4159
  432MOL0     C59490   7.637   0.766   2.713 -0.6665  0.4254  0.2742
  432MOL0     C59491   7.777   0.734   2.676  0.9245 -0.2675  0.3887
  432MOL0     C59492   7.858   0.655   2.770  0.5796 -0.4540  0.7265
  432MOL0     C59493   8.008   0.663   2.726  0.3426  0.2305  0.6178
  432MOL0     C59494   8.106   0.606   2.827 -0.0393 -0.8136 -0.3218
  432MOL0     N59495   8.230   0.553   2.768  0.1176  0.1814  0.2792
  432MOL0     C59496   8.235   0.429   2.713 -0.5242 -0.1000 -0.2124
  432MOL0     C59497   8.352   0.432   2.650  0.5785 -1.2730 -0.2856
  432MOL0     C59498   8.408   0.321   2.569 -0.4099 -0.1382 -0.4910
  432MOL0     C59499   8.314   0.269   2.454  0.0385  0.5176 -0.5671
  432MOL0     C59500   8.397   0.192   2.357  0.2300  0.2369 -0.0928
  432MOL0     C59501   8.448   0.051   2.403 -0.1168 -0.0843 -0.2559
  432MOL0     O59502   8.349  -0.038   2.449 -0.5162 -0.6051 -0.4536
  432MOL0     C59503   8.376  -0.170   2.433 -0.2921  0.5325 -0.3116
  432MOL0     C59504   8.266  -0.254   2.449  0.2834  0.0965  0.3148
  432MOL0     C59505   8.283  -0.397   2.437  0.5123  0.2616 -0.3113
  432MOL0     C59506   8.159  -0.485   2.446 -0.0309 -0.8138 -0.2633
  432MOL0     C59507   8.415  -0.452   2.414  0.9852 -0.7431  0.1030
  432MOL0     C59508   8.444  -0.588   2.373  0.5105 -0.0940  0.1274
  432MOL0     O59509   8.571  -0.628   2.353  0.0010 -0.2953 -0.1583
  432MOL0     C59510   8.586  -0.750   2.306  1.0468  0.4643 -0.6549
  432MOL0     C59511   8.547  -0.787   2.179  0.8022  0.9111 -1.1230
  432MOL0     C59512   8.566  -0.919   2.127 -0.4289  0.1057  0.5854
  432MOL0     C59513   8.646  -1.007   2.207  0.4715  0.4232  0.4133
  432MOL0     O59514   8.652  -1.140   2.156  0.3443  0.4400 -0.4262
  432MOL0     C59515   8.714  -1.242   2.238  0.7588 -0.7110  0.0286
  432MOL0     C59516   8.651  -1.372   2.197  0.3032 -0.4153 -0.1149
  432MOL0     C59517   8.730  -1.500   2.243  0.3138 -0.5410 -0.0101
  432MOL0     C59518   8.624  -1.610   2.262  0.3282 -0.7215 -0.3627
  432MOL0     C59519   8.553  -1.597   2.400 -0.3488  0.3522  0.4739
  432MOL0     C59520   8.436  -1.698   2.404  0.2594 -1.4131 -0.0560
  432MOL0     C59521   8.362  -1.691   2.533  0.8371 -0.2503  0.4535
  432MOL0     C59522   8.265  -1.567   2.523  0.4935 -0.1881 -0.1634
  432MOL0    Cl59523   8.147  -1.573   2.664 -0.1190  0.0238  0.2202
  432MOL0     C59524   8.709  -0.966   2.329 -0.0920 -0.7191  0.2916
  432MOL0     C59525   8.682  -0.833   2.371 -0.1334 -0.7275 -0.4116
  432MOL0     O59526   8.345  -0.657   2.344  0.0462 -0.0579 -0.3542
  432MOL0     C59527   8.525  -0.364   2.422 -0.3836 -0.3780 -1.0455
  432MOL0     C59528   8.504  -0.222   2.418 -0.2481  0.3229 -0.2572
  432MOL0     N59529   8.418   0.550   2.683 -0.1416  0.5560  0.1670
  432MOL0     N59530   8.338   0.627   2.745 -1.2462 -0.5503 -0.5378
  432MOL0     C59531   7.081   0.909   2.848  0.6079  0.2348  0.3458
  432MOL0     C59532   6.970   0.847   2.906  0.2106  0.4299 -0.8878
  432MOL0     C59533   6.652   0.501   2.981 -0.4826 -0.0529 -0.4207
  432MOL0     C59534   6.541   0.446   2.917  0.3985  0.3579 -0.1794
  432MOL0     C59535   6.419   0.424   2.980  0.1071 -0.4386  0.3590
  432MOL0     C59536   6.404   0.462   3.116 -0.6488 -0.2046  0.2744
  432MOL0     O59537   6.286   0.461   3.191  0.5748  0.0954  0.2637
  432MOL0     C59538   6.173   0.382   3.146  1.0378 -0.3443  0.5112
  432MOL0     C59539   6.195   0.236   3.183 -0.2484  0.3792 -0.3242
  432MOL0     C59540   6.197   0.204   3.330 -0.2741 -0.0173 -0.9732
  432MOL0     C59541   6.284   0.088   3.359 -0.2996  0.6248  0.1683
  432MOL0     C59542   6.299   0.059   3.503  0.1060 -0.0699  0.0451
  432MOL0     C59543   6.319   0.044   3.624  0.1841 -0.6655  0.3305
  432MOL0     C59544   6.519   0.507   3.182  0.0848 -0.4638 -0.4249
  432MOL0     C59545   6.647   0.518   3.118 -0.4764  0.4005  0.2896
  432MOL0     C59546   6.757   0.576   3.206 -0.3793  1.2393  0.7925
  432MOL0     H59547   6.895   0.637   2.651  2.3028 -1.5786 -1.1934
  432MOL0     H59548   7.073   0.750   2.551  0.2184  3.6589  0.1922
  432MOL0     H59549   7.346   0.773   2.606 -1.4438 -0.6309  1.2855
  432MOL0     H59550   7.346   0.806   2.782 -0.9571 -1.1322 -0.1383
  432MOL0     H59551   7.424   1.010   2.572  0.2517 -0.1720  0.4763
  432MOL0     H59552   7.488   0.993   2.736  1.2183  1.7260 -0.9952
  432MOL0     H59553   7.567   0.788   2.522 -1.0309  0.5214 -0.3973
  432MOL0     H59554   7.657   0.938   2.580  0.3077  1.0675  2.7154
  432MOL0     H59555   7.650   0.805   2.815  2.9204 -3.0655  1.4206
  432MOL0     H59556   7.573   0.679   2.729 -1.3667  0.7905 -0.5081
  432MOL0     H59557   7.823   0.832   2.665  1.3531 -0.6725 -2.0049
  432MOL0     H59558   7.785   0.686   2.578  2.9795 -0.2373  0.4980
  432MOL0     H59559   7.844   0.685   2.874  1.5030 -1.0616  1.0417
  432MOL0     H59560   7.828   0.550   2.769 -0.2979 -0.2159  1.0792
  432MOL0     H59561   8.040   0.763   2.694 -0.3066  1.0438  2.3661
  432MOL0     H59562   8.016   0.602   2.636 -0.7818 -0.5182  0.9911
  432MOL0     H59563   8.130   0.682   2.902  2.0538 -2.2174  0.5418
  432MOL0     H59564   8.057   0.524   2.882 -0.9495  1.0815  1.8463
  432MOL0     H59565   8.168   0.344   2.701  1.1210 -1.3997 -0.6678
  432MOL0     H59566   8.423   0.237   2.636 -2.7325 -0.8399 -0.7389
  432MOL0     H59567   8.502   0.348   2.520 -0.2349 -2.2238 -1.3733
  432MOL0     H59568   8.230   0.211   2.493 -0.9725  2.7317  0.7340
  432MOL0     H59569   8.265   0.345   2.393 -0.4014  0.7550  0.0722
  432MOL0     H59570   8.332   0.174   2.271 -0.2947 -1.6538  0.6520
  432MOL0     H59571   8.475   0.259   2.319 -0.8589  1.7856  0.2817
  432MOL0     H59572   8.496   0.017   2.311 -1.5641 -1.8129 -0.4304
  432MOL0     H59573   8.526   0.060   2.479  0.3790 -3.6022 -0.1870
  432MOL0     H59574   8.169  -0.213   2.473 -1.0602 -2.1986 -0.9078
  432MOL0     H59575   8.182  -0.572   2.508  3.0061 -1.0574 -1.5156
  432MOL0     H59576   8.130  -0.523   2.347  2.6476 -0.7933 -1.1656
  432MOL0     H59577   8.079  -0.424   2.488  0.9780  1.2782 -1.1855
  432MOL0     H59578   8.484  -0.722   2.119 -0.4691 -0.8081 -1.7409
  432MOL0     H59579   8.507  -0.946   2.040  0.4198  1.4726 -0.4665
  432MOL0     H59580   8.823  -1.248   2.225  0.3642 -3.3221 -3.4866
  432MOL0     H59581   8.697  -1.231   2.345 -0.3586 -0.9024 -0.1221
  432MOL0     H59582   8.551  -1.381   2.239  1.0540 -0.6810  1.6723
  432MOL0     H59583   8.643  -1.377   2.088  0.0492 -0.3100 -0.1032
  432MOL0     H59584   8.777  -1.481   2.340  0.1301  0.2000 -0.0643
  432MOL0     H59585   8.803  -1.532   2.169  0.6552 -2.3793  1.0390
  432MOL0     H59586   8.683  -1.703   2.259 -0.1999 -1.1427  1.5304
  432MOL0     H59587   8.550  -1.614   2.182 -0.3804  1.2649  0.1542
  432MOL0     H59588   8.623  -1.623   2.480 -1.4271 -2.0028  0.7364
  432MOL0     H59589   8.530  -1.491   2.417  2.8344  0.8212  2.7463
  432MOL0     H59590   8.472  -1.801   2.395  1.4452 -1.0147 -0.0847
  432MOL0     H59591   8.377  -1.677   2.314 -0.6467  0.3283  0.9028
  432MOL0     H59592   8.436  -1.675   2.612  0.9736 -2.4928  0.8400
  432MOL0     H59593   8.307  -1.784   2.552  0.1198  0.2681  0.9679
  432MOL0     H59594   8.207  -1.561   2.431  1.5047  0.4769 -0.7682
  432MOL0     H59595   8.315  -1.470   2.531  1.3675 -0.5619 -0.9645
  432MOL0     H59596   8.782  -1.030   2.375 -0.6780 -0.1948  2.0342
  432MOL0     H59597   8.730  -0.797   2.461  0.8806  0.2534 -1.3231
  432MOL0     H59598   8.632  -0.386   2.422 -0.8279 -2.8140  0.0671
  432MOL0     H59599   8.597  -0.167   2.411 -0.0991 -0.1020 -2.3668
  432MOL0     H59600   7.124   0.995   2.898  2.3071  0.0181 -0.6584
  432MOL0     H59601   6.936   0.884   3.002  0.4800 -1.4924 -0.0028
  432MOL0     H59602   6.558   0.407   2.817  0.4166 -1.6252  0.5622
  432MOL0     H59603   6.345   0.373   2.919  2.1639 -3.9910  0.6164
  432MOL0     H59604   6.081   0.413   3.195  0.4758  1.6835 -1.6278
  432MOL0     H59605   6.160   0.405   3.040 -0.7475 -0.5612  0.6509
  432MOL0     H59606   6.290   0.204   3.139  0.9180  1.0974  1.5642
  432MOL0     H59607   6.113   0.181   3.135 -0.0640 -1.6788  1.5738
  432MOL0     H59608   6.228   0.294   3.385  0.7007 -0.5978 -0.5454
  432MOL0     H59609   6.095   0.171   3.348  0.2781 -1.7182 -0.8274
  432MOL0     H59610   6.385   0.102   3.319 -1.4777  2.2888 -2.5792
  432MOL0     H59611   6.247  -0.001   3.306 -2.0174  0.9140  0.8091
  432MOL0     H59612   6.339   0.048   3.729 -4.1214  1.7357  1.3039
  432MOL0     H59613   6.502   0.528   3.287 -0.8225  0.6538 -0.7790
  432MOL0     H59614   6.737   0.567   3.313 -0.7425  0.6691  0.6816
  432MOL0     H59615   6.853   0.529   3.184  0.1701  1.9081  1.7013
  432MOL0     H59616   6.769   0.682   3.183  0.1111  1.2949  1.2897
  433MOL0     O59617   8.115   4.453  10.680  0.1136 -0.4823 -0.4331
  433MOL0     C59618   8.039   4.505  10.758  0.0279  0.3107 -0.0898
  433MOL0     O59619   8.051   4.496  10.901  0.1043  0.1754 -0.3795
  433MOL0     C59620   8.129   4.406  10.963  0.0319  0.4324  0.7091
  433MOL0     C59621   8.143   4.275  10.922 -0.2550 -0.9419 -0.3259
  433MOL0     C59622   8.221   4.180  10.991 -0.6169 -0.0333 -0.0513
  433MOL0     C59623   8.286   4.212  11.109 -1.0959  0.0180  0.8530
  433MOL0     O59624   8.376   4.125  11.168 -0.5557  0.9488  0.0070
  433MOL0     C59625   8.487   4.179  11.245  0.5735 -0.2109 -0.0517
  433MOL0     C59626   8.591   4.070  11.269  0.1849  0.0771 -0.3903
  433MOL0     C59627   8.647   4.012  11.138 -0.4979 -0.1086  1.2018
  433MOL0     C59628   8.738   3.889  11.175 -0.3851 -0.8623  0.6864
  433MOL0     C59629   8.828   3.845  11.054 -0.2498 -0.3217  0.4132
  433MOL0     C59630   8.901   3.712  11.074 -0.4954 -0.6770  0.8217
  433MOL0     C59631   8.982   3.678  10.948  0.3019 -0.0756  0.1380
  433MOL0     C59632   9.069   3.558  10.957 -0.0135 -0.1984  0.0131
  433MOL0     N59633   9.138   3.552  10.827 -0.6895  0.0703 -0.3469
  433MOL0     C59634   9.273   3.582  10.807  0.4061  0.6044  0.0228
  433MOL0     C59635   9.287   3.568  10.673  0.1836  0.3603  0.2707
  433MOL0     C59636   9.408   3.584  10.576  0.6817 -0.1137 -0.3601
  433MOL0     C59637   9.373   3.598  10.428 -0.2682  0.4548  0.3392
  433MOL0     C59638   9.496   3.627  10.347 -0.5176  0.0407  0.5086
  433MOL0     C59639   9.587   3.507  10.339 -0.2385  0.7379 -0.5180
  433MOL0     O59640   9.699   3.537  10.267 -0.2726  0.0094  0.3093
  433MOL0     C59641   9.805   3.454  10.273 -0.2701  0.1274 -0.1654
  433MOL0     C59642   9.809   3.325  10.328  0.3120 -0.0446  0.4785
  433MOL0     C59643   9.926   3.262  10.359 -0.4030  0.1823  0.4867
  433MOL0     C59644   9.915   3.127  10.410 -0.5753  0.7358 -0.6645
  433MOL0     C59645  10.053   3.325  10.330  0.7491  0.0239 -0.6220
  433MOL0     C59646  10.186   3.272  10.361  0.1143  0.0270  0.1270
  433MOL0     O59647  10.285   3.299  10.276  0.0277 -0.3138  0.0247
  433MOL0     C59648  10.422   3.262  10.280  0.0426 -0.5102 -0.4627
  433MOL0     C59649  10.494   3.294  10.167  0.0338 -0.4470 -0.1864
  433MOL0     C59650  10.622   3.255  10.150  0.1545 -0.2521 -0.5737
  433MOL0     C59651  10.693   3.195  10.257 -0.9913 -0.5372  0.2435
  433MOL0     O59652  10.832   3.173  10.258  0.4333  0.6611 -0.5720
  433MOL0     C59653  10.907   3.231  10.149  0.2544 -0.7335  0.3892
  433MOL0     C59654  11.060   3.241  10.184 -0.1925  0.7161 -0.4385
  433MOL0     C59655  11.125   3.104  10.240  0.5760 -0.8711  0.3853
  433MOL0     C59656  11.267   3.115  10.275 -0.1623 -0.6404  0.3120
  433MOL0     C59657  11.328   2.997  10.346 -0.2835 -0.5333  0.4250
  433MOL0     C59658  11.458   3.035  10.404 -0.2257  0.0834 -0.4856
  433MOL0     C59659  11.517   2.931  10.499 -0.3866  0.4101 -0.2580
  433MOL0     C59660  11.642   2.978  10.569  1.0574  1.0092 -0.0374
  433MOL0    Cl59661  11.597   3.125  10.662 -0.2239 -0.1773  0.2005
  433MOL0     C59662  10.628   3.168  10.369 -0.6054  1.0697  0.1650
  433MOL0     C59663  10.493   3.202  10.382 -0.1363  0.1204 -0.0392
  433MOL0     O59664  10.199   3.214  10.466 -0.0377  0.0579  0.4343
  433MOL0     C59665  10.043   3.457  10.270 -0.0523 -0.2396 -0.7017
  433MOL0     C59666   9.924   3.515  10.241 -0.3011 -0.0615  0.2750
  433MOL0     N59667   9.161   3.542  10.616  0.6412  0.0587 -0.3512
  433MOL0     N59668   9.076   3.524  10.714  0.0788 -0.1381  0.2533
  433MOL0     C59669   8.267   4.344  11.155  0.6032  0.0855  0.1985
  433MOL0     C59670   8.196   4.441  11.081  0.7316  0.3776 -0.0436
  433MOL0     C59671   7.931   4.593  10.719 -0.1242  0.1018  0.6977
  433MOL0     C59672   7.880   4.687  10.815  0.0385  0.4130 -0.0610
  433MOL0     C59673   7.773   4.772  10.779  0.0113  0.0083  0.3106
  433MOL0     C59674   7.734   4.788  10.643 -0.0498 -0.0082  0.3399
  433MOL0     O59675   7.629   4.867  10.630 -0.0178  0.0861 -0.6092
  433MOL0     C59676   7.564   4.890  10.506 -0.1735 -0.5103 -0.7086
  433MOL0     C59677   7.594   5.043  10.471 -0.0538  0.9067 -0.2618
  433MOL0     C59678   7.557   5.074  10.327 -0.1052 -0.2034  0.4293
  433MOL0     C59679   7.516   5.221  10.310  0.7137 -0.2858  0.2964
  433MOL0     C59680   7.381   5.248  10.368 -0.1198  0.0258 -0.3271
  433MOL0     C59681   7.272   5.261  10.425 -0.4715 -0.4799 -0.4508
  433MOL0     C59682   7.785   4.692  10.549  0.2719 -0.1545  0.6065
  433MOL0     C59683   7.881   4.595  10.586  0.8578  0.1294 -0.1963
  433MOL0     C59684   7.938   4.512  10.470  0.3513 -0.2137 -0.2230
  433MOL0     H59685   8.101   4.248  10.826  0.8057  1.1763 -1.4527
  433MOL0     H59686   8.226   4.083  10.942  1.5905  1.7076 -3.6804
  433MOL0     H59687   8.457   4.213  11.345  3.9846  1.1510  0.6784
  433MOL0     H59688   8.537   4.260  11.191 -0.6689  2.0985  2.0508
  433MOL0     H59689   8.673   4.111  11.329 -1.4325 -0.1123  2.0449
  433MOL0     H59690   8.549   3.997  11.338  1.3536  0.0335  0.2970
  433MOL0     H59691   8.564   3.985  11.072 -0.2500 -0.7351  1.1451
  433MOL0     H59692   8.705   4.091  11.090 -0.1587 -0.8134  0.4217
  433MOL0     H59693   8.800   3.909  11.263 -0.0011  0.5438  0.1182
  433MOL0     H59694   8.676   3.805  11.209 -1.2487 -1.0509 -1.2007
  433MOL0     H59695   8.898   3.924  11.024 -0.6688  0.6469  1.8834
  433MOL0     H59696   8.756   3.835  10.972  0.0053 -2.2121  0.3772
  433MOL0     H59697   8.965   3.717  11.162 -0.3167 -0.4808  0.6816
  433MOL0     H59698   8.826   3.633  11.078  0.7841 -2.3207 -2.9253
  433MOL0     H59699   9.031   3.775  10.936  1.3261 -0.6332 -0.2681
  433MOL0     H59700   8.915   3.658  10.864 -0.6243  1.0740  0.5701
  433MOL0     H59701   9.147   3.569  11.033  2.9320 -1.1061 -2.6703
  433MOL0     H59702   9.007   3.468  10.958 -2.1225  0.9429 -4.2354
  433MOL0     H59703   9.348   3.607  10.880  1.3142 -1.9600  0.0529
  433MOL0     H59704   9.474   3.500  10.600 -0.5003 -0.5517  1.6201
  433MOL0     H59705   9.469   3.668  10.610  1.7782 -0.1692 -2.0529
  433MOL0     H59706   9.333   3.505  10.388  2.0446  0.3381 -1.9052
  433MOL0     H59707   9.295   3.675  10.416  0.6073  1.4503  0.8334
  433MOL0     H59708   9.475   3.650  10.242 -1.1066  0.7575  0.7782
  433MOL0     H59709   9.553   3.710  10.388 -0.9818  0.5514  0.1343
  433MOL0     H59710   9.617   3.479  10.441  0.7996  1.2234 -0.6785
  433MOL0     H59711   9.536   3.427  10.284  0.2921 -1.6392  2.1815
  433MOL0     H59712   9.712   3.282  10.351  0.5386 -0.0773  1.3905
  433MOL0     H59713   9.815   3.082  10.406  0.0496 -0.8936  0.8632
  433MOL0     H59714   9.951   3.129  10.513  0.6725  1.1945 -1.0879
  433MOL0     H59715   9.989   3.060  10.365 -1.6836 -2.3116  1.6819
  433MOL0     H59716  10.447   3.328  10.075  4.3083  1.9526 -1.7807
  433MOL0     H59717  10.672   3.288  10.059 -2.2078  4.1895 -0.5636
  433MOL0     H59718  10.906   3.169  10.059  2.1168  1.6108 -1.3917
  433MOL0     H59719  10.881   3.334  10.123  2.9709  0.7493  2.9814
  433MOL0     H59720  11.125   3.273  10.102 -1.0778  3.0990 -0.3018
  433MOL0     H59721  11.064   3.317  10.263 -3.4228  0.4912  0.0718
  433MOL0     H59722  11.113   3.025  10.166 -1.7047 -0.5432  0.3561
  433MOL0     H59723  11.069   3.069  10.327 -0.1214  0.5979  0.5536
  433MOL0     H59724  11.287   3.209  10.327 -0.5929  0.2084 -1.0021
  433MOL0     H59725  11.320   3.138  10.182 -4.8608  2.4986 -1.9844
  433MOL0     H59726  11.254   2.985  10.426  0.4254 -0.4768  1.0976
  433MOL0     H59727  11.333   2.913  10.276 -0.2432 -0.2425  0.0748
  433MOL0     H59728  11.434   3.125  10.461 -2.9564 -0.5301 -0.4941
  433MOL0     H59729  11.527   3.066  10.326 -0.5794 -1.1562 -1.3354
  433MOL0     H59730  11.526   2.839  10.441 -0.6558  0.2743 -0.0846
  433MOL0     H59731  11.441   2.912  10.575  1.3415 -2.2752  0.9106
  433MOL0     H59732  11.719   2.991  10.492  2.4890 -0.5355  1.0533
  433MOL0     H59733  11.681   2.902  10.638  0.6277  1.5697  0.8402
  433MOL0     H59734  10.686   3.114  10.443 -0.9993  0.5249  0.0788
  433MOL0     H59735  10.437   3.184  10.473 -2.8140  0.3995 -1.5501
  433MOL0     H59736  10.133   3.511  10.242  0.1748  0.0850  0.6186
  433MOL0     H59737   9.916   3.618  10.208  1.5506  0.6243  1.7801
  433MOL0     H59738   8.327   4.378  11.239  1.0664 -0.5399  0.1332
  433MOL0     H59739   8.190   4.538  11.128  2.4587 -0.3153  1.7450
  433MOL0     H59740   7.927   4.688  10.912  2.9368  2.6723 -1.3388
  433MOL0     H59741   7.724   4.822  10.862 -0.6726  0.3975 -0.3242
  433MOL0     H59742   7.611   4.841  10.420  1.1449  2.2754 -1.7150
  433MOL0     H59743   7.459   4.862  10.510 -0.7727  1.7483  1.6552
  433MOL0     H59744   7.698   5.070  10.490  0.3950  1.0604 -2.6332
  433MOL0     H59745   7.527   5.095  10.540  0.4141 -1.2499  1.9747
  433MOL0     H59746   7.647   5.059  10.267  0.1294 -3.6089  1.4218
  433MOL0     H59747   7.483   5.001  10.293  0.2286 -0.7746  0.9105
  433MOL0     H59748   7.507   5.234  10.202  0.6430  1.1971  0.4479
  433MOL0     H59749   7.599   5.289  10.332  0.6953  1.0488 -3.0967
  433MOL0     H59750   7.171   5.271  10.458 -0.9470 -1.1533 -1.6321
  433MOL0     H59751   7.752   4.691  10.445 -3.2153  0.0423  1.6155
  433MOL0     H59752   7.919   4.406  10.491  1.3410  0.0166  2.1101
  433MOL0     H59753   7.897   4.543  10.373  0.5398 -2.1830 -0.9914
  433MOL0     H59754   8.047   4.522  10.464  0.3224 -0.5269 -1.5135
  434MOL0     O59755   6.441   7.217  10.802  0.1247  0.5730  0.4892
  434MOL0     C59756   6.368   7.188  10.890  1.3616  0.8628  0.5058
  434MOL0     O59757   6.398   7.178  11.023 -0.4545  0.6857  0.3072
  434MOL0     C59758   6.521   7.194  11.076 -0.3906 -0.3968  0.7014
  434MOL0     C59759   6.576   7.098  11.158  0.6436 -0.1409  0.1440
  434MOL0     C59760   6.701   7.112  11.215 -0.5088 -0.3495 -0.4392
  434MOL0     C59761   6.792   7.208  11.165  0.2409 -0.0653 -0.1586
  434MOL0     O59762   6.925   7.226  11.202 -0.7193  0.0147 -0.0156
  434MOL0     C59763   7.029   7.197  11.117 -0.1603  0.5994 -0.0020
  434MOL0     C59764   7.054   7.051  11.093 -0.2636  0.4154  0.2036
  434MOL0     C59765   7.184   7.032  11.001  0.5807 -0.1356 -0.5359
  434MOL0     C59766   7.323   7.064  11.066  0.5282 -1.2808 -0.7661
  434MOL0     C59767   7.447   7.048  10.984  0.2539 -0.8572  0.7597
  434MOL0     C59768   7.567   7.101  11.065  0.4943 -0.3949 -0.5877
  434MOL0     C59769   7.708   7.061  11.012 -0.3688  0.1354 -0.3242
  434MOL0     C59770   7.739   7.110  10.869  0.2425  0.5889 -0.2410
  434MOL0     N59771   7.873   7.109  10.822 -0.0438  0.0266 -0.4895
  434MOL0     C59772   7.890   7.149  10.692  0.0336  0.0094 -0.2770
  434MOL0     C59773   8.025   7.140  10.671 -0.0795 -0.1913 -0.4995
  434MOL0     C59774   8.095   7.154  10.543 -0.6006 -0.2178  0.5968
  434MOL0     C59775   8.093   7.025  10.461  0.0842  0.6449  0.2177
  434MOL0     C59776   8.236   6.999  10.403 -0.6314 -0.5204 -0.0229
  434MOL0     C59777   8.352   6.976  10.496 -0.1070  0.3938 -0.2485
  434MOL0     O59778   8.451   6.925  10.422 -0.1396 -0.8642  0.2583
  434MOL0     C59779   8.566   6.887  10.484  0.0247  0.8627 -0.2955
  434MOL0     C59780   8.593   6.888  10.626 -0.1041 -1.6007  0.5625
  434MOL0     C59781   8.722   6.865  10.674 -0.1120 -0.2361  0.1824
  434MOL0     C59782   8.745   6.855  10.826  0.8558  0.0549  0.0228
  434MOL0     C59783   8.833   6.839  10.579  0.8652  0.0603 -0.4073
  434MOL0     C59784   8.976   6.835  10.614 -0.4782  0.2121  0.1363
  434MOL0     O59785   9.016   6.867  10.740  0.0182 -0.2741  0.9693
  434MOL0     C59786   9.143   6.856  10.782 -0.0834 -0.2548  0.5441
  434MOL0     C59787   9.246   6.931  10.728  0.0782  0.0168 -0.3357
  434MOL0     C59788   9.368   6.939  10.796 -0.0807  0.0157 -0.2246
  434MOL0     C59789   9.394   6.877  10.923  0.3776 -0.5522  0.3479
  434MOL0     O59790   9.516   6.907  10.979 -0.2303 -0.0024  0.0833
  434MOL0     C59791   9.556   6.831  11.089 -0.1125 -0.5977  0.1474
  434MOL0     C59792   9.701   6.854  11.140  0.2158  0.9887 -0.0597
  434MOL0     C59793   9.728   6.777  11.269  0.2406  0.2202  0.3205
  434MOL0     C59794   9.875   6.830  11.310  0.4683 -0.5753 -0.2549
  434MOL0     C59795   9.932   6.739  11.425 -0.2067  0.0890  0.1509
  434MOL0     C59796   9.917   6.587  11.398 -0.0108  0.2837 -0.4361
  434MOL0     C59797  10.008   6.503  11.489 -0.2291  0.5536 -0.2084
  434MOL0     C59798  10.002   6.353  11.485 -0.5825 -0.3234 -0.7043
  434MOL0    Cl59799   9.848   6.283  11.529 -0.0456  0.1174 -0.3764
  434MOL0     C59800   9.284   6.808  10.970  0.6655  0.2091 -0.1027
  434MOL0     C59801   9.168   6.799  10.907  0.3181  0.0228  0.6951
  434MOL0     O59802   9.049   6.784  10.531  0.0872 -0.6085 -0.4078
  434MOL0     C59803   8.804   6.837  10.440 -1.0042  0.3231 -0.0634
  434MOL0     C59804   8.665   6.856  10.397  0.6258  0.5636 -0.0641
  434MOL0     N59805   8.077   7.075  10.787  0.5980 -0.3583  0.7076
  434MOL0     N59806   7.988   7.057  10.881  0.6133 -0.2294  1.2313
  434MOL0     C59807   6.747   7.303  11.078 -0.2791 -0.8143  0.1388
  434MOL0     C59808   6.606   7.302  11.038  0.9349 -0.0862  0.6120
  434MOL0     C59809   6.222   7.160  10.858 -0.3361  0.8996 -0.1151
  434MOL0     C59810   6.127   7.143  10.962  0.2242  0.8299  0.0581
  434MOL0     C59811   5.989   7.123  10.936 -0.2136 -1.0211  0.0214
  434MOL0     C59812   5.933   7.109  10.806 -0.6819 -0.2654 -0.5121
  434MOL0     O59813   5.796   7.109  10.785 -0.5322  0.4180  0.2288
  434MOL0     C59814   5.734   7.185  10.689  0.7864  0.2140  0.4999
  434MOL0     C59815   5.781   7.331  10.678  0.5465 -0.6504 -0.2934
  434MOL0     C59816   5.669   7.415  10.606  0.3218 -0.2543  0.0414
  434MOL0     C59817   5.713   7.559  10.583  0.2363  0.6405  0.0925
  434MOL0     C59818   5.827   7.562  10.495 -0.1735  0.3780  0.1493
  434MOL0     C59819   5.925   7.576  10.427 -0.4620  0.0593  0.0864
  434MOL0     C59820   6.027   7.103  10.702  0.2180  0.5049 -0.3121
  434MOL0     C59821   6.163   7.133  10.730 -0.5473  0.5744 -0.5273
  434MOL0     C59822   6.242   7.134  10.611  0.4358 -0.3922 -0.0265
  434MOL0     H59823   6.501   7.025  11.187  1.0567 -1.6386 -2.2521
  434MOL0     H59824   6.738   7.048  11.294 -0.7041  1.0176  0.7901
  434MOL0     H59825   7.115   7.247  11.163  0.8590  1.2599 -2.4698
  434MOL0     H59826   7.014   7.250  11.023 -1.4382  0.7547  0.2781
  434MOL0     H59827   7.065   6.994  11.186  2.1235  0.2047 -0.1365
  434MOL0     H59828   6.966   7.011  11.043 -1.1472 -2.7219  3.8118
  434MOL0     H59829   7.186   6.924  10.979 -4.3557 -1.3040  2.8211
  434MOL0     H59830   7.162   7.086  10.909 -3.5266 -0.0594  0.2670
  434MOL0     H59831   7.306   7.165  11.104 -3.8409 -1.9873 -0.3817
  434MOL0     H59832   7.335   6.993  11.148 -1.2391 -1.4734 -0.6392
  434MOL0     H59833   7.447   7.101  10.888  2.4971 -2.0661  0.0138
  434MOL0     H59834   7.461   6.941  10.964  2.3266 -0.4149 -0.5922
  434MOL0     H59835   7.574   7.210  11.065 -0.4038 -0.3062  1.0276
  434MOL0     H59836   7.557   7.060  11.166  0.9881 -0.6848 -0.6517
  434MOL0     H59837   7.700   6.952  11.013 -2.5881  0.2515  0.2220
  434MOL0     H59838   7.777   7.098  11.088  1.7535  3.1793 -3.3936
  434MOL0     H59839   7.679   7.036  10.815  1.8263 -2.6496  2.1175
  434MOL0     H59840   7.699   7.209  10.847 -1.7103 -0.4195 -1.5272
  434MOL0     H59841   7.814   7.166  10.617  1.4388 -0.1508 -1.8148
  434MOL0     H59842   8.191   7.193  10.577 -0.9741  2.7776 -1.4355
  434MOL0     H59843   8.056   7.235  10.481  2.1352  1.5101  0.9703
  434MOL0     H59844   8.071   6.942  10.528  0.5694  1.3598  1.2786
  434MOL0     H59845   8.011   7.041  10.390  0.6890  0.9731 -0.4213
  434MOL0     H59846   8.215   6.911  10.342  1.0580 -0.3794 -0.8797
  434MOL0     H59847   8.275   7.075  10.334 -0.5485 -0.0991  0.4791
  434MOL0     H59848   8.379   7.067  10.549  0.4883 -0.9195  1.8245
  434MOL0     H59849   8.323   6.907  10.576  0.3601  0.9719  0.4259
  434MOL0     H59850   8.523   6.922  10.701 -0.0027  2.0651 -0.7911
  434MOL0     H59851   8.807   6.936  10.866 -1.8230  1.4914  1.5216
  434MOL0     H59852   8.799   6.761  10.840 -2.2273 -1.7931  0.2952
  434MOL0     H59853   8.653   6.839  10.883  0.2867  0.6516 -0.7107
  434MOL0     H59854   9.226   6.976  10.631 -2.0746  0.0362  0.0772
  434MOL0     H59855   9.448   6.989  10.744 -0.1160 -1.3867 -1.7270
  434MOL0     H59856   9.489   6.866  11.168  0.7093  4.5651 -1.0698
  434MOL0     H59857   9.547   6.723  11.073 -1.7676 -0.1538 -2.5866
  434MOL0     H59858   9.766   6.801  11.070 -0.4822 -1.7479  1.2264
  434MOL0     H59859   9.716   6.961  11.153 -2.1958  1.1900  1.7583
  434MOL0     H59860   9.719   6.670  11.248 -0.3739 -0.0352  1.7578
  434MOL0     H59861   9.663   6.810  11.351  0.3004  2.1712 -0.3650
  434MOL0     H59862   9.866   6.934  11.343 -1.2284  0.4745 -3.5824
  434MOL0     H59863   9.946   6.829  11.228  1.0523 -0.2147  0.2354
  434MOL0     H59864  10.039   6.756  11.441  0.3446 -2.1230 -0.8213
  434MOL0     H59865   9.889   6.763  11.522 -2.1616 -1.4609 -0.2687
  434MOL0     H59866   9.959   6.570  11.298  1.6773  1.3841  0.0401
  434MOL0     H59867   9.814   6.550  11.406  1.1807 -3.1649  1.2296
  434MOL0     H59868   9.989   6.528  11.594 -0.0373 -0.8057  0.1647
  434MOL0     H59869  10.111   6.528  11.462  0.6649 -2.2258  0.2771
  434MOL0     H59870  10.079   6.319  11.555 -0.7739  2.5486  1.0633
  434MOL0     H59871  10.023   6.314  11.385  0.0458 -1.0068 -0.3099
  434MOL0     H59872   9.284   6.767  11.071  0.7303 -0.0851 -0.2213
  434MOL0     H59873   9.085   6.756  10.964 -0.8810  1.3489  0.0227
  434MOL0     H59874   8.882   6.824  10.366 -1.8259  1.4554 -1.1713
  434MOL0     H59875   8.645   6.854  10.291 -0.9137 -0.8378  0.2197
  434MOL0     H59876   6.815   7.383  11.051 -1.7257  0.2644 -0.4458
  434MOL0     H59877   6.566   7.379  10.973  1.3244  1.1383  1.7700
  434MOL0     H59878   6.151   7.149  11.068 -0.5448 -0.7209  0.3498
  434MOL0     H59879   5.915   7.130  11.016  0.7378 -1.1532  0.9294
  434MOL0     H59880   5.750   7.136  10.593  0.5602  0.2703  0.4330
  434MOL0     H59881   5.625   7.178  10.701  0.6014 -1.8336 -1.7342
  434MOL0     H59882   5.881   7.345  10.634  1.2846 -0.1573  1.4555
  434MOL0     H59883   5.796   7.380  10.774 -0.1588  1.5682 -1.2379
  434MOL0     H59884   5.647   7.370  10.509  3.7320 -0.5468 -0.7190
  434MOL0     H59885   5.573   7.411  10.660  0.7108 -2.0862  0.6818
  434MOL0     H59886   5.736   7.611  10.677  1.5391  1.5862 -0.7018
  434MOL0     H59887   5.628   7.609  10.536 -0.9219 -0.1924  1.2254
  434MOL0     H59888   6.016   7.570  10.371  0.8800 -3.1873  2.2520
  434MOL0     H59889   5.988   7.093  10.601  1.8204  0.0162 -0.9226
  434MOL0     H59890   6.289   7.233  10.612  0.4939 -0.2745 -3.4451
  434MOL0     H59891   6.323   7.060  10.608  1.7206  0.9078  1.0799
  434MOL0     H59892   6.179   7.126  10.522 -0.7232  2.1328  0.4744
  435MOL0     O59893   3.765  10.078  10.050  0.6856 -0.5287 -0.7265
  435MOL0     C59894   3.742  10.113   9.933 -0.3013  0.6373  0.1133
  435MOL0     O59895   3.789  10.043   9.820 -0.0060  0.3499  0.4514
  435MOL0     C59896   3.850   9.916   9.848  1.2165 -0.6413  0.6812
  435MOL0     C59897   3.789   9.801   9.805 -0.4194  0.0764  0.3175
  435MOL0     C59898   3.853   9.674   9.823  0.4546 -0.0403 -0.0640
  435MOL0     C59899   3.965   9.659   9.903  0.1436 -1.2477  0.3959
  435MOL0     O59900   4.018   9.533   9.933  0.3178  0.1412  0.4027
  435MOL0     C59901   4.154   9.534   9.990  0.0326  0.2166 -0.0179
  435MOL0     C59902   4.204   9.394  10.027  0.6531 -0.3061  0.5407
  435MOL0     C59903   4.354   9.399  10.052 -0.7826  0.3375  0.0652
  435MOL0     C59904   4.388   9.475  10.178 -0.4413  0.2705 -0.7013
  435MOL0     C59905   4.540   9.479  10.223 -0.2710 -0.1180 -0.8336
  435MOL0     C59906   4.647   9.496  10.117  0.1374 -0.0709  0.0722
  435MOL0     C59907   4.789   9.513  10.185  0.1773  0.1767 -0.5489
  435MOL0     C59908   4.834   9.395  10.266 -1.1073 -1.0064  0.3028
  435MOL0     N59909   4.977   9.402  10.293  0.4723 -0.6342  0.2605
  435MOL0     C59910   5.036   9.489  10.379 -0.0633 -1.0399 -0.3601
  435MOL0     C59911   5.169   9.488  10.349 -0.3670  0.7599 -0.3791
  435MOL0     C59912   5.291   9.569  10.393  0.1413 -0.0495  0.4383
  435MOL0     C59913   5.326   9.670  10.288  0.1497  0.4466 -0.0955
  435MOL0     C59914   5.423   9.768  10.359 -0.3877 -0.2975  0.2249
  435MOL0     C59915   5.479   9.875  10.258 -0.9076 -0.1625  0.3142
  435MOL0     O59916   5.562   9.964  10.332 -0.0017  0.5832 -0.2714
  435MOL0     C59917   5.637  10.058  10.267  0.5808  0.7034  0.6195
  435MOL0     C59918   5.588  10.158  10.184  0.8625 -0.1859  0.0088
  435MOL0     C59919   5.670  10.250  10.124  0.4904  0.2979  1.6030
  435MOL0     C59920   5.603  10.347  10.028  0.1687  0.1327  0.8950
  435MOL0     C59921   5.806  10.246  10.146  0.6449  0.0943 -0.3763
  435MOL0     C59922   5.907  10.335  10.093 -0.3859 -0.0448  0.6153
  435MOL0     O59923   5.870  10.459  10.050 -0.0493 -0.1634 -0.2701
  435MOL0     C59924   5.951  10.562  10.079  0.0529 -1.2069  0.9775
  435MOL0     C59925   5.919  10.659  10.173 -0.2652  0.5216 -0.8937
  435MOL0     C59926   6.008  10.766  10.201 -0.2909 -0.0972  0.3730
  435MOL0     C59927   6.133  10.777  10.122  0.2749  0.4718 -0.4963
  435MOL0     O59928   6.227  10.874  10.143 -0.1304 -0.6098  0.5061
  435MOL0     C59929   6.210  10.959  10.252 -0.0935  0.2549  0.2264
  435MOL0     C59930   6.234  10.900  10.390  0.1934  0.1177 -0.1106
  435MOL0     C59931   6.279  11.011  10.497  0.3374  0.0167 -0.5493
  435MOL0     C59932   6.334  10.932  10.625 -1.2399  0.6019  0.1031
  435MOL0     C59933   6.393  11.028  10.729 -0.0611 -0.1177 -0.4078
  435MOL0     C59934   6.466  10.957  10.844 -0.4217  0.8121 -0.0742
  435MOL0     C59935   6.363  10.890  10.936 -0.6781  0.1674  0.4641
  435MOL0     C59936   6.367  10.946  11.075 -0.1450  0.2389  0.0329
  435MOL0    Cl59937   6.327  11.119  11.091 -0.7209 -0.0899  0.4760
  435MOL0     C59938   6.149  10.679  10.026 -0.5943 -0.9192  0.2796
  435MOL0     C59939   6.070  10.572  10.009 -0.4257 -0.2371  0.1575
  435MOL0     O59940   6.026  10.295  10.097  0.2612 -0.7633  0.2448
  435MOL0     C59941   5.853  10.136  10.220  0.2182 -0.5718 -0.9277
  435MOL0     C59942   5.771  10.050  10.280  0.6371 -0.0310 -0.8174
  435MOL0     N59943   5.182   9.383  10.254  0.7981  1.1332 -0.2039
  435MOL0     N59944   5.072   9.337  10.223 -0.0727  0.5447  0.1629
  435MOL0     C59945   4.023   9.778   9.946 -0.9442 -0.2108  0.5846
  435MOL0     C59946   3.976   9.909   9.911  0.1057  0.1488  0.4529
  435MOL0     C59947   3.647  10.222   9.909 -1.1146  0.0168  0.0152
  435MOL0     C59948   3.650  10.280   9.783  0.5198 -0.8710 -0.1944
  435MOL0     C59949   3.565  10.393   9.754 -0.3374  0.0585 -0.7684
  435MOL0     C59950   3.480  10.446   9.854  0.0223  0.3705  0.7745
  435MOL0     O59951   3.390  10.553   9.834 -0.1413 -0.2644 -0.1823
  435MOL0     C59952   3.400  10.620   9.705  0.4898  0.0879  0.3353
  435MOL0     C59953   3.279  10.706   9.664  0.1888  0.3037 -0.1040
  435MOL0     C59954   3.250  10.826   9.765  0.2620  0.0777 -0.1439
  435MOL0     C59955   3.122  10.909   9.741  0.0210 -0.1903  0.4693
  435MOL0     C59956   3.122  11.018   9.842  0.1033  0.2041 -0.4440
  435MOL0     C59957   3.136  11.096   9.938 -0.2980 -0.1131  0.3340
  435MOL0     C59958   3.479  10.389   9.976 -1.0723  0.4845 -0.5957
  435MOL0     C59959   3.558  10.277  10.003 -0.5904 -0.2854 -0.1485
  435MOL0     C59960   3.554  10.226  10.139  0.6083  0.3407 -0.8277
  435MOL0     H59961   3.686   9.811   9.770 -0.5938  1.0278  1.0773
  435MOL0     H59962   3.811   9.578   9.796  0.4266  0.2095 -0.9698
  435MOL0     H59963   4.151   9.588  10.085 -0.1596  1.5652 -0.7647
  435MOL0     H59964   4.231   9.586   9.933 -0.1567  0.4594 -0.0539
  435MOL0     H59965   4.138   9.350  10.101 -2.3498  1.0639 -1.1292
  435MOL0     H59966   4.178   9.328   9.944 -3.4727  1.1458  0.4506
  435MOL0     H59967   4.380   9.293  10.057 -1.3068  0.1036 -1.6337
  435MOL0     H59968   4.413   9.449   9.975  2.2367 -2.0796  0.6148
  435MOL0     H59969   4.356   9.578  10.157 -0.0854  1.0563  2.1823
  435MOL0     H59970   4.321   9.439  10.256  1.3170  0.2927  0.9053
  435MOL0     H59971   4.561   9.386  10.276 -0.3668  0.6139  0.5314
  435MOL0     H59972   4.558   9.559  10.295  0.3664 -0.4203 -0.6518
  435MOL0     H59973   4.641   9.415  10.044  3.0073 -0.7140  0.4357
  435MOL0     H59974   4.624   9.593  10.072 -0.3390 -0.6015 -0.8634
  435MOL0     H59975   4.777   9.603  10.246 -0.6576  0.7846 -1.5678
  435MOL0     H59976   4.862   9.530  10.106  0.0834  1.7139 -0.3415
  435MOL0     H59977   4.791   9.403  10.366  0.6910  0.8549  1.0004
  435MOL0     H59978   4.806   9.301  10.219 -2.5332 -1.7655  2.5503
  435MOL0     H59979   5.000   9.564  10.449  0.1989 -0.7695 -0.5093
  435MOL0     H59980   5.374   9.499  10.404 -0.9257 -1.0703  2.6155
  435MOL0     H59981   5.269   9.618  10.488 -0.9151  2.0059 -0.7971
  435MOL0     H59982   5.374   9.619  10.204 -0.7543  2.3908 -1.8842
  435MOL0     H59983   5.239   9.722  10.247 -0.2318  0.0379  0.1733
  435MOL0     H59984   5.388   9.827  10.444  2.4103  1.3594  0.3733
  435MOL0     H59985   5.509   9.709  10.393  1.0521  0.5749 -1.6984
  435MOL0     H59986   5.532   9.813  10.185 -1.6363 -1.7723  1.0959
  435MOL0     H59987   5.386   9.923  10.224 -0.5943 -0.3188 -0.8111
  435MOL0     H59988   5.481  10.163  10.168  0.9217 -0.8210 -0.6398
  435MOL0     H59989   5.655  10.349   9.932 -1.1308  0.4650  0.1732
  435MOL0     H59990   5.607  10.450  10.064  0.3177  0.6031 -0.4174
  435MOL0     H59991   5.495  10.332  10.014 -0.1846  1.9844  1.3108
  435MOL0     H59992   5.826  10.637  10.224 -0.1053 -0.3389 -0.9586
  435MOL0     H59993   5.966  10.825  10.282 -2.0572  1.7881 -1.7876
  435MOL0     H59994   6.297  11.026  10.244 -0.7029  1.2652  1.6095
  435MOL0     H59995   6.118  11.017  10.242 -0.1574  0.0291 -0.4844
  435MOL0     H59996   6.152  10.832  10.417  0.9373 -0.8264 -0.1511
  435MOL0     H59997   6.319  10.830  10.384  0.9408  1.0166 -0.1684
  435MOL0     H59998   6.193  11.075  10.518 -1.3328 -1.7625 -1.6314
  435MOL0     H59999   6.361  11.064  10.450 -0.7044  0.3496 -2.0722
  435MOL0     H60000   6.423  10.874  10.600  1.8467  3.9582  2.3570
  435MOL0     H60001   6.258  10.871  10.675  0.5428 -1.1015  0.8939
  435MOL0     H60002   6.465  11.099  10.687 -0.2667  0.8177  0.7684
  435MOL0     H60003   6.315  11.089  10.776  0.0877 -0.5944  0.4616
  435MOL0     H60004   6.525  11.034  10.896  2.1040  1.1099 -3.0768
  435MOL0     H60005   6.539  10.885  10.806 -0.7491  1.0009 -1.1044
  435MOL0     H60006   6.385  10.783  10.936  0.0473  0.2987  1.4721
  435MOL0     H60007   6.264  10.892  10.889 -0.0197 -0.2223 -0.9857
  435MOL0     H60008   6.467  10.929  11.116 -0.9749 -1.3315  1.5214
  435MOL0     H60009   6.307  10.887  11.145 -0.9079  1.7824  0.7369
  435MOL0     H60010   6.238  10.676   9.964 -2.5330 -3.0871 -2.7242
  435MOL0     H60011   6.079  10.499   9.929  0.8189  0.3175 -0.2321
  435MOL0     H60012   5.957  10.120  10.248 -0.0026 -0.7491 -0.1676
  435MOL0     H60013   5.813   9.972  10.344 -0.3072 -1.7469 -2.1859
  435MOL0     H60014   4.116   9.779  10.002 -0.0720  2.2792 -0.7364
  435MOL0     H60015   4.022   9.996   9.956  1.6665  1.0393 -2.6254
  435MOL0     H60016   3.706  10.240   9.699  0.1765 -0.5408 -0.5872
  435MOL0     H60017   3.562  10.441   9.657 -1.7692  0.5778 -0.4873
  435MOL0     H60018   3.494  10.677   9.707  0.0820  0.9626 -1.6880
  435MOL0     H60019   3.399  10.546   9.624 -0.7652 -0.6878  1.0335
  435MOL0     H60020   3.194  10.636   9.666 -0.0453  0.5858  2.2463
  435MOL0     H60021   3.280  10.731   9.557 -1.6454  0.2851 -0.1648
  435MOL0     H60022   3.231  10.790   9.866  0.4618  0.7890  0.1593
  435MOL0     H60023   3.343  10.884   9.769  0.5080 -0.2483 -1.0024
  435MOL0     H60024   3.034  10.844   9.750  0.4358 -0.7364  0.6205
  435MOL0     H60025   3.124  10.951   9.640 -0.5255 -1.9520 -0.3230
  435MOL0     H60026   3.151  11.167  10.016 -0.3120 -0.9414  1.1029
  435MOL0     H60027   3.417  10.439  10.050 -2.8964 -1.2063 -0.8798
  435MOL0     H60028   3.635  10.252  10.207 -1.3507  3.2320  0.6228
  435MOL0     H60029   3.469  10.255  10.201  0.4498  0.5489 -1.1404
  435MOL0     H60030   3.553  10.116  10.138  2.1890  0.1848  2.4305
  436MOL0     O60031   7.453   0.940   7.698 -0.6563 -0.4572 -0.0085
  436MOL0     C60032   7.339   0.904   7.664 -0.2840  1.1617  0.4054
  436MOL0     O60033   7.301   0.861   7.537  0.5013 -0.0828 -0.3196
  436MOL0     C60034   7.405   0.867   7.451  0.3285 -0.2430  0.1626
  436MOL0     C60035   7.496   0.758   7.441 -0.5512 -0.3066  0.5812
  436MOL0     C60036   7.598   0.767   7.340  0.8176  0.4214 -0.9322
  436MOL0     C60037   7.610   0.885   7.260 -0.3213  1.0658  0.6844
  436MOL0     O60038   7.700   0.909   7.156 -0.0655  0.1971  0.7421
  436MOL0     C60039   7.782   0.799   7.125 -0.7307 -1.1171 -0.2069
  436MOL0     C60040   7.878   0.841   7.015 -0.3428  0.1331  0.0955
  436MOL0     C60041   7.978   0.733   6.985  0.3075  0.1527  0.4000
  436MOL0     C60042   7.928   0.609   6.919  0.0066  0.1727 -0.6631
  436MOL0     C60043   8.041   0.530   6.862  1.4128 -1.2396 -0.2455
  436MOL0     C60044   7.984   0.400   6.804  0.1552 -0.2106  0.3714
  436MOL0     C60045   8.095   0.339   6.713  0.3653 -0.0316 -0.2374
  436MOL0     C60046   8.042   0.230   6.625  0.6320 -0.0843 -1.0072
  436MOL0     N60047   7.928   0.280   6.538 -0.3449 -0.1130 -0.8807
  436MOL0     C60048   7.929   0.397   6.460  0.0408  0.0698  0.1711
  436MOL0     C60049   7.817   0.387   6.391 -0.4992  0.7946 -0.1304
  436MOL0     C60050   7.764   0.488   6.299  0.3843 -1.0116  0.7835
  436MOL0     C60051   7.816   0.480   6.156 -1.1016  0.1117  0.0792
  436MOL0     C60052   7.790   0.343   6.091  0.3178 -0.5385  0.3678
  436MOL0     C60053   7.805   0.339   5.933  0.2265 -0.4758 -0.1281
  436MOL0     O60054   7.918   0.416   5.907 -0.1111 -0.3922 -0.7478
  436MOL0     C60055   8.050   0.377   5.932 -0.4470 -0.1531  0.1553
  436MOL0     C60056   8.096   0.251   5.984  0.5671 -0.1604 -0.2083
  436MOL0     C60057   8.224   0.216   6.022  0.3028  0.6843  0.2889
  436MOL0     C60058   8.250   0.083   6.070  1.0011  0.1167 -0.2982
  436MOL0     C60059   8.327   0.314   5.992  0.4304  0.8271  0.5150
  436MOL0     C60060   8.471   0.297   6.033  0.0298  0.5223  0.0328
  436MOL0     O60061   8.553   0.402   6.012 -0.2880  0.0171 -0.6087
  436MOL0     C60062   8.664   0.413   6.096 -0.1423 -0.4680 -0.2183
  436MOL0     C60063   8.666   0.513   6.196 -0.2339  0.5717 -0.6361
  436MOL0     C60064   8.784   0.528   6.269 -0.6688 -0.3582 -0.1653
  436MOL0     C60065   8.895   0.445   6.243 -0.4623 -0.3530  0.5870
  436MOL0     O60066   9.017   0.471   6.299  0.2744 -0.0731  0.4972
  436MOL0     C60067   9.025   0.568   6.401 -0.0816 -0.3425  0.4085
  436MOL0     C60068   9.164   0.563   6.464  0.4108  0.2469 -0.5927
  436MOL0     C60069   9.178   0.448   6.570  0.9176  0.5666 -0.2965
  436MOL0     C60070   9.325   0.392   6.574  0.2429  0.2323 -0.4811
  436MOL0     C60071   9.365   0.324   6.706  0.5323 -0.8580  0.2166
  436MOL0     C60072   9.508   0.280   6.697 -0.0650  0.5966  0.0218
  436MOL0     C60073   9.561   0.204   6.826  1.3845 -0.2561 -0.7025
  436MOL0     C60074   9.714   0.184   6.818  1.0999  0.2432 -0.5804
  436MOL0    Cl60075   9.774   0.082   6.957 -0.2141  0.0822 -0.0692
  436MOL0     C60076   8.885   0.351   6.147  0.2594  0.6541 -0.2643
  436MOL0     C60077   8.775   0.335   6.074  0.1623  0.2920  0.2414
  436MOL0     O60078   8.500   0.198   6.096 -0.1267 -0.2615  0.5553
  436MOL0     C60079   8.287   0.436   5.934 -1.0715 -0.2837 -0.5852
  436MOL0     C60080   8.153   0.465   5.910  0.1997  0.0842  0.2151
  436MOL0     N60081   7.741   0.280   6.430 -0.2491 -0.4553 -0.0243
  436MOL0     N60082   7.808   0.218   6.518  0.2244 -0.4619  0.2550
  436MOL0     C60083   7.502   0.984   7.275  0.5137  0.5188 -0.2523
  436MOL0     C60084   7.404   0.975   7.370  0.6179 -0.2588  0.4306
  436MOL0     C60085   7.225   0.902   7.759 -0.2517  0.2273 -0.1011
  436MOL0     C60086   7.110   0.825   7.723  0.5167  0.0413 -0.1783
  436MOL0     C60087   6.987   0.835   7.788  0.5493  0.8306  0.1646
  436MOL0     C60088   6.976   0.916   7.899 -0.6589  0.2940 -0.3883
  436MOL0     O60089   6.860   0.918   7.966 -0.4606 -0.3642 -0.3514
  436MOL0     C60090   6.805   1.049   7.988  0.5937 -0.3314 -0.1814
  436MOL0     C60091   6.669   1.059   7.930  0.0657 -0.2372  0.1118
  436MOL0     C60092   6.564   0.995   8.019  1.0043 -0.5919 -0.4693
  436MOL0     C60093   6.418   1.015   7.966 -0.3445  0.0747  0.2153
  436MOL0     C60094   6.398   0.955   7.837  0.1524  0.7089  0.5238
  436MOL0     C60095   6.364   0.925   7.730  0.6674 -0.1300  0.5580
  436MOL0     C60096   7.092   0.985   7.946  0.8067 -0.6644 -0.8759
  436MOL0     C60097   7.212   0.987   7.875 -0.2164  0.2585 -0.4349
  436MOL0     C60098   7.325   1.076   7.928  0.3108 -0.3788 -0.3064
  436MOL0     H60099   7.505   0.672   7.506  3.7006 -1.3700 -1.0815
  436MOL0     H60100   7.672   0.688   7.334  1.8932  0.7168  4.1429
  436MOL0     H60101   7.736   0.701   7.112  2.5762 -3.2297  2.2703
  436MOL0     H60102   7.847   0.779   7.211  2.1474  0.6139 -1.8214
  436MOL0     H60103   7.821   0.868   6.925 -1.4613  4.2453  1.7883
  436MOL0     H60104   7.936   0.930   7.042  0.3449  0.4077 -2.0661
  436MOL0     H60105   8.053   0.774   6.917 -0.7216 -0.6088 -1.2400
  436MOL0     H60106   8.025   0.726   7.084 -0.1614  2.7928  0.8766
  436MOL0     H60107   7.881   0.543   6.993  1.6896  1.5677  1.8131
  436MOL0     H60108   7.864   0.634   6.834  0.3050 -3.0682 -1.9660
  436MOL0     H60109   8.120   0.512   6.935  3.2373  0.9556 -1.5630
  436MOL0     H60110   8.084   0.596   6.787 -2.2478 -0.8084 -2.2233
  436MOL0     H60111   7.956   0.327   6.881  0.6862  0.2031  0.9623
  436MOL0     H60112   7.886   0.413   6.758  1.1303  1.4890 -1.3595
  436MOL0     H60113   8.168   0.298   6.784  0.4366 -1.3365 -1.0313
  436MOL0     H60114   8.146   0.418   6.658  0.3115  0.2190  0.0741
  436MOL0     H60115   8.119   0.202   6.552  0.4545 -0.8794 -0.8975
  436MOL0     H60116   8.007   0.142   6.679  1.8729 -0.1708 -0.3150
  436MOL0     H60117   8.013   0.465   6.455  0.9438 -1.0845 -1.5233
  436MOL0     H60118   7.781   0.589   6.337 -3.2201  1.3943 -3.0862
  436MOL0     H60119   7.655   0.484   6.310  0.4782 -0.6857  2.0672
  436MOL0     H60120   7.767   0.560   6.100  1.1941  0.6883 -1.2426
  436MOL0     H60121   7.921   0.508   6.143 -0.8767  0.0669  1.6173
  436MOL0     H60122   7.850   0.263   6.135 -0.6120 -1.5947 -0.2561
  436MOL0     H60123   7.685   0.320   6.110 -0.2774  1.8386  0.3777
  436MOL0     H60124   7.810   0.237   5.894  0.1637  0.2806 -2.2440
  436MOL0     H60125   7.726   0.387   5.874  0.6024  2.7288  1.7304
  436MOL0     H60126   8.036   0.162   6.000  2.7663 -1.2282  2.9502
  436MOL0     H60127   8.158   0.027   6.092  1.4397 -2.0149 -3.1964
  436MOL0     H60128   8.317   0.085   6.157  1.6744  2.8128 -0.8159
  436MOL0     H60129   8.289   0.011   5.997  1.1930 -1.5637  1.3640
  436MOL0     H60130   8.583   0.574   6.230 -0.4686 -1.4281  2.8055
  436MOL0     H60131   8.775   0.604   6.345 -2.0445  0.0862 -0.7443
  436MOL0     H60132   9.018   0.672   6.366 -1.2307 -0.1304  1.2360
  436MOL0     H60133   8.950   0.562   6.480 -1.0707 -0.4645 -0.5197
  436MOL0     H60134   9.238   0.565   6.384 -0.7375  2.4257 -1.7130
  436MOL0     H60135   9.171   0.663   6.507 -2.1167  1.8298 -3.4124
  436MOL0     H60136   9.101   0.373   6.549  0.6614  1.1004 -1.3326
  436MOL0     H60137   9.160   0.484   6.671 -1.2058 -0.2830 -0.3189
  436MOL0     H60138   9.396   0.474   6.564 -0.3946  0.9195  0.4731
  436MOL0     H60139   9.333   0.337   6.480 -0.7307 -1.1901  0.2303
  436MOL0     H60140   9.363   0.403   6.782 -1.2506  0.3404 -1.0028
  436MOL0     H60141   9.300   0.241   6.734 -0.0452 -0.8971 -1.1562
  436MOL0     H60142   9.565   0.370   6.674 -0.4012  0.1628 -2.9530
  436MOL0     H60143   9.524   0.209   6.616 -1.6987 -0.3334  0.4487
  436MOL0     H60144   9.502   0.112   6.830 -1.9581  1.7665  0.6980
  436MOL0     H60145   9.533   0.249   6.921  3.2248 -3.9064  1.8404
  436MOL0     H60146   9.757   0.284   6.828  0.4421  0.2992  4.3458
  436MOL0     H60147   9.742   0.138   6.723  3.0914 -1.0001  0.5262
  436MOL0     H60148   8.974   0.291   6.133 -0.8188 -1.7578  2.1561
  436MOL0     H60149   8.779   0.267   5.990  0.2456  1.2542 -0.5547
  436MOL0     H60150   8.359   0.514   5.912  0.2471 -1.3088 -0.0860
  436MOL0     H60151   8.113   0.563   5.886 -2.4697 -0.5439  1.7204
  436MOL0     H60152   7.501   1.065   7.203 -0.1684  0.9160  0.1896
  436MOL0     H60153   7.320   1.042   7.383  0.4630 -0.2683 -0.4852
  436MOL0     H60154   7.102   0.752   7.643 -1.4247  1.5635 -1.4630
  436MOL0     H60155   6.900   0.777   7.760 -0.6286  2.8466 -0.5571
  436MOL0     H60156   6.793   1.075   8.094  0.9589 -1.9564  0.2946
  436MOL0     H60157   6.879   1.116   7.945  0.3890  0.6640  0.9586
  436MOL0     H60158   6.670   1.005   7.834 -0.2817  0.0887 -0.0806
  436MOL0     H60159   6.647   1.163   7.907 -0.7829  0.5532  3.8324
  436MOL0     H60160   6.575   0.887   8.037 -2.6579 -0.7166  1.9662
  436MOL0     H60161   6.582   1.039   8.118  1.3733 -2.2028  0.2118
  436MOL0     H60162   6.394   1.121   7.949 -2.5647 -0.3940  0.0331
  436MOL0     H60163   6.349   0.971   8.039  0.2456 -1.3742 -0.0833
  436MOL0     H60164   6.342   0.904   7.627  0.0326 -1.1679  0.8833
  436MOL0     H60165   7.080   1.046   8.035 -0.0791 -1.1000 -0.6764
  436MOL0     H60166   7.341   1.166   7.868  2.5182  0.0952  0.8816
  436MOL0     H60167   7.292   1.109   8.027 -0.8499  0.2893 -0.8879
  436MOL0     H60168   7.416   1.017   7.939  0.1924 -0.3908  0.6847
  437MOL0     O60169   6.932   9.578   1.265 -0.4337 -0.6219  0.3105
  437MOL0     C60170   6.917   9.461   1.246 -0.6551 -0.7875 -0.4687
  437MOL0     O60171   7.005   9.372   1.187  0.2713  0.4591  0.8300
  437MOL0     C60172   7.117   9.425   1.132 -0.1981  0.1516 -0.2433
  437MOL0     C60173   7.126   9.410   0.989 -0.1604  0.2281 -0.7529
  437MOL0     C60174   7.239   9.447   0.919 -0.2842  1.0173 -0.3605
  437MOL0     C60175   7.338   9.525   0.988 -0.5751  0.1503 -0.3737
  437MOL0     O60176   7.438   9.586   0.905  1.1263  0.1437 -0.0346
  437MOL0     C60177   7.530   9.667   0.974  0.5492  0.1734  0.2523
  437MOL0     C60178   7.587   9.764   0.872  0.2812  0.3210  0.8714
  437MOL0     C60179   7.699   9.850   0.937 -0.5341  0.1054 -0.2124
  437MOL0     C60180   7.770   9.947   0.847  0.8032 -0.3755  0.7211
  437MOL0     C60181   7.686  10.069   0.794  0.3193  0.2538  0.1097
  437MOL0     C60182   7.707  10.098   0.645  0.2567 -0.1389  0.7768
  437MOL0     C60183   7.853  10.141   0.612 -0.7898 -0.6797 -0.8172
  437MOL0     C60184   7.873  10.290   0.626  0.1047 -0.6732 -0.2982
  437MOL0     N60185   8.008  10.319   0.666 -0.8665  0.2152 -0.3030
  437MOL0     C60186   8.112  10.333   0.576 -0.2492  0.2006 -0.4443
  437MOL0     C60187   8.217  10.370   0.641  0.0293  0.5642 -0.3627
  437MOL0     C60188   8.352  10.405   0.587  0.2750 -0.5821 -0.2418
  437MOL0     C60189   8.407  10.528   0.667  0.2536 -0.4975  0.0670
  437MOL0     C60190   8.328  10.657   0.648  0.1688  0.4706 -0.1107
  437MOL0     C60191   8.400  10.774   0.714 -0.0520 -0.4020  0.2431
  437MOL0     O60192   8.528  10.797   0.639  0.0273  0.3020 -0.5222
  437MOL0     C60193   8.605  10.894   0.694  0.1282 -0.3279  0.0049
  437MOL0     C60194   8.733  10.918   0.640  0.1883  0.5637 -0.2719
  437MOL0     C60195   8.824  11.008   0.691  0.2092 -0.8256  0.4495
  437MOL0     C60196   8.966  11.015   0.640 -0.5187 -0.2285  0.5002
  437MOL0     C60197   8.785  11.098   0.796  0.3318  0.2408  0.9034
  437MOL0     C60198   8.868  11.206   0.856 -0.4830  0.4754 -0.1865
  437MOL0     O60199   8.836  11.246   0.983 -0.3591  0.7433  0.6605
  437MOL0     C60200   8.936  11.298   1.057  0.8411  0.0383 -0.1806
  437MOL0     C60201   9.000  11.425   1.034 -0.6332 -0.2902  0.6741
  437MOL0     C60202   9.105  11.477   1.119  1.4198  0.4405  0.2281
  437MOL0     C60203   9.144  11.405   1.231 -0.0563  0.7947 -0.3019
  437MOL0     O60204   9.255  11.456   1.301  0.8847  0.1073 -0.2141
  437MOL0     C60205   9.312  11.384   1.408 -0.0567  0.9250  0.4001
  437MOL0     C60206   9.430  11.474   1.461  0.0432  0.3801 -0.7668
  437MOL0     C60207   9.501  11.563   1.350  0.2648 -0.5231  0.9341
  437MOL0     C60208   9.617  11.636   1.405 -0.2431  0.4167  0.2960
  437MOL0     C60209   9.665  11.757   1.322  0.2244  0.1076 -0.1654
  437MOL0     C60210   9.763  11.837   1.410 -0.3345 -0.4054  0.3811
  437MOL0     C60211   9.818  11.957   1.329 -0.1461  0.6513 -0.0194
  437MOL0     C60212   9.707  12.054   1.290 -0.6427 -1.1619 -0.9186
  437MOL0    Cl60213   9.590  12.022   1.157  0.0307  0.1086 -0.3242
  437MOL0     C60214   9.072  11.284   1.258 -0.4189  0.0233 -0.6501
  437MOL0     C60215   8.974  11.235   1.175  0.2060 -1.5533  0.1086
  437MOL0     O60216   8.960  11.261   0.790 -0.0342  0.4718 -0.0061
  437MOL0     C60217   8.653  11.091   0.842 -0.3346 -0.1688 -1.3681
  437MOL0     C60218   8.568  10.986   0.799 -0.2439 -0.3660 -0.9670
  437MOL0     N60219   8.179  10.353   0.775 -0.1761 -0.1371 -0.2033
  437MOL0     N60220   8.057  10.320   0.792  0.7365 -0.3778  0.5119
  437MOL0     C60221   7.332   9.534   1.136 -0.0681  0.5773  0.4338
  437MOL0     C60222   7.220   9.484   1.202  0.0851  0.0086 -0.2053
  437MOL0     C60223   6.781   9.422   1.289  0.1586  0.2151  0.1090
  437MOL0     C60224   6.711   9.483   1.396 -0.0039 -0.1707 -1.6616
  437MOL0     C60225   6.580   9.455   1.431 -0.4306 -0.3056 -0.3735
  437MOL0     C60226   6.509   9.358   1.356  0.2928 -0.0243 -0.0066
  437MOL0     O60227   6.396   9.296   1.407 -0.0747 -0.9906 -0.9014
  437MOL0     C60228   6.276   9.361   1.358 -1.0468  0.1722  0.3863
  437MOL0     C60229   6.163   9.288   1.436 -0.7918 -0.0882 -0.0494
  437MOL0     C60230   6.137   9.149   1.380  0.3267  0.0942 -0.2513
  437MOL0     C60231   6.062   9.156   1.243  0.5084 -0.0296 -0.3808
  437MOL0     C60232   5.920   9.165   1.266  0.1133  0.6806  0.3223
  437MOL0     C60233   5.807   9.191   1.260  0.4654 -0.1888 -0.6368
  437MOL0     C60234   6.565   9.323   1.244 -0.3756 -0.0313  1.0571
  437MOL0     C60235   6.698   9.340   1.209 -0.1115 -0.3017 -0.1350
  437MOL0     C60236   6.739   9.268   1.085  0.6007  0.3170 -0.9214
  437MOL0     H60237   7.045   9.358   0.940 -1.4849  2.0798 -0.6439
  437MOL0     H60238   7.239   9.450   0.811 -2.2429 -3.2096 -0.6927
  437MOL0     H60239   7.618   9.614   1.011  1.6157  2.1736  0.7185
  437MOL0     H60240   7.485   9.721   1.057 -2.3788 -1.4760 -0.1287
  437MOL0     H60241   7.617   9.709   0.782  0.0870  2.0663 -0.2999
  437MOL0     H60242   7.502   9.824   0.838 -0.7062 -1.3519  0.2290
  437MOL0     H60243   7.661   9.908   1.022 -2.6845  0.1972 -1.1750
  437MOL0     H60244   7.782   9.790   0.974 -1.3257  1.0103  3.3670
  437MOL0     H60245   7.855   9.984   0.905  1.0082  1.0318 -0.4353
  437MOL0     H60246   7.817   9.889   0.766 -0.1938 -0.5527  0.2555
  437MOL0     H60247   7.701  10.168   0.840  0.4420  2.7685 -4.7478
  437MOL0     H60248   7.582  10.040   0.811  0.9524 -2.1020  0.3484
  437MOL0     H60249   7.704  10.005   0.587  1.7277 -0.0397  0.4945
  437MOL0     H60250   7.634  10.173   0.615 -0.3989 -0.4245  1.6364
  437MOL0     H60251   7.881  10.114   0.510 -1.5024  2.8963 -2.1033
  437MOL0     H60252   7.915  10.084   0.682 -1.7148 -0.0982  0.5321
  437MOL0     H60253   7.843  10.348   0.538  1.6621  0.8004  0.0978
  437MOL0     H60254   7.806  10.330   0.703 -0.3404  1.7511 -1.8216
  437MOL0     H60255   8.100  10.313   0.470  0.7194 -0.8070 -0.3878
  437MOL0     H60256   8.335  10.444   0.486  0.1759 -0.5022 -0.1949
  437MOL0     H60257   8.410  10.312   0.586 -0.1113 -0.8336  0.1000
  437MOL0     H60258   8.418  10.510   0.774 -0.7229 -0.3957  0.1940
  437MOL0     H60259   8.508  10.541   0.626  0.2357 -3.3497 -1.1011
  437MOL0     H60260   8.315  10.679   0.542 -1.5895  0.9073  0.1738
  437MOL0     H60261   8.228  10.654   0.692  0.8623  1.7662  1.7159
  437MOL0     H60262   8.341  10.864   0.697 -2.2783 -1.8449 -0.0923
  437MOL0     H60263   8.420  10.767   0.821  0.3239  0.7313  0.2583
  437MOL0     H60264   8.773  10.849   0.566  1.1112 -3.1782  3.3686
  437MOL0     H60265   9.035  11.015   0.725  0.0570 -0.6555  0.0281
  437MOL0     H60266   8.976  11.100   0.572  1.2991  0.6690  1.7995
  437MOL0     H60267   8.990  10.925   0.583  2.2081  0.6675  0.1067
  437MOL0     H60268   8.976  11.489   0.950  1.0101 -1.2328 -0.5897
  437MOL0     H60269   9.145  11.577   1.108 -2.0526  1.8085 -1.4712
  437MOL0     H60270   9.230  11.375   1.479 -1.4045  1.9335 -0.9824
  437MOL0     H60271   9.347  11.285   1.376 -0.0596  2.0390 -3.6249
  437MOL0     H60272   9.384  11.545   1.530  0.0466 -2.2358  2.1643
  437MOL0     H60273   9.500  11.411   1.517  0.0438 -0.9837 -2.2097
  437MOL0     H60274   9.429  11.634   1.308 -0.0926 -1.5739 -0.3198
  437MOL0     H60275   9.531  11.497   1.268 -0.1059  2.2696 -1.5821
  437MOL0     H60276   9.691  11.556   1.409 -1.5534 -0.8642  0.0424
  437MOL0     H60277   9.595  11.657   1.510 -1.5539 -2.1960  0.6398
  437MOL0     H60278   9.701  11.735   1.221 -0.1098  0.4990 -0.3698
  437MOL0     H60279   9.579  11.822   1.305  0.7654  0.5777 -1.1992
  437MOL0     H60280   9.834  11.760   1.440  0.6286 -0.1208 -1.0818
  437MOL0     H60281   9.702  11.870   1.495 -3.1530 -0.5634 -1.4390
  437MOL0     H60282   9.856  11.927   1.231  1.7254  2.0391  0.2076
  437MOL0     H60283   9.901  12.004   1.383 -1.3501  1.6150  1.0765
  437MOL0     H60284   9.765  12.140   1.256 -1.4779 -1.2308 -2.6055
  437MOL0     H60285   9.657  12.089   1.381 -1.4202  1.2085 -2.1721
  437MOL0     H60286   9.111  11.221   1.338  0.6921 -3.4915 -3.6703
  437MOL0     H60287   8.926  11.142   1.205  0.8035 -1.2576  2.1406
  437MOL0     H60288   8.613  11.153   0.922  4.0986  0.8500  0.4071
  437MOL0     H60289   8.466  10.989   0.837 -0.0686 -2.6056 -0.1576
  437MOL0     H60290   7.408   9.581   1.198 -0.0791  1.2976 -0.0901
  437MOL0     H60291   7.222   9.479   1.311  0.9107 -3.8229 -0.2688
  437MOL0     H60292   6.762   9.553   1.461 -1.4822 -1.6491  1.2744
  437MOL0     H60293   6.544   9.509   1.518  1.4930 -0.0484  0.3061
  437MOL0     H60294   6.273   9.467   1.384 -0.8282  0.2761 -0.0206
  437MOL0     H60295   6.269   9.359   1.249  1.0269  3.2063  0.0968
  437MOL0     H60296   6.069   9.342   1.449 -1.4233 -1.3087  0.7473
  437MOL0     H60297   6.199   9.280   1.540  0.0502  1.0748 -0.2345
  437MOL0     H60298   6.231   9.092   1.380 -0.1262 -0.6779 -0.6601
  437MOL0     H60299   6.080   9.085   1.448 -2.8390  0.4919 -2.3578
  437MOL0     H60300   6.080   9.064   1.187  2.4181 -0.1051  0.2700
  437MOL0     H60301   6.093   9.238   1.178  1.0299 -0.6216 -0.8880
  437MOL0     H60302   5.706   9.224   1.243  1.0840  2.2716  0.0957
  437MOL0     H60303   6.514   9.243   1.191  0.8520 -0.0028 -0.2371
  437MOL0     H60304   6.665   9.189   1.073  0.3901 -1.0647  5.7729
  437MOL0     H60305   6.749   9.335   0.999  2.0814 -1.3535 -2.1453
  437MOL0     H60306   6.835   9.215   1.077  2.1229  2.8875 -0.9634
  438MOL0     O60307   2.825   2.235   2.041 -0.1363  0.3847  0.3952
  438MOL0     C60308   2.814   2.113   2.043  0.1873 -0.4887 -0.0075
  438MOL0     O60309   2.917   2.026   2.063  0.4430 -0.1671 -0.0685
  438MOL0     C60310   3.047   2.076   2.068  0.1751  0.5049  0.6986
  438MOL0     C60311   3.141   1.996   2.001  0.1106 -0.6063  0.4210
  438MOL0     C60312   3.281   2.021   2.006  0.1013 -0.3364 -0.8474
  438MOL0     C60313   3.330   2.140   2.074  0.5382 -0.4213 -0.1100
  438MOL0     O60314   3.464   2.157   2.071  0.6504 -0.5077  1.0160
  438MOL0     C60315   3.525   2.249   2.153 -0.6404 -0.8631 -0.3609
  438MOL0     C60316   3.672   2.220   2.175  0.4083  0.7973  0.4437
  438MOL0     C60317   3.756   2.256   2.060  0.2914 -0.0763  0.7632
  438MOL0     C60318   3.903   2.255   2.093  1.0192 -0.1857 -0.0847
  438MOL0     C60319   3.989   2.299   1.977  0.6863 -0.2574  0.8878
  438MOL0     C60320   4.142   2.290   2.012 -0.8517 -0.7027  0.0018
  438MOL0     C60321   4.192   2.146   2.015  0.1420  0.3461  0.0690
  438MOL0     C60322   4.334   2.136   1.962 -0.2860 -0.5554 -0.5357
  438MOL0     N60323   4.335   2.135   1.810 -0.6115  0.1588 -0.5023
  438MOL0     C60324   4.331   2.248   1.733  0.5209 -0.5215  0.1427
  438MOL0     C60325   4.385   2.211   1.618  0.0862 -0.5310 -0.7072
  438MOL0     C60326   4.389   2.296   1.500  0.7166 -0.8324  0.6257
  438MOL0     C60327   4.510   2.387   1.507  0.2759 -0.3598 -0.1318
  438MOL0     C60328   4.640   2.315   1.474 -0.4320 -0.4976 -0.1189
  438MOL0     C60329   4.766   2.397   1.494 -0.1002  0.4642  1.4143
  438MOL0     O60330   4.758   2.534   1.452  0.2860 -0.1130 -0.4029
  438MOL0     C60331   4.869   2.608   1.415  0.7015  0.1811  0.0307
  438MOL0     C60332   4.843   2.716   1.336  0.2110  0.4891  0.1770
  438MOL0     C60333   4.940   2.801   1.274  0.2951  0.5132 -0.1515
  438MOL0     C60334   4.901   2.915   1.177  0.7466  0.1152 -0.1147
  438MOL0     C60335   5.075   2.776   1.307 -0.1758  0.9343 -0.1529
  438MOL0     C60336   5.188   2.850   1.243 -0.6311 -0.0576 -0.5622
  438MOL0     O60337   5.316   2.803   1.275  0.9542 -0.0832 -0.6218
  438MOL0     C60338   5.433   2.867   1.231  0.3514 -0.7294  0.4462
  438MOL0     C60339   5.501   2.959   1.310  0.3910  0.2446  0.3881
  438MOL0     C60340   5.607   3.028   1.250 -0.0183 -0.2204  0.2735
  438MOL0     C60341   5.655   3.003   1.117  0.4111 -0.7565 -0.8574
  438MOL0     O60342   5.759   3.074   1.072 -0.3171 -0.2307 -0.5272
  438MOL0     C60343   5.839   3.012   0.976 -0.2907  0.2247  0.0271
  438MOL0     C60344   5.918   3.127   0.918  0.1742  1.2002  0.3776
  438MOL0     C60345   5.832   3.232   0.839 -0.4328 -0.0784 -0.4053
  438MOL0     C60346   5.927   3.360   0.822  0.5904 -0.0256 -0.0508
  438MOL0     C60347   5.847   3.476   0.782 -0.1617  0.4518 -0.4995
  438MOL0     C60348   5.944   3.594   0.757  0.2960 -0.6114  0.0366
  438MOL0     C60349   5.878   3.719   0.703  0.5843  0.3629 -0.6360
  438MOL0     C60350   5.918   3.741   0.560 -0.3364 -0.3078  0.5697
  438MOL0    Cl60351   6.081   3.772   0.550  0.5778  0.2070 -0.0750
  438MOL0     C60352   5.590   2.904   1.041 -0.4518 -0.7212  0.0028
  438MOL0     C60353   5.482   2.840   1.096 -0.6240  0.3655 -0.7721
  438MOL0     O60354   5.164   2.954   1.186 -0.7634 -0.5120  0.0133
  438MOL0     C60355   5.101   2.671   1.399 -0.5338  0.4560 -0.7650
  438MOL0     C60356   5.003   2.587   1.445 -0.2427  0.2332 -0.4767
  438MOL0     N60357   4.418   2.079   1.621  0.5069 -0.0565  0.1884
  438MOL0     N60358   4.390   2.034   1.738  0.6764  0.2417 -0.1645
  438MOL0     C60359   3.233   2.215   2.150  0.0915  0.4251  0.0783
  438MOL0     C60360   3.094   2.191   2.141 -0.0037 -0.8793 -0.3012
  438MOL0     C60361   2.679   2.061   2.041  0.3934 -0.4240  0.0387
  438MOL0     C60362   2.575   2.164   2.064  0.5639 -0.0629 -0.1054
  438MOL0     C60363   2.448   2.122   2.087 -0.0796  0.1728  0.4069
  438MOL0     C60364   2.414   1.987   2.092  0.2245 -0.4365  0.1646
  438MOL0     O60365   2.276   1.966   2.110 -0.3061  0.5495 -0.0922
  438MOL0     C60366   2.242   1.966   2.252  0.1833  1.1583 -0.5594
  438MOL0     C60367   2.141   2.073   2.271 -0.5041  0.1899  0.2129
  438MOL0     C60368   2.106   2.078   2.419  0.5303  0.6657  0.5260
  438MOL0     C60369   2.004   2.189   2.445 -0.3575 -0.9043 -0.1214
  438MOL0     C60370   1.866   2.183   2.390 -0.3014 -0.2075  0.7913
  438MOL0     C60371   1.755   2.176   2.357 -0.0417  0.3604  0.2406
  438MOL0     C60372   2.510   1.889   2.061  0.3386  1.2135  0.4868
  438MOL0     C60373   2.646   1.918   2.030  0.9017 -0.6577  0.3696
  438MOL0     C60374   2.736   1.802   1.994  0.5708  0.4792 -0.4764
  438MOL0     H60375   3.109   1.909   1.945  0.6570 -0.8253  0.4388
  438MOL0     H60376   3.347   1.961   1.944  0.4469  0.7631 -1.5649
  438MOL0     H60377   3.472   2.239   2.249 -2.3452 -0.1865 -1.1763
  438MOL0     H60378   3.501   2.348   2.113 -2.3262  0.2346  2.9809
  438MOL0     H60379   3.717   2.272   2.260  2.3441 -0.8745  0.5473
  438MOL0     H60380   3.680   2.112   2.191 -2.8205  0.3516 -0.2529
  438MOL0     H60381   3.747   2.183   1.980  0.8971  0.6343  0.0310
  438MOL0     H60382   3.721   2.348   2.012 -2.3227 -0.4522  1.7791
  438MOL0     H60383   3.907   2.336   2.167  0.0191 -1.4612  1.4441
  438MOL0     H60384   3.923   2.155   2.134  1.4764 -1.0753 -2.3567
  438MOL0     H60385   3.964   2.400   1.944  0.7817 -0.6144 -0.3457
  438MOL0     H60386   3.978   2.229   1.893  0.1914  0.1777  0.5860
  438MOL0     H60387   4.186   2.353   1.934 -0.1719  3.8526  3.6021
  438MOL0     H60388   4.171   2.341   2.105  1.5375  0.1469 -1.1300
  438MOL0     H60389   4.125   2.075   1.966  0.4814 -1.4179  1.9970
  438MOL0     H60390   4.194   2.114   2.120  2.6280 -1.7495 -0.5063
  438MOL0     H60391   4.404   2.212   1.996  1.7568 -1.9805 -1.3631
  438MOL0     H60392   4.377   2.041   1.994 -0.5844 -0.2746  0.7720
  438MOL0     H60393   4.299   2.343   1.774  0.5115 -0.9667  1.2167
  438MOL0     H60394   4.294   2.351   1.501 -0.3336 -2.5567  2.4488
  438MOL0     H60395   4.398   2.240   1.407  0.4394  3.1655 -2.0669
  438MOL0     H60396   4.491   2.462   1.430 -0.1645 -1.6841 -1.3502
  438MOL0     H60397   4.510   2.436   1.605 -2.4000 -2.0936  0.8270
  438MOL0     H60398   4.655   2.229   1.539  0.4760 -0.5735 -0.4053
  438MOL0     H60399   4.629   2.290   1.368 -2.2630  1.2404 -0.4123
  438MOL0     H60400   4.804   2.389   1.596  1.3092  0.2573  0.9114
  438MOL0     H60401   4.839   2.348   1.428 -2.8586  0.0079 -1.5395
  438MOL0     H60402   4.742   2.742   1.306  0.4267  0.7473 -0.3352
  438MOL0     H60403   4.931   3.012   1.218 -0.7438  0.3636  0.4595
  438MOL0     H60404   4.793   2.930   1.163  0.0626 -1.3194  2.8829
  438MOL0     H60405   4.957   2.906   1.083  1.1893 -2.1744  0.3106
  438MOL0     H60406   5.467   2.974   1.412 -3.0513 -1.3011 -0.3995
  438MOL0     H60407   5.659   3.106   1.305  1.3969 -0.4120 -0.7238
  438MOL0     H60408   5.913   2.946   1.023  1.3503  1.1789 -1.1303
  438MOL0     H60409   5.796   2.950   0.897  1.8275 -2.8389  1.0901
  438MOL0     H60410   5.970   3.177   1.000 -0.3786  1.0666  0.8226
  438MOL0     H60411   6.001   3.089   0.857  0.8168 -1.6660  2.8060
  438MOL0     H60412   5.738   3.267   0.883 -1.3761 -3.3448  0.4634
  438MOL0     H60413   5.822   3.198   0.736  0.0224  1.3944 -0.9629
  438MOL0     H60414   5.986   3.339   0.732 -0.8153  2.6547 -1.6962
  438MOL0     H60415   5.991   3.382   0.908  1.0658  1.7309 -0.8129
  438MOL0     H60416   5.790   3.462   0.690 -0.2680  0.9072 -0.5052
  438MOL0     H60417   5.766   3.491   0.855 -1.3822  2.9972 -2.2330
  438MOL0     H60418   6.022   3.563   0.686 -0.5636  0.7761 -1.5766
  438MOL0     H60419   5.987   3.605   0.857 -2.7528  2.8495  1.1590
  438MOL0     H60420   5.911   3.801   0.767  0.9762  0.4653 -0.9687
  438MOL0     H60421   5.771   3.702   0.718  0.5128  1.4881  0.2405
  438MOL0     H60422   5.866   3.830   0.524 -1.9969 -0.6492  1.9692
  438MOL0     H60423   5.888   3.661   0.492 -1.3970  1.2237 -0.8555
  438MOL0     H60424   5.610   2.877   0.938  0.0135 -0.1135 -0.0714
  438MOL0     H60425   5.428   2.771   1.032  0.2090 -1.4973  0.4264
  438MOL0     H60426   5.197   2.652   1.446 -1.7029 -1.8421  0.8784
  438MOL0     H60427   5.020   2.503   1.512 -1.2026 -1.0327 -1.7726
  438MOL0     H60428   3.273   2.306   2.193  1.1214  0.0958 -0.1494
  438MOL0     H60429   3.034   2.274   2.175  0.4613  1.0097 -3.6856
  438MOL0     H60430   2.604   2.268   2.061  1.0076 -0.1858 -3.2660
  438MOL0     H60431   2.382   2.208   2.095  0.6599  0.6373  1.9170
  438MOL0     H60432   2.188   1.877   2.283  0.7347  1.6132  1.9032
  438MOL0     H60433   2.325   1.971   2.323 -0.9550  0.3792  0.8690
  438MOL0     H60434   2.054   2.049   2.209 -0.3393 -3.6462  1.2472
  438MOL0     H60435   2.196   2.164   2.245  1.1242 -0.6593  0.6179
  438MOL0     H60436   2.057   1.987   2.457  1.2655  0.5897  1.3190
  438MOL0     H60437   2.196   2.075   2.481  0.6227 -1.1128  0.3712
  438MOL0     H60438   2.042   2.285   2.409 -0.8959 -0.6040  0.0977
  438MOL0     H60439   1.999   2.198   2.554  1.0762 -2.1812  0.0769
  438MOL0     H60440   1.652   2.166   2.329 -0.0261  0.8030  0.0150
  438MOL0     H60441   2.479   1.785   2.053  0.3140  1.3537 -1.7144
  438MOL0     H60442   2.783   1.774   2.089 -2.0066  1.4120  1.1947
  438MOL0     H60443   2.688   1.707   1.966  1.3216  0.2893 -1.1466
  438MOL0     H60444   2.811   1.831   1.921  0.7985 -0.4930 -0.6453
  439MOL0     O60445   8.949   8.963   0.414  0.2376 -0.1865  0.8247
  439MOL0     C60446   8.993   9.077   0.442  0.5827 -0.3365  0.4989
  439MOL0     O60447   8.980   9.186   0.371 -0.5394 -0.2310  0.4559
  439MOL0     C60448   8.900   9.176   0.258 -0.4153 -0.6050 -0.3015
  439MOL0     C60449   8.766   9.190   0.274  0.2033 -0.7859  0.4530
  439MOL0     C60450   8.675   9.176   0.166 -0.1071  0.4769 -0.1763
  439MOL0     C60451   8.733   9.162   0.038  1.1999 -0.1005  0.5083
  439MOL0     O60452   8.651   9.137  -0.072  0.5207 -0.0966 -0.0634
  439MOL0     C60453   8.552   9.248  -0.097 -1.0514  0.8880  0.1891
  439MOL0     C60454   8.470   9.224  -0.226 -0.3023 -0.8591 -0.0193
  439MOL0     C60455   8.576   9.231  -0.334  1.1462  0.5274 -0.1652
  439MOL0     C60456   8.518   9.231  -0.474 -0.1424 -0.2601  0.2009
  439MOL0     C60457   8.629   9.227  -0.580  0.2610  0.0487  0.2903
  439MOL0     C60458   8.583   9.228  -0.724 -0.3672  0.1340  0.0386
  439MOL0     C60459   8.699   9.264  -0.818 -0.4229 -0.3659 -0.4432
  439MOL0     C60460   8.805   9.156  -0.806  0.3061  0.1736  1.1294
  439MOL0     N60461   8.901   9.177  -0.917 -0.0687 -0.2872  0.1363
  439MOL0     C60462   8.885   9.119  -1.045  0.1526  0.2259  0.4374
  439MOL0     C60463   9.003   9.149  -1.108  0.4788 -0.5352 -0.0871
  439MOL0     C60464   9.024   9.104  -1.245 -0.1150  0.1389  0.6094
  439MOL0     C60465   9.173   9.086  -1.276 -0.6666  0.6578  0.7386
  439MOL0     C60466   9.238   8.963  -1.193  0.6228 -0.9702  0.7392
  439MOL0     C60467   9.395   8.968  -1.192  0.2394  0.0216 -0.0812
  439MOL0     O60468   9.449   8.948  -1.323 -0.5344  0.8069  0.3161
  439MOL0     C60469   9.561   9.018  -1.359  0.3804  0.3500 -0.1865
  439MOL0     C60470   9.574   9.061  -1.494  0.2624 -0.1515 -0.7314
  439MOL0     C60471   9.690   9.121  -1.536  1.2372 -0.7482  1.7796
  439MOL0     C60472   9.702   9.150  -1.686  0.0383 -0.4202  0.7842
  439MOL0     C60473   9.797   9.154  -1.447  0.3788  0.3550  0.2937
  439MOL0     C60474   9.918   9.223  -1.491 -0.0359 -0.6321  0.5881
  439MOL0     O60475   9.978   9.308  -1.400  0.0976 -0.1765  0.1671
  439MOL0     C60476  10.114   9.332  -1.425 -0.2644  1.0395  0.2360
  439MOL0     C60477  10.205   9.233  -1.398 -0.5415 -0.0496 -0.1179
  439MOL0     C60478  10.339   9.254  -1.416  0.0395 -0.7164  0.6875
  439MOL0     C60479  10.385   9.378  -1.477  0.0054  0.6068 -0.5164
  439MOL0     O60480  10.523   9.407  -1.478  0.1323 -0.1650 -0.2589
  439MOL0     C60481  10.571   9.432  -1.610 -0.2009  0.9092 -0.1552
  439MOL0     C60482  10.644   9.562  -1.626  0.1179 -0.4459  0.6150
  439MOL0     C60483  10.792   9.567  -1.582 -0.1763 -0.3062 -0.2612
  439MOL0     C60484  10.836   9.706  -1.559  0.1619  0.5501 -0.2419
  439MOL0     C60485  10.981   9.708  -1.495  0.4830 -0.7798  0.2668
  439MOL0     C60486  11.086   9.663  -1.589 -0.9768 -0.3998  0.4124
  439MOL0     C60487  11.224   9.640  -1.514 -0.7855  0.5369 -0.4045
  439MOL0     C60488  11.216   9.527  -1.410  0.7232 -0.6641 -0.5538
  439MOL0    Cl60489  11.387   9.491  -1.367  0.0570  0.4849 -0.0156
  439MOL0     C60490  10.289   9.470  -1.514  0.3432 -0.5267 -0.3240
  439MOL0     C60491  10.160   9.442  -1.496  0.4611  0.1289  0.1359
  439MOL0     O60492   9.971   9.180  -1.588  0.1154 -0.3965  0.4979
  439MOL0     C60493   9.784   9.110  -1.316 -0.4846 -0.3006 -0.9443
  439MOL0     C60494   9.671   9.041  -1.278  0.1040  0.3221 -0.1686
  439MOL0     N60495   9.078   9.234  -1.026 -0.2713  0.7570 -1.0466
  439MOL0     N60496   9.023   9.241  -0.905 -0.2906  0.6643 -0.0289
  439MOL0     C60497   8.873   9.148   0.021 -0.3501  0.2037  0.0708
  439MOL0     C60498   8.959   9.164   0.129 -0.0595 -0.1719 -0.4732
  439MOL0     C60499   9.082   9.078   0.558  0.0154 -0.4418 -0.8722
  439MOL0     C60500   9.102   8.963   0.635 -0.3575  0.8305 -0.4433
  439MOL0     C60501   9.172   8.968   0.752  0.3971 -0.1330 -0.1559
  439MOL0     C60502   9.242   9.083   0.789 -0.5441 -0.2000 -0.1403
  439MOL0     O60503   9.325   9.078   0.899 -0.6415  0.5163 -0.2558
  439MOL0     C60504   9.262   9.082   1.023  0.7118 -0.4847 -1.0423
  439MOL0     C60505   9.360   9.129   1.131  0.1566  0.6882  0.1363
  439MOL0     C60506   9.445   9.250   1.090 -0.8477 -0.3937  0.9272
  439MOL0     C60507   9.538   9.312   1.200  0.6355 -0.0904 -0.0062
  439MOL0     C60508   9.646   9.223   1.250  0.2392  0.1383 -0.7053
  439MOL0     C60509   9.728   9.144   1.297  0.4836  0.0752 -0.0692
  439MOL0     C60510   9.228   9.196   0.712 -0.6970  0.3262 -0.1885
  439MOL0     C60511   9.150   9.200   0.603  0.2506 -0.3201 -0.3785
  439MOL0     C60512   9.150   9.331   0.521 -0.5124 -0.1621  0.3613
  439MOL0     H60513   8.719   9.206   0.371  2.6416 -0.3943  1.6462
  439MOL0     H60514   8.568   9.182   0.182 -0.4900  0.8313 -2.4240
  439MOL0     H60515   8.606   9.342  -0.090  4.1958 -1.8451  2.0160
  439MOL0     H60516   8.487   9.246  -0.009  3.2717  0.5555  3.6957
  439MOL0     H60517   8.422   9.126  -0.222  1.3231 -2.1690 -5.1675
  439MOL0     H60518   8.382   9.288  -0.240 -3.5507 -5.1113 -1.4946
  439MOL0     H60519   8.632   9.322  -0.313 -1.0165  1.7535  0.6154
  439MOL0     H60520   8.644   9.145  -0.339  1.8462  1.0826 -0.3736
  439MOL0     H60521   8.447   9.149  -0.488  1.4273 -1.2706 -2.3896
  439MOL0     H60522   8.465   9.325  -0.492  2.9150  1.1342 -2.5194
  439MOL0     H60523   8.703   9.150  -0.559  0.9162  0.9068  1.2722
  439MOL0     H60524   8.681   9.320  -0.555  0.6853 -0.9130  3.4091
  439MOL0     H60525   8.541   9.130  -0.750  0.5268 -0.9762  2.4285
  439MOL0     H60526   8.515   9.311  -0.746  3.0604  2.9187 -0.8700
  439MOL0     H60527   8.731   9.361  -0.777  0.0918 -1.1378  1.0526
  439MOL0     H60528   8.666   9.273  -0.921  0.3169 -0.8252 -0.7270
  439MOL0     H60529   8.860   9.163  -0.711 -0.8052 -0.8595  1.8743
  439MOL0     H60530   8.764   9.055  -0.811 -2.9985  1.3412  1.7749
  439MOL0     H60531   8.811   9.051  -1.085  0.3405  0.2271  0.0873
  439MOL0     H60532   8.985   9.175  -1.319 -1.1673 -0.3923  0.6510
  439MOL0     H60533   8.968   9.012  -1.259 -1.6593  1.1434 -0.1050
  439MOL0     H60534   9.196   9.067  -1.381 -3.6005 -0.4275  0.2094
  439MOL0     H60535   9.228   9.172  -1.238  1.5031 -1.1206  1.9001
  439MOL0     H60536   9.196   8.963  -1.092  0.1577 -1.2949  0.5505
  439MOL0     H60537   9.204   8.869  -1.237 -0.2717 -0.6391  0.7003
  439MOL0     H60538   9.433   9.053  -1.135 -2.4483  0.9358  0.4977
  439MOL0     H60539   9.430   8.879  -1.138 -1.0382  1.5795  3.6830
  439MOL0     H60540   9.495   9.031  -1.563 -1.6271 -0.7424  1.5400
  439MOL0     H60541   9.740   9.251  -1.707 -0.3296 -0.9563 -3.2602
  439MOL0     H60542   9.618   9.137  -1.754  1.8137  0.0865 -1.6632
  439MOL0     H60543   9.777   9.076  -1.713  0.4444  0.4628 -0.6281
  439MOL0     H60544  10.172   9.137  -1.361  0.7353 -0.7416 -0.7250
  439MOL0     H60545  10.415   9.179  -1.397 -0.3717 -1.1922  0.4597
  439MOL0     H60546  10.632   9.349  -1.645  2.6118  1.2445  3.3338
  439MOL0     H60547  10.491   9.429  -1.685 -0.6508  0.5549  0.3319
  439MOL0     H60548  10.633   9.599  -1.728 -1.0307 -2.2011  0.0533
  439MOL0     H60549  10.589   9.632  -1.563  0.2182  0.4830 -0.2980
  439MOL0     H60550  10.853   9.512  -1.654 -0.5011 -0.7098 -0.2384
  439MOL0     H60551  10.789   9.515  -1.485  4.0174 -0.9866 -0.3294
  439MOL0     H60552  10.757   9.763  -1.510 -1.7465 -0.7131 -1.6842
  439MOL0     H60553  10.839   9.753  -1.657  0.0730 -2.1382 -1.6367
  439MOL0     H60554  10.993   9.813  -1.467 -2.5783 -0.1569 -0.3413
  439MOL0     H60555  10.969   9.664  -1.395 -1.3374 -0.5380  0.1990
  439MOL0     H60556  11.108   9.728  -1.674  2.0519  0.5010  1.7362
  439MOL0     H60557  11.058   9.570  -1.637 -2.4516 -1.2077  2.6732
  439MOL0     H60558  11.252   9.737  -1.471  0.4769  0.9649 -2.0500
  439MOL0     H60559  11.300   9.608  -1.587  1.0880  0.9058  1.3012
  439MOL0     H60560  11.168   9.439  -1.453 -0.5104 -0.5790  0.5647
  439MOL0     H60561  11.163   9.557  -1.319  0.5506 -2.7162  0.0666
  439MOL0     H60562  10.321   9.556  -1.573 -1.9930  0.9196  0.4065
  439MOL0     H60563  10.087   9.514  -1.532  1.1011  0.6472 -0.1452
  439MOL0     H60564   9.864   9.127  -1.244 -0.1621  0.0137 -1.3690
  439MOL0     H60565   9.656   9.001  -1.178 -2.3236 -1.7352 -1.2220
  439MOL0     H60566   8.887   9.152  -0.087 -0.2938  1.4373  0.1032
  439MOL0     H60567   9.066   9.174   0.122 -0.1007  1.6599  0.7463
  439MOL0     H60568   9.046   8.873   0.613  1.6745 -0.9895  1.3132
  439MOL0     H60569   9.189   8.878   0.810  0.7322 -0.4554 -0.7440
  439MOL0     H60570   9.168   9.136   1.022  0.3074 -1.0481  0.8346
  439MOL0     H60571   9.228   8.981   1.049 -1.2420 -0.8252 -4.4551
  439MOL0     H60572   9.427   9.044   1.145  2.5944  2.3537 -0.7652
  439MOL0     H60573   9.302   9.153   1.221  0.0725  1.9608 -0.2377
  439MOL0     H60574   9.510   9.225   1.006 -0.3970  0.1053  1.1253
  439MOL0     H60575   9.376   9.327   1.053  0.3481 -0.3623 -1.4009
  439MOL0     H60576   9.483   9.346   1.289 -0.0712 -1.8628  0.2686
  439MOL0     H60577   9.588   9.401   1.162 -1.3309  0.9886 -0.1784
  439MOL0     H60578   9.792   9.064   1.329 -1.4410 -1.4265  0.2136
  439MOL0     H60579   9.285   9.282   0.746 -3.9090  2.0467  1.2184
  439MOL0     H60580   9.207   9.414   0.563  0.6431 -0.2105 -1.0411
  439MOL0     H60581   9.193   9.310   0.423 -2.9710 -3.4158 -0.1911
  439MOL0     H60582   9.046   9.363   0.518 -1.2140 -2.3214 -0.9349
  440MOL0     O60583   1.717  10.422   4.250 -0.1511  0.3321 -0.2617
  440MOL0     C60584   1.662  10.351   4.160  0.2690  0.5443 -0.3044
  440MOL0     O60585   1.715  10.252   4.083 -0.6862 -0.7496 -0.3495
  440MOL0     C60586   1.826  10.183   4.124 -0.0615 -0.0156  0.0738
  440MOL0     C60587   1.837  10.117   4.248  0.1837 -0.0673  0.3109
  440MOL0     C60588   1.963  10.051   4.282 -1.0955  0.8079 -0.8318
  440MOL0     C60589   2.065  10.036   4.184  0.6410  0.3889 -0.2700
  440MOL0     O60590   2.188   9.982   4.204 -0.1874  0.5045 -0.1320
  440MOL0     C60591   2.230   9.967   4.341 -0.1392  0.4014  0.1782
  440MOL0     C60592   2.383   9.942   4.331  0.1105 -0.2474 -0.0530
  440MOL0     C60593   2.472  10.052   4.261 -0.0024  0.2688 -0.6554
  440MOL0     C60594   2.626  10.011   4.266 -0.4145 -0.9482  0.5192
  440MOL0     C60595   2.714  10.100   4.178  0.4801  0.1035  0.9980
  440MOL0     C60596   2.725  10.236   4.231  0.1045 -0.0967 -0.7761
  440MOL0     C60597   2.817  10.323   4.142  0.0008 -0.1137 -0.6735
  440MOL0     C60598   2.965  10.301   4.186  0.5490  0.2607 -0.2754
  440MOL0     N60599   3.060  10.306   4.078 -0.3471  0.3003  0.1589
  440MOL0     C60600   3.141  10.417   4.044 -0.1484  0.4383 -0.0733
  440MOL0     C60601   3.203  10.381   3.928  0.0622 -0.1443 -0.1215
  440MOL0     C60602   3.294  10.476   3.865  0.3255  0.2315 -0.3625
  440MOL0     C60603   3.429  10.413   3.832 -0.6723 -0.1175 -0.7892
  440MOL0     C60604   3.446  10.313   3.725 -0.2019  0.0377 -0.2655
  440MOL0     C60605   3.391  10.356   3.595  0.3180  0.6697  0.3122
  440MOL0     O60606   3.449  10.277   3.491 -0.4718 -0.5783 -0.5529
  440MOL0     C60607   3.581  10.292   3.453  0.3652 -0.3333 -0.5027
  440MOL0     C60608   3.619  10.186   3.367  0.2761  0.0051  0.0052
  440MOL0     C60609   3.756  10.178   3.319  0.0155 -0.4018  0.4782
  440MOL0     C60610   3.790  10.061   3.227 -0.4772 -0.3346 -0.0670
  440MOL0     C60611   3.852  10.262   3.376  0.5631 -0.6679  0.1390
  440MOL0     C60612   4.000  10.239   3.370  0.2101 -0.1584 -0.1705
  440MOL0     O60613   4.074  10.320   3.451  0.4046 -0.2905 -0.5106
  440MOL0     C60614   4.214  10.310   3.470  0.1671  0.3124  0.6592
  440MOL0     C60615   4.263  10.185   3.500  0.4269 -0.3008 -0.8814
  440MOL0     C60616   4.395  10.167   3.527 -0.1925  1.0254  0.4510
  440MOL0     C60617   4.485  10.277   3.514 -0.6009 -0.1499 -0.3480
  440MOL0     O60618   4.620  10.238   3.515  0.8883  1.0996 -0.1786
  440MOL0     C60619   4.690  10.246   3.638 -0.0879 -0.3681 -0.3276
  440MOL0     C60620   4.837  10.302   3.611 -0.4755  0.0805 -0.3785
  440MOL0     C60621   4.821  10.450   3.578 -1.4743  0.2784  0.5950
  440MOL0     C60622   4.941  10.492   3.508 -0.0110  0.1248  1.5315
  440MOL0     C60623   4.933  10.643   3.487  0.3539 -0.6354 -0.2060
  440MOL0     C60624   5.068  10.711   3.463 -0.0457 -1.2126  0.0406
  440MOL0     C60625   5.035  10.853   3.420 -0.7213 -0.5577 -0.2161
  440MOL0     C60626   5.162  10.940   3.453 -0.8907  0.2822  0.7460
  440MOL0    Cl60627   5.320  10.870   3.411  0.0309  0.1027 -0.1215
  440MOL0     C60628   4.444  10.413   3.498 -0.1839  0.1053  0.0715
  440MOL0     C60629   4.303  10.426   3.482  0.5245 -0.6866 -0.6774
  440MOL0     O60630   4.058  10.148   3.302  0.5627  0.1384  0.0206
  440MOL0     C60631   3.803  10.373   3.450  0.0495 -0.3977  0.0535
  440MOL0     C60632   3.673  10.385   3.488  0.7229 -0.5892  0.5377
  440MOL0     N60633   3.160  10.246   3.896 -0.6580 -0.1120 -0.4705
  440MOL0     N60634   3.077  10.201   3.987  0.9849 -0.0021 -1.0551
  440MOL0     C60635   2.038  10.078   4.054  0.5055 -0.9758 -1.3632
  440MOL0     C60636   1.921  10.148   4.027 -0.0503  0.2313  0.9024
  440MOL0     C60637   1.521  10.386   4.132 -0.1892  0.3827 -0.3693
  440MOL0     C60638   1.442  10.287   4.065  0.6456  0.3983  1.2159
  440MOL0     C60639   1.305  10.295   4.045 -0.4052 -0.4861 -0.0361
  440MOL0     C60640   1.248  10.415   4.086  0.4673  0.3204 -0.2528
  440MOL0     O60641   1.116  10.416   4.056  0.1866 -0.1689 -0.1524
  440MOL0     C60642   1.045  10.531   4.090 -0.0563 -0.5689  0.5125
  440MOL0     C60643   0.910  10.537   4.014  0.2890 -0.4387  0.6947
  440MOL0     C60644   0.788  10.452   4.059  0.3522  0.7439  0.1998
  440MOL0     C60645   0.679  10.442   3.954  0.2289 -0.0592  0.6326
  440MOL0     C60646   0.547  10.420   4.036  0.0134 -0.5021  0.9102
  440MOL0     C60647   0.467  10.391   4.109  0.0487  0.0064 -1.4785
  440MOL0     C60648   1.326  10.523   4.139 -0.4283 -0.9262 -0.1166
  440MOL0     C60649   1.455  10.508   4.166 -0.5744  0.3864  0.4806
  440MOL0     C60650   1.525  10.621   4.229  0.2621  0.1735 -0.3705
  440MOL0     H60651   1.759  10.120   4.323  0.2045 -0.1281  0.3347
  440MOL0     H60652   1.979  10.012   4.382 -0.8430  1.4311 -0.6227
  440MOL0     H60653   2.185   9.879   4.387 -0.1291  0.1260 -0.3321
  440MOL0     H60654   2.210  10.065   4.386 -1.3842  0.4835 -0.5105
  440MOL0     H60655   2.425   9.931   4.432 -0.2023 -1.4565 -0.0398
  440MOL0     H60656   2.395   9.848   4.277  2.5628  0.9729 -1.7913
  440MOL0     H60657   2.443  10.062   4.156  2.4218  1.1152 -1.2953
  440MOL0     H60658   2.456  10.147   4.314 -1.2716 -1.1981  1.7887
  440MOL0     H60659   2.662  10.029   4.368  1.1621  0.2063 -0.2094
  440MOL0     H60660   2.645   9.907   4.237  2.2027 -0.7650  1.3243
  440MOL0     H60661   2.675  10.108   4.076  0.0333  2.2246  1.2860
  440MOL0     H60662   2.818  10.065   4.169  0.0896 -0.6006 -1.4443
  440MOL0     H60663   2.625  10.278   4.242  0.7857  1.7120 -1.0638
  440MOL0     H60664   2.761  10.242   4.334 -0.1943  0.1520 -0.6846
  440MOL0     H60665   2.787  10.428   4.152 -3.0605 -0.9530 -0.1244
  440MOL0     H60666   2.800  10.291   4.039  0.8250  0.0609 -0.8772
  440MOL0     H60667   2.977  10.394   4.243 -1.7044  1.2614 -1.3159
  440MOL0     H60668   2.988  10.210   4.242  1.8291  0.6112 -0.1958
  440MOL0     H60669   3.145  10.512   4.097  0.0792  2.4038 -3.3136
  440MOL0     H60670   3.303  10.557   3.938  2.2126 -1.7950  1.8413
  440MOL0     H60671   3.245  10.514   3.775  0.5731  3.8506  0.8554
  440MOL0     H60672   3.507  10.489   3.821  1.8383 -2.5149 -0.6860
  440MOL0     H60673   3.453  10.367   3.929  0.3670 -0.1245 -1.0316
  440MOL0     H60674   3.546  10.269   3.720 -0.4808 -0.5172 -1.1234
  440MOL0     H60675   3.398  10.221   3.759  2.0049  0.1558  3.9008
  440MOL0     H60676   3.282  10.348   3.595  0.0079  3.3757  2.2341
  440MOL0     H60677   3.416  10.461   3.575 -2.0510  0.7757 -2.9208
  440MOL0     H60678   3.549  10.107   3.341 -0.2277  0.1545  0.8616
  440MOL0     H60679   3.857   9.994   3.283 -0.9050  0.2565  1.2014
  440MOL0     H60680   3.841  10.092   3.136 -0.6520  0.6765  0.1707
  440MOL0     H60681   3.702  10.003   3.197  1.0595 -3.2477  0.6387
  440MOL0     H60682   4.191  10.105   3.512 -3.0145  2.5688 -1.0137
  440MOL0     H60683   4.450  10.075   3.549  0.8094  1.3354 -0.6392
  440MOL0     H60684   4.641  10.304   3.716 -1.2679 -0.7549 -0.7621
  440MOL0     H60685   4.698  10.144   3.678 -0.8126  0.7260  2.9065
  440MOL0     H60686   4.903  10.294   3.697  0.5974  1.1274 -1.0843
  440MOL0     H60687   4.889  10.231   3.546  4.0399  2.3651  0.3980
  440MOL0     H60688   4.798  10.513   3.665  0.3175  1.8902 -0.0121
  440MOL0     H60689   4.745  10.466   3.501  1.0201  0.6047 -1.9824
  440MOL0     H60690   4.954  10.449   3.408  0.2523  1.5567  0.9178
  440MOL0     H60691   5.026  10.462   3.570  0.3585 -3.6000 -0.4970
  440MOL0     H60692   4.880  10.659   3.392  2.9476  2.8622 -1.3045
  440MOL0     H60693   4.871  10.695   3.561 -2.8485 -2.1766 -1.5952
  440MOL0     H60694   5.119  10.662   3.379 -1.0839 -1.3987 -0.5073
  440MOL0     H60695   5.128  10.699   3.553  2.6417 -0.1719 -1.5066
  440MOL0     H60696   4.954  10.892   3.482  1.5530  3.4639  0.5635
  440MOL0     H60697   5.007  10.847   3.314 -0.5589  0.0176 -0.2926
  440MOL0     H60698   5.166  10.941   3.562  2.7965  0.7719  0.7526
  440MOL0     H60699   5.149  11.032   3.396  0.5521 -0.6148 -1.1562
  440MOL0     H60700   4.515  10.495   3.504 -0.3656  0.2734 -0.0149
  440MOL0     H60701   4.257  10.524   3.480 -0.5360 -1.1179  0.7606
  440MOL0     H60702   3.868  10.447   3.495 -0.3468  0.6460 -1.0066
  440MOL0     H60703   3.631  10.469   3.542 -1.9593 -0.3263 -1.7728
  440MOL0     H60704   2.118  10.063   3.982  1.7925  0.3513 -0.2510
  440MOL0     H60705   1.906  10.196   3.930 -0.0920  0.1740  0.8808
  440MOL0     H60706   1.491  10.195   4.033 -1.3345  0.0898 -1.2697
  440MOL0     H60707   1.250  10.211   4.004  1.6656 -2.4541  1.0124
  440MOL0     H60708   1.027  10.531   4.198 -1.5864 -0.4552  0.2788
  440MOL0     H60709   1.107  10.613   4.052 -1.0240  0.4630  1.0958
  440MOL0     H60710   0.932  10.522   3.908 -1.1644  2.2363 -0.0637
  440MOL0     H60711   0.878  10.641   4.010  1.5030 -0.0428  0.9506
  440MOL0     H60712   0.804  10.349   4.092 -0.5887 -0.5976 -3.2158
  440MOL0     H60713   0.741  10.508   4.141  0.0943 -0.1535  0.6779
  440MOL0     H60714   0.696  10.364   3.880  0.6941 -0.3366  1.0248
  440MOL0     H60715   0.676  10.528   3.887 -1.9328 -0.4646  0.1334
  440MOL0     H60716   0.384  10.365   4.171 -0.4784  3.3242 -0.5884
  440MOL0     H60717   1.282  10.617   4.172  1.3691 -0.3194  0.7481
  440MOL0     H60718   1.632  10.623   4.206  0.5522  0.0463  0.8775
  440MOL0     H60719   1.493  10.724   4.211  2.3729  0.8289 -0.6383
  440MOL0     H60720   1.518  10.614   4.338 -2.3479  1.8234 -0.3747
  441MOL0     O60721   4.330   0.242   3.676  0.6378  0.7458 -0.1831
  441MOL0     C60722   4.299   0.357   3.716 -0.0106 -1.0308  0.4554
  441MOL0     O60723   4.371   0.467   3.699  0.0776 -0.1311 -0.3174
  441MOL0     C60724   4.506   0.450   3.685  0.4910  0.1814 -0.1867
  441MOL0     C60725   4.597   0.409   3.786 -0.8263 -0.4765 -1.0091
  441MOL0     C60726   4.737   0.389   3.761  0.0065  0.9427  0.4250
  441MOL0     C60727   4.788   0.413   3.637  0.5105 -1.0431  0.6980
  441MOL0     O60728   4.918   0.370   3.622 -0.5594 -0.2338 -0.5879
  441MOL0     C60729   4.980   0.369   3.491 -0.1610  0.0027 -0.6727
  441MOL0     C60730   5.125   0.301   3.493 -0.3727 -0.5526  0.7442
  441MOL0     C60731   5.228   0.400   3.545  0.5234 -0.5199 -0.6810
  441MOL0     C60732   5.367   0.376   3.508 -0.5348  0.6205 -0.3535
  441MOL0     C60733   5.465   0.464   3.568  0.0695  0.1853 -0.4794
  441MOL0     C60734   5.452   0.611   3.525  0.0192  0.3157  0.2835
  441MOL0     C60735   5.523   0.707   3.626  0.5827  0.0933  0.3524
  441MOL0     C60736   5.443   0.765   3.747  0.2233  0.8489 -0.4432
  441MOL0     N60737   5.345   0.672   3.806 -0.4598  0.0203 -0.0201
  441MOL0     C60738   5.214   0.666   3.759 -0.6176 -0.2082  0.1925
  441MOL0     C60739   5.147   0.607   3.859 -0.2702  0.4413 -0.3500
  441MOL0     C60740   4.997   0.595   3.859  0.2729  0.3961  0.2579
  441MOL0     C60741   4.936   0.672   3.974  0.9229  0.0665  0.0922
  441MOL0     C60742   4.956   0.826   3.959 -0.3934  0.2746  0.7101
  441MOL0     C60743   4.870   0.891   4.066  0.1189  0.1597 -0.8378
  441MOL0     O60744   4.900   1.027   4.094  0.6374 -0.6199 -0.2172
  441MOL0     C60745   4.804   1.098   4.157 -0.5964  0.1991  0.2829
  441MOL0     C60746   4.708   1.043   4.240  0.3006  0.4298  0.4476
  441MOL0     C60747   4.609   1.121   4.298 -0.0986 -0.9175  0.6646
  441MOL0     C60748   4.488   1.070   4.370  0.1398 -0.7142 -1.2475
  441MOL0     C60749   4.611   1.260   4.269 -0.1811 -0.5719  0.0681
  441MOL0     C60750   4.499   1.359   4.314 -0.7872  0.6292  0.1741
  441MOL0     O60751   4.458   1.442   4.214  0.4756 -0.0183 -0.2068
  441MOL0     C60752   4.379   1.557   4.231 -0.2061 -0.0280 -0.7343
  441MOL0     C60753   4.311   1.604   4.344  0.6491  0.4879 -0.7264
  441MOL0     C60754   4.233   1.716   4.345  0.2238 -0.3664 -0.0903
  441MOL0     C60755   4.225   1.803   4.236  0.0947 -0.4580 -0.5879
  441MOL0     O60756   4.154   1.920   4.240 -0.0579  0.3283  0.7887
  441MOL0     C60757   4.189   2.004   4.356  0.4530 -0.5637  0.0749
  441MOL0     C60758   4.166   2.156   4.334 -0.1762 -0.2851 -0.0619
  441MOL0     C60759   4.234   2.209   4.204  0.2804 -0.0012  0.2965
  441MOL0     C60760   4.175   2.349   4.182  0.0778 -0.5273  0.0335
  441MOL0     C60761   4.260   2.418   4.068  0.1156  0.1186 -1.0559
  441MOL0     C60762   4.389   2.473   4.132  0.6476 -0.5776  0.2547
  441MOL0     C60763   4.469   2.551   4.028 -1.3756  0.0109 -0.0708
  441MOL0     C60764   4.568   2.650   4.102  1.0877 -0.6639 -1.1449
  441MOL0    Cl60765   4.656   2.756   3.994  0.2595 -0.0465  0.1427
  441MOL0     C60766   4.313   1.771   4.129 -0.1060 -0.1584  0.4934
  441MOL0     C60767   4.388   1.651   4.125  0.4149 -0.0264  0.4350
  441MOL0     O60768   4.478   1.365   4.433  0.2236 -0.1455 -0.3264
  441MOL0     C60769   4.709   1.312   4.187 -0.5609  0.5926  0.2546
  441MOL0     C60770   4.801   1.229   4.122  0.0433 -0.3811 -0.3985
  441MOL0     N60771   5.237   0.569   3.964  0.9149 -0.9542  0.6275
  441MOL0     N60772   5.353   0.613   3.929 -0.0276 -0.0517  0.3456
  441MOL0     C60773   4.695   0.470   3.537 -0.5357  0.5736  0.5312
  441MOL0     C60774   4.561   0.490   3.561 -0.2740 -0.3552  0.1069
  441MOL0     C60775   4.161   0.383   3.769  0.3012 -0.4875  0.2662
  441MOL0     C60776   4.110   0.519   3.768  0.6738  0.4403  0.0682
  441MOL0     C60777   3.977   0.542   3.798 -0.2240 -0.0197 -0.1246
  441MOL0     C60778   3.882   0.445   3.846  0.2906 -0.1746  0.7987
  441MOL0     O60779   3.758   0.476   3.873 -0.1724 -0.0234  0.0362
  441MOL0     C60780   3.665   0.367   3.906  0.0602 -0.5330  0.4790
  441MOL0     C60781   3.529   0.433   3.901  0.2209 -0.7644 -0.1162
  441MOL0     C60782   3.420   0.330   3.924 -0.3066 -0.5297  0.9661
  441MOL0     C60783   3.275   0.374   3.927 -0.4431 -0.2000  1.1210
  441MOL0     C60784   3.248   0.482   4.023  0.0997  0.0600  0.0758
  441MOL0     C60785   3.220   0.557   4.114  0.2042  0.0989 -0.1114
  441MOL0     C60786   3.937   0.313   3.853  0.2419 -0.3775  0.4051
  441MOL0     C60787   4.073   0.285   3.816  0.2117 -0.0360  0.0113
  441MOL0     C60788   4.124   0.139   3.833  0.1377  0.2479  0.6756
  441MOL0     H60789   4.564   0.391   3.888 -3.2884  0.2200 -1.6274
  441MOL0     H60790   4.809   0.350   3.833  2.3068  1.1206 -1.6370
  441MOL0     H60791   4.985   0.470   3.449 -4.2968  0.6050 -0.1281
  441MOL0     H60792   4.923   0.304   3.423 -1.0354  3.5927 -3.6814
  441MOL0     H60793   5.122   0.209   3.552 -1.5664 -0.4355  0.8836
  441MOL0     H60794   5.159   0.276   3.392 -0.8922  1.3737  0.0588
  441MOL0     H60795   5.199   0.501   3.514 -0.4472 -1.2779 -2.3528
  441MOL0     H60796   5.217   0.397   3.654  2.4921 -0.2439 -0.4501
  441MOL0     H60797   5.380   0.275   3.549  0.0100  1.4993  1.7802
  441MOL0     H60798   5.388   0.380   3.401 -1.1581  0.3617 -0.4897
  441MOL0     H60799   5.566   0.425   3.550  0.1530  0.6709 -1.1098
  441MOL0     H60800   5.453   0.462   3.677 -2.0489 -0.8151 -0.6800
  441MOL0     H60801   5.489   0.624   3.423  0.5450 -0.5457  0.3532
  441MOL0     H60802   5.346   0.639   3.526  0.0788  0.5703 -0.2478
  441MOL0     H60803   5.547   0.796   3.567 -0.7709 -0.2955 -0.8326
  441MOL0     H60804   5.607   0.651   3.669  0.9964  1.5445  1.4849
  441MOL0     H60805   5.512   0.797   3.826 -0.3395  2.7358 -0.6683
  441MOL0     H60806   5.379   0.844   3.709  2.5639  2.2651 -1.6536
  441MOL0     H60807   5.164   0.711   3.674 -1.0111  1.2920  1.1794
  441MOL0     H60808   4.956   0.494   3.869  0.3659  0.3423  0.1011
  441MOL0     H60809   4.965   0.629   3.760  2.1782 -0.2077 -0.6004
  441MOL0     H60810   4.830   0.645   3.964  1.4919 -1.6354 -2.5237
  441MOL0     H60811   4.983   0.650   4.070  1.5632 -0.3016 -0.2967
  441MOL0     H60812   5.061   0.851   3.977  0.2546 -0.8452 -1.2560
  441MOL0     H60813   4.947   0.863   3.857  1.5509 -0.4786  0.2171
  441MOL0     H60814   4.768   0.871   4.032  0.5984  0.7778 -2.7444
  441MOL0     H60815   4.893   0.839   4.160  1.1449  1.4017 -0.3764
  441MOL0     H60816   4.712   0.942   4.278  2.2328  0.1786 -0.2864
  441MOL0     H60817   4.497   1.102   4.475 -0.9713 -1.2324 -0.9796
  441MOL0     H60818   4.486   0.960   4.372  0.7597 -0.7416  1.2026
  441MOL0     H60819   4.398   1.107   4.321  2.0156  2.6103 -2.4664
  441MOL0     H60820   4.321   1.551   4.439 -2.4212 -1.2604 -1.2634
  441MOL0     H60821   4.180   1.732   4.438 -2.7579 -1.9111 -1.3760
  441MOL0     H60822   4.138   1.966   4.444  1.8224 -1.0418  0.6911
  441MOL0     H60823   4.295   1.992   4.379  0.9218 -0.1260 -1.7070
  441MOL0     H60824   4.058   2.162   4.319 -0.6093 -0.8833  2.4618
  441MOL0     H60825   4.201   2.213   4.420  1.7445  0.0958 -1.0303
  441MOL0     H60826   4.214   2.150   4.114 -3.1536 -1.0674  1.5962
  441MOL0     H60827   4.342   2.210   4.223  0.9436  1.5396 -2.9000
  441MOL0     H60828   4.191   2.408   4.273 -1.7008  2.0340 -1.2171
  441MOL0     H60829   4.069   2.341   4.156 -0.1049 -1.0027  0.8751
  441MOL0     H60830   4.271   2.354   3.981  0.9383 -0.7623 -0.3354
  441MOL0     H60831   4.211   2.511   4.037 -0.4527  0.1354 -0.1571
  441MOL0     H60832   4.440   2.386   4.174  0.2829 -1.2846 -0.7274
  441MOL0     H60833   4.367   2.540   4.216 -0.2262 -1.2897  0.6103
  441MOL0     H60834   4.406   2.611   3.962 -0.6719  2.7584  1.5591
  441MOL0     H60835   4.532   2.481   3.973 -0.8154 -3.2202  4.1573
  441MOL0     H60836   4.632   2.601   4.177  0.0535  0.6580  0.6973
  441MOL0     H60837   4.500   2.715   4.158 -3.7163 -4.5037 -1.8503
  441MOL0     H60838   4.311   1.849   4.054 -0.8781  0.3656  1.0425
  441MOL0     H60839   4.448   1.625   4.038 -0.9773 -0.2849 -0.4770
  441MOL0     H60840   4.721   1.418   4.165 -0.7270  0.1698 -2.1709
  441MOL0     H60841   4.865   1.277   4.048 -2.3748  3.6254 -0.1813
  441MOL0     H60842   4.725   0.481   3.433 -1.0580 -1.8847  0.0571
  441MOL0     H60843   4.495   0.523   3.481 -1.8989 -2.0705  0.6474
  441MOL0     H60844   4.173   0.602   3.735 -0.2729  1.2516  0.2614
  441MOL0     H60845   3.943   0.644   3.808 -1.2510 -0.4548  1.2267
  441MOL0     H60846   3.673   0.298   3.822 -0.0301  0.6281 -0.5143
  441MOL0     H60847   3.696   0.316   3.997  1.5916  2.4474  1.7575
  441MOL0     H60848   3.516   0.485   3.805  1.2811 -0.2872 -0.0096
  441MOL0     H60849   3.529   0.510   3.978  2.1171 -1.0635  0.2196
  441MOL0     H60850   3.428   0.247   3.853 -0.7108  0.6797 -0.5633
  441MOL0     H60851   3.443   0.280   4.018  1.3978 -0.4900  0.6010
  441MOL0     H60852   3.202   0.294   3.945 -0.7130 -0.7930 -2.1009
  441MOL0     H60853   3.254   0.414   3.827  1.8365  0.6958  0.9224
  441MOL0     H60854   3.193   0.608   4.204  1.6705 -1.8263  1.5098
  441MOL0     H60855   3.881   0.227   3.889  4.2173 -3.6259 -0.3784
  441MOL0     H60856   4.225   0.136   3.875  0.0376 -0.7157  0.8677
  441MOL0     H60857   4.064   0.078   3.900  0.3583 -0.2076  0.4589
  441MOL0     H60858   4.131   0.089   3.736  0.5075  2.9239 -0.7978
  442MOL0     O60859   8.269   7.549   3.348 -0.0591 -0.4501 -0.3999
  442MOL0     C60860   8.245   7.431   3.367  0.4499  0.4986  0.5303
  442MOL0     O60861   8.321   7.343   3.442 -0.6923 -0.4662 -0.7160
  442MOL0     C60862   8.435   7.389   3.503 -0.5748  0.1880 -0.2855
  442MOL0     C60863   8.424   7.451   3.625  0.1951  0.2375  0.5548
  442MOL0     C60864   8.539   7.462   3.708 -0.2496 -0.2186 -0.8264
  442MOL0     C60865   8.669   7.418   3.659  0.1772 -0.0639 -0.7754
  442MOL0     O60866   8.784   7.417   3.727 -0.4921  0.6773 -0.2553
  442MOL0     C60867   8.811   7.498   3.835  0.0623 -0.1864 -0.1208
  442MOL0     C60868   8.857   7.633   3.785 -0.2680 -0.6476 -0.3836
  442MOL0     C60869   8.752   7.731   3.714 -0.9730 -0.2406 -0.3588
  442MOL0     C60870   8.779   7.873   3.767  0.1298  0.1647 -0.2860
  442MOL0     C60871   8.927   7.931   3.751 -0.1809 -0.3160 -0.4922
  442MOL0     C60872   8.936   8.086   3.801  0.1424  1.0876 -0.6321
  442MOL0     C60873   9.080   8.129   3.781 -0.7148 -0.3505  0.1963
  442MOL0     C60874   9.108   8.271   3.847 -0.8100 -0.2925 -0.6606
  442MOL0     N60875   9.178   8.258   3.979 -0.6575 -0.7700  0.7344
  442MOL0     C60876   9.305   8.320   3.992  0.3494  1.1073  0.7138
  442MOL0     C60877   9.352   8.276   4.114  0.1360 -0.8054 -0.3337
  442MOL0     C60878   9.489   8.305   4.170  0.2631 -0.7976 -0.7415
  442MOL0     C60879   9.585   8.207   4.118 -0.7348  0.2556 -0.1221
  442MOL0     C60880   9.646   8.228   3.977  0.1815 -0.0760  0.2204
  442MOL0     C60881   9.775   8.150   3.941 -0.3899 -0.0032 -0.4220
  442MOL0     O60882   9.869   8.148   4.049 -0.4697 -0.0445  0.2977
  442MOL0     C60883   9.976   8.057   4.043 -0.0538 -0.8655 -0.1882
  442MOL0     C60884   9.996   7.947   3.962 -0.4392 -0.8236  0.1716
  442MOL0     C60885  10.123   7.873   3.954  0.4735 -1.0265 -0.1358
  442MOL0     C60886  10.124   7.758   3.852  0.2945  0.0098 -0.3547
  442MOL0     C60887  10.236   7.920   4.037  0.2877 -0.0154  0.0675
  442MOL0     C60888  10.366   7.854   4.030 -0.1297  0.3108 -0.1657
  442MOL0     O60889  10.449   7.865   4.139 -0.2926 -0.2386  0.0370
  442MOL0     C60890  10.573   7.812   4.142  0.4736  0.2705  0.2060
  442MOL0     C60891  10.624   7.693   4.083 -1.1887 -0.2373  0.0589
  442MOL0     C60892  10.764   7.669   4.088  0.4069  0.1650 -0.0529
  442MOL0     C60893  10.849   7.745   4.168  0.5443  0.2245 -0.0314
  442MOL0     O60894  10.976   7.697   4.177  0.3502 -0.0485 -0.1162
  442MOL0     C60895  11.052   7.777   4.261  0.9813 -0.6081  1.0284
  442MOL0     C60896  11.192   7.716   4.273  0.5385  0.3524  0.8465
  442MOL0     C60897  11.256   7.681   4.136 -0.5686  0.5603  0.3097
  442MOL0     C60898  11.412   7.651   4.145  0.8711  0.0731  0.6612
  442MOL0     C60899  11.472   7.592   4.015 -0.4181  0.7807  0.6203
  442MOL0     C60900  11.620   7.627   4.010  0.0184 -0.3438  0.1417
  442MOL0     C60901  11.700   7.541   3.919  0.0243 -0.1174  0.3328
  442MOL0     C60902  11.850   7.551   3.938 -0.3374  0.4301 -0.0441
  442MOL0    Cl60903  11.904   7.713   3.927 -0.5524  0.4614 -0.1887
  442MOL0     C60904  10.801   7.860   4.224 -1.3618 -1.0483  0.0400
  442MOL0     C60905  10.667   7.889   4.217  1.0489 -0.0528 -0.7164
  442MOL0     O60906  10.397   7.790   3.931  0.3933  0.0174 -0.0659
  442MOL0     C60907  10.214   8.019   4.128  0.2248 -0.9817 -0.4810
  442MOL0     C60908  10.090   8.087   4.127  0.3982 -0.2080 -0.3588
  442MOL0     N60909   9.265   8.195   4.167  0.5593  0.4339  0.6594
  442MOL0     N60910   9.159   8.187   4.091  1.0588  0.3684  0.7849
  442MOL0     C60911   8.672   7.369   3.532 -0.4359  0.1153 -0.5833
  442MOL0     C60912   8.559   7.352   3.450  0.2391 -0.3535  0.6225
  442MOL0     C60913   8.129   7.375   3.280 -0.9927 -0.4036 -0.0712
  442MOL0     C60914   8.112   7.239   3.289 -0.1994  0.0704  0.6945
  442MOL0     C60915   8.017   7.173   3.218 -1.1566 -0.5444 -0.8687
  442MOL0     C60916   7.935   7.239   3.133  0.2560 -0.0584 -0.0451
  442MOL0     O60917   7.827   7.189   3.061  0.6745 -0.7610  0.1930
  442MOL0     C60918   7.860   7.095   2.963  0.6144  0.4181 -0.3424
  442MOL0     C60919   7.925   7.167   2.843 -0.5920  0.5826 -0.3129
  442MOL0     C60920   7.840   7.176   2.718 -0.5352  0.4095 -0.6513
  442MOL0     C60921   7.756   7.298   2.714  0.0956 -0.3220  0.2005
  442MOL0     C60922   7.714   7.302   2.575 -0.0980 -0.3132  1.5169
  442MOL0     C60923   7.674   7.282   2.451 -0.1648  0.2119 -0.2202
  442MOL0     C60924   7.959   7.374   3.117 -0.2609 -0.8673 -0.0210
  442MOL0     C60925   8.055   7.446   3.186  0.3721 -0.4579 -0.8092
  442MOL0     C60926   8.050   7.597   3.173 -0.2496  0.2723 -0.1437
  442MOL0     H60927   8.324   7.480   3.653 -0.9107 -3.6302  1.1863
  442MOL0     H60928   8.528   7.484   3.814  1.7251 -3.3943  0.1654
  442MOL0     H60929   8.893   7.458   3.894  1.5983  0.2255 -1.8830
  442MOL0     H60930   8.720   7.501   3.896  0.6800 -1.7090  0.9441
  442MOL0     H60931   8.891   7.670   3.882 -0.9651 -0.7341 -0.0989
  442MOL0     H60932   8.937   7.624   3.712  0.5893 -0.4262  0.5065
  442MOL0     H60933   8.774   7.728   3.607  1.3718  0.3442  0.0510
  442MOL0     H60934   8.650   7.692   3.721 -1.0490 -1.2187 -4.4378
  442MOL0     H60935   8.711   7.948   3.727 -1.3178  1.3534  3.8694
  442MOL0     H60936   8.748   7.881   3.871 -0.5562  0.8657 -0.5367
  442MOL0     H60937   8.963   7.934   3.648 -0.6414  3.0580 -0.6929
  442MOL0     H60938   8.993   7.871   3.813 -0.5457  0.9829  1.2472
  442MOL0     H60939   8.865   8.144   3.742  2.0286  0.8050 -3.4266
  442MOL0     H60940   8.895   8.086   3.902  0.3913 -3.3966 -0.3436
  442MOL0     H60941   9.105   8.133   3.675  0.1397 -0.7763  0.3706
  442MOL0     H60942   9.152   8.057   3.821 -0.6919 -0.4605 -0.0372
  442MOL0     H60943   9.165   8.330   3.774  0.8684 -1.0590 -0.0413
  442MOL0     H60944   9.013   8.322   3.862 -0.0108  1.2715 -0.7029
  442MOL0     H60945   9.346   8.389   3.919 -1.5297 -0.3377 -1.8761
  442MOL0     H60946   9.472   8.295   4.277 -0.8507  0.9370 -0.7299
  442MOL0     H60947   9.520   8.408   4.151  1.7053 -0.9096  0.8765
  442MOL0     H60948   9.674   8.193   4.181 -0.6273 -3.2985 -0.8467
  442MOL0     H60949   9.540   8.107   4.115 -1.3788  0.4611  1.5044
  442MOL0     H60950   9.585   8.191   3.893  2.2551 -1.2260 -0.8577
  442MOL0     H60951   9.665   8.335   3.965 -5.0921  1.3206  1.6755
  442MOL0     H60952   9.741   8.054   3.900 -0.8354  0.6501 -1.6435
  442MOL0     H60953   9.823   8.191   3.851 -0.1186 -0.5697 -0.5460
  442MOL0     H60954   9.919   7.904   3.899 -0.7957 -0.1184  0.1279
  442MOL0     H60955  10.164   7.795   3.757  0.8827 -0.0633 -0.1393
  442MOL0     H60956  10.022   7.721   3.841  0.7666 -2.4449  2.2398
  442MOL0     H60957  10.183   7.676   3.894  0.0882  0.4247  0.7952
  442MOL0     H60958  10.545   7.635   4.036 -1.9949 -1.3346  2.6072
  442MOL0     H60959  10.801   7.576   4.046 -0.7283 -0.8113  1.0290
  442MOL0     H60960  11.059   7.872   4.207  0.4086 -0.2482  1.5667
  442MOL0     H60961  11.003   7.783   4.359 -1.3282 -2.7930  0.1020
  442MOL0     H60962  11.258   7.786   4.326 -1.9959  3.1882  0.5157
  442MOL0     H60963  11.187   7.622   4.329  1.1824 -0.3396 -0.2258
  442MOL0     H60964  11.236   7.756   4.059  0.3441 -0.3064 -0.8045
  442MOL0     H60965  11.207   7.591   4.098  1.2957  0.3870 -1.9231
  442MOL0     H60966  11.411   7.579   4.228  1.8452  0.5857  1.1316
  442MOL0     H60967  11.462   7.740   4.185 -2.1297  1.5592  1.3881
  442MOL0     H60968  11.452   7.485   4.009  1.3687  0.2585  2.5751
  442MOL0     H60969  11.424   7.647   3.934 -1.2433 -0.9080 -0.0850
  442MOL0     H60970  11.667   7.621   4.108  1.0810  0.7308 -0.2743
  442MOL0     H60971  11.627   7.731   3.976 -1.5952  0.3190  1.6499
  442MOL0     H60972  11.680   7.578   3.819  0.9141 -1.0627 -0.2196
  442MOL0     H60973  11.662   7.439   3.910  0.8849 -0.3639 -0.7862
  442MOL0     H60974  11.903   7.487   3.868  0.0714 -2.0864  2.3964
  442MOL0     H60975  11.874   7.520   4.040 -0.8308  0.0855 -0.0303
  442MOL0     H60976  10.861   7.940   4.267 -0.7703 -0.0614 -2.4684
  442MOL0     H60977  10.638   7.984   4.259  0.7545 -0.3949 -0.1289
  442MOL0     H60978  10.277   8.061   4.206 -3.5500  1.8795  1.3433
  442MOL0     H60979  10.087   8.172   4.193  2.2576  0.9405 -1.6523
  442MOL0     H60980   8.767   7.333   3.496 -1.3823 -1.9246 -1.1963
  442MOL0     H60981   8.568   7.308   3.351  0.0666  0.8583  0.0525
  442MOL0     H60982   8.159   7.177   3.365 -0.4536 -1.3533 -0.2567
  442MOL0     H60983   7.992   7.070   3.243  0.3713 -0.2801  2.3335
  442MOL0     H60984   7.930   7.026   3.011 -0.6600 -0.3681  0.4455
  442MOL0     H60985   7.781   7.034   2.919 -0.2016 -0.0607  1.6887
  442MOL0     H60986   8.017   7.111   2.826  0.7661  2.8936 -1.0520
  442MOL0     H60987   7.961   7.266   2.873 -3.7297  2.7869 -3.1375
  442MOL0     H60988   7.906   7.180   2.630 -1.3380 -1.8706 -1.4341
  442MOL0     H60989   7.784   7.083   2.710  1.5207 -0.7649 -2.7381
  442MOL0     H60990   7.815   7.387   2.735  2.1143 -2.0224  2.2806
  442MOL0     H60991   7.674   7.288   2.786  0.2304  1.9817  0.7478
  442MOL0     H60992   7.654   7.252   2.350 -0.4213 -1.9480  0.4206
  442MOL0     H60993   7.899   7.421   3.039  2.9117 -2.1437 -3.5498
  442MOL0     H60994   8.023   7.626   3.275 -2.1130 -0.6992 -0.3100
  442MOL0     H60995   8.147   7.633   3.138 -0.1552  4.4599  3.5304
  442MOL0     H60996   7.964   7.640   3.119  1.2131  1.9247 -1.2643
  443MOL0     O60997   5.507  10.883   9.488  0.2672  0.3117 -0.0399
  443MOL0     C60998   5.460  10.989   9.447  0.2173  0.4919 -0.5251
  443MOL0     O60999   5.535  11.102   9.431 -0.3609 -0.0123  0.1720
  443MOL0     C61000   5.647  11.135   9.513  0.1757  0.5128  0.8278
  443MOL0     C61001   5.667  11.092   9.642  0.8560  0.0152  0.4783
  443MOL0     C61002   5.774  11.134   9.717 -0.0548  0.5677 -0.8679
  443MOL0     C61003   5.874  11.214   9.676 -0.3307  0.5453  0.4845
  443MOL0     O61004   5.978  11.258   9.756  0.6898  0.3876 -0.1903
  443MOL0     C61005   5.962  11.399   9.784  0.0070  0.3855  0.8977
  443MOL0     C61006   6.101  11.455   9.807 -0.2714 -0.1337 -0.3908
  443MOL0     C61007   6.096  11.604   9.838 -0.2196  0.0234 -0.5807
  443MOL0     C61008   6.247  11.660   9.848  0.9328 -0.6906  0.3295
  443MOL0     C61009   6.236  11.808   9.879 -0.0359  0.0161  0.1419
  443MOL0     C61010   6.371  11.869   9.927 -0.8614  0.7422 -0.8642
  443MOL0     C61011   6.374  12.022   9.940  0.3884  0.4610 -0.1435
  443MOL0     C61012   6.372  12.094   9.812 -0.3044 -0.4395 -0.7100
  443MOL0     N61013   6.351  12.236   9.825 -0.3711 -1.3989 -0.0183
  443MOL0     C61014   6.425  12.320   9.900  0.2338  0.5073 -0.9334
  443MOL0     C61015   6.355  12.431   9.906 -0.2205  0.2129 -0.8466
  443MOL0     C61016   6.399  12.553   9.995  0.6623  0.9845  0.0630
  443MOL0     C61017   6.496  12.654   9.933 -0.2395  0.5883 -0.7515
  443MOL0     C61018   6.628  12.582   9.900 -0.0437 -0.9242 -0.1547
  443MOL0     C61019   6.723  12.692   9.839 -0.6647 -0.7490 -0.4795
  443MOL0     O61020   6.862  12.649   9.814  0.5292 -0.7948 -0.5729
  443MOL0     C61021   6.935  12.739   9.739  0.6063 -0.1619 -0.6715
  443MOL0     C61022   6.879  12.870   9.697  0.5580 -0.0577  0.0573
  443MOL0     C61023   6.955  12.961   9.621  0.0875 -1.3331  0.2034
  443MOL0     C61024   6.874  13.088   9.581  0.2880  0.4803 -0.2851
  443MOL0     C61025   7.087  12.930   9.583 -0.1470  0.0067  0.1367
  443MOL0     C61026   7.165  13.032   9.510 -0.9333  0.4376  0.1671
  443MOL0     O61027   7.289  12.984   9.481  0.4458  0.2708  0.4883
  443MOL0     C61028   7.372  13.046   9.396  0.5069  0.6088 -0.3411
  443MOL0     C61029   7.394  12.989   9.271  0.1197 -0.2171  0.0960
  443MOL0     C61030   7.467  13.061   9.169  0.3554  0.4323  0.3169
  443MOL0     C61031   7.532  13.176   9.202 -0.5973 -0.2230 -0.8440
  443MOL0     O61032   7.617  13.238   9.109 -0.2613  0.0730 -0.3798
  443MOL0     C61033   7.711  13.149   9.051 -0.7679  0.3712 -0.0132
  443MOL0     C61034   7.793  13.212   8.944 -0.0806 -0.4739 -0.3204
  443MOL0     C61035   7.895  13.114   8.863  0.2233 -0.4188 -0.1515
  443MOL0     C61036   7.980  13.205   8.783 -0.1206  0.3581 -0.1271
  443MOL0     C61037   8.072  13.131   8.689  0.0486  0.2382  0.3970
  443MOL0     C61038   8.202  13.081   8.761  0.3140  1.1947  0.1817
  443MOL0     C61039   8.274  12.977   8.669 -0.7513 -0.2001 -0.1524
  443MOL0     C61040   8.421  12.969   8.717 -0.1951  0.2373 -0.6454
  443MOL0    Cl61041   8.502  13.124   8.688  0.1982  0.0583  0.2131
  443MOL0     C61042   7.502  13.233   9.325 -0.4684 -0.1036  0.0387
  443MOL0     C61043   7.419  13.173   9.416 -0.4564 -0.4185 -0.2241
  443MOL0     O61044   7.126  13.143   9.476  0.3259 -0.8402  0.3439
  443MOL0     C61045   7.137  12.807   9.618 -0.2471  1.4064 -0.2226
  443MOL0     C61046   7.056  12.712   9.687 -0.0355 -0.0035  0.5902
  443MOL0     N61047   6.236  12.415   9.826  0.5973  0.5238  0.1628
  443MOL0     N61048   6.238  12.294   9.779  0.1819  0.0168 -0.1777
  443MOL0     C61049   5.861  11.261   9.547 -0.1514  0.1529 -0.7710
  443MOL0     C61050   5.751  11.225   9.463  0.6697  0.4842 -0.2090
  443MOL0     C61051   5.329  10.993   9.397  0.5944 -0.6070  0.0172
  443MOL0     C61052   5.263  11.115   9.381 -0.1888  0.3123 -0.5980
  443MOL0     C61053   5.144  11.122   9.305 -0.2180 -0.4672 -1.0233
  443MOL0     C61054   5.072  11.018   9.262  0.2805  0.2820  0.1715
  443MOL0     O61055   4.943  11.038   9.216  0.6186  0.0717  0.1770
  443MOL0     C61056   4.856  10.927   9.186  0.8001  0.6082 -0.7627
  443MOL0     C61057   4.746  11.000   9.109 -0.2408 -0.1689  0.2867
  443MOL0     C61058   4.792  11.024   8.963 -0.0713 -0.1917 -0.5120
  443MOL0     C61059   4.698  11.105   8.879  0.3178  0.1838 -0.4983
  443MOL0     C61060   4.563  11.034   8.888 -0.0660  0.3807  0.0179
  443MOL0     C61061   4.453  10.987   8.892  0.4182  0.4650  1.0134
  443MOL0     C61062   5.133  10.895   9.296 -0.3332 -0.0192  0.5984
  443MOL0     C61063   5.258  10.884   9.352 -0.3402  1.0547 -0.4810
  443MOL0     C61064   5.306  10.736   9.357 -0.3278 -0.0208 -1.0847
  443MOL0     H61065   5.594  11.022   9.683  1.6174 -0.6464  0.7253
  443MOL0     H61066   5.795  11.103   9.819 -1.3610  2.7283  0.1219
  443MOL0     H61067   5.889  11.415   9.864 -1.4111 -0.5685 -0.1474
  443MOL0     H61068   5.922  11.458   9.701 -1.0343  0.5352  1.4915
  443MOL0     H61069   6.157  11.406   9.887 -0.5151  0.0251 -0.1186
  443MOL0     H61070   6.158  11.454   9.714  0.7401  0.8660  0.1931
  443MOL0     H61071   6.043  11.656   9.758 -1.1763 -1.3929 -0.9022
  443MOL0     H61072   6.033  11.629   9.925 -0.6725  0.7788 -1.1119
  443MOL0     H61073   6.307  11.599   9.916 -0.9254 -1.9919  0.8932
  443MOL0     H61074   6.288  11.652   9.748 -0.2622  0.9527 -0.3539
  443MOL0     H61075   6.153  11.822   9.948  0.5685  1.3580  0.6208
  443MOL0     H61076   6.216  11.864   9.787 -2.4565  0.9065  1.1522
  443MOL0     H61077   6.407  11.820  10.018  0.5323  2.4140 -0.4572
  443MOL0     H61078   6.441  11.826   9.855  0.7418 -2.1148  2.0976
  443MOL0     H61079   6.466  12.061   9.984 -1.6707  4.0655  1.3370
  443MOL0     H61080   6.291  12.053  10.003 -1.3159 -2.2559 -0.8620
  443MOL0     H61081   6.473  12.081   9.771 -0.5583  1.0402 -1.8636
  443MOL0     H61082   6.296  12.051   9.746 -1.5323  0.8087 -0.1326
  443MOL0     H61083   6.515  12.302   9.958 -1.0964  0.7591  1.3740
  443MOL0     H61084   6.428  12.514  10.093 -0.6207  0.1740  0.1439
  443MOL0     H61085   6.304  12.605  10.009 -0.4638 -0.7505 -0.7273
  443MOL0     H61086   6.449  12.678   9.837 -0.8512  2.0351 -0.1172
  443MOL0     H61087   6.508  12.739  10.001 -0.5413  0.9410 -1.1374
  443MOL0     H61088   6.677  12.545   9.990  1.2515 -2.3175 -1.3764
  443MOL0     H61089   6.626  12.500   9.827  2.1616 -0.2615 -1.0271
  443MOL0     H61090   6.670  12.725   9.749  1.0315  2.2249 -0.5039
  443MOL0     H61091   6.732  12.784   9.899  1.2596 -0.7198 -0.7768
  443MOL0     H61092   6.778  12.898   9.724  0.9493  1.6905 -0.1879
  443MOL0     H61093   6.775  13.095   9.629  0.2557  0.3398 -0.3320
  443MOL0     H61094   6.880  13.088   9.472  0.2892 -0.6228 -0.2969
  443MOL0     H61095   6.921  13.182   9.612 -0.7311  0.5402  1.2002
  443MOL0     H61096   7.348  12.895   9.243 -1.6719  1.1710 -1.9466
  443MOL0     H61097   7.465  13.037   9.063 -2.0697 -0.0857  0.4211
  443MOL0     H61098   7.782  13.116   9.128  1.5461  0.6718 -1.8806
  443MOL0     H61099   7.665  13.059   9.011 -0.3492  0.5065 -0.8099
  443MOL0     H61100   7.731  13.279   8.884  1.4250 -0.6866 -2.1975
  443MOL0     H61101   7.862  13.280   8.995  0.1399 -0.7969 -0.1789
  443MOL0     H61102   7.839  13.041   8.805  1.4731 -0.7959 -0.9244
  443MOL0     H61103   7.961  13.055   8.927 -1.5148 -1.8663  0.3727
  443MOL0     H61104   8.041  13.255   8.859  0.0401 -3.3975  2.5196
  443MOL0     H61105   7.915  13.277   8.732 -0.2807 -0.9373 -1.8270
  443MOL0     H61106   8.028  13.039   8.651  0.3431  0.1235  0.3282
  443MOL0     H61107   8.097  13.190   8.600 -1.0944  0.3371  0.1278
  443MOL0     H61108   8.188  13.035   8.859 -0.9765 -0.1049 -0.5713
  443MOL0     H61109   8.268  13.166   8.780  0.9384  0.9293 -0.6803
  443MOL0     H61110   8.273  13.006   8.564  0.0141  1.0073  0.1641
  443MOL0     H61111   8.230  12.877   8.678  3.5400 -2.5228 -1.8105
  443MOL0     H61112   8.475  12.891   8.662  0.4170  0.1975 -0.0003
  443MOL0     H61113   8.422  12.941   8.823 -1.8288  0.3843 -0.5602
  443MOL0     H61114   7.554  13.327   9.340  0.4631 -0.7510  1.0039
  443MOL0     H61115   7.420  13.211   9.518 -1.0360 -0.6991 -0.1039
  443MOL0     H61116   7.230  12.772   9.576 -0.7688  0.2263 -0.4195
  443MOL0     H61117   7.093  12.610   9.688  0.7794  0.2849  1.3928
  443MOL0     H61118   5.943  11.307   9.493 -1.1145  0.6772 -1.8319
  443MOL0     H61119   5.737  11.272   9.366 -1.8808  4.1865  1.7105
  443MOL0     H61120   5.322  11.202   9.410  1.9994 -1.3582  0.2415
  443MOL0     H61121   5.094  11.219   9.296  0.9943  0.4994  1.6760
  443MOL0     H61122   4.907  10.848   9.130 -2.6594 -2.5052  0.0381
  443MOL0     H61123   4.815  10.882   9.277  2.5018 -0.9827 -0.7321
  443MOL0     H61124   4.729  11.096   9.158  0.0082 -0.0481  0.1370
  443MOL0     H61125   4.663  10.928   9.116  0.3882 -0.8656  0.8677
  443MOL0     H61126   4.888  11.076   8.957 -1.0670  1.7717 -0.1928
  443MOL0     H61127   4.796  10.926   8.915 -0.8830  0.8869 -2.9645
  443MOL0     H61128   4.730  11.108   8.774 -1.7583  2.7454 -1.1645
  443MOL0     H61129   4.678  11.205   8.917 -0.8506 -0.4317  0.5992
  443MOL0     H61130   4.353  10.951   8.886  0.1329  1.3920 -0.3251
  443MOL0     H61131   5.087  10.799   9.273  1.5483 -1.8079  3.6353
  443MOL0     H61132   5.371  10.710   9.441  0.2628  3.8607 -0.1522
  443MOL0     H61133   5.217  10.672   9.347  0.3618 -1.5326  1.4555
  443MOL0     H61134   5.365  10.711   9.268  1.3843 -1.0088  0.2722
  444MOL0     O61135   0.863   7.173   7.024  0.9839  0.4104 -0.1742
  444MOL0     C61136   0.921   7.179   6.918 -0.2765 -0.3932 -0.7943
  444MOL0     O61137   1.059   7.176   6.901 -0.6247  0.1964 -0.9810
  444MOL0     C61138   1.156   7.185   6.997  0.1243  0.0388  0.5635
  444MOL0     C61139   1.135   7.177   7.137 -0.1772  0.1576  0.0802
  444MOL0     C61140   1.243   7.186   7.228  0.0154  0.1244  0.3418
  444MOL0     C61141   1.371   7.199   7.180  0.0191  0.2552 -0.5789
  444MOL0     O61142   1.483   7.186   7.263  0.4244 -0.0819 -0.0205
  444MOL0     C61143   1.479   7.262   7.386 -0.1873 -0.4338  0.6152
  444MOL0     C61144   1.626   7.286   7.420  0.3447  0.3448  0.2096
  444MOL0     C61145   1.679   7.173   7.497  1.3794  0.0177  0.5141
  444MOL0     C61146   1.644   7.156   7.639 -0.3436  0.5791  0.2466
  444MOL0     C61147   1.759   7.063   7.689 -0.3806  0.3887 -0.7869
  444MOL0     C61148   1.748   7.065   7.840  1.1320  0.1248 -0.6422
  444MOL0     C61149   1.841   6.960   7.901  0.0896 -0.2094  0.8132
  444MOL0     C61150   1.993   6.996   7.877 -0.4789 -0.1932  0.2886
  444MOL0     N61151   2.075   6.918   7.974 -0.4899  0.5008  0.5459
  444MOL0     C61152   2.087   6.940   8.111  0.3879  1.3395 -0.2141
  444MOL0     C61153   2.181   6.867   8.159  0.1015  1.2675  1.0480
  444MOL0     C61154   2.227   6.851   8.309 -0.3601  0.4030  0.2456
  444MOL0     C61155   2.378   6.875   8.342 -0.0256 -0.2576  0.0763
  444MOL0     C61156   2.471   6.778   8.266 -0.0901  0.0689 -0.2069
  444MOL0     C61157   2.616   6.811   8.287  0.5842 -0.2447 -0.2692
  444MOL0     O61158   2.649   6.844   8.418  0.3486 -0.0303  0.3819
  444MOL0     C61159   2.777   6.898   8.433  0.4370  0.7456 -0.3248
  444MOL0     C61160   2.824   6.925   8.558 -0.7800  0.0616 -0.0608
  444MOL0     C61161   2.955   6.971   8.584 -0.0534 -0.8186  0.3167
  444MOL0     C61162   2.993   6.985   8.731 -0.1656  0.7246 -0.2479
  444MOL0     C61163   3.037   7.013   8.473 -0.1964  0.2826  0.2302
  444MOL0     C61164   3.176   7.055   8.495 -0.2740 -1.1882  0.3694
  444MOL0     O61165   3.265   7.054   8.387  0.0061  0.1349  0.5542
  444MOL0     C61166   3.381   7.126   8.389  0.1165  0.5112  0.4020
  444MOL0     C61167   3.393   7.264   8.386  0.3882 -0.8683  0.1670
  444MOL0     C61168   3.509   7.325   8.410 -0.0601 -0.3129  0.1051
  444MOL0     C61169   3.623   7.250   8.443  0.1832 -0.6513 -0.4312
  444MOL0     O61170   3.746   7.314   8.438 -0.2439 -0.5887  0.1335
  444MOL0     C61171   3.787   7.357   8.306 -0.0471 -0.2920  0.3894
  444MOL0     C61172   3.847   7.243   8.224  0.4597  0.6284 -1.2265
  444MOL0     C61173   3.911   7.283   8.095  0.4029  0.2808 -0.1113
  444MOL0     C61174   4.043   7.347   8.127  0.5841 -0.0475  0.6404
  444MOL0     C61175   4.102   7.418   8.003 -0.9822 -0.1479 -0.4023
  444MOL0     C61176   4.245   7.448   8.034  0.3406  0.0058 -0.3658
  444MOL0     C61177   4.297   7.522   7.920  0.5953  0.4600  0.7225
  444MOL0     C61178   4.445   7.526   7.923  0.1767  0.0656 -0.0192
  444MOL0    Cl61179   4.484   7.604   7.768  0.0267 -0.0996 -0.2197
  444MOL0     C61180   3.616   7.111   8.444  0.3939 -0.4942  0.0449
  444MOL0     C61181   3.494   7.048   8.420  0.1001  0.3794 -0.1932
  444MOL0     O61182   3.205   7.115   8.602  0.2733  0.8420 -0.2744
  444MOL0     C61183   2.992   6.990   8.341  0.0907 -0.5685 -0.1310
  444MOL0     C61184   2.860   6.935   8.330  0.3794 -1.4295 -0.0211
  444MOL0     N61185   2.232   6.786   8.053  0.0880 -0.8561 -0.0978
  444MOL0     N61186   2.172   6.819   7.944  0.3755 -0.2845 -0.1481
  444MOL0     C61187   1.392   7.211   7.047 -0.4400  1.3462 -0.7532
  444MOL0     C61188   1.288   7.189   6.959 -0.2234  0.0773 -0.9836
  444MOL0     C61189   0.841   7.205   6.796  0.1676  0.0783  0.1505
  444MOL0     C61190   0.898   7.298   6.706  0.2819 -0.3715 -0.6248
  444MOL0     C61191   0.822   7.364   6.610  0.0743  0.5945  0.2284
  444MOL0     C61192   0.690   7.326   6.602 -0.4302  0.4027 -0.3727
  444MOL0     O61193   0.606   7.379   6.509  0.2674  1.1522  0.9608
  444MOL0     C61194   0.665   7.428   6.381  0.0654 -0.5478  0.6119
  444MOL0     C61195   0.564   7.411   6.271 -0.6395 -1.1156 -0.2022
  444MOL0     C61196   0.545   7.274   6.223  0.2369 -0.1697  0.3634
  444MOL0     C61197   0.457   7.261   6.090  0.1694  0.5024 -0.5243
  444MOL0     C61198   0.312   7.292   6.114 -0.1644 -0.4431  0.1253
  444MOL0     C61199   0.200   7.342   6.116  0.2736  0.1173  0.3421
  444MOL0     C61200   0.630   7.235   6.685  0.3022 -0.5809  0.4376
  444MOL0     C61201   0.704   7.167   6.779  0.6993 -0.3995  0.2696
  444MOL0     C61202   0.632   7.068   6.860 -0.4809  0.0672  0.2545
  444MOL0     H61203   1.034   7.173   7.176 -1.0562 -1.5639 -2.1615
  444MOL0     H61204   1.220   7.176   7.334 -1.2558 -1.1884 -0.0250
  444MOL0     H61205   1.427   7.215   7.469  1.9627 -1.0037  1.7215
  444MOL0     H61206   1.438   7.358   7.354  1.2947  0.4373  1.2255
  444MOL0     H61207   1.684   7.306   7.330  1.8254 -4.1179 -0.0530
  444MOL0     H61208   1.634   7.378   7.479  1.3688  1.0440 -0.9795
  444MOL0     H61209   1.646   7.081   7.449 -1.0129  0.9577  0.2123
  444MOL0     H61210   1.787   7.185   7.483  1.7101 -1.6193  1.4505
  444MOL0     H61211   1.654   7.248   7.696  0.2861 -1.2205  3.2452
  444MOL0     H61212   1.545   7.115   7.659 -0.8833  2.3379  1.3246
  444MOL0     H61213   1.859   7.106   7.683 -0.1020 -0.2568 -0.7453
  444MOL0     H61214   1.763   6.966   7.639 -1.7828 -0.9445  1.4822
  444MOL0     H61215   1.769   7.166   7.877 -1.6990 -0.2319  2.5288
  444MOL0     H61216   1.645   7.048   7.874  1.3614 -3.0523 -1.2652
  444MOL0     H61217   1.833   6.865   7.849  1.2937  0.4998 -0.7476
  444MOL0     H61218   1.818   6.942   8.006 -0.7938 -0.5333  0.5674
  444MOL0     H61219   2.014   6.982   7.770 -3.0055 -3.7609  0.0626
  444MOL0     H61220   2.014   7.102   7.890  0.9164 -0.2646 -1.0790
  444MOL0     H61221   2.011   6.987   8.172 -0.8824  1.4067 -1.7860
  444MOL0     H61222   2.211   6.750   8.347  1.9951  0.0053  0.3164
  444MOL0     H61223   2.160   6.909   8.373 -0.7214  0.7681 -0.4525
  444MOL0     H61224   2.418   6.976   8.325 -1.4781  0.1637 -1.0646
  444MOL0     H61225   2.385   6.873   8.451 -2.0667 -0.8257  0.2312
  444MOL0     H61226   2.447   6.678   8.304 -2.2729 -0.6669 -3.1323
  444MOL0     H61227   2.466   6.777   8.157 -1.2937 -1.7886 -0.1865
  444MOL0     H61228   2.676   6.724   8.257 -1.4527 -2.1077  0.7296
  444MOL0     H61229   2.640   6.894   8.220  0.7665 -0.6238 -0.6839
  444MOL0     H61230   2.756   6.912   8.641 -1.1831  0.2022 -0.3665
  444MOL0     H61231   2.902   6.981   8.792  0.1386 -1.8263  0.1473
  444MOL0     H61232   3.042   7.077   8.762  1.8465  0.1405 -1.5065
  444MOL0     H61233   3.055   6.904   8.769 -1.1146  0.9596  1.9350
  444MOL0     H61234   3.308   7.325   8.356 -1.6668 -3.2744  0.7429
  444MOL0     H61235   3.511   7.433   8.413 -0.7636 -0.1483 -2.5756
  444MOL0     H61236   3.707   7.404   8.249 -0.2260 -1.0915 -0.0363
  444MOL0     H61237   3.867   7.431   8.317 -1.4375  1.1000  1.7569
  444MOL0     H61238   3.928   7.185   8.269  0.1877  0.4127 -1.0160
  444MOL0     H61239   3.763   7.177   8.200 -1.1490  1.5775  1.3738
  444MOL0     H61240   3.846   7.357   8.046  1.4684 -0.1419 -2.3007
  444MOL0     H61241   3.918   7.183   8.051 -0.7822 -0.2361  0.8201
  444MOL0     H61242   4.108   7.264   8.157  0.1150 -0.5859  0.1773
  444MOL0     H61243   4.038   7.418   8.209  2.5032  0.1899  0.6128
  444MOL0     H61244   4.099   7.344   7.923  2.1790  1.5790 -2.3565
  444MOL0     H61245   4.038   7.501   7.970  0.6445  1.1038 -0.5746
  444MOL0     H61246   4.295   7.351   8.039 -1.0035 -0.6765  0.4528
  444MOL0     H61247   4.263   7.514   8.120 -3.3840  1.2062 -0.3364
  444MOL0     H61248   4.251   7.622   7.914  2.5097  1.4527  1.8463
  444MOL0     H61249   4.261   7.470   7.830  0.0145  1.3489  0.4217
  444MOL0     H61250   4.486   7.424   7.920  2.6888  1.0143 -2.6941
  444MOL0     H61251   4.484   7.587   8.004 -2.4607  2.5288 -0.4468
  444MOL0     H61252   3.701   7.044   8.458  0.3838 -0.8479 -1.4120
  444MOL0     H61253   3.484   6.940   8.428 -4.8554  0.3767 -2.6250
  444MOL0     H61254   3.055   7.017   8.258  0.7228 -0.1789  0.4636
  444MOL0     H61255   2.842   6.925   8.224 -0.8981  2.5576 -0.3461
  444MOL0     H61256   1.491   7.219   7.005  0.1823  0.3307  0.4405
  444MOL0     H61257   1.302   7.174   6.852  0.3084 -2.7514 -0.5976
  444MOL0     H61258   1.003   7.325   6.713  0.0199  0.7425 -0.8063
  444MOL0     H61259   0.875   7.434   6.547  0.5278 -3.0509 -3.8620
  444MOL0     H61260   0.701   7.531   6.392  2.0433 -1.0911 -0.4800
  444MOL0     H61261   0.746   7.358   6.359 -1.7981 -1.8858 -2.5928
  444MOL0     H61262   0.604   7.468   6.188 -1.5928  2.5764  1.6643
  444MOL0     H61263   0.465   7.453   6.293  0.2088  1.6231 -1.1907
  444MOL0     H61264   0.645   7.233   6.207  0.2477 -0.6053  1.4579
  444MOL0     H61265   0.492   7.214   6.298 -0.9714 -0.8133 -0.9595
  444MOL0     H61266   0.460   7.158   6.052  2.0240  0.1455  0.4764
  444MOL0     H61267   0.489   7.330   6.011 -0.9953  1.6233 -0.0601
  444MOL0     H61268   0.101   7.383   6.123 -0.5530 -1.7166 -0.0022
  444MOL0     H61269   0.525   7.218   6.664 -0.6538 -0.5540  4.4844
  444MOL0     H61270   0.557   7.010   6.807  0.5629  1.2248 -2.6542
  444MOL0     H61271   0.708   6.992   6.883  3.1820  3.5584  0.9219
  444MOL0     H61272   0.585   7.109   6.950 -2.4382 -3.2155  0.8636
  445MOL0     O61273   7.661   6.048  11.373  0.1036  0.0107  0.1905
  445MOL0     C61274   7.560   6.011  11.433 -0.1998  0.6438  1.0470
  445MOL0     O61275   7.557   5.965  11.564 -0.0706 -0.6629  0.2995
  445MOL0     C61276   7.670   5.934  11.632  0.2028 -0.5732  0.3858
  445MOL0     C61277   7.669   5.802  11.672  0.1450 -0.5496 -1.0294
  445MOL0     C61278   7.783   5.742  11.733  1.1291 -0.2415  0.3741
  445MOL0     C61279   7.900   5.819  11.740  0.9177  0.0838  0.4720
  445MOL0     O61280   8.019   5.779  11.779  0.3089 -0.4155 -0.7942
  445MOL0     C61281   8.031   5.654  11.854  0.0281 -0.3088 -0.1778
  445MOL0     C61282   8.180   5.617  11.861 -0.3257  0.2301  0.1711
  445MOL0     C61283   8.242   5.673  11.994  0.8157 -0.2510 -0.0340
  445MOL0     C61284   8.389   5.668  11.997  0.2323  0.1463  0.0212
  445MOL0     C61285   8.425   5.530  12.039  0.3697  0.0641  0.3399
  445MOL0     C61286   8.577   5.508  12.050  0.2548 -0.2516  0.9531
  445MOL0     C61287   8.624   5.461  12.188  0.1996 -0.5651  0.2468
  445MOL0     C61288   8.778   5.420  12.186  0.3462 -0.3117 -0.2104
  445MOL0     N61289   8.836   5.396  12.319  0.3051  0.2069  0.6222
  445MOL0     C61290   8.874   5.275  12.373 -0.1283 -0.1673 -0.4124
  445MOL0     C61291   8.913   5.317  12.501 -0.1357 -0.2802 -0.2630
  445MOL0     C61292   8.969   5.221  12.606  0.1267 -0.7084 -0.6221
  445MOL0     C61293   9.113   5.191  12.567 -0.4014  0.5224  1.1428
  445MOL0     C61294   9.159   5.063  12.642  0.2290  0.0577  0.2700
  445MOL0     C61295   9.156   5.074  12.796 -0.3488 -0.1343  0.5777
  445MOL0     O61296   9.234   4.971  12.848  0.9198 -0.3338 -0.1480
  445MOL0     C61297   9.374   4.972  12.843  0.2442  0.5017 -0.2169
  445MOL0     C61298   9.460   5.073  12.793  0.8858 -0.2347  0.0112
  445MOL0     C61299   9.597   5.083  12.813 -0.2272  0.7203 -0.2348
  445MOL0     C61300   9.667   5.201  12.761  0.6184 -0.3697 -0.4499
  445MOL0     C61301   9.670   4.979  12.881 -0.5828  0.0178  0.0978
  445MOL0     C61302   9.814   4.973  12.923 -0.4642  0.4525 -0.2201
  445MOL0     O61303   9.903   5.060  12.864  0.0646  0.9277  0.1823
  445MOL0     C61304  10.028   5.091  12.915  0.5004  0.0839  0.0891
  445MOL0     C61305  10.128   5.128  12.819 -0.7294 -0.3499 -0.4299
  445MOL0     C61306  10.256   5.166  12.874 -0.2882  1.1865 -0.2711
  445MOL0     C61307  10.288   5.170  13.004  0.0036  0.2063  0.6959
  445MOL0     O61308  10.418   5.200  13.032  0.1710 -0.9819  0.0858
  445MOL0     C61309  10.447   5.254  13.167 -0.4903  0.0122 -0.7242
  445MOL0     C61310  10.533   5.378  13.155 -0.1967 -0.1473 -0.5974
  445MOL0     C61311  10.667   5.354  13.077 -0.3360 -0.3486 -0.5866
  445MOL0     C61312  10.745   5.489  13.068  0.7168  1.0736  0.3630
  445MOL0     C61313  10.881   5.471  13.011  0.7662 -0.2508 -0.8392
  445MOL0     C61314  10.962   5.599  13.018 -0.8628  0.0770  0.2076
  445MOL0     C61315  10.949   5.681  13.148 -0.6811 -1.2063 -0.2097
  445MOL0     C61316  11.001   5.593  13.272  0.1518 -0.1357  1.8113
  445MOL0    Cl61317  11.013   5.683  13.417  0.3152 -0.1278 -0.3833
  445MOL0     C61318  10.179   5.136  13.092 -0.6645  0.5995 -0.2257
  445MOL0     C61319  10.054   5.093  13.047  0.4034  0.1995  0.0418
  445MOL0     O61320   9.849   4.885  13.003  0.3066  0.3691  0.6592
  445MOL0     C61321   9.587   4.876  12.928 -0.1673 -0.6949 -0.6021
  445MOL0     C61322   9.447   4.873  12.916  0.0475  0.0563  0.2318
  445MOL0     N61323   8.893   5.456  12.519 -0.2524  0.3845  0.2283
  445MOL0     N61324   8.854   5.498  12.406 -0.1326  0.0186 -0.4149
  445MOL0     C61325   7.899   5.955  11.699  0.5457  0.7746 -0.0936
  445MOL0     C61326   7.787   6.012  11.646  0.8723 -1.2167  0.2902
  445MOL0     C61327   7.427   6.028  11.356  0.0587 -0.2223  0.5845
  445MOL0     C61328   7.316   6.007  11.433 -0.2968 -0.2044  0.2539
  445MOL0     C61329   7.190   6.018  11.373  0.3591 -0.3546 -0.5091
  445MOL0     C61330   7.172   6.060  11.238  0.1954 -0.5253  0.8590
  445MOL0     O61331   7.045   6.092  11.197 -0.0278  0.1098  0.5406
  445MOL0     C61332   7.027   6.161  11.073  0.0497  0.4749 -0.5925
  445MOL0     C61333   6.870   6.179  11.047 -0.1148  0.0954  0.5431
  445MOL0     C61334   6.812   6.042  11.006 -1.1192  0.4986  0.2417
  445MOL0     C61335   6.674   6.054  10.947  0.4503  0.1549 -0.2376
  445MOL0     C61336   6.583   6.117  11.043 -0.4993  0.7782  0.0953
  445MOL0     C61337   6.503   6.176  11.112  0.8542  0.0642  0.1691
  445MOL0     C61338   7.288   6.073  11.161  0.4815  0.2934 -0.0228
  445MOL0     C61339   7.416   6.052  11.213  0.2734  0.7185  0.0694
  445MOL0     C61340   7.532   6.068  11.120  0.2569  0.3786 -0.2813
  445MOL0     H61341   7.573   5.756  11.653  1.5415 -3.7454 -0.8345
  445MOL0     H61342   7.781   5.635  11.751 -1.7276 -0.2172  0.7636
  445MOL0     H61343   7.981   5.577  11.794 -2.2019  2.1014 -1.6297
  445MOL0     H61344   7.983   5.656  11.953 -2.2750  1.1541 -1.2359
  445MOL0     H61345   8.194   5.509  11.870 -2.2096  0.0958  2.6316
  445MOL0     H61346   8.220   5.654  11.766 -1.4854  0.2790 -0.3106
  445MOL0     H61347   8.208   5.773  12.022 -0.9397 -1.4015  2.3714
  445MOL0     H61348   8.200   5.602  12.067 -2.3341  0.1964 -1.2347
  445MOL0     H61349   8.434   5.701  11.903 -1.0792 -1.1671 -1.1320
  445MOL0     H61350   8.424   5.734  12.077 -0.2915  1.2962 -0.6745
  445MOL0     H61351   8.395   5.457  11.963 -0.4706  0.5643  0.1748
  445MOL0     H61352   8.374   5.502  12.132  2.6975 -0.6176  1.4897
  445MOL0     H61353   8.600   5.427  11.979 -1.1548 -0.4505  0.6881
  445MOL0     H61354   8.622   5.603  12.020 -0.6050 -0.1627 -0.1182
  445MOL0     H61355   8.560   5.378  12.219 -2.6473  2.0539  1.9915
  445MOL0     H61356   8.592   5.534  12.263 -0.7712 -0.7955  0.0701
  445MOL0     H61357   8.784   5.324  12.133  1.7058 -0.4265  0.0961
  445MOL0     H61358   8.839   5.494  12.133  1.0223  0.2662  1.3081
  445MOL0     H61359   8.872   5.174  12.334  0.1442 -0.3999  0.1649
  445MOL0     H61360   8.901   5.136  12.603 -2.2638  1.1166 -1.4609
  445MOL0     H61361   8.966   5.272  12.703 -0.7767 -1.3296 -0.3160
  445MOL0     H61362   9.117   5.167  12.461 -2.1039 -2.0829  1.5721
  445MOL0     H61363   9.181   5.273  12.592 -0.0192  0.3009  0.8368
  445MOL0     H61364   9.101   4.978  12.606  3.4346 -1.8483 -0.8240
  445MOL0     H61365   9.262   5.047  12.609  0.2445 -0.2200  0.4538
  445MOL0     H61366   9.196   5.170  12.831 -3.9340  1.6019  0.4061
  445MOL0     H61367   9.049   5.065  12.819 -1.1081  0.0957 -2.4285
  445MOL0     H61368   9.407   5.151  12.740  2.0267 -0.5675 -1.7224
  445MOL0     H61369   9.726   5.256  12.835  2.0616 -3.5309  0.9580
  445MOL0     H61370   9.594   5.264  12.710 -5.0359 -3.1377  3.2105
  445MOL0     H61371   9.747   5.170  12.692  0.1338  0.5822 -1.4663
  445MOL0     H61372  10.116   5.125  12.711 -0.6302 -2.4864 -0.4379
  445MOL0     H61373  10.338   5.189  12.807 -0.0593 -0.9346 -0.8030
  445MOL0     H61374  10.354   5.281  13.218  0.1826  1.6260 -0.2823
  445MOL0     H61375  10.492   5.177  13.230  1.0866  0.0390 -1.7453
  445MOL0     H61376  10.485   5.463  13.105 -1.7737  0.6308  2.0216
  445MOL0     H61377  10.554   5.404  13.259 -2.5550 -1.8278  0.3936
  445MOL0     H61378  10.663   5.306  12.978  0.6266 -2.6791  0.4238
  445MOL0     H61379  10.714   5.283  13.145  0.6470 -1.1600 -2.0514
  445MOL0     H61380  10.746   5.519  13.173 -2.2216 -2.2492  1.5373
  445MOL0     H61381  10.689   5.573  13.027  0.0145  0.9423  1.0447
  445MOL0     H61382  10.921   5.398  13.082 -0.8202  0.1225  0.4983
  445MOL0     H61383  10.879   5.433  12.908 -0.6676 -1.3650 -0.4353
  445MOL0     H61384  10.927   5.664  12.937 -0.7465 -0.0599  0.0458
  445MOL0     H61385  11.066   5.569  13.003 -0.4702  0.5025  1.9255
  445MOL0     H61386  10.846   5.705  13.176  0.1208  4.5293 -1.0754
  445MOL0     H61387  11.010   5.771  13.141  2.1073 -2.8395  1.1179
  445MOL0     H61388  11.097   5.549  13.244  0.6703  2.5140 -1.2105
  445MOL0     H61389  10.927   5.514  13.287 -0.5555 -0.1153 -1.0226
  445MOL0     H61390  10.206   5.137  13.197 -1.2609  0.7301 -0.0707
  445MOL0     H61391   9.979   5.078  13.124 -0.1999 -1.5882 -0.8370
  445MOL0     H61392   9.636   4.794  12.981  1.9334  0.7668 -0.1692
  445MOL0     H61393   9.394   4.786  12.952 -2.1566  0.8504 -0.8695
  445MOL0     H61394   7.987   6.019  11.700  1.2084 -0.0408 -1.8403
  445MOL0     H61395   7.792   6.109  11.598 -0.2607 -2.0707 -1.6539
  445MOL0     H61396   7.314   5.987  11.540 -1.8990  1.0391  0.4885
  445MOL0     H61397   7.105   6.013  11.441  0.3064  1.9449 -0.3060
  445MOL0     H61398   7.072   6.260  11.076 -3.5944  2.3043 -1.1913
  445MOL0     H61399   7.070   6.109  10.987  2.7446 -0.0181  0.9282
  445MOL0     H61400   6.843   6.264  10.984  1.2769  0.7570  0.8063
  445MOL0     H61401   6.822   6.202  11.143 -1.0800  0.1660  0.0620
  445MOL0     H61402   6.876   5.988  10.935  0.7865  1.1516  1.3914
  445MOL0     H61403   6.814   5.992  11.103  1.6463  0.8909  0.4747
  445MOL0     H61404   6.632   5.955  10.929  2.4065 -0.8495  0.5505
  445MOL0     H61405   6.659   6.105  10.851 -3.6020  0.3412  0.2988
  445MOL0     H61406   6.435   6.246  11.157  1.4101  3.2155 -3.4055
  445MOL0     H61407   7.281   6.104  11.057  2.9016 -1.6906 -0.8774
  445MOL0     H61408   7.599   5.982  11.132 -2.6618 -1.7846  1.9172
  445MOL0     H61409   7.499   6.066  11.015 -0.2981 -0.9997 -0.0990
  445MOL0     H61410   7.566   6.172  11.132 -0.3148  0.7953 -1.9460
  446MOL0     O61411  10.355   8.877   9.668 -0.5707 -0.2593  0.7320
  446MOL0     C61412  10.382   8.900   9.781 -0.3522  0.6247 -0.3360
  446MOL0     O61413  10.495   8.955   9.830  0.2570 -0.2345 -0.4394
  446MOL0     C61414  10.611   8.981   9.750  0.0726 -0.1002  0.8093
  446MOL0     C61415  10.620   8.970   9.604 -0.8770 -0.2395 -0.2557
  446MOL0     C61416  10.741   8.992   9.548  0.5590 -0.3099 -0.4440
  446MOL0     C61417  10.853   9.032   9.612 -0.2574  0.1884 -0.0165
  446MOL0     O61418  10.964   9.048   9.526 -0.2293  0.2660  0.3349
  446MOL0     C61419  11.090   9.081   9.574 -0.3853 -0.5547  0.1707
  446MOL0     C61420  11.197   9.102   9.470 -0.3856  0.1769 -0.0544
  446MOL0     C61421  11.215   8.975   9.378 -0.6786 -0.1969 -1.1503
  446MOL0     C61422  11.336   9.003   9.277  0.7698  0.0823  0.1365
  446MOL0     C61423  11.357   8.891   9.175 -0.6895 -0.1169  0.2318
  446MOL0     C61424  11.443   8.959   9.061  0.1335 -0.2385 -0.3076
  446MOL0     C61425  11.596   8.986   9.097 -0.0036  0.4826 -0.3028
  446MOL0     C61426  11.679   8.862   9.151  0.4741  0.0914  0.0465
  446MOL0     N61427  11.714   8.761   9.048 -0.0762 -0.2291 -0.1948
  446MOL0     C61428  11.801   8.783   8.944 -0.0786  0.1998  0.1194
  446MOL0     C61429  11.790   8.680   8.862 -0.0651  0.5552  0.5673
  446MOL0     C61430  11.855   8.673   8.726  1.2161 -0.5247  0.0121
  446MOL0     C61431  11.821   8.796   8.642  0.6995  1.0168  0.0158
  446MOL0     C61432  11.880   8.801   8.499 -0.8525 -0.4837 -0.6626
  446MOL0     C61433  11.816   8.917   8.418  0.1588 -0.9014 -0.3064
  446MOL0     O61434  11.851   9.041   8.478 -0.3437  0.3959  0.3162
  446MOL0     C61435  11.977   9.085   8.465 -0.0947 -0.7157  0.1637
  446MOL0     C61436  12.079   9.020   8.394 -0.0042  0.1578  0.8998
  446MOL0     C61437  12.212   9.071   8.383  0.9522  0.1523 -0.3838
  446MOL0     C61438  12.314   8.986   8.306 -0.0671  0.3518 -0.3250
  446MOL0     C61439  12.243   9.200   8.439  0.0887  0.4655 -0.7729
  446MOL0     C61440  12.369   9.260   8.446 -0.2866  0.3134 -0.0786
  446MOL0     O61441  12.473   9.167   8.460 -0.0391 -0.2248 -0.0691
  446MOL0     C61442  12.594   9.215   8.498  0.2987 -0.0304  0.5553
  446MOL0     C61443  12.613   9.251   8.633 -0.4221  0.3780 -0.8144
  446MOL0     C61444  12.717   9.323   8.673  0.2894 -0.0325 -0.0418
  446MOL0     C61445  12.824   9.355   8.587  0.0589 -1.0965 -0.2821
  446MOL0     O61446  12.933   9.427   8.630 -0.6564 -0.3876 -0.3154
  446MOL0     C61447  12.956   9.438   8.773 -0.0086 -0.2148 -0.3362
  446MOL0     C61448  13.085   9.507   8.813 -0.6778 -0.1552  0.7770
  446MOL0     C61449  13.105   9.652   8.752  0.3460 -0.3013  0.1796
  446MOL0     C61450  13.006   9.758   8.819 -0.8441  0.6081 -0.7536
  446MOL0     C61451  13.064   9.903   8.788  0.6036 -1.3696 -0.0823
  446MOL0     C61452  12.959  10.010   8.809  0.2717  0.7338 -0.4756
  446MOL0     C61453  12.945  10.060   8.964  0.6501  0.2358  1.1273
  446MOL0     C61454  12.890  10.202   8.972  1.0178 -0.4935 -0.3954
  446MOL0    Cl61455  12.722  10.187   8.941 -0.0792 -0.1625 -0.2239
  446MOL0     C61456  12.812   9.316   8.451 -0.4395  0.9086  0.3213
  446MOL0     C61457  12.695   9.239   8.406  0.3324 -1.1083 -0.0311
  446MOL0     O61458  12.378   9.381   8.453 -0.0546  0.2841 -0.0177
  446MOL0     C61459  12.129   9.266   8.500 -0.2857 -0.2660 -0.0499
  446MOL0     C61460  12.000   9.215   8.513  0.1660  0.2230  0.1725
  446MOL0     N61461  11.712   8.582   8.917 -0.3229 -0.3245  0.0853
  446MOL0     N61462  11.665   8.637   9.023 -0.3166  0.3417  0.9619
  446MOL0     C61463  10.848   9.052   9.754  0.7282 -0.9308  0.4361
  446MOL0     C61464  10.727   9.022   9.824  0.2156  0.4105 -0.6151
  446MOL0     C61465  10.283   8.868   9.883 -0.6588  0.4942 -0.3389
  446MOL0     C61466  10.147   8.888   9.842  0.0068 -0.0492  0.5276
  446MOL0     C61467  10.043   8.854   9.926  0.6444 -1.1237 -0.1971
  446MOL0     C61468  10.071   8.814  10.054 -0.3762  0.0524 -0.7715
  446MOL0     O61469   9.959   8.788  10.128  0.3823  0.2041 -0.3809
  446MOL0     C61470   9.960   8.775  10.278  0.0203  0.8195 -0.6404
  446MOL0     C61471   9.813   8.755  10.315 -0.1107 -0.2314 -0.6355
  446MOL0     C61472   9.764   8.611  10.286 -1.5381  0.1321  0.0007
  446MOL0     C61473   9.611   8.591  10.302  0.6442 -0.4632 -0.6467
  446MOL0     C61474   9.549   8.636  10.425  0.7926 -0.2529 -0.0309
  446MOL0     C61475   9.497   8.672  10.529  0.1756 -0.0888 -0.3901
  446MOL0     C61476  10.204   8.791  10.096  0.1706 -0.1451  0.3496
  446MOL0     C61477  10.317   8.824  10.009  0.6321 -0.1779 -0.7931
  446MOL0     C61478  10.453   8.811  10.071  0.8591 -0.2350 -0.4873
  446MOL0     H61479  10.551   8.938   9.527 -1.1970  1.0835 -0.5301
  446MOL0     H61480  10.754   8.987   9.441  0.5468  0.8424 -0.5091
  446MOL0     H61481  11.134   9.007   9.641  0.8338  0.9981  1.1537
  446MOL0     H61482  11.083   9.174   9.632  4.3478 -0.0239  0.2835
  446MOL0     H61483  11.175   9.187   9.405  1.6850  0.5054 -0.4173
  446MOL0     H61484  11.290   9.120   9.525 -1.2576 -1.2432  1.9594
  446MOL0     H61485  11.242   8.899   9.451 -0.6397  2.2140  1.5069
  446MOL0     H61486  11.126   8.955   9.318  0.0406 -1.3352 -1.8812
  446MOL0     H61487  11.317   9.101   9.233  0.2209 -0.3099 -0.5291
  446MOL0     H61488  11.427   8.998   9.337  0.4206  0.5930  0.7147
  446MOL0     H61489  11.261   8.864   9.131 -1.2303  1.3903  0.4206
  446MOL0     H61490  11.410   8.810   9.225  0.0188  1.2287  1.7533
  446MOL0     H61491  11.448   8.895   8.972  3.2369 -0.8477  0.1842
  446MOL0     H61492  11.405   9.057   9.032 -0.7727 -0.3581  0.4403
  446MOL0     H61493  11.593   9.059   9.178 -2.3241 -1.1467  1.1928
  446MOL0     H61494  11.648   9.019   9.006  2.9455 -4.3033 -0.6963
  446MOL0     H61495  11.772   8.906   9.190  1.8318 -0.8770 -1.9577
  446MOL0     H61496  11.633   8.804   9.232  2.4159 -1.7827 -0.1057
  446MOL0     H61497  11.860   8.874   8.935  1.6497 -0.6742  1.7869
  446MOL0     H61498  11.811   8.594   8.665 -1.4026  1.2126 -0.5112
  446MOL0     H61499  11.965   8.672   8.722  1.1971  0.1986 -1.1498
  446MOL0     H61500  11.712   8.795   8.636  0.5919  2.1715  1.2255
  446MOL0     H61501  11.859   8.884   8.695 -1.0795  3.5967 -2.6864
  446MOL0     H61502  11.986   8.825   8.508 -0.6788 -0.7653 -1.7967
  446MOL0     H61503  11.861   8.706   8.448  2.3609 -1.2680 -0.6147
  446MOL0     H61504  11.848   8.910   8.313 -0.8509 -3.2425 -0.5313
  446MOL0     H61505  11.708   8.901   8.419  0.2434 -1.6369  1.5894
  446MOL0     H61506  12.073   8.922   8.349  5.2908  0.0381 -0.2361
  446MOL0     H61507  12.361   8.918   8.378  0.5828  2.5754  1.4576
  446MOL0     H61508  12.391   9.045   8.255 -2.9667  2.0218 -3.1442
  446MOL0     H61509  12.274   8.932   8.220 -1.0082  0.2229  0.1831
  446MOL0     H61510  12.541   9.229   8.712  0.9925 -0.0860  0.3780
  446MOL0     H61511  12.715   9.343   8.780 -0.0981 -0.6759  0.0742
  446MOL0     H61512  12.868   9.495   8.806 -0.3130 -0.9624  0.1816
  446MOL0     H61513  12.944   9.340   8.821 -0.1403 -0.2910 -0.5219
  446MOL0     H61514  13.092   9.506   8.922 -2.8865 -0.9912  0.9701
  446MOL0     H61515  13.174   9.453   8.778  0.7507  3.3389 -1.5156
  446MOL0     H61516  13.078   9.646   8.646  0.5917  2.1052 -0.0570
  446MOL0     H61517  13.207   9.689   8.764  0.3900 -0.3228 -0.1180
  446MOL0     H61518  13.017   9.733   8.924  1.2295 -0.1118 -1.1006
  446MOL0     H61519  12.905   9.733   8.785 -0.9798  0.1075  0.0063
  446MOL0     H61520  13.155   9.920   8.844  0.1499  1.4040 -0.0678
  446MOL0     H61521  13.103   9.913   8.686  1.4274  3.4469  0.4981
  446MOL0     H61522  12.860   9.965   8.797  0.6023  0.3285 -1.8542
  446MOL0     H61523  12.968  10.090   8.734 -1.0010  0.4736 -0.9216
  446MOL0     H61524  13.046  10.060   9.005  1.1917  3.1073  0.0163
  446MOL0     H61525  12.884   9.992   9.024 -1.9583 -0.0287 -1.5754
  446MOL0     H61526  12.936  10.267   8.898  0.4907  0.2005 -0.1306
  446MOL0     H61527  12.906  10.252   9.068 -2.7453  1.4901 -0.5965
  446MOL0     H61528  12.887   9.334   8.374 -0.9962  1.5526 -0.0772
  446MOL0     H61529  12.671   9.215   8.303  1.8651 -0.0156 -0.6738
  446MOL0     H61530  12.139   9.369   8.533 -0.9189  0.0098 -0.6866
  446MOL0     H61531  11.913   9.262   8.558 -1.7253  0.7011 -3.5676
  446MOL0     H61532  10.932   9.084   9.815  0.5878  1.0561 -0.3239
  446MOL0     H61533  10.724   9.029   9.932 -1.7130  0.0322 -0.6007
  446MOL0     H61534  10.134   8.938   9.747  1.9219 -1.3725 -0.4965
  446MOL0     H61535   9.940   8.881   9.904  0.1615 -2.8758 -0.2284
  446MOL0     H61536  10.019   8.690  10.313 -4.0579 -2.0456  0.0051
  446MOL0     H61537   9.997   8.869  10.320  3.1989  1.6763 -4.6593
  446MOL0     H61538   9.751   8.835  10.275  1.3365  0.9037 -0.7080
  446MOL0     H61539   9.809   8.757  10.424 -0.3812 -0.6592 -0.6341
  446MOL0     H61540   9.791   8.584  10.183  0.3024  1.9455 -0.0627
  446MOL0     H61541   9.823   8.546  10.351 -2.2916 -0.2457  0.3204
  446MOL0     H61542   9.585   8.487  10.280  0.0556 -0.4177 -0.1705
  446MOL0     H61543   9.560   8.646  10.223  0.1516 -1.9398 -1.3900
  446MOL0     H61544   9.464   8.690  10.629  2.5549 -0.1676  0.4820
  446MOL0     H61545  10.228   8.746  10.192  1.3968 -1.6921 -0.6326
  446MOL0     H61546  10.516   8.769   9.993  1.3630 -4.6503  1.9589
  446MOL0     H61547  10.490   8.901  10.122  1.0318 -0.8424  0.4919
  446MOL0     H61548  10.464   8.737  10.151  2.6201 -0.9650 -1.3794
  447MOL0     O61549   7.828   3.022   7.473 -0.6867 -0.4213  0.0145
  447MOL0     C61550   7.730   3.050   7.541  0.2120 -0.2230  0.2901
  447MOL0     O61551   7.722   3.038   7.682 -0.0573  0.0756 -0.2323
  447MOL0     C61552   7.833   2.996   7.753 -0.0432  0.2643  0.8379
  447MOL0     C61553   7.894   2.881   7.721  0.2453  0.2364  0.7188
  447MOL0     C61554   8.016   2.850   7.770  0.3682  1.0655 -0.1166
  447MOL0     C61555   8.085   2.932   7.857  0.8343 -0.1943  0.0937
  447MOL0     O61556   8.213   2.903   7.906 -0.9235  0.1658 -0.3978
  447MOL0     C61557   8.320   2.922   7.812  0.1220 -0.0372 -0.3674
  447MOL0     C61558   8.367   2.797   7.746  0.2636 -0.4875 -0.3863
  447MOL0     C61559   8.398   2.685   7.856 -1.0109  0.4085  1.0881
  447MOL0     C61560   8.424   2.551   7.779  0.3236  0.1279 -0.1019
  447MOL0     C61561   8.455   2.441   7.876 -0.0329 -0.2139 -0.1569
  447MOL0     C61562   8.502   2.311   7.797  0.7813  0.1466 -0.2372
  447MOL0     C61563   8.527   2.190   7.882  0.5412 -0.0119  0.0729
  447MOL0     C61564   8.394   2.120   7.925 -0.0729  0.1893  0.0384
  447MOL0     N61565   8.320   2.079   7.809 -0.8473  0.2173  0.6051
  447MOL0     C61566   8.338   1.976   7.722 -0.2262  0.0269 -0.9750
  447MOL0     C61567   8.245   2.007   7.626 -0.8688 -0.2675 -0.2122
  447MOL0     C61568   8.231   1.930   7.494  0.2882  0.4656 -0.0807
  447MOL0     C61569   8.297   2.004   7.385  0.0140 -0.3988 -0.1793
  447MOL0     C61570   8.267   1.944   7.244 -0.3123 -0.0758 -0.1020
  447MOL0     C61571   8.295   2.049   7.130  0.6281 -0.4601 -0.7053
  447MOL0     O61572   8.179   2.131   7.114 -0.0261 -0.0371 -0.1891
  447MOL0     C61573   8.194   2.245   7.043 -0.0008 -0.7868 -0.3933
  447MOL0     C61574   8.097   2.342   7.059  0.4005 -0.2261  1.2754
  447MOL0     C61575   8.111   2.467   7.001 -0.9743  0.0965 -0.7958
  447MOL0     C61576   7.989   2.564   7.028 -0.5332 -0.1891 -0.4002
  447MOL0     C61577   8.239   2.503   6.940  0.5300 -0.3826  0.6198
  447MOL0     C61578   8.266   2.642   6.878  0.3612 -0.5583  0.4855
  447MOL0     O61579   8.162   2.714   6.833  0.0352  0.2358 -0.1443
  447MOL0     C61580   8.193   2.838   6.794 -0.2060 -0.3590 -0.3339
  447MOL0     C61581   8.221   2.948   6.876  1.0332  0.1594 -0.0938
  447MOL0     C61582   8.238   3.077   6.829  0.2452 -0.2190  1.1848
  447MOL0     C61583   8.239   3.092   6.689 -1.0091  0.7630 -1.1757
  447MOL0     O61584   8.260   3.220   6.650  0.3566  0.2324 -0.7114
  447MOL0     C61585   8.174   3.283   6.560  0.6459 -0.3231  0.1209
  447MOL0     C61586   8.232   3.406   6.492 -0.7319 -0.6363  0.5918
  447MOL0     C61587   8.329   3.358   6.394  0.2183  0.2881 -0.2418
  447MOL0     C61588   8.414   3.480   6.340  0.3060  0.3541 -0.5014
  447MOL0     C61589   8.508   3.444   6.225  0.3060 -0.0576 -0.8539
  447MOL0     C61590   8.575   3.559   6.162  0.2388  0.6467  0.6375
  447MOL0     C61591   8.646   3.519   6.032 -0.6782 -0.7107 -0.7476
  447MOL0     C61592   8.798   3.509   6.054 -0.3438 -0.5791 -0.0325
  447MOL0    Cl61593   8.898   3.660   6.048  0.0229  0.0777  0.3313
  447MOL0     C61594   8.223   2.988   6.602 -0.1369  0.3760  0.0371
  447MOL0     C61595   8.191   2.861   6.655 -0.2040  0.1376 -0.6572
  447MOL0     O61596   8.387   2.688   6.892 -0.7055 -0.5091  0.4474
  447MOL0     C61597   8.337   2.399   6.926  0.5475  0.0141  0.0180
  447MOL0     C61598   8.309   2.270   6.967  0.3167  0.0662  0.2242
  447MOL0     N61599   8.179   2.121   7.650  0.4195  0.4053 -0.9917
  447MOL0     N61600   8.217   2.156   7.765 -0.6483  0.3666 -0.7248
  447MOL0     C61601   8.022   3.054   7.884 -0.6524  0.8346  1.0999
  447MOL0     C61602   7.896   3.089   7.838  1.1073  0.1783  0.6695
  447MOL0     C61603   7.613   3.105   7.476 -0.1916 -0.4376 -0.4980
  447MOL0     C61604   7.495   3.117   7.549  0.0449 -0.0886  0.7089
  447MOL0     C61605   7.378   3.169   7.492  0.3357  0.2256 -0.2594
  447MOL0     C61606   7.376   3.232   7.365  0.7700  0.1978  0.2832
  447MOL0     O61607   7.272   3.293   7.303  1.0374 -0.4398 -0.2617
  447MOL0     C61608   7.152   3.298   7.387 -0.0000  0.0454 -0.0163
  447MOL0     C61609   7.025   3.364   7.326  0.0598  0.0414 -0.1786
  447MOL0     C61610   7.041   3.507   7.276  0.4315 -0.7294  0.0125
  447MOL0     C61611   6.914   3.569   7.228 -0.6412 -0.3998 -0.1034
  447MOL0     C61612   6.940   3.699   7.161 -0.4319 -0.6058 -0.0952
  447MOL0     C61613   6.954   3.804   7.097 -1.6146 -0.1854  0.0165
  447MOL0     C61614   7.491   3.234   7.295 -0.2189 -0.8021 -0.5098
  447MOL0     C61615   7.611   3.171   7.344  0.4823  0.0140  0.0828
  447MOL0     C61616   7.727   3.178   7.249  0.5646 -0.1237  0.9748
  447MOL0     H61617   7.851   2.820   7.642  3.1228  0.4295 -1.1215
  447MOL0     H61618   8.064   2.755   7.747  3.1046  2.1749  0.6363
  447MOL0     H61619   8.411   2.968   7.853  0.0496  2.0892 -2.3595
  447MOL0     H61620   8.286   2.990   7.733  0.2512  1.0591  0.4898
  447MOL0     H61621   8.288   2.759   7.681 -1.2252 -0.0353  1.0831
  447MOL0     H61622   8.457   2.822   7.689  1.1510  0.9346  1.5109
  447MOL0     H61623   8.493   2.721   7.896 -0.1997 -0.4720 -0.0033
  447MOL0     H61624   8.325   2.666   7.936 -2.0813  2.8509  0.7874
  447MOL0     H61625   8.344   2.516   7.713  1.4366 -0.9694 -0.8937
  447MOL0     H61626   8.510   2.564   7.713  1.4967  0.3616  1.4229
  447MOL0     H61627   8.368   2.434   7.943  0.3101  1.7058  0.5691
  447MOL0     H61628   8.543   2.477   7.930 -0.1910 -0.3587  0.1958
  447MOL0     H61629   8.434   2.291   7.714 -1.4605  1.6584  1.1213
  447MOL0     H61630   8.597   2.338   7.749  0.2691  1.0957 -0.7412
  447MOL0     H61631   8.594   2.220   7.963  0.8738 -0.2228 -0.1226
  447MOL0     H61632   8.583   2.110   7.833 -0.5572 -0.9084  0.2150
  447MOL0     H61633   8.425   2.035   7.985 -0.1522 -0.0804 -0.2957
  447MOL0     H61634   8.332   2.182   7.991 -0.6721 -0.2402 -0.1133
  447MOL0     H61635   8.414   1.898   7.723 -0.1511  0.0793  0.9905
  447MOL0     H61636   8.125   1.925   7.465 -0.1336  0.4376  1.3592
  447MOL0     H61637   8.275   1.831   7.509  1.4532  1.1062  0.8370
  447MOL0     H61638   8.254   2.104   7.385  0.7827 -0.0488 -1.2126
  447MOL0     H61639   8.405   2.015   7.399  0.0032 -0.3267 -0.1600
  447MOL0     H61640   8.320   1.851   7.222 -0.8562 -0.5723  0.6438
  447MOL0     H61641   8.160   1.928   7.225  0.0703 -0.3425 -2.3240
  447MOL0     H61642   8.393   2.094   7.145 -0.5409  1.7754  0.9356
  447MOL0     H61643   8.299   1.994   7.036  0.2038 -0.0034 -1.0017
  447MOL0     H61644   8.018   2.314   7.128 -2.8170  0.1129 -1.9681
  447MOL0     H61645   7.927   2.552   7.117 -1.1692 -2.0255 -1.0341
  447MOL0     H61646   7.925   2.562   6.940  0.4149 -0.0185 -1.1142
  447MOL0     H61647   8.031   2.664   7.043 -1.5047  0.6745 -2.9391
  447MOL0     H61648   8.222   2.933   6.983 -0.8632 -0.0218 -0.0729
  447MOL0     H61649   8.268   3.160   6.893 -2.6156  3.2950 -1.5268
  447MOL0     H61650   8.130   3.218   6.483 -2.8671  2.1824 -0.2410
  447MOL0     H61651   8.086   3.324   6.611 -0.2830  0.3292 -1.8996
  447MOL0     H61652   8.155   3.467   6.443  0.6408 -0.8656 -2.0247
  447MOL0     H61653   8.283   3.459   6.573  0.8166  0.1286 -0.8032
  447MOL0     H61654   8.283   3.314   6.305 -0.5163 -1.6124  0.9975
  447MOL0     H61655   8.389   3.275   6.433 -1.3357 -0.7884 -0.0370
  447MOL0     H61656   8.466   3.519   6.428  1.4367  0.3226 -1.1357
  447MOL0     H61657   8.338   3.546   6.297  0.9413  1.1694 -0.3963
  447MOL0     H61658   8.581   3.375   6.267  0.3206 -0.7567 -2.0216
  447MOL0     H61659   8.456   3.385   6.150  1.7036 -1.5033 -0.7384
  447MOL0     H61660   8.644   3.595   6.239  2.0574 -1.4418  0.1061
  447MOL0     H61661   8.498   3.633   6.141 -1.3466  0.2089  4.1997
  447MOL0     H61662   8.626   3.590   5.950  0.3548  0.0826 -0.3377
  447MOL0     H61663   8.612   3.418   6.008 -0.6717 -1.4560  2.0814
  447MOL0     H61664   8.842   3.435   5.986  3.3682  0.8239  0.6417
  447MOL0     H61665   8.809   3.472   6.156 -1.1931  0.6676  0.5314
  447MOL0     H61666   8.229   3.003   6.494 -2.4710 -2.9034 -0.7018
  447MOL0     H61667   8.171   2.779   6.586 -3.7940  0.7243 -0.4880
  447MOL0     H61668   8.430   2.415   6.874  0.5106 -1.2433 -0.4517
  447MOL0     H61669   8.387   2.197   6.946  1.9484  1.3414  1.5796
  447MOL0     H61670   8.075   3.116   7.955 -0.0947  1.7798 -0.0885
  447MOL0     H61671   7.858   3.188   7.860  2.2120  0.3930  1.7040
  447MOL0     H61672   7.480   3.070   7.646  0.5159  0.4022  1.0266
  447MOL0     H61673   7.287   3.161   7.550  0.5590 -0.4404  0.0044
  447MOL0     H61674   7.136   3.192   7.409 -0.4683 -0.5323 -2.8124
  447MOL0     H61675   7.175   3.362   7.473 -0.8082 -1.0525  1.0509
  447MOL0     H61676   6.953   3.371   7.408  0.7946  0.9809  0.4156
  447MOL0     H61677   7.006   3.297   7.242  1.8508 -1.8212  0.8254
  447MOL0     H61678   7.077   3.565   7.362 -2.5807  2.0870 -0.4453
  447MOL0     H61679   7.111   3.501   7.192 -1.5089 -0.1469 -1.7145
  447MOL0     H61680   6.848   3.580   7.315 -1.2858  2.4879 -0.8455
  447MOL0     H61681   6.860   3.505   7.157 -2.2571  1.1833 -0.3935
  447MOL0     H61682   6.967   3.881   7.024  0.5489 -2.6434 -2.3958
  447MOL0     H61683   7.504   3.281   7.198 -0.0642 -0.6593 -0.4214
  447MOL0     H61684   7.815   3.207   7.307  2.9516 -0.0338 -2.3731
  447MOL0     H61685   7.743   3.091   7.184  1.3048  0.7788 -0.0812
  447MOL0     H61686   7.717   3.270   7.191 -0.2919 -1.8227 -1.7758
  448MOL0     O61687   1.915   8.284   4.109 -0.0997  0.0699  0.0088
  448MOL0     C61688   1.828   8.354   4.157 -0.0816  0.3697  0.0492
  448MOL0     O61689   1.763   8.329   4.277  0.0490  0.7789  0.5183
  448MOL0     C61690   1.825   8.250   4.373  0.8354 -0.8858 -0.3538
  448MOL0     C61691   1.957   8.232   4.404  0.7437  0.2700  0.6148
  448MOL0     C61692   2.000   8.166   4.524  0.3541 -0.4045  0.8298
  448MOL0     C61693   1.918   8.096   4.600  0.1962  0.0950  0.1368
  448MOL0     O61694   1.981   8.019   4.699  0.4136  0.4233  0.3409
  448MOL0     C61695   1.893   7.924   4.777 -0.2671 -0.8445  0.6239
  448MOL0     C61696   1.999   7.821   4.830 -0.4856  0.1369 -1.2956
  448MOL0     C61697   2.072   7.870   4.960 -0.1991  0.1774 -0.6322
  448MOL0     C61698   2.183   7.776   4.985 -0.5219 -0.7481  0.5864
  448MOL0     C61699   2.221   7.806   5.132 -0.3384  0.1277  0.5457
  448MOL0     C61700   2.330   7.712   5.174  0.4465 -0.0678  0.0154
  448MOL0     C61701   2.357   7.710   5.323 -0.4687 -0.4316 -0.3609
  448MOL0     C61702   2.455   7.832   5.367  0.3339  0.2219  0.1024
  448MOL0     N61703   2.586   7.798   5.322 -0.0122  0.6687  0.0577
  448MOL0     C61704   2.669   7.874   5.248 -0.1523 -1.1582  0.4527
  448MOL0     C61705   2.793   7.825   5.268  0.3718  0.1334 -0.3677
  448MOL0     C61706   2.924   7.859   5.203 -0.4506  0.5965 -0.2247
  448MOL0     C61707   2.955   7.758   5.088 -0.5074  0.2693 -0.1455
  448MOL0     C61708   3.085   7.806   5.013 -0.9138  0.6319 -0.0750
  448MOL0     C61709   3.121   7.731   4.888  1.0788 -0.7396 -0.4159
  448MOL0     O61710   3.236   7.793   4.831 -0.4259 -0.2642 -0.4531
  448MOL0     C61711   3.358   7.726   4.834  0.1343 -0.8282 -0.4241
  448MOL0     C61712   3.466   7.765   4.916  0.4727 -0.6492 -0.4966
  448MOL0     C61713   3.583   7.693   4.926  0.8284 -0.0086  0.7277
  448MOL0     C61714   3.677   7.756   5.015  0.1305  0.4410  0.2577
  448MOL0     C61715   3.602   7.585   4.839 -0.2572 -0.1219  0.1339
  448MOL0     C61716   3.733   7.507   4.846 -0.0052 -1.0979  0.5270
  448MOL0     O61717   3.732   7.376   4.797 -0.2587 -0.2560 -0.5892
  448MOL0     C61718   3.850   7.302   4.786 -0.2707 -0.7542 -0.5783
  448MOL0     C61719   3.897   7.239   4.672  0.4462 -0.0903 -0.4472
  448MOL0     C61720   3.999   7.148   4.672  0.1953  0.8050 -0.0347
  448MOL0     C61721   4.065   7.117   4.793  0.6003  0.0317  0.2786
  448MOL0     O61722   4.181   7.040   4.783 -0.0781 -0.0989 -0.2494
  448MOL0     C61723   4.281   7.050   4.887 -0.4030 -0.5378 -0.3916
  448MOL0     C61724   4.415   6.990   4.842  0.1205  0.2629 -0.3808
  448MOL0     C61725   4.514   6.970   4.959 -0.2097 -0.0187  0.1697
  448MOL0     C61726   4.573   7.100   5.014  0.9780  0.4585  0.2281
  448MOL0     C61727   4.676   7.080   5.127  0.3771  0.0188 -0.6327
  448MOL0     C61728   4.606   7.072   5.266 -0.8842  0.7208 -0.7134
  448MOL0     C61729   4.697   7.013   5.380 -0.8713 -0.2826  0.1398
  448MOL0     C61730   4.623   7.034   5.507  0.6764 -0.2517  0.3291
  448MOL0    Cl61731   4.627   7.207   5.573  0.1317 -0.3035 -0.1976
  448MOL0     C61732   4.023   7.187   4.909 -0.7665  0.9969  0.0603
  448MOL0     C61733   3.918   7.277   4.904 -0.3586 -0.2644  0.2035
  448MOL0     O61734   3.831   7.570   4.871  0.2663 -0.0417  0.2255
  448MOL0     C61735   3.492   7.537   4.763  0.3002  0.6688 -0.6901
  448MOL0     C61736   3.369   7.609   4.764 -0.0219  0.2342  0.8015
  448MOL0     N61737   2.784   7.719   5.356 -0.3240 -0.8622  0.9709
  448MOL0     N61738   2.664   7.710   5.385 -0.7749  1.0100  1.0667
  448MOL0     C61739   1.783   8.089   4.555 -0.2931 -0.2490 -0.7428
  448MOL0     C61740   1.734   8.172   4.445  0.4873  0.4115 -0.4422
  448MOL0     C61741   1.771   8.453   4.063 -0.0144  0.2833 -0.3879
  448MOL0     C61742   1.862   8.541   3.999  0.4399 -0.0221  0.0050
  448MOL0     C61743   1.815   8.637   3.909 -0.0282  0.5291 -0.4171
  448MOL0     C61744   1.680   8.650   3.886  0.5045 -0.4670  0.1538
  448MOL0     O61745   1.650   8.758   3.807 -0.1160 -0.5963 -0.0220
  448MOL0     C61746   1.516   8.762   3.758 -0.7243  0.4844  0.9175
  448MOL0     C61747   1.497   8.868   3.650 -0.9278  0.0116  0.1712
  448MOL0     C61748   1.569   8.835   3.516  0.0323  1.1204 -0.6622
  448MOL0     C61749   1.540   8.938   3.405 -0.6683  0.1679 -0.7507
  448MOL0     C61750   1.399   8.927   3.368  0.3828  0.6727 -0.2705
  448MOL0     C61751   1.276   8.927   3.350  0.3902  0.7352 -0.7480
  448MOL0     C61752   1.592   8.563   3.948  0.6946  1.3229  0.0699
  448MOL0     C61753   1.633   8.461   4.042 -0.5225  0.0362  0.3091
  448MOL0     C61754   1.524   8.377   4.108 -0.6902  0.1349  0.0245
  448MOL0     H61755   2.034   8.276   4.341  0.2511  0.5075  0.1669
  448MOL0     H61756   2.107   8.171   4.545  0.3783 -0.1359  0.6547
  448MOL0     H61757   1.817   7.867   4.723  0.8620 -2.3279  0.5390
  448MOL0     H61758   1.844   7.969   4.863 -0.7662  0.2892 -0.2320
  448MOL0     H61759   1.950   7.727   4.857  0.7457  0.8116  4.7093
  448MOL0     H61760   2.075   7.809   4.752 -0.6401  2.1579 -1.8215
  448MOL0     H61761   2.105   7.972   4.943 -1.7272  0.5302 -1.7361
  448MOL0     H61762   2.002   7.873   5.044  1.3160 -1.3229  0.7599
  448MOL0     H61763   2.144   7.674   4.974 -2.0312 -0.0641 -0.7843
  448MOL0     H61764   2.272   7.795   4.925  0.8019 -0.7822  2.4536
  448MOL0     H61765   2.131   7.788   5.191 -1.0485  1.1561 -0.1972
  448MOL0     H61766   2.264   7.906   5.133 -0.6179  0.3105 -1.6174
  448MOL0     H61767   2.302   7.610   5.148  0.4602  0.2642 -1.3975
  448MOL0     H61768   2.427   7.746   5.134  0.1665  0.9923  0.2202
  448MOL0     H61769   2.420   7.624   5.347  1.7408  0.6192 -2.0662
  448MOL0     H61770   2.265   7.714   5.382  1.0146  0.7526  2.0385
  448MOL0     H61771   2.415   7.925   5.326 -2.7042 -1.4197 -1.0349
  448MOL0     H61772   2.462   7.839   5.476 -1.7961 -0.4825  0.3390
  448MOL0     H61773   2.658   7.959   5.181 -0.1753 -1.2921  0.2856
  448MOL0     H61774   3.006   7.877   5.274 -0.8134  1.1129  0.0737
  448MOL0     H61775   2.908   7.960   5.163  0.2296  1.3071  1.1915
  448MOL0     H61776   2.964   7.654   5.118 -1.0148 -0.1653 -1.4274
  448MOL0     H61777   2.870   7.763   5.020 -0.8418  1.7996  0.3353
  448MOL0     H61778   3.083   7.914   4.996  1.7923  0.4056 -2.5990
  448MOL0     H61779   3.169   7.782   5.079  0.2388 -1.1399 -2.0713
  448MOL0     H61780   3.135   7.625   4.911 -0.4807 -1.0150 -0.6354
  448MOL0     H61781   3.039   7.742   4.818 -0.9229  1.8435  2.0913
  448MOL0     H61782   3.454   7.849   4.984 -1.4225 -0.1631 -1.3595
  448MOL0     H61783   3.631   7.823   5.089  0.7819  1.9911 -0.6761
  448MOL0     H61784   3.754   7.812   4.960  1.3750 -0.1546  1.3291
  448MOL0     H61785   3.718   7.678   5.080 -1.1444 -1.8625 -1.5619
  448MOL0     H61786   3.839   7.253   4.582 -0.2680 -0.8769 -0.1336
  448MOL0     H61787   4.032   7.085   4.591 -2.9476 -1.3096  0.1539
  448MOL0     H61788   4.303   7.153   4.918 -1.3168 -1.3763  3.5402
  448MOL0     H61789   4.251   6.999   4.979  0.6390  0.0963  0.3293
  448MOL0     H61790   4.413   6.887   4.804  0.5183 -1.0978  2.9461
  448MOL0     H61791   4.456   7.047   4.758  0.5846  0.2482 -0.1687
  448MOL0     H61792   4.589   6.894   4.935  0.7414  1.8321 -3.4554
  448MOL0     H61793   4.449   6.938   5.041 -1.8218  0.9236 -0.6886
  448MOL0     H61794   4.495   7.168   5.049  0.0159  0.3203 -1.5197
  448MOL0     H61795   4.634   7.148   4.936  1.2875  1.1716  0.9062
  448MOL0     H61796   4.747   6.997   5.122 -0.4751 -0.7342 -0.4120
  448MOL0     H61797   4.733   7.173   5.120  0.9839 -0.4107 -1.6126
  448MOL0     H61798   4.519   7.006   5.260  1.0895 -2.1049 -0.1973
  448MOL0     H61799   4.564   7.170   5.293 -0.1687  1.7756 -3.1350
  448MOL0     H61800   4.792   7.067   5.389  0.3896 -2.4414  0.4177
  448MOL0     H61801   4.720   6.908   5.363 -0.6550  0.0039 -1.4568
  448MOL0     H61802   4.658   6.964   5.584  2.7860 -0.0101 -0.3328
  448MOL0     H61803   4.518   7.006   5.501 -0.6586  3.3437  3.2602
  448MOL0     H61804   4.069   7.153   5.002  0.3901 -4.0425 -1.9734
  448MOL0     H61805   3.873   7.311   4.997 -2.4174 -4.1596  0.8469
  448MOL0     H61806   3.495   7.442   4.711  2.2744 -0.3460  1.1238
  448MOL0     H61807   3.288   7.577   4.699  1.8393 -0.7408 -1.1595
  448MOL0     H61808   1.719   8.015   4.603  0.5568 -0.4996  0.0385
  448MOL0     H61809   1.630   8.162   4.417 -0.0227 -0.1011  1.4446
  448MOL0     H61810   1.968   8.548   4.020  0.4631  3.9977 -0.6593
  448MOL0     H61811   1.891   8.699   3.862  1.0777 -3.1518 -4.0597
  448MOL0     H61812   1.481   8.668   3.715 -0.9018 -0.2006  2.4885
  448MOL0     H61813   1.446   8.789   3.838 -0.6731  2.4878  0.3308
  448MOL0     H61814   1.536   8.963   3.688  0.7532 -0.0348 -1.2887
  448MOL0     H61815   1.391   8.871   3.624 -0.7424 -2.1379 -1.1443
  448MOL0     H61816   1.677   8.837   3.536 -0.3116  0.8625  1.4259
  448MOL0     H61817   1.540   8.734   3.487 -1.1100  1.1997  0.1402
  448MOL0     H61818   1.601   8.928   3.315 -0.5089 -0.0876 -0.6131
  448MOL0     H61819   1.553   9.039   3.446  0.7790 -0.1964 -0.2786
  448MOL0     H61820   1.172   8.903   3.347  1.0380 -4.4385  3.6244
  448MOL0     H61821   1.486   8.570   3.923  0.7831 -0.3328 -0.9938
  448MOL0     H61822   1.426   8.426   4.108 -1.1554 -0.7396 -0.9861
  448MOL0     H61823   1.515   8.278   4.060 -0.4732  1.1167 -2.1589
  448MOL0     H61824   1.547   8.368   4.215  0.8277  0.4384 -0.2562
  449MOL0     O61825   4.370   1.648   3.767 -0.6742 -0.1844 -0.0930
  449MOL0     C61826   4.346   1.582   3.664 -0.4551 -0.5048  0.0316
  449MOL0     O61827   4.323   1.445   3.667  0.1920 -0.6723  0.6679
  449MOL0     C61828   4.305   1.392   3.792 -0.1368 -0.3301 -0.5953
  449MOL0     C61829   4.177   1.408   3.847  0.9549  0.0304 -0.0243
  449MOL0     C61830   4.139   1.332   3.955 -0.1004  0.2180 -1.2945
  449MOL0     C61831   4.227   1.247   4.022 -1.3205  0.7085  0.2738
  449MOL0     O61832   4.189   1.167   4.130  0.4291  0.1369  0.4358
  449MOL0     C61833   4.049   1.152   4.168  0.7629 -0.0412  0.2622
  449MOL0     C61834   4.056   1.068   4.302  0.0913  0.4765  0.1692
  449MOL0     C61835   4.082   1.150   4.421 -0.7211 -0.5176 -0.0515
  449MOL0     C61836   4.127   1.067   4.547  0.3968  0.5519  1.1644
  449MOL0     C61837   4.156   1.137   4.682  0.5453 -0.5435 -0.4962
  449MOL0     C61838   4.258   1.256   4.670  0.7978 -0.3461  0.1588
  449MOL0     C61839   4.251   1.333   4.805 -0.1283  0.1587 -0.0521
  449MOL0     C61840   4.332   1.459   4.812 -0.3842 -0.1017 -0.5585
  449MOL0     N61841   4.242   1.572   4.806  0.0253 -0.6490  0.2453
  449MOL0     C61842   4.268   1.689   4.875 -0.2773 -0.0360 -1.6733
  449MOL0     C61843   4.190   1.783   4.816 -0.5267 -0.1954 -0.1203
  449MOL0     C61844   4.173   1.930   4.849 -0.5888 -0.1484  0.3744
  449MOL0     C61845   4.294   2.018   4.827 -0.1557 -0.2940  0.1284
  449MOL0     C61846   4.314   2.051   4.676 -0.2724  0.1023 -0.0178
  449MOL0     C61847   4.412   2.169   4.648  0.2182 -0.0257 -0.5161
  449MOL0     O61848   4.470   2.152   4.517  0.6323  0.1180 -0.0336
  449MOL0     C61849   4.568   2.243   4.469 -0.7711  0.1163 -0.5349
  449MOL0     C61850   4.631   2.343   4.547  0.7637  0.1922  0.2578
  449MOL0     C61851   4.723   2.430   4.499  0.3252 -0.0442  0.4753
  449MOL0     C61852   4.765   2.540   4.600 -0.1014  0.2390 -0.4761
  449MOL0     C61853   4.781   2.407   4.373  0.2279 -0.5085  0.3350
  449MOL0     C61854   4.898   2.475   4.330  0.0204  0.0953  0.1231
  449MOL0     O61855   4.923   2.457   4.199 -0.6849  0.2915  0.5594
  449MOL0     C61856   5.043   2.486   4.137  0.5679 -0.2705 -0.3062
  449MOL0     C61857   5.175   2.472   4.198 -0.0329  0.5362  0.3549
  449MOL0     C61858   5.291   2.508   4.124 -0.1768 -0.5972 -0.0804
  449MOL0     C61859   5.277   2.557   3.995  0.1940  0.1186  0.0002
  449MOL0     O61860   5.384   2.606   3.924 -0.5442 -0.3813 -0.3842
  449MOL0     C61861   5.419   2.522   3.818 -0.0118  0.1117 -0.9472
  449MOL0     C61862   5.571   2.548   3.790 -0.3667  0.2141  0.6846
  449MOL0     C61863   5.643   2.489   3.665 -0.3019 -0.6298  0.3366
  449MOL0     C61864   5.550   2.449   3.542  0.8131 -0.1321  0.4915
  449MOL0     C61865   5.630   2.411   3.416 -0.7585  1.2255  0.9254
  449MOL0     C61866   5.564   2.393   3.283 -0.8534 -0.3408  0.2474
  449MOL0     C61867   5.530   2.517   3.204 -0.0309 -0.0933 -0.4302
  449MOL0     C61868   5.646   2.579   3.140 -0.7815 -0.4839  0.1475
  449MOL0    Cl61869   5.703   2.481   2.995 -0.0721 -0.4888  0.5769
  449MOL0     C61870   5.147   2.570   3.939 -0.5742  0.9909  0.6402
  449MOL0     C61871   5.029   2.524   4.005  0.2934  0.0321  0.3026
  449MOL0     O61872   4.971   2.532   4.410  0.4112 -0.1319  0.3373
  449MOL0     C61873   4.719   2.306   4.289 -0.0155 -0.6442  0.4907
  449MOL0     C61874   4.617   2.224   4.341 -0.4415 -0.1780  0.5462
  449MOL0     N61875   4.122   1.719   4.715  0.1455 -1.0205  0.1081
  449MOL0     N61876   4.154   1.593   4.706  0.2588  0.2952 -1.0014
  449MOL0     C61877   4.359   1.233   3.971 -0.9398 -0.5261  0.3070
  449MOL0     C61878   4.395   1.306   3.849 -0.6027  0.7813 -0.6035
  449MOL0     C61879   4.362   1.643   3.533 -0.0004 -0.3884 -0.3055
  449MOL0     C61880   4.489   1.692   3.499  0.3094  0.1644  0.2430
  449MOL0     C61881   4.521   1.727   3.370  0.5813 -0.8788  0.6805
  449MOL0     C61882   4.437   1.704   3.268  0.3934  0.3714  0.1550
  449MOL0     O61883   4.467   1.719   3.136  0.0110 -0.0102 -0.0662
  449MOL0     C61884   4.598   1.730   3.088 -0.1187 -0.3583  0.4441
  449MOL0     C61885   4.633   1.879   3.078  0.3389  0.1540  0.3395
  449MOL0     C61886   4.787   1.898   3.060  0.8705  0.4544  0.0393
  449MOL0     C61887   4.867   1.865   3.183 -0.1441  0.4600  0.2984
  449MOL0     C61888   4.830   1.949   3.296  0.1872  0.2844  0.4584
  449MOL0     C61889   4.790   2.033   3.377  0.5636  0.2484 -0.3622
  449MOL0     C61890   4.306   1.653   3.297 -1.1257 -0.5331 -0.3413
  449MOL0     C61891   4.265   1.626   3.427  0.1563 -0.4117 -0.4379
  449MOL0     C61892   4.126   1.567   3.444  0.3964 -0.1517  0.4280
  449MOL0     H61893   4.112   1.478   3.797  1.6207  2.0568  1.7627
  449MOL0     H61894   4.044   1.356   4.002  1.3307  0.3939  1.7650
  449MOL0     H61895   3.980   1.113   4.093  0.6259 -0.0451  0.3913
  449MOL0     H61896   4.023   1.252   4.203  4.3703  1.2629 -0.3253
  449MOL0     H61897   3.961   1.016   4.316  0.7683 -0.2147  2.8682
  449MOL0     H61898   4.129   0.986   4.303 -0.4721 -0.1625  3.7258
  449MOL0     H61899   4.159   1.225   4.398 -3.1624  1.7327 -1.5165
  449MOL0     H61900   3.996   1.212   4.450  0.6870  1.9210 -0.7983
  449MOL0     H61901   4.062   0.985   4.580  0.8209  0.0763  0.8522
  449MOL0     H61902   4.217   1.020   4.505  0.7204  2.0729  0.0690
  449MOL0     H61903   4.198   1.061   4.749 -1.8632 -1.8432 -0.3775
  449MOL0     H61904   4.061   1.175   4.719  1.8773  2.7790 -0.1376
  449MOL0     H61905   4.356   1.209   4.658  0.7922 -0.3935  0.3016
  449MOL0     H61906   4.232   1.318   4.584 -1.7212 -2.1927 -0.5175
  449MOL0     H61907   4.286   1.261   4.880  0.2130  0.6583  0.2810
  449MOL0     H61908   4.147   1.342   4.838 -0.6172  0.1559 -1.5325
  449MOL0     H61909   4.400   1.453   4.898  1.1261 -1.8139 -1.7878
  449MOL0     H61910   4.406   1.457   4.732 -1.5270 -1.4105 -1.6240
  449MOL0     H61911   4.326   1.697   4.967 -1.7035 -0.8871 -0.6473
  449MOL0     H61912   4.158   1.924   4.957 -1.7956 -1.5485  0.1575
  449MOL0     H61913   4.081   1.962   4.800  0.5468 -0.8715 -2.4301
  449MOL0     H61914   4.290   2.114   4.881 -0.4508 -0.3778  0.2557
  449MOL0     H61915   4.381   1.962   4.862  0.2508 -0.1742 -0.6482
  449MOL0     H61916   4.351   1.957   4.635 -0.0918 -0.7685  2.0259
  449MOL0     H61917   4.215   2.079   4.640  0.7469  2.9298 -0.8553
  449MOL0     H61918   4.355   2.262   4.649 -0.7861 -0.6110 -1.5032
  449MOL0     H61919   4.489   2.178   4.726 -0.6333  0.1746  0.3181
  449MOL0     H61920   4.605   2.354   4.652  0.5350 -0.0457  0.2273
  449MOL0     H61921   4.695   2.552   4.682  0.3824 -1.7537  0.2941
  449MOL0     H61922   4.790   2.638   4.558 -1.4627  1.4026  1.3152
  449MOL0     H61923   4.856   2.498   4.645  0.1761 -0.6624 -1.8019
  449MOL0     H61924   5.191   2.447   4.303  1.7018  1.5424  0.3665
  449MOL0     H61925   5.386   2.484   4.170  2.4505  3.5059 -2.6896
  449MOL0     H61926   5.412   2.416   3.844  0.7904  0.1949 -0.3723
  449MOL0     H61927   5.360   2.540   3.727  1.3095 -0.1114 -1.8847
  449MOL0     H61928   5.583   2.656   3.781 -3.5467  0.7374  1.3518
  449MOL0     H61929   5.627   2.524   3.880 -0.6876  2.0175  1.4112
  449MOL0     H61930   5.711   2.409   3.697  0.2042 -0.6217 -0.6814
  449MOL0     H61931   5.705   2.573   3.634 -3.3507  1.3969 -0.6985
  449MOL0     H61932   5.476   2.526   3.518  1.6898  0.4977 -0.2633
  449MOL0     H61933   5.494   2.360   3.570  1.4477 -0.2857  1.3054
  449MOL0     H61934   5.714   2.479   3.400  0.4043 -0.5082 -0.7954
  449MOL0     H61935   5.674   2.315   3.446 -1.7131 -0.4598 -2.5113
  449MOL0     H61936   5.474   2.335   3.305  0.5466 -3.0973 -0.6533
  449MOL0     H61937   5.614   2.323   3.215 -0.5220 -0.6903  0.8290
  449MOL0     H61938   5.498   2.595   3.273 -1.3512 -1.3446  0.4321
  449MOL0     H61939   5.448   2.500   3.135  0.2011  0.1266 -0.7623
  449MOL0     H61940   5.737   2.581   3.201  0.5581 -1.1557 -1.7285
  449MOL0     H61941   5.616   2.680   3.111  1.6618 -0.9309 -5.0227
  449MOL0     H61942   5.138   2.599   3.834 -0.4789 -0.8292  0.0908
  449MOL0     H61943   4.931   2.525   3.960 -0.0301  0.4610  0.9965
  449MOL0     H61944   4.745   2.293   4.185 -2.4463 -1.7242 -0.0507
  449MOL0     H61945   4.571   2.157   4.269 -0.0161  0.3915 -0.2705
  449MOL0     H61946   4.440   1.186   4.026  0.1320 -0.9425 -1.5058
  449MOL0     H61947   4.497   1.303   3.813 -0.2657 -0.8273  0.3680
  449MOL0     H61948   4.574   1.691   3.566  1.4343 -0.7364 -1.1338
  449MOL0     H61949   4.622   1.765   3.359 -0.3774  1.4918 -0.6450
  449MOL0     H61950   4.669   1.677   3.153  0.8330 -0.7110 -0.8285
  449MOL0     H61951   4.601   1.684   2.988  0.3751 -0.4398  0.4918
  449MOL0     H61952   4.597   1.932   3.167  0.0489  3.0236 -1.4001
  449MOL0     H61953   4.585   1.914   2.987  2.3724  0.6643 -0.5844
  449MOL0     H61954   4.824   1.839   2.975 -0.4176  1.5645 -1.3442
  449MOL0     H61955   4.805   2.002   3.030 -0.8101  1.5292  2.4488
  449MOL0     H61956   4.971   1.894   3.171  0.4575 -1.7526 -0.2242
  449MOL0     H61957   4.865   1.759   3.210  0.6352  0.9906  2.6536
  449MOL0     H61958   4.745   2.111   3.435 -0.5140 -0.9428  0.4671
  449MOL0     H61959   4.248   1.626   3.210 -3.3552 -2.2567  1.5469
  449MOL0     H61960   4.132   1.457   3.443  0.5628 -0.2744 -3.6973
  449MOL0     H61961   4.077   1.593   3.538 -3.0231 -0.5404 -1.0729
  449MOL0     H61962   4.057   1.595   3.363  1.6385  1.0861 -0.2406
  450MOL0     O61963   3.959   4.883  11.209 -0.2841  0.4335  0.4227
  450MOL0     C61964   3.856   4.925  11.262  0.1344  0.2130  0.4049
  450MOL0     O61965   3.846   5.052  11.309  0.0493  0.4723 -0.1884
  450MOL0     C61966   3.923   5.149  11.248  0.9108  0.4243  0.0730
  450MOL0     C61967   4.010   5.221  11.329 -0.3518  0.7780  0.4234
  450MOL0     C61968   4.076   5.332  11.282 -0.1382  0.3973  0.6117
  450MOL0     C61969   4.051   5.374  11.149 -0.1366  0.2277 -0.4553
  450MOL0     O61970   4.116   5.486  11.100  0.1554  0.7425  0.3845
  450MOL0     C61971   4.236   5.525  11.173  0.5616  0.0487  0.7360
  450MOL0     C61972   4.338   5.585  11.073 -0.4645  0.5724 -0.6936
  450MOL0     C61973   4.484   5.568  11.111 -0.5313  0.2158 -1.4324
  450MOL0     C61974   4.589   5.612  11.001 -0.0335  0.1909  0.3128
  450MOL0     C61975   4.732   5.616  11.049 -0.0255  1.2990  0.3137
  450MOL0     C61976   4.762   5.744  11.127 -0.1062 -0.1834  0.2258
  450MOL0     C61977   4.909   5.765  11.135  0.7185  0.1379 -0.2098
  450MOL0     C61978   4.960   5.791  11.269 -0.3787  0.1774  0.5669
  450MOL0     N61979   5.101   5.817  11.265 -0.5166 -0.1631 -0.5888
  450MOL0     C61980   5.172   5.929  11.229 -0.6176  0.2203 -0.0445
  450MOL0     C61981   5.303   5.906  11.273  1.1982  0.3676 -0.1071
  450MOL0     C61982   5.412   5.987  11.228  0.2535 -0.0870 -0.3514
  450MOL0     C61983   5.547   5.905  11.217  0.2564 -0.2179 -0.5455
  450MOL0     C61984   5.668   5.978  11.148 -0.0032  0.6574  0.1339
  450MOL0     C61985   5.797   5.897  11.168  1.0340  0.2576  0.5091
  450MOL0     O61986   5.898   5.970  11.089 -0.2790  0.3727 -0.2254
  450MOL0     C61987   5.995   5.906  11.025  0.5062  0.8321 -0.3617
  450MOL0     C61988   6.041   5.781  11.052  0.0274  0.1502 -0.5388
  450MOL0     C61989   6.148   5.725  10.978 -0.3768  0.3916  0.5742
  450MOL0     C61990   6.192   5.587  11.020 -0.2667 -0.4039  0.7540
  450MOL0     C61991   6.222   5.806  10.879  0.1543  0.2947  0.1406
  450MOL0     C61992   6.325   5.754  10.791 -0.4874  0.0630  0.3508
  450MOL0     O61993   6.452   5.808  10.790 -0.0923  0.0907 -0.1870
  450MOL0     C61994   6.553   5.735  10.725 -0.1494 -0.5971  0.4447
  450MOL0     C61995   6.630   5.808  10.643 -0.1696 -0.2130  0.0901
  450MOL0     C61996   6.735   5.753  10.569 -0.8482  0.2471  0.2640
  450MOL0     C61997   6.762   5.617  10.592  0.0125 -0.1739  0.1734
  450MOL0     O61998   6.854   5.537  10.532 -0.0525  0.1862 -0.2522
  450MOL0     C61999   6.985   5.586  10.512 -0.3822 -0.0875  0.5208
  450MOL0     C62000   7.066   5.553  10.638 -0.1580 -0.3973 -0.4131
  450MOL0     C62001   7.199   5.633  10.657  0.5138 -0.2860  0.5694
  450MOL0     C62002   7.288   5.633  10.531  0.5964  0.7096  0.6332
  450MOL0     C62003   7.421   5.714  10.550 -0.7895  0.2986 -1.2954
  450MOL0     C62004   7.528   5.704  10.431  0.3182 -0.0800 -0.6202
  450MOL0     C62005   7.495   5.801  10.308 -0.6981  0.0551  0.6304
  450MOL0     C62006   7.612   5.820  10.215 -0.5157 -0.4721  0.7364
  450MOL0    Cl62007   7.560   5.930  10.085 -0.3887 -0.4623  0.5455
  450MOL0     C62008   6.687   5.548  10.679 -0.9745 -0.9577 -1.0865
  450MOL0     C62009   6.586   5.604  10.756  0.3865 -0.5537 -0.2076
  450MOL0     O62010   6.297   5.650  10.739 -0.5372 -0.3338  0.2928
  450MOL0     C62011   6.178   5.936  10.862 -0.1648  1.3334 -0.1590
  450MOL0     C62012   6.064   5.982  10.923  1.1179 -0.1704  0.9325
  450MOL0     N62013   5.308   5.776  11.317  0.5647  0.5270  0.4062
  450MOL0     N62014   5.188   5.725  11.309 -0.5120  0.4974  0.0924
  450MOL0     C62015   3.973   5.299  11.063  1.0438  0.4603  0.3190
  450MOL0     C62016   3.908   5.188  11.111 -0.3012  0.6895  0.0708
  450MOL0     C62017   3.753   4.824  11.282 -0.5444 -0.2323  0.3292
  450MOL0     C62018   3.800   4.690  11.269  0.2882 -0.1399 -0.2542
  450MOL0     C62019   3.711   4.588  11.279  0.8151 -0.8612  1.2232
  450MOL0     C62020   3.571   4.604  11.306 -0.4061  0.2526  0.3484
  450MOL0     O62021   3.491   4.490  11.315  0.0309  0.4151  0.2237
  450MOL0     C62022   3.344   4.498  11.305  0.5926 -0.3993 -0.2675
  450MOL0     C62023   3.271   4.360  11.308 -0.8408 -0.7947  0.5949
  450MOL0     C62024   3.131   4.375  11.368  0.0651 -0.3197 -0.2517
  450MOL0     C62025   3.051   4.239  11.351  0.1253  0.0290 -0.4591
  450MOL0     C62026   3.035   4.170  11.220  0.1196  0.1116  0.3117
  450MOL0     C62027   3.000   4.130  11.114  0.0194 -0.0438 -0.0310
  450MOL0     C62028   3.528   4.734  11.328  0.3833  0.3017 -0.5076
  450MOL0     C62029   3.615   4.845  11.307 -0.8727 -0.0594 -0.6917
  450MOL0     C62030   3.555   4.984  11.313 -0.1881  0.4258  0.1405
  450MOL0     H62031   3.996   5.200  11.434 -2.2940  0.0963  0.0663
  450MOL0     H62032   4.134   5.384  11.358  1.2008 -0.2559  0.0767
  450MOL0     H62033   4.292   5.441  11.216 -2.2464 -2.2487  0.2425
  450MOL0     H62034   4.208   5.608  11.238  0.8105  0.5144  0.2562
  450MOL0     H62035   4.333   5.518  10.987  2.6094 -0.8515  0.0987
  450MOL0     H62036   4.309   5.688  11.048 -0.2495  1.0634  0.9620
  450MOL0     H62037   4.496   5.619  11.206 -0.5579 -2.1172 -0.1056
  450MOL0     H62038   4.508   5.465  11.137  0.6905  1.0493  1.0128
  450MOL0     H62039   4.585   5.537  10.921  2.2424 -1.1555  1.3365
  450MOL0     H62040   4.555   5.709  10.963 -2.2854 -0.7378 -0.2005
  450MOL0     H62041   4.790   5.619  10.956  0.0068  1.2878  0.3333
  450MOL0     H62042   4.740   5.523  11.107 -2.5938  0.4882 -0.4977
  450MOL0     H62043   4.707   5.824  11.075  1.7544 -0.0015 -1.5925
  450MOL0     H62044   4.712   5.721  11.221 -0.4079 -2.4918 -0.4382
  450MOL0     H62045   4.947   5.838  11.063  1.1690  1.1675  1.0533
  450MOL0     H62046   4.946   5.663  11.119  0.0520 -0.1704  0.1918
  450MOL0     H62047   4.914   5.879  11.315  0.2332  0.7258  0.1336
  450MOL0     H62048   4.929   5.713  11.340  0.0459  1.4297  2.1869
  450MOL0     H62049   5.126   6.014  11.180  1.1635  2.1028  1.3955
  450MOL0     H62050   5.414   6.073  11.295 -0.6191 -2.0949  2.4054
  450MOL0     H62051   5.388   6.016  11.125  0.9033 -2.0827 -1.1017
  450MOL0     H62052   5.574   5.875  11.319  3.4297 -3.7668 -2.2068
  450MOL0     H62053   5.529   5.809  11.166  2.4569 -1.0067  0.0773
  450MOL0     H62054   5.648   5.985  11.041 -0.0104 -2.3304 -0.1256
  450MOL0     H62055   5.683   6.080  11.186  0.1900 -0.6164  3.9738
  450MOL0     H62056   5.832   5.886  11.271 -1.6998 -1.3992  1.3779
  450MOL0     H62057   5.777   5.798  11.124 -0.9230  1.5507 -1.7983
  450MOL0     H62058   5.989   5.732  11.134  0.4075 -0.5149 -0.6818
  450MOL0     H62059   6.232   5.588  11.122 -1.6766  0.2460  1.3180
  450MOL0     H62060   6.279   5.551  10.964 -0.4744 -2.7298  1.8090
  450MOL0     H62061   6.114   5.511  11.017 -1.5185  0.8467  0.5843
  450MOL0     H62062   6.608   5.913  10.627  1.2016  0.1730  0.6083
  450MOL0     H62063   6.790   5.812  10.496  2.4332 -2.1304  0.6218
  450MOL0     H62064   7.032   5.534  10.428  0.7700 -0.2135  1.2226
  450MOL0     H62065   6.990   5.695  10.501  0.9063 -0.3568 -2.2821
  450MOL0     H62066   7.004   5.583  10.722 -0.4144 -1.8604 -0.0570
  450MOL0     H62067   7.083   5.445  10.641 -1.0223 -0.6439 -2.5155
  450MOL0     H62068   7.246   5.598  10.748  1.9468  1.2671  0.4732
  450MOL0     H62069   7.191   5.740  10.679  3.2644  0.5002 -1.6489
  450MOL0     H62070   7.238   5.683  10.448  0.9088  3.8516  2.2049
  450MOL0     H62071   7.324   5.533  10.503 -2.2712  0.0879 -1.2605
  450MOL0     H62072   7.405   5.818  10.579  0.8175 -0.0866  1.2645
  450MOL0     H62073   7.461   5.663  10.638 -0.3914  1.0072 -1.0598
  450MOL0     H62074   7.531   5.602  10.393 -1.2094 -0.1402 -0.6271
  450MOL0     H62075   7.628   5.735  10.464  1.0562 -1.7442 -1.1903
  450MOL0     H62076   7.459   5.901  10.335 -2.2781  1.1862 -4.4805
  450MOL0     H62077   7.406   5.759  10.260  0.9610 -0.5256 -2.1748
  450MOL0     H62078   7.649   5.725  10.176 -1.1027  0.1071 -1.3847
  450MOL0     H62079   7.690   5.862  10.279 -0.0131 -0.8338  0.3655
  450MOL0     H62080   6.731   5.450  10.693  0.7767  0.0082  0.5642
  450MOL0     H62081   6.525   5.549  10.827  0.6934 -0.1418  0.3944
  450MOL0     H62082   6.230   5.995  10.788  2.5916 -0.4079  0.2485
  450MOL0     H62083   6.021   6.075  10.887 -0.8843 -1.6953 -0.8352
  450MOL0     H62084   3.955   5.334  10.962 -3.2243 -0.6713  0.4783
  450MOL0     H62085   3.843   5.128  11.049 -0.6743  0.8576  0.2946
  450MOL0     H62086   3.903   4.657  11.269  0.9170  1.6189  1.1081
  450MOL0     H62087   3.749   4.487  11.270  2.2525 -0.2070 -1.1528
  450MOL0     H62088   3.321   4.561  11.391  3.2291 -2.3361  2.0360
  450MOL0     H62089   3.309   4.564  11.225  1.9739  2.2478  1.1720
  450MOL0     H62090   3.342   4.284  11.341 -1.2097 -1.1095  0.6758
  450MOL0     H62091   3.268   4.343  11.200 -0.1578  1.5636  0.1273
  450MOL0     H62092   3.145   4.404  11.472 -0.8385 -1.2481  0.1370
  450MOL0     H62093   3.072   4.462  11.335 -1.5614  0.0938  3.3344
  450MOL0     H62094   2.955   4.256  11.399  2.0654  2.1590  3.1172
  450MOL0     H62095   3.104   4.174  11.421  2.8306  1.4480 -1.0618
  450MOL0     H62096   2.971   4.092  11.018  2.1845 -4.1189  0.6796
  450MOL0     H62097   3.425   4.749  11.360  0.8069  0.6074  0.7909
  450MOL0     H62098   3.607   5.040  11.392  0.2425 -1.4438  1.2246
  450MOL0     H62099   3.545   5.045  11.222  2.1580  0.1945 -0.3377
  450MOL0     H62100   3.454   4.978  11.355  0.2017 -0.2678  0.9976
  451MOL0     O62101   3.205  10.486  10.561 -0.5439  0.2347 -0.1617
  451MOL0     C62102   3.151  10.406  10.637 -0.0017 -0.2596 -0.2751
  451MOL0     O62103   3.214  10.329  10.728  0.1005 -0.0649 -0.2925
  451MOL0     C62104   3.343  10.279  10.707 -1.2149 -0.0360 -0.3095
  451MOL0     C62105   3.425  10.257  10.814 -0.0946 -0.2214  0.0248
  451MOL0     C62106   3.557  10.217  10.806  0.0956 -0.5097  0.6493
  451MOL0     C62107   3.618  10.209  10.680 -0.1197 -0.5832  0.1214
  451MOL0     O62108   3.754  10.186  10.669  0.1777  0.3588 -0.3906
  451MOL0     C62109   3.845  10.242  10.767  1.2037  0.3068 -0.0744
  451MOL0     C62110   3.992  10.206  10.730  0.1631 -0.6481 -0.6768
  451MOL0     C62111   4.030  10.272  10.602  0.3687  0.0146  0.3401
  451MOL0     C62112   4.185  10.282  10.598  0.7671  0.2377 -0.0512
  451MOL0     C62113   4.234  10.338  10.471  0.5134 -0.1650 -0.0842
  451MOL0     C62114   4.377  10.312  10.441  0.3353  0.1438 -0.7833
  451MOL0     C62115   4.472  10.359  10.556 -0.2303 -0.3990 -0.1202
  451MOL0     C62116   4.607  10.282  10.554 -1.1468 -0.7923  0.7193
  451MOL0     N62117   4.675  10.307  10.428 -0.1684  0.3733  0.7253
  451MOL0     C62118   4.722  10.217  10.333 -0.7483 -0.9510 -0.2841
  451MOL0     C62119   4.790  10.291  10.241 -0.0382  0.3752 -0.0653
  451MOL0     C62120   4.865  10.233  10.124  0.0504 -0.1079  0.0897
  451MOL0     C62121   4.953  10.337  10.054 -0.2607  0.9523 -0.1524
  451MOL0     C62122   5.050  10.287   9.945  0.4402 -0.5569  0.4092
  451MOL0     C62123   4.981  10.214   9.834  0.2581  0.4317  1.0743
  451MOL0     O62124   4.898  10.309   9.768 -0.1044  0.5605 -0.1978
  451MOL0     C62125   4.885  10.300   9.628  0.4368  0.5205  0.2525
  451MOL0     C62126   4.876  10.415   9.547  0.0727 -0.2545 -0.2791
  451MOL0     C62127   4.886  10.402   9.404  0.5957 -0.2978 -0.4338
  451MOL0     C62128   4.890  10.528   9.325 -0.0184 -0.2802 -0.1568
  451MOL0     C62129   4.888  10.280   9.343  0.2405 -0.3270  0.2892
  451MOL0     C62130   4.909  10.279   9.194 -0.2862  0.3772 -0.0747
  451MOL0     O62131   5.010  10.341   9.126 -0.1599  0.3958  0.0317
  451MOL0     C62132   5.144  10.327   9.159  0.3940  0.4150 -0.7971
  451MOL0     C62133   5.230  10.427   9.140  0.0031 -0.2922 -0.6767
  451MOL0     C62134   5.368  10.404   9.174 -0.1732 -0.0744 -0.6847
  451MOL0     C62135   5.417  10.292   9.236  0.2041  0.5248  0.8851
  451MOL0     O62136   5.546  10.279   9.278  0.2756  0.0724 -0.2967
  451MOL0     C62137   5.642  10.354   9.203  0.0209 -0.1257  0.7203
  451MOL0     C62138   5.774  10.299   9.257 -0.3378 -0.1240 -0.0339
  451MOL0     C62139   5.886  10.398   9.265 -0.0918  0.1994 -0.6274
  451MOL0     C62140   6.007  10.332   9.337 -1.0442 -0.5715  0.3197
  451MOL0     C62141   6.135  10.425   9.314  0.1045 -1.4038  0.5669
  451MOL0     C62142   6.252  10.361   9.381  0.4544 -0.0539  0.9571
  451MOL0     C62143   6.367  10.467   9.399 -0.2895 -0.6354 -0.1966
  451MOL0     C62144   6.330  10.590   9.484  0.2987  0.5576 -0.3822
  451MOL0    Cl62145   6.236  10.528   9.617  0.2849 -0.1211 -0.1429
  451MOL0     C62146   5.325  10.190   9.261  0.9712 -0.7168  1.5782
  451MOL0     C62147   5.191  10.207   9.214 -0.3437  0.3682 -0.4286
  451MOL0     O62148   4.819  10.211   9.138 -0.2185  0.1869  0.2343
  451MOL0     C62149   4.874  10.165   9.420 -0.4746 -1.1949 -0.4742
  451MOL0     C62150   4.874  10.176   9.561  0.0582 -0.6732  0.1269
  451MOL0     N62151   4.777  10.425  10.271  0.0555  0.3169 -0.2090
  451MOL0     N62152   4.706  10.429  10.375  1.0978  0.1099  0.8523
  451MOL0     C62153   3.541  10.234  10.571  0.8851  0.1673  0.6723
  451MOL0     C62154   3.404  10.266  10.573  0.0056  0.6675 -0.6412
  451MOL0     C62155   3.001  10.430  10.637 -0.1136 -0.0932 -0.0357
  451MOL0     C62156   2.939  10.541  10.584  1.0653  0.4022  0.8796
  451MOL0     C62157   2.800  10.558  10.604  0.7624 -0.7730 -0.1053
  451MOL0     C62158   2.722  10.454  10.655  0.4387 -0.1652 -0.4958
  451MOL0     O62159   2.589  10.482  10.662  0.5363 -0.2588  0.3137
  451MOL0     C62160   2.498  10.378  10.708 -0.3496  0.0128 -0.5105
  451MOL0     C62161   2.355  10.410  10.682  0.5262 -0.3059 -0.5328
  451MOL0     C62162   2.337  10.415  10.530  0.0177  0.1267 -0.7826
  451MOL0     C62163   2.188  10.405  10.487  0.0102 -0.1693 -0.4722
  451MOL0     C62164   2.110  10.511  10.544 -0.2757 -0.2494  0.1420
  451MOL0     C62165   2.034  10.603  10.566  0.0604  0.0897 -1.1919
  451MOL0     C62166   2.791  10.341  10.702  0.1375 -0.6365  0.2639
  451MOL0     C62167   2.927  10.328  10.700  0.6319  0.0282  0.1878
  451MOL0     C62168   2.980  10.191  10.733 -0.1193  0.5414  0.0823
  451MOL0     H62169   3.367  10.270  10.905 -1.3934 -1.8267 -0.5240
  451MOL0     H62170   3.604  10.198  10.902  1.2744  0.7813  0.3618
  451MOL0     H62171   3.816  10.208  10.866  0.5646  0.0424 -0.3472
  451MOL0     H62172   3.824  10.349  10.763 -1.6004 -0.2152 -2.2054
  451MOL0     H62173   4.060  10.237  10.810  0.1860 -0.2385 -0.8515
  451MOL0     H62174   3.987  10.097  10.728 -0.6227 -0.6473  0.4630
  451MOL0     H62175   3.993  10.219  10.514 -0.9825 -0.4308  1.1476
  451MOL0     H62176   3.980  10.369  10.593  0.7923  0.0973 -1.5306
  451MOL0     H62177   4.216  10.347  10.681  1.1952 -0.5140  0.3824
  451MOL0     H62178   4.232  10.184  10.607  2.6112  0.7297 -2.8386
  451MOL0     H62179   4.222  10.446  10.465  0.5190 -0.1792 -0.3421
  451MOL0     H62180   4.176  10.296  10.388 -1.7486 -0.5051  1.5928
  451MOL0     H62181   4.399  10.205  10.435 -0.3756 -0.0450  0.0055
  451MOL0     H62182   4.410  10.361  10.348  1.4829 -0.9797 -1.0041
  451MOL0     H62183   4.440  10.334  10.658  1.2464 -1.1833  0.1872
  451MOL0     H62184   4.490  10.464  10.529 -1.3721 -0.2576 -0.3925
  451MOL0     H62185   4.664  10.315  10.641 -0.6923  1.2966 -0.3124
  451MOL0     H62186   4.576  10.177  10.554 -1.3432 -0.7522 -0.4146
  451MOL0     H62187   4.718  10.109  10.339  0.0115 -1.0292 -1.0297
  451MOL0     H62188   4.785  10.190  10.063  0.4097 -1.1617  0.3257
  451MOL0     H62189   4.929  10.152  10.161 -0.4044 -0.8917 -0.8006
  451MOL0     H62190   4.894  10.413  10.002  0.8528  0.2266 -2.6319
  451MOL0     H62191   5.010  10.395  10.126  2.0004 -1.8926  0.5495
  451MOL0     H62192   5.110  10.371   9.908 -1.4311  1.0243  0.7761
  451MOL0     H62193   5.114  10.208   9.986 -0.8670 -1.4450  0.8027
  451MOL0     H62194   5.050  10.173   9.759 -0.6498  2.4261 -0.9555
  451MOL0     H62195   4.914  10.138   9.875 -2.1560  3.2147  2.7003
  451MOL0     H62196   4.875  10.508   9.603  2.1765  0.2776 -1.0299
  451MOL0     H62197   4.984  10.544   9.271 -0.8995  2.1900 -1.0729
  451MOL0     H62198   4.873  10.618   9.385 -2.0246 -1.7205  1.6167
  451MOL0     H62199   4.812  10.518   9.249  0.9306 -0.5789 -1.1204
  451MOL0     H62200   5.193  10.523   9.108  0.4215  0.5280  1.1398
  451MOL0     H62201   5.433  10.487   9.151 -2.2381  1.9411  0.3020
  451MOL0     H62202   5.629  10.339   9.096 -2.1291  0.4625  0.8562
  451MOL0     H62203   5.634  10.462   9.220  2.5793  0.8214 -3.0340
  451MOL0     H62204   5.755  10.256   9.356 -3.4570  3.4602  1.1402
  451MOL0     H62205   5.802  10.216   9.191  2.6289 -0.8558  1.9371
  451MOL0     H62206   5.856  10.493   9.312 -0.7794  0.5551 -1.7463
  451MOL0     H62207   5.916  10.410   9.160  1.2395  0.2301 -0.2664
  451MOL0     H62208   6.023  10.230   9.299 -3.2533 -0.7625 -0.2703
  451MOL0     H62209   5.977  10.332   9.442 -2.2966 -0.7113 -0.0184
  451MOL0     H62210   6.157  10.457   9.212  2.2011  1.4180  1.7683
  451MOL0     H62211   6.106  10.515   9.369  1.1405 -1.2930  0.9431
  451MOL0     H62212   6.278  10.282   9.310 -1.0009 -0.6918  1.0882
  451MOL0     H62213   6.224  10.310   9.474  2.1563 -0.0584  1.4904
  451MOL0     H62214   6.412  10.494   9.303 -0.7160  0.5046 -0.0931
  451MOL0     H62215   6.456  10.419   9.441 -0.0191 -2.6043 -2.8054
  451MOL0     H62216   6.281  10.657   9.413  1.8877  1.0372 -1.0861
  451MOL0     H62217   6.420  10.642   9.518 -0.3598  1.3791  0.1517
  451MOL0     H62218   5.340  10.091   9.302 -0.9618 -1.1135  1.4198
  451MOL0     H62219   5.119  10.126   9.218 -0.7432  0.7799  1.1987
  451MOL0     H62220   4.883  10.069   9.370  0.4267 -0.5844 -1.5291
  451MOL0     H62221   4.865  10.083   9.617  1.1492 -1.2704 -0.6454
  451MOL0     H62222   3.576  10.230  10.468 -0.4423 -1.8302  0.2482
  451MOL0     H62223   3.342  10.272  10.484 -1.0241 -2.8203 -0.3080
  451MOL0     H62224   2.999  10.620  10.540 -0.2047  1.2332  0.5763
  451MOL0     H62225   2.756  10.653  10.574 -0.0892 -1.3161 -0.6082
  451MOL0     H62226   2.516  10.282  10.658 -1.5057 -1.1756  1.2444
  451MOL0     H62227   2.509  10.370  10.816 -1.0741  0.0170 -0.4361
  451MOL0     H62228   2.319  10.507  10.718  2.0892 -0.6928  2.3519
  451MOL0     H62229   2.290  10.332  10.722  1.3799 -0.5497  0.4238
  451MOL0     H62230   2.380  10.507  10.491  1.6372  0.4789  1.6624
  451MOL0     H62231   2.382  10.323  10.491  0.4247  1.5610 -4.0978
  451MOL0     H62232   2.145  10.311  10.522 -0.3096 -0.4861 -1.6776
  451MOL0     H62233   2.191  10.417  10.378 -2.0278 -0.5373 -0.6026
  451MOL0     H62234   1.956  10.676  10.573  0.8177  0.9141 -1.1429
  451MOL0     H62235   2.734  10.251  10.726 -0.2096 -1.3806 -2.9393
  451MOL0     H62236   3.038  10.187  10.826 -1.4972 -0.2282  0.9493
  451MOL0     H62237   2.895  10.122  10.739 -1.8086  2.3142 -1.7750
  451MOL0     H62238   3.033  10.144  10.650 -1.3158  2.6752 -2.0024
  452MOL0     O62239   8.279   2.720  10.528 -0.0615 -0.5659  1.1011
  452MOL0     C62240   8.319   2.712  10.641  0.4848 -0.3854 -0.0473
  452MOL0     O62241   8.452   2.732  10.677 -0.0149 -0.6815 -0.7843
  452MOL0     C62242   8.527   2.816  10.590  0.5370 -0.1730 -0.0704
  452MOL0     C62243   8.470   2.931  10.535 -0.3515  0.1466  1.2352
  452MOL0     C62244   8.555   3.019  10.465  0.1862  0.4601  0.6356
  452MOL0     C62245   8.690   2.992  10.452 -0.5391  0.5031  0.3129
  452MOL0     O62246   8.778   3.078  10.386  0.0977  0.3122 -0.3215
  452MOL0     C62247   8.761   3.220  10.397 -0.3128 -0.6501 -0.5225
  452MOL0     C62248   8.912   3.263  10.437  0.7278  0.0239 -0.0463
  452MOL0     C62249   8.987   3.278  10.310  0.2890  0.5513  0.3545
  452MOL0     C62250   9.138   3.286  10.336  0.2150  0.0603 -0.1157
  452MOL0     C62251   9.208   3.335  10.204 -0.0082  0.3281 -0.1509
  452MOL0     C62252   9.167   3.468  10.147 -0.1210 -0.3669 -0.2454
  452MOL0     C62253   9.272   3.525  10.045  0.9870  0.3030 -0.4625
  452MOL0     C62254   9.233   3.652   9.969  0.3756 -0.8308 -0.2148
  452MOL0     N62255   9.173   3.755  10.057 -0.4909 -0.3611 -0.0869
  452MOL0     C62256   9.044   3.810  10.027 -0.0620 -0.7822  0.1932
  452MOL0     C62257   9.031   3.908  10.118  0.8974 -0.1682  0.3940
  452MOL0     C62258   8.901   3.989  10.132 -0.7661 -0.8869 -0.4657
  452MOL0     C62259   8.924   4.101  10.233 -0.5591 -0.8469 -0.6001
  452MOL0     C62260   8.791   4.169  10.259  0.1027 -0.7484  0.2776
  452MOL0     C62261   8.660   4.093  10.298  0.9773 -0.1524  0.6217
  452MOL0     O62262   8.596   4.033  10.184 -0.8122  1.0169 -0.2517
  452MOL0     C62263   8.485   3.955  10.188  0.6433  0.3175  0.0890
  452MOL0     C62264   8.430   3.905  10.070  0.6590  0.2321 -0.1630
  452MOL0     C62265   8.319   3.831  10.063  0.0812 -0.1845  0.4055
  452MOL0     C62266   8.271   3.774   9.930  0.0599  0.2848  0.3276
  452MOL0     C62267   8.243   3.811  10.180  0.8404  0.0722 -0.0636
  452MOL0     C62268   8.105   3.750  10.176 -1.3570  0.4827  0.1391
  452MOL0     O62269   8.057   3.697  10.292 -0.7999  0.2237 -0.0740
  452MOL0     C62270   7.937   3.638  10.306  0.3993  0.0763  0.4287
  452MOL0     C62271   7.870   3.558  10.211  0.2658  0.0765  0.3436
  452MOL0     C62272   7.741   3.512  10.227  0.1485  0.0976 -0.4062
  452MOL0     C62273   7.677   3.537  10.355 -0.1085  0.6195  0.8718
  452MOL0     O62274   7.552   3.498  10.385  1.5600  0.0201 -0.2077
  452MOL0     C62275   7.494   3.387  10.305  1.5348 -0.4063 -0.5242
  452MOL0     C62276   7.370   3.335  10.382 -0.3853 -0.3390 -0.5487
  452MOL0     C62277   7.312   3.203  10.330  0.0467  0.0575 -0.6419
  452MOL0     C62278   7.195   3.145  10.415  0.2178 -0.1699  0.3426
  452MOL0     C62279   7.143   3.022  10.341 -0.1491 -0.4712 -0.2436
  452MOL0     C62280   7.020   2.969  10.408 -0.4811  1.2725 -0.1151
  452MOL0     C62281   7.036   2.917  10.549  1.1503 -0.7358  0.4507
  452MOL0     C62282   6.887   2.902  10.603  0.3390 -0.0809 -0.2978
  452MOL0    Cl62283   6.806   3.065  10.616  0.1112 -0.2765  0.4810
  452MOL0     C62284   7.742   3.617  10.447  1.1504  0.1313  0.2452
  452MOL0     C62285   7.872   3.667  10.424 -0.4812 -0.2318  0.1771
  452MOL0     O62286   8.044   3.766  10.076  0.3548  0.1882 -0.4187
  452MOL0     C62287   8.294   3.861  10.305 -0.7355 -0.2105 -0.3078
  452MOL0     C62288   8.410   3.938  10.305  0.7023  0.4419 -0.2488
  452MOL0     N62289   9.147   3.933  10.180 -0.1830 -0.3009 -0.0243
  452MOL0     N62290   9.227   3.838  10.150 -0.0603 -0.2629 -0.1782
  452MOL0     C62291   8.750   2.876  10.509 -0.7202  1.0883  0.7679
  452MOL0     C62292   8.663   2.790  10.577 -0.3407 -0.6818 -0.7128
  452MOL0     C62293   8.222   2.668  10.753 -0.3018  0.5630 -0.3314
  452MOL0     C62294   8.279   2.630  10.876 -0.0884 -0.1017 -1.3774
  452MOL0     C62295   8.213   2.572  10.978  0.1335 -0.1696 -0.5206
  452MOL0     C62296   8.075   2.545  10.962  0.4633 -0.3760  0.7358
  452MOL0     O62297   8.014   2.481  11.061 -0.2400  0.0959  1.1985
  452MOL0     C62298   7.916   2.394  11.026 -0.0094  0.4612 -0.2306
  452MOL0     C62299   7.980   2.281  10.938  0.4238  0.8663  0.0076
  452MOL0     C62300   7.872   2.176  10.888 -0.5499 -1.0166  0.1366
  452MOL0     C62301   7.935   2.092  10.778 -0.9701  0.0900 -0.7180
  452MOL0     C62302   7.826   2.000  10.729 -0.9356  0.1936  0.2918
  452MOL0     C62303   7.738   1.949  10.661  0.0339 -0.2354  0.0844
  452MOL0     C62304   8.014   2.598  10.846  0.1780  0.1825  0.3439
  452MOL0     C62305   8.080   2.666  10.743  0.0907  0.7938  0.1422
  452MOL0     C62306   7.993   2.719  10.625  0.5847 -0.7127 -0.0703
  452MOL0     H62307   8.364   2.953  10.529  0.0836  2.2831  0.6846
  452MOL0     H62308   8.512   3.104  10.414  1.1258  0.0914 -0.8169
  452MOL0     H62309   8.691   3.239  10.479  2.1605 -0.1080  1.5872
  452MOL0     H62310   8.725   3.275  10.309  0.0433 -3.4140 -2.4973
  452MOL0     H62311   8.918   3.364  10.480 -1.9185  0.3157 -0.1932
  452MOL0     H62312   8.949   3.182  10.500  0.5791 -1.1783 -1.4554
  452MOL0     H62313   8.968   3.193  10.244 -0.3750  1.3721 -0.5523
  452MOL0     H62314   8.951   3.365  10.253  1.0585 -0.2676 -1.4547
  452MOL0     H62315   9.171   3.352  10.417  1.3183 -2.6934  1.8006
  452MOL0     H62316   9.181   3.188  10.358  0.6855  0.2124 -0.3474
  452MOL0     H62317   9.181   3.259  10.130  0.8213  0.1672 -0.2911
  452MOL0     H62318   9.316   3.328  10.220  0.1715 -0.4971 -1.5250
  452MOL0     H62319   9.076   3.452  10.088  2.0105 -0.7425 -3.7018
  452MOL0     H62320   9.145   3.537  10.229 -1.1009 -0.7300 -0.1878
  452MOL0     H62321   9.300   3.443   9.978  4.0604 -1.7734  2.9583
  452MOL0     H62322   9.367   3.544  10.096  1.7564  0.1182 -1.7841
  452MOL0     H62323   9.322   3.705   9.934 -0.9323  2.2917  0.7458
  452MOL0     H62324   9.155   3.627   9.897 -0.3109  0.0772  0.1867
  452MOL0     H62325   8.971   3.782   9.952  0.6582  0.9042 -1.1876
  452MOL0     H62326   8.829   3.919  10.174  1.7864 -2.9766  0.7356
  452MOL0     H62327   8.861   4.023  10.036  0.7234 -1.6501 -1.3882
  452MOL0     H62328   8.964   4.084  10.333 -0.3255  3.0016  0.1194
  452MOL0     H62329   8.991   4.176  10.190 -2.9560  0.2546 -2.7228
  452MOL0     H62330   8.795   4.230  10.350 -0.7020 -2.9769  1.8804
  452MOL0     H62331   8.769   4.244  10.182  3.7193  0.3715  0.1380
  452MOL0     H62332   8.668   4.023  10.382 -2.0786  0.6583  1.7106
  452MOL0     H62333   8.592   4.172  10.331  0.9095 -0.4474  1.2063
  452MOL0     H62334   8.492   3.912   9.981 -0.4518  1.0685 -0.9028
  452MOL0     H62335   8.197   3.842   9.886 -0.2088  0.3588  0.8804
  452MOL0     H62336   8.225   3.675   9.940 -0.5853  0.3413 -1.6882
  452MOL0     H62337   8.350   3.774   9.855 -0.4528  0.4266 -0.2188
  452MOL0     H62338   7.920   3.537  10.117  0.4338  1.1532  0.1900
  452MOL0     H62339   7.692   3.454  10.150 -0.0767 -0.3269  0.0485
  452MOL0     H62340   7.471   3.423  10.204  1.0494 -2.0306 -1.0245
  452MOL0     H62341   7.560   3.300  10.300 -2.8859 -4.1988 -0.3000
  452MOL0     H62342   7.381   3.333  10.491  0.3876  0.2462 -0.6031
  452MOL0     H62343   7.298   3.415  10.366 -2.8409 -2.0287  1.2413
  452MOL0     H62344   7.389   3.129  10.307 -1.3519 -1.0868 -1.8197
  452MOL0     H62345   7.272   3.240  10.235 -2.4271  3.3364  1.4463
  452MOL0     H62346   7.116   3.221  10.412 -0.4960 -0.9284 -0.8481
  452MOL0     H62347   7.223   3.121  10.518  1.5608  1.6108  0.4531
  452MOL0     H62348   7.114   3.048  10.239  1.3466 -1.8558 -1.0645
  452MOL0     H62349   7.218   2.944  10.324  1.5962  0.7189  1.5415
  452MOL0     H62350   6.968   2.891  10.351 -1.0176  0.0675  1.9038
  452MOL0     H62351   6.953   3.055  10.412 -0.9472  0.8981  2.9897
  452MOL0     H62352   7.085   2.990  10.614  0.5341 -0.6293  0.8050
  452MOL0     H62353   7.084   2.819  10.560  1.4413 -0.6820 -0.2951
  452MOL0     H62354   6.882   2.863  10.705  0.1059  0.3757 -0.1333
  452MOL0     H62355   6.832   2.832  10.539  2.9391 -1.4787 -1.1585
  452MOL0     H62356   7.688   3.635  10.539 -0.2044  0.6631 -0.6284
  452MOL0     H62357   7.919   3.715  10.509 -1.1778  0.8448 -0.0274
  452MOL0     H62358   8.242   3.846  10.399 -2.3552 -0.0132 -1.1351
  452MOL0     H62359   8.446   3.977  10.399 -0.9497 -0.1680  0.6949
  452MOL0     H62360   8.853   2.845  10.500 -0.6207  1.6836 -0.4090
  452MOL0     H62361   8.692   2.701  10.632 -1.5849 -0.3360  0.5643
  452MOL0     H62362   8.387   2.637  10.878 -0.0008 -1.1296 -1.7667
  452MOL0     H62363   8.273   2.535  11.061 -1.2379  0.9682  1.0228
  452MOL0     H62364   7.880   2.344  11.116 -0.0492 -2.2280 -1.6452
  452MOL0     H62365   7.831   2.442  10.977 -2.1382 -2.7183  0.0342
  452MOL0     H62366   8.050   2.222  10.998 -0.4568 -0.2308 -0.0113
  452MOL0     H62367   8.031   2.317  10.848 -0.5447 -0.3702 -1.0953
  452MOL0     H62368   7.834   2.124  10.976 -0.2160  0.3828  1.1338
  452MOL0     H62369   7.788   2.229  10.843  1.4334  1.7098 -0.5877
  452MOL0     H62370   8.027   2.043  10.812 -0.4928  2.1111  1.1390
  452MOL0     H62371   7.960   2.161  10.698 -1.3887  0.6853 -0.3457
  452MOL0     H62372   7.651   1.911  10.613  0.2967  1.5136 -1.9326
  452MOL0     H62373   7.907   2.579  10.842 -0.2933  2.5602 -2.6299
  452MOL0     H62374   7.972   2.648  10.545 -1.8207 -2.7970  2.2138
  452MOL0     H62375   7.890   2.738  10.655  0.4384 -1.2458 -0.2320
  452MOL0     H62376   8.039   2.815  10.601  0.6179 -0.5176  0.7407
  453MOL0     O62377   9.043   8.787   8.052  0.5046  0.6452 -0.1544
  453MOL0     C62378   9.015   8.738   8.163 -0.4195 -0.4618 -0.2481
  453MOL0     O62379   9.105   8.701   8.256  0.3441  0.1991  0.1555
  453MOL0     C62380   9.239   8.721   8.231 -0.3099  0.3773  0.2334
  453MOL0     C62381   9.309   8.608   8.180 -0.7182  0.6585  0.5978
  453MOL0     C62382   9.452   8.621   8.164 -0.2017  0.4237 -0.3570
  453MOL0     C62383   9.519   8.749   8.173  0.9075 -0.5656  0.5111
  453MOL0     O62384   9.643   8.783   8.136  0.3503 -0.7105  0.5955
  453MOL0     C62385   9.740   8.673   8.134  0.3969 -0.1747 -0.2621
  453MOL0     C62386   9.885   8.721   8.144  0.0867 -0.3432  0.3808
  453MOL0     C62387   9.984   8.615   8.129  0.8585 -0.3633 -0.1685
  453MOL0     C62388  10.121   8.682   8.117  0.0429  0.4089  0.1028
  453MOL0     C62389  10.236   8.588   8.149  0.0063 -0.3299  0.5166
  453MOL0     C62390  10.379   8.647   8.169  0.7043 -1.0114 -0.1634
  453MOL0     C62391  10.484   8.544   8.219  0.4322  0.1099 -0.5916
  453MOL0     C62392  10.608   8.613   8.272 -0.3492 -0.1370 -0.5335
  453MOL0     N62393  10.697   8.679   8.183 -0.2720 -0.4858 -0.2571
  453MOL0     C62394  10.669   8.800   8.117 -0.8742  1.3239 -0.7329
  453MOL0     C62395  10.786   8.861   8.099 -0.3190 -0.6141 -0.2140
  453MOL0     C62396  10.810   8.984   8.023  0.3572 -1.0631 -0.1012
  453MOL0     C62397  10.844   8.986   7.868  0.0990 -0.4614  0.0322
  453MOL0     C62398  10.975   8.909   7.839 -0.1442  0.2719  0.0730
  453MOL0     C62399  11.103   8.997   7.853 -0.0108  0.9449 -0.1079
  453MOL0     O62400  11.087   9.121   7.787  1.0938  0.0101  0.8638
  453MOL0     C62401  11.185   9.215   7.791  0.1373  0.4398 -0.0080
  453MOL0     C62402  11.159   9.342   7.742 -0.0276 -0.5434 -0.3398
  453MOL0     C62403  11.250   9.448   7.746 -0.4796  0.1869 -0.0763
  453MOL0     C62404  11.209   9.586   7.701 -0.1423 -1.4755  0.0308
  453MOL0     C62405  11.378   9.421   7.797 -0.3724 -0.3784 -0.2986
  453MOL0     C62406  11.490   9.517   7.815 -0.0440  0.0064  0.6137
  453MOL0     O62407  11.612   9.463   7.812 -0.4597 -0.0669 -0.0665
  453MOL0     C62408  11.727   9.532   7.839 -0.3175 -0.0474  0.1943
  453MOL0     C62409  11.845   9.494   7.773 -0.2911 -0.3489 -0.2800
  453MOL0     C62410  11.962   9.568   7.794 -0.5802 -1.2794  1.1505
  453MOL0     C62411  11.961   9.685   7.877 -0.0703 -0.5570 -1.3539
  453MOL0     O62412  12.080   9.757   7.902 -0.0155  0.9963 -0.0646
  453MOL0     C62413  12.196   9.712   7.840 -0.0779 -0.0066 -0.1494
  453MOL0     C62414  12.312   9.779   7.920  0.1160 -0.4555 -0.2366
  453MOL0     C62415  12.450   9.728   7.897  0.6739 -0.3380  0.8790
  453MOL0     C62416  12.494   9.776   7.753 -0.1334 -0.1010 -0.6487
  453MOL0     C62417  12.625   9.709   7.714  0.5390  0.1117 -0.1421
  453MOL0     C62418  12.672   9.765   7.573 -0.5728 -0.3930 -0.1932
  453MOL0     C62419  12.794   9.678   7.537 -0.1015  0.6019  0.0249
  453MOL0     C62420  12.851   9.723   7.404 -0.5856 -0.2762  0.6148
  453MOL0    Cl62421  12.729   9.659   7.276 -0.1143 -0.4452 -0.3917
  453MOL0     C62422  11.845   9.721   7.943  0.8296 -0.2467 -0.0902
  453MOL0     C62423  11.732   9.642   7.928  0.0438  0.4674  0.3889
  453MOL0     O62424  11.465   9.635   7.831  0.4178 -0.2808  0.5771
  453MOL0     C62425  11.410   9.292   7.840 -0.8623 -0.1855  1.1069
  453MOL0     C62426  11.315   9.191   7.843  0.2313 -0.1146  0.5880
  453MOL0     N62427  10.881   8.771   8.141  0.3115 -0.7890 -0.3977
  453MOL0     N62428  10.831   8.661   8.186 -0.0031 -0.4390  0.9353
  453MOL0     C62429   9.444   8.851   8.216 -0.5676  0.5972 -0.0033
  453MOL0     C62430   9.310   8.838   8.249  0.1117 -0.1232  0.2659
  453MOL0     C62431   8.873   8.710   8.183  0.2769 -0.1047  0.6901
  453MOL0     C62432   8.783   8.812   8.141 -0.6036  0.0157  0.1733
  453MOL0     C62433   8.647   8.780   8.132  0.1050 -0.6626  0.0718
  453MOL0     C62434   8.586   8.660   8.172 -0.0009 -0.4567 -0.0994
  453MOL0     O62435   8.452   8.639   8.180 -0.2750 -0.2654 -0.2416
  453MOL0     C62436   8.367   8.748   8.153  0.8348 -0.5127 -0.7206
  453MOL0     C62437   8.225   8.715   8.099  0.0426 -0.1744 -1.2436
  453MOL0     C62438   8.157   8.594   8.167  0.1045  0.5921 -0.1764
  453MOL0     C62439   8.008   8.570   8.142  0.1216 -0.3150 -1.0620
  453MOL0     C62440   7.974   8.568   7.999 -0.1053 -0.3149 -0.0193
  453MOL0     C62441   7.939   8.584   7.883  0.0852  0.3226 -0.1016
  453MOL0     C62442   8.675   8.563   8.228  0.0081 -0.0252 -0.7256
  453MOL0     C62443   8.815   8.585   8.230  0.0355 -0.0105 -0.6319
  453MOL0     C62444   8.906   8.484   8.281 -0.0333 -0.2754 -0.2988
  453MOL0     H62445   9.249   8.524   8.146 -0.3961  1.9760 -3.7392
  453MOL0     H62446   9.502   8.531   8.133 -2.3179 -0.6579 -0.8174
  453MOL0     H62447   9.722   8.612   8.045 -1.7770 -0.4349  0.3007
  453MOL0     H62448   9.708   8.607   8.216  1.2629 -1.5462 -0.9780
  453MOL0     H62449   9.888   8.800   8.069 -0.4192  1.5186  2.2160
  453MOL0     H62450   9.899   8.763   8.244 -1.6450  4.2257 -1.0437
  453MOL0     H62451   9.977   8.554   8.219 -0.7687  1.6595  1.1642
  453MOL0     H62452   9.963   8.552   8.042 -2.5275  1.3553 -0.7701
  453MOL0     H62453  10.126   8.726   8.017 -0.1229 -3.0842 -1.5702
  453MOL0     H62454  10.121   8.761   8.193 -0.1853  0.0146  0.5199
  453MOL0     H62455  10.228   8.525   8.059 -1.3210 -1.3721  1.3146
  453MOL0     H62456  10.213   8.524   8.234 -1.0950 -0.6212  0.0334
  453MOL0     H62457  10.410   8.702   8.080  0.6468 -0.7638 -0.0311
  453MOL0     H62458  10.370   8.724   8.246 -0.5326 -0.4734 -0.8035
  453MOL0     H62459  10.515   8.475   8.140  2.1656 -1.3264  1.2214
  453MOL0     H62460  10.456   8.484   8.306  3.7974 -2.1582 -0.8668
  453MOL0     H62461  10.585   8.694   8.342  1.0133 -0.3469  0.1978
  453MOL0     H62462  10.670   8.536   8.321 -0.1280 -0.9912 -2.0848
  453MOL0     H62463  10.575   8.843   8.086 -0.1322  1.6559 -2.6357
  453MOL0     H62464  10.889   9.035   8.080 -1.1564  1.4521 -0.0707
  453MOL0     H62465  10.716   9.041   8.021  1.5472  0.9813 -0.2380
  453MOL0     H62466  10.765   8.933   7.814  0.6879 -0.8906 -0.4197
  453MOL0     H62467  10.844   9.090   7.833 -0.6816  0.5707  2.8331
  453MOL0     H62468  10.985   8.823   7.906 -1.9743 -0.4341 -0.5027
  453MOL0     H62469  10.973   8.872   7.736  2.5500  3.2696 -1.2084
  453MOL0     H62470  11.133   9.004   7.958  1.2871  1.1366 -0.4769
  453MOL0     H62471  11.176   8.942   7.793 -0.6910 -1.2477  0.9446
  453MOL0     H62472  11.064   9.353   7.692  2.0575  0.3247 -4.5643
  453MOL0     H62473  11.107   9.590   7.660 -0.8701 -0.5184  1.8441
  453MOL0     H62474  11.270   9.631   7.622 -1.1552  3.0003  1.4915
  453MOL0     H62475  11.217   9.659   7.782 -1.5091 -0.7795 -0.4303
  453MOL0     H62476  11.832   9.412   7.703 -2.3666  0.1015 -0.4819
  453MOL0     H62477  12.046   9.545   7.730 -0.4225 -0.1227  0.9256
  453MOL0     H62478  12.216   9.605   7.855 -0.1425 -0.1907 -1.3014
  453MOL0     H62479  12.201   9.728   7.732  0.2190  3.1693  0.2438
  453MOL0     H62480  12.326   9.886   7.904  2.5670 -1.0643 -3.1904
  453MOL0     H62481  12.288   9.760   8.025 -0.5964  0.1896 -0.2777
  453MOL0     H62482  12.460   9.619   7.889 -2.1685 -0.6563  0.6248
  453MOL0     H62483  12.510   9.771   7.978  0.1290  1.5838  0.3171
  453MOL0     H62484  12.511   9.883   7.763  1.0458 -0.4237  1.7696
  453MOL0     H62485  12.425   9.750   7.672  0.5509  1.1769 -1.6770
  453MOL0     H62486  12.703   9.741   7.784  0.8292  1.7211 -1.1546
  453MOL0     H62487  12.614   9.600   7.713  2.0556 -0.0906  1.1142
  453MOL0     H62488  12.696   9.872   7.571 -3.0100  0.2010 -1.6347
  453MOL0     H62489  12.593   9.752   7.499  0.5011  2.7089 -2.0808
  453MOL0     H62490  12.758   9.575   7.529 -2.0370  1.3287 -1.3325
  453MOL0     H62491  12.871   9.693   7.613  1.1400 -0.7793 -0.9130
  453MOL0     H62492  12.946   9.671   7.389  1.3328  2.1295  3.2950
  453MOL0     H62493  12.873   9.830   7.408  1.9549 -0.7699  1.4144
  453MOL0     H62494  11.839   9.808   8.008  0.3684 -0.3892  0.0635
  453MOL0     H62495  11.642   9.663   7.984 -1.9943 -0.5052 -2.3196
  453MOL0     H62496  11.509   9.267   7.875 -0.2160  1.0205  0.1903
  453MOL0     H62497  11.341   9.095   7.885 -1.0374 -1.7824 -2.2124
  453MOL0     H62498   9.489   8.948   8.235 -1.4776  1.1160 -0.4453
  453MOL0     H62499   9.261   8.925   8.293 -2.6310 -0.9850 -0.8611
  453MOL0     H62500   8.818   8.911   8.116  1.5736 -0.7294  0.0685
  453MOL0     H62501   8.593   8.865   8.090  0.4407  1.4521  3.5432
  453MOL0     H62502   8.345   8.801   8.246  0.9730 -0.2171 -0.8559
  453MOL0     H62503   8.405   8.815   8.075  1.3848 -1.2062 -1.0652
  453MOL0     H62504   8.241   8.681   7.996 -2.2836 -0.1129 -1.6723
  453MOL0     H62505   8.169   8.806   8.120 -1.9037 -1.4105 -0.7813
  453MOL0     H62506   8.203   8.499   8.138 -1.3535  0.4452 -2.2602
  453MOL0     H62507   8.173   8.605   8.274 -1.5620 -0.8644  0.2758
  453MOL0     H62508   7.943   8.648   8.184  1.0255 -1.1320  2.1247
  453MOL0     H62509   7.998   8.471   8.187  1.3500 -0.4285 -0.9974
  453MOL0     H62510   7.897   8.602   7.787 -1.2225  0.3246  0.4533
  453MOL0     H62511   8.627   8.471   8.261  2.1197 -0.3688  1.6330
  453MOL0     H62512   8.856   8.396   8.322 -0.6119 -1.8614 -4.0418
  453MOL0     H62513   8.967   8.447   8.198  3.7072  0.4642  1.8564
  453MOL0     H62514   8.973   8.522   8.359 -0.6695  0.2732 -0.0119
  454MOL0     O62515   9.059   9.967  10.587 -0.8500 -0.7730 -0.3874
  454MOL0     C62516   9.023   9.853  10.570 -1.2354  0.3663 -0.0641
  454MOL0     O62517   9.027   9.791  10.453  0.7173  0.2623 -0.9446
  454MOL0     C62518   9.071   9.857  10.338  0.5281  0.2711  0.3916
  454MOL0     C62519   8.989   9.924  10.248  0.0751  0.0318  1.2025
  454MOL0     C62520   9.038   9.986  10.131 -0.1907 -0.3325 -0.2438
  454MOL0     C62521   9.174   9.995  10.111 -0.6106 -0.6730 -0.1812
  454MOL0     O62522   9.202  10.060   9.989 -1.1042  0.1259 -0.2951
  454MOL0     C62523   9.267   9.968   9.888  0.3672  0.4404  0.7016
  454MOL0     C62524   9.417  10.007   9.890  0.0372  0.5102 -0.9242
  454MOL0     C62525   9.508   9.931   9.801 -0.2121 -0.2456 -0.2995
  454MOL0     C62526   9.483   9.957   9.651 -0.2454 -0.2077  0.4611
  454MOL0     C62527   9.586   9.887   9.569  0.0037  0.3401  0.0149
  454MOL0     C62528   9.565   9.737   9.551 -0.1697  1.0086  0.3793
  454MOL0     C62529   9.662   9.669   9.448  0.8045  0.9299 -0.1378
  454MOL0     C62530   9.663   9.513   9.468  0.2747 -0.3845  0.0720
  454MOL0     N62531   9.795   9.462   9.407  0.5769 -0.6033 -0.6736
  454MOL0     C62532   9.896   9.395   9.476 -0.2447 -0.1874 -0.6824
  454MOL0     C62533   9.974   9.333   9.382 -0.1013  0.2949  0.6314
  454MOL0     C62534  10.088   9.239   9.417  0.2787  0.6670  0.8211
  454MOL0     C62535  10.212   9.300   9.492 -0.4039  0.1844  0.4749
  454MOL0     C62536  10.342   9.225   9.484 -0.2884 -0.7439 -0.6085
  454MOL0     C62537  10.445   9.248   9.368  0.1803  0.2017  0.5927
  454MOL0     O62538  10.495   9.383   9.369  1.3818 -0.7216 -0.4923
  454MOL0     C62539  10.620   9.426   9.391 -0.3905 -0.0749  1.0503
  454MOL0     C62540  10.653   9.554   9.341  0.1304 -0.0041  0.4419
  454MOL0     C62541  10.785   9.600   9.350  0.7035  0.2111 -0.7502
  454MOL0     C62542  10.815   9.731   9.289  0.0481  0.6801  0.3414
  454MOL0     C62543  10.885   9.516   9.408 -0.0514 -0.1316  0.2761
  454MOL0     C62544  11.027   9.556   9.437  0.9716  1.2960  0.5386
  454MOL0     O62545  11.117   9.455   9.464  0.2770 -0.0998  0.3991
  454MOL0     C62546  11.248   9.475   9.440 -1.0551  0.5514  0.4510
  454MOL0     C62547  11.293   9.556   9.338 -0.1059  0.6981 -0.2618
  454MOL0     C62548  11.431   9.569   9.328  0.1818  0.2840 -0.3585
  454MOL0     C62549  11.523   9.506   9.415 -0.2501 -0.0413 -0.6087
  454MOL0     O62550  11.657   9.509   9.414  0.2552  0.3059 -0.7108
  454MOL0     C62551  11.722   9.573   9.299  0.1830 -0.7115 -0.0917
  454MOL0     C62552  11.745   9.721   9.315 -0.2012 -0.7814  0.8934
  454MOL0     C62553  11.864   9.741   9.403  0.1440 -0.0831 -0.0288
  454MOL0     C62554  11.863   9.893   9.453 -0.2200 -0.0974 -1.2661
  454MOL0     C62555  11.993   9.933   9.524  0.4336  0.6013  0.0920
  454MOL0     C62556  11.991  10.076   9.570 -0.0166 -0.1388 -0.1530
  454MOL0     C62557  11.882  10.094   9.678 -0.7392 -0.4489  0.4644
  454MOL0     C62558  11.881  10.247   9.710 -0.3983 -0.1169 -0.4633
  454MOL0    Cl62559  12.010  10.294   9.816 -0.3242  0.0574 -0.0278
  454MOL0     C62560  11.474   9.412   9.504  0.4595  0.2083 -0.0487
  454MOL0     C62561  11.338   9.402   9.518 -0.5748 -0.5523  0.0324
  454MOL0     O62562  11.050   9.674   9.444 -0.0763 -0.0631 -0.0730
  454MOL0     C62563  10.851   9.396   9.459 -0.6389  0.2057  0.2370
  454MOL0     C62564  10.720   9.346   9.447  0.1765 -0.4908  0.4058
  454MOL0     N62565   9.926   9.364   9.259 -0.3303  0.5935  0.5445
  454MOL0     N62566   9.815   9.439   9.278  0.0535 -0.0186  0.7134
  454MOL0     C62567   9.257   9.929  10.203  0.1383 -0.5789 -0.2385
  454MOL0     C62568   9.211   9.863  10.315 -0.3237 -0.9578  1.0719
  454MOL0     C62569   8.975   9.772  10.683  1.0418  0.7219  0.1106
  454MOL0     C62570   8.973   9.630  10.662  0.1233 -0.6422  0.0960
  454MOL0     C62571   8.907   9.544  10.756 -0.5789 -0.2047  0.6890
  454MOL0     C62572   8.882   9.593  10.880  0.1755 -0.5698 -1.1876
  454MOL0     O62573   8.831   9.515  10.985 -0.3400  0.1256  0.1873
  454MOL0     C62574   8.932   9.446  11.058  0.3023  0.5130  0.9269
  454MOL0     C62575   8.938   9.505  11.195 -0.4333 -0.4418  0.4132
  454MOL0     C62576   9.053   9.444  11.266 -0.0469 -0.6138 -0.3057
  454MOL0     C62577   9.068   9.498  11.408  0.1130  0.5450  0.1629
  454MOL0     C62578   9.188   9.451  11.477  0.4478 -0.8948 -0.0991
  454MOL0     C62579   9.285   9.423  11.527 -0.1630  0.3585  0.2195
  454MOL0     C62580   8.891   9.731  10.907  0.3826 -0.1650 -0.3402
  454MOL0     C62581   8.928   9.828  10.805 -0.0849 -0.1539 -0.4295
  454MOL0     C62582   8.919   9.968  10.844  0.2100  0.4352 -0.9442
  454MOL0     H62583   8.881   9.920  10.258  0.0678  0.2515  1.2315
  454MOL0     H62584   8.979  10.034  10.054 -0.2347 -0.0339 -0.0276
  454MOL0     H62585   9.242   9.985   9.783  1.8062 -0.7779  0.1313
  454MOL0     H62586   9.246   9.864   9.915  1.5536  0.2321  0.8762
  454MOL0     H62587   9.428  10.115   9.878 -1.0667  0.5215 -2.1336
  454MOL0     H62588   9.446   9.978   9.991 -0.4010 -0.8131 -1.1521
  454MOL0     H62589   9.612   9.950   9.828 -0.9532 -0.4177  3.0472
  454MOL0     H62590   9.498   9.823   9.813  2.8620 -0.4978  0.9808
  454MOL0     H62591   9.385   9.920   9.618 -0.2422  1.1513 -1.2154
  454MOL0     H62592   9.489  10.065   9.636  1.8513 -0.1034  1.6733
  454MOL0     H62593   9.683   9.914   9.613 -0.3087  1.2341  0.1644
  454MOL0     H62594   9.588   9.942   9.474  0.9316  2.8020  1.3544
  454MOL0     H62595   9.580   9.683   9.645  1.0057 -0.7082 -0.7510
  454MOL0     H62596   9.463   9.718   9.515  0.2694  2.0288 -1.4834
  454MOL0     H62597   9.761   9.714   9.453  0.9670  1.1811 -3.1991
  454MOL0     H62598   9.626   9.691   9.347 -1.4105  0.9865  0.6117
  454MOL0     H62599   9.649   9.489   9.574  1.5147  0.9933  0.5826
  454MOL0     H62600   9.570   9.489   9.415  0.1743  0.1094  0.0179
  454MOL0     H62601   9.908   9.386   9.583  1.2205 -0.7833 -0.8695
  454MOL0     H62602  10.114   9.184   9.326 -1.6569  1.1529 -0.0779
  454MOL0     H62603  10.048   9.165   9.487  0.7074 -0.6820 -0.3047
  454MOL0     H62604  10.235   9.400   9.454  3.7595 -0.7664  0.1045
  454MOL0     H62605  10.183   9.309   9.597 -0.3446  1.8489  0.3799
  454MOL0     H62606  10.394   9.245   9.578  0.2152 -0.1810 -0.9962
  454MOL0     H62607  10.319   9.118   9.475  1.8478 -1.1625 -1.9586
  454MOL0     H62608  10.522   9.170   9.378 -0.5183 -0.5725  0.0858
  454MOL0     H62609  10.403   9.219   9.271  0.8306  0.1274  0.3214
  454MOL0     H62610  10.576   9.617   9.297 -1.7903 -2.5561 -0.1051
  454MOL0     H62611  10.825   9.821   9.351  1.5282  0.7333  0.0711
  454MOL0     H62612  10.746   9.740   9.204  0.0598 -3.3936 -0.2917
  454MOL0     H62613  10.911   9.724   9.237  0.8041  0.2909  1.7309
  454MOL0     H62614  11.222   9.607   9.273 -1.7932 -2.8413 -1.4451
  454MOL0     H62615  11.468   9.630   9.247  4.2540 -0.8214  0.4646
  454MOL0     H62616  11.819   9.524   9.282  0.2952 -0.5590  0.1066
  454MOL0     H62617  11.671   9.561   9.204  0.1882  0.7516 -0.2918
  454MOL0     H62618  11.768   9.765   9.217 -0.3452  0.6630  1.4848
  454MOL0     H62619  11.660   9.772   9.362 -0.2013 -0.9771  1.1049
  454MOL0     H62620  11.947   9.735   9.332 -0.4845 -1.2690 -0.7022
  454MOL0     H62621  11.870   9.671   9.488 -0.3834  0.9589  0.8841
  454MOL0     H62622  11.779   9.890   9.523 -0.3054 -1.2951 -1.3983
  454MOL0     H62623  11.840   9.966   9.375 -2.5414 -1.3078 -1.8048
  454MOL0     H62624  12.025   9.874   9.611  1.4672 -1.4020 -1.5522
  454MOL0     H62625  12.079   9.925   9.457  1.8100  2.1763  1.5562
  454MOL0     H62626  11.976  10.145   9.487  1.6684  0.3210 -0.1208
  454MOL0     H62627  12.089  10.103   9.612 -0.5878  2.7118 -0.4222
  454MOL0     H62628  11.911  10.032   9.763 -1.9863 -0.6002  0.8107
  454MOL0     H62629  11.789  10.058   9.632 -1.0939 -0.0933  0.8842
  454MOL0     H62630  11.792  10.287   9.758  0.6809  1.4913  0.2784
  454MOL0     H62631  11.887  10.309   9.620 -2.1371 -0.2663 -0.7079
  454MOL0     H62632  11.535   9.348   9.567  2.0169  2.0464  0.3940
  454MOL0     H62633  11.286   9.342   9.594 -0.8014  1.7577  1.8143
  454MOL0     H62634  10.922   9.333   9.511  0.2148 -0.4975 -1.7039
  454MOL0     H62635  10.697   9.249   9.487  3.4725 -1.4566  0.2555
  454MOL0     H62636   9.361   9.910  10.179  0.2035 -1.7336  0.8497
  454MOL0     H62637   9.275   9.809  10.384  0.0592  0.9219  2.2338
  454MOL0     H62638   9.024   9.591  10.575  0.3645  1.3399 -0.7004
  454MOL0     H62639   8.888   9.438  10.740  0.5248 -0.5233  1.4062
  454MOL0     H62640   8.907   9.340  11.053 -3.5343  1.3231 -0.0456
  454MOL0     H62641   9.034   9.460  11.022 -0.5266  1.1508 -1.3346
  454MOL0     H62642   8.848   9.476  11.250 -0.4728 -3.5832 -1.1032
  454MOL0     H62643   8.942   9.613  11.178 -0.8518 -0.8050 -2.5355
  454MOL0     H62644   9.041   9.336  11.274 -2.7395 -0.3362  0.4245
  454MOL0     H62645   9.147   9.472  11.219 -1.2723  3.0903 -0.9126
  454MOL0     H62646   8.986   9.452  11.464 -0.9167  0.4642 -1.3553
  454MOL0     H62647   9.056   9.607  11.401  0.9825  0.6340 -0.0957
  454MOL0     H62648   9.380   9.393  11.566 -0.0584  1.0119  0.4710
  454MOL0     H62649   8.855   9.779  10.997  0.5627  2.9775 -1.8340
  454MOL0     H62650   8.919   9.969  10.953 -2.3776 -0.8788 -0.8574
  454MOL0     H62651   9.007  10.018  10.804  2.9897 -1.5413  2.1672
  454MOL0     H62652   8.824  10.013  10.814 -1.2243 -0.9459  1.2558
  455MOL0     O62653   2.284   2.381   6.057  0.2970  0.4351  0.7077
  455MOL0     C62654   2.308   2.500   6.079  0.0000  0.6423 -0.3652
  455MOL0     O62655   2.401   2.544   6.158  0.0005 -0.5302 -1.1864
  455MOL0     C62656   2.519   2.474   6.179 -0.4436  0.5313 -0.4591
  455MOL0     C62657   2.603   2.512   6.276 -0.0154  0.0937  0.5169
  455MOL0     C62658   2.735   2.458   6.283  0.5660 -0.2675  0.5878
  455MOL0     C62659   2.779   2.358   6.188 -0.3476  0.6166 -0.1511
  455MOL0     O62660   2.910   2.308   6.184 -0.3880  0.3951 -0.2062
  455MOL0     C62661   2.976   2.289   6.311  0.1981 -0.3269  0.8430
  455MOL0     C62662   3.082   2.179   6.313 -1.1939  0.4557 -0.4911
  455MOL0     C62663   3.169   2.199   6.443  0.8386  0.9052 -0.5016
  455MOL0     C62664   3.283   2.092   6.444  0.7735 -1.0378 -0.4273
  455MOL0     C62665   3.416   2.164   6.442 -0.4282 -0.2762  1.0377
  455MOL0     C62666   3.533   2.061   6.445 -0.2125  0.0601 -0.6689
  455MOL0     C62667   3.659   2.126   6.479  0.5894  0.5647  0.3267
  455MOL0     C62668   3.774   2.021   6.495 -0.8399 -0.1595 -0.1529
  455MOL0     N62669   3.907   2.079   6.452  0.7463 -0.3261  0.8042
  455MOL0     C62670   4.000   2.129   6.540  0.3526 -0.8190  0.2406
  455MOL0     C62671   4.106   2.157   6.461 -0.3460 -0.1645  0.1981
  455MOL0     C62672   4.243   2.205   6.510 -0.6148 -0.3980  0.1907
  455MOL0     C62673   4.331   2.097   6.566 -0.1291  0.6481  0.7666
  455MOL0     C62674   4.350   1.970   6.479  1.0096  0.2309 -0.0491
  455MOL0     C62675   4.497   1.911   6.497 -0.0654 -0.5670 -0.1233
  455MOL0     O62676   4.587   2.013   6.439 -0.0979 -0.6838 -0.4857
  455MOL0     C62677   4.717   1.978   6.408 -0.0514 -0.8723  0.5300
  455MOL0     C62678   4.805   2.074   6.346 -0.1703  0.1190  1.1254
  455MOL0     C62679   4.930   2.036   6.292 -0.0625  0.5242 -1.1147
  455MOL0     C62680   5.012   2.147   6.229 -0.9760  0.2588 -0.0006
  455MOL0     C62681   4.975   1.893   6.304  0.2620 -0.4758 -0.6403
  455MOL0     C62682   5.108   1.844   6.273 -0.1613  0.1322 -0.4351
  455MOL0     O62683   5.175   1.902   6.166 -0.5722 -0.2516 -0.4071
  455MOL0     C62684   5.310   1.884   6.143  0.4478  0.4806  0.2296
  455MOL0     C62685   5.349   1.891   6.007  0.0116  0.4167 -0.3365
  455MOL0     C62686   5.481   1.872   5.982 -0.4200 -0.6470  0.0212
  455MOL0     C62687   5.575   1.853   6.079 -0.0095 -0.5373  0.3221
  455MOL0     O62688   5.703   1.827   6.033 -0.0383 -0.2218  0.2289
  455MOL0     C62689   5.812   1.819   6.127 -0.3215 -0.0148 -0.0491
  455MOL0     C62690   5.922   1.741   6.052  1.1999 -0.1512  0.6882
  455MOL0     C62691   5.862   1.627   5.959 -0.7550 -0.5583  0.4367
  455MOL0     C62692   5.971   1.567   5.880 -0.2240 -0.5892  0.1624
  455MOL0     C62693   6.040   1.436   5.941  0.1962 -0.3626  0.1365
  455MOL0     C62694   6.130   1.456   6.056 -0.4455 -0.5127 -0.1128
  455MOL0     C62695   6.234   1.567   6.047 -0.5044 -0.0701  0.6734
  455MOL0     C62696   6.352   1.525   5.963  0.4923 -0.3805 -0.2093
  455MOL0    Cl62697   6.327   1.473   5.794 -0.0902  0.3543  0.0878
  455MOL0     C62698   5.532   1.857   6.213 -0.1769  0.5310 -0.4874
  455MOL0     C62699   5.398   1.878   6.247 -0.0109  1.5739  0.1921
  455MOL0     O62700   5.146   1.751   6.343  0.0189 -0.0620  0.5778
  455MOL0     C62701   4.879   1.812   6.364 -0.1010 -0.3148 -0.1606
  455MOL0     C62702   4.753   1.854   6.407  0.4616  1.0271 -0.8067
  455MOL0     N62703   4.076   2.119   6.326 -0.9284  0.3393  0.0212
  455MOL0     N62704   3.961   2.068   6.328 -1.0540  0.0847 -0.6300
  455MOL0     C62705   2.692   2.325   6.091 -0.0116  0.5172  0.6842
  455MOL0     C62706   2.567   2.376   6.085 -0.1639 -0.1083 -0.3149
  455MOL0     C62707   2.232   2.601   6.001 -0.7166  0.1549  0.3081
  455MOL0     C62708   2.123   2.557   5.922  0.2071 -0.9307  0.7856
  455MOL0     C62709   2.052   2.648   5.831  0.3321 -0.3862 -0.8746
  455MOL0     C62710   2.064   2.784   5.855  0.6047  0.1650 -0.6763
  455MOL0     O62711   1.961   2.856   5.802  0.2547  0.3407 -0.6061
  455MOL0     C62712   1.945   2.992   5.836 -0.3416  0.6042 -0.0861
  455MOL0     C62713   2.045   3.079   5.755 -0.2253  0.0243  0.8785
  455MOL0     C62714   2.002   3.097   5.615 -0.2960 -0.1987 -0.1264
  455MOL0     C62715   2.100   3.181   5.534  0.1182  0.1278  0.3362
  455MOL0     C62716   2.224   3.104   5.522  0.0979  0.5039 -0.0190
  455MOL0     C62717   2.328   3.047   5.494  0.5792  0.4317  0.0303
  455MOL0     C62718   2.168   2.826   5.941  1.0660  0.2988  0.7891
  455MOL0     C62719   2.255   2.739   6.000 -0.1647 -0.4420 -0.7881
  455MOL0     C62720   2.365   2.812   6.076  0.5980  0.8119  0.3048
  455MOL0     H62721   2.573   2.573   6.360 -0.3740 -2.9817  2.7821
  455MOL0     H62722   2.807   2.488   6.360  1.6926 -0.7171 -0.2689
  455MOL0     H62723   2.907   2.268   6.394 -0.2750  1.7302  1.0372
  455MOL0     H62724   3.016   2.387   6.335 -0.5967  0.5811 -1.2427
  455MOL0     H62725   3.047   2.075   6.310  0.7298 -0.2249 -0.7096
  455MOL0     H62726   3.140   2.200   6.222 -0.0677 -0.7364 -0.0758
  455MOL0     H62727   3.211   2.300   6.451 -0.8291  1.5487  0.6023
  455MOL0     H62728   3.112   2.182   6.534 -2.5809  0.2225 -2.5968
  455MOL0     H62729   3.282   2.040   6.541  1.0639 -1.2903 -0.5568
  455MOL0     H62730   3.264   2.014   6.369  3.1370 -1.3549 -0.7737
  455MOL0     H62731   3.420   2.225   6.532 -0.8085 -2.1556  2.3896
  455MOL0     H62732   3.418   2.228   6.354 -1.4861 -2.3727 -0.6127
  455MOL0     H62733   3.501   1.995   6.526 -3.9443  2.4424  0.0436
  455MOL0     H62734   3.549   2.010   6.349 -1.0357  1.8735 -1.8340
  455MOL0     H62735   3.645   2.190   6.566  1.4774  0.7380  0.3511
  455MOL0     H62736   3.692   2.194   6.400  1.5151  0.6575  0.7773
  455MOL0     H62737   3.770   2.002   6.602  1.0945 -0.7512 -0.1491
  455MOL0     H62738   3.744   1.935   6.435 -0.5000  0.9449 -2.0205
  455MOL0     H62739   3.984   2.139   6.647 -2.2601 -1.0513 -0.0670
  455MOL0     H62740   4.221   2.280   6.587 -1.6730 -0.7058  0.2088
  455MOL0     H62741   4.291   2.252   6.423 -0.8570 -1.8827 -0.7833
  455MOL0     H62742   4.431   2.137   6.586 -0.9674  2.9209  0.7304
  455MOL0     H62743   4.288   2.054   6.656 -3.8745 -1.1955 -1.6555
  455MOL0     H62744   4.286   1.894   6.524 -0.7459  1.0465 -1.0974
  455MOL0     H62745   4.322   1.991   6.376 -1.3851 -2.5550 -0.0770
  455MOL0     H62746   4.512   1.897   6.605 -2.4042 -0.2508  0.3034
  455MOL0     H62747   4.494   1.810   6.455 -1.2412 -1.0934  1.1177
  455MOL0     H62748   4.758   2.169   6.326  3.7285  2.4979  2.1787
  455MOL0     H62749   4.978   2.249   6.251 -2.8435 -0.5758  1.2435
  455MOL0     H62750   5.024   2.122   6.124 -0.7089 -1.1521  0.3471
  455MOL0     H62751   5.108   2.145   6.283 -1.2157  2.5976  0.6298
  455MOL0     H62752   5.270   1.923   5.940  0.0041  0.4292 -0.3216
  455MOL0     H62753   5.510   1.867   5.877  0.6460 -0.3423  0.2897
  455MOL0     H62754   5.841   1.917   6.166 -0.4743  0.2615 -0.6154
  455MOL0     H62755   5.792   1.764   6.220 -0.2878 -0.7937 -0.4912
  455MOL0     H62756   5.973   1.820   5.996 -2.4615  2.5545  0.8231
  455MOL0     H62757   5.990   1.714   6.133 -0.6618  0.0544  2.3842
  455MOL0     H62758   5.788   1.667   5.890  1.1427 -2.2991 -2.8580
  455MOL0     H62759   5.812   1.557   6.027  1.4339 -1.2871  1.3934
  455MOL0     H62760   6.042   1.646   5.857 -2.4018  1.1270 -1.0552
  455MOL0     H62761   5.935   1.532   5.783 -1.2061 -1.4729  0.8196
  455MOL0     H62762   5.958   1.367   5.962  0.7580 -0.5422  1.8767
  455MOL0     H62763   6.084   1.385   5.854 -0.5581  1.5213 -1.4468
  455MOL0     H62764   6.181   1.368   6.095 -0.6443 -0.2548  0.7550
  455MOL0     H62765   6.068   1.502   6.134  3.0609  1.3146  1.8429
  455MOL0     H62766   6.283   1.597   6.140  1.5826 -1.4065  0.0935
  455MOL0     H62767   6.194   1.661   6.010 -1.4408 -1.1123 -1.1084
  455MOL0     H62768   6.404   1.440   6.007  0.7702  0.5327  1.3117
  455MOL0     H62769   6.417   1.612   5.970 -0.1557  0.0906  0.0691
  455MOL0     H62770   5.610   1.836   6.285  1.7650 -0.0303 -2.6438
  455MOL0     H62771   5.366   1.886   6.350 -0.4730 -0.5880  0.2604
  455MOL0     H62772   4.904   1.706   6.367 -0.9715 -0.6176 -2.1123
  455MOL0     H62773   4.696   1.770   6.445  1.1438  0.6841 -0.5087
  455MOL0     H62774   2.716   2.252   6.014 -0.0352  0.2984  0.8862
  455MOL0     H62775   2.508   2.347   5.998  0.2787  1.0208 -1.0262
  455MOL0     H62776   2.091   2.454   5.910 -2.3334  0.0283 -1.8256
  455MOL0     H62777   1.963   2.618   5.777 -0.0935  0.4465 -0.6465
  455MOL0     H62778   1.842   3.018   5.810 -0.0618 -0.0453 -1.9985
  455MOL0     H62779   1.966   3.007   5.942  1.7698 -2.3984  0.0303
  455MOL0     H62780   2.140   3.025   5.757  1.2459  2.4419  0.0722
  455MOL0     H62781   2.065   3.177   5.800 -2.4795  1.1100 -0.3324
  455MOL0     H62782   1.973   3.005   5.565 -1.7113 -0.1304  0.5123
  455MOL0     H62783   1.905   3.147   5.613 -0.3909 -0.3841 -0.2032
  455MOL0     H62784   2.126   3.281   5.571  2.1625 -0.7101  1.3373
  455MOL0     H62785   2.049   3.197   5.439 -2.8937  1.0625  1.9803
  455MOL0     H62786   2.414   2.987   5.471  0.6652  0.5441  0.0600
  455MOL0     H62787   2.177   2.933   5.955 -0.7893  0.6883 -0.6513
  455MOL0     H62788   2.356   2.921   6.074  0.8921  0.9259  2.7537
  455MOL0     H62789   2.365   2.787   6.182 -0.0572 -1.0744 -0.1036
  455MOL0     H62790   2.453   2.786   6.017  0.6106  1.1043  0.1932
  456MOL0     O62791   9.257   9.592   1.436  0.0155  0.1220 -0.0939
  456MOL0     C62792   9.151   9.592   1.492 -0.2428 -0.9415 -0.5106
  456MOL0     O62793   9.142   9.622   1.622  0.0623 -0.8894 -0.2075
  456MOL0     C62794   9.246   9.686   1.699  0.1792  0.2031  0.3285
  456MOL0     C62795   9.386   9.659   1.681 -0.7700  0.4987 -1.0621
  456MOL0     C62796   9.471   9.720   1.778  0.1841  0.1689 -0.0244
  456MOL0     C62797   9.433   9.811   1.880 -0.3084  0.1301  0.3413
  456MOL0     O62798   9.516   9.868   1.974  0.3834 -0.1363 -0.0014
  456MOL0     C62799   9.645   9.896   1.934 -0.1121 -0.5539  0.2825
  456MOL0     C62800   9.713  10.000   2.027  0.2178  0.0102  0.1966
  456MOL0     C62801   9.808   9.938   2.136 -0.3824  0.0192  0.0815
  456MOL0     C62802   9.898  10.049   2.190 -0.1768  0.5723  0.0629
  456MOL0     C62803   9.965  10.021   2.324 -0.4080  0.3814 -0.1131
  456MOL0     C62804  10.023  10.144   2.403  0.0159  0.0422  1.4264
  456MOL0     C62805  10.101  10.097   2.522 -0.5460 -0.7661 -0.0957
  456MOL0     C62806  10.198  10.202   2.566 -0.4351  0.3017  0.2648
  456MOL0     N62807  10.306  10.147   2.635 -0.0229  0.0715  0.2623
  456MOL0     C62808  10.426  10.109   2.576 -0.2489  0.0695  0.0833
  456MOL0     C62809  10.494  10.044   2.674 -0.2372 -0.7471 -0.0117
  456MOL0     C62810  10.632   9.981   2.662  0.7750  0.8455  0.2952
  456MOL0     C62811  10.696   9.936   2.800 -0.1432 -0.6092  0.2494
  456MOL0     C62812  10.829   9.866   2.790  0.4031  0.2634  0.3652
  456MOL0     C62813  10.900   9.842   2.920  0.3511  0.4879 -0.2471
  456MOL0     O62814  10.981   9.723   2.907 -0.1034 -0.2123  0.1327
  456MOL0     C62815  11.030   9.658   3.022  0.5756  0.1941 -0.0125
  456MOL0     C62816  10.997   9.693   3.153 -0.2386  0.3949 -0.4376
  456MOL0     C62817  11.048   9.620   3.261  0.0264  0.2948  0.3776
  456MOL0     C62818  10.994   9.672   3.398 -0.6866  0.6777  0.9392
  456MOL0     C62819  11.148   9.516   3.246  0.9230  0.1219  0.2588
  456MOL0     C62820  11.205   9.430   3.351 -0.5279 -0.1633 -0.0764
  456MOL0     O62821  11.198   9.473   3.479  0.2568 -0.1942 -0.1742
  456MOL0     C62822  11.272   9.403   3.563 -0.7792 -1.0684  0.5288
  456MOL0     C62823  11.385   9.466   3.600  0.7410 -1.0182 -0.3112
  456MOL0     C62824  11.464   9.403   3.693 -0.0671 -0.5453  0.1030
  456MOL0     C62825  11.434   9.278   3.746  0.5963  0.8558 -0.0967
  456MOL0     O62826  11.524   9.220   3.832 -0.0876  0.2563  0.3792
  456MOL0     C62827  11.590   9.104   3.771  0.7679  0.5883  0.6057
  456MOL0     C62828  11.718   9.078   3.843  0.7534 -0.0129  1.6386
  456MOL0     C62829  11.822   9.190   3.820 -0.2965 -0.0217  0.7092
  456MOL0     C62830  11.951   9.167   3.900  0.8689 -0.1670 -0.3116
  456MOL0     C62831  12.047   9.279   3.852 -0.2006 -0.1237 -0.2611
  456MOL0     C62832  12.187   9.273   3.922 -0.0084  0.4671 -0.0628
  456MOL0     C62833  12.289   9.364   3.863  0.3039 -0.2871 -0.2425
  456MOL0     C62834  12.231   9.504   3.820 -0.2952 -0.4180 -0.0512
  456MOL0    Cl62835  12.382   9.608   3.812  0.0465 -0.0443  0.0952
  456MOL0     C62836  11.314   9.212   3.708  0.0366  0.4933 -0.6961
  456MOL0     C62837  11.232   9.280   3.617  0.3342  0.2013  0.3172
  456MOL0     O62838  11.261   9.325   3.316 -0.3706 -0.2972  0.3161
  456MOL0     C62839  11.177   9.481   3.108 -0.2263 -0.1218  0.6033
  456MOL0     C62840  11.121   9.547   3.000  0.3456  0.2266  0.2467
  456MOL0     N62841  10.413  10.037   2.783  0.4393  0.1115 -0.4957
  456MOL0     N62842  10.309  10.109   2.763  0.2873 -0.2024 -0.4386
  456MOL0     C62843   9.294   9.838   1.888  0.0806  0.7336  0.1400
  456MOL0     C62844   9.203   9.783   1.795 -0.4042 -0.3389 -0.3179
  456MOL0     C62845   9.025   9.548   1.426 -0.7513 -0.8814  0.7633
  456MOL0     C62846   8.905   9.604   1.483 -0.3336  0.7536 -0.0074
  456MOL0     C62847   8.782   9.569   1.418  0.5928 -0.1749 -0.0929
  456MOL0     C62848   8.780   9.507   1.297 -0.1349  0.0524 -0.0506
  456MOL0     O62849   8.668   9.479   1.214  0.6941  0.5883  0.0750
  456MOL0     C62850   8.552   9.427   1.288  0.1497  0.0582 -0.5813
  456MOL0     C62851   8.431   9.411   1.200  0.7496  0.2735  0.1807
  456MOL0     C62852   8.445   9.316   1.074  0.7898  0.3086  0.5765
  456MOL0     C62853   8.467   9.180   1.119  1.0211  0.5051  0.8402
  456MOL0     C62854   8.450   9.078   1.013  0.0541 -0.2824 -0.3493
  456MOL0     C62855   8.429   8.996   0.935  0.4892  1.1002  0.3754
  456MOL0     C62856   8.898   9.464   1.239  0.0706  0.2330 -0.1180
  456MOL0     C62857   9.023   9.476   1.305  0.6188 -1.2332 -0.0272
  456MOL0     C62858   9.148   9.425   1.245  0.2583 -0.0628  0.2173
  456MOL0     H62859   9.423   9.585   1.612  0.9174 -1.2981  1.6027
  456MOL0     H62860   9.577   9.696   1.779  0.2668 -0.6394  5.7977
  456MOL0     H62861   9.642   9.948   1.838  1.6439 -1.2358 -0.1863
  456MOL0     H62862   9.698   9.800   1.937 -0.4948 -0.7719  3.5444
  456MOL0     H62863   9.781  10.064   1.971  0.4497  0.9615  1.5153
  456MOL0     H62864   9.637  10.061   2.077  0.3538 -0.4050  0.9359
  456MOL0     H62865   9.745   9.891   2.212 -1.1556 -1.9590 -1.6776
  456MOL0     H62866   9.877   9.866   2.092 -0.0318 -0.3062  1.1334
  456MOL0     H62867   9.970  10.079   2.113  1.1413  0.1248  1.0748
  456MOL0     H62868   9.842  10.143   2.200 -0.9309  0.1120  0.2560
  456MOL0     H62869  10.040   9.946   2.297  1.4082  1.9773  0.2711
  456MOL0     H62870   9.893   9.980   2.394  1.3543 -1.5431  0.6679
  456MOL0     H62871  10.089  10.194   2.331 -1.8468  1.7421  0.8099
  456MOL0     H62872   9.940  10.209   2.430  1.2603  2.0540  0.6749
  456MOL0     H62873  10.166  10.013   2.496  1.8609  0.4506  1.5204
  456MOL0     H62874  10.033  10.069   2.602 -1.9132 -0.1435 -1.0053
  456MOL0     H62875  10.239  10.263   2.486 -0.0284  1.0254  1.0065
  456MOL0     H62876  10.147  10.271   2.635  0.2810  1.6455 -0.5174
  456MOL0     H62877  10.454  10.143   2.477 -0.1960 -1.8566 -0.6102
  456MOL0     H62878  10.702  10.034   2.597  2.1528 -0.7702  0.3702
  456MOL0     H62879  10.612   9.899   2.592  0.4989  2.5180 -1.6509
  456MOL0     H62880  10.705  10.031   2.853 -3.1854  0.1617 -0.4352
  456MOL0     H62881  10.631   9.872   2.859  2.3204 -0.9617  2.7594
  456MOL0     H62882  10.807   9.769   2.744 -3.2439  0.4175  1.4624
  456MOL0     H62883  10.895   9.924   2.725  1.4421 -1.4240 -0.1505
  456MOL0     H62884  10.952   9.933   2.952  2.7933 -0.9095 -0.0155
  456MOL0     H62885  10.823   9.828   2.997  0.0829  2.6627 -0.0563
  456MOL0     H62886  10.936   9.780   3.178  0.2253  0.0308  2.2006
  456MOL0     H62887  10.889   9.702   3.388 -1.0640 -0.5951  0.8390
  456MOL0     H62888  11.045   9.753   3.449 -0.6098 -0.9520  3.6255
  456MOL0     H62889  10.990   9.588   3.467  1.2189  0.0827  0.3900
  456MOL0     H62890  11.424   9.559   3.560  0.4777 -1.7657 -2.4221
  456MOL0     H62891  11.564   9.440   3.710 -0.0032  0.0390 -1.3398
  456MOL0     H62892  11.515   9.025   3.783  1.8442 -0.8286 -1.5431
  456MOL0     H62893  11.609   9.110   3.664 -2.7078  2.6335 -0.0811
  456MOL0     H62894  11.704   9.073   3.951  2.2375  2.1316  1.9883
  456MOL0     H62895  11.760   8.981   3.814  1.8679  1.4483 -2.2654
  456MOL0     H62896  11.785   9.288   3.850  0.5011  1.2601 -2.1237
  456MOL0     H62897  11.848   9.205   3.715  1.0430  2.1568  1.2925
  456MOL0     H62898  11.999   9.070   3.885  0.2277 -0.8829  1.8352
  456MOL0     H62899  11.930   9.161   4.008  0.5070  0.4509 -0.3422
  456MOL0     H62900  12.066   9.268   3.745  1.3237 -3.0051  0.1921
  456MOL0     H62901  12.000   9.374   3.879 -3.2624 -1.9543  1.4905
  456MOL0     H62902  12.237   9.176   3.922 -0.5466  0.1811 -0.6028
  456MOL0     H62903  12.157   9.295   4.025  3.0315  3.2161  0.3996
  456MOL0     H62904  12.338   9.313   3.779  1.8180 -2.0170  1.5994
  456MOL0     H62905  12.359   9.387   3.944  0.0959  0.9616 -0.4023
  456MOL0     H62906  12.165   9.553   3.893 -1.1341 -1.7136  0.0888
  456MOL0     H62907  12.196   9.507   3.716  1.2790 -0.5575 -0.6142
  456MOL0     H62908  11.282   9.119   3.755  1.0602  0.4018 -0.1598
  456MOL0     H62909  11.132   9.251   3.588 -0.9343  0.9111  3.5358
  456MOL0     H62910  11.240   9.396   3.081 -1.0864 -0.1918 -1.3675
  456MOL0     H62911  11.158   9.526   2.900 -0.1043 -1.4773  0.4105
  456MOL0     H62912   9.251   9.898   1.967 -2.7222  1.2656 -1.6605
  456MOL0     H62913   9.102   9.820   1.808 -0.0618  0.6750 -0.4465
  456MOL0     H62914   8.896   9.660   1.576  0.1951 -1.6987  1.6232
  456MOL0     H62915   8.687   9.599   1.460  1.2911  1.4431  0.4526
  456MOL0     H62916   8.587   9.337   1.339  1.2972  0.8868  0.1254
  456MOL0     H62917   8.517   9.493   1.367 -2.6611 -2.3380  0.3710
  456MOL0     H62918   8.414   9.508   1.152 -0.7420 -0.8387 -1.6929
  456MOL0     H62919   8.338   9.389   1.254 -0.5140  0.3638 -1.8457
  456MOL0     H62920   8.348   9.325   1.025 -1.1538  2.9516  4.3552
  456MOL0     H62921   8.522   9.359   1.010 -1.1317  1.7407 -0.9074
  456MOL0     H62922   8.405   9.157   1.205 -2.0077 -2.2339 -1.7992
  456MOL0     H62923   8.570   9.176   1.157  0.5112 -1.3859  2.1682
  456MOL0     H62924   8.426   8.921   0.858 -0.1149  1.0832  0.4102
  456MOL0     H62925   8.903   9.421   1.140 -0.5827  0.4803 -0.2685
  456MOL0     H62926   9.130   9.347   1.170  0.0396 -0.0918  0.2997
  456MOL0     H62927   9.206   9.507   1.202  0.3406 -0.6352 -0.7929
  456MOL0     H62928   9.206   9.379   1.326 -0.7945 -1.1405  0.3994
  457MOL0     O62929   6.383   0.855   5.843 -0.6094 -0.3218  0.3608
  457MOL0     C62930   6.298   0.860   5.754  0.3892 -0.2377  0.7336
  457MOL0     O62931   6.316   0.820   5.623  0.5095  0.5689  0.6222
  457MOL0     C62932   6.422   0.733   5.606  0.2930 -0.5461 -0.5875
  457MOL0     C62933   6.405   0.603   5.563 -0.1684  0.7213 -0.2886
  457MOL0     C62934   6.511   0.514   5.537  0.3183 -0.1529 -0.0917
  457MOL0     C62935   6.647   0.551   5.551  0.3668 -0.0274 -0.5720
  457MOL0     O62936   6.755   0.470   5.534 -0.6569 -0.4334  0.0135
  457MOL0     C62937   6.874   0.502   5.607 -0.2310  0.0335  0.2521
  457MOL0     C62938   6.971   0.382   5.604 -0.2677 -0.3894 -0.0561
  457MOL0     C62939   7.018   0.358   5.457  0.0892 -0.1962  1.6467
  457MOL0     C62940   7.117   0.464   5.413 -0.9838  0.2977 -0.3164
  457MOL0     C62941   7.182   0.417   5.285  0.3063  0.1313  0.2254
  457MOL0     C62942   7.335   0.414   5.268 -0.1401 -0.1744  0.4794
  457MOL0     C62943   7.382   0.402   5.121 -0.0192  0.1347 -0.1864
  457MOL0     C62944   7.316   0.291   5.049  0.8098 -0.2506  1.0853
  457MOL0     N62945   7.380   0.267   4.917  0.7116  0.0231 -0.0236
  457MOL0     C62946   7.334   0.340   4.812 -0.2044 -0.0002  0.0857
  457MOL0     C62947   7.423   0.307   4.710 -0.1848 -0.1939 -0.9588
  457MOL0     C62948   7.401   0.349   4.569 -1.0269 -0.5956  0.1506
  457MOL0     C62949   7.398   0.506   4.578  0.2587 -0.6903 -0.3390
  457MOL0     C62950   7.421   0.578   4.440 -0.3360  0.1681 -0.1872
  457MOL0     C62951   7.562   0.606   4.413 -0.6866  0.4938 -0.2681
  457MOL0     O62952   7.632   0.685   4.510  0.2936  0.1387 -0.1106
  457MOL0     C62953   7.755   0.726   4.470  0.4821 -0.0399 -0.4499
  457MOL0     C62954   7.823   0.702   4.344  0.1232 -0.0594  0.1746
  457MOL0     C62955   7.952   0.738   4.329  0.1872  0.6933  0.1987
  457MOL0     C62956   8.011   0.730   4.190  0.8808 -0.3928  0.1370
  457MOL0     C62957   8.022   0.777   4.448  0.5889 -0.0589  0.2607
  457MOL0     C62958   8.175   0.795   4.445 -0.4527  0.3024  0.7904
  457MOL0     O62959   8.225   0.862   4.554 -0.5729  0.3527  0.3894
  457MOL0     C62960   8.361   0.894   4.546 -0.4520 -0.2704 -0.1205
  457MOL0     C62961   8.385   1.027   4.549 -0.0740 -0.5594 -0.8577
  457MOL0     C62962   8.517   1.072   4.560  0.0566 -0.1875  0.1427
  457MOL0     C62963   8.626   0.980   4.547 -0.8710 -0.1467 -0.6810
  457MOL0     O62964   8.758   1.038   4.551 -0.2706  0.3033 -0.0076
  457MOL0     C62965   8.862   0.957   4.607  0.4226 -0.0530 -0.0477
  457MOL0     C62966   8.967   0.915   4.502  0.3464  0.7153  0.9712
  457MOL0     C62967   9.104   0.886   4.555 -0.3903 -0.3858 -0.2377
  457MOL0     C62968   9.121   0.763   4.638 -0.4348  0.3703 -0.0923
  457MOL0     C62969   9.268   0.737   4.684 -0.1734  0.0949  0.3755
  457MOL0     C62970   9.324   0.844   4.781  0.1926 -0.1730  1.4366
  457MOL0     C62971   9.445   0.788   4.852 -0.2468  0.1378  0.1400
  457MOL0     C62972   9.574   0.806   4.770  0.1534  0.7021  0.2937
  457MOL0    Cl62973   9.623   0.980   4.744  0.1656 -0.2613 -0.2134
  457MOL0     C62974   8.599   0.845   4.544 -0.6985  0.5461 -0.1846
  457MOL0     C62975   8.467   0.803   4.550  0.7112 -0.4754  0.8825
  457MOL0     O62976   8.240   0.759   4.349  0.3640 -0.5602  0.1982
  457MOL0     C62977   7.956   0.807   4.569  0.2543 -0.2439  0.5976
  457MOL0     C62978   7.825   0.790   4.574 -0.2315 -0.0435 -0.1813
  457MOL0     N62979   7.517   0.215   4.764 -0.0021 -0.5831 -0.3410
  457MOL0     N62980   7.497   0.201   4.888  0.1539 -0.0557  0.0610
  457MOL0     C62981   6.663   0.683   5.600  0.6702 -0.4351  0.0292
  457MOL0     C62982   6.551   0.775   5.614 -0.2120  1.1112  0.2715
  457MOL0     C62983   6.170   0.935   5.773  0.4777  0.1272 -0.6542
  457MOL0     C62984   6.061   0.914   5.690  0.0245 -0.2955 -0.7266
  457MOL0     C62985   5.942   0.967   5.723  0.5675  1.0635  0.3227
  457MOL0     C62986   5.925   1.070   5.817 -0.2462 -0.4731  0.3705
  457MOL0     O62987   5.803   1.124   5.838 -0.0574  0.4332  0.4416
  457MOL0     C62988   5.751   1.172   5.964  0.2759  0.1579  0.2557
  457MOL0     C62989   5.599   1.139   5.956 -0.2927 -0.1928  0.3926
  457MOL0     C62990   5.522   1.235   5.862  0.7996 -0.1525 -0.7375
  457MOL0     C62991   5.373   1.173   5.839  0.0883 -0.4076 -0.3146
  457MOL0     C62992   5.277   1.256   5.906  0.1104 -0.3306 -0.1272
  457MOL0     C62993   5.210   1.325   5.978  1.1410 -1.0221 -0.6709
  457MOL0     C62994   6.035   1.098   5.903 -0.0575 -0.4554  0.3993
  457MOL0     C62995   6.154   1.023   5.879  0.8121 -0.7004 -0.3839
  457MOL0     C62996   6.267   1.059   5.981  0.3972  0.2231  0.2225
  457MOL0     H62997   6.307   0.559   5.550  0.0844  0.4768 -1.6078
  457MOL0     H62998   6.490   0.413   5.504  0.5115 -0.0770 -0.4455
  457MOL0     H62999   6.845   0.512   5.712  2.7604 -1.7628  1.3528
  457MOL0     H63000   6.922   0.586   5.556 -1.3975 -0.3503 -1.6038
  457MOL0     H63001   7.056   0.405   5.669 -0.2783 -2.8832  0.9372
  457MOL0     H63002   6.925   0.301   5.660  1.0106  0.5913  2.5826
  457MOL0     H63003   7.064   0.259   5.445 -1.0798 -0.4157 -2.3302
  457MOL0     H63004   6.937   0.367   5.384  0.4322  0.7636  1.3687
  457MOL0     H63005   7.069   0.561   5.398 -1.1441  0.2851  0.1069
  457MOL0     H63006   7.198   0.478   5.485  0.2448  2.0575 -1.9356
  457MOL0     H63007   7.132   0.483   5.213  1.9714  1.5371  0.2973
  457MOL0     H63008   7.130   0.324   5.261 -1.5443  1.4803 -1.2998
  457MOL0     H63009   7.377   0.508   5.307 -4.1067  1.6592  0.8679
  457MOL0     H63010   7.371   0.327   5.323 -1.2177 -1.1860 -0.3707
  457MOL0     H63011   7.488   0.378   5.123 -0.2131 -0.7088  0.7052
  457MOL0     H63012   7.369   0.495   5.065  1.3131  0.7211  0.4374
  457MOL0     H63013   7.311   0.199   5.107 -0.0403 -0.7815  0.2020
  457MOL0     H63014   7.213   0.317   5.025  1.7744  1.6190 -1.5603
  457MOL0     H63015   7.245   0.398   4.790  1.8713  2.8307 -1.5920
  457MOL0     H63016   7.306   0.312   4.529 -1.9448  3.4464 -2.0722
  457MOL0     H63017   7.487   0.313   4.511  0.2535  2.9214 -0.3959
  457MOL0     H63018   7.300   0.541   4.613  1.7242  2.4636  1.0651
  457MOL0     H63019   7.464   0.542   4.656  0.8915 -0.5721 -0.9210
  457MOL0     H63020   7.375   0.521   4.360 -2.1059  0.6201  0.4740
  457MOL0     H63021   7.380   0.680   4.442 -1.1479 -0.1640  0.1511
  457MOL0     H63022   7.622   0.515   4.403  0.4127  1.2372 -0.6648
  457MOL0     H63023   7.570   0.661   4.319 -2.6901 -0.4964 -1.0833
  457MOL0     H63024   7.768   0.657   4.263 -2.5322 -2.4195  3.0379
  457MOL0     H63025   8.089   0.801   4.161  1.4552 -1.4219 -0.9501
  457MOL0     H63026   7.928   0.752   4.122  0.7836  0.0296  0.3915
  457MOL0     H63027   8.043   0.626   4.172 -0.6542 -1.2018  1.7756
  457MOL0     H63028   8.299   1.093   4.541 -0.6245 -1.3052 -1.3426
  457MOL0     H63029   8.543   1.178   4.568  2.2282 -0.3944 -2.7082
  457MOL0     H63030   8.921   1.023   4.672 -2.4798  1.1955  1.5129
  457MOL0     H63031   8.820   0.877   4.668 -0.9316  0.6189 -0.0680
  457MOL0     H63032   8.932   0.818   4.466  2.4711  0.4313 -0.4833
  457MOL0     H63033   8.966   0.981   4.415  0.0651 -2.6033 -1.7576
  457MOL0     H63034   9.139   0.972   4.615 -0.8314 -0.8716  0.7447
  457MOL0     H63035   9.176   0.891   4.473 -0.0044  1.7379  0.1644
  457MOL0     H63036   9.076   0.675   4.591  0.3854 -0.4725  0.6798
  457MOL0     H63037   9.065   0.773   4.731 -0.5508 -0.2330 -0.0933
  457MOL0     H63038   9.270   0.637   4.728  0.9831 -0.5404 -1.0088
  457MOL0     H63039   9.333   0.738   4.596  0.4620 -2.5460  0.7321
  457MOL0     H63040   9.250   0.865   4.860  2.5029  1.6549  3.2587
  457MOL0     H63041   9.345   0.937   4.729  0.3255 -0.9855 -0.0254
  457MOL0     H63042   9.440   0.683   4.882 -2.0592  0.4091  0.8824
  457MOL0     H63043   9.453   0.844   4.946 -2.8022  1.3935 -0.3176
  457MOL0     H63044   9.556   0.754   4.676  1.0205  2.1019 -0.6807
  457MOL0     H63045   9.667   0.762   4.808 -0.2258 -0.5290 -0.1732
  457MOL0     H63046   8.680   0.772   4.537 -2.2238 -1.1750 -0.8175
  457MOL0     H63047   8.440   0.698   4.550 -1.5894 -0.0796 -2.6590
  457MOL0     H63048   8.014   0.843   4.654  0.7021 -1.3598  0.7881
  457MOL0     H63049   7.776   0.819   4.666 -0.3667 -0.3868 -0.1420
  457MOL0     H63050   6.764   0.724   5.597  2.5544 -4.6215 -1.7623
  457MOL0     H63051   6.580   0.877   5.637  3.3829  1.6007 -4.6783
  457MOL0     H63052   6.060   0.833   5.617 -1.1897 -2.2325  1.3081
  457MOL0     H63053   5.860   0.939   5.658 -0.1057 -2.4034  2.3630
  457MOL0     H63054   5.790   1.119   6.052 -0.4538 -0.0369  0.4660
  457MOL0     H63055   5.769   1.280   5.972  3.2476 -0.3191  1.3078
  457MOL0     H63056   5.560   1.128   6.057 -0.2648 -3.6605  0.1274
  457MOL0     H63057   5.589   1.037   5.918 -0.7889 -0.1352  0.3586
  457MOL0     H63058   5.518   1.340   5.892 -1.2922 -0.3804 -0.0263
  457MOL0     H63059   5.585   1.239   5.773  2.8950 -1.1533  0.5941
  457MOL0     H63060   5.359   1.068   5.869 -1.9346 -0.0687  0.0550
  457MOL0     H63061   5.367   1.178   5.730  2.4861  0.4244 -0.4636
  457MOL0     H63062   5.168   1.381   6.059  0.8974 -1.5194 -0.4449
  457MOL0     H63063   6.018   1.154   5.995  0.4391 -2.2424  1.6509
  457MOL0     H63064   6.350   1.104   5.926 -1.7960  3.4653 -0.7000
  457MOL0     H63065   6.230   1.137   6.048 -0.4001  0.0723 -0.0219
  457MOL0     H63066   6.290   0.974   6.046  1.1133  0.7680  0.6852
  458MOL0     O63067  11.310   1.129   7.284  0.1992  0.2812 -0.2638
  458MOL0     C63068  11.308   1.211   7.191  0.2218 -0.6060  0.7166
  458MOL0     O63069  11.420   1.282   7.153 -0.3118 -0.4734 -0.0003
  458MOL0     C63070  11.522   1.267   7.236  0.2625 -0.2566 -0.3747
  458MOL0     C63071  11.538   1.372   7.336 -0.1564 -0.0012 -0.2806
  458MOL0     C63072  11.661   1.387   7.401 -0.3859  1.0419 -0.0245
  458MOL0     C63073  11.757   1.287   7.394 -0.1700 -0.2400 -0.9088
  458MOL0     O63074  11.866   1.304   7.479 -0.2142 -0.5096  0.0584
  458MOL0     C63075  11.982   1.225   7.471  0.1178  1.1356 -0.0349
  458MOL0     C63076  12.107   1.289   7.530 -0.5384  0.8278  0.6275
  458MOL0     C63077  12.215   1.188   7.527 -0.3937  0.3975 -0.4013
  458MOL0     C63078  12.320   1.224   7.631  0.5587  0.6433 -0.0470
  458MOL0     C63079  12.435   1.113   7.643  0.0138 -0.0455  0.6417
  458MOL0     C63080  12.562   1.166   7.722  0.1150 -0.5417  0.8523
  458MOL0     C63081  12.693   1.081   7.724 -0.6238 -0.3027  0.6101
  458MOL0     C63082  12.669   0.963   7.819  0.4940 -0.1671  0.4480
  458MOL0     N63083  12.791   0.894   7.839  0.1571 -0.0306 -1.3802
  458MOL0     C63084  12.863   0.898   7.961 -0.1341 -0.1643  0.6091
  458MOL0     C63085  12.987   0.856   7.932  0.7832  0.1012 -0.4977
  458MOL0     C63086  13.095   0.828   8.033 -0.3393  0.4568 -0.1456
  458MOL0     C63087  13.233   0.861   7.990  0.3516 -0.6240 -0.1784
  458MOL0     C63088  13.350   0.821   8.089  0.2300  0.0825  1.2143
  458MOL0     C63089  13.387   0.672   8.081  0.1396 -0.4925 -0.4757
  458MOL0     O63090  13.531   0.676   8.062  0.3863 -0.2455 -0.2553
  458MOL0     C63091  13.614   0.646   8.164 -0.3794 -0.5622 -0.5299
  458MOL0     C63092  13.578   0.665   8.297  0.8278 -0.2465 -0.2636
  458MOL0     C63093  13.667   0.630   8.403  0.4580 -1.0036 -0.1176
  458MOL0     C63094  13.631   0.692   8.541 -0.0444  0.0588 -0.2409
  458MOL0     C63095  13.777   0.551   8.375 -0.1276 -0.0033  0.2435
  458MOL0     C63096  13.863   0.493   8.480  1.4434  0.6933 -0.3512
  458MOL0     O63097  13.863   0.551   8.596 -0.1395 -0.3829  0.8363
  458MOL0     C63098  13.928   0.489   8.710  0.8067  0.0688  0.2276
  458MOL0     C63099  13.900   0.547   8.838 -0.4186  0.3495 -0.1026
  458MOL0     C63100  13.967   0.508   8.952 -0.2070  0.0858  0.1095
  458MOL0     C63101  14.071   0.408   8.942 -0.6497 -0.7658 -0.0439
  458MOL0     O63102  14.156   0.373   9.037  0.0879  0.1812  0.1589
  458MOL0     C63103  14.101   0.389   9.166 -0.1304 -0.6811 -0.1806
  458MOL0     C63104  14.195   0.323   9.266  0.2626  0.0556  0.3204
  458MOL0     C63105  14.346   0.374   9.268  0.6164  0.2645  0.0840
  458MOL0     C63106  14.432   0.302   9.372 -0.5419 -0.2881 -0.1649
  458MOL0     C63107  14.578   0.358   9.382 -0.5503  1.0454  0.0795
  458MOL0     C63108  14.660   0.268   9.475  0.9461 -1.0424 -0.2373
  458MOL0     C63109  14.804   0.324   9.484  0.5058  0.1156  0.1327
  458MOL0     C63110  14.892   0.215   9.524  0.0982 -0.4473 -0.3130
  458MOL0    Cl63111  14.843   0.152   9.685 -0.3175 -0.3705 -0.0393
  458MOL0     C63112  14.116   0.361   8.821  0.9595 -0.1650 -0.2178
  458MOL0     C63113  14.035   0.396   8.706  0.1466 -0.3133 -1.0774
  458MOL0     O63114  13.909   0.381   8.456  0.2265 -0.2191 -0.0814
  458MOL0     C63115  13.802   0.524   8.245 -0.0784  0.3949  0.7630
  458MOL0     C63116  13.725   0.569   8.138  0.3431 -0.0479  0.1103
  458MOL0     N63117  12.998   0.842   7.800  0.1624  0.1512  0.0207
  458MOL0     N63118  12.882   0.860   7.747  0.9292  0.1747  0.4252
  458MOL0     C63119  11.732   1.171   7.306  0.6091  0.2039 -1.0360
  458MOL0     C63120  11.622   1.172   7.219  0.0098 -0.0667 -0.3067
  458MOL0     C63121  11.177   1.236   7.116  0.0048 -0.3381 -0.5258
  458MOL0     C63122  11.088   1.132   7.108  0.8765 -0.0827 -1.2257
  458MOL0     C63123  10.960   1.151   7.047 -0.8460  1.0829  0.2358
  458MOL0     C63124  10.925   1.273   6.995 -0.4913  0.2247  1.3371
  458MOL0     O63125  10.806   1.287   6.944  0.2962  0.2239  0.1711
  458MOL0     C63126  10.738   1.406   6.992 -0.6544 -1.0369 -0.3749
  458MOL0     C63127  10.594   1.411   6.942 -0.3118 -0.2252 -0.6030
  458MOL0     C63128  10.520   1.284   6.994 -0.8192 -0.5019  0.6752
  458MOL0     C63129  10.447   1.277   7.127  0.5407 -0.4279  0.4872
  458MOL0     C63130  10.322   1.353   7.113 -0.0139  0.3051 -0.4200
  458MOL0     C63131  10.218   1.413   7.107  0.4385  0.1896 -0.5145
  458MOL0     C63132  11.022   1.375   6.989  0.3618 -0.0276  0.3991
  458MOL0     C63133  11.143   1.360   7.053 -0.4387  0.8559 -0.8032
  458MOL0     C63134  11.231   1.484   7.070 -0.0416 -0.2567 -0.3083
  458MOL0     H63135  11.454   1.436   7.359 -1.2841 -1.4596 -0.2706
  458MOL0     H63136  11.666   1.473   7.468 -1.3211  0.4568  0.8277
  458MOL0     H63137  12.001   1.218   7.363 -2.0789  0.5690 -0.4285
  458MOL0     H63138  11.959   1.127   7.512 -4.7369  1.7601 -0.6733
  458MOL0     H63139  12.141   1.375   7.472  2.8405 -0.8231 -0.0798
  458MOL0     H63140  12.079   1.320   7.631  0.2396 -1.7567  1.7092
  458MOL0     H63141  12.183   1.090   7.563 -0.8349 -0.1332 -2.1333
  458MOL0     H63142  12.259   1.192   7.427  2.6467 -3.7984  0.5080
  458MOL0     H63143  12.375   1.313   7.599 -0.8211  0.5687 -2.9579
  458MOL0     H63144  12.268   1.231   7.727  0.3869 -3.5795  0.3653
  458MOL0     H63145  12.460   1.095   7.538 -0.2092  2.1964  0.1477
  458MOL0     H63146  12.406   1.017   7.686  2.6175 -1.7859 -1.1857
  458MOL0     H63147  12.587   1.262   7.675 -1.8953 -0.9730 -1.2769
  458MOL0     H63148  12.534   1.170   7.827 -1.1365 -3.0450  0.6804
  458MOL0     H63149  12.775   1.138   7.769  0.4104 -0.2464 -1.2382
  458MOL0     H63150  12.717   1.039   7.625 -1.3626  0.3441  0.1464
  458MOL0     H63151  12.624   0.987   7.916 -1.0506 -2.5980  0.4037
  458MOL0     H63152  12.593   0.897   7.777 -1.1819  1.0440  1.4735
  458MOL0     H63153  12.814   0.915   8.056 -4.2717 -1.3865 -1.0549
  458MOL0     H63154  13.090   0.720   8.048  1.4016  0.3499 -0.0392
  458MOL0     H63155  13.088   0.875   8.131  0.3773 -0.3993  0.3275
  458MOL0     H63156  13.248   0.811   7.893 -1.2659 -2.3638  0.3921
  458MOL0     H63157  13.248   0.969   7.982  0.5101 -0.7451 -2.1127
  458MOL0     H63158  13.436   0.883   8.060  0.2042 -0.3439  0.1420
  458MOL0     H63159  13.323   0.859   8.187  0.9217 -0.7668  1.7503
  458MOL0     H63160  13.362   0.614   8.170  1.6807 -0.2866  0.1211
  458MOL0     H63161  13.336   0.616   8.002 -1.8381 -0.3385  0.6108
  458MOL0     H63162  13.488   0.717   8.327 -0.4758 -1.1442 -2.3994
  458MOL0     H63163  13.592   0.623   8.616 -1.1090 -0.1271 -0.9412
  458MOL0     H63164  13.544   0.756   8.524 -0.9092 -1.1736 -0.5964
  458MOL0     H63165  13.706   0.757   8.588 -3.1486  3.5188  0.4239
  458MOL0     H63166  13.820   0.621   8.838  2.1828  3.3821 -0.5515
  458MOL0     H63167  13.946   0.565   9.042  2.3537 -2.9567  2.8772
  458MOL0     H63168  14.094   0.495   9.191 -1.3232 -0.0202 -2.8843
  458MOL0     H63169  14.001   0.346   9.174 -0.1277 -0.5166  0.7534
  458MOL0     H63170  14.164   0.342   9.369 -0.2331  0.3090  0.1241
  458MOL0     H63171  14.184   0.219   9.234  0.9431  0.1376 -0.2135
  458MOL0     H63172  14.362   0.481   9.280 -0.3346  0.7108 -2.0086
  458MOL0     H63173  14.376   0.350   9.165 -0.9529 -2.0949  0.0768
  458MOL0     H63174  14.438   0.195   9.353  1.4046 -1.6432  5.9725
  458MOL0     H63175  14.384   0.322   9.468  0.8148  1.6065  0.1715
  458MOL0     H63176  14.618   0.360   9.280  1.9639  3.6110  0.9853
  458MOL0     H63177  14.574   0.459   9.422 -0.2485  0.8730  0.5520
  458MOL0     H63178  14.660   0.165   9.438 -2.6610 -1.2035 -0.1785
  458MOL0     H63179  14.616   0.256   9.574  2.7761  1.7047  1.0194
  458MOL0     H63180  14.812   0.401   9.561  2.0461  0.6119 -0.4772
  458MOL0     H63181  14.840   0.368   9.390 -1.2247 -0.1622 -0.6966
  458MOL0     H63182  14.992   0.261   9.521  0.6439 -1.6363 -1.2619
  458MOL0     H63183  14.892   0.143   9.442 -1.4975  0.5519 -1.2273
  458MOL0     H63184  14.202   0.297   8.809  0.0054 -1.0302 -3.8656
  458MOL0     H63185  14.066   0.345   8.616 -0.3927 -0.6814 -1.0649
  458MOL0     H63186  13.884   0.464   8.206  0.9884  0.3499  2.8953
  458MOL0     H63187  13.753   0.540   8.037 -1.4898  1.6300 -0.9450
  458MOL0     H63188  11.812   1.102   7.280 -1.3484 -2.4123 -0.5578
  458MOL0     H63189  11.617   1.109   7.131 -1.6155  2.1978 -1.9466
  458MOL0     H63190  11.105   1.041   7.166 -0.3367  1.4978  1.8002
  458MOL0     H63191  10.876   1.084   7.056 -1.8689  2.2232 -0.5027
  458MOL0     H63192  10.733   1.405   7.102  0.5158  2.4799 -0.1566
  458MOL0     H63193  10.802   1.490   6.962  2.6380 -2.3434  2.3062
  458MOL0     H63194  10.592   1.417   6.833 -1.7576  1.0268 -0.5435
  458MOL0     H63195  10.550   1.503   6.983 -2.0709 -0.9764 -0.7183
  458MOL0     H63196  10.440   1.250   6.927 -1.5638  1.7637  0.3012
  458MOL0     H63197  10.589   1.200   6.998 -1.4873 -1.1026  0.0346
  458MOL0     H63198  10.518   1.324   7.195  1.6405  0.2104 -1.0449
  458MOL0     H63199  10.422   1.172   7.145 -0.0677 -0.2952  0.4640
  458MOL0     H63200  10.124   1.465   7.111  1.1286  1.5660 -1.2558
  458MOL0     H63201  11.003   1.474   6.949 -0.0305  0.1175  0.9306
  458MOL0     H63202  11.322   1.470   7.011  0.5325 -1.3020  0.7783
  458MOL0     H63203  11.179   1.577   7.044  0.8397 -0.0987 -1.5521
  458MOL0     H63204  11.260   1.489   7.175  2.6643 -1.7978 -0.8876
  459MOL0     O63205   6.061   8.429   1.419 -0.2148  0.8625  1.0861
  459MOL0     C63206   6.022   8.434   1.536 -0.2708  0.4269 -0.6148
  459MOL0     O63207   6.103   8.436   1.643 -1.0804  0.7026 -0.0261
  459MOL0     C63208   6.242   8.460   1.622  0.3790 -1.0551  0.3928
  459MOL0     C63209   6.336   8.394   1.550  0.3340 -0.1496 -0.2094
  459MOL0     C63210   6.471   8.426   1.534 -0.2380  0.0014  0.1273
  459MOL0     C63211   6.525   8.528   1.611  0.2083 -0.0164  0.2077
  459MOL0     O63212   6.656   8.571   1.618  0.4702 -0.3575  0.2630
  459MOL0     C63213   6.731   8.537   1.502  0.2368 -0.2118 -0.2402
  459MOL0     C63214   6.868   8.607   1.522  1.0380  0.1622 -0.2073
  459MOL0     C63215   6.859   8.768   1.524 -0.2934  0.6807  0.3107
  459MOL0     C63216   6.811   8.832   1.400  0.0927  0.3799  0.5256
  459MOL0     C63217   6.769   8.981   1.415  0.2563 -0.7013  0.7136
  459MOL0     C63218   6.877   9.084   1.465 -0.2941 -0.2550  0.1577
  459MOL0     C63219   7.009   9.109   1.383  0.7714 -0.4992 -0.7156
  459MOL0     C63220   7.096   9.217   1.438 -0.2164 -1.1545 -0.2695
  459MOL0     N63221   7.167   9.165   1.550  0.7889  0.0403 -0.3871
  459MOL0     C63222   7.280   9.096   1.548 -0.6652 -0.6350 -0.4054
  459MOL0     C63223   7.307   9.071   1.674  1.0030  0.5515  0.2457
  459MOL0     C63224   7.421   8.985   1.726  0.1281  0.5276 -0.0138
  459MOL0     C63225   7.387   8.837   1.738  0.0908  0.5293  0.3049
  459MOL0     C63226   7.434   8.766   1.870 -0.0666  0.0766  0.7239
  459MOL0     C63227   7.581   8.788   1.895 -0.6496 -0.2964  0.3124
  459MOL0     O63228   7.670   8.764   1.786 -0.0013  0.6948 -0.1388
  459MOL0     C63229   7.801   8.786   1.811 -0.9185  0.1431 -0.5949
  459MOL0     C63230   7.890   8.747   1.709 -0.3187  0.5558 -0.0227
  459MOL0     C63231   8.039   8.763   1.728  0.8901 -0.2435 -0.6396
  459MOL0     C63232   8.126   8.755   1.603 -0.0550  0.2200  0.1581
  459MOL0     C63233   8.091   8.789   1.858 -0.5165  0.4682  0.0345
  459MOL0     C63234   8.234   8.784   1.899 -0.9269 -0.5237  0.3676
  459MOL0     O63235   8.325   8.738   1.810  1.2668  0.0381  0.4258
  459MOL0     C63236   8.458   8.771   1.821  0.5734  0.1905  0.6051
  459MOL0     C63237   8.524   8.851   1.717 -0.2808 -0.3765  0.2562
  459MOL0     C63238   8.666   8.890   1.727  1.6251 -1.2722 -0.2198
  459MOL0     C63239   8.733   8.863   1.839  0.8350 -0.3865 -0.5361
  459MOL0     O63240   8.869   8.894   1.854 -0.2008 -0.2163  0.1337
  459MOL0     C63241   8.943   8.803   1.772 -0.2698  0.3772 -0.4148
  459MOL0     C63242   9.085   8.783   1.843  1.2884 -0.1566 -0.4088
  459MOL0     C63243   9.174   8.901   1.865  0.1115 -0.5808 -0.4778
  459MOL0     C63244   9.303   8.863   1.943  0.6746  0.0110 -0.2798
  459MOL0     C63245   9.404   8.979   1.952  0.1004  0.0865 -0.1675
  459MOL0     C63246   9.535   8.941   2.017 -0.4156 -0.3919  0.5946
  459MOL0     C63247   9.635   9.049   2.017 -0.0508 -0.7425 -0.0816
  459MOL0     C63248   9.751   9.018   2.125  0.3926  0.5753 -0.2156
  459MOL0    Cl63249   9.846   8.869   2.071  0.0384  0.2577  0.2788
  459MOL0     C63250   8.678   8.772   1.932 -0.0097 -0.1998 -0.0852
  459MOL0     C63251   8.541   8.726   1.924 -1.1914 -0.3071  0.5353
  459MOL0     O63252   8.268   8.831   2.002  0.3372 -0.5233  0.2993
  459MOL0     C63253   7.997   8.836   1.951 -0.1670  0.2081 -0.4315
  459MOL0     C63254   7.864   8.837   1.933 -0.0936  0.0108 -0.3851
  459MOL0     N63255   7.203   9.113   1.759  0.6294  0.3142 -0.4130
  459MOL0     N63256   7.114   9.169   1.676 -0.7876  0.4815 -0.1532
  459MOL0     C63257   6.431   8.593   1.694  1.1269  0.1501 -0.6518
  459MOL0     C63258   6.291   8.568   1.692  0.2073  0.2114 -0.7120
  459MOL0     C63259   5.878   8.427   1.564  0.2299 -0.5693  0.4229
  459MOL0     C63260   5.827   8.490   1.685 -0.5375 -0.5123  0.0619
  459MOL0     C63261   5.694   8.480   1.708  0.8932 -0.4787 -0.1711
  459MOL0     C63262   5.599   8.429   1.618 -0.2856  0.5968  0.0876
  459MOL0     O63263   5.464   8.437   1.638 -0.3227 -0.4471  0.2227
  459MOL0     C63264   5.418   8.495   1.759  0.4643  0.1865  0.1451
  459MOL0     C63265   5.267   8.503   1.756  0.4299  0.1968  0.1840
  459MOL0     C63266   5.207   8.564   1.885 -0.0708  0.0971 -0.3433
  459MOL0     C63267   5.057   8.555   1.889 -0.5347 -0.4628  0.1880
  459MOL0     C63268   5.002   8.593   2.018 -0.1875 -0.1867  0.3799
  459MOL0     C63269   4.963   8.640   2.126 -0.8251  1.1483 -0.2968
  459MOL0     C63270   5.652   8.353   1.508  0.0600  0.2492 -0.1919
  459MOL0     C63271   5.788   8.357   1.476  0.1751  0.5255 -0.1406
  459MOL0     C63272   5.834   8.274   1.363  0.2752 -0.9265  0.1660
  459MOL0     H63273   6.305   8.315   1.482  0.6291 -1.0195  0.6375
  459MOL0     H63274   6.512   8.366   1.453 -1.1504  0.2832 -0.5671
  459MOL0     H63275   6.688   8.559   1.404  0.3796  1.7954  0.1220
  459MOL0     H63276   6.755   8.430   1.507  0.7558 -0.0660  3.7980
  459MOL0     H63277   6.910   8.560   1.612  1.1486  3.3990  1.5640
  459MOL0     H63278   6.933   8.571   1.441  2.5749  0.5619  0.8027
  459MOL0     H63279   6.792   8.784   1.609 -0.7588  2.1970 -0.3100
  459MOL0     H63280   6.958   8.809   1.543 -1.2943  2.0410  3.0074
  459MOL0     H63281   6.868   8.830   1.306 -2.6856 -1.3275 -1.2628
  459MOL0     H63282   6.724   8.769   1.379  0.4475  0.1304 -0.2655
  459MOL0     H63283   6.682   8.984   1.481  1.3804 -0.6594  2.2266
  459MOL0     H63284   6.733   9.023   1.320  1.4667  0.7460  0.8583
  459MOL0     H63285   6.830   9.183   1.460 -1.2414 -0.6712  0.5294
  459MOL0     H63286   6.896   9.053   1.569 -1.5853  0.9781  0.8013
  459MOL0     H63287   6.986   9.152   1.285  0.9759 -1.1765 -1.0645
  459MOL0     H63288   7.062   9.017   1.360 -2.7200 -3.0650  0.6350
  459MOL0     H63289   7.166   9.252   1.361 -0.5114  1.8544  0.7017
  459MOL0     H63290   7.044   9.307   1.473 -0.4707 -1.4811  0.1951
  459MOL0     H63291   7.345   9.077   1.462  2.6004 -1.1040  1.9779
  459MOL0     H63292   7.462   9.023   1.820 -1.2031 -0.3500  0.9532
  459MOL0     H63293   7.508   8.996   1.660  0.3762  2.6406  0.5962
  459MOL0     H63294   7.279   8.821   1.729  0.5005 -1.1835 -3.0360
  459MOL0     H63295   7.430   8.794   1.647 -0.6100 -0.1877  0.3049
  459MOL0     H63296   7.378   8.801   1.957 -1.9484 -3.1659  0.9672
  459MOL0     H63297   7.407   8.660   1.866 -0.4307  0.1641 -3.4594
  459MOL0     H63298   7.599   8.893   1.921  1.7975 -0.7226  0.5692
  459MOL0     H63299   7.618   8.724   1.976 -0.3854  0.4402  0.7946
  459MOL0     H63300   7.864   8.710   1.611  1.3832 -0.2224 -0.2271
  459MOL0     H63301   8.062   8.767   1.515  0.0277 -4.3994 -0.7917
  459MOL0     H63302   8.159   8.651   1.598  1.7626  0.8021 -0.9566
  459MOL0     H63303   8.212   8.822   1.597 -0.8862  1.3156  0.1428
  459MOL0     H63304   8.475   8.875   1.623 -1.1300  1.2307  1.0771
  459MOL0     H63305   8.716   8.955   1.656  0.5951  0.6732  0.7444
  459MOL0     H63306   8.886   8.711   1.762 -1.8793  1.5437 -3.1186
  459MOL0     H63307   8.944   8.839   1.668 -1.2227 -0.0657 -0.5844
  459MOL0     H63308   9.068   8.739   1.942 -0.8000  0.9052 -0.2231
  459MOL0     H63309   9.139   8.705   1.790  1.1428  0.2406 -1.1525
  459MOL0     H63310   9.126   8.986   1.915 -0.6820 -0.2377 -1.7657
  459MOL0     H63311   9.194   8.948   1.768 -1.7758  0.9714 -0.1720
  459MOL0     H63312   9.351   8.784   1.884 -3.1734 -0.8633 -2.6638
  459MOL0     H63313   9.276   8.840   2.047 -0.1325  1.6391 -0.0982
  459MOL0     H63314   9.425   9.026   1.855  2.1273  0.9074  0.6187
  459MOL0     H63315   9.361   9.054   2.019 -2.4376 -3.0749  2.0335
  459MOL0     H63316   9.581   8.860   1.960 -0.0306 -1.7459  2.7217
  459MOL0     H63317   9.517   8.895   2.114  0.2965  2.0388  1.9545
  459MOL0     H63318   9.595   9.148   2.042 -0.6504 -0.8017 -0.7676
  459MOL0     H63319   9.677   9.061   1.917 -3.7760  0.4248 -1.6634
  459MOL0     H63320   9.692   9.004   2.216 -3.2844  3.6416 -1.8424
  459MOL0     H63321   9.821   9.101   2.139  0.2917  0.3698  1.8915
  459MOL0     H63322   8.752   8.745   2.006 -0.3471  0.5038  0.5149
  459MOL0     H63323   8.504   8.646   1.987  1.1011 -2.3354 -0.5026
  459MOL0     H63324   8.036   8.852   2.051  0.8829 -0.1718 -0.7688
  459MOL0     H63325   7.795   8.875   2.007 -1.9059  0.4840 -2.2457
  459MOL0     H63326   6.467   8.675   1.756 -1.9520  0.7269  0.5184
  459MOL0     H63327   6.223   8.634   1.745  0.1549  0.8749 -1.5836
  459MOL0     H63328   5.887   8.553   1.749 -1.0309 -1.0784  1.1050
  459MOL0     H63329   5.657   8.518   1.803  1.3276 -0.8314  0.1462
  459MOL0     H63330   5.461   8.436   1.840 -0.2493 -2.8836 -1.5811
  459MOL0     H63331   5.440   8.602   1.766  3.0320 -0.1957 -0.8895
  459MOL0     H63332   5.229   8.402   1.744  4.0362 -1.1115 -1.5462
  459MOL0     H63333   5.234   8.564   1.671  2.1312 -0.1238 -0.7312
  459MOL0     H63334   5.240   8.513   1.976  1.3626 -2.0391 -1.9540
  459MOL0     H63335   5.239   8.668   1.879 -1.3275  0.3980 -3.4021
  459MOL0     H63336   5.034   8.449   1.870 -0.6108 -0.2532 -0.9770
  459MOL0     H63337   5.010   8.615   1.810  0.4829  1.2698  0.8436
  459MOL0     H63338   4.931   8.694   2.212 -1.5738  0.9818 -0.4644
  459MOL0     H63339   5.582   8.307   1.439  0.5216  0.0637 -0.5384
  459MOL0     H63340   5.753   8.202   1.348  0.1572 -0.2451 -3.3006
  459MOL0     H63341   5.847   8.334   1.273  0.0404 -1.5127 -0.2677
  459MOL0     H63342   5.929   8.226   1.389  1.5038  1.2731 -0.0177
  460MOL0     O63343   6.166   9.603   6.335 -0.3115 -0.5704 -0.1207
  460MOL0     C63344   6.108   9.503   6.365 -0.1229 -0.1799  0.4315
  460MOL0     O63345   6.162   9.392   6.421  0.5558 -0.2691 -0.4568
  460MOL0     C63346   6.295   9.373   6.436  0.2468  0.6322 -0.0610
  460MOL0     C63347   6.350   9.377   6.571  0.1671 -0.3297 -0.6201
  460MOL0     C63348   6.483   9.356   6.592  0.5813  0.0501  0.4708
  460MOL0     C63349   6.574   9.331   6.486 -0.4747 -0.6600  0.1063
  460MOL0     O63350   6.707   9.315   6.520 -0.7239 -0.8626 -0.2030
  460MOL0     C63351   6.787   9.228   6.439  0.1838  0.2762 -0.2323
  460MOL0     C63352   6.910   9.189   6.525 -0.4838 -0.7731  0.4702
  460MOL0     C63353   7.030   9.282   6.497  0.3039  1.2050 -0.8140
  460MOL0     C63354   7.139   9.251   6.606 -0.1064 -0.5294  0.3722
  460MOL0     C63355   7.256   9.342   6.558 -0.7804 -0.1257 -0.2549
  460MOL0     C63356   7.352   9.361   6.676 -0.1077 -0.1480 -0.5379
  460MOL0     C63357   7.418   9.235   6.735 -0.4362 -0.4479 -0.2300
  460MOL0     C63358   7.522   9.163   6.651  0.1873 -0.1582  0.1057
  460MOL0     N63359   7.633   9.253   6.613 -0.1910 -0.3393  0.2086
  460MOL0     C63360   7.708   9.329   6.700 -0.4672 -0.0814 -0.3537
  460MOL0     C63361   7.805   9.395   6.631 -0.2644 -0.4166 -0.4098
  460MOL0     C63362   7.922   9.484   6.682 -0.3961  1.0332  0.2461
  460MOL0     C63363   8.029   9.396   6.752 -0.1560  0.0862 -0.2697
  460MOL0     C63364   8.113   9.312   6.656 -0.1215  0.0102 -0.2071
  460MOL0     C63365   8.216   9.225   6.721 -0.1154  0.0401  0.3223
  460MOL0     O63366   8.264   9.133   6.619  0.1243 -0.1035  0.3123
  460MOL0     C63367   8.370   9.043   6.632  0.6258  0.0243 -0.4254
  460MOL0     C63368   8.398   8.953   6.525 -0.1940 -0.6903 -0.8785
  460MOL0     C63369   8.521   8.877   6.512 -0.7430 -0.1047  0.6115
  460MOL0     C63370   8.561   8.815   6.381  0.4898  0.1768  0.2466
  460MOL0     C63371   8.611   8.881   6.619 -0.2906  0.0148 -0.2867
  460MOL0     C63372   8.736   8.792   6.631 -0.3992 -0.0812  0.4844
  460MOL0     O63373   8.828   8.825   6.727  0.3343  0.1997 -0.3114
  460MOL0     C63374   8.871   8.734   6.822 -0.1748 -0.2390  0.9943
  460MOL0     C63375   8.977   8.780   6.902  0.0582 -0.2552 -0.3121
  460MOL0     C63376   9.031   8.697   7.002 -0.1483  0.5146 -0.0345
  460MOL0     C63377   8.967   8.577   7.043 -0.0851  0.3596  0.1087
  460MOL0     O63378   8.996   8.501   7.152  0.5998 -0.0364  0.0277
  460MOL0     C63379   9.117   8.533   7.215 -0.1254  0.4806  0.8479
  460MOL0     C63380   9.145   8.402   7.293  0.5136 -0.1455 -0.4230
  460MOL0     C63381   9.286   8.396   7.361 -0.4837 -0.3679 -0.9502
  460MOL0     C63382   9.302   8.297   7.473 -0.7338  0.9089 -1.1007
  460MOL0     C63383   9.428   8.207   7.469  0.1629  1.1833  0.3021
  460MOL0     C63384   9.436   8.098   7.583  0.7435  0.0940  0.5392
  460MOL0     C63385   9.561   8.004   7.565  1.3730 -0.0897 -0.2469
  460MOL0     C63386   9.574   7.930   7.431 -0.0153  0.5138 -0.9211
  460MOL0    Cl63387   9.727   7.829   7.433  0.1473 -0.1759  0.2832
  460MOL0     C63388   8.859   8.538   6.970  0.7169  0.2250  0.1105
  460MOL0     C63389   8.809   8.608   6.858 -0.3022  0.8167 -0.1634
  460MOL0     O63390   8.738   8.686   6.565 -0.2412 -0.3015  0.4335
  460MOL0     C63391   8.579   8.967   6.732  0.4111 -0.3328  0.6894
  460MOL0     C63392   8.463   9.037   6.739 -1.0314 -0.1217  0.3926
  460MOL0     N63393   7.793   9.352   6.507 -0.4260 -0.2331  0.5856
  460MOL0     N63394   7.686   9.278   6.490 -0.1730 -0.0301  0.8186
  460MOL0     C63395   6.523   9.347   6.357  0.3252  0.5298  0.0061
  460MOL0     C63396   6.385   9.361   6.324  0.5516  0.1587 -0.6335
  460MOL0     C63397   5.958   9.497   6.369 -0.2661 -0.3517  0.1104
  460MOL0     C63398   5.888   9.603   6.423  0.7210 -0.4853  0.1004
  460MOL0     C63399   5.749   9.602   6.427  0.2770  0.4937  0.7161
  460MOL0     C63400   5.674   9.489   6.395 -0.1301  0.0018  0.1569
  460MOL0     O63401   5.545   9.508   6.425  0.7273 -0.2134 -0.3353
  460MOL0     C63402   5.464   9.392   6.444 -0.5874  0.3010  0.4538
  460MOL0     C63403   5.321   9.427   6.466 -0.3379 -0.1420 -0.2440
  460MOL0     C63404   5.244   9.302   6.503  0.0264  0.6845  0.0967
  460MOL0     C63405   5.092   9.328   6.492 -1.1419 -0.2633  0.0276
  460MOL0     C63406   5.038   9.417   6.599 -0.1424 -0.7295  0.0442
  460MOL0     C63407   5.004   9.473   6.702  0.1133 -0.6894  0.6330
  460MOL0     C63408   5.740   9.376   6.342 -0.1872 -0.2257 -0.5877
  460MOL0     C63409   5.880   9.386   6.316  0.2636  0.2312 -0.4970
  460MOL0     C63410   5.952   9.280   6.229 -0.3502 -0.1854 -0.4198
  460MOL0     H63411   6.283   9.383   6.656  1.2743  0.0853  0.2477
  460MOL0     H63412   6.518   9.354   6.694 -0.5782  2.1054  0.9496
  460MOL0     H63413   6.820   9.268   6.342  0.6569 -2.6296 -1.3725
  460MOL0     H63414   6.733   9.135   6.419 -0.4242  0.2803  1.2392
  460MOL0     H63415   6.878   9.197   6.629 -0.5785 -0.0632  0.3885
  460MOL0     H63416   6.942   9.086   6.507  0.9975 -0.2257 -0.1825
  460MOL0     H63417   7.069   9.260   6.397 -0.0526 -2.2345 -0.3129
  460MOL0     H63418   7.006   9.389   6.503  1.0432  1.4252 -1.5435
  460MOL0     H63419   7.096   9.262   6.706 -1.0723 -2.6641  0.2425
  460MOL0     H63420   7.167   9.146   6.608 -1.7888 -0.9931  0.9745
  460MOL0     H63421   7.223   9.440   6.522 -0.4917 -0.8689 -2.7394
  460MOL0     H63422   7.311   9.301   6.473 -0.9062  1.3115 -1.0812
  460MOL0     H63423   7.428   9.434   6.646  0.6561  0.0017  1.5682
  460MOL0     H63424   7.292   9.416   6.749 -1.1646  2.9057 -3.4526
  460MOL0     H63425   7.342   9.161   6.761  1.0171 -1.5928  0.9305
  460MOL0     H63426   7.457   9.253   6.836  2.1837 -2.0245 -0.8753
  460MOL0     H63427   7.556   9.079   6.712 -0.3287 -0.5635 -0.1652
  460MOL0     H63428   7.481   9.124   6.557  1.4274  0.6887 -0.8247
  460MOL0     H63429   7.710   9.337   6.808  3.3003  0.9683 -0.3578
  460MOL0     H63430   7.880   9.552   6.756 -3.1893  0.8292 -1.0251
  460MOL0     H63431   7.964   9.545   6.602  1.0890 -0.1391  0.0731
  460MOL0     H63432   8.092   9.465   6.809  0.2017  1.4539 -2.2447
  460MOL0     H63433   7.980   9.329   6.824  2.0277 -0.9883  0.3089
  460MOL0     H63434   8.037   9.245   6.612  1.3065 -0.5572 -1.9421
  460MOL0     H63435   8.150   9.380   6.579 -0.4453 -1.4405 -1.6968
  460MOL0     H63436   8.307   9.279   6.750  1.2898 -1.4865 -1.0077
  460MOL0     H63437   8.171   9.169   6.803 -1.1070 -0.9589 -0.8507
  460MOL0     H63438   8.327   8.951   6.443 -0.1202 -0.5023 -0.9476
  460MOL0     H63439   8.657   8.850   6.342 -0.3182 -0.7823 -2.9175
  460MOL0     H63440   8.483   8.830   6.306 -0.1657  0.8629  1.0475
  460MOL0     H63441   8.572   8.706   6.387  1.3102  0.2369 -0.0499
  460MOL0     H63442   9.013   8.879   6.876  1.2080 -1.3177 -3.2886
  460MOL0     H63443   9.125   8.723   7.050 -0.6401  3.4913 -0.5339
  460MOL0     H63444   9.202   8.552   7.149 -0.5308  0.4019  0.2879
  460MOL0     H63445   9.099   8.625   7.272 -1.4560  0.3748  0.6260
  460MOL0     H63446   9.063   8.382   7.363  1.0339  0.4986  0.3851
  460MOL0     H63447   9.150   8.314   7.228 -1.7820 -1.4506  1.0152
  460MOL0     H63448   9.308   8.492   7.409  2.6930 -1.2985 -0.2965
  460MOL0     H63449   9.359   8.373   7.283  0.7766  2.0579 -0.5842
  460MOL0     H63450   9.220   8.226   7.479 -0.3950  0.6067  0.4576
  460MOL0     H63451   9.299   8.349   7.569 -0.6170  0.2412 -0.7294
  460MOL0     H63452   9.434   8.161   7.370 -1.0935 -2.2574  1.6873
  460MOL0     H63453   9.512   8.275   7.486  0.3719  2.1883 -3.6151
  460MOL0     H63454   9.340   8.045   7.581 -0.0875  1.5581 -0.6016
  460MOL0     H63455   9.452   8.145   7.680 -3.0282  1.7390  0.5449
  460MOL0     H63456   9.566   7.930   7.645 -0.9221  0.0705  0.1239
  460MOL0     H63457   9.653   8.063   7.565  0.5080  1.3391 -1.6260
  460MOL0     H63458   9.586   7.993   7.342  0.8134 -0.9170 -1.8535
  460MOL0     H63459   9.487   7.868   7.409 -0.8588  1.5550 -0.6064
  460MOL0     H63460   8.803   8.453   7.007  0.9460  0.7648  1.7697
  460MOL0     H63461   8.717   8.584   6.804 -1.7469  1.8744  1.7115
  460MOL0     H63462   8.639   8.975   6.822 -1.9204 -0.2407  2.3127
  460MOL0     H63463   8.446   9.102   6.824  2.0084 -1.1137  1.8877
  460MOL0     H63464   6.591   9.327   6.275 -0.5052 -0.6375 -0.4236
  460MOL0     H63465   6.350   9.352   6.222  1.8913  3.3298 -1.5092
  460MOL0     H63466   5.950   9.688   6.450 -0.9016  1.2658 -1.3850
  460MOL0     H63467   5.695   9.687   6.468  0.7132  0.2428  1.8328
  460MOL0     H63468   5.466   9.340   6.348 -0.0584  3.6458 -1.4907
  460MOL0     H63469   5.504   9.336   6.529  1.2098  1.6859  0.5857
  460MOL0     H63470   5.274   9.482   6.384 -2.4946 -1.5060  0.0094
  460MOL0     H63471   5.323   9.496   6.550  1.0320  1.9746 -1.9058
  460MOL0     H63472   5.263   9.220   6.434 -0.1101  0.2476  0.5774
  460MOL0     H63473   5.264   9.280   6.608  2.3571  0.2029 -0.3995
  460MOL0     H63474   5.039   9.233   6.503 -1.3060 -0.1971 -0.2073
  460MOL0     H63475   5.072   9.381   6.399 -3.0682 -0.1037  0.4953
  460MOL0     H63476   4.986   9.513   6.799 -0.9028  2.7618 -0.8136
  460MOL0     H63477   5.676   9.294   6.312 -1.2208  0.0935  0.6615
  460MOL0     H63478   5.873   9.222   6.181 -1.3471  0.0268  0.9022
  460MOL0     H63479   6.013   9.330   6.153  1.9786  0.4206  1.6973
  460MOL0     H63480   6.017   9.216   6.290 -0.6105 -0.7742 -0.7551
  461MOL0     O63481   9.458   0.926   3.144 -0.2950  0.8219  0.5887
  461MOL0     C63482   9.454   0.801   3.155  0.7799 -0.4874  0.3052
  461MOL0     O63483   9.550   0.708   3.139  0.1943 -0.6006  0.2612
  461MOL0     C63484   9.673   0.742   3.104  0.1631 -0.3420  0.0176
  461MOL0     C63485   9.786   0.688   3.168  0.1581 -1.1210  0.0445
  461MOL0     C63486   9.919   0.717   3.131  0.2487 -0.2225 -0.5326
  461MOL0     C63487   9.935   0.780   3.011 -0.2011 -1.1746  0.4535
  461MOL0     O63488  10.063   0.803   2.974  0.2327 -0.2156  0.6659
  461MOL0     C63489  10.101   0.885   2.873 -1.0679 -0.1668  0.5216
  461MOL0     C63490  10.245   0.918   2.871  0.1896  0.5631 -0.4080
  461MOL0     C63491  10.330   0.822   2.789 -0.1768 -0.5171  0.2426
  461MOL0     C63492  10.481   0.863   2.798  0.0083  0.6628  0.4717
  461MOL0     C63493  10.572   0.745   2.764  0.4537 -0.1002 -0.1296
  461MOL0     C63494  10.709   0.791   2.771  0.3707 -0.7608 -0.1713
  461MOL0     C63495  10.803   0.672   2.755 -1.2649  1.1576 -0.6192
  461MOL0     C63496  10.943   0.706   2.819 -0.4022  0.0166  0.1221
  461MOL0     N63497  11.041   0.586   2.807  0.2223  0.0331 -0.5880
  461MOL0     C63498  11.080   0.507   2.910 -0.1355  0.0901 -0.1712
  461MOL0     C63499  11.174   0.420   2.858 -0.1142 -0.5023 -0.6427
  461MOL0     C63500  11.252   0.314   2.928  0.2671 -0.6485 -0.4504
  461MOL0     C63501  11.319   0.370   3.056  0.2934 -0.4206 -0.6226
  461MOL0     C63502  11.447   0.442   3.017  0.0599 -0.2431  0.4936
  461MOL0     C63503  11.525   0.482   3.146 -0.4039 -0.4872  0.2352
  461MOL0     O63504  11.663   0.445   3.137 -0.2374 -0.1419  0.5911
  461MOL0     C63505  11.750   0.551   3.140 -0.4493  0.4108  0.0361
  461MOL0     C63506  11.748   0.648   3.240  0.5954 -0.6182  0.4283
  461MOL0     C63507  11.852   0.740   3.246  0.3075 -0.3081 -0.0775
  461MOL0     C63508  11.834   0.855   3.335  0.1051 -0.5054  0.5148
  461MOL0     C63509  11.954   0.732   3.147 -1.0788 -0.2918 -0.5219
  461MOL0     C63510  12.071   0.812   3.150  0.2643 -0.5098 -1.1255
  461MOL0     O63511  12.114   0.825   3.277  0.4018  0.1532 -0.0286
  461MOL0     C63512  12.226   0.896   3.302  0.4294  0.4171 -0.0707
  461MOL0     C63513  12.353   0.834   3.267  0.8397 -0.6342  0.0154
  461MOL0     C63514  12.472   0.894   3.302 -0.2447 -0.4782  0.3726
  461MOL0     C63515  12.468   1.020   3.366 -0.5810  0.6623 -0.1289
  461MOL0     O63516  12.580   1.080   3.406 -0.0178 -0.5029 -0.5978
  461MOL0     C63517  12.673   1.122   3.313  0.1439  0.5164 -0.4292
  461MOL0     C63518  12.632   1.248   3.229 -0.0110  0.3306  0.1926
  461MOL0     C63519  12.739   1.367   3.234 -0.9058  0.6525  0.0070
  461MOL0     C63520  12.867   1.325   3.168 -0.0867 -0.4029  0.4187
  461MOL0     C63521  12.989   1.425   3.189 -0.4269  0.7039  0.2458
  461MOL0     C63522  12.962   1.563   3.120 -0.4487 -0.1917 -0.3320
  461MOL0     C63523  13.072   1.669   3.136 -0.3299 -0.2454  0.9084
  461MOL0     C63524  13.021   1.806   3.096 -0.4269 -0.4606  0.2816
  461MOL0    Cl63525  13.141   1.938   3.103  0.0204 -0.1564 -0.1491
  461MOL0     C63526  12.344   1.082   3.394 -0.4662  0.0660  0.0142
  461MOL0     C63527  12.220   1.020   3.364  0.4470 -0.1856 -0.4272
  461MOL0     O63528  12.128   0.854   3.052  0.9462 -0.0748  0.5065
  461MOL0     C63529  11.949   0.640   3.042  1.1197  0.7677 -0.5090
  461MOL0     C63530  11.853   0.542   3.044  0.2483  0.0596 -0.0248
  461MOL0     N63531  11.176   0.455   2.726 -1.2967  0.3241 -0.3171
  461MOL0     N63532  11.097   0.551   2.690 -0.3034 -0.3590 -0.2362
  461MOL0     C63533   9.830   0.829   2.934  0.2686 -0.3440 -0.0861
  461MOL0     C63534   9.696   0.801   2.972  0.5799 -0.1094  0.0116
  461MOL0     C63535   9.320   0.738   3.182  0.1161 -0.0400  0.2782
  461MOL0     C63536   9.263   0.752   3.306  0.7203  0.6433  0.4791
  461MOL0     C63537   9.136   0.700   3.336  0.4172 -0.4905  0.2667
  461MOL0     C63538   9.058   0.630   3.240 -0.6581 -0.8661  0.1244
  461MOL0     O63539   8.950   0.558   3.269  0.3947  0.1223  0.2491
  461MOL0     C63540   8.881   0.583   3.399 -0.1329  0.8572 -0.0566
  461MOL0     C63541   8.753   0.513   3.396 -0.2209  0.9405 -1.0613
  461MOL0     C63542   8.686   0.518   3.543 -0.6025  0.2516  0.4206
  461MOL0     C63543   8.562   0.434   3.539 -0.0416  0.0821 -0.2107
  461MOL0     C63544   8.593   0.296   3.556 -0.0229  0.3275  0.2241
  461MOL0     C63545   8.634   0.185   3.559  0.0101  1.2256 -0.4623
  461MOL0     C63546   9.120   0.616   3.117  1.0862  0.6973  0.0312
  461MOL0     C63547   9.239   0.674   3.089 -0.0883 -0.0154  0.1905
  461MOL0     C63548   9.288   0.664   2.939  0.1889  0.2447  0.0008
  461MOL0     H63549   9.771   0.628   3.257  0.5904 -0.5425  0.5199
  461MOL0     H63550  10.006   0.682   3.186 -0.9101 -0.0054  1.5418
  461MOL0     H63551  10.049   0.980   2.887 -0.6888 -0.2728  3.2182
  461MOL0     H63552  10.071   0.824   2.787  0.0006  0.3743 -0.2561
  461MOL0     H63553  10.258   1.006   2.807 -2.6413 -0.1054 -2.1037
  461MOL0     H63554  10.281   0.945   2.970  0.5622  0.6070 -0.5545
  461MOL0     H63555  10.320   0.724   2.837  1.1172 -0.0346  1.6018
  461MOL0     H63556  10.299   0.830   2.685  0.9870  0.7063 -0.0484
  461MOL0     H63557  10.502   0.936   2.719 -2.3028  0.8088 -0.0806
  461MOL0     H63558  10.500   0.901   2.898 -0.3494  2.7706 -0.2150
  461MOL0     H63559  10.544   0.713   2.663 -0.6234 -1.1169  0.4717
  461MOL0     H63560  10.557   0.662   2.833  0.4522 -0.5991 -0.7256
  461MOL0     H63561  10.731   0.868   2.695  2.1158 -1.8340 -0.8186
  461MOL0     H63562  10.727   0.827   2.872  2.8613 -0.1818 -0.7379
  461MOL0     H63563  10.830   0.648   2.652  1.4258 -0.7090  0.4373
  461MOL0     H63564  10.777   0.579   2.805  2.7873  1.8671  3.4161
  461MOL0     H63565  10.978   0.799   2.772 -1.6586 -0.3087 -1.5397
  461MOL0     H63566  10.926   0.727   2.925 -0.3531 -1.1412  0.3768
  461MOL0     H63567  11.052   0.502   3.015 -0.6446 -3.1175 -0.3553
  461MOL0     H63568  11.337   0.275   2.872 -1.0541 -2.7423 -1.1014
  461MOL0     H63569  11.181   0.233   2.946 -3.1039  1.7292 -1.8249
  461MOL0     H63570  11.247   0.435   3.107 -1.9213 -0.8457 -2.9914
  461MOL0     H63571  11.347   0.288   3.124 -1.3894 -1.2463 -0.8699
  461MOL0     H63572  11.507   0.375   2.955  0.2020 -1.2346  1.6808
  461MOL0     H63573  11.434   0.534   2.958 -2.1310 -2.6002 -3.1197
  461MOL0     H63574  11.508   0.587   3.170  1.1635 -0.3151  0.7191
  461MOL0     H63575  11.497   0.426   3.235  1.0123  0.4780  1.3269
  461MOL0     H63576  11.671   0.657   3.316  0.1179  2.3144 -0.2537
  461MOL0     H63577  11.877   0.847   3.435  1.4168  1.0610  0.1212
  461MOL0     H63578  11.727   0.877   3.341  0.4332  2.0552 -1.4166
  461MOL0     H63579  11.876   0.947   3.292 -2.2287 -0.0419 -0.9402
  461MOL0     H63580  12.359   0.737   3.218  0.0052 -0.6601 -0.0489
  461MOL0     H63581  12.569   0.848   3.285  0.0973 -1.1351  3.4987
  461MOL0     H63582  12.759   1.164   3.366 -0.3279  1.6871 -0.5590
  461MOL0     H63583  12.707   1.037   3.254 -0.0078  0.5942 -0.6283
  461MOL0     H63584  12.632   1.214   3.125  0.0145  3.9950 -1.1454
  461MOL0     H63585  12.533   1.289   3.251  0.3268  1.5187 -0.4165
  461MOL0     H63586  12.750   1.403   3.337  0.6270  2.2259 -0.6408
  461MOL0     H63587  12.697   1.454   3.181 -1.1739 -0.0209 -0.9159
  461MOL0     H63588  12.832   1.316   3.065 -3.0002 -1.6099  1.3963
  461MOL0     H63589  12.904   1.228   3.202 -0.2307 -0.7208 -0.3219
  461MOL0     H63590  13.016   1.426   3.295 -2.1106 -1.7876  0.7952
  461MOL0     H63591  13.068   1.375   3.133 -0.4512 -2.0697  2.4023
  461MOL0     H63592  12.874   1.606   3.168  0.5178  1.2410  0.2276
  461MOL0     H63593  12.936   1.549   3.015  1.8316  0.1101 -0.9958
  461MOL0     H63594  13.151   1.626   3.074 -1.7794 -0.2793 -1.0246
  461MOL0     H63595  13.117   1.682   3.234  2.0365  1.7862 -0.3329
  461MOL0     H63596  12.931   1.823   3.156  0.1291 -2.3042  1.7338
  461MOL0     H63597  12.992   1.803   2.991 -1.0027 -0.1217  0.4223
  461MOL0     H63598  12.343   1.178   3.444 -1.1983 -0.1268  0.3897
  461MOL0     H63599  12.129   1.065   3.402  1.8900  0.1558  2.9699
  461MOL0     H63600  12.028   0.626   2.968  1.4442 -2.6426  0.3362
  461MOL0     H63601  11.856   0.475   2.960 -0.6987 -0.6946  0.5219
  461MOL0     H63602   9.839   0.876   2.837 -2.2167 -1.4093 -0.9382
  461MOL0     H63603   9.614   0.808   2.901  2.0693 -0.5686 -1.8266
  461MOL0     H63604   9.311   0.792   3.394 -2.0139  0.5684  2.1096
  461MOL0     H63605   9.103   0.715   3.438  0.4127  0.1333  0.1825
  461MOL0     H63606   8.947   0.537   3.472 -0.0841 -0.9085 -1.1442
  461MOL0     H63607   8.866   0.688   3.425  2.9657  0.7531  2.7405
  461MOL0     H63608   8.779   0.409   3.377 -1.7986  0.0515  1.2825
  461MOL0     H63609   8.697   0.549   3.309  0.1378  0.1244 -1.6483
  461MOL0     H63610   8.752   0.486   3.624 -2.6357  1.4316  2.6672
  461MOL0     H63611   8.657   0.619   3.571 -1.7239 -0.4550  1.9433
  461MOL0     H63612   8.501   0.449   3.449 -0.2430  0.3222 -0.0371
  461MOL0     H63613   8.500   0.467   3.623  0.2583  1.7058 -0.5934
  461MOL0     H63614   8.691   0.095   3.565  0.4242  1.5508  0.9637
  461MOL0     H63615   9.063   0.567   3.039  3.2534  0.2029 -1.3417
  461MOL0     H63616   9.260   0.567   2.897  0.7279 -1.2337  2.7884
  461MOL0     H63617   9.240   0.741   2.878  1.1953  1.1226  0.2983
  461MOL0     H63618   9.396   0.676   2.934 -0.0197  1.9777 -0.8925
  462MOL0     O63619   6.790   4.572   5.155 -0.4734 -0.2907  0.6010
  462MOL0     C63620   6.750   4.533   5.263 -1.0977  0.1874  0.6043
  462MOL0     O63621   6.822   4.517   5.376 -0.1897  0.0155 -0.3040
  462MOL0     C63622   6.949   4.566   5.378  0.3476  0.4011  0.0836
  462MOL0     C63623   7.055   4.514   5.304  0.5265  0.2771 -0.1501
  462MOL0     C63624   7.178   4.581   5.306  0.7267  0.5626 -1.1266
  462MOL0     C63625   7.201   4.679   5.396  0.5771 -0.5559 -0.7882
  462MOL0     O63626   7.322   4.742   5.428 -0.0533  0.3379 -0.5153
  462MOL0     C63627   7.393   4.785   5.319 -0.2503 -0.3730  0.1458
  462MOL0     C63628   7.524   4.856   5.348  0.6232  0.4365  0.2917
  462MOL0     C63629   7.510   4.999   5.417 -0.5863 -0.2497 -0.0028
  462MOL0     C63630   7.470   4.996   5.561  0.4976 -0.3816 -0.2167
  462MOL0     C63631   7.417   5.136   5.588  0.9128  0.4886  0.6640
  462MOL0     C63632   7.405   5.136   5.740 -0.7307 -0.6548  0.5412
  462MOL0     C63633   7.362   5.280   5.783  0.2219  0.0171 -0.2500
  462MOL0     C63634   7.368   5.299   5.937  0.6096 -0.3366  1.1342
  462MOL0     N63635   7.312   5.432   5.960 -0.3415 -0.2679 -0.4149
  462MOL0     C63636   7.188   5.482   5.924  0.1728 -0.3908  0.1255
  462MOL0     C63637   7.183   5.604   5.983 -0.2569 -0.1189 -0.4376
  462MOL0     C63638   7.066   5.702   5.973 -0.2248 -0.2802  0.1103
  462MOL0     C63639   7.036   5.783   6.099 -0.1019  0.5352 -0.1371
  462MOL0     C63640   6.939   5.903   6.080  0.5638  0.8287 -0.8742
  462MOL0     C63641   6.796   5.878   6.038 -0.4348 -0.0994 -0.1534
  462MOL0     O63642   6.795   5.838   5.897 -0.1456  0.4423  0.6193
  462MOL0     C63643   6.673   5.837   5.836 -0.2999  0.8210  1.0462
  462MOL0     C63644   6.678   5.804   5.702  0.1739  0.2537 -0.0161
  462MOL0     C63645   6.555   5.786   5.632 -0.5389 -0.2875  0.2208
  462MOL0     C63646   6.557   5.754   5.482  1.3527  0.3458  0.0005
  462MOL0     C63647   6.433   5.799   5.698 -0.0061  0.7254  0.0549
  462MOL0     C63648   6.292   5.772   5.646 -0.6162  0.2399  0.4809
  462MOL0     O63649   6.290   5.693   5.532 -0.0244  0.1032  0.4697
  462MOL0     C63650   6.169   5.653   5.476  0.9620 -0.3178  0.0493
  462MOL0     C63651   6.164   5.515   5.442 -0.2119  0.6209 -0.4380
  462MOL0     C63652   6.043   5.458   5.406  0.2508  0.4032  0.4592
  462MOL0     C63653   5.921   5.538   5.389 -0.1481  0.6057  0.6524
  462MOL0     O63654   5.801   5.487   5.337  0.0374  0.1164 -0.5590
  462MOL0     C63655   5.813   5.371   5.246 -0.0619 -0.8606  0.4025
  462MOL0     C63656   5.677   5.358   5.181 -0.4236  0.0871  0.3586
  462MOL0     C63657   5.666   5.243   5.086  0.3391  0.4432 -0.8318
  462MOL0     C63658   5.539   5.255   5.002  0.9058  0.7681 -0.1498
  462MOL0     C63659   5.508   5.117   4.930  0.0730  0.2496 -0.8645
  462MOL0     C63660   5.394   5.146   4.832 -0.4432  0.4969  0.3589
  462MOL0     C63661   5.377   5.029   4.736 -0.0138  0.0150  0.2951
  462MOL0     C63662   5.293   5.059   4.617  0.5210  0.0632 -0.0040
  462MOL0    Cl63663   5.343   5.198   4.516  0.2748  0.0620 -0.5825
  462MOL0     C63664   5.923   5.674   5.415  0.3300 -0.7224  0.2965
  462MOL0     C63665   6.046   5.729   5.461 -0.1796  0.0138  0.3126
  462MOL0     O63666   6.189   5.816   5.703  0.4204  0.1774 -0.6494
  462MOL0     C63667   6.431   5.835   5.839  0.2673 -0.4138  0.4080
  462MOL0     C63668   6.556   5.849   5.902  0.0721 -0.7375  0.4494
  462MOL0     N63669   7.307   5.632   6.034 -0.3097 -0.0810  0.2781
  462MOL0     N63670   7.387   5.531   6.014 -0.3087 -0.3379 -0.3258
  462MOL0     C63671   7.095   4.725   5.480  0.4347 -1.3793  0.7400
  462MOL0     C63672   6.969   4.669   5.472  0.2673  0.1991  0.3839
  462MOL0     C63673   6.609   4.495   5.286 -0.5137 -0.3117  0.0548
  462MOL0     C63674   6.551   4.489   5.411  0.0488  0.4438  0.7343
  462MOL0     C63675   6.426   4.444   5.441  0.0604 -0.1951 -0.0055
  462MOL0     C63676   6.334   4.427   5.337 -0.1685  0.0996 -0.1843
  462MOL0     O63677   6.210   4.381   5.374 -0.3744  0.2015 -0.0259
  462MOL0     C63678   6.096   4.446   5.307  0.1313  0.3062  0.2098
  462MOL0     C63679   5.967   4.454   5.397 -0.0442 -0.0214  0.5209
  462MOL0     C63680   5.973   4.574   5.483  0.0426 -0.1376  0.4571
  462MOL0     C63681   5.868   4.559   5.591  1.1688 -0.0030 -0.8484
  462MOL0     C63682   5.854   4.679   5.680 -0.0828 -0.4325 -0.4377
  462MOL0     C63683   5.842   4.781   5.745  0.0472  0.0391  0.7998
  462MOL0     C63684   6.377   4.449   5.207 -1.3053 -0.1425  0.2857
  462MOL0     C63685   6.517   4.472   5.181 -0.2868  0.2620  0.3690
  462MOL0     C63686   6.554   4.478   5.042  0.1541  0.1424  0.0391
  462MOL0     H63687   7.036   4.425   5.244  3.4363  0.7283 -1.9824
  462MOL0     H63688   7.260   4.543   5.246 -0.6581 -0.9473 -2.1798
  462MOL0     H63689   7.322   4.852   5.269  0.9810  1.3708  0.6312
  462MOL0     H63690   7.417   4.703   5.251  1.9326  2.0016 -2.1768
  462MOL0     H63691   7.583   4.791   5.413  0.9801  0.2509 -0.2093
  462MOL0     H63692   7.581   4.869   5.256  1.3383  1.3044  0.8393
  462MOL0     H63693   7.606   5.052   5.416 -0.5519 -0.2885  0.8626
  462MOL0     H63694   7.438   5.053   5.354  0.1301  0.2706 -0.3838
  462MOL0     H63695   7.388   4.925   5.578 -0.8033  1.1435  0.1851
  462MOL0     H63696   7.559   4.966   5.616  0.2843 -1.2435 -0.3166
  462MOL0     H63697   7.320   5.154   5.540 -0.5299 -2.5333  2.2031
  462MOL0     H63698   7.487   5.215   5.558  0.5627  0.2940 -0.7273
  462MOL0     H63699   7.331   5.059   5.767 -0.6465 -0.6846  0.6868
  462MOL0     H63700   7.503   5.122   5.786 -1.6470 -1.6980  2.2889
  462MOL0     H63701   7.259   5.289   5.747 -0.8077  1.1292  2.6886
  462MOL0     H63702   7.426   5.356   5.737  2.5730 -2.0483 -0.6119
  462MOL0     H63703   7.309   5.224   5.990  0.5332 -0.3554  1.0229
  462MOL0     H63704   7.474   5.290   5.964  0.8164  0.2385  0.5498
  462MOL0     H63705   7.107   5.435   5.869 -3.2561 -1.9937  5.7511
  462MOL0     H63706   6.984   5.643   5.931  1.4099 -1.3813 -1.7261
  462MOL0     H63707   7.079   5.777   5.894 -1.9256 -0.7871 -0.6947
  462MOL0     H63708   7.005   5.709   6.173  0.5059  0.6860  0.2784
  462MOL0     H63709   7.131   5.822   6.137  0.0499 -0.0260  0.0580
  462MOL0     H63710   6.939   5.943   6.182 -2.4167 -2.2109  0.5353
  462MOL0     H63711   6.974   5.983   6.015 -2.5733  3.7854  0.7308
  462MOL0     H63712   6.750   5.799   6.097 -0.9104  1.5500  1.7879
  462MOL0     H63713   6.738   5.969   6.056  1.5383  1.3870 -0.9879
  462MOL0     H63714   6.770   5.779   5.650 -1.6141 -0.8371 -2.8836
  462MOL0     H63715   6.526   5.652   5.457 -0.8245  0.3233  2.3935
  462MOL0     H63716   6.660   5.775   5.452  1.1517  1.0057 -0.2539
  462MOL0     H63717   6.490   5.827   5.435 -0.1211  0.4536  2.1044
  462MOL0     H63718   6.248   5.447   5.448 -1.6891 -1.3317 -0.8571
  462MOL0     H63719   6.038   5.353   5.378  2.6474  0.5501 -0.8312
  462MOL0     H63720   5.889   5.396   5.171 -0.7668  1.2491  0.3229
  462MOL0     H63721   5.830   5.276   5.297  0.0767 -0.9387  0.2121
  462MOL0     H63722   5.603   5.349   5.261 -0.4282  2.3590  0.6689
  462MOL0     H63723   5.649   5.451   5.131  4.5358  2.2408  1.0039
  462MOL0     H63724   5.657   5.153   5.148 -1.5725  1.6725  0.7607
  462MOL0     H63725   5.757   5.225   5.028  0.9329  1.5989 -0.2883
  462MOL0     H63726   5.555   5.335   4.930  0.1575  0.2759 -0.8864
  462MOL0     H63727   5.442   5.270   5.050  0.0878  1.8109 -2.0425
  462MOL0     H63728   5.592   5.088   4.867 -0.2232  0.0480 -1.1749
  462MOL0     H63729   5.487   5.036   5.000  3.0324 -0.4889 -0.7035
  462MOL0     H63730   5.413   5.238   4.776 -0.6811  0.6323  0.5016
  462MOL0     H63731   5.299   5.159   4.884 -0.3546 -1.7475  1.1695
  462MOL0     H63732   5.326   4.946   4.786  0.1574  0.7102  1.6596
  462MOL0     H63733   5.472   5.002   4.690 -0.1197 -0.4338  0.3342
  462MOL0     H63734   5.188   5.079   4.642  0.3950  2.8792 -2.3267
  462MOL0     H63735   5.291   4.968   4.556 -0.6661  0.3352 -0.4177
  462MOL0     H63736   5.828   5.725   5.406  0.0497 -1.2193  0.3696
  462MOL0     H63737   6.036   5.833   5.490  0.2301  0.0707  0.2570
  462MOL0     H63738   6.339   5.840   5.895 -0.4044 -1.8028 -0.5282
  462MOL0     H63739   6.544   5.885   6.003  0.6864  0.6264  0.0537
  462MOL0     H63740   7.112   4.805   5.551 -1.0333  1.6429 -2.0632
  462MOL0     H63741   6.883   4.696   5.533  0.2107  2.9531 -0.7481
  462MOL0     H63742   6.613   4.482   5.500  2.0031 -4.9150 -0.6530
  462MOL0     H63743   6.400   4.429   5.545  0.7195  1.6505  0.4707
  462MOL0     H63744   6.118   4.548   5.273  0.4726  0.2942  0.3897
  462MOL0     H63745   6.062   4.393   5.218 -2.7177  1.6086  0.4389
  462MOL0     H63746   5.956   4.361   5.454 -0.9772 -1.1513 -1.4266
  462MOL0     H63747   5.882   4.469   5.331 -0.3945  1.4146  1.2565
  462MOL0     H63748   6.067   4.584   5.538 -0.2611  0.6058  0.8542
  462MOL0     H63749   5.952   4.662   5.422 -0.2368 -1.3257 -1.2368
  462MOL0     H63750   5.891   4.469   5.650  0.2852 -0.1776 -0.7480
  462MOL0     H63751   5.772   4.528   5.547 -0.3473  2.4779  0.4984
  462MOL0     H63752   5.858   4.858   5.818  0.5667 -0.3537  1.1132
  462MOL0     H63753   6.298   4.431   5.135 -0.5847  0.0102 -0.5490
  462MOL0     H63754   6.478   4.447   4.970 -0.9367  4.0601 -0.6840
  462MOL0     H63755   6.570   4.585   5.031  0.1356  0.1259 -0.1560
  462MOL0     H63756   6.652   4.429   5.029  0.9835  1.1902  1.9400
  463MOL0     O63757   1.482   6.150  11.036 -0.5212 -0.4690 -0.1364
  463MOL0     C63758   1.388   6.162  11.112  0.6704 -0.0156  0.5645
  463MOL0     O63759   1.401   6.165  11.246  0.2790 -0.1755  0.0606
  463MOL0     C63760   1.513   6.185  11.321 -0.2391  0.4453 -0.3430
  463MOL0     C63761   1.515   6.129  11.450 -0.4239 -0.4579  0.6373
  463MOL0     C63762   1.630   6.140  11.527 -0.8415 -0.4414  0.1505
  463MOL0     C63763   1.743   6.203  11.490  0.5536 -0.4648  0.8767
  463MOL0     O63764   1.850   6.197  11.574  0.1536  0.5157  0.3656
  463MOL0     C63765   1.985   6.233  11.535  0.2125 -0.0837 -0.2186
  463MOL0     C63766   2.008   6.379  11.563  0.6920  0.6636  0.9438
  463MOL0     C63767   2.162   6.399  11.548 -0.2681 -0.0231  0.9314
  463MOL0     C63768   2.189   6.557  11.557 -0.8786  0.1020  0.0473
  463MOL0     C63769   2.337   6.588  11.587  0.2337 -0.3761  0.4998
  463MOL0     C63770   2.432   6.553  11.470  0.8786  0.1717 -0.7226
  463MOL0     C63771   2.572   6.609  11.483  0.1195  0.0062 -0.0034
  463MOL0     C63772   2.564   6.756  11.440 -0.4396  0.1186 -0.5337
  463MOL0     N63773   2.703   6.808  11.445 -0.0385 -0.3173 -0.1239
  463MOL0     C63774   2.734   6.933  11.404 -0.9484 -0.1695 -0.5355
  463MOL0     C63775   2.865   6.939  11.405 -0.3109  0.1414 -0.7476
  463MOL0     C63776   2.950   7.055  11.372 -0.2820  0.3286  0.0254
  463MOL0     C63777   2.992   7.128  11.502 -0.6020 -0.2144  0.4325
  463MOL0     C63778   3.118   7.213  11.459 -0.1642  1.2753 -1.0750
  463MOL0     C63779   3.256   7.151  11.435  0.2019  0.0678  0.1441
  463MOL0     O63780   3.370   7.228  11.481 -0.9185 -0.2520 -0.6153
  463MOL0     C63781   3.498   7.195  11.438  0.6804  0.1177 -0.5777
  463MOL0     C63782   3.520   7.066  11.390 -0.3577  0.3534 -0.4186
  463MOL0     C63783   3.645   7.019  11.342  1.5182 -0.5505  0.6329
  463MOL0     C63784   3.659   6.879  11.298 -0.5768 -0.2549 -0.4929
  463MOL0     C63785   3.750   7.118  11.353  0.2405  0.8555 -0.1252
  463MOL0     C63786   3.888   7.095  11.306  0.2763  0.2350  0.1783
  463MOL0     O63787   3.977   7.192  11.324 -0.0305  0.0935  0.6206
  463MOL0     C63788   4.096   7.202  11.254  0.4095  1.0205  0.1131
  463MOL0     C63789   4.193   7.269  11.328 -0.0972 -1.2609 -0.5246
  463MOL0     C63790   4.322   7.288  11.268 -0.0986  0.7614 -0.3337
  463MOL0     C63791   4.351   7.254  11.135  0.1913  0.1122  0.1484
  463MOL0     O63792   4.481   7.265  11.101  0.4438  0.4547 -0.0408
  463MOL0     C63793   4.512   7.191  10.983 -1.0233 -0.1134 -0.2266
  463MOL0     C63794   4.668   7.197  10.958  0.4781 -0.2010  0.4633
  463MOL0     C63795   4.698   7.107  10.835  0.5838  0.2607  0.2899
  463MOL0     C63796   4.843   7.123  10.787 -0.1558  0.1178 -0.3429
  463MOL0     C63797   4.868   7.039  10.664  0.0320 -0.1508  0.7128
  463MOL0     C63798   4.787   7.083  10.545  0.1793 -0.5933  0.8190
  463MOL0     C63799   4.846   7.037  10.413 -0.5372 -0.0741 -0.4501
  463MOL0     C63800   4.763   7.090  10.296 -0.3967 -0.7462  0.5296
  463MOL0    Cl63801   4.840   7.045  10.145 -0.1671  0.6737 -0.3789
  463MOL0     C63802   4.248   7.204  11.061 -0.1191  0.3344  0.2409
  463MOL0     C63803   4.122   7.169  11.117 -1.5079 -0.6223  0.5618
  463MOL0     O63804   3.909   6.989  11.242 -0.3678 -0.1746 -0.4795
  463MOL0     C63805   3.726   7.246  11.411 -0.3004  0.2870 -0.3068
  463MOL0     C63806   3.600   7.285  11.445  0.8261  0.7759 -0.5179
  463MOL0     N63807   2.914   6.819  11.451 -0.0561 -0.0832  0.1953
  463MOL0     N63808   2.814   6.735  11.472 -0.2418 -0.3177  0.0308
  463MOL0     C63809   1.737   6.262  11.362 -0.8590 -0.0858 -0.3908
  463MOL0     C63810   1.627   6.247  11.277  0.4006 -0.4789 -0.3727
  463MOL0     C63811   1.257   6.194  11.067  0.5808 -0.1717  0.0952
  463MOL0     C63812   1.191   6.297  11.130  0.2791 -0.2471  0.4391
  463MOL0     C63813   1.068   6.339  11.097  1.1162 -0.0573  0.6488
  463MOL0     C63814   0.990   6.267  10.990 -0.0335 -0.0255 -1.3267
  463MOL0     O63815   0.868   6.305  10.940 -0.1457 -0.3731  0.9114
  463MOL0     C63816   0.837   6.446  10.931  0.0768 -0.3446 -0.4327
  463MOL0     C63817   0.733   6.474  10.824  0.7436  0.4155  0.2203
  463MOL0     C63818   0.598   6.436  10.874  0.5100  0.1146 -0.1503
  463MOL0     C63819   0.487   6.487  10.790 -0.4678 -0.1794 -0.1988
  463MOL0     C63820   0.495   6.631  10.793  0.2504  0.9920 -0.1536
  463MOL0     C63821   0.516   6.752  10.798  0.5623  0.2257  0.0133
  463MOL0     C63822   1.061   6.176  10.918  0.7123 -0.1709 -0.6833
  463MOL0     C63823   1.193   6.135  10.947 -0.6196 -0.2688 -0.7444
  463MOL0     C63824   1.262   6.018  10.869  0.2012  0.3795  0.0970
  463MOL0     H63825   1.434   6.063  11.478 -1.1049  0.9722  2.1868
  463MOL0     H63826   1.645   6.101  11.627  1.4014  1.4953  0.6685
  463MOL0     H63827   2.010   6.208  11.431  2.0651  1.2298 -0.1454
  463MOL0     H63828   2.047   6.164  11.592 -1.4309 -2.6603 -1.3660
  463MOL0     H63829   1.949   6.428  11.485 -0.1558  1.3056  1.9772
  463MOL0     H63830   1.971   6.410  11.661 -1.5207 -0.2763  0.4670
  463MOL0     H63831   2.212   6.345  11.629 -2.8418  1.3494  3.6318
  463MOL0     H63832   2.205   6.369  11.452 -0.7379  1.3635  0.2624
  463MOL0     H63833   2.168   6.614  11.466 -0.6520  2.0211  1.1430
  463MOL0     H63834   2.127   6.603  11.635  0.3799  2.6200 -0.3610
  463MOL0     H63835   2.368   6.552  11.685 -0.0155  1.3766  1.2751
  463MOL0     H63836   2.333   6.695  11.613 -2.3667  0.2954 -2.1089
  463MOL0     H63837   2.444   6.444  11.469 -0.5907 -0.0053 -1.7540
  463MOL0     H63838   2.388   6.576  11.373  1.7328  1.5492 -0.8057
  463MOL0     H63839   2.637   6.555  11.414  0.1770  2.0436 -1.6585
  463MOL0     H63840   2.615   6.588  11.581 -2.4209 -0.9791  0.9891
  463MOL0     H63841   2.517   6.762  11.342  1.1032 -2.8069 -1.5647
  463MOL0     H63842   2.506   6.815  11.512  0.2883 -1.0900  1.1305
  463MOL0     H63843   2.674   7.019  11.375 -1.5754  0.1822  1.5953
  463MOL0     H63844   2.897   7.133  11.316 -2.8883 -0.1820  1.6385
  463MOL0     H63845   3.032   7.013  11.312 -1.7176 -4.4559  1.0212
  463MOL0     H63846   2.918   7.199  11.540 -1.4521  1.8974 -4.4045
  463MOL0     H63847   3.025   7.059  11.580 -0.9465 -1.0823 -0.1735
  463MOL0     H63848   3.091   7.288  11.384 -1.8656  1.7199 -0.0617
  463MOL0     H63849   3.124   7.275  11.549  0.6122  1.6360 -1.3735
  463MOL0     H63850   3.262   7.063  11.499  0.3103  0.2937  0.4441
  463MOL0     H63851   3.260   7.131  11.327  0.7920  0.3633  0.1078
  463MOL0     H63852   3.439   6.995  11.390  0.3869 -0.6605  2.7243
  463MOL0     H63853   3.564   6.829  11.320  0.1416 -0.7821  1.6876
  463MOL0     H63854   3.738   6.835  11.360 -0.3734 -1.5509 -1.6350
  463MOL0     H63855   3.687   6.871  11.193  0.0191  2.6503 -0.6427
  463MOL0     H63856   4.175   7.292  11.432 -1.9442  0.5856 -1.1907
  463MOL0     H63857   4.402   7.333  11.326 -0.2875  0.9690 -0.2297
  463MOL0     H63858   4.480   7.086  10.989 -0.6450 -0.4084 -2.4065
  463MOL0     H63859   4.466   7.250  10.903  1.2720  2.7238  0.4299
  463MOL0     H63860   4.691   7.301  10.934  0.4042 -0.6718 -1.8550
  463MOL0     H63861   4.726   7.162  11.044 -1.8440  3.0567  3.6320
  463MOL0     H63862   4.633   7.145  10.755  0.6831  1.7494  0.8889
  463MOL0     H63863   4.669   7.002  10.845  3.7562 -1.0419 -2.3068
  463MOL0     H63864   4.902   7.094  10.875 -0.9799 -0.8614 -0.0924
  463MOL0     H63865   4.862   7.229  10.766 -4.1095  1.1298  0.4826
  463MOL0     H63866   4.974   7.050  10.641 -0.1618  0.9868  0.3236
  463MOL0     H63867   4.852   6.934  10.690  0.2584 -0.3212  0.1946
  463MOL0     H63868   4.781   7.192  10.530  2.3159 -0.7912 -2.5580
  463MOL0     H63869   4.685   7.044  10.553  0.0872 -1.4547 -2.7879
  463MOL0     H63870   4.854   6.928  10.415  1.7113  0.0167  2.4528
  463MOL0     H63871   4.944   7.083  10.400 -2.3086  3.7253 -1.9432
  463MOL0     H63872   4.749   7.199  10.298 -0.4525 -0.6773 -1.6782
  463MOL0     H63873   4.664   7.046  10.302 -1.3987  1.2495 -0.3367
  463MOL0     H63874   4.262   7.194  10.953  2.7935  3.1897  0.1786
  463MOL0     H63875   4.041   7.125  11.059 -1.2340  0.0660 -0.3622
  463MOL0     H63876   3.814   7.309  11.424  0.3665 -0.2060 -2.1492
  463MOL0     H63877   3.593   7.389  11.475  3.3736  0.9559 -0.3622
  463MOL0     H63878   1.830   6.313  11.337  0.2570 -1.5073  0.7100
  463MOL0     H63879   1.631   6.289  11.177 -0.1645  0.0021 -0.1999
  463MOL0     H63880   1.241   6.349  11.211  0.9425 -1.7050  1.0042
  463MOL0     H63881   1.022   6.425  11.144  6.3088  2.1628  2.3414
  463MOL0     H63882   0.809   6.486  11.029 -1.4394  0.7323 -1.2619
  463MOL0     H63883   0.930   6.493  10.899  0.4581 -2.0670 -2.0542
  463MOL0     H63884   0.756   6.408  10.740  1.7637  1.8283 -0.6637
  463MOL0     H63885   0.759   6.574  10.788  1.9205 -0.6418 -2.0687
  463MOL0     H63886   0.593   6.327  10.877  1.4947  0.0484 -0.3454
  463MOL0     H63887   0.578   6.478  10.973 -1.7443  0.6045 -0.7680
  463MOL0     H63888   0.393   6.463  10.840 -0.3759  0.2687  0.1896
  463MOL0     H63889   0.490   6.439  10.691  3.2231  0.4415 -0.5270
  463MOL0     H63890   0.518   6.859  10.805  0.3788  0.1164  3.1224
  463MOL0     H63891   1.009   6.133  10.833  0.4489 -1.3442  0.0429
  463MOL0     H63892   1.253   5.923  10.923 -0.6414 -1.8447 -3.6125
  463MOL0     H63893   1.214   6.008  10.771 -0.3036  0.0136  0.3776
  463MOL0     H63894   1.371   6.032  10.865  0.0667  1.4827 -0.0982
  464MOL0     O63895   9.203   1.151   1.236 -0.0336 -0.2005  0.2916
  464MOL0     C63896   9.280   1.065   1.256 -0.0524  0.2147 -0.4763
  464MOL0     O63897   9.412   1.075   1.245 -0.4474  0.0789  0.4069
  464MOL0     C63898   9.480   1.199   1.234 -0.0778 -0.6061 -0.5348
  464MOL0     C63899   9.613   1.186   1.206 -0.0094 -0.0953  0.2079
  464MOL0     C63900   9.696   1.295   1.186 -0.0357 -0.9320  0.4812
  464MOL0     C63901   9.640   1.428   1.190  0.0873  0.2350  0.5713
  464MOL0     O63902   9.719   1.538   1.163 -0.5203 -0.1554  0.0710
  464MOL0     C63903   9.853   1.545   1.220  0.0954 -0.6308  0.1338
  464MOL0     C63904   9.948   1.602   1.109  0.9569  1.5089 -0.3167
  464MOL0     C63905  10.094   1.599   1.141 -0.4438  0.4233  0.3626
  464MOL0     C63906  10.172   1.693   1.045 -0.2539  0.7289  0.5571
  464MOL0     C63907  10.317   1.741   1.077 -0.2595  0.9184  1.0374
  464MOL0     C63908  10.340   1.775   1.229  0.3992 -0.3203  0.2006
  464MOL0     C63909  10.477   1.844   1.251 -0.3306 -0.2364  0.3461
  464MOL0     C63910  10.481   1.894   1.392 -0.5646 -0.3462  0.1126
  464MOL0     N63911  10.610   1.955   1.426  0.3950  0.3539  0.4763
  464MOL0     C63912  10.738   1.898   1.431  0.3279  0.2043  0.6823
  464MOL0     C63913  10.821   1.992   1.479  0.1640  0.2354  0.3778
  464MOL0     C63914  10.970   1.995   1.493  0.2763  0.2225 -0.4315
  464MOL0     C63915  11.052   1.863   1.506  0.9465  0.2561 -0.1399
  464MOL0     C63916  11.199   1.901   1.512  0.0279  0.8934 -0.6600
  464MOL0     C63917  11.269   1.772   1.549  0.0520  0.1379 -0.3358
  464MOL0     O63918  11.415   1.800   1.548  0.0754  0.1998 -0.5795
  464MOL0     C63919  11.493   1.751   1.651 -0.7544  0.1420 -0.2998
  464MOL0     C63920  11.626   1.772   1.631  0.4268  0.3400  0.1342
  464MOL0     C63921  11.722   1.755   1.732 -0.6391  0.2479  0.0900
  464MOL0     C63922  11.863   1.787   1.691 -0.4776 -0.7942 -0.3292
  464MOL0     C63923  11.687   1.718   1.864 -0.1272  0.3055  0.0040
  464MOL0     C63924  11.787   1.709   1.979 -0.7410  0.1354 -0.9891
  464MOL0     O63925  11.924   1.732   1.958 -0.5271 -0.2109  0.1050
  464MOL0     C63926  12.018   1.703   2.055  0.4610  0.2700  0.0553
  464MOL0     C63927  12.009   1.575   2.123  0.5565 -0.4622 -0.2542
  464MOL0     C63928  12.098   1.549   2.220 -0.6025  0.4245 -0.1437
  464MOL0     C63929  12.185   1.652   2.266 -0.3055  0.4308 -0.1400
  464MOL0     O63930  12.280   1.614   2.356 -0.7511  0.1666  0.0904
  464MOL0     C63931  12.327   1.719   2.444 -0.0706  0.5763 -0.0801
  464MOL0     C63932  12.426   1.656   2.552 -0.0455 -0.2518  0.6055
  464MOL0     C63933  12.560   1.616   2.497  0.1899  0.8944  0.7903
  464MOL0     C63934  12.570   1.565   2.346  0.0372 -0.0738 -0.5958
  464MOL0     C63935  12.715   1.526   2.303  0.1408 -0.5462  1.0687
  464MOL0     C63936  12.709   1.449   2.167 -0.0544 -0.6735  0.4742
  464MOL0     C63937  12.843   1.412   2.109  0.4013  0.1487 -0.2410
  464MOL0     C63938  12.921   1.536   2.044 -1.7410  0.5536  0.2353
  464MOL0    Cl63939  13.081   1.533   1.969 -0.3622  0.4154 -0.1795
  464MOL0     C63940  12.193   1.767   2.198  0.0276  0.2565 -0.2622
  464MOL0     C63941  12.112   1.798   2.090 -0.0820 -0.0822 -0.0157
  464MOL0     O63942  11.738   1.671   2.084 -0.0839  0.1114 -0.7202
  464MOL0     C63943  11.549   1.688   1.885 -0.3019 -0.8816 -0.3828
  464MOL0     C63944  11.453   1.702   1.779 -1.2738  0.1955  0.5030
  464MOL0     N63945  10.741   2.094   1.518  0.0065 -0.0924  0.0974
  464MOL0     N63946  10.621   2.069   1.483 -0.6370 -0.1611 -0.9031
  464MOL0     C63947   9.509   1.445   1.230  0.5422 -0.4446 -0.6396
  464MOL0     C63948   9.424   1.331   1.253 -0.4788 -0.2844  0.2915
  464MOL0     C63949   9.216   0.934   1.269  0.4118  0.1507  0.1072
  464MOL0     C63950   9.291   0.828   1.242 -0.3049  0.2479  0.0401
  464MOL0     C63951   9.258   0.698   1.258  0.2040  0.2616 -0.9324
  464MOL0     C63952   9.128   0.671   1.294 -0.4102  0.4539  0.2525
  464MOL0     O63953   9.090   0.540   1.307  0.0373 -0.3165 -0.3353
  464MOL0     C63954   8.962   0.506   1.357 -0.2441  0.0489  0.4778
  464MOL0     C63955   8.928   0.368   1.312 -0.0775  0.1814 -0.0133
  464MOL0     C63956   8.798   0.316   1.363 -0.1202  0.0040  0.1878
  464MOL0     C63957   8.791   0.275   1.515 -0.1357 -0.8097 -0.1912
  464MOL0     C63958   8.869   0.159   1.540 -0.3220  0.9327  0.4302
  464MOL0     C63959   8.943   0.061   1.563 -0.4867 -0.9074 -0.0241
  464MOL0     C63960   9.040   0.776   1.317 -0.2098  0.3687 -0.2559
  464MOL0     C63961   9.085   0.909   1.309  0.0470 -0.0248  0.1688
  464MOL0     C63962   8.992   1.020   1.356  0.5653 -0.9661 -0.6264
  464MOL0     H63963   9.651   1.085   1.194  0.7130  0.1931  0.0319
  464MOL0     H63964   9.799   1.285   1.152 -0.2351  1.2663 -0.9981
  464MOL0     H63965   9.898   1.449   1.248 -1.0709 -0.5575  2.4655
  464MOL0     H63966   9.857   1.608   1.310 -1.6878 -1.5173  0.8676
  464MOL0     H63967   9.930   1.533   1.026 -1.3003 -1.2857  2.2582
  464MOL0     H63968   9.919   1.700   1.069  0.1415  1.2543 -0.3586
  464MOL0     H63969  10.113   1.651   1.235 -1.0707  1.0320  0.1547
  464MOL0     H63970  10.131   1.497   1.157  1.2680  1.2397  1.9691
  464MOL0     H63971  10.173   1.642   0.948 -1.4415 -0.8557  1.3256
  464MOL0     H63972  10.122   1.790   1.035  2.6942  2.3525  0.3939
  464MOL0     H63973  10.331   1.829   1.013 -1.8315 -0.2243 -0.9874
  464MOL0     H63974  10.383   1.658   1.048 -1.8545 -0.1866  0.4592
  464MOL0     H63975  10.271   1.853   1.263 -0.4326 -1.5381  1.4161
  464MOL0     H63976  10.330   1.683   1.287  0.8492 -0.1558  0.5459
  464MOL0     H63977  10.491   1.931   1.186  4.3739 -1.2519 -0.4108
  464MOL0     H63978  10.562   1.777   1.233  0.2168  0.1814  1.3028
  464MOL0     H63979  10.399   1.962   1.416  1.1086  2.0114 -0.4619
  464MOL0     H63980  10.463   1.803   1.449 -0.9915 -2.1958 -2.7663
  464MOL0     H63981  10.765   1.804   1.384 -0.9022  0.0274  0.2837
  464MOL0     H63982  10.988   2.063   1.577  0.6086 -1.5538  0.9918
  464MOL0     H63983  11.007   2.037   1.399 -0.2049  0.9184 -0.3128
  464MOL0     H63984  11.012   1.811   1.594  2.1354  1.1059  0.9352
  464MOL0     H63985  11.039   1.792   1.425  3.9747 -1.0726  0.4066
  464MOL0     H63986  11.224   1.933   1.410 -0.2092  0.0719 -0.9827
  464MOL0     H63987  11.230   1.977   1.585  0.8838 -0.2753  0.2450
  464MOL0     H63988  11.224   1.728   1.638 -0.2977 -1.7071 -1.3695
  464MOL0     H63989  11.254   1.695   1.473  1.3590 -1.8448  1.3158
  464MOL0     H63990  11.661   1.800   1.532  1.1135  1.1697  0.6014
  464MOL0     H63991  11.876   1.795   1.583 -0.5383  0.3579 -0.2690
  464MOL0     H63992  11.916   1.698   1.725 -1.7665 -0.8120  1.8405
  464MOL0     H63993  11.895   1.874   1.750 -3.4880 -1.0217  1.8630
  464MOL0     H63994  11.933   1.502   2.093  0.0328 -1.0223  2.2241
  464MOL0     H63995  12.106   1.447   2.255  1.0120  0.6620  0.2556
  464MOL0     H63996  12.399   1.782   2.391  0.3036  1.3044  1.2745
  464MOL0     H63997  12.248   1.770   2.500  1.3273 -0.8016  3.4166
  464MOL0     H63998  12.443   1.720   2.639  3.1766  0.1667 -0.2133
  464MOL0     H63999  12.371   1.566   2.580 -1.2320 -0.2744 -1.5846
  464MOL0     H64000  12.593   1.524   2.546 -1.2485 -0.3971 -0.5725
  464MOL0     H64001  12.629   1.698   2.520  0.5335  0.7903  0.1511
  464MOL0     H64002  12.526   1.639   2.278 -0.1568  3.7431  3.2317
  464MOL0     H64003  12.501   1.482   2.332  1.5415 -1.3224 -0.8359
  464MOL0     H64004  12.773   1.617   2.282 -0.3391 -0.4635  0.0233
  464MOL0     H64005  12.773   1.467   2.374 -0.5054 -2.0452  0.3884
  464MOL0     H64006  12.646   1.498   2.093  2.4105  3.2568  0.6746
  464MOL0     H64007  12.667   1.352   2.196  1.4885 -0.9778  1.8398
  464MOL0     H64008  12.831   1.328   2.040  0.5146  0.4049 -0.5723
  464MOL0     H64009  12.922   1.377   2.176  1.1283 -2.9002 -2.4885
  464MOL0     H64010  12.924   1.623   2.110  1.1942  1.3238 -0.7686
  464MOL0     H64011  12.856   1.549   1.957  1.8929 -1.1727 -3.0778
  464MOL0     H64012  12.279   1.831   2.213 -0.9079  1.2391  1.1840
  464MOL0     H64013  12.133   1.887   2.031  5.1534 -2.1532 -1.8791
  464MOL0     H64014  11.518   1.665   1.986 -0.4428  0.5927 -0.0579
  464MOL0     H64015  11.349   1.675   1.795 -0.8878 -2.5628 -1.0286
  464MOL0     H64016   9.463   1.542   1.247 -0.3785 -0.9281 -0.2547
  464MOL0     H64017   9.322   1.347   1.286  0.2738  2.4217  1.5692
  464MOL0     H64018   9.393   0.845   1.210  0.2516 -2.8337 -0.1134
  464MOL0     H64019   9.327   0.616   1.248 -0.6587 -0.4859 -0.8357
  464MOL0     H64020   8.966   0.538   1.461  0.2244  1.9929 -0.0896
  464MOL0     H64021   8.881   0.567   1.315 -0.0659  0.2285  0.3893
  464MOL0     H64022   9.009   0.300   1.338  0.5099  0.3296 -1.4047
  464MOL0     H64023   8.912   0.376   1.204  0.0210  1.3582  0.0508
  464MOL0     H64024   8.721   0.388   1.334  1.6240  1.0750 -2.0702
  464MOL0     H64025   8.762   0.226   1.311 -0.6229  0.5211 -0.3698
  464MOL0     H64026   8.685   0.259   1.539  0.0645 -0.6350  0.8519
  464MOL0     H64027   8.823   0.353   1.584 -3.6031  1.2772 -0.6948
  464MOL0     H64028   9.017  -0.016   1.569 -1.9665 -2.5891 -2.0407
  464MOL0     H64029   8.933   0.773   1.334 -0.0802 -1.0037  0.4931
  464MOL0     H64030   8.964   1.079   1.268  3.5111 -2.1067 -2.4950
  464MOL0     H64031   8.908   0.968   1.403 -0.6205  0.4745 -1.0763
  464MOL0     H64032   9.032   1.088   1.432  0.3442  0.1295 -1.4743
  465MOL0     O64033   8.915   3.624   7.016  0.5131 -0.0067 -0.2911
  465MOL0     C64034   8.831   3.535   6.991 -0.1852 -0.3247  0.2589
  465MOL0     O64035   8.856   3.404   7.005  0.2491 -0.1554  0.3190
  465MOL0     C64036   8.977   3.354   7.045  0.6419 -0.8486  0.5189
  465MOL0     C64037   8.978   3.273   7.156  0.4657 -0.1982 -0.8292
  465MOL0     C64038   9.096   3.229   7.217  0.3442  0.2555 -0.3467
  465MOL0     C64039   9.217   3.266   7.169  0.3009  0.5347  0.8096
  465MOL0     O64040   9.322   3.221   7.247 -0.2126 -0.0881  0.1044
  465MOL0     C64041   9.451   3.283   7.221  0.1519  0.1946 -0.0531
  465MOL0     C64042   9.535   3.259   7.344  0.8356  0.8784  0.3257
  465MOL0     C64043   9.679   3.294   7.309  0.1538  0.1037  0.7237
  465MOL0     C64044   9.765   3.240   7.421 -0.6319  1.2535  0.2506
  465MOL0     C64045   9.912   3.268   7.385 -0.0811 -0.7451  0.0573
  465MOL0     C64046  10.007   3.262   7.500  0.5674 -0.1723  0.7404
  465MOL0     C64047  10.143   3.319   7.452 -0.6451  0.0344 -0.6917
  465MOL0     C64048  10.238   3.299   7.570 -1.0918 -0.3984 -0.2652
  465MOL0     N64049  10.376   3.332   7.532 -0.0702 -1.2759  0.6066
  465MOL0     C64050  10.429   3.452   7.523 -0.1311  0.3743 -0.3205
  465MOL0     C64051  10.545   3.442   7.465 -0.2649  0.6429  0.5622
  465MOL0     C64052  10.639   3.565   7.437  0.7170 -0.2636 -0.0363
  465MOL0     C64053  10.785   3.515   7.433 -0.3733  0.5360  0.4542
  465MOL0     C64054  10.863   3.536   7.561 -0.2942 -0.0214 -0.5002
  465MOL0     C64055  11.007   3.492   7.559 -0.5451 -0.9042  0.4021
  465MOL0     O64056  11.068   3.575   7.462 -0.4687 -0.5245  0.2158
  465MOL0     C64057  11.208   3.587   7.472  0.4164 -0.1183  0.3720
  465MOL0     C64058  11.268   3.709   7.432 -0.4592  0.2262  0.0440
  465MOL0     C64059  11.401   3.734   7.431 -0.1514 -0.1415 -0.0138
  465MOL0     C64060  11.453   3.875   7.397 -0.1425  0.0555 -0.5442
  465MOL0     C64061  11.485   3.631   7.469 -0.1709 -0.2971 -0.3023
  465MOL0     C64062  11.632   3.644   7.480 -0.0680  0.4418 -0.2865
  465MOL0     O64063  11.701   3.659   7.360  0.4068 -0.1132  0.6202
  465MOL0     C64064  11.679   3.565   7.263  0.3949  0.0930  0.1972
  465MOL0     C64065  11.614   3.587   7.143  0.9408 -1.2229 -0.5611
  465MOL0     C64066  11.591   3.481   7.053  0.5577 -0.3617  0.9072
  465MOL0     C64067  11.636   3.353   7.078  1.2803  0.0395 -0.1589
  465MOL0     O64068  11.611   3.249   6.996 -0.2127 -0.7297 -0.2648
  465MOL0     C64069  11.586   3.277   6.858 -0.8179  0.2709 -0.2694
  465MOL0     C64070  11.596   3.150   6.772 -0.4020 -1.1338  0.2617
  465MOL0     C64071  11.469   3.066   6.790  0.5071  0.0234  0.3073
  465MOL0     C64072  11.479   2.928   6.723  0.3463 -0.6811  0.1713
  465MOL0     C64073  11.354   2.886   6.652  0.4865  0.5225  0.2379
  465MOL0     C64074  11.356   2.936   6.513 -0.1529 -1.1065 -0.8159
  465MOL0     C64075  11.235   2.888   6.435 -0.0937 -0.1576 -0.0981
  465MOL0     C64076  11.267   2.877   6.283  0.8798 -0.6764 -0.2592
  465MOL0    Cl64077  11.382   2.745   6.245  0.1257  0.1378  0.2232
  465MOL0     C64078  11.701   3.336   7.194  0.5940 -0.2435  0.0361
  465MOL0     C64079  11.723   3.435   7.282 -0.2681  0.3590  0.7402
  465MOL0     O64080  11.685   3.627   7.592  0.2454  0.1710 -0.2570
  465MOL0     C64081  11.430   3.512   7.521  0.1866  0.8048  0.2119
  465MOL0     C64082  11.294   3.482   7.511  0.1321  0.7013 -0.2029
  465MOL0     N64083  10.565   3.302   7.444  0.4767 -0.2255  0.7555
  465MOL0     N64084  10.463   3.242   7.484  0.1927 -0.3394  0.1659
  465MOL0     C64085   9.221   3.349   7.053 -0.1318  0.3092  0.7811
  465MOL0     C64086   9.105   3.395   6.997 -0.5563 -0.3415  0.5941
  465MOL0     C64087   8.705   3.574   6.923 -0.0147  0.1812 -0.4112
  465MOL0     C64088   8.679   3.716   6.918 -0.3513 -0.8355  0.5089
  465MOL0     C64089   8.572   3.772   6.843 -0.2382  0.4821 -0.1627
  465MOL0     C64090   8.483   3.692   6.782  0.3132  0.4688  0.3347
  465MOL0     O64091   8.365   3.736   6.720 -0.3113  0.2928 -0.8235
  465MOL0     C64092   8.398   3.820   6.608 -0.4622  0.3907  0.7284
  465MOL0     C64093   8.283   3.809   6.508  0.7207 -0.1417  0.3202
  465MOL0     C64094   8.151   3.866   6.567 -0.2301  0.4822  0.3806
  465MOL0     C64095   8.172   4.010   6.611  0.3615 -0.5638 -0.4107
  465MOL0     C64096   8.035   4.073   6.621 -1.2112  0.3462  0.3353
  465MOL0     C64097   7.928   4.122   6.626 -0.2962  0.4106  0.3829
  465MOL0     C64098   8.492   3.548   6.802 -1.1558  0.2468 -0.0689
  465MOL0     C64099   8.605   3.493   6.861 -0.0563  0.0354 -0.0838
  465MOL0     C64100   8.614   3.347   6.852  0.3170  0.1335  0.4913
  465MOL0     H64101   8.881   3.249   7.200  0.8403 -0.7153 -0.2682
  465MOL0     H64102   9.100   3.176   7.311  0.3620  3.5195  1.6376
  465MOL0     H64103   9.444   3.387   7.191  0.2381  0.0681 -0.5161
  465MOL0     H64104   9.493   3.229   7.136  0.5879  1.1274 -0.4383
  465MOL0     H64105   9.492   3.322   7.423 -1.7526 -3.0536  2.3992
  465MOL0     H64106   9.523   3.153   7.371 -0.9880  1.0196  0.1736
  465MOL0     H64107   9.700   3.249   7.212 -0.2230  1.5293 -0.0627
  465MOL0     H64108   9.694   3.402   7.294 -1.4458 -0.0615 -3.1568
  465MOL0     H64109   9.745   3.274   7.523 -1.5022  1.2528  0.0869
  465MOL0     H64110   9.748   3.132   7.421  2.1912  0.6959 -1.2885
  465MOL0     H64111   9.908   3.370   7.345  0.7437 -0.9717 -0.6365
  465MOL0     H64112   9.951   3.202   7.307 -1.4209  0.2870 -1.5331
  465MOL0     H64113   9.963   3.318   7.582  1.1245 -0.1618  1.0353
  465MOL0     H64114  10.016   3.158   7.535 -2.3508 -0.5898  0.4813
  465MOL0     H64115  10.147   3.424   7.422  2.8890 -0.7583 -3.7222
  465MOL0     H64116  10.176   3.262   7.365  3.1541  2.9556 -1.4530
  465MOL0     H64117  10.216   3.368   7.652  4.2920  2.9470 -1.1276
  465MOL0     H64118  10.229   3.195   7.604  0.4893  0.2075  2.3018
  465MOL0     H64119  10.377   3.541   7.556 -1.0975 -0.5969  0.8843
  465MOL0     H64120  10.631   3.647   7.508  0.1845 -0.8056  0.5450
  465MOL0     H64121  10.619   3.596   7.334  0.9565 -1.2218 -0.3788
  465MOL0     H64122  10.798   3.412   7.399 -0.4944  1.0511 -1.2293
  465MOL0     H64123  10.830   3.581   7.359 -0.0064  0.3253  0.4910
  465MOL0     H64124  10.867   3.640   7.596  0.0470 -0.6230  1.3700
  465MOL0     H64125  10.799   3.490   7.637 -1.3644 -0.6549 -1.7682
  465MOL0     H64126  11.049   3.506   7.659 -2.2425  1.9401  0.8150
  465MOL0     H64127  11.019   3.387   7.529  0.6741 -0.2459 -1.6824
  465MOL0     H64128  11.202   3.793   7.416 -1.7460 -0.7585  0.0666
  465MOL0     H64129  11.372   3.943   7.369 -1.6673 -0.7673  1.5993
  465MOL0     H64130  11.520   3.868   7.311  0.2721 -1.2338 -0.1365
  465MOL0     H64131  11.511   3.913   7.482  0.2285  0.9031 -1.1598
  465MOL0     H64132  11.579   3.686   7.115  4.1670 -0.4683 -2.3852
  465MOL0     H64133  11.530   3.512   6.968 -1.1871 -0.9763  1.8808
  465MOL0     H64134  11.490   3.327   6.841 -0.5782  1.5249  1.8151
  465MOL0     H64135  11.663   3.344   6.818  0.0911  0.8974  2.3673
  465MOL0     H64136  11.593   3.182   6.668  0.0189  1.4098  0.9583
  465MOL0     H64137  11.682   3.100   6.819 -0.7679  1.1277  3.7455
  465MOL0     H64138  11.381   3.114   6.746 -0.7419  2.4044  4.7624
  465MOL0     H64139  11.428   3.056   6.891  1.4200 -0.3831  0.6482
  465MOL0     H64140  11.508   2.848   6.791  1.0519 -1.6151 -1.1861
  465MOL0     H64141  11.568   2.932   6.659  0.6620  1.7167  0.6492
  465MOL0     H64142  11.351   2.777   6.657  0.0272  0.5875  2.8335
  465MOL0     H64143  11.265   2.924   6.703 -0.0417  1.9771 -1.6427
  465MOL0     H64144  11.446   2.902   6.460 -0.1940 -0.8258 -1.0697
  465MOL0     H64145  11.365   3.044   6.507 -2.6948 -0.7836 -0.0054
  465MOL0     H64146  11.159   2.966   6.449 -1.5211 -1.7521  1.5771
  465MOL0     H64147  11.184   2.802   6.478  0.6748 -1.7655 -2.2430
  465MOL0     H64148  11.318   2.968   6.250 -0.6902  0.2349 -0.2692
  465MOL0     H64149  11.180   2.874   6.216  1.4271 -2.3037 -0.9507
  465MOL0     H64150  11.741   3.240   7.228 -0.8013 -1.7348 -2.2648
  465MOL0     H64151  11.780   3.413   7.372  0.7896 -0.0556 -0.0191
  465MOL0     H64152  11.496   3.430   7.547  1.0525  0.8268 -1.7077
  465MOL0     H64153  11.267   3.384   7.549 -1.3870  1.3300  0.4514
  465MOL0     H64154   9.316   3.389   7.019  0.5436 -1.2456  0.7503
  465MOL0     H64155   9.107   3.470   6.919  0.6704  0.2278  1.1401
  465MOL0     H64156   8.735   3.795   6.966 -1.8574  1.7978 -1.7671
  465MOL0     H64157   8.574   3.880   6.833  2.0935  0.6846  1.5920
  465MOL0     H64158   8.401   3.926   6.637 -2.7003  1.9391 -3.7256
  465MOL0     H64159   8.493   3.792   6.561 -0.1714  3.2030 -0.5646
  465MOL0     H64160   8.262   3.704   6.483  4.0174 -0.8019 -0.1444
  465MOL0     H64161   8.311   3.852   6.411 -1.1582  0.5979  0.0647
  465MOL0     H64162   8.070   3.862   6.494 -1.2085  0.1361  1.4441
  465MOL0     H64163   8.111   3.810   6.653 -1.1321 -1.3393 -1.1555
  465MOL0     H64164   8.232   4.069   6.541  1.1010  2.8113  2.7410
  465MOL0     H64165   8.225   4.000   6.706  1.3378  0.2224 -0.8593
  465MOL0     H64166   7.824   4.144   6.640  0.1291  3.1529 -0.3956
  465MOL0     H64167   8.416   3.476   6.773  1.1826 -2.3195 -0.2227
  465MOL0     H64168   8.651   3.304   6.946  0.8097 -1.2027 -0.2845
  465MOL0     H64169   8.515   3.302   6.840  1.2092 -1.2917 -2.6660
  465MOL0     H64170   8.670   3.314   6.764 -0.9504 -0.9476  0.0556
  466MOL0     O64171   5.751   9.952  11.178  0.3822  0.1575 -0.7487
  466MOL0     C64172   5.755   9.830  11.170 -0.2729  0.3539 -0.4738
  466MOL0     O64173   5.873   9.764  11.164  0.0701  0.3505 -0.2299
  466MOL0     C64174   5.995   9.815  11.129  0.3296  0.3248 -0.4537
  466MOL0     C64175   6.017   9.935  11.063  0.2635 -0.2167 -0.2186
  466MOL0     C64176   6.140   9.980  11.034  0.8017 -0.7464 -0.2386
  466MOL0     C64177   6.250   9.912  11.072 -0.2634  0.0187  0.5282
  466MOL0     O64178   6.370   9.974  11.033  0.2783  0.2725 -0.2505
  466MOL0     C64179   6.488   9.932  11.096 -0.4242  0.6311  0.3399
  466MOL0     C64180   6.603  10.031  11.074  0.5999  0.3777  0.8126
  466MOL0     C64181   6.567  10.176  11.117 -0.0464 -1.2025  1.0138
  466MOL0     C64182   6.680  10.276  11.078  0.2552 -0.1096  0.8125
  466MOL0     C64183   6.677  10.408  11.146  0.2563  0.0410  0.2190
  466MOL0     C64184   6.797  10.490  11.117 -0.7451  0.4846  0.4568
  466MOL0     C64185   6.788  10.620  11.185 -0.1556  0.1453 -0.1121
  466MOL0     C64186   6.870  10.734  11.111  0.1430 -0.1643  0.1399
  466MOL0     N64187   7.012  10.701  11.114  0.3490  0.0374  0.2295
  466MOL0     C64188   7.084  10.627  11.021  0.4476 -0.0278 -0.1533
  466MOL0     C64189   7.211  10.647  11.056 -1.1142  0.1016  0.2691
  466MOL0     C64190   7.332  10.580  10.990 -0.3353  0.2184 -0.5711
  466MOL0     C64191   7.446  10.681  10.991 -0.8179  0.2059 -0.0914
  466MOL0     C64192   7.577  10.622  10.935 -0.5705  0.3543 -0.4278
  466MOL0     C64193   7.696  10.710  10.951  0.2802  0.2628 -0.9054
  466MOL0     O64194   7.689  10.827  10.870 -0.2413 -0.1682 -0.2575
  466MOL0     C64195   7.795  10.913  10.857 -0.1442  0.7634  0.8492
  466MOL0     C64196   7.792  10.995  10.742 -0.3683 -0.3091  0.3246
  466MOL0     C64197   7.901  11.077  10.699 -0.0497 -0.0227  0.6533
  466MOL0     C64198   7.889  11.143  10.569  0.5414  0.1065  0.4112
  466MOL0     C64199   8.010  11.074  10.787  0.4111 -0.0706 -0.2794
  466MOL0     C64200   8.132  11.153  10.753 -0.0642  0.7889 -0.7236
  466MOL0     O64201   8.253  11.129  10.818  0.3400  0.4905 -0.4061
  466MOL0     C64202   8.370  11.173  10.757  0.3959 -0.8952 -0.1296
  466MOL0     C64203   8.389  11.186  10.615  0.4327 -0.3541  0.9206
  466MOL0     C64204   8.514  11.227  10.567 -0.1939 -0.3138 -0.0687
  466MOL0     C64205   8.620  11.264  10.656 -0.0439 -0.1424  0.1441
  466MOL0     O64206   8.751  11.300  10.632 -0.2508 -0.2079  0.5358
  466MOL0     C64207   8.819  11.269  10.507 -0.4813  0.3679 -0.6268
  466MOL0     C64208   8.934  11.360  10.479  0.2295  0.0165  0.3112
  466MOL0     C64209   9.048  11.375  10.581 -0.0775 -0.0214 -0.3545
  466MOL0     C64210   9.170  11.443  10.526  0.2985 -0.6787 -0.0382
  466MOL0     C64211   9.295  11.435  10.615  0.1873  0.2164 -0.3776
  466MOL0     C64212   9.403  11.531  10.580 -0.3279  0.0054 -0.5729
  466MOL0     C64213   9.522  11.530  10.674  0.1164 -0.1230  0.5969
  466MOL0     C64214   9.584  11.649  10.724  0.1635 -0.2483  0.6131
  466MOL0    Cl64215   9.476  11.704  10.855 -0.1452  0.1990 -0.3326
  466MOL0     C64216   8.591  11.265  10.796  0.3485  0.2299 -0.8673
  466MOL0     C64217   8.467  11.213  10.847  1.1565 -0.2434  0.8607
  466MOL0     O64218   8.112  11.247  10.682 -0.0901  0.1055  0.3051
  466MOL0     C64219   8.016  10.990  10.901  0.2245  0.0892 -0.0899
  466MOL0     C64220   7.903  10.917  10.940 -0.2774 -1.2515  0.5750
  466MOL0     N64221   7.222  10.718  11.170 -0.0119 -0.5328  0.0426
  466MOL0     N64222   7.099  10.745  11.210  0.1025  0.2889 -0.3877
  466MOL0     C64223   6.231   9.787  11.139  0.3158 -0.3099 -0.1865
  466MOL0     C64224   6.103   9.744  11.172  0.9310  0.6403  0.1005
  466MOL0     C64225   5.633   9.742  11.178 -0.1366 -0.2895  0.1973
  466MOL0     C64226   5.648   9.603  11.178 -0.3551 -0.2139 -0.1601
  466MOL0     C64227   5.542   9.510  11.189 -0.6530 -0.8222  0.0167
  466MOL0     C64228   5.415   9.561  11.193 -0.8061 -0.2953  0.1777
  466MOL0     O64229   5.314   9.468  11.182 -0.2080 -0.0697 -0.0468
  466MOL0     C64230   5.180   9.513  11.198 -0.0819 -0.0295 -0.1879
  466MOL0     C64231   5.080   9.402  11.146  0.4294  0.1569  0.4512
  466MOL0     C64232   5.076   9.307  11.270 -0.4715 -0.0650 -0.5921
  466MOL0     C64233   4.980   9.195  11.243 -0.9561  0.2027 -0.1052
  466MOL0     C64234   4.842   9.215  11.235  0.2559 -0.1459 -1.0117
  466MOL0     C64235   4.720   9.209  11.223 -0.6756  0.3404 -0.7597
  466MOL0     C64236   5.393   9.698  11.183 -0.4583 -0.4261  0.0511
  466MOL0     C64237   5.499   9.791  11.200  0.2039 -0.0528  0.7657
  466MOL0     C64238   5.460   9.930  11.219 -0.2736 -0.3154  0.5341
  466MOL0     H64239   5.924   9.977  11.025  0.8843  0.9169 -0.4950
  466MOL0     H64240   6.153  10.079  10.992 -1.5828 -0.3978 -0.2390
  466MOL0     H64241   6.519   9.836  11.054  1.6230  1.8221 -1.0501
  466MOL0     H64242   6.476   9.917  11.204  0.9433 -2.0136  0.2175
  466MOL0     H64243   6.677   9.984  11.139  2.6876  0.0509 -1.6443
  466MOL0     H64244   6.640  10.025  10.972 -2.0459 -3.6197 -0.1468
  466MOL0     H64245   6.473  10.217  11.081 -0.2446 -3.6509 -1.6390
  466MOL0     H64246   6.549  10.185  11.225 -1.9989  0.9467  0.5785
  466MOL0     H64247   6.776  10.231  11.104 -0.6333 -1.4163  2.0230
  466MOL0     H64248   6.677  10.291  10.970 -3.4661 -0.3557  0.7394
  466MOL0     H64249   6.663  10.394  11.254  0.4555  2.3435  0.6013
  466MOL0     H64250   6.586  10.460  11.117  1.5471  1.6763 -1.1303
  466MOL0     H64251   6.889  10.436  11.140 -1.9242 -1.5477  0.6015
  466MOL0     H64252   6.798  10.511  11.009 -5.8010 -1.5832 -0.2797
  466MOL0     H64253   6.826  10.608  11.287  2.5578 -2.3694 -1.2678
  466MOL0     H64254   6.687  10.660  11.195 -0.2849  0.1375 -1.3111
  466MOL0     H64255   6.835  10.739  11.007  1.6565  0.4815 -0.3507
  466MOL0     H64256   6.860  10.832  11.159 -1.7215 -1.0682  1.7695
  466MOL0     H64257   7.045  10.565  10.941  0.6661 -0.2285 -0.1041
  466MOL0     H64258   7.314  10.546  10.887  0.7839  0.0634 -0.7235
  466MOL0     H64259   7.364  10.493  11.048 -0.7114 -0.4975 -1.4101
  466MOL0     H64260   7.406  10.756  10.922 -1.7907  1.3339  1.6248
  466MOL0     H64261   7.468  10.732  11.085 -2.0119 -0.3095  0.4869
  466MOL0     H64262   7.591  10.524  10.982  2.2903  0.3817 -1.0268
  466MOL0     H64263   7.566  10.615  10.826  2.6849 -1.5770 -0.7894
  466MOL0     H64264   7.694  10.740  11.057  0.8830 -1.6993 -0.2954
  466MOL0     H64265   7.790  10.655  10.936 -0.6245 -1.0533 -1.9119
  466MOL0     H64266   7.712  10.994  10.669 -0.1937  2.6109 -0.0401
  466MOL0     H64267   7.791  11.125  10.523  1.1689  2.3116 -2.0543
  466MOL0     H64268   7.959  11.103  10.496  0.7157  0.0035  0.6359
  466MOL0     H64269   7.894  11.253  10.566 -0.4538  0.1496  0.0479
  466MOL0     H64270   8.319  11.163  10.535  3.7749 -0.4534 -2.2437
  466MOL0     H64271   8.536  11.232  10.461  1.4107  1.3928  0.2968
  466MOL0     H64272   8.853  11.165  10.500  4.0483  1.5333  0.5554
  466MOL0     H64273   8.746  11.285  10.427  0.1669  2.6057 -0.8237
  466MOL0     H64274   8.980  11.322  10.388 -2.2799 -2.3468 -0.1201
  466MOL0     H64275   8.887  11.456  10.457 -0.2906 -0.2503  0.2212
  466MOL0     H64276   9.078  11.279  10.623  0.8568  0.3649 -0.1015
  466MOL0     H64277   9.003  11.427  10.666  0.0856  1.8563 -1.3567
  466MOL0     H64278   9.140  11.545  10.500 -0.0669 -0.7848 -0.0362
  466MOL0     H64279   9.198  11.396  10.431 -0.8713 -0.6599 -0.4014
  466MOL0     H64280   9.253  11.474  10.708  0.5358 -0.6234  0.1407
  466MOL0     H64281   9.337  11.333  10.614  0.3917  0.2989 -0.2196
  466MOL0     H64282   9.352  11.628  10.580  1.0128  0.7366 -1.1955
  466MOL0     H64283   9.443  11.503  10.483  0.3632 -1.1696  0.0226
  466MOL0     H64284   9.601  11.474  10.622  0.3681  0.5706  0.2195
  466MOL0     H64285   9.490  11.470  10.759 -0.7149 -1.7541 -0.7888
  466MOL0     H64286   9.610  11.733  10.659  1.0004  0.6262  2.0427
  466MOL0     H64287   9.680  11.617  10.766  0.0370  0.6297  1.5949
  466MOL0     H64288   8.672  11.300  10.859 -0.3812 -0.9199  0.7673
  466MOL0     H64289   8.450  11.217  10.954  3.7450 -0.9381  1.3690
  466MOL0     H64290   8.093  10.986  10.977 -0.9941  2.3566  1.3942
  466MOL0     H64291   7.905  10.853  11.028 -0.2236 -1.8734  0.1344
  466MOL0     H64292   6.320   9.733  11.170  0.5525  0.8355  1.2550
  466MOL0     H64293   6.087   9.652  11.226  1.7452 -0.3800 -1.3136
  466MOL0     H64294   5.750   9.566  11.172 -0.4713 -0.3435 -1.8301
  466MOL0     H64295   5.563   9.404  11.191  1.4961 -0.4317  0.8993
  466MOL0     H64296   5.151   9.544  11.299  1.3949  0.2961  0.1641
  466MOL0     H64297   5.157   9.590  11.123  0.3916 -0.6177 -0.9497
  466MOL0     H64298   5.127   9.348  11.064  2.4419 -1.2667  2.4201
  466MOL0     H64299   4.983   9.449  11.126  0.0200 -0.5117  0.8210
  466MOL0     H64300   5.176   9.266  11.286  0.4869  0.9250 -3.3638
  466MOL0     H64301   5.036   9.360  11.357 -0.5796 -0.1844 -0.5705
  466MOL0     H64302   5.002   9.119  11.319  1.0328  1.2995  0.4822
  466MOL0     H64303   4.994   9.150  11.144 -1.2806 -0.4227  0.1233
  466MOL0     H64304   4.613   9.209  11.214 -0.7040 -1.9231 -0.8267
  466MOL0     H64305   5.294   9.742  11.174  0.8482  3.6520  2.7066
  466MOL0     H64306   5.474   9.987  11.127 -0.3801 -2.5592 -0.9472
  466MOL0     H64307   5.353   9.928  11.238  0.1026 -1.6800  2.8845
  466MOL0     H64308   5.518   9.979  11.298 -0.1509  0.3292  0.0556
  467MOL0     O64309   9.964   0.348   3.093 -0.6081  0.1283  0.0933
  467MOL0     C64310   9.981   0.311   2.976  0.5425 -0.3436 -0.1265
  467MOL0     O64311   9.879   0.276   2.896 -0.5260  0.5940  0.0252
  467MOL0     C64312   9.750   0.284   2.939 -0.5989  0.1667 -0.5485
  467MOL0     C64313   9.692   0.390   3.021  0.6799 -0.6943 -0.3856
  467MOL0     C64314   9.555   0.389   3.055  0.8733 -0.4646  0.5052
  467MOL0     C64315   9.469   0.296   3.002 -0.3328  0.4322 -0.0910
  467MOL0     O64316   9.339   0.310   3.037  0.5773 -0.0505 -0.5816
  467MOL0     C64317   9.292   0.253   3.156  1.0445 -0.0633  0.0363
  467MOL0     C64318   9.165   0.178   3.142 -0.2607  0.3362 -0.3331
  467MOL0     C64319   9.124   0.119   3.285 -1.2313 -1.2937 -0.6330
  467MOL0     C64320   9.075   0.226   3.373 -0.3136  0.0035 -1.0768
  467MOL0     C64321   9.024   0.163   3.504  0.0005 -0.2592 -0.2558
  467MOL0     C64322   9.022   0.264   3.620  0.2063 -0.4867 -1.1329
  467MOL0     C64323   8.958   0.197   3.739  0.1785 -0.3909  1.1575
  467MOL0     C64324   9.051   0.121   3.822 -0.2850  0.3879 -0.0195
  467MOL0     N64325   9.183   0.182   3.861  0.9007 -0.6074  0.1434
  467MOL0     C64326   9.305   0.163   3.805  0.1289  0.3863 -0.0297
  467MOL0     C64327   9.392   0.229   3.887  0.6205 -0.3696  0.1801
  467MOL0     C64328   9.537   0.265   3.856  0.3134 -0.2505 -0.6146
  467MOL0     C64329   9.617   0.164   3.940 -0.3941 -0.0957 -0.1975
  467MOL0     C64330   9.624   0.188   4.089  0.5289 -0.3244 -0.2527
  467MOL0     C64331   9.732   0.106   4.161  0.0018 -0.2128  0.2462
  467MOL0     O64332   9.749   0.136   4.305  0.8009 -0.3710  0.3059
  467MOL0     C64333   9.850   0.080   4.380 -0.0700  0.0068  0.8355
  467MOL0     C64334   9.808   0.051   4.513 -0.7348  0.3357  1.1429
  467MOL0     C64335   9.896   0.012   4.621 -0.4189 -0.3099  0.5300
  467MOL0     C64336   9.818  -0.013   4.752  0.0343  0.1098  0.0486
  467MOL0     C64337  10.035  -0.002   4.586  0.2870  0.4507 -0.5416
  467MOL0     C64338  10.137  -0.042   4.684  0.3132  0.4568 -0.1740
  467MOL0     O64339  10.245  -0.103   4.628  0.6772 -0.6004  0.7099
  467MOL0     C64340  10.364  -0.141   4.694  1.0974  0.2927  1.0837
  467MOL0     C64341  10.395  -0.114   4.829  0.5510  0.2613 -0.6240
  467MOL0     C64342  10.510  -0.166   4.888  0.3144 -0.3274  0.1007
  467MOL0     C64343  10.592  -0.247   4.816 -0.8344  0.5006 -1.1732
  467MOL0     O64344  10.712  -0.299   4.869 -0.7845  0.4481  0.4697
  467MOL0     C64345  10.726  -0.303   5.012  0.2708 -0.3509  0.3505
  467MOL0     C64346  10.855  -0.399   5.029 -0.7861  0.4020  0.1061
  467MOL0     C64347  10.832  -0.530   4.950 -0.3916 -1.0034  0.5096
  467MOL0     C64348  10.921  -0.652   4.999 -0.2709  0.5929 -0.1723
  467MOL0     C64349  11.073  -0.621   5.007 -0.2946  0.5538  0.0834
  467MOL0     C64350  11.159  -0.751   5.008 -0.5119  0.3898  0.5124
  467MOL0     C64351  11.310  -0.732   5.051  0.8170  0.4571  0.7838
  467MOL0     C64352  11.377  -0.866   5.047 -0.5805 -0.2898  0.8858
  467MOL0    Cl64353  11.550  -0.849   5.076 -0.1643 -0.1376  0.4700
  467MOL0     C64354  10.581  -0.253   4.676 -0.5169  0.0518 -0.5898
  467MOL0     C64355  10.456  -0.222   4.619 -0.6254 -0.1126 -0.7234
  467MOL0     O64356  10.120  -0.016   4.800  0.2701  0.3452 -0.6835
  467MOL0     C64357  10.071   0.017   4.449 -0.4583  1.1715  0.2439
  467MOL0     C64358   9.986   0.055   4.346  1.2353 -0.0311  0.0979
  467MOL0     N64359   9.320   0.292   3.989  0.2848  0.1771 -0.1281
  467MOL0     N64360   9.198   0.247   3.978 -0.0939 -0.1753  0.1507
  467MOL0     C64361   9.522   0.202   2.910  0.6473 -0.3061  0.2522
  467MOL0     C64362   9.663   0.188   2.884 -0.4279 -0.2508 -0.1529
  467MOL0     C64363  10.115   0.302   2.919 -0.2064  0.2788 -0.5689
  467MOL0     C64364  10.138   0.211   2.818  0.2513  1.0071  0.1071
  467MOL0     C64365  10.261   0.190   2.757 -0.4087 -0.1517 -1.0377
  467MOL0     C64366  10.376   0.257   2.801 -0.0735  0.5632  0.0054
  467MOL0     O64367  10.505   0.240   2.756  0.1813  0.0783 -1.3218
  467MOL0     C64368  10.533   0.145   2.654 -0.1955 -0.1051  0.5246
  467MOL0     C64369  10.673   0.178   2.589  0.6444  0.0273  0.5676
  467MOL0     C64370  10.779   0.220   2.685  0.9511 -0.6534  0.0316
  467MOL0     C64371  10.902   0.262   2.605  0.1138 -0.5970  0.4130
  467MOL0     C64372  11.013   0.176   2.653  0.3114 -0.2977  0.7032
  467MOL0     C64373  11.106   0.112   2.693 -0.0747  0.8621  0.5785
  467MOL0     C64374  10.355   0.351   2.898  0.5200  0.3683 -0.7621
  467MOL0     C64375  10.227   0.380   2.965 -0.4340  0.7541  0.7190
  467MOL0     C64376  10.214   0.506   3.040  0.0206  0.3571 -0.9235
  467MOL0     H64377   9.749   0.473   3.062 -1.1059 -0.3018  1.4624
  467MOL0     H64378   9.511   0.451   3.133  1.4496 -2.1741  2.2687
  467MOL0     H64379   9.270   0.337   3.223  1.5600  2.0284 -2.2890
  467MOL0     H64380   9.369   0.193   3.206  1.0988 -0.7066 -0.8028
  467MOL0     H64381   9.079   0.236   3.107 -0.2891 -0.7140 -2.1121
  467MOL0     H64382   9.183   0.094   3.075 -0.6937  1.4462 -1.8865
  467MOL0     H64383   9.046   0.044   3.265 -2.6349  0.1754 -0.8879
  467MOL0     H64384   9.208   0.076   3.340 -1.7952  1.6530  2.9476
  467MOL0     H64385   9.160   0.294   3.391  2.3405 -3.2354 -0.2847
  467MOL0     H64386   8.990   0.274   3.325 -0.8623  0.8923  0.6914
  467MOL0     H64387   9.093   0.081   3.526 -0.1623  0.0719  1.5886
  467MOL0     H64388   8.925   0.120   3.485 -1.2204  1.7402  1.2642
  467MOL0     H64389   9.120   0.291   3.658 -0.0010 -2.3187  0.9376
  467MOL0     H64390   8.957   0.349   3.597  0.3024 -0.4442 -1.2401
  467MOL0     H64391   8.890   0.120   3.702  1.3279 -2.2082  2.5897
  467MOL0     H64392   8.900   0.271   3.794 -1.8459 -1.1022  0.0692
  467MOL0     H64393   9.000   0.084   3.912 -1.8353  1.4956 -0.3980
  467MOL0     H64394   9.084   0.039   3.758  0.4327 -1.5651  2.6267
  467MOL0     H64395   9.313   0.109   3.711 -2.2638 -3.0279  1.5402
  467MOL0     H64396   9.566   0.365   3.888 -3.8914  0.0087  3.5399
  467MOL0     H64397   9.553   0.244   3.750 -5.5467 -2.3157 -1.4883
  467MOL0     H64398   9.580   0.061   3.931  2.8522 -1.3237 -0.5313
  467MOL0     H64399   9.718   0.168   3.899  0.4630  1.8138  1.8911
  467MOL0     H64400   9.634   0.296   4.106 -1.2922 -0.1127 -0.3789
  467MOL0     H64401   9.527   0.168   4.135 -0.6395  2.1355 -1.4520
  467MOL0     H64402   9.688   0.006   4.154 -1.5314  0.3652  1.1523
  467MOL0     H64403   9.825   0.120   4.105 -0.7398  0.7084 -0.8018
  467MOL0     H64404   9.703   0.067   4.536 -1.3337 -0.2923 -0.9521
  467MOL0     H64405   9.806  -0.120   4.771 -2.3564  0.1295 -0.9755
  467MOL0     H64406   9.721   0.036   4.747  0.6324  1.5574  1.5478
  467MOL0     H64407   9.859   0.031   4.843 -2.0605 -1.3665  1.8022
  467MOL0     H64408  10.328  -0.059   4.894  0.5421 -1.8955  1.3174
  467MOL0     H64409  10.518  -0.148   4.995 -2.4229  1.8737  0.0476
  467MOL0     H64410  10.748  -0.208   5.062  2.9855 -0.1471 -1.0443
  467MOL0     H64411  10.641  -0.351   5.061  0.3467  0.4411  1.2844
  467MOL0     H64412  10.943  -0.356   4.979 -1.4269 -2.0863 -3.5730
  467MOL0     H64413  10.879  -0.417   5.134 -3.4811 -1.2851  0.5352
  467MOL0     H64414  10.861  -0.517   4.846  0.1899 -4.1813  0.1469
  467MOL0     H64415  10.726  -0.554   4.952 -0.2500 -1.6476  1.1705
  467MOL0     H64416  10.906  -0.737   4.931  1.6263 -1.1893  1.5256
  467MOL0     H64417  10.885  -0.668   5.101 -0.7712 -0.2508 -0.4700
  467MOL0     H64418  11.094  -0.563   4.917  0.4049 -3.3941 -2.5574
  467MOL0     H64419  11.099  -0.555   5.090 -0.3639  2.0980 -1.0742
  467MOL0     H64420  11.152  -0.786   4.904 -1.3289  2.5576 -0.2239
  467MOL0     H64421  11.105  -0.828   5.063  1.3907 -1.3719  0.0211
  467MOL0     H64422  11.323  -0.696   5.154 -0.8445  0.5628  0.9802
  467MOL0     H64423  11.349  -0.671   4.969 -3.6136  3.1686  0.3780
  467MOL0     H64424  11.350  -0.919   4.955 -0.5524  0.7115  0.2893
  467MOL0     H64425  11.325  -0.925   5.123 -2.1519 -2.7211 -1.8489
  467MOL0     H64426  10.656  -0.291   4.608 -1.3918 -0.4396 -1.3124
  467MOL0     H64427  10.460  -0.238   4.511 -2.1884  0.9239 -0.9597
  467MOL0     H64428  10.178   0.016   4.432 -0.2578  2.0855  1.3194
  467MOL0     H64429  10.030   0.082   4.250  1.9617 -0.6163  0.2556
  467MOL0     H64430   9.446   0.134   2.872 -0.0093  0.4960  0.1180
  467MOL0     H64431   9.709   0.111   2.823 -0.6343  0.1608 -0.8358
  467MOL0     H64432  10.057   0.140   2.805  0.5163  0.7205 -0.0057
  467MOL0     H64433  10.270   0.116   2.678  2.3667 -4.0065  2.4644
  467MOL0     H64434  10.531   0.043   2.692  0.5429 -1.2788 -2.2960
  467MOL0     H64435  10.455   0.158   2.579 -0.6726  1.8498  1.3042
  467MOL0     H64436  10.648   0.261   2.522 -1.1791 -0.3567  0.7032
  467MOL0     H64437  10.709   0.092   2.531  0.7940  0.7776 -0.4900
  467MOL0     H64438  10.745   0.307   2.741  2.6284 -1.0676  1.7865
  467MOL0     H64439  10.794   0.135   2.752  1.9262 -1.4113 -1.1040
  467MOL0     H64440  10.912   0.363   2.644 -0.5578 -0.5155  0.3801
  467MOL0     H64441  10.906   0.269   2.496 -0.0878  2.8763  0.5226
  467MOL0     H64442  11.196   0.058   2.715 -0.5440  0.0058  0.4250
  467MOL0     H64443  10.443   0.413   2.916  3.0238 -3.0744 -0.2666
  467MOL0     H64444  10.209   0.486   3.147 -1.6203 -0.3700 -1.0953
  467MOL0     H64445  10.291   0.574   3.002 -1.0259  2.1465 -0.0078
  467MOL0     H64446  10.122   0.556   3.005 -0.1123  1.3783  0.7665
  468MOL0     O64447   9.751   5.829   8.704  0.1404 -0.5523  0.0133
  468MOL0     C64448   9.697   5.838   8.593 -0.2133 -0.3786 -0.0715
  468MOL0     O64449   9.770   5.856   8.476  0.5808  0.3977 -0.7561
  468MOL0     C64450   9.903   5.869   8.494  0.5691  0.6163 -0.0960
  468MOL0     C64451   9.957   5.987   8.459 -0.4532 -0.8118 -1.0525
  468MOL0     C64452  10.096   6.017   8.473  0.7467 -0.4609  0.7878
  468MOL0     C64453  10.183   5.926   8.533  0.8029 -0.0029  0.2444
  468MOL0     O64454  10.317   5.940   8.551 -0.8090  1.1769  0.0636
  468MOL0     C64455  10.388   6.059   8.519  0.4830 -0.0678  0.0517
  468MOL0     C64456  10.523   6.066   8.587 -0.0485  0.2631 -0.4158
  468MOL0     C64457  10.622   5.967   8.521 -0.1395 -0.8254 -0.0410
  468MOL0     C64458  10.710   5.914   8.625 -0.1595 -0.4666  0.1363
  468MOL0     C64459  10.813   5.814   8.573  1.2903 -0.1739  0.1454
  468MOL0     C64460  10.952   5.879   8.540  0.1744  0.5810 -0.6939
  468MOL0     C64461  11.020   5.826   8.415 -0.0332  0.0725 -0.7843
  468MOL0     C64462  11.169   5.851   8.409  0.4103  0.4425 -0.7695
  468MOL0     N64463  11.194   5.993   8.402 -1.5235 -0.0024 -0.2086
  468MOL0     C64464  11.254   6.081   8.486  0.0602  0.2262 -1.2469
  468MOL0     C64465  11.269   6.194   8.428  0.7684 -0.8600 -0.0947
  468MOL0     C64466  11.323   6.321   8.489 -0.2288 -0.4833 -0.6081
  468MOL0     C64467  11.314   6.443   8.404 -0.1766  0.2647  0.4512
  468MOL0     C64468  11.345   6.570   8.486  0.3293  0.0369 -0.0505
  468MOL0     C64469  11.298   6.699   8.418 -0.2566  0.2398 -0.7466
  468MOL0     O64470  11.299   6.701   8.273  0.0401 -0.0128  0.3811
  468MOL0     C64471  11.420   6.729   8.215 -0.0241  0.0400  0.4213
  468MOL0     C64472  11.426   6.719   8.071  0.5269 -0.4528 -0.1005
  468MOL0     C64473  11.543   6.730   7.993 -0.1756  0.7322 -0.2795
  468MOL0     C64474  11.542   6.722   7.844 -0.1401 -0.2119  0.2268
  468MOL0     C64475  11.664   6.750   8.070 -0.3113  0.0060 -0.1163
  468MOL0     C64476  11.799   6.741   8.019 -0.8788 -0.6884 -0.6419
  468MOL0     O64477  11.908   6.819   8.064 -0.2983  0.0369  0.0998
  468MOL0     C64478  12.017   6.826   7.973 -0.3524  0.6065  0.0099
  468MOL0     C64479  12.006   6.883   7.844  0.3497  0.3238 -0.1591
  468MOL0     C64480  12.116   6.900   7.757 -0.5882 -0.7845 -0.3789
  468MOL0     C64481  12.239   6.862   7.806  0.3734  0.8670 -0.0469
  468MOL0     O64482  12.361   6.859   7.744  0.5399  0.4993 -0.2633
  468MOL0     C64483  12.355   6.907   7.609 -0.4977  0.5226 -1.0186
  468MOL0     C64484  12.504   6.905   7.552  1.0412  0.1588  0.0228
  468MOL0     C64485  12.558   6.757   7.530 -0.0914  0.5179 -0.4259
  468MOL0     C64486  12.700   6.777   7.463 -0.7810 -0.6333 -0.1449
  468MOL0     C64487  12.771   6.653   7.421  0.0254 -0.1429  0.1097
  468MOL0     C64488  12.913   6.637   7.485 -0.1145 -0.1479 -0.2283
  468MOL0     C64489  12.995   6.532   7.429 -0.1806  0.2753 -0.1432
  468MOL0     C64490  13.119   6.496   7.513  0.2019 -0.2945  0.2140
  468MOL0    Cl64491  13.079   6.395   7.657  0.1785 -0.0277  0.0745
  468MOL0     C64492  12.249   6.804   7.929 -0.4475  0.5840  0.1783
  468MOL0     C64493  12.145   6.784   8.019  0.1592  0.6459  0.4526
  468MOL0     O64494  11.811   6.658   7.934 -0.3701 -0.8714 -0.3277
  468MOL0     C64495  11.657   6.775   8.212  0.3089 -0.1439  0.1419
  468MOL0     C64496  11.543   6.765   8.285  0.7936  0.3088  0.0270
  468MOL0     N64497  11.225   6.182   8.294 -0.1469 -0.4846  0.2182
  468MOL0     N64498  11.177   6.062   8.285 -0.4894  0.3064  0.3919
  468MOL0     C64499  10.119   5.797   8.576  0.1043 -0.4987  0.1481
  468MOL0     C64500   9.987   5.772   8.552  0.0520 -0.3987  0.8374
  468MOL0     C64501   9.551   5.832   8.575 -0.2737 -1.1102 -0.3085
  468MOL0     C64502   9.461   5.888   8.665 -0.0315  0.5861  0.1804
  468MOL0     C64503   9.324   5.861   8.660  0.5211  0.0691 -0.4086
  468MOL0     C64504   9.277   5.771   8.570 -0.1160 -0.2801 -1.0475
  468MOL0     O64505   9.141   5.746   8.580  0.4666  0.4425  0.6859
  468MOL0     C64506   9.071   5.667   8.480  0.4695  0.3119 -0.0073
  468MOL0     C64507   8.920   5.694   8.481 -0.0929  0.5893  0.4903
  468MOL0     C64508   8.851   5.655   8.605 -0.6666  0.3486 -0.2938
  468MOL0     C64509   8.704   5.652   8.593 -0.3188  0.3823 -0.2853
  468MOL0     C64510   8.641   5.592   8.472  0.4011 -0.0433 -0.1921
  468MOL0     C64511   8.575   5.572   8.369  0.4581  1.1080 -0.6203
  468MOL0     C64512   9.365   5.713   8.477 -0.2053 -0.7955  0.8832
  468MOL0     C64513   9.500   5.746   8.475  0.6980 -0.2600  0.3187
  468MOL0     C64514   9.581   5.677   8.373 -0.0700 -0.1227 -0.1089
  468MOL0     H64515   9.900   6.066   8.412  1.2174  0.8011 -0.5152
  468MOL0     H64516  10.133   6.111   8.435 -0.5402  0.1510  0.9960
  468MOL0     H64517  10.330   6.144   8.556 -0.1726  0.1494 -1.3956
  468MOL0     H64518  10.388   6.076   8.411 -0.5194  1.4942  0.2593
  468MOL0     H64519  10.575   6.162   8.574  0.7061 -0.0541  0.1386
  468MOL0     H64520  10.499   6.048   8.693  1.1924  0.8006 -0.0195
  468MOL0     H64521  10.569   5.886   8.471 -1.1578  0.5698 -1.3104
  468MOL0     H64522  10.679   6.024   8.446 -0.3851  0.5420  0.7699
  468MOL0     H64523  10.754   5.987   8.693  0.4450 -1.6370  1.0411
  468MOL0     H64524  10.648   5.860   8.697  1.2279 -1.5813  0.5389
  468MOL0     H64525  10.770   5.752   8.494  0.0517  0.4986  0.2621
  468MOL0     H64526  10.837   5.748   8.657  3.1936  1.9495  1.3784
  468MOL0     H64527  10.944   5.987   8.524  4.6406  1.7097  2.6413
  468MOL0     H64528  11.012   5.868   8.631  1.5749 -2.6530 -1.8629
  468MOL0     H64529  10.966   5.862   8.327 -0.2063  0.9553 -0.3304
  468MOL0     H64530  11.004   5.718   8.426 -2.0927  0.2831 -1.2251
  468MOL0     H64531  11.214   5.804   8.497 -1.2067 -0.0180 -0.1487
  468MOL0     H64532  11.212   5.795   8.326 -0.1801 -2.0747  0.5163
  468MOL0     H64533  11.287   6.076   8.589 -0.1603  0.3323 -1.1702
  468MOL0     H64534  11.427   6.295   8.513 -0.9327 -0.4254  2.9804
  468MOL0     H64535  11.275   6.341   8.585  0.9626  1.3923 -0.3384
  468MOL0     H64536  11.388   6.426   8.324  2.3349 -2.0524  3.0186
  468MOL0     H64537  11.213   6.449   8.363  0.3246 -0.4609 -0.9846
  468MOL0     H64538  11.303   6.555   8.586 -0.4940  0.0118 -0.3903
  468MOL0     H64539  11.453   6.575   8.499  0.2930  1.7225 -0.2524
  468MOL0     H64540  11.192   6.713   8.441 -0.0901  1.8632 -0.8239
  468MOL0     H64541  11.342   6.789   8.461 -0.1302 -0.2099  0.0852
  468MOL0     H64542  11.336   6.697   8.014 -0.1843 -4.2803  2.1025
  468MOL0     H64543  11.449   6.682   7.804  0.0911  0.0127 -0.5671
  468MOL0     H64544  11.625   6.662   7.805 -0.6478 -0.1069 -1.0565
  468MOL0     H64545  11.554   6.825   7.808 -0.6130  0.6586  2.4116
  468MOL0     H64546  11.905   6.914   7.817  0.7537  0.3013 -1.8047
  468MOL0     H64547  12.093   6.933   7.657  1.1972 -0.9803 -0.8944
  468MOL0     H64548  12.282   6.858   7.544 -0.4020  0.5147 -1.1216
  468MOL0     H64549  12.322   7.011   7.621  0.6702  0.7970 -0.0319
  468MOL0     H64550  12.514   6.972   7.466 -0.1160  2.0997  1.3127
  468MOL0     H64551  12.576   6.944   7.624  2.5669 -1.4306 -0.5659
  468MOL0     H64552  12.496   6.699   7.461 -0.3671  0.4779 -0.1454
  468MOL0     H64553  12.556   6.708   7.628 -3.3351  3.3575  1.1198
  468MOL0     H64554  12.770   6.828   7.530 -0.6194 -0.7217 -0.2447
  468MOL0     H64555  12.681   6.838   7.375  0.3611 -2.1309 -1.4972
  468MOL0     H64556  12.706   6.565   7.428 -2.1141  1.2577 -1.0467
  468MOL0     H64557  12.790   6.652   7.313 -1.2943  0.1336 -0.1366
  468MOL0     H64558  12.908   6.633   7.594  1.1471 -0.6422 -0.1828
  468MOL0     H64559  12.967   6.730   7.466 -0.3024  0.0423  0.1403
  468MOL0     H64560  13.033   6.554   7.329  0.1238 -0.2136 -0.1405
  468MOL0     H64561  12.922   6.450   7.421 -1.4125  1.2946  0.2674
  468MOL0     H64562  13.160   6.588   7.555  1.5092 -0.1161 -1.3834
  468MOL0     H64563  13.194   6.443   7.454  2.1517  1.0317  1.3971
  468MOL0     H64564  12.343   6.768   7.970 -1.1360  0.5079  1.7486
  468MOL0     H64565  12.168   6.737   8.114  0.3669  2.4267  1.3093
  468MOL0     H64566  11.749   6.781   8.269  2.0153 -3.9853 -1.8467
  468MOL0     H64567  11.546   6.783   8.392 -4.8309 -0.1413  0.5486
  468MOL0     H64568  10.180   5.720   8.624 -0.4545 -0.8209  0.3552
  468MOL0     H64569   9.934   5.684   8.586 -1.8495  0.6578  0.7284
  468MOL0     H64570   9.505   5.960   8.734 -0.3787 -1.4454  2.6776
  468MOL0     H64571   9.260   5.906   8.735 -0.5445 -1.8490 -0.0886
  468MOL0     H64572   9.112   5.686   8.380 -0.6815  1.6752 -0.2492
  468MOL0     H64573   9.084   5.560   8.501  1.1217  0.7913  2.2541
  468MOL0     H64574   8.880   5.632   8.399  1.5444  1.0309 -0.7041
  468MOL0     H64575   8.901   5.799   8.461  1.1220  1.0817  1.7779
  468MOL0     H64576   8.874   5.553   8.636  0.8938  0.5591 -0.6235
  468MOL0     H64577   8.886   5.712   8.692  1.7783 -4.0449  1.9689
  468MOL0     H64578   8.664   5.752   8.612 -1.7171 -0.5375  2.1055
  468MOL0     H64579   8.663   5.589   8.673 -2.3162 -0.3678 -1.7890
  468MOL0     H64580   8.508   5.558   8.286  0.4430 -2.3658 -0.1911
  468MOL0     H64581   9.325   5.656   8.395  2.2301  0.4647 -1.3303
  468MOL0     H64582   9.647   5.611   8.430 -1.9975 -0.4223  1.9286
  468MOL0     H64583   9.511   5.618   8.312 -0.6420  2.2841 -1.9350
  468MOL0     H64584   9.638   5.733   8.298 -1.1681  0.1296 -0.7831
  469MOL0     O64585   6.410   0.048   8.378  0.4816  0.6467  0.1750
  469MOL0     C64586   6.360  -0.009   8.285 -0.9858  1.1409 -0.1382
  469MOL0     O64587   6.418  -0.120   8.219  0.1488 -0.2360 -0.0467
  469MOL0     C64588   6.549  -0.163   8.248 -0.0244  0.0897 -0.6368
  469MOL0     C64589   6.589  -0.194   8.374 -0.0109  0.4236 -0.3163
  469MOL0     C64590   6.713  -0.242   8.404  0.1798 -0.4125 -0.4282
  469MOL0     C64591   6.800  -0.267   8.307 -0.7406  0.0303  1.1129
  469MOL0     O64592   6.929  -0.298   8.345  0.5196 -0.2337  0.2692
  469MOL0     C64593   6.998  -0.396   8.276  0.1401  0.2266  0.1629
  469MOL0     C64594   7.100  -0.342   8.179 -0.6547  0.1719  0.3504
  469MOL0     C64595   7.222  -0.283   8.261 -0.0333 -0.0604  0.4098
  469MOL0     C64596   7.307  -0.386   8.325 -0.5692 -0.1138 -0.0046
  469MOL0     C64597   7.424  -0.325   8.402  0.0205 -0.3319 -0.0638
  469MOL0     C64598   7.532  -0.254   8.311  1.0363  0.7836  0.6248
  469MOL0     C64599   7.632  -0.202   8.409  0.1719  0.2718 -0.2198
  469MOL0     C64600   7.750  -0.154   8.324 -0.7331  0.4542  0.6917
  469MOL0     N64601   7.860  -0.109   8.409 -0.2449 -0.5149 -0.4471
  469MOL0     C64602   7.891   0.025   8.434  0.6702 -0.0358 -0.3859
  469MOL0     C64603   8.026   0.023   8.463 -0.0480  0.0957 -0.0553
  469MOL0     C64604   8.114   0.134   8.493  0.2171 -0.0303  0.1688
  469MOL0     C64605   8.176   0.123   8.632  0.8904  0.0772 -0.4213
  469MOL0     C64606   8.280   0.229   8.674  0.5155  0.0006 -0.1001
  469MOL0     C64607   8.357   0.184   8.788 -0.5312  0.2122  0.2143
  469MOL0     O64608   8.460   0.272   8.800 -0.4706  0.6672 -0.1520
  469MOL0     C64609   8.579   0.246   8.730 -0.8345  0.1159 -0.3460
  469MOL0     C64610   8.606   0.150   8.627  0.1553  0.1800 -0.4403
  469MOL0     C64611   8.736   0.138   8.571 -0.4536  1.2101  0.9022
  469MOL0     C64612   8.754   0.033   8.458 -0.1825 -0.0535 -0.2505
  469MOL0     C64613   8.841   0.230   8.608 -0.0937  0.3175  0.7642
  469MOL0     C64614   8.976   0.240   8.547 -0.0796  0.0618  1.5121
  469MOL0     O64615   9.059   0.321   8.617 -0.7746  0.4826 -0.1215
  469MOL0     C64616   9.196   0.332   8.593 -0.6887  0.1201  0.3691
  469MOL0     C64617   9.289   0.235   8.544 -0.3174 -0.0857  0.0330
  469MOL0     C64618   9.422   0.263   8.528 -0.9528 -0.4390  0.0443
  469MOL0     C64619   9.476   0.379   8.580  1.1988  0.5151 -0.4354
  469MOL0     O64620   9.608   0.398   8.601  0.6403  0.1172  0.5817
  469MOL0     C64621   9.712   0.349   8.520  0.8373 -0.4773  0.6717
  469MOL0     C64622   9.840   0.422   8.563  0.8690 -0.0063 -0.0700
  469MOL0     C64623   9.957   0.379   8.470  0.5753 -0.3395 -0.2872
  469MOL0     C64624  10.094   0.439   8.511 -0.3467  0.0983 -0.0780
  469MOL0     C64625  10.205   0.398   8.431 -0.2672  0.5202 -0.0870
  469MOL0     C64626  10.341   0.472   8.454  0.1086 -0.5175 -0.3119
  469MOL0     C64627  10.431   0.402   8.557 -0.0309 -0.0320  0.3274
  469MOL0     C64628  10.582   0.399   8.524  0.3910  0.8753  0.8435
  469MOL0    Cl64629  10.655   0.550   8.454  0.0010  0.3149  0.1931
  469MOL0     C64630   9.393   0.476   8.634 -0.0076 -0.0156 -0.3677
  469MOL0     C64631   9.257   0.453   8.639  0.7030 -0.1481  0.5022
  469MOL0     O64632   9.009   0.184   8.441 -0.3443 -0.5425 -0.1666
  469MOL0     C64633   8.811   0.323   8.707 -0.0627 -0.3568 -0.7644
  469MOL0     C64634   8.682   0.327   8.765 -0.1311  0.5147 -0.1943
  469MOL0     N64635   8.073  -0.107   8.459 -0.5889 -0.6420 -0.3111
  469MOL0     N64636   7.976  -0.182   8.434 -0.2990 -0.3890 -0.2150
  469MOL0     C64637   6.767  -0.228   8.172  0.3454  0.0574 -0.0183
  469MOL0     C64638   6.634  -0.193   8.149 -0.0620  0.1592  0.0626
  469MOL0     C64639   6.218   0.010   8.234 -0.0717 -0.1914  0.4359
  469MOL0     C64640   6.151  -0.094   8.178  0.5122  0.0620  0.0595
  469MOL0     C64641   6.022  -0.090   8.139 -0.0877  0.1906 -0.5764
  469MOL0     C64642   5.948   0.027   8.150 -0.0873 -0.5010  0.4061
  469MOL0     O64643   5.813   0.024   8.111  0.4732  0.0733 -0.5855
  469MOL0     C64644   5.755   0.143   8.068  0.1702  0.6457 -0.5186
  469MOL0     C64645   5.699   0.226   8.186 -0.6835 -0.3241 -0.0475
  469MOL0     C64646   5.612   0.352   8.150 -0.1500 -0.0177  0.0692
  469MOL0     C64647   5.575   0.434   8.271 -0.2233  0.2266 -0.8215
  469MOL0     C64648   5.534   0.564   8.227  0.8885 -0.2207  0.8506
  469MOL0     C64649   5.514   0.671   8.187  0.2110  0.0432 -0.5941
  469MOL0     C64650   6.024   0.143   8.196  0.0110  0.6524 -0.2824
  469MOL0     C64651   6.151   0.135   8.244  0.6156  0.5267 -0.5547
  469MOL0     C64652   6.218   0.255   8.298 -0.8753 -0.2660  0.0163
  469MOL0     H64653   6.524  -0.176   8.459  1.5693  1.4766  0.7223
  469MOL0     H64654   6.737  -0.257   8.509  1.3120 -2.4196 -0.9281
  469MOL0     H64655   6.922  -0.448   8.217 -1.6226  2.3991  0.3918
  469MOL0     H64656   7.045  -0.465   8.347 -1.4477  0.0019  1.0576
  469MOL0     H64657   7.136  -0.411   8.102  0.0214  0.0858  0.7306
  469MOL0     H64658   7.055  -0.261   8.120  0.1274 -1.2808 -2.4106
  469MOL0     H64659   7.279  -0.217   8.195 -0.4629  0.8311  0.9116
  469MOL0     H64660   7.176  -0.219   8.336 -0.3114  0.1600  0.0548
  469MOL0     H64661   7.245  -0.452   8.387  0.8559 -1.4541  0.0488
  469MOL0     H64662   7.349  -0.433   8.236 -1.0391  1.7655 -1.2925
  469MOL0     H64663   7.468  -0.409   8.455 -0.3929  0.3918  1.4864
  469MOL0     H64664   7.384  -0.259   8.480  1.6537  0.1718  0.3702
  469MOL0     H64665   7.568  -0.324   8.235 -2.7826  1.4495 -2.1264
  469MOL0     H64666   7.491  -0.174   8.249  0.5913 -0.8266 -1.2685
  469MOL0     H64667   7.668  -0.275   8.483  0.2558 -0.8572 -1.3525
  469MOL0     H64668   7.594  -0.121   8.472  3.4433  0.3813  1.8444
  469MOL0     H64669   7.782  -0.235   8.257 -2.4754  1.3546 -1.3715
  469MOL0     H64670   7.709  -0.080   8.254  0.6713 -1.2444 -2.1178
  469MOL0     H64671   7.817   0.105   8.439 -1.0267 -1.5693  3.3002
  469MOL0     H64672   8.070   0.232   8.470 -1.3911 -1.2911 -2.7526
  469MOL0     H64673   8.200   0.122   8.426 -0.1421 -0.6913 -0.1918
  469MOL0     H64674   8.096   0.127   8.706  0.8399  0.5393 -0.4970
  469MOL0     H64675   8.233   0.029   8.636  2.3248  0.7212 -2.9318
  469MOL0     H64676   8.350   0.249   8.593  0.0069 -0.6366 -0.7066
  469MOL0     H64677   8.223   0.317   8.706 -2.2230 -1.8690  0.4890
  469MOL0     H64678   8.305   0.185   8.884  2.1328  1.2346  1.7370
  469MOL0     H64679   8.388   0.080   8.776  1.5275  0.4278  2.7571
  469MOL0     H64680   8.526   0.087   8.590 -1.8526  1.6344  1.1915
  469MOL0     H64681   8.811  -0.050   8.501 -0.9974 -0.0906  0.8155
  469MOL0     H64682   8.812   0.064   8.371  3.2973 -0.9883  1.5612
  469MOL0     H64683   8.651   0.010   8.429 -0.9083  1.6628  0.7428
  469MOL0     H64684   9.242   0.144   8.507  0.9800 -0.1384 -1.5835
  469MOL0     H64685   9.495   0.187   8.504  1.9909  2.0257  0.5776
  469MOL0     H64686   9.721   0.240   8.531  0.9145 -0.5858 -0.4384
  469MOL0     H64687   9.700   0.366   8.413  2.9842 -2.3296  0.0573
  469MOL0     H64688   9.821   0.530   8.565 -0.6192 -0.2632  0.2872
  469MOL0     H64689   9.869   0.383   8.661 -0.5864 -0.1203  0.3276
  469MOL0     H64690   9.928   0.408   8.368  1.8570  1.1084 -0.2619
  469MOL0     H64691   9.959   0.270   8.478 -0.0436 -0.2479  1.3391
  469MOL0     H64692  10.124   0.424   8.615  2.8106 -1.9662 -1.1404
  469MOL0     H64693  10.081   0.545   8.490  3.7406  0.7963  0.1411
  469MOL0     H64694  10.215   0.290   8.428  0.2741  0.5525 -3.1737
  469MOL0     H64695  10.171   0.427   8.331 -1.3853  3.0831  0.9310
  469MOL0     H64696  10.318   0.566   8.505 -3.8609 -2.1437  1.3336
  469MOL0     H64697  10.395   0.484   8.360 -0.1409  2.6971 -0.1662
  469MOL0     H64698  10.387   0.304   8.577  0.1708  0.2095  2.1680
  469MOL0     H64699  10.421   0.465   8.647 -0.3621  2.7192 -1.5053
  469MOL0     H64700  10.606   0.308   8.469 -3.1143  0.8342 -0.9131
  469MOL0     H64701  10.637   0.380   8.617  0.2723  0.8646  0.9119
  469MOL0     H64702   9.443   0.567   8.666  0.7782  0.1034 -1.8704
  469MOL0     H64703   9.186   0.533   8.656  1.4391  0.9114 -1.2337
  469MOL0     H64704   8.874   0.405   8.739 -1.8587  1.7656 -2.4336
  469MOL0     H64705   8.660   0.402   8.840  3.0231  0.1314  1.2797
  469MOL0     H64706   6.834  -0.225   8.087  0.3413 -1.1226 -0.0751
  469MOL0     H64707   6.610  -0.154   8.050  1.4542  0.7512 -0.1117
  469MOL0     H64708   6.201  -0.189   8.160  2.4618  1.3290 -1.6408
  469MOL0     H64709   5.981  -0.181   8.097 -0.4651  0.8020 -1.5586
  469MOL0     H64710   5.816   0.208   8.006  2.6492  0.1989  1.3068
  469MOL0     H64711   5.669   0.101   8.015 -0.5108  1.3504 -0.0115
  469MOL0     H64712   5.781   0.264   8.249 -0.9334  0.2450 -0.0579
  469MOL0     H64713   5.633   0.160   8.242  2.1291 -3.1713  0.2001
  469MOL0     H64714   5.681   0.412   8.090  1.3047 -0.8528  0.8420
  469MOL0     H64715   5.524   0.318   8.095 -1.7496  2.0487  1.2313
  469MOL0     H64716   5.667   0.430   8.330 -0.0197 -3.2651 -1.1983
  469MOL0     H64717   5.493   0.403   8.335  2.9796 -0.6216  3.2805
  469MOL0     H64718   5.476   0.769   8.165  2.5221  0.8766 -1.1677
  469MOL0     H64719   5.981   0.242   8.199 -4.2465 -0.9688 -0.0349
  469MOL0     H64720   6.316   0.250   8.251 -0.6725 -0.4008  0.4530
  469MOL0     H64721   6.173   0.350   8.266  2.5548  1.5888  0.2737
  469MOL0     H64722   6.228   0.255   8.407  2.4419  2.7575 -0.1397
  470MOL0     O64723   0.932  10.926   2.199 -0.0318 -0.7225  0.7999
  470MOL0     C64724   0.839  10.970   2.263 -0.5781  0.7134  0.0603
  470MOL0     O64725   0.844  11.007   2.392  0.0036  0.6375 -0.9250
  470MOL0     C64726   0.960  11.019   2.466 -0.3000 -0.3003 -0.1612
  470MOL0     C64727   0.983  11.131   2.554  0.0901  0.7594 -0.4233
  470MOL0     C64728   1.111  11.144   2.612  0.5692 -0.5440 -0.4648
  470MOL0     C64729   1.202  11.045   2.609  0.3693 -0.0436 -0.6769
  470MOL0     O64730   1.308  11.054   2.702  0.0715  0.3110  0.8576
  470MOL0     C64731   1.432  11.022   2.629 -0.1189  0.7901 -0.2370
  470MOL0     C64732   1.546  11.057   2.718 -0.4619 -0.2818 -0.7253
  470MOL0     C64733   1.679  11.011   2.663 -0.2140 -1.0608 -0.1230
  470MOL0     C64734   1.799  11.059   2.747  0.6049 -0.2454  0.3970
  470MOL0     C64735   1.915  10.952   2.751 -0.6590  0.6667  0.8476
  470MOL0     C64736   2.051  11.011   2.782 -0.3210 -0.8022 -0.3666
  470MOL0     C64737   2.129  11.064   2.666 -0.4456  0.2150 -0.1490
  470MOL0     C64738   2.249  11.139   2.704 -0.3755  0.1113  0.8506
  470MOL0     N64739   2.346  11.051   2.772 -0.5672 -0.3144 -0.3075
  470MOL0     C64740   2.437  10.963   2.716  0.1288  0.6787 -0.1890
  470MOL0     C64741   2.502  10.908   2.831 -0.0720 -0.3333  0.7430
  470MOL0     C64742   2.615  10.807   2.823  1.1766 -1.2362 -0.4887
  470MOL0     C64743   2.757  10.861   2.831  0.4402 -0.3387 -0.8545
  470MOL0     C64744   2.856  10.736   2.815  0.4580 -0.2805  0.3619
  470MOL0     C64745   2.995  10.768   2.832 -0.5772  0.7411 -0.6100
  470MOL0     O64746   3.064  10.656   2.767  0.3564  0.8459  0.3845
  470MOL0     C64747   3.206  10.674   2.749  0.1270 -0.2283  0.3690
  470MOL0     C64748   3.277  10.584   2.661  0.5930  0.1312 -0.4948
  470MOL0     C64749   3.407  10.607   2.624  0.0120 -0.0075  0.2832
  470MOL0     C64750   3.472  10.504   2.527  0.3611  0.4873  0.0526
  470MOL0     C64751   3.485  10.706   2.683 -0.0113  0.0485 -0.5430
  470MOL0     C64752   3.628  10.732   2.673  0.0039  0.1833  0.5525
  470MOL0     O64753   3.702  10.754   2.789 -0.2667 -0.5839 -0.0853
  470MOL0     C64754   3.842  10.767   2.777  0.5367 -0.2003 -0.3178
  470MOL0     C64755   3.924  10.701   2.684 -0.1597  0.2848 -0.8562
  470MOL0     C64756   4.061  10.716   2.681 -0.0957  0.6395  0.5023
  470MOL0     C64757   4.114  10.818   2.767 -0.0793 -0.0006 -0.3004
  470MOL0     O64758   4.248  10.839   2.793  0.3563  0.5844  0.6149
  470MOL0     C64759   4.339  10.746   2.722 -1.0107 -0.9446  0.0179
  470MOL0     C64760   4.482  10.770   2.752 -0.4239  1.3412 -0.5682
  470MOL0     C64761   4.538  10.907   2.717  0.9168  0.4629 -0.4838
  470MOL0     C64762   4.671  10.934   2.775  0.1354 -0.3441  0.1283
  470MOL0     C64763   4.707  11.084   2.748  0.0100  0.4521 -0.2908
  470MOL0     C64764   4.838  11.095   2.814 -0.8358  0.3598 -0.6932
  470MOL0     C64765   4.886  11.240   2.830  0.5391 -0.3603 -0.5535
  470MOL0     C64766   5.034  11.246   2.854  0.2250 -0.0137  0.0991
  470MOL0    Cl64767   5.100  11.414   2.859 -0.3643  0.1776  0.1615
  470MOL0     C64768   4.035  10.887   2.849  0.5844 -0.1210 -0.1613
  470MOL0     C64769   3.902  10.857   2.867  0.2776  1.2451 -0.3424
  470MOL0     O64770   3.665  10.736   2.556  0.5403  0.1611  1.0966
  470MOL0     C64771   3.421  10.791   2.777 -0.2003  0.0102 -0.2104
  470MOL0     C64772   3.287  10.771   2.807  0.0006  0.1688  0.5994
  470MOL0     N64773   2.454  10.970   2.947 -0.3378 -0.0849 -0.2163
  470MOL0     N64774   2.367  11.061   2.909  0.6447  0.0916  0.2831
  470MOL0     C64775   1.178  10.928   2.534  0.7786 -0.4881 -0.7820
  470MOL0     C64776   1.060  10.917   2.459  1.0117 -0.4975 -0.1070
  470MOL0     C64777   0.700  10.983   2.198 -0.2839  0.4032  0.3723
  470MOL0     C64778   0.597  11.009   2.290 -0.1233 -0.5921 -0.3868
  470MOL0     C64779   0.470  10.997   2.250  0.0638  0.7230 -0.1437
  470MOL0     C64780   0.430  10.993   2.117 -1.0187  0.2058  0.9851
  470MOL0     O64781   0.297  11.010   2.089  1.1321  0.3687 -0.3450
  470MOL0     C64782   0.259  10.987   1.948 -0.9369 -0.0786  0.6130
  470MOL0     C64783   0.108  10.977   1.936 -0.0907 -0.8544 -0.4812
  470MOL0     C64784   0.024  11.097   1.970 -0.2002 -0.1893  0.0803
  470MOL0     C64785  -0.132  11.085   1.953 -0.5083 -0.1161  0.5911
  470MOL0     C64786  -0.185  10.981   2.045  0.9584 -0.1766  0.7914
  470MOL0     C64787  -0.217  10.883   2.107  0.4153 -0.4946  0.2791
  470MOL0     C64788   0.541  10.974   2.023  0.9259  0.7188  0.1635
  470MOL0     C64789   0.670  10.962   2.062  0.3492  0.5542  0.0917
  470MOL0     C64790   0.784  10.951   1.960  0.3346 -0.5332  0.5645
  470MOL0     H64791   0.905  11.207   2.560  2.0208  2.7257  1.9562
  470MOL0     H64792   1.132  11.231   2.673 -1.5769 -1.9384  2.4993
  470MOL0     H64793   1.437  11.073   2.532 -1.7623  1.6961  0.1189
  470MOL0     H64794   1.438  10.914   2.609  0.1269  0.4463  1.5811
  470MOL0     H64795   1.549  11.165   2.734  0.5916 -0.7386  3.0254
  470MOL0     H64796   1.528  11.003   2.811  0.6482 -1.8501 -1.3716
  470MOL0     H64797   1.691  10.903   2.649 -0.0316 -1.4020  2.3192
  470MOL0     H64798   1.690  11.054   2.563 -1.7152 -0.3465 -0.0115
  470MOL0     H64799   1.834  11.154   2.706 -0.5942 -0.6292 -1.6012
  470MOL0     H64800   1.764  11.069   2.850  3.3764 -0.5275  1.4566
  470MOL0     H64801   1.920  10.890   2.661  2.1453  0.6890  0.8817
  470MOL0     H64802   1.901  10.877   2.830  0.9618  0.5457  1.0501
  470MOL0     H64803   2.036  11.090   2.855 -1.0039  0.0244 -1.3691
  470MOL0     H64804   2.109  10.936   2.837  2.0026 -0.9656 -2.7905
  470MOL0     H64805   2.052  11.120   2.612 -1.0387 -0.5515 -0.1152
  470MOL0     H64806   2.151  10.985   2.595 -0.0424  0.3264 -0.1502
  470MOL0     H64807   2.300  11.173   2.613 -0.9026 -3.1162 -0.8355
  470MOL0     H64808   2.226  11.221   2.771  1.2373  1.6363 -0.3873
  470MOL0     H64809   2.444  10.935   2.611 -2.4920  2.4785 -0.9577
  470MOL0     H64810   2.597  10.759   2.726 -2.1331  2.1089 -1.7538
  470MOL0     H64811   2.594  10.734   2.902  0.4239 -0.1875  0.2936
  470MOL0     H64812   2.761  10.934   2.750 -1.3754  0.6820 -0.0916
  470MOL0     H64813   2.772  10.908   2.928  1.9098 -1.2647 -0.6109
  470MOL0     H64814   2.828  10.655   2.883  1.4516  0.6496  1.9471
  470MOL0     H64815   2.844  10.711   2.709 -0.2103  0.5338  0.2350
  470MOL0     H64816   3.010  10.864   2.782 -1.3805  0.5938 -1.1596
  470MOL0     H64817   3.031  10.777   2.935  1.8845  4.9571 -1.6273
  470MOL0     H64818   3.215  10.507   2.614  0.1903 -0.1942  0.5489
  470MOL0     H64819   3.568  10.469   2.567 -0.4890 -0.7883  1.0263
  470MOL0     H64820   3.497  10.523   2.422 -0.1322 -2.4996 -0.6679
  470MOL0     H64821   3.410  10.415   2.519  0.5461 -0.0789  3.4036
  470MOL0     H64822   3.886  10.634   2.608  0.3153  1.3445 -2.0635
  470MOL0     H64823   4.120  10.649   2.620 -3.6103 -1.4497 -0.9502
  470MOL0     H64824   4.322  10.641   2.747 -2.3734 -0.3981  1.6241
  470MOL0     H64825   4.330  10.749   2.613  1.8194 -2.9206 -0.3665
  470MOL0     H64826   4.487  10.752   2.859  0.3881 -0.9094 -0.9360
  470MOL0     H64827   4.545  10.694   2.704 -1.2005 -0.1539  0.7003
  470MOL0     H64828   4.471  10.987   2.751  1.8685  1.3925 -0.7420
  470MOL0     H64829   4.541  10.900   2.608 -0.7607  2.4859 -0.7172
  470MOL0     H64830   4.746  10.864   2.737  0.4940  0.9756 -1.7417
  470MOL0     H64831   4.664  10.917   2.883  0.3320  1.4889  0.4690
  470MOL0     H64832   4.714  11.107   2.641  0.3789 -0.8736 -0.5711
  470MOL0     H64833   4.641  11.150   2.805  1.3863 -1.2484  3.6016
  470MOL0     H64834   4.917  11.039   2.763 -0.3538  0.3621  0.0359
  470MOL0     H64835   4.836  11.055   2.916  0.0266  1.2031 -0.3290
  470MOL0     H64836   4.834  11.285   2.916 -0.0789  1.4401 -1.8043
  470MOL0     H64837   4.856  11.299   2.743 -1.5172 -1.0020 -0.3078
  470MOL0     H64838   5.080  11.188   2.774 -1.3081  1.3182 -1.8563
  470MOL0     H64839   5.056  11.201   2.951  0.9262  1.9408  0.8990
  470MOL0     H64840   4.094  10.956   2.909  0.0840 -0.2671  0.5047
  470MOL0     H64841   3.848  10.897   2.953  0.0972 -1.1654  0.7416
  470MOL0     H64842   3.482  10.867   2.826  2.8394 -1.4732 -1.4412
  470MOL0     H64843   3.239  10.841   2.875 -1.1508  0.2903 -0.3088
  470MOL0     H64844   1.235  10.836   2.541  1.1530 -0.3066 -1.3085
  470MOL0     H64845   1.042  10.832   2.393  2.7814 -0.7548 -0.3003
  470MOL0     H64846   0.615  11.031   2.395 -0.4235  1.3244 -0.7132
  470MOL0     H64847   0.399  10.994   2.332  1.1109 -1.2842  0.7576
  470MOL0     H64848   0.285  11.075   1.889 -1.7875  2.1706  3.3487
  470MOL0     H64849   0.303  10.898   1.902  0.6477 -0.3160  2.4939
  470MOL0     H64850   0.077  10.892   1.998 -1.1526 -1.6283 -1.9972
  470MOL0     H64851   0.081  10.946   1.834  1.7972 -1.9601 -0.6946
  470MOL0     H64852   0.054  11.127   2.071 -3.0603  2.1976  0.3711
  470MOL0     H64853   0.054  11.183   1.910 -1.5941 -0.0406 -0.4432
  470MOL0     H64854  -0.161  11.083   1.848  1.1364 -1.1866  0.1179
  470MOL0     H64855  -0.177  11.174   1.998  1.2560  0.4484  1.3595
  470MOL0     H64856  -0.255  10.795   2.155 -0.8257 -0.1931 -0.1104
  470MOL0     H64857   0.519  10.971   1.917 -0.8439  0.6970  0.4927
  470MOL0     H64858   0.739  10.926   1.863  0.3022 -0.5056  0.5727
  470MOL0     H64859   0.842  11.043   1.951 -0.3216 -0.0107  1.5410
  470MOL0     H64860   0.853  10.867   1.976  0.8560 -0.3723 -0.7008
  471MOL0     O64861   9.303   6.580   9.716 -0.2913 -0.1577 -0.9180
  471MOL0     C64862   9.249   6.684   9.766 -0.4970  0.4172 -0.5260
  471MOL0     O64863   9.311   6.781   9.821  0.4454 -0.2206 -0.3559
  471MOL0     C64864   9.447   6.769   9.806  0.3160 -0.4540 -0.2999
  471MOL0     C64865   9.533   6.762   9.918 -1.0353 -0.1007  0.0614
  471MOL0     C64866   9.670   6.772   9.904 -0.5513  0.6315  0.2967
  471MOL0     C64867   9.730   6.777   9.776 -0.5338 -0.0399 -0.6654
  471MOL0     O64868   9.868   6.784   9.779 -0.5309  0.2511  0.6949
  471MOL0     C64869   9.920   6.867   9.674  0.4790  0.2331  0.5432
  471MOL0     C64870  10.076   6.890   9.699  0.1382 -0.1837  0.4161
  471MOL0     C64871  10.156   6.763   9.708 -0.8909  0.3161 -0.0722
  471MOL0     C64872  10.307   6.797   9.713  0.3506  0.8964 -0.3376
  471MOL0     C64873  10.375   6.835   9.583 -0.0846  0.0860 -0.8201
  471MOL0     C64874  10.528   6.853   9.602 -0.2452 -1.2490 -0.2470
  471MOL0     C64875  10.579   6.920   9.474  0.0124  0.3821 -0.4375
  471MOL0     C64876  10.724   6.954   9.488  0.1393  0.4541  0.1054
  471MOL0     N64877  10.749   7.047   9.599  0.5900 -0.5210 -0.3537
  471MOL0     C64878  10.830   7.038   9.713  0.7008 -0.1045 -0.9718
  471MOL0     C64879  10.808   7.155   9.781  0.7419  0.6446 -0.5138
  471MOL0     C64880  10.843   7.184   9.922  0.0791  0.0493 -0.0817
  471MOL0     C64881  10.738   7.235  10.023  0.0893  0.2397  0.6843
  471MOL0     C64882  10.794   7.237  10.165  0.5541 -0.7945  0.1830
  471MOL0     C64883  10.682   7.261  10.271  0.2700 -0.7214  0.7928
  471MOL0     O64884  10.623   7.394  10.245  0.1020 -0.7940 -0.0439
  471MOL0     C64885  10.486   7.412  10.262 -0.1768  0.0979 -0.0013
  471MOL0     C64886  10.462   7.521  10.346  0.1826 -0.2504  0.3984
  471MOL0     C64887  10.333   7.538  10.393 -0.3356 -0.3109  0.0315
  471MOL0     C64888  10.338   7.622  10.519  0.3493 -0.8003  0.6310
  471MOL0     C64889  10.227   7.463  10.334  0.2243 -0.4523 -0.6869
  471MOL0     C64890  10.084   7.485  10.372 -0.1425  0.1452  0.9240
  471MOL0     O64891   9.995   7.389  10.334  0.1791 -0.2683  0.0936
  471MOL0     C64892   9.870   7.432  10.302  0.5112  0.1705  0.4111
  471MOL0     C64893   9.830   7.430  10.169 -0.1714  0.4293  0.0297
  471MOL0     C64894   9.697   7.470  10.134 -0.7683 -1.1754  0.7179
  471MOL0     C64895   9.606   7.527  10.224 -0.0954  0.6917 -0.3424
  471MOL0     O64896   9.494   7.579  10.176  0.4723  1.2671  0.4108
  471MOL0     C64897   9.381   7.489  10.198 -0.9990  0.3294 -1.3641
  471MOL0     C64898   9.311   7.481  10.333 -0.3575 -0.3933 -0.0049
  471MOL0     C64899   9.246   7.612  10.361 -1.4954  0.7142 -0.9709
  471MOL0     C64900   9.112   7.626  10.287 -0.2736  0.3961  0.0037
  471MOL0     C64901   9.035   7.742  10.326  0.1344 -0.0338  0.2451
  471MOL0     C64902   8.946   7.717  10.443  0.7453 -0.4732 -0.5127
  471MOL0     C64903   8.883   7.848  10.477 -0.1207 -0.1273  0.8929
  471MOL0     C64904   8.789   7.839  10.602  0.1915 -0.2181 -0.3816
  471MOL0    Cl64905   8.651   7.730  10.558 -0.2605 -0.2325  0.2690
  471MOL0     C64906   9.648   7.519  10.363  0.2306 -0.4282 -0.7453
  471MOL0     C64907   9.774   7.475  10.396 -0.7336  0.6012 -0.2357
  471MOL0     O64908  10.050   7.594  10.429  0.1369  0.1801  0.1948
  471MOL0     C64909  10.253   7.359  10.242 -0.2855 -0.5357  0.2635
  471MOL0     C64910  10.384   7.331  10.208 -0.4173  0.4056 -0.6710
  471MOL0     N64911  10.721   7.229   9.707  0.8840 -0.7155  0.9512
  471MOL0     N64912  10.691   7.170   9.600 -0.4851 -0.1820 -0.2164
  471MOL0     C64913   9.635   6.769   9.666 -0.0868 -0.1263 -0.7179
  471MOL0     C64914   9.505   6.780   9.682  0.8253 -1.3027  0.2411
  471MOL0     C64915   9.108   6.684   9.745 -0.0085 -0.0181  0.7701
  471MOL0     C64916   9.076   6.692   9.609  0.0031  0.2344 -0.2483
  471MOL0     C64917   8.941   6.707   9.568  0.3839 -0.1932  0.4917
  471MOL0     C64918   8.830   6.713   9.660  0.1663 -0.2079  0.4530
  471MOL0     O64919   8.701   6.732   9.621 -0.5375 -0.0354 -0.7387
  471MOL0     C64920   8.606   6.630   9.643 -0.1144 -0.3878 -0.5682
  471MOL0     C64921   8.511   6.679   9.757 -0.6189 -0.4821  0.5913
  471MOL0     C64922   8.417   6.789   9.708  0.7219 -0.0912 -0.1391
  471MOL0     C64923   8.316   6.727   9.609  0.4230  0.3585  0.4821
  471MOL0     C64924   8.186   6.798   9.609 -0.0034  0.1779  0.0127
  471MOL0     C64925   8.074   6.839   9.611 -0.3644 -0.9884  0.6230
  471MOL0     C64926   8.862   6.689   9.796 -0.7738 -0.3176 -0.4809
  471MOL0     C64927   8.999   6.682   9.836  0.5096 -0.7040 -0.2633
  471MOL0     C64928   9.034   6.669   9.979  0.2319  0.4155  0.2830
  471MOL0     H64929   9.493   6.764  10.019  0.1867  1.6748  0.5520
  471MOL0     H64930   9.728   6.753   9.994 -1.0733 -0.0812  0.4960
  471MOL0     H64931   9.884   6.969   9.662 -0.1651  0.0072  0.5324
  471MOL0     H64932   9.918   6.805   9.583  0.4838  1.2607 -0.1752
  471MOL0     H64933  10.107   6.946   9.611 -1.8284  2.8455  1.4586
  471MOL0     H64934  10.101   6.954   9.784  1.3590 -0.4911  0.2969
  471MOL0     H64935  10.134   6.707   9.799 -1.3584 -3.7717 -2.4740
  471MOL0     H64936  10.151   6.694   9.623 -0.3343  2.4800 -1.9666
  471MOL0     H64937  10.335   6.872   9.788  0.7515  0.6806 -0.2649
  471MOL0     H64938  10.358   6.703   9.738 -1.6632 -0.0938  0.2039
  471MOL0     H64939  10.329   6.932   9.563 -0.7758 -0.5747 -2.6733
  471MOL0     H64940  10.353   6.766   9.501 -1.3291 -0.9278  0.3209
  471MOL0     H64941  10.535   6.913   9.693 -0.2634 -2.3568  0.5136
  471MOL0     H64942  10.554   6.748   9.622 -1.7833 -1.7018 -0.5248
  471MOL0     H64943  10.525   7.009   9.441  1.5886  1.5514  0.0472
  471MOL0     H64944  10.560   6.846   9.396 -1.1974  4.4184 -4.3868
  471MOL0     H64945  10.777   6.865   9.524 -1.9576  0.7836  4.7572
  471MOL0     H64946  10.769   6.996   9.398  0.4566  0.8835  0.4609
  471MOL0     H64947  10.888   6.953   9.747  1.5562  1.2139  1.0775
  471MOL0     H64948  10.903   7.274   9.910  1.8528 -0.9729  0.7122
  471MOL0     H64949  10.898   7.097   9.960 -2.6996 -0.8796  2.1627
  471MOL0     H64950  10.707   7.335   9.992 -2.4812 -1.0702 -1.3849
  471MOL0     H64951  10.648   7.173  10.022 -0.3766  0.9015  0.9279
  471MOL0     H64952  10.834   7.137  10.184 -0.4049 -0.7873  2.5197
  471MOL0     H64953  10.863   7.321  10.160  1.1204 -1.2930 -0.6149
  471MOL0     H64954  10.597   7.194  10.256  0.5127 -0.7875 -0.3798
  471MOL0     H64955  10.713   7.258  10.376  0.5505 -1.1909  0.7022
  471MOL0     H64956  10.554   7.569  10.379  0.0326  0.7473 -0.5802
  471MOL0     H64957  10.254   7.594  10.583 -0.0988  0.3860  0.5757
  471MOL0     H64958  10.333   7.730  10.503 -2.7136 -0.6502  1.8834
  471MOL0     H64959  10.425   7.591  10.578 -0.0800  1.0432  2.3156
  471MOL0     H64960   9.910   7.404  10.099 -0.1738 -4.3636  1.4187
  471MOL0     H64961   9.670   7.468  10.029  5.5042 -1.9020 -1.3059
  471MOL0     H64962   9.306   7.530  10.129  0.2224  2.6932 -1.4064
  471MOL0     H64963   9.411   7.385  10.178 -0.9730  0.2085 -0.6977
  471MOL0     H64964   9.237   7.400  10.328 -1.3760  0.3695  1.6844
  471MOL0     H64965   9.389   7.458  10.406 -1.2613  2.4003  2.0494
  471MOL0     H64966   9.310   7.693  10.327  2.9854 -2.7235 -1.7347
  471MOL0     H64967   9.230   7.615  10.469 -0.2486  2.1455 -0.7891
  471MOL0     H64968   9.058   7.533  10.308  0.1881  0.0678 -0.2474
  471MOL0     H64969   9.151   7.636  10.185  4.2343 -2.6941  1.0880
  471MOL0     H64970   9.096   7.832  10.342 -0.4066  0.1589  1.3465
  471MOL0     H64971   8.962   7.762  10.247 -0.1193  1.9393  0.9025
  471MOL0     H64972   9.009   7.694  10.529  0.0211  1.7850  0.6906
  471MOL0     H64973   8.864   7.649  10.415 -1.4514  1.6431  0.4136
  471MOL0     H64974   8.836   7.903  10.395 -0.3162  0.3626  1.3275
  471MOL0     H64975   8.973   7.905  10.503  1.0778 -1.9031  0.7823
  471MOL0     H64976   8.750   7.939  10.626  2.1318  0.0717  2.1270
  471MOL0     H64977   8.834   7.799  10.694 -1.5558  0.0096  0.6143
  471MOL0     H64978   9.577   7.566  10.429 -0.9429  0.5484 -2.6211
  471MOL0     H64979   9.791   7.471  10.503  0.4272 -2.3894 -0.4447
  471MOL0     H64980  10.169   7.308  10.195 -0.1208  0.9392 -1.7744
  471MOL0     H64981  10.402   7.252  10.136  0.6577 -1.3124  1.3469
  471MOL0     H64982   9.686   6.771   9.570 -0.0915  1.3944 -0.7065
  471MOL0     H64983   9.444   6.788   9.593  1.3591  1.1131  0.0184
  471MOL0     H64984   9.153   6.676   9.534 -1.8643 -2.0121 -1.8456
  471MOL0     H64985   8.919   6.727   9.464 -2.4582  0.4263  1.1357
  471MOL0     H64986   8.565   6.604   9.545 -1.0170  0.9994 -0.5902
  471MOL0     H64987   8.660   6.541   9.674  1.0398  0.5365  0.1885
  471MOL0     H64988   8.571   6.723   9.837 -0.9832  3.2294 -0.9914
  471MOL0     H64989   8.455   6.598   9.807  1.0603 -0.7905  2.0587
  471MOL0     H64990   8.361   6.845   9.784 -0.3224  0.1816 -1.0906
  471MOL0     H64991   8.475   6.867   9.658 -0.4259  1.5253  0.9390
  471MOL0     H64992   8.299   6.620   9.627 -1.5121  0.8851  2.1519
  471MOL0     H64993   8.346   6.745   9.506 -4.1417  1.8720 -0.7913
  471MOL0     H64994   7.971   6.866   9.619 -0.9300 -2.8313 -0.0148
  471MOL0     H64995   8.774   6.678   9.859  0.0902 -1.4781  0.5834
  471MOL0     H64996   9.110   6.592   9.995 -0.1258 -0.0211 -0.0711
  471MOL0     H64997   9.063   6.762  10.028 -0.7670  0.5521  0.6335
  471MOL0     H64998   8.941   6.644  10.031 -0.4459  1.2758 -0.4811
  472MOL0     O64999   6.042  10.949   7.821 -0.3678  0.4324  0.3834
  472MOL0     C65000   5.964  10.917   7.735  0.6686  0.0615  0.0556
  472MOL0     O65001   5.965  10.808   7.655  0.1362 -0.5506 -0.3010
  472MOL0     C65002   6.056  10.707   7.683  0.4384 -0.6131 -0.8667
  472MOL0     C65003   6.017  10.603   7.769  0.7047  0.6901  0.6694
  472MOL0     C65004   6.109  10.496   7.805 -0.1663  0.1672  0.3686
  472MOL0     C65005   6.232  10.492   7.744  0.9088 -0.0667 -0.3508
  472MOL0     O65006   6.312  10.382   7.758  0.0387  0.0003  0.1575
  472MOL0     C65007   6.324  10.331   7.895  0.0151 -0.4334 -0.2937
  472MOL0     C65008   6.423  10.211   7.900 -0.0635 -0.2495 -0.5621
  472MOL0     C65009   6.558  10.248   7.832 -0.2883 -0.3694  0.5515
  472MOL0     C65010   6.652  10.378   7.854  0.6358  0.4155  0.2390
  472MOL0     C65011   6.757  10.379   7.748  0.0913 -0.5127 -0.2579
  472MOL0     C65012   6.867  10.272   7.746 -0.1986  0.0954  0.3995
  472MOL0     C65013   6.998  10.308   7.671  1.0264  0.8718 -0.1826
  472MOL0     C65014   7.109  10.199   7.703 -0.0029  0.3696  0.0396
  472MOL0     N65015   7.230  10.244   7.639  0.2172  0.3217 -0.8777
  472MOL0     C65016   7.321  10.335   7.680  0.4868  0.6731  0.1672
  472MOL0     C65017   7.403  10.353   7.576 -1.3502  0.3712  0.1250
  472MOL0     C65018   7.536  10.427   7.575 -0.4871 -0.4277  0.1201
  472MOL0     C65019   7.631  10.362   7.675  0.0622  0.1456  0.5289
  472MOL0     C65020   7.767  10.438   7.685  0.6851  0.4371 -0.0072
  472MOL0     C65021   7.882  10.348   7.722 -0.8427 -0.3328 -0.3556
  472MOL0     O65022   7.915  10.267   7.612  0.0980 -0.0458  0.1450
  472MOL0     C65023   8.042  10.218   7.602 -0.3051 -0.3929  0.0037
  472MOL0     C65024   8.077  10.158   7.480 -0.1976  0.2045 -0.5530
  472MOL0     C65025   8.210  10.115   7.449  0.2977 -0.0065  0.1444
  472MOL0     C65026   8.229  10.033   7.320 -0.3611 -0.1322 -0.3633
  472MOL0     C65027   8.309  10.136   7.544  0.2844 -0.2553  0.1753
  472MOL0     C65028   8.450  10.092   7.538  0.6263 -0.0284  0.0866
  472MOL0     O65029   8.550  10.158   7.604  0.4084 -0.6329  0.3781
  472MOL0     C65030   8.663  10.089   7.655  0.5062  0.4706  0.6642
  472MOL0     C65031   8.782  10.158   7.664  0.7029  0.6180 -0.0201
  472MOL0     C65032   8.893  10.091   7.715 -0.0686  0.2030  0.8890
  472MOL0     C65033   8.894   9.958   7.760  0.3696  0.4759  0.4168
  472MOL0     O65034   8.994   9.889   7.825 -0.6371 -0.5383  0.5069
  472MOL0     C65035   9.130   9.921   7.795  0.0489  1.0344 -0.1214
  472MOL0     C65036   9.163   9.899   7.639  0.5817 -0.0059 -0.1351
  472MOL0     C65037   9.304   9.892   7.614  0.0081  0.6562  0.6243
  472MOL0     C65038   9.345   9.876   7.464  0.1079 -0.1866  0.1221
  472MOL0     C65039   9.481   9.814   7.436 -0.2126 -1.0999 -0.4132
  472MOL0     C65040   9.472   9.668   7.457 -0.6118 -0.6261  0.2091
  472MOL0     C65041   9.608   9.605   7.438  0.1113  0.9057 -0.4455
  472MOL0     C65042   9.597   9.453   7.445  0.7083  0.5171  0.7041
  472MOL0    Cl65043   9.542   9.402   7.618 -0.1608 -0.1882  0.0547
  472MOL0     C65044   8.774   9.887   7.739  0.2341  0.2921 -0.2447
  472MOL0     C65045   8.660   9.955   7.687  0.1186 -0.8258 -0.5107
  472MOL0     O65046   8.466   9.993   7.474  0.7312  0.3324  0.4045
  472MOL0     C65047   8.274  10.202   7.663  0.1789  0.5682  0.5134
  472MOL0     C65048   8.144  10.239   7.683  0.2224 -0.3987  0.1711
  472MOL0     N65049   7.372  10.270   7.471 -0.0041  0.1193 -0.2474
  472MOL0     N65050   7.261  10.215   7.508 -0.1300  0.4344  0.0889
  472MOL0     C65051   6.272  10.589   7.651 -0.2838 -0.2146 -0.0123
  472MOL0     C65052   6.187  10.701   7.624 -0.2990  0.2484  0.4606
  472MOL0     C65053   5.841  11.004   7.729 -0.4402 -0.6125 -1.0170
  472MOL0     C65054   5.844  11.122   7.806  0.2993  0.5466  0.0840
  472MOL0     C65055   5.750  11.215   7.797  0.6588  0.6420 -0.2381
  472MOL0     C65056   5.651  11.202   7.702 -0.4740  0.4136  0.2903
  472MOL0     O65057   5.570  11.309   7.685 -0.4424 -0.1544  0.4694
  472MOL0     C65058   5.467  11.318   7.794 -0.3619 -0.8210  0.0076
  472MOL0     C65059   5.340  11.368   7.729 -0.0531 -0.4428 -0.5178
  472MOL0     C65060   5.223  11.345   7.827 -0.2329 -1.1027 -0.2948
  472MOL0     C65061   5.106  11.417   7.753  0.3079 -0.3183  0.2010
  472MOL0     C65062   4.984  11.401   7.840 -0.7670  0.3696  0.8231
  472MOL0     C65063   4.878  11.388   7.888  1.1303 -0.4208 -0.2145
  472MOL0     C65064   5.635  11.092   7.628  1.3072  0.3281  0.3661
  472MOL0     C65065   5.734  10.990   7.629 -1.0551  0.3165 -0.1465
  472MOL0     C65066   5.724  10.880   7.525  0.5015  1.2372  0.6665
  472MOL0     H65067   5.922  10.606   7.821  1.9885  1.3450  3.1541
  472MOL0     H65068   6.068  10.415   7.865 -1.4367  0.3233 -0.2539
  472MOL0     H65069   6.228  10.295   7.933  0.1517 -2.5733 -1.7817
  472MOL0     H65070   6.356  10.412   7.961 -2.0043  0.4276 -0.2843
  472MOL0     H65071   6.430  10.181   8.005  1.4329  1.2788 -0.1838
  472MOL0     H65072   6.384  10.126   7.842  0.1962 -0.1098 -0.9465
  472MOL0     H65073   6.628  10.166   7.848  2.5860  2.2310  2.4781
  472MOL0     H65074   6.545  10.236   7.724  0.8053  0.3951  0.3208
  472MOL0     H65075   6.596  10.471   7.838  0.5325 -0.0572 -2.6977
  472MOL0     H65076   6.690  10.384   7.956 -3.3575 -1.3824  2.0408
  472MOL0     H65077   6.817  10.471   7.749 -0.1893 -0.3260 -0.4044
  472MOL0     H65078   6.709  10.374   7.650 -2.4163  1.4016  0.7620
  472MOL0     H65079   6.892  10.237   7.847  0.8953 -1.1943 -0.2842
  472MOL0     H65080   6.820  10.184   7.703 -1.4602  0.4000  1.0919
  472MOL0     H65081   7.030  10.406   7.708  3.5428  0.4387 -1.0205
  472MOL0     H65082   6.983  10.324   7.564 -3.6799  0.7918  0.2358
  472MOL0     H65083   7.129  10.190   7.811 -0.7976  0.2867  0.1846
  472MOL0     H65084   7.081  10.095   7.684  2.6920 -0.8917  2.1932
  472MOL0     H65085   7.329  10.381   7.778  0.6369  1.0195 -0.0048
  472MOL0     H65086   7.527  10.535   7.586  0.6904 -0.4476  1.6487
  472MOL0     H65087   7.570  10.411   7.472  1.1799 -1.8294  0.8413
  472MOL0     H65088   7.586  10.351   7.774  2.0508 -0.8448  1.3656
  472MOL0     H65089   7.648  10.260   7.640 -1.4045 -0.5457  1.7019
  472MOL0     H65090   7.800  10.490   7.594  2.0385 -0.2500  0.0784
  472MOL0     H65091   7.751  10.514   7.762  1.1613  1.6178 -1.0294
  472MOL0     H65092   7.961  10.413   7.761 -0.7962 -1.3212  1.2518
  472MOL0     H65093   7.856  10.275   7.799  1.6713 -2.9657 -1.8014
  472MOL0     H65094   8.002  10.125   7.409  1.4675 -1.0128 -1.8254
  472MOL0     H65095   8.141  10.040   7.255  0.3735 -0.1308 -1.3753
  472MOL0     H65096   8.228   9.925   7.337 -2.7979 -0.6566 -3.0804
  472MOL0     H65097   8.316  10.066   7.263 -1.2540 -0.4235 -1.9460
  472MOL0     H65098   8.786  10.264   7.639  3.1571  0.6322  0.1508
  472MOL0     H65099   8.984  10.145   7.739 -1.4470  1.8305  2.8907
  472MOL0     H65100   9.152  10.022   7.831  0.1989  0.4887  1.4077
  472MOL0     H65101   9.190   9.855   7.859  2.9286  2.6143 -1.0159
  472MOL0     H65102   9.110   9.808   7.612 -0.1847  0.7156 -1.1691
  472MOL0     H65103   9.121   9.976   7.573 -1.9112 -1.5229 -0.4582
  472MOL0     H65104   9.338   9.802   7.666  1.3058 -0.6023 -2.1882
  472MOL0     H65105   9.346   9.984   7.656  0.0381  0.3483  1.2979
  472MOL0     H65106   9.342   9.967   7.403  0.7684  0.0275  0.4017
  472MOL0     H65107   9.266   9.815   7.420 -0.4799 -1.2350  2.4858
  472MOL0     H65108   9.515   9.838   7.335  0.7938  0.8247  0.3448
  472MOL0     H65109   9.551   9.847   7.513  0.2877  0.2163 -1.3936
  472MOL0     H65110   9.411   9.631   7.374 -1.8710 -0.6360  1.1169
  472MOL0     H65111   9.423   9.634   7.548  3.7333 -1.7719  2.3828
  472MOL0     H65112   9.683   9.641   7.509  0.5051 -2.4993  1.0584
  472MOL0     H65113   9.648   9.628   7.339 -0.3037 -1.4814 -1.2509
  472MOL0     H65114   9.697   9.418   7.417  1.2979  2.0766  0.7206
  472MOL0     H65115   9.519   9.432   7.371 -0.2721 -0.9088  2.0741
  472MOL0     H65116   8.754   9.788   7.778 -3.1818  2.6265  5.0462
  472MOL0     H65117   8.571   9.893   7.678 -1.3344  1.0201  0.4018
  472MOL0     H65118   8.346  10.233   7.738  0.7265 -1.6949  0.9977
  472MOL0     H65119   8.113  10.286   7.776 -0.6296  2.6679 -1.5250
  472MOL0     H65120   6.373  10.578   7.613  0.0968  2.7645 -0.1025
  472MOL0     H65121   6.210  10.790   7.567 -2.2521  0.1912 -0.5030
  472MOL0     H65122   5.927  11.140   7.875 -1.8183  0.6854  2.7648
  472MOL0     H65123   5.746  11.297   7.868 -4.8353  1.3842 -0.9563
  472MOL0     H65124   5.444  11.223   7.843 -2.9445  0.0585  0.6621
  472MOL0     H65125   5.495  11.385   7.877  1.2975  0.9580 -1.8727
  472MOL0     H65126   5.331  11.307   7.638 -2.3164 -1.5490  0.3799
  472MOL0     H65127   5.340  11.474   7.703 -1.2612 -0.6451 -1.4252
  472MOL0     H65128   5.205  11.239   7.851 -0.1470 -0.7503  1.4376
  472MOL0     H65129   5.245  11.394   7.922  0.4002 -0.4862 -0.7527
  472MOL0     H65130   5.092  11.362   7.660  0.0960 -3.5826  1.9955
  472MOL0     H65131   5.140  11.519   7.735  3.1151 -1.3860 -1.1619
  472MOL0     H65132   4.782  11.381   7.936  2.4071 -0.6408  2.4925
  472MOL0     H65133   5.556  11.101   7.554  0.0214 -0.1713  1.6334
  472MOL0     H65134   5.814  10.863   7.466  0.0717 -4.2635  1.0888
  472MOL0     H65135   5.714  10.782   7.573  0.8153  0.2544 -1.1852
  472MOL0     H65136   5.642  10.903   7.457  0.2135  0.2661  0.6821
  473MOL0     O65137   0.152   1.590  10.234 -0.1982 -0.0672  0.2551
  473MOL0     C65138   0.129   1.625  10.344  0.4353  0.6978 -0.8427
  473MOL0     O65139   0.211   1.585  10.442 -0.3645 -0.0624 -0.1132
  473MOL0     C65140   0.344   1.595  10.438 -0.2740 -0.7715 -0.0754
  473MOL0     C65141   0.415   1.522  10.531  0.5793 -0.0689  0.3851
  473MOL0     C65142   0.559   1.517  10.527 -0.0231 -0.0249  0.7700
  473MOL0     C65143   0.623   1.595  10.421  0.4197 -0.0410 -0.4690
  473MOL0     O65144   0.756   1.612  10.398 -0.2171  0.7962 -0.2019
  473MOL0     C65145   0.843   1.512  10.459 -0.3354 -0.6660 -0.0701
  473MOL0     C65146   0.964   1.484  10.364 -0.2218  0.5196  0.1688
  473MOL0     C65147   1.047   1.364  10.403 -0.1640 -0.7377  0.2773
  473MOL0     C65148   1.115   1.365  10.544  1.5115 -1.2559  0.1600
  473MOL0     C65149   1.192   1.236  10.565  0.4533  0.1313 -0.2241
  473MOL0     C65150   1.278   1.243  10.697  0.0385  0.5418  0.1000
  473MOL0     C65151   1.285   1.108  10.761 -0.3224 -0.3283 -0.5991
  473MOL0     C65152   1.363   1.113  10.893 -0.8508 -0.3800  0.6546
  473MOL0     N65153   1.505   1.121  10.870 -0.2165 -1.1941  0.3271
  473MOL0     C65154   1.580   1.010  10.855  0.1324  0.2568 -0.2969
  473MOL0     C65155   1.700   1.053  10.868 -0.8419 -0.2683 -0.1323
  473MOL0     C65156   1.820   0.957  10.889 -0.6968  0.3474 -0.7497
  473MOL0     C65157   1.949   1.001  10.837 -0.4220 -0.7665  0.9001
  473MOL0     C65158   2.045   0.890  10.863 -0.6563  0.4649  0.8610
  473MOL0     C65159   2.197   0.920  10.868  0.4583 -1.0807 -0.2853
  473MOL0     O65160   2.198   1.001  10.991 -0.2650 -0.2086  0.7117
  473MOL0     C65161   2.318   0.997  11.064 -0.1385  0.3161 -0.0466
  473MOL0     C65162   2.449   0.944  11.008 -0.5048 -0.4528 -0.5505
  473MOL0     C65163   2.560   0.925  11.095 -0.1087  0.4908 -0.2518
  473MOL0     C65164   2.671   0.835  11.038 -0.3855  0.0883 -0.1612
  473MOL0     C65165   2.563   0.970  11.224  0.4470 -0.9355 -0.3664
  473MOL0     C65166   2.669   0.952  11.327 -0.1978 -0.6244  0.4371
  473MOL0     O65167   2.639   0.970  11.459  0.1968  0.4708 -0.6667
  473MOL0     C65168   2.735   0.949  11.557 -0.3845 -0.1396 -0.5065
  473MOL0     C65169   2.715   1.014  11.677 -0.3316 -1.0887 -0.5849
  473MOL0     C65170   2.793   0.990  11.794 -0.2777  0.3883  0.0527
  473MOL0     C65171   2.900   0.906  11.790 -0.7731 -0.0226  0.1841
  473MOL0     O65172   2.990   0.889  11.896 -0.2992  0.0164  0.2497
  473MOL0     C65173   2.970   0.975  12.010  0.4603 -0.7948  0.1831
  473MOL0     C65174   3.016   1.117  11.999  0.9458  0.2792 -0.7536
  473MOL0     C65175   3.147   1.135  11.918 -0.5202  0.2675  0.4606
  473MOL0     C65176   3.185   1.287  11.887  0.9407  0.2744 -0.3879
  473MOL0     C65177   3.329   1.307  11.827  0.0624  0.1489 -0.8522
  473MOL0     C65178   3.428   1.215  11.890 -0.6408  0.7460 -0.3579
  473MOL0     C65179   3.570   1.252  11.850  0.3129  0.3137  0.9441
  473MOL0     C65180   3.617   1.173  11.730  0.5254 -0.0686 -0.0879
  473MOL0    Cl65181   3.773   1.240  11.693 -0.3578 -0.1819 -0.4482
  473MOL0     C65182   2.915   0.832  11.675 -0.9589 -0.0732  0.6580
  473MOL0     C65183   2.835   0.850  11.559  0.7706 -0.7721  0.0049
  473MOL0     O65184   2.780   0.923  11.280 -0.3195  0.2687  0.3273
  473MOL0     C65185   2.442   1.031  11.269  0.3039 -0.6189  0.1758
  473MOL0     C65186   2.327   1.049  11.189 -0.4631 -1.4942  0.4290
  473MOL0     N65187   1.702   1.192  10.890  0.3349 -0.0005 -0.5398
  473MOL0     N65188   1.581   1.238  10.888 -0.7493  0.2608 -0.3608
  473MOL0     C65189   0.544   1.663  10.327 -0.4243  0.7927 -0.6004
  473MOL0     C65190   0.408   1.667  10.335 -0.0183  0.4006 -0.2005
  473MOL0     C65191  -0.001   1.680  10.377 -0.4392 -1.1378  0.3041
  473MOL0     C65192  -0.007   1.797  10.460 -0.0458 -1.7587  0.3158
  473MOL0     C65193  -0.127   1.858  10.480 -0.8493  0.3488  0.0730
  473MOL0     C65194  -0.246   1.794  10.442  0.0780 -0.4758 -0.3449
  473MOL0     O65195  -0.357   1.848  10.488 -0.9948 -0.0142 -0.1713
  473MOL0     C65196  -0.483   1.810  10.431 -0.7259  0.6339 -0.8859
  473MOL0     C65197  -0.537   1.682  10.494  0.3411  0.2383  0.0438
  473MOL0     C65198  -0.677   1.705  10.557  0.0015 -0.5817 -0.0063
  473MOL0     C65199  -0.717   1.593  10.655 -0.3894 -0.6035 -0.2474
  473MOL0     C65200  -0.757   1.470  10.589  0.1098  0.3068  0.0991
  473MOL0     C65201  -0.774   1.350  10.550 -1.0486  0.0162  1.3105
  473MOL0     C65202  -0.247   1.676  10.374  0.4861 -1.1065 -0.8748
  473MOL0     C65203  -0.123   1.631  10.327 -0.0143 -0.5596 -0.9596
  473MOL0     C65204  -0.124   1.511  10.243 -0.7053  0.0168 -0.5601
  473MOL0     H65205   0.365   1.468  10.611  0.0861  1.0290  0.8484
  473MOL0     H65206   0.620   1.482  10.609 -1.2211 -1.4651  1.0912
  473MOL0     H65207   0.797   1.417  10.486  2.7555 -2.2989 -0.1480
  473MOL0     H65208   0.883   1.544  10.556  1.4253  0.3801 -1.0848
  473MOL0     H65209   0.927   1.455  10.266 -0.6626 -2.0979  1.0460
  473MOL0     H65210   1.030   1.571  10.348  1.7573 -0.7426  1.0180
  473MOL0     H65211   0.986   1.274  10.417 -2.0124  0.3556 -0.5136
  473MOL0     H65212   1.119   1.351  10.322  1.5202  1.0955  1.3864
  473MOL0     H65213   1.184   1.450  10.554  1.3661 -1.3797  2.8326
  473MOL0     H65214   1.040   1.382  10.621  1.0684  5.1630 -1.1366
  473MOL0     H65215   1.246   1.223  10.471  0.1821  0.7813 -0.4751
  473MOL0     H65216   1.114   1.162  10.582 -1.2454  2.2277  1.7752
  473MOL0     H65217   1.377   1.278  10.667 -0.0404 -1.3275 -2.8024
  473MOL0     H65218   1.244   1.319  10.768  3.6078  0.4687  2.0772
  473MOL0     H65219   1.340   1.041  10.695  0.4187  0.0796 -0.4011
  473MOL0     H65220   1.189   1.057  10.775  0.5118 -1.9277 -0.4857
  473MOL0     H65221   1.329   1.197  10.954 -0.7878 -0.7454  1.1937
  473MOL0     H65222   1.338   1.017  10.938  2.2587 -3.5319 -3.4834
  473MOL0     H65223   1.538   0.910  10.851 -0.3255  0.2252  2.7927
  473MOL0     H65224   1.796   0.857  10.852 -2.6146 -1.2708  4.0735
  473MOL0     H65225   1.835   0.956  10.997  1.0188  1.1617 -0.9519
  473MOL0     H65226   1.940   1.006  10.728 -0.3457 -0.2859  0.9143
  473MOL0     H65227   1.964   1.099  10.883 -2.3984  0.2851 -0.5636
  473MOL0     H65228   2.023   0.848  10.962  0.8578  1.4211  1.6430
  473MOL0     H65229   2.027   0.810  10.791 -0.9510  1.4465 -0.1850
  473MOL0     H65230   2.241   0.820  10.874 -2.0638 -2.2393  0.2606
  473MOL0     H65231   2.249   0.972  10.787 -1.0632  1.0018  0.0094
  473MOL0     H65232   2.458   0.894  10.912  0.5966  0.2811 -0.8401
  473MOL0     H65233   2.771   0.879  11.033 -0.6789  1.2651  2.7680
  473MOL0     H65234   2.652   0.802  10.935  0.3000 -2.7428  0.5329
  473MOL0     H65235   2.673   0.742  11.096 -2.1185  1.5043  2.3620
  473MOL0     H65236   2.628   1.077  11.692  1.1580  1.1827 -1.0070
  473MOL0     H65237   2.766   1.059  11.874 -0.1209  3.1217 -2.0915
  473MOL0     H65238   2.871   0.968  12.056  1.4299 -2.2317  2.2450
  473MOL0     H65239   3.034   0.942  12.093 -1.1381  2.8755  3.2000
  473MOL0     H65240   2.934   1.164  11.945  0.1437 -0.3909 -0.1390
  473MOL0     H65241   3.024   1.161  12.099  0.3601  0.5795 -0.8340
  473MOL0     H65242   3.144   1.092  11.817 -1.0390  1.0121  0.1462
  473MOL0     H65243   3.226   1.089  11.977  0.1917  1.2394  0.2979
  473MOL0     H65244   3.186   1.333  11.986 -1.9149  1.9337 -1.0209
  473MOL0     H65245   3.112   1.335  11.822  1.5401 -1.6154 -2.6058
  473MOL0     H65246   3.321   1.298  11.718  1.1831  0.8040 -0.9979
  473MOL0     H65247   3.346   1.412  11.850 -0.4656 -0.1758  1.2451
  473MOL0     H65248   3.415   1.109  11.865  0.5748  0.3588  0.5257
  473MOL0     H65249   3.427   1.219  11.999 -1.5631  0.4611 -0.3489
  473MOL0     H65250   3.629   1.226  11.938  1.4260  0.2244  0.1839
  473MOL0     H65251   3.574   1.359  11.826  2.4982  0.0450 -0.1167
  473MOL0     H65252   3.561   1.195  11.639  0.7083  0.7466 -0.0062
  473MOL0     H65253   3.620   1.067  11.757 -2.4675  0.3514  2.4912
  473MOL0     H65254   2.986   0.751  11.665 -0.8890 -0.2001  1.9593
  473MOL0     H65255   2.842   0.793  11.466  0.4658  0.6497 -0.9162
  473MOL0     H65256   2.438   1.080  11.366  3.9688  0.3173  0.0179
  473MOL0     H65257   2.238   1.101  11.224 -0.0327  1.1857 -2.0619
  473MOL0     H65258   0.591   1.729  10.256 -1.3816 -0.6691 -2.7192
  473MOL0     H65259   0.349   1.742  10.284 -1.7433 -0.9068 -0.2548
  473MOL0     H65260   0.080   1.855  10.491 -0.8366  0.3666 -1.1582
  473MOL0     H65261  -0.126   1.949  10.540 -0.7216  1.9050 -2.1929
  473MOL0     H65262  -0.556   1.889  10.451 -3.8543 -2.2005 -0.2069
  473MOL0     H65263  -0.481   1.805  10.322 -1.0082 -0.4565 -0.8561
  473MOL0     H65264  -0.473   1.645  10.574  1.6073 -0.0231 -1.0569
  473MOL0     H65265  -0.530   1.601  10.421 -0.4473 -0.8123  1.0925
  473MOL0     H65266  -0.668   1.800  10.611  0.3452 -1.3117  1.2548
  473MOL0     H65267  -0.751   1.723  10.478  1.6334 -0.2608 -1.5087
  473MOL0     H65268  -0.801   1.637  10.710  1.9032  1.7879  1.6015
  473MOL0     H65269  -0.637   1.574  10.726  3.6165  3.2743 -3.1879
  473MOL0     H65270  -0.780   1.247  10.521 -1.2155 -0.0193  1.4737
  473MOL0     H65271  -0.330   1.620  10.332 -1.4527  1.5965 -0.9857
  473MOL0     H65272  -0.102   1.537  10.139 -0.6625 -0.6205 -0.7137
  473MOL0     H65273  -0.043   1.442  10.266 -0.5480 -0.1761 -1.6410
  473MOL0     H65274  -0.224   1.472  10.221 -1.5768  1.9825 -0.2666
  474MOL0     O65275   2.526   7.374   2.770  0.2455 -0.4852  0.1195
  474MOL0     C65276   2.438   7.368   2.855 -0.0894 -0.0882  0.4052
  474MOL0     O65277   2.448   7.282   2.970 -0.0849  0.3804 -0.3455
  474MOL0     C65278   2.579   7.254   3.005  1.0060  0.3905 -0.4075
  474MOL0     C65279   2.628   7.122   3.000 -0.1674 -0.0150  0.3953
  474MOL0     C65280   2.762   7.100   3.034  0.2082 -0.8642 -0.3343
  474MOL0     C65281   2.850   7.201   3.061  0.9503 -0.7580 -0.5614
  474MOL0     O65282   2.981   7.171   3.091  0.4790  0.7362 -0.2278
  474MOL0     C65283   3.084   7.266   3.083 -0.8144 -0.5215  0.3142
  474MOL0     C65284   3.226   7.221   3.131  0.3482  0.0450 -0.5915
  474MOL0     C65285   3.249   7.077   3.101  0.2277  0.2389  0.3857
  474MOL0     C65286   3.398   7.029   3.121  0.2082  0.1230  0.4621
  474MOL0     C65287   3.406   6.888   3.067  0.9621  0.3029 -0.6681
  474MOL0     C65288   3.542   6.826   3.058 -0.8876  0.5348  0.2263
  474MOL0     C65289   3.615   6.813   3.194  0.4563 -0.4807 -0.2262
  474MOL0     C65290   3.540   6.721   3.282 -0.1450 -0.0631 -0.6094
  474MOL0     N65291   3.629   6.652   3.373 -0.2988 -0.0173  0.6052
  474MOL0     C65292   3.704   6.732   3.467  0.0039  0.6953  0.4753
  474MOL0     C65293   3.808   6.658   3.502  0.1198  0.0951  0.2300
  474MOL0     C65294   3.922   6.703   3.591 -0.2372 -0.0895  0.1040
  474MOL0     C65295   4.007   6.802   3.520  0.3288  0.3060  0.4714
  474MOL0     C65296   4.147   6.811   3.585  0.6738 -0.3582  0.5032
  474MOL0     C65297   4.245   6.909   3.520 -0.3857 -0.2998  0.3070
  474MOL0     O65298   4.274   6.862   3.394  0.6219  0.2903  0.3322
  474MOL0     C65299   4.404   6.884   3.361  0.5673 -0.1245  1.3360
  474MOL0     C65300   4.435   6.816   3.248 -0.7038 -1.1173 -0.7743
  474MOL0     C65301   4.560   6.840   3.180 -0.3750  0.9843 -0.3586
  474MOL0     C65302   4.574   6.751   3.058  0.3076  0.0193 -0.1311
  474MOL0     C65303   4.651   6.924   3.232 -0.2226  0.0984 -0.1680
  474MOL0     C65304   4.785   6.960   3.174 -0.6796  0.2381 -0.2918
  474MOL0     O65305   4.886   6.995   3.260  0.4524  0.1597  0.2328
  474MOL0     C65306   5.013   7.041   3.222 -0.4940 -0.9293 -0.7555
  474MOL0     C65307   5.103   7.061   3.331  1.1888 -0.6668  0.2430
  474MOL0     C65308   5.227   7.116   3.302 -0.7124  0.0635  0.0620
  474MOL0     C65309   5.267   7.170   3.185  0.4181 -1.0411  0.0912
  474MOL0     O65310   5.375   7.254   3.167 -0.9002  0.5486 -0.4577
  474MOL0     C65311   5.371   7.374   3.248 -0.6122  0.0371 -0.0982
  474MOL0     C65312   5.508   7.448   3.224  0.3226 -0.3210 -0.1675
  474MOL0     C65313   5.488   7.566   3.127 -0.5086 -0.0485 -0.0131
  474MOL0     C65314   5.628   7.623   3.087 -1.0953  0.5490 -0.4684
  474MOL0     C65315   5.617   7.720   2.976 -0.6554 -0.2192  0.2803
  474MOL0     C65316   5.750   7.769   2.927 -0.6222 -0.2737  1.0105
  474MOL0     C65317   5.829   7.684   2.825  0.3928  1.0755  0.1086
  474MOL0     C65318   5.735   7.637   2.711  0.6146 -0.3441  0.9429
  474MOL0    Cl65319   5.843   7.616   2.569 -0.2658 -0.1332 -0.3739
  474MOL0     C65320   5.179   7.160   3.078 -0.2332  0.7312 -0.4609
  474MOL0     C65321   5.058   7.096   3.096 -0.0154 -0.8457 -0.6999
  474MOL0     O65322   4.803   6.941   3.056 -0.9849 -0.4562 -0.1544
  474MOL0     C65323   4.614   6.994   3.347  0.1044  0.5285 -0.4628
  474MOL0     C65324   4.492   6.977   3.408  0.1770  0.2108  0.2601
  474MOL0     N65325   3.801   6.530   3.438  0.1855  0.3181 -0.1830
  474MOL0     N65326   3.678   6.524   3.376 -0.8716  0.5711  0.1714
  474MOL0     C65327   2.799   7.335   3.065 -0.1663  0.0474 -0.0577
  474MOL0     C65328   2.662   7.360   3.037 -0.6886  0.0663  0.4083
  474MOL0     C65329   2.314   7.443   2.829  0.4036  0.0607  0.6990
  474MOL0     C65330   2.199   7.410   2.908 -0.5390 -0.3833 -0.4960
  474MOL0     C65331   2.077   7.479   2.894 -0.0113 -0.2064  0.5851
  474MOL0     C65332   2.068   7.576   2.794  0.6216 -0.0870  0.1212
  474MOL0     O65333   1.937   7.617   2.760  0.1203 -0.1723  0.0868
  474MOL0     C65334   1.912   7.732   2.682 -1.2040  0.0443 -0.2323
  474MOL0     C65335   1.757   7.755   2.692 -0.0198 -0.2727 -0.3109
  474MOL0     C65336   1.667   7.638   2.640  0.0659 -0.0171 -0.3651
  474MOL0     C65337   1.525   7.681   2.617  0.2119 -0.2625  0.1991
  474MOL0     C65338   1.494   7.745   2.486 -0.0887 -0.5884  0.0056
  474MOL0     C65339   1.488   7.796   2.383 -0.0787 -0.6471  0.8208
  474MOL0     C65340   2.176   7.609   2.714  1.1503 -0.5119 -0.3061
  474MOL0     C65341   2.306   7.555   2.737 -0.7065 -0.6032  0.5534
  474MOL0     C65342   2.421   7.613   2.661 -0.3324 -0.0116  0.6081
  474MOL0     H65343   2.562   7.040   2.972 -1.1793  1.3369 -1.3699
  474MOL0     H65344   2.773   6.992   3.030 -0.3304 -0.9831  0.9042
  474MOL0     H65345   3.060   7.355   3.141 -0.2581  1.2811 -2.0869
  474MOL0     H65346   3.082   7.306   2.981  0.3904 -1.1128  0.0435
  474MOL0     H65347   3.299   7.292   3.092  1.5671  0.4998  2.2615
  474MOL0     H65348   3.235   7.232   3.240  0.7987 -0.6690 -0.5513
  474MOL0     H65349   3.186   7.012   3.162 -1.3345  0.1738 -1.2162
  474MOL0     H65350   3.219   7.046   3.001  1.4251  0.1672  0.0251
  474MOL0     H65351   3.476   7.095   3.082  0.1828  0.8359  1.5978
  474MOL0     H65352   3.408   7.030   3.230 -0.5588  2.2480  0.5502
  474MOL0     H65353   3.378   6.885   2.962  2.1685  0.2966 -1.0030
  474MOL0     H65354   3.336   6.818   3.114  0.5421 -0.7578 -2.7975
  474MOL0     H65355   3.532   6.733   3.001 -1.0346  0.7603 -0.1193
  474MOL0     H65356   3.593   6.894   2.990  5.2713 -1.6307  2.0164
  474MOL0     H65357   3.631   6.910   3.241  0.0394 -0.1210 -0.8196
  474MOL0     H65358   3.717   6.776   3.173  0.0184 -2.0881  0.2922
  474MOL0     H65359   3.457   6.766   3.338 -0.1930 -1.1410  0.2291
  474MOL0     H65360   3.505   6.634   3.227  1.4644 -2.4891  1.9682
  474MOL0     H65361   3.688   6.837   3.491 -1.0026  1.2065 -2.1094
  474MOL0     H65362   3.982   6.623   3.635 -2.2309  0.0506  3.4356
  474MOL0     H65363   3.880   6.751   3.680  1.3616 -0.6887  1.2281
  474MOL0     H65364   4.010   6.768   3.416 -2.8437 -1.0039  0.6771
  474MOL0     H65365   3.948   6.894   3.523 -1.4610 -0.7446 -0.5642
  474MOL0     H65366   4.134   6.842   3.689  0.7673 -1.6361  0.9144
  474MOL0     H65367   4.183   6.708   3.594 -3.1321 -2.1710 -2.4156
  474MOL0     H65368   4.193   7.005   3.513 -2.4634 -1.4540 -1.6961
  474MOL0     H65369   4.328   6.919   3.591 -0.8699  3.3553  0.5705
  474MOL0     H65370   4.368   6.738   3.214 -0.6071 -2.5412  2.0717
  474MOL0     H65371   4.669   6.698   3.069 -0.0882 -0.4479  1.3802
  474MOL0     H65372   4.576   6.816   2.970 -1.1360 -1.0484 -1.0019
  474MOL0     H65373   4.504   6.668   3.044  3.4427 -2.9054  0.4266
  474MOL0     H65374   5.067   7.028   3.428  1.7252  0.3548  0.8157
  474MOL0     H65375   5.289   7.131   3.390 -0.1391  0.7635 -0.4475
  474MOL0     H65376   5.293   7.445   3.218 -1.9275 -1.0370  0.6452
  474MOL0     H65377   5.371   7.353   3.355 -1.3108 -4.5003 -0.7856
  474MOL0     H65378   5.542   7.489   3.319  0.4677 -0.8091 -0.0059
  474MOL0     H65379   5.584   7.375   3.196  0.4459 -0.8338  1.4328
  474MOL0     H65380   5.436   7.651   3.172 -0.3731  1.0730 -1.8806
  474MOL0     H65381   5.423   7.534   3.045 -2.4755 -3.8579  2.6898
  474MOL0     H65382   5.680   7.532   3.053 -0.5308  0.4370  0.6519
  474MOL0     H65383   5.675   7.660   3.178 -0.8643  0.9464 -0.7470
  474MOL0     H65384   5.553   7.689   2.893  1.6327 -0.7671 -1.3861
  474MOL0     H65385   5.562   7.805   3.018 -0.2753 -0.7118  1.8641
  474MOL0     H65386   5.820   7.797   3.006 -0.7823 -0.1825  1.1217
  474MOL0     H65387   5.729   7.865   2.879  1.7999 -0.1855 -0.0305
  474MOL0     H65388   5.858   7.590   2.873  1.7748  1.4522  0.0456
  474MOL0     H65389   5.909   7.740   2.778  0.8438 -0.7648 -1.4543
  474MOL0     H65390   5.671   7.723   2.690  0.4058 -0.5999  0.5030
  474MOL0     H65391   5.677   7.548   2.737 -2.3120  0.4192 -2.1853
  474MOL0     H65392   5.210   7.182   2.976 -1.7513 -2.2008 -1.6590
  474MOL0     H65393   4.980   7.099   3.020 -0.2147  0.6536 -0.4587
  474MOL0     H65394   4.682   7.066   3.392  0.9528 -1.5586  1.8339
  474MOL0     H65395   4.467   7.036   3.496 -2.2128 -0.6124  0.1888
  474MOL0     H65396   2.862   7.410   3.112  1.5346 -2.4555  1.9294
  474MOL0     H65397   2.627   7.462   3.036 -0.9007  0.0467 -2.9505
  474MOL0     H65398   2.209   7.331   2.981  0.3688 -0.0379 -0.2373
  474MOL0     H65399   1.990   7.444   2.949 -0.1375 -1.3967 -0.3545
  474MOL0     H65400   1.959   7.820   2.728 -0.8163  0.5658 -1.5415
  474MOL0     H65401   1.962   7.734   2.584 -2.1072 -0.1734 -0.7050
  474MOL0     H65402   1.725   7.838   2.629 -1.4985 -1.7181 -1.5759
  474MOL0     H65403   1.742   7.776   2.798 -0.4304  2.3389 -0.8357
  474MOL0     H65404   1.706   7.602   2.545  0.9439  3.5301 -1.5012
  474MOL0     H65405   1.684   7.564   2.719 -0.3278 -1.6265 -1.7583
  474MOL0     H65406   1.500   7.752   2.697 -0.6511  0.1757 -0.4514
  474MOL0     H65407   1.458   7.597   2.639  0.1943 -0.5030 -0.7463
  474MOL0     H65408   1.497   7.856   2.295 -1.5607 -0.0528  1.0511
  474MOL0     H65409   2.180   7.675   2.627  3.9931 -0.8819 -0.5602
  474MOL0     H65410   2.514   7.598   2.718 -0.3530  0.9316  0.9021
  474MOL0     H65411   2.424   7.555   2.568 -0.4738  0.7997  0.0910
  474MOL0     H65412   2.406   7.719   2.640  0.0626 -0.4244 -2.1632
  475MOL0     O65413   6.581   1.892   6.170  0.1458 -0.5568  0.3201
  475MOL0     C65414   6.507   1.953   6.094 -0.4621 -0.3808  0.1874
  475MOL0     O65415   6.507   1.932   5.966 -0.0594 -0.7873  0.2127
  475MOL0     C65416   6.589   1.843   5.894  0.2635  1.1860 -0.0408
  475MOL0     C65417   6.529   1.782   5.779 -0.5426 -0.8156 -0.3899
  475MOL0     C65418   6.608   1.691   5.708  0.4028 -0.6424  0.2012
  475MOL0     C65419   6.746   1.679   5.733  0.1037  0.6678  0.6437
  475MOL0     O65420   6.804   1.593   5.642 -0.8012  0.1581 -0.0983
  475MOL0     C65421   6.929   1.533   5.667  0.2422  0.0777 -0.2453
  475MOL0     C65422   7.044   1.617   5.612  0.1292  0.5869  0.5269
  475MOL0     C65423   7.049   1.621   5.454 -0.2539 -0.2171 -0.1197
  475MOL0     C65424   7.134   1.498   5.406 -1.1536  0.3165 -0.6616
  475MOL0     C65425   7.285   1.521   5.394 -0.2636  0.0262  0.9531
  475MOL0     C65426   7.365   1.429   5.486  1.2139  0.5252 -0.2465
  475MOL0     C65427   7.509   1.470   5.506  0.0752  0.2187 -0.4470
  475MOL0     C65428   7.598   1.441   5.384  0.2804 -0.4725  0.4230
  475MOL0     N65429   7.728   1.509   5.389 -0.2317 -0.0386  0.2590
  475MOL0     C65430   7.841   1.463   5.317 -0.5757 -0.4249 -1.1431
  475MOL0     C65431   7.943   1.539   5.366  0.4564 -0.4416 -0.2196
  475MOL0     C65432   8.083   1.523   5.312  0.3600 -0.4828 -0.3153
  475MOL0     C65433   8.189   1.493   5.414  0.2693 -1.2515 -0.3049
  475MOL0     C65434   8.312   1.425   5.342 -0.5903  0.8720 -0.3824
  475MOL0     C65435   8.450   1.486   5.381  0.8879  0.3519 -0.3939
  475MOL0     O65436   8.463   1.609   5.318  0.3563  0.4841  0.1064
  475MOL0     C65437   8.579   1.677   5.331  0.0099 -0.1010  0.2454
  475MOL0     C65438   8.576   1.815   5.339 -0.6487  0.2976 -1.7244
  475MOL0     C65439   8.697   1.890   5.359 -0.1572 -0.4955  0.5347
  475MOL0     C65440   8.686   2.040   5.375  0.3299  0.5733 -0.2510
  475MOL0     C65441   8.817   1.823   5.358  0.3414  0.9099  0.0031
  475MOL0     C65442   8.949   1.885   5.372 -0.4806  0.5698  0.0833
  475MOL0     O65443   9.057   1.803   5.354  0.0817  0.1042  0.4963
  475MOL0     C65444   9.180   1.853   5.341  1.0353 -0.4097  0.5345
  475MOL0     C65445   9.223   1.971   5.406 -0.7649  0.5017 -0.4585
  475MOL0     C65446   9.354   2.023   5.375  0.3101  0.0419  0.1901
  475MOL0     C65447   9.444   1.948   5.304  0.0720 -0.1262 -0.4423
  475MOL0     O65448   9.572   1.999   5.293 -0.9383 -0.5703 -0.5568
  475MOL0     C65449   9.630   1.982   5.166 -0.5029  0.5480  0.0855
  475MOL0     C65450   9.753   2.070   5.166 -0.0404  0.1293  0.1603
  475MOL0     C65451   9.825   2.038   5.040  0.5447  0.3655  1.0139
  475MOL0     C65452   9.916   1.915   5.050 -0.3347 -0.5594  0.5811
  475MOL0     C65453  10.015   1.913   4.932  0.0084 -0.7067  0.5719
  475MOL0     C65454  10.143   1.826   4.968  0.0684 -0.2354 -0.2720
  475MOL0     C65455  10.245   1.803   4.855 -0.4663 -0.9413 -0.2053
  475MOL0     C65456  10.390   1.826   4.911  0.0313  0.7513  0.1357
  475MOL0    Cl65457  10.431   1.747   5.068 -0.1475 -0.4727 -0.1507
  475MOL0     C65458   9.402   1.825   5.247  0.2272  0.2269  0.6112
  475MOL0     C65459   9.274   1.787   5.265  0.8399  0.0998  0.3560
  475MOL0     O65460   8.952   2.006   5.393 -0.5802 -0.0184  0.4370
  475MOL0     C65461   8.819   1.680   5.347 -0.2648  0.3841  0.0033
  475MOL0     C65462   8.701   1.610   5.341 -0.0526 -0.5399  0.6058
  475MOL0     N65463   7.892   1.629   5.458  0.2614 -0.3441 -0.3590
  475MOL0     N65464   7.768   1.610   5.468  0.6119  0.4339 -0.4314
  475MOL0     C65465   6.802   1.734   5.847  0.1166  0.5745 -0.2070
  475MOL0     C65466   6.725   1.817   5.929  0.4127 -0.1431 -0.1505
  475MOL0     C65467   6.399   2.030   6.164 -0.0536  0.0818 -0.6553
  475MOL0     C65468   6.418   2.076   6.294  0.1075 -0.2526  0.5530
  475MOL0     C65469   6.329   2.145   6.367  0.8856 -0.1473  0.6073
  475MOL0     C65470   6.204   2.184   6.305 -0.5740 -0.2974 -0.0418
  475MOL0     O65471   6.119   2.273   6.368 -0.3203  0.5315  0.9689
  475MOL0     C65472   5.998   2.321   6.304 -0.1525  0.2701  0.7038
  475MOL0     C65473   5.874   2.228   6.304  0.9564 -0.6462 -0.1608
  475MOL0     C65474   5.831   2.213   6.452  0.5275  0.2915  0.5770
  475MOL0     C65475   5.746   2.076   6.462 -0.3236 -0.5614 -0.4523
  475MOL0     C65476   5.597   2.099   6.463 -0.4114  0.2428  0.3150
  475MOL0     C65477   5.481   2.130   6.462 -0.0824 -0.5279  0.2894
  475MOL0     C65478   6.178   2.131   6.174 -0.9345  0.1321  0.5741
  475MOL0     C65479   6.273   2.050   6.103 -0.7828  0.5798  0.4190
  475MOL0     C65480   6.229   1.997   5.969 -0.1932  0.6469  0.0373
  475MOL0     H65481   6.423   1.777   5.756 -0.7068 -0.9499  0.3932
  475MOL0     H65482   6.561   1.639   5.626 -0.9863  0.5448  0.2119
  475MOL0     H65483   6.920   1.439   5.611 -1.2040 -1.4046  2.2592
  475MOL0     H65484   6.938   1.508   5.773  0.0944  2.5273  0.3960
  475MOL0     H65485   7.032   1.715   5.661 -1.8450 -1.0248  3.5830
  475MOL0     H65486   7.139   1.574   5.643  0.9193  0.1785 -2.1507
  475MOL0     H65487   6.947   1.622   5.416  0.2802 -0.4810 -1.6276
  475MOL0     H65488   7.083   1.714   5.408 -0.0231  1.0006  2.3373
  475MOL0     H65489   7.109   1.400   5.448 -0.1623  0.1185 -0.5268
  475MOL0     H65490   7.095   1.489   5.304 -3.4431  0.4338  0.1313
  475MOL0     H65491   7.307   1.625   5.419  1.9423  0.2737 -1.5152
  475MOL0     H65492   7.310   1.514   5.288  0.1985  1.9447  0.8957
  475MOL0     H65493   7.312   1.426   5.581 -1.3702 -3.2700 -1.5478
  475MOL0     H65494   7.358   1.325   5.452  0.6419 -0.4569  2.5998
  475MOL0     H65495   7.554   1.412   5.586 -2.5058  2.2830  2.7548
  475MOL0     H65496   7.515   1.576   5.532 -0.4498 -0.4263  2.6514
  475MOL0     H65497   7.608   1.333   5.371  1.1854 -0.1555 -2.0858
  475MOL0     H65498   7.547   1.479   5.294  1.7695  0.9507  0.1265
  475MOL0     H65499   7.855   1.385   5.243 -0.4321 -0.5002 -1.0377
  475MOL0     H65500   8.100   1.619   5.262 -1.9757  0.8459  1.2810
  475MOL0     H65501   8.074   1.445   5.235  0.2710 -1.6335  0.8394
  475MOL0     H65502   8.214   1.587   5.465 -1.7010 -0.0820 -1.3997
  475MOL0     H65503   8.154   1.426   5.493 -1.7421  0.0739 -0.0072
  475MOL0     H65504   8.311   1.321   5.375 -0.2723  1.6315  2.2562
  475MOL0     H65505   8.308   1.431   5.233  0.5863 -0.1139 -0.4981
  475MOL0     H65506   8.443   1.495   5.490 -0.1722 -1.3212 -0.2881
  475MOL0     H65507   8.533   1.418   5.362  1.0997  0.2707  0.7743
  475MOL0     H65508   8.481   1.865   5.323 -0.1161  1.4548 -1.3806
  475MOL0     H65509   8.749   2.083   5.453  0.5531 -0.4292  0.1392
  475MOL0     H65510   8.582   2.061   5.403 -0.6487 -2.7138 -0.9496
  475MOL0     H65511   8.715   2.084   5.279  4.4096 -0.0522  0.5398
  475MOL0     H65512   9.154   2.022   5.473 -0.4572  0.6460 -0.2461
  475MOL0     H65513   9.383   2.116   5.423  1.0796  0.6181 -1.3107
  475MOL0     H65514   9.645   1.877   5.140 -0.1267  0.4746  0.5786
  475MOL0     H65515   9.566   2.013   5.084  0.8116  0.5232 -0.9930
  475MOL0     H65516   9.719   2.174   5.171 -2.9763 -0.6341 -1.4266
  475MOL0     H65517   9.815   2.048   5.253 -2.0200 -2.0192  1.1420
  475MOL0     H65518   9.887   2.123   5.009 -0.8444  0.7228 -0.9475
  475MOL0     H65519   9.754   2.020   4.959 -1.3123 -1.0636  2.8473
  475MOL0     H65520   9.855   1.825   5.045 -2.9411  1.1562 -1.7661
  475MOL0     H65521   9.971   1.912   5.145  1.4716  0.1809 -0.3942
  475MOL0     H65522   9.963   1.860   4.851  1.2482 -0.0512 -0.7024
  475MOL0     H65523  10.050   2.008   4.891  0.4880  1.1151  4.6978
  475MOL0     H65524  10.103   1.728   4.994  0.3251 -0.7063 -1.5440
  475MOL0     H65525  10.198   1.878   5.047  0.3120  2.2678 -1.9568
  475MOL0     H65526  10.220   1.870   4.773 -2.2135 -2.5755 -1.0792
  475MOL0     H65527  10.231   1.700   4.822  2.9050 -1.1418 -1.3146
  475MOL0     H65528  10.408   1.932   4.926 -3.2483  1.3493  0.6262
  475MOL0     H65529  10.468   1.791   4.842  0.0988 -0.5023  0.8123
  475MOL0     H65530   9.469   1.761   5.190  1.9870  1.1945  1.5008
  475MOL0     H65531   9.233   1.705   5.207  1.8401 -0.9592  1.1066
  475MOL0     H65532   8.910   1.621   5.344  0.5479  1.4856  1.5436
  475MOL0     H65533   8.722   1.504   5.351  1.0486 -0.2231  2.1632
  475MOL0     H65534   6.910   1.719   5.849 -0.1084 -1.3994 -0.9053
  475MOL0     H65535   6.779   1.869   6.007 -0.5379  1.9267 -0.7867
  475MOL0     H65536   6.516   2.071   6.342 -0.3130  3.3502  2.1480
  475MOL0     H65537   6.350   2.183   6.467  4.2337  1.8672 -0.6971
  475MOL0     H65538   5.975   2.415   6.356 -2.8123  0.9079 -1.3835
  475MOL0     H65539   6.025   2.356   6.205 -0.9599  0.8833  0.6880
  475MOL0     H65540   5.892   2.133   6.254 -1.7771 -1.8122  0.8565
  475MOL0     H65541   5.789   2.273   6.251  1.0968 -1.8842 -1.4846
  475MOL0     H65542   5.912   2.207   6.526  2.3853  2.5680 -1.1098
  475MOL0     H65543   5.760   2.295   6.465  1.3552  1.2959 -0.8480
  475MOL0     H65544   5.766   2.025   6.556  1.6919  1.5122  0.3181
  475MOL0     H65545   5.775   1.998   6.391  1.7128 -0.3596  0.1125
  475MOL0     H65546   5.377   2.155   6.456  0.0187 -0.3550 -1.1196
  475MOL0     H65547   6.085   2.157   6.125 -0.7845 -0.2421  0.0786
  475MOL0     H65548   6.241   1.888   5.974 -3.2621  0.2067  0.0431
  475MOL0     H65549   6.124   2.020   5.951 -0.3121 -0.3649 -0.6757
  475MOL0     H65550   6.294   2.048   5.898 -1.0188  1.3773 -0.2116
  476MOL0     O65551   9.710   6.032   9.289  0.6823 -0.2237  0.0694
  476MOL0     C65552   9.692   5.951   9.383  0.9705  0.4618 -0.0440
  476MOL0     O65553   9.785   5.904   9.462 -0.1843 -0.8119  0.0173
  476MOL0     C65554   9.903   5.970   9.464 -1.4635  0.5520 -0.5285
  476MOL0     C65555   9.943   6.035   9.582  0.0362  1.0909  0.7564
  476MOL0     C65556  10.081   6.062   9.611  0.1960  0.3239  0.2878
  476MOL0     C65557  10.180   6.030   9.517 -0.5750 -0.2777  1.2029
  476MOL0     O65558  10.312   6.050   9.560  0.3046  0.4302  0.3897
  476MOL0     C65559  10.359   6.176   9.536  0.4387 -0.7464  0.0532
  476MOL0     C65560  10.486   6.188   9.613  0.4784 -0.6167 -0.5859
  476MOL0     C65561  10.513   6.335   9.626  0.0237 -0.4942  0.2986
  476MOL0     C65562  10.650   6.374   9.689 -0.5884 -0.1364 -0.3981
  476MOL0     C65563  10.672   6.523   9.690  0.2308 -0.3208  0.9999
  476MOL0     C65564  10.794   6.572   9.767 -0.2763  0.2859  1.0914
  476MOL0     C65565  10.916   6.488   9.747 -1.2734  0.2345 -0.4523
  476MOL0     C65566  10.978   6.502   9.614 -0.2018 -0.1092  0.0314
  476MOL0     N65567  11.030   6.641   9.604  0.0229 -0.5566  0.3120
  476MOL0     C65568  11.124   6.703   9.686 -0.3602  0.1396  0.2273
  476MOL0     C65569  11.135   6.835   9.642 -0.3739 -0.0344 -0.2441
  476MOL0     C65570  11.231   6.933   9.694  0.6439  0.0182 -0.4028
  476MOL0     C65571  11.238   7.056   9.609 -0.3899  0.1570 -0.1261
  476MOL0     C65572  11.293   7.182   9.692  0.5657 -0.4603  0.4298
  476MOL0     C65573  11.439   7.179   9.719  0.0338  0.1923  0.6592
  476MOL0     O65574  11.508   7.144   9.596 -0.3279 -0.0411 -0.0575
  476MOL0     C65575  11.643   7.152   9.593 -0.6452 -0.2362 -0.6411
  476MOL0     C65576  11.723   7.186   9.700 -0.4865 -0.1665 -0.5528
  476MOL0     C65577  11.865   7.194   9.686 -0.0757 -0.6414  0.3078
  476MOL0     C65578  11.932   7.246   9.813  0.8043  0.6126  0.5388
  476MOL0     C65579  11.932   7.154   9.563 -0.3524 -0.3396 -0.0299
  476MOL0     C65580  12.073   7.143   9.532 -0.4784  0.2687 -0.3515
  476MOL0     O65581  12.105   7.076   9.415  0.1017 -0.1316 -0.6042
  476MOL0     C65582  12.233   7.075   9.377  0.5677  0.0000  0.3169
  476MOL0     C65583  12.311   7.193   9.368  0.1986  0.3103 -0.4056
  476MOL0     C65584  12.439   7.182   9.319 -0.2532 -0.1620 -0.0340
  476MOL0     C65585  12.489   7.062   9.274  0.0612 -0.1098 -0.2268
  476MOL0     O65586  12.614   7.048   9.229  0.1171  0.3455 -0.7005
  476MOL0     C65587  12.721   7.090   9.329  0.0224 -0.5080  0.5525
  476MOL0     C65588  12.759   6.969   9.414  0.0777 -0.2624 -0.9575
  476MOL0     C65589  12.896   6.978   9.475 -0.7162 -0.9010  0.3991
  476MOL0     C65590  12.918   6.849   9.554 -0.9943  0.0735 -0.6224
  476MOL0     C65591  13.003   6.883   9.675 -0.2300 -0.6516 -0.0293
  476MOL0     C65592  13.004   6.759   9.771 -0.0603  0.2818  0.1157
  476MOL0     C65593  13.130   6.756   9.858  0.9931 -0.1571  0.0248
  476MOL0     C65594  13.147   6.636   9.940  0.7845 -0.5112  0.2889
  476MOL0    Cl65595  13.301   6.635  10.019  0.3124 -0.2172  0.3801
  476MOL0     C65596  12.407   6.954   9.272  0.6594 -0.4713 -0.7657
  476MOL0     C65597  12.278   6.966   9.312 -0.3573  0.1517 -0.1276
  476MOL0     O65598  12.156   7.182   9.617 -0.0247 -0.0938 -0.6229
  476MOL0     C65599  11.836   7.112   9.458  0.1038  0.1668  0.7128
  476MOL0     C65600  11.697   7.106   9.474 -0.2159  0.3497  1.0158
  476MOL0     N65601  11.054   6.839   9.533  0.2250  0.1171  0.7626
  476MOL0     N65602  10.999   6.729   9.505 -0.1342  0.8367 -0.3444
  476MOL0     C65603  10.139   5.972   9.398  0.6301  0.1364  0.4139
  476MOL0     C65604  10.001   5.941   9.373 -1.0523 -0.4786 -0.6979
  476MOL0     C65605   9.553   5.917   9.419 -0.4271  0.0074  0.1987
  476MOL0     C65606   9.459   5.968   9.328  0.2620  0.3593  0.0263
  476MOL0     C65607   9.322   5.940   9.336 -0.0174 -0.1738 -1.3190
  476MOL0     C65608   9.283   5.853   9.444 -0.4419 -0.8833 -0.1070
  476MOL0     O65609   9.153   5.819   9.460 -0.3523  0.8205 -0.3368
  476MOL0     C65610   9.086   5.875   9.572  0.0663 -1.4826 -1.1481
  476MOL0     C65611   8.937   5.896   9.533  0.2385 -0.5713  0.1494
  476MOL0     C65612   8.857   5.766   9.506 -0.1818  0.2634  0.3944
  476MOL0     C65613   8.726   5.809   9.439  0.0445  0.0320 -0.8800
  476MOL0     C65614   8.653   5.694   9.395  0.2959  0.3485  0.0807
  476MOL0     C65615   8.590   5.599   9.365 -0.5953 -0.7343 -0.6624
  476MOL0     C65616   9.382   5.812   9.540  0.4842 -1.3239 -0.0364
  476MOL0     C65617   9.512   5.845   9.531 -0.3191  0.1274 -0.1203
  476MOL0     C65618   9.600   5.809   9.650  0.0028 -0.1052 -0.5194
  476MOL0     H65619   9.875   6.040   9.666 -0.6347 -0.5183  0.3364
  476MOL0     H65620  10.099   6.118   9.702  0.5948  2.0768 -0.8171
  476MOL0     H65621  10.284   6.247   9.573  0.5578 -0.8869  0.5722
  476MOL0     H65622  10.385   6.190   9.431  0.2739  1.9379  0.3152
  476MOL0     H65623  10.469   6.153   9.716 -4.0330  1.8756 -0.2177
  476MOL0     H65624  10.564   6.134   9.560  1.0892  0.4946 -0.8284
  476MOL0     H65625  10.511   6.376   9.524 -0.2089 -0.3499  0.3597
  476MOL0     H65626  10.428   6.382   9.677  1.2923  3.6491 -0.9655
  476MOL0     H65627  10.644   6.336   9.791 -2.3824  2.3794  0.5441
  476MOL0     H65628  10.738   6.327   9.645 -0.2276 -2.3007  2.3560
  476MOL0     H65629  10.584   6.564   9.741 -0.2444 -0.2767  0.1739
  476MOL0     H65630  10.671   6.552   9.584 -3.2266 -4.0115 -0.2649
  476MOL0     H65631  10.807   6.678   9.744  0.3196  0.5072  2.3467
  476MOL0     H65632  10.765   6.559   9.872 -1.8654 -0.7388  0.5643
  476MOL0     H65633  10.902   6.383   9.776  1.2543  0.2964  1.3142
  476MOL0     H65634  10.990   6.521   9.820 -1.5869 -0.4452  0.1888
  476MOL0     H65635  11.063   6.434   9.605  0.0756  0.2512 -0.1058
  476MOL0     H65636  10.913   6.474   9.530  0.8632 -0.2582 -0.7747
  476MOL0     H65637  11.167   6.654   9.772  1.8890 -3.0841 -2.5053
  476MOL0     H65638  11.331   6.888   9.697  1.1555  1.0371 -1.6134
  476MOL0     H65639  11.210   6.956   9.799  0.1773 -0.2470 -0.4333
  476MOL0     H65640  11.301   7.048   9.520 -2.3280 -0.6795 -1.5230
  476MOL0     H65641  11.132   7.073   9.583 -0.6810 -0.4024  0.6706
  476MOL0     H65642  11.282   7.270   9.628  1.6613 -0.1155  0.6927
  476MOL0     H65643  11.233   7.179   9.784 -2.5125 -1.8256 -1.4767
  476MOL0     H65644  11.463   7.276   9.764  0.7127  0.5883 -0.5099
  476MOL0     H65645  11.461   7.105   9.796 -1.0403  0.8990  1.6717
  476MOL0     H65646  11.682   7.205   9.799  1.9254  1.3577  0.2341
  476MOL0     H65647  12.038   7.220   9.813  0.5203 -2.0337 -4.9879
  476MOL0     H65648  11.891   7.202   9.904  0.1037  1.7640  0.8063
  476MOL0     H65649  11.925   7.355   9.808 -2.4536  0.4203 -1.7377
  476MOL0     H65650  12.266   7.288   9.397 -0.9634 -0.1730 -0.5683
  476MOL0     H65651  12.510   7.264   9.317 -1.8022  1.3416  1.9914
  476MOL0     H65652  12.813   7.125   9.281  0.7614 -0.3028  2.0729
  476MOL0     H65653  12.683   7.167   9.396  1.2638  2.5057 -1.9775
  476MOL0     H65654  12.680   6.946   9.486 -0.7677  0.1247 -1.7442
  476MOL0     H65655  12.753   6.883   9.346 -2.1258 -1.6678  0.8613
  476MOL0     H65656  12.884   7.060   9.546  1.1202  1.0553 -1.4077
  476MOL0     H65657  12.977   7.001   9.406  0.3979 -1.9040  1.3263
  476MOL0     H65658  12.967   6.767   9.500  1.8074 -0.2519  2.1438
  476MOL0     H65659  12.821   6.805   9.581 -0.5095 -0.1245  0.8405
  476MOL0     H65660  13.106   6.910   9.651  0.0725  0.0109  1.8485
  476MOL0     H65661  12.969   6.974   9.725  2.5816  2.1019 -2.6533
  476MOL0     H65662  12.994   6.668   9.711  1.4725  0.3839 -0.3207
  476MOL0     H65663  12.913   6.773   9.831 -0.7347 -1.1176 -0.5299
  476MOL0     H65664  13.134   6.847   9.919  2.4630  2.3368 -3.4560
  476MOL0     H65665  13.219   6.767   9.796  0.6934  3.1161  0.0011
  476MOL0     H65666  13.144   6.547   9.878 -2.5844 -2.4058  2.8331
  476MOL0     H65667  13.067   6.623  10.014 -1.9849  1.1873 -2.2135
  476MOL0     H65668  12.440   6.855   9.242 -1.9346 -1.1305 -1.6949
  476MOL0     H65669  12.201   6.891   9.301 -2.3224  2.3108 -2.1008
  476MOL0     H65670  11.867   7.081   9.359  0.1007  2.9539 -0.2600
  476MOL0     H65671  11.632   7.073   9.393  0.5464 -0.7534  0.8299
  476MOL0     H65672  10.215   5.956   9.322  1.2498  2.6461  0.4123
  476MOL0     H65673   9.973   5.895   9.279 -0.8631  0.7752 -1.3888
  476MOL0     H65674   9.487   6.038   9.250  0.6221  1.9555  1.5385
  476MOL0     H65675   9.247   5.984   9.270 -2.5461  1.8060  2.5162
  476MOL0     H65676   9.089   5.817   9.664 -1.3100 -0.8509 -0.6754
  476MOL0     H65677   9.131   5.972   9.595 -1.4005 -1.1488  0.5819
  476MOL0     H65678   8.940   5.955   9.440 -1.3302 -3.0982 -1.6432
  476MOL0     H65679   8.879   5.954   9.605  1.0825  0.0081  0.3686
  476MOL0     H65680   8.910   5.707   9.430 -2.1859 -0.1613 -0.7467
  476MOL0     H65681   8.849   5.701   9.593  1.5710 -0.0089  0.3862
  476MOL0     H65682   8.732   5.874   9.350  0.4200 -1.7855 -2.2379
  476MOL0     H65683   8.672   5.867   9.514  1.3632  0.3105 -0.1194
  476MOL0     H65684   8.545   5.506   9.336  0.3242 -1.0115 -1.2350
  476MOL0     H65685   9.339   5.756   9.622 -1.2909  2.8935  2.2601
  476MOL0     H65686   9.673   5.732   9.623 -2.3461 -2.9301  0.6811
  476MOL0     H65687   9.645   5.900   9.692 -1.0262  0.7766 -1.2746
  476MOL0     H65688   9.533   5.760   9.720  0.2657  1.5797  0.9764
  477MOL0     O65689   0.657  10.128   2.029 -0.1049 -0.9789 -0.5105
  477MOL0     C65690   0.651  10.160   2.149  0.4160  0.1018 -0.0474
  477MOL0     O65691   0.760  10.161   2.238 -0.5848 -0.2562 -0.1828
  477MOL0     C65692   0.873  10.097   2.208  0.1478  0.1720  0.0113
  477MOL0     C65693   0.917   9.994   2.291  0.4380  0.5647  0.4472
  477MOL0     C65694   1.032   9.916   2.263 -0.3639 -0.6834 -0.0923
  477MOL0     C65695   1.103   9.942   2.142  0.4919  0.3963  0.6172
  477MOL0     O65696   1.207   9.859   2.093 -0.1220  0.2574 -0.8368
  477MOL0     C65697   1.267   9.762   2.181  0.3737  0.3021 -0.2509
  477MOL0     C65698   1.374   9.674   2.112  0.1096 -0.5415 -0.6813
  477MOL0     C65699   1.471   9.761   2.032 -0.8574 -0.6525  0.1182
  477MOL0     C65700   1.540   9.673   1.929 -0.0490 -1.0570 -0.1246
  477MOL0     C65701   1.675   9.727   1.865 -0.0528 -0.6015  0.4707
  477MOL0     C65702   1.675   9.875   1.808 -0.0876 -0.3970  0.3924
  477MOL0     C65703   1.807   9.922   1.742  0.0021  0.5433  0.2197
  477MOL0     C65704   1.816  10.073   1.713  0.3197  1.1394  0.8295
  477MOL0     N65705   1.955  10.117   1.681 -0.1084 -0.3852  0.0177
  477MOL0     C65706   2.077  10.042   1.699 -0.2531  0.1147  0.4245
  477MOL0     C65707   2.176  10.124   1.659  0.0354  0.6750  0.1474
  477MOL0     C65708   2.321  10.084   1.636  0.2404  0.1544  0.7095
  477MOL0     C65709   2.405  10.216   1.629  0.5497  0.1489  0.4878
  477MOL0     C65710   2.549  10.166   1.631  0.8784 -0.6589 -0.4070
  477MOL0     C65711   2.632  10.273   1.565  0.0811 -0.6373  0.6110
  477MOL0     O65712   2.769  10.235   1.583 -0.3547 -0.0541 -0.0924
  477MOL0     C65713   2.873  10.324   1.553  0.4865  0.6119 -0.4844
  477MOL0     C65714   3.004  10.295   1.608  0.9111  0.5992 -0.0561
  477MOL0     C65715   3.114  10.369   1.585 -0.4330  0.4781 -0.2670
  477MOL0     C65716   3.238  10.330   1.659  0.5479  0.3022 -0.2164
  477MOL0     C65717   3.113  10.473   1.485 -0.1887  0.3178  0.2020
  477MOL0     C65718   3.235  10.553   1.438 -0.1116 -0.3109  0.1829
  477MOL0     O65719   3.224  10.605   1.314 -0.0015 -0.7979 -0.3437
  477MOL0     C65720   3.333  10.675   1.269  0.1594 -0.3600 -0.7374
  477MOL0     C65721   3.343  10.817   1.286 -0.7853 -0.4010 -0.0811
  477MOL0     C65722   3.450  10.881   1.225 -0.3950  0.4311  0.5318
  477MOL0     C65723   3.551  10.808   1.161  0.8535  0.4182  0.0585
  477MOL0     O65724   3.642  10.893   1.105 -0.2629 -0.3781 -0.6860
  477MOL0     C65725   3.754  10.832   1.036  1.4443  0.6149 -0.2913
  477MOL0     C65726   3.836  10.946   0.975  0.2551  0.5941 -0.2023
  477MOL0     C65727   3.770  11.014   0.862  0.5289 -0.0827  0.6056
  477MOL0     C65728   3.786  10.929   0.734 -0.0444 -0.2976 -0.1183
  477MOL0     C65729   3.781  11.015   0.605  0.2982 -0.4097 -0.0535
  477MOL0     C65730   3.653  11.090   0.582  0.3312  1.2918 -0.1386
  477MOL0     C65731   3.658  11.128   0.437  0.5888 -0.0226  0.4820
  477MOL0     C65732   3.538  11.204   0.380  0.1139  0.1610  0.4625
  477MOL0    Cl65733   3.384  11.115   0.380 -0.3810  0.5407  0.0011
  477MOL0     C65734   3.544  10.666   1.156 -0.5222  0.8188  0.7672
  477MOL0     C65735   3.436  10.600   1.206  0.6509 -0.0805 -0.4740
  477MOL0     O65736   3.328  10.572   1.514  0.4806  0.5342 -0.5035
  477MOL0     C65737   2.990  10.502   1.424  0.6978  0.6297 -0.1299
  477MOL0     C65738   2.869  10.433   1.461  0.0061  0.4289 -0.5280
  477MOL0     N65739   2.126  10.245   1.637  0.0088 -0.5328  0.3374
  477MOL0     N65740   2.000  10.245   1.647 -0.1541  0.2241  0.6443
  477MOL0     C65741   1.064  10.053   2.060  0.8143  0.3845  0.0205
  477MOL0     C65742   0.953  10.132   2.096 -0.1472  1.1660  1.1287
  477MOL0     C65743   0.512  10.188   2.199  0.1686 -0.0925 -0.2205
  477MOL0     C65744   0.414  10.246   2.106  0.3342  0.3524 -0.0068
  477MOL0     C65745   0.279  10.252   2.135 -0.1004  0.3903 -0.3790
  477MOL0     C65746   0.238  10.212   2.256  0.4516 -0.0544  0.4070
  477MOL0     O65747   0.095  10.220   2.269 -0.1755 -0.3113  0.7027
  477MOL0     C65748   0.033  10.175   2.389 -0.0677 -0.0784 -0.1758
  477MOL0     C65749   0.047  10.279   2.495  0.0625 -0.1250  0.2593
  477MOL0     C65750  -0.072  10.380   2.495  1.0228  1.0705 -0.2886
  477MOL0     C65751  -0.104  10.432   2.353 -0.5033  0.3530 -0.1495
  477MOL0     C65752  -0.220  10.527   2.359  0.4988 -0.1742  0.3091
  477MOL0     C65753  -0.314  10.599   2.388 -0.0722  0.3499  0.4659
  477MOL0     C65754   0.323  10.153   2.347  0.9282 -1.2156  0.6160
  477MOL0     C65755   0.463  10.141   2.323 -0.7081 -0.3079  0.3032
  477MOL0     C65756   0.549  10.074   2.426 -0.5274 -0.3691  0.2763
  477MOL0     H65757   0.861   9.961   2.378 -0.9050 -0.3828 -0.7522
  477MOL0     H65758   1.067   9.832   2.321 -1.1570 -1.6547 -0.9852
  477MOL0     H65759   1.182   9.700   2.209 -1.3785  2.6242 -0.1226
  477MOL0     H65760   1.307   9.808   2.271  0.9996 -0.0444 -0.3450
  477MOL0     H65761   1.424   9.605   2.181 -1.6317 -3.1330 -1.8716
  477MOL0     H65762   1.321   9.608   2.042  0.7273  2.3516 -4.1224
  477MOL0     H65763   1.430   9.843   1.972 -0.8616 -0.1980  0.7314
  477MOL0     H65764   1.546   9.800   2.101  1.4472 -2.4323 -1.2255
  477MOL0     H65765   1.565   9.572   1.965  2.1534 -0.5621 -0.1041
  477MOL0     H65766   1.472   9.667   1.844  0.1144  1.4700 -0.4968
  477MOL0     H65767   1.690   9.659   1.781  0.0458 -0.6780  0.5500
  477MOL0     H65768   1.766   9.715   1.925  0.7290 -0.5244 -0.6632
  477MOL0     H65769   1.589   9.883   1.740 -0.2583 -1.8769  0.4046
  477MOL0     H65770   1.649   9.944   1.888 -0.3343 -1.2394  1.0531
  477MOL0     H65771   1.831   9.862   1.654  0.1333  0.4323  0.3293
  477MOL0     H65772   1.880   9.898   1.820  0.2993 -0.5004 -0.3519
  477MOL0     H65773   1.753  10.094   1.627 -0.5013 -0.8976  0.8845
  477MOL0     H65774   1.772  10.132   1.795 -1.6038  1.4484 -0.3671
  477MOL0     H65775   2.100   9.936   1.709 -0.5834  0.1278  1.4066
  477MOL0     H65776   2.330  10.035   1.539 -1.2248  3.6769 -1.4237
  477MOL0     H65777   2.361  10.025   1.719  0.4709 -1.7834 -0.7174
  477MOL0     H65778   2.382  10.276   1.541 -1.2269 -1.0099  0.1032
  477MOL0     H65779   2.378  10.271   1.719  0.2868  0.5278  0.1798
  477MOL0     H65780   2.579  10.152   1.735 -0.2622  4.0303  0.7786
  477MOL0     H65781   2.567  10.076   1.570  1.8351 -1.2721  0.7269
  477MOL0     H65782   2.607  10.290   1.460  0.8272  0.2000  0.5571
  477MOL0     H65783   2.610  10.369   1.613 -0.8241  0.1382 -1.2687
  477MOL0     H65784   3.005  10.211   1.677 -1.9753 -0.3621 -1.0412
  477MOL0     H65785   3.223  10.242   1.722 -1.3620 -0.9300 -2.2692
  477MOL0     H65786   3.255  10.419   1.721 -0.7605  0.0570  0.5386
  477MOL0     H65787   3.328  10.325   1.598  0.5978 -0.2810 -0.0985
  477MOL0     H65788   3.273  10.873   1.347 -0.7988  0.3243 -0.7447
  477MOL0     H65789   3.455  10.989   1.220  1.4234  0.3348 -0.6597
  477MOL0     H65790   3.809  10.781   1.115 -2.3789 -0.2496  2.0998
  477MOL0     H65791   3.723  10.757   0.962  0.6343 -3.2224  3.5524
  477MOL0     H65792   3.855  11.016   1.057 -0.9573 -0.7449  1.2964
  477MOL0     H65793   3.929  10.901   0.940 -0.1648 -2.1940  1.8562
  477MOL0     H65794   3.814  11.114   0.851  0.1100  0.0215 -0.1558
  477MOL0     H65795   3.663  11.020   0.884 -0.0530 -3.8161 -0.5343
  477MOL0     H65796   3.718  10.843   0.736 -2.3027  1.3830  2.6978
  477MOL0     H65797   3.884  10.882   0.739 -0.7059 -1.6096  1.5174
  477MOL0     H65798   3.873  11.075   0.606 -0.0519  0.1386 -0.5350
  477MOL0     H65799   3.798  10.944   0.523  2.5701  0.7921 -0.7201
  477MOL0     H65800   3.649  11.185   0.636 -1.6730  0.6086  1.0234
  477MOL0     H65801   3.567  11.027   0.605 -1.2413  3.1115 -0.7506
  477MOL0     H65802   3.673  11.039   0.375 -2.0014 -1.6022  1.9590
  477MOL0     H65803   3.747  11.189   0.419  0.9160 -0.8278 -0.8037
  477MOL0     H65804   3.562  11.230   0.277 -2.7102 -1.1178 -0.6191
  477MOL0     H65805   3.529  11.301   0.430 -0.7480  0.2885  0.0783
  477MOL0     H65806   3.615  10.603   1.103 -0.3088  0.1114  1.8614
  477MOL0     H65807   3.422  10.492   1.206 -0.5886  0.0525  1.0155
  477MOL0     H65808   2.993  10.583   1.352  1.4602  2.9518  2.3402
  477MOL0     H65809   2.776  10.465   1.416  0.0404  2.0034  0.4304
  477MOL0     H65810   1.109  10.065   1.962 -0.1808 -0.1644 -0.5229
  477MOL0     H65811   0.913  10.203   2.024  1.2801 -0.9568 -2.0333
  477MOL0     H65812   0.450  10.280   2.010  1.0615  0.8832  0.4394
  477MOL0     H65813   0.200  10.279   2.066 -1.0146 -0.6830  0.2090
  477MOL0     H65814  -0.072  10.155   2.367 -1.2505  2.9873  1.9917
  477MOL0     H65815   0.074  10.081   2.428 -2.1904 -0.8881  0.2297
  477MOL0     H65816   0.146  10.326   2.490 -0.8510  1.7862 -1.4312
  477MOL0     H65817   0.054  10.224   2.589 -0.2050 -1.5256 -0.5192
  477MOL0     H65818  -0.159  10.332   2.538  2.2573 -0.6933  0.3532
  477MOL0     H65819  -0.037  10.458   2.563  2.5737  0.8587 -0.7789
  477MOL0     H65820  -0.123  10.351   2.282  3.5374  1.4475 -2.8832
  477MOL0     H65821  -0.010  10.483   2.330  0.0443 -1.4344 -2.3220
  477MOL0     H65822  -0.398  10.662   2.407 -0.2094  1.0155 -2.0312
  477MOL0     H65823   0.293  10.131   2.449  0.3322 -1.0243  0.4842
  477MOL0     H65824   0.482  10.043   2.507 -0.3251 -1.1474  0.1559
  477MOL0     H65825   0.584   9.978   2.387 -0.5043 -0.9137  1.5597
  477MOL0     H65826   0.630  10.137   2.464 -0.6937 -1.4034  2.5764
  478MOL0     O65827  10.240   6.429   4.073 -0.8493 -0.9081  0.0834
  478MOL0     C65828  10.144   6.506   4.080  0.2464 -0.1941 -0.4136
  478MOL0     O65829  10.148   6.650   4.064 -0.7099  0.2207  0.2412
  478MOL0     C65830  10.280   6.711   4.055  0.4885  0.8414 -0.2308
  478MOL0     C65831  10.299   6.819   3.969  0.2973 -0.5948 -0.4325
  478MOL0     C65832  10.428   6.878   3.952  0.0242  0.7634  0.5966
  478MOL0     C65833  10.541   6.826   4.019 -0.3390 -0.0989  0.2955
  478MOL0     O65834  10.668   6.875   4.009 -0.2038  0.6876 -0.3193
  478MOL0     C65835  10.683   7.003   4.060 -0.1581  0.7142 -0.2434
  478MOL0     C65836  10.794   7.082   3.980 -0.1211 -0.0033 -0.9016
  478MOL0     C65837  10.937   7.017   4.001 -0.4476 -0.2720  0.3320
  478MOL0     C65838  11.044   7.118   3.986 -0.3473 -0.0639 -0.0091
  478MOL0     C65839  11.185   7.053   4.013  0.3716 -0.0524 -0.2304
  478MOL0     C65840  11.298   7.161   4.001  0.5600 -0.0865  0.4974
  478MOL0     C65841  11.425   7.117   4.075 -0.3681  0.6161 -0.5434
  478MOL0     C65842  11.553   7.191   4.035  0.6208  0.5507 -0.1820
  478MOL0     N65843  11.677   7.157   4.117 -0.0091 -0.0701 -1.0029
  478MOL0     C65844  11.754   7.039   4.102 -0.1523  0.2917  0.1841
  478MOL0     C65845  11.859   7.043   4.190 -0.5963 -0.0540  0.6225
  478MOL0     C65846  11.974   6.948   4.211 -0.4158 -0.1758 -0.6780
  478MOL0     C65847  12.098   7.017   4.267 -0.1252 -0.1301  0.1737
  478MOL0     C65848  12.213   6.927   4.291  0.0925 -0.6168 -0.3037
  478MOL0     C65849  12.333   6.997   4.363  0.9932  0.5529  0.0024
  478MOL0     O65850  12.427   6.893   4.419  0.1175 -0.1771  0.1438
  478MOL0     C65851  12.558   6.924   4.451 -0.0067  0.1003 -0.7899
  478MOL0     C65852  12.612   7.053   4.437  0.0321 -0.1148 -0.2143
  478MOL0     C65853  12.741   7.081   4.491  0.2809 -0.5481  0.1908
  478MOL0     C65854  12.793   7.224   4.459 -0.1281  0.2652 -0.9814
  478MOL0     C65855  12.815   6.981   4.561 -0.7245  0.0390  0.4283
  478MOL0     C65856  12.953   6.996   4.603  0.4060 -0.1051 -0.0685
  478MOL0     O65857  12.981   6.920   4.710  0.3006  0.0027 -0.5335
  478MOL0     C65858  13.108   6.923   4.762 -0.9078 -0.4081  0.2514
  478MOL0     C65859  13.223   6.893   4.690  0.0859 -0.5627 -0.1498
  478MOL0     C65860  13.346   6.889   4.755  0.9461 -0.1004  0.3574
  478MOL0     C65861  13.361   6.935   4.887  0.0384 -0.4660  0.3571
  478MOL0     O65862  13.475   6.949   4.951  0.2645 -0.3934  0.5125
  478MOL0     C65863  13.571   6.847   4.928 -0.8307  0.3842  0.0852
  478MOL0     C65864  13.698   6.886   5.011  0.5852 -0.3790  0.3096
  478MOL0     C65865  13.796   6.773   5.014  0.6590 -0.1609 -0.2465
  478MOL0     C65866  13.900   6.789   5.132 -0.5489 -0.0531 -0.4070
  478MOL0     C65867  14.033   6.727   5.104 -0.2796  0.2631 -0.2540
  478MOL0     C65868  14.141   6.718   5.220 -0.7317 -0.6029  0.3516
  478MOL0     C65869  14.269   6.639   5.187 -0.3984  0.0010  0.1678
  478MOL0     C65870  14.366   6.693   5.084  0.0241 -0.3435  0.7605
  478MOL0    Cl65871  14.485   6.811   5.140  0.4963 -0.2406 -0.1949
  478MOL0     C65872  13.248   6.973   4.958  0.3215  0.1310  0.0922
  478MOL0     C65873  13.123   6.961   4.894  0.0214 -1.1193 -0.2576
  478MOL0     O65874  13.031   7.066   4.537 -0.4336  0.7233  0.0484
  478MOL0     C65875  12.751   6.855   4.581  1.2418  1.0975 -0.0868
  478MOL0     C65876  12.629   6.832   4.526  0.4679 -0.1229 -0.1444
  478MOL0     N65877  11.845   7.164   4.261  0.4050  0.8826  0.1372
  478MOL0     N65878  11.746   7.228   4.212  0.0535 -0.6502 -0.5706
  478MOL0     C65879  10.518   6.717   4.108 -0.1004  0.6987  0.2902
  478MOL0     C65880  10.386   6.672   4.137 -0.3177 -0.0689  0.2219
  478MOL0     C65881  10.020   6.441   4.125  0.0036 -0.3472 -0.2332
  478MOL0     C65882   9.993   6.322   4.065  0.2873 -0.1674 -0.0407
  478MOL0     C65883   9.872   6.258   4.099  0.2206 -0.5605 -0.3634
  478MOL0     C65884   9.771   6.321   4.180  0.3809 -0.8611 -0.1491
  478MOL0     O65885   9.649   6.266   4.213  0.0666  0.3860 -0.4759
  478MOL0     C65886   9.657   6.132   4.260 -0.1218  0.5494 -0.7002
  478MOL0     C65887   9.522   6.065   4.277  0.4455 -0.3365 -0.2651
  478MOL0     C65888   9.442   6.111   4.400  0.5009  0.5592 -0.4316
  478MOL0     C65889   9.478   6.027   4.533 -0.2804 -0.6614  0.0242
  478MOL0     C65890   9.439   5.884   4.521 -0.1465 -0.3332 -0.2451
  478MOL0     C65891   9.423   5.766   4.511 -0.1427  0.3010  0.3721
  478MOL0     C65892   9.795   6.452   4.229 -0.6939 -0.5538 -0.5839
  478MOL0     C65893   9.924   6.509   4.204  0.4360 -0.7599  0.1750
  478MOL0     C65894   9.946   6.642   4.272  0.3113  0.9726 -0.4462
  478MOL0     H65895  10.216   6.858   3.911  0.6512 -0.3014 -0.7445
  478MOL0     H65896  10.451   6.952   3.876  0.2269  1.0092  0.8924
  478MOL0     H65897  10.719   6.988   4.162  0.5817 -3.3546 -0.9353
  478MOL0     H65898  10.581   7.041   4.064 -1.1008 -1.1847 -3.0858
  478MOL0     H65899  10.757   7.079   3.877  1.1068  0.1005 -1.3617
  478MOL0     H65900  10.812   7.188   4.001  0.7452 -0.2707 -0.2138
  478MOL0     H65901  10.946   6.972   4.100  1.4131 -1.0010 -0.1211
  478MOL0     H65902  10.960   6.940   3.927  0.9683  1.0643 -0.6929
  478MOL0     H65903  11.041   7.144   3.879 -3.6924 -2.3439 -0.6285
  478MOL0     H65904  11.035   7.202   4.056 -0.3462  1.7512 -2.0636
  478MOL0     H65905  11.206   6.974   3.940 -1.8024 -0.7266 -0.1735
  478MOL0     H65906  11.193   7.011   4.114  0.3881  0.2331 -0.1093
  478MOL0     H65907  11.324   7.181   3.896 -0.2913 -1.9222 -0.1132
  478MOL0     H65908  11.266   7.255   4.046 -1.7687  0.7776 -2.6183
  478MOL0     H65909  11.449   7.011   4.067  2.0018  1.0557  0.0718
  478MOL0     H65910  11.399   7.129   4.180 -2.0900 -4.2778 -0.1425
  478MOL0     H65911  11.574   7.170   3.929  1.6606  0.0434  0.1020
  478MOL0     H65912  11.517   7.293   4.047 -3.2055 -0.8186  1.1713
  478MOL0     H65913  11.740   6.951   4.041 -1.9887  1.5406 -1.3234
  478MOL0     H65914  12.004   6.903   4.116  0.3937  0.3143 -0.6587
  478MOL0     H65915  11.946   6.852   4.256 -0.0444 -1.1895 -2.4942
  478MOL0     H65916  12.130   7.094   4.195 -0.0004 -1.3813 -1.1634
  478MOL0     H65917  12.071   7.069   4.359 -2.3782 -0.2500 -0.3707
  478MOL0     H65918  12.175   6.840   4.346 -0.7050  0.8359  1.5488
  478MOL0     H65919  12.246   6.894   4.192 -0.6017 -0.8926 -0.4506
  478MOL0     H65920  12.382   7.063   4.290  0.5752  2.9490  1.7488
  478MOL0     H65921  12.289   7.060   4.441  1.3438 -0.4197  1.0109
  478MOL0     H65922  12.554   7.134   4.394 -2.5622 -1.4933  0.4312
  478MOL0     H65923  12.872   7.225   4.383  1.6797 -0.3047  0.7940
  478MOL0     H65924  12.829   7.263   4.555  0.1709 -0.4341 -0.8033
  478MOL0     H65925  12.707   7.288   4.440 -0.5168  0.1250  0.2229
  478MOL0     H65926  13.220   6.871   4.584  2.8839  0.0059 -0.4234
  478MOL0     H65927  13.430   6.866   4.690 -0.1564 -0.7957 -0.8989
  478MOL0     H65928  13.538   6.747   4.960 -1.2449  0.6694  0.5773
  478MOL0     H65929  13.608   6.845   4.826  0.2287 -1.0406  0.4691
  478MOL0     H65930  13.750   6.968   4.960  2.3487 -1.0523  0.9325
  478MOL0     H65931  13.676   6.913   5.115  1.2517  1.0669  0.1023
  478MOL0     H65932  13.842   6.763   4.915  0.1507  1.6773 -0.6967
  478MOL0     H65933  13.735   6.684   5.030 -0.2074  0.3592 -0.6175
  478MOL0     H65934  13.857   6.738   5.218  1.1183  1.3764  1.3803
  478MOL0     H65935  13.910   6.895   5.157  0.7107 -0.1040 -0.5966
  478MOL0     H65936  14.011   6.625   5.070  0.2279 -0.7558  2.2709
  478MOL0     H65937  14.085   6.784   5.027  1.2541  1.2837  1.4680
  478MOL0     H65938  14.096   6.667   5.305 -1.0548  0.6707  0.9673
  478MOL0     H65939  14.169   6.819   5.250 -0.5787  0.1204 -1.9917
  478MOL0     H65940  14.235   6.543   5.147  0.1527  0.2451 -0.9321
  478MOL0     H65941  14.319   6.604   5.278 -0.5574  0.6862  0.5224
  478MOL0     H65942  14.316   6.745   5.002  0.2318  1.2677  1.6007
  478MOL0     H65943  14.415   6.601   5.051  0.0581 -0.7333  1.8460
  478MOL0     H65944  13.265   6.998   5.062  0.0989 -0.8274  0.3680
  478MOL0     H65945  13.032   6.985   4.948 -0.3202  1.4714 -1.8319
  478MOL0     H65946  12.811   6.779   4.629  1.6897  0.8428 -1.0354
  478MOL0     H65947  12.582   6.734   4.527  0.9455 -0.5136 -3.4800
  478MOL0     H65948  10.600   6.663   4.154 -0.5296 -1.3940 -1.2496
  478MOL0     H65949  10.380   6.595   4.214 -0.2684 -0.4288 -0.1291
  478MOL0     H65950  10.058   6.277   3.991  0.4807  0.0431  0.0027
  478MOL0     H65951   9.849   6.160   4.060 -0.0749 -0.4576 -0.4471
  478MOL0     H65952   9.712   6.077   4.183 -1.6967 -2.0830 -0.0895
  478MOL0     H65953   9.710   6.130   4.355  1.4933 -1.2242 -1.5628
  478MOL0     H65954   9.551   5.960   4.276  2.6900  0.2280  0.2877
  478MOL0     H65955   9.463   6.086   4.188  2.5834  1.4218 -1.3646
  478MOL0     H65956   9.454   6.219   4.407  1.4403  0.3539  1.5299
  478MOL0     H65957   9.339   6.086   4.372  1.0416 -2.3096 -0.1761
  478MOL0     H65958   9.429   6.068   4.621  2.0134 -1.3528  1.7436
  478MOL0     H65959   9.587   6.034   4.538 -0.2607  0.2392 -1.1920
  478MOL0     H65960   9.419   5.659   4.502 -0.7540  0.1945  1.7119
  478MOL0     H65961   9.727   6.504   4.296 -1.3384 -3.1415  0.9258
  478MOL0     H65962  10.037   6.643   4.333 -0.2974 -0.1517  0.5375
  478MOL0     H65963   9.960   6.718   4.194  0.3039  0.5371 -0.8736
  478MOL0     H65964   9.867   6.667   4.344  2.1817 -4.0372  3.9606
  479MOL0     O65965   9.535   5.779   5.697  0.1152 -0.3191  0.4011
  479MOL0     C65966   9.523   5.902   5.679 -0.5353  1.1377  0.4142
  479MOL0     O65967   9.616   5.985   5.624  0.3050  0.0200  0.1579
  479MOL0     C65968   9.739   5.943   5.575 -0.3563  0.1996 -0.8104
  479MOL0     C65969   9.814   5.832   5.618 -0.2548 -0.1212 -0.2779
  479MOL0     C65970   9.934   5.784   5.555 -0.4803 -0.6178  0.1065
  479MOL0     C65971   9.980   5.857   5.448  0.3707  0.6439 -0.8682
  479MOL0     O65972  10.082   5.814   5.383 -0.6428 -0.1604  0.8081
  479MOL0     C65973  10.190   5.904   5.352  0.1726  0.3848 -0.4913
  479MOL0     C65974  10.308   5.828   5.301  0.0251  0.1848  0.5645
  479MOL0     C65975  10.419   5.917   5.292  0.2342  0.2336  0.5673
  479MOL0     C65976  10.556   5.852   5.280  0.0454 -0.8075  0.1709
  479MOL0     C65977  10.666   5.952   5.227 -0.4736  0.4716 -0.4317
  479MOL0     C65978  10.626   6.000   5.081 -0.3203 -0.0538 -0.4895
  479MOL0     C65979  10.761   6.032   5.003  1.0151  0.0229  0.2953
  479MOL0     C65980  10.856   5.915   4.979  0.3572  0.2688  0.3001
  479MOL0     N65981  10.962   5.965   4.891 -0.6113  0.2940 -0.4138
  479MOL0     C65982  11.054   5.873   4.840 -0.1000 -0.8700  0.3525
  479MOL0     C65983  11.126   5.938   4.747  0.7184 -0.1463  0.5363
  479MOL0     C65984  11.250   5.895   4.679  0.3597  0.1293 -0.2320
  479MOL0     C65985  11.374   5.927   4.754 -0.2913 -0.5469  0.0385
  479MOL0     C65986  11.376   5.847   4.888 -0.6097 -0.5085  0.9040
  479MOL0     C65987  11.519   5.800   4.909 -0.4582  0.7570 -0.6310
  479MOL0     O65988  11.561   5.693   4.817 -0.4494 -0.1273 -0.1439
  479MOL0     C65989  11.696   5.650   4.836 -0.5605  0.2535 -0.2188
  479MOL0     C65990  11.787   5.695   4.929  0.0684  0.6489  0.7692
  479MOL0     C65991  11.915   5.644   4.945 -0.6822  0.6189 -0.5190
  479MOL0     C65992  11.992   5.697   5.053 -0.5793 -1.3292  0.2855
  479MOL0     C65993  11.958   5.540   4.859 -0.0652  0.0301 -0.0656
  479MOL0     C65994  12.091   5.477   4.863  0.4696 -0.4699  0.2385
  479MOL0     O65995  12.098   5.352   4.813  0.0331 -0.5886 -0.5886
  479MOL0     C65996  12.210   5.280   4.820  0.1368 -0.4569  1.0621
  479MOL0     C65997  12.299   5.285   4.923 -0.9656 -0.2504 -0.2097
  479MOL0     C65998  12.405   5.190   4.934  0.8109 -0.7029 -0.3058
  479MOL0     C65999  12.421   5.086   4.840  0.1597 -0.0254 -0.6511
  479MOL0     O66000  12.522   4.996   4.852  0.2841 -0.6591  0.1161
  479MOL0     C66001  12.627   5.006   4.940  0.3039  0.1264 -1.6696
  479MOL0     C66002  12.699   4.875   4.924 -0.3667 -0.0960 -0.2128
  479MOL0     C66003  12.821   4.867   5.012 -0.2367 -0.2263  0.2034
  479MOL0     C66004  12.920   4.977   4.991  0.3274 -0.5091  0.1115
  479MOL0     C66005  13.051   4.980   5.076 -0.0175 -0.1661  0.2962
  479MOL0     C66006  13.149   5.074   4.996 -0.0096  0.5040  0.1090
  479MOL0     C66007  13.284   5.095   5.062  0.3024 -0.2931 -0.4687
  479MOL0     C66008  13.378   4.975   5.029  0.1276 -0.3255 -0.5571
  479MOL0    Cl66009  13.425   4.965   4.856  0.0985  0.2134  0.6095
  479MOL0     C66010  12.331   5.075   4.738 -0.2464 -0.0855 -0.0445
  479MOL0     C66011  12.230   5.176   4.726 -0.0343  0.9851  0.3504
  479MOL0     O66012  12.181   5.551   4.895  0.1617 -0.0572  0.7287
  479MOL0     C66013  11.863   5.487   4.771 -0.2309 -0.5084 -0.0952
  479MOL0     C66014  11.737   5.544   4.749  0.2262 -0.1264  0.0442
  479MOL0     N66015  11.080   6.073   4.747  0.6405 -0.0299 -0.1116
  479MOL0     N66016  10.978   6.090   4.830 -0.1262 -0.2354  0.4894
  479MOL0     C66017   9.910   5.970   5.408 -1.0541 -0.2182 -0.5569
  479MOL0     C66018   9.781   6.005   5.463 -0.2413 -0.1767  0.0527
  479MOL0     C66019   9.398   5.969   5.731 -0.3976  0.8053  0.5328
  479MOL0     C66020   9.397   6.101   5.768 -0.1038  0.2816 -0.7217
  479MOL0     C66021   9.288   6.171   5.818 -0.4526  0.3765 -0.1161
  479MOL0     C66022   9.166   6.104   5.827 -0.0353 -0.3526  0.2027
  479MOL0     O66023   9.062   6.180   5.880  0.5715 -0.0752 -0.5983
  479MOL0     C66024   8.937   6.122   5.886 -0.3895  0.0127  0.5071
  479MOL0     C66025   8.835   6.229   5.914  0.6908  0.7465  0.1539
  479MOL0     C66026   8.827   6.266   6.062 -0.0713  0.7990  0.5150
  479MOL0     C66027   8.722   6.374   6.092  0.3439 -0.1238 -0.3454
  479MOL0     C66028   8.588   6.326   6.124  0.1457  0.6161  0.1723
  479MOL0     C66029   8.479   6.267   6.141  0.4230  0.3613  0.7109
  479MOL0     C66030   9.157   5.976   5.774  0.0227  0.8429 -0.4989
  479MOL0     C66031   9.267   5.899   5.734  0.2433  0.7633  0.3546
  479MOL0     C66032   9.244   5.751   5.707  0.7435  0.7015  0.8421
  479MOL0     H66033   9.778   5.769   5.700  0.1526 -1.5632 -1.1650
  479MOL0     H66034   9.973   5.686   5.582  2.6853  0.5713  0.3644
  479MOL0     H66035  10.206   5.956   5.446 -2.5952 -0.9853  0.8460
  479MOL0     H66036  10.155   5.977   5.279 -0.4117 -0.1883 -0.7915
  479MOL0     H66037  10.336   5.740   5.360 -3.0957 -1.1664  0.2291
  479MOL0     H66038  10.277   5.788   5.204  0.5658 -2.4850  1.4073
  479MOL0     H66039  10.416   5.981   5.203  0.2220  1.7066  1.5856
  479MOL0     H66040  10.415   5.988   5.375  0.4026  0.1013  0.6887
  479MOL0     H66041  10.590   5.812   5.376 -2.4145  3.4924  3.1703
  479MOL0     H66042  10.554   5.776   5.202  0.8736  1.4663 -2.1961
  479MOL0     H66043  10.762   5.898   5.229  0.3640  1.8199  2.7827
  479MOL0     H66044  10.676   6.033   5.300  4.3064  1.0786 -1.4033
  479MOL0     H66045  10.566   5.930   5.023  0.9344 -0.3423 -1.4678
  479MOL0     H66046  10.574   6.095   5.099  0.2860  0.4855 -1.5345
  479MOL0     H66047  10.817   6.115   5.047  0.8827  0.6761 -0.7474
  479MOL0     H66048  10.730   6.074   4.907  0.3171  0.8931  0.8915
  479MOL0     H66049  10.901   5.885   5.074  0.0300  1.8694  0.9835
  479MOL0     H66050  10.808   5.829   4.931  0.8275 -0.6284  1.4049
  479MOL0     H66051  11.081   5.777   4.882 -1.2995 -1.2824  0.1930
  479MOL0     H66052  11.256   5.934   4.577 -1.3773 -1.0682 -0.8442
  479MOL0     H66053  11.251   5.786   4.666 -1.1355  0.1838 -1.0660
  479MOL0     H66054  11.451   5.903   4.680  0.2914  0.3701  0.3382
  479MOL0     H66055  11.387   6.034   4.773 -0.4643 -0.5578  0.2227
  479MOL0     H66056  11.340   5.906   4.973 -2.6898 -0.2217 -0.1100
  479MOL0     H66057  11.316   5.755   4.884 -0.4958 -0.5492  0.0055
  479MOL0     H66058  11.591   5.881   4.892  3.7683 -2.5873 -0.3227
  479MOL0     H66059  11.540   5.759   5.008  1.6834 -1.7090 -1.9802
  479MOL0     H66060  11.750   5.761   5.008 -0.9756  1.7917 -0.6072
  479MOL0     H66061  12.034   5.617   5.114 -3.2909 -2.2680  1.0564
  479MOL0     H66062  11.934   5.772   5.107 -1.0900 -1.3410 -0.2361
  479MOL0     H66063  12.077   5.750   5.009 -0.2856 -0.6179  1.6594
  479MOL0     H66064  12.289   5.354   5.007 -0.9836 -1.8419  1.1539
  479MOL0     H66065  12.480   5.200   5.011  1.3764 -1.3372 -0.7621
  479MOL0     H66066  12.680   5.097   4.911  1.5144  0.5927  1.5780
  479MOL0     H66067  12.599   5.014   5.046  0.5148  0.8790 -1.6645
  479MOL0     H66068  12.627   4.796   4.946  1.3497 -1.2522  1.6269
  479MOL0     H66069  12.728   4.874   4.818 -1.6013 -0.1703 -0.5596
  479MOL0     H66070  12.876   4.773   5.007 -2.7552 -1.8573  0.9808
  479MOL0     H66071  12.781   4.873   5.113  2.7172  1.3958  1.3822
  479MOL0     H66072  12.869   5.073   5.000 -0.6166 -0.7973 -1.7427
  479MOL0     H66073  12.952   4.967   4.887  1.0959 -0.6510  0.3507
  479MOL0     H66074  13.044   5.023   5.177 -1.3734 -1.2260  0.6788
  479MOL0     H66075  13.096   4.881   5.077  1.1736  0.3527  0.9474
  479MOL0     H66076  13.107   5.175   4.994  2.1454  1.4699  0.6025
  479MOL0     H66077  13.163   5.038   4.893  2.7484 -2.0455  1.2085
  479MOL0     H66078  13.288   5.112   5.170  4.1942  2.5347 -0.8563
  479MOL0     H66079  13.324   5.184   5.011 -1.0761  0.2283 -0.6927
  479MOL0     H66080  13.314   4.893   5.062  0.6870  0.5142  2.9109
  479MOL0     H66081  13.471   4.994   5.083  0.0152 -1.7218  0.1566
  479MOL0     H66082  12.332   4.991   4.670  1.3216  1.1300 -1.6226
  479MOL0     H66083  12.150   5.181   4.653 -1.5101  2.3417  1.9698
  479MOL0     H66084  11.900   5.402   4.715  2.4333  0.1155  0.5544
  479MOL0     H66085  11.666   5.510   4.674  1.1750 -0.0891 -0.8893
  479MOL0     H66086   9.943   6.019   5.317 -0.4250  1.6188  0.6205
  479MOL0     H66087   9.725   6.083   5.413 -0.0083 -0.7147 -1.0804
  479MOL0     H66088   9.479   6.164   5.735  0.5400 -0.1895 -0.0333
  479MOL0     H66089   9.297   6.272   5.856 -1.4256  0.7360 -0.8028
  479MOL0     H66090   8.915   6.084   5.786 -1.3528  1.1774  0.2522
  479MOL0     H66091   8.929   6.042   5.960  1.8034  0.7098  1.5833
  479MOL0     H66092   8.733   6.199   5.885  0.6141  1.3930 -0.2725
  479MOL0     H66093   8.862   6.317   5.854  1.7548 -0.0530 -0.5771
  479MOL0     H66094   8.804   6.175   6.117  1.1754  0.7815  1.0287
  479MOL0     H66095   8.925   6.308   6.088  1.3663 -0.5971 -2.2254
  479MOL0     H66096   8.715   6.423   5.995 -0.1363  1.9828  0.6966
  479MOL0     H66097   8.746   6.451   6.166  1.6720  0.8569 -1.7316
  479MOL0     H66098   8.388   6.213   6.161 -0.6561  1.2562 -1.4731
  479MOL0     H66099   9.062   5.925   5.779 -0.6030  2.0232 -0.0128
  479MOL0     H66100   9.137   5.730   5.713  0.7624  0.2907 -0.1289
  479MOL0     H66101   9.274   5.712   5.609  3.1911 -4.2169  3.2100
  479MOL0     H66102   9.286   5.679   5.778  2.2196  2.2427  1.5949
  480MOL0     O66103   1.718   6.523   2.030 -0.5831  0.6616 -0.0950
  480MOL0     C66104   1.694   6.545   1.911  0.4726 -0.0258 -0.2329
  480MOL0     O66105   1.773   6.598   1.820 -0.2432  0.2848  0.0356
  480MOL0     C66106   1.909   6.602   1.847 -0.1916  0.2450 -0.1718
  480MOL0     C66107   1.979   6.485   1.828 -0.4081  0.5086 -0.3008
  480MOL0     C66108   2.121   6.490   1.835 -0.2941  0.2927 -1.1086
  480MOL0     C66109   2.194   6.603   1.866  0.7256  0.8959  0.7973
  480MOL0     O66110   2.326   6.591   1.872  0.1175  0.4759 -0.6241
  480MOL0     C66111   2.399   6.700   1.821 -0.3650  0.4322 -0.2790
  480MOL0     C66112   2.546   6.690   1.874 -0.5094 -0.5694 -0.5091
  480MOL0     C66113   2.564   6.740   2.009  0.2160  0.2458 -0.3772
  480MOL0     C66114   2.697   6.676   2.067 -0.1841  1.1263  0.2310
  480MOL0     C66115   2.718   6.718   2.211  0.5823 -0.4710 -0.1186
  480MOL0     C66116   2.842   6.634   2.256 -0.2644 -0.6749 -0.5441
  480MOL0     C66117   2.974   6.680   2.185 -0.4476 -0.7236 -0.2865
  480MOL0     C66118   3.100   6.676   2.281 -0.0129 -0.2024  0.2168
  480MOL0     N66119   3.215   6.719   2.197  0.1636  0.2787 -0.3997
  480MOL0     C66120   3.300   6.812   2.243  0.7568 -0.6849 -0.0974
  480MOL0     C66121   3.401   6.816   2.155  0.2780  0.3437 -0.6781
  480MOL0     C66122   3.529   6.902   2.164  0.5170 -0.4424 -0.0150
  480MOL0     C66123   3.520   7.026   2.073  0.0115  0.5816 -0.4307
  480MOL0     C66124   3.542   6.984   1.926  0.6800 -0.0695  0.2346
  480MOL0     C66125   3.497   7.106   1.842 -0.5236  0.0131 -0.5222
  480MOL0     O66126   3.578   7.220   1.887  0.6231  0.3845 -0.0694
  480MOL0     C66127   3.697   7.257   1.836 -0.7870  0.3548  0.6934
  480MOL0     C66128   3.782   7.188   1.748  0.6362 -0.4334 -0.1608
  480MOL0     C66129   3.898   7.244   1.693 -0.1703 -1.2592  0.2222
  480MOL0     C66130   3.975   7.163   1.595 -0.0467 -0.4322  0.7086
  480MOL0     C66131   3.936   7.380   1.722  0.5666  0.0668  0.1888
  480MOL0     C66132   4.039   7.452   1.656  0.2050 -0.3028  0.8393
  480MOL0     O66133   4.021   7.468   1.521  0.6053 -0.3154  0.9057
  480MOL0     C66134   4.114   7.533   1.444  0.2715 -0.5007  0.3636
  480MOL0     C66135   4.166   7.660   1.478 -0.1273  0.2224  0.1161
  480MOL0     C66136   4.271   7.708   1.399 -0.2665 -0.1640 -0.3248
  480MOL0     C66137   4.330   7.641   1.289 -0.9268 -0.4806  0.3206
  480MOL0     O66138   4.426   7.701   1.219  0.1980  0.1328  0.6647
  480MOL0     C66139   4.452   7.671   1.087  0.5216  0.1082  0.3883
  480MOL0     C66140   4.563   7.764   1.032  0.2376 -0.5411 -0.5317
  480MOL0     C66141   4.687   7.780   1.132 -0.0035  0.0418  0.2032
  480MOL0     C66142   4.787   7.872   1.067 -0.1353  0.3642 -0.2991
  480MOL0     C66143   4.881   7.811   0.966  0.1705  0.4368  0.0741
  480MOL0     C66144   4.959   7.901   0.873  0.3665 -0.0632 -0.6915
  480MOL0     C66145   5.023   7.833   0.742  0.0001  0.1913 -0.0374
  480MOL0     C66146   5.135   7.903   0.671  0.5037 -0.3045 -0.6368
  480MOL0    Cl66147   5.063   8.065   0.642  0.2086  0.3275 -0.0626
  480MOL0     C66148   4.274   7.520   1.254  0.0536  0.4670 -0.2626
  480MOL0     C66149   4.164   7.467   1.331  0.7370 -0.2930 -0.6762
  480MOL0     O66150   4.138   7.483   1.711 -0.0325  0.0900  0.0819
  480MOL0     C66151   3.861   7.442   1.820 -0.6842  0.0381  0.4769
  480MOL0     C66152   3.744   7.385   1.878  0.6799 -0.2809  0.2423
  480MOL0     N66153   3.370   6.730   2.049 -0.0532 -0.1035  0.5107
  480MOL0     N66154   3.254   6.678   2.077  0.6940 -0.0250 -0.7730
  480MOL0     C66155   2.120   6.717   1.894  0.1932 -0.7818  0.1375
  480MOL0     C66156   1.979   6.720   1.879  0.1154 -0.3678  0.4615
  480MOL0     C66157   1.556   6.523   1.862 -1.1815 -0.0020 -0.2563
  480MOL0     C66158   1.463   6.626   1.858 -0.4309 -0.2497 -0.5017
  480MOL0     C66159   1.333   6.595   1.820  0.0556  0.1425  0.1268
  480MOL0     C66160   1.297   6.470   1.779  0.4999 -0.0070  0.0179
  480MOL0     O66161   1.173   6.436   1.732  0.6597  0.5490  0.4599
  480MOL0     C66162   1.104   6.549   1.672 -0.3639 -0.3010 -0.4166
  480MOL0     C66163   0.991   6.497   1.596  0.8362 -1.0654  0.0460
  480MOL0     C66164   1.036   6.449   1.460  0.1779 -0.0934 -0.3440
  480MOL0     C66165   1.149   6.521   1.387 -0.6375  0.2066 -1.3070
  480MOL0     C66166   1.160   6.474   1.252 -0.8510 -0.1313  0.1152
  480MOL0     C66167   1.163   6.414   1.146 -0.3636 -0.4208 -0.2048
  480MOL0     C66168   1.390   6.360   1.801 -0.3970  0.2827  0.1973
  480MOL0     C66169   1.525   6.388   1.824 -1.2129 -0.1983  0.0272
  480MOL0     C66170   1.622   6.272   1.830  0.4089 -0.5414 -0.0775
  480MOL0     H66171   1.919   6.396   1.820  0.9031 -0.5962  1.3384
  480MOL0     H66172   2.172   6.394   1.827 -0.9671  0.0164 -2.2067
  480MOL0     H66173   2.348   6.794   1.846 -1.5255 -0.0023 -0.9080
  480MOL0     H66174   2.402   6.700   1.712  0.7383  1.6470 -0.2668
  480MOL0     H66175   2.568   6.584   1.866  0.5824 -0.3636 -0.3195
  480MOL0     H66176   2.607   6.749   1.805 -0.9196 -0.5008 -0.8158
  480MOL0     H66177   2.569   6.848   2.001 -1.9891  0.4824  0.7152
  480MOL0     H66178   2.478   6.715   2.072 -0.8225  2.9963 -0.5750
  480MOL0     H66179   2.679   6.569   2.063  0.5838  0.9811  0.4905
  480MOL0     H66180   2.773   6.701   1.993 -2.9468 -1.4393 -3.8798
  480MOL0     H66181   2.626   6.701   2.268 -0.0935  1.3276 -0.6053
  480MOL0     H66182   2.730   6.827   2.213  0.3693 -0.4221 -1.0080
  480MOL0     H66183   2.842   6.648   2.364 -2.7149 -0.2303 -0.5390
  480MOL0     H66184   2.831   6.531   2.220 -1.2757 -0.0835 -2.0171
  480MOL0     H66185   2.963   6.778   2.140 -1.6117  0.3796  2.2141
  480MOL0     H66186   2.994   6.611   2.102 -4.7703 -1.5866 -0.8758
  480MOL0     H66187   3.074   6.739   2.366  0.2632  0.8944 -0.4818
  480MOL0     H66188   3.109   6.574   2.317  0.1063 -0.2139  0.1545
  480MOL0     H66189   3.302   6.875   2.332 -2.3294 -0.5564 -0.0082
  480MOL0     H66190   3.618   6.841   2.145  1.2075  0.5459  0.0226
  480MOL0     H66191   3.537   6.939   2.267  0.6203 -0.1847 -0.1173
  480MOL0     H66192   3.427   7.080   2.092  0.6068  0.8317  2.1092
  480MOL0     H66193   3.602   7.095   2.094 -1.5907  1.9831  1.5761
  480MOL0     H66194   3.647   6.962   1.906  1.3434  2.1654  1.0673
  480MOL0     H66195   3.473   6.902   1.900 -0.3575  0.4641  1.2135
  480MOL0     H66196   3.518   7.087   1.736  0.8528 -2.5211  0.1226
  480MOL0     H66197   3.390   7.129   1.843 -0.9318 -1.6336 -1.5789
  480MOL0     H66198   3.750   7.090   1.711 -1.4319  0.6530 -1.4593
  480MOL0     H66199   3.933   7.191   1.498  0.3399  1.5501  1.0748
  480MOL0     H66200   3.960   7.057   1.615 -2.1239 -0.1281  1.0058
  480MOL0     H66201   4.081   7.184   1.612  0.0320  0.6772 -0.9572
  480MOL0     H66202   4.121   7.716   1.559  3.3626 -0.0509  2.4917
  480MOL0     H66203   4.309   7.808   1.419  1.2227 -0.7872  0.1144
  480MOL0     H66204   4.491   7.569   1.084  0.4125  0.0848 -2.2144
  480MOL0     H66205   4.360   7.674   1.028  1.3533 -0.2049 -0.9558
  480MOL0     H66206   4.594   7.718   0.938 -1.4364 -0.7765 -1.0103
  480MOL0     H66207   4.514   7.858   1.004  0.2684 -0.6184 -0.8565
  480MOL0     H66208   4.725   7.685   1.170 -3.4524 -1.1597  1.0098
  480MOL0     H66209   4.661   7.829   1.226  2.2607 -1.0026  1.4572
  480MOL0     H66210   4.845   7.925   1.143  1.2165  0.3213 -1.2670
  480MOL0     H66211   4.739   7.953   1.011  1.6195 -0.1179 -2.6775
  480MOL0     H66212   4.940   7.732   1.013 -0.1474  0.3998  0.4120
  480MOL0     H66213   4.816   7.749   0.903  1.3077 -0.8772  0.1430
  480MOL0     H66214   5.028   7.964   0.929  0.6648 -0.4716 -0.5900
  480MOL0     H66215   4.884   7.969   0.832 -0.0196 -0.2472 -0.2916
  480MOL0     H66216   4.944   7.845   0.668 -0.6266  1.3564  0.7887
  480MOL0     H66217   5.048   7.727   0.756 -1.6643 -0.2886 -0.4572
  480MOL0     H66218   5.173   7.854   0.581  1.4938 -1.5888  0.4231
  480MOL0     H66219   5.221   7.908   0.739  0.1908  1.4660 -0.3188
  480MOL0     H66220   4.303   7.468   1.164  1.4714  0.6248  0.0778
  480MOL0     H66221   4.124   7.368   1.313 -1.5949  0.2930  0.8003
  480MOL0     H66222   3.894   7.540   1.852  1.9693 -0.6498  0.0406
  480MOL0     H66223   3.693   7.450   1.948 -1.4431 -0.8936 -0.6581
  480MOL0     H66224   2.174   6.798   1.942 -0.6741 -2.4197  4.3314
  480MOL0     H66225   1.909   6.800   1.905  0.1779 -0.2918  0.3953
  480MOL0     H66226   1.502   6.727   1.859 -0.0865 -0.3246  2.1554
  480MOL0     H66227   1.268   6.683   1.820  0.1341  0.3066  3.2058
  480MOL0     H66228   1.061   6.610   1.752 -0.9780  1.0272 -1.6974
  480MOL0     H66229   1.167   6.607   1.603 -0.1667  1.6456  1.2998
  480MOL0     H66230   0.923   6.582   1.584  1.1062 -0.6626  1.2591
  480MOL0     H66231   0.942   6.429   1.665  3.0006  1.9559  5.1385
  480MOL0     H66232   1.073   6.349   1.487  1.8201  0.2470 -1.1932
  480MOL0     H66233   0.946   6.439   1.399  0.3174 -2.5891 -0.2365
  480MOL0     H66234   1.247   6.501   1.431 -0.8809  1.7493  0.0677
  480MOL0     H66235   1.123   6.627   1.391 -0.8641  0.1277  0.6496
  480MOL0     H66236   1.159   6.349   1.061  0.1137 -0.1004 -0.4799
  480MOL0     H66237   1.360   6.257   1.784  0.3850  0.0336  0.2800
  480MOL0     H66238   1.635   6.236   1.932 -0.9397  0.3153  0.4230
  480MOL0     H66239   1.580   6.182   1.784  0.2990 -0.7611  0.4556
  480MOL0     H66240   1.719   6.294   1.784  0.7615 -0.0775  0.8665
  481MOL0     O66241   3.966   6.047   0.735  0.6338  0.3286 -0.4867
  481MOL0     C66242   4.004   6.161   0.706 -0.3300 -0.1125 -0.4758
  481MOL0     O66243   4.140   6.196   0.673 -0.1247  0.2389  0.7202
  481MOL0     C66244   4.249   6.118   0.701 -0.2876  0.1581  0.8310
  481MOL0     C66245   4.377   6.177   0.688  0.3468 -0.2456 -0.1942
  481MOL0     C66246   4.494   6.117   0.733 -0.5507 -0.6496 -0.8294
  481MOL0     C66247   4.497   5.985   0.785 -0.0132 -0.1008 -0.2733
  481MOL0     O66248   4.600   5.906   0.813 -0.3830  0.2547  0.4865
  481MOL0     C66249   4.724   5.948   0.754  0.6654  1.2515 -0.0738
  481MOL0     C66250   4.725   5.900   0.603 -0.4131 -0.7711 -0.5725
  481MOL0     C66251   4.848   5.968   0.537  0.3917  0.7870  1.5834
  481MOL0     C66252   4.811   5.999   0.394  0.3974 -0.3940  0.4800
  481MOL0     C66253   4.938   6.024   0.303 -0.6433  0.8001  0.1972
  481MOL0     C66254   4.904   6.075   0.157  0.5686  0.1772 -0.1366
  481MOL0     C66255   4.928   6.230   0.145 -0.0646  0.0959  0.6559
  481MOL0     C66256   4.857   6.310   0.257 -0.5949 -0.5652  0.8342
  481MOL0     N66257   4.904   6.456   0.251  0.0578  0.0248 -0.2750
  481MOL0     C66258   4.997   6.516   0.331 -0.5967  0.0309  0.0934
  481MOL0     C66259   5.015   6.636   0.278  0.5671  0.2516 -0.2039
  481MOL0     C66260   5.116   6.732   0.318 -0.8061  0.1671  0.5601
  481MOL0     C66261   5.252   6.671   0.352 -0.3627 -0.0899 -0.2299
  481MOL0     C66262   5.363   6.782   0.377  0.4709  0.0447  0.5767
  481MOL0     C66263   5.482   6.716   0.448  0.2589 -0.3345  0.6082
  481MOL0     O66264   5.589   6.808   0.410  0.3599  0.0172  0.8682
  481MOL0     C66265   5.712   6.753   0.399  0.4249  0.6271 -0.1796
  481MOL0     C66266   5.750   6.691   0.280  0.6733  0.3178  0.8563
  481MOL0     C66267   5.884   6.647   0.257  0.0167 -0.3314 -0.5241
  481MOL0     C66268   5.918   6.584   0.122 -1.5162 -0.0582  1.2271
  481MOL0     C66269   5.983   6.667   0.361 -0.0465  0.1219  0.1510
  481MOL0     C66270   6.125   6.627   0.336 -0.1012  0.5489 -0.4368
  481MOL0     O66271   6.213   6.656   0.436 -0.3590  0.1703 -0.5487
  481MOL0     C66272   6.346   6.630   0.422  0.1561  1.0929  0.7031
  481MOL0     C66273   6.416   6.622   0.295  0.7733 -0.1222 -0.7269
  481MOL0     C66274   6.554   6.599   0.294  0.0544 -0.0161 -0.4301
  481MOL0     C66275   6.618   6.570   0.415  0.6987 -0.5800 -0.0667
  481MOL0     O66276   6.752   6.533   0.410 -0.4291  0.2397  0.5007
  481MOL0     C66277   6.850   6.571   0.514 -0.5510 -0.8706  0.1895
  481MOL0     C66278   6.908   6.712   0.494  0.0987 -0.0313 -0.2935
  481MOL0     C66279   7.038   6.722   0.584  0.5835 -0.0748 -0.8428
  481MOL0     C66280   7.088   6.864   0.575  0.1430 -0.5155  0.4350
  481MOL0     C66281   7.229   6.871   0.634  0.1241  0.1653 -0.0626
  481MOL0     C66282   7.266   7.019   0.666  0.0543 -0.9277 -0.0474
  481MOL0     C66283   7.407   7.038   0.740  0.6383  0.5084  0.4020
  481MOL0     C66284   7.434   7.178   0.784  0.4544 -0.6793 -0.0882
  481MOL0    Cl66285   7.603   7.181   0.849 -0.3832 -0.0206 -0.4904
  481MOL0     C66286   6.555   6.591   0.533 -0.2448  1.0646 -0.2469
  481MOL0     C66287   6.419   6.620   0.538 -0.0672  0.8953 -0.6102
  481MOL0     O66288   6.144   6.547   0.249 -0.0207  0.2921  1.1010
  481MOL0     C66289   5.937   6.717   0.491 -0.8006 -0.0585  0.6657
  481MOL0     C66290   5.800   6.766   0.500 -0.4607  0.0980 -0.2031
  481MOL0     N66291   4.927   6.655   0.179 -0.3705  0.0104 -0.0997
  481MOL0     N66292   4.857   6.546   0.163  0.8256 -0.6485 -0.5509
  481MOL0     C66293   4.369   5.922   0.792  0.0362 -1.1071  0.3397
  481MOL0     C66294   4.255   5.993   0.758  0.7295 -0.2451 -0.7332
  481MOL0     C66295   3.905   6.264   0.728  0.5708 -0.6550  0.5338
  481MOL0     C66296   3.952   6.397   0.709 -0.9629 -0.3567  0.0001
  481MOL0     C66297   3.870   6.516   0.699 -0.8555  0.3262  0.4741
  481MOL0     C66298   3.733   6.492   0.714  0.2279 -0.6715 -0.4342
  481MOL0     O66299   3.643   6.597   0.726 -0.2130 -0.4010 -0.4032
  481MOL0     C66300   3.635   6.646   0.861 -0.1694 -0.0405 -0.2127
  481MOL0     C66301   3.624   6.800   0.868 -0.4001  0.4107  0.2631
  481MOL0     C66302   3.496   6.848   0.798  0.0734 -0.0395  0.5168
  481MOL0     C66303   3.510   7.006   0.761  0.2450  0.1749 -1.2191
  481MOL0     C66304   3.383   7.073   0.789  0.0312 -0.2644 -0.1724
  481MOL0     C66305   3.275   7.123   0.824 -0.3355 -0.5487 -1.0391
  481MOL0     C66306   3.678   6.369   0.745 -0.6276  0.8356  1.1090
  481MOL0     C66307   3.767   6.255   0.742  1.1289  0.4461 -0.3502
  481MOL0     C66308   3.691   6.120   0.761  0.7045 -0.4426 -0.1310
  481MOL0     H66309   4.383   6.280   0.654 -0.6718 -0.7032 -1.8419
  481MOL0     H66310   4.581   6.182   0.732 -2.4698  2.1563  0.5624
  481MOL0     H66311   4.809   5.900   0.803  0.6710  1.6452  0.3068
  481MOL0     H66312   4.733   6.057   0.750  1.5124  1.1593 -1.5784
  481MOL0     H66313   4.721   5.791   0.594 -2.4075 -0.8786  0.9877
  481MOL0     H66314   4.632   5.938   0.558 -0.0329 -0.4561 -1.1080
  481MOL0     H66315   4.881   6.061   0.585  0.7244  1.3961  0.2132
  481MOL0     H66316   4.927   5.893   0.545 -0.9944 -0.8598  0.5395
  481MOL0     H66317   4.754   5.914   0.354  3.3760 -2.6489  0.6553
  481MOL0     H66318   4.744   6.086   0.397 -0.9318 -1.2767 -1.5548
  481MOL0     H66319   4.976   5.923   0.288  1.4319  1.8870 -2.7989
  481MOL0     H66320   5.017   6.083   0.349  0.7387 -0.4849 -0.4377
  481MOL0     H66321   4.973   6.014   0.098  0.4065 -0.4744  0.3320
  481MOL0     H66322   4.804   6.043   0.125  0.6505  1.6579 -1.9802
  481MOL0     H66323   4.894   6.262   0.046 -0.2050  0.8103  0.9239
  481MOL0     H66324   5.037   6.246   0.149  0.2972 -0.9168 -2.3281
  481MOL0     H66325   4.749   6.315   0.238 -0.9033  1.0891  2.7391
  481MOL0     H66326   4.877   6.273   0.357 -2.2368 -1.5997  0.8268
  481MOL0     H66327   5.053   6.470   0.411  1.9990  1.1292 -0.9629
  481MOL0     H66328   5.076   6.786   0.404 -1.0009  0.6168  0.1932
  481MOL0     H66329   5.134   6.799   0.233  1.3476 -2.0862 -0.9321
  481MOL0     H66330   5.251   6.595   0.431  1.6642  1.2601  1.1984
  481MOL0     H66331   5.275   6.623   0.257  3.5215 -2.2501  1.5602
  481MOL0     H66332   5.382   6.802   0.272 -2.7166 -0.2346 -0.1329
  481MOL0     H66333   5.327   6.867   0.436  1.9365 -0.2339  1.9756
  481MOL0     H66334   5.483   6.713   0.558 -0.0129 -0.7558  0.6056
  481MOL0     H66335   5.490   6.614   0.408  2.5593 -0.8977  2.2883
  481MOL0     H66336   5.673   6.681   0.204  1.0995  0.7186  0.3667
  481MOL0     H66337   5.922   6.477   0.142 -4.0543 -0.1859  1.4009
  481MOL0     H66338   6.010   6.614   0.071 -0.6808 -1.2910  1.9448
  481MOL0     H66339   5.832   6.595   0.056  0.0407 -2.7755 -1.5063
  481MOL0     H66340   6.368   6.642   0.200 -0.3591 -0.3761 -0.2245
  481MOL0     H66341   6.605   6.596   0.198  2.0711  1.0805  0.5583
  481MOL0     H66342   6.801   6.560   0.611 -3.0327  0.5905 -0.7718
  481MOL0     H66343   6.932   6.499   0.519 -1.5393 -1.9932  0.9897
  481MOL0     H66344   6.923   6.729   0.387 -1.3380 -1.8025 -0.8312
  481MOL0     H66345   6.839   6.788   0.530 -0.3240 -0.7932  0.5467
  481MOL0     H66346   7.109   6.648   0.546  1.2098 -0.4707  1.0026
  481MOL0     H66347   7.013   6.695   0.686  1.5014 -0.4656 -0.7116
  481MOL0     H66348   7.029   6.927   0.641 -0.7407  1.3356 -1.9504
  481MOL0     H66349   7.081   6.910   0.476 -2.8213  0.9238  1.2071
  481MOL0     H66350   7.232   6.817   0.729  1.3854  0.0113 -0.1717
  481MOL0     H66351   7.302   6.836   0.560  0.2436  2.4632 -1.1558
  481MOL0     H66352   7.190   7.075   0.722  1.2572  1.0925 -0.3575
  481MOL0     H66353   7.280   7.067   0.569 -0.7930  0.1544  0.3537
  481MOL0     H66354   7.487   7.001   0.675  0.5425  0.4878  0.2954
  481MOL0     H66355   7.401   6.977   0.830 -1.6534  2.0428  1.3966
  481MOL0     H66356   7.358   7.201   0.859 -1.5696 -2.6521 -1.3980
  481MOL0     H66357   7.433   7.254   0.706  1.3288  0.9983  1.4728
  481MOL0     H66358   6.605   6.582   0.629 -0.5737 -0.9321 -0.2131
  481MOL0     H66359   6.368   6.645   0.630  2.2032  0.8993  0.7063
  481MOL0     H66360   6.011   6.739   0.568  3.9769 -3.2575 -2.5102
  481MOL0     H66361   5.777   6.826   0.587  0.2740  2.0106 -1.2600
  481MOL0     H66362   4.359   5.816   0.812 -1.3844 -1.8827 -3.5684
  481MOL0     H66363   4.159   5.943   0.763 -1.0526  2.9782  0.5878
  481MOL0     H66364   4.058   6.418   0.719 -1.1812  1.7411 -1.3671
  481MOL0     H66365   3.922   6.610   0.680  2.4528 -1.8032 -2.0984
  481MOL0     H66366   3.546   6.606   0.912 -1.1421  3.4996  1.1490
  481MOL0     H66367   3.729   6.609   0.904 -0.8028 -1.4187  0.0665
  481MOL0     H66368   3.711   6.853   0.828 -1.4592  0.2626 -2.4238
  481MOL0     H66369   3.612   6.832   0.971 -1.0637  2.8777 -0.5212
  481MOL0     H66370   3.480   6.805   0.699  2.3029  1.7180 -0.7131
  481MOL0     H66371   3.417   6.817   0.867 -0.4103  0.0799  0.0246
  481MOL0     H66372   3.546   7.017   0.658  2.9924  3.9211 -0.0856
  481MOL0     H66373   3.591   7.050   0.820 -0.0150  0.2531 -0.9214
  481MOL0     H66374   3.185   7.167   0.862  0.6247  2.2243 -1.7209
  481MOL0     H66375   3.572   6.356   0.768 -0.2522 -1.1442  1.9966
  481MOL0     H66376   3.742   6.060   0.837 -0.0164 -0.4921  0.3298
  481MOL0     H66377   3.590   6.134   0.801  0.8772  0.5483 -0.0044
  481MOL0     H66378   3.688   6.073   0.663 -2.3654  0.4945 -0.6046
  482MOL0     O66379   1.379  10.238   0.025  1.2375  0.0280  0.7762
  482MOL0     C66380   1.390  10.356   0.015 -0.6929 -0.3715  0.8162
  482MOL0     O66381   1.490  10.431   0.063 -0.1055  0.9734  0.2124
  482MOL0     C66382   1.607  10.381   0.119 -0.3950  0.3334 -0.2687
  482MOL0     C66383   1.652  10.249   0.131 -0.7865  0.6519 -1.0320
  482MOL0     C66384   1.769  10.222   0.201 -0.9971  0.5514  0.1312
  482MOL0     C66385   1.842  10.319   0.264 -0.0989  0.6023  0.2497
  482MOL0     O66386   1.960  10.307   0.340 -0.5625 -0.6096 -1.0445
  482MOL0     C66387   2.045  10.192   0.325  0.1185  0.3552  0.4192
  482MOL0     C66388   2.170  10.214   0.397 -0.2454 -0.5060 -0.8474
  482MOL0     C66389   2.275  10.106   0.366 -0.1176  0.3672 -1.0356
  482MOL0     C66390   2.401  10.114   0.465  0.3046 -0.8551 -0.2154
  482MOL0     C66391   2.512  10.005   0.438  0.3991 -0.0611 -0.0607
  482MOL0     C66392   2.559  10.005   0.288  0.0278 -0.7084  0.7295
  482MOL0     C66393   2.701   9.935   0.269 -0.8304  0.1889 -0.3782
  482MOL0     C66394   2.743   9.954   0.123  0.6047  0.1309  0.4417
  482MOL0     N66395   2.883   9.919   0.095  0.3934 -0.5203 -0.4132
  482MOL0     C66396   2.991   9.955   0.172  0.3944 -0.3636 -0.1505
  482MOL0     C66397   3.089   9.873   0.138  0.1752  0.0526 -0.2339
  482MOL0     C66398   3.231   9.898   0.189 -0.4490  0.8331  0.1980
  482MOL0     C66399   3.308   9.783   0.242  0.2352 -0.2883  0.1773
  482MOL0     C66400   3.456   9.805   0.267 -0.4141  0.2051 -0.9671
  482MOL0     C66401   3.542   9.869   0.152  0.8272 -0.0760 -1.0839
  482MOL0     O66402   3.675   9.886   0.212 -0.2773 -0.3169  0.5419
  482MOL0     C66403   3.766   9.968   0.145  0.4582  0.2700 -0.2739
  482MOL0     C66404   3.749  10.026   0.022  0.1017 -0.4403 -0.2542
  482MOL0     C66405   3.852  10.106  -0.036  0.2674 -0.2048 -0.0567
  482MOL0     C66406   3.846  10.139  -0.178 -0.1873 -0.0337 -0.6376
  482MOL0     C66407   3.966  10.129   0.038  0.6554  0.0495  0.6091
  482MOL0     C66408   4.076  10.213  -0.005 -0.2970 -0.0807  0.1752
  482MOL0     O66409   4.199  10.156  -0.022 -0.1941  0.3495  0.2359
  482MOL0     C66410   4.310  10.233  -0.045 -0.8797  0.3514  0.0835
  482MOL0     C66411   4.338  10.315  -0.156 -0.8696 -0.1543 -0.7249
  482MOL0     C66412   4.467  10.394  -0.160  1.0983  0.5507  0.2929
  482MOL0     C66413   4.560  10.389  -0.057  0.0378 -0.9249  0.6550
  482MOL0     O66414   4.662  10.479  -0.051 -1.1807  0.2737 -0.1651
  482MOL0     C66415   4.792  10.423  -0.031  0.1336 -0.4440  0.0637
  482MOL0     C66416   4.899  10.537  -0.038  0.2005  0.4544 -0.0695
  482MOL0     C66417   5.034  10.476  -0.022 -0.7936  0.4470 -0.6522
  482MOL0     C66418   5.133  10.590   0.001  0.7958  0.1616 -0.8171
  482MOL0     C66419   5.280  10.542   0.001 -0.4264  0.0976  0.1914
  482MOL0     C66420   5.379  10.660   0.010 -0.4655  0.6458  0.1093
  482MOL0     C66421   5.529  10.601  -0.006  0.1532 -0.0621 -0.6721
  482MOL0     C66422   5.634  10.704  -0.035 -0.0288  0.5777 -0.6592
  482MOL0    Cl66423   5.666  10.821   0.095 -0.3065 -0.3405 -0.1852
  482MOL0     C66424   4.524  10.319   0.057 -0.5739  0.8658  1.0285
  482MOL0     C66425   4.406  10.237   0.061  0.1117 -0.0656 -0.1396
  482MOL0     O66426   4.049  10.333  -0.020  0.2055 -0.0253 -0.3685
  482MOL0     C66427   3.989  10.063   0.155 -0.4873 -0.6694  0.3844
  482MOL0     C66428   3.887   9.981   0.205  0.6654 -0.5067 -0.4127
  482MOL0     N66429   3.040   9.779   0.058 -0.0322  0.0911 -0.7657
  482MOL0     N66430   2.913   9.802   0.034 -0.5648 -0.1480 -0.1476
  482MOL0     C66431   1.802  10.451   0.242 -0.2788  0.6245 -0.6166
  482MOL0     C66432   1.693  10.482   0.167  0.2451 -0.3216 -0.1665
  482MOL0     C66433   1.274  10.431  -0.025 -0.1556 -0.2129  0.0834
  482MOL0     C66434   1.177  10.446   0.073 -0.2966 -0.6436 -0.5402
  482MOL0     C66435   1.058  10.523   0.053  0.2906  0.3384  0.0089
  482MOL0     C66436   1.044  10.580  -0.073  0.1632 -0.8622 -0.0305
  482MOL0     O66437   0.924  10.637  -0.119 -0.2750 -0.4387  0.3001
  482MOL0     C66438   0.808  10.634  -0.028 -0.3170  0.0316  0.4069
  482MOL0     C66439   0.695  10.731  -0.076  0.0670  1.1148  0.4664
  482MOL0     C66440   0.577  10.658  -0.165  0.1778 -0.9820  0.2430
  482MOL0     C66441   0.632  10.625  -0.305 -0.2954  0.4543 -0.4333
  482MOL0     C66442   0.519  10.565  -0.382  0.6822  0.5902 -0.9301
  482MOL0     C66443   0.430  10.513  -0.440 -0.1978 -0.0772 -0.1421
  482MOL0     C66444   1.148  10.583  -0.167  0.0187  0.4178 -0.1780
  482MOL0     C66445   1.264  10.506  -0.145 -0.8878  0.2899  0.2826
  482MOL0     C66446   1.375  10.498  -0.254  0.1920 -0.9451 -0.1323
  482MOL0     H66447   1.595  10.170   0.084 -2.0472  0.2007  1.0981
  482MOL0     H66448   1.818  10.126   0.196  0.1464  1.1416 -0.6476
  482MOL0     H66449   2.056  10.164   0.220 -0.5737  0.7358  0.2379
  482MOL0     H66450   1.988  10.111   0.373  2.4177  0.8752  4.5575
  482MOL0     H66451   2.216  10.307   0.363  0.9795 -1.1621 -1.0549
  482MOL0     H66452   2.153  10.223   0.505  2.5759  3.6718 -0.5009
  482MOL0     H66453   2.237  10.005   0.382  0.1832  0.3019 -0.7263
  482MOL0     H66454   2.306  10.130   0.264  0.2656  0.0776 -0.9874
  482MOL0     H66455   2.446  10.213   0.463 -0.7103 -0.2429  2.4087
  482MOL0     H66456   2.378  10.100   0.572  1.7195 -2.5878 -0.0934
  482MOL0     H66457   2.472   9.908   0.468  0.5821 -0.4435 -0.9940
  482MOL0     H66458   2.591  10.025   0.511  1.7080  0.8961 -1.6355
  482MOL0     H66459   2.481   9.951   0.234 -0.2664 -0.6111  1.0466
  482MOL0     H66460   2.563  10.111   0.260 -1.3122 -1.1526 -1.3937
  482MOL0     H66461   2.690   9.831   0.300 -1.3054  0.1177 -0.7695
  482MOL0     H66462   2.774   9.983   0.335 -1.6249  2.5508 -1.1153
  482MOL0     H66463   2.689   9.875   0.070 -1.9493  0.7933  1.9164
  482MOL0     H66464   2.726  10.055   0.084 -1.2547 -0.0047  0.8431
  482MOL0     H66465   3.004  10.043   0.234  2.5679 -0.8421  0.1333
  482MOL0     H66466   3.232   9.969   0.273 -0.0844  0.8366  0.1946
  482MOL0     H66467   3.287   9.938   0.104  1.5019 -0.7992  0.6245
  482MOL0     H66468   3.256   9.752   0.333 -1.4960  2.2608  0.1672
  482MOL0     H66469   3.305   9.699   0.173  0.8473 -1.9880  2.1393
  482MOL0     H66470   3.483   9.865   0.355  2.3746 -0.6862 -1.1137
  482MOL0     H66471   3.497   9.705   0.286  3.4852  1.6568 -0.8871
  482MOL0     H66472   3.543   9.795   0.072  1.6551 -1.8183  0.4562
  482MOL0     H66473   3.498   9.960   0.112 -2.6002 -0.6493  0.9435
  482MOL0     H66474   3.653  10.003  -0.025 -0.8340 -1.3336  1.9742
  482MOL0     H66475   3.752  10.113  -0.228  0.0040 -0.9456 -0.5508
  482MOL0     H66476   3.921  10.082  -0.234 -0.9700 -0.3897 -1.3532
  482MOL0     H66477   3.865  10.246  -0.191  2.4872 -0.2451  0.8852
  482MOL0     H66478   4.282  10.314  -0.249  0.5860 -1.4568 -1.6300
  482MOL0     H66479   4.502  10.450  -0.246 -1.0453  0.2932 -0.8179
  482MOL0     H66480   4.797  10.373   0.067  0.8795  1.7257  1.1964
  482MOL0     H66481   4.821  10.352  -0.109  0.6601 -0.2134  0.0444
  482MOL0     H66482   4.882  10.584  -0.135 -1.4461  0.8553  0.3748
  482MOL0     H66483   4.882  10.612   0.040  0.4736  1.7309 -1.1915
  482MOL0     H66484   5.053  10.414  -0.110 -0.3334 -2.5446  1.4101
  482MOL0     H66485   5.042  10.411   0.065  1.2361  0.5086 -0.7484
  482MOL0     H66486   5.110  10.641   0.095  0.0221 -0.0511 -0.8851
  482MOL0     H66487   5.111  10.655  -0.084 -1.4247 -0.9723 -1.1928
  482MOL0     H66488   5.297  10.479   0.089  0.6976 -1.0129 -0.7822
  482MOL0     H66489   5.298  10.487  -0.092  0.7631  0.5282  0.1608
  482MOL0     H66490   5.363  10.708   0.106  0.3056 -3.0972  2.3077
  482MOL0     H66491   5.346  10.713  -0.080 -3.3340 -2.6452 -1.0241
  482MOL0     H66492   5.534  10.513  -0.071 -2.4436  0.5028 -1.7561
  482MOL0     H66493   5.574  10.563   0.087  1.7684  1.4119 -0.8161
  482MOL0     H66494   5.606  10.770  -0.117  1.3942  2.2804  0.1553
  482MOL0     H66495   5.727  10.651  -0.058 -1.1137 -1.2194 -1.1324
  482MOL0     H66496   4.582  10.339   0.147  1.3956 -0.6023  0.1905
  482MOL0     H66497   4.386  10.179   0.151 -0.7919  2.7014  1.5720
  482MOL0     H66498   4.083  10.069   0.208  0.7679  0.4526 -1.8255
  482MOL0     H66499   3.906   9.931   0.299 -0.0034 -0.8527 -0.4588
  482MOL0     H66500   1.865  10.529   0.284 -0.9782  1.5932 -1.3242
  482MOL0     H66501   1.664  10.583   0.139  1.2750 -0.1962 -0.7954
  482MOL0     H66502   1.187  10.389   0.164 -2.3567 -0.9627 -0.4665
  482MOL0     H66503   0.970  10.504   0.115 -0.6258 -0.2508 -1.4285
  482MOL0     H66504   0.765  10.534  -0.020  2.1369 -1.0538  0.9324
  482MOL0     H66505   0.829  10.664   0.075 -1.7456 -2.0200  1.3791
  482MOL0     H66506   0.734  10.817  -0.131  2.4428  0.0558  0.3474
  482MOL0     H66507   0.644  10.781   0.007 -2.0121 -0.0231 -0.0611
  482MOL0     H66508   0.541  10.564  -0.121  0.3828  0.4775  3.8483
  482MOL0     H66509   0.499  10.734  -0.164  2.7015  1.8001  1.0109
  482MOL0     H66510   0.704  10.545  -0.290 -0.6848 -0.0333 -1.0799
  482MOL0     H66511   0.680  10.713  -0.350 -1.2805  0.3903 -1.6466
  482MOL0     H66512   0.367  10.469  -0.515  0.6201 -1.5787  0.0291
  482MOL0     H66513   1.127  10.625  -0.265  0.0090  3.2957  0.9611
  482MOL0     H66514   1.472  10.530  -0.214  0.6943 -1.2677 -1.0501
  482MOL0     H66515   1.381  10.396  -0.293 -1.5142 -0.5473 -1.5869
  482MOL0     H66516   1.352  10.563  -0.339 -1.5140 -0.9972  0.2642
  483MOL0     O66517   3.609   8.401  10.369 -0.0476  0.6593 -0.7841
  483MOL0     C66518   3.590   8.294  10.426 -0.5888 -0.4583 -0.1808
  483MOL0     O66519   3.688   8.199  10.448  0.3960  0.2777 -0.0733
  483MOL0     C66520   3.819   8.230  10.416 -0.1000 -0.9245 -0.1416
  483MOL0     C66521   3.893   8.330  10.493  0.9578  1.1198  0.1297
  483MOL0     C66522   4.026   8.360  10.453  0.9428 -0.6308  0.0290
  483MOL0     C66523   4.083   8.294  10.346  0.1323 -0.6618  1.2988
  483MOL0     O66524   4.206   8.323  10.298  0.2525  0.0211 -1.1260
  483MOL0     C66525   4.317   8.341  10.387  0.9490  0.6546 -0.4001
  483MOL0     C66526   4.447   8.359  10.304  0.4225  0.1231  0.0512
  483MOL0     C66527   4.569   8.370  10.390  0.6147 -0.0345  0.3334
  483MOL0     C66528   4.701   8.408  10.317 -0.1341 -0.4744  0.6998
  483MOL0     C66529   4.706   8.559  10.302 -0.0228  0.7094  0.9049
  483MOL0     C66530   4.849   8.611  10.271 -0.0410 -0.4217 -0.2393
  483MOL0     C66531   4.860   8.761  10.301 -0.3774 -0.2171 -0.2565
  483MOL0     C66532   4.982   8.820  10.236  0.0373  0.4718 -0.9275
  483MOL0     N66533   5.108   8.781  10.298  1.0285  0.8881  0.0548
  483MOL0     C66534   5.124   8.730  10.425  0.6101 -0.3480 -0.4947
  483MOL0     C66535   5.232   8.660  10.420 -0.2781  0.9747 -0.1117
  483MOL0     C66536   5.280   8.570  10.531 -0.0329 -0.4863 -0.6248
  483MOL0     C66537   5.318   8.658  10.657 -0.0672  0.3994  0.7599
  483MOL0     C66538   5.411   8.583  10.761 -0.1495  0.0694  0.5408
  483MOL0     C66539   5.320   8.462  10.815 -0.3188 -0.6666 -0.7972
  483MOL0     O66540   5.403   8.402  10.920 -0.1897  0.2086  0.0202
  483MOL0     C66541   5.510   8.328  10.882  0.3517  0.2402  0.5028
  483MOL0     C66542   5.484   8.196  10.845 -0.0508  0.1603 -0.5621
  483MOL0     C66543   5.589   8.102  10.840 -0.1173  0.1561 -0.6180
  483MOL0     C66544   5.550   7.962  10.822  0.6095 -0.5489 -0.7499
  483MOL0     C66545   5.728   8.141  10.854  0.4490 -0.4474 -0.0629
  483MOL0     C66546   5.851   8.056  10.860 -0.8739  0.4519  0.5925
  483MOL0     O66547   5.975   8.125  10.854  0.3019 -0.1837  0.4230
  483MOL0     C66548   6.090   8.055  10.845 -0.2241  0.2953 -0.0376
  483MOL0     C66549   6.202   8.135  10.889  0.1480 -0.3791 -0.2167
  483MOL0     C66550   6.333   8.076  10.893 -0.1405 -0.1715  0.0738
  483MOL0     C66551   6.347   7.941  10.843 -0.1137  0.0437  0.8344
  483MOL0     O66552   6.473   7.897  10.866  0.5565 -0.2288  0.7643
  483MOL0     C66553   6.494   7.764  10.833 -0.4188  0.4757 -1.0409
  483MOL0     C66554   6.650   7.748  10.834 -0.2317 -0.2427 -0.0255
  483MOL0     C66555   6.689   7.721  10.978  0.8753 -0.6017 -0.0088
  483MOL0     C66556   6.836   7.695  11.009  1.4828 -0.3446  0.1302
  483MOL0     C66557   6.854   7.657  11.163  0.0193  0.0556  0.1073
  483MOL0     C66558   6.992   7.606  11.197  0.3755 -1.1430  0.0267
  483MOL0     C66559   7.090   7.722  11.177 -0.2952 -0.6701 -0.5163
  483MOL0     C66560   7.235   7.682  11.223  0.3770  0.9104  0.1664
  483MOL0    Cl66561   7.367   7.771  11.134 -0.1888  0.4152  0.2412
  483MOL0     C66562   6.234   7.866  10.791 -0.2348  0.1076  0.2529
  483MOL0     C66563   6.106   7.921  10.799  0.2364  0.2890  0.2676
  483MOL0     O66564   5.832   7.933  10.875 -0.3534 -0.0711  0.4516
  483MOL0     C66565   5.753   8.283  10.868 -0.1659  0.4522 -0.5318
  483MOL0     C66566   5.648   8.366  10.892  0.8216 -0.0306  0.4102
  483MOL0     N66567   5.289   8.680  10.294  0.1122  0.5679  0.4087
  483MOL0     N66568   5.208   8.749  10.218 -0.0060  0.7897 -0.0207
  483MOL0     C66569   4.010   8.195  10.276 -0.0984 -0.2074 -0.3917
  483MOL0     C66570   3.877   8.169  10.309  0.2569  0.6784 -0.0623
  483MOL0     C66571   3.452   8.255  10.464  0.3200 -0.6098  0.3506
  483MOL0     C66572   3.419   8.123  10.455 -0.0939 -0.6996 -0.4163
  483MOL0     C66573   3.294   8.077  10.477  0.7135  0.1784 -0.2271
  483MOL0     C66574   3.184   8.163  10.507 -0.4142  0.1258  0.8928
  483MOL0     O66575   3.060   8.104  10.516  0.1252 -0.4611  0.4699
  483MOL0     C66576   2.939   8.179  10.545  0.0025 -0.8706  0.2858
  483MOL0     C66577   2.803   8.104  10.519 -0.9106 -0.0134 -0.4152
  483MOL0     C66578   2.761   7.978  10.606 -1.7047  1.1091  0.1269
  483MOL0     C66579   2.724   8.015  10.751  0.4704 -0.2634  0.0148
  483MOL0     C66580   2.587   8.072  10.767 -0.1922 -1.0804 -0.4780
  483MOL0     C66581   2.477   8.113  10.784  0.2957 -0.0804  0.2529
  483MOL0     C66582   3.214   8.300  10.509 -0.1283  0.5048 -0.0051
  483MOL0     C66583   3.349   8.348  10.491  0.2449  0.0759 -0.0987
  483MOL0     C66584   3.373   8.497  10.507 -0.4026 -0.2445 -0.1638
  483MOL0     H66585   3.840   8.391  10.567 -2.1847 -1.7589  0.5267
  483MOL0     H66586   4.083   8.436  10.505 -0.6934 -0.3868  1.5862
  483MOL0     H66587   4.338   8.251  10.445  1.2971  0.0423 -1.4573
  483MOL0     H66588   4.304   8.424  10.458 -0.4135 -0.7739  1.1054
  483MOL0     H66589   4.464   8.282  10.229  0.7214 -0.0411  0.2879
  483MOL0     H66590   4.447   8.453  10.247  2.5621  0.3308  0.3213
  483MOL0     H66591   4.562   8.427  10.483  0.3135 -1.1202  1.0032
  483MOL0     H66592   4.586   8.264  10.409  2.0400  0.1555  0.2316
  483MOL0     H66593   4.790   8.365  10.363 -0.8301 -4.4433 -1.2925
  483MOL0     H66594   4.701   8.367  10.215 -0.7266  2.9384 -0.8376
  483MOL0     H66595   4.680   8.596  10.402  0.4162  0.4130  1.1321
  483MOL0     H66596   4.635   8.603  10.231 -1.7027  1.1783  2.7652
  483MOL0     H66597   4.925   8.555  10.326 -1.8078 -0.9588  1.7513
  483MOL0     H66598   4.874   8.587  10.167  1.9293 -2.9104  0.7118
  483MOL0     H66599   4.854   8.786  10.408 -2.3584 -0.6091 -0.2220
  483MOL0     H66600   4.773   8.816  10.263 -0.3868 -0.9248 -1.2875
  483MOL0     H66601   4.982   8.810  10.127  1.1306  1.5433 -1.0529
  483MOL0     H66602   4.964   8.927  10.255  1.3041  0.3084  1.4704
  483MOL0     H66603   5.047   8.735  10.501 -0.2350 -1.2160 -1.2681
  483MOL0     H66604   5.371   8.525  10.492  1.1932  2.0031 -0.7990
  483MOL0     H66605   5.211   8.487  10.552 -1.2942  0.9146  1.0870
  483MOL0     H66606   5.368   8.744  10.613  0.0235 -0.3909 -0.7729
  483MOL0     H66607   5.229   8.702  10.701 -1.6516 -2.1390  0.3543
  483MOL0     H66608   5.497   8.545  10.704  0.4245  0.4793  1.1267
  483MOL0     H66609   5.454   8.645  10.839  1.8179 -1.7028  0.9505
  483MOL0     H66610   5.225   8.494  10.861  0.8394  0.4235  0.9465
  483MOL0     H66611   5.295   8.400  10.729 -2.1919  1.8155 -2.2109
  483MOL0     H66612   5.383   8.158  10.833 -0.0696 -0.5922  1.5558
  483MOL0     H66613   5.546   7.920  10.923  1.6180  1.3829  0.1443
  483MOL0     H66614   5.619   7.898  10.765 -0.5863 -0.3398 -2.5156
  483MOL0     H66615   5.444   7.960  10.796 -0.5228 -0.2733  3.1983
  483MOL0     H66616   6.195   8.241  10.912 -2.2145 -0.1065 -1.7934
  483MOL0     H66617   6.419   8.122  10.941 -0.9962  0.8818  0.6411
  483MOL0     H66618   6.453   7.686  10.898  3.0673 -0.3774  0.3317
  483MOL0     H66619   6.462   7.732  10.734 -1.3113 -5.7011  0.8523
  483MOL0     H66620   6.672   7.657  10.778 -1.0247  0.1260 -0.9771
  483MOL0     H66621   6.702   7.836  10.795 -3.4374  1.8323 -0.0430
  483MOL0     H66622   6.630   7.637  11.016 -3.2438  1.3316 -1.4971
  483MOL0     H66623   6.656   7.814  11.027  4.3237  0.1436  1.2146
  483MOL0     H66624   6.900   7.781  10.984 -0.4005  1.3782  0.9035
  483MOL0     H66625   6.866   7.618  10.938 -3.2658 -2.8049  0.3824
  483MOL0     H66626   6.819   7.745  11.218 -6.8569 -0.9985 -1.6694
  483MOL0     H66627   6.785   7.576  11.189  1.4861 -0.5952  2.2163
  483MOL0     H66628   7.013   7.513  11.144 -1.0047 -2.6146  1.9022
  483MOL0     H66629   6.996   7.590  11.305  0.2525 -0.1297  0.1894
  483MOL0     H66630   7.066   7.808  11.242  3.1693 -1.0692  1.5430
  483MOL0     H66631   7.091   7.754  11.073 -1.6289  3.1490  0.4690
  483MOL0     H66632   7.250   7.580  11.186  2.5190  2.3325 -3.4577
  483MOL0     H66633   7.251   7.695  11.330  0.7007  0.0149  0.2323
  483MOL0     H66634   6.249   7.763  10.759 -1.0982  0.2386 -0.5998
  483MOL0     H66635   6.031   7.849  10.768  0.1611 -0.8682  2.9039
  483MOL0     H66636   5.852   8.313  10.897  0.5335 -1.3611 -0.8809
  483MOL0     H66637   5.670   8.469  10.919  0.8854 -0.0411  0.3977
  483MOL0     H66638   4.053   8.142  10.192  1.5046  2.7171 -1.5706
  483MOL0     H66639   3.821   8.099  10.247  0.4553  0.7253 -0.2956
  483MOL0     H66640   3.501   8.055  10.435 -1.4223 -2.4319 -0.1788
  483MOL0     H66641   3.284   7.971  10.459 -1.5431  0.4653 -1.0417
  483MOL0     H66642   2.942   8.205  10.651 -1.4050  2.3965 -0.3355
  483MOL0     H66643   2.937   8.271  10.485  0.9043 -0.1035  1.3921
  483MOL0     H66644   2.803   8.067  10.416 -0.4256  0.3063 -0.5294
  483MOL0     H66645   2.724   8.179  10.520  0.1305  1.1026  0.3180
  483MOL0     H66646   2.670   7.930  10.570 -2.8186  1.5060  2.2319
  483MOL0     H66647   2.844   7.908  10.614 -1.3370  1.6563  1.3128
  483MOL0     H66648   2.791   8.094  10.786  0.4050  0.5471 -1.5977
  483MOL0     H66649   2.732   7.933  10.824 -0.1975 -0.5280 -0.1964
  483MOL0     H66650   2.374   8.143  10.788 -0.1064 -1.3221 -0.3938
  483MOL0     H66651   3.133   8.367  10.537 -0.4881 -0.7392  2.1152
  483MOL0     H66652   3.377   8.547  10.410  2.1571  1.8664  0.9162
  483MOL0     H66653   3.296   8.537  10.574  0.3388  0.7504  0.1189
  483MOL0     H66654   3.472   8.522  10.547  0.3584 -0.4290 -1.8579
  484MOL0     O66655   3.628   3.430   9.447 -0.2918 -0.4462 -0.4420
  484MOL0     C66656   3.536   3.466   9.371 -1.2314 -0.7612  0.1582
  484MOL0     O66657   3.556   3.517   9.246 -0.5054  0.3190  0.2639
  484MOL0     C66658   3.678   3.510   9.183  0.0579  0.2663 -0.3586
  484MOL0     C66659   3.715   3.616   9.102 -0.4504 -0.4529  0.8781
  484MOL0     C66660   3.841   3.614   9.034 -0.2558  1.3554  0.4739
  484MOL0     C66661   3.930   3.505   9.044 -0.5780 -0.0399  0.6374
  484MOL0     O66662   4.052   3.496   8.979 -0.4429  0.0702  0.3434
  484MOL0     C66663   4.043   3.516   8.837 -0.2655 -0.4780  0.5391
  484MOL0     C66664   3.951   3.422   8.762  0.1274  0.2327  0.9473
  484MOL0     C66665   3.963   3.269   8.798  0.7971  1.2903  0.0116
  484MOL0     C66666   3.974   3.176   8.680  0.5229  0.3238 -0.8783
  484MOL0     C66667   3.949   3.038   8.722 -0.9762 -1.2710 -0.9616
  484MOL0     C66668   3.917   2.948   8.605 -0.1462 -0.3297  0.3675
  484MOL0     C66669   3.900   2.806   8.670 -0.0847  0.4555 -0.1109
  484MOL0     C66670   3.905   2.694   8.567 -0.2657 -0.7411  0.7933
  484MOL0     N66671   4.043   2.681   8.521  0.2182  0.0460 -0.6105
  484MOL0     C66672   4.148   2.646   8.600 -0.0060 -0.5996  0.9005
  484MOL0     C66673   4.262   2.665   8.523  0.0932  0.2572  0.1981
  484MOL0     C66674   4.409   2.640   8.565  0.3458 -1.0481 -0.1129
  484MOL0     C66675   4.503   2.751   8.498  0.3372  0.7343 -0.2424
  484MOL0     C66676   4.474   2.890   8.554  0.2792  0.6848 -0.0418
  484MOL0     C66677   4.555   3.005   8.497  0.5093 -0.2122 -0.5106
  484MOL0     O66678   4.675   2.994   8.576 -0.1552 -0.5594 -0.5654
  484MOL0     C66679   4.762   3.102   8.564 -0.0221 -0.1178 -0.8316
  484MOL0     C66680   4.731   3.228   8.615  0.0905  0.2219  0.4298
  484MOL0     C66681   4.817   3.336   8.603  0.7619 -0.1975 -0.0460
  484MOL0     C66682   4.772   3.465   8.674  0.1070 -0.4223  0.4535
  484MOL0     C66683   4.941   3.334   8.525  0.4569  0.5571  0.5562
  484MOL0     C66684   5.037   3.444   8.512  0.2141 -0.4704  0.0178
  484MOL0     O66685   5.169   3.402   8.517  0.1658  0.1946 -0.2315
  484MOL0     C66686   5.267   3.489   8.519 -0.3259  0.0148  0.5723
  484MOL0     C66687   5.334   3.505   8.634  0.0776  1.0934 -0.4020
  484MOL0     C66688   5.438   3.596   8.652  0.2801  0.0093  0.7482
  484MOL0     C66689   5.482   3.659   8.538  1.1324  0.6928 -0.5479
  484MOL0     O66690   5.578   3.753   8.557 -0.7819 -0.6516  0.1324
  484MOL0     C66691   5.626   3.838   8.441 -0.7806  0.7323  0.0431
  484MOL0     C66692   5.737   3.941   8.475  0.5418 -0.0126  0.9452
  484MOL0     C66693   5.873   3.879   8.530 -0.8910 -0.4488 -0.0686
  484MOL0     C66694   5.968   3.993   8.578 -0.0455 -0.0618  0.1581
  484MOL0     C66695   6.080   3.912   8.660  0.1973 -0.7153  0.2609
  484MOL0     C66696   6.194   4.016   8.676 -0.0553 -1.0398  0.2127
  484MOL0     C66697   6.285   3.967   8.790 -0.2205  0.5110 -0.2756
  484MOL0     C66698   6.394   4.076   8.823 -0.2625 -0.1532  0.1029
  484MOL0    Cl66699   6.345   4.198   8.948  0.0536 -0.0860  0.4729
  484MOL0     C66700   5.418   3.640   8.414 -0.5040  0.1413 -0.0314
  484MOL0     C66701   5.307   3.555   8.399 -0.9637 -0.4090  0.1368
  484MOL0     O66702   5.002   3.557   8.505 -0.7547 -0.1869  0.3496
  484MOL0     C66703   4.967   3.198   8.478  0.0534 -0.7843 -0.0716
  484MOL0     C66704   4.876   3.092   8.494 -1.5566  0.0804  0.3263
  484MOL0     N66705   4.219   2.719   8.400  0.6272 -0.2146  0.7482
  484MOL0     N66706   4.092   2.731   8.405  0.0224  0.0000  0.1754
  484MOL0     C66707   3.899   3.405   9.130  0.2725  0.7186  0.8485
  484MOL0     C66708   3.771   3.403   9.197 -0.0368  0.1504  0.5816
  484MOL0     C66709   3.394   3.475   9.420  0.1770 -0.2340 -0.4943
  484MOL0     C66710   3.299   3.549   9.349  0.2250 -0.8090  0.6515
  484MOL0     C66711   3.165   3.549   9.380 -0.3139 -1.0807 -0.0529
  484MOL0     C66712   3.109   3.480   9.482 -0.6098 -0.4980  0.0493
  484MOL0     O66713   2.977   3.480   9.522 -0.2984  0.1206  0.9443
  484MOL0     C66714   2.885   3.528   9.425  0.1424  0.2380  0.9540
  484MOL0     C66715   2.748   3.490   9.485  1.3912 -0.8208  0.4348
  484MOL0     C66716   2.616   3.554   9.417  0.0274  0.0347 -1.0317
  484MOL0     C66717   2.570   3.477   9.288 -0.1584  0.7008 -1.2142
  484MOL0     C66718   2.669   3.505   9.181 -0.5601  0.9262 -0.0170
  484MOL0     C66719   2.751   3.507   9.091  0.0978  0.4998 -0.4729
  484MOL0     C66720   3.197   3.401   9.551 -0.2259  0.9729  0.2893
  484MOL0     C66721   3.337   3.397   9.529  0.4978 -0.1621 -0.0946
  484MOL0     C66722   3.414   3.312   9.623 -0.4319  0.0916  0.4883
  484MOL0     H66723   3.644   3.698   9.090  1.3641  1.1183  0.4169
  484MOL0     H66724   3.878   3.695   8.972  1.4497  0.8000  0.7146
  484MOL0     H66725   4.144   3.502   8.799  0.7605  1.1378  2.5444
  484MOL0     H66726   4.018   3.620   8.813  0.5660 -0.1007  1.2613
  484MOL0     H66727   3.846   3.434   8.791 -1.2229 -1.0913 -2.7243
  484MOL0     H66728   3.963   3.443   8.655  1.2257 -0.6666  0.8730
  484MOL0     H66729   4.041   3.254   8.872  0.6153 -1.3444 -0.2405
  484MOL0     H66730   3.875   3.241   8.857  1.1698 -0.2374 -0.1299
  484MOL0     H66731   3.899   3.214   8.611 -0.5839 -0.5343 -0.1708
  484MOL0     H66732   4.072   3.176   8.630  0.6859  3.8345 -0.8070
  484MOL0     H66733   3.873   3.021   8.799  0.5246 -2.7318  0.3238
  484MOL0     H66734   4.042   3.007   8.772  0.7615 -0.4032 -3.4421
  484MOL0     H66735   3.829   2.987   8.555 -0.4517 -1.4740 -0.0176
  484MOL0     H66736   3.998   2.953   8.532 -0.7799 -3.1244 -0.6568
  484MOL0     H66737   3.804   2.802   8.722 -0.1745  1.6138 -0.1619
  484MOL0     H66738   3.980   2.786   8.742  1.7161 -2.5091 -2.6868
  484MOL0     H66739   3.874   2.603   8.618 -1.5050 -0.0558  1.2927
  484MOL0     H66740   3.836   2.716   8.485  0.4816 -1.6587 -0.1093
  484MOL0     H66741   4.146   2.628   8.707  0.4143  0.7739  1.1539
  484MOL0     H66742   4.446   2.539   8.549  0.7058 -1.3136  2.0333
  484MOL0     H66743   4.411   2.653   8.674 -2.9680  1.3993 -0.1920
  484MOL0     H66744   4.607   2.722   8.518  0.9957  1.9815 -1.6578
  484MOL0     H66745   4.481   2.740   8.392  2.8661  0.6743 -0.8337
  484MOL0     H66746   4.370   2.911   8.528 -0.4173 -2.5030 -0.2602
  484MOL0     H66747   4.490   2.885   8.662  0.1871 -2.4525 -0.0622
  484MOL0     H66748   4.565   2.990   8.390 -0.4388 -2.4245 -0.3579
  484MOL0     H66749   4.495   3.096   8.509  1.2621  0.3826 -1.2232
  484MOL0     H66750   4.644   3.247   8.676  1.4443  2.5390  1.7598
  484MOL0     H66751   4.663   3.459   8.682 -0.1720  2.3996 -0.1326
  484MOL0     H66752   4.784   3.555   8.614 -0.3989 -0.3898  0.3913
  484MOL0     H66753   4.813   3.475   8.775  0.5958  3.1144  0.0250
  484MOL0     H66754   5.302   3.462   8.728  2.7551  1.4245  0.7440
  484MOL0     H66755   5.499   3.604   8.742  0.5308 -1.6253  0.7489
  484MOL0     H66756   5.668   3.768   8.368  1.3773 -0.6020  2.3673
  484MOL0     H66757   5.544   3.896   8.398 -1.4977  1.1597  1.8989
  484MOL0     H66758   5.757   3.998   8.384 -2.4562 -1.2262 -0.6454
  484MOL0     H66759   5.684   4.009   8.542 -2.3572 -0.1287 -0.9949
  484MOL0     H66760   5.927   3.822   8.453 -1.1581 -0.5875 -0.1578
  484MOL0     H66761   5.842   3.810   8.609  0.7072  0.4930  1.4300
  484MOL0     H66762   5.918   4.066   8.642  2.3928  0.5741  1.5121
  484MOL0     H66763   6.003   4.047   8.490 -0.8723  1.3412  0.6688
  484MOL0     H66764   6.040   3.872   8.754 -1.1771 -0.6276 -0.2545
  484MOL0     H66765   6.124   3.829   8.605 -0.5776 -0.8779 -0.1373
  484MOL0     H66766   6.157   4.118   8.695 -0.9396 -1.1356 -0.8828
  484MOL0     H66767   6.261   4.028   8.591 -2.7485  0.2922 -1.8690
  484MOL0     H66768   6.343   3.884   8.749 -0.1139  0.7528 -0.6210
  484MOL0     H66769   6.229   3.929   8.876 -2.0878 -0.4470 -1.8425
  484MOL0     H66770   6.439   4.132   8.741  0.1267 -0.9816 -0.2570
  484MOL0     H66771   6.478   4.016   8.860  0.7467  1.5085  0.6247
  484MOL0     H66772   5.438   3.679   8.315 -1.7873 -0.8965 -0.7283
  484MOL0     H66773   5.244   3.536   8.312 -2.4879  1.5905  0.7234
  484MOL0     H66774   5.059   3.181   8.424  0.8637  1.7879  0.3292
  484MOL0     H66775   4.913   3.005   8.439 -1.4936 -0.1503  0.7236
  484MOL0     H66776   3.972   3.324   9.137  0.3111  0.7057  0.3232
  484MOL0     H66777   3.738   3.317   9.254 -1.0200  0.0831 -0.0591
  484MOL0     H66778   3.328   3.616   9.270  3.8100 -1.2107  1.4617
  484MOL0     H66779   3.096   3.609   9.322  1.6044  0.7175 -0.6096
  484MOL0     H66780   2.898   3.636   9.413  3.1208 -0.2346 -1.4192
  484MOL0     H66781   2.908   3.476   9.331 -2.4988  1.7459 -0.6571
  484MOL0     H66782   2.743   3.530   9.586 -2.3696  1.1366 -0.3785
  484MOL0     H66783   2.732   3.382   9.476 -1.5995 -0.3028 -2.1999
  484MOL0     H66784   2.537   3.541   9.491  1.3830  0.0113  0.4645
  484MOL0     H66785   2.642   3.660   9.414  2.7417 -0.5522 -1.6567
  484MOL0     H66786   2.466   3.504   9.267 -1.9135 -3.4727  0.8618
  484MOL0     H66787   2.564   3.378   9.334 -2.1669  2.3740  2.6076
  484MOL0     H66788   2.831   3.517   9.021  0.3332 -0.4764 -0.3605
  484MOL0     H66789   3.156   3.337   9.628 -1.1858  0.3843 -0.6796
  484MOL0     H66790   3.344   3.254   9.685 -1.3155  0.0503 -0.5208
  484MOL0     H66791   3.473   3.242   9.564  0.9641 -0.1425  2.0725
  484MOL0     H66792   3.485   3.375   9.677  0.6888  0.8300 -1.7459
  485MOL0     O66793   5.277   7.901   6.284  0.4819 -0.0813  0.2412
  485MOL0     C66794   5.180   7.859   6.219 -0.4682  0.4685  0.0577
  485MOL0     O66795   5.196   7.805   6.087 -0.5079 -0.2927 -0.3341
  485MOL0     C66796   5.321   7.791   6.042  0.0454  0.1091  0.4378
  485MOL0     C66797   5.367   7.671   5.994 -0.2293  0.7588 -0.5836
  485MOL0     C66798   5.497   7.652   5.951  0.1524 -0.3856  0.3994
  485MOL0     C66799   5.589   7.754   5.957  0.3192 -0.0709  0.2806
  485MOL0     O66800   5.721   7.732   5.938 -0.3807  0.0116  0.0651
  485MOL0     C66801   5.818   7.839   5.914  0.5745 -0.3334  0.4560
  485MOL0     C66802   5.950   7.768   5.892  0.8841 -0.0659  0.8989
  485MOL0     C66803   6.064   7.872   5.862 -0.0319 -0.1768 -0.1035
  485MOL0     C66804   6.190   7.788   5.841 -0.2785 -0.3521  1.0180
  485MOL0     C66805   6.303   7.884   5.779  0.1109 -0.1550  0.6067
  485MOL0     C66806   6.443   7.808   5.771  0.4760 -0.4979 -0.4126
  485MOL0     C66807   6.534   7.880   5.670 -0.0372 -0.1196  0.0322
  485MOL0     C66808   6.683   7.850   5.680  0.8211 -0.5951  0.1514
  485MOL0     N66809   6.755   7.923   5.574 -1.3386  0.2385  0.2419
  485MOL0     C66810   6.736   7.914   5.439 -0.9305  0.5033 -0.1385
  485MOL0     C66811   6.847   7.980   5.392  0.3385  0.0847  0.7440
  485MOL0     C66812   6.877   8.012   5.245 -0.6545  0.3051  0.7102
  485MOL0     C66813   6.988   7.923   5.186 -0.1027  0.3256  0.2503
  485MOL0     C66814   7.017   7.967   5.038 -0.1623 -0.8170  1.1373
  485MOL0     C66815   7.098   7.864   4.956  0.4115  0.3703 -0.7372
  485MOL0     O66816   7.179   7.788   5.046 -0.5491  0.2724  0.1592
  485MOL0     C66817   7.314   7.814   5.062  0.4663  0.0438 -0.0140
  485MOL0     C66818   7.375   7.928   5.011 -0.3065 -1.0046 -0.0181
  485MOL0     C66819   7.516   7.951   5.026  0.2343 -0.6778  0.9256
  485MOL0     C66820   7.575   8.063   4.945 -0.8559 -0.6512  0.1003
  485MOL0     C66821   7.595   7.851   5.089 -0.7451  0.8179  0.5277
  485MOL0     C66822   7.740   7.870   5.110  0.5571  0.3097 -0.6530
  485MOL0     O66823   7.786   8.001   5.119  0.6432 -0.7484  0.5433
  485MOL0     C66824   7.925   8.014   5.120  0.2770  0.8916  0.2858
  485MOL0     C66825   7.986   8.124   5.047  0.7703  0.1722  0.1849
  485MOL0     C66826   8.121   8.148   5.057 -0.0661  0.2359 -0.2758
  485MOL0     C66827   8.202   8.065   5.153  0.4670 -0.1558  0.2852
  485MOL0     O66828   8.336   8.082   5.172  0.3522 -0.2351 -0.6310
  485MOL0     C66829   8.413   8.105   5.052  0.1349 -0.6508  0.0518
  485MOL0     C66830   8.551   8.074   5.074  0.3081  0.3348 -0.1776
  485MOL0     C66831   8.609   8.172   5.177 -0.7862 -0.5369  0.5485
  485MOL0     C66832   8.757   8.150   5.193 -1.1520  1.2713 -0.3374
  485MOL0     C66833   8.823   8.259   5.276  0.0068  0.8753 -0.5071
  485MOL0     C66834   8.920   8.193   5.376 -0.0366 -0.1926 -0.5646
  485MOL0     C66835   8.940   8.302   5.482 -0.5928 -0.1650 -0.7318
  485MOL0     C66836   9.066   8.276   5.565  0.6328 -0.7382 -0.6171
  485MOL0    Cl66837   9.215   8.280   5.465  0.4857  0.1619  0.1416
  485MOL0     C66838   8.139   7.962   5.217  0.3848 -0.0788  0.0355
  485MOL0     C66839   8.012   7.946   5.204 -0.3947  0.4925 -0.6591
  485MOL0     O66840   7.805   7.769   5.099 -0.0881  0.1115 -0.2904
  485MOL0     C66841   7.530   7.744   5.147 -0.8885  0.1633 -0.3254
  485MOL0     C66842   7.392   7.737   5.148  0.1311  0.5308  0.4082
  485MOL0     N66843   6.923   8.029   5.496 -0.4911  0.3650  0.9626
  485MOL0     N66844   6.865   7.991   5.598 -0.3182  0.5105  0.2310
  485MOL0     C66845   5.539   7.880   5.992 -0.2492  0.0634  0.1089
  485MOL0     C66846   5.404   7.903   6.029  0.2625  0.1925 -0.6670
  485MOL0     C66847   5.046   7.852   6.280  0.8356  0.6306  0.1708
  485MOL0     C66848   5.029   7.910   6.406 -0.5832  0.6132  0.9017
  485MOL0     C66849   4.909   7.900   6.476  0.8261  0.4574 -0.0405
  485MOL0     C66850   4.801   7.830   6.424  0.0346 -0.3345  0.9208
  485MOL0     O66851   4.691   7.808   6.497 -0.5851  0.4210  0.3970
  485MOL0     C66852   4.568   7.747   6.446  0.2713  0.4870 -0.1041
  485MOL0     C66853   4.482   7.848   6.354  0.2732  0.1177 -0.1663
  485MOL0     C66854   4.492   7.995   6.401  0.1661 -0.1767  0.5602
  485MOL0     C66855   4.454   8.034   6.540  0.2534 -0.4094  0.0865
  485MOL0     C66856   4.321   7.997   6.572  0.2201 -0.7824 -1.1286
  485MOL0     C66857   4.209   7.978   6.612  0.8951  0.1156  0.0692
  485MOL0     C66858   4.815   7.788   6.288 -0.5202  0.0225  0.2825
  485MOL0     C66859   4.937   7.787   6.217 -0.0679  0.1664  0.1557
  485MOL0     C66860   4.939   7.708   6.088 -0.6817 -0.3598  0.2491
  485MOL0     H66861   5.294   7.591   5.991 -1.4993  1.7020  2.1086
  485MOL0     H66862   5.542   7.560   5.914 -1.6111 -1.7853  1.5527
  485MOL0     H66863   5.829   7.901   6.003 -1.0721 -0.9298  1.1200
  485MOL0     H66864   5.772   7.904   5.838 -2.7335 -0.0762  2.4486
  485MOL0     H66865   5.978   7.704   5.976 -2.3772 -1.6151  0.9614
  485MOL0     H66866   5.941   7.699   5.808 -0.0429  2.4974 -1.2793
  485MOL0     H66867   6.038   7.945   5.785 -0.6237  0.9382  1.1218
  485MOL0     H66868   6.076   7.935   5.951  0.7560  2.0763 -1.7401
  485MOL0     H66869   6.215   7.751   5.941  0.1512  1.1672  1.5073
  485MOL0     H66870   6.179   7.704   5.772 -0.8375  1.5238 -1.3099
  485MOL0     H66871   6.322   7.976   5.835  3.1645 -0.5754  0.4860
  485MOL0     H66872   6.280   7.913   5.676  0.9743  0.2861  0.5248
  485MOL0     H66873   6.491   7.809   5.869 -0.4019 -2.3622  0.0750
  485MOL0     H66874   6.419   7.707   5.736  1.5896 -0.7196 -0.5609
  485MOL0     H66875   6.529   7.987   5.695  3.0849  0.0042  0.5489
  485MOL0     H66876   6.495   7.865   5.569  1.6960 -1.1814 -0.5153
  485MOL0     H66877   6.716   7.887   5.778  1.4375  1.3836 -0.7411
  485MOL0     H66878   6.718   7.747   5.672  1.1618 -0.7185  2.4217
  485MOL0     H66879   6.657   7.867   5.382  0.2743 -1.0506 -0.6218
  485MOL0     H66880   6.907   8.117   5.237  3.5228 -0.7760  0.0118
  485MOL0     H66881   6.786   8.002   5.187 -1.3758 -2.1099  2.1070
  485MOL0     H66882   7.074   7.929   5.253 -1.3328 -0.8938  2.0390
  485MOL0     H66883   6.950   7.820   5.183 -1.0101  0.6404  0.5550
  485MOL0     H66884   6.927   7.980   4.978  0.6462 -1.1550 -0.1916
  485MOL0     H66885   7.074   8.060   5.028  3.0785 -2.7238  0.2170
  485MOL0     H66886   7.027   7.796   4.908  0.1391 -0.1716  0.3980
  485MOL0     H66887   7.144   7.914   4.870 -3.3152  0.1585 -3.1146
  485MOL0     H66888   7.319   8.016   4.978  0.4542  0.5544  2.5124
  485MOL0     H66889   7.505   8.098   4.868  0.1867  2.4669  0.4234
  485MOL0     H66890   7.659   8.027   4.885 -2.4773  0.0224 -2.7943
  485MOL0     H66891   7.601   8.151   5.004 -0.9632 -1.9650  2.2182
  485MOL0     H66892   7.923   8.173   4.974  2.7078  0.6151 -1.2671
  485MOL0     H66893   8.159   8.240   5.015 -1.9501  0.9794 -0.4705
  485MOL0     H66894   8.372   8.047   4.969 -0.2110  1.7470 -1.5777
  485MOL0     H66895   8.421   8.209   5.018  0.2093 -1.0732 -1.2857
  485MOL0     H66896   8.549   7.969   5.104 -0.5940  0.3081 -0.3290
  485MOL0     H66897   8.606   8.080   4.979 -0.6957 -1.7906 -0.9426
  485MOL0     H66898   8.561   8.160   5.274 -2.9504 -2.6157 -0.6702
  485MOL0     H66899   8.591   8.273   5.140 -3.8331 -1.5553 -1.1303
  485MOL0     H66900   8.808   8.144   5.096 -0.6023  2.1535 -0.1170
  485MOL0     H66901   8.769   8.054   5.243  0.7401  0.2839 -2.4967
  485MOL0     H66902   8.875   8.328   5.209 -0.5857  2.4513  0.5951
  485MOL0     H66903   8.753   8.320   5.334  1.0367  2.1475 -0.5390
  485MOL0     H66904   9.016   8.165   5.330  2.4045  0.1840  3.7958
  485MOL0     H66905   8.887   8.100   5.422  0.0283  0.1878  0.2757
  485MOL0     H66906   8.846   8.299   5.537 -0.9947  0.9955 -1.3408
  485MOL0     H66907   8.935   8.399   5.433 -1.2517  1.4397  2.2538
  485MOL0     H66908   9.059   8.179   5.614  1.5614  1.2548  4.0297
  485MOL0     H66909   9.072   8.346   5.649  1.3068 -0.7312 -0.6659
  485MOL0     H66910   8.186   7.895   5.288 -1.4466 -0.7460  0.6723
  485MOL0     H66911   7.972   7.872   5.273  0.5551  0.3799 -0.2184
  485MOL0     H66912   7.580   7.672   5.211  0.3840  1.3142  0.0321
  485MOL0     H66913   7.334   7.656   5.190 -1.8458  0.7798 -1.6136
  485MOL0     H66914   5.601   7.968   6.000  1.0263 -0.8910  1.0272
  485MOL0     H66915   5.364   7.998   6.065  0.0448 -0.7573  1.7780
  485MOL0     H66916   5.119   7.955   6.447  1.8206 -1.8835 -1.2680
  485MOL0     H66917   4.905   7.953   6.570 -0.1806 -0.1161  0.2507
  485MOL0     H66918   4.594   7.660   6.385  2.1015  1.5019 -0.8645
  485MOL0     H66919   4.510   7.700   6.526  0.5844  0.1912 -0.0455
  485MOL0     H66920   4.378   7.813   6.353 -0.1055  1.0318 -3.8188
  485MOL0     H66921   4.520   7.832   6.253 -0.1191  0.4840 -0.3732
  485MOL0     H66922   4.595   8.025   6.382  0.1142  0.5537  1.3853
  485MOL0     H66923   4.425   8.041   6.328  0.8037 -1.0939 -0.6476
  485MOL0     H66924   4.478   8.140   6.557 -0.0746 -0.2402 -0.4882
  485MOL0     H66925   4.523   7.980   6.606 -0.5642 -0.8337  0.6132
  485MOL0     H66926   4.109   7.959   6.645  0.4884  1.0616 -0.5866
  485MOL0     H66927   4.733   7.752   6.226  0.3298  0.0044 -0.8542
  485MOL0     H66928   4.965   7.769   6.001  1.5197  0.4918  1.4029
  485MOL0     H66929   5.002   7.619   6.090 -0.3247 -0.3598 -3.6355
  485MOL0     H66930   4.841   7.662   6.073  0.0752 -1.9935  0.0638
  486MOL0     O66931   4.309   3.037  10.126 -0.0966  0.9956 -0.5941
  486MOL0     C66932   4.194   3.044  10.076 -0.5693 -0.4255  0.6396
  486MOL0     O66933   4.181   3.061   9.946 -0.5988  0.4538  0.8077
  486MOL0     C66934   4.285   3.093   9.858 -0.9120 -0.1327 -0.5698
  486MOL0     C66935   4.284   3.204   9.781  0.2399 -0.3795  0.0651
  486MOL0     C66936   4.400   3.236   9.703 -0.2035 -0.0749 -0.2876
  486MOL0     C66937   4.520   3.155   9.715  0.0462 -0.1282  1.0326
  486MOL0     O66938   4.632   3.166   9.641 -0.2305 -1.5166 -0.4351
  486MOL0     C66939   4.641   3.286   9.567  0.0834 -0.3241 -0.0126
  486MOL0     C66940   4.789   3.298   9.511  0.3428  0.7424 -0.1793
  486MOL0     C66941   4.823   3.419   9.436  0.4466  0.1903  0.0959
  486MOL0     C66942   4.965   3.428   9.390 -0.4901 -0.1220  0.4068
  486MOL0     C66943   5.014   3.557   9.327 -0.3726  0.6983 -0.1550
  486MOL0     C66944   5.022   3.673   9.426  0.3751  0.1770 -0.0641
  486MOL0     C66945   5.071   3.798   9.346  0.2200 -0.2512  0.0363
  486MOL0     C66946   5.074   3.921   9.437 -0.7445  0.3004 -0.5043
  486MOL0     N66947   5.197   3.918   9.520  0.4472 -0.0921 -0.3105
  486MOL0     C66948   5.314   3.975   9.483 -1.1465  0.1212  0.1096
  486MOL0     C66949   5.401   3.952   9.588  0.6263 -0.9686  0.7962
  486MOL0     C66950   5.549   3.991   9.575  0.8440  0.0998  0.3092
  486MOL0     C66951   5.612   3.874   9.492  0.5181  0.4130  0.3182
  486MOL0     C66952   5.767   3.894   9.487  0.4886  0.2821  0.7333
  486MOL0     C66953   5.818   4.000   9.388  0.1611  0.5213 -0.2857
  486MOL0     O66954   5.819   3.936   9.256 -0.9038  0.4323 -0.7270
  486MOL0     C66955   5.823   4.021   9.149  0.4259 -0.2231 -0.3686
  486MOL0     C66956   5.718   4.020   9.048 -0.0586  0.2427 -0.2010
  486MOL0     C66957   5.731   4.108   8.936 -0.5189 -0.0860 -0.1871
  486MOL0     C66958   5.631   4.101   8.831  0.8445  0.5920  0.2969
  486MOL0     C66959   5.839   4.196   8.932  0.4717  0.2715  0.7092
  486MOL0     C66960   5.859   4.293   8.819  0.6796 -0.6481 -0.2564
  486MOL0     O66961   5.984   4.310   8.764 -0.0649  0.0119 -0.5310
  486MOL0     C66962   6.000   4.382   8.649 -1.0900  0.0528  0.0376
  486MOL0     C66963   6.102   4.473   8.627 -0.1043 -0.8580 -1.0411
  486MOL0     C66964   6.113   4.548   8.504  0.3234  0.3090 -0.8022
  486MOL0     C66965   6.018   4.537   8.401  0.8149  0.2861  0.5813
  486MOL0     O66966   6.016   4.608   8.282 -0.0030  0.6611 -0.5817
  486MOL0     C66967   6.083   4.737   8.273  0.1233 -0.1752 -0.1159
  486MOL0     C66968   6.219   4.729   8.213 -0.3046 -0.1541 -0.4856
  486MOL0     C66969   6.195   4.712   8.065 -0.1852  0.2798 -0.5175
  486MOL0     C66970   6.311   4.655   7.987 -0.2809 -0.1742 -1.2058
  486MOL0     C66971   6.432   4.750   7.995  0.2846  0.0371 -0.4940
  486MOL0     C66972   6.536   4.698   7.899 -0.4238  0.1262  0.2641
  486MOL0     C66973   6.681   4.704   7.949  0.7782 -0.1345 -0.2493
  486MOL0     C66974   6.776   4.656   7.842 -0.0751 -0.8495  0.0719
  486MOL0    Cl66975   6.802   4.779   7.716  0.0560  0.0042  0.0413
  486MOL0     C66976   5.916   4.439   8.419  0.4766  0.5600 -0.5433
  486MOL0     C66977   5.908   4.360   8.540 -0.5524 -0.3895 -0.2250
  486MOL0     O66978   5.764   4.361   8.796 -0.1354  0.1343 -0.6692
  486MOL0     C66979   5.930   4.191   9.033 -0.2713  0.4616  0.3644
  486MOL0     C66980   5.926   4.109   9.138 -0.2504  0.3140 -0.4492
  486MOL0     N66981   5.327   3.903   9.698 -0.3928  0.7653 -0.1447
  486MOL0     N66982   5.209   3.889   9.655  0.3065  0.1081 -0.2226
  486MOL0     C66983   4.512   3.038   9.795  0.1349  0.0874  1.0946
  486MOL0     C66984   4.397   3.005   9.864  1.3317 -0.3092  0.2721
  486MOL0     C66985   4.073   3.037  10.159  0.9077  0.7946 -0.3448
  486MOL0     C66986   3.953   3.095  10.111  0.9171 -0.0727 -0.6945
  486MOL0     C66987   3.837   3.080  10.178  0.7067  0.3397 -0.3698
  486MOL0     C66988   3.827   3.012  10.301  0.3079 -0.9945 -0.8009
  486MOL0     O66989   3.700   3.000  10.341 -0.1953  0.0914 -0.0927
  486MOL0     C66990   3.668   2.932  10.460 -0.2435 -0.0469  1.1388
  486MOL0     C66991   3.519   2.898  10.463 -0.6421  0.4626 -0.9673
  486MOL0     C66992   3.475   2.853  10.598  0.7900  0.4900  0.0171
  486MOL0     C66993   3.332   2.827  10.606  0.5561 -0.1577  0.4608
  486MOL0     C66994   3.307   2.771  10.744  0.7896 -0.5857 -0.4405
  486MOL0     C66995   3.298   2.732  10.862  0.5499  0.3613  0.7162
  486MOL0     C66996   3.941   2.955  10.355  0.1893 -0.0383 -0.9586
  486MOL0     C66997   4.061   2.972  10.286  0.1337  0.4871  0.3201
  486MOL0     C66998   4.180   2.917  10.354 -0.6161  0.2448 -0.9954
  486MOL0     H66999   4.195   3.265   9.768  0.2522 -0.0315  1.4911
  486MOL0     H67000   4.390   3.321   9.636  0.7723  1.7323  1.7291
  486MOL0     H67001   4.614   3.368   9.633  0.5054 -1.3482  1.4880
  486MOL0     H67002   4.573   3.269   9.483 -1.2866  3.3477  0.1732
  486MOL0     H67003   4.860   3.282   9.592  1.3308 -1.0432 -1.3359
  486MOL0     H67004   4.793   3.209   9.447 -1.7564  0.9821 -0.7466
  486MOL0     H67005   4.754   3.433   9.352 -1.4645  0.1499  1.5898
  486MOL0     H67006   4.795   3.502   9.502 -0.4306  0.3881 -0.5013
  486MOL0     H67007   5.039   3.416   9.469 -2.0907  3.0765  2.5724
  486MOL0     H67008   4.978   3.339   9.327  1.3714 -0.8022  1.6790
  486MOL0     H67009   4.936   3.590   9.257 -0.9072  2.5729  1.2268
  486MOL0     H67010   5.112   3.540   9.281 -0.7410 -0.0236 -0.6839
  486MOL0     H67011   4.917   3.696   9.448  1.2397  2.7995  1.7573
  486MOL0     H67012   5.080   3.654   9.516  0.7336  3.1192  0.4300
  486MOL0     H67013   4.994   3.821   9.272 -0.0449 -0.5129  0.2259
  486MOL0     H67014   5.169   3.773   9.305  0.5267 -2.4845  1.8921
  486MOL0     H67015   5.087   4.006   9.369  3.8524  2.5424  2.6546
  486MOL0     H67016   4.985   3.925   9.501  0.0860 -2.8526  1.0221
  486MOL0     H67017   5.345   4.029   9.394  1.4875  4.3043  3.1525
  486MOL0     H67018   5.592   3.995   9.676 -0.5215 -2.3926  1.0890
  486MOL0     H67019   5.554   4.092   9.536  1.9947  0.5256  1.5042
  486MOL0     H67020   5.593   3.777   9.540 -0.8511 -0.1576 -1.2666
  486MOL0     H67021   5.576   3.875   9.389 -0.4622  3.9440  0.5796
  486MOL0     H67022   5.804   3.914   9.588  0.5045  2.3682  0.3566
  486MOL0     H67023   5.804   3.797   9.454  0.7111  1.1065 -1.6064
  486MOL0     H67024   5.773   4.098   9.401 -0.4878  0.2672 -0.5757
  486MOL0     H67025   5.921   4.021   9.418 -0.3170  0.7291  1.2822
  486MOL0     H67026   5.632   3.957   9.068 -0.5386  0.7070 -0.7680
  486MOL0     H67027   5.575   4.008   8.835  2.2396 -0.2430  1.7180
  486MOL0     H67028   5.687   4.107   8.737  0.0586  1.1110 -0.1502
  486MOL0     H67029   5.563   4.186   8.846  0.5789  0.1329  1.8375
  486MOL0     H67030   6.180   4.491   8.700 -0.0078  3.1084 -1.8770
  486MOL0     H67031   6.201   4.611   8.497  1.1722 -0.7905 -0.1644
  486MOL0     H67032   6.024   4.814   8.221  2.2479  0.1972 -2.1892
  486MOL0     H67033   6.087   4.772   8.376  0.9974 -0.7454  0.0471
  486MOL0     H67034   6.269   4.825   8.227  1.9034 -1.2054 -0.7820
  486MOL0     H67035   6.284   4.655   8.260 -0.4098  0.9393  1.4839
  486MOL0     H67036   6.160   4.805   8.018 -1.5126 -0.1858 -0.4789
  486MOL0     H67037   6.121   4.631   8.063  0.2049 -0.1285  0.7252
  486MOL0     H67038   6.292   4.635   7.881 -0.5812 -1.2040 -0.9774
  486MOL0     H67039   6.339   4.561   8.036 -1.3705  0.1601  0.0934
  486MOL0     H67040   6.402   4.853   7.974 -0.2609 -0.1371 -0.5893
  486MOL0     H67041   6.470   4.741   8.097 -0.6778 -2.1678 -0.2551
  486MOL0     H67042   6.524   4.760   7.809  0.1404  1.0445  0.8152
  486MOL0     H67043   6.534   4.593   7.866  1.9856  0.3361 -0.7700
  486MOL0     H67044   6.698   4.632   8.030  0.6445 -2.4210 -2.1525
  486MOL0     H67045   6.700   4.803   7.992 -1.9548 -0.4267  2.0097
  486MOL0     H67046   6.740   4.567   7.789  0.8487 -0.3540 -1.4552
  486MOL0     H67047   6.873   4.631   7.885 -0.7639 -0.9291  1.6288
  486MOL0     H67048   5.843   4.420   8.341 -0.1651  1.5820 -0.2141
  486MOL0     H67049   5.834   4.284   8.560  0.4121 -2.0231 -2.3953
  486MOL0     H67050   6.014   4.259   9.032 -0.9550  1.3414  1.1818
  486MOL0     H67051   5.983   4.115   9.231 -1.1062  1.7854  0.0104
  486MOL0     H67052   4.591   2.963   9.787 -0.6416 -0.6013 -0.5361
  486MOL0     H67053   4.387   2.909   9.914  1.2650 -1.9764 -2.7082
  486MOL0     H67054   3.955   3.146  10.015 -2.3234 -1.2643 -1.5211
  486MOL0     H67055   3.744   3.117  10.136 -1.4941 -0.7216  3.0774
  486MOL0     H67056   3.719   2.836  10.455 -1.0893 -0.4335 -1.0909
  486MOL0     H67057   3.690   2.983  10.554 -1.3348  1.0070  0.8552
  486MOL0     H67058   3.490   2.827  10.385  0.1184 -0.1072 -0.7471
  486MOL0     H67059   3.468   2.992  10.442  2.0334  2.0894 -0.7178
  486MOL0     H67060   3.533   2.767  10.631 -0.3352  0.5547  2.3459
  486MOL0     H67061   3.508   2.934  10.665  0.7431  0.5375 -0.0166
  486MOL0     H67062   3.296   2.752  10.535 -2.0986 -1.4451  2.9809
  486MOL0     H67063   3.275   2.918  10.587 -0.0392 -0.8064 -0.9660
  486MOL0     H67064   3.314   2.711  10.966 -0.4892  1.0495  1.0286
  486MOL0     H67065   3.927   2.901  10.449 -0.3267  1.3700 -0.1867
  486MOL0     H67066   4.161   2.852  10.440  1.2523 -0.1400 -0.8452
  486MOL0     H67067   4.246   2.858  10.290 -0.7132 -1.3834  0.3273
  486MOL0     H67068   4.238   2.999  10.396  0.2360 -0.4845 -0.7057
  487MOL0     O67069   0.327   6.900   1.529 -0.5194  0.2358 -0.4672
  487MOL0     C67070   0.281   6.997   1.582  0.4680 -0.1461  0.2774
  487MOL0     O67071   0.348   7.088   1.653  0.0436 -1.1252  0.3254
  487MOL0     C67072   0.486   7.073   1.680  0.4552  0.4447  0.0351
  487MOL0     C67073   0.584   7.148   1.612  0.2258 -0.7269  0.5333
  487MOL0     C67074   0.718   7.153   1.658  1.0169 -0.8596 -1.4300
  487MOL0     C67075   0.755   7.080   1.769 -0.1037  0.0107  0.5998
  487MOL0     O67076   0.890   7.091   1.791  0.4153  0.7677 -0.8691
  487MOL0     C67077   0.958   6.986   1.860  0.0063  0.0171  0.0015
  487MOL0     C67078   1.106   7.022   1.861  0.0713  0.2559  0.1067
  487MOL0     C67079   1.136   7.141   1.947 -0.1607 -0.0688  0.6188
  487MOL0     C67080   1.153   7.100   2.097 -0.0703 -0.0668 -0.4830
  487MOL0     C67081   1.180   7.225   2.185  0.2255  0.9039 -0.4807
  487MOL0     C67082   1.221   7.180   2.326 -0.2342  0.0515  0.2073
  487MOL0     C67083   1.237   7.304   2.412 -0.0083 -0.4581 -0.5864
  487MOL0     C67084   1.344   7.404   2.369 -0.5331  0.4648 -0.2155
  487MOL0     N67085   1.487   7.356   2.370  0.3743 -0.3062  0.3299
  487MOL0     C67086   1.555   7.329   2.482 -0.1658  0.1182 -0.8340
  487MOL0     C67087   1.665   7.276   2.437  0.1750 -0.1299  0.2336
  487MOL0     C67088   1.771   7.207   2.523  1.1172 -0.6632 -0.1665
  487MOL0     C67089   1.919   7.242   2.511 -0.1567  0.1504 -0.7464
  487MOL0     C67090   2.024   7.175   2.603  0.4946  0.4282  0.5987
  487MOL0     C67091   2.164   7.228   2.573 -0.1283  0.3627 -0.1624
  487MOL0     O67092   2.212   7.128   2.474  0.4654  0.6086 -0.9619
  487MOL0     C67093   2.339   7.128   2.423 -0.2567 -0.5998  0.5077
  487MOL0     C67094   2.423   7.241   2.447  0.4893  0.2101 -0.3034
  487MOL0     C67095   2.554   7.241   2.393  1.0191 -0.0835 -0.1810
  487MOL0     C67096   2.652   7.342   2.454  0.3069  0.8724 -0.3886
  487MOL0     C67097   2.595   7.140   2.296  0.3604 -0.8198 -0.2231
  487MOL0     C67098   2.711   7.161   2.211  0.2080 -0.2057 -0.2935
  487MOL0     O67099   2.792   7.054   2.207  0.0532 -0.2987  0.3088
  487MOL0     C67100   2.868   7.047   2.094  0.5200 -0.2197  0.6702
  487MOL0     C67101   3.007   7.020   2.106 -0.1198 -0.5728  0.0330
  487MOL0     C67102   3.092   6.985   2.002  0.1089 -0.1099 -0.3479
  487MOL0     C67103   3.036   6.983   1.868 -0.8771  0.0552 -0.1332
  487MOL0     O67104   3.108   6.970   1.752 -0.3407  0.7054 -0.1718
  487MOL0     C67105   3.184   6.854   1.729 -0.5548  0.0780  0.5719
  487MOL0     C67106   3.101   6.732   1.684  0.3290  1.0633 -0.0027
  487MOL0     C67107   3.018   6.763   1.562 -0.2957  0.4046 -1.1780
  487MOL0     C67108   2.939   6.643   1.507  0.1214 -0.4356 -0.3508
  487MOL0     C67109   3.028   6.514   1.493  0.7236  0.4794  0.5053
  487MOL0     C67110   3.145   6.520   1.392  1.5308 -0.0010 -0.3464
  487MOL0     C67111   3.102   6.530   1.243 -0.3165  0.4732  0.3375
  487MOL0     C67112   3.202   6.476   1.139  0.1501 -0.2687 -0.3724
  487MOL0    Cl67113   3.327   6.594   1.096  0.0035  0.1520 -0.1334
  487MOL0     C67114   2.896   7.010   1.857 -0.6624  0.4249 -1.3867
  487MOL0     C67115   2.810   7.037   1.971 -0.6633 -0.7433  1.1810
  487MOL0     O67116   2.710   7.262   2.140  0.1654  0.3158 -0.4812
  487MOL0     C67117   2.519   7.023   2.284  0.9608  0.0309 -0.5883
  487MOL0     C67118   2.392   7.022   2.352  0.8737 -0.5085 -0.8318
  487MOL0     N67119   1.668   7.276   2.301 -0.1490 -0.3821 -0.2957
  487MOL0     N67120   1.555   7.323   2.256  0.7361  0.2464  0.2194
  487MOL0     C67121   0.654   7.003   1.841 -0.2568 -0.0888 -0.2049
  487MOL0     C67122   0.524   6.992   1.788  0.2730 -0.4866  0.1818
  487MOL0     C67123   0.141   7.018   1.553 -0.7132 -0.5141 -0.0739
  487MOL0     C67124   0.066   7.067   1.656 -1.0497 -0.6942  0.0529
  487MOL0     C67125  -0.077   7.074   1.647 -1.1667  0.0579 -0.2105
  487MOL0     C67126  -0.137   7.019   1.537 -0.6367 -0.6175 -0.4576
  487MOL0     O67127  -0.274   7.025   1.517  0.3207  0.3578 -0.1509
  487MOL0     C67128  -0.358   7.018   1.640 -0.4932  0.2078 -0.5386
  487MOL0     C67129  -0.495   6.984   1.606  0.6060  0.2097 -0.0987
  487MOL0     C67130  -0.499   6.852   1.537 -0.4174  0.3888 -0.2614
  487MOL0     C67131  -0.642   6.788   1.528 -0.0509  0.5806 -0.5900
  487MOL0     C67132  -0.749   6.858   1.461  0.2663  0.7722 -1.2005
  487MOL0     C67133  -0.820   6.937   1.403  0.6106  0.5537 -0.2820
  487MOL0     C67134  -0.065   6.973   1.427 -0.2621 -1.3663  0.1063
  487MOL0     C67135   0.074   6.970   1.430  0.3910 -0.2172  0.2600
  487MOL0     C67136   0.151   6.937   1.298  0.0757 -0.9700 -0.3822
  487MOL0     H67137   0.549   7.218   1.536  0.4304  0.8591  1.8388
  487MOL0     H67138   0.784   7.210   1.592 -2.3538  0.6349 -3.7688
  487MOL0     H67139   0.942   6.892   1.805  1.4868 -0.8607  1.0026
  487MOL0     H67140   0.925   6.975   1.963  1.8216 -0.7731  0.5271
  487MOL0     H67141   1.171   6.941   1.895 -1.0085 -1.4128 -1.5902
  487MOL0     H67142   1.135   7.041   1.757  3.0334 -0.0918  0.7742
  487MOL0     H67143   1.231   7.182   1.913 -0.9840  0.8528 -0.6398
  487MOL0     H67144   1.063   7.220   1.929  1.1490  1.0709  0.1289
  487MOL0     H67145   1.067   7.047   2.139  1.0559 -1.2042  0.4742
  487MOL0     H67146   1.235   7.030   2.112 -0.9040 -0.6098  1.8628
  487MOL0     H67147   1.094   7.292   2.173 -1.0468 -0.6194 -0.1447
  487MOL0     H67148   1.268   7.274   2.142  2.0822 -1.6099  0.2439
  487MOL0     H67149   1.147   7.111   2.368 -0.3783 -0.3537 -0.6855
  487MOL0     H67150   1.316   7.126   2.319 -1.2646 -1.6848 -1.4622
  487MOL0     H67151   1.260   7.274   2.515  0.0459  0.9167 -0.1653
  487MOL0     H67152   1.140   7.353   2.401  0.0104 -0.9329 -3.8588
  487MOL0     H67153   1.327   7.410   2.261 -0.2151 -0.9211 -0.3622
  487MOL0     H67154   1.339   7.504   2.413  0.5557  0.8078 -0.8321
  487MOL0     H67155   1.515   7.338   2.583 -0.5335 -2.7703 -0.6452
  487MOL0     H67156   1.775   7.101   2.499 -3.2412 -1.7170  2.6784
  487MOL0     H67157   1.755   7.231   2.628  1.5795  4.7147 -1.0297
  487MOL0     H67158   1.947   7.196   2.416  0.3602 -0.5065 -0.2830
  487MOL0     H67159   1.933   7.351   2.511  0.4166  0.1576  2.0776
  487MOL0     H67160   2.006   7.201   2.708 -2.8279  2.4692 -0.3007
  487MOL0     H67161   2.018   7.066   2.599 -2.0672  0.5533 -0.5385
  487MOL0     H67162   2.168   7.333   2.545  0.8982  0.6816  1.1108
  487MOL0     H67163   2.224   7.220   2.664 -1.3788  0.4796  0.6856
  487MOL0     H67164   2.393   7.321   2.514 -0.5292 -0.7175  0.3821
  487MOL0     H67165   2.589   7.430   2.470  0.4449  1.0690 -0.9376
  487MOL0     H67166   2.742   7.352   2.394  1.1723  1.8684  1.0195
  487MOL0     H67167   2.682   7.306   2.553 -0.6517 -0.8551 -0.6808
  487MOL0     H67168   3.044   7.029   2.207  1.2440  0.1260 -0.5031
  487MOL0     H67169   3.199   6.975   2.018 -0.3240 -3.4074  1.6606
  487MOL0     H67170   3.253   6.880   1.649  0.1245 -0.0091  1.1221
  487MOL0     H67171   3.247   6.823   1.813  0.6131  1.2066  0.1531
  487MOL0     H67172   3.173   6.654   1.656 -1.3731  0.0044 -1.6053
  487MOL0     H67173   3.044   6.690   1.767  1.8756 -1.6762 -0.2099
  487MOL0     H67174   3.088   6.791   1.483  0.6259  0.8349 -0.2287
  487MOL0     H67175   2.955   6.852   1.565  0.6515  1.0997 -1.5119
  487MOL0     H67176   2.885   6.660   1.414  2.0146 -0.8488 -1.6025
  487MOL0     H67177   2.859   6.621   1.579 -1.2335  0.7926 -1.4351
  487MOL0     H67178   3.071   6.475   1.587  4.6646 -0.0566 -1.3031
  487MOL0     H67179   2.951   6.440   1.470  0.5352  0.2126  1.8931
  487MOL0     H67180   3.184   6.419   1.404  0.6635 -0.5104 -1.5965
  487MOL0     H67181   3.222   6.593   1.420  1.1255  1.3406 -2.5021
  487MOL0     H67182   3.082   6.636   1.227 -0.3871  1.0308  3.4418
  487MOL0     H67183   3.008   6.477   1.222 -0.6625  1.0187  0.4776
  487MOL0     H67184   3.149   6.447   1.048 -2.3741 -2.9138  1.7336
  487MOL0     H67185   3.256   6.391   1.182 -2.6733 -1.2783  1.4736
  487MOL0     H67186   2.854   7.014   1.757 -1.1606  0.6955 -1.1665
  487MOL0     H67187   2.706   7.050   1.947  0.1917  1.2190 -2.0615
  487MOL0     H67188   2.534   6.952   2.203  2.3795  1.4914 -1.6650
  487MOL0     H67189   2.330   6.934   2.337  0.6166 -0.4495 -0.1699
  487MOL0     H67190   0.682   6.956   1.934 -2.5982  1.2861  1.2954
  487MOL0     H67191   0.438   6.945   1.835 -0.3841 -0.2840 -0.7842
  487MOL0     H67192   0.109   7.103   1.749  1.8663 -0.0444 -1.4469
  487MOL0     H67193  -0.134   7.119   1.728 -1.5716  1.3758 -1.1896
  487MOL0     H67194  -0.322   6.941   1.709 -0.5832  1.5546  1.0588
  487MOL0     H67195  -0.345   7.119   1.681  0.5741  0.7049 -2.0292
  487MOL0     H67196  -0.533   7.059   1.536  5.1650  2.0385 -0.9654
  487MOL0     H67197  -0.553   6.968   1.697  2.0607 -1.0562  0.6574
  487MOL0     H67198  -0.456   6.845   1.437 -2.4424 -1.3790 -1.1158
  487MOL0     H67199  -0.435   6.784   1.594 -0.7281  1.2405  1.1432
  487MOL0     H67200  -0.676   6.769   1.631 -1.1408  0.8798 -0.8850
  487MOL0     H67201  -0.642   6.690   1.480  1.5784  0.7094 -0.9153
  487MOL0     H67202  -0.883   7.007   1.350  1.0676 -1.0543 -3.1652
  487MOL0     H67203  -0.117   6.945   1.336  1.7390  0.2442 -1.6473
  487MOL0     H67204   0.224   6.855   1.294  2.4871  1.0367 -0.5444
  487MOL0     H67205   0.077   6.923   1.218 -0.9851  2.0536 -0.0532
  487MOL0     H67206   0.204   7.029   1.268 -0.9677  0.1187  1.0017
  488MOL0     O67207   3.932   0.702   2.498  0.2953  0.6464  0.0893
  488MOL0     C67208   3.880   0.813   2.474 -0.0817 -0.5271  0.1871
  488MOL0     O67209   3.947   0.930   2.436 -0.1606 -0.2169  0.1067
  488MOL0     C67210   4.078   0.930   2.383 -0.8788  0.1573 -0.0048
  488MOL0     C67211   4.178   0.853   2.440 -1.5583  0.3209 -0.9635
  488MOL0     C67212   4.297   0.852   2.386 -0.5625  0.2725 -0.8178
  488MOL0     C67213   4.330   0.929   2.268  0.1305  0.3281  0.3759
  488MOL0     O67214   4.458   0.920   2.223  0.2197  0.3301 -0.6406
  488MOL0     C67215   4.490   0.956   2.091  0.1442  0.3096  0.0557
  488MOL0     C67216   4.618   0.894   2.037 -0.3537  0.0793  0.7791
  488MOL0     C67217   4.729   0.886   2.139 -0.1789  0.0322  0.1537
  488MOL0     C67218   4.858   0.849   2.069 -0.0797 -0.8014  0.6319
  488MOL0     C67219   4.976   0.886   2.162 -0.7742  0.0072 -0.2286
  488MOL0     C67220   5.111   0.827   2.129 -0.9155  0.3361  1.2828
  488MOL0     C67221   5.150   0.702   2.213 -1.4009  0.5739  0.1175
  488MOL0     C67222   5.266   0.626   2.155  0.2198 -0.2706 -0.4373
  488MOL0     N67223   5.400   0.682   2.188  0.7949 -0.4141 -0.0959
  488MOL0     C67224   5.494   0.630   2.276  0.2038  0.1362  0.5493
  488MOL0     C67225   5.580   0.730   2.296 -0.4207  0.7519 -0.2439
  488MOL0     C67226   5.702   0.730   2.387 -0.1190  0.4457  0.6847
  488MOL0     C67227   5.838   0.745   2.313 -0.5695  0.3819 -1.0324
  488MOL0     C67228   5.944   0.701   2.416  0.2303  1.2684 -0.4046
  488MOL0     C67229   6.077   0.692   2.349 -0.1936 -0.2178  0.8109
  488MOL0     O67230   6.176   0.644   2.430  0.2809  0.6650  0.6768
  488MOL0     C67231   6.301   0.664   2.387 -0.4958  0.0297  0.0821
  488MOL0     C67232   6.406   0.641   2.477  0.1653 -0.6483 -0.0310
  488MOL0     C67233   6.546   0.675   2.454 -0.2621 -0.2753  1.0164
  488MOL0     C67234   6.646   0.649   2.562  0.2098  0.7676  0.0918
  488MOL0     C67235   6.576   0.731   2.330 -0.0708  0.5677 -0.3240
  488MOL0     C67236   6.704   0.765   2.274 -0.2907  0.3929 -0.8111
  488MOL0     O67237   6.807   0.747   2.360 -0.4504  0.1385 -0.0693
  488MOL0     C67238   6.921   0.806   2.329 -0.1347 -0.5599 -0.2896
  488MOL0     C67239   6.937   0.939   2.362 -0.5260  0.4029 -0.3040
  488MOL0     C67240   7.060   1.009   2.330  0.2038 -0.0302  0.6449
  488MOL0     C67241   7.171   0.941   2.285 -0.3725 -0.1674 -0.8094
  488MOL0     O67242   7.295   1.007   2.264  0.4528  0.0683  0.1061
  488MOL0     C67243   7.408   0.919   2.259  0.8374  0.3539  0.7433
  488MOL0     C67244   7.533   1.002   2.267  0.1596 -0.0075  0.5812
  488MOL0     C67245   7.564   1.080   2.135 -0.1323 -0.0809 -0.1853
  488MOL0     C67246   7.675   1.176   2.160 -0.4956 -0.2687 -0.2616
  488MOL0     C67247   7.764   1.213   2.034  0.8656  0.1243  0.3642
  488MOL0     C67248   7.789   1.097   1.933 -0.5149 -0.0128 -0.0630
  488MOL0     C67249   7.890   1.139   1.815  0.2579  0.2889  0.7043
  488MOL0     C67250   8.033   1.144   1.858 -0.2584 -0.0323  0.2323
  488MOL0    Cl67251   8.078   0.978   1.903 -0.1533 -0.0727  0.1384
  488MOL0     C67252   7.152   0.803   2.262 -0.7074 -0.6095 -0.1058
  488MOL0     C67253   7.032   0.740   2.280  0.0426  0.3326  0.1647
  488MOL0     O67254   6.709   0.825   2.167  0.2724 -0.2581 -0.5456
  488MOL0     C67255   6.469   0.739   2.238  0.1667 -0.5418  0.3325
  488MOL0     C67256   6.337   0.713   2.263  0.6736  0.0442  0.2752
  488MOL0     N67257   5.548   0.834   2.216  0.7317 -0.4981 -0.2291
  488MOL0     N67258   5.435   0.806   2.161  0.3737  0.1897 -0.0573
  488MOL0     C67259   4.228   1.007   2.211 -0.4762  0.2352 -0.6022
  488MOL0     C67260   4.108   1.012   2.278  0.8616  0.1965  0.4622
  488MOL0     C67261   3.740   0.824   2.467  0.5603  0.1365  0.6945
  488MOL0     C67262   3.685   0.937   2.399  0.1964 -1.2094 -0.6560
  488MOL0     C67263   3.551   0.937   2.368  0.3808 -0.0284 -0.1574
  488MOL0     C67264   3.468   0.840   2.408  0.0287  0.3475  0.0151
  488MOL0     O67265   3.332   0.841   2.385  0.2618 -0.3283 -0.1774
  488MOL0     C67266   3.267   0.968   2.378 -0.0568 -0.9825 -0.3984
  488MOL0     C67267   3.122   0.949   2.386  0.5137 -0.3267  0.7461
  488MOL0     C67268   3.072   0.851   2.274  0.3452  0.3181  0.0661
  488MOL0     C67269   2.914   0.863   2.248 -0.1896  1.0529  0.2959
  488MOL0     C67270   2.839   0.839   2.369  0.6971 -0.1511 -0.6278
  488MOL0     C67271   2.785   0.808   2.475 -0.0168  0.1682 -0.2702
  488MOL0     C67272   3.524   0.739   2.485  0.4762 -0.7935 -0.4630
  488MOL0     C67273   3.652   0.731   2.525 -0.8037 -0.8637 -0.1423
  488MOL0     C67274   3.694   0.626   2.627 -0.5748  0.5573  0.1944
  488MOL0     H67275   4.155   0.805   2.535  0.2480 -0.4552 -0.8928
  488MOL0     H67276   4.377   0.791   2.427 -1.1634 -0.4463 -0.6688
  488MOL0     H67277   4.497   1.065   2.077 -2.5526  0.5352 -0.0324
  488MOL0     H67278   4.412   0.925   2.021  0.5046  1.1188 -0.7397
  488MOL0     H67279   4.592   0.796   1.997  1.6112 -0.2379  0.1446
  488MOL0     H67280   4.653   0.951   1.950 -1.6401 -2.6952 -1.7343
  488MOL0     H67281   4.747   0.984   2.184  0.9222 -0.8709  1.7765
  488MOL0     H67282   4.709   0.812   2.217 -0.5300  2.7739  2.8809
  488MOL0     H67283   4.851   0.741   2.050 -2.2072 -0.5667 -0.1830
  488MOL0     H67284   4.884   0.904   1.979  1.2959  1.7590  2.4562
  488MOL0     H67285   4.950   0.858   2.265 -0.2499 -4.1822 -1.0678
  488MOL0     H67286   4.987   0.995   2.161 -0.3724 -0.0281  0.0658
  488MOL0     H67287   5.122   0.801   2.023  1.9327 -3.7710  2.3521
  488MOL0     H67288   5.191   0.895   2.161 -0.5344 -0.0669  1.1873
  488MOL0     H67289   5.066   0.631   2.216 -1.6379  0.8579  2.3868
  488MOL0     H67290   5.167   0.721   2.320  0.0405 -1.8276  0.3844
  488MOL0     H67291   5.266   0.520   2.182 -0.2422 -0.0042  0.6561
  488MOL0     H67292   5.253   0.630   2.047 -0.8708  0.5006 -0.2933
  488MOL0     H67293   5.497   0.535   2.327  2.1946 -0.6713 -0.9162
  488MOL0     H67294   5.693   0.637   2.445  0.9074  0.3658  0.7318
  488MOL0     H67295   5.684   0.804   2.466 -2.1841  0.6534  0.0755
  488MOL0     H67296   5.831   0.687   2.221  0.3122  0.3963 -1.1207
  488MOL0     H67297   5.858   0.849   2.285 -2.0707  0.2793 -2.6246
  488MOL0     H67298   5.946   0.782   2.489  1.4587  1.0289 -0.1515
  488MOL0     H67299   5.910   0.610   2.467  1.4213  1.7745  1.3933
  488MOL0     H67300   6.075   0.618   2.269  0.2234  0.3468  0.2651
  488MOL0     H67301   6.098   0.788   2.301  0.0574 -1.1889 -1.1076
  488MOL0     H67302   6.377   0.618   2.579 -0.8715  0.3707 -0.0782
  488MOL0     H67303   6.604   0.591   2.644 -2.7048  0.2474 -1.6133
  488MOL0     H67304   6.691   0.742   2.597  3.2446 -0.0113 -1.3814
  488MOL0     H67305   6.729   0.593   2.517  1.9126  3.4311 -0.3330
  488MOL0     H67306   6.862   1.010   2.397  1.9153  1.9210  2.1958
  488MOL0     H67307   7.068   1.112   2.361  1.0846 -0.5070  2.1308
  488MOL0     H67308   7.406   0.841   2.336  0.6744  0.3683  0.7541
  488MOL0     H67309   7.411   0.861   2.166  1.5392  3.0530 -1.0365
  488MOL0     H67310   7.510   1.071   2.349 -2.3942  1.1947 -1.0309
  488MOL0     H67311   7.620   0.937   2.282  1.0050  0.6992 -0.9847
  488MOL0     H67312   7.473   1.129   2.100 -0.6187 -1.1581 -0.4794
  488MOL0     H67313   7.598   1.002   2.066 -0.0054 -0.0714 -0.1344
  488MOL0     H67314   7.737   1.127   2.235 -1.8783 -0.9107  0.5014
  488MOL0     H67315   7.631   1.262   2.212 -0.8017  0.1584 -1.1962
  488MOL0     H67316   7.702   1.288   1.985  0.5012 -0.3236  0.1244
  488MOL0     H67317   7.857   1.259   2.068  1.0332 -1.7840  2.8107
  488MOL0     H67318   7.702   1.051   1.885  1.7671 -2.9895 -1.7057
  488MOL0     H67319   7.836   1.016   1.990 -2.1292 -1.0841 -0.1772
  488MOL0     H67320   7.855   1.236   1.779 -0.7059  1.7197  4.9161
  488MOL0     H67321   7.882   1.054   1.747 -0.1067 -0.7856  2.0433
  488MOL0     H67322   8.058   1.215   1.937 -2.1719  1.0711 -0.0760
  488MOL0     H67323   8.095   1.180   1.775 -0.9590 -0.8183 -0.6574
  488MOL0     H67324   7.238   0.754   2.219  1.6743  2.8581  0.2681
  488MOL0     H67325   7.022   0.644   2.232  0.6980  1.0143 -1.3905
  488MOL0     H67326   6.493   0.761   2.134 -2.3187  0.2172 -0.1474
  488MOL0     H67327   6.270   0.731   2.179  0.2067 -0.4765  0.5219
  488MOL0     H67328   4.245   1.079   2.132 -1.5857  1.0788 -0.1056
  488MOL0     H67329   4.030   1.069   2.230  1.4856 -0.0394 -0.8941
  488MOL0     H67330   3.733   1.027   2.361 -0.0328  0.0484  1.8270
  488MOL0     H67331   3.497   1.006   2.304 -1.1148 -1.5349 -0.5937
  488MOL0     H67332   3.305   1.032   2.458  0.7347 -3.2284  1.1234
  488MOL0     H67333   3.291   1.020   2.285  1.0588  1.0170  0.9379
  488MOL0     H67334   3.070   1.044   2.370  3.2794  1.0877 -0.5614
  488MOL0     H67335   3.094   0.915   2.486  0.1014 -0.3248  0.6352
  488MOL0     H67336   3.117   0.859   2.174 -0.7236 -0.3198 -0.4908
  488MOL0     H67337   3.101   0.749   2.300  0.6438 -0.4216 -2.7854
  488MOL0     H67338   2.878   0.789   2.177 -2.5720  1.2494  1.2027
  488MOL0     H67339   2.892   0.963   2.209  1.2163  0.7106 -1.5041
  488MOL0     H67340   2.724   0.792   2.562 -0.7352 -0.1564 -0.8176
  488MOL0     H67341   3.445   0.674   2.522  1.0183 -0.5578  1.1872
  488MOL0     H67342   3.756   0.546   2.585 -1.3192 -0.6946  1.4028
  488MOL0     H67343   3.757   0.673   2.704  1.5725  0.1053 -1.1810
  488MOL0     H67344   3.600   0.589   2.668 -0.8033 -1.3435 -1.8500
  489MOL0     O67345   8.774   6.383   7.856  0.4272 -1.3457 -0.3959
  489MOL0     C67346   8.728   6.286   7.921  0.5811  0.0285  0.3482
  489MOL0     O67347   8.763   6.153   7.903  0.3968  0.0880  0.6939
  489MOL0     C67348   8.839   6.125   7.788  0.6089 -0.0713  0.5047
  489MOL0     C67349   8.969   6.179   7.758 -0.5967  0.5741 -0.0223
  489MOL0     C67350   9.035   6.140   7.636 -0.3618  0.7143  0.0328
  489MOL0     C67351   8.980   6.049   7.550  0.1145  0.0395 -0.5808
  489MOL0     O67352   9.058   6.021   7.438 -0.2714 -0.1537  0.1903
  489MOL0     C67353   8.993   5.952   7.327  1.0874 -0.0948 -0.3306
  489MOL0     C67354   9.084   5.962   7.207  0.7365  0.1116 -0.1412
  489MOL0     C67355   9.218   5.891   7.216 -0.3769 -0.5201  0.4800
  489MOL0     C67356   9.297   5.900   7.088 -0.6519 -0.5845 -0.0267
  489MOL0     C67357   9.437   5.843   7.107 -0.9825  0.7959  0.0323
  489MOL0     C67358   9.545   5.939   7.162 -0.2350 -0.4385 -0.8919
  489MOL0     C67359   9.690   5.880   7.157  0.7201  0.4592 -0.2394
  489MOL0     C67360   9.714   5.751   7.233  0.4722 -0.3303 -0.1265
  489MOL0     N67361   9.851   5.708   7.208 -0.2990  0.5751  0.5059
  489MOL0     C67362   9.964   5.753   7.278  0.3860 -0.6162  0.1466
  489MOL0     C67363  10.063   5.685   7.219 -0.0334  0.6672  0.3290
  489MOL0     C67364  10.197   5.678   7.267 -1.1007 -0.1837 -0.4985
  489MOL0     C67365  10.267   5.819   7.277 -0.0869 -0.1950  0.4997
  489MOL0     C67366  10.417   5.818   7.316 -0.4915  0.3189 -0.2086
  489MOL0     C67367  10.506   5.758   7.210  0.2238 -0.3002  0.4913
  489MOL0     O67368  10.623   5.834   7.169  0.1985 -0.0595 -0.9219
  489MOL0     C67369  10.738   5.794   7.232 -0.6797  0.5187  0.4716
  489MOL0     C67370  10.849   5.757   7.153  0.7769 -0.4262  0.5267
  489MOL0     C67371  10.980   5.731   7.208  0.4383 -1.0370  0.5325
  489MOL0     C67372  11.085   5.686   7.116  0.2015 -0.3250  0.3075
  489MOL0     C67373  10.984   5.736   7.347  0.2498 -0.6511 -0.1475
  489MOL0     C67374  11.115   5.701   7.419  0.2907 -0.3685  0.5667
  489MOL0     O67375  11.125   5.745   7.554 -0.6670  0.3414 -0.0842
  489MOL0     C67376  11.252   5.757   7.614 -0.3617  0.0780  0.2675
  489MOL0     C67377  11.374   5.771   7.540  0.2914 -0.6132 -0.3209
  489MOL0     C67378  11.484   5.821   7.601  0.0541 -0.2432 -0.7820
  489MOL0     C67379  11.490   5.858   7.733  0.7044 -0.3792  0.0655
  489MOL0     O67380  11.604   5.899   7.792  0.1170  0.1265 -0.3314
  489MOL0     C67381  11.721   5.818   7.763 -0.5862  0.4548  0.0979
  489MOL0     C67382  11.823   5.881   7.860 -0.3413  0.4665 -0.4744
  489MOL0     C67383  11.913   5.769   7.916 -0.7008  0.0856  0.5048
  489MOL0     C67384  12.013   5.843   8.013  0.8435 -0.4257  0.1793
  489MOL0     C67385  12.089   5.735   8.091 -0.3643 -0.2057  0.2617
  489MOL0     C67386  12.202   5.784   8.180  0.3712 -0.1682  0.9442
  489MOL0     C67387  12.325   5.844   8.106  0.2742  0.2742  0.8465
  489MOL0     C67388  12.427   5.896   8.209  0.2398 -0.1236 -0.0099
  489MOL0    Cl67389  12.362   6.038   8.299 -0.0023 -0.1058  0.4044
  489MOL0     C67390  11.373   5.843   7.805  0.0412 -0.5096  0.1732
  489MOL0     C67391  11.260   5.781   7.746  0.3146  0.2385  0.3172
  489MOL0     O67392  11.200   5.625   7.367 -0.6883  0.4484  0.1658
  489MOL0     C67393  10.874   5.768   7.429  0.1123 -0.2106  0.0281
  489MOL0     C67394  10.755   5.805   7.371  0.1261  0.3834 -0.2016
  489MOL0     N67395  10.014   5.599   7.117  0.4233 -0.1665  0.4673
  489MOL0     N67396   9.886   5.627   7.110 -0.0202  0.4247  0.1549
  489MOL0     C67397   8.859   5.988   7.590 -0.1169 -0.0865 -0.1335
  489MOL0     C67398   8.783   6.025   7.701 -0.1171 -0.0258 -0.0950
  489MOL0     C67399   8.648   6.321   8.032 -0.3306  1.4590  0.2487
  489MOL0     C67400   8.710   6.294   8.161 -0.2290 -1.0044  0.1358
  489MOL0     C67401   8.651   6.359   8.279 -0.3804  0.7988 -0.3703
  489MOL0     C67402   8.545   6.443   8.265  0.2744  0.4162  0.8319
  489MOL0     O67403   8.495   6.498   8.383  0.3229  0.4365  0.0759
  489MOL0     C67404   8.360   6.557   8.388 -0.2185  1.3320  0.1346
  489MOL0     C67405   8.341   6.641   8.518  0.5943 -1.0455 -0.4088
  489MOL0     C67406   8.206   6.631   8.580  0.3842  0.1057 -0.8172
  489MOL0     C67407   8.182   6.692   8.720 -0.3682  0.1451 -0.1248
  489MOL0     C67408   8.037   6.671   8.742  0.5008 -0.8901 -0.6492
  489MOL0     C67409   7.919   6.658   8.753 -0.0455 -0.1420  0.1009
  489MOL0     C67410   8.491   6.461   8.134 -0.2022  0.0022 -0.6041
  489MOL0     C67411   8.542   6.411   8.026  0.2456 -0.5031  0.5067
  489MOL0     C67412   8.475   6.445   7.896 -0.6074 -0.6559  0.5859
  489MOL0     H67413   9.003   6.259   7.824  0.2741  0.2268 -0.0378
  489MOL0     H67414   9.130   6.184   7.608 -1.0156  0.9638 -1.9021
  489MOL0     H67415   8.899   6.001   7.301  1.1352 -0.1589 -0.6239
  489MOL0     H67416   8.961   5.850   7.353 -0.7440 -0.0553 -2.1540
  489MOL0     H67417   9.030   5.917   7.124  0.0352  2.7979 -1.2472
  489MOL0     H67418   9.102   6.067   7.185  1.7447  0.5570  2.4459
  489MOL0     H67419   9.272   5.947   7.293 -0.9910  1.2473 -0.3258
  489MOL0     H67420   9.204   5.784   7.232 -0.7624 -0.4712  0.4730
  489MOL0     H67421   9.250   5.842   7.008 -0.7917  1.8343 -1.8266
  489MOL0     H67422   9.303   6.009   7.082 -1.0943 -0.2096  3.6460
  489MOL0     H67423   9.472   5.793   7.016 -1.6241  0.2359  0.0838
  489MOL0     H67424   9.441   5.761   7.180  4.3610 -0.1903 -0.9342
  489MOL0     H67425   9.550   6.030   7.102 -0.6267 -0.4016 -0.8704
  489MOL0     H67426   9.531   5.967   7.266  3.2011  0.0878 -0.4809
  489MOL0     H67427   9.765   5.951   7.191  1.3318 -0.0994 -0.3796
  489MOL0     H67428   9.713   5.865   7.051  0.7973  0.1668 -0.1830
  489MOL0     H67429   9.697   5.773   7.339 -1.2578 -3.2549  0.3404
  489MOL0     H67430   9.639   5.673   7.215  0.6279 -1.3428  3.0234
  489MOL0     H67431   9.983   5.805   7.371  0.2074  0.0824 -0.1949
  489MOL0     H67432  10.242   5.617   7.188  0.6340 -1.2403  1.2133
  489MOL0     H67433  10.211   5.628   7.363 -1.6143  0.6039  0.0002
  489MOL0     H67434  10.272   5.855   7.173  0.0083 -0.6408  0.3457
  489MOL0     H67435  10.212   5.888   7.340  0.6808  1.4345 -0.5415
  489MOL0     H67436  10.446   5.922   7.334 -1.8308  1.0144 -1.7835
  489MOL0     H67437  10.426   5.760   7.409 -1.5966 -2.3460 -1.6523
  489MOL0     H67438  10.525   5.657   7.246 -3.7559 -1.6335 -0.7114
  489MOL0     H67439  10.458   5.742   7.113  2.5490  1.8208 -1.1490
  489MOL0     H67440  10.831   5.748   7.046  2.0787  1.6355  0.0804
  489MOL0     H67441  11.058   5.709   7.012  0.1526  2.4064  0.8326
  489MOL0     H67442  11.104   5.579   7.128  1.0679 -0.0411  1.7395
  489MOL0     H67443  11.179   5.738   7.136 -0.2770  1.6452 -1.9749
  489MOL0     H67444  11.394   5.741   7.437  2.3573  0.3418 -0.2520
  489MOL0     H67445  11.569   5.835   7.535  0.8869  0.2723  0.3618
  489MOL0     H67446  11.692   5.715   7.785 -2.7813  1.0522  0.1647
  489MOL0     H67447  11.755   5.820   7.659 -2.6446 -2.9874 -0.8015
  489MOL0     H67448  11.875   5.960   7.805  1.3569 -0.5428 -0.3957
  489MOL0     H67449  11.770   5.917   7.948 -0.8306 -2.1612  0.4091
  489MOL0     H67450  11.957   5.703   7.840  1.4199  0.9877  0.8701
  489MOL0     H67451  11.866   5.694   7.980  0.0600 -2.3278 -1.6030
  489MOL0     H67452  11.954   5.896   8.087  2.0487 -0.6201  1.3266
  489MOL0     H67453  12.071   5.916   7.954 -2.0821  0.1977 -2.1592
  489MOL0     H67454  12.021   5.677   8.153 -2.4732 -0.5806 -2.2198
  489MOL0     H67455  12.132   5.669   8.015 -0.4390  0.9002 -0.7973
  489MOL0     H67456  12.241   5.698   8.236  1.7606 -0.7803 -0.8620
  489MOL0     H67457  12.162   5.860   8.248  1.7416  2.3039 -0.8592
  489MOL0     H67458  12.303   5.923   8.033 -0.0271 -0.5098  0.0748
  489MOL0     H67459  12.379   5.766   8.053  1.5840  0.7885  1.3815
  489MOL0     H67460  12.525   5.924   8.170  0.6220 -0.3166  0.8102
  489MOL0     H67461  12.454   5.815   8.277 -0.2380  0.7692  1.2674
  489MOL0     H67462  11.379   5.863   7.912  4.3870  0.1423 -0.0195
  489MOL0     H67463  11.164   5.769   7.796 -0.4068 -1.4934 -1.3799
  489MOL0     H67464  10.896   5.774   7.535 -2.8071 -1.1163  0.7585
  489MOL0     H67465  10.689   5.857   7.441  3.7757  2.6160  1.9244
  489MOL0     H67466   8.829   5.911   7.519  0.9734 -0.9123  0.2694
  489MOL0     H67467   8.691   5.972   7.721  0.3769 -0.0345  2.6434
  489MOL0     H67468   8.797   6.231   8.163 -2.3362 -4.1073  1.2914
  489MOL0     H67469   8.692   6.346   8.379  1.4379 -1.3514 -1.3247
  489MOL0     H67470   8.349   6.631   8.308  0.6669  3.4276  1.8615
  489MOL0     H67471   8.291   6.472   8.380  1.2004  0.1801 -0.4421
  489MOL0     H67472   8.366   6.746   8.499  0.4648 -0.7897  0.7459
  489MOL0     H67473   8.417   6.604   8.587 -0.3450 -3.8784 -0.7592
  489MOL0     H67474   8.138   6.686   8.514  1.7363  2.4834 -0.3442
  489MOL0     H67475   8.172   6.528   8.590 -2.1097  1.0008  0.9331
  489MOL0     H67476   8.197   6.800   8.724 -2.4107  0.4604  3.4926
  489MOL0     H67477   8.224   6.633   8.802  0.1828  1.0458  0.2552
  489MOL0     H67478   7.813   6.643   8.757 -0.7324  3.7983  0.7476
  489MOL0     H67479   8.399   6.517   8.126 -0.2618  0.0638  0.4067
  489MOL0     H67480   8.456   6.350   7.844 -1.0142 -0.8837  1.1377
  489MOL0     H67481   8.378   6.494   7.910  0.6967  1.6862  1.8506
  489MOL0     H67482   8.547   6.506   7.841 -0.5756 -1.9665 -0.9056
  490MOL0     O67483   0.341   6.918   2.761  0.0578 -0.4559  0.0625
  490MOL0     C67484   0.365   6.829   2.669  0.9297 -0.9457  0.4039
  490MOL0     O67485   0.490   6.781   2.643 -0.1110 -0.7660  0.4542
  490MOL0     C67486   0.586   6.809   2.730 -1.2259 -0.0796  0.2888
  490MOL0     C67487   0.623   6.731   2.840 -0.0101 -0.3558 -0.6995
  490MOL0     C67488   0.724   6.766   2.928 -0.7835 -0.1451  0.1057
  490MOL0     C67489   0.803   6.876   2.896  0.0186 -0.0555 -0.7441
  490MOL0     O67490   0.902   6.913   2.979  0.2935 -0.0373  0.8866
  490MOL0     C67491   1.025   6.958   2.925 -0.4297  0.4067 -0.1134
  490MOL0     C67492   1.117   6.950   3.040 -0.3270 -0.5335  1.2210
  490MOL0     C67493   1.255   6.960   2.983  0.2486 -0.2811  0.6551
  490MOL0     C67494   1.364   6.905   3.083 -0.0636  0.7455 -0.0333
  490MOL0     C67495   1.372   6.749   3.111 -1.1418  0.0189  0.4936
  490MOL0     C67496   1.386   6.662   2.990  0.9727  0.1475 -0.2322
  490MOL0     C67497   1.389   6.515   3.021  0.9300  0.2566 -0.2982
  490MOL0     C67498   1.528   6.473   3.072 -0.2663  0.0933 -0.2756
  490MOL0     N67499   1.521   6.326   3.084  0.4054 -0.4184 -0.6933
  490MOL0     C67500   1.635   6.253   3.078  0.1075  0.2228  0.4547
  490MOL0     C67501   1.600   6.135   3.137 -0.4823  0.1058  0.5210
  490MOL0     C67502   1.694   6.020   3.156 -0.1085  1.0874  0.4337
  490MOL0     C67503   1.765   6.028   3.292  0.4423  0.2760 -0.1365
  490MOL0     C67504   1.874   5.921   3.302 -0.5891  0.1646 -0.5952
  490MOL0     C67505   1.961   5.940   3.430  0.4465  0.6219  0.4210
  490MOL0     O67506   2.085   5.881   3.407 -0.6373  0.4966 -0.6198
  490MOL0     C67507   2.166   5.855   3.514  0.1008  0.0032 -0.4075
  490MOL0     C67508   2.252   5.746   3.504  0.1780 -0.0894 -0.0925
  490MOL0     C67509   2.345   5.702   3.605  0.0317 -0.3958 -0.7417
  490MOL0     C67510   2.448   5.593   3.579 -0.1621 -0.5848 -0.0132
  490MOL0     C67511   2.347   5.775   3.732  0.4991  0.8533 -0.6153
  490MOL0     C67512   2.422   5.734   3.860  0.4026 -0.3631  1.0175
  490MOL0     O67513   2.454   5.836   3.947 -0.6514 -0.3319  0.5088
  490MOL0     C67514   2.527   5.797   4.052  0.3174  0.5858  0.1937
  490MOL0     C67515   2.477   5.807   4.175 -0.4935 -0.6874 -0.8935
  490MOL0     C67516   2.554   5.764   4.283  0.0289 -0.8395 -0.4798
  490MOL0     C67517   2.681   5.701   4.269 -0.1230 -0.2005 -0.1600
  490MOL0     O67518   2.746   5.663   4.377  0.4654 -0.2959 -0.0423
  490MOL0     C67519   2.888   5.656   4.381  0.2312  0.0548  0.4626
  490MOL0     C67520   2.933   5.593   4.508  1.1781  0.3622  1.0332
  490MOL0     C67521   3.065   5.635   4.545  0.1697 -0.0132 -0.9822
  490MOL0     C67522   3.107   5.539   4.659  0.4728  0.2781 -0.8101
  490MOL0     C67523   3.237   5.586   4.725 -0.2859 -0.4638 -0.2764
  490MOL0     C67524   3.262   5.516   4.858 -0.2328  0.3479  0.1283
  490MOL0     C67525   3.163   5.571   4.965 -0.3247 -0.2222 -0.6421
  490MOL0     C67526   3.214   5.542   5.100 -0.0166  0.5519  0.4172
  490MOL0    Cl67527   3.130   5.658   5.201 -0.6600  0.0882 -0.0489
  490MOL0     C67528   2.728   5.688   4.133 -0.0925  0.2400  0.3863
  490MOL0     C67529   2.648   5.738   4.033 -0.7605  0.3538  0.0261
  490MOL0     O67530   2.433   5.616   3.876  0.7781  0.0834  0.3729
  490MOL0     C67531   2.258   5.881   3.739 -0.4896 -0.2174  0.5586
  490MOL0     C67532   2.167   5.916   3.643 -0.2527 -0.1482  0.4275
  490MOL0     N67533   1.459   6.127   3.159 -0.0431 -0.2032  0.2118
  490MOL0     N67534   1.416   6.246   3.136 -0.3321  0.5417  0.2528
  490MOL0     C67535   0.775   6.951   2.777  0.6402  0.3051 -0.6761
  490MOL0     C67536   0.665   6.921   2.701 -0.7610  0.4448 -0.1584
  490MOL0     C67537   0.257   6.763   2.594  1.0557  0.0434  0.1444
  490MOL0     C67538   0.123   6.757   2.648 -0.7131 -0.0931  0.3462
  490MOL0     C67539   0.010   6.703   2.579  0.2405  0.6184 -0.0364
  490MOL0     C67540   0.022   6.680   2.444  0.1446  0.7111 -0.1836
  490MOL0     O67541  -0.075   6.653   2.349  0.1817 -0.2955 -0.2611
  490MOL0     C67542  -0.214   6.649   2.392 -0.1238 -0.4434  0.6046
  490MOL0     C67543  -0.243   6.502   2.435  0.6420 -0.1122 -0.1199
  490MOL0     C67544  -0.202   6.381   2.346  0.0086 -0.1659 -0.4279
  490MOL0     C67545  -0.212   6.249   2.420 -0.7684  1.1965  0.1489
  490MOL0     C67546  -0.193   6.130   2.328 -0.1961 -0.1836  0.6492
  490MOL0     C67547  -0.159   6.039   2.251 -0.0420 -0.1889 -0.5212
  490MOL0     C67548   0.148   6.696   2.389 -0.3286  0.5033  0.6344
  490MOL0     C67549   0.264   6.732   2.458  0.0721 -0.8126 -0.0017
  490MOL0     C67550   0.391   6.752   2.377  0.5866 -0.2816 -0.5290
  490MOL0     H67551   0.549   6.655   2.864  1.4306 -0.3088  5.8627
  490MOL0     H67552   0.745   6.715   3.022 -3.4833  1.4655  1.7304
  490MOL0     H67553   1.013   7.054   2.874  1.0792 -1.0239 -3.4512
  490MOL0     H67554   1.058   6.874   2.864  0.7964  0.6841  0.1428
  490MOL0     H67555   1.108   7.034   3.110 -1.6396  2.7147 -2.4909
  490MOL0     H67556   1.095   6.851   3.082 -4.2398 -1.4278 -2.2794
  490MOL0     H67557   1.263   6.907   2.887 -1.0959  0.5648  0.0391
  490MOL0     H67558   1.282   7.065   2.969 -1.8652  0.0956 -1.3722
  490MOL0     H67559   1.461   6.944   3.052  0.5195 -0.1666  0.6034
  490MOL0     H67560   1.345   6.958   3.176 -1.2882  1.0148 -0.4139
  490MOL0     H67561   1.282   6.721   3.167 -1.8319  1.3206  0.0838
  490MOL0     H67562   1.456   6.722   3.176 -1.4519  0.3329  1.0234
  490MOL0     H67563   1.285   6.675   2.950  0.0299 -2.6753  0.9608
  490MOL0     H67564   1.456   6.708   2.920  0.3225  0.2938 -0.7909
  490MOL0     H67565   1.350   6.460   2.934  0.7791 -0.6926  0.3520
  490MOL0     H67566   1.308   6.492   3.090 -0.0130 -0.3713 -1.5609
  490MOL0     H67567   1.608   6.508   3.005  0.1457 -1.6060 -0.6993
  490MOL0     H67568   1.547   6.510   3.174  0.3982  0.1950 -0.4292
  490MOL0     H67569   1.737   6.288   3.062  0.1053  0.0906  0.1434
  490MOL0     H67570   1.761   6.023   3.070  2.2635 -2.0161  1.9973
  490MOL0     H67571   1.648   5.921   3.148  0.6820  0.7354  0.1345
  490MOL0     H67572   1.813   6.126   3.302  1.6914 -0.4558  1.6408
  490MOL0     H67573   1.692   6.015   3.373  1.7679  0.5549  1.1605
  490MOL0     H67574   1.834   5.819   3.306 -1.1519  0.4257  1.3820
  490MOL0     H67575   1.929   5.935   3.209 -0.7632 -0.5576 -0.8139
  490MOL0     H67576   1.960   6.049   3.443 -2.4837  0.6664  0.4528
  490MOL0     H67577   1.908   5.890   3.512 -0.0104  1.3467  0.5782
  490MOL0     H67578   2.243   5.694   3.409 -0.4162 -1.1388  0.5148
  490MOL0     H67579   2.412   5.493   3.604 -3.7597  1.0317  1.9684
  490MOL0     H67580   2.538   5.611   3.640 -0.2470  0.3373 -0.1478
  490MOL0     H67581   2.481   5.594   3.474  0.3807 -0.6223  0.1511
  490MOL0     H67582   2.376   5.843   4.189 -0.8735 -1.0318 -2.5605
  490MOL0     H67583   2.525   5.772   4.387  0.0656  1.6048 -0.6218
  490MOL0     H67584   2.936   5.603   4.298  2.2810  0.1743  1.4911
  490MOL0     H67585   2.916   5.762   4.377 -2.1112  0.7763  1.3217
  490MOL0     H67586   2.868   5.615   4.592  1.4709 -0.3383  1.4601
  490MOL0     H67587   2.927   5.486   4.482 -1.4990  0.7257 -0.1364
  490MOL0     H67588   3.063   5.735   4.587  0.2669 -0.2713 -0.3608
  490MOL0     H67589   3.138   5.629   4.463 -1.1999  1.6811 -2.4295
  490MOL0     H67590   3.128   5.447   4.602 -1.6653  0.3491 -1.7866
  490MOL0     H67591   3.029   5.535   4.735  0.5634  0.6591 -0.6968
  490MOL0     H67592   3.324   5.578   4.659 -0.7895  1.5057 -1.2549
  490MOL0     H67593   3.222   5.694   4.733  0.3073 -0.5078  2.4656
  490MOL0     H67594   3.363   5.537   4.892  0.6044 -0.3989 -1.7707
  490MOL0     H67595   3.258   5.407   4.858 -4.0744  0.3197  2.0580
  490MOL0     H67596   3.057   5.551   4.949 -0.0744 -0.0295 -2.9072
  490MOL0     H67597   3.171   5.679   4.945 -1.3145 -0.3105 -1.6254
  490MOL0     H67598   3.322   5.557   5.108 -0.1302  4.2111 -2.2583
  490MOL0     H67599   3.189   5.438   5.124  1.5255  0.1916  0.5557
  490MOL0     H67600   2.826   5.651   4.104  1.0941  3.9648 -0.9529
  490MOL0     H67601   2.695   5.734   3.935 -0.0072 -1.2195  0.4133
  490MOL0     H67602   2.243   5.938   3.830  1.7030  1.6741 -0.1597
  490MOL0     H67603   2.096   5.997   3.653 -0.7018 -0.4202 -0.4795
  490MOL0     H67604   0.842   7.032   2.751  2.0572 -0.1391  1.3505
  490MOL0     H67605   0.643   6.987   2.618 -0.3433  0.0984 -0.5491
  490MOL0     H67606   0.115   6.799   2.748 -1.8291  1.0320 -0.1834
  490MOL0     H67607  -0.085   6.694   2.631 -0.6470  0.8135 -1.5841
  490MOL0     H67608  -0.233   6.721   2.472 -0.2731  2.9116 -2.2167
  490MOL0     H67609  -0.282   6.689   2.316  1.4158  3.3446  1.0155
  490MOL0     H67610  -0.348   6.496   2.466  0.8901  0.0963  0.8197
  490MOL0     H67611  -0.181   6.501   2.525 -1.0886 -1.3250  1.1401
  490MOL0     H67612  -0.277   6.382   2.266  0.0955  2.3503 -0.5685
  490MOL0     H67613  -0.098   6.391   2.314  1.2669 -2.6865  2.4187
  490MOL0     H67614  -0.313   6.248   2.461 -0.8639  0.8729 -0.0883
  490MOL0     H67615  -0.139   6.239   2.500  0.1436 -1.6218 -0.9154
  490MOL0     H67616  -0.145   5.972   2.169  0.4765 -1.3233  0.4660
  490MOL0     H67617   0.163   6.669   2.285 -1.3714 -1.3714  0.9284
  490MOL0     H67618   0.434   6.852   2.387 -1.2498  0.5874 -0.7622
  490MOL0     H67619   0.466   6.688   2.424  0.1793 -0.5394 -0.2181
  490MOL0     H67620   0.373   6.729   2.272 -1.3446  2.9749 -1.0682
  491MOL0     O67621  10.210   8.011   5.842  0.0667  0.3392 -0.0584
  491MOL0     C67622  10.135   7.952   5.918  0.0296 -0.0917  0.7068
  491MOL0     O67623  10.177   7.876   6.024 -0.4643 -0.3241  0.2011
  491MOL0     C67624  10.307   7.848   6.026 -0.1643  0.1126  0.8217
  491MOL0     C67625  10.389   7.947   6.077 -0.7352 -0.0639 -0.6418
  491MOL0     C67626  10.526   7.936   6.076  0.2958  0.4967  0.2626
  491MOL0     C67627  10.581   7.817   6.027 -0.4962  0.7157 -0.3150
  491MOL0     O67628  10.715   7.809   6.029  0.4440 -0.2237 -0.6083
  491MOL0     C67629  10.791   7.694   5.980 -0.1136  0.3303 -0.5094
  491MOL0     C67630  10.809   7.704   5.831  0.6189 -0.3354 -0.3234
  491MOL0     C67631  10.909   7.592   5.793  0.2889 -0.5108  0.4310
  491MOL0     C67632  10.925   7.608   5.645  0.3509 -0.0626 -0.0274
  491MOL0     C67633  11.036   7.510   5.609 -0.9169  0.2778  1.0856
  491MOL0     C67634  11.098   7.549   5.465  0.0460  0.8868 -0.7370
  491MOL0     C67635  11.213   7.460   5.404  0.2842  1.0331 -0.2236
  491MOL0     C67636  11.327   7.440   5.509  0.0716 -0.0088 -0.6622
  491MOL0     N67637  11.449   7.382   5.446 -0.9625  0.0986 -0.4926
  491MOL0     C67638  11.540   7.451   5.374 -0.2899  0.2591 -0.0970
  491MOL0     C67639  11.639   7.361   5.341 -0.0911 -0.9684 -0.7705
  491MOL0     C67640  11.752   7.393   5.252 -0.5998 -1.1651  0.0064
  491MOL0     C67641  11.889   7.368   5.320  0.8165  0.8210 -0.4423
  491MOL0     C67642  11.992   7.421   5.221 -0.5340 -0.6226 -0.1333
  491MOL0     C67643  12.021   7.319   5.111  0.1874 -0.8710  0.1922
  491MOL0     O67644  12.059   7.186   5.136 -0.0139  0.1031 -0.4765
  491MOL0     C67645  12.183   7.164   5.183 -0.3170 -0.3509 -0.9410
  491MOL0     C67646  12.286   7.261   5.170  0.3070 -0.2871  0.1103
  491MOL0     C67647  12.419   7.232   5.207  0.1873  0.0509  0.0434
  491MOL0     C67648  12.534   7.309   5.161  0.0808  0.3592 -0.6623
  491MOL0     C67649  12.446   7.106   5.267  0.2455 -0.4052  0.3962
  491MOL0     C67650  12.583   7.060   5.304  0.8977  1.2447  0.5781
  491MOL0     O67651  12.673   7.151   5.361  0.6645 -0.6130 -0.1404
  491MOL0     C67652  12.804   7.114   5.370 -0.8207  1.0585 -0.1627
  491MOL0     C67653  12.852   7.044   5.482 -0.3016 -0.9304  0.1109
  491MOL0     C67654  12.982   7.006   5.489 -0.0431 -0.5182 -0.5696
  491MOL0     C67655  13.065   7.024   5.381 -0.9571 -0.0852  0.4226
  491MOL0     O67656  13.198   7.000   5.384  1.1334 -0.1612  0.4961
  491MOL0     C67657  13.283   7.000   5.500  0.1019 -0.4914 -0.4805
  491MOL0     C67658  13.426   7.013   5.444 -0.3623  0.0885  0.0803
  491MOL0     C67659  13.526   6.971   5.550  0.1294 -0.3326 -0.3627
  491MOL0     C67660  13.665   6.991   5.508 -0.3002 -0.1996  0.6064
  491MOL0     C67661  13.769   6.940   5.607 -0.3854 -0.3046 -0.2266
  491MOL0     C67662  13.908   6.919   5.544  0.3758  0.3208 -0.1218
  491MOL0     C67663  14.016   6.878   5.646  0.0105  0.8902  0.0263
  491MOL0     C67664  13.964   6.774   5.744 -0.4364 -0.2564  0.9044
  491MOL0    Cl67665  14.088   6.675   5.829 -0.2875  0.0523 -0.4380
  491MOL0     C67666  13.018   7.086   5.259  0.8158 -0.2128  0.5393
  491MOL0     C67667  12.879   7.127   5.251  0.5814  0.0612 -0.2294
  491MOL0     O67668  12.613   6.947   5.269 -0.7586 -0.4194 -0.1004
  491MOL0     C67669  12.345   7.014   5.277 -0.0101  0.5877  0.2567
  491MOL0     C67670  12.216   7.037   5.226  0.4357 -0.2169  0.3360
  491MOL0     N67671  11.609   7.240   5.397  0.0101  0.2409  0.1894
  491MOL0     N67672  11.493   7.249   5.452 -0.3814 -0.3624 -0.1958
  491MOL0     C67673  10.498   7.704   5.987  0.1080 -0.7246  0.0688
  491MOL0     C67674  10.359   7.723   5.987 -0.9173  0.5873 -0.5272
  491MOL0     C67675   9.986   7.963   5.882  0.2517  0.9147 -0.0203
  491MOL0     C67676   9.945   8.077   5.819 -0.3254  0.2745 -0.5078
  491MOL0     C67677   9.812   8.092   5.772  0.3781  0.0149 -0.3386
  491MOL0     C67678   9.720   7.990   5.806  0.3924  0.1412 -0.5905
  491MOL0     O67679   9.589   7.979   5.769 -0.1002  0.0364  1.0179
  491MOL0     C67680   9.534   8.059   5.658 -0.7386  0.3256  0.6601
  491MOL0     C67681   9.563   8.006   5.520  0.0236 -0.8438  0.1388
  491MOL0     C67682   9.510   8.093   5.410  0.3168  0.4907  0.4166
  491MOL0     C67683   9.546   8.056   5.268  0.5100  0.3327  0.5295
  491MOL0     C67684   9.556   7.919   5.227 -0.5848 -0.1677 -0.1584
  491MOL0     C67685   9.560   7.808   5.179  0.1640 -0.0192  1.4020
  491MOL0     C67686   9.762   7.893   5.897 -0.1285 -0.3271  0.4748
  491MOL0     C67687   9.894   7.875   5.931 -0.0334 -0.0690 -0.1188
  491MOL0     C67688   9.924   7.763   6.037 -0.2877  0.7316 -0.6766
  491MOL0     H67689  10.338   8.030   6.124 -0.4696  0.9156 -2.0360
  491MOL0     H67690  10.587   8.022   6.100  1.1789  0.4205 -1.4895
  491MOL0     H67691  10.749   7.598   6.014 -0.1315 -1.0519 -4.0441
  491MOL0     H67692  10.891   7.704   6.021  0.6018  2.6100 -2.6231
  491MOL0     H67693  10.716   7.698   5.775  0.2723  1.1979  0.0641
  491MOL0     H67694  10.862   7.798   5.815 -0.4209  0.4998  0.9722
  491MOL0     H67695  11.002   7.622   5.841  2.1775 -0.1915 -3.1025
  491MOL0     H67696  10.885   7.493   5.832 -2.6826  0.6214  1.8366
  491MOL0     H67697  10.837   7.583   5.585  2.3790  0.8107 -3.6860
  491MOL0     H67698  10.956   7.712   5.631 -0.7408  0.5123  1.5664
  491MOL0     H67699  10.995   7.409   5.613 -0.6758  0.0955 -0.3781
  491MOL0     H67700  11.119   7.513   5.681  1.5128 -1.4806 -1.4480
  491MOL0     H67701  11.006   7.541   5.406 -0.3172 -1.7058  0.0818
  491MOL0     H67702  11.123   7.656   5.466 -3.6662  1.8891  0.0375
  491MOL0     H67703  11.252   7.520   5.321 -2.0882 -0.5880 -2.6934
  491MOL0     H67704  11.176   7.363   5.371 -0.4887  1.2902 -0.1341
  491MOL0     H67705  11.365   7.534   5.551  3.0752 -1.8586  1.1515
  491MOL0     H67706  11.294   7.378   5.593  1.2114  0.2020 -0.0392
  491MOL0     H67707  11.525   7.554   5.345 -1.3416 -0.1026 -0.8705
  491MOL0     H67708  11.736   7.499   5.227  0.1615 -1.2197 -0.7890
  491MOL0     H67709  11.744   7.331   5.163 -1.0929 -0.8002 -0.2056
  491MOL0     H67710  11.892   7.424   5.413 -2.9922  0.1574  0.2503
  491MOL0     H67711  11.906   7.261   5.337  1.1203  1.0825  1.0162
  491MOL0     H67712  11.960   7.521   5.192  0.9603 -0.0286  0.1781
  491MOL0     H67713  12.085   7.442   5.275  1.2593 -0.4337 -3.0636
  491MOL0     H67714  11.930   7.309   5.051  0.2871  0.3714 -0.1930
  491MOL0     H67715  12.092   7.368   5.044  2.1299  0.2160  2.8393
  491MOL0     H67716  12.271   7.364   5.140 -0.9443 -0.8272 -1.2694
  491MOL0     H67717  12.503   7.401   5.112 -1.3791  0.3130  0.1224
  491MOL0     H67718  12.593   7.251   5.090  0.4161 -0.6603  0.4053
  491MOL0     H67719  12.600   7.342   5.242  2.3767 -2.0427 -1.4255
  491MOL0     H67720  12.783   7.024   5.564 -0.5726  1.6653  0.5918
  491MOL0     H67721  13.022   6.951   5.574 -0.2115 -0.4622 -0.4526
  491MOL0     H67722  13.257   7.084   5.564 -0.5746 -1.0435 -0.0151
  491MOL0     H67723  13.268   6.908   5.558  0.7909  1.1341  2.4719
  491MOL0     H67724  13.434   6.956   5.351 -1.7841  4.5563 -3.0880
  491MOL0     H67725  13.443   7.120   5.428 -0.2724 -0.1903 -1.9068
  491MOL0     H67726  13.504   6.865   5.566 -2.7024  0.1025 -0.7162
  491MOL0     H67727  13.508   7.027   5.643 -0.7847  1.5144 -1.5952
  491MOL0     H67728  13.691   7.092   5.475  0.4537 -0.8219 -0.7652
  491MOL0     H67729  13.672   6.927   5.419  2.4314  0.2651  0.4116
  491MOL0     H67730  13.767   7.007   5.694  0.8231 -1.6560  0.8801
  491MOL0     H67731  13.725   6.845   5.640 -0.1141 -0.2269  0.3711
  491MOL0     H67732  13.942   7.014   5.503  1.1658 -0.6977 -1.9388
  491MOL0     H67733  13.906   6.848   5.461 -0.1261  0.3016 -0.0941
  491MOL0     H67734  14.059   6.969   5.690  0.9367  1.4784 -1.9909
  491MOL0     H67735  14.098   6.826   5.595 -0.5611 -2.0854  1.8954
  491MOL0     H67736  13.899   6.712   5.681  0.3368 -0.5697  0.4123
  491MOL0     H67737  13.911   6.825   5.825  2.8517  1.7305  1.9571
  491MOL0     H67738  13.080   7.118   5.175 -2.3248 -0.7199 -2.1842
  491MOL0     H67739  12.823   7.180   5.175  0.4661 -1.4632 -1.2447
  491MOL0     H67740  12.368   6.917   5.320  0.1886 -0.6740 -2.4846
  491MOL0     H67741  12.146   6.955   5.238  0.7511 -0.9468 -2.2218
  491MOL0     H67742  10.539   7.610   5.953  1.3635  0.9629 -3.6464
  491MOL0     H67743  10.303   7.636   5.952  1.5501 -0.9617 -0.9017
  491MOL0     H67744  10.018   8.155   5.798 -1.7609  1.7443 -0.2219
  491MOL0     H67745   9.785   8.171   5.704 -0.2002  0.3600  0.2784
  491MOL0     H67746   9.426   8.073   5.675 -0.0083  2.8321  4.3756
  491MOL0     H67747   9.582   8.157   5.668 -2.1548  0.8927  2.4620
  491MOL0     H67748   9.510   7.912   5.503 -0.9822 -0.2845  0.1073
  491MOL0     H67749   9.671   7.990   5.512  0.7097  2.5865  0.8229
  491MOL0     H67750   9.401   8.084   5.412  0.3579 -1.3574 -1.4369
  491MOL0     H67751   9.536   8.197   5.429  0.7327  0.0002  2.8673
  491MOL0     H67752   9.639   8.110   5.251  1.9075 -2.0526  0.0721
  491MOL0     H67753   9.466   8.095   5.204 -1.5698 -0.5565  2.4282
  491MOL0     H67754   9.564   7.719   5.121  4.1775  0.9540 -0.1426
  491MOL0     H67755   9.687   7.826   5.938  0.7682 -1.6093  0.1152
  491MOL0     H67756   9.998   7.689   6.005 -3.0088 -3.2125  1.3768
  491MOL0     H67757   9.957   7.811   6.130  0.5173 -2.4262  0.7950
  491MOL0     H67758   9.839   7.711   6.081 -0.8357  0.6965 -1.7518
  492MOL0     O67759   3.203  11.031  10.842  0.1467 -0.7680  0.5257
  492MOL0     C67760   3.212  11.148  10.874 -0.6819 -0.0883  0.0685
  492MOL0     O67761   3.320  11.227  10.853 -0.0391 -0.0475  0.2673
  492MOL0     C67762   3.409  11.203  10.747  0.3876 -0.6884  0.0794
  492MOL0     C67763   3.384  11.114  10.638 -0.0185 -0.3356 -0.4430
  492MOL0     C67764   3.484  11.097  10.540  0.7960  0.3219 -0.9911
  492MOL0     C67765   3.606  11.166  10.548  0.6493  0.2075  0.2252
  492MOL0     O67766   3.710  11.152  10.463 -0.2393  0.6877  0.1883
  492MOL0     C67767   3.702  11.030  10.373 -0.5297 -0.1699 -0.2808
  492MOL0     C67768   3.823  11.007  10.280  0.0085 -0.7990 -0.4872
  492MOL0     C67769   3.947  10.977  10.369  0.1701 -1.2484  0.3725
  492MOL0     C67770   4.053  10.912  10.279 -0.1145  0.0022  0.3819
  492MOL0     C67771   4.174  10.860  10.364  0.1185  0.1604 -0.3153
  492MOL0     C67772   4.245  10.749  10.291  0.4073  0.8515 -0.2437
  492MOL0     C67773   4.384  10.705  10.343  0.1799  0.5693  0.4414
  492MOL0     C67774   4.486  10.814  10.350  0.3045  0.0969  0.2707
  492MOL0     N67775   4.550  10.825  10.223  0.6896  0.5224  0.7870
  492MOL0     C67776   4.646  10.744  10.181 -0.2624  0.1762  0.7493
  492MOL0     C67777   4.668  10.783  10.053  1.1792  0.2064 -0.3632
  492MOL0     C67778   4.780  10.729   9.965 -0.0676 -0.1763  0.1952
  492MOL0     C67779   4.919  10.741  10.023  0.1574 -0.0994 -0.3348
  492MOL0     C67780   4.973  10.889  10.005 -0.4086 -0.3713 -0.2403
  492MOL0     C67781   5.100  10.920  10.091  0.3363  0.1009 -0.6795
  492MOL0     O67782   5.070  10.895  10.235  0.8142 -0.2015  0.2754
  492MOL0     C67783   5.162  10.925  10.329 -1.1172 -0.1167 -0.1082
  492MOL0     C67784   5.126  10.936  10.463 -0.0300  0.0080  0.7086
  492MOL0     C67785   5.219  10.941  10.566  1.1127  0.2174  0.5697
  492MOL0     C67786   5.162  10.948  10.711 -0.8264  0.5421  0.4408
  492MOL0     C67787   5.355  10.932  10.533 -0.0537  0.1167 -0.2155
  492MOL0     C67788   5.462  10.950  10.632 -0.0074  0.1042 -0.2310
  492MOL0     O67789   5.582  10.891  10.618 -0.2447  0.1553 -0.4538
  492MOL0     C67790   5.645  10.859  10.738 -0.0671  1.0698  0.2623
  492MOL0     C67791   5.774  10.910  10.755  0.4252  0.0109 -0.3952
  492MOL0     C67792   5.844  10.880  10.876  0.3462  0.0672  0.8045
  492MOL0     C67793   5.790  10.809  10.986 -0.4629  0.7100 -0.7043
  492MOL0     O67794   5.856  10.788  11.105  0.2818 -0.0918  0.4325
  492MOL0     C67795   6.001  10.799  11.101  0.2583  0.2991 -0.3746
  492MOL0     C67796   6.052  10.717  11.221  0.3972 -0.1263  0.1733
  492MOL0     C67797   6.022  10.782  11.359 -1.2978 -0.7504  0.8727
  492MOL0     C67798   6.126  10.883  11.421 -0.1100 -0.7611 -0.0230
  492MOL0     C67799   6.076  10.961  11.545  0.4175  0.9479 -0.1733
  492MOL0     C67800   6.040  10.876  11.669 -1.3525 -0.1798 -0.0108
  492MOL0     C67801   5.966  10.965  11.775 -0.1015 -0.7091  0.4351
  492MOL0     C67802   5.898  10.881  11.888 -1.1764  0.2893  0.1651
  492MOL0    Cl67803   5.799  10.995  11.985 -0.0528  0.1631 -0.0914
  492MOL0     C67804   5.665  10.759  10.964  0.1039 -0.6973 -0.4779
  492MOL0     C67805   5.594  10.785  10.845  0.4462  0.1653 -0.2752
  492MOL0     O67806   5.436  11.025  10.726 -0.7738  0.5949  0.3441
  492MOL0     C67807   5.389  10.929  10.398 -0.7931 -0.3332  0.2492
  492MOL0     C67808   5.298  10.934  10.296  0.1760 -0.2588 -0.2213
  492MOL0     N67809   4.583  10.886  10.024  0.7965 -0.4423  0.0229
  492MOL0     N67810   4.511  10.904  10.125 -0.6508 -0.9740 -0.3750
  492MOL0     C67811   3.622  11.258  10.650  0.5006 -0.2453  0.6436
  492MOL0     C67812   3.526  11.273  10.754  0.3280 -0.2507  0.2381
  492MOL0     C67813   3.087  11.206  10.932  0.4257 -0.5045  0.6878
  492MOL0     C67814   2.988  11.114  10.971 -0.0711 -0.4684 -0.0091
  492MOL0     C67815   2.858  11.163  11.000  0.4825  0.1749 -0.8006
  492MOL0     C67816   2.826  11.299  10.993  0.6821 -0.0496  0.2768
  492MOL0     O67817   2.696  11.351  11.031 -0.1091  0.0775 -0.4713
  492MOL0     C67818   2.589  11.262  11.004 -0.0559  0.6011  0.5147
  492MOL0     C67819   2.456  11.340  10.986 -0.0538  0.7031  0.1144
  492MOL0     C67820   2.416  11.425  11.104 -0.0609 -0.0459  0.5116
  492MOL0     C67821   2.282  11.485  11.086  0.2984  0.4656  0.4756
  492MOL0     C67822   2.261  11.559  11.210  0.0517  0.1050 -1.0052
  492MOL0     C67823   2.250  11.598  11.325 -0.2210  0.0073  0.4310
  492MOL0     C67824   2.926  11.388  10.954  0.5883  0.7326  0.1510
  492MOL0     C67825   3.058  11.347  10.933 -0.0316  0.4276  0.6955
  492MOL0     C67826   3.154  11.450  10.881  0.9976  0.4912 -0.7301
  492MOL0     H67827   3.300  11.044  10.636 -1.2736  0.8358  3.2973
  492MOL0     H67828   3.478  11.021  10.462  1.5980 -1.6427  0.7725
  492MOL0     H67829   3.615  11.046  10.309 -0.2898 -2.9842 -1.4527
  492MOL0     H67830   3.681  10.937  10.425  0.9687 -0.0567  0.5999
  492MOL0     H67831   3.796  10.925  10.212 -0.9426 -1.1067  0.2386
  492MOL0     H67832   3.836  11.098  10.222  0.3755 -2.5870 -3.4221
  492MOL0     H67833   3.985  11.067  10.420  0.0810 -2.4647  2.7215
  492MOL0     H67834   3.928  10.914  10.456 -0.0007 -2.5469 -0.5877
  492MOL0     H67835   3.997  10.829  10.235  0.9400 -1.5675  1.8902
  492MOL0     H67836   4.093  10.967  10.193  3.8898 -0.0890  1.9749
  492MOL0     H67837   4.129  10.815  10.453  0.7058 -0.0708 -0.1292
  492MOL0     H67838   4.247  10.938  10.388  0.9464 -0.2634 -1.3460
  492MOL0     H67839   4.181  10.661  10.288  0.1128  1.0401  0.3182
  492MOL0     H67840   4.244  10.774  10.184  1.4130  0.2881 -0.3941
  492MOL0     H67841   4.429  10.618  10.294  0.4454  0.3692  1.0390
  492MOL0     H67842   4.360  10.667  10.442 -0.3698 -1.4490 -0.4136
  492MOL0     H67843   4.450  10.908  10.394  1.1820  0.1379  0.9568
  492MOL0     H67844   4.568  10.787  10.417 -0.1463 -2.2986 -0.0599
  492MOL0     H67845   4.699  10.662  10.227  4.6028  2.7471  0.4219
  492MOL0     H67846   4.769  10.773   9.866  1.2485 -1.1269 -0.4050
  492MOL0     H67847   4.759  10.623   9.949 -0.8483  0.0748 -0.4945
  492MOL0     H67848   4.915  10.727  10.132 -2.1764  0.2229 -0.3292
  492MOL0     H67849   4.990  10.666   9.988  2.9046  1.5871  1.2047
  492MOL0     H67850   4.999  10.893   9.899 -0.2185 -1.0628 -0.2255
  492MOL0     H67851   4.898  10.964  10.032 -0.3895  1.0263 -3.5293
  492MOL0     H67852   5.183  10.859  10.056 -0.7456 -1.5414 -0.4636
  492MOL0     H67853   5.131  11.025  10.086  0.4840  0.1761  1.1045
  492MOL0     H67854   5.021  10.918  10.483 -0.5054  0.8069 -0.8928
  492MOL0     H67855   5.216  10.867  10.760  2.0918  0.9768 -1.7561
  492MOL0     H67856   5.054  10.930  10.713 -0.6640 -0.5380  0.2888
  492MOL0     H67857   5.180  11.047  10.754  1.8872 -0.8355  2.8043
  492MOL0     H67858   5.824  10.965  10.677 -0.8149 -1.2251 -2.1530
  492MOL0     H67859   5.938  10.934  10.882 -0.3261  1.1396  2.3685
  492MOL0     H67860   6.025  10.746  11.009 -0.1997 -1.4903  0.4813
  492MOL0     H67861   6.046  10.898  11.097  2.1739 -0.4318  1.4383
  492MOL0     H67862   6.018  10.613  11.219  3.2278 -1.1886  1.6708
  492MOL0     H67863   6.159  10.701  11.206  0.1774 -0.4488 -1.2006
  492MOL0     H67864   6.005  10.699  11.429  0.3569 -1.6502  0.2689
  492MOL0     H67865   5.923  10.828  11.345 -1.1610 -0.9006 -0.8317
  492MOL0     H67866   6.152  10.961  11.349 -0.8130  1.8841  2.4036
  492MOL0     H67867   6.219  10.831  11.447 -1.0444 -2.2695  0.5125
  492MOL0     H67868   6.156  11.031  11.573  0.8645 -0.0366  1.1467
  492MOL0     H67869   5.984  11.018  11.526  0.6003  1.0442 -0.7666
  492MOL0     H67870   6.125  10.818  11.705 -1.0892  0.5721  0.5932
  492MOL0     H67871   5.964  10.800  11.645 -2.5579  0.5110  1.4366
  492MOL0     H67872   5.885  11.022  11.730 -1.1404 -0.9583  1.9036
  492MOL0     H67873   6.029  11.033  11.832 -0.7396 -0.1552  0.4905
  492MOL0     H67874   5.980  10.830  11.939  0.5556  0.9204 -1.8324
  492MOL0     H67875   5.841  10.802  11.838 -1.0596  2.2051 -3.3763
  492MOL0     H67876   5.612  10.711  11.046  0.4895 -2.4429 -1.2200
  492MOL0     H67877   5.491  10.757  10.825  0.0116  0.9051  0.8453
  492MOL0     H67878   5.491  10.953  10.367 -1.6032  0.7958 -1.7485
  492MOL0     H67879   5.325  10.935  10.191  1.5979  1.4590  0.1200
  492MOL0     H67880   3.702  11.331  10.656 -2.4832  3.2014  2.4148
  492MOL0     H67881   3.557  11.341  10.833 -0.6765 -0.4712  0.8446
  492MOL0     H67882   3.023  11.012  10.966 -0.3509 -0.5670  0.0124
  492MOL0     H67883   2.786  11.087  11.029  0.5563 -0.4263 -2.1116
  492MOL0     H67884   2.609  11.210  10.909 -0.3349 -1.9433  1.7517
  492MOL0     H67885   2.576  11.190  11.085  2.7042  1.4197  1.8145
  492MOL0     H67886   2.371  11.275  10.966 -0.0503  0.4625  0.8619
  492MOL0     H67887   2.460  11.400  10.894 -0.2065 -0.8310 -0.9320
  492MOL0     H67888   2.413  11.363  11.194  1.7207 -2.0961 -0.7517
  492MOL0     H67889   2.486  11.503  11.136 -0.3452 -0.8528  3.3153
  492MOL0     H67890   2.224  11.392  11.084  2.3855 -0.9679 -2.5127
  492MOL0     H67891   2.279  11.541  10.992 -0.1633  0.3133  0.3997
  492MOL0     H67892   2.233  11.641  11.421  0.4899  1.9127 -0.2383
  492MOL0     H67893   2.901  11.493  10.951 -0.3121  0.5918  1.4582
  492MOL0     H67894   3.187  11.416  10.782  1.6010  1.5670 -0.9167
  492MOL0     H67895   3.111  11.551  10.873  0.2027  0.1122 -1.3271
  492MOL0     H67896   3.242  11.465  10.946  0.4727 -1.1908  0.4456
  493MOL0     O67897  10.805   7.327   2.237 -0.1956  0.3102 -0.5438
  493MOL0     C67898  10.774   7.439   2.252  0.3260 -0.5424  0.3215
  493MOL0     O67899  10.856   7.543   2.220 -0.4530  0.3064 -0.3012
  493MOL0     C67900  10.925   7.615   2.312 -0.5766  0.8194 -0.4576
  493MOL0     C67901  10.921   7.605   2.450 -0.2350 -0.1646 -0.3737
  493MOL0     C67902  11.013   7.683   2.529 -0.1609  0.9974 -0.1780
  493MOL0     C67903  11.096   7.772   2.474  0.9293 -0.1310  1.4427
  493MOL0     O67904  11.164   7.853   2.550 -0.5927  0.2342  0.2612
  493MOL0     C67905  11.299   7.812   2.575 -0.3957 -0.1368  0.8375
  493MOL0     C67906  11.364   7.891   2.696 -0.5411  0.0780 -0.1333
  493MOL0     C67907  11.515   7.873   2.704  0.6452 -0.0507  0.0211
  493MOL0     C67908  11.575   7.917   2.838  0.4156  0.2437 -0.0528
  493MOL0     C67909  11.726   7.934   2.814 -0.5197  0.0517  0.6207
  493MOL0     C67910  11.813   7.812   2.788 -0.6105 -0.1640 -1.2471
  493MOL0     C67911  11.780   7.699   2.889 -0.3237  0.4065  0.1005
  493MOL0     C67912  11.864   7.580   2.885  0.0457  0.1857 -0.5985
  493MOL0     N67913  11.997   7.592   2.957  0.3836  0.2404 -0.2923
  493MOL0     C67914  12.027   7.590   3.089 -0.1855  0.6145 -0.0010
  493MOL0     C67915  12.164   7.581   3.100 -0.4057  0.3379 -0.3814
  493MOL0     C67916  12.253   7.583   3.226  0.2328 -0.2370 -0.3370
  493MOL0     C67917  12.398   7.626   3.211 -0.3794 -0.3586 -0.0811
  493MOL0     C67918  12.390   7.774   3.172 -0.3186  0.4519  0.4520
  493MOL0     C67919  12.537   7.820   3.140  0.6490  0.4120  0.0017
  493MOL0     O67920  12.531   7.949   3.071  0.6388  0.0444 -0.1573
  493MOL0     C67921  12.482   8.053   3.146 -0.3918 -0.6090 -0.2236
  493MOL0     C67922  12.469   8.065   3.291 -0.2661 -0.1382 -0.4647
  493MOL0     C67923  12.403   8.170   3.345  0.5430 -0.0847 -0.6218
  493MOL0     C67924  12.396   8.155   3.497 -0.2462 -0.6544  0.0656
  493MOL0     C67925  12.344   8.272   3.263  1.1458  0.4833 -0.5388
  493MOL0     C67926  12.256   8.380   3.309 -0.2839 -0.4282 -0.0494
  493MOL0     O67927  12.211   8.465   3.208  0.2216  0.0189 -0.2166
  493MOL0     C67928  12.186   8.598   3.243  0.2666 -0.1051  0.6424
  493MOL0     C67929  12.100   8.665   3.159 -0.0432  0.4134  0.7362
  493MOL0     C67930  12.071   8.796   3.184  0.9428 -0.2337 -0.4220
  493MOL0     C67931  12.105   8.870   3.294 -0.3868  0.3339 -0.3431
  493MOL0     O67932  12.077   9.001   3.331  0.1585  0.0960  0.1125
  493MOL0     C67933  12.065   9.101   3.220 -0.0363 -0.5693  0.4037
  493MOL0     C67934  12.046   9.243   3.270 -0.8974  0.7613 -0.1648
  493MOL0     C67935  12.173   9.291   3.350 -0.5925 -0.5350 -0.4016
  493MOL0     C67936  12.173   9.442   3.378 -0.8849  0.0331 -0.1752
  493MOL0     C67937  12.314   9.493   3.417  1.0478 -0.7073 -0.6237
  493MOL0     C67938  12.314   9.643   3.450  0.7138  0.0618  0.2455
  493MOL0     C67939  12.276   9.731   3.332  0.1555  0.0314  0.4463
  493MOL0     C67940  12.283   9.883   3.360  0.5585  0.4579 -0.1874
  493MOL0    Cl67941  12.457   9.917   3.354  0.4723  0.2421  0.1560
  493MOL0     C67942  12.187   8.799   3.376 -0.2400  0.0186 -0.3239
  493MOL0     C67943  12.229   8.671   3.351  0.1944 -0.2018  0.0309
  493MOL0     O67944  12.217   8.387   3.423  0.3678  0.4449  0.7728
  493MOL0     C67945  12.373   8.270   3.119  0.5400 -0.3493  0.1147
  493MOL0     C67946  12.445   8.162   3.066  0.9039  0.0919  0.4765
  493MOL0     N67947  12.210   7.583   2.969  0.0044  0.4470  0.3620
  493MOL0     N67948  12.109   7.586   2.880 -0.0793  0.4209  0.1776
  493MOL0     C67949  11.088   7.793   2.337 -0.3882 -0.0577  0.6190
  493MOL0     C67950  11.012   7.704   2.256 -0.2008 -0.3312 -0.5823
  493MOL0     C67951  10.642   7.457   2.313  0.7244  0.4115  0.2382
  493MOL0     C67952  10.579   7.349   2.369 -0.4038 -0.3360 -0.3572
  493MOL0     C67953  10.466   7.352   2.441 -0.2017 -0.4310  0.0563
  493MOL0     C67954  10.403   7.472   2.463  0.4711 -0.8117  0.9713
  493MOL0     O67955  10.283   7.487   2.535 -1.6706  0.3763 -0.6989
  493MOL0     C67956  10.224   7.372   2.592  0.5561 -0.0542 -0.3064
  493MOL0     C67957  10.093   7.412   2.665 -0.8118  0.5112 -0.3106
  493MOL0     C67958   9.999   7.496   2.586  0.0681 -0.2797  1.0135
  493MOL0     C67959   9.865   7.521   2.656  0.6710 -0.4901  0.1629
  493MOL0     C67960   9.880   7.622   2.766 -0.8045 -0.9274 -0.0624
  493MOL0     C67961   9.904   7.708   2.848 -0.8206 -0.7929  0.5888
  493MOL0     C67962  10.457   7.580   2.406 -0.1518 -0.3155  1.2012
  493MOL0     C67963  10.573   7.580   2.330 -0.4515 -0.3523  0.7357
  493MOL0     C67964  10.625   7.711   2.267 -0.6994 -0.1636 -0.3449
  493MOL0     H67965  10.857   7.535   2.503 -2.1430  0.7394 -1.3723
  493MOL0     H67966  11.011   7.677   2.638 -0.4004  1.9515 -0.1233
  493MOL0     H67967  11.357   7.826   2.483  1.9286 -2.1063  1.9026
  493MOL0     H67968  11.293   7.706   2.601 -3.4956  0.0466  1.2769
  493MOL0     H67969  11.348   7.996   2.671  0.2957 -0.0271 -1.1876
  493MOL0     H67970  11.313   7.874   2.792 -0.7214 -1.6047 -0.5058
  493MOL0     H67971  11.536   7.770   2.676 -2.3913 -0.7994  0.1488
  493MOL0     H67972  11.557   7.939   2.628 -0.7530 -0.7760 -1.4392
  493MOL0     H67973  11.530   8.014   2.862 -2.0370 -0.4904 -1.3952
  493MOL0     H67974  11.565   7.846   2.921 -2.7439 -1.8874 -2.0733
  493MOL0     H67975  11.767   7.982   2.904 -3.4357 -0.0620  2.1425
  493MOL0     H67976  11.741   8.004   2.732  2.9662  0.3379  1.3377
  493MOL0     H67977  11.805   7.764   2.689  0.5172 -2.0916 -0.4641
  493MOL0     H67978  11.917   7.843   2.798 -1.0912  0.5666  5.3469
  493MOL0     H67979  11.679   7.669   2.858 -0.6657  0.8579  0.7494
  493MOL0     H67980  11.770   7.743   2.989 -0.0655  0.2146  0.2106
  493MOL0     H67981  11.807   7.503   2.938 -0.5284  0.5998 -0.6025
  493MOL0     H67982  11.883   7.557   2.780  2.5948 -0.1204 -0.1171
  493MOL0     H67983  11.963   7.570   3.174 -0.8280  1.1082 -0.3559
  493MOL0     H67984  12.261   7.486   3.276 -2.4841  0.1950  1.1550
  493MOL0     H67985  12.205   7.648   3.299 -2.7020 -3.1555  0.5863
  493MOL0     H67986  12.442   7.620   3.311 -0.2741  0.4237 -0.0737
  493MOL0     H67987  12.458   7.560   3.148  1.3981 -1.2425  2.3991
  493MOL0     H67988  12.330   7.790   3.082 -1.1257  0.6649  1.0164
  493MOL0     H67989  12.334   7.836   3.243 -1.0535  2.1275 -1.4648
  493MOL0     H67990  12.600   7.825   3.229  2.4043  1.4045 -1.2192
  493MOL0     H67991  12.587   7.755   3.068 -0.0846  0.0735 -0.2009
  493MOL0     H67992  12.520   7.992   3.353  3.3044  2.4707 -0.0523
  493MOL0     H67993  12.426   8.244   3.553  1.1292 -1.1200  0.1103
  493MOL0     H67994  12.468   8.080   3.531  0.3476  0.8282  2.2340
  493MOL0     H67995  12.299   8.115   3.528 -0.3294 -0.6263 -0.1552
  493MOL0     H67996  12.079   8.614   3.065 -0.8496  0.0223  1.1251
  493MOL0     H67997  12.003   8.849   3.118  1.3543 -0.0764 -0.7225
  493MOL0     H67998  12.155   9.107   3.158 -0.9132  2.5422 -0.7451
  493MOL0     H67999  11.975   9.075   3.163 -0.9110  0.7029  1.1719
  493MOL0     H68000  12.035   9.316   3.190 -0.4903  2.2621  1.0993
  493MOL0     H68001  11.965   9.265   3.340  1.2403  4.3313  1.5221
  493MOL0     H68002  12.260   9.262   3.290  0.6579 -2.0536  2.0013
  493MOL0     H68003  12.169   9.234   3.443  0.0193  1.3516  0.8536
  493MOL0     H68004  12.103   9.459   3.460  0.3410 -1.6580  1.3094
  493MOL0     H68005  12.143   9.497   3.289 -1.3253 -0.4231 -0.3141
  493MOL0     H68006  12.355   9.432   3.498  3.9635 -1.4532 -2.4823
  493MOL0     H68007  12.384   9.478   3.335  1.6726  0.6283 -0.3669
  493MOL0     H68008  12.403   9.688   3.495  1.7705 -1.0997 -0.6274
  493MOL0     H68009  12.239   9.663   3.528 -0.9448  0.7234 -1.4499
  493MOL0     H68010  12.170   9.706   3.319  0.3682 -0.7264  0.0877
  493MOL0     H68011  12.330   9.703   3.241 -0.4744 -4.5577  1.2251
  493MOL0     H68012  12.239   9.893   3.460  1.5173 -1.5365  0.4902
  493MOL0     H68013  12.222   9.949   3.297  0.8086  2.0592  1.1555
  493MOL0     H68014  12.217   8.834   3.474 -1.7001 -0.6595  0.3904
  493MOL0     H68015  12.295   8.628   3.425 -0.1423 -0.3918  0.2230
  493MOL0     H68016  12.331   8.341   3.049 -2.2098  0.0163  1.9522
  493MOL0     H68017  12.464   8.153   2.960  0.5665  0.0883  0.4141
  493MOL0     H68018  11.146   7.877   2.303  0.3607  0.0220  1.9969
  493MOL0     H68019  11.008   7.717   2.148  2.0237 -2.7455 -1.0647
  493MOL0     H68020  10.625   7.251   2.373 -0.4063 -0.3006  2.5044
  493MOL0     H68021  10.437   7.257   2.483  0.4161 -0.6606 -0.0230
  493MOL0     H68022  10.192   7.320   2.501  1.0558 -0.1653 -0.4229
  493MOL0     H68023  10.292   7.308   2.649  0.4049  0.2112  0.1764
  493MOL0     H68024  10.115   7.462   2.760  0.9333  0.4767 -0.6553
  493MOL0     H68025  10.043   7.316   2.680  1.9340 -1.6271 -3.3134
  493MOL0     H68026  10.048   7.591   2.562  0.6727 -0.0212  3.1448
  493MOL0     H68027   9.967   7.444   2.495 -1.5604  1.0728  0.7533
  493MOL0     H68028   9.820   7.431   2.698  2.3129 -2.3533 -1.8678
  493MOL0     H68029   9.792   7.559   2.584  0.2209 -1.0846  0.2994
  493MOL0     H68030   9.919   7.783   2.923 -1.2554 -2.1996  2.1272
  493MOL0     H68031  10.416   7.677   2.430  2.8017  0.9994  1.3523
  493MOL0     H68032  10.699   7.752   2.337 -1.5558 -2.0319  1.7755
  493MOL0     H68033  10.677   7.697   2.172 -0.9878 -3.9258 -0.1147
  493MOL0     H68034  10.538   7.777   2.255  0.3107  1.6605  1.5878
  494MOL0     O68035   7.396   2.944   3.351  0.0037  0.6173 -0.5882
  494MOL0     C68036   7.372   2.886   3.246  0.5511  0.5420 -0.8754
  494MOL0     O68037   7.463   2.811   3.177  0.6465  0.1112 -0.2428
  494MOL0     C68038   7.589   2.773   3.219  0.3636  0.3910  0.0649
  494MOL0     C68039   7.676   2.751   3.117  0.1818  0.2484  0.3624
  494MOL0     C68040   7.811   2.733   3.143 -0.0667 -0.1689  0.4994
  494MOL0     C68041   7.860   2.716   3.269 -0.0396  0.6565 -1.0133
  494MOL0     O68042   7.992   2.680   3.269  0.1756 -0.3672  0.9961
  494MOL0     C68043   8.066   2.733   3.379 -0.3923 -0.9063 -0.6109
  494MOL0     C68044   8.222   2.749   3.366  0.3203  0.0518 -0.7060
  494MOL0     C68045   8.295   2.621   3.343 -0.2702 -0.2435  0.1797
  494MOL0     C68046   8.443   2.617   3.390  0.3394  0.7394 -0.1575
  494MOL0     C68047   8.507   2.485   3.356 -0.1196 -0.8687  0.2047
  494MOL0     C68048   8.655   2.502   3.406  0.5788 -0.2248 -0.1202
  494MOL0     C68049   8.734   2.363   3.386 -0.8412  0.0517  0.3454
  494MOL0     C68050   8.697   2.242   3.478 -0.0990 -0.3405  0.0754
  494MOL0     N68051   8.789   2.123   3.470  0.2145 -0.2250  0.6288
  494MOL0     C68052   8.786   2.024   3.369 -0.2707  0.5770  0.2449
  494MOL0     C68053   8.904   1.964   3.382 -0.1178  0.3771  0.3331
  494MOL0     C68054   8.954   1.861   3.286  0.5719 -0.4798  0.3077
  494MOL0     C68055   8.883   1.725   3.266 -0.0273 -0.5909 -0.4483
  494MOL0     C68056   8.879   1.643   3.393  0.0957 -0.0544 -0.2869
  494MOL0     C68057   9.006   1.616   3.477  0.1594 -0.7316 -1.3596
  494MOL0     O68058   9.114   1.593   3.378  0.3747 -0.4344  0.1226
  494MOL0     C68059   9.229   1.570   3.437  0.5330  0.3854  0.1852
  494MOL0     C68060   9.271   1.619   3.564  0.4413  0.4772 -0.2536
  494MOL0     C68061   9.404   1.587   3.608  0.7349  0.6095  0.0356
  494MOL0     C68062   9.450   1.653   3.731 -0.3965 -0.5197  0.6319
  494MOL0     C68063   9.498   1.504   3.526  0.5684 -0.0029 -0.5494
  494MOL0     C68064   9.635   1.478   3.561  0.3630  0.4377 -0.3577
  494MOL0     O68065   9.701   1.376   3.503  0.0704 -0.2046  0.2700
  494MOL0     C68066   9.833   1.379   3.496 -0.6569 -0.0416  0.3580
  494MOL0     C68067   9.906   1.278   3.561  0.4288  0.0881  0.9547
  494MOL0     C68068  10.043   1.265   3.538 -0.0635 -0.1149  0.1650
  494MOL0     C68069  10.112   1.354   3.463 -1.0147  0.4854 -0.0059
  494MOL0     O68070  10.248   1.326   3.441  0.3489 -0.4582 -0.2156
  494MOL0     C68071  10.331   1.438   3.408  0.3909 -0.6846 -0.0164
  494MOL0     C68072  10.463   1.378   3.373 -1.0071  0.7024 -0.3396
  494MOL0     C68073  10.539   1.290   3.474  0.1133 -0.9672  0.1107
  494MOL0     C68074  10.686   1.273   3.439  0.2889  0.0343  0.2990
  494MOL0     C68075  10.754   1.166   3.509  1.2093  0.3126 -0.0604
  494MOL0     C68076  10.902   1.154   3.468 -0.3705  0.3687 -0.0286
  494MOL0     C68077  10.984   1.268   3.524  0.9255  0.4559  1.1124
  494MOL0     C68078  11.137   1.258   3.518 -0.1420  0.3992  0.1348
  494MOL0    Cl68079  11.206   1.116   3.593  0.0938  0.3453 -0.4479
  494MOL0     C68080  10.047   1.467   3.413  0.6189 -0.3136 -0.2656
  494MOL0     C68081   9.905   1.478   3.429 -0.1894 -0.7393 -1.1022
  494MOL0     O68082   9.693   1.557   3.633  0.2084  0.2215 -0.3702
  494MOL0     C68083   9.447   1.448   3.406 -0.3646  0.1042  0.3304
  494MOL0     C68084   9.319   1.488   3.367 -0.0831 -0.1615 -0.5211
  494MOL0     N68085   8.974   2.013   3.483 -0.3319 -0.5319  0.4270
  494MOL0     N68086   8.909   2.110   3.533  0.8920 -0.3571 -0.0943
  494MOL0     C68087   7.772   2.722   3.380  0.2251  0.1143 -0.0516
  494MOL0     C68088   7.640   2.760   3.351 -0.1198 -0.1066 -0.2715
  494MOL0     C68089   7.235   2.899   3.196 -0.0678 -0.0374  0.9603
  494MOL0     C68090   7.137   2.922   3.283  0.2676 -0.0683  0.0466
  494MOL0     C68091   7.008   2.936   3.246  0.2323  0.2512 -0.8144
  494MOL0     C68092   6.963   2.946   3.113 -0.4833  0.7084 -0.3856
  494MOL0     O68093   6.841   2.976   3.069  0.2021 -0.1174 -0.1507
  494MOL0     C68094   6.732   2.998   3.170  0.4009  0.3827  0.4739
  494MOL0     C68095   6.656   2.878   3.225  0.2850 -0.5341  0.4295
  494MOL0     C68096   6.628   2.787   3.109  0.3749  0.2926 -0.1255
  494MOL0     C68097   6.506   2.700   3.153 -0.4249  0.7408  0.1689
  494MOL0     C68098   6.491   2.667   3.297 -0.2850 -1.2032 -0.5482
  494MOL0     C68099   6.484   2.636   3.416  0.6384  0.2700  0.6626
  494MOL0     C68100   7.061   2.916   3.018 -0.4830 -0.3083 -0.2879
  494MOL0     C68101   7.193   2.888   3.060 -0.5809 -0.5104  0.4367
  494MOL0     C68102   7.297   2.875   2.951  0.0939  0.8198 -0.3480
  494MOL0     H68103   7.637   2.757   3.016 -0.4478  2.8539  0.6679
  494MOL0     H68104   7.874   2.709   3.059 -2.7949 -0.9367 -1.4822
  494MOL0     H68105   8.042   2.690   3.477 -2.4434  0.7550 -0.3143
  494MOL0     H68106   8.039   2.839   3.392  2.2119 -0.2796  0.4779
  494MOL0     H68107   8.241   2.823   3.287 -2.9297  3.1421  1.0996
  494MOL0     H68108   8.263   2.801   3.453  1.3901 -0.5470 -0.8333
  494MOL0     H68109   8.233   2.554   3.403 -0.1730 -0.2674  0.2543
  494MOL0     H68110   8.278   2.599   3.237 -1.7460 -0.3030  0.4119
  494MOL0     H68111   8.493   2.700   3.341  2.5476 -1.6573 -2.3109
  494MOL0     H68112   8.449   2.639   3.497  1.9132  3.9790 -0.8078
  494MOL0     H68113   8.499   2.470   3.248 -2.0690 -0.3233  0.2337
  494MOL0     H68114   8.465   2.399   3.409  0.4754 -2.3049 -1.5329
  494MOL0     H68115   8.696   2.585   3.346 -1.1532 -0.8656 -2.3402
  494MOL0     H68116   8.655   2.533   3.511 -3.5028 -1.4347  0.3937
  494MOL0     H68117   8.840   2.387   3.400 -0.8896  0.2476  0.3867
  494MOL0     H68118   8.721   2.337   3.281  0.6186 -1.1512  0.4284
  494MOL0     H68119   8.691   2.272   3.583 -1.9672 -2.5236  0.6482
  494MOL0     H68120   8.602   2.204   3.442  1.0723 -1.3485 -2.1452
  494MOL0     H68121   8.714   2.010   3.289  0.0035  2.2190 -0.3201
  494MOL0     H68122   9.057   1.835   3.314  0.0727 -2.6726  0.3077
  494MOL0     H68123   8.954   1.906   3.186 -3.1995 -1.9910 -0.5114
  494MOL0     H68124   8.782   1.746   3.230  0.4073  0.1531 -1.2817
  494MOL0     H68125   8.938   1.670   3.190  1.0422 -0.3462  0.1244
  494MOL0     H68126   8.805   1.700   3.449 -0.0276 -0.2046 -0.2952
  494MOL0     H68127   8.825   1.557   3.351 -0.8822  1.7892 -3.1542
  494MOL0     H68128   9.012   1.697   3.550  1.0644  0.0382 -2.2531
  494MOL0     H68129   8.994   1.530   3.543  0.2291  1.4871  1.7385
  494MOL0     H68130   9.202   1.678   3.624 -2.4111 -0.4685 -2.4009
  494MOL0     H68131   9.487   1.576   3.800  2.9262  0.1079 -0.2536
  494MOL0     H68132   9.367   1.702   3.782  0.8741 -0.4226  2.7508
  494MOL0     H68133   9.531   1.726   3.722  0.4900 -1.4995  0.3182
  494MOL0     H68134   9.849   1.215   3.629 -1.6608 -0.4485 -1.1498
  494MOL0     H68135  10.096   1.175   3.567 -0.1352  0.0607  0.8467
  494MOL0     H68136  10.301   1.502   3.325  1.1854  2.5715  2.0436
  494MOL0     H68137  10.333   1.491   3.504 -1.2736 -1.8450  0.7132
  494MOL0     H68138  10.444   1.320   3.282  2.1381  1.8819 -1.8863
  494MOL0     H68139  10.536   1.454   3.345  1.2078 -0.2498  2.4323
  494MOL0     H68140  10.496   1.189   3.472 -1.8110 -0.2400  1.5724
  494MOL0     H68141  10.532   1.330   3.576 -1.4825  0.9325 -0.6834
  494MOL0     H68142  10.734   1.367   3.467 -0.4211  0.7516 -0.7997
  494MOL0     H68143  10.681   1.270   3.329 -0.9367  4.8430 -0.0263
  494MOL0     H68144  10.735   1.164   3.617  2.7605 -0.2540  0.2263
  494MOL0     H68145  10.710   1.076   3.465 -3.4914  3.4518 -2.5663
  494MOL0     H68146  10.907   1.161   3.359  2.6789 -3.8309 -0.4135
  494MOL0     H68147  10.953   1.064   3.503  0.3304  1.5387  2.1033
  494MOL0     H68148  10.962   1.283   3.630  0.0167  2.3468  0.6927
  494MOL0     H68149  10.954   1.363   3.480 -2.0921 -0.7656  0.2719
  494MOL0     H68150  11.172   1.345   3.575 -0.1540  1.3686 -1.3133
  494MOL0     H68151  11.176   1.250   3.416 -0.0881 -2.2067  0.2816
  494MOL0     H68152  10.096   1.537   3.345 -0.3241  0.8951  0.2514
  494MOL0     H68153   9.847   1.560   3.387  2.0506  0.3306 -2.2956
  494MOL0     H68154   9.509   1.382   3.346  0.5139 -0.5417  1.8776
  494MOL0     H68155   9.275   1.425   3.290 -0.0001 -1.4116  0.4193
  494MOL0     H68156   7.806   2.697   3.479  2.1168  2.0141 -0.1482
  494MOL0     H68157   7.571   2.768   3.435  2.0053  1.2694  1.4640
  494MOL0     H68158   7.154   2.929   3.390  3.1092  0.6547 -0.3600
  494MOL0     H68159   6.942   2.945   3.331  0.3265 -3.4933 -0.1771
  494MOL0     H68160   6.766   3.064   3.251  2.6667  2.7464 -2.1634
  494MOL0     H68161   6.662   3.061   3.114 -1.0838 -0.2756  1.5521
  494MOL0     H68162   6.562   2.924   3.256  1.1561  2.8132 -1.3895
  494MOL0     H68163   6.723   2.835   3.300  1.3926  0.4555  0.0393
  494MOL0     H68164   6.609   2.849   3.021  1.6539  0.1673 -0.5111
  494MOL0     H68165   6.716   2.727   3.085 -0.4551 -1.0885  0.1977
  494MOL0     H68166   6.500   2.606   3.098 -2.7286 -0.1404  1.7648
  494MOL0     H68167   6.420   2.761   3.125  0.7091  2.3739  0.0921
  494MOL0     H68168   6.473   2.625   3.522 -1.7828  1.3415  0.6021
  494MOL0     H68169   7.036   2.917   2.913 -1.8822 -1.3846  0.0185
  494MOL0     H68170   7.248   2.898   2.856 -1.7045  1.7650  0.7587
  494MOL0     H68171   7.391   2.929   2.967  1.1571 -1.0943  0.1191
  494MOL0     H68172   7.323   2.769   2.953  2.9935  1.4388  0.0382
  495MOL0     O68173   3.440   0.884   5.536  0.5817 -0.3230 -0.4566
  495MOL0     C68174   3.360   0.965   5.497 -0.0447  0.3905  0.3163
  495MOL0     O68175   3.400   1.084   5.444  0.2555  0.0047  0.1708
  495MOL0     C68176   3.536   1.108   5.432  1.5244 -0.1981  0.4912
  495MOL0     C68177   3.611   1.021   5.365 -0.4468  0.5031  0.5020
  495MOL0     C68178   3.748   1.023   5.373  0.7570  0.3485 -0.3411
  495MOL0     C68179   3.817   1.119   5.445  0.3548  0.5375  0.0769
  495MOL0     O68180   3.958   1.109   5.455 -0.6307 -0.7758  0.1258
  495MOL0     C68181   4.033   1.001   5.401  0.4729  0.1841  0.5678
  495MOL0     C68182   4.182   1.019   5.444 -0.2448 -0.2102 -0.3344
  495MOL0     C68183   4.245   0.886   5.495 -0.3556 -0.1002  0.2075
  495MOL0     C68184   4.393   0.920   5.534  0.3896  0.5382  0.7724
  495MOL0     C68185   4.479   0.789   5.538 -0.6163 -0.2470  0.0316
  495MOL0     C68186   4.617   0.839   5.575 -0.1492  0.6849 -0.0837
  495MOL0     C68187   4.717   0.727   5.600 -0.6634 -0.5680 -0.1115
  495MOL0     C68188   4.847   0.778   5.668  0.9213 -0.2294  0.3206
  495MOL0     N68189   4.945   0.675   5.676 -0.6294  0.1866 -0.2223
  495MOL0     C68190   4.969   0.586   5.780  0.1593 -0.4282 -0.1187
  495MOL0     C68191   5.081   0.511   5.755  0.9241 -1.1537  0.2746
  495MOL0     C68192   5.155   0.419   5.856 -0.3097  0.0603 -0.0657
  495MOL0     C68193   5.269   0.336   5.794  0.1125 -0.8305  0.2413
  495MOL0     C68194   5.361   0.268   5.900  0.9249  0.6739  0.0039
  495MOL0     C68195   5.435   0.363   6.000  0.0913 -0.1749  0.0234
  495MOL0     O68196   5.516   0.466   5.943 -0.1172  0.3987  0.8207
  495MOL0     C68197   5.619   0.416   5.872  0.3809  0.0522  0.9703
  495MOL0     C68198   5.640   0.496   5.757  0.2080  0.2725 -0.6351
  495MOL0     C68199   5.746   0.494   5.666 -0.2425 -0.1643 -0.4759
  495MOL0     C68200   5.725   0.576   5.544 -1.1095 -0.4308  0.5503
  495MOL0     C68201   5.850   0.415   5.707 -0.7020 -0.4675 -0.0409
  495MOL0     C68202   5.981   0.397   5.629  0.4335  0.6384  1.1504
  495MOL0     O68203   6.039   0.269   5.640  0.7371 -0.8201 -0.0598
  495MOL0     C68204   6.158   0.231   5.585 -0.3326  0.1185 -0.2970
  495MOL0     C68205   6.262   0.182   5.667  0.3221  0.2156 -0.1016
  495MOL0     C68206   6.389   0.148   5.616 -0.6431 -0.1661  0.1029
  495MOL0     C68207   6.408   0.159   5.469  0.1114 -0.6830 -0.3617
  495MOL0     O68208   6.527   0.130   5.413 -1.0117  0.7793 -0.4327
  495MOL0     C68209   6.648   0.135   5.494 -0.9966  0.0797  0.7985
  495MOL0     C68210   6.767   0.138   5.395 -0.1999 -0.4709 -0.9242
  495MOL0     C68211   6.778   0.017   5.311 -0.1866  1.6427 -0.2616
  495MOL0     C68212   6.878   0.041   5.199  0.2501  0.8525  0.2560
  495MOL0     C68213   6.876  -0.064   5.083 -0.0522  0.0167  0.3703
  495MOL0     C68214   7.014  -0.062   5.007  1.2774  1.4477  0.1694
  495MOL0     C68215   7.053   0.072   4.933 -0.4879 -0.2953 -0.7469
  495MOL0     C68216   7.023   0.075   4.787  0.2628  1.0107 -0.2496
  495MOL0    Cl68217   7.040   0.248   4.733  1.1148 -0.1338  0.3736
  495MOL0     C68218   6.302   0.200   5.394  0.9236 -0.8950  0.7734
  495MOL0     C68219   6.169   0.230   5.445 -0.3888  1.1080  0.2620
  495MOL0     O68220   6.031   0.495   5.576 -0.1090 -0.2594 -0.3614
  495MOL0     C68221   5.837   0.329   5.819 -0.0286 -0.4684  0.3569
  495MOL0     C68222   5.724   0.322   5.898  0.0617 -0.0144  0.3276
  495MOL0     N68223   5.120   0.559   5.624 -0.4123 -0.4423  0.3549
  495MOL0     N68224   5.031   0.640   5.573  0.1255  0.5456 -0.3731
  495MOL0     C68225   3.740   1.210   5.517 -0.5272 -0.3916  0.3189
  495MOL0     C68226   3.600   1.207   5.511  0.8300  0.5269 -0.4509
  495MOL0     C68227   3.217   0.939   5.547  0.5297  0.8988  0.0669
  495MOL0     C68228   3.128   1.045   5.570  0.0816  0.4267 -0.2219
  495MOL0     C68229   2.991   1.028   5.590  0.2108  0.1616 -0.2292
  495MOL0     C68230   2.935   0.899   5.594  0.4874  0.7359 -0.4085
  495MOL0     O68231   2.796   0.881   5.586 -0.0851 -0.2218 -0.1785
  495MOL0     C68232   2.724   0.929   5.699 -0.0047 -0.2844 -0.2528
  495MOL0     C68233   2.610   0.830   5.728 -0.2536  0.2083  0.4633
  495MOL0     C68234   2.666   0.709   5.806 -0.6018 -0.4193 -0.4215
  495MOL0     C68235   2.560   0.611   5.859 -0.0081 -0.1097 -0.8909
  495MOL0     C68236   2.513   0.641   5.996  0.9551 -0.4309  0.3068
  495MOL0     C68237   2.472   0.668   6.109 -0.0327  0.1873 -0.1193
  495MOL0     C68238   3.014   0.788   5.576 -0.0820 -0.5709  0.0668
  495MOL0     C68239   3.157   0.806   5.555 -0.3070  0.6053  0.0151
  495MOL0     C68240   3.233   0.683   5.532  0.1626 -1.3041  0.1597
  495MOL0     H68241   3.571   0.945   5.299  1.3256 -0.5180  0.5408
  495MOL0     H68242   3.802   0.952   5.312 -0.0295 -0.0877 -0.5487
  495MOL0     H68243   4.023   0.994   5.293  1.7264 -0.8819  0.4816
  495MOL0     H68244   4.003   0.908   5.450  1.6394 -0.4425  0.1485
  495MOL0     H68245   4.234   1.068   5.361 -2.1964  0.1896 -1.3689
  495MOL0     H68246   4.183   1.089   5.528 -0.0991  0.2695 -0.7310
  495MOL0     H68247   4.183   0.844   5.575 -0.0964 -0.0090  0.4550
  495MOL0     H68248   4.262   0.811   5.417  4.7227  0.3248  0.5854
  495MOL0     H68249   4.438   0.985   5.459  1.6841  2.6515  3.2152
  495MOL0     H68250   4.396   0.982   5.625  0.8302  1.2351  0.2889
  495MOL0     H68251   4.485   0.733   5.445 -1.5677 -2.3373  1.1763
  495MOL0     H68252   4.434   0.728   5.617  1.6302 -0.5682  1.1498
  495MOL0     H68253   4.656   0.903   5.495  0.1901  1.5873  0.7866
  495MOL0     H68254   4.617   0.897   5.667  2.2865  0.9079 -0.1579
  495MOL0     H68255   4.739   0.683   5.502 -1.8045  3.4530 -2.3491
  495MOL0     H68256   4.668   0.648   5.657  3.4725 -2.3869  1.3844
  495MOL0     H68257   4.885   0.863   5.610 -1.6795  0.2344 -0.8635
  495MOL0     H68258   4.829   0.825   5.765 -2.7164  0.6954 -0.6282
  495MOL0     H68259   4.919   0.569   5.875 -0.5930 -2.4480 -0.8200
  495MOL0     H68260   5.078   0.349   5.891 -0.4767 -0.6611 -1.7618
  495MOL0     H68261   5.201   0.478   5.935  3.1953  1.8302 -3.1217
  495MOL0     H68262   5.229   0.263   5.723  1.3773  0.3524 -1.7710
  495MOL0     H68263   5.333   0.410   5.745  0.5700 -1.0123  0.5576
  495MOL0     H68264   5.302   0.202   5.965  1.7779  1.9974  2.2338
  495MOL0     H68265   5.422   0.205   5.834 -2.6640  0.6438 -3.6203
  495MOL0     H68266   5.364   0.410   6.069  0.0807  0.5725 -0.4758
  495MOL0     H68267   5.488   0.296   6.067 -1.3275 -1.4974 -0.1259
  495MOL0     H68268   5.549   0.548   5.728 -2.1354 -1.7216  2.4576
  495MOL0     H68269   5.645   0.540   5.479 -0.1853 -2.6099  0.5152
  495MOL0     H68270   5.813   0.582   5.479 -1.3629  0.5819  0.2932
  495MOL0     H68271   5.703   0.678   5.575  0.0016  0.2849 -0.9205
  495MOL0     H68272   6.252   0.182   5.775  0.9559 -1.3217 -0.0100
  495MOL0     H68273   6.472   0.132   5.685  0.2256  2.3881 -0.2374
  495MOL0     H68274   6.657   0.228   5.551 -0.0558  0.5342 -0.0674
  495MOL0     H68275   6.653   0.049   5.562  1.6008 -1.6645 -1.3877
  495MOL0     H68276   6.748   0.231   5.340  0.4642  1.8751  2.4723
  495MOL0     H68277   6.861   0.152   5.449  0.9872 -2.6044 -2.2916
  495MOL0     H68278   6.681  -0.012   5.271 -0.4438 -1.4866  2.1794
  495MOL0     H68279   6.818  -0.069   5.366 -2.5970 -0.0202 -0.9688
  495MOL0     H68280   6.975   0.050   5.249  0.9387 -1.1713 -0.6315
  495MOL0     H68281   6.863   0.141   5.155 -1.6885  1.3622  1.9518
  495MOL0     H68282   6.869  -0.162   5.132  1.6168 -0.6035 -0.5511
  495MOL0     H68283   6.785  -0.047   5.024  1.5034  0.1841 -2.0912
  495MOL0     H68284   7.016  -0.147   4.938  3.9597  1.5582  0.0166
  495MOL0     H68285   7.088  -0.085   5.084  0.7232 -4.2971 -0.5733
  495MOL0     H68286   7.162   0.073   4.950 -0.5954  1.1172  0.0427
  495MOL0     H68287   6.998   0.157   4.974  0.4541  1.7596 -3.4700
  495MOL0     H68288   6.921   0.037   4.777  0.4423 -0.6667  2.8912
  495MOL0     H68289   7.083   0.013   4.720 -1.1214  0.8387 -1.3758
  495MOL0     H68290   6.313   0.221   5.288 -0.8560 -1.9984  0.3179
  495MOL0     H68291   6.077   0.251   5.392 -0.7673 -0.1444  0.4037
  495MOL0     H68292   5.921   0.265   5.840  1.5791  0.8433 -1.6690
  495MOL0     H68293   5.726   0.255   5.984  1.4320  0.7060  0.8857
  495MOL0     H68294   3.785   1.291   5.574 -0.8919 -0.1341  0.2469
  495MOL0     H68295   3.543   1.279   5.568 -0.3866 -0.8034  0.0621
  495MOL0     H68296   3.179   1.141   5.568 -0.0826  0.5052 -1.4246
  495MOL0     H68297   2.917   1.107   5.595  0.5996  1.0544 -4.6204
  495MOL0     H68298   2.781   0.945   5.791 -3.6348 -2.8281  2.7573
  495MOL0     H68299   2.674   1.025   5.679 -1.8394 -1.1998 -0.2644
  495MOL0     H68300   2.557   0.793   5.640  1.1143  0.7899 -0.6380
  495MOL0     H68301   2.539   0.881   5.794 -1.2710  1.5352 -1.5159
  495MOL0     H68302   2.752   0.665   5.754 -0.0658  0.7783 -0.5717
  495MOL0     H68303   2.711   0.750   5.897  0.2821 -1.0798 -0.5454
  495MOL0     H68304   2.616   0.517   5.861 -1.4320 -0.9819 -0.8812
  495MOL0     H68305   2.482   0.606   5.782 -1.0578  0.6705  0.0871
  495MOL0     H68306   2.439   0.668   6.211 -1.1378  1.8706 -0.4343
  495MOL0     H68307   2.964   0.692   5.573 -0.5167 -0.3416 -0.0170
  495MOL0     H68308   3.171   0.593   5.527 -1.7436 -0.0080 -0.5549
  495MOL0     H68309   3.272   0.697   5.430 -4.4557 -1.0475 -1.8005
  495MOL0     H68310   3.309   0.662   5.608 -1.0626 -0.3702  1.6841
  496MOL0     O68311   2.249   1.094   5.245  0.5369 -0.9484  0.1117
  496MOL0     C68312   2.193   1.088   5.359  0.0660 -0.0546 -0.0804
  496MOL0     O68313   2.250   1.110   5.481 -0.5623  0.6259 -0.6925
  496MOL0     C68314   2.385   1.134   5.470 -0.0503  0.0938  0.3033
  496MOL0     C68315   2.475   1.031   5.431 -0.0974 -0.0433 -0.8252
  496MOL0     C68316   2.609   1.069   5.405  0.3601  0.5013  0.1633
  496MOL0     C68317   2.648   1.202   5.422  0.0559 -0.7886 -0.2898
  496MOL0     O68318   2.776   1.237   5.392 -0.0899 -0.0076 -0.0516
  496MOL0     C68319   2.837   1.341   5.470 -1.3494  0.0285 -0.9405
  496MOL0     C68320   2.956   1.388   5.394 -0.4761  0.2502  0.1991
  496MOL0     C68321   3.062   1.460   5.479 -0.7435 -0.4622  0.2214
  496MOL0     C68322   3.183   1.512   5.395 -0.4180 -0.3266  0.5775
  496MOL0     C68323   3.280   1.595   5.480 -0.4659  0.6282 -0.0979
  496MOL0     C68324   3.405   1.623   5.388  0.1067  0.6680  0.1888
  496MOL0     C68325   3.492   1.725   5.450  0.4576 -0.1778 -0.0551
  496MOL0     C68326   3.560   1.681   5.580 -0.5374 -0.4352 -0.0151
  496MOL0     N68327   3.649   1.790   5.626 -0.7081  0.4188 -0.0086
  496MOL0     C68328   3.767   1.821   5.557 -0.9409  0.2206  0.2465
  496MOL0     C68329   3.824   1.923   5.624 -0.2971 -0.4848 -0.8404
  496MOL0     C68330   3.933   2.016   5.592 -0.3635 -0.7592  0.4194
  496MOL0     C68331   3.872   2.120   5.502 -0.2720 -0.5127 -0.4155
  496MOL0     C68332   3.965   2.245   5.468 -0.0439 -0.1549 -0.3751
  496MOL0     C68333   4.098   2.206   5.412  0.8520 -0.1285  0.1121
  496MOL0     O68334   4.071   2.134   5.290 -0.1841  0.3951  0.2523
  496MOL0     C68335   4.184   2.064   5.245 -0.4639 -0.2549  0.0996
  496MOL0     C68336   4.282   2.135   5.180  0.9630 -0.9682  0.1778
  496MOL0     C68337   4.406   2.080   5.150  0.7970  0.1441 -0.1014
  496MOL0     C68338   4.510   2.180   5.087  0.3942  0.8702  0.1639
  496MOL0     C68339   4.428   1.944   5.176 -0.4554 -0.7560 -1.3102
  496MOL0     C68340   4.555   1.876   5.133  0.7513 -0.5718  0.0873
  496MOL0     O68341   4.625   1.825   5.231 -0.3342  0.2980  0.1567
  496MOL0     C68342   4.715   1.722   5.215  0.2558 -0.6133  0.3282
  496MOL0     C68343   4.813   1.726   5.309 -1.0712  0.5759 -0.6106
  496MOL0     C68344   4.920   1.624   5.293  0.6757  0.1207 -1.3036
  496MOL0     C68345   4.907   1.521   5.199 -0.0957  0.5102 -0.3155
  496MOL0     O68346   5.004   1.421   5.207 -0.0258 -1.2844  0.0910
  496MOL0     C68347   5.041   1.352   5.084 -0.2636 -0.5934  0.0497
  496MOL0     C68348   5.158   1.270   5.123  0.1586 -0.5184 -0.0841
  496MOL0     C68349   5.203   1.188   5.002  0.4949  0.2541  0.3528
  496MOL0     C68350   5.327   1.103   5.022 -0.1212 -0.2020 -0.0216
  496MOL0     C68351   5.461   1.181   5.011  0.7091 -0.6818  0.5713
  496MOL0     C68352   5.478   1.259   4.880 -0.4321  1.4940  0.1167
  496MOL0     C68353   5.610   1.343   4.876 -0.1527 -0.9684  0.5371
  496MOL0     C68354   5.669   1.340   4.734  0.0009  1.0957  0.1505
  496MOL0    Cl68355   5.834   1.410   4.747 -0.2485 -0.0035 -0.0305
  496MOL0     C68356   4.800   1.519   5.110 -0.0156  0.5537  0.9651
  496MOL0     C68357   4.710   1.622   5.111  0.2947 -0.0263  0.2315
  496MOL0     O68358   4.586   1.876   5.016  0.9741  0.3669  0.7003
  496MOL0     C68359   4.327   1.869   5.236  0.0457  0.6495 -0.0431
  496MOL0     C68360   4.207   1.932   5.274 -0.5540  0.4877  0.3847
  496MOL0     N68361   3.745   1.950   5.735  0.0621 -0.2694  0.7288
  496MOL0     N68362   3.654   1.862   5.745  0.3584 -0.1035 -0.0698
  496MOL0     C68363   2.549   1.300   5.461 -0.3880 -0.9219 -0.3492
  496MOL0     C68364   2.420   1.266   5.485 -0.3125 -0.1069 -0.3445
  496MOL0     C68365   2.053   1.059   5.372  0.4840 -0.3574 -0.5257
  496MOL0     C68366   1.992   1.056   5.503 -0.2258 -0.1549 -0.7407
  496MOL0     C68367   1.848   1.054   5.518 -0.7489 -0.1305  0.1779
  496MOL0     C68368   1.764   1.054   5.410  0.0458 -0.4521  0.8974
  496MOL0     O68369   1.635   1.087   5.426  0.8334 -0.1967 -0.0761
  496MOL0     C68370   1.613   1.226   5.404 -0.8737 -0.2813  0.2645
  496MOL0     C68371   1.506   1.276   5.501 -0.7526 -0.0994 -0.5471
  496MOL0     C68372   1.535   1.249   5.648  0.5197  0.2210 -0.0448
  496MOL0     C68373   1.493   1.114   5.703 -0.0359  0.2424 -0.1320
  496MOL0     C68374   1.342   1.114   5.698 -0.6885  0.6209  0.8831
  496MOL0     C68375   1.227   1.096   5.688  0.6521 -0.5297  0.6853
  496MOL0     C68376   1.830   1.058   5.291  0.9350  0.2492  0.0926
  496MOL0     C68377   1.969   1.045   5.267  0.0267  0.4268  0.0580
  496MOL0     C68378   2.004   1.044   5.120 -0.4908  0.3215 -0.0078
  496MOL0     H68379   2.443   0.928   5.426 -2.7449  0.2176  4.2896
  496MOL0     H68380   2.678   0.989   5.381 -2.0609 -2.9427  3.4944
  496MOL0     H68381   2.878   1.305   5.565  0.5821  2.1916 -0.8857
  496MOL0     H68382   2.783   1.432   5.497  0.5513  0.2636  2.6720
  496MOL0     H68383   3.008   1.306   5.343 -1.2716  2.4404 -4.6990
  496MOL0     H68384   2.924   1.446   5.307 -1.4282 -2.3927 -1.3478
  496MOL0     H68385   3.017   1.541   5.536  1.0070 -1.3417  3.0883
  496MOL0     H68386   3.097   1.397   5.561  1.1651  0.4946  0.1910
  496MOL0     H68387   3.229   1.431   5.339 -0.5712  0.2389 -0.3848
  496MOL0     H68388   3.142   1.578   5.318  0.4838 -2.1643 -1.5572
  496MOL0     H68389   3.327   1.527   5.553 -0.5655 -0.7615 -1.2769
  496MOL0     H68390   3.242   1.686   5.527 -0.5663  0.7934 -0.4950
  496MOL0     H68391   3.459   1.529   5.374 -2.2984 -0.7879 -0.0089
  496MOL0     H68392   3.367   1.650   5.289 -0.8531 -1.1582  0.0162
  496MOL0     H68393   3.425   1.810   5.470 -1.5704 -1.8060  0.4319
  496MOL0     H68394   3.551   1.765   5.367 -1.0157  0.6261 -0.7636
  496MOL0     H68395   3.485   1.639   5.649 -0.1697 -5.4509 -2.2601
  496MOL0     H68396   3.618   1.592   5.559 -0.9795 -1.1944  1.7517
  496MOL0     H68397   3.803   1.766   5.472  0.0411 -2.9401  2.5290
  496MOL0     H68398   4.014   1.970   5.535  1.6649  3.6186 -0.6349
  496MOL0     H68399   3.962   2.077   5.678  0.7473 -1.3234  0.4541
  496MOL0     H68400   3.831   2.076   5.410  1.5383  0.9552 -2.0355
  496MOL0     H68401   3.783   2.161   5.549 -0.4052  1.3738 -2.1749
  496MOL0     H68402   3.909   2.301   5.392 -2.6764 -0.5019  1.1819
  496MOL0     H68403   3.982   2.296   5.564  0.6739 -0.0349 -0.5622
  496MOL0     H68404   4.173   2.285   5.403  1.5792 -0.9160 -1.0938
  496MOL0     H68405   4.148   2.133   5.476  0.0554  0.0717  0.9747
  496MOL0     H68406   4.259   2.238   5.155 -1.9948 -0.8654  2.7034
  496MOL0     H68407   4.485   2.284   5.107  1.8501  1.8921 -2.7578
  496MOL0     H68408   4.524   2.168   4.979  1.0972  0.3278  0.3011
  496MOL0     H68409   4.606   2.166   5.139  0.2047  1.7073  0.7590
  496MOL0     H68410   4.809   1.799   5.389 -2.0496 -1.6212  1.5006
  496MOL0     H68411   4.995   1.622   5.372 -2.5241 -1.8567  1.9942
  496MOL0     H68412   4.960   1.289   5.048  1.7607 -1.2565 -3.8923
  496MOL0     H68413   5.063   1.420   5.001 -0.5024  0.0381  0.4951
  496MOL0     H68414   5.232   1.339   5.164 -1.9638  1.4983  0.5405
  496MOL0     H68415   5.113   1.205   5.199 -0.0887  1.7777  1.8407
  496MOL0     H68416   5.208   1.255   4.915 -2.3118  1.0597  0.7093
  496MOL0     H68417   5.118   1.123   4.982  0.4976  0.5772 -0.8012
  496MOL0     H68418   5.335   1.016   4.956  1.6848 -1.0745  1.2297
  496MOL0     H68419   5.319   1.061   5.123 -3.9132 -3.4820 -1.4118
  496MOL0     H68420   5.464   1.268   5.077  0.9652  0.9758 -1.5127
  496MOL0     H68421   5.550   1.120   5.024  1.4049  0.3393  0.6823
  496MOL0     H68422   5.398   1.328   4.851 -0.5602  0.7879 -1.2616
  496MOL0     H68423   5.480   1.183   4.802  0.3787  0.2036  1.3439
  496MOL0     H68424   5.685   1.306   4.946  0.0539 -2.5324 -0.4768
  496MOL0     H68425   5.582   1.446   4.900 -1.2711 -0.5095 -2.3365
  496MOL0     H68426   5.602   1.395   4.667 -1.4007  2.3493  2.4425
  496MOL0     H68427   5.663   1.235   4.706 -2.0351  0.9227  1.0607
  496MOL0     H68428   4.793   1.438   5.039  0.4342  0.0998  1.4341
  496MOL0     H68429   4.617   1.614   5.056  0.6438  1.9193 -0.7312
  496MOL0     H68430   4.348   1.766   5.261 -2.3511 -0.8899 -3.6645
  496MOL0     H68431   4.141   1.870   5.334 -1.9686 -2.2877 -3.5966
  496MOL0     H68432   2.568   1.406   5.472 -2.2243 -0.6546  0.5204
  496MOL0     H68433   2.335   1.327   5.516 -0.5464  0.0350 -1.2373
  496MOL0     H68434   2.041   1.059   5.599 -1.4046 -0.7183 -0.0957
  496MOL0     H68435   1.811   1.056   5.621 -0.8031 -4.2144  0.3903
  496MOL0     H68436   1.708   1.276   5.424 -0.4581 -1.1745  0.6142
  496MOL0     H68437   1.578   1.243   5.302 -1.2342  1.6744  0.6689
  496MOL0     H68438   1.408   1.235   5.473 -0.5308 -1.5638  0.7130
  496MOL0     H68439   1.499   1.385   5.492  0.8264  0.1451  0.7937
  496MOL0     H68440   1.643   1.259   5.666  0.3176  0.6534  1.0619
  496MOL0     H68441   1.480   1.321   5.709 -0.5827 -0.5945 -0.0489
  496MOL0     H68442   1.524   1.095   5.806 -0.1212 -0.9834 -0.3184
  496MOL0     H68443   1.529   1.032   5.640 -1.3867 -1.2777  0.9739
  496MOL0     H68444   1.120   1.082   5.686  0.6496 -0.7066  1.8166
  496MOL0     H68445   1.768   1.063   5.201  0.4474  0.4913  0.4400
  496MOL0     H68446   2.078   0.963   5.117 -3.4245 -2.5309 -0.2079
  496MOL0     H68447   1.925   1.009   5.053  0.2129 -2.5605  0.5307
  496MOL0     H68448   2.049   1.141   5.095  0.6571  0.2261  1.5288
  497MOL0     O68449   3.998  11.087   7.619 -0.9317 -0.1599 -0.4735
  497MOL0     C68450   3.948  11.103   7.728 -0.3036 -0.0829  0.0525
  497MOL0     O68451   4.010  11.077   7.843 -0.4288 -0.6237 -0.4555
  497MOL0     C68452   4.146  11.068   7.847 -0.2404  0.7924 -0.0849
  497MOL0     C68453   4.211  11.155   7.937  0.6281  0.1492  0.1433
  497MOL0     C68454   4.347  11.145   7.951  0.7830 -0.8968  0.4701
  497MOL0     C68455   4.428  11.052   7.881  0.9089  0.7254 -0.4078
  497MOL0     O68456   4.561  11.047   7.913 -0.2186  0.0481  0.3388
  497MOL0     C68457   4.643  10.976   7.830  0.6817  0.4811 -1.0714
  497MOL0     C68458   4.777  11.045   7.826  0.4677 -0.0876  0.4444
  497MOL0     C68459   4.874  10.921   7.790 -1.2504 -0.4238 -0.4929
  497MOL0     C68460   5.026  10.959   7.803  0.3326 -0.0099 -0.3926
  497MOL0     C68461   5.117  10.844   7.763  1.0606 -0.8861  0.4115
  497MOL0     C68462   5.253  10.898   7.736 -0.5834  0.2046  0.0363
  497MOL0     C68463   5.344  10.928   7.868  0.6575  0.1506  0.1577
  497MOL0     C68464   5.379  10.805   7.947 -0.2875  1.9465  0.1085
  497MOL0     N68465   5.487  10.821   8.047  0.2211 -0.7763  0.7483
  497MOL0     C68466   5.622  10.835   8.004 -0.0138 -0.4627 -0.7751
  497MOL0     C68467   5.693  10.862   8.120 -0.0309 -0.4558  0.4857
  497MOL0     C68468   5.842  10.899   8.137 -0.0990 -0.0657  0.4498
  497MOL0     C68469   5.944  10.783   8.149  0.0940  0.7793  0.0718
  497MOL0     C68470   6.082  10.838   8.196  0.1356 -0.3803 -0.1996
  497MOL0     C68471   6.180  10.864   8.083 -0.0814  0.8124  0.6301
  497MOL0     O68472   6.309  10.832   8.140 -0.1668  0.3895 -0.0307
  497MOL0     C68473   6.418  10.818   8.065  0.0851 -1.0362  0.2064
  497MOL0     C68474   6.419  10.802   7.924  0.1200 -1.0312  0.7148
  497MOL0     C68475   6.543  10.795   7.859 -0.0073 -0.0863 -0.0566
  497MOL0     C68476   6.545  10.808   7.707  0.2064 -0.6695 -0.2816
  497MOL0     C68477   6.665  10.785   7.935 -0.1344  0.1224 -0.5595
  497MOL0     C68478   6.802  10.776   7.879 -0.2652  0.8207 -0.9370
  497MOL0     O68479   6.818  10.736   7.745 -0.3228  0.0508 -0.1013
  497MOL0     C68480   6.935  10.767   7.687 -0.2714  0.4033  0.0047
  497MOL0     C68481   6.954  10.851   7.579 -0.7580 -0.3264  0.4734
  497MOL0     C68482   7.074  10.849   7.508 -0.6095  0.0197 -0.3873
  497MOL0     C68483   7.176  10.768   7.558 -0.2726 -0.9562  0.2908
  497MOL0     O68484   7.301  10.777   7.510 -0.9244 -0.1317 -0.6012
  497MOL0     C68485   7.321  10.825   7.376  0.2692 -0.9789 -0.4005
  497MOL0     C68486   7.447  10.760   7.316 -0.0797 -0.0137 -0.6580
  497MOL0     C68487   7.582  10.774   7.391  0.1228  0.4423  0.5412
  497MOL0     C68488   7.687  10.691   7.321 -0.3581 -0.2742 -0.1317
  497MOL0     C68489   7.831  10.706   7.373  0.3081  0.2794  0.2159
  497MOL0     C68490   7.933  10.600   7.313  0.2008 -0.1092  0.1402
  497MOL0     C68491   8.060  10.606   7.396  0.1306  0.7335 -0.0856
  497MOL0     C68492   8.177  10.533   7.336 -0.5918 -0.0776 -0.3617
  497MOL0    Cl68493   8.237  10.614   7.187  0.1747 -0.4338  0.1141
  497MOL0     C68494   7.156  10.694   7.676  0.1214  0.6529  0.1408
  497MOL0     C68495   7.037  10.683   7.729 -0.3468  0.1735 -0.1084
  497MOL0     O68496   6.894  10.799   7.956 -0.4235  0.5249  0.2241
  497MOL0     C68497   6.656  10.784   8.073  0.1701 -0.7255 -0.1672
  497MOL0     C68498   6.534  10.800   8.136  0.9628  0.1823  0.8216
  497MOL0     N68499   5.595  10.864   8.224 -0.0662  0.2121 -0.0300
  497MOL0     N68500   5.475  10.835   8.182  0.0862  0.4782  0.4715
  497MOL0     C68501   4.356  10.961   7.797 -0.0387  0.4658  0.4029
  497MOL0     C68502   4.216  10.979   7.772 -0.1258 -0.1935  0.0517
  497MOL0     C68503   3.802  11.122   7.733 -0.9239 -0.2267  0.0958
  497MOL0     C68504   3.741  11.118   7.860 -0.3893 -0.3486 -0.5734
  497MOL0     C68505   3.606  11.126   7.882  0.1222 -0.1761 -0.1976
  497MOL0     C68506   3.525  11.163   7.777 -0.7916 -0.1718  0.2348
  497MOL0     O68507   3.399  11.166   7.811  0.1418  0.3605  0.8916
  497MOL0     C68508   3.308  11.203   7.707  0.5770 -0.6038  0.0902
  497MOL0     C68509   3.169  11.206   7.750 -0.1896  0.4411 -0.7585
  497MOL0     C68510   3.113  11.061   7.784  0.3048  0.7935 -0.2946
  497MOL0     C68511   2.964  11.055   7.818 -0.9983 -0.4104  0.0059
  497MOL0     C68512   2.917  10.916   7.774  0.6799  0.0197  0.5628
  497MOL0     C68513   2.876  10.808   7.739 -0.1008  0.1101 -0.7492
  497MOL0     C68514   3.586  11.186   7.643 -0.6846 -0.4649 -0.6148
  497MOL0     C68515   3.724  11.163   7.621 -0.2816 -0.1172 -1.2947
  497MOL0     C68516   3.777  11.205   7.488  0.6177  0.2985  0.2386
  497MOL0     H68517   4.155  11.227   7.996 -1.9369 -4.2355  3.7734
  497MOL0     H68518   4.410  11.215   8.004 -0.2130 -1.6572  2.7863
  497MOL0     H68519   4.609  10.968   7.726 -1.5974 -0.3198 -0.3386
  497MOL0     H68520   4.643  10.875   7.872  0.6944  1.2881  0.9901
  497MOL0     H68521   4.762  11.133   7.763 -0.5577 -0.8512 -0.4092
  497MOL0     H68522   4.801  11.083   7.926 -0.6880 -0.2873  0.8096
  497MOL0     H68523   4.857  10.836   7.857 -0.1109  0.7549  1.3999
  497MOL0     H68524   4.861  10.884   7.688 -1.7798  0.5052 -0.7757
  497MOL0     H68525   5.038  11.042   7.733 -1.0837 -0.3735 -1.1154
  497MOL0     H68526   5.058  10.999   7.900  2.1124  0.3528 -1.0898
  497MOL0     H68527   5.079  10.791   7.675  3.0524 -2.5211  0.4609
  497MOL0     H68528   5.120  10.760   7.834  2.0678  0.7950  2.4612
  497MOL0     H68529   5.306  10.816   7.686  1.0509  0.6784  0.9328
  497MOL0     H68530   5.255  10.993   7.681 -0.3107 -0.0101 -0.3393
  497MOL0     H68531   5.291  11.003   7.928  0.4558  1.6438 -1.7808
  497MOL0     H68532   5.435  10.978   7.835  0.4122  1.1552  0.9670
  497MOL0     H68533   5.288  10.781   8.003  1.0564 -1.2102  1.1661
  497MOL0     H68534   5.404  10.725   7.876 -1.5520  2.8523 -1.4145
  497MOL0     H68535   5.672  10.822   7.909 -0.0990  1.7781 -1.1959
  497MOL0     H68536   5.857  10.980   8.209 -0.9308  1.2854 -0.8521
  497MOL0     H68537   5.866  10.953   8.046 -0.0237  0.8639  1.0120
  497MOL0     H68538   5.921  10.712   8.230  1.9674 -0.9176 -0.7897
  497MOL0     H68539   5.949  10.731   8.053  1.3825  0.9875  0.0114
  497MOL0     H68540   6.077  10.932   8.252  0.1129 -0.3146 -0.3110
  497MOL0     H68541   6.123  10.754   8.252  0.0269 -0.0033  0.4502
  497MOL0     H68542   6.160  10.790   8.005 -1.5233  0.3131  1.4187
  497MOL0     H68543   6.173  10.969   8.052  2.8621  0.9625  0.2375
  497MOL0     H68544   6.328  10.822   7.869  0.9195  1.7542  0.2316
  497MOL0     H68545   6.447  10.837   7.670  0.1122 -0.9067 -0.2157
  497MOL0     H68546   6.580  10.715   7.660  2.7902 -0.1536  0.4742
  497MOL0     H68547   6.611  10.887   7.671  0.1757 -0.7977 -0.6255
  497MOL0     H68548   6.875  10.909   7.532 -1.4296 -1.9776 -0.5102
  497MOL0     H68549   7.073  10.914   7.421  2.4018  0.5624 -0.1280
  497MOL0     H68550   7.238  10.802   7.309 -1.5664 -2.3417  2.1594
  497MOL0     H68551   7.334  10.933   7.381 -1.7918 -0.7313  0.2616
  497MOL0     H68552   7.423  10.654   7.305  0.3570  0.1276 -4.5145
  497MOL0     H68553   7.455  10.786   7.210  2.0875  0.4523 -0.4111
  497MOL0     H68554   7.565  10.733   7.492 -2.7541 -0.1371 -0.0899
  497MOL0     H68555   7.612  10.879   7.398  1.2870  0.0213  4.4634
  497MOL0     H68556   7.696  10.719   7.215  0.9660 -2.2399 -0.5926
  497MOL0     H68557   7.650  10.589   7.309 -0.4950 -0.4003  1.2589
  497MOL0     H68558   7.856  10.811   7.354 -1.9484  0.6036 -1.3879
  497MOL0     H68559   7.835  10.694   7.482 -1.0668 -1.1880  0.1408
  497MOL0     H68560   7.954  10.603   7.205 -0.2891  2.7805  0.0501
  497MOL0     H68561   7.895  10.500   7.338  1.3717 -0.6114  0.0135
  497MOL0     H68562   8.038  10.590   7.502 -1.2207  0.8312 -0.3312
  497MOL0     H68563   8.100  10.707   7.400  4.1634 -0.6104 -1.2355
  497MOL0     H68564   8.143  10.434   7.304 -0.1105 -1.0073  1.7630
  497MOL0     H68565   8.255  10.524   7.412 -1.3504  0.4546  0.5000
  497MOL0     H68566   7.243  10.649   7.722  1.3883  0.7265 -2.0066
  497MOL0     H68567   7.025  10.633   7.825  1.0364  0.2770  0.1335
  497MOL0     H68568   6.744  10.795   8.136  0.0032  0.4252 -0.1107
  497MOL0     H68569   6.536  10.792   8.244 -0.3449 -0.8552  0.8026
  497MOL0     H68570   4.406  10.881   7.744 -1.7681 -0.6552  0.3902
  497MOL0     H68571   4.167  10.908   7.706  0.3838  1.0657 -1.7896
  497MOL0     H68572   3.795  11.099   7.952 -0.3897 -1.2739 -0.7563
  497MOL0     H68573   3.557  11.119   7.978  2.5330 -2.0149  0.9911
  497MOL0     H68574   3.335  11.299   7.661 -0.8233 -0.6428 -0.8843
  497MOL0     H68575   3.308  11.131   7.624  0.7247 -0.6933  0.1674
  497MOL0     H68576   3.105  11.236   7.666  0.4500 -1.2070 -1.8864
  497MOL0     H68577   3.163  11.279   7.832 -1.2086 -2.2413  1.7230
  497MOL0     H68578   3.126  10.998   7.696 -1.8374  1.0733 -0.8814
  497MOL0     H68579   3.176  11.017   7.862  3.4198  0.3518 -2.8636
  497MOL0     H68580   2.914  11.136   7.762  0.2179  1.4553  1.4815
  497MOL0     H68581   2.934  11.077   7.921  0.4165 -0.6990  0.4977
  497MOL0     H68582   2.839  10.709   7.720  1.0639 -0.3645 -0.6039
  497MOL0     H68583   3.519  11.216   7.563 -2.4906 -1.5035  0.4202
  497MOL0     H68584   3.692  11.229   7.424  0.8206 -2.7820 -1.4014
  497MOL0     H68585   3.853  11.282   7.505 -0.5087  1.1661  1.4360
  497MOL0     H68586   3.832  11.120   7.445  1.4947  0.7142  0.4998
  498MOL0     O68587   2.747   6.493   3.172  0.3387  0.5544 -0.2688
  498MOL0     C68588   2.690   6.552   3.268  0.8462 -0.4955 -0.5709
  498MOL0     O68589   2.723   6.527   3.394 -0.6129 -0.2472  0.4564
  498MOL0     C68590   2.813   6.430   3.423 -0.4078  0.7922 -0.2206
  498MOL0     C68591   2.947   6.462   3.438  0.3064  0.4343 -0.1178
  498MOL0     C68592   3.038   6.359   3.469  0.1784 -0.9683 -0.5195
  498MOL0     C68593   2.997   6.221   3.488 -0.0621 -0.2908  0.3371
  498MOL0     O68594   3.080   6.111   3.524  0.1475  0.0575 -0.5186
  498MOL0     C68595   3.208   6.144   3.583 -0.4896  0.0983 -0.8143
  498MOL0     C68596   3.267   6.015   3.653  0.4530 -0.0917  0.3420
  498MOL0     C68597   3.401   6.041   3.724 -0.5249  0.3577 -0.1422
  498MOL0     C68598   3.386   6.054   3.877 -0.3870  0.6230  0.1983
  498MOL0     C68599   3.531   6.067   3.929 -0.6136  0.1712  0.0720
  498MOL0     C68600   3.543   6.040   4.082 -0.0203 -0.5624  0.1072
  498MOL0     C68601   3.686   6.022   4.119 -0.7623 -0.6285 -1.0255
  498MOL0     C68602   3.735   5.886   4.070 -0.0837 -0.8323 -0.6450
  498MOL0     N68603   3.834   5.819   4.154  0.3442  0.6127  0.8423
  498MOL0     C68604   3.969   5.845   4.164 -0.6244  0.0152  0.2289
  498MOL0     C68605   4.009   5.767   4.274  0.3978 -0.7321  0.7333
  498MOL0     C68606   4.149   5.781   4.329  0.0641  0.5212 -0.0261
  498MOL0     C68607   4.168   5.733   4.478  0.2441  0.3829  0.5264
  498MOL0     C68608   4.319   5.728   4.508  0.0543  0.4837 -0.8689
  498MOL0     C68609   4.395   5.598   4.470 -0.5007  0.0951  0.2713
  498MOL0     O68610   4.518   5.586   4.537  0.4318 -0.5702  0.3951
  498MOL0     C68611   4.622   5.661   4.492  0.4532  0.2095 -0.7104
  498MOL0     C68612   4.718   5.688   4.590 -1.1361 -0.1457  1.3204
  498MOL0     C68613   4.842   5.745   4.553  0.1108  0.3880  0.2541
  498MOL0     C68614   4.923   5.779   4.678  0.2739  0.6913  0.1994
  498MOL0     C68615   4.866   5.778   4.420 -0.6194  0.3315  0.1230
  498MOL0     C68616   4.999   5.843   4.385  0.6717 -0.6092  1.0613
  498MOL0     O68617   5.005   5.901   4.263 -0.3374 -0.4096 -0.0049
  498MOL0     C68618   5.136   5.924   4.208 -0.1270 -0.4866  0.3004
  498MOL0     C68619   5.172   6.054   4.173  0.1892 -0.5105  0.2533
  498MOL0     C68620   5.290   6.080   4.100 -0.0910  0.0848 -0.2725
  498MOL0     C68621   5.379   5.981   4.071  0.2674  0.4859 -0.2206
  498MOL0     O68622   5.507   5.996   4.020 -0.2692  0.5134  0.1242
  498MOL0     C68623   5.570   6.118   4.054  0.5411  0.4922 -0.0872
  498MOL0     C68624   5.715   6.111   4.019 -0.6479  0.4394  0.3993
  498MOL0     C68625   5.742   6.078   3.869  0.6119 -0.2438  0.4820
  498MOL0     C68626   5.882   6.116   3.830  0.0069  0.3746 -0.3888
  498MOL0     C68627   5.922   6.061   3.701  0.3290 -0.1248 -0.1878
  498MOL0     C68628   6.031   6.131   3.637 -1.2160 -1.1694 -0.5165
  498MOL0     C68629   6.178   6.114   3.711 -0.6189 -0.7148 -0.8052
  498MOL0     C68630   6.269   6.205   3.619  0.1449  0.7255  0.2134
  498MOL0    Cl68631   6.444   6.186   3.677 -0.2157 -0.2707  0.2541
  498MOL0     C68632   5.333   5.849   4.099  0.3548  0.1308 -0.1028
  498MOL0     C68633   5.220   5.818   4.169  0.7362 -0.3530  0.4092
  498MOL0     O68634   5.088   5.827   4.460 -0.1082  0.3974  0.5287
  498MOL0     C68635   4.767   5.766   4.326  0.1893 -0.2378 -0.0777
  498MOL0     C68636   4.645   5.707   4.362 -0.0887  0.2561  0.4074
  498MOL0     N68637   3.906   5.691   4.311  0.1518 -0.0320 -0.3279
  498MOL0     N68638   3.800   5.727   4.240 -0.1437 -0.1336  0.2254
  498MOL0     C68639   2.859   6.200   3.480 -0.4784  0.8521 -0.3269
  498MOL0     C68640   2.770   6.305   3.452 -0.2236  0.3537  0.5617
  498MOL0     C68641   2.580   6.657   3.236 -0.7242  0.1542  0.1107
  498MOL0     C68642   2.550   6.745   3.344 -0.6033 -0.2883 -0.7128
  498MOL0     C68643   2.453   6.841   3.328  0.5227  0.6099 -0.6365
  498MOL0     C68644   2.376   6.846   3.207  0.6367 -0.4442 -0.5564
  498MOL0     O68645   2.276   6.932   3.201 -0.0186 -0.7553 -0.5503
  498MOL0     C68646   2.306   7.073   3.181  0.5988  0.1718  0.4438
  498MOL0     C68647   2.191   7.166   3.215 -0.3584 -1.0647  0.3536
  498MOL0     C68648   2.155   7.160   3.367  0.4877 -0.1425  0.0301
  498MOL0     C68649   2.021   7.212   3.411  0.1838 -0.5478  0.6107
  498MOL0     C68650   1.980   7.330   3.341 -0.4952  0.1060 -0.2282
  498MOL0     C68651   1.971   7.433   3.282  0.3164  0.3149 -0.1143
  498MOL0     C68652   2.409   6.758   3.100 -1.0032 -0.3488 -0.2564
  498MOL0     C68653   2.513   6.670   3.109 -0.2683  0.5149  0.6295
  498MOL0     C68654   2.549   6.575   2.991  0.4749 -0.2489  0.2475
  498MOL0     H68655   2.971   6.567   3.426 -2.2216  1.2497  1.2362
  498MOL0     H68656   3.142   6.387   3.481 -0.7925  3.3632 -0.5888
  498MOL0     H68657   3.200   6.229   3.650  3.9917  1.7998 -2.0790
  498MOL0     H68658   3.269   6.183   3.501  0.9957  1.5487  0.9003
  498MOL0     H68659   3.191   5.987   3.727 -0.1135  0.3325 -0.0804
  498MOL0     H68660   3.276   5.939   3.575  0.1073 -2.3277  2.3568
  498MOL0     H68661   3.459   5.951   3.700 -1.1101 -0.1069  0.1747
  498MOL0     H68662   3.445   6.131   3.682  0.0905  1.1453  2.0474
  498MOL0     H68663   3.321   6.137   3.907 -1.7176 -0.7368  1.2266
  498MOL0     H68664   3.345   5.964   3.922  0.1177  1.6960  3.0217
  498MOL0     H68665   3.573   6.163   3.899 -2.6031  1.0409 -0.0550
  498MOL0     H68666   3.602   6.005   3.873 -2.5655 -0.9876 -1.2827
  498MOL0     H68667   3.496   6.118   4.142  0.1914 -1.8121  1.9928
  498MOL0     H68668   3.498   5.946   4.115  3.4185 -1.0216  4.4988
  498MOL0     H68669   3.689   6.020   4.228  2.2319 -0.6685 -1.0347
  498MOL0     H68670   3.754   6.104   4.093  1.3092 -1.9987 -0.1994
  498MOL0     H68671   3.648   5.820   4.060 -0.5445 -0.4757  0.7875
  498MOL0     H68672   3.775   5.896   3.968  0.8975 -0.5999 -0.2492
  498MOL0     H68673   4.023   5.909   4.095 -1.5654 -0.6128 -1.1462
  498MOL0     H68674   4.191   5.878   4.304 -0.8567  0.2273 -3.0436
  498MOL0     H68675   4.192   5.705   4.263 -1.2690 -0.9527  0.6995
  498MOL0     H68676   4.134   5.804   4.554 -0.9513 -1.0288  1.3542
  498MOL0     H68677   4.114   5.642   4.506  0.0622 -0.0384 -1.0630
  498MOL0     H68678   4.366   5.814   4.461  2.2332  1.0281  2.0367
  498MOL0     H68679   4.325   5.744   4.616 -1.0473 -0.8667 -0.5753
  498MOL0     H68680   4.333   5.512   4.498 -1.0539  0.8542  1.4664
  498MOL0     H68681   4.399   5.594   4.361 -0.2145 -0.7132  0.3059
  498MOL0     H68682   4.706   5.662   4.694 -1.8632  0.1850  1.3232
  498MOL0     H68683   4.950   5.885   4.668  0.8076  0.4915 -0.6353
  498MOL0     H68684   5.005   5.706   4.675 -0.9056 -0.7816  2.0825
  498MOL0     H68685   4.869   5.758   4.770  0.4382  2.5010  0.7332
  498MOL0     H68686   5.086   6.119   4.185 -1.5229 -2.3569 -1.3102
  498MOL0     H68687   5.298   6.184   4.070 -1.1869  0.9941  2.2544
  498MOL0     H68688   5.518   6.194   3.995 -1.2159 -1.2171 -0.8672
  498MOL0     H68689   5.560   6.139   4.160  1.2208 -0.0751  0.1005
  498MOL0     H68690   5.758   6.207   4.048  0.4452  0.6089 -1.5991
  498MOL0     H68691   5.767   6.036   4.079 -0.0473 -0.7535 -1.5411
  498MOL0     H68692   5.665   6.110   3.799  0.4294 -1.5642  0.0446
  498MOL0     H68693   5.741   5.969   3.874  2.6754 -0.4256 -1.5552
  498MOL0     H68694   5.941   6.085   3.916  2.4008  1.5760 -1.5091
  498MOL0     H68695   5.887   6.225   3.833 -2.3699  0.5202  0.2555
  498MOL0     H68696   5.951   5.957   3.719  1.2847  0.3466  1.1825
  498MOL0     H68697   5.833   6.058   3.637 -0.2116 -0.7358  0.5690
  498MOL0     H68698   6.004   6.237   3.628 -2.2068 -1.5296 -2.2916
  498MOL0     H68699   6.025   6.085   3.538  2.1902 -0.4677 -1.1544
  498MOL0     H68700   6.203   6.008   3.707 -0.7345 -0.7490 -0.6528
  498MOL0     H68701   6.178   6.144   3.816  0.0692 -1.2955 -0.6343
  498MOL0     H68702   6.235   6.309   3.616  0.2699  0.8022  1.2565
  498MOL0     H68703   6.264   6.170   3.515 -2.7814  0.7683  0.2496
  498MOL0     H68704   5.398   5.768   4.068  1.0711 -0.2325  2.1424
  498MOL0     H68705   5.188   5.715   4.176 -1.8415  0.2346 -1.1867
  498MOL0     H68706   4.797   5.798   4.227 -0.2348  0.3590 -0.0129
  498MOL0     H68707   4.566   5.694   4.290 -1.1117 -1.5012  1.7770
  498MOL0     H68708   2.827   6.096   3.486  1.7459  0.1115 -0.2581
  498MOL0     H68709   2.665   6.278   3.451 -0.2226 -0.1957 -3.7544
  498MOL0     H68710   2.598   6.735   3.441 -1.5449  1.1853 -0.0626
  498MOL0     H68711   2.427   6.911   3.406  0.7509  0.9747 -0.8876
  498MOL0     H68712   2.399   7.106   3.227  2.1207 -0.3096 -2.1100
  498MOL0     H68713   2.333   7.085   3.075 -1.1440 -2.0142 -0.3388
  498MOL0     H68714   2.100   7.139   3.161  0.5076 -1.4399 -0.9626
  498MOL0     H68715   2.213   7.269   3.185  0.6759 -1.5687 -0.6873
  498MOL0     H68716   2.151   7.055   3.395  1.8299  0.0402  1.0482
  498MOL0     H68717   2.237   7.209   3.421  2.7102 -0.1222 -3.0738
  498MOL0     H68718   2.020   7.215   3.521 -1.8679 -1.2439  0.6521
  498MOL0     H68719   1.947   7.137   3.383  0.6898 -0.6162 -0.5840
  498MOL0     H68720   1.971   7.527   3.232  1.0110 -0.1868 -1.0990
  498MOL0     H68721   2.349   6.759   3.010  0.8059  1.4052 -1.5168
  498MOL0     H68722   2.518   6.474   3.017 -1.1897 -0.1310 -1.1335
  498MOL0     H68723   2.482   6.594   2.906  1.1999  1.1347 -0.0464
  498MOL0     H68724   2.656   6.570   2.968  0.4075 -1.2938  0.1302
  499MOL0     O68725   0.072   2.633   7.933  0.4640  0.5952 -0.4607
  499MOL0     C68726   0.047   2.672   7.820  0.5484 -0.1406 -0.1855
  499MOL0     O68727   0.092   2.786   7.770 -0.1918 -0.3445  1.0519
  499MOL0     C68728   0.167   2.861   7.855 -0.4985 -0.2657  0.0150
  499MOL0     C68729   0.308   2.849   7.840 -0.0789 -0.7175  0.1421
  499MOL0     C68730   0.395   2.927   7.916 -0.0166  0.2720  0.8350
  499MOL0     C68731   0.346   3.012   8.016 -0.6334 -0.1410  0.3270
  499MOL0     O68732   0.440   3.087   8.073  0.3391 -0.1239 -0.3935
  499MOL0     C68733   0.398   3.197   8.154 -0.1444  0.4200  0.3116
  499MOL0     C68734   0.526   3.260   8.221 -0.1508 -0.4281 -0.0050
  499MOL0     C68735   0.624   3.324   8.123  0.6903  0.1846  0.3934
  499MOL0     C68736   0.745   3.360   8.201 -0.9639  0.9791 -0.0250
  499MOL0     C68737   0.821   3.462   8.132 -0.7038  0.0608 -0.2542
  499MOL0     C68738   0.960   3.489   8.183 -0.5531 -0.4641  0.1912
  499MOL0     C68739   1.014   3.622   8.116  0.5823  0.1608  0.3486
  499MOL0     C68740   1.136   3.686   8.179 -0.4821 -0.1343 -0.5929
  499MOL0     N68741   1.261   3.610   8.153  0.2810  0.4833  0.4196
  499MOL0     C68742   1.310   3.598   8.027  0.4730 -0.2824  0.1688
  499MOL0     C68743   1.423   3.534   8.036 -0.1850 -0.0933 -0.2568
  499MOL0     C68744   1.529   3.526   7.930 -0.6409 -0.4009  0.0302
  499MOL0     C68745   1.632   3.640   7.937  0.0657 -0.5808  0.2171
  499MOL0     C68746   1.754   3.598   8.022  0.4691  0.9814 -0.9512
  499MOL0     C68747   1.856   3.715   8.046  0.5339  0.4104 -0.6531
  499MOL0     O68748   1.952   3.687   8.146  0.3360  0.2505 -0.2243
  499MOL0     C68749   2.045   3.779   8.179 -1.2973  0.1830 -0.2156
  499MOL0     C68750   2.144   3.746   8.270  0.4081  0.7704  0.5467
  499MOL0     C68751   2.255   3.822   8.290 -0.1262  0.1394 -0.4405
  499MOL0     C68752   2.357   3.758   8.379  0.2889  0.2248  0.5004
  499MOL0     C68753   2.283   3.933   8.217 -0.1457 -0.1271  0.3777
  499MOL0     C68754   2.410   4.011   8.216 -0.1210  0.2626  0.7347
  499MOL0     O68755   2.399   4.137   8.152 -0.6638  0.2542 -0.2153
  499MOL0     C68756   2.500   4.221   8.183 -1.4756 -1.0482 -0.5995
  499MOL0     C68757   2.471   4.335   8.263 -0.4138 -0.9578  0.1272
  499MOL0     C68758   2.575   4.422   8.316  0.2093  0.2155  0.7252
  499MOL0     C68759   2.709   4.398   8.276 -0.3207 -0.0892 -1.4470
  499MOL0     O68760   2.820   4.465   8.327 -0.5109  0.0781  0.3819
  499MOL0     C68761   2.819   4.532   8.457 -0.6037 -1.2735 -0.0123
  499MOL0     C68762   2.964   4.547   8.508 -0.1532 -0.4165  0.1578
  499MOL0     C68763   2.968   4.624   8.641 -0.1932  0.3560  0.0558
  499MOL0     C68764   3.119   4.628   8.678 -0.5954 -0.1502 -0.2070
  499MOL0     C68765   3.157   4.661   8.823  0.2086  0.3592  0.3475
  499MOL0     C68766   3.310   4.631   8.834  0.4216  0.3048  0.4565
  499MOL0     C68767   3.359   4.647   8.976 -0.4586 -0.7832  0.0034
  499MOL0     C68768   3.508   4.658   8.961 -0.6297 -0.8101  0.2367
  499MOL0    Cl68769   3.581   4.499   8.906  0.5774 -0.0874  0.0237
  499MOL0     C68770   2.745   4.292   8.199 -0.6018  0.4037 -0.4866
  499MOL0     C68771   2.634   4.210   8.146 -0.7983 -0.8712 -0.1540
  499MOL0     O68772   2.515   3.965   8.260 -0.4200 -0.2122  0.4374
  499MOL0     C68773   2.175   3.986   8.133 -0.2315  0.0063  0.0886
  499MOL0     C68774   2.063   3.901   8.110 -0.4100 -0.3849 -0.0702
  499MOL0     N68775   1.451   3.509   8.173  0.7445  0.1651  0.0902
  499MOL0     N68776   1.352   3.555   8.240  0.2692 -0.1191 -0.6530
  499MOL0     C68777   0.208   3.032   8.028 -0.0347  0.1008  0.4598
  499MOL0     C68778   0.122   2.951   7.947 -0.7340 -0.1162  0.4796
  499MOL0     C68779  -0.036   2.595   7.723  0.3496  0.1603  0.5216
  499MOL0     C68780  -0.025   2.629   7.583  0.1074 -0.5490  0.9464
  499MOL0     C68781  -0.102   2.560   7.493 -0.4277 -0.4629  0.5853
  499MOL0     C68782  -0.187   2.455   7.530 -0.2889  0.6822 -0.0851
  499MOL0     O68783  -0.264   2.380   7.445  0.0417 -0.4582  1.0818
  499MOL0     C68784  -0.351   2.439   7.346  0.8334 -0.1471  0.0038
  499MOL0     C68785  -0.494   2.371   7.344  0.1834  0.1035 -0.1576
  499MOL0     C68786  -0.485   2.244   7.262 -0.0219 -0.3322  0.5739
  499MOL0     C68787  -0.591   2.141   7.274 -0.0753 -1.0416  0.0151
  499MOL0     C68788  -0.710   2.190   7.202  0.1376  0.0879  0.4022
  499MOL0     C68789  -0.809   2.242   7.149 -0.1022 -0.1845  0.1107
  499MOL0     C68790  -0.199   2.423   7.665  0.0194  0.5743 -0.1505
  499MOL0     C68791  -0.119   2.490   7.762  0.3600  1.1844 -0.5650
  499MOL0     C68792  -0.147   2.467   7.915 -0.7127 -0.3604  0.3852
  499MOL0     H68793   0.351   2.776   7.772  3.1524  0.7104  0.4761
  499MOL0     H68794   0.500   2.927   7.890 -0.0209  1.2703  0.8074
  499MOL0     H68795   0.340   3.157   8.237 -2.9053 -0.5107 -1.9193
  499MOL0     H68796   0.331   3.265   8.099  0.7266  0.8061 -0.2917
  499MOL0     H68797   0.492   3.338   8.290  2.0086  0.3731  0.2559
  499MOL0     H68798   0.590   3.186   8.271  2.0096 -0.9716 -3.2696
  499MOL0     H68799   0.661   3.254   8.047 -2.3275 -0.0120 -1.0385
  499MOL0     H68800   0.584   3.412   8.072  1.9590  0.5215 -0.0802
  499MOL0     H68801   0.727   3.404   8.300 -0.6824 -2.1402  1.5491
  499MOL0     H68802   0.809   3.273   8.217 -3.5631 -1.8869 -3.5552
  499MOL0     H68803   0.774   3.560   8.137  2.9140  2.1004 -1.9062
  499MOL0     H68804   0.826   3.435   8.026 -2.4431 -3.2884  0.3605
  499MOL0     H68805   0.950   3.505   8.291 -0.1218  2.3234 -0.1111
  499MOL0     H68806   1.029   3.405   8.171  0.9516  0.8757 -0.9950
  499MOL0     H68807   0.940   3.702   8.107 -1.0425 -1.3820 -0.8752
  499MOL0     H68808   1.037   3.600   8.011  1.2963  3.0803 -0.1972
  499MOL0     H68809   1.143   3.791   8.149 -1.8740  0.0613 -0.2967
  499MOL0     H68810   1.119   3.677   8.286 -1.3053 -0.5149 -0.7480
  499MOL0     H68811   1.273   3.659   7.945 -2.6030 -0.3085  1.4153
  499MOL0     H68812   1.479   3.531   7.832  1.4516 -0.4878 -1.1060
  499MOL0     H68813   1.578   3.428   7.930 -1.6454 -0.9283 -0.7213
  499MOL0     H68814   1.666   3.676   7.840  0.6263 -0.1391  0.5707
  499MOL0     H68815   1.593   3.732   7.981  2.4511  0.6254 -0.0292
  499MOL0     H68816   1.721   3.562   8.120  2.0268 -0.8287 -1.0243
  499MOL0     H68817   1.814   3.520   7.974  1.1474  1.2354 -0.5448
  499MOL0     H68818   1.897   3.736   7.947 -0.1556  1.0520 -0.8149
  499MOL0     H68819   1.791   3.800   8.069 -3.2498 -1.6966 -2.5086
  499MOL0     H68820   2.144   3.651   8.322  3.1844  1.1036  1.3647
  499MOL0     H68821   2.438   3.726   8.313 -0.9919 -1.2402 -0.4376
  499MOL0     H68822   2.323   3.667   8.430  0.5445 -0.0898  0.1176
  499MOL0     H68823   2.396   3.820   8.460  3.0180 -0.6917 -0.0176
  499MOL0     H68824   2.367   4.350   8.287  0.0461  2.2565  0.5134
  499MOL0     H68825   2.556   4.502   8.388  0.6212  0.1385  0.9189
  499MOL0     H68826   2.759   4.624   8.461 -2.9422 -2.7043 -0.3593
  499MOL0     H68827   2.778   4.468   8.536 -1.7575  0.9185  1.2634
  499MOL0     H68828   3.016   4.451   8.520  2.2036  0.6164 -1.0591
  499MOL0     H68829   3.023   4.597   8.430 -1.4779 -0.7126 -1.0640
  499MOL0     H68830   2.919   4.567   8.721  0.8405 -0.2109  0.3112
  499MOL0     H68831   2.927   4.724   8.627 -0.5165  0.0452 -1.3598
  499MOL0     H68832   3.164   4.694   8.604 -2.0422  0.4153 -0.6168
  499MOL0     H68833   3.166   4.533   8.651 -2.2877 -1.6116  1.6738
  499MOL0     H68834   3.135   4.768   8.833 -0.5642  0.2784 -0.3561
  499MOL0     H68835   3.102   4.596   8.893  3.4533 -3.7158 -0.4814
  499MOL0     H68836   3.359   4.704   8.770 -1.9468  1.0067 -0.6994
  499MOL0     H68837   3.330   4.528   8.803 -0.6108 -0.1526  1.2427
  499MOL0     H68838   3.333   4.556   9.030 -0.7947 -1.5512 -1.3973
  499MOL0     H68839   3.324   4.732   9.036 -0.2220 -0.8050  0.1750
  499MOL0     H68840   3.551   4.698   9.053 -0.1521 -0.1862 -0.2473
  499MOL0     H68841   3.528   4.742   8.893 -2.7593 -0.0987  0.4047
  499MOL0     H68842   2.849   4.277   8.173 -0.5714  0.4382 -0.3849
  499MOL0     H68843   2.669   4.140   8.071 -2.3247 -0.2824 -1.4415
  499MOL0     H68844   2.185   4.064   8.058 -1.2185  0.6496  0.6118
  499MOL0     H68845   1.992   3.926   8.032  1.9622  3.7178 -1.1995
  499MOL0     H68846   0.160   3.107   8.090 -2.3556 -1.9733  1.3466
  499MOL0     H68847   0.016   2.959   7.966 -0.6019 -0.7786  1.6185
  499MOL0     H68848   0.035   2.708   7.539 -2.2982  0.4133 -0.8220
  499MOL0     H68849  -0.096   2.595   7.390 -0.9787 -0.0612  0.6851
  499MOL0     H68850  -0.373   2.543   7.370 -0.5417  0.4140 -3.2267
  499MOL0     H68851  -0.313   2.414   7.247 -2.1312 -1.7748 -0.8689
  499MOL0     H68852  -0.565   2.432   7.286 -0.4662 -1.8590 -1.5365
  499MOL0     H68853  -0.536   2.342   7.441  0.8643  1.4107  0.5537
  499MOL0     H68854  -0.475   2.274   7.157  0.8582  2.6881  1.4271
  499MOL0     H68855  -0.393   2.188   7.283  1.2820  1.2965 -0.6134
  499MOL0     H68856  -0.614   2.111   7.377  0.2499  1.5408  0.9149
  499MOL0     H68857  -0.552   2.053   7.222  0.3478 -0.6098 -0.4021
  499MOL0     H68858  -0.892   2.296   7.108 -1.3920 -0.5767  2.0837
  499MOL0     H68859  -0.256   2.334   7.693  0.6810  0.0471 -0.4548
  499MOL0     H68860  -0.224   2.389   7.918 -0.4315 -0.6421  0.1908
  499MOL0     H68861  -0.059   2.428   7.966 -2.2101 -2.7379  1.3258
  499MOL0     H68862  -0.180   2.551   7.977  2.1544 -0.0873  1.6693
  500MOL0     O68863   3.877   4.433   3.312 -0.1822  0.4662  0.6663
  500MOL0     C68864   3.876   4.322   3.365  1.6196 -0.7582  0.1808
  500MOL0     O68865   3.981   4.268   3.417 -0.3677 -0.1423  0.1584
  500MOL0     C68866   4.099   4.328   3.410 -0.5050 -0.4671 -0.8524
  500MOL0     C68867   4.170   4.341   3.288 -0.4855 -0.8694 -0.2089
  500MOL0     C68868   4.301   4.392   3.287  0.3239 -0.3599  0.7309
  500MOL0     C68869   4.357   4.438   3.407 -0.0331 -0.5912 -0.3013
  500MOL0     O68870   4.485   4.484   3.402 -1.0800 -0.0813 -0.2338
  500MOL0     C68871   4.551   4.564   3.507 -0.0188  0.6370 -0.2359
  500MOL0     C68872   4.700   4.570   3.484  1.5993 -0.2567  0.0350
  500MOL0     C68873   4.768   4.662   3.585 -0.5935 -0.0590  0.4925
  500MOL0     C68874   4.914   4.676   3.542  0.3727 -0.3328 -0.7099
  500MOL0     C68875   4.990   4.760   3.651  0.0568  0.0094  0.2846
  500MOL0     C68876   5.136   4.759   3.613 -0.4001 -0.3264  0.1275
  500MOL0     C68877   5.222   4.842   3.710 -0.0392  0.1950  0.5416
  500MOL0     C68878   5.370   4.812   3.713  0.3614  0.0837 -0.3860
  500MOL0     N68879   5.428   4.816   3.577  0.7186 -0.5324 -0.2154
  500MOL0     C68880   5.436   4.928   3.494 -1.0030  0.1507 -0.2063
  500MOL0     C68881   5.523   4.901   3.390 -0.3945  0.6249 -0.9584
  500MOL0     C68882   5.573   4.996   3.290  0.7964  0.2997 -0.5838
  500MOL0     C68883   5.492   5.117   3.256 -0.1517 -0.4088  0.1685
  500MOL0     C68884   5.543   5.210   3.142 -0.7917 -0.2066 -0.2253
  500MOL0     C68885   5.664   5.296   3.177 -0.4184  0.0878  0.3860
  500MOL0     O68886   5.628   5.387   3.281 -0.0930 -0.2514  0.3881
  500MOL0     C68887   5.736   5.461   3.325  0.0051 -0.1800 -0.8592
  500MOL0     C68888   5.710   5.574   3.408 -0.2306  0.3950  0.3293
  500MOL0     C68889   5.807   5.639   3.486  0.7077 -0.5021  0.1471
  500MOL0     C68890   5.748   5.752   3.570  0.3676  0.2511  0.1817
  500MOL0     C68891   5.939   5.599   3.476 -0.2506  0.5026 -0.0323
  500MOL0     C68892   6.057   5.671   3.529  0.6027  0.2317 -0.2757
  500MOL0     O68893   6.177   5.622   3.482 -0.5724 -0.0303 -0.4923
  500MOL0     C68894   6.292   5.664   3.539 -0.2272  0.4475  0.4376
  500MOL0     C68895   6.326   5.797   3.555 -0.6711  0.5612  0.8895
  500MOL0     C68896   6.460   5.836   3.593  0.2541  0.2644  0.6819
  500MOL0     C68897   6.551   5.737   3.635  0.5361  0.0693 -0.5272
  500MOL0     O68898   6.681   5.759   3.677  0.3477  0.0682  0.1953
  500MOL0     C68899   6.716   5.897   3.689 -0.0903 -0.7455 -0.2180
  500MOL0     C68900   6.858   5.894   3.746  0.2742 -0.1784 -0.3669
  500MOL0     C68901   6.968   5.854   3.651  0.2909 -0.7302  0.0242
  500MOL0     C68902   6.984   5.938   3.522  0.3111  0.4451  0.4425
  500MOL0     C68903   7.111   5.891   3.443 -0.1870 -0.1482 -0.8203
  500MOL0     C68904   7.141   5.978   3.318  0.0336  0.6630 -0.7610
  500MOL0     C68905   7.251   5.923   3.225  0.5535 -0.9005  0.8824
  500MOL0     C68906   7.272   6.032   3.112  0.0216 -0.2830 -0.3433
  500MOL0    Cl68907   7.385   5.959   2.998  0.0272 -0.0080  0.3722
  500MOL0     C68908   6.518   5.609   3.607 -0.1662  0.9324 -0.6421
  500MOL0     C68909   6.389   5.570   3.566  0.0635 -0.2828 -0.2323
  500MOL0     O68910   6.036   5.761   3.613  0.0120  0.2530  0.4937
  500MOL0     C68911   5.967   5.504   3.369 -0.7621  1.1292  0.1365
  500MOL0     C68912   5.871   5.440   3.291 -0.0506 -0.3381 -0.1843
  500MOL0     N68913   5.569   4.779   3.421 -0.1357  0.7470 -0.1455
  500MOL0     N68914   5.519   4.737   3.533 -0.7697  0.4151 -0.3662
  500MOL0     C68915   4.285   4.433   3.534 -0.1866 -0.2447  1.3112
  500MOL0     C68916   4.155   4.377   3.527 -0.5541 -0.3856 -0.6315
  500MOL0     C68917   3.739   4.254   3.381  0.1954  0.7047 -0.5582
  500MOL0     C68918   3.722   4.200   3.511 -0.0326 -0.7729  0.0841
  500MOL0     C68919   3.604   4.154   3.556 -0.5466  0.2426  0.6244
  500MOL0     C68920   3.487   4.155   3.472  0.5911 -0.3835 -1.0263
  500MOL0     O68921   3.359   4.120   3.513  0.8539 -0.1020 -0.7578
  500MOL0     C68922   3.349   4.040   3.630 -0.3641 -0.4273  0.7708
  500MOL0     C68923   3.201   4.005   3.651 -0.2280 -0.1366  0.7247
  500MOL0     C68924   3.189   3.936   3.784 -0.2098 -0.3107 -0.4594
  500MOL0     C68925   3.046   3.873   3.805  1.2488  0.1273  0.3253
  500MOL0     C68926   3.008   3.862   3.949 -1.3328  0.0227  0.5084
  500MOL0     C68927   2.994   3.871   4.071 -1.6241  0.3728  0.5332
  500MOL0     C68928   3.499   4.218   3.348 -0.2355  0.0174 -0.1815
  500MOL0     C68929   3.620   4.269   3.307 -0.0110  0.9064  0.4131
  500MOL0     C68930   3.626   4.325   3.157 -0.7029  0.1074 -1.1576
  500MOL0     H68931   4.111   4.314   3.201 -3.0005 -1.0007  1.4510
  500MOL0     H68932   4.358   4.380   3.195  3.1357  2.6086  1.8892
  500MOL0     H68933   4.541   4.519   3.606  4.9368 -0.9045 -0.1471
  500MOL0     H68934   4.519   4.667   3.524 -0.5264  0.0954  2.7684
  500MOL0     H68935   4.731   4.466   3.489 -0.4780 -0.8697  1.2355
  500MOL0     H68936   4.719   4.616   3.386 -0.0204  2.5925  0.9403
  500MOL0     H68937   4.716   4.756   3.601 -0.2707 -0.2623  3.0476
  500MOL0     H68938   4.763   4.626   3.688 -2.4799 -2.0730 -0.2320
  500MOL0     H68939   4.968   4.581   3.544  3.2230  1.1085  3.1057
  500MOL0     H68940   4.925   4.718   3.442 -0.5899  0.1591 -0.6296
  500MOL0     H68941   4.975   4.722   3.753  0.5772  1.4640  0.9235
  500MOL0     H68942   4.953   4.863   3.650  0.6310  0.2957 -3.1361
  500MOL0     H68943   5.172   4.656   3.617 -0.7698 -0.4318  0.9875
  500MOL0     H68944   5.151   4.795   3.511 -2.7756 -3.1643 -1.3733
  500MOL0     H68945   5.191   4.828   3.814 -0.9452 -0.5424  0.1845
  500MOL0     H68946   5.217   4.949   3.690  2.4063 -0.0999 -2.4400
  500MOL0     H68947   5.416   4.891   3.773  0.4295  2.9424 -3.8659
  500MOL0     H68948   5.395   4.717   3.762 -1.4418 -0.3829 -0.2865
  500MOL0     H68949   5.369   5.012   3.506  1.5830  2.3275  0.1518
  500MOL0     H68950   5.593   4.949   3.193 -0.5920  2.3144 -1.9316
  500MOL0     H68951   5.676   5.019   3.319  0.6281 -0.7156  0.9075
  500MOL0     H68952   5.410   5.070   3.201 -1.5229  0.4365  1.4025
  500MOL0     H68953   5.455   5.174   3.342  0.3442  1.3865 -0.7473
  500MOL0     H68954   5.570   5.141   3.061 -1.9564 -1.4109  0.3783
  500MOL0     H68955   5.465   5.276   3.103  0.5059  1.1146 -0.6961
  500MOL0     H68956   5.740   5.225   3.210 -0.9191 -0.9640 -0.6478
  500MOL0     H68957   5.697   5.347   3.086 -2.0252 -0.3612 -0.4947
  500MOL0     H68958   5.604   5.600   3.413 -0.1190  0.5929  2.8599
  500MOL0     H68959   5.783   5.753   3.674  1.7005 -1.8687 -0.1951
  500MOL0     H68960   5.641   5.744   3.585  0.6902 -0.2379  2.6367
  500MOL0     H68961   5.780   5.847   3.526  2.7169  0.5054  2.1739
  500MOL0     H68962   6.264   5.882   3.528  0.4876  0.7181 -1.5542
  500MOL0     H68963   6.474   5.943   3.586 -0.7844  0.3990  0.5825
  500MOL0     H68964   6.720   5.946   3.591 -0.5227  1.2514  0.7004
  500MOL0     H68965   6.649   5.943   3.762  1.8175 -2.2511  2.6874
  500MOL0     H68966   6.886   5.991   3.789  0.5223 -0.6036  0.4467
  500MOL0     H68967   6.850   5.831   3.835 -0.2414 -0.4125 -0.5769
  500MOL0     H68968   6.968   5.751   3.614 -0.4376 -0.1101 -1.8306
  500MOL0     H68969   7.063   5.862   3.705 -0.7061  2.4593  1.5743
  500MOL0     H68970   7.000   6.045   3.542  3.3944 -0.4905  4.0913
  500MOL0     H68971   6.898   5.927   3.454  1.2569  0.1553 -0.7513
  500MOL0     H68972   7.200   5.900   3.506 -3.2605  0.8362  3.9112
  500MOL0     H68973   7.101   5.786   3.415 -1.4450 -0.3100  0.1560
  500MOL0     H68974   7.167   6.081   3.345  3.7755 -0.1439 -0.7373
  500MOL0     H68975   7.054   5.990   3.253 -1.7019  2.1024  1.6738
  500MOL0     H68976   7.226   5.824   3.185 -2.0761 -0.5136  1.3717
  500MOL0     H68977   7.342   5.915   3.285  0.7769 -1.7720  0.4410
  500MOL0     H68978   7.314   6.120   3.161 -0.7495 -0.5755  0.8860
  500MOL0     H68979   7.178   6.054   3.060 -0.4972 -1.4445  0.0735
  500MOL0     H68980   6.593   5.531   3.609  0.4044  1.4435 -1.7610
  500MOL0     H68981   6.363   5.466   3.548 -1.6388  0.4470 -2.5717
  500MOL0     H68982   6.069   5.469   3.352 -0.7537  0.0339  2.2129
  500MOL0     H68983   5.903   5.361   3.223 -1.5827 -3.6031  2.5976
  500MOL0     H68984   4.324   4.473   3.627  1.2849 -0.5399  0.8449
  500MOL0     H68985   4.093   4.378   3.616  0.8924  0.0247  0.3958
  500MOL0     H68986   3.805   4.205   3.581 -0.5913 -0.4102  0.7227
  500MOL0     H68987   3.607   4.102   3.652  1.4793  3.8026  2.7323
  500MOL0     H68988   3.407   3.950   3.607  3.1802  2.3592 -2.6781
  500MOL0     H68989   3.398   4.094   3.712  2.2437 -2.7747  0.9079
  500MOL0     H68990   3.173   3.957   3.557 -0.9620  1.4235  0.1275
  500MOL0     H68991   3.137   4.093   3.660 -0.9997 -0.5302 -0.6268
  500MOL0     H68992   3.262   3.856   3.798 -1.2380 -1.4462 -1.3782
  500MOL0     H68993   3.201   4.014   3.860 -1.0902  0.0279 -0.6653
  500MOL0     H68994   3.054   3.776   3.754  1.3905  0.4418 -0.2610
  500MOL0     H68995   2.972   3.938   3.758  1.3346  0.2576  0.3701
  500MOL0     H68996   2.981   3.879   4.177 -2.5405 -1.7260  0.6204
  500MOL0     H68997   3.410   4.223   3.286  0.1033  0.9463 -0.6080
  500MOL0     H68998   3.531   4.310   3.104 -0.5480 -2.4783 -0.8530
  500MOL0     H68999   3.643   4.432   3.162  1.4335 -0.2631  2.0301
  500MOL0     H69000   3.708   4.278   3.103  1.2016 -0.6593  2.1607
  501MOL0     O69001   0.457   0.327   7.307 -0.1611  0.0991 -0.2426
  501MOL0     C69002   0.423   0.218   7.261 -0.9382 -0.6467  0.3290
  501MOL0     O69003   0.508   0.125   7.234  0.4426 -0.2016 -0.3895
  501MOL0     C69004   0.620   0.117   7.313 -0.3472 -0.3915 -0.3345
  501MOL0     C69005   0.614   0.076   7.451  0.6060 -0.7611 -0.4064
  501MOL0     C69006   0.736   0.059   7.521 -0.0266  0.5924 -0.5559
  501MOL0     C69007   0.863   0.091   7.474  0.6523  0.0243  1.5071
  501MOL0     O69008   0.965   0.084   7.563 -0.2249  0.1032  0.2208
  501MOL0     C69009   1.097   0.131   7.529 -0.2253 -0.2644 -0.9188
  501MOL0     C69010   1.183   0.128   7.649  0.0004  0.6296 -0.6481
  501MOL0     C69011   1.337   0.165   7.637 -0.4533 -0.1028 -0.1604
  501MOL0     C69012   1.405   0.117   7.776 -0.3775 -0.7203  1.0692
  501MOL0     C69013   1.556   0.153   7.786 -0.0840 -0.2776  0.2847
  501MOL0     C69014   1.621   0.097   7.666 -0.6182 -0.5234  0.8459
  501MOL0     C69015   1.775   0.112   7.673  0.6018  0.3142 -0.0810
  501MOL0     C69016   1.856   0.063   7.556  0.5274 -0.1015 -0.2117
  501MOL0     N69017   1.993   0.092   7.578 -0.0027  0.1034  0.0107
  501MOL0     C69018   2.053   0.209   7.542  0.2767 -0.4028  1.2295
  501MOL0     C69019   2.182   0.191   7.555 -0.3302  0.4724  0.3698
  501MOL0     C69020   2.279   0.307   7.567 -0.5265  0.5044 -0.9330
  501MOL0     C69021   2.336   0.321   7.721  0.1988  0.4767  0.4016
  501MOL0     C69022   2.455   0.427   7.725  0.1938  0.7674 -1.1195
  501MOL0     C69023   2.573   0.403   7.630 -0.0484 -0.2812  0.0229
  501MOL0     O69024   2.680   0.494   7.666  0.8430 -0.1825  1.2211
  501MOL0     C69025   2.791   0.488   7.590  0.2594  0.9142  0.1241
  501MOL0     C69026   2.826   0.383   7.504 -0.6804  0.2113  0.5826
  501MOL0     C69027   2.952   0.373   7.445 -0.6449  0.5911 -0.4204
  501MOL0     C69028   2.993   0.255   7.367 -0.5713 -0.6553 -0.0491
  501MOL0     C69029   3.046   0.472   7.469 -0.1772  0.6494 -1.4190
  501MOL0     C69030   3.189   0.467   7.451 -0.2620  0.1930 -0.3589
  501MOL0     O69031   3.262   0.545   7.527  0.2519 -0.3454 -0.6990
  501MOL0     C69032   3.395   0.581   7.493 -0.4094  0.8017  0.6228
  501MOL0     C69033   3.414   0.639   7.367  0.2197 -0.2420 -0.6224
  501MOL0     C69034   3.535   0.699   7.345  0.3052  0.2565 -0.6615
  501MOL0     C69035   3.640   0.686   7.437 -0.1983  0.0581  0.4134
  501MOL0     O69036   3.776   0.729   7.417 -0.0842 -0.2639 -0.5014
  501MOL0     C69037   3.789   0.856   7.352  0.3523 -1.0864 -0.1138
  501MOL0     C69038   3.910   0.933   7.416 -0.6609  1.2399 -0.3862
  501MOL0     C69039   4.037   0.848   7.456 -0.1653 -0.1254  0.0533
  501MOL0     C69040   4.147   0.932   7.534  0.7557 -0.7168 -0.6412
  501MOL0     C69041   4.232   1.037   7.444  0.5941  0.7780 -0.6298
  501MOL0     C69042   4.331   1.121   7.525  0.5559 -0.1315 -0.6868
  501MOL0     C69043   4.408   1.215   7.437  0.9390 -0.2662 -0.4787
  501MOL0     C69044   4.332   1.337   7.410 -0.6057  0.5359  0.0701
  501MOL0    Cl69045   4.288   1.413   7.564  0.6488 -0.2304 -0.2430
  501MOL0     C69046   3.619   0.625   7.556 -0.7244  1.0224  0.1241
  501MOL0     C69047   3.501   0.573   7.591 -0.3427  0.7250 -0.0334
  501MOL0     O69048   3.239   0.385   7.373 -0.4009  0.5914 -0.3131
  501MOL0     C69049   3.010   0.580   7.547  0.2315 -0.1556  0.0351
  501MOL0     C69050   2.882   0.593   7.603 -0.3558 -1.0269  0.4766
  501MOL0     N69051   2.207   0.058   7.578 -0.2899  0.3705  0.2029
  501MOL0     N69052   2.095   0.009   7.603 -0.0272 -0.2250 -0.2300
  501MOL0     C69053   0.868   0.129   7.334 -0.7783 -0.2119 -0.5101
  501MOL0     C69054   0.752   0.141   7.258  0.7195  1.4074  0.3798
  501MOL0     C69055   0.290   0.210   7.209 -0.1523  0.3257  0.6771
  501MOL0     C69056   0.263   0.113   7.109  0.8968 -0.0648 -0.5609
  501MOL0     C69057   0.137   0.091   7.061 -0.5269  1.1236  0.4666
  501MOL0     C69058   0.025   0.150   7.107 -0.4679 -1.1362 -0.2219
  501MOL0     O69059  -0.089   0.106   7.044 -0.2319  0.1050  1.2157
  501MOL0     C69060  -0.212   0.179   7.057  0.3941 -0.1165 -0.9529
  501MOL0     C69061  -0.310   0.152   6.951 -0.3532  0.3162 -0.3755
  501MOL0     C69062  -0.330  -0.002   6.961  0.3806  0.4036 -0.2188
  501MOL0     C69063  -0.406  -0.054   6.842  1.4373  0.5505  0.3108
  501MOL0     C69064  -0.557  -0.030   6.857 -0.0171  0.3307  0.5426
  501MOL0     C69065  -0.677  -0.012   6.867  0.1906 -0.2480  0.7568
  501MOL0     C69066   0.040   0.256   7.207 -0.0915  0.1735 -0.6144
  501MOL0     C69067   0.173   0.281   7.258 -0.0187 -0.5485  0.8016
  501MOL0     C69068   0.179   0.387   7.365 -0.3550  0.1336 -0.0899
  501MOL0     H69069   0.517   0.043   7.486  1.2178 -1.7126  0.4396
  501MOL0     H69070   0.723   0.019   7.622  0.8988  0.1069 -0.6139
  501MOL0     H69071   1.086   0.236   7.500 -3.0216 -0.8978 -2.4170
  501MOL0     H69072   1.139   0.071   7.448  1.1187  0.3624 -0.7324
  501MOL0     H69073   1.138   0.204   7.713  0.8891  2.6270 -2.2483
  501MOL0     H69074   1.175   0.031   7.699 -1.6480  1.4522  0.7577
  501MOL0     H69075   1.387   0.117   7.553  0.3490 -1.7697  1.1965
  501MOL0     H69076   1.342   0.274   7.646 -0.0836 -0.2599  2.5992
  501MOL0     H69077   1.344   0.142   7.863 -1.5375  1.7959 -0.3695
  501MOL0     H69078   1.402   0.008   7.768  2.0983 -0.7320 -0.7866
  501MOL0     H69079   1.585   0.117   7.885 -2.5045 -0.3070  1.0594
  501MOL0     H69080   1.576   0.259   7.800  1.9348 -0.2946 -1.9869
  501MOL0     H69081   1.601  -0.010   7.660 -0.7565 -0.5491  1.6062
  501MOL0     H69082   1.591   0.149   7.575  1.0983 -0.6628  0.1584
  501MOL0     H69083   1.814   0.061   7.761  0.8049 -0.1140 -0.4161
  501MOL0     H69084   1.804   0.218   7.676 -0.5560  0.7106 -1.6827
  501MOL0     H69085   1.840  -0.045   7.557  0.6813 -0.1227  0.4700
  501MOL0     H69086   1.830   0.107   7.459  1.6241  0.6442 -0.1822
  501MOL0     H69087   1.999   0.302   7.529  2.8158  0.8195 -2.2134
  501MOL0     H69088   2.223   0.399   7.549 -1.2332  0.0665 -1.0649
  501MOL0     H69089   2.366   0.298   7.502  0.2346  4.1351 -0.5866
  501MOL0     H69090   2.250   0.358   7.777 -1.0031 -0.7488 -0.5856
  501MOL0     H69091   2.367   0.226   7.764 -0.3728 -0.1368 -0.5212
  501MOL0     H69092   2.406   0.523   7.703 -0.3298  0.5953 -0.7125
  501MOL0     H69093   2.504   0.422   7.822  1.3182 -0.8467 -1.7295
  501MOL0     H69094   2.599   0.299   7.653  0.0677 -0.3162 -0.2626
  501MOL0     H69095   2.540   0.419   7.527 -2.1998 -4.9385 -0.2647
  501MOL0     H69096   2.764   0.299   7.476  1.1775 -0.5637 -1.4683
  501MOL0     H69097   3.063   0.188   7.418  0.3879  2.5933  3.3560
  501MOL0     H69098   3.033   0.288   7.270 -1.7337 -0.6008 -0.5300
  501MOL0     H69099   2.905   0.193   7.348 -1.1687  0.1592  0.0220
  501MOL0     H69100   3.334   0.657   7.296 -0.0139  3.4358  0.3970
  501MOL0     H69101   3.549   0.762   7.258  1.7144 -0.0674 -0.6860
  501MOL0     H69102   3.802   0.834   7.246 -2.7529 -2.8837 -0.2152
  501MOL0     H69103   3.702   0.922   7.356  2.3472  1.7051  0.7642
  501MOL0     H69104   3.934   1.000   7.333 -1.1935  3.4759  1.1568
  501MOL0     H69105   3.880   0.996   7.501  0.1436 -0.0387  0.8981
  501MOL0     H69106   4.079   0.820   7.360  1.4111  2.7495 -0.1899
  501MOL0     H69107   4.015   0.758   7.515  1.8120 -0.5456  0.2183
  501MOL0     H69108   4.215   0.863   7.585  1.3416  0.2111 -0.1166
  501MOL0     H69109   4.097   0.981   7.618  1.8438  0.2761 -0.5476
  501MOL0     H69110   4.284   0.988   7.361  1.7551  0.9804 -0.0393
  501MOL0     H69111   4.168   1.111   7.395 -1.3252 -0.1445  0.3583
  501MOL0     H69112   4.400   1.048   7.568 -0.0347  0.4520  1.3543
  501MOL0     H69113   4.283   1.173   7.608 -1.8168 -2.4363 -0.5261
  501MOL0     H69114   4.421   1.168   7.338  0.4301 -2.1118  0.2796
  501MOL0     H69115   4.507   1.234   7.479  1.4878 -2.0806 -0.8434
  501MOL0     H69116   4.244   1.316   7.349 -1.4949 -0.7975  1.7287
  501MOL0     H69117   4.388   1.411   7.352 -1.9576 -0.2855 -2.4076
  501MOL0     H69118   3.702   0.625   7.627 -0.6733  0.2506  0.0723
  501MOL0     H69119   3.484   0.528   7.688 -2.4987 -0.9405 -1.1021
  501MOL0     H69120   3.076   0.662   7.572 -0.6970 -0.1077  2.7831
  501MOL0     H69121   2.860   0.677   7.668  0.4919  0.0837 -0.6229
  501MOL0     H69122   0.960   0.141   7.278 -0.5642  1.8370  0.2025
  501MOL0     H69123   0.763   0.179   7.156 -2.5384  0.9177 -0.2632
  501MOL0     H69124   0.350   0.061   7.069  0.3219 -0.7849 -0.9025
  501MOL0     H69125   0.125   0.006   6.995 -0.0091  1.8798 -0.6114
  501MOL0     H69126  -0.264   0.157   7.150 -0.0396 -0.2623 -1.2253
  501MOL0     H69127  -0.185   0.285   7.064  1.5533 -0.0996 -4.0538
  501MOL0     H69128  -0.271   0.181   6.853  2.4149  1.0367  0.8509
  501MOL0     H69129  -0.404   0.207   6.968 -0.2108 -0.1045  2.2283
  501MOL0     H69130  -0.239  -0.062   6.952  0.2943  0.2008  0.2596
  501MOL0     H69131  -0.384  -0.036   7.050 -0.4612 -0.6786 -1.1065
  501MOL0     H69132  -0.392  -0.162   6.827 -0.7336 -0.1117  2.2825
  501MOL0     H69133  -0.365  -0.008   6.752  1.2427  0.7906  0.3449
  501MOL0     H69134  -0.783  -0.005   6.855  0.0321  0.1689  2.2662
  501MOL0     H69135  -0.045   0.308   7.248  0.6884 -0.5109  2.1677
  501MOL0     H69136   0.083   0.398   7.416  0.3662 -1.9916  1.9349
  501MOL0     H69137   0.245   0.358   7.448 -0.1933 -1.6947 -0.8087
  501MOL0     H69138   0.215   0.477   7.314 -3.6459  2.6977  1.7042
  502MOL0     O69139   3.176   4.795  11.286  0.0219  0.6096  0.2505
  502MOL0     C69140   3.070   4.845  11.260  0.3763  0.0502 -0.5006
  502MOL0     O69141   3.059   4.980  11.228  0.2925  0.6554 -0.6178
  502MOL0     C69142   3.168   5.059  11.235 -0.2663  0.6775  0.7198
  502MOL0     C69143   3.187   5.140  11.346 -0.6797 -0.6706 -0.5458
  502MOL0     C69144   3.288   5.236  11.343  0.2880  0.1967  0.6235
  502MOL0     C69145   3.373   5.256  11.230  0.0346 -0.5207 -0.1999
  502MOL0     O69146   3.474   5.345  11.236 -0.1124  0.0047  0.1360
  502MOL0     C69147   3.586   5.335  11.141  0.3004  0.9123  0.7296
  502MOL0     C69148   3.549   5.439  11.034  0.2052 -0.2869  0.2782
  502MOL0     C69149   3.644   5.417  10.908  1.0405 -0.0858 -1.0294
  502MOL0     C69150   3.598   5.509  10.798  0.6661 -0.5161 -0.2138
  502MOL0     C69151   3.686   5.516  10.677  0.2947 -0.7377  0.4160
  502MOL0     C69152   3.620   5.587  10.555  0.8072 -0.2280  0.2452
  502MOL0     C69153   3.710   5.600  10.437 -0.5679  0.1943 -0.1619
  502MOL0     C69154   3.634   5.645  10.310  0.9669  0.4138 -0.0411
  502MOL0     N69155   3.714   5.717  10.214 -0.4768 -0.3159  0.2460
  502MOL0     C69156   3.738   5.852  10.208  0.1097 -0.5446 -0.2673
  502MOL0     C69157   3.840   5.866  10.119  0.0224  0.4611 -0.4740
  502MOL0     C69158   3.920   5.991  10.082  0.7344  0.0734 -0.0881
  502MOL0     C69159   4.065   5.969  10.099 -0.0435  0.5017  0.0400
  502MOL0     C69160   4.118   5.975  10.241  0.2901  0.5178 -0.1093
  502MOL0     C69161   4.088   5.837  10.320 -0.5576 -0.3881  0.3444
  502MOL0     O69162   4.124   5.842  10.459  0.0907 -0.7699  0.4189
  502MOL0     C69163   4.029   5.854  10.554  0.3881  0.0602 -0.0227
  502MOL0     C69164   4.049   5.788  10.672 -0.8052 -0.6541 -0.0258
  502MOL0     C69165   3.959   5.782  10.769  0.3790  0.0068  0.1050
  502MOL0     C69166   3.980   5.690  10.880 -0.6786  0.3711  0.1503
  502MOL0     C69167   3.832   5.855  10.758  1.0420  0.2620  0.0605
  502MOL0     C69168   3.716   5.846  10.851 -0.1564 -0.4299  0.4489
  502MOL0     O69169   3.594   5.872  10.799  0.3161  0.3589 -0.4983
  502MOL0     C69170   3.481   5.857  10.871  0.3363  0.2432 -0.2515
  502MOL0     C69171   3.372   5.822  10.792 -0.8351  0.0976  0.0656
  502MOL0     C69172   3.251   5.779  10.844 -0.5857 -0.0065  0.3733
  502MOL0     C69173   3.228   5.792  10.984 -0.4139 -0.8478 -0.9741
  502MOL0     O69174   3.103   5.761  11.036  0.4652  0.0261  0.3969
  502MOL0     C69175   3.087   5.636  11.094  0.1910 -0.5725  0.6367
  502MOL0     C69176   3.133   5.623  11.236  0.7395  0.1768  0.3514
  502MOL0     C69177   3.058   5.508  11.308  0.5470 -0.2226  0.6872
  502MOL0     C69178   2.918   5.565  11.360  0.0302 -0.3090 -1.0226
  502MOL0     C69179   2.826   5.460  11.434 -0.2333 -0.0887  0.5472
  502MOL0     C69180   2.672   5.485  11.425 -0.5539  0.2910 -0.1493
  502MOL0     C69181   2.628   5.631  11.454 -0.4491 -0.7592 -0.3494
  502MOL0     C69182   2.475   5.660  11.412  0.1630  0.1494 -0.1760
  502MOL0    Cl69183   2.356   5.577  11.520 -0.7393 -0.0233  0.4935
  502MOL0     C69184   3.332   5.832  11.069 -1.1807  0.0022 -0.0038
  502MOL0     C69185   3.467   5.858  11.014  0.1455 -0.0928 -0.2300
  502MOL0     O69186   3.737   5.827  10.967  0.1329 -0.9030  0.3229
  502MOL0     C69187   3.812   5.928  10.632  0.3394 -0.5484  0.8093
  502MOL0     C69188   3.910   5.929  10.531  0.2506 -0.8233  0.0516
  502MOL0     N69189   3.865   5.744  10.054  0.3447  0.0895  0.4034
  502MOL0     N69190   3.794   5.660  10.119 -0.7099 -0.0003 -0.2549
  502MOL0     C69191   3.337   5.183  11.115  0.1024 -0.0762 -1.0572
  502MOL0     C69192   3.239   5.088  11.119  0.6288 -0.3458  0.0283
  502MOL0     C69193   2.947   4.770  11.249  0.3248  0.2928 -0.9083
  502MOL0     C69194   2.914   4.692  11.361 -0.6975  0.2416 -0.7160
  502MOL0     C69195   2.796   4.631  11.374 -0.2005 -0.3257 -0.2889
  502MOL0     C69196   2.698   4.650  11.283  0.3254 -0.2366 -0.3762
  502MOL0     O69197   2.572   4.591  11.285 -0.4138  0.3208 -0.1124
  502MOL0     C69198   2.542   4.491  11.383  0.3967  0.3430 -0.4573
  502MOL0     C69199   2.596   4.355  11.354  0.5838  0.0600  0.1373
  502MOL0     C69200   2.528   4.310  11.227  0.0304  0.2021 -0.0765
  502MOL0     C69201   2.565   4.163  11.192 -0.6646 -0.0269  0.3894
  502MOL0     C69202   2.464   4.122  11.102  0.1566  0.0058 -0.2283
  502MOL0     C69203   2.386   4.070  11.022  0.2428  0.1592  0.0298
  502MOL0     C69204   2.725   4.726  11.172  0.6190 -0.0662  0.0887
  502MOL0     C69205   2.844   4.793  11.152  0.4930 -0.6916 -0.6118
  502MOL0     C69206   2.853   4.878  11.031 -0.9650 -0.3994  0.1282
  502MOL0     H69207   3.130   5.128  11.438 -0.9955  0.3839 -0.5862
  502MOL0     H69208   3.305   5.287  11.438  1.5221 -0.8800  1.0154
  502MOL0     H69209   3.593   5.232  11.104  0.9261  1.0765  0.3851
  502MOL0     H69210   3.678   5.362  11.193  0.9673  0.4439 -0.1835
  502MOL0     H69211   3.447   5.421  10.997  0.4609 -0.1791 -0.4885
  502MOL0     H69212   3.564   5.540  11.073 -0.0019 -0.8254  1.8331
  502MOL0     H69213   3.746   5.441  10.939  1.5120  1.1853 -3.3368
  502MOL0     H69214   3.635   5.316  10.867  3.1962 -0.0463 -1.7150
  502MOL0     H69215   3.500   5.468  10.775 -1.3304  3.9474 -0.7350
  502MOL0     H69216   3.596   5.611  10.838  2.9473 -0.8205  0.8504
  502MOL0     H69217   3.720   5.417  10.646  1.3992 -0.0657 -0.5936
  502MOL0     H69218   3.778   5.567  10.706  0.3150 -0.1248 -0.6892
  502MOL0     H69219   3.535   5.526  10.521  1.6793 -2.0963  1.2404
  502MOL0     H69220   3.577   5.683  10.584  0.1690  0.4090 -2.5163
  502MOL0     H69221   3.753   5.501  10.424 -2.8407 -0.7697 -0.8742
  502MOL0     H69222   3.793   5.662  10.473  0.0959 -2.5846  3.7722
  502MOL0     H69223   3.588   5.558  10.262 -1.3592 -0.0662  2.7817
  502MOL0     H69224   3.547   5.705  10.335  0.3203  0.0739 -1.3822
  502MOL0     H69225   3.686   5.924  10.270  1.4378 -0.5640  0.9247
  502MOL0     H69226   3.891   6.081  10.136  2.6603 -0.7438  2.5172
  502MOL0     H69227   3.899   6.008   9.976 -0.2515  0.5496  0.1826
  502MOL0     H69228   4.095   5.883  10.038 -1.0101  0.2785 -0.1366
  502MOL0     H69229   4.118   6.050  10.048 -0.4770 -0.3217 -1.7788
  502MOL0     H69230   4.227   5.971  10.239  0.2597 -3.5911 -0.2444
  502MOL0     H69231   4.080   6.059  10.301 -4.2259  0.0426 -1.9347
  502MOL0     H69232   3.985   5.800  10.331 -0.4097 -0.8964  0.0519
  502MOL0     H69233   4.144   5.754  10.276 -0.9403 -0.3526 -0.2317
  502MOL0     H69234   4.139   5.732  10.694 -1.3818 -1.8222 -0.5302
  502MOL0     H69235   3.897   5.624  10.908 -0.9157 -0.4258 -2.2191
  502MOL0     H69236   4.008   5.750  10.968  0.5947 -0.8993  0.6412
  502MOL0     H69237   4.063   5.623  10.858  0.4239  1.4371  0.8861
  502MOL0     H69238   3.379   5.822  10.684  1.0468  0.1243  0.1506
  502MOL0     H69239   3.174   5.749  10.774 -0.2627  1.7586 -0.8019
  502MOL0     H69240   2.985   5.598  11.078 -0.1922  0.5617  0.2777
  502MOL0     H69241   3.135   5.562  11.029  0.0716  1.1456 -1.5186
  502MOL0     H69242   3.238   5.597  11.227  1.4855  2.8010  0.6022
  502MOL0     H69243   3.119   5.718  11.289 -2.4293  1.1453 -1.9341
  502MOL0     H69244   3.126   5.463  11.382  0.2165  0.5784  1.4968
  502MOL0     H69245   3.027   5.434  11.234 -0.9676 -0.5551  1.6145
  502MOL0     H69246   2.857   5.600  11.276 -0.9386  0.1781 -0.1373
  502MOL0     H69247   2.927   5.651  11.427 -0.0149 -1.0675 -0.0147
  502MOL0     H69248   2.846   5.370  11.374  2.7938  2.3921 -2.6119
  502MOL0     H69249   2.857   5.459  11.539 -0.1392  1.6724  0.5670
  502MOL0     H69250   2.614   5.411  11.482 -0.0958 -0.8283 -1.1029
  502MOL0     H69251   2.647   5.467  11.320  1.5798  1.3947 -0.9035
  502MOL0     H69252   2.690   5.704  11.402 -0.7734  0.5075  0.9816
  502MOL0     H69253   2.637   5.637  11.563  2.5518  1.9705 -0.5848
  502MOL0     H69254   2.452   5.642  11.307 -4.8979  0.8037  0.5605
  502MOL0     H69255   2.447   5.766  11.417 -3.4194 -0.5367 -2.3622
  502MOL0     H69256   3.318   5.837  11.176 -1.4767 -2.2756  0.1163
  502MOL0     H69257   3.548   5.880  11.082  1.1899  0.8426 -1.7194
  502MOL0     H69258   3.718   5.979  10.618 -0.0798 -1.0635  1.6460
  502MOL0     H69259   3.886   5.994  10.447  0.4496 -0.1492  0.5029
  502MOL0     H69260   3.395   5.192  11.024  4.6550 -1.4522  1.4084
  502MOL0     H69261   3.197   5.039  11.032  0.3650  1.6567 -1.0430
  502MOL0     H69262   2.982   4.680  11.446 -2.6541 -1.1240  0.7419
  502MOL0     H69263   2.786   4.575  11.467 -0.9834  0.4017  0.0910
  502MOL0     H69264   2.575   4.517  11.484 -0.9153 -0.3992  0.1883
  502MOL0     H69265   2.434   4.479  11.395  0.7227 -2.1614  0.4332
  502MOL0     H69266   2.579   4.292  11.442 -0.0395 -0.5779 -0.4246
  502MOL0     H69267   2.703   4.354  11.333  0.5713  0.4700  0.0523
  502MOL0     H69268   2.421   4.318  11.250  0.0426 -2.8210  1.4765
  502MOL0     H69269   2.565   4.381  11.153 -0.9222  1.6307  0.7669
  502MOL0     H69270   2.561   4.104  11.284  0.5419 -0.5115  0.1472
  502MOL0     H69271   2.663   4.156  11.143 -0.9232  1.1738 -0.3476
  502MOL0     H69272   2.315   4.027  10.954 -0.7870  3.6319 -1.3019
  502MOL0     H69273   2.632   4.728  11.116 -1.0520  1.3272  2.7112
  502MOL0     H69274   2.786   4.964  11.044 -1.1311 -0.2843 -1.3059
  502MOL0     H69275   2.956   4.910  11.012  0.3707 -3.5295  1.4637
  502MOL0     H69276   2.822   4.821  10.943  0.2221 -2.8200  1.1850
  503MOL0     O69277   2.678  10.809  10.959 -0.5560  0.8572  0.0386
  503MOL0     C69278   2.656  10.699  11.003 -0.1621  0.2873  0.4112
  503MOL0     O69279   2.752  10.610  11.038  0.0834  0.4095 -0.0950
  503MOL0     C69280   2.881  10.612  10.996 -0.5069  0.4710 -0.5047
  503MOL0     C69281   2.964  10.501  11.035 -0.2096 -0.3198  0.3172
  503MOL0     C69282   3.100  10.499  11.001  0.1670 -0.6872 -0.5253
  503MOL0     C69283   3.167  10.603  10.930 -0.0952  0.6019  0.3688
  503MOL0     O69284   3.305  10.581  10.913  0.0966 -0.0048 -0.6557
  503MOL0     C69285   3.373  10.683  10.832 -0.0234 -0.5273 -0.3772
  503MOL0     C69286   3.510  10.641  10.780 -0.0983 -1.3412  0.4212
  503MOL0     C69287   3.589  10.764  10.726 -0.4442 -0.1860 -0.2447
  503MOL0     C69288   3.719  10.718  10.660 -0.5033  0.3391 -0.3501
  503MOL0     C69289   3.842  10.681  10.746 -0.6576  0.2125  0.3090
  503MOL0     C69290   3.974  10.670  10.666  0.2699 -0.2785 -0.2592
  503MOL0     C69291   4.089  10.623  10.759 -1.0174 -0.0423  0.9250
  503MOL0     C69292   4.227  10.662  10.690 -0.0614 -0.2307  0.5033
  503MOL0     N69293   4.342  10.663  10.787  0.5626 -0.4818  0.4491
  503MOL0     C69294   4.456  10.735  10.780 -0.3789  0.3544 -0.0805
  503MOL0     C69295   4.543  10.674  10.861  0.4009 -0.3704 -1.2998
  503MOL0     C69296   4.686  10.711  10.887  0.0836 -0.2729  0.5847
  503MOL0     C69297   4.766  10.727  10.753 -0.8615 -0.1704  0.2810
  503MOL0     C69298   4.793  10.594  10.695 -0.0421 -0.2460 -0.0889
  503MOL0     C69299   4.923  10.591  10.607 -0.6396  0.1831  0.3521
  503MOL0     O69300   5.044  10.574  10.683 -0.2730  0.3259  0.9628
  503MOL0     C69301   5.170  10.573  10.621 -0.9358  0.5156 -0.7899
  503MOL0     C69302   5.185  10.586  10.485 -0.5468  0.2937  0.3754
  503MOL0     C69303   5.315  10.582  10.425  0.5994  0.7696  0.3102
  503MOL0     C69304   5.317  10.588  10.266 -0.0153 -0.4716 -0.0619
  503MOL0     C69305   5.434  10.559  10.507  0.4672  0.2980  0.1591
  503MOL0     C69306   5.578  10.514  10.460  0.2214  0.0571  0.4059
  503MOL0     O69307   5.661  10.462  10.561  0.0151  0.0280 -0.2050
  503MOL0     C69308   5.795  10.448  10.541 -0.6331 -0.1694 -0.5437
  503MOL0     C69309   5.849  10.322  10.516  0.6968 -0.3838 -0.7281
  503MOL0     C69310   5.986  10.304  10.499 -0.1678 -0.4552  0.2225
  503MOL0     C69311   6.075  10.406  10.510 -0.4025  0.1940  0.7546
  503MOL0     O69312   6.213  10.395  10.513 -0.2321 -0.1328 -0.9803
  503MOL0     C69313   6.260  10.314  10.411  0.6832 -0.6771  0.6897
  503MOL0     C69314   6.409  10.327  10.400 -0.3226  0.2104 -0.0280
  503MOL0     C69315   6.440  10.467  10.379 -0.2631  0.1814 -0.3172
  503MOL0     C69316   6.591  10.497  10.359  0.7288 -0.2954 -0.6653
  503MOL0     C69317   6.621  10.646  10.368  0.5834  0.0982  0.7735
  503MOL0     C69318   6.563  10.735  10.249 -0.7486 -0.1168  0.2351
  503MOL0     C69319   6.623  10.881  10.245 -0.3957  0.4401 -0.4144
  503MOL0     C69320   6.590  10.961  10.126 -0.4155  0.0679 -0.2068
  503MOL0    Cl69321   6.703  10.898  10.005 -0.4249  0.3011  0.4484
  503MOL0     C69322   6.029  10.530  10.551  0.1895  0.4646  0.6139
  503MOL0     C69323   5.888  10.555  10.548 -0.4021 -0.6244 -0.2327
  503MOL0     O69324   5.604  10.530  10.346 -0.3144  0.3612  0.3696
  503MOL0     C69325   5.408  10.563  10.649  0.5999  0.0357  0.6756
  503MOL0     C69326   5.278  10.578  10.707 -0.2150 -0.7879 -0.0984
  503MOL0     N69327   4.493  10.557  10.910  1.2346  0.0847  0.3194
  503MOL0     N69328   4.366  10.554  10.868 -0.0491 -0.1876 -0.2768
  503MOL0     C69329   3.085  10.709  10.887  0.3709 -0.1853 -0.2767
  503MOL0     C69330   2.948  10.712  10.923  0.0049 -0.8883 -0.6761
  503MOL0     C69331   2.517  10.645  11.008  0.1919  0.0466  0.9278
  503MOL0     C69332   2.492  10.539  11.103 -0.4880 -0.7889  0.8689
  503MOL0     C69333   2.358  10.505  11.120  0.2755 -0.2154  0.3917
  503MOL0     C69334   2.255  10.545  11.034  0.3479 -0.1738  0.3461
  503MOL0     O69335   2.127  10.490  11.049  0.0489  0.5415 -0.0682
  503MOL0     C69336   2.015  10.541  10.981 -0.8056 -0.3690  0.4796
  503MOL0     C69337   1.962  10.675  11.036 -0.3263  0.3977  0.2186
  503MOL0     C69338   1.846  10.652  11.137  0.0292  0.0936 -0.0354
  503MOL0     C69339   1.784  10.791  11.174 -0.4417  0.6256  0.4878
  503MOL0     C69340   1.664  10.784  11.260 -0.7018 -0.0457  0.4807
  503MOL0     C69341   1.561  10.786  11.318 -0.4656 -0.4848 -1.0358
  503MOL0     C69342   2.292  10.646  10.935 -0.2018  0.5817  0.1158
  503MOL0     C69343   2.419  10.696  10.927 -0.5598 -0.1959 -1.0070
  503MOL0     C69344   2.437  10.809  10.830  0.4043  1.3998 -0.0948
  503MOL0     H69345   2.931  10.411  11.088  1.7518 -0.6225  1.0840
  503MOL0     H69346   3.165  10.417  11.029  1.6062  0.7626  0.5995
  503MOL0     H69347   3.378  10.775  10.891 -1.3646 -1.0174  0.5567
  503MOL0     H69348   3.321  10.709  10.739 -0.2178 -4.5049 -1.5973
  503MOL0     H69349   3.560  10.601  10.869 -0.8604  1.0431  2.0188
  503MOL0     H69350   3.506  10.565  10.702 -0.1891 -1.0881  0.1779
  503MOL0     H69351   3.518  10.816  10.661 -2.3949 -4.0358 -1.5276
  503MOL0     H69352   3.624  10.827  10.808  0.7184 -2.0278  0.7485
  503MOL0     H69353   3.696  10.641  10.586 -1.4568  1.5071 -1.3244
  503MOL0     H69354   3.756  10.804  10.603  1.0615  0.5911  0.9769
  503MOL0     H69355   3.820  10.587  10.796  0.6146  0.2831  1.0523
  503MOL0     H69356   3.850  10.751  10.829 -0.8286 -1.4879  1.8116
  503MOL0     H69357   3.972  10.601  10.581  1.4633 -2.2605  1.2531
  503MOL0     H69358   3.988  10.773  10.632 -0.8750 -0.0948 -0.2206
  503MOL0     H69359   4.082  10.517  10.787  0.3052 -0.5020 -0.3973
  503MOL0     H69360   4.075  10.674  10.855 -2.3555 -2.9304  2.3885
  503MOL0     H69361   4.259  10.590  10.614  2.5403  2.3435 -1.0517
  503MOL0     H69362   4.218  10.764  10.651  1.9468  1.2564  3.6031
  503MOL0     H69363   4.480  10.817  10.712  0.6232 -1.4796 -2.0588
  503MOL0     H69364   4.740  10.633  10.942  2.2293 -2.3289 -3.8088
  503MOL0     H69365   4.690  10.816  10.915 -3.7472  1.1859 -3.2191
  503MOL0     H69366   4.705  10.782  10.682 -0.5488 -0.9311 -0.5911
  503MOL0     H69367   4.856  10.785  10.773 -0.2607 -1.8068  2.8520
  503MOL0     H69368   4.803  10.531  10.785  2.0529 -0.4566 -0.4126
  503MOL0     H69369   4.706  10.558  10.640 -1.5559 -0.3438  2.2192
  503MOL0     H69370   4.913  10.510  10.533  0.5135  0.5563 -0.2378
  503MOL0     H69371   4.932  10.684  10.551  4.9705 -0.4460 -0.4052
  503MOL0     H69372   5.100  10.588  10.418 -0.6582 -0.3697  0.4818
  503MOL0     H69373   5.319  10.488  10.222  0.4189  0.2603 -1.7843
  503MOL0     H69374   5.405  10.646  10.238 -0.0054  0.5483  1.8716
  503MOL0     H69375   5.227  10.638  10.229  0.6004 -0.6286 -1.8524
  503MOL0     H69376   5.780  10.238  10.506  0.6904 -0.2483 -1.9868
  503MOL0     H69377   6.006  10.199  10.480 -2.6990 -1.4118  2.1533
  503MOL0     H69378   6.234  10.213  10.444  1.2800 -1.7546 -1.8954
  503MOL0     H69379   6.203  10.333  10.320  1.3902 -0.2447  0.3290
  503MOL0     H69380   6.449  10.297  10.497  0.0960  0.2959 -0.1718
  503MOL0     H69381   6.450  10.261  10.324  0.7007  0.5476  0.2197
  503MOL0     H69382   6.408  10.539  10.455  0.2163  0.9107 -0.8010
  503MOL0     H69383   6.388  10.502  10.290 -2.0213 -1.4298  0.0006
  503MOL0     H69384   6.615  10.455  10.261 -1.6446 -1.6196 -0.7630
  503MOL0     H69385   6.650  10.463  10.444 -2.3493  0.9630  2.1971
  503MOL0     H69386   6.592  10.689  10.465 -1.5002  1.7334 -0.4780
  503MOL0     H69387   6.729  10.642  10.351  0.1875  1.0750 -2.7447
  503MOL0     H69388   6.454  10.732  10.251 -0.9075 -4.5160  3.6675
  503MOL0     H69389   6.580  10.696  10.148  2.5222  0.1981  0.5320
  503MOL0     H69390   6.732  10.877  10.253 -0.3673 -1.7041 -1.1821
  503MOL0     H69391   6.592  10.934  10.335  0.4919  0.2102  0.0358
  503MOL0     H69392   6.615  11.066  10.145  0.1653 -0.5372  2.8620
  503MOL0     H69393   6.487  10.949  10.090 -1.0884 -1.4384  1.9706
  503MOL0     H69394   6.103  10.608  10.563  0.1984  0.7823 -1.3020
  503MOL0     H69395   5.852  10.654  10.578 -1.8033 -1.5666  1.4044
  503MOL0     H69396   5.494  10.556  10.714  0.6195  1.1664  0.7968
  503MOL0     H69397   5.274  10.587  10.815  1.3542  1.0959 -0.1350
  503MOL0     H69398   3.130  10.783  10.821  1.8319 -1.1443 -0.4085
  503MOL0     H69399   2.901  10.805  10.895  1.3989 -0.2950 -1.1350
  503MOL0     H69400   2.566  10.517  11.179 -0.6604 -0.0302  1.2749
  503MOL0     H69401   2.341  10.437  11.203 -2.6148  1.1779  1.0985
  503MOL0     H69402   2.047  10.543  10.876  1.0329 -2.3127  0.9380
  503MOL0     H69403   1.935  10.466  10.982 -0.0853 -1.3776 -3.1342
  503MOL0     H69404   1.919  10.730  10.952 -1.0177  1.6895  1.3778
  503MOL0     H69405   2.047  10.725  11.084  0.0398 -1.4650  1.6261
  503MOL0     H69406   1.766  10.586  11.103 -0.3127  0.4283  0.1137
  503MOL0     H69407   1.883  10.596  11.224 -0.1453 -0.1861 -0.1432
  503MOL0     H69408   1.759  10.846  11.083 -3.2105 -2.8198 -1.0458
  503MOL0     H69409   1.860  10.856  11.219  0.5544 -0.1491 -0.0330
  503MOL0     H69410   1.466  10.791  11.367 -0.0093 -4.1596  0.5177
  503MOL0     H69411   2.217  10.687  10.868  0.5941  0.2655 -0.9968
  503MOL0     H69412   2.353  10.826  10.762 -1.3567 -1.4091  1.1969
  503MOL0     H69413   2.453  10.896  10.895 -1.6627  0.2335  2.1010
  503MOL0     H69414   2.528  10.795  10.771 -0.3117 -0.7387 -0.7734
  504MOL0     O69415   5.634   6.480   2.761 -0.1909  0.4210 -0.0504
  504MOL0     C69416   5.601   6.542   2.654  0.2850  0.1112 -0.3528
  504MOL0     O69417   5.672   6.624   2.575  0.8060  0.3914 -0.3814
  504MOL0     C69418   5.807   6.636   2.606  0.1276 -0.3710 -0.2574
  504MOL0     C69419   5.848   6.761   2.658 -0.3392 -0.0764 -1.4109
  504MOL0     C69420   5.988   6.775   2.697  0.0743  0.2310  0.8822
  504MOL0     C69421   6.079   6.670   2.686 -0.6215  0.2635  0.3214
  504MOL0     O69422   6.210   6.697   2.727  0.1207  0.2643  0.0671
  504MOL0     C69423   6.314   6.623   2.667 -0.2672 -0.2366 -0.5857
  504MOL0     C69424   6.431   6.715   2.667 -0.0537  0.0461 -0.1621
  504MOL0     C69425   6.420   6.841   2.572  0.0008 -0.3075  0.3996
  504MOL0     C69426   6.554   6.887   2.520 -0.6572 -0.2252  0.0726
  504MOL0     C69427   6.560   7.022   2.452  0.2979 -0.1713 -0.1369
  504MOL0     C69428   6.699   7.093   2.435 -0.3501 -0.5443 -0.0339
  504MOL0     C69429   6.794   6.993   2.363 -0.2066  0.6504  0.0569
  504MOL0     C69430   6.920   7.059   2.330  0.3046 -0.0844 -0.8495
  504MOL0     N69431   6.910   7.163   2.224  0.6892 -0.0812  0.6128
  504MOL0     C69432   6.936   7.128   2.097  0.2371  0.3443  0.2932
  504MOL0     C69433   6.886   7.218   2.011 -0.8240  0.1832  0.4123
  504MOL0     C69434   6.883   7.230   1.861  0.3216 -0.0110  0.1633
  504MOL0     C69435   6.923   7.369   1.811  0.2351 -0.0261  0.0693
  504MOL0     C69436   7.066   7.414   1.815 -0.2836 -0.0193 -0.4120
  504MOL0     C69437   7.094   7.549   1.752  0.8043 -0.2564  0.0524
  504MOL0     O69438   7.099   7.542   1.610  0.5175  0.5060 -0.2130
  504MOL0     C69439   7.137   7.657   1.544 -0.9215  0.7661 -0.0681
  504MOL0     C69440   7.178   7.773   1.604 -0.3308  0.0659 -0.1706
  504MOL0     C69441   7.237   7.866   1.525 -0.2163  0.1007 -1.1493
  504MOL0     C69442   7.264   8.001   1.594  0.0959  0.7732  0.2744
  504MOL0     C69443   7.260   7.846   1.385 -0.1330 -0.0942 -0.2747
  504MOL0     C69444   7.327   7.944   1.298  0.1097  0.8690  0.8186
  504MOL0     O69445   7.302   8.078   1.314 -0.2161  0.0999  0.6698
  504MOL0     C69446   7.359   8.179   1.247 -0.0406 -0.0194  0.1954
  504MOL0     C69447   7.279   8.284   1.197  0.1095  0.1088 -0.2770
  504MOL0     C69448   7.336   8.384   1.106 -0.3205  0.2193 -0.5152
  504MOL0     C69449   7.474   8.377   1.071 -0.2031  0.3713 -0.3458
  504MOL0     O69450   7.537   8.459   0.976  0.1439  0.1174  0.2264
  504MOL0     C69451   7.458   8.575   0.934  0.6210  0.0893  0.1065
  504MOL0     C69452   7.545   8.660   0.847 -0.2524 -0.0339  0.0730
  504MOL0     C69453   7.480   8.791   0.817 -0.1341 -0.2762 -0.4837
  504MOL0     C69454   7.575   8.902   0.765 -0.1858 -1.0354 -0.4515
  504MOL0     C69455   7.494   9.026   0.734  0.4924  0.3867  0.3412
  504MOL0     C69456   7.573   9.151   0.702  0.5512 -0.2525 -0.1579
  504MOL0     C69457   7.471   9.263   0.681  0.0235  0.6290 -0.8158
  504MOL0     C69458   7.542   9.389   0.640  0.5056  0.3064  0.1322
  504MOL0    Cl69459   7.693   9.431   0.735  0.0549  0.1060  0.0342
  504MOL0     C69460   7.550   8.274   1.117 -0.1793  0.0945  1.0269
  504MOL0     C69461   7.490   8.185   1.205  0.1535  0.6000 -0.5746
  504MOL0     O69462   7.387   7.891   1.203  0.5223  0.1812  0.2111
  504MOL0     C69463   7.216   7.724   1.324 -0.9220 -0.1711  0.2912
  504MOL0     C69464   7.154   7.633   1.401  0.0178 -0.8317  0.0001
  504MOL0     N69465   6.840   7.321   2.097  0.4077 -0.5443 -0.0449
  504MOL0     N69466   6.853   7.285   2.221  0.3485 -0.0443  0.0617
  504MOL0     C69467   6.031   6.541   2.654  0.9590 -0.2572 -0.9248
  504MOL0     C69468   5.895   6.528   2.622  0.6770  0.3780 -0.4208
  504MOL0     C69469   5.467   6.499   2.607  0.3061  0.0297  0.0822
  504MOL0     C69470   5.461   6.479   2.470 -0.3542  0.8067  0.0458
  504MOL0     C69471   5.334   6.457   2.409 -0.4618 -0.2783 -0.2148
  504MOL0     C69472   5.215   6.438   2.489 -0.6162  1.2218  0.7215
  504MOL0     O69473   5.087   6.428   2.436 -0.5185 -0.3128 -0.5127
  504MOL0     C69474   5.057   6.342   2.330  0.0599 -0.0497 -0.2498
  504MOL0     C69475   5.047   6.193   2.366 -0.3951  0.2413  0.8214
  504MOL0     C69476   4.909   6.148   2.426  0.2759 -1.4549  1.0690
  504MOL0     C69477   4.901   5.995   2.432 -0.3928 -0.7158 -0.3192
  504MOL0     C69478   4.781   5.945   2.487 -0.0833 -0.2542  0.7726
  504MOL0     C69479   4.664   5.909   2.511 -0.8257  0.0939  0.8062
  504MOL0     C69480   5.231   6.433   2.622 -0.2787 -0.0315 -0.2551
  504MOL0     C69481   5.350   6.476   2.684 -0.3433 -0.4029  0.2710
  504MOL0     C69482   5.342   6.504   2.825  0.4571 -1.0604 -0.8896
  504MOL0     H69483   5.795   6.855   2.659  2.7475  1.8347 -0.0313
  504MOL0     H69484   6.023   6.871   2.731  1.1342 -0.0455  0.5951
  504MOL0     H69485   6.277   6.604   2.566  0.9848  0.9292 -1.2908
  504MOL0     H69486   6.329   6.529   2.721  0.8024  1.0796  1.5309
  504MOL0     H69487   6.462   6.746   2.767 -0.5032  0.7865 -0.2433
  504MOL0     H69488   6.523   6.673   2.626  0.3128  1.5275 -0.9596
  504MOL0     H69489   6.363   6.825   2.480  0.9345 -1.6153  0.0087
  504MOL0     H69490   6.372   6.923   2.626  0.1718  0.1178 -0.0832
  504MOL0     H69491   6.608   6.885   2.616 -3.4229  0.0838  1.7669
  504MOL0     H69492   6.598   6.807   2.461  2.6820  2.2027 -0.9763
  504MOL0     H69493   6.498   7.093   2.509 -0.5223 -0.1523 -1.0186
  504MOL0     H69494   6.506   7.008   2.358 -0.2066  1.8478 -0.1972
  504MOL0     H69495   6.682   7.181   2.373  1.2970 -0.2524 -0.1138
  504MOL0     H69496   6.749   7.132   2.523  1.8779 -1.6946 -0.6877
  504MOL0     H69497   6.747   6.950   2.274 -0.1897 -0.8913  0.7513
  504MOL0     H69498   6.813   6.910   2.432  1.0302  0.4513 -0.5063
  504MOL0     H69499   6.970   7.089   2.423  1.6822 -0.4465 -1.4430
  504MOL0     H69500   6.991   6.984   2.293  1.8446  1.3840 -0.9718
  504MOL0     H69501   6.985   7.034   2.072  0.4839  0.2066  1.2350
  504MOL0     H69502   6.785   7.205   1.819  1.7983 -2.0785 -2.3300
  504MOL0     H69503   6.950   7.161   1.809 -0.6010 -1.2308  0.5289
  504MOL0     H69504   6.891   7.365   1.706 -0.9550  0.4568  0.3961
  504MOL0     H69505   6.870   7.452   1.860 -1.8895  0.6163 -3.0218
  504MOL0     H69506   7.081   7.435   1.922  3.4462  1.6110 -1.0804
  504MOL0     H69507   7.136   7.340   1.778 -0.8654 -0.2376 -1.0850
  504MOL0     H69508   7.017   7.620   1.784  0.9397  0.3143 -0.8592
  504MOL0     H69509   7.191   7.584   1.788  0.8178  0.4240 -0.6283
  504MOL0     H69510   7.156   7.790   1.709 -0.9607  1.7357 -0.5569
  504MOL0     H69511   7.182   8.065   1.559  1.5320  1.7486 -1.4904
  504MOL0     H69512   7.354   8.051   1.558 -0.3660  3.1379  2.1432
  504MOL0     H69513   7.269   7.986   1.702 -1.7173  1.0558  0.4345
  504MOL0     H69514   7.176   8.292   1.232  0.5546 -1.2766  1.4334
  504MOL0     H69515   7.277   8.469   1.073 -1.6365 -1.3970 -2.6374
  504MOL0     H69516   7.369   8.541   0.881  0.2081  1.8171 -0.3494
  504MOL0     H69517   7.431   8.637   1.021  1.2409 -0.7691  0.9365
  504MOL0     H69518   7.639   8.674   0.902  0.6248 -0.4420 -1.2521
  504MOL0     H69519   7.558   8.608   0.751 -0.9575 -0.2204  0.0761
  504MOL0     H69520   7.426   8.821   0.907  3.3687  0.1257  1.6671
  504MOL0     H69521   7.407   8.775   0.737  0.7956  1.1429 -1.6629
  504MOL0     H69522   7.627   8.865   0.676  4.2527  0.4299  1.2230
  504MOL0     H69523   7.657   8.914   0.838  1.1843  1.4136 -2.2261
  504MOL0     H69524   7.454   9.002   0.635  1.7758  1.2123 -0.4014
  504MOL0     H69525   7.419   9.041   0.813 -0.3299 -0.5413 -0.2378
  504MOL0     H69526   7.639   9.120   0.621 -0.2240  0.3062 -1.0274
  504MOL0     H69527   7.641   9.183   0.782  1.3387  0.9650 -1.2780
  504MOL0     H69528   7.425   9.277   0.778  2.1088 -0.5304  0.4276
  504MOL0     H69529   7.390   9.245   0.610 -0.0332 -0.9149 -0.4029
  504MOL0     H69530   7.475   9.475   0.649  0.8526  0.4717  1.5074
  504MOL0     H69531   7.568   9.383   0.534  1.7108  2.2428  0.2632
  504MOL0     H69532   7.653   8.272   1.084  0.2837  2.9740  2.0591
  504MOL0     H69533   7.555   8.113   1.253 -0.9475  1.2604  2.1152
  504MOL0     H69534   7.236   7.708   1.219  1.7955 -0.0557  0.7002
  504MOL0     H69535   7.120   7.539   1.358 -1.6108 -0.6505  0.7997
  504MOL0     H69536   6.097   6.454   2.658  1.2871 -0.0091  2.5169
  504MOL0     H69537   5.866   6.425   2.601  5.6554 -1.1975 -1.0661
  504MOL0     H69538   5.554   6.469   2.416 -0.4931 -0.4416 -0.0123
  504MOL0     H69539   5.337   6.464   2.301  0.6750 -0.2871 -0.2026
  504MOL0     H69540   4.970   6.386   2.280  0.7224  2.5712  0.7130
  504MOL0     H69541   5.136   6.349   2.255  0.1213  0.5194 -0.1431
  504MOL0     H69542   5.120   6.171   2.445  1.3052  0.8390 -0.5136
  504MOL0     H69543   5.071   6.140   2.274 -0.2941 -0.6623  1.3634
  504MOL0     H69544   4.904   6.197   2.524 -1.2891 -0.3518  0.4694
  504MOL0     H69545   4.824   6.182   2.367 -0.6664 -2.6684  1.6894
  504MOL0     H69546   4.980   5.957   2.498 -1.3470 -0.1476  1.2128
  504MOL0     H69547   4.929   5.954   2.334  0.7746 -1.6790  0.3816
  504MOL0     H69548   4.563   5.879   2.532 -0.7925  0.5950  1.7414
  504MOL0     H69549   5.142   6.410   2.680 -1.5626  2.1414 -1.2440
  504MOL0     H69550   5.376   6.606   2.845  1.8078 -1.4980 -0.8444
  504MOL0     H69551   5.238   6.489   2.856  0.2555  0.5649 -0.6485
  504MOL0     H69552   5.411   6.437   2.876  0.9067  0.0110 -0.0491
  505MOL0     O69553   7.572   0.028   7.260  0.3250  0.0945  0.4288
  505MOL0     C69554   7.539   0.058   7.370  0.5074  0.5506  0.8651
  505MOL0     O69555   7.614   0.045   7.485 -0.5575 -0.3848  0.1703
  505MOL0     C69556   7.729  -0.028   7.483 -0.5754 -0.4888  0.4674
  505MOL0     C69557   7.854   0.035   7.493 -0.8180 -0.2145 -0.6023
  505MOL0     C69558   7.968  -0.036   7.479  0.6191 -0.0222 -0.0725
  505MOL0     C69559   7.969  -0.181   7.466  0.0228  0.5216  0.0949
  505MOL0     O69560   8.088  -0.243   7.464  0.4470 -1.1100 -0.4658
  505MOL0     C69561   8.099  -0.379   7.424 -0.3184  0.4349 -0.5493
  505MOL0     C69562   8.243  -0.420   7.408 -0.7899 -0.0982  0.3072
  505MOL0     C69563   8.308  -0.452   7.544  0.3891  0.2160  0.5751
  505MOL0     C69564   8.465  -0.443   7.518  0.7282  0.7174  0.4035
  505MOL0     C69565   8.541  -0.441   7.645 -0.3021 -0.7458 -0.5205
  505MOL0     C69566   8.691  -0.448   7.626  0.1604  1.0107 -0.4512
  505MOL0     C69567   8.769  -0.319   7.628 -0.5896 -0.2298  0.0652
  505MOL0     C69568   8.899  -0.344   7.570 -0.1782  0.3307  0.6396
  505MOL0     N69569   8.979  -0.214   7.575  0.1331 -0.2136 -0.4750
  505MOL0     C69570   8.944  -0.106   7.495  0.4080 -0.0598 -0.2556
  505MOL0     C69571   8.970   0.004   7.566 -0.0096  1.3005  0.6686
  505MOL0     C69572   8.943   0.151   7.534 -0.3849  0.5457  0.1494
  505MOL0     C69573   9.054   0.213   7.451 -0.3121 -1.0691 -0.2520
  505MOL0     C69574   9.061   0.360   7.488  0.8615  0.3506 -0.2464
  505MOL0     C69575   9.177   0.393   7.583  0.3834  0.3702  0.6712
  505MOL0     O69576   9.304   0.392   7.510 -0.2018  0.1478  0.6042
  505MOL0     C69577   9.424   0.388   7.582 -0.2190  0.2312  0.2793
  505MOL0     C69578   9.554   0.373   7.526  0.1165  0.3796  0.2477
  505MOL0     C69579   9.682   0.389   7.596  0.0559  0.0625 -0.7218
  505MOL0     C69580   9.818   0.368   7.524 -0.1523 -0.9672  0.1591
  505MOL0     C69581   9.674   0.420   7.739 -0.4694  0.6557  0.1676
  505MOL0     C69582   9.791   0.442   7.834  0.3109  0.5252  0.1244
  505MOL0     O69583   9.915   0.387   7.801  0.1827  0.4196  0.1615
  505MOL0     C69584  10.012   0.353   7.889  0.1994 -0.4231  0.2092
  505MOL0     C69585  10.136   0.325   7.840 -0.7307  0.5016 -0.4923
  505MOL0     C69586  10.240   0.279   7.924 -0.4037  0.2058  0.8994
  505MOL0     C69587  10.218   0.258   8.059 -1.2888  0.0540  0.6604
  505MOL0     O69588  10.317   0.220   8.149 -0.6088  0.7250 -0.3451
  505MOL0     C69589  10.431   0.145   8.102  0.4270 -0.7962 -0.2355
  505MOL0     C69590  10.494   0.066   8.210 -0.3674 -0.5039  0.3684
  505MOL0     C69591  10.625  -0.005   8.168 -0.5051  0.0178  0.4617
  505MOL0     C69592  10.693  -0.091   8.277  0.7639 -0.0081  0.6862
  505MOL0     C69593  10.828  -0.155   8.238 -0.4149  0.4420  0.1702
  505MOL0     C69594  10.909  -0.189   8.363  0.2239 -0.0965 -0.2549
  505MOL0     C69595  11.031  -0.263   8.347 -0.3887  0.4828 -0.3742
  505MOL0     C69596  11.112  -0.244   8.472 -0.0076  0.0886 -0.5945
  505MOL0    Cl69597  11.269  -0.344   8.470 -0.1766  0.1145 -0.0336
  505MOL0     C69598  10.087   0.288   8.109 -0.7748 -0.4987 -0.6496
  505MOL0     C69599   9.987   0.338   8.027 -0.0092 -1.1279  0.8305
  505MOL0     O69600   9.771   0.513   7.928 -0.1264 -0.5181 -0.2071
  505MOL0     C69601   9.548   0.445   7.793  1.0273  1.0257 -0.9470
  505MOL0     C69602   9.428   0.437   7.714  0.5516 -0.8717  0.2428
  505MOL0     N69603   9.026  -0.036   7.685  0.4106 -0.5835  0.0638
  505MOL0     N69604   9.035  -0.167   7.692  0.0857 -0.1753  0.1141
  505MOL0     C69605   7.846  -0.248   7.454 -0.0394  0.0556  0.0486
  505MOL0     C69606   7.725  -0.171   7.465  0.6907 -0.9406 -0.6830
  505MOL0     C69607   7.413   0.127   7.388 -0.7570  0.2864  0.6630
  505MOL0     C69608   7.391   0.220   7.493 -0.0935 -0.0477  0.5602
  505MOL0     C69609   7.270   0.276   7.519 -0.3538  0.2127 -0.0809
  505MOL0     C69610   7.163   0.248   7.437 -1.1798 -0.5388 -0.4871
  505MOL0     O69611   7.040   0.290   7.469 -0.0721  0.3851 -0.1551
  505MOL0     C69612   7.035   0.426   7.518 -0.0059 -0.0952  0.2871
  505MOL0     C69613   6.889   0.474   7.501  1.0195 -0.5089 -0.0738
  505MOL0     C69614   6.775   0.399   7.570 -0.0494 -0.5035  0.4509
  505MOL0     C69615   6.637   0.455   7.533 -0.0547 -0.1142  0.6522
  505MOL0     C69616   6.608   0.563   7.623  0.4284 -0.5742 -0.2223
  505MOL0     C69617   6.583   0.648   7.711  0.0343  0.2897  0.4545
  505MOL0     C69618   7.185   0.154   7.331  0.7615 -0.0443  0.0817
  505MOL0     C69619   7.300   0.091   7.304  0.5053  0.7576  1.0021
  505MOL0     C69620   7.302  -0.014   7.190 -0.3230 -0.2466  0.2591
  505MOL0     H69621   7.845   0.143   7.500 -3.4882 -0.4158 -0.1000
  505MOL0     H69622   8.064   0.014   7.484  0.5292  0.0464  1.6865
  505MOL0     H69623   8.047  -0.395   7.329  2.2376 -0.0732 -1.9569
  505MOL0     H69624   8.074  -0.452   7.502  3.2669 -0.2269  0.1378
  505MOL0     H69625   8.237  -0.514   7.352 -2.0662 -2.5987  4.1983
  505MOL0     H69626   8.296  -0.343   7.352  2.1801 -2.8640 -1.0680
  505MOL0     H69627   8.290  -0.372   7.617  1.5441  2.3673 -1.3492
  505MOL0     H69628   8.286  -0.554   7.577  5.4493 -1.4878 -0.3979
  505MOL0     H69629   8.489  -0.524   7.449  2.8238  3.4588 -2.4400
  505MOL0     H69630   8.495  -0.356   7.458 -0.2212 -0.6505 -2.1852
  505MOL0     H69631   8.525  -0.532   7.704 -0.9772 -0.1253  0.2848
  505MOL0     H69632   8.518  -0.355   7.709  0.2127 -1.9247  1.3404
  505MOL0     H69633   8.717  -0.505   7.716 -0.4349  1.7058  0.1786
  505MOL0     H69634   8.707  -0.517   7.542 -1.3040  1.0376 -0.7770
  505MOL0     H69635   8.784  -0.286   7.731 -0.3068 -2.4095  0.7681
  505MOL0     H69636   8.704  -0.255   7.567 -1.2480 -0.6304  0.3530
  505MOL0     H69637   8.954  -0.410   7.638  0.4244  0.4367  0.2584
  505MOL0     H69638   8.903  -0.403   7.478  3.2177 -1.3337  1.6620
  505MOL0     H69639   8.898  -0.110   7.397  0.7563 -1.3024 -0.3859
  505MOL0     H69640   8.943   0.202   7.631 -0.4031  1.3471 -0.2576
  505MOL0     H69641   8.846   0.163   7.485  0.8039 -1.0490 -2.8300
  505MOL0     H69642   9.149   0.163   7.469 -0.4119 -2.6655 -3.5449
  505MOL0     H69643   9.030   0.199   7.345 -1.2961 -2.3829  0.1162
  505MOL0     H69644   9.058   0.422   7.398  1.6171 -1.0177 -1.2559
  505MOL0     H69645   8.975   0.402   7.541 -0.9712 -3.8609  0.5871
  505MOL0     H69646   9.157   0.496   7.613 -1.1866 -0.1830  1.6699
  505MOL0     H69647   9.184   0.332   7.674 -1.8142  3.3590  3.0843
  505MOL0     H69648   9.560   0.363   7.418  1.5799  1.4449  0.2014
  505MOL0     H69649   9.859   0.267   7.532  1.6193 -0.3753 -0.9562
  505MOL0     H69650   9.893   0.446   7.542  0.3712 -1.9821  2.8044
  505MOL0     H69651   9.782   0.386   7.423 -1.9414  0.2157  0.9553
  505MOL0     H69652  10.157   0.354   7.738 -1.0293  0.1912 -0.6469
  505MOL0     H69653  10.331   0.272   7.866 -0.9725 -0.2861  0.0443
  505MOL0     H69654  10.392   0.067   8.036  0.3490 -2.3114  1.5347
  505MOL0     H69655  10.512   0.196   8.048 -0.6761 -0.6462 -1.8213
  505MOL0     H69656  10.521   0.128   8.297  1.1144  1.0138 -1.1022
  505MOL0     H69657  10.422  -0.012   8.238  1.6197 -1.3922  3.5081
  505MOL0     H69658  10.705   0.065   8.140  0.0664 -0.3418  1.1591
  505MOL0     H69659  10.607  -0.078   8.089  0.2111 -0.7573  0.9991
  505MOL0     H69660  10.623  -0.169   8.310  0.8468 -0.4783 -0.2238
  505MOL0     H69661  10.697  -0.024   8.364 -0.4393  0.5663  0.3144
  505MOL0     H69662  10.816  -0.250   8.184  0.1675  2.8852 -4.8451
  505MOL0     H69663  10.884  -0.092   8.168  1.0981 -1.7599 -0.7519
  505MOL0     H69664  10.842  -0.245   8.430  0.6642 -0.7519 -0.3478
  505MOL0     H69665  10.930  -0.104   8.428 -0.2507 -0.4089  0.3191
  505MOL0     H69666  11.100  -0.215   8.276  4.2043  1.6204  4.2829
  505MOL0     H69667  11.006  -0.367   8.322  1.4782 -0.2050  0.4070
  505MOL0     H69668  11.055  -0.263   8.563  2.4733 -0.4163  0.9587
  505MOL0     H69669  11.148  -0.141   8.479 -1.1179  0.4028  0.9862
  505MOL0     H69670  10.073   0.283   8.217  0.6066  0.8046 -0.3572
  505MOL0     H69671   9.888   0.334   8.069 -1.2641 -0.4864 -1.8473
  505MOL0     H69672   9.523   0.496   7.885 -1.6601  0.5816 -1.3483
  505MOL0     H69673   9.342   0.478   7.767  2.3354  1.8353  1.2878
  505MOL0     H69674   7.848  -0.356   7.442 -0.0667 -0.1465  1.6351
  505MOL0     H69675   7.629  -0.223   7.463  1.0658 -1.7135  0.4202
  505MOL0     H69676   7.471   0.244   7.562 -0.0557  1.1461  0.1205
  505MOL0     H69677   7.267   0.359   7.590 -1.7541  0.2777 -0.1895
  505MOL0     H69678   7.066   0.424   7.623  0.4055  2.1174  0.2440
  505MOL0     H69679   7.100   0.495   7.463  1.5490 -2.1354 -0.5820
  505MOL0     H69680   6.874   0.489   7.394 -1.5643  0.5093  0.3831
  505MOL0     H69681   6.897   0.578   7.534  1.6323 -0.0892 -1.4848
  505MOL0     H69682   6.775   0.293   7.546 -0.7214 -0.7821  1.5934
  505MOL0     H69683   6.790   0.414   7.678  1.6734 -0.4235  0.2288
  505MOL0     H69684   6.557   0.382   7.549  0.6470 -1.3865 -1.3428
  505MOL0     H69685   6.631   0.484   7.428 -2.1039  2.2269  1.3043
  505MOL0     H69686   6.551   0.737   7.762 -3.4444 -1.1709  1.0792
  505MOL0     H69687   7.100   0.137   7.266  1.1118  0.9322 -0.6453
  505MOL0     H69688   7.349   0.035   7.104  1.0904 -1.3260  0.3909
  505MOL0     H69689   7.364  -0.099   7.218  2.1170  0.7051 -1.8936
  505MOL0     H69690   7.202  -0.052   7.168  0.1510 -1.1828 -0.3143
  506MOL0     O69691   4.919   2.292   9.427  0.4921  0.5627 -0.6493
  506MOL0     C69692   4.813   2.233   9.433  0.3142 -0.0429 -0.6581
  506MOL0     O69693   4.782   2.119   9.361 -0.3625 -0.5767 -1.1897
  506MOL0     C69694   4.841   2.101   9.243  1.3504  0.2171 -0.9166
  506MOL0     C69695   4.840   1.960   9.199  0.1340 -0.1062  1.2698
  506MOL0     C69696   4.896   1.917   9.079 -0.3672  0.1652 -0.1525
  506MOL0     C69697   4.945   2.019   8.987  0.3998 -0.9161 -0.6280
  506MOL0     O69698   4.998   1.987   8.868  0.0952 -0.2971  0.2913
  506MOL0     C69699   4.931   1.876   8.799 -0.2468 -0.1983 -0.3520
  506MOL0     C69700   4.967   1.884   8.653  0.0999  1.1865  0.0101
  506MOL0     C69701   4.910   2.007   8.594 -0.6085 -0.3045  0.4785
  506MOL0     C69702   4.954   2.024   8.448  0.0452  0.2041 -0.0888
  506MOL0     C69703   4.858   1.953   8.349 -0.0367 -0.5502  0.2854
  506MOL0     C69704   4.860   2.027   8.212  0.2975 -0.6074 -1.1297
  506MOL0     C69705   4.766   1.958   8.105  1.1563 -0.6819  0.8939
  506MOL0     C69706   4.827   1.824   8.075 -0.1711  0.6713 -0.2662
  506MOL0     N69707   4.755   1.759   7.967 -0.3542 -0.0507 -0.2188
  506MOL0     C69708   4.631   1.709   7.977  0.8614  0.1515  0.8826
  506MOL0     C69709   4.608   1.659   7.850 -0.3113 -0.1049 -0.5917
  506MOL0     C69710   4.480   1.585   7.831 -0.3014  0.2949  0.5156
  506MOL0     C69711   4.481   1.451   7.899 -0.4590 -0.5786  0.7146
  506MOL0     C69712   4.606   1.362   7.881 -0.3290  0.6274 -0.8168
  506MOL0     C69713   4.603   1.267   7.756  0.8309 -0.9418 -0.4922
  506MOL0     O69714   4.707   1.164   7.781 -0.5633 -0.2881  0.4121
  506MOL0     C69715   4.842   1.192   7.771  0.1202 -0.2156  0.4157
  506MOL0     C69716   4.903   1.320   7.744  0.0205  0.0353 -0.4644
  506MOL0     C69717   5.041   1.336   7.747  0.8341  0.2385 -0.2924
  506MOL0     C69718   5.091   1.470   7.704 -0.2022 -0.2470  0.0720
  506MOL0     C69719   5.119   1.225   7.788 -0.9394  0.2502 -0.2142
  506MOL0     C69720   5.271   1.231   7.794  0.2287  0.2910 -0.1854
  506MOL0     O69721   5.339   1.349   7.812 -0.1625  0.4048  0.0290
  506MOL0     C69722   5.477   1.344   7.821  1.3249  0.2517 -0.2188
  506MOL0     C69723   5.536   1.425   7.924 -0.5539  0.0428 -0.1492
  506MOL0     C69724   5.674   1.442   7.939 -0.0691 -0.2167 -0.4999
  506MOL0     C69725   5.757   1.362   7.861  0.4086 -0.2552 -0.1037
  506MOL0     O69726   5.887   1.372   7.888 -0.2204 -0.7972  0.1176
  506MOL0     C69727   5.986   1.342   7.790  0.1195 -0.4673 -0.0930
  506MOL0     C69728   6.111   1.405   7.840 -0.2985 -0.4509  0.1174
  506MOL0     C69729   6.231   1.384   7.744  0.1250 -0.7191  0.0764
  506MOL0     C69730   6.352   1.440   7.811 -0.1860 -0.2641  0.6775
  506MOL0     C69731   6.477   1.403   7.728  0.2261  1.1455  0.4464
  506MOL0     C69732   6.594   1.486   7.780  0.1149 -0.1023 -0.7473
  506MOL0     C69733   6.722   1.451   7.705  0.8329  0.2311  0.2757
  506MOL0     C69734   6.837   1.533   7.757  0.8903 -0.2114 -0.7930
  506MOL0    Cl69735   6.885   1.452   7.907 -0.0862 -0.0695 -0.1510
  506MOL0     C69736   5.704   1.273   7.766  0.0716  0.3050  0.1301
  506MOL0     C69737   5.564   1.272   7.738 -0.0665 -0.1198  0.1108
  506MOL0     O69738   5.320   1.117   7.783 -0.0450  0.1667  0.1073
  506MOL0     C69739   5.057   1.104   7.823 -0.6820 -0.9009 -0.1744
  506MOL0     C69740   4.917   1.085   7.808 -0.1710  0.5666 -0.2801
  506MOL0     N69741   4.709   1.700   7.765 -0.8224  0.3457 -0.2910
  506MOL0     N69742   4.793   1.758   7.838 -0.0440 -0.0327 -0.2328
  506MOL0     C69743   4.943   2.149   9.025  0.2142 -0.4761 -0.0165
  506MOL0     C69744   4.889   2.193   9.148 -0.2071 -0.5254  0.3750
  506MOL0     C69745   4.706   2.279   9.535 -0.3301 -0.3942 -0.2633
  506MOL0     C69746   4.753   2.348   9.654  0.3972  0.5641  0.1582
  506MOL0     C69747   4.665   2.376   9.757 -0.1319 -0.4820  0.0863
  506MOL0     C69748   4.526   2.354   9.747 -0.0133 -0.0231  0.1768
  506MOL0     O69749   4.427   2.373   9.842 -0.1197  0.2030 -0.3209
  506MOL0     C69750   4.440   2.466   9.956 -0.0334 -0.2252 -0.0406
  506MOL0     C69751   4.362   2.587   9.905  0.2764 -0.5227  0.7758
  506MOL0     C69752   4.214   2.569   9.901  0.0612  0.1124  0.0753
  506MOL0     C69753   4.142   2.703   9.890  0.1879 -0.5920 -0.4012
  506MOL0     C69754   4.007   2.682   9.856  0.3103  0.7078  0.1005
  506MOL0     C69755   3.893   2.659   9.814  0.1284  0.1558 -0.3778
  506MOL0     C69756   4.484   2.283   9.633  0.0202 -0.0776  0.1196
  506MOL0     C69757   4.575   2.246   9.530 -0.2566 -0.5766 -0.2974
  506MOL0     C69758   4.514   2.164   9.424 -0.2129 -0.7178  0.3975
  506MOL0     H69759   4.809   1.878   9.263  0.9572 -0.3187  1.4052
  506MOL0     H69760   4.897   1.810   9.058 -0.3398 -0.4648  2.6540
  506MOL0     H69761   4.823   1.890   8.795 -0.1103  1.1314  0.2443
  506MOL0     H69762   4.966   1.781   8.840  4.3851  2.3666  2.4370
  506MOL0     H69763   5.075   1.895   8.640 -0.0866  0.5458 -2.4553
  506MOL0     H69764   4.939   1.798   8.591  0.6338  1.2634 -0.3502
  506MOL0     H69765   4.803   2.021   8.608 -0.7276 -2.6228  2.4087
  506MOL0     H69766   4.952   2.093   8.648 -0.5891 -1.1040  1.7679
  506MOL0     H69767   4.949   2.131   8.424  0.7567 -0.4641 -3.7272
  506MOL0     H69768   5.056   1.990   8.431  0.1347 -0.6939  1.9007
  506MOL0     H69769   4.759   1.952   8.395  0.7920 -1.4928  2.1459
  506MOL0     H69770   4.894   1.851   8.332  2.2888  0.6753 -3.1001
  506MOL0     H69771   4.826   2.130   8.224 -0.5800 -1.1365  1.7504
  506MOL0     H69772   4.961   2.026   8.171  0.3549  0.9336 -1.0835
  506MOL0     H69773   4.773   2.023   8.018  0.0157 -1.0864  0.4956
  506MOL0     H69774   4.667   1.957   8.151  0.7848  1.3501  0.2295
  506MOL0     H69775   4.933   1.836   8.055  0.0708 -1.6079 -0.6301
  506MOL0     H69776   4.808   1.765   8.166 -1.4375  2.6810  0.8685
  506MOL0     H69777   4.575   1.709   8.071  3.8646  2.0558  2.8366
  506MOL0     H69778   4.469   1.560   7.725 -2.4052 -1.7467  1.1197
  506MOL0     H69779   4.393   1.640   7.867 -0.8018 -2.0927  3.3497
  506MOL0     H69780   4.460   1.472   8.005  0.2678 -0.0946  0.7672
  506MOL0     H69781   4.397   1.390   7.865 -1.5154  1.2252 -0.0925
  506MOL0     H69782   4.701   1.415   7.871  0.6762 -0.9400  0.0419
  506MOL0     H69783   4.613   1.293   7.966 -0.8803  1.6290  0.0716
  506MOL0     H69784   4.502   1.227   7.745 -1.0158  3.0325  0.0273
  506MOL0     H69785   4.615   1.321   7.662 -1.5631  1.3772  0.4092
  506MOL0     H69786   4.838   1.399   7.706  1.1797 -0.2273 -3.2142
  506MOL0     H69787   5.120   1.536   7.786  2.0813 -1.0723  0.0089
  506MOL0     H69788   5.017   1.525   7.644 -0.1545 -2.1564 -1.8830
  506MOL0     H69789   5.178   1.451   7.640 -0.3456  0.3312 -0.3097
  506MOL0     H69790   5.461   1.470   7.989 -2.1500 -2.5952 -0.0107
  506MOL0     H69791   5.707   1.503   8.022 -0.2672 -0.4273 -0.2659
  506MOL0     H69792   5.999   1.233   7.789  2.1044 -0.2734 -0.0015
  506MOL0     H69793   5.955   1.372   7.689  0.4532  0.7500  0.1524
  506MOL0     H69794   6.097   1.512   7.856 -1.8279 -0.3531 -1.5714
  506MOL0     H69795   6.133   1.351   7.932  1.3822  1.8101  1.1475
  506MOL0     H69796   6.210   1.435   7.649 -3.5584  1.8057  1.9918
  506MOL0     H69797   6.243   1.277   7.726  0.9352 -0.4063 -1.3863
  506MOL0     H69798   6.362   1.398   7.911 -0.1070  0.0474  0.8003
  506MOL0     H69799   6.343   1.549   7.816 -0.1642  0.0482 -3.1775
  506MOL0     H69800   6.498   1.296   7.729 -4.2095  0.0470  2.4102
  506MOL0     H69801   6.459   1.415   7.620 -2.0526 -0.3127  0.5866
  506MOL0     H69802   6.614   1.460   7.884 -1.6024  1.4584  0.0247
  506MOL0     H69803   6.566   1.590   7.758 -0.6007  0.3875  2.0343
  506MOL0     H69804   6.689   1.473   7.603  3.6358 -0.7117 -0.9347
  506MOL0     H69805   6.750   1.345   7.708  1.1729  0.3218  0.3260
  506MOL0     H69806   6.814   1.636   7.787 -0.5978 -1.0370  1.1196
  506MOL0     H69807   6.925   1.532   7.692  0.7754 -0.0015 -0.9534
  506MOL0     H69808   5.756   1.197   7.710 -0.9451 -1.5537  1.5921
  506MOL0     H69809   5.533   1.198   7.664 -0.3059  1.3537 -1.3183
  506MOL0     H69810   5.116   1.029   7.875  2.4288  3.0442  2.6617
  506MOL0     H69811   4.869   0.991   7.833 -0.4377  0.7734 -0.0020
  506MOL0     H69812   4.970   2.222   8.949 -2.0409  4.5547  3.4205
  506MOL0     H69813   4.879   2.301   9.151  2.1997 -0.1145 -2.3640
  506MOL0     H69814   4.854   2.387   9.658  1.2500 -1.5004  0.2575
  506MOL0     H69815   4.701   2.434   9.841  0.3224  1.0979 -1.1516
  506MOL0     H69816   4.399   2.418  10.045 -0.9279  0.0794 -0.2841
  506MOL0     H69817   4.543   2.493   9.982 -0.3003 -0.0765  0.8882
  506MOL0     H69818   4.399   2.621   9.808 -0.2148 -4.7660 -1.0992
  506MOL0     H69819   4.386   2.673   9.969  1.0403 -0.9971  1.1378
  506MOL0     H69820   4.184   2.493   9.828  0.3712 -2.0895  2.0912
  506MOL0     H69821   4.180   2.519   9.993  2.0687 -3.5084 -0.9416
  506MOL0     H69822   4.186   2.780   9.825 -1.1677  1.0333  0.5143
  506MOL0     H69823   4.141   2.757   9.985  2.7966  0.2214 -0.7592
  506MOL0     H69824   3.798   2.632   9.772 -1.4678  2.4403  1.4852
  506MOL0     H69825   4.384   2.240   9.628  0.4387 -0.9432 -3.4737
  506MOL0     H69826   4.565   2.184   9.329 -0.6117  1.3760  0.5730
  506MOL0     H69827   4.512   2.058   9.453  0.7938 -2.0488 -3.7367
  506MOL0     H69828   4.412   2.199   9.405  1.6258  3.7401 -3.2792
  507MOL0     O69829   4.604   7.865   2.801 -0.5057  0.7913 -0.1915
  507MOL0     C69830   4.502   7.880   2.869 -1.0641 -0.5947  0.0114
  507MOL0     O69831   4.495   7.957   2.981 -0.7130 -0.3368  0.1256
  507MOL0     C69832   4.590   8.055   3.001  0.5469 -0.1192  0.0590
  507MOL0     C69833   4.706   8.031   3.078  0.4315  0.0577  0.4771
  507MOL0     C69834   4.800   8.127   3.111 -0.5741  0.2651 -0.4895
  507MOL0     C69835   4.775   8.263   3.068 -0.2823 -0.1137 -0.0462
  507MOL0     O69836   4.863   8.362   3.094  0.3735  0.5883 -0.0988
  507MOL0     C69837   4.985   8.322   3.159  0.0563 -0.7213 -0.4167
  507MOL0     C69838   5.080   8.448   3.172 -0.8229 -0.4089  0.1290
  507MOL0     C69839   5.212   8.416   3.226 -0.1625  0.9030 -0.1239
  507MOL0     C69840   5.305   8.535   3.236  0.0095 -0.6200  0.4463
  507MOL0     C69841   5.435   8.498   3.291 -0.1170  0.6930 -0.5739
  507MOL0     C69842   5.522   8.622   3.307  0.9603  0.3646 -0.0828
  507MOL0     C69843   5.647   8.592   3.384 -0.6667  0.6272  0.6262
  507MOL0     C69844   5.767   8.554   3.291  0.5752  0.1424  0.0045
  507MOL0     N69845   5.893   8.591   3.355 -0.0188  0.2090 -0.3148
  507MOL0     C69846   6.001   8.506   3.360 -0.0919  0.2065  0.2261
  507MOL0     C69847   6.105   8.588   3.404  0.0479  0.2892 -0.0502
  507MOL0     C69848   6.243   8.544   3.443 -0.5802  0.7409  0.5868
  507MOL0     C69849   6.355   8.638   3.410 -0.5304  0.0921  0.1714
  507MOL0     C69850   6.502   8.583   3.424  0.2418 -0.4388  0.5643
  507MOL0     C69851   6.554   8.508   3.297 -0.1844  0.8878  0.3845
  507MOL0     O69852   6.584   8.594   3.186  0.4276 -0.7782 -0.9270
  507MOL0     C69853   6.704   8.649   3.166  0.2066 -0.2787  0.0208
  507MOL0     C69854   6.724   8.727   3.053  0.6859 -0.7084  1.3019
  507MOL0     C69855   6.853   8.773   3.017  0.5968  0.1068 -0.7584
  507MOL0     C69856   6.863   8.851   2.899  0.4710 -0.3372  0.0585
  507MOL0     C69857   6.959   8.750   3.098  0.3945  1.2701  0.1521
  507MOL0     C69858   7.097   8.788   3.065 -0.8063 -0.0659 -0.4648
  507MOL0     O69859   7.168   8.836   3.173 -0.3935 -0.0564  0.0534
  507MOL0     C69860   7.297   8.880   3.157  0.1518 -0.3872  0.2470
  507MOL0     C69861   7.396   8.794   3.120  1.0170  0.2649  0.4389
  507MOL0     C69862   7.528   8.832   3.102  0.4713  0.3368 -0.5149
  507MOL0     C69863   7.576   8.955   3.152 -0.3460  0.5852 -0.7667
  507MOL0     O69864   7.702   9.006   3.144 -0.1208 -0.0199  0.2772
  507MOL0     C69865   7.805   8.909   3.143  0.0482 -0.2402 -0.5784
  507MOL0     C69866   7.945   8.974   3.146 -0.2007  0.5636 -0.0811
  507MOL0     C69867   8.059   8.875   3.155 -0.4227  0.5073 -1.0504
  507MOL0     C69868   8.201   8.944   3.134 -0.3468  1.3820 -0.1030
  507MOL0     C69869   8.328   8.855   3.169  0.3054  0.5219 -0.2810
  507MOL0     C69870   8.355   8.747   3.070 -0.4763  0.3983  0.8632
  507MOL0     C69871   8.449   8.630   3.099  0.3779  0.1274  0.0178
  507MOL0     C69872   8.592   8.677   3.141 -0.2383  0.6243 -0.7420
  507MOL0    Cl69873   8.691   8.738   3.005  0.2898 -0.1832  0.3012
  507MOL0     C69874   7.475   9.042   3.196 -0.6205 -0.3091  0.5566
  507MOL0     C69875   7.335   9.013   3.197 -0.2586 -0.0652 -0.7691
  507MOL0     O69876   7.140   8.790   2.950 -0.7072  0.0087 -0.5709
  507MOL0     C69877   6.931   8.694   3.222  0.1757  0.1705 -0.2943
  507MOL0     C69878   6.805   8.640   3.257 -0.0458 -0.3119  0.2687
  507MOL0     N69879   6.051   8.714   3.421  0.6456 -0.1724  0.1583
  507MOL0     N69880   5.932   8.716   3.386  1.2506  0.0846 -0.6265
  507MOL0     C69881   4.655   8.285   3.005 -0.2671 -0.6152  0.8226
  507MOL0     C69882   4.557   8.184   2.967 -0.2892 -0.3836 -0.1274
  507MOL0     C69883   4.384   7.797   2.840  0.2476 -0.5529 -1.0144
  507MOL0     C69884   4.323   7.729   2.947 -0.3266  0.2775  0.0289
  507MOL0     C69885   4.228   7.623   2.918  0.0311 -0.1887 -0.0921
  507MOL0     C69886   4.173   7.603   2.793 -0.2164 -0.4628  0.7571
  507MOL0     O69887   4.074   7.504   2.774  0.2474 -0.5349  0.1328
  507MOL0     C69888   4.000   7.489   2.651  0.2441  0.2811  0.2398
  507MOL0     C69889   3.938   7.351   2.646  0.4690  0.6612  0.2639
  507MOL0     C69890   3.815   7.344   2.749 -0.1804 -0.9482  0.5159
  507MOL0     C69891   3.730   7.215   2.726  0.7176  0.1436 -0.0100
  507MOL0     C69892   3.800   7.095   2.764 -0.0897  0.6132  0.2872
  507MOL0     C69893   3.867   7.003   2.794 -0.4999 -0.0598 -0.9914
  507MOL0     C69894   4.236   7.675   2.693  0.0950  0.5047  0.0628
  507MOL0     C69895   4.330   7.773   2.717  0.6315 -0.3281  0.5713
  507MOL0     C69896   4.369   7.856   2.598 -0.0890  0.0328 -0.0517
  507MOL0     H69897   4.721   7.930   3.116 -1.7485 -0.1543  0.9147
  507MOL0     H69898   4.876   8.095   3.182 -0.1809 -1.9734 -1.8226
  507MOL0     H69899   5.045   8.257   3.095 -0.1135 -1.0209 -0.2718
  507MOL0     H69900   4.980   8.278   3.259  2.0769 -0.9968 -0.4107
  507MOL0     H69901   5.106   8.502   3.080  2.7394  0.2091  1.3409
  507MOL0     H69902   5.027   8.517   3.238  0.2682 -1.4255  2.1589
  507MOL0     H69903   5.203   8.380   3.329  2.6627  0.9244  0.2069
  507MOL0     H69904   5.264   8.339   3.169  1.7513  3.4375 -2.0464
  507MOL0     H69905   5.326   8.576   3.137  1.8255 -1.4038  0.4651
  507MOL0     H69906   5.257   8.611   3.298 -4.0380 -2.6625  0.1620
  507MOL0     H69907   5.481   8.436   3.213 -1.0057  1.6265 -1.8728
  507MOL0     H69908   5.415   8.447   3.386 -0.9231  1.7164 -0.1723
  507MOL0     H69909   5.538   8.674   3.212 -2.1344  0.4717 -0.6524
  507MOL0     H69910   5.454   8.686   3.364 -1.1877 -0.8505 -1.1967
  507MOL0     H69911   5.632   8.510   3.455 -0.9660  0.1109 -0.0312
  507MOL0     H69912   5.680   8.677   3.445  1.4155  1.0462 -0.9780
  507MOL0     H69913   5.771   8.447   3.269  1.9079 -0.7999  3.9937
  507MOL0     H69914   5.756   8.620   3.205 -0.0265  2.1519  1.5674
  507MOL0     H69915   6.012   8.404   3.325 -2.4186  0.0007 -0.0078
  507MOL0     H69916   6.260   8.450   3.389  1.5457  0.8174  1.0632
  507MOL0     H69917   6.238   8.520   3.549  0.5307 -2.0945  0.0633
  507MOL0     H69918   6.345   8.674   3.307 -0.3720  0.3773  0.2536
  507MOL0     H69919   6.346   8.723   3.479 -0.9627 -1.2564  1.8250
  507MOL0     H69920   6.568   8.664   3.455  0.4484 -1.0036  1.6766
  507MOL0     H69921   6.497   8.505   3.501 -1.6944  0.5890  1.5510
  507MOL0     H69922   6.641   8.446   3.320  0.4881  0.9315 -1.7906
  507MOL0     H69923   6.473   8.445   3.256  0.4251  0.7451 -0.6282
  507MOL0     H69924   6.635   8.742   2.991  0.3938 -4.3341  0.6072
  507MOL0     H69925   6.763   8.884   2.870  0.3317 -1.5267 -0.8555
  507MOL0     H69926   6.918   8.802   2.819  0.1739 -1.5302  0.5581
  507MOL0     H69927   6.914   8.939   2.939 -0.2178 -0.2506  0.7767
  507MOL0     H69928   7.359   8.698   3.087 -0.9936  1.5832 -1.4048
  507MOL0     H69929   7.585   8.747   3.066  0.5269 -1.2876  2.9693
  507MOL0     H69930   7.785   8.854   3.236 -0.0325 -0.0069 -0.4563
  507MOL0     H69931   7.799   8.844   3.055 -3.7944 -1.1161  0.1263
  507MOL0     H69932   7.953   9.024   3.049  0.4580  2.1418  0.7409
  507MOL0     H69933   7.945   9.059   3.215 -0.8191  2.1038 -1.8836
  507MOL0     H69934   8.035   8.792   3.089  1.1541  1.5356 -2.9994
  507MOL0     H69935   8.051   8.841   3.259 -1.5223  1.8594 -0.6516
  507MOL0     H69936   8.209   9.035   3.194  0.8244  0.5461  1.0622
  507MOL0     H69937   8.219   8.959   3.027 -1.0097 -1.2505 -0.6528
  507MOL0     H69938   8.413   8.924   3.164  0.9883 -0.3736 -1.1545
  507MOL0     H69939   8.326   8.805   3.266  0.5533 -1.1229 -1.0908
  507MOL0     H69940   8.376   8.784   2.970  1.3585 -0.0211  1.0636
  507MOL0     H69941   8.258   8.696   3.060 -0.4898  0.7827 -1.3786
  507MOL0     H69942   8.453   8.574   3.006 -0.3404  0.2465 -0.0871
  507MOL0     H69943   8.405   8.565   3.175  1.0277  1.6214  1.7577
  507MOL0     H69944   8.644   8.586   3.173  0.6125  2.0086  2.1581
  507MOL0     H69945   8.589   8.745   3.227  0.1301  0.8411 -0.9013
  507MOL0     H69946   7.504   9.140   3.232  2.2766 -1.1907  0.8906
  507MOL0     H69947   7.284   9.081   3.264 -0.1748 -2.3834  1.8546
  507MOL0     H69948   7.003   8.669   3.300 -1.0388  0.8071  1.0705
  507MOL0     H69949   6.790   8.594   3.354  3.8694 -1.0081  0.6882
  507MOL0     H69950   4.640   8.386   2.967  1.7506 -0.8754 -0.9007
  507MOL0     H69951   4.463   8.196   2.915  0.0140 -2.0668 -1.1171
  507MOL0     H69952   4.369   7.742   3.045  1.6264 -1.2016 -0.6273
  507MOL0     H69953   4.189   7.562   2.999  1.8060 -0.5543  0.5321
  507MOL0     H69954   3.920   7.563   2.646  0.8148  0.9265  0.5338
  507MOL0     H69955   4.072   7.498   2.569  0.6331  0.6454  0.6118
  507MOL0     H69956   4.010   7.271   2.664  1.6323  0.9632 -2.5718
  507MOL0     H69957   3.900   7.330   2.546 -0.6412 -0.5387  0.9000
  507MOL0     H69958   3.851   7.355   2.852  0.5392 -0.0126  0.1766
  507MOL0     H69959   3.754   7.433   2.735  2.8176  1.9974  3.7728
  507MOL0     H69960   3.698   7.214   2.621 -1.6430  2.5491  0.5896
  507MOL0     H69961   3.644   7.226   2.792 -0.5415 -0.5619 -1.4570
  507MOL0     H69962   3.938   6.937   2.840 -1.8604  0.0075  1.3672
  507MOL0     H69963   4.222   7.654   2.587  2.6243  0.4603 -0.3133
  507MOL0     H69964   4.344   7.960   2.618  0.4363 -0.0835  1.3780
  507MOL0     H69965   4.478   7.853   2.592 -0.1726 -0.2305 -2.2347
  507MOL0     H69966   4.337   7.816   2.502 -1.8203  2.1580 -0.4333
  508MOL0     O69967  10.754   8.813  10.900 -0.2290 -0.4734 -0.0841
  508MOL0     C69968  10.770   8.920  10.833 -0.2087  0.1013  0.3939
  508MOL0     O69969  10.677   9.017  10.810 -0.0947  0.5248  0.3078
  508MOL0     C69970  10.554   9.003  10.873 -0.5227  0.4888  0.4369
  508MOL0     C69971  10.509   9.101  10.960  0.0417 -0.4778 -0.5596
  508MOL0     C69972  10.382   9.091  11.022  1.0325 -0.0068  0.3274
  508MOL0     C69973  10.303   8.977  10.994  0.8814  0.3139  0.4169
  508MOL0     O69974  10.168   8.989  11.020  0.3612  0.6553 -0.8307
  508MOL0     C69975  10.075   8.876  11.020 -0.0687 -0.0063  0.6904
  508MOL0     C69976   9.943   8.917  11.083  0.5907  0.1117 -0.2473
  508MOL0     C69977   9.849   8.994  10.983 -0.2136  0.5588  0.4610
  508MOL0     C69978   9.765   8.891  10.908 -0.4295  0.4916  0.0122
  508MOL0     C69979   9.682   8.963  10.795 -0.4127  0.1918 -0.7378
  508MOL0     C69980   9.566   9.049  10.868  0.5243 -1.0994  0.1553
  508MOL0     C69981   9.483   9.150  10.793 -0.0666  0.0671 -0.5269
  508MOL0     C69982   9.373   9.083  10.700 -0.2472  0.1073  0.1662
  508MOL0     N69983   9.241   9.093  10.767 -0.2489 -0.7431  0.2733
  508MOL0     C69984   9.153   8.996  10.790 -0.4426  0.6777 -0.3187
  508MOL0     C69985   9.044   9.042  10.849  0.4767  0.7389  0.3550
  508MOL0     C69986   8.933   8.950  10.919  0.2648 -0.5894 -0.0244
  508MOL0     C69987   8.946   8.971  11.073  0.2147  0.6043 -0.0883
  508MOL0     C69988   9.067   8.903  11.131 -0.4917 -0.4323  0.6492
  508MOL0     C69989   9.185   9.006  11.142  0.3889 -0.4273 -0.1277
  508MOL0     O69990   9.303   8.933  11.180 -0.2487 -0.4850 -0.0954
  508MOL0     C69991   9.406   9.010  11.224 -0.0621  0.1238 -0.0307
  508MOL0     C69992   9.418   9.148  11.212 -0.0587  0.6231 -0.2830
  508MOL0     C69993   9.526   9.227  11.253  0.8281  0.4550 -0.4776
  508MOL0     C69994   9.524   9.371  11.214 -0.8505  0.2331 -0.3760
  508MOL0     C69995   9.631   9.151  11.317  0.0770 -1.1844 -0.5156
  508MOL0     C69996   9.753   9.212  11.342 -0.7425 -0.2505 -0.5429
  508MOL0     O69997   9.862   9.175  11.278  0.8102 -0.0721 -0.4363
  508MOL0     C69998   9.983   9.244  11.297  0.0031  0.1229  0.2681
  508MOL0     C69999   9.993   9.384  11.296 -0.5495 -0.2326 -1.3019
  508MOL0     C70000  10.119   9.446  11.311 -0.9892  0.6210  0.5767
  508MOL0     C70001  10.235   9.368  11.329  0.5039 -0.2900  0.9827
  508MOL0     O70002  10.359   9.406  11.360  0.2322  0.3807 -0.1395
  508MOL0     C70003  10.383   9.545  11.358 -0.4182  0.0904 -0.7650
  508MOL0     C70004  10.524   9.562  11.421 -0.5831  0.5286  0.2748
  508MOL0     C70005  10.633   9.500  11.339  0.3227  0.0068  0.6062
  508MOL0     C70006  10.636   9.540  11.194 -1.0839 -0.3215  0.5633
  508MOL0     C70007  10.778   9.497  11.129  0.4738 -0.7123 -0.3408
  508MOL0     C70008  10.770   9.495  10.976 -0.3596  0.6678 -0.0176
  508MOL0     C70009  10.909   9.452  10.921  1.0963 -0.2191 -0.9124
  508MOL0     C70010  11.033   9.539  10.964  0.0782 -0.9932 -0.9479
  508MOL0    Cl70011  11.191   9.462  10.900  0.8105  0.1321 -0.0240
  508MOL0     C70012  10.219   9.231  11.333 -0.5801  0.2586 -0.0672
  508MOL0     C70013  10.097   9.166  11.306  0.4935  0.1218  0.3926
  508MOL0     O70014   9.750   9.302  11.427 -0.1696  0.8631 -0.3580
  508MOL0     C70015   9.618   9.018  11.341  0.1435  0.0401 -0.2995
  508MOL0     C70016   9.505   8.953  11.289 -1.1312  0.1329 -0.0579
  508MOL0     N70017   9.068   9.180  10.864 -0.7781 -0.1869  0.1086
  508MOL0     N70018   9.185   9.212  10.815 -0.3257  0.3502  0.2226
  508MOL0     C70019  10.356   8.875  10.924  0.9375  0.3300  0.7036
  508MOL0     C70020  10.473   8.886  10.859  0.2085  0.2234 -0.5585
  508MOL0     C70021  10.898   8.956  10.764  0.2320  0.6181 -0.3038
  508MOL0     C70022  10.921   9.094  10.726 -0.4211 -0.1952 -0.2860
  508MOL0     C70023  11.038   9.125  10.658 -0.4433  0.1915  0.5611
  508MOL0     C70024  11.136   9.024  10.617  0.5745 -0.2986 -0.5089
  508MOL0     O70025  11.251   9.042  10.551 -0.0188  0.4606 -0.3816
  508MOL0     C70026  11.312   9.166  10.562  0.1030 -1.2726 -0.6603
  508MOL0     C70027  11.404   9.204  10.446 -0.7620  0.1691 -0.4686
  508MOL0     C70028  11.462   9.351  10.472  0.3791 -0.1465  0.0210
  508MOL0     C70029  11.608   9.342  10.474  0.0693 -0.8055 -0.5181
  508MOL0     C70030  11.653   9.280  10.593  0.4064  1.1552 -1.1660
  508MOL0     C70031  11.702   9.210  10.684  0.1437  0.1486 -0.5860
  508MOL0     C70032  11.106   8.891  10.661 -0.4902 -0.8323  0.9815
  508MOL0     C70033  10.994   8.856  10.737 -1.3313 -0.0537 -0.4016
  508MOL0     C70034  10.969   8.711  10.756 -0.7586 -1.0961 -0.2192
  508MOL0     H70035  10.587   9.174  10.981  1.3887 -1.7521 -0.9485
  508MOL0     H70036  10.336   9.173  11.077 -0.7935 -0.6454 -0.2097
  508MOL0     H70037  10.116   8.797  11.085  0.5948 -0.7073 -0.5341
  508MOL0     H70038  10.066   8.828  10.922 -0.1970  0.2036  0.6003
  508MOL0     H70039   9.890   8.829  11.120 -0.4598  1.5474  1.8234
  508MOL0     H70040   9.959   8.984  11.168  1.3632 -0.9458  0.4710
  508MOL0     H70041   9.782   9.056  11.043 -0.3746  0.0486  0.8170
  508MOL0     H70042   9.910   9.046  10.908 -2.6615  2.7552 -0.1374
  508MOL0     H70043   9.830   8.823  10.852 -0.5558 -0.7690  1.3484
  508MOL0     H70044   9.706   8.824  10.972  2.1817 -3.3852 -1.2455
  508MOL0     H70045   9.637   8.886  10.732 -0.6487 -0.2274 -0.0771
  508MOL0     H70046   9.753   9.018  10.732 -1.6432  1.6373 -0.9302
  508MOL0     H70047   9.485   8.990  10.914 -1.3813  1.9469  0.9867
  508MOL0     H70048   9.611   9.100  10.954 -1.7178  1.0212  0.1939
  508MOL0     H70049   9.548   9.207  10.728 -0.3311  2.4618  1.1823
  508MOL0     H70050   9.438   9.218  10.866 -3.9618 -2.6561 -0.0266
  508MOL0     H70051   9.364   9.125  10.599 -0.8862 -1.8567 -0.6376
  508MOL0     H70052   9.391   8.975  10.692  1.6626  0.4524 -0.6737
  508MOL0     H70053   9.179   8.891  10.785 -1.0393  0.3699  1.9779
  508MOL0     H70054   8.956   8.844  10.904 -3.0393 -1.9483  3.1170
  508MOL0     H70055   8.833   8.968  10.877 -0.2863 -0.4281  1.3282
  508MOL0     H70056   8.935   9.076  11.100  2.5358  1.0153 -0.5720
  508MOL0     H70057   8.860   8.922  11.120  1.0117 -1.5483 -0.7450
  508MOL0     H70058   9.049   8.858  11.229  4.3482 -2.1540  1.0054
  508MOL0     H70059   9.081   8.811  11.074 -4.8965 -2.2268  2.0516
  508MOL0     H70060   9.215   9.068  11.057  2.2134  1.7624  1.9581
  508MOL0     H70061   9.157   9.069  11.228 -0.9005 -0.1528 -0.7278
  508MOL0     H70062   9.340   9.209  11.166  0.0044  0.7362 -0.2386
  508MOL0     H70063   9.622   9.419  11.220 -0.5385 -0.2353 -1.4277
  508MOL0     H70064   9.450   9.417  11.280 -0.5999  1.9124 -1.1988
  508MOL0     H70065   9.488   9.390  11.112 -1.1626  0.9077 -0.1443
  508MOL0     H70066   9.906   9.445  11.270 -1.4428  1.0037  3.5313
  508MOL0     H70067  10.113   9.553  11.324 -0.4478  0.4197  2.9202
  508MOL0     H70068  10.385   9.587  11.257 -2.6654 -0.5204 -1.1237
  508MOL0     H70069  10.311   9.590  11.427 -0.2192 -0.0998 -0.4273
  508MOL0     H70070  10.542   9.669  11.434 -2.5460  0.7172  1.9064
  508MOL0     H70071  10.519   9.524  11.523 -0.0789  1.1511  0.5381
  508MOL0     H70072  10.633   9.391  11.350  2.0204 -0.3098 -1.7227
  508MOL0     H70073  10.726   9.535  11.386  0.1200 -1.6445  2.3392
  508MOL0     H70074  10.623   9.649  11.193  1.1342 -0.0041  1.1800
  508MOL0     H70075  10.554   9.486  11.145 -0.3810 -1.1905  0.3135
  508MOL0     H70076  10.856   9.569  11.154  2.1117 -2.4970 -0.0988
  508MOL0     H70077  10.807   9.395  11.153  0.6736 -0.3826  0.8937
  508MOL0     H70078  10.749   9.595  10.938  2.4768  0.5903 -2.1240
  508MOL0     H70079  10.696   9.420  10.946  0.9701 -0.8749  0.4078
  508MOL0     H70080  10.897   9.464  10.813  1.5196 -2.3946 -1.2465
  508MOL0     H70081  10.924   9.345  10.937  0.6149 -0.1825 -0.1714
  508MOL0     H70082  11.052   9.542  11.072  1.2985  0.3490 -1.1703
  508MOL0     H70083  11.029   9.645  10.938  2.3571 -0.7942 -0.6774
  508MOL0     H70084  10.311   9.176  11.352 -0.5511 -0.5535 -2.2000
  508MOL0     H70085  10.088   9.058  11.300  0.1123  0.2328 -1.8134
  508MOL0     H70086   9.701   8.972  11.393 -1.2964 -3.2106 -0.6639
  508MOL0     H70087   9.494   8.845  11.294  1.9392 -0.3203 -1.1551
  508MOL0     H70088  10.292   8.788  10.916 -1.3782  2.1405 -2.1805
  508MOL0     H70089  10.505   8.801  10.798  0.7457  1.2036 -1.6749
  508MOL0     H70090  10.849   9.171  10.750  0.4715  1.5629 -2.8002
  508MOL0     H70091  11.046   9.233  10.648 -0.8566  0.3733  1.9883
  508MOL0     H70092  11.232   9.240  10.561 -2.0417 -3.4545 -0.9736
  508MOL0     H70093  11.368   9.172  10.656  3.4353 -1.5882 -2.4925
  508MOL0     H70094  11.344   9.201  10.355  0.1940  2.0440 -1.1991
  508MOL0     H70095  11.484   9.129  10.441 -0.9381  0.0074 -0.8364
  508MOL0     H70096  11.422   9.412  10.390 -1.7853 -0.5720  0.6782
  508MOL0     H70097  11.418   9.400  10.559 -0.2839 -0.5626 -0.0728
  508MOL0     H70098  11.640   9.447  10.475  3.3949 -1.7067  0.3628
  508MOL0     H70099  11.651   9.288  10.389 -0.0990 -0.8142 -0.5977
  508MOL0     H70100  11.732   9.166  10.777  0.7347 -0.5980 -1.1140
  508MOL0     H70101  11.174   8.818  10.619  0.4521  1.0624 -1.0589
  508MOL0     H70102  11.051   8.657  10.707 -0.2685 -2.6290  2.1157
  508MOL0     H70103  10.968   8.693  10.864  0.7033  0.3958  0.0846
  508MOL0     H70104  10.882   8.676  10.701  0.6729 -1.0377 -2.6946
  509MOL0     O70105   8.738  11.038   8.580  0.1199  0.0277  0.5021
  509MOL0     C70106   8.691  10.922   8.601 -0.4803  0.1648 -0.3752
  509MOL0     O70107   8.762  10.806   8.617  0.1622  0.4957  0.4187
  509MOL0     C70108   8.899  10.814   8.604 -0.0203  1.0354 -1.6812
  509MOL0     C70109   8.977  10.757   8.710  0.1579  0.5860  0.0897
  509MOL0     C70110   9.120  10.767   8.701  0.3552 -0.3323 -0.2349
  509MOL0     C70111   9.192  10.830   8.593  0.8133  0.5737 -0.3979
  509MOL0     O70112   9.329  10.827   8.579  0.7200 -0.1975 -0.0134
  509MOL0     C70113   9.406  10.843   8.696  0.4921  0.3222 -0.0551
  509MOL0     C70114   9.553  10.841   8.671 -0.4396 -0.2228 -0.3240
  509MOL0     C70115   9.624  10.864   8.806  0.0339  0.2593 -0.0579
  509MOL0     C70116   9.780  10.820   8.800 -0.1452  0.7104 -0.2536
  509MOL0     C70117   9.842  10.840   8.933  0.6650  0.2785 -0.1907
  509MOL0     C70118   9.806  10.719   9.027  0.2581 -0.0651  0.1776
  509MOL0     C70119   9.860  10.752   9.163 -0.0988  0.4939  0.2254
  509MOL0     C70120   9.852  10.630   9.256 -0.0735 -0.2388  0.1802
  509MOL0     N70121   9.939  10.642   9.369  0.3502  0.5547  0.4448
  509MOL0     C70122   9.946  10.556   9.475  0.3052  0.3372 -0.0206
  509MOL0     C70123  10.033  10.615   9.566 -0.2891  0.2180 -0.8295
  509MOL0     C70124  10.094  10.551   9.692 -0.4939  0.7138 -0.1419
  509MOL0     C70125  10.224  10.475   9.658  0.3966  0.1425  0.4197
  509MOL0     C70126  10.305  10.418   9.774 -0.0083 -0.4889  0.1178
  509MOL0     C70127  10.415  10.328   9.716 -0.5591  0.7176 -0.2149
  509MOL0     O70128  10.491  10.261   9.817 -0.4178  0.7648  0.5309
  509MOL0     C70129  10.575  10.339   9.886  0.0440 -0.0245 -0.9859
  509MOL0     C70130  10.534  10.401  10.005 -0.0678 -0.1660 -0.0033
  509MOL0     C70131  10.618  10.492  10.075  0.4777 -0.0760 -0.4329
  509MOL0     C70132  10.571  10.542  10.212 -0.0729 -0.9921  0.4410
  509MOL0     C70133  10.749  10.512  10.025  0.2147  0.7324  0.4728
  509MOL0     C70134  10.854  10.585  10.092  0.2756 -0.8467  0.2037
  509MOL0     O70135  10.983  10.574  10.054  0.2650 -0.3279 -0.2550
  509MOL0     C70136  11.076  10.655  10.110  0.6907  0.4919  0.4586
  509MOL0     C70137  11.072  10.790  10.114 -1.3066 -0.8887 -0.9887
  509MOL0     C70138  11.182  10.863  10.168  0.4135  0.3859 -0.2039
  509MOL0     C70139  11.294  10.797  10.214  0.2143  0.3134  0.6842
  509MOL0     O70140  11.398  10.878  10.242 -0.1073 -0.1939 -0.1728
  509MOL0     C70141  11.519  10.821  10.284  0.6359 -0.7104  0.3383
  509MOL0     C70142  11.623  10.931  10.293 -0.1267  0.0505  0.3205
  509MOL0     C70143  11.748  10.868  10.347  0.2542  0.4461  0.4384
  509MOL0     C70144  11.874  10.955  10.313 -0.3972  0.2776  0.1601
  509MOL0     C70145  11.994  10.930  10.407  0.1393  0.1090 -0.3862
  509MOL0     C70146  12.115  10.995  10.352 -0.7911 -0.9388 -0.3242
  509MOL0     C70147  12.230  10.993  10.452 -0.1456  0.3391  0.5874
  509MOL0     C70148  12.352  11.064  10.402 -0.0755 -1.0565  0.5529
  509MOL0    Cl70149  12.336  11.235  10.384  0.1657 -0.5315  0.2418
  509MOL0     C70150  11.298  10.659  10.201  0.6609 -0.1739  0.0188
  509MOL0     C70151  11.187  10.590  10.149 -0.3150 -0.3746 -0.7943
  509MOL0     O70152  10.815  10.663  10.178 -0.0894  0.7759 -0.4258
  509MOL0     C70153  10.786  10.447   9.903  0.1828 -0.2301 -0.0882
  509MOL0     C70154  10.697  10.372   9.833  0.0945 -0.3300  0.1575
  509MOL0     N70155  10.052  10.748   9.519 -0.0771 -0.5593 -0.5030
  509MOL0     N70156  10.000  10.764   9.400  0.2966 -0.3938 -0.2264
  509MOL0     C70157   9.111  10.874   8.492  0.2631  0.1731  0.2888
  509MOL0     C70158   8.969  10.870   8.499 -0.1791 -0.2394  0.4677
  509MOL0     C70159   8.550  10.912   8.629 -0.1719 -0.2097  0.3947
  509MOL0     C70160   8.497  10.783   8.666 -0.3134  0.6764  1.0610
  509MOL0     C70161   8.357  10.762   8.680  0.0792 -0.3673  0.2890
  509MOL0     C70162   8.261  10.862   8.665 -0.4463 -0.6362 -0.1378
  509MOL0     O70163   8.126  10.829   8.669  0.9302 -0.1704  0.5072
  509MOL0     C70164   8.038  10.937   8.631 -0.4216  0.2346  0.3600
  509MOL0     C70165   7.904  10.880   8.593 -0.1134  0.8813 -0.4981
  509MOL0     C70166   7.843  10.782   8.698 -0.0029  0.2953  0.0742
  509MOL0     C70167   7.761  10.854   8.809  0.0852  0.0478  0.5754
  509MOL0     C70168   7.637  10.914   8.750  0.2474 -1.0329  0.2372
  509MOL0     C70169   7.527  10.959   8.721 -0.1478  0.1820 -0.0250
  509MOL0     C70170   8.315  10.987   8.627  0.0669 -0.6027 -0.0394
  509MOL0     C70171   8.453  11.013   8.610 -0.7752 -0.5221 -0.2406
  509MOL0     C70172   8.481  11.149   8.552 -0.4607  0.6885  1.0176
  509MOL0     H70173   8.931  10.719   8.800 -0.8285  0.7312 -0.3469
  509MOL0     H70174   9.183  10.728   8.780 -0.5941 -2.4300 -0.4178
  509MOL0     H70175   9.380  10.777   8.779 -0.3802  4.2737  3.1275
  509MOL0     H70176   9.378  10.940   8.738  0.0235  0.5881 -0.9488
  509MOL0     H70177   9.569  10.744   8.623 -0.6945 -0.7396  0.6109
  509MOL0     H70178   9.590  10.919   8.603 -3.1747  2.2358  0.7946
  509MOL0     H70179   9.613  10.968   8.839  3.4539  0.5615  0.5066
  509MOL0     H70180   9.564  10.805   8.876 -0.2541 -0.7433 -1.1349
  509MOL0     H70181   9.785  10.714   8.774 -1.4808 -0.7768  4.4357
  509MOL0     H70182   9.837  10.879   8.728  0.7525 -1.0570 -1.0513
  509MOL0     H70183   9.809  10.937   8.971 -0.5540 -0.2814  0.2318
  509MOL0     H70184   9.951  10.839   8.921  1.1011 -1.7645  2.7893
  509MOL0     H70185   9.699  10.701   9.044  0.4078  1.1337  2.8594
  509MOL0     H70186   9.852  10.623   9.001  1.8793 -0.7474  4.5756
  509MOL0     H70187   9.804  10.833   9.211 -1.4262 -0.5508  0.4949
  509MOL0     H70188   9.967  10.768   9.146  0.5309 -1.7717  1.4915
  509MOL0     H70189   9.745  10.633   9.283 -0.2246  0.2983 -0.4604
  509MOL0     H70190   9.862  10.534   9.205  3.3212  0.0177  0.1608
  509MOL0     H70191   9.907  10.456   9.493  0.5957  0.2845  0.3343
  509MOL0     H70192  10.022  10.483   9.737  0.3672  0.8553  1.5318
  509MOL0     H70193  10.118  10.633   9.760  2.5315  1.0233 -1.4378
  509MOL0     H70194  10.194  10.394   9.591  0.1913 -1.3396  2.2176
  509MOL0     H70195  10.289  10.549   9.610 -1.2037  2.3439  1.4355
  509MOL0     H70196  10.334  10.508   9.830  1.0842 -1.2777  0.8433
  509MOL0     H70197  10.234  10.357   9.830 -1.5612  2.4034  1.5173
  509MOL0     H70198  10.362  10.257   9.653  0.7466 -1.4806  1.0097
  509MOL0     H70199  10.480  10.391   9.654 -0.4377  1.2725  0.4477
  509MOL0     H70200  10.435  10.374  10.043  0.8027 -0.5767  2.1488
  509MOL0     H70201  10.643  10.506  10.286  0.4792 -1.5711 -0.3521
  509MOL0     H70202  10.472  10.502  10.234 -0.9051  0.6312 -0.1874
  509MOL0     H70203  10.567  10.651  10.214 -1.0665 -1.0004 -0.4686
  509MOL0     H70204  10.979  10.831  10.076 -1.8613 -1.6700 -0.5050
  509MOL0     H70205  11.166  10.968  10.145  0.6087 -0.3982 -4.8435
  509MOL0     H70206  11.505  10.782  10.385 -2.5279 -1.3653 -0.2682
  509MOL0     H70207  11.561  10.741  10.221 -0.0723 -1.4382  0.7685
  509MOL0     H70208  11.640  10.988  10.201  2.3070  1.8035  1.7313
  509MOL0     H70209  11.578  10.994  10.370 -1.2043 -1.1917  0.7447
  509MOL0     H70210  11.756  10.766  10.309  0.0393 -0.1953  2.0111
  509MOL0     H70211  11.751  10.870  10.457  1.2341 -1.1686  0.4735
  509MOL0     H70212  11.839  11.058  10.317  1.0716  0.8210 -0.2354
  509MOL0     H70213  11.905  10.935  10.210  0.1773  2.9275 -0.2414
  509MOL0     H70214  11.968  10.985  10.498 -2.8449 -1.3323 -0.2498
  509MOL0     H70215  12.008  10.823  10.425 -0.7542  0.2561  1.4843
  509MOL0     H70216  12.089  11.100  10.333 -2.0548 -0.9303  1.1742
  509MOL0     H70217  12.136  10.960  10.251  3.3947  1.6205 -0.5625
  509MOL0     H70218  12.258  10.888  10.465  0.3286  0.3903 -0.0142
  509MOL0     H70219  12.205  11.028  10.553  0.1145  2.0091  0.0954
  509MOL0     H70220  12.366  11.015  10.305 -0.3096 -2.8182  1.3588
  509MOL0     H70221  12.445  11.049  10.458  0.0073 -1.2174  0.3747
  509MOL0     H70222  11.375  10.594  10.241 -0.7212 -1.2661  1.0430
  509MOL0     H70223  11.190  10.482  10.140  2.3520 -0.7378  2.6411
  509MOL0     H70224  10.879  10.463   9.849 -0.2620 -0.7711 -1.0333
  509MOL0     H70225  10.722  10.325   9.738 -0.9587 -2.8261  1.0443
  509MOL0     H70226   9.150  10.913   8.399 -1.2674 -1.1546 -0.9757
  509MOL0     H70227   8.934  10.899   8.400  2.0519 -1.9083 -0.9134
  509MOL0     H70228   8.573  10.706   8.677 -0.7390  0.3216  1.5853
  509MOL0     H70229   8.312  10.665   8.701  3.4116 -2.2119 -0.3064
  509MOL0     H70230   8.031  11.010   8.712  2.3979  0.6005  0.3793
  509MOL0     H70231   8.067  10.988   8.539 -0.3433 -1.5678 -0.6658
  509MOL0     H70232   7.926  10.818   8.506  1.4055  0.1125  0.3854
  509MOL0     H70233   7.823  10.947   8.564 -1.7220 -1.0517 -0.6327
  509MOL0     H70234   7.781  10.707   8.648 -1.1622  0.9584  0.4675
  509MOL0     H70235   7.927  10.727   8.741  0.0423 -0.5773 -1.1056
  509MOL0     H70236   7.823  10.929   8.860  2.7044  0.2994 -2.6421
  509MOL0     H70237   7.737  10.775   8.881  2.6472  1.4873  3.2471
  509MOL0     H70238   7.426  10.994   8.712  0.1920  1.4005  0.6756
  509MOL0     H70239   8.255  11.077   8.614  0.9156  0.2181  1.4685
  509MOL0     H70240   8.523  11.153   8.451 -0.4084  0.8545  1.0439
  509MOL0     H70241   8.391  11.211   8.552 -1.7602 -1.0447 -1.8407
  509MOL0     H70242   8.547  11.202   8.622  0.7777 -2.6027  2.5454
  510MOL0     O70243   0.505   6.496   1.445  0.2281 -0.2887 -0.2192
  510MOL0     C70244   0.400   6.489   1.513 -0.3329  0.1999 -0.7222
  510MOL0     O70245   0.387   6.523   1.645 -1.1514 -0.5077 -0.9473
  510MOL0     C70246   0.508   6.546   1.707  0.2247  0.4878  0.0573
  510MOL0     C70247   0.569   6.662   1.672  1.1677 -0.4705  0.0691
  510MOL0     C70248   0.684   6.704   1.738 -0.4994 -0.0372  0.6521
  510MOL0     C70249   0.746   6.638   1.841  0.5773  0.5234 -0.2214
  510MOL0     O70250   0.852   6.691   1.911 -0.6695  0.2131  0.3737
  510MOL0     C70251   0.908   6.608   2.016 -0.8859  0.6864  1.1474
  510MOL0     C70252   1.037   6.678   2.071  0.2333  0.0691  0.5993
  510MOL0     C70253   1.123   6.588   2.177  0.4066  0.0366  0.0874
  510MOL0     C70254   1.229   6.656   2.263  0.6087  0.9116  0.5276
  510MOL0     C70255   1.354   6.701   2.182 -0.3159 -0.2038 -0.2370
  510MOL0     C70256   1.461   6.763   2.273 -0.0196  0.0164 -1.5655
  510MOL0     C70257   1.581   6.825   2.194 -0.4598 -0.1497  0.0084
  510MOL0     C70258   1.690   6.874   2.301 -0.0650  0.3223  1.3914
  510MOL0     N70259   1.821   6.808   2.272  0.2478 -0.8716  0.2726
  510MOL0     C70260   1.859   6.682   2.261  0.3090  0.5546  0.0622
  510MOL0     C70261   1.993   6.677   2.241  0.2463  0.6318  0.3936
  510MOL0     C70262   2.094   6.563   2.229  0.3679  0.6625 -0.3643
  510MOL0     C70263   2.241   6.601   2.204 -0.3785 -0.3454  0.5251
  510MOL0     C70264   2.325   6.486   2.170 -0.2032  0.1408  0.6181
  510MOL0     C70265   2.347   6.381   2.287 -0.3853  0.0263  0.5697
  510MOL0     O70266   2.444   6.293   2.244 -0.6264 -0.5240 -0.1738
  510MOL0     C70267   2.562   6.288   2.320 -0.2587  0.0677  0.7604
  510MOL0     C70268   2.610   6.370   2.416  0.7328  0.0957  0.5663
  510MOL0     C70269   2.725   6.345   2.489 -0.9555  0.2103 -1.1288
  510MOL0     C70270   2.760   6.447   2.594  0.5432 -0.4545  0.1917
  510MOL0     C70271   2.814   6.240   2.446 -0.4753 -0.8759  0.0175
  510MOL0     C70272   2.966   6.228   2.487  0.6706 -0.4720 -0.2201
  510MOL0     O70273   3.032   6.112   2.463  0.3975 -0.3450 -0.0733
  510MOL0     C70274   3.158   6.090   2.522  0.1033  0.3816 -0.1444
  510MOL0     C70275   3.257   6.042   2.444  0.6343  0.0890  0.1948
  510MOL0     C70276   3.382   6.015   2.494 -0.0140 -0.2891 -0.6628
  510MOL0     C70277   3.415   6.039   2.628  0.1270  0.6450  0.3398
  510MOL0     O70278   3.542   6.028   2.673 -0.0965  0.0031 -0.6007
  510MOL0     C70279   3.643   6.099   2.608  0.2385  0.6072 -0.3737
  510MOL0     C70280   3.745   6.142   2.715 -0.0792 -0.6289  0.3497
  510MOL0     C70281   3.862   6.208   2.641  0.6733  0.1841 -0.1633
  510MOL0     C70282   3.979   6.238   2.741 -0.0309  0.0316  0.6449
  510MOL0     C70283   4.093   6.322   2.669 -0.0320  0.2444  0.4814
  510MOL0     C70284   4.208   6.321   2.767  0.0112 -0.4723 -0.6566
  510MOL0     C70285   4.333   6.376   2.694  0.1986 -0.0611 -0.5490
  510MOL0     C70286   4.448   6.332   2.792 -1.0018  0.1693  0.2088
  510MOL0    Cl70287   4.590   6.424   2.752 -0.0715  0.1381 -0.1354
  510MOL0     C70288   3.307   6.081   2.704  1.3530 -0.3422 -0.6367
  510MOL0     C70289   3.181   6.104   2.661  0.1599 -0.0450 -0.2622
  510MOL0     O70290   3.014   6.324   2.538  0.0815 -0.7878 -0.3154
  510MOL0     C70291   2.762   6.150   2.359 -0.1836  0.8965  0.9344
  510MOL0     C70292   2.642   6.175   2.297  0.1956  0.6847  0.7483
  510MOL0     N70293   2.034   6.808   2.249  0.6738  0.6244 -0.1720
  510MOL0     N70294   1.928   6.892   2.259  0.2192  0.4205 -0.9912
  510MOL0     C70295   0.694   6.505   1.863  0.2901 -0.6521  0.0494
  510MOL0     C70296   0.575   6.461   1.798  0.2199 -0.2815  0.5476
  510MOL0     C70297   0.284   6.433   1.442  0.3002 -0.3802 -0.1354
  510MOL0     C70298   0.307   6.323   1.352 -0.5022 -0.2195 -1.2600
  510MOL0     C70299   0.192   6.267   1.292  0.1674  0.3689  1.1616
  510MOL0     C70300   0.062   6.304   1.335  0.0220 -0.0730 -0.3766
  510MOL0     O70301  -0.061   6.265   1.289 -0.1390  1.1462 -0.4135
  510MOL0     C70302  -0.050   6.139   1.222  0.5079  0.6327  0.3129
  510MOL0     C70303  -0.195   6.093   1.227 -0.4462 -0.0725 -0.1236
  510MOL0     C70304  -0.236   6.051   1.372 -0.7491  0.4788  0.0222
  510MOL0     C70305  -0.365   5.970   1.366  0.7932  0.0566 -0.5091
  510MOL0     C70306  -0.379   5.842   1.299 -0.6716  0.9933  0.0690
  510MOL0     C70307  -0.414   5.741   1.239  0.2915 -0.1505  0.2314
  510MOL0     C70308   0.044   6.412   1.427 -0.1569  0.6823 -0.8086
  510MOL0     C70309   0.154   6.479   1.474  0.1740  0.3927 -0.2348
  510MOL0     C70310   0.121   6.601   1.563  0.2615  0.7921 -0.7833
  510MOL0     H70311   0.521   6.728   1.600 -1.3713 -1.8326  0.4111
  510MOL0     H70312   0.722   6.802   1.709  0.7241 -0.1435  1.7780
  510MOL0     H70313   0.939   6.507   1.986  1.4902  1.3845  1.0177
  510MOL0     H70314   0.835   6.590   2.096 -0.4116  1.6957  1.8289
  510MOL0     H70315   1.101   6.701   1.986 -1.0739  0.1952 -0.3815
  510MOL0     H70316   1.019   6.779   2.110  0.8298  1.6051 -2.7545
  510MOL0     H70317   1.055   6.535   2.243  0.4401 -2.3660 -1.6802
  510MOL0     H70318   1.177   6.516   2.115 -1.2509 -0.7030 -0.5301
  510MOL0     H70319   1.188   6.742   2.316 -0.7280  1.7065 -1.6445
  510MOL0     H70320   1.257   6.585   2.341 -1.3461  0.9522  1.3429
  510MOL0     H70321   1.345   6.778   2.105 -1.5641  0.6839  0.7490
  510MOL0     H70322   1.404   6.620   2.128  0.5642  1.6452 -2.3433
  510MOL0     H70323   1.418   6.835   2.344  1.3393 -2.0678  1.6451
  510MOL0     H70324   1.494   6.679   2.334 -0.7981  1.5049  1.0982
  510MOL0     H70325   1.560   6.918   2.139 -0.1497 -0.6621 -0.9994
  510MOL0     H70326   1.627   6.758   2.121 -0.1583 -0.9375  0.9040
  510MOL0     H70327   1.699   6.983   2.301 -1.8186  0.4959  0.5933
  510MOL0     H70328   1.668   6.840   2.403  1.3817 -2.5684  0.8522
  510MOL0     H70329   1.799   6.591   2.257 -0.8491  1.3325 -2.3274
  510MOL0     H70330   2.065   6.495   2.149 -0.7922 -1.2517  1.5752
  510MOL0     H70331   2.089   6.511   2.325  1.6820 -0.1408 -0.6973
  510MOL0     H70332   2.243   6.669   2.118  1.6062  1.8597  2.1678
  510MOL0     H70333   2.293   6.655   2.284  3.5883 -0.5665 -1.6758
  510MOL0     H70334   2.288   6.419   2.092  1.0445 -0.4345  0.4948
  510MOL0     H70335   2.422   6.525   2.135  0.0453 -2.6614 -2.3506
  510MOL0     H70336   2.365   6.424   2.386 -1.5632 -0.8890  1.1998
  510MOL0     H70337   2.252   6.333   2.311 -1.3614  3.0770  3.3879
  510MOL0     H70338   2.549   6.455   2.445  1.7047  1.5104 -1.3462
  510MOL0     H70339   2.809   6.396   2.677  2.4058  2.2296  0.8556
  510MOL0     H70340   2.672   6.497   2.636  0.4567 -0.5229  0.0948
  510MOL0     H70341   2.829   6.524   2.559  0.6102 -0.8110 -0.4807
  510MOL0     H70342   3.241   6.023   2.339 -1.2125  0.4682  0.3728
  510MOL0     H70343   3.460   5.970   2.434 -1.7403 -0.3009 -3.0280
  510MOL0     H70344   3.690   6.035   2.533 -0.5719  1.1889 -1.4081
  510MOL0     H70345   3.607   6.188   2.555  0.4909 -0.7536 -3.0307
  510MOL0     H70346   3.704   6.218   2.784 -0.9729 -2.4023  1.8618
  510MOL0     H70347   3.786   6.060   2.775 -0.4173 -1.9804 -1.2154
  510MOL0     H70348   3.825   6.305   2.606 -3.6561 -0.8253  1.0615
  510MOL0     H70349   3.900   6.143   2.561 -1.5120 -1.1864 -0.1427
  510MOL0     H70350   4.018   6.146   2.786 -1.4949 -1.6986 -1.4156
  510MOL0     H70351   3.941   6.294   2.827  1.5837  4.2375 -1.1045
  510MOL0     H70352   4.110   6.265   2.578 -2.4401  0.5892 -0.2573
  510MOL0     H70353   4.063   6.424   2.642 -1.4336  0.0716  1.2699
  510MOL0     H70354   4.235   6.217   2.789 -3.6304 -1.5976 -0.8789
  510MOL0     H70355   4.179   6.370   2.861 -2.7275 -0.1786 -1.5722
  510MOL0     H70356   4.324   6.485   2.700 -2.2844 -0.2738  1.6511
  510MOL0     H70357   4.345   6.343   2.591  0.3037 -1.4729 -0.1099
  510MOL0     H70358   4.466   6.224   2.791  1.4469  0.5008 -0.8980
  510MOL0     H70359   4.422   6.365   2.892 -1.3514  2.4294 -0.5726
  510MOL0     H70360   3.326   6.093   2.810  0.1161  2.0319 -0.6275
  510MOL0     H70361   3.104   6.135   2.731 -1.9435  0.1157 -2.4962
  510MOL0     H70362   2.829   6.068   2.335 -1.7902 -1.0710  2.7173
  510MOL0     H70363   2.614   6.101   2.223  0.2878  0.7730  0.6252
  510MOL0     H70364   0.735   6.443   1.942 -0.7423 -1.4957 -0.0612
  510MOL0     H70365   0.528   6.368   1.828  0.6377 -0.7765 -0.3174
  510MOL0     H70366   0.407   6.285   1.335  0.2494  0.2524  1.5647
  510MOL0     H70367   0.215   6.184   1.226  0.8657  0.7214  0.9511
  510MOL0     H70368  -0.017   6.154   1.119  2.3923  2.5421  1.1077
  510MOL0     H70369   0.016   6.061   1.258 -1.2592 -1.4431 -0.7131
  510MOL0     H70370  -0.187   6.007   1.160  1.5895  0.5918 -0.8088
  510MOL0     H70371  -0.259   6.172   1.189 -0.5499  1.2245  2.5454
  510MOL0     H70372  -0.168   5.985   1.428 -1.2388  0.0085  0.0728
  510MOL0     H70373  -0.251   6.145   1.426  1.4852  0.4212  0.8538
  510MOL0     H70374  -0.439   6.038   1.322  1.1720 -1.3162 -3.4999
  510MOL0     H70375  -0.390   5.959   1.472 -0.2931  2.8988 -0.3748
  510MOL0     H70376  -0.449   5.663   1.175  1.7303 -1.7201  1.2542
  510MOL0     H70377  -0.055   6.448   1.454  1.2318  3.1900  1.4260
  510MOL0     H70378   0.138   6.578   1.668 -2.7306 -1.6478 -0.7190
  510MOL0     H70379   0.189   6.683   1.537  0.4474  0.5077 -1.2058
  510MOL0     H70380   0.026   6.647   1.536 -1.1686 -1.0963  0.8132
  511MOL0     O70381   3.630   1.465   6.820 -0.4927  0.0932  0.6496
  511MOL0     C70382   3.658   1.563   6.895  0.2951  0.3548  0.5305
  511MOL0     O70383   3.778   1.619   6.898 -0.1103  0.6044 -0.0308
  511MOL0     C70384   3.871   1.587   6.802  0.0510 -0.6224 -0.0998
  511MOL0     C70385   3.966   1.477   6.815  0.0374 -0.2934  0.4011
  511MOL0     C70386   4.070   1.461   6.720 -0.3239 -0.2592 -0.2260
  511MOL0     C70387   4.093   1.559   6.622 -1.0256  0.7542 -0.5645
  511MOL0     O70388   4.200   1.567   6.542 -0.7379  0.3430  0.1363
  511MOL0     C70389   4.288   1.456   6.544  0.4691 -0.3925  0.4023
  511MOL0     C70390   4.407   1.510   6.466  1.0524 -0.0548 -0.3639
  511MOL0     C70391   4.520   1.407   6.478 -0.0915 -0.0021 -0.2816
  511MOL0     C70392   4.619   1.437   6.364 -0.2638  0.5334 -1.3822
  511MOL0     C70393   4.734   1.328   6.365  0.2347  0.4456  0.2292
  511MOL0     C70394   4.839   1.342   6.253  0.1562 -0.3669  0.2758
  511MOL0     C70395   4.903   1.203   6.229  0.5498  0.3739  0.3361
  511MOL0     C70396   4.961   1.118   6.353 -0.3031  0.0335 -0.0420
  511MOL0     N70397   5.098   1.172   6.382  0.3444 -0.1514 -0.2592
  511MOL0     C70398   5.201   1.165   6.289 -0.2927 -1.1419  0.2485
  511MOL0     C70399   5.304   1.218   6.360 -0.1733  0.4770 -0.6648
  511MOL0     C70400   5.437   1.248   6.301 -0.2308 -0.0183 -0.2916
  511MOL0     C70401   5.451   1.405   6.297  0.4014 -0.3145  0.5755
  511MOL0     C70402   5.575   1.447   6.218  0.0858  0.0604  0.0106
  511MOL0     C70403   5.703   1.440   6.303  0.0137 -0.1976 -0.7484
  511MOL0     O70404   5.775   1.321   6.268  0.2976  0.6269 -0.3633
  511MOL0     C70405   5.885   1.307   6.346 -0.7414 -0.3401 -0.5099
  511MOL0     C70406   5.943   1.182   6.335 -0.2054  0.3605  0.5079
  511MOL0     C70407   6.073   1.150   6.379  0.2438  0.5402 -0.0833
  511MOL0     C70408   6.141   1.027   6.328  0.1510  0.6491 -0.2854
  511MOL0     C70409   6.141   1.242   6.452 -0.0315 -1.1417 -0.2506
  511MOL0     C70410   6.273   1.222   6.506 -0.0333  0.0007  0.8353
  511MOL0     O70411   6.361   1.329   6.503 -0.2226  0.3284 -0.2208
  511MOL0     C70412   6.494   1.304   6.523  0.7400  0.2406 -0.8888
  511MOL0     C70413   6.553   1.216   6.426 -0.0264  0.2379  0.6300
  511MOL0     C70414   6.686   1.172   6.440 -0.8932 -0.1199  0.0332
  511MOL0     C70415   6.757   1.228   6.547  0.4430  0.2749  0.5601
  511MOL0     O70416   6.888   1.204   6.569  1.0815  0.6044 -0.1860
  511MOL0     C70417   6.980   1.141   6.482 -1.3424 -0.8047 -0.1203
  511MOL0     C70418   7.103   1.083   6.563  0.6036 -0.5939  0.4396
  511MOL0     C70419   7.216   1.025   6.491  0.3710 -0.0858 -0.0915
  511MOL0     C70420   7.177   0.889   6.431  0.9238 -0.0652  0.4141
  511MOL0     C70421   7.284   0.819   6.346  0.7891  0.2563 -0.3666
  511MOL0     C70422   7.237   0.682   6.284 -0.8216 -0.7604  0.1642
  511MOL0     C70423   7.352   0.616   6.204 -0.0891  0.4666  0.2543
  511MOL0     C70424   7.313   0.494   6.134 -0.5236 -0.1576  0.0117
  511MOL0    Cl70425   7.453   0.430   6.047 -0.2995 -0.1351 -0.0132
  511MOL0     C70426   6.702   1.311   6.634 -0.6406 -0.5613  0.7149
  511MOL0     C70427   6.568   1.353   6.629  0.0690  0.2919  0.2223
  511MOL0     O70428   6.295   1.116   6.561 -0.0864  0.9913  0.5437
  511MOL0     C70429   6.076   1.367   6.488 -1.4174 -0.1004 -0.0617
  511MOL0     C70430   5.941   1.391   6.442 -0.0408  0.4127  0.5802
  511MOL0     N70431   5.260   1.260   6.490 -0.5234  0.0724 -0.1959
  511MOL0     N70432   5.139   1.229   6.499  0.3755 -0.0567 -0.6699
  511MOL0     C70433   3.995   1.653   6.605 -0.2903  0.4248 -0.8914
  511MOL0     C70434   3.890   1.671   6.694 -0.2056 -0.0143 -0.4012
  511MOL0     C70435   3.558   1.611   6.992  0.3091  0.5226 -0.3427
  511MOL0     C70436   3.606   1.697   7.094  0.5078 -0.4779 -0.6085
  511MOL0     C70437   3.519   1.746   7.197  0.0608 -0.7316  0.5236
  511MOL0     C70438   3.382   1.717   7.196  0.4912 -0.6182  1.3080
  511MOL0     O70439   3.299   1.777   7.288 -0.2516 -0.8189 -0.9164
  511MOL0     C70440   3.170   1.820   7.247 -0.6464 -1.0062  1.1419
  511MOL0     C70441   3.069   1.720   7.296  0.9026 -0.4308  0.1614
  511MOL0     C70442   2.934   1.782   7.304  0.9513 -0.2118 -0.4048
  511MOL0     C70443   2.832   1.679   7.350 -0.3916  1.4117 -0.7544
  511MOL0     C70444   2.715   1.745   7.409 -0.6393 -0.1992 -0.2345
  511MOL0     C70445   2.617   1.786   7.464  0.6969 -0.8803  0.2756
  511MOL0     C70446   3.335   1.626   7.091 -0.1796  0.2651 -0.8143
  511MOL0     C70447   3.418   1.577   6.991  0.4419  0.3037 -0.3991
  511MOL0     C70448   3.351   1.503   6.880  0.0507 -0.0790  0.4045
  511MOL0     H70449   3.955   1.412   6.901 -1.3871  1.2836  1.4728
  511MOL0     H70450   4.137   1.376   6.719 -0.9849 -0.8849 -3.6500
  511MOL0     H70451   4.246   1.364   6.504  1.0224 -0.4486 -0.0550
  511MOL0     H70452   4.328   1.435   6.644  0.6768  1.4519  0.7352
  511MOL0     H70453   4.386   1.519   6.359 -1.2618  0.4520  0.0672
  511MOL0     H70454   4.437   1.608   6.504 -3.3152  1.0457  0.9135
  511MOL0     H70455   4.565   1.431   6.574 -1.4617  1.1545  0.1043
  511MOL0     H70456   4.490   1.303   6.496 -0.2505  0.6491  4.3868
  511MOL0     H70457   4.567   1.432   6.268 -3.3571 -1.1890  0.2064
  511MOL0     H70458   4.673   1.530   6.384  1.4231 -0.6933  0.1076
  511MOL0     H70459   4.682   1.232   6.365  0.2026  0.4289  2.0244
  511MOL0     H70460   4.784   1.332   6.462 -1.3564 -0.9163  1.1649
  511MOL0     H70461   4.788   1.358   6.157 -1.5659 -2.5149  0.7400
  511MOL0     H70462   4.915   1.420   6.253  0.7236 -0.5341 -5.2675
  511MOL0     H70463   4.980   1.215   6.153 -2.1865 -1.3775 -2.9986
  511MOL0     H70464   4.829   1.139   6.181 -0.5327  0.4387  1.8179
  511MOL0     H70465   4.893   1.135   6.438  1.6927 -0.5259  1.7621
  511MOL0     H70466   4.965   1.012   6.324  2.2711  0.0967 -0.1129
  511MOL0     H70467   5.212   1.153   6.182 -2.4376 -1.5310  0.0310
  511MOL0     H70468   5.444   1.216   6.197  4.0629  1.9036 -0.8251
  511MOL0     H70469   5.518   1.208   6.363  0.0215  0.6718 -0.1707
  511MOL0     H70470   5.365   1.435   6.237  1.7392  1.8162 -0.3865
  511MOL0     H70471   5.443   1.447   6.397 -0.3595  0.2476  0.2843
  511MOL0     H70472   5.581   1.395   6.122  2.3584  4.1352 -2.3644
  511MOL0     H70473   5.571   1.547   6.173  0.3120 -0.2530 -0.7361
  511MOL0     H70474   5.761   1.525   6.266 -0.0909 -1.1953 -3.4041
  511MOL0     H70475   5.689   1.437   6.412 -2.5983  0.3565 -1.0132
  511MOL0     H70476   5.907   1.108   6.264  1.9960 -1.5765  1.2479
  511MOL0     H70477   6.249   1.028   6.346  0.8981 -0.8007 -3.8441
  511MOL0     H70478   6.127   1.008   6.221 -2.4721  1.3329 -0.1278
  511MOL0     H70479   6.094   0.946   6.384 -1.0962  1.0539 -0.7177
  511MOL0     H70480   6.491   1.190   6.341 -0.8278  2.8614  0.3298
  511MOL0     H70481   6.726   1.099   6.371 -1.3659 -1.8691  1.5454
  511MOL0     H70482   6.937   1.056   6.427  1.0562 -1.2092 -1.5586
  511MOL0     H70483   7.006   1.216   6.407  1.0828 -1.3110  0.1119
  511MOL0     H70484   7.125   1.168   6.629 -3.4806  1.8329 -0.9316
  511MOL0     H70485   7.059   1.007   6.628 -1.0801 -0.6406 -0.6957
  511MOL0     H70486   7.296   0.996   6.559  0.2540 -0.1423  0.0237
  511MOL0     H70487   7.261   1.083   6.410 -0.0984  0.3666 -0.0357
  511MOL0     H70488   7.095   0.907   6.361  0.2770 -0.6194  1.0171
  511MOL0     H70489   7.143   0.814   6.503  1.9419 -0.0763  0.9101
  511MOL0     H70490   7.313   0.884   6.264 -0.4543  0.4084 -0.7064
  511MOL0     H70491   7.372   0.800   6.408 -0.5590 -4.2902  0.5659
  511MOL0     H70492   7.159   0.706   6.211 -0.2410  3.0564  0.6010
  511MOL0     H70493   7.200   0.617   6.364  0.7116 -2.2104 -0.2349
  511MOL0     H70494   7.437   0.604   6.272  0.9464  1.3560 -0.8350
  511MOL0     H70495   7.400   0.681   6.130  2.7239  0.2037  1.6946
  511MOL0     H70496   7.236   0.504   6.057  0.3678  0.0676 -0.8580
  511MOL0     H70497   7.277   0.413   6.199 -1.1160 -0.6109 -0.8617
  511MOL0     H70498   6.768   1.356   6.707  1.3719 -0.8194 -0.8770
  511MOL0     H70499   6.529   1.417   6.708 -0.6223 -1.1161  1.0671
  511MOL0     H70500   6.128   1.441   6.549 -0.4434 -0.1003 -0.8649
  511MOL0     H70501   5.898   1.487   6.468  1.8722  2.5675 -3.4198
  511MOL0     H70502   4.012   1.722   6.523  0.6659 -1.1998 -2.1155
  511MOL0     H70503   3.819   1.750   6.670 -1.4203 -1.6823 -2.5659
  511MOL0     H70504   3.710   1.728   7.099  1.0001 -2.1199  0.0346
  511MOL0     H70505   3.557   1.816   7.271  0.0395 -0.2713  0.1036
  511MOL0     H70506   3.153   1.905   7.313 -1.3847  0.4823 -0.8852
  511MOL0     H70507   3.164   1.841   7.140  1.7352 -1.1996  0.8973
  511MOL0     H70508   3.103   1.691   7.396 -0.0640  1.3331  1.0513
  511MOL0     H70509   3.067   1.636   7.226 -0.2817 -3.8362  3.8394
  511MOL0     H70510   2.935   1.865   7.375 -2.1869  0.8763 -1.4629
  511MOL0     H70511   2.917   1.822   7.203 -1.4424 -1.1402 -0.4259
  511MOL0     H70512   2.864   1.609   7.428 -3.8662  0.4006 -0.0589
  511MOL0     H70513   2.813   1.611   7.266  1.2164  2.8258 -2.3525
  511MOL0     H70514   2.532   1.815   7.522  0.3133 -1.1712 -0.1356
  511MOL0     H70515   3.230   1.599   7.091 -0.2396  0.4982 -0.5807
  511MOL0     H70516   3.391   1.531   6.781 -0.6610 -0.7342 -0.0816
  511MOL0     H70517   3.364   1.395   6.890 -0.9380 -0.4168 -1.4129
  511MOL0     H70518   3.243   1.516   6.879  0.1764  1.2721  1.8124
  512MOL0     O70519   6.093   5.309   2.282  0.8745 -0.0446  1.1720
  512MOL0     C70520   6.008   5.360   2.353  0.2118 -0.3629  0.0966
  512MOL0     O70521   6.004   5.491   2.387 -0.2630 -0.0245 -0.2752
  512MOL0     C70522   6.097   5.581   2.332  0.1485  0.2246 -0.4230
  512MOL0     C70523   6.239   5.560   2.330 -0.3850 -2.0236 -0.0136
  512MOL0     C70524   6.325   5.645   2.257 -0.4093  0.5210  0.2561
  512MOL0     C70525   6.273   5.752   2.192  0.0460  0.6326 -0.8577
  512MOL0     O70526   6.347   5.838   2.118 -1.4552 -0.3457 -0.1241
  512MOL0     C70527   6.474   5.782   2.070 -1.2228  0.2119 -0.6369
  512MOL0     C70528   6.539   5.882   1.975 -0.3917 -0.9449 -0.3993
  512MOL0     C70529   6.609   5.999   2.050 -0.0908  0.5102 -0.1123
  512MOL0     C70530   6.495   6.082   2.120 -0.0443  0.9790  0.6899
  512MOL0     C70531   6.563   6.217   2.162 -1.1487  0.0374  0.3167
  512MOL0     C70532   6.480   6.297   2.253  0.5593  0.3795 -0.7797
  512MOL0     C70533   6.558   6.434   2.288  0.1937  0.0326  0.1491
  512MOL0     C70534   6.661   6.413   2.393 -0.2929 -0.4335  0.7111
  512MOL0     N70535   6.766   6.517   2.389  0.3173 -0.2894  0.1545
  512MOL0     C70536   6.861   6.539   2.296 -0.2859 -1.0005 -0.0600
  512MOL0     C70537   6.945   6.626   2.364  0.3478  0.8172 -0.7811
  512MOL0     C70538   7.064   6.697   2.309 -0.9548 -0.3360  0.2027
  512MOL0     C70539   7.189   6.612   2.306 -0.8609  0.3499 -0.9627
  512MOL0     C70540   7.280   6.684   2.218 -0.8527  0.0064 -0.2875
  512MOL0     C70541   7.410   6.617   2.200  0.4097  0.1290 -0.4439
  512MOL0     O70542   7.484   6.706   2.114  0.0279  0.1992  1.2187
  512MOL0     C70543   7.617   6.695   2.111 -0.8339 -0.8586  0.1008
  512MOL0     C70544   7.688   6.807   2.078 -0.8157 -0.5897  0.0781
  512MOL0     C70545   7.833   6.796   2.061  0.5496  0.4837  0.5251
  512MOL0     C70546   7.911   6.925   2.030 -0.5696  0.0461  0.3059
  512MOL0     C70547   7.901   6.671   2.074  0.8070  0.5118  0.4899
  512MOL0     C70548   8.044   6.644   2.053  0.9915  0.2767  0.0709
  512MOL0     O70549   8.089   6.554   2.145 -0.5515 -0.9547  0.6485
  512MOL0     C70550   8.203   6.483   2.110  0.6549 -0.4859 -0.1093
  512MOL0     C70551   8.192   6.347   2.087 -1.4406 -0.6831 -0.0453
  512MOL0     C70552   8.305   6.275   2.047 -0.3404  0.9851  0.6831
  512MOL0     C70553   8.427   6.340   2.027  0.0399 -0.7598  0.2587
  512MOL0     O70554   8.528   6.259   1.986  0.3286  0.0825 -0.4587
  512MOL0     C70555   8.666   6.306   1.996  0.2283 -0.3505 -0.7305
  512MOL0     C70556   8.761   6.229   1.906  0.6619 -0.6045  0.3408
  512MOL0     C70557   8.744   6.279   1.761  0.7883  0.1239  0.1681
  512MOL0     C70558   8.815   6.199   1.649 -0.4130 -0.2617 -0.9361
  512MOL0     C70559   8.785   6.049   1.646  0.1551 -0.2468  1.2192
  512MOL0     C70560   8.637   6.006   1.657  0.2952 -0.0818  0.0289
  512MOL0     C70561   8.562   6.042   1.526  0.0724 -0.0167  0.1321
  512MOL0     C70562   8.410   6.054   1.568 -0.0557 -0.1235 -0.7402
  512MOL0    Cl70563   8.298   6.108   1.439  0.2484 -0.4846 -0.3762
  512MOL0     C70564   8.431   6.480   2.060 -0.4003 -0.0248  0.2630
  512MOL0     C70565   8.318   6.550   2.099  0.1994  1.2827  0.2204
  512MOL0     O70566   8.096   6.681   1.950  0.0055 -0.5823 -0.5164
  512MOL0     C70567   7.812   6.559   2.078 -1.2415  0.6602 -0.2052
  512MOL0     C70568   7.677   6.573   2.102 -0.5577 -0.0215  0.6918
  512MOL0     N70569   6.901   6.645   2.490  0.1929 -0.4678 -0.3182
  512MOL0     N70570   6.792   6.585   2.500 -0.2012 -0.4511 -0.4918
  512MOL0     C70571   6.140   5.775   2.205 -0.3985 -0.3428  0.2479
  512MOL0     C70572   6.049   5.688   2.268 -0.1867  0.1381 -0.5701
  512MOL0     C70573   5.881   5.292   2.389 -0.8844 -0.0513 -0.7263
  512MOL0     C70574   5.765   5.366   2.404 -1.3947 -0.1523 -0.2569
  512MOL0     C70575   5.640   5.304   2.420 -0.5186  1.3596 -0.3149
  512MOL0     C70576   5.630   5.168   2.420 -0.0726  0.2789 -0.1657
  512MOL0     O70577   5.506   5.126   2.455 -0.4315  0.4292  0.3330
  512MOL0     C70578   5.492   4.995   2.489 -0.1527  0.6781  0.1465
  512MOL0     C70579   5.473   4.900   2.368 -0.3197 -0.6264 -0.3284
  512MOL0     C70580   5.337   4.912   2.293  0.4705  0.1652  0.0621
  512MOL0     C70581   5.353   4.865   2.145 -0.5421  0.5266 -0.5669
  512MOL0     C70582   5.431   4.956   2.056 -0.7401  0.6253  0.3122
  512MOL0     C70583   5.473   5.039   1.980 -0.3267  0.9559 -0.7111
  512MOL0     C70584   5.752   5.090   2.406  0.1727 -0.9126  0.2167
  512MOL0     C70585   5.877   5.154   2.398  0.0446  0.0635  0.0581
  512MOL0     C70586   5.995   5.069   2.394  0.5560  0.1179  0.0680
  512MOL0     H70587   6.283   5.476   2.382 -1.5954 -1.7293  1.5594
  512MOL0     H70588   6.433   5.635   2.265 -0.5256 -0.7826  0.4342
  512MOL0     H70589   6.462   5.688   2.015 -2.2241 -0.6621  1.0009
  512MOL0     H70590   6.547   5.757   2.148 -0.6699  0.3279 -1.1071
  512MOL0     H70591   6.617   5.840   1.911  1.3484  1.1808  0.1892
  512MOL0     H70592   6.465   5.925   1.907  1.0741  0.8399 -0.9603
  512MOL0     H70593   6.662   5.943   2.128 -0.9649  0.0393  0.1595
  512MOL0     H70594   6.678   6.058   1.989 -0.7262 -0.8908 -2.2900
  512MOL0     H70595   6.405   6.102   2.062 -0.3228 -0.2245  0.6688
  512MOL0     H70596   6.456   6.031   2.209 -3.8710 -1.0670 -1.8631
  512MOL0     H70597   6.574   6.275   2.070 -0.6517 -1.4079 -0.5737
  512MOL0     H70598   6.664   6.204   2.202 -0.0764  1.0577 -1.8670
  512MOL0     H70599   6.384   6.310   2.203 -1.3945 -3.0863  1.6173
  512MOL0     H70600   6.456   6.233   2.339 -2.0111 -0.1242 -1.7846
  512MOL0     H70601   6.498   6.521   2.318  2.9474  1.9874  0.4553
  512MOL0     H70602   6.602   6.463   2.191  0.3000 -3.6914 -1.0845
  512MOL0     H70603   6.611   6.412   2.490 -1.3236 -0.1931  0.2069
  512MOL0     H70604   6.695   6.310   2.381  0.3047 -0.0821 -0.8414
  512MOL0     H70605   6.877   6.491   2.200  2.0389  2.5365 -1.6784
  512MOL0     H70606   7.089   6.782   2.372  0.8057 -0.6600  0.0140
  512MOL0     H70607   7.042   6.737   2.209  0.2558 -2.4316 -0.9965
  512MOL0     H70608   7.236   6.592   2.402 -0.1748  1.3073 -1.0743
  512MOL0     H70609   7.174   6.517   2.254  1.0147 -0.5227 -0.0042
  512MOL0     H70610   7.233   6.699   2.120 -3.0536 -1.3425  0.4960
  512MOL0     H70611   7.296   6.783   2.262 -1.4042  1.2677 -2.7394
  512MOL0     H70612   7.463   6.587   2.292  0.8167 -2.7537 -1.5018
  512MOL0     H70613   7.399   6.519   2.151  0.3921  0.2588 -0.7011
  512MOL0     H70614   7.643   6.905   2.087  3.4334  1.8508 -1.7810
  512MOL0     H70615   7.853   7.000   1.976 -1.0949 -0.2416  0.4572
  512MOL0     H70616   7.998   6.901   1.969 -0.4352 -2.9292  1.4907
  512MOL0     H70617   7.955   6.968   2.121  1.6823  0.3084 -0.8347
  512MOL0     H70618   8.098   6.294   2.088 -2.2836  0.6367 -1.7648
  512MOL0     H70619   8.304   6.167   2.039 -1.0815  1.1119 -2.6582
  512MOL0     H70620   8.675   6.413   1.978 -0.6127 -0.2325 -0.4878
  512MOL0     H70621   8.700   6.290   2.099  0.7263 -0.3216 -0.8852
  512MOL0     H70622   8.867   6.255   1.918  1.0259 -1.2443 -1.2488
  512MOL0     H70623   8.743   6.123   1.927 -1.7938  0.4301  4.5329
  512MOL0     H70624   8.765   6.386   1.751  3.1830 -0.1429  1.6791
  512MOL0     H70625   8.637   6.280   1.736  0.7043  1.6599  0.5033
  512MOL0     H70626   8.922   6.225   1.655 -0.9247  1.6986  1.4614
  512MOL0     H70627   8.779   6.244   1.556  0.3265  0.6746 -0.7893
  512MOL0     H70628   8.826   6.009   1.553 -0.7480 -2.2623  1.6401
  512MOL0     H70629   8.839   6.008   1.731  0.4466 -1.8159  0.3177
  512MOL0     H70630   8.593   6.052   1.746  1.5622 -0.4033  0.8585
  512MOL0     H70631   8.637   5.897   1.664  0.3425 -0.0391  0.7599
  512MOL0     H70632   8.577   5.965   1.450 -2.4198  0.7829 -1.2728
  512MOL0     H70633   8.599   6.136   1.485 -0.2135  0.6398  1.3245
  512MOL0     H70634   8.405   6.131   1.646 -3.4752  1.8197 -2.6195
  512MOL0     H70635   8.388   5.959   1.616  1.5601 -1.6980 -2.9129
  512MOL0     H70636   8.524   6.534   2.074 -0.4142  0.0622  0.0306
  512MOL0     H70637   8.338   6.652   2.133 -0.6514  1.9349 -1.1633
  512MOL0     H70638   7.852   6.460   2.098 -0.6343  0.9619  0.1102
  512MOL0     H70639   7.612   6.488   2.121  0.6944 -1.1987 -0.0806
  512MOL0     H70640   6.082   5.863   2.178 -1.0011 -0.9984 -0.6472
  512MOL0     H70641   5.942   5.707   2.279 -0.3164  0.0745 -1.6052
  512MOL0     H70642   5.764   5.475   2.407 -1.7697 -0.1490 -0.3703
  512MOL0     H70643   5.553   5.364   2.444 -1.3472  0.4237 -0.9531
  512MOL0     H70644   5.566   4.954   2.558  1.0003 -0.9223 -1.9179
  512MOL0     H70645   5.401   4.989   2.551 -0.9049 -0.3168 -1.0017
  512MOL0     H70646   5.472   4.797   2.406 -1.2368 -0.4791  0.0722
  512MOL0     H70647   5.553   4.919   2.297 -1.6587  1.6583 -1.3215
  512MOL0     H70648   5.258   4.858   2.347  0.2756  0.2966 -0.0918
  512MOL0     H70649   5.292   5.012   2.291 -3.2302 -1.1944  2.7713
  512MOL0     H70650   5.253   4.850   2.104 -0.7350  0.8227 -0.2090
  512MOL0     H70651   5.403   4.768   2.150 -1.3142  0.1360 -0.2735
  512MOL0     H70652   5.507   5.125   1.925  0.0963  1.4628  0.3079
  512MOL0     H70653   5.763   4.982   2.404  3.7778 -0.6370 -0.6251
  512MOL0     H70654   5.967   4.968   2.424 -4.8403  0.7985 -1.6382
  512MOL0     H70655   6.029   5.056   2.291 -1.1865  0.9013 -0.6427
  512MOL0     H70656   6.076   5.114   2.453 -0.4740 -0.0006  1.6273
  513MOL0     O70657   0.597   3.422   6.700  0.2358 -0.0563 -0.1372
  513MOL0     C70658   0.683   3.442   6.619 -0.5469 -0.3638 -0.4442
  513MOL0     O70659   0.679   3.411   6.485 -0.0135  0.1005  0.3521
  513MOL0     C70660   0.560   3.380   6.410 -0.1889  0.3909 -0.2120
  513MOL0     C70661   0.586   3.373   6.269  0.8179 -0.4056 -0.6702
  513MOL0     C70662   0.480   3.347   6.190  0.3342  0.1751 -0.2273
  513MOL0     C70663   0.348   3.312   6.248  0.5365  0.0255  0.0839
  513MOL0     O70664   0.244   3.299   6.159 -0.2894 -0.1262  0.2672
  513MOL0     C70665   0.113   3.314   6.215  0.1170 -0.1459  0.5236
  513MOL0     C70666   0.013   3.300   6.099  0.9391  0.3818  0.3390
  513MOL0     C70667  -0.122   3.294   6.159  0.3153 -0.0034  0.9970
  513MOL0     C70668  -0.180   3.433   6.145 -0.0901 -0.1536  0.2460
  513MOL0     C70669  -0.311   3.446   6.220 -0.5670 -1.0978 -0.0144
  513MOL0     C70670  -0.429   3.385   6.150 -0.9398 -0.2129 -0.0156
  513MOL0     C70671  -0.571   3.435   6.189 -0.0946  0.0876 -0.7629
  513MOL0     C70672  -0.615   3.385   6.324 -0.8804 -0.3278 -0.0305
  513MOL0     N70673  -0.757   3.410   6.344  0.4709  0.6742  0.4469
  513MOL0     C70674  -0.815   3.526   6.381  0.6320 -0.6128  0.0257
  513MOL0     C70675  -0.950   3.500   6.382 -0.3768  0.3810 -0.3240
  513MOL0     C70676  -1.062   3.594   6.415 -0.9222 -0.2350  0.4097
  513MOL0     C70677  -1.100   3.596   6.558 -0.3589 -0.0694  0.5686
  513MOL0     C70678  -1.209   3.703   6.598  0.2196  0.2714  0.5874
  513MOL0     C70679  -1.181   3.851   6.600  0.0352  0.3324 -0.6504
  513MOL0     O70680  -1.062   3.870   6.689 -0.0046  0.4136  0.3949
  513MOL0     C70681  -0.956   3.943   6.627  1.1487  0.2732 -0.4528
  513MOL0     C70682  -0.848   3.871   6.586  0.5041 -0.5331 -0.8985
  513MOL0     C70683  -0.739   3.931   6.520 -0.4967  0.4836  0.1634
  513MOL0     C70684  -0.606   3.853   6.476  0.2407  0.5880 -0.9170
  513MOL0     C70685  -0.745   4.074   6.502 -0.4585  0.1795 -0.0658
  513MOL0     C70686  -0.640   4.155   6.447  0.3401 -0.1722  0.2700
  513MOL0     O70687  -0.622   4.279   6.493  0.7464 -0.0157 -0.0801
  513MOL0     C70688  -0.524   4.358   6.446  0.3138 -0.0708  0.1190
  513MOL0     C70689  -0.402   4.352   6.516  0.2675  0.1753  0.4017
  513MOL0     C70690  -0.300   4.435   6.476 -0.3962  0.5407 -0.1625
  513MOL0     C70691  -0.316   4.522   6.367  0.1946  0.2956 -1.0987
  513MOL0     O70692  -0.235   4.615   6.312 -0.2053  0.4555  0.4782
  513MOL0     C70693  -0.090   4.602   6.317  0.2174  0.0778 -0.0275
  513MOL0     C70694  -0.023   4.712   6.230  0.1391 -0.0472  0.2434
  513MOL0     C70695  -0.070   4.849   6.257  0.4327  1.0706  0.9470
  513MOL0     C70696  -0.066   4.882   6.412  0.4413  0.3372 -0.1967
  513MOL0     C70697  -0.072   5.033   6.418  0.2652  0.5608 -0.1360
  513MOL0     C70698   0.065   5.100   6.399 -0.6280  0.0599 -0.5201
  513MOL0     C70699   0.169   5.071   6.517 -0.2977 -0.7378  0.3877
  513MOL0     C70700   0.310   5.118   6.491 -0.0371  0.0752 -0.1619
  513MOL0    Cl70701   0.369   5.068   6.329 -0.0137  0.0413  0.0306
  513MOL0     C70702  -0.448   4.539   6.313 -0.6692  1.0179  0.2039
  513MOL0     C70703  -0.547   4.449   6.348 -0.6810 -0.7621 -0.0065
  513MOL0     O70704  -0.579   4.108   6.347 -0.0174 -0.6978 -0.3560
  513MOL0     C70705  -0.856   4.148   6.544  0.7340  0.0642 -0.2517
  513MOL0     C70706  -0.970   4.083   6.600 -0.2668  0.0045 -0.0527
  513MOL0     N70707  -0.971   3.368   6.342  0.1248 -0.0446 -0.2213
  513MOL0     N70708  -0.855   3.315   6.340  0.0381  0.1565  0.0204
  513MOL0     C70709   0.323   3.305   6.388 -1.2990 -0.2994  0.5884
  513MOL0     C70710   0.429   3.349   6.467 -0.2196 -0.2612 -0.5725
  513MOL0     C70711   0.805   3.513   6.671  0.8939 -0.3849 -0.4363
  513MOL0     C70712   0.875   3.466   6.788  0.1421  0.6348  1.1713
  513MOL0     C70713   0.984   3.536   6.836  0.3172  0.4623  0.2354
  513MOL0     C70714   1.022   3.654   6.772  0.7184  0.3942 -0.9999
  513MOL0     O70715   1.111   3.741   6.832  0.4248  0.4258  0.6205
  513MOL0     C70716   1.209   3.819   6.756 -0.4772  0.3522  0.4182
  513MOL0     C70717   1.329   3.847   6.842 -0.4347 -0.5266 -0.0773
  513MOL0     C70718   1.413   3.730   6.870 -0.0417  0.5574  0.6093
  513MOL0     C70719   1.495   3.783   6.992 -0.1017 -0.6635  1.4886
  513MOL0     C70720   1.601   3.687   7.008  0.0615 -0.6720 -0.0919
  513MOL0     C70721   1.700   3.615   7.011 -0.0802 -0.2221  0.4451
  513MOL0     C70722   0.940   3.707   6.670 -1.2820  0.7940  0.1574
  513MOL0     C70723   0.841   3.634   6.609  0.4427  1.2608 -0.1540
  513MOL0     C70724   0.760   3.700   6.509 -0.2460 -0.1193  1.4461
  513MOL0     H70725   0.679   3.413   6.229  0.2805  4.8818  2.4331
  513MOL0     H70726   0.488   3.335   6.083  2.4287 -1.6959  0.0629
  513MOL0     H70727   0.094   3.412   6.262 -1.9297  1.4750 -3.2380
  513MOL0     H70728   0.098   3.237   6.291 -1.1854  1.0710  1.5587
  513MOL0     H70729   0.021   3.369   6.015  0.4882  0.7813  0.6179
  513MOL0     H70730   0.035   3.200   6.061 -0.2991 -0.0848  0.7817
  513MOL0     H70731  -0.184   3.219   6.109 -0.2243 -0.2318  1.9942
  513MOL0     H70732  -0.109   3.254   6.260  0.4457 -1.9645  0.2504
  513MOL0     H70733  -0.105   3.501   6.188 -0.7246 -0.3488  1.6983
  513MOL0     H70734  -0.200   3.466   6.043 -0.4986  1.2681  0.7581
  513MOL0     H70735  -0.326   3.555   6.216 -3.5120 -1.4308 -0.5566
  513MOL0     H70736  -0.307   3.398   6.318 -2.4945  0.6794  1.0048
  513MOL0     H70737  -0.426   3.420   6.046 -2.5461 -1.5411 -0.5451
  513MOL0     H70738  -0.421   3.276   6.156 -1.2203 -0.2241  0.1657
  513MOL0     H70739  -0.645   3.392   6.121 -1.6986 -1.9909  2.0727
  513MOL0     H70740  -0.574   3.544   6.181 -2.7370  0.1871  0.7027
  513MOL0     H70741  -0.605   3.277   6.310 -1.6805 -0.5152  0.7268
  513MOL0     H70742  -0.560   3.416   6.413  1.0053 -3.1479 -0.0802
  513MOL0     H70743  -0.764   3.621   6.396 -0.9177  0.0817  1.1391
  513MOL0     H70744  -1.154   3.561   6.367  0.4666 -2.3251 -1.0038
  513MOL0     H70745  -1.038   3.690   6.368 -0.9421 -0.8884 -1.0071
  513MOL0     H70746  -1.139   3.497   6.583  1.9667 -1.2297 -0.0952
  513MOL0     H70747  -1.010   3.609   6.620 -0.2608 -1.3262  0.7207
  513MOL0     H70748  -1.292   3.698   6.527  2.0642 -0.0910 -1.6845
  513MOL0     H70749  -1.259   3.674   6.691 -1.1365  1.2924  0.2112
  513MOL0     H70750  -1.159   3.871   6.495 -1.6310  0.7631 -0.9378
  513MOL0     H70751  -1.263   3.917   6.627 -0.5524 -0.9547  0.8619
  513MOL0     H70752  -0.834   3.766   6.609 -0.8395 -0.4015  0.7523
  513MOL0     H70753  -0.606   3.833   6.369  2.5143  1.0464 -1.0660
  513MOL0     H70754  -0.597   3.757   6.528 -0.1128  0.8601 -0.3388
  513MOL0     H70755  -0.515   3.910   6.498  0.6560  0.6243 -2.5911
  513MOL0     H70756  -0.389   4.284   6.600 -3.6378 -0.6489  0.5377
  513MOL0     H70757  -0.208   4.429   6.534  0.3970  3.8684 -0.8757
  513MOL0     H70758  -0.052   4.614   6.419  0.9335 -1.3633 -0.1062
  513MOL0     H70759  -0.067   4.499   6.288 -1.5419 -1.1460  2.5406
  513MOL0     H70760   0.086   4.714   6.230  0.1633 -0.5297 -0.8865
  513MOL0     H70761  -0.046   4.685   6.127  0.0817 -0.0339  0.2528
  513MOL0     H70762  -0.172   4.866   6.224  1.5396  1.5259 -2.6570
  513MOL0     H70763  -0.013   4.924   6.201 -0.7492  0.2502 -1.4994
  513MOL0     H70764   0.026   4.844   6.457  0.2767  0.2936  0.1003
  513MOL0     H70765  -0.156   4.851   6.466  0.4806 -0.8189 -0.7520
  513MOL0     H70766  -0.138   5.078   6.343 -0.6613 -1.0039 -0.3090
  513MOL0     H70767  -0.108   5.064   6.516  0.7565  0.7582 -0.0168
  513MOL0     H70768   0.060   5.208   6.384 -0.8859  0.3511  1.4494
  513MOL0     H70769   0.116   5.060   6.310  2.0323  0.6607  0.6240
  513MOL0     H70770   0.173   4.966   6.548 -0.7667 -0.6604  0.7134
  513MOL0     H70771   0.129   5.120   6.605  1.3196  0.7209  0.3691
  513MOL0     H70772   0.367   5.081   6.577 -3.6430 -0.7436  2.0977
  513MOL0     H70773   0.308   5.227   6.491 -0.3363  0.0708 -0.7230
  513MOL0     H70774  -0.468   4.611   6.234  0.2124  0.6325 -0.3987
  513MOL0     H70775  -0.648   4.474   6.314 -0.0155  0.0004 -1.5221
  513MOL0     H70776  -0.857   4.256   6.534 -1.3006  0.1930  0.7903
  513MOL0     H70777  -1.060   4.138   6.626 -0.9256 -0.4449 -1.3124
  513MOL0     H70778   0.231   3.276   6.439 -2.0794  1.8916  0.5114
  513MOL0     H70779   0.406   3.350   6.573 -2.4386  1.3656 -0.9894
  513MOL0     H70780   0.842   3.369   6.824  0.3195 -0.4103 -1.2225
  513MOL0     H70781   1.035   3.496   6.923 -0.2571  0.0637  0.3924
  513MOL0     H70782   1.241   3.765   6.667  2.2160  2.2884  0.0970
  513MOL0     H70783   1.167   3.917   6.730 -0.8889 -0.0913 -0.6324
  513MOL0     H70784   1.297   3.899   6.933 -0.5187  0.6917 -0.7724
  513MOL0     H70785   1.398   3.921   6.800 -0.5366 -0.4114 -0.0451
  513MOL0     H70786   1.353   3.643   6.897  2.8506 -1.7363  0.1260
  513MOL0     H70787   1.474   3.694   6.787  0.0462 -0.6620  1.1839
  513MOL0     H70788   1.418   3.801   7.068  0.5269  4.1676  1.2979
  513MOL0     H70789   1.534   3.881   6.963 -2.7972 -0.2995 -1.5444
  513MOL0     H70790   1.786   3.553   6.999  0.4386  0.2923  1.4099
  513MOL0     H70791   0.960   3.807   6.635  0.3833  1.4979  2.8171
  513MOL0     H70792   0.652   3.683   6.516 -0.3436  0.2187  0.8385
  513MOL0     H70793   0.764   3.810   6.505 -1.2625 -0.0988 -1.1354
  513MOL0     H70794   0.785   3.656   6.412 -0.9546 -1.3477  1.7948
  514MOL0     O70795   5.344   3.717   6.537 -0.6625 -0.4068 -0.8697
  514MOL0     C70796   5.284   3.611   6.541  0.7624  0.1649  0.3363
  514MOL0     O70797   5.331   3.492   6.499 -0.2012 -0.8107  0.6818
  514MOL0     C70798   5.466   3.478   6.512 -0.4445  0.4513  0.6387
  514MOL0     C70799   5.540   3.404   6.417 -0.3015 -0.2263 -0.0703
  514MOL0     C70800   5.672   3.358   6.438 -0.5309 -0.6687  0.6445
  514MOL0     C70801   5.732   3.395   6.561 -0.3981  0.2468 -0.9547
  514MOL0     O70802   5.866   3.351   6.568 -0.8406 -0.3040 -0.1321
  514MOL0     C70803   5.976   3.410   6.644  0.4322 -0.3327  0.6473
  514MOL0     C70804   6.099   3.307   6.625  0.0487 -0.3107  0.2766
  514MOL0     C70805   6.083   3.195   6.720 -1.1446 -0.3205 -1.3122
  514MOL0     C70806   6.201   3.098   6.684  0.4587 -0.1136 -0.2172
  514MOL0     C70807   6.244   3.051   6.819 -0.7694 -0.4281 -1.0632
  514MOL0     C70808   6.367   2.955   6.804  0.6006 -0.3288 -0.6867
  514MOL0     C70809   6.324   2.829   6.738  0.3168  0.1331  0.6153
  514MOL0     C70810   6.412   2.713   6.780  0.5941  0.6016 -0.6160
  514MOL0     N70811   6.550   2.741   6.726  0.2607 -0.2874 -0.3384
  514MOL0     C70812   6.583   2.726   6.589  0.4788  0.0548 -0.1660
  514MOL0     C70813   6.699   2.789   6.585  0.0257 -0.5533  0.0830
  514MOL0     C70814   6.784   2.814   6.474 -0.4708 -0.2069  0.1674
  514MOL0     C70815   6.819   2.689   6.393  0.4216 -0.4903 -0.5754
  514MOL0     C70816   6.905   2.595   6.474  0.7862 -0.7811  0.1423
  514MOL0     C70817   6.948   2.467   6.412  0.8910 -0.2019 -0.3895
  514MOL0     O70818   6.980   2.480   6.273 -0.5556 -0.2440 -0.0867
  514MOL0     C70819   7.088   2.553   6.229 -0.6696 -0.4326 -0.1837
  514MOL0     C70820   7.105   2.574   6.092  0.0565 -0.9254 -0.2824
  514MOL0     C70821   7.211   2.649   6.037 -0.1366 -0.2178 -0.3063
  514MOL0     C70822   7.223   2.663   5.891 -0.2103 -0.8915  0.4730
  514MOL0     C70823   7.310   2.713   6.131 -0.5931  0.5503  0.3630
  514MOL0     C70824   7.421   2.798   6.092 -0.5525 -0.0461 -0.2626
  514MOL0     O70825   7.442   2.831   5.961 -0.3966  0.2035  0.3648
  514MOL0     C70826   7.569   2.872   5.917  0.5658 -0.2419  0.7492
  514MOL0     C70827   7.570   2.994   5.848 -0.6905  1.3021  0.1762
  514MOL0     C70828   7.691   3.048   5.800  0.0629  0.3067 -0.2749
  514MOL0     C70829   7.812   2.974   5.817 -0.4696 -0.8267  0.0926
  514MOL0     O70830   7.918   3.025   5.747 -0.5796  0.3056  0.0611
  514MOL0     C70831   8.020   2.933   5.683 -0.4091  0.2996 -1.2115
  514MOL0     C70832   8.124   3.008   5.608  0.2565  0.0669 -0.1010
  514MOL0     C70833   8.076   3.111   5.514  0.4451 -0.2255  0.3399
  514MOL0     C70834   8.185   3.193   5.448  0.6512 -0.0246 -0.4326
  514MOL0     C70835   8.145   3.245   5.313  0.1340 -0.3258  0.7812
  514MOL0     C70836   8.214   3.379   5.276  0.4160 -0.6012 -0.1355
  514MOL0     C70837   8.230   3.402   5.131 -1.0806  0.3415 -0.2748
  514MOL0     C70838   8.363   3.346   5.060  0.1741 -0.9876  0.4369
  514MOL0    Cl70839   8.513   3.406   5.114 -0.2815  0.1847  0.0996
  514MOL0     C70840   7.810   2.852   5.883 -0.4829 -0.5169 -0.9692
  514MOL0     C70841   7.689   2.805   5.935  0.0923  0.1791 -0.6232
  514MOL0     O70842   7.480   2.850   6.186 -0.4160  0.3696  0.7074
  514MOL0     C70843   7.282   2.688   6.267  0.0740  0.0763  0.2214
  514MOL0     C70844   7.179   2.608   6.313  0.2820  0.6993 -0.1977
  514MOL0     N70845   6.739   2.818   6.714  0.2071  0.5577  0.3522
  514MOL0     N70846   6.648   2.799   6.795  0.0636 -0.6033  0.1680
  514MOL0     C70847   5.669   3.477   6.651 -0.0940 -0.3373 -0.0298
  514MOL0     C70848   5.536   3.519   6.631 -0.3030 -0.4346  0.8992
  514MOL0     C70849   5.138   3.618   6.539  0.4153 -0.1380 -0.2010
  514MOL0     C70850   5.057   3.521   6.470  0.5204 -0.4235 -0.2813
  514MOL0     C70851   4.922   3.538   6.460 -0.4221 -0.1621 -0.0347
  514MOL0     C70852   4.861   3.634   6.530  0.4971  0.0959  0.3113
  514MOL0     O70853   4.727   3.636   6.523 -0.6365 -0.3606 -0.5100
  514MOL0     C70854   4.668   3.730   6.426 -0.3053  0.4232 -0.4426
  514MOL0     C70855   4.519   3.694   6.423 -0.2932 -0.2943 -0.0763
  514MOL0     C70856   4.481   3.555   6.394 -0.0330  0.7470 -0.1903
  514MOL0     C70857   4.328   3.526   6.395  0.0916  0.4501 -0.7223
  514MOL0     C70858   4.244   3.613   6.479 -0.6697 -0.5913  0.3904
  514MOL0     C70859   4.160   3.680   6.540 -1.4257  0.4482  0.0417
  514MOL0     C70860   4.926   3.729   6.606 -0.3931 -0.6170 -0.3888
  514MOL0     C70861   5.067   3.726   6.602  0.3222 -0.8027  0.0140
  514MOL0     C70862   5.134   3.829   6.689 -0.4684  0.1550  0.4460
  514MOL0     H70863   5.491   3.375   6.324  3.2454 -0.1555 -2.1472
  514MOL0     H70864   5.728   3.311   6.358  0.2960  0.4296  0.5519
  514MOL0     H70865   5.966   3.425   6.752  2.3368 -0.1694  0.8303
  514MOL0     H70866   6.008   3.503   6.596  2.5476 -1.3226  0.0039
  514MOL0     H70867   6.112   3.271   6.523  7.1055  0.4115  0.4712
  514MOL0     H70868   6.190   3.359   6.657  0.3681  0.3397 -1.5697
  514MOL0     H70869   6.092   3.225   6.825  1.5182 -0.5300 -1.4091
  514MOL0     H70870   5.983   3.154   6.706 -1.4049  0.0818 -0.6892
  514MOL0     H70871   6.160   3.021   6.618 -0.1566  1.7089 -2.0675
  514MOL0     H70872   6.285   3.150   6.637  1.4284 -1.7929 -0.4217
  514MOL0     H70873   6.169   2.988   6.869  0.9545 -1.1772  0.6897
  514MOL0     H70874   6.269   3.135   6.886  1.0777 -1.6872 -0.0927
  514MOL0     H70875   6.454   3.002   6.757  2.0545  0.3099  2.3948
  514MOL0     H70876   6.395   2.937   6.908 -3.2147  1.3420  0.7964
  514MOL0     H70877   6.339   2.856   6.633 -0.9268  0.1407  0.4179
  514MOL0     H70878   6.216   2.810   6.750  0.1817  1.6553  2.1572
  514MOL0     H70879   6.412   2.700   6.888 -3.9740 -1.4797 -0.6398
  514MOL0     H70880   6.375   2.618   6.742  1.5309 -1.8393  3.8655
  514MOL0     H70881   6.527   2.689   6.503 -0.9865  1.8075 -0.0280
  514MOL0     H70882   6.880   2.854   6.507 -0.0007 -1.4436  0.3583
  514MOL0     H70883   6.721   2.890   6.428  0.2809  0.4635  0.2369
  514MOL0     H70884   6.722   2.639   6.381 -1.0375  2.0388 -0.1443
  514MOL0     H70885   6.850   2.714   6.292 -2.7100 -1.0619 -1.7997
  514MOL0     H70886   6.987   2.654   6.517 -0.2542  0.6580  0.2101
  514MOL0     H70887   6.860   2.562   6.567 -1.5257 -2.4393 -1.4540
  514MOL0     H70888   7.032   2.428   6.471 -1.0533 -1.4568  1.6941
  514MOL0     H70889   6.871   2.392   6.430  0.3602  0.8266  2.2466
  514MOL0     H70890   7.032   2.531   6.025  1.4988 -1.2425 -1.7339
  514MOL0     H70891   7.135   2.623   5.840 -0.0806  1.3232 -1.6928
  514MOL0     H70892   7.313   2.615   5.851 -0.7961 -0.8511 -0.9562
  514MOL0     H70893   7.223   2.768   5.858 -2.4281 -0.8862  0.3871
  514MOL0     H70894   7.481   3.056   5.841  0.2354  2.8602  1.4699
  514MOL0     H70895   7.711   3.140   5.747  1.8283  1.0991  1.6686
  514MOL0     H70896   8.076   2.875   5.757 -2.1248 -0.7894 -0.6933
  514MOL0     H70897   7.982   2.857   5.614 -2.3632  1.0355 -1.0264
  514MOL0     H70898   8.189   3.053   5.683  0.8142 -0.8562 -0.0142
  514MOL0     H70899   8.190   2.948   5.544  2.6354  0.0566  2.1961
  514MOL0     H70900   8.013   3.186   5.563  0.5165 -0.5062  0.8666
  514MOL0     H70901   8.017   3.055   5.440  1.8839 -2.2911  0.6441
  514MOL0     H70902   8.274   3.132   5.428  1.5535  1.7207 -2.0512
  514MOL0     H70903   8.219   3.269   5.519 -0.8132  2.2838 -2.0922
  514MOL0     H70904   8.169   3.176   5.231 -0.2797  1.6620 -1.1288
  514MOL0     H70905   8.039   3.267   5.293  0.6649  0.6287 -1.2006
  514MOL0     H70906   8.318   3.372   5.310  0.1144 -3.0856  0.4778
  514MOL0     H70907   8.157   3.463   5.317  1.4016 -1.3535  3.0516
  514MOL0     H70908   8.213   3.509   5.121 -1.4285  0.1279 -2.3753
  514MOL0     H70909   8.148   3.369   5.066  1.7858  0.6424 -4.4227
  514MOL0     H70910   8.368   3.372   4.954  1.0512  1.0576  0.9416
  514MOL0     H70911   8.356   3.238   5.075 -1.9008 -1.1734 -1.3851
  514MOL0     H70912   7.897   2.790   5.900 -0.6815 -0.4812  0.2829
  514MOL0     H70913   7.680   2.722   6.005 -0.0721 -0.7382 -1.7135
  514MOL0     H70914   7.347   2.731   6.342  3.5604 -1.7602 -1.5120
  514MOL0     H70915   7.163   2.590   6.419 -0.6819 -1.9698 -0.6938
  514MOL0     H70916   5.722   3.519   6.736  0.4510 -1.4564  0.2096
  514MOL0     H70917   5.475   3.572   6.703 -1.0099  0.7066 -0.4945
  514MOL0     H70918   5.113   3.448   6.413 -0.1073  0.0948 -1.6119
  514MOL0     H70919   4.874   3.467   6.393 -3.2400  1.5464 -0.0264
  514MOL0     H70920   4.692   3.835   6.446  1.0595 -0.3052  2.1413
  514MOL0     H70921   4.714   3.716   6.327 -0.7607 -0.5181 -0.5360
  514MOL0     H70922   4.470   3.760   6.351 -0.3964  1.7627  1.7679
  514MOL0     H70923   4.480   3.721   6.521  0.0303 -0.0350 -0.0130
  514MOL0     H70924   4.529   3.523   6.301 -0.1186  2.2904 -0.8037
  514MOL0     H70925   4.507   3.497   6.482  3.7085  1.4094 -0.6697
  514MOL0     H70926   4.317   3.421   6.424  3.6914  0.2036  0.2952
  514MOL0     H70927   4.290   3.549   6.296 -1.5711  2.5482  0.3141
  514MOL0     H70928   4.080   3.734   6.586 -2.2409 -0.6184 -0.1106
  514MOL0     H70929   4.864   3.801   6.657 -0.9783 -0.3622 -1.4227
  514MOL0     H70930   5.064   3.888   6.749 -0.4514  0.5624  0.0682
  514MOL0     H70931   5.213   3.782   6.749 -0.7559  1.4368  1.8804
  514MOL0     H70932   5.186   3.904   6.628 -3.2888  0.6475 -1.5233
  515MOL0     O70933   2.209   1.595   7.517 -0.8251 -0.1363 -0.1000
  515MOL0     C70934   2.136   1.601   7.614 -0.6466 -0.6479  1.0545
  515MOL0     O70935   2.161   1.650   7.736 -0.6746  0.3444 -0.0401
  515MOL0     C70936   2.291   1.686   7.768 -0.4084 -0.3038  0.3611
  515MOL0     C70937   2.360   1.599   7.849 -1.0251  0.9911 -0.0583
  515MOL0     C70938   2.496   1.627   7.892 -0.2443 -0.5244  0.2298
  515MOL0     C70939   2.552   1.752   7.855  0.3714  0.6756 -0.7790
  515MOL0     O70940   2.679   1.785   7.889  0.7089  0.4561  0.4265
  515MOL0     C70941   2.780   1.722   7.803  0.3148  0.3594  1.1816
  515MOL0     C70942   2.910   1.767   7.863 -0.4774 -0.7260 -0.1630
  515MOL0     C70943   2.944   1.915   7.850 -0.0616  0.1717 -0.0981
  515MOL0     C70944   3.058   1.956   7.949 -0.1728  0.0703 -1.0720
  515MOL0     C70945   3.201   1.910   7.909  0.2472 -0.2420  0.5427
  515MOL0     C70946   3.272   2.005   7.814 -0.5653 -1.0246 -0.0010
  515MOL0     C70947   3.311   1.947   7.685  0.7717 -0.1250 -0.2423
  515MOL0     C70948   3.434   1.856   7.697 -0.2379  0.0116  0.6224
  515MOL0     N70949   3.557   1.924   7.746  1.1569 -0.3715 -0.4001
  515MOL0     C70950   3.593   1.946   7.878  0.1520  0.3389 -0.0259
  515MOL0     C70951   3.721   1.990   7.868  0.5594 -0.5135 -0.1990
  515MOL0     C70952   3.806   2.035   7.981  0.9129  0.2056 -0.6205
  515MOL0     C70953   3.761   2.174   8.041 -0.0937  0.7675 -0.4757
  515MOL0     C70954   3.828   2.290   7.975 -0.0194 -1.3798 -0.3871
  515MOL0     C70955   3.789   2.427   8.042 -0.0673  0.2119 -0.0945
  515MOL0     O70956   3.830   2.551   7.986 -0.0881 -0.1048 -0.6888
  515MOL0     C70957   3.967   2.569   7.965 -0.0568 -0.5735 -0.8718
  515MOL0     C70958   4.035   2.547   7.848 -0.0308  0.1036 -0.2177
  515MOL0     C70959   4.168   2.577   7.825 -0.5498 -0.2419 -0.2928
  515MOL0     C70960   4.229   2.536   7.696  0.2471 -0.8976  0.3599
  515MOL0     C70961   4.246   2.631   7.926  0.4461 -0.0070 -0.2923
  515MOL0     C70962   4.387   2.666   7.910  0.0835  0.5779 -0.0217
  515MOL0     O70963   4.429   2.792   7.961 -0.3447  0.3911  0.4224
  515MOL0     C70964   4.555   2.829   7.954  0.5797 -0.1342  0.4079
  515MOL0     C70965   4.628   2.862   8.063  0.2994 -0.0564 -0.2930
  515MOL0     C70966   4.767   2.882   8.050  0.3770 -0.2672  0.8689
  515MOL0     C70967   4.833   2.885   7.927  0.5348 -0.1335 -0.8185
  515MOL0     O70968   4.959   2.933   7.908  0.1106 -0.0894  0.4235
  515MOL0     C70969   4.996   3.013   7.800 -0.3670  0.0786  0.8316
  515MOL0     C70970   5.106   3.113   7.825 -0.4946 -0.5768 -0.0572
  515MOL0     C70971   5.249   3.062   7.787  0.3716 -0.0839  0.4491
  515MOL0     C70972   5.348   3.165   7.752 -0.3740  0.2168  0.1801
  515MOL0     C70973   5.313   3.236   7.621  0.5730 -0.0343 -0.1711
  515MOL0     C70974   5.442   3.260   7.549  0.2220  0.2075 -0.0357
  515MOL0     C70975   5.538   3.358   7.615  0.2284 -0.2121 -0.6456
  515MOL0     C70976   5.669   3.367   7.537 -0.0981  0.9657 -0.2955
  515MOL0    Cl70977   5.774   3.218   7.550  0.5697 -0.1885 -0.3433
  515MOL0     C70978   4.752   2.855   7.818 -1.0197 -0.4161  0.2413
  515MOL0     C70979   4.617   2.842   7.828  0.1242  0.5376 -0.2685
  515MOL0     O70980   4.470   2.581   7.872  0.7253  0.6163 -0.1757
  515MOL0     C70981   4.184   2.653   8.050 -0.1414 -0.0255  0.3781
  515MOL0     C70982   4.045   2.632   8.064 -0.8565  0.3249  0.0795
  515MOL0     N70983   3.767   1.985   7.735  0.3336 -0.4894  1.0927
  515MOL0     N70984   3.662   1.951   7.662  0.3305 -0.3037 -0.1318
  515MOL0     C70985   2.468   1.840   7.779  0.4928 -0.0877  0.1383
  515MOL0     C70986   2.344   1.810   7.720 -0.7140 -0.1166 -0.7805
  515MOL0     C70987   1.992   1.565   7.585 -0.1921  1.1651 -0.6219
  515MOL0     C70988   1.970   1.522   7.453  1.4153  0.3789  0.8364
  515MOL0     C70989   1.845   1.481   7.408  0.3800  0.2744  0.0790
  515MOL0     C70990   1.733   1.503   7.493 -0.6540  0.2278  0.6158
  515MOL0     O70991   1.601   1.479   7.454 -0.3241  0.3023 -0.2456
  515MOL0     C70992   1.494   1.516   7.545 -0.3862 -0.0105  0.2252
  515MOL0     C70993   1.356   1.526   7.473  1.0016 -0.1510 -0.5095
  515MOL0     C70994   1.353   1.618   7.348  0.2264  0.3462  0.4267
  515MOL0     C70995   1.388   1.762   7.374 -0.8328 -0.5452  0.5880
  515MOL0     C70996   1.283   1.845   7.438  0.7233 -0.5864  0.5847
  515MOL0     C70997   1.190   1.923   7.473 -0.0073 -0.1385  1.0557
  515MOL0     C70998   1.761   1.530   7.627  0.3686 -0.4896 -0.0734
  515MOL0     C70999   1.887   1.563   7.674  0.3718 -1.1012 -0.3910
  515MOL0     C71000   1.882   1.612   7.824  0.3602 -0.5821 -0.6970
  515MOL0     H71001   2.326   1.504   7.889  2.0711  0.2330  1.1374
  515MOL0     H71002   2.548   1.561   7.960 -0.7102 -3.1143 -1.7844
  515MOL0     H71003   2.763   1.764   7.703  1.8189 -0.7911  0.4015
  515MOL0     H71004   2.787   1.613   7.792  1.8141  0.5454 -0.2281
  515MOL0     H71005   2.908   1.738   7.969  1.1055 -3.9931 -0.8821
  515MOL0     H71006   2.991   1.706   7.821 -0.2677  0.2349 -1.1794
  515MOL0     H71007   2.966   1.926   7.743 -1.4635 -0.4336 -0.4828
  515MOL0     H71008   2.861   1.984   7.869  1.3681  1.1774  3.0970
  515MOL0     H71009   3.054   2.064   7.968 -1.5409 -0.1519  0.0387
  515MOL0     H71010   3.038   1.910   8.047 -1.5279 -0.4840 -1.5836
  515MOL0     H71011   3.203   1.814   7.857  0.4591 -0.2127  0.4971
  515MOL0     H71012   3.260   1.909   8.001  1.2188 -0.1942 -0.0601
  515MOL0     H71013   3.201   2.086   7.796  2.8277  4.0907  5.6563
  515MOL0     H71014   3.359   2.054   7.859 -0.4319 -1.0973 -0.1794
  515MOL0     H71015   3.336   2.023   7.610 -2.4295  2.7932  1.3378
  515MOL0     H71016   3.224   1.894   7.646  0.3191 -0.7015  1.4735
  515MOL0     H71017   3.408   1.768   7.757 -1.3803  0.3533  0.6310
  515MOL0     H71018   3.453   1.821   7.595  1.3566  0.4198  0.7418
  515MOL0     H71019   3.540   1.940   7.973 -0.4968  1.9390 -0.2397
  515MOL0     H71020   3.905   2.053   7.939  0.8533  2.8147  0.2164
  515MOL0     H71021   3.805   1.954   8.056  1.1593  1.1802  0.4717
  515MOL0     H71022   3.653   2.191   8.031 -0.1533  1.2045  0.7609
  515MOL0     H71023   3.770   2.168   8.150 -0.1333  0.4048 -0.4928
  515MOL0     H71024   3.935   2.280   7.995 -0.0185  0.5224  0.8339
  515MOL0     H71025   3.811   2.299   7.868  0.1930 -1.5012 -0.4313
  515MOL0     H71026   3.680   2.432   8.047 -0.2413 -2.3629  4.8227
  515MOL0     H71027   3.835   2.438   8.141  1.2372  0.8610 -0.7382
  515MOL0     H71028   3.988   2.504   7.760  1.6867  1.2177 -1.7534
  515MOL0     H71029   4.257   2.430   7.692  2.8444 -0.2471 -0.8857
  515MOL0     H71030   4.320   2.592   7.673  0.8832 -0.8802  2.6824
  515MOL0     H71031   4.156   2.551   7.616  1.7164 -0.4966 -0.9382
  515MOL0     H71032   4.586   2.849   8.162  0.4077  1.4326 -0.0286
  515MOL0     H71033   4.828   2.902   8.137 -0.1846 -0.8437  1.4122
  515MOL0     H71034   5.040   2.944   7.727  1.3993 -0.9268  2.7511
  515MOL0     H71035   4.909   3.070   7.767 -1.7481 -1.8773  0.9211
  515MOL0     H71036   5.089   3.202   7.763  1.3385  0.9939  1.5308
  515MOL0     H71037   5.113   3.148   7.928  0.9739 -0.3889 -0.1963
  515MOL0     H71038   5.228   2.998   7.701  0.3695  0.9457 -0.3446
  515MOL0     H71039   5.287   2.998   7.866  1.9815  0.7005  0.3604
  515MOL0     H71040   5.449   3.125   7.748 -1.4487 -2.7938  0.3605
  515MOL0     H71041   5.339   3.242   7.830  2.3163  0.7832  0.0099
  515MOL0     H71042   5.240   3.176   7.566 -2.7412  3.6947 -0.2691
  515MOL0     H71043   5.263   3.332   7.635  1.8083  0.5447  0.5149
  515MOL0     H71044   5.417   3.288   7.446 -2.1035  1.8831  0.9018
  515MOL0     H71045   5.492   3.164   7.539  1.0753  0.6653 -0.2873
  515MOL0     H71046   5.572   3.334   7.716  0.9348  1.6425 -0.4051
  515MOL0     H71047   5.499   3.460   7.624 -0.7988 -0.3912 -2.6640
  515MOL0     H71048   5.724   3.456   7.566  2.9092 -1.4184  1.9117
  515MOL0     H71049   5.634   3.377   7.434 -1.4735 -0.1387  0.0328
  515MOL0     H71050   4.803   2.862   7.722 -1.5285  1.2310  0.0509
  515MOL0     H71051   4.555   2.831   7.739  0.2388  0.9315 -0.4014
  515MOL0     H71052   4.227   2.710   8.132 -0.9947 -0.0896  0.8826
  515MOL0     H71053   3.998   2.662   8.157 -0.3910 -1.0344  0.7789
  515MOL0     H71054   2.504   1.939   7.756  0.3370 -0.2188 -0.6927
  515MOL0     H71055   2.278   1.875   7.664 -1.6892  1.0214  1.5353
  515MOL0     H71056   2.054   1.521   7.385  1.2213  1.8173  0.5371
  515MOL0     H71057   1.829   1.439   7.309 -0.5851  0.7396  0.0211
  515MOL0     H71058   1.487   1.449   7.630 -0.7928 -1.9942 -1.2974
  515MOL0     H71059   1.510   1.615   7.589  0.6449 -1.0728  2.3833
  515MOL0     H71060   1.276   1.561   7.538  0.8697 -0.4846 -0.4913
  515MOL0     H71061   1.331   1.424   7.442  0.0035 -0.1579  0.2646
  515MOL0     H71062   1.432   1.587   7.280 -1.4447 -1.8523 -0.6731
  515MOL0     H71063   1.258   1.608   7.294 -1.5259 -0.0076  3.3345
  515MOL0     H71064   1.415   1.813   7.281 -0.8196 -0.3574  0.6934
  515MOL0     H71065   1.475   1.759   7.441 -0.5250  0.5905  0.2549
  515MOL0     H71066   1.104   1.982   7.497  0.1477  0.9121 -0.8163
  515MOL0     H71067   1.691   1.511   7.708 -0.0306  0.5977 -0.1520
  515MOL0     H71068   1.781   1.601   7.866  1.4448  1.9744  3.1976
  515MOL0     H71069   1.952   1.548   7.878 -0.8005 -2.9643 -1.8548
  515MOL0     H71070   1.913   1.716   7.838 -1.3907  0.0285 -1.0882
  516MOL0     O71071   3.009   1.695   3.704 -0.7377  0.2903  0.1703
  516MOL0     C71072   3.087   1.777   3.753 -0.4576 -0.5936 -0.1000
  516MOL0     O71073   3.227   1.775   3.749  0.5618  0.2067  0.3853
  516MOL0     C71074   3.279   1.684   3.665 -0.3421  0.3315 -0.4849
  516MOL0     C71075   3.368   1.593   3.723 -0.6149 -0.4593  0.6824
  516MOL0     C71076   3.422   1.493   3.643 -0.2210 -0.1462  0.2764
  516MOL0     C71077   3.398   1.490   3.506  0.1736 -0.9095 -1.0224
  516MOL0     O71078   3.452   1.399   3.417 -0.1973 -0.0261  0.6752
  516MOL0     C71079   3.410   1.257   3.429 -0.3202  0.5342 -0.0049
  516MOL0     C71080   3.417   1.185   3.301 -0.9553  0.3347  0.1993
  516MOL0     C71081   3.398   1.035   3.319 -0.7493  0.5074  1.0206
  516MOL0     C71082   3.353   0.970   3.189 -0.4068 -0.3334  0.4406
  516MOL0     C71083   3.281   0.830   3.199 -0.5918  0.1509 -0.4509
  516MOL0     C71084   3.388   0.730   3.252 -0.7441  0.6159 -0.6772
  516MOL0     C71085   3.530   0.737   3.171 -0.4455  0.4416 -0.4463
  516MOL0     C71086   3.630   0.629   3.222 -0.4604  0.3352 -1.0384
  516MOL0     N71087   3.758   0.632   3.156  0.4624 -0.1810  0.0298
  516MOL0     C71088   3.796   0.546   3.054 -0.0264  0.0280 -0.6053
  516MOL0     C71089   3.923   0.574   3.036 -1.0229 -0.3024  0.6433
  516MOL0     C71090   4.010   0.527   2.923 -0.2790 -0.0909 -0.8675
  516MOL0     C71091   4.156   0.490   2.983  0.0999 -0.0487  0.3097
  516MOL0     C71092   4.266   0.587   2.932  0.5805  0.2218  0.5393
  516MOL0     C71093   4.393   0.566   3.006 -0.5554 -0.4255 -0.6761
  516MOL0     O71094   4.460   0.433   2.996  0.0724 -0.3285 -0.7186
  516MOL0     C71095   4.590   0.436   3.046  0.2682 -0.4073 -0.3988
  516MOL0     C71096   4.666   0.329   3.009 -0.0250  0.3791 -0.6588
  516MOL0     C71097   4.797   0.315   3.043 -0.1261 -1.0599  0.4224
  516MOL0     C71098   4.883   0.206   2.984 -0.4862 -0.3978 -0.0838
  516MOL0     C71099   4.851   0.429   3.125 -0.0179  0.2932 -0.4231
  516MOL0     C71100   4.994   0.433   3.139 -0.5213 -0.7131 -0.1721
  516MOL0     O71101   5.041   0.558   3.110 -1.5463  0.6587 -0.0334
  516MOL0     C71102   5.179   0.576   3.091  0.2429 -0.1282 -0.7700
  516MOL0     C71103   5.283   0.523   3.174  0.4300 -0.1426  0.6057
  516MOL0     C71104   5.410   0.557   3.151 -0.2135  0.0226  0.1370
  516MOL0     C71105   5.443   0.650   3.052  0.5401 -0.4065  0.1199
  516MOL0     O71106   5.574   0.682   3.051  0.1052 -0.1048 -0.6788
  516MOL0     C71107   5.598   0.823   3.077 -0.7549  0.3551  0.3523
  516MOL0     C71108   5.624   0.911   2.952 -0.2879  0.7534 -0.1719
  516MOL0     C71109   5.699   0.860   2.833 -0.6795  0.2300  0.8435
  516MOL0     C71110   5.834   0.807   2.877 -0.0202  0.0799 -0.0704
  516MOL0     C71111   5.930   0.780   2.765 -0.4409  0.3738 -0.6917
  516MOL0     C71112   6.066   0.711   2.802 -1.3973 -0.1492 -0.1879
  516MOL0     C71113   6.175   0.799   2.868  0.3526  0.4587 -0.5523
  516MOL0     C71114   6.308   0.722   2.890  0.4724 -0.6127  0.1206
  516MOL0    Cl71115   6.418   0.830   2.964  0.0373  0.3576  0.1057
  516MOL0     C71116   5.339   0.707   2.970 -0.4381  0.2569 -0.1546
  516MOL0     C71117   5.209   0.668   2.989  0.3505  0.4840  0.3610
  516MOL0     O71118   5.060   0.333   3.162 -0.3513  0.0987 -0.3622
  516MOL0     C71119   4.771   0.529   3.179  0.6949  0.7887 -0.0748
  516MOL0     C71120   4.640   0.532   3.140 -0.6685 -0.3464  0.4889
  516MOL0     N71121   3.964   0.682   3.118  0.5569  0.8958  0.2409
  516MOL0     N71122   3.858   0.715   3.187 -0.0836  0.3307  0.5287
  516MOL0     C71123   3.325   1.587   3.446  0.6782  0.1350  0.0468
  516MOL0     C71124   3.263   1.688   3.522 -0.4907  1.3418 -0.7747
  516MOL0     C71125   3.007   1.889   3.808 -0.8835 -0.8560  0.3874
  516MOL0     C71126   3.025   2.015   3.742 -0.0635 -0.4441 -0.6716
  516MOL0     C71127   2.946   2.126   3.782  0.4375 -0.3715 -0.8819
  516MOL0     C71128   2.850   2.106   3.892 -0.6976  0.2496  0.5107
  516MOL0     O71129   2.787   2.214   3.925  0.8044 -0.6922  0.6309
  516MOL0     C71130   2.663   2.199   3.997  0.7027 -0.3537 -0.0458
  516MOL0     C71131   2.605   2.333   4.035 -0.0576 -0.2096 -0.4608
  516MOL0     C71132   2.554   2.419   3.920  0.4256 -0.0549  1.3308
  516MOL0     C71133   2.514   2.556   3.962  0.3277  0.1760 -0.4088
  516MOL0     C71134   2.399   2.578   4.050  1.4024  0.0248  0.7225
  516MOL0     C71135   2.295   2.568   4.116 -0.0235 -0.3448  0.4168
  516MOL0     C71136   2.833   1.978   3.952 -0.1696  0.3728 -0.0149
  516MOL0     C71137   2.931   1.879   3.923 -0.2685 -0.2870  0.6328
  516MOL0     C71138   2.941   1.756   4.012  0.3969  1.0046  0.2267
  516MOL0     H71139   3.403   1.600   3.826  2.1058  1.2895 -0.2477
  516MOL0     H71140   3.481   1.413   3.688 -0.8588  0.0114  1.4381
  516MOL0     H71141   3.310   1.239   3.468  0.3412 -3.6982  0.1828
  516MOL0     H71142   3.477   1.206   3.499 -0.3660 -0.4668 -0.6683
  516MOL0     H71143   3.338   1.223   3.236 -1.2921  1.7048  1.3728
  516MOL0     H71144   3.510   1.203   3.247 -0.1786 -1.5361  0.8145
  516MOL0     H71145   3.487   0.983   3.355 -0.5583  1.3468  1.8004
  516MOL0     H71146   3.323   1.019   3.397 -1.6250 -0.1894  0.0673
  516MOL0     H71147   3.281   1.041   3.146  4.1665  2.8729 -2.9582
  516MOL0     H71148   3.425   0.968   3.106 -2.9070 -3.8803 -1.9149
  516MOL0     H71149   3.255   0.793   3.100 -2.5712 -0.7721  0.3649
  516MOL0     H71150   3.191   0.830   3.261 -0.7650  1.2720 -0.6820
  516MOL0     H71151   3.409   0.752   3.357 -2.5778 -0.6047 -0.0019
  516MOL0     H71152   3.345   0.629   3.243  0.3447  0.2397 -1.9461
  516MOL0     H71153   3.572   0.837   3.185 -0.3967  0.0432  3.2575
  516MOL0     H71154   3.506   0.713   3.067  2.2134 -1.5836 -0.6968
  516MOL0     H71155   3.637   0.643   3.330 -3.2407  2.3939 -1.0215
  516MOL0     H71156   3.583   0.530   3.212 -1.8348  0.6509  1.4918
  516MOL0     H71157   3.731   0.464   3.024  1.8242 -2.2144  1.0414
  516MOL0     H71158   4.027   0.618   2.865 -2.0302  1.4351  0.8745
  516MOL0     H71159   3.970   0.450   2.857 -1.2231  2.3475 -3.3471
  516MOL0     H71160   4.147   0.483   3.091  0.9325  2.0574  0.5571
  516MOL0     H71161   4.186   0.396   2.935  3.0938  1.3176 -0.8082
  516MOL0     H71162   4.283   0.576   2.825  3.8769 -1.3427  1.1061
  516MOL0     H71163   4.235   0.691   2.941  2.9161  1.4618 -3.3655
  516MOL0     H71164   4.473   0.638   2.984  0.4107 -1.6978 -1.5008
  516MOL0     H71165   4.369   0.585   3.111  0.3495 -0.9209 -0.3662
  516MOL0     H71166   4.616   0.254   2.947  0.1627 -0.1443 -0.1811
  516MOL0     H71167   4.928   0.146   3.064  2.1566 -1.0993 -1.9839
  516MOL0     H71168   4.958   0.255   2.922 -3.5267  1.6744 -2.4417
  516MOL0     H71169   4.822   0.141   2.920  0.0358 -2.8019  1.7097
  516MOL0     H71170   5.257   0.450   3.250 -2.3826 -0.4310 -0.5206
  516MOL0     H71171   5.492   0.513   3.207  1.6969  2.9493 -0.2139
  516MOL0     H71172   5.518   0.871   3.134 -0.0407  0.8378  0.9617
  516MOL0     H71173   5.679   0.840   3.148 -0.0798 -0.3925 -0.2136
  516MOL0     H71174   5.527   0.939   2.910  0.0517  0.9277 -0.8632
  516MOL0     H71175   5.671   1.005   2.984  1.7865 -0.9413  2.1623
  516MOL0     H71176   5.719   0.945   2.768 -2.3455  0.4359  0.5508
  516MOL0     H71177   5.654   0.777   2.777  0.8329 -0.4125  0.5285
  516MOL0     H71178   5.814   0.708   2.920 -2.7094 -0.4977 -2.3498
  516MOL0     H71179   5.876   0.868   2.958 -1.1718 -1.6057  1.9079
  516MOL0     H71180   5.887   0.702   2.702  0.6831 -2.6143  1.9885
  516MOL0     H71181   5.951   0.871   2.707 -1.2569  0.6425 -0.5751
  516MOL0     H71182   6.109   0.661   2.715  0.3446 -0.4078  0.7625
  516MOL0     H71183   6.058   0.633   2.879  0.4545  0.3201  0.5164
  516MOL0     H71184   6.135   0.821   2.967 -4.9387  2.0883 -2.7164
  516MOL0     H71185   6.188   0.898   2.822  0.4307  0.8788  0.3480
  516MOL0     H71186   6.344   0.682   2.795 -1.4399 -0.7683 -0.5851
  516MOL0     H71187   6.282   0.645   2.963 -0.4597  0.3766  0.8778
  516MOL0     H71188   5.353   0.784   2.895  0.5042  0.9787  0.7237
  516MOL0     H71189   5.138   0.727   2.933  1.6469  2.3131  0.5555
  516MOL0     H71190   4.811   0.606   3.244 -1.3807  0.2688  1.9506
  516MOL0     H71191   4.586   0.615   3.183 -0.0671 -1.2375  3.1522
  516MOL0     H71192   3.318   1.593   3.338 -2.6970 -2.9942 -0.0859
  516MOL0     H71193   3.204   1.768   3.478 -1.8064  1.4260  0.9934
  516MOL0     H71194   3.099   2.021   3.663  0.0001 -2.5907 -0.8322
  516MOL0     H71195   2.946   2.228   3.746 -3.2009  0.5102  1.0081
  516MOL0     H71196   2.591   2.143   3.937  0.7310 -0.7197  0.2557
  516MOL0     H71197   2.662   2.139   4.088 -2.6197 -1.5248 -0.7223
  516MOL0     H71198   2.677   2.392   4.093 -3.4123  2.5278  1.2871
  516MOL0     H71199   2.523   2.310   4.103 -2.2066 -0.1538 -2.9061
  516MOL0     H71200   2.613   2.429   3.829 -2.6727  1.5199 -0.6636
  516MOL0     H71201   2.470   2.359   3.883  1.4878 -0.5027 -0.4526
  516MOL0     H71202   2.504   2.626   3.878 -2.5800  3.1276  2.0897
  516MOL0     H71203   2.600   2.597   4.016  1.9983  1.4850 -3.7075
  516MOL0     H71204   2.200   2.553   4.162 -1.2706 -0.2856 -2.0187
  516MOL0     H71205   2.761   1.951   4.028  1.0033  0.5725  1.1935
  516MOL0     H71206   2.855   1.693   3.986  1.1208 -0.0407  0.2690
  516MOL0     H71207   3.033   1.698   4.000  0.7719  1.1537  2.0898
  516MOL0     H71208   2.940   1.784   4.118 -0.3240 -0.9979  0.7998
  517MOL0     O71209   7.428   5.266   9.192  0.0131 -0.2942 -0.0367
  517MOL0     C71210   7.370   5.297   9.296 -0.3071  0.1278 -0.8201
  517MOL0     O71211   7.428   5.349   9.414 -0.0238 -0.4157 -0.1284
  517MOL0     C71212   7.566   5.364   9.409  0.3879 -0.0205  1.1507
  517MOL0     C71213   7.642   5.251   9.436  0.3995  0.5185  0.5954
  517MOL0     C71214   7.785   5.253   9.413 -0.2870 -0.4322 -1.5347
  517MOL0     C71215   7.842   5.376   9.375  0.4627  0.4103  0.1579
  517MOL0     O71216   7.975   5.404   9.352  0.4917  0.6496 -0.0144
  517MOL0     C71217   8.073   5.329   9.417  0.7514  0.2196  0.1887
  517MOL0     C71218   8.068   5.360   9.569 -0.5706  0.1379  0.0442
  517MOL0     C71219   8.167   5.268   9.641 -0.6320  1.1011  0.2874
  517MOL0     C71220   8.205   5.321   9.779  0.0489 -1.0157 -0.5665
  517MOL0     C71221   8.276   5.212   9.866 -0.3175 -0.0461  0.2886
  517MOL0     C71222   8.416   5.178   9.823  1.1892  0.3837  0.1796
  517MOL0     C71223   8.481   5.087   9.929  0.1420  0.0045 -1.0654
  517MOL0     C71224   8.519   5.163  10.057  0.1967 -0.4499 -0.3645
  517MOL0     N71225   8.588   5.075  10.156 -0.3290  0.0088  0.5583
  517MOL0     C71226   8.715   5.027  10.136  1.1860 -0.0300 -0.2046
  517MOL0     C71227   8.729   4.918  10.204  0.0808 -0.0507  0.2928
  517MOL0     C71228   8.841   4.818  10.190 -0.4499 -0.7242 -0.1877
  517MOL0     C71229   8.801   4.675  10.182  0.2237 -0.0601  0.2442
  517MOL0     C71230   8.907   4.568  10.146 -0.3469  0.8126 -1.1629
  517MOL0     C71231   9.023   4.560  10.253 -0.0894 -0.6993  0.8454
  517MOL0     O71232   9.105   4.448  10.212  0.5731 -0.7960 -0.5136
  517MOL0     C71233   9.206   4.415  10.302  0.2627 -0.2344  0.0791
  517MOL0     C71234   9.288   4.511  10.363  0.0154  0.0424 -0.2409
  517MOL0     C71235   9.398   4.472  10.439  0.3021 -1.1061 -0.1400
  517MOL0     C71236   9.463   4.592  10.513  0.0890  1.1277 -0.1224
  517MOL0     C71237   9.446   4.336  10.434 -0.1511 -0.6467  0.0853
  517MOL0     C71238   9.564   4.284  10.508  0.6905  0.3257  0.9864
  517MOL0     O71239   9.582   4.146  10.492 -0.2295 -0.5165 -0.8896
  517MOL0     C71240   9.695   4.078  10.534  0.5218 -0.4761  0.8209
  517MOL0     C71241   9.824   4.128  10.549 -0.3273 -0.3805 -0.7403
  517MOL0     C71242   9.935   4.040  10.575 -0.2839  0.0010 -0.1628
  517MOL0     C71243   9.920   3.899  10.568 -0.3914  0.1832 -0.3192
  517MOL0     O71244  10.025   3.815  10.551 -0.1985 -0.9567  0.5057
  517MOL0     C71245  10.041   3.718  10.656  0.4255  0.4212 -0.0362
  517MOL0     C71246  10.098   3.583  10.615 -0.0990 -1.1105 -0.2430
  517MOL0     C71247  10.230   3.612  10.546  0.8347  0.1851 -0.3825
  517MOL0     C71248  10.344   3.558  10.629  0.1733  0.0928 -0.9951
  517MOL0     C71249  10.474   3.565  10.548  0.1830  0.1486 -0.3560
  517MOL0     C71250  10.590   3.505  10.632 -0.7859  0.4811  0.1689
  517MOL0     C71251  10.729   3.501  10.553  0.4911 -0.5825 -0.0235
  517MOL0     C71252  10.832   3.450  10.645  1.1273 -0.0729 -0.5318
  517MOL0    Cl71253  10.992   3.422  10.561 -0.5001  0.0359 -0.1809
  517MOL0     C71254   9.791   3.855  10.556  0.3811  0.1922 -0.8582
  517MOL0     C71255   9.682   3.942  10.536 -0.0817  0.2570 -0.3072
  517MOL0     O71256   9.625   4.363  10.577 -0.6761 -0.5803 -0.2803
  517MOL0     C71257   9.358   4.250  10.359 -0.3668  0.5092 -0.0313
  517MOL0     C71258   9.237   4.284  10.303 -0.1258  0.2986  0.2439
  517MOL0     N71259   8.612   4.908  10.279  0.3826 -0.0990  0.2015
  517MOL0     N71260   8.524   4.993  10.240 -0.1408 -0.0179 -0.0546
  517MOL0     C71261   7.760   5.486   9.360 -0.2004 -0.3867  0.6139
  517MOL0     C71262   7.628   5.485   9.376  1.2152  0.5570  1.0197
  517MOL0     C71263   7.221   5.284   9.297 -0.0546 -1.0206  0.1653
  517MOL0     C71264   7.148   5.290   9.169  0.8835  0.1247  1.3860
  517MOL0     C71265   7.010   5.282   9.165 -0.0052 -0.2776 -0.2007
  517MOL0     C71266   6.929   5.273   9.276 -0.2698 -0.3708 -0.0146
  517MOL0     O71267   6.798   5.281   9.256  0.3448  0.7739 -0.3140
  517MOL0     C71268   6.713   5.294   9.369  0.2828  0.0962 -0.6513
  517MOL0     C71269   6.569   5.302   9.316 -0.2101  0.1725  0.1129
  517MOL0     C71270   6.459   5.294   9.429 -0.6407 -0.0869  0.5033
  517MOL0     C71271   6.418   5.436   9.486  0.1944 -0.1534  0.1528
  517MOL0     C71272   6.304   5.414   9.585  0.1020 -0.3749 -0.1324
  517MOL0     C71273   6.211   5.397   9.653  0.0803  0.5993  0.4271
  517MOL0     C71274   6.994   5.274   9.401 -1.1509  0.2865 -0.3506
  517MOL0     C71275   7.136   5.283   9.411  0.4057  0.0523 -0.3584
  517MOL0     C71276   7.191   5.262   9.552 -0.2474  0.3534  0.4116
  517MOL0     H71277   7.602   5.155   9.467  3.0848 -0.5346  1.1406
  517MOL0     H71278   7.840   5.161   9.429 -1.1610 -0.4843  2.1067
  517MOL0     H71279   8.171   5.369   9.390  0.6750 -0.3117 -0.9523
  517MOL0     H71280   8.073   5.225   9.384  0.5552 -0.5670  2.5317
  517MOL0     H71281   8.096   5.465   9.580  1.4434 -0.1320 -1.6515
  517MOL0     H71282   7.969   5.341   9.611 -0.0717 -2.9237  0.0528
  517MOL0     H71283   8.111   5.174   9.648 -0.0523  0.8019  1.0435
  517MOL0     H71284   8.263   5.258   9.590  0.3278 -0.5204  2.2841
  517MOL0     H71285   8.267   5.411   9.774  2.4058 -2.6038 -2.6862
  517MOL0     H71286   8.109   5.337   9.828 -0.2484 -2.5438 -0.5981
  517MOL0     H71287   8.222   5.117   9.858  0.4005 -0.4873  0.5867
  517MOL0     H71288   8.282   5.244   9.971 -0.9354  0.1175  0.2748
  517MOL0     H71289   8.428   5.120   9.731 -0.0616  0.5966 -0.1397
  517MOL0     H71290   8.467   5.274   9.813 -3.5513  3.1772  0.0230
  517MOL0     H71291   8.567   5.035   9.885  0.8806 -0.8172  1.1820
  517MOL0     H71292   8.400   5.018   9.956 -0.0129 -0.1530 -1.9165
  517MOL0     H71293   8.590   5.244  10.037 -0.2542 -0.8000 -4.0955
  517MOL0     H71294   8.429   5.193  10.110  0.6245 -1.2357  0.8513
  517MOL0     H71295   8.787   5.072  10.069  1.5344 -0.0612  0.1405
  517MOL0     H71296   8.906   4.835  10.277  0.1023  2.6953 -1.1268
  517MOL0     H71297   8.895   4.843  10.099  0.8693  0.8806  0.9715
  517MOL0     H71298   8.749   4.644  10.274 -0.3547 -2.3012 -0.7779
  517MOL0     H71299   8.722   4.677  10.106 -3.0758  0.1175  3.3750
  517MOL0     H71300   8.866   4.468  10.131  0.4883  0.2653  0.0719
  517MOL0     H71301   8.960   4.598  10.055  4.6847  0.5583  1.3239
  517MOL0     H71302   9.080   4.653  10.263  0.8577 -0.9573 -1.5929
  517MOL0     H71303   8.987   4.539  10.354 -2.2628  2.4374  0.8713
  517MOL0     H71304   9.258   4.615  10.371 -1.3708 -0.4644  1.9984
  517MOL0     H71305   9.459   4.566  10.620 -2.2277 -2.3606 -0.8804
  517MOL0     H71306   9.405   4.683  10.499 -1.5504  0.2231  0.4587
  517MOL0     H71307   9.568   4.605  10.485  0.8038  0.4850  2.0722
  517MOL0     H71308   9.847   4.234  10.544 -0.2729 -0.4534 -2.9901
  517MOL0     H71309  10.029   4.093  10.586 -0.7564  0.9368 -0.5082
  517MOL0     H71310  10.107   3.761  10.731  2.1393 -4.2357  1.5036
  517MOL0     H71311   9.940   3.697  10.694  1.3230  0.0212  2.2712
  517MOL0     H71312  10.106   3.519  10.704 -0.3185 -1.5982 -0.5683
  517MOL0     H71313  10.033   3.537  10.540 -0.0243  0.6200 -1.4282
  517MOL0     H71314  10.251   3.719  10.537  0.8475  0.3823  1.6965
  517MOL0     H71315  10.230   3.561  10.449 -1.7094 -2.8840  1.0740
  517MOL0     H71316  10.318   3.458  10.666 -1.8648  0.1176 -2.1557
  517MOL0     H71317  10.353   3.625  10.714  2.5682 -0.8088 -0.4587
  517MOL0     H71318  10.459   3.523  10.448  0.5988  1.2980 -0.9194
  517MOL0     H71319  10.491   3.671  10.524 -0.1699  0.0690 -0.9898
  517MOL0     H71320  10.567   3.403  10.663  2.0142  1.0948  5.6438
  517MOL0     H71321  10.600   3.561  10.726  0.6228  2.7903 -1.2535
  517MOL0     H71322  10.744   3.602  10.513 -1.5503 -0.3659 -0.3673
  517MOL0     H71323  10.719   3.434  10.467  3.1585  0.8542 -1.6189
  517MOL0     H71324  10.814   3.362  10.707 -0.1099 -0.1131 -0.9381
  517MOL0     H71325  10.843   3.532  10.715  1.1193  1.0208 -1.7728
  517MOL0     H71326   9.776   3.748  10.545  0.1751 -0.5863  4.4891
  517MOL0     H71327   9.582   3.906  10.511 -0.1365 -0.7407  1.1859
  517MOL0     H71328   9.392   4.147  10.352  2.8115  1.4884 -0.4943
  517MOL0     H71329   9.182   4.218  10.237  2.3705 -0.4604 -1.2048
  517MOL0     H71330   7.812   5.578   9.334 -1.3079  0.3504  0.9321
  517MOL0     H71331   7.564   5.571   9.358 -0.5938 -1.1791 -1.6251
  517MOL0     H71332   7.196   5.301   9.073  1.0153 -2.0159  1.1731
  517MOL0     H71333   6.954   5.283   9.072  0.2869 -1.4057 -0.3946
  517MOL0     H71334   6.720   5.207   9.435  0.4160  0.6025  0.0181
  517MOL0     H71335   6.743   5.379   9.431  1.0121 -0.7873  0.2539
  517MOL0     H71336   6.546   5.220   9.247  0.6284  0.0879 -0.0673
  517MOL0     H71337   6.563   5.387   9.248 -1.6794 -1.0631 -1.3733
  517MOL0     H71338   6.378   5.235   9.386  1.3979 -2.2103 -0.6680
  517MOL0     H71339   6.487   5.231   9.514 -1.6805  0.2149  1.0751
  517MOL0     H71340   6.378   5.489   9.399  2.4224  1.0806 -0.1734
  517MOL0     H71341   6.508   5.482   9.526 -1.2909  1.9156  1.2673
  517MOL0     H71342   6.117   5.408   9.704  0.8279  0.5927  1.8588
  517MOL0     H71343   6.933   5.265   9.491 -0.7114 -3.8766 -0.2825
  517MOL0     H71344   7.235   5.350   9.599  2.5690 -1.1643  0.8677
  517MOL0     H71345   7.114   5.214   9.614 -1.9170  1.9099 -0.3610
  517MOL0     H71346   7.277   5.195   9.550  1.1476  1.9533  2.6021
  518MOL0     O71347   2.175   3.595   1.694 -1.1867 -0.4879 -0.0919
  518MOL0     C71348   2.185   3.535   1.799 -0.1589  0.6805 -0.4461
  518MOL0     O71349   2.294   3.460   1.844 -0.1455 -0.1554  0.0219
  518MOL0     C71350   2.419   3.469   1.792  0.4437  0.1306 -0.2334
  518MOL0     C71351   2.501   3.366   1.829  0.1677  0.8263 -0.3809
  518MOL0     C71352   2.638   3.364   1.788  0.2046 -0.4142 -0.1671
  518MOL0     C71353   2.686   3.453   1.697  0.1987 -0.7035 -0.1999
  518MOL0     O71354   2.814   3.439   1.664 -0.0272 -0.4362 -0.1547
  518MOL0     C71355   2.881   3.542   1.596 -0.1712  0.0521  0.1471
  518MOL0     C71356   3.024   3.508   1.553 -0.1512 -0.0351 -0.2996
  518MOL0     C71357   3.133   3.516   1.663 -0.5282 -0.0540  0.3366
  518MOL0     C71358   3.269   3.553   1.610  0.3714 -0.4585  0.5619
  518MOL0     C71359   3.391   3.521   1.701 -0.1704  0.0158 -0.0794
  518MOL0     C71360   3.518   3.581   1.632 -0.3465 -0.5295  0.6941
  518MOL0     C71361   3.642   3.594   1.732  0.0167 -0.1172  0.2855
  518MOL0     C71362   3.684   3.468   1.802 -0.0532 -0.1058 -0.0756
  518MOL0     N71363   3.763   3.492   1.923  0.3401  0.1047 -0.2722
  518MOL0     C71364   3.857   3.591   1.940  0.1405 -0.4529 -0.7761
  518MOL0     C71365   3.903   3.566   2.066 -0.3762 -0.2598  0.4448
  518MOL0     C71366   4.009   3.650   2.135  0.2045  0.3934 -0.1161
  518MOL0     C71367   4.147   3.598   2.093 -0.1979 -0.4634  0.2714
  518MOL0     C71368   4.239   3.614   2.218 -0.0463 -0.3252  0.0497
  518MOL0     C71369   4.382   3.601   2.183 -0.6531  0.1063  0.3240
  518MOL0     O71370   4.450   3.636   2.301  0.0491  0.4975  0.3021
  518MOL0     C71371   4.585   3.634   2.296 -0.4386  0.9719  0.2453
  518MOL0     C71372   4.650   3.718   2.394 -0.2036  0.7331 -0.3483
  518MOL0     C71373   4.788   3.745   2.397  0.0185 -0.0001 -0.4038
  518MOL0     C71374   4.849   3.802   2.528 -0.4803  0.5085  0.1777
  518MOL0     C71375   4.866   3.698   2.289  0.3783 -0.5284 -0.5908
  518MOL0     C71376   5.009   3.738   2.276 -0.6748  0.2335  0.1881
  518MOL0     O71377   5.063   3.673   2.171 -0.2058  0.2261 -0.1468
  518MOL0     C71378   5.152   3.731   2.093  0.8535 -1.1542 -0.0271
  518MOL0     C71379   5.245   3.648   2.037 -0.1639 -0.1156 -0.9421
  518MOL0     C71380   5.354   3.697   1.964 -0.1663  0.0803 -0.2930
  518MOL0     C71381   5.349   3.834   1.936  1.1468 -0.3442  0.1989
  518MOL0     O71382   5.459   3.875   1.875  0.7454 -0.1664  0.4712
  518MOL0     C71383   5.452   4.004   1.800 -0.3030  0.7936  0.5520
  518MOL0     C71384   5.576   4.013   1.707 -0.3169  0.2679 -0.3506
  518MOL0     C71385   5.593   4.150   1.631  0.1451 -0.2458 -0.3860
  518MOL0     C71386   5.742   4.178   1.612 -0.1249  0.0732 -0.1585
  518MOL0     C71387   5.780   4.326   1.571  0.3113 -0.3963  0.3130
  518MOL0     C71388   5.928   4.334   1.552  0.3195 -0.6512  0.4130
  518MOL0     C71389   5.998   4.330   1.689 -0.0968  0.6390  0.5005
  518MOL0     C71390   6.148   4.311   1.679 -1.0118 -0.1325 -0.0313
  518MOL0    Cl71391   6.201   4.159   1.597  0.3362 -0.1658  0.1281
  518MOL0     C71392   5.242   3.920   1.980 -0.3273 -0.8577  0.3224
  518MOL0     C71393   5.141   3.864   2.054  0.0543 -0.3013 -0.3041
  518MOL0     O71394   5.058   3.831   2.343 -0.3874  0.3578 -0.2187
  518MOL0     C71395   4.810   3.596   2.202 -0.4159  0.1657 -0.4819
  518MOL0     C71396   4.673   3.570   2.202  1.1284  0.0532 -0.4763
  518MOL0     N71397   3.841   3.452   2.116 -0.2785  0.5220 -0.2154
  518MOL0     N71398   3.759   3.407   2.026  0.2319 -0.0538  0.0246
  518MOL0     C71399   2.599   3.549   1.644  0.5880 -1.2234 -0.0017
  518MOL0     C71400   2.477   3.563   1.707 -0.1563  0.4329  0.1262
  518MOL0     C71401   2.060   3.517   1.885 -0.2513  0.6294  0.1334
  518MOL0     C71402   2.042   3.389   1.942 -0.1576  0.6594  0.4885
  518MOL0     C71403   1.918   3.348   1.992  0.1481 -0.4495  0.0471
  518MOL0     C71404   1.803   3.440   2.001 -0.5029 -0.3027 -0.7049
  518MOL0     O71405   1.682   3.409   2.043 -0.0800  0.3214 -0.5687
  518MOL0     C71406   1.646   3.273   2.072  1.2625 -0.3905  0.6056
  518MOL0     C71407   1.523   3.285   2.164  0.2746  0.5539  0.2798
  518MOL0     C71408   1.402   3.334   2.081 -0.4086 -0.7373  0.1512
  518MOL0     C71409   1.273   3.345   2.158  0.1824  0.5122 -0.8249
  518MOL0     C71410   1.177   3.407   2.069 -0.0288 -0.7500  0.4709
  518MOL0     C71411   1.102   3.469   2.005  0.1320 -0.6973 -0.1569
  518MOL0     C71412   1.826   3.567   1.946  0.2753  0.1579 -0.0972
  518MOL0     C71413   1.954   3.614   1.890 -0.0072 -0.3902 -0.5126
  518MOL0     C71414   1.963   3.745   1.829 -0.2343 -0.0892  0.4472
  518MOL0     H71415   2.469   3.290   1.900  0.5410  1.1108  0.1011
  518MOL0     H71416   2.701   3.292   1.838 -1.1090 -3.2824 -2.3841
  518MOL0     H71417   2.902   3.627   1.662  0.7690 -1.4976  1.9533
  518MOL0     H71418   2.821   3.571   1.509 -0.2130 -2.1733 -0.6311
  518MOL0     H71419   3.012   3.408   1.511  2.3593 -1.4487  2.0474
  518MOL0     H71420   3.058   3.568   1.468 -1.7648  1.3297 -0.0512
  518MOL0     H71421   3.100   3.603   1.721  0.0181  1.2065 -1.1689
  518MOL0     H71422   3.143   3.421   1.716 -2.1334  0.1586  1.0844
  518MOL0     H71423   3.276   3.510   1.509  3.6238 -1.3479  1.0661
  518MOL0     H71424   3.264   3.658   1.579  0.5143 -1.0495 -1.6769
  518MOL0     H71425   3.410   3.414   1.716 -2.4823 -0.2584  1.2829
  518MOL0     H71426   3.371   3.571   1.796 -1.5975 -1.6755  0.5637
  518MOL0     H71427   3.536   3.523   1.542  2.9289  1.2995  0.0045
  518MOL0     H71428   3.486   3.682   1.603 -2.4077 -1.3688 -0.1076
  518MOL0     H71429   3.623   3.677   1.800 -0.1044  1.5126 -1.6341
  518MOL0     H71430   3.718   3.639   1.669  1.8278 -0.4026  2.1622
  518MOL0     H71431   3.600   3.400   1.819  0.5240 -1.0910 -1.0485
  518MOL0     H71432   3.758   3.412   1.744  1.3486  1.1101  0.4758
  518MOL0     H71433   3.896   3.670   1.876  2.2907  1.1176  2.2028
  518MOL0     H71434   3.992   3.639   2.242 -3.0560 -2.5119 -0.7499
  518MOL0     H71435   3.992   3.754   2.106  3.0414  0.9169 -0.1486
  518MOL0     H71436   4.145   3.494   2.060  4.4210 -0.3182 -1.1717
  518MOL0     H71437   4.194   3.652   2.011  0.1319  0.3901  1.0101
  518MOL0     H71438   4.211   3.707   2.269 -1.1343 -1.7946  2.2926
  518MOL0     H71439   4.213   3.536   2.291 -1.2566 -0.0409 -0.0643
  518MOL0     H71440   4.412   3.503   2.146  2.2742  0.5185  1.3665
  518MOL0     H71441   4.404   3.666   2.099  0.4163 -2.7707 -1.7880
  518MOL0     H71442   4.593   3.761   2.476 -1.9488  0.0426 -1.1625
  518MOL0     H71443   4.922   3.732   2.569 -0.9247  0.2180  0.4929
  518MOL0     H71444   4.783   3.831   2.611 -0.5023  0.6319  0.1176
  518MOL0     H71445   4.905   3.893   2.506  1.2125  0.0783  2.3519
  518MOL0     H71446   5.237   3.544   2.067 -2.5212 -0.6456 -3.0425
  518MOL0     H71447   5.436   3.629   1.944 -0.2915  0.5137 -2.5480
  518MOL0     H71448   5.359   4.011   1.743 -1.0196  0.3229  1.6307
  518MOL0     H71449   5.457   4.072   1.886  2.5895 -1.0185  2.0194
  518MOL0     H71450   5.655   4.009   1.783  0.9481  0.1540 -1.6454
  518MOL0     H71451   5.592   3.925   1.645  0.5692  1.0414 -1.2430
  518MOL0     H71452   5.544   4.227   1.692 -2.4770 -1.2853 -1.0631
  518MOL0     H71453   5.538   4.160   1.537 -1.7624 -0.1725  0.6888
  518MOL0     H71454   5.772   4.115   1.528 -0.0238  1.5319 -1.2537
  518MOL0     H71455   5.794   4.134   1.698 -1.1257 -0.7040  0.0694
  518MOL0     H71456   5.719   4.349   1.483 -0.8706  2.8150  1.8023
  518MOL0     H71457   5.743   4.395   1.648  2.4540 -0.6756  1.6722
  518MOL0     H71458   5.946   4.436   1.516 -1.1250 -0.5732 -0.1219
  518MOL0     H71459   5.963   4.268   1.472 -1.1855 -1.5434  0.4603
  518MOL0     H71460   5.949   4.254   1.751  0.9334 -0.4394  0.0415
  518MOL0     H71461   5.994   4.429   1.735 -0.9901  0.3920  0.9857
  518MOL0     H71462   6.183   4.306   1.782 -3.1363 -3.1943  0.6656
  518MOL0     H71463   6.206   4.393   1.634  1.0439 -1.4752  0.0241
  518MOL0     H71464   5.248   4.027   1.963  1.2718 -1.0252 -0.3858
  518MOL0     H71465   5.062   3.930   2.087 -0.7458  1.6147 -5.2142
  518MOL0     H71466   4.878   3.547   2.133  4.3898  2.3596  2.1635
  518MOL0     H71467   4.634   3.495   2.133  1.3824  1.1758 -1.8845
  518MOL0     H71468   2.634   3.622   1.572  1.2433  0.9852  2.3981
  518MOL0     H71469   2.412   3.643   1.674 -1.4299 -0.0864  1.2600
  518MOL0     H71470   2.118   3.312   1.947  0.9424  1.5589 -1.4003
  518MOL0     H71471   1.922   3.240   2.004 -0.9624 -0.7229 -1.7042
  518MOL0     H71472   1.634   3.221   1.976 -0.5672  1.1441 -0.0469
  518MOL0     H71473   1.725   3.220   2.127  0.8671  0.4882  2.0544
  518MOL0     H71474   1.549   3.350   2.248 -0.5315  1.1240  0.1019
  518MOL0     H71475   1.498   3.188   2.208 -2.2280  0.6869 -0.6962
  518MOL0     H71476   1.425   3.432   2.040  0.0472 -0.8821  0.0498
  518MOL0     H71477   1.387   3.267   1.996 -1.5639 -0.5025  0.1537
  518MOL0     H71478   1.296   3.388   2.256  0.8690 -0.3348 -0.6008
  518MOL0     H71479   1.242   3.243   2.182 -0.4414  0.9789  0.4269
  518MOL0     H71480   1.036   3.525   1.942 -0.3476  1.6174  2.2270
  518MOL0     H71481   1.741   3.635   1.946  0.1137 -0.0288  1.0263
  518MOL0     H71482   2.055   3.797   1.857 -1.7070  2.2875  1.2257
  518MOL0     H71483   1.958   3.741   1.720 -0.2168  1.3385  0.3803
  518MOL0     H71484   1.877   3.794   1.877  0.2968  0.0575  1.2707
  519MOL0     O71485   6.626   0.848   4.497 -0.2492 -0.2881  0.3001
  519MOL0     C71486   6.689   0.931   4.559 -0.0972  0.1120 -0.6085
  519MOL0     O71487   6.637   1.036   4.637  0.4825  0.0542  0.9841
  519MOL0     C71488   6.495   1.042   4.637  0.2240 -0.0870 -0.7906
  519MOL0     C71489   6.415   1.027   4.749  0.5700  0.1130 -0.1992
  519MOL0     C71490   6.274   1.025   4.739  1.1375  0.4694  0.5905
  519MOL0     C71491   6.207   1.050   4.615 -0.0319 -0.1822  0.2301
  519MOL0     O71492   6.070   1.047   4.604  0.4032  0.3041 -0.0791
  519MOL0     C71493   5.990   1.124   4.698 -0.7518 -0.3151  0.1494
  519MOL0     C71494   5.880   1.039   4.746 -0.4387 -0.1993 -0.4554
  519MOL0     C71495   5.780   0.999   4.635  0.8082  0.8895 -0.4096
  519MOL0     C71496   5.667   0.918   4.705 -0.0049  0.1651  0.5966
  519MOL0     C71497   5.565   0.863   4.604  0.6596 -0.5720  0.3955
  519MOL0     C71498   5.624   0.755   4.515 -0.0409 -0.0222  0.7470
  519MOL0     C71499   5.691   0.633   4.574  0.3399  0.4589  0.3603
  519MOL0     C71500   5.591   0.546   4.660  0.1217 -0.3602 -0.3743
  519MOL0     N71501   5.652   0.412   4.676  0.6487  0.1256 -0.3017
  519MOL0     C71502   5.791   0.387   4.693  0.7404 -0.2839  0.9239
  519MOL0     C71503   5.807   0.249   4.690  0.3083 -0.1594 -0.6071
  519MOL0     C71504   5.945   0.176   4.712 -0.4329 -0.1148  0.6532
  519MOL0     C71505   5.961   0.033   4.652 -0.3986 -0.2762  0.2640
  519MOL0     C71506   5.966   0.052   4.497  0.1283  0.5955  0.1139
  519MOL0     C71507   5.993  -0.091   4.440  0.0489 -0.2142  0.3387
  519MOL0     O71508   6.130  -0.136   4.468 -0.1664  0.3024  0.2300
  519MOL0     C71509   6.229  -0.099   4.380 -0.6069 -0.1591 -0.5521
  519MOL0     C71510   6.219   0.009   4.296 -1.1000  0.6159 -0.0740
  519MOL0     C71511   6.319   0.045   4.211 -0.1431  0.5796 -0.1146
  519MOL0     C71512   6.286   0.159   4.115  0.7085  0.3392  0.1368
  519MOL0     C71513   6.435  -0.022   4.205 -0.5244 -0.0865  0.4731
  519MOL0     C71514   6.551   0.023   4.120  0.0548 -0.6637 -0.4014
  519MOL0     O71515   6.543   0.039   3.981 -0.4626  0.2096 -0.0617
  519MOL0     C71516   6.664   0.044   3.920  0.2730 -0.4068  0.5976
  519MOL0     C71517   6.738   0.166   3.940 -1.3489 -0.6342  0.6757
  519MOL0     C71518   6.868   0.170   3.880  0.0573 -0.4697 -0.4434
  519MOL0     C71519   6.918   0.063   3.806  0.2243 -1.2444  0.7297
  519MOL0     O71520   7.045   0.068   3.752 -0.2058 -0.6813  0.9514
  519MOL0     C71521   7.051   0.159   3.643 -0.4205 -0.1074 -0.6704
  519MOL0     C71522   7.182   0.164   3.563  0.4814 -0.0380 -0.7158
  519MOL0     C71523   7.296   0.209   3.658 -0.2074  0.3748  0.1681
  519MOL0     C71524   7.424   0.215   3.578  0.4031  0.2721  0.2616
  519MOL0     C71525   7.532   0.273   3.676 -0.3767  0.0390  0.1782
  519MOL0     C71526   7.678   0.279   3.619  0.7846 -1.1630  0.2538
  519MOL0     C71527   7.786   0.345   3.710 -0.2833  0.0211 -0.7741
  519MOL0     C71528   7.740   0.482   3.764 -0.0104 -0.6556  0.2376
  519MOL0    Cl71529   7.883   0.532   3.852 -0.1557  0.3371 -0.2868
  519MOL0     C71530   6.843  -0.044   3.778 -0.6672 -0.0655 -0.5211
  519MOL0     C71531   6.715  -0.052   3.833  0.0737 -1.0616 -0.4505
  519MOL0     O71532   6.655   0.023   4.181  0.1980  0.2776  0.1677
  519MOL0     C71533   6.451  -0.138   4.284 -0.1285  0.3842  0.1185
  519MOL0     C71534   6.342  -0.181   4.366  0.0656 -0.0881  0.3498
  519MOL0     N71535   5.679   0.190   4.670 -0.1601  0.4338 -0.4971
  519MOL0     N71536   5.588   0.291   4.665 -0.4843  0.1801 -0.3651
  519MOL0     C71537   6.287   1.074   4.500 -0.6597  0.9588 -0.1905
  519MOL0     C71538   6.432   1.073   4.515  0.4987  0.3344  0.1350
  519MOL0     C71539   6.834   0.929   4.556  0.1111  0.5867  0.3763
  519MOL0     C71540   6.902   1.044   4.565 -0.6713 -0.2528  0.2582
  519MOL0     C71541   7.040   1.054   4.552  0.2530  0.1027 -0.9298
  519MOL0     C71542   7.116   0.938   4.558 -0.0640 -0.2523  0.4045
  519MOL0     O71543   7.254   0.935   4.570 -0.3109 -0.0727  0.3129
  519MOL0     C71544   7.328   1.060   4.536 -0.2196  0.6920 -0.8189
  519MOL0     C71545   7.327   1.062   4.382  0.3477  0.0256  0.0322
  519MOL0     C71546   7.455   1.134   4.329 -0.2639 -0.4047 -0.8476
  519MOL0     C71547   7.472   1.275   4.397  0.1407  0.1168 -0.2109
  519MOL0     C71548   7.361   1.370   4.362  0.2135 -0.5429 -0.2301
  519MOL0     C71549   7.280   1.465   4.340 -0.7540 -0.5547 -0.3288
  519MOL0     C71550   7.046   0.814   4.564 -1.0453 -0.1030 -0.1210
  519MOL0     C71551   6.904   0.804   4.554 -0.5955  0.3625 -0.3887
  519MOL0     C71552   6.853   0.665   4.538  0.6998  0.4017  0.4917
  519MOL0     H71553   6.459   0.985   4.840 -0.4805  0.8246  0.6503
  519MOL0     H71554   6.223   0.985   4.826 -0.0775 -0.0268 -0.3212
  519MOL0     H71555   5.961   1.217   4.649  2.2466  1.0928  0.8018
  519MOL0     H71556   6.062   1.157   4.774  0.1867 -0.2449 -0.7362
  519MOL0     H71557   5.923   0.955   4.800  1.4879  1.7240  1.2078
  519MOL0     H71558   5.825   1.098   4.821 -0.9806 -0.7090 -0.4412
  519MOL0     H71559   5.744   1.085   4.578  1.7485  0.1326 -2.2165
  519MOL0     H71560   5.830   0.936   4.562 -0.7403 -1.4461  0.4077
  519MOL0     H71561   5.713   0.837   4.763  3.4770  0.6791 -1.1802
  519MOL0     H71562   5.630   0.981   4.787  0.2887 -1.9693  2.4933
  519MOL0     H71563   5.522   0.933   4.532  0.7962 -1.9172 -1.0629
  519MOL0     H71564   5.475   0.830   4.656 -1.4782 -0.4010 -2.8664
  519MOL0     H71565   5.545   0.732   4.443  1.5464 -1.1908 -0.7142
  519MOL0     H71566   5.697   0.804   4.450 -0.2236  0.3948  0.8580
  519MOL0     H71567   5.787   0.662   4.619  0.9753 -1.7483  0.5306
  519MOL0     H71568   5.715   0.566   4.491 -0.4948 -0.5699  0.9164
  519MOL0     H71569   5.581   0.588   4.760  1.5263 -0.7181 -0.0694
  519MOL0     H71570   5.493   0.544   4.611  0.4366 -6.0148 -1.4468
  519MOL0     H71571   5.876   0.454   4.701  0.5427  0.7817 -3.3563
  519MOL0     H71572   5.961   0.171   4.820  3.5760  1.2688  0.3196
  519MOL0     H71573   6.020   0.241   4.666 -0.9397  0.5860  0.7966
  519MOL0     H71574   6.054  -0.015   4.683  0.1484  0.5939 -0.0251
  519MOL0     H71575   5.877  -0.031   4.681 -1.3961  0.0971 -1.5948
  519MOL0     H71576   5.875   0.100   4.460  1.5270  2.7942 -0.6084
  519MOL0     H71577   6.056   0.111   4.479 -0.2808  1.4742  0.8506
  519MOL0     H71578   5.927  -0.160   4.492 -1.3797  0.7681 -0.1154
  519MOL0     H71579   5.960  -0.088   4.336  1.0093  0.8915  0.0465
  519MOL0     H71580   6.133   0.075   4.294 -1.1679  0.5093 -1.1354
  519MOL0     H71581   6.276   0.117   4.014 -0.1274 -2.0899  1.1551
  519MOL0     H71582   6.363   0.235   4.129  1.1912 -0.5878  3.0601
  519MOL0     H71583   6.188   0.205   4.135  0.5016 -0.9634  2.4959
  519MOL0     H71584   6.712   0.249   4.006  1.0958  1.7851 -1.1544
  519MOL0     H71585   6.935   0.254   3.892  0.2728 -0.6303 -0.5079
  519MOL0     H71586   6.975   0.140   3.567  0.5276 -0.1701 -1.6188
  519MOL0     H71587   7.035   0.261   3.678 -3.7218 -0.2267 -1.5116
  519MOL0     H71588   7.198   0.068   3.514 -0.9415 -0.4038 -0.5043
  519MOL0     H71589   7.174   0.234   3.480  1.6689 -0.7437 -1.4394
  519MOL0     H71590   7.301   0.137   3.740  0.0341 -0.5566 -0.6474
  519MOL0     H71591   7.274   0.312   3.688 -1.0229  0.6693 -1.3158
  519MOL0     H71592   7.408   0.281   3.492  0.6538 -0.6296 -0.4957
  519MOL0     H71593   7.451   0.117   3.537  1.0260  0.0753  1.1177
  519MOL0     H71594   7.508   0.375   3.706  2.0493  0.8888 -0.5069
  519MOL0     H71595   7.535   0.210   3.766  1.1239 -1.6325 -0.9537
  519MOL0     H71596   7.677   0.337   3.526 -1.3968 -0.4653  0.6361
  519MOL0     H71597   7.702   0.175   3.597  0.6699 -0.9601 -0.9019
  519MOL0     H71598   7.881   0.353   3.656  0.6707 -2.6561  0.3477
  519MOL0     H71599   7.802   0.279   3.795  0.7268 -0.4234 -1.2952
  519MOL0     H71600   7.654   0.478   3.831  0.3591 -2.2036  0.6565
  519MOL0     H71601   7.713   0.552   3.684  0.1622 -0.3339  0.4566
  519MOL0     H71602   6.890  -0.118   3.715  0.2771  0.4897 -0.4948
  519MOL0     H71603   6.651  -0.134   3.802  0.0162 -0.9344 -0.6753
  519MOL0     H71604   6.536  -0.205   4.287 -2.1566 -2.3441  1.5121
  519MOL0     H71605   6.353  -0.268   4.430  4.1355  1.0033  1.4234
  519MOL0     H71606   6.242   1.080   4.402  1.8292 -0.5269 -1.5171
  519MOL0     H71607   6.496   1.083   4.428  3.1270 -1.5091  1.7295
  519MOL0     H71608   6.840   1.134   4.562  2.5507  2.1416 -1.4215
  519MOL0     H71609   7.079   1.154   4.566  2.0630 -0.5870 -0.7362
  519MOL0     H71610   7.281   1.150   4.579 -1.0448 -0.4165  0.7007
  519MOL0     H71611   7.428   1.046   4.578  0.0983  0.7437 -1.5462
  519MOL0     H71612   7.230   1.102   4.351 -0.9462 -3.6406 -1.2079
  519MOL0     H71613   7.314   0.963   4.337 -1.0933  0.9971 -1.8401
  519MOL0     H71614   7.547   1.077   4.347  0.3104  0.5542 -0.6849
  519MOL0     H71615   7.449   1.157   4.222  2.8063  1.2531 -0.7642
  519MOL0     H71616   7.561   1.328   4.361 -1.3721  2.6955 -0.3967
  519MOL0     H71617   7.497   1.261   4.503  2.1902  1.1152 -0.5128
  519MOL0     H71618   7.214   1.549   4.331  1.8881  1.9188  1.6055
  519MOL0     H71619   7.113   0.730   4.578 -0.4849  0.4456  0.5993
  519MOL0     H71620   6.777   0.641   4.613 -1.5352 -1.9310 -2.3292
  519MOL0     H71621   6.803   0.658   4.441 -0.5808  2.5317  0.9222
  519MOL0     H71622   6.927   0.585   4.545 -0.1313 -0.5001 -0.6482
  520MOL0     O71623   2.822   9.322   5.540  0.9838  0.3266 -0.1772
  520MOL0     C71624   2.741   9.373   5.456  0.7725  0.0845 -0.8646
  520MOL0     O71625   2.784   9.450   5.349 -0.3244 -0.0237  0.0586
  520MOL0     C71626   2.910   9.501   5.356 -0.1629 -0.2079 -0.6722
  520MOL0     C71627   2.929   9.605   5.437 -0.5370  0.0536 -0.1237
  520MOL0     C71628   3.050   9.664   5.457  0.3619 -0.7823 -1.1547
  520MOL0     C71629   3.162   9.605   5.394  0.1737  0.1617  0.1197
  520MOL0     O71630   3.290   9.660   5.396 -0.3183 -0.0587  0.1955
  520MOL0     C71631   3.317   9.743   5.509  0.1721  0.6541  0.2340
  520MOL0     C71632   3.472   9.746   5.534 -0.3153 -0.1264 -0.8471
  520MOL0     C71633   3.494   9.829   5.658 -0.5508 -0.4852 -0.7197
  520MOL0     C71634   3.632   9.814   5.713 -0.0248  0.3678 -0.3444
  520MOL0     C71635   3.734   9.839   5.608 -0.9613  0.2279 -0.1866
  520MOL0     C71636   3.886   9.823   5.641  0.6581  0.2107 -0.2587
  520MOL0     C71637   3.978   9.880   5.539 -0.5951  0.7830  0.1313
  520MOL0     C71638   4.123   9.856   5.556  0.0075 -0.5076  0.5937
  520MOL0     N71639   4.177   9.942   5.668 -0.7831  1.0265  0.4965
  520MOL0     C71640   4.197   9.891   5.793 -1.2716 -0.6721 -0.5664
  520MOL0     C71641   4.254  10.009   5.855  0.2020  0.8566 -0.3398
  520MOL0     C71642   4.294  10.034   6.003  0.1230  0.4967  0.2634
  520MOL0     C71643   4.426   9.957   6.050  0.4019  0.1488 -0.3071
  520MOL0     C71644   4.471   9.996   6.198  0.9669  0.2483 -0.9075
  520MOL0     C71645   4.600   9.929   6.219  0.8827  0.0797  0.6140
  520MOL0     O71646   4.713   9.987   6.151  0.3110  0.0684  0.2845
  520MOL0     C71647   4.841   9.952   6.172 -0.0602  0.7654 -0.1878
  520MOL0     C71648   4.882   9.841   6.236 -0.8688 -0.4936 -0.3650
  520MOL0     C71649   5.020   9.829   6.270  0.5144 -0.0896  0.5848
  520MOL0     C71650   5.045   9.704   6.348  0.4533  1.5084 -0.2507
  520MOL0     C71651   5.120   9.922   6.224  0.3350  0.1546  0.0147
  520MOL0     C71652   5.259   9.909   6.258 -0.6640  0.1355 -0.7046
  520MOL0     O71653   5.338  10.010   6.210  0.1979 -0.2506  0.1988
  520MOL0     C71654   5.472  10.005   6.231  0.0845  0.3653  0.0088
  520MOL0     C71655   5.527  10.043   6.354 -0.8024 -0.4903 -0.6367
  520MOL0     C71656   5.666  10.028   6.375  0.1700  0.9521 -0.0159
  520MOL0     C71657   5.751   9.978   6.278  0.5961  1.0752  0.5137
  520MOL0     O71658   5.880   9.952   6.307 -0.5821 -0.4284  0.4816
  520MOL0     C71659   5.968   9.904   6.203 -0.1940 -0.2604  0.3377
  520MOL0     C71660   6.117   9.941   6.243 -0.2168 -0.2739 -0.6138
  520MOL0     C71661   6.131  10.089   6.277 -0.0090 -0.2725  0.3351
  520MOL0     C71662   6.266  10.130   6.334 -0.1885  0.0938 -0.1373
  520MOL0     C71663   6.376  10.145   6.223 -0.3801  0.0398 -0.0894
  520MOL0     C71664   6.511  10.130   6.284 -0.6960 -0.3878  0.2294
  520MOL0     C71665   6.630  10.142   6.198 -0.0724 -0.4357 -0.4926
  520MOL0     C71666   6.762  10.113   6.284 -0.3569 -0.1008  0.1303
  520MOL0    Cl71667   6.902  10.070   6.175 -0.2144 -0.1696 -0.0644
  520MOL0     C71668   5.690   9.942   6.156 -0.1776  0.3278 -0.5619
  520MOL0     C71669   5.547   9.953   6.127 -0.1785 -0.7388 -0.3402
  520MOL0     O71670   5.301   9.826   6.340 -0.1512 -0.3956 -1.0095
  520MOL0     C71671   5.064  10.035   6.154 -0.4777  0.6300  0.2381
  520MOL0     C71672   4.928  10.056   6.138 -0.2522 -0.2786 -0.0241
  520MOL0     N71673   4.251  10.115   5.773  0.6894  0.2728 -0.7250
  520MOL0     N71674   4.209  10.075   5.660  0.6714 -0.6021 -0.0588
  520MOL0     C71675   3.140   9.500   5.298 -0.1146  0.3340 -0.2811
  520MOL0     C71676   3.011   9.451   5.279 -1.0946 -0.0558 -0.7646
  520MOL0     C71677   2.598   9.341   5.481  0.3638  0.0185  0.5746
  520MOL0     C71678   2.553   9.224   5.541  0.0343 -0.5458  0.0496
  520MOL0     C71679   2.419   9.182   5.545  0.6008 -0.2232 -0.5573
  520MOL0     C71680   2.327   9.259   5.477 -0.6742 -0.6685 -0.0628
  520MOL0     O71681   2.196   9.232   5.459 -0.1582 -0.3519  0.2544
  520MOL0     C71682   2.150   9.099   5.492  0.2236 -1.1920  0.0323
  520MOL0     C71683   2.008   9.091   5.451  0.7161 -0.7536 -0.8760
  520MOL0     C71684   1.915   9.179   5.545 -0.2782 -0.1043  0.0111
  520MOL0     C71685   1.765   9.180   5.511 -0.5544  0.4178 -1.0712
  520MOL0     C71686   1.687   9.186   5.637  0.1724 -0.3413 -0.4145
  520MOL0     C71687   1.628   9.176   5.742  0.2312 -0.8087  0.5514
  520MOL0     C71688   2.363   9.387   5.420  0.2309  0.2254 -0.1117
  520MOL0     C71689   2.497   9.430   5.422 -0.0952  1.7013 -0.0751
  520MOL0     C71690   2.524   9.560   5.365  0.9397 -0.6960 -0.0424
  520MOL0     H71691   2.844   9.645   5.491 -1.1405  0.0499 -1.0434
  520MOL0     H71692   3.060   9.745   5.529 -2.6443 -2.2295  1.0906
  520MOL0     H71693   3.257   9.717   5.597 -1.5299  3.7367  0.0900
  520MOL0     H71694   3.291   9.848   5.495  1.2735  0.9035 -0.0758
  520MOL0     H71695   3.520   9.650   5.556  1.7370  1.2549  1.1942
  520MOL0     H71696   3.517   9.786   5.443  3.5206 -1.0717  0.4253
  520MOL0     H71697   3.473   9.934   5.632  0.2430 -0.6522 -2.0942
  520MOL0     H71698   3.426   9.801   5.739  1.0108  3.7580  2.4735
  520MOL0     H71699   3.637   9.880   5.800 -0.8950 -0.0665  0.0468
  520MOL0     H71700   3.645   9.713   5.752 -1.6279 -0.0088 -0.7049
  520MOL0     H71701   3.723   9.937   5.561  0.3553  0.1591 -0.6959
  520MOL0     H71702   3.714   9.769   5.527 -1.2220 -1.6735  1.4364
  520MOL0     H71703   3.905   9.883   5.731  2.6201 -0.0156 -0.4679
  520MOL0     H71704   3.919   9.723   5.668  3.3321 -0.0206 -3.6889
  520MOL0     H71705   3.970   9.989   5.528  0.6254  0.7127 -1.7897
  520MOL0     H71706   3.958   9.822   5.448 -0.5303 -0.1552  0.6988
  520MOL0     H71707   4.145   9.750   5.574 -2.1062 -0.5196  3.9364
  520MOL0     H71708   4.176   9.888   5.466  0.3709 -1.7389  0.3461
  520MOL0     H71709   4.184   9.797   5.846 -0.8616 -0.9289 -0.9119
  520MOL0     H71710   4.211   9.998   6.065  0.3574 -1.7645 -0.6702
  520MOL0     H71711   4.296  10.143   6.012  0.3944  0.5511 -0.4054
  520MOL0     H71712   4.406   9.849   6.051 -1.6921  0.3453  4.3063
  520MOL0     H71713   4.516   9.976   5.991  1.4604 -0.1424  1.1537
  520MOL0     H71714   4.476  10.104   6.217  0.8220 -0.0420  0.9706
  520MOL0     H71715   4.395   9.951   6.262  2.9236  0.8200  1.9984
  520MOL0     H71716   4.616   9.949   6.326 -0.7404  0.6067  0.7969
  520MOL0     H71717   4.586   9.825   6.191 -2.6509  1.7175 -5.6047
  520MOL0     H71718   4.812   9.762   6.263  1.3809 -2.7182 -0.6928
  520MOL0     H71719   5.084   9.701   6.451  2.0440 -0.4269 -0.8311
  520MOL0     H71720   5.110   9.638   6.290 -2.7446 -2.5226  0.3260
  520MOL0     H71721   4.949   9.655   6.367 -1.2497  4.5249 -0.4407
  520MOL0     H71722   5.466  10.080   6.436  0.5484 -0.6725  0.4884
  520MOL0     H71723   5.701  10.037   6.477  0.1617 -0.1844  0.0924
  520MOL0     H71724   5.954   9.796   6.187  1.0996 -0.6473  1.6227
  520MOL0     H71725   5.946   9.955   6.109 -4.8290 -0.9509  0.7853
  520MOL0     H71726   6.157   9.882   6.325 -2.7308 -0.6018  0.4949
  520MOL0     H71727   6.178   9.932   6.153 -1.7722  0.9263 -1.8830
  520MOL0     H71728   6.051  10.118   6.346 -0.4350  0.4718 -0.4462
  520MOL0     H71729   6.120  10.146   6.185  1.2342 -1.4849 -0.6132
  520MOL0     H71730   6.305  10.054   6.403  3.0030  1.8747  0.1961
  520MOL0     H71731   6.258  10.223   6.392 -1.3134 -0.5476  0.8053
  520MOL0     H71732   6.366  10.072   6.141  2.9134 -0.1639 -0.4377
  520MOL0     H71733   6.366  10.238   6.167  1.2172 -0.2146 -0.8540
  520MOL0     H71734   6.521  10.035   6.337  1.0199 -1.1567 -1.3712
  520MOL0     H71735   6.507  10.215   6.354 -0.4431  0.4061 -0.7042
  520MOL0     H71736   6.639  10.242   6.155  2.5501 -0.1716  0.4502
  520MOL0     H71737   6.627  10.056   6.130 -0.0267 -2.5845  2.0528
  520MOL0     H71738   6.742  10.037   6.360 -0.2750 -2.5468 -2.1470
  520MOL0     H71739   6.790  10.212   6.322 -1.0414  0.0538  0.2420
  520MOL0     H71740   5.748   9.899   6.075  1.0064 -0.2079  0.5474
  520MOL0     H71741   5.499   9.931   6.032  0.1639  2.4766 -1.3987
  520MOL0     H71742   5.133  10.115   6.132 -0.1946  0.0310 -1.1914
  520MOL0     H71743   4.888  10.148   6.095  0.2871  1.0635  2.1902
  520MOL0     H71744   3.227   9.473   5.239  0.9836 -0.7465  1.7470
  520MOL0     H71745   2.988   9.374   5.206  0.7322  0.5309 -2.0318
  520MOL0     H71746   2.629   9.156   5.579  0.1398  0.4046  1.6509
  520MOL0     H71747   2.395   9.086   5.591 -0.3399 -0.5432 -1.6637
  520MOL0     H71748   2.206   9.025   5.434  1.4027 -0.2356 -0.0940
  520MOL0     H71749   2.167   9.085   5.599  3.5817 -1.9380 -0.4864
  520MOL0     H71750   1.985   8.984   5.455 -2.4088 -0.1226  0.4319
  520MOL0     H71751   2.006   9.122   5.346  0.8682 -1.3690 -1.0690
  520MOL0     H71752   1.930   9.148   5.649  0.9715  0.1327 -0.0910
  520MOL0     H71753   1.946   9.282   5.526 -1.9922  0.5408  0.5311
  520MOL0     H71754   1.753   9.082   5.462 -0.6492 -0.6532  0.9729
  520MOL0     H71755   1.736   9.256   5.439 -0.1176  2.5167  0.8795
  520MOL0     H71756   1.584   9.159   5.838 -1.3676  0.7255  0.1429
  520MOL0     H71757   2.288   9.447   5.370  0.7466  2.6376  1.7664
  520MOL0     H71758   2.431   9.617   5.370  0.6189 -1.0854 -1.3495
  520MOL0     H71759   2.597   9.611   5.430 -0.9512  2.8724 -0.4509
  520MOL0     H71760   2.563   9.558   5.263 -1.6496  1.6479 -1.2150
  521MOL0     O71761   7.698  10.691   9.099 -0.2387 -0.9579  0.3476
  521MOL0     C71762   7.672  10.728   9.210  0.0755  0.7559 -0.5682
  521MOL0     O71763   7.768  10.785   9.308 -0.3472  0.5247 -0.4704
  521MOL0     C71764   7.896  10.767   9.277  0.2581 -0.1643 -0.2588
  521MOL0     C71765   7.969  10.867   9.220  0.1511  0.1488  0.1251
  521MOL0     C71766   8.106  10.846   9.211 -0.6853 -0.1506 -0.5374
  521MOL0     C71767   8.163  10.723   9.233  0.1210  0.6659 -0.6239
  521MOL0     O71768   8.283  10.698   9.179 -0.4635  0.0601 -0.4015
  521MOL0     C71769   8.277  10.691   9.034  0.6013  0.1186  0.0007
  521MOL0     C71770   8.375  10.580   8.989 -0.4847  0.1956  0.4534
  521MOL0     C71771   8.524  10.614   9.020  0.8137 -0.0960  0.5770
  521MOL0     C71772   8.618  10.494   8.986  0.2641 -0.9162 -0.5763
  521MOL0     C71773   8.770  10.533   9.001 -0.0885  1.3226  0.4890
  521MOL0     C71774   8.860  10.408   8.986  0.3504  1.1919 -0.0933
  521MOL0     C71775   9.005  10.433   9.014 -1.2241 -0.0760  0.4506
  521MOL0     C71776   9.098  10.424   8.894  0.4698 -0.4315  0.0954
  521MOL0     N71777   9.231  10.451   8.942 -0.3781  0.2884 -0.1441
  521MOL0     C71778   9.325  10.355   8.961  0.2780 -0.7300  1.1038
  521MOL0     C71779   9.444  10.419   8.965  0.3672  0.1155  0.5254
  521MOL0     C71780   9.584  10.362   8.965  0.8453  1.2209 -0.0298
  521MOL0     C71781   9.635  10.345   8.816  0.7206  0.5106 -0.4529
  521MOL0     C71782   9.785  10.321   8.820 -0.1904  0.2738 -0.8562
  521MOL0     C71783   9.856  10.360   8.691 -1.1451 -0.1762 -0.6463
  521MOL0     O71784   9.967  10.266   8.677  0.3837  0.1159 -0.6725
  521MOL0     C71785  10.061  10.279   8.579  0.1713  0.3807  0.4728
  521MOL0     C71786  10.186  10.213   8.607 -0.0700  0.2316  0.8621
  521MOL0     C71787  10.291  10.211   8.510  0.6022  0.4744 -0.7820
  521MOL0     C71788  10.414  10.137   8.542 -0.1693 -0.3528  0.5788
  521MOL0     C71789  10.270  10.279   8.388 -0.7948 -0.8944  1.0017
  521MOL0     C71790  10.380  10.291   8.284 -0.0049  0.7132 -0.2428
  521MOL0     O71791  10.362  10.378   8.182 -1.3087 -0.2904  0.0600
  521MOL0     C71792  10.466  10.393   8.093 -0.0117 -0.7091 -0.4747
  521MOL0     C71793  10.588  10.441   8.135  0.4928  0.6011 -0.2369
  521MOL0     C71794  10.689  10.474   8.045 -0.1762 -0.4262 -0.9506
  521MOL0     C71795  10.677  10.456   7.903  0.0211 -0.2356  0.2985
  521MOL0     O71796  10.768  10.495   7.807  0.0518  0.4905  0.2019
  521MOL0     C71797  10.897  10.551   7.850 -0.3346 -0.2377  0.7583
  521MOL0     C71798  10.876  10.698   7.874 -0.2257  0.1707  0.3048
  521MOL0     C71799  10.949  10.784   7.769  1.6334  0.3282 -0.5381
  521MOL0     C71800  10.953  10.929   7.801  0.5802  0.3321  0.0864
  521MOL0     C71801  11.062  10.968   7.901 -0.4298 -0.5945  0.6928
  521MOL0     C71802  11.061  11.117   7.914  0.7284  0.7830 -0.4157
  521MOL0     C71803  11.183  11.162   7.975 -0.7207  0.5050  0.0551
  521MOL0     C71804  11.179  11.307   8.013  1.0520 -0.4172 -0.6670
  521MOL0    Cl71805  11.331  11.371   8.086 -0.1225  0.4247 -0.1196
  521MOL0     C71806  10.557  10.400   7.858 -0.0292  0.3546 -1.0354
  521MOL0     C71807  10.449  10.370   7.952  0.6667 -0.0858 -1.2584
  521MOL0     O71808  10.472  10.215   8.285 -0.8172 -0.6098 -0.5111
  521MOL0     C71809  10.148  10.350   8.360 -0.8898  0.2738  0.1739
  521MOL0     C71810  10.045  10.343   8.458 -1.2296 -0.0817 -0.3722
  521MOL0     N71811   9.419  10.555   8.955  0.7375  0.2069 -0.1822
  521MOL0     N71812   9.287  10.575   8.953  0.6485  0.1859 -0.1357
  521MOL0     C71813   8.084  10.625   9.294 -0.6638  0.4615  0.8907
  521MOL0     C71814   7.949  10.647   9.311  0.5788  0.5064 -0.3673
  521MOL0     C71815   7.524  10.721   9.247  0.1261 -0.7058  0.3012
  521MOL0     C71816   7.466  10.642   9.346 -0.0958  0.2356 -1.2347
  521MOL0     C71817   7.327  10.634   9.361 -0.1188 -0.0186  0.0079
  521MOL0     C71818   7.242  10.709   9.285  1.0930 -0.1933 -0.6504
  521MOL0     O71819   7.115  10.717   9.338 -0.3547  0.6558 -0.5249
  521MOL0     C71820   7.024  10.662   9.241  0.0296 -0.1604 -0.3802
  521MOL0     C71821   6.958  10.760   9.139  0.0812  0.1701 -0.5624
  521MOL0     C71822   6.907  10.889   9.205  0.1603 -0.0249  0.8266
  521MOL0     C71823   6.909  10.995   9.093  0.0628 -0.1976 -0.7008
  521MOL0     C71824   6.827  11.112   9.131 -0.8095 -0.6475 -0.0682
  521MOL0     C71825   6.760  11.209   9.165 -0.5257 -0.4374  0.4290
  521MOL0     C71826   7.293  10.785   9.188 -0.2869  0.8737  0.7740
  521MOL0     C71827   7.432  10.790   9.166  0.4758  0.3686  0.6932
  521MOL0     C71828   7.471  10.876   9.044 -0.1404  0.5313 -0.5156
  521MOL0     H71829   7.902  10.950   9.198 -0.0404 -0.1783 -0.5263
  521MOL0     H71830   8.168  10.917   9.157  1.8396 -1.0305  1.0563
  521MOL0     H71831   8.304  10.787   8.990  0.5216  0.4021  0.5642
  521MOL0     H71832   8.178  10.651   9.009  0.6721 -0.3649  0.4829
  521MOL0     H71833   8.341  10.492   9.045 -0.2305  0.2371  0.6728
  521MOL0     H71834   8.377  10.562   8.881  0.5646  3.8359 -0.2500
  521MOL0     H71835   8.552  10.704   8.965  1.6988  0.7413  2.3377
  521MOL0     H71836   8.531  10.641   9.126 -0.6789 -1.2492  0.9970
  521MOL0     H71837   8.591  10.403   9.040 -0.6187 -0.7968 -0.7943
  521MOL0     H71838   8.594  10.472   8.881  0.0010 -2.5448 -0.2112
  521MOL0     H71839   8.789  10.570   9.103  1.0411  0.1266  0.7429
  521MOL0     H71840   8.802  10.601   8.922  0.6343 -1.0378 -1.3357
  521MOL0     H71841   8.831  10.325   9.051 -1.6628  2.9691  1.4362
  521MOL0     H71842   8.847  10.359   8.889 -2.4808  3.2262 -0.8842
  521MOL0     H71843   9.043  10.371   9.096 -2.0286 -0.4652  0.5384
  521MOL0     H71844   9.014  10.540   9.039  1.1376  0.7934 -3.3605
  521MOL0     H71845   9.079  10.323   8.856  0.9186 -1.0745  1.5231
  521MOL0     H71846   9.059  10.501   8.827 -0.6338 -2.8900 -2.2967
  521MOL0     H71847   9.306  10.248   8.955 -2.3703 -0.2703  0.0645
  521MOL0     H71848   9.585  10.261   9.008 -3.0975  0.7682 -0.6390
  521MOL0     H71849   9.640  10.436   9.022  0.5090  0.1091  1.8303
  521MOL0     H71850   9.582  10.260   8.772 -0.4034  2.1968 -2.4978
  521MOL0     H71851   9.625  10.432   8.752 -1.9848  0.2207 -0.5504
  521MOL0     H71852   9.836  10.382   8.895  0.8073 -0.7566 -0.6673
  521MOL0     H71853   9.797  10.214   8.840 -2.1014  0.5064  2.1537
  521MOL0     H71854   9.792  10.355   8.603 -3.2098 -1.5883  0.8609
  521MOL0     H71855   9.903  10.459   8.701 -0.9966 -0.2203 -0.8915
  521MOL0     H71856  10.206  10.168   8.704 -2.1874 -1.2707  0.6680
  521MOL0     H71857  10.413  10.085   8.638  1.0734  0.5733  1.1178
  521MOL0     H71858  10.503  10.200   8.531  1.4040 -2.5904 -0.2810
  521MOL0     H71859  10.430  10.066   8.461  1.5804  1.0594 -0.3904
  521MOL0     H71860  10.617  10.462   8.238 -1.6271  2.8754 -0.0137
  521MOL0     H71861  10.778  10.515   8.091 -1.1913  0.5390  0.2449
  521MOL0     H71862  10.934  10.508   7.943  0.2268  0.5928  0.9297
  521MOL0     H71863  10.974  10.536   7.773 -1.0175  1.3412 -0.2816
  521MOL0     H71864  10.772  10.732   7.878  0.1125  1.9969 -2.8686
  521MOL0     H71865  10.931  10.712   7.968 -2.0034 -0.8325  1.5705
  521MOL0     H71866  10.892  10.772   7.677  1.1971 -2.2362  0.0026
  521MOL0     H71867  11.047  10.740   7.745  0.8115 -1.8551 -0.1257
  521MOL0     H71868  10.854  10.970   7.823  1.3087  1.0161  2.2785
  521MOL0     H71869  10.974  10.974   7.703 -2.9210 -0.4495 -1.1667
  521MOL0     H71870  11.044  10.918   7.996 -2.0475  1.3867  1.4864
  521MOL0     H71871  11.158  10.941   7.856 -0.7625 -3.3620  1.4124
  521MOL0     H71872  10.974  11.157   7.967  0.3138 -1.5371  0.7621
  521MOL0     H71873  11.055  11.158   7.812 -0.6278  2.7475  0.3971
  521MOL0     H71874  11.264  11.142   7.904  1.0284  0.8958  1.8209
  521MOL0     H71875  11.221  11.108   8.062  0.5463  0.9858 -0.1748
  521MOL0     H71876  11.096  11.320   8.082  3.1002  1.1792  1.6513
  521MOL0     H71877  11.165  11.370   7.924  1.5326  0.7360  0.0558
  521MOL0     H71878  10.540  10.388   7.752  0.3353 -1.4619 -0.9308
  521MOL0     H71879  10.354  10.327   7.923  0.3052  0.1088 -0.3824
  521MOL0     H71880  10.139  10.408   8.269 -1.5090 -0.8636 -0.5179
  521MOL0     H71881   9.958  10.403   8.437  0.9245  2.4475 -2.8257
  521MOL0     H71882   8.127  10.536   9.338  0.8691  0.3678 -0.6518
  521MOL0     H71883   7.884  10.572   9.355  1.2873 -0.9228 -1.6734
  521MOL0     H71884   7.538  10.590   9.408  1.6650  3.4885 -0.2945
  521MOL0     H71885   7.292  10.564   9.437 -1.2400  1.0621  0.5232
  521MOL0     H71886   7.079  10.581   9.192  3.6144  0.1340  2.6507
  521MOL0     H71887   6.944  10.608   9.292  0.3538  1.5452  2.1056
  521MOL0     H71888   6.884  10.702   9.082  2.0411 -1.4477 -1.6097
  521MOL0     H71889   7.031  10.792   9.065  0.5349  1.9619  0.6151
  521MOL0     H71890   6.804  10.860   9.229 -0.1731  0.4774  0.0112
  521MOL0     H71891   6.963  10.918   9.295 -0.9674  1.6216  1.0567
  521MOL0     H71892   6.862  10.967   8.998  0.4171 -0.2307 -0.8662
  521MOL0     H71893   7.014  11.016   9.075  1.3621 -2.7974  2.7515
  521MOL0     H71894   6.693  11.288   9.193 -0.8250 -0.5820  0.1296
  521MOL0     H71895   7.227  10.856   9.140  1.2240  2.4837  0.9773
  521MOL0     H71896   7.387  10.947   9.039  0.5072  1.3663  0.1631
  521MOL0     H71897   7.568  10.923   9.061 -0.0890 -0.0181  0.7815
  521MOL0     H71898   7.473  10.812   8.956  1.8646  0.3067 -0.3542
  522MOL0     O71899   2.838   5.044   5.997  0.3196 -0.5209  0.4960
  522MOL0     C71900   2.787   4.956   5.933 -0.6784 -0.8035 -0.9191
  522MOL0     O71901   2.845   4.888   5.830  0.3188 -0.3840 -0.4628
  522MOL0     C71902   2.977   4.895   5.812 -0.3182  0.3337 -0.2426
  522MOL0     C71903   3.081   4.915   5.908  0.9350  0.6943 -0.0327
  522MOL0     C71904   3.215   4.897   5.875 -0.2499  0.2618  0.3113
  522MOL0     C71905   3.249   4.869   5.744  0.5650  0.0036  0.8789
  522MOL0     O71906   3.381   4.884   5.713 -0.7004  0.4210  0.3054
  522MOL0     C71907   3.422   4.927   5.577  0.6096  0.0632 -0.1453
  522MOL0     C71908   3.527   5.036   5.589 -0.4114  1.0503  0.5478
  522MOL0     C71909   3.671   4.989   5.631 -0.1919 -0.9801 -0.2013
  522MOL0     C71910   3.748   5.119   5.641  0.1293 -0.2416  0.0782
  522MOL0     C71911   3.897   5.086   5.667  0.4103  0.5114 -0.5880
  522MOL0     C71912   3.980   5.209   5.701  0.1928 -1.2685 -0.3221
  522MOL0     C71913   4.128   5.185   5.678 -0.1579  0.1355 -0.0597
  522MOL0     C71914   4.208   5.309   5.694  0.3968  0.4225  0.7328
  522MOL0     N71915   4.353   5.291   5.702  0.5139  0.8860 -0.4169
  522MOL0     C71916   4.425   5.252   5.592  0.0090 -0.2716  0.0607
  522MOL0     C71917   4.554   5.251   5.638  0.1036 -0.1857 -0.3251
  522MOL0     C71918   4.669   5.212   5.565 -0.2272 -0.8415 -0.6785
  522MOL0     C71919   4.767   5.326   5.548  0.6089  0.6266 -0.4926
  522MOL0     C71920   4.909   5.267   5.480  0.0052 -0.4505  0.0212
  522MOL0     C71921   5.002   5.378   5.432  0.5161 -0.7754  0.1951
  522MOL0     O71922   5.144   5.340   5.422  0.4929  0.5637 -0.9861
  522MOL0     C71923   5.237   5.382   5.508 -0.1813  0.0790  0.8326
  522MOL0     C71924   5.207   5.397   5.642 -0.0251  0.2364 -0.0570
  522MOL0     C71925   5.312   5.448   5.727 -0.2491 -0.2327  0.4743
  522MOL0     C71926   5.272   5.475   5.870 -1.2849 -0.0536 -0.3748
  522MOL0     C71927   5.438   5.473   5.670 -0.6463 -0.3000  0.1783
  522MOL0     C71928   5.554   5.530   5.740 -0.3700  0.4996  0.0340
  522MOL0     O71929   5.670   5.479   5.708  0.5230 -0.2463 -0.3968
  522MOL0     C71930   5.774   5.479   5.802  0.9051  0.4217 -0.0245
  522MOL0     C71931   5.754   5.464   5.947  0.3610  0.2410 -0.1368
  522MOL0     C71932   5.866   5.455   6.027 -0.5991  0.9544 -0.9563
  522MOL0     C71933   5.999   5.453   5.974  0.5253 -0.0513  0.3240
  522MOL0     O71934   6.100   5.447   6.065 -0.9384 -0.5814  0.4567
  522MOL0     C71935   6.234   5.441   6.002  0.3379  0.0728 -0.1449
  522MOL0     C71936   6.347   5.432   6.092 -0.7923 -0.0683  0.2865
  522MOL0     C71937   6.470   5.471   6.009 -0.1229  0.6815  0.7313
  522MOL0     C71938   6.578   5.356   6.002  0.1952  0.2055 -0.0147
  522MOL0     C71939   6.711   5.397   5.942  0.2173  0.7924  0.1055
  522MOL0     C71940   6.815   5.279   5.956 -0.0220  0.5976 -0.0722
  522MOL0     C71941   6.767   5.147   5.884 -0.3210 -0.2506  0.0950
  522MOL0     C71942   6.883   5.043   5.863  0.2340 -0.0492  0.2247
  522MOL0    Cl71943   6.987   5.117   5.741 -0.0327  0.1017  0.0763
  522MOL0     C71944   6.008   5.465   5.837 -0.3940 -0.3528  0.3889
  522MOL0     C71945   5.901   5.471   5.751 -0.3261  0.0426 -0.1086
  522MOL0     O71946   5.535   5.618   5.821  0.4102  0.0181 -0.0154
  522MOL0     C71947   5.460   5.440   5.530  0.2074  0.1657 -0.6383
  522MOL0     C71948   5.360   5.387   5.452 -0.6703  0.0327  0.9222
  522MOL0     N71949   4.549   5.263   5.778  0.3882 -0.3292  0.2059
  522MOL0     N71950   4.427   5.269   5.814 -0.5764  0.5487  0.6444
  522MOL0     C71951   3.150   4.848   5.645 -0.0331 -0.0268  0.1380
  522MOL0     C71952   3.018   4.858   5.684  0.8569 -0.0392  0.7727
  522MOL0     C71953   2.646   4.937   5.960 -0.7320  0.8656 -0.8777
  522MOL0     C71954   2.573   5.044   6.012 -0.0775  0.2871  0.2114
  522MOL0     C71955   2.436   5.023   6.041 -0.1420 -0.6662 -1.1066
  522MOL0     C71956   2.373   4.900   6.035 -0.0859 -0.5178 -0.4909
  522MOL0     O71957   2.240   4.867   6.062  0.0700 -0.4940 -0.5196
  522MOL0     C71958   2.144   4.972   6.097  0.1117 -0.4209  0.1314
  522MOL0     C71959   2.010   4.927   6.034  0.3590 -0.1446  0.5318
  522MOL0     C71960   2.025   4.859   5.905 -0.7565  0.0954  0.2319
  522MOL0     C71961   1.890   4.836   5.823  0.7552 -0.4296 -0.1228
  522MOL0     C71962   1.808   4.955   5.795  0.4113 -0.2193  0.1195
  522MOL0     C71963   1.738   5.062   5.803 -0.1599 -0.3441  0.2003
  522MOL0     C71964   2.452   4.789   5.983  0.2232 -0.2347 -0.3086
  522MOL0     C71965   2.590   4.801   5.960  0.0950 -0.0886 -0.3016
  522MOL0     C71966   2.677   4.675   5.925  0.0959  0.9498  0.7631
  522MOL0     H71967   3.062   4.943   6.011  0.9432  1.3399 -0.2033
  522MOL0     H71968   3.288   4.928   5.949  0.1739  0.3699 -0.1468
  522MOL0     H71969   3.341   4.961   5.512 -0.9519 -0.0112  1.6782
  522MOL0     H71970   3.466   4.844   5.520  2.3742  2.1827 -2.0739
  522MOL0     H71971   3.536   5.078   5.488  0.9153 -2.1294 -0.7906
  522MOL0     H71972   3.475   5.101   5.660 -2.0988 -0.0489  0.3624
  522MOL0     H71973   3.667   4.945   5.730 -1.5561  1.7160  1.0507
  522MOL0     H71974   3.714   4.938   5.544  0.4363  2.3742 -2.0322
  522MOL0     H71975   3.731   5.184   5.555 -4.7381  0.0701  1.0176
  522MOL0     H71976   3.706   5.178   5.722 -1.3731 -1.4931  0.2559
  522MOL0     H71977   3.933   5.048   5.571 -0.6506 -0.8190 -0.4904
  522MOL0     H71978   3.916   5.008   5.742 -1.9994  1.0593  0.6828
  522MOL0     H71979   3.953   5.294   5.637 -0.1316 -2.1369 -1.3593
  522MOL0     H71980   3.971   5.235   5.807  3.2153  2.1542 -0.7028
  522MOL0     H71981   4.145   5.150   5.576 -0.4035 -0.6605  0.1665
  522MOL0     H71982   4.165   5.112   5.751  2.9518  0.1646 -1.4323
  522MOL0     H71983   4.193   5.368   5.603 -1.3225  0.5745  1.0642
  522MOL0     H71984   4.174   5.361   5.785  0.5071 -0.4484  1.2828
  522MOL0     H71985   4.399   5.243   5.487 -0.7417  0.4054  0.1753
  522MOL0     H71986   4.651   5.168   5.467  0.7506 -2.1774 -0.2894
  522MOL0     H71987   4.715   5.145   5.637 -0.7883  1.7088  2.2852
  522MOL0     H71988   4.725   5.403   5.482 -0.8528 -1.1828 -1.7942
  522MOL0     H71989   4.800   5.365   5.644 -1.1296  0.2499  0.2903
  522MOL0     H71990   4.964   5.211   5.557 -1.5140 -0.2421  1.3191
  522MOL0     H71991   4.904   5.204   5.391  1.9628  0.9589 -1.1683
  522MOL0     H71992   4.973   5.421   5.335  0.9311  3.1698  1.6170
  522MOL0     H71993   4.988   5.466   5.496 -0.2332  0.7810 -1.9711
  522MOL0     H71994   5.107   5.389   5.685 -0.6673  0.1750 -1.4887
  522MOL0     H71995   5.237   5.577   5.889 -2.3499 -0.3073 -0.9177
  522MOL0     H71996   5.356   5.455   5.937 -1.0181 -0.6569 -0.8830
  522MOL0     H71997   5.193   5.405   5.900  1.9899 -2.6136  3.3458
  522MOL0     H71998   5.658   5.468   5.997  0.8925 -1.5263  1.1402
  522MOL0     H71999   5.848   5.445   6.134  0.1208 -2.8932 -1.0551
  522MOL0     H72000   6.227   5.352   5.939 -1.4856 -1.2501  1.7846
  522MOL0     H72001   6.254   5.534   5.948  2.0497 -0.3106 -0.2027
  522MOL0     H72002   6.334   5.495   6.180 -3.3283 -0.8744  0.5555
  522MOL0     H72003   6.360   5.328   6.124 -0.4788 -1.6187 -4.2028
  522MOL0     H72004   6.522   5.562   6.039  4.4592 -1.9707  1.8086
  522MOL0     H72005   6.442   5.474   5.903 -0.2967  1.1309  0.7914
  522MOL0     H72006   6.536   5.277   5.939  0.7990  1.8021 -2.5816
  522MOL0     H72007   6.585   5.324   6.106  1.9228  0.2548 -0.0744
  522MOL0     H72008   6.702   5.420   5.835 -0.0807 -0.6414 -0.1985
  522MOL0     H72009   6.749   5.483   5.999 -0.4586 -2.4807  6.2964
  522MOL0     H72010   6.843   5.260   6.060 -2.1151  2.6987  0.9665
  522MOL0     H72011   6.903   5.316   5.902 -1.3030  0.7600 -2.1855
  522MOL0     H72012   6.722   5.176   5.788 -0.2048 -0.7243 -0.1045
  522MOL0     H72013   6.682   5.104   5.937 -1.5122  3.2780  1.3514
  522MOL0     H72014   6.841   4.950   5.822  0.8974 -1.0630  1.7708
  522MOL0     H72015   6.931   5.028   5.960  2.3382  2.7198 -0.2687
  522MOL0     H72016   6.109   5.480   5.802  0.3523 -0.4160  2.3992
  522MOL0     H72017   5.918   5.478   5.644 -1.3015 -2.5732 -0.5192
  522MOL0     H72018   5.558   5.453   5.485 -0.1925  1.0761 -1.2640
  522MOL0     H72019   5.380   5.361   5.348  2.5640 -1.0629  1.6913
  522MOL0     H72020   3.168   4.822   5.541  1.5360 -4.2746  1.2218
  522MOL0     H72021   2.938   4.836   5.614 -0.6427 -0.6459  2.5935
  522MOL0     H72022   2.626   5.138   6.022  0.0446  0.2017  0.3664
  522MOL0     H72023   2.379   5.105   6.083 -0.8201 -0.3925 -2.4878
  522MOL0     H72024   2.134   4.994   6.203  1.9757 -0.9084  0.4439
  522MOL0     H72025   2.165   5.063   6.041 -0.3618  0.0657  0.7285
  522MOL0     H72026   1.936   5.008   6.033  0.1976 -0.2235 -2.3408
  522MOL0     H72027   1.975   4.843   6.095 -1.3430  0.2776  0.2001
  522MOL0     H72028   2.096   4.917   5.845  0.6493 -0.7597  1.0129
  522MOL0     H72029   2.082   4.766   5.909 -3.5379 -1.6896  3.3375
  522MOL0     H72030   1.830   4.773   5.889  2.0702  2.2660  4.0443
  522MOL0     H72031   1.911   4.782   5.731  0.4614  1.8334 -1.6013
  522MOL0     H72032   1.665   5.141   5.803 -0.4974 -0.3878 -4.4405
  522MOL0     H72033   2.402   4.694   5.967 -0.9963  0.2780  0.3067
  522MOL0     H72034   2.710   4.666   5.821 -1.2269 -1.1750  0.4755
  522MOL0     H72035   2.767   4.664   5.986  0.9573  0.2961 -0.5717
  522MOL0     H72036   2.619   4.584   5.943  2.0454 -0.3065  0.9670
  523MOL0     O72037   6.967  10.306   7.229  0.6416 -0.3543  0.0868
  523MOL0     C72038   6.962  10.419   7.176  0.7876  0.3176 -0.4454
  523MOL0     O72039   7.038  10.455   7.068  0.2727  0.4128 -0.4508
  523MOL0     C72040   7.161  10.405   7.062 -0.3254  0.1406 -0.1244
  523MOL0     C72041   7.209  10.368   6.934  0.6638  0.0246  0.0032
  523MOL0     C72042   7.344  10.337   6.915 -0.0601  0.1421  0.2894
  523MOL0     C72043   7.436  10.340   7.021  0.0200 -0.5087 -0.7654
  523MOL0     O72044   7.568  10.293   7.005 -0.2231 -0.0348  0.6896
  523MOL0     C72045   7.660  10.365   7.096 -0.7083 -0.2065  0.1939
  523MOL0     C72046   7.809  10.348   7.064 -0.1641  0.1822 -0.0886
  523MOL0     C72047   7.832  10.371   6.914  0.0907 -0.4174 -0.3871
  523MOL0     C72048   7.982  10.332   6.905  0.5980 -0.5397 -0.0131
  523MOL0     C72049   8.013  10.292   6.757  0.0678  0.2713  0.1022
  523MOL0     C72050   8.158  10.305   6.714 -0.1871  0.1047  0.7539
  523MOL0     C72051   8.259  10.257   6.818 -0.6368  0.6556  0.2704
  523MOL0     C72052   8.403  10.240   6.760 -0.3978  0.2593 -0.2565
  523MOL0     N72053   8.463  10.368   6.725 -0.1591  0.0023  0.2621
  523MOL0     C72054   8.489  10.459   6.822 -0.5544  0.4437 -0.3157
  523MOL0     C72055   8.556  10.558   6.765 -0.4570 -0.5403 -0.0827
  523MOL0     C72056   8.624  10.671   6.839 -0.7662  0.5776  0.6147
  523MOL0     C72057   8.761  10.637   6.889  0.1449  0.7172 -0.0514
  523MOL0     C72058   8.835  10.531   6.795 -0.5772 -0.2462  0.0051
  523MOL0     C72059   8.980  10.541   6.842 -0.1682  1.0632 -0.5675
  523MOL0     O72060   9.050  10.437   6.776  0.6151 -0.1982  1.1831
  523MOL0     C72061   9.185  10.433   6.791  0.2016 -0.6676  0.7689
  523MOL0     C72062   9.256  10.334   6.719 -0.0019  0.5866  1.0416
  523MOL0     C72063   9.396  10.318   6.726 -0.0575  1.0082 -0.0081
  523MOL0     C72064   9.444  10.191   6.646 -0.2312 -0.1353 -0.2319
  523MOL0     C72065   9.475  10.398   6.810 -0.2995  0.0384 -0.5519
  523MOL0     C72066   9.618  10.383   6.833 -0.6492 -0.9763  0.2848
  523MOL0     O72067   9.670  10.479   6.921 -0.7073 -0.0700 -0.1534
  523MOL0     C72068   9.789  10.456   6.994  0.4202  0.7725  1.0500
  523MOL0     C72069   9.784  10.356   7.092 -0.0045 -0.4324 -0.0653
  523MOL0     C72070   9.897  10.330   7.168 -0.8767  0.0777 -0.4804
  523MOL0     C72071  10.015  10.403   7.149 -0.1531 -0.1467  0.2505
  523MOL0     O72072  10.135  10.372   7.217  0.7012 -0.2477  0.1500
  523MOL0     C72073  10.181  10.238   7.199 -0.7179 -0.4671  0.0840
  523MOL0     C72074  10.296  10.201   7.286 -1.1199  0.2829 -0.0457
  523MOL0     C72075  10.429  10.258   7.236  0.5266 -0.2518  0.6102
  523MOL0     C72076  10.537  10.226   7.334  0.4036 -0.3278  0.6222
  523MOL0     C72077  10.662  10.301   7.288 -0.0262 -0.2620  0.3039
  523MOL0     C72078  10.792  10.279   7.372  0.0602 -0.4120 -0.6332
  523MOL0     C72079  10.899  10.394   7.351 -0.7906 -0.1365 -0.5470
  523MOL0     C72080  10.949  10.454   7.490 -0.5789  0.0325  0.7147
  523MOL0    Cl72081  11.041  10.604   7.460  0.0080  0.1650 -0.2049
  523MOL0     C72082  10.019  10.509   7.046  0.3784  0.1674 -0.1095
  523MOL0     C72083   9.903  10.530   6.967 -0.0161 -0.8865 -0.7008
  523MOL0     O72084   9.673  10.277   6.803 -0.0585  0.1800 -0.6319
  523MOL0     C72085   9.405  10.501   6.890  1.1721  0.0431 -0.3914
  523MOL0     C72086   9.265  10.503   6.882 -0.6251 -0.0735 -0.8111
  523MOL0     N72087   8.574  10.529   6.635 -0.4505  0.5146 -0.6665
  523MOL0     N72088   8.528  10.412   6.612  0.1917 -0.8641 -0.3663
  523MOL0     C72089   7.390  10.384   7.149  0.1789 -1.0819  0.9222
  523MOL0     C72090   7.255  10.407   7.170 -0.2367 -0.1222 -0.2228
  523MOL0     C72091   6.869  10.519   7.231 -1.0590 -0.4515 -0.2972
  523MOL0     C72092   6.842  10.522   7.371 -0.4464 -0.1507 -0.6855
  523MOL0     C72093   6.756  10.620   7.426  0.0017 -0.1049 -0.4401
  523MOL0     C72094   6.710  10.727   7.351  0.5415 -0.1720  0.3104
  523MOL0     O72095   6.642  10.828   7.421 -0.1320 -0.4000  0.4404
  523MOL0     C72096   6.642  10.960   7.360 -0.4839 -0.4542 -0.0724
  523MOL0     C72097   6.502  10.982   7.294  0.5649  0.6808 -0.7565
  523MOL0     C72098   6.464  11.131   7.315  0.3858  0.1074 -0.4736
  523MOL0     C72099   6.364  11.161   7.426  0.0795  0.1202  0.1710
  523MOL0     C72100   6.235  11.091   7.419  0.5636 -0.3052  0.5333
  523MOL0     C72101   6.127  11.031   7.420  0.3815 -0.4482  1.4183
  523MOL0     C72102   6.741  10.728   7.207 -0.2258 -0.2415  0.0927
  523MOL0     C72103   6.818  10.621   7.153  0.2208  0.0985 -0.4490
  523MOL0     C72104   6.823  10.619   7.005  0.1246 -0.1025 -0.4273
  523MOL0     H72105   7.148  10.377   6.845  0.5700 -0.2770  0.0349
  523MOL0     H72106   7.376  10.313   6.815 -2.4799  1.8408 -0.9916
  523MOL0     H72107   7.651  10.312   7.191  0.1935 -1.9732 -0.6739
  523MOL0     H72108   7.634  10.472   7.096  1.8117  0.5051 -1.2347
  523MOL0     H72109   7.871  10.419   7.120  1.7184 -0.6374 -1.0484
  523MOL0     H72110   7.841  10.250   7.103  0.1761 -0.5921 -2.2163
  523MOL0     H72111   7.763  10.308   6.857 -0.1450  0.6723 -1.3527
  523MOL0     H72112   7.827  10.473   6.873  0.5054 -0.4570 -0.5380
  523MOL0     H72113   8.050  10.413   6.931  1.1637 -1.5104  1.6313
  523MOL0     H72114   8.010  10.251   6.973  0.0151  1.2274  2.4688
  523MOL0     H72115   7.961  10.358   6.687  1.0860  1.2074  0.2107
  523MOL0     H72116   7.983  10.188   6.739 -0.9824  1.0425 -3.6548
  523MOL0     H72117   8.172  10.253   6.619  2.7139 -0.3079  1.2919
  523MOL0     H72118   8.174  10.413   6.706  0.3736 -0.0966 -1.8374
  523MOL0     H72119   8.223  10.159   6.850  2.0410 -1.0236 -1.4866
  523MOL0     H72120   8.253  10.330   6.899 -1.6876  3.4913 -2.1620
  523MOL0     H72121   8.466  10.197   6.839 -0.3165  1.2286  0.2329
  523MOL0     H72122   8.408  10.176   6.672  4.0872  1.3885 -1.0191
  523MOL0     H72123   8.470  10.452   6.929  1.8317 -0.2257  0.1097
  523MOL0     H72124   8.564  10.709   6.922 -3.6150 -0.3199 -0.8985
  523MOL0     H72125   8.643  10.746   6.762 -1.6658 -0.9840 -1.2249
  523MOL0     H72126   8.815  10.732   6.890  1.3120  0.1328 -1.5152
  523MOL0     H72127   8.755  10.598   6.991  0.8017 -0.7742 -0.5505
  523MOL0     H72128   8.798  10.430   6.815  0.3874 -0.3942  1.1461
  523MOL0     H72129   8.838  10.567   6.692 -0.4417  1.2870  0.5110
  523MOL0     H72130   9.009  10.636   6.795  2.6114  0.4196 -0.3373
  523MOL0     H72131   8.999  10.540   6.950  0.2831 -0.3221 -0.6382
  523MOL0     H72132   9.207  10.274   6.643 -0.0278  2.9640 -0.9769
  523MOL0     H72133   9.545  10.204   6.606 -0.9507  2.2798 -1.4653
  523MOL0     H72134   9.384  10.169   6.557  1.2476  0.2134 -1.3599
  523MOL0     H72135   9.447  10.103   6.712  0.0503 -1.4343 -1.9062
  523MOL0     H72136   9.696  10.316   7.140  1.0293  0.3832  2.7030
  523MOL0     H72137   9.889  10.247   7.237  1.8602 -1.6513 -2.0336
  523MOL0     H72138  10.104  10.171   7.237 -0.0408 -0.9506  0.6304
  523MOL0     H72139  10.205  10.212   7.095  0.1144 -1.1026  0.4254
  523MOL0     H72140  10.274  10.239   7.386 -1.5083 -4.0204  1.7225
  523MOL0     H72141  10.298  10.092   7.293 -1.3528  0.3286  0.8220
  523MOL0     H72142  10.424  10.367   7.230  0.4432 -0.2297  1.0610
  523MOL0     H72143  10.451  10.208   7.141 -0.7554  0.3618 -0.0404
  523MOL0     H72144  10.558  10.119   7.343  0.6141 -0.3254  0.2074
  523MOL0     H72145  10.504  10.259   7.433 -0.7913  1.4553 -0.3181
  523MOL0     H72146  10.677  10.296   7.180  1.3736 -1.1575  0.5259
  523MOL0     H72147  10.636  10.406   7.309  1.5286  0.3515 -0.6409
  523MOL0     H72148  10.840  10.181   7.357  1.6403  0.4333 -1.3551
  523MOL0     H72149  10.749  10.274   7.473  1.1381  0.5221 -0.1108
  523MOL0     H72150  10.857  10.481   7.301 -0.4543  0.4555  0.1815
  523MOL0     H72151  10.983  10.345   7.300  0.0012 -0.8180  1.3072
  523MOL0     H72152  11.022  10.384   7.531 -0.1250 -0.6528 -1.1335
  523MOL0     H72153  10.870  10.470   7.564  0.4452  0.1991  1.8041
  523MOL0     H72154  10.105  10.570   7.022  0.4732 -0.3774 -1.2248
  523MOL0     H72155   9.905  10.621   6.907  2.3948  0.2840  0.9798
  523MOL0     H72156   9.444  10.564   6.969 -2.4354 -0.9914  2.5169
  523MOL0     H72157   9.225  10.579   6.948  0.9816  0.1177 -0.0154
  523MOL0     H72158   7.461  10.405   7.227  1.8889 -0.9791 -0.6027
  523MOL0     H72159   7.228  10.461   7.260 -0.3736  0.1332 -0.4132
  523MOL0     H72160   6.865  10.441   7.439  2.5899 -0.5266 -2.0155
  523MOL0     H72161   6.726  10.617   7.530  2.0985  0.7576  0.2386
  523MOL0     H72162   6.650  11.037   7.437  0.9674 -0.3761 -0.2841
  523MOL0     H72163   6.719  10.974   7.283 -2.0562 -1.3966 -1.9244
  523MOL0     H72164   6.429  10.914   7.338 -2.7521  2.9967 -2.1525
  523MOL0     H72165   6.490  10.956   7.188 -1.2606 -0.2480 -0.3582
  523MOL0     H72166   6.552  11.193   7.331 -2.3208  4.1325  0.1377
  523MOL0     H72167   6.414  11.163   7.223 -0.8406  1.3667  0.6000
  523MOL0     H72168   6.337  11.267   7.425  1.2121  0.4147 -0.9175
  523MOL0     H72169   6.414  11.139   7.521 -0.4617 -2.5715 -0.0991
  523MOL0     H72170   6.034  10.979   7.417  1.0153 -1.7136 -2.6218
  523MOL0     H72171   6.693  10.796   7.138  1.0985 -2.4307 -3.2849
  523MOL0     H72172   6.795  10.518   6.972 -3.4458  1.3814 -2.5397
  523MOL0     H72173   6.747  10.682   6.959  1.5075  2.4074  0.5377
  523MOL0     H72174   6.921  10.651   6.968 -0.4932  0.6513 -1.4486
  524MOL0     O72175  10.790   0.721   6.925 -0.7862  0.4604 -0.3433
  524MOL0     C72176  10.788   0.705   6.804 -0.0877  0.1887  0.0725
  524MOL0     O72177  10.902   0.692   6.730  0.1628  0.5796  0.3247
  524MOL0     C72178  11.018   0.695   6.799 -0.4013 -0.7811  0.1721
  524MOL0     C72179  11.104   0.807   6.778 -0.1306 -0.6894  0.0489
  524MOL0     C72180  11.237   0.795   6.813 -0.1985 -0.5093  1.4745
  524MOL0     C72181  11.282   0.684   6.877 -0.6970  0.1736 -0.1776
  524MOL0     O72182  11.411   0.691   6.906  0.5587  0.1382  0.1215
  524MOL0     C72183  11.450   0.633   7.029 -0.1717 -0.1130 -0.3334
  524MOL0     C72184  11.594   0.646   7.042  0.6593  0.0621 -0.0265
  524MOL0     C72185  11.664   0.529   6.964 -0.5467  0.2268  0.0580
  524MOL0     C72186  11.809   0.553   6.931  0.1768 -0.8882  0.6808
  524MOL0     C72187  11.905   0.524   7.038 -0.4767 -0.1401 -0.5264
  524MOL0     C72188  12.028   0.615   7.028 -0.5143 -0.7742 -0.5540
  524MOL0     C72189  12.145   0.550   7.116 -0.2225  1.1393 -0.4199
  524MOL0     C72190  12.098   0.514   7.264  0.1788 -0.3813  0.5046
  524MOL0     N72191  12.200   0.546   7.365 -0.1887  0.0214 -0.1328
  524MOL0     C72192  12.247   0.460   7.467  0.2591 -1.2718 -0.5534
  524MOL0     C72193  12.338   0.536   7.537 -0.2701  0.0970 -0.5300
  524MOL0     C72194  12.414   0.499   7.665 -0.0377  0.4030 -1.5220
  524MOL0     C72195  12.460   0.616   7.747 -1.5480 -0.6934  0.4446
  524MOL0     C72196  12.548   0.581   7.870  0.5473 -0.3687  0.2311
  524MOL0     C72197  12.693   0.558   7.832 -0.0916  0.0278 -0.1368
  524MOL0     O72198  12.764   0.543   7.965  0.1479  0.0675  1.0432
  524MOL0     C72199  12.888   0.498   7.951 -0.2636 -0.4039 -0.9182
  524MOL0     C72200  12.936   0.415   8.057 -0.0360 -1.1504  0.7085
  524MOL0     C72201  13.071   0.365   8.066  0.4728  0.2960  0.2129
  524MOL0     C72202  13.102   0.279   8.177  0.2726 -0.5884  0.2378
  524MOL0     C72203  13.161   0.392   7.966  0.1570 -1.1927 -0.3616
  524MOL0     C72204  13.313   0.346   7.955  0.0313  0.0698  0.9337
  524MOL0     O72205  13.363   0.261   8.043  0.6393 -0.6114 -0.8598
  524MOL0     C72206  13.488   0.207   8.019 -0.2547  0.8265  0.0369
  524MOL0     C72207  13.513   0.105   7.929 -0.6221 -0.6949  0.4392
  524MOL0     C72208  13.635   0.047   7.923 -0.4492  0.5021  0.3607
  524MOL0     C72209  13.742   0.096   7.992 -0.5898 -0.5789 -0.4417
  524MOL0     O72210  13.870   0.052   7.992  0.3225  0.1814  0.1687
  524MOL0     C72211  13.924   0.016   7.860  0.0689 -0.3129  0.1716
  524MOL0     C72212  14.042  -0.078   7.880  1.3559 -0.4971  0.2157
  524MOL0     C72213  14.167  -0.004   7.921 -0.0804  1.4567 -0.6798
  524MOL0     C72214  14.247   0.045   7.801 -0.0891 -0.7194 -0.6913
  524MOL0     C72215  14.366   0.125   7.857  0.3865  0.1294  0.6921
  524MOL0     C72216  14.443   0.200   7.742  0.9487  0.6877 -0.1906
  524MOL0     C72217  14.539   0.311   7.790 -0.0444  0.6263  0.2004
  524MOL0     C72218  14.670   0.273   7.865  0.7140 -0.2590 -0.3970
  524MOL0    Cl72219  14.746   0.141   7.770  0.0781 -0.1495  0.0124
  524MOL0     C72220  13.719   0.201   8.078 -0.6727 -0.4879 -0.6469
  524MOL0     C72221  13.593   0.256   8.094  0.0589  0.2587 -0.1705
  524MOL0     O72222  13.378   0.391   7.858 -0.0288 -0.1191  0.2898
  524MOL0     C72223  13.124   0.486   7.865 -0.4204  0.0332  0.1478
  524MOL0     C72224  12.988   0.528   7.855  0.3761 -0.1312  0.1621
  524MOL0     N72225  12.342   0.664   7.480  0.4378  0.2018 -0.0221
  524MOL0     N72226  12.259   0.669   7.378 -0.2231 -0.0656  0.4812
  524MOL0     C72227  11.196   0.580   6.907  0.3205  0.0405  0.1088
  524MOL0     C72228  11.061   0.583   6.866 -0.8324  0.0311  0.3803
  524MOL0     C72229  10.660   0.724   6.729 -0.4212 -0.2613 -0.4659
  524MOL0     C72230  10.654   0.642   6.618 -0.3154 -0.7422 -0.6121
  524MOL0     C72231  10.526   0.632   6.552  0.1568 -0.2129 -0.3366
  524MOL0     C72232  10.415   0.711   6.586 -0.9429 -0.0319 -0.4562
  524MOL0     O72233  10.299   0.694   6.510 -0.2347 -0.0874  0.1345
  524MOL0     C72234  10.188   0.789   6.519 -0.1672 -0.8676  0.0003
  524MOL0     C72235  10.080   0.765   6.629  0.6375  0.1795  0.4903
  524MOL0     C72236   9.981   0.885   6.624  0.6976 -0.4599  0.1001
  524MOL0     C72237  10.035   1.009   6.698 -0.5329  0.2235 -1.0020
  524MOL0     C72238  10.118   0.997   6.821  1.1456 -0.2778  0.4875
  524MOL0     C72239  10.178   0.992   6.927  0.5198  0.9597 -1.0031
  524MOL0     C72240  10.424   0.799   6.695  0.4070  0.9137  0.7113
  524MOL0     C72241  10.552   0.814   6.760  0.0839  0.7046 -0.2484
  524MOL0     C72242  10.545   0.896   6.885 -0.7791 -0.1700 -0.2506
  524MOL0     H72243  11.060   0.882   6.713 -0.1698 -2.5677 -2.2063
  524MOL0     H72244  11.311   0.866   6.779 -1.1006 -0.3173 -0.2190
  524MOL0     H72245  11.434   0.528   7.054 -0.0145 -0.4015 -1.3992
  524MOL0     H72246  11.410   0.697   7.108  0.2182  1.1045 -1.0868
  524MOL0     H72247  11.635   0.738   7.001  1.3165 -0.3883 -0.4031
  524MOL0     H72248  11.617   0.634   7.148 -1.2488 -0.8695  0.3317
  524MOL0     H72249  11.653   0.432   7.013  0.1181  0.6023  0.9632
  524MOL0     H72250  11.623   0.519   6.863 -0.7257 -1.5166  0.2661
  524MOL0     H72251  11.842   0.496   6.844  4.6257  1.1822  0.7123
  524MOL0     H72252  11.815   0.658   6.899  1.0371 -1.8231 -2.6502
  524MOL0     H72253  11.934   0.421   7.018 -0.0249 -0.0386 -0.4005
  524MOL0     H72254  11.860   0.529   7.137 -1.4355 -2.1618 -0.8026
  524MOL0     H72255  12.072   0.635   6.930  0.9187  0.0346  0.2233
  524MOL0     H72256  12.005   0.713   7.071  1.0967 -1.7585  2.8418
  524MOL0     H72257  12.229   0.620   7.104 -0.5616  1.2834 -2.2110
  524MOL0     H72258  12.165   0.449   7.078 -0.6985  0.0677  2.0155
  524MOL0     H72259  12.016   0.577   7.299  2.2373  3.7975 -1.5233
  524MOL0     H72260  12.072   0.408   7.273 -0.9121 -0.3269 -1.4462
  524MOL0     H72261  12.218   0.360   7.498 -0.6015 -1.3480 -1.5503
  524MOL0     H72262  12.504   0.439   7.646  0.3144 -0.2357  1.6416
  524MOL0     H72263  12.360   0.431   7.731  2.4484 -2.3212 -2.1085
  524MOL0     H72264  12.514   0.681   7.677  2.4714 -4.6221 -0.5647
  524MOL0     H72265  12.382   0.678   7.791 -0.5893 -0.0564  1.2905
  524MOL0     H72266  12.552   0.671   7.933 -0.8411 -0.3364  0.3039
  524MOL0     H72267  12.499   0.496   7.917  3.4129 -3.8243 -2.4964
  524MOL0     H72268  12.687   0.456   7.793  2.0167 -0.1333 -0.1974
  524MOL0     H72269  12.742   0.614   7.751 -1.3653 -1.5322 -2.0813
  524MOL0     H72270  12.864   0.393   8.135 -2.2846  0.0617 -0.8876
  524MOL0     H72271  13.176   0.316   8.249  2.9031 -1.4547 -1.8325
  524MOL0     H72272  13.160   0.192   8.145  1.7563 -0.0017  1.1822
  524MOL0     H72273  13.011   0.252   8.232 -1.1347  2.7794 -0.2110
  524MOL0     H72274  13.433   0.055   7.875  1.2517 -3.5232  0.0535
  524MOL0     H72275  13.631  -0.042   7.862 -0.5856 -0.0356  1.1322
  524MOL0     H72276  13.851  -0.037   7.799 -1.2534  0.6419  0.8711
  524MOL0     H72277  13.954   0.102   7.801  0.0884 -0.1775  0.3772
  524MOL0     H72278  14.018  -0.154   7.954 -2.6923 -0.0384 -0.3460
  524MOL0     H72279  14.060  -0.132   7.786  1.5730 -1.5515  0.8545
  524MOL0     H72280  14.233  -0.075   7.971 -1.3403 -1.8213 -3.2915
  524MOL0     H72281  14.143   0.068   8.000  0.9788 -0.0101  1.0428
  524MOL0     H72282  14.180   0.115   7.749 -1.7891 -0.3268  1.8355
  524MOL0     H72283  14.280  -0.032   7.732 -0.3623 -0.2775 -1.3290
  524MOL0     H72284  14.345   0.203   7.931  2.0252  2.0988 -0.7940
  524MOL0     H72285  14.434   0.058   7.910 -0.0781 -0.1572  0.9384
  524MOL0     H72286  14.362   0.242   7.681  1.1455  2.5764  0.7793
  524MOL0     H72287  14.489   0.125   7.677  1.6418  1.8534 -1.0891
  524MOL0     H72288  14.475   0.366   7.860 -1.7794 -0.4533 -0.4636
  524MOL0     H72289  14.561   0.382   7.710  2.0830  0.2250  0.3590
  524MOL0     H72290  14.644   0.254   7.969  1.0822 -1.6580 -0.5453
  524MOL0     H72291  14.740   0.356   7.880  3.5173 -2.3032 -1.2853
  524MOL0     H72292  13.798   0.228   8.147 -1.7491 -2.4230  1.4860
  524MOL0     H72293  13.581   0.340   8.161 -0.3689  1.0806 -1.2643
  524MOL0     H72294  13.190   0.508   7.781  0.6866 -2.7699  0.1731
  524MOL0     H72295  12.954   0.587   7.770  0.0898 -0.5023  0.0164
  524MOL0     H72296  11.231   0.495   6.965  1.6880  1.0927  0.8801
  524MOL0     H72297  10.985   0.507   6.880  0.2979 -1.2047  0.0584
  524MOL0     H72298  10.736   0.578   6.588  2.2140  2.0923 -0.2081
  524MOL0     H72299  10.510   0.557   6.476 -0.5445 -0.8983  0.4628
  524MOL0     H72300  10.225   0.892   6.513  3.0513 -1.9197  0.2451
  524MOL0     H72301  10.136   0.784   6.423 -1.1783 -0.8214  0.5301
  524MOL0     H72302  10.121   0.751   6.729 -2.6088 -1.7325  1.7110
  524MOL0     H72303  10.021   0.675   6.609  1.8516 -0.3522 -0.8497
  524MOL0     H72304   9.950   0.925   6.527  0.1182 -0.7389  0.1639
  524MOL0     H72305   9.893   0.850   6.680  0.0206  0.3932 -0.4058
  524MOL0     H72306   9.953   1.073   6.732 -0.2094  0.4153 -0.5753
  524MOL0     H72307  10.098   1.056   6.621  1.6867  0.3464  0.8031
  524MOL0     H72308  10.230   0.986   7.020 -0.2120 -0.8140 -0.6666
  524MOL0     H72309  10.335   0.854   6.724  0.3317  0.5071  1.2594
  524MOL0     H72310  10.453   0.955   6.890 -1.2624 -0.5852 -2.7408
  524MOL0     H72311  10.532   0.834   6.973  0.6350  0.8690  0.7330
  524MOL0     H72312  10.638   0.955   6.887  0.6937 -2.2481 -2.2064
  525MOL0     O72313   9.290   1.263   1.954  0.1714  0.5297  0.1718
  525MOL0     C72314   9.210   1.354   1.957  0.1379  0.1646 -0.2214
  525MOL0     O72315   9.245   1.487   1.985 -0.8001 -0.0494  0.0835
  525MOL0     C72316   9.370   1.518   2.023 -0.6368 -0.3999 -0.0446
  525MOL0     C72317   9.481   1.470   1.955 -0.0520 -0.4100  0.0872
  525MOL0     C72318   9.613   1.499   2.003 -0.2850  0.4236 -0.0640
  525MOL0     C72319   9.626   1.567   2.123  0.4266 -0.9329  0.1264
  525MOL0     O72320   9.749   1.581   2.173  0.1000 -0.1838 -0.5815
  525MOL0     C72321   9.796   1.716   2.193  0.1063  0.0192  0.0281
  525MOL0     C72322   9.953   1.724   2.202  0.6607 -0.1070 -0.1884
  525MOL0     C72323  10.006   1.868   2.236 -0.1193  0.3914 -0.2170
  525MOL0     C72324  10.158   1.887   2.214  1.0369  0.0601 -0.4302
  525MOL0     C72325  10.210   2.014   2.275  0.0338 -0.1391 -0.5633
  525MOL0     C72326  10.359   2.009   2.247 -0.2739 -0.6695  0.0762
  525MOL0     C72327  10.412   2.155   2.275 -0.3914  0.2144 -0.4756
  525MOL0     C72328  10.562   2.150   2.306  0.3461 -0.1407 -0.2305
  525MOL0     N72329  10.612   2.271   2.357 -1.0915 -0.1152 -0.3043
  525MOL0     C72330  10.573   2.343   2.472  0.2937 -0.4408 -0.0941
  525MOL0     C72331  10.637   2.457   2.476 -0.6458  0.0857 -0.3112
  525MOL0     C72332  10.630   2.565   2.587 -0.1519 -0.1542 -0.6267
  525MOL0     C72333  10.752   2.659   2.579  1.2563  0.3372 -0.0592
  525MOL0     C72334  10.884   2.585   2.616 -0.1547 -0.6954 -0.0806
  525MOL0     C72335  10.881   2.511   2.748 -0.2248  0.3325 -0.5525
  525MOL0     O72336  11.020   2.495   2.791 -0.0869 -0.5206  0.5763
  525MOL0     C72337  11.033   2.421   2.906 -0.9629  0.0858  0.3783
  525MOL0     C72338  10.958   2.305   2.940  0.7177 -0.1942  0.6484
  525MOL0     C72339  10.980   2.234   3.061  0.9542 -0.0793 -0.1345
  525MOL0     C72340  10.879   2.128   3.080  0.3765 -0.0683 -0.5814
  525MOL0     C72341  11.075   2.280   3.160  0.2957 -0.2486 -0.4872
  525MOL0     C72342  11.102   2.218   3.285  0.1265 -0.5192 -0.6928
  525MOL0     O72343  11.175   2.291   3.372 -0.0544  0.5475  0.0495
  525MOL0     C72344  11.206   2.214   3.485 -0.1688 -0.1213  0.0986
  525MOL0     C72345  11.120   2.216   3.596 -0.4244 -0.4441  0.1625
  525MOL0     C72346  11.146   2.146   3.712  0.2124  0.3995 -0.1379
  525MOL0     C72347  11.260   2.067   3.718 -0.3828  0.1090 -0.2530
  525MOL0     O72348  11.293   1.997   3.832  0.0662  0.3002  0.1965
  525MOL0     C72349  11.262   2.050   3.964 -0.9051  0.1360  0.1839
  525MOL0     C72350  11.352   1.997   4.068 -0.7438 -0.6389  0.0658
  525MOL0     C72351  11.279   1.986   4.204 -0.3102  0.8302 -0.2664
  525MOL0     C72352  11.249   2.124   4.267  0.4989  0.6684  0.2952
  525MOL0     C72353  11.179   2.106   4.396  0.1575  0.2461 -1.0688
  525MOL0     C72354  11.165   2.243   4.463  0.1946 -1.1607  0.2890
  525MOL0     C72355  11.067   2.247   4.579 -0.4532  0.8046 -0.3123
  525MOL0     C72356  11.059   2.367   4.659 -0.3467 -0.1608 -0.1508
  525MOL0    Cl72357  11.007   2.496   4.549 -0.0691 -0.0235 -0.5238
  525MOL0     C72358  11.345   2.061   3.602  0.2872  0.0840 -0.3074
  525MOL0     C72359  11.319   2.138   3.490 -0.8582 -0.2314 -0.3128
  525MOL0     O72360  11.071   2.100   3.294 -0.3257  0.6120  0.9067
  525MOL0     C72361  11.160   2.382   3.112 -0.0559 -1.0685  0.0265
  525MOL0     C72362  11.138   2.455   2.993  0.5398  0.1476 -0.2669
  525MOL0     N72363  10.724   2.454   2.370  1.0503  0.3638  0.2494
  525MOL0     N72364  10.709   2.346   2.300 -0.6988 -0.5710 -0.2122
  525MOL0     C72365   9.514   1.615   2.201  0.3026 -0.9367 -0.3090
  525MOL0     C72366   9.391   1.578   2.144 -1.6340 -0.1314 -0.0246
  525MOL0     C72367   9.074   1.336   1.918  0.5267  0.7710  0.3437
  525MOL0     C72368   9.011   1.448   1.865  0.0400  0.1022 -0.1543
  525MOL0     C72369   8.875   1.446   1.836  0.1620 -0.0730  1.5550
  525MOL0     C72370   8.800   1.333   1.872 -0.5843 -0.1462 -0.2268
  525MOL0     O72371   8.663   1.327   1.858  0.7667 -0.5413  0.8018
  525MOL0     C72372   8.593   1.322   1.981  1.3717 -0.3595 -0.1109
  525MOL0     C72373   8.435   1.309   1.947 -0.7845  0.7470 -0.2795
  525MOL0     C72374   8.417   1.170   1.881  1.0377  0.3812 -0.4216
  525MOL0     C72375   8.410   1.042   1.967  0.3499  0.3617  0.6072
  525MOL0     C72376   8.526   1.011   2.053 -1.1818 -0.2749  0.5891
  525MOL0     C72377   8.621   0.997   2.132 -0.2242  0.1093 -0.4897
  525MOL0     C72378   8.860   1.217   1.919 -0.0317  0.1863  0.8892
  525MOL0     C72379   9.003   1.213   1.932  0.8334 -0.0057  0.7942
  525MOL0     C72380   9.066   1.084   1.975  0.1774  0.0996  0.5067
  525MOL0     H72381   9.466   1.409   1.867 -1.6920 -0.5551  0.4166
  525MOL0     H72382   9.701   1.459   1.954 -0.1406 -0.4438  0.8558
  525MOL0     H72383   9.744   1.759   2.278 -4.1998 -0.6379 -1.9819
  525MOL0     H72384   9.779   1.776   2.103 -2.3817  1.3000  1.2496
  525MOL0     H72385   9.982   1.657   2.283  4.7025 -1.6780 -2.6600
  525MOL0     H72386  10.004   1.684   2.115  1.8569  0.0011  0.4438
  525MOL0     H72387   9.964   1.944   2.169  1.2640 -0.1570 -1.7917
  525MOL0     H72388   9.976   1.901   2.336  0.3571 -1.9029  0.7347
  525MOL0     H72389  10.218   1.809   2.262  1.1924  0.3928 -0.0808
  525MOL0     H72390  10.178   1.874   2.107 -0.6749 -2.7517 -0.5240
  525MOL0     H72391  10.184   2.018   2.381  1.6877  0.5663 -0.1529
  525MOL0     H72392  10.165   2.097   2.219 -0.0222 -0.5533 -1.1354
  525MOL0     H72393  10.409   1.930   2.304 -0.5308 -2.4516 -2.0179
  525MOL0     H72394  10.378   1.987   2.141 -0.3808  1.5124 -0.4338
  525MOL0     H72395  10.367   2.210   2.358  0.7647 -1.5013  1.3713
  525MOL0     H72396  10.394   2.217   2.186 -0.3911  0.9054  0.0009
  525MOL0     H72397  10.584   2.071   2.377 -1.4642 -0.1888  0.3000
  525MOL0     H72398  10.610   2.112   2.215 -1.1445 -2.0764 -0.2493
  525MOL0     H72399  10.497   2.306   2.540  0.8698 -2.1321 -0.3153
  525MOL0     H72400  10.620   2.513   2.683 -1.0630  0.5322 -0.3239
  525MOL0     H72401  10.539   2.626   2.578  1.5990  2.4928 -1.8884
  525MOL0     H72402  10.750   2.699   2.478  0.2292  2.0075  0.5903
  525MOL0     H72403  10.722   2.742   2.643 -0.9064 -0.3302 -0.1093
  525MOL0     H72404  10.917   2.519   2.535  1.4297  3.4051 -3.1365
  525MOL0     H72405  10.971   2.650   2.631  0.6052 -1.7849  0.3726
  525MOL0     H72406  10.815   2.560   2.820 -0.2238  0.2831 -0.5183
  525MOL0     H72407  10.836   2.413   2.731  1.5762 -0.5967 -0.1896
  525MOL0     H72408  10.881   2.282   2.867  1.5906 -1.5245  0.1206
  525MOL0     H72409  10.928   2.035   3.050 -0.4899 -0.3942 -1.0130
  525MOL0     H72410  10.791   2.132   3.016  1.6245 -0.4729 -2.3900
  525MOL0     H72411  10.848   2.115   3.184 -1.1538  1.5383 -0.7819
  525MOL0     H72412  11.029   2.275   3.593 -1.3848 -1.8863  0.0024
  525MOL0     H72413  11.076   2.150   3.795 -1.0302 -0.6458 -1.0912
  525MOL0     H72414  11.265   2.159   3.970 -2.4420  0.1178  2.8531
  525MOL0     H72415  11.156   2.032   3.985 -1.3849  1.4966 -0.9166
  525MOL0     H72416  11.385   1.897   4.036 -2.4125 -0.6028 -1.9562
  525MOL0     H72417  11.437   2.066   4.068 -1.3520  0.1532 -1.4770
  525MOL0     H72418  11.347   1.933   4.272 -2.0699  0.3233  1.1866
  525MOL0     H72419  11.184   1.934   4.192 -1.4809  2.3251  1.8227
  525MOL0     H72420  11.179   2.183   4.206 -0.5754 -1.4623 -0.6462
  525MOL0     H72421  11.346   2.173   4.273  0.3990  0.6757  2.5610
  525MOL0     H72422  11.081   2.059   4.379 -0.7930  1.5972  0.3685
  525MOL0     H72423  11.231   2.041   4.467 -1.6826 -1.0255 -0.8105
  525MOL0     H72424  11.123   2.320   4.397 -0.7433  0.4146  2.6114
  525MOL0     H72425  11.261   2.278   4.503  0.0501  0.3079 -0.5502
  525MOL0     H72426  11.098   2.169   4.649 -3.1374  1.7176  2.1048
  525MOL0     H72427  10.965   2.220   4.549 -1.7585  1.8938  2.6728
  525MOL0     H72428  11.164   2.392   4.678  0.1320 -1.3908 -1.0263
  525MOL0     H72429  11.011   2.355   4.756  0.7292 -2.0189  0.1841
  525MOL0     H72430  11.429   1.994   3.611  0.6539  0.7918  2.1569
  525MOL0     H72431  11.385   2.136   3.404  0.4425  0.3665  0.6323
  525MOL0     H72432  11.251   2.414   3.162  0.5672  2.1485 -2.8350
  525MOL0     H72433  11.216   2.528   2.977  1.2242  0.3379  3.1872
  525MOL0     H72434   9.521   1.669   2.295 -0.8995 -2.7612  0.8792
  525MOL0     H72435   9.305   1.595   2.207 -1.5664  2.2009 -0.4786
  525MOL0     H72436   9.055   1.544   1.840  1.9226 -1.2937 -2.6343
  525MOL0     H72437   8.821   1.533   1.798 -0.9299 -0.9576  1.0162
  525MOL0     H72438   8.629   1.236   2.038  0.6119 -0.4764  0.2062
  525MOL0     H72439   8.609   1.412   2.042 -1.5138  0.6627 -0.7114
  525MOL0     H72440   8.414   1.394   1.881 -0.1197 -0.4589 -2.0965
  525MOL0     H72441   8.369   1.311   2.034  0.2922  0.8788  0.5612
  525MOL0     H72442   8.323   1.184   1.828 -0.1305  1.2046  1.7684
  525MOL0     H72443   8.490   1.158   1.800  1.1266 -2.6001 -0.0049
  525MOL0     H72444   8.374   0.959   1.906 -0.6323 -1.7649  3.8223
  525MOL0     H72445   8.331   1.045   2.043  0.5350 -1.7768  0.9329
  525MOL0     H72446   8.698   0.975   2.202 -1.0675 -1.9012 -0.1363
  525MOL0     H72447   8.799   1.133   1.950 -0.9231  1.0919  1.6718
  525MOL0     H72448   8.998   0.999   1.982 -0.0832  0.1522 -0.9155
  525MOL0     H72449   9.134   1.037   1.903  3.5193 -0.5311  3.7777
  525MOL0     H72450   9.128   1.093   2.064 -3.4715 -1.5534  3.4857
  526MOL0     O72451   5.290   5.823   0.654  0.1666  0.3331 -0.7610
  526MOL0     C72452   5.198   5.781   0.584 -0.1143 -0.0970 -0.6309
  526MOL0     O72453   5.176   5.832   0.458  0.3041  0.8706  0.3440
  526MOL0     C72454   5.259   5.923   0.402 -0.4155  0.0342 -0.0865
  526MOL0     C72455   5.336   5.882   0.291 -0.4305 -0.9653  0.2986
  526MOL0     C72456   5.402   5.986   0.216 -0.4449  0.6073  0.6051
  526MOL0     C72457   5.411   6.120   0.257 -0.6097  0.2425  0.6351
  526MOL0     O72458   5.483   6.204   0.179  0.8475  0.1030  0.8853
  526MOL0     C72459   5.595   6.277   0.231 -0.3769 -0.5084 -0.4179
  526MOL0     C72460   5.718   6.192   0.252  0.2333  0.2179  0.2880
  526MOL0     C72461   5.753   6.091   0.136 -0.3323  0.1488  0.5815
  526MOL0     C72462   5.873   5.998   0.167  0.6332  0.2619 -0.7574
  526MOL0     C72463   5.852   5.883   0.270  0.7933 -0.2752  0.9816
  526MOL0     C72464   5.725   5.794   0.241 -0.3092  0.2924  0.0077
  526MOL0     C72465   5.721   5.677   0.346  0.2271  0.0901  0.6136
  526MOL0     C72466   5.668   5.721   0.475  0.3274 -0.4684 -0.3099
  526MOL0     N72467   5.690   5.619   0.576 -0.3869 -0.1425 -0.0813
  526MOL0     C72468   5.802   5.582   0.636 -0.3681  0.6828 -0.1395
  526MOL0     C72469   5.771   5.478   0.714  0.8233  0.3834 -0.2720
  526MOL0     C72470   5.863   5.406   0.809  0.3297 -0.2295  0.8633
  526MOL0     C72471   5.952   5.506   0.887 -0.0794 -0.3511  0.5762
  526MOL0     C72472   6.028   5.428   0.988 -0.3910  0.4284  0.3778
  526MOL0     C72473   6.122   5.321   0.937 -0.9633 -0.4168  0.0879
  526MOL0     O72474   6.213   5.377   0.839  0.6406  0.5671 -1.1006
  526MOL0     C72475   6.329   5.302   0.822 -0.3324  1.0154  0.1258
  526MOL0     C72476   6.355   5.165   0.868  0.0576 -0.3717  0.8458
  526MOL0     C72477   6.479   5.101   0.838  0.3169 -0.3225  0.5001
  526MOL0     C72478   6.489   4.965   0.904  0.0968  0.7347 -0.2916
  526MOL0     C72479   6.570   5.161   0.748  0.7405  0.0431  0.2088
  526MOL0     C72480   6.699   5.097   0.705  0.3356 -0.0240 -0.6550
  526MOL0     O72481   6.763   5.149   0.595  0.3710  1.1483  0.0953
  526MOL0     C72482   6.880   5.090   0.546  0.2971 -0.1423 -0.7806
  526MOL0     C72483   6.989   5.036   0.625  0.3032 -0.2816 -0.7283
  526MOL0     C72484   7.094   4.982   0.555  0.4678 -0.2089  0.2577
  526MOL0     C72485   7.100   4.970   0.412 -0.1276  0.6041 -0.3631
  526MOL0     O72486   7.211   4.899   0.370 -0.1988 -0.0259  0.3968
  526MOL0     C72487   7.239   4.886   0.233 -0.4876 -0.6529  1.1066
  526MOL0     C72488   7.196   4.748   0.177 -0.3390  0.9247  0.0913
  526MOL0     C72489   7.223   4.713   0.027  1.0824 -0.3516 -0.7755
  526MOL0     C72490   7.359   4.703  -0.022 -0.9779 -0.5907 -0.1707
  526MOL0     C72491   7.358   4.648  -0.168  0.1542  0.0951 -0.1967
  526MOL0     C72492   7.274   4.726  -0.272  0.8056 -0.1171  0.0340
  526MOL0     C72493   7.316   4.876  -0.278  0.7200 -0.6319  0.4347
  526MOL0     C72494   7.228   4.957  -0.379 -0.8542  0.0022 -0.0169
  526MOL0    Cl72495   7.053   4.946  -0.327 -0.4758 -0.1025 -0.2653
  526MOL0     C72496   6.987   5.017   0.345  0.6252  0.2345  0.6412
  526MOL0     C72497   6.882   5.071   0.410 -0.0949  1.0277 -0.3871
  526MOL0     O72498   6.742   5.009   0.782  0.6876 -0.3356  0.3370
  526MOL0     C72499   6.553   5.300   0.711  0.1570  0.0953 -0.0693
  526MOL0     C72500   6.429   5.370   0.748 -0.8560  0.4179  0.4715
  526MOL0     N72501   5.639   5.450   0.697  0.3632 -0.0247 -0.1418
  526MOL0     N72502   5.587   5.532   0.607 -0.8585  0.0901 -0.0255
  526MOL0     C72503   5.352   6.153   0.376  0.2761  1.0341 -0.6126
  526MOL0     C72504   5.274   6.058   0.442  0.3547  0.6970  0.6145
  526MOL0     C72505   5.102   5.681   0.653  0.0206 -0.1217  0.0173
  526MOL0     C72506   5.070   5.693   0.788  0.1357  0.8085  0.2096
  526MOL0     C72507   4.981   5.607   0.854  0.3536  0.1538  0.8407
  526MOL0     C72508   4.916   5.507   0.782  1.1265  0.2778  0.3510
  526MOL0     O72509   4.819   5.418   0.825 -0.4475  0.6998  0.2463
  526MOL0     C72510   4.764   5.442   0.954 -0.7815  0.7501  0.3568
  526MOL0     C72511   4.608   5.413   0.955 -1.2093 -0.2557 -0.7920
  526MOL0     C72512   4.526   5.471   0.837  0.2027  0.0519  0.3120
  526MOL0     C72513   4.383   5.433   0.861  0.0961  0.0206 -0.5375
  526MOL0     C72514   4.296   5.495   0.761 -0.5249  0.1074 -0.1600
  526MOL0     C72515   4.223   5.540   0.676 -0.0866  0.1645  0.2169
  526MOL0     C72516   4.954   5.487   0.651  0.7628 -0.0006 -0.0240
  526MOL0     C72517   5.035   5.576   0.581  0.3026  0.9183 -0.6308
  526MOL0     C72518   5.052   5.543   0.433  0.4077  0.0625  0.3663
  526MOL0     H72519   5.326   5.779   0.258 -0.2266 -1.6009  2.1330
  526MOL0     H72520   5.449   5.955   0.123  0.6858  1.4393  0.8719
  526MOL0     H72521   5.574   6.324   0.327  2.0443  0.6091 -0.3585
  526MOL0     H72522   5.623   6.363   0.170 -2.1023  2.0234  2.1318
  526MOL0     H72523   5.796   6.267   0.265 -1.1457  1.5127  1.4967
  526MOL0     H72524   5.717   6.142   0.350  1.6288 -1.1752 -0.3582
  526MOL0     H72525   5.664   6.034   0.107 -0.9995  1.8557 -0.8835
  526MOL0     H72526   5.783   6.156   0.054  2.7730 -2.6085 -0.7108
  526MOL0     H72527   5.904   5.948   0.075  1.0157 -0.1129 -0.4365
  526MOL0     H72528   5.964   6.056   0.187  0.2728  0.6217 -0.1569
  526MOL0     H72529   5.850   5.932   0.368  0.3424  1.7593  0.0100
  526MOL0     H72530   5.944   5.824   0.271  2.2634  1.8862  1.4132
  526MOL0     H72531   5.632   5.851   0.238 -1.2080 -1.0486  1.1331
  526MOL0     H72532   5.741   5.746   0.144  1.4868  0.4569  0.1737
  526MOL0     H72533   5.822   5.642   0.366 -0.5205 -0.6318  3.6833
  526MOL0     H72534   5.660   5.592   0.312 -0.8588  0.7753  0.7740
  526MOL0     H72535   5.712   5.815   0.508  1.3602 -0.2333 -2.2170
  526MOL0     H72536   5.564   5.752   0.469  0.8191  1.0700 -1.9908
  526MOL0     H72537   5.903   5.618   0.618  0.0469  0.2637  1.1987
  526MOL0     H72538   5.928   5.344   0.746  1.6089 -0.9987  2.8395
  526MOL0     H72539   5.801   5.350   0.879 -1.4375  2.6679  1.8100
  526MOL0     H72540   6.013   5.566   0.818 -0.9943  0.1576  0.1897
  526MOL0     H72541   5.880   5.571   0.937 -2.7885 -3.6864  1.3635
  526MOL0     H72542   6.078   5.501   1.052  1.9520 -0.1012 -0.7269
  526MOL0     H72543   5.957   5.370   1.048 -1.0901  0.3151 -0.5388
  526MOL0     H72544   6.185   5.295   1.022 -0.9785 -3.3763 -0.6908
  526MOL0     H72545   6.078   5.233   0.890  3.2458 -2.4608 -0.4573
  526MOL0     H72546   6.288   5.098   0.920 -2.3828 -1.6835 -3.4454
  526MOL0     H72547   6.573   4.952   0.973 -0.2327 -1.8384 -0.2631
  526MOL0     H72548   6.505   4.896   0.821  4.2100  2.3016 -1.0298
  526MOL0     H72549   6.400   4.921   0.951  0.3299  0.1181 -0.4093
  526MOL0     H72550   6.983   5.042   0.733  1.1054 -1.0046 -0.6345
  526MOL0     H72551   7.173   4.936   0.614  2.6799  1.1742 -1.4616
  526MOL0     H72552   7.192   4.966   0.176  1.7696  0.1844  0.3098
  526MOL0     H72553   7.342   4.894   0.197 -1.3664  1.4122 -1.1396
  526MOL0     H72554   7.247   4.675   0.241 -1.8722 -1.0444 -0.7946
  526MOL0     H72555   7.089   4.730   0.185 -0.3179  0.8755  0.2693
  526MOL0     H72556   7.172   4.792  -0.028 -0.1297 -1.1347 -0.8185
  526MOL0     H72557   7.169   4.621   0.002 -0.0156 -0.2654  1.0628
  526MOL0     H72558   7.419   4.635   0.039  0.6538 -0.2870 -1.3803
  526MOL0     H72559   7.416   4.796  -0.023  0.5358 -1.4096  2.2370
  526MOL0     H72560   7.462   4.644  -0.205 -0.0194 -0.5831 -0.6480
  526MOL0     H72561   7.330   4.542  -0.158  1.3296 -0.0490  2.4169
  526MOL0     H72562   7.169   4.712  -0.244 -0.0856  2.7549 -1.5759
  526MOL0     H72563   7.287   4.680  -0.371  0.2513 -2.5369  1.0018
  526MOL0     H72564   7.424   4.882  -0.298  0.5298  1.4610 -0.2391
  526MOL0     H72565   7.304   4.926  -0.181  1.9485  0.8168 -0.1077
  526MOL0     H72566   7.239   4.922  -0.482  2.8663 -1.1705  0.6469
  526MOL0     H72567   7.263   5.060  -0.371  0.0194 -0.2339 -0.6960
  526MOL0     H72568   6.977   5.003   0.238 -0.5108 -1.4980  0.9382
  526MOL0     H72569   6.785   5.099   0.369 -0.0308  0.5354 -0.8918
  526MOL0     H72570   6.638   5.341   0.657  2.0875 -1.0073  1.9730
  526MOL0     H72571   6.412   5.470   0.711 -3.0158 -0.2737 -0.5550
  526MOL0     H72572   5.346   6.258   0.401 -3.6626  1.3336 -2.0606
  526MOL0     H72573   5.217   6.087   0.529 -1.1495  0.4899 -0.2734
  526MOL0     H72574   5.123   5.773   0.838  2.9280 -0.1061 -1.0722
  526MOL0     H72575   4.957   5.619   0.960 -2.5124  1.3051  0.1452
  526MOL0     H72576   4.807   5.385   1.037 -0.1862 -0.9363 -1.0439
  526MOL0     H72577   4.781   5.540   0.998 -1.5783 -0.1985  2.9421
  526MOL0     H72578   4.573   5.459   1.047 -1.3014 -1.5798 -0.1375
  526MOL0     H72579   4.592   5.305   0.964  3.2534 -1.1219 -0.8784
  526MOL0     H72580   4.532   5.580   0.841 -1.7572  0.2371 -0.6980
  526MOL0     H72581   4.567   5.447   0.738  0.7476  1.2703  0.2258
  526MOL0     H72582   4.359   5.463   0.964 -1.1392  1.0633 -1.0856
  526MOL0     H72583   4.379   5.326   0.841 -0.5226  0.3225 -2.2276
  526MOL0     H72584   4.145   5.570   0.610 -1.2178 -0.6720  1.1426
  526MOL0     H72585   4.919   5.406   0.588  2.0787 -0.4491 -0.1980
  526MOL0     H72586   5.002   5.450   0.405 -0.5600  0.5751  0.3432
  526MOL0     H72587   5.006   5.620   0.370  2.5409  0.1436 -1.2101
  526MOL0     H72588   5.159   5.536   0.409 -0.4062  0.2693 -4.2165
  527MOL0     O72589   9.921   2.137  10.348  0.7067 -0.4014 -0.3741
  527MOL0     C72590   9.877   2.257  10.323 -0.5605  0.7625  0.3340
  527MOL0     O72591   9.951   2.370  10.330  0.3432 -0.3538 -0.1482
  527MOL0     C72592  10.079   2.349  10.365  0.4202 -0.5281  1.0999
  527MOL0     C72593  10.169   2.393  10.270 -0.1581 -0.3802 -0.1240
  527MOL0     C72594  10.308   2.384  10.298 -0.0084 -0.0731  0.3309
  527MOL0     C72595  10.352   2.314  10.414  0.5151  0.4256 -0.3485
  527MOL0     O72596  10.481   2.282  10.442  0.6532 -0.6609 -0.3343
  527MOL0     C72597  10.588   2.327  10.349  0.0776 -0.0906  0.0549
  527MOL0     C72598  10.724   2.253  10.369  0.0297  0.1820  0.2488
  527MOL0     C72599  10.834   2.280  10.266 -0.3155 -0.1052 -0.6066
  527MOL0     C72600  10.942   2.179  10.306 -0.5158  0.3506  0.9040
  527MOL0     C72601  11.064   2.204  10.222  0.5965 -0.0033 -0.3754
  527MOL0     C72602  11.182   2.114  10.265  0.2761 -0.7996  1.4751
  527MOL0     C72603  11.318   2.160  10.198 -0.2339 -0.2904 -1.0783
  527MOL0     C72604  11.301   2.159  10.043 -0.0430  0.3840  0.3786
  527MOL0     N72605  11.430   2.168   9.970  0.0482  0.3726 -0.5640
  527MOL0     C72606  11.496   2.064   9.916  0.3920 -0.3960 -0.5999
  527MOL0     C72607  11.610   2.115   9.881  0.6728 -0.2448  0.1751
  527MOL0     C72608  11.723   2.031   9.839 -0.4949 -0.3833  0.0335
  527MOL0     C72609  11.779   1.964   9.970  0.6756 -0.4484 -0.2203
  527MOL0     C72610  11.834   2.063  10.073 -0.2459 -0.5462  1.1455
  527MOL0     C72611  11.940   2.161  10.021 -0.0968 -0.1952 -0.0018
  527MOL0     O72612  12.029   2.098   9.929  0.7773  1.1393 -0.1140
  527MOL0     C72613  12.148   2.159   9.910  0.2303 -0.7412 -0.6532
  527MOL0     C72614  12.264   2.091   9.930  0.3243  0.7414  0.0273
  527MOL0     C72615  12.390   2.145   9.908 -0.5266  0.2560 -0.2384
  527MOL0     C72616  12.509   2.066   9.944  0.2402  0.5243 -0.3492
  527MOL0     C72617  12.401   2.282   9.859  0.4248  0.6552  0.4908
  527MOL0     C72618  12.523   2.342   9.817 -0.5024  0.1188  0.0890
  527MOL0     O72619  12.622   2.258   9.759 -0.1578  0.1746 -0.3806
  527MOL0     C72620  12.738   2.317   9.713  0.5169 -0.5569  0.6371
  527MOL0     C72621  12.840   2.336   9.805  0.5930 -0.3028 -0.0636
  527MOL0     C72622  12.964   2.378   9.762 -0.7643  0.1722 -0.2395
  527MOL0     C72623  12.991   2.419   9.632 -0.2306 -0.2650  0.6050
  527MOL0     O72624  13.107   2.477   9.591 -0.4574 -0.0952 -0.5837
  527MOL0     C72625  13.216   2.474   9.676 -0.5215  0.0304 -0.5111
  527MOL0     C72626  13.331   2.549   9.606  0.1238 -0.1667  0.1626
  527MOL0     C72627  13.457   2.549   9.697 -1.4893 -0.9354  0.1464
  527MOL0     C72628  13.589   2.567   9.616 -0.2027  0.6923 -0.6384
  527MOL0     C72629  13.710   2.578   9.724 -0.5425  0.2919 -0.6178
  527MOL0     C72630  13.849   2.571   9.660 -0.8317 -0.8207  0.8534
  527MOL0     C72631  13.872   2.433   9.601  0.4121 -0.0961  0.0400
  527MOL0     C72632  14.006   2.416   9.523  0.6013 -0.4887  0.0351
  527MOL0    Cl72633  14.003   2.275   9.428 -0.1542  0.0287  0.0751
  527MOL0     C72634  12.888   2.402   9.541 -0.4029 -0.6691 -0.1352
  527MOL0     C72635  12.767   2.350   9.581  0.3274  0.0637  0.4237
  527MOL0     O72636  12.540   2.464   9.834  0.0019 -0.2814 -0.1258
  527MOL0     C72637  12.281   2.354   9.848  0.9792  0.4244  0.0506
  527MOL0     C72638  12.153   2.292   9.863 -0.3884  0.4169 -0.2334
  527MOL0     N72639  11.610   2.249   9.897 -0.3922 -0.1640 -0.0375
  527MOL0     N72640  11.498   2.285   9.943  0.5464 -0.7565 -0.3762
  527MOL0     C72641  10.259   2.273  10.512  0.5734 -0.0778 -0.1074
  527MOL0     C72642  10.122   2.302  10.485 -0.2830  0.4299  0.5712
  527MOL0     C72643   9.722   2.263  10.302 -0.2505 -0.6088  0.6120
  527MOL0     C72644   9.671   2.382  10.257 -0.2583  0.6315  0.2133
  527MOL0     C72645   9.541   2.399  10.234 -0.0560 -0.7709  0.2582
  527MOL0     C72646   9.442   2.302  10.265  0.3355 -0.5103 -0.8106
  527MOL0     O72647   9.312   2.348  10.258 -0.0344 -0.4515 -0.0750
  527MOL0     C72648   9.211   2.257  10.305  0.2156 -0.4190  0.0478
  527MOL0     C72649   9.092   2.260  10.213  0.4698 -0.2811 -0.0125
  527MOL0     C72650   9.111   2.190  10.081 -0.5160  0.3878  0.0666
  527MOL0     C72651   8.975   2.131  10.037  0.8074  0.9111 -0.3483
  527MOL0     C72652   8.969   2.062   9.905  0.2942 -0.5932  0.1847
  527MOL0     C72653   8.955   2.014   9.796 -0.0037  0.3139 -0.0158
  527MOL0     C72654   9.490   2.194  10.336 -0.4111  0.1743 -0.0241
  527MOL0     C72655   9.629   2.167  10.353  0.0347 -0.2080 -0.0820
  527MOL0     C72656   9.674   2.045  10.432  0.4822 -0.0001  0.0563
  527MOL0     H72657  10.134   2.442  10.180 -0.0112  0.9252  0.5060
  527MOL0     H72658  10.372   2.437  10.227 -2.4899  0.9204 -1.3407
  527MOL0     H72659  10.605   2.434  10.357 -1.5953  0.2423 -0.4640
  527MOL0     H72660  10.563   2.306  10.244  0.2856  0.5450 -0.1252
  527MOL0     H72661  10.759   2.279  10.469 -2.6802 -2.1821  1.9795
  527MOL0     H72662  10.698   2.146  10.369 -0.6915  0.3298  1.9722
  527MOL0     H72663  10.800   2.257  10.164  1.9071 -0.0508 -1.4150
  527MOL0     H72664  10.870   2.381  10.286 -1.3112 -0.4051  3.6848
  527MOL0     H72665  10.976   2.177  10.410 -0.4212  0.3452  0.8734
  527MOL0     H72666  10.902   2.083  10.272 -0.8924  1.3393 -1.6331
  527MOL0     H72667  11.086   2.311  10.235  0.0399  0.1854 -0.9510
  527MOL0     H72668  11.038   2.193  10.117 -0.9261 -0.5435  0.0381
  527MOL0     H72669  11.203   2.101  10.372 -1.1196 -0.2865  1.8269
  527MOL0     H72670  11.164   2.017  10.217  2.3004 -1.4303  1.8595
  527MOL0     H72671  11.398   2.089  10.219  0.4307  0.1961 -1.8891
  527MOL0     H72672  11.352   2.262  10.222  0.5856 -0.3135 -2.0357
  527MOL0     H72673  11.240   2.073  10.014 -1.3023  2.3325 -3.3798
  527MOL0     H72674  11.240   2.246  10.017 -0.7058 -0.5207 -1.2059
  527MOL0     H72675  11.464   1.960   9.920 -2.2451  0.2396 -2.3994
  527MOL0     H72676  11.806   2.093   9.804  0.8069 -0.6055  2.4611
  527MOL0     H72677  11.692   1.957   9.765 -2.7251  0.3992  0.0943
  527MOL0     H72678  11.698   1.904  10.011 -0.9384  0.7398 -1.5560
  527MOL0     H72679  11.846   1.885   9.934 -0.3417 -1.6857  0.5165
  527MOL0     H72680  11.751   2.115  10.122 -0.0845 -0.2955  1.1496
  527MOL0     H72681  11.892   2.016  10.154  0.3354 -2.8623 -0.5025
  527MOL0     H72682  11.895   2.249   9.975  0.3117 -0.5758 -1.1507
  527MOL0     H72683  11.999   2.189  10.109 -0.1615 -0.1605  0.0301
  527MOL0     H72684  12.262   1.983   9.943 -2.4161  0.7539  0.1641
  527MOL0     H72685  12.535   1.991   9.869 -1.3493 -3.2701  2.5995
  527MOL0     H72686  12.497   2.006  10.034 -0.4435 -1.1880 -1.5288
  527MOL0     H72687  12.598   2.129   9.953  0.9543 -0.6855  1.4428
  527MOL0     H72688  12.824   2.306   9.908  2.6645 -1.1570  0.0634
  527MOL0     H72689  13.049   2.384   9.830 -1.4085 -3.4845  1.1397
  527MOL0     H72690  13.199   2.540   9.763 -0.6869 -1.2531  0.4554
  527MOL0     H72691  13.250   2.374   9.701 -2.0260 -0.5874 -0.8279
  527MOL0     H72692  13.351   2.495   9.513  1.1950  2.0789 -1.0096
  527MOL0     H72693  13.298   2.650   9.578 -1.1647 -0.9767 -1.3485
  527MOL0     H72694  13.475   2.470   9.771 -0.5314  1.9882  3.3079
  527MOL0     H72695  13.467   2.637   9.761  0.8098 -0.1685 -1.1475
  527MOL0     H72696  13.577   2.657   9.555 -3.2976  0.6721 -0.1980
  527MOL0     H72697  13.589   2.475   9.558 -0.7951  0.9671 -1.0789
  527MOL0     H72698  13.697   2.665   9.789  0.4557  1.0702 -1.4385
  527MOL0     H72699  13.702   2.489   9.788  0.8457 -0.3088 -1.2387
  527MOL0     H72700  13.930   2.583   9.733  4.2728 -2.8998 -3.6997
  527MOL0     H72701  13.870   2.642   9.579  3.8233 -0.5846  1.9305
  527MOL0     H72702  13.789   2.410   9.534  0.5721  1.1446 -0.6183
  527MOL0     H72703  13.877   2.360   9.683 -1.5652 -0.2819  0.0420
  527MOL0     H72704  14.089   2.406   9.593  0.1432 -2.6069  0.3295
  527MOL0     H72705  14.021   2.499   9.453  0.6816 -0.3729  0.1904
  527MOL0     H72706  12.898   2.435   9.438  0.2876 -0.8436 -0.1323
  527MOL0     H72707  12.686   2.335   9.510  0.1036  1.6813  0.3008
  527MOL0     H72708  12.279   2.452   9.802 -0.5181 -0.2478 -1.4584
  527MOL0     H72709  12.061   2.340   9.831  0.5088  2.6537  0.3352
  527MOL0     H72710  10.290   2.236  10.609 -0.2260 -1.5446 -0.3741
  527MOL0     H72711  10.045   2.303  10.562  0.0155 -1.3190  0.9340
  527MOL0     H72712   9.745   2.455  10.223  0.8606 -1.1846 -1.4712
  527MOL0     H72713   9.505   2.489  10.185 -0.0614 -1.7403 -1.6097
  527MOL0     H72714   9.255   2.157  10.304  1.0922 -0.0450  0.2342
  527MOL0     H72715   9.186   2.281  10.409 -0.9023 -0.2184 -0.2543
  527MOL0     H72716   9.060   2.362  10.193 -1.6948 -0.6393  1.3093
  527MOL0     H72717   9.006   2.208  10.256 -0.8747  0.4335 -1.6937
  527MOL0     H72718   9.160   2.262  10.015  0.0641  0.5655  0.6832
  527MOL0     H72719   9.179   2.106  10.094  3.4234  3.5014  1.8571
  527MOL0     H72720   8.902   2.213  10.033  1.6380  1.8689  1.9485
  527MOL0     H72721   8.957   2.050  10.109  2.3015  0.6947 -0.1959
  527MOL0     H72722   8.952   1.988   9.692 -0.3746  0.8622 -0.1467
  527MOL0     H72723   9.426   2.122  10.384 -1.0626 -1.0052 -2.5019
  527MOL0     H72724   9.723   2.071  10.527  0.3925 -1.4926  0.5459
  527MOL0     H72725   9.591   1.978  10.457 -0.5890  0.5002 -1.9918
  527MOL0     H72726   9.736   1.975  10.375 -0.0750 -2.5151  2.3323
  528MOL0     O72727   7.103  10.268  10.435  0.3998 -0.3596  0.1183
  528MOL0     C72728   7.102  10.154  10.491  0.2015 -0.8251 -0.3556
  528MOL0     O72729   7.188  10.112  10.590  0.7691 -0.2429  0.2675
  528MOL0     C72730   7.298  10.187  10.622  0.3630  0.4713 -0.0034
  528MOL0     C72731   7.398  10.215  10.524 -0.0032 -0.5363 -0.0896
  528MOL0     C72732   7.524  10.270  10.559  0.5471  0.1461  0.4553
  528MOL0     C72733   7.546  10.296  10.700 -0.0678 -0.5594  0.3161
  528MOL0     O72734   7.663  10.343  10.759  0.5107 -0.1466  0.2906
  528MOL0     C72735   7.782  10.304  10.688  0.0702  0.3791  0.7816
  528MOL0     C72736   7.907  10.370  10.756 -0.8853  1.1080  0.0889
  528MOL0     C72737   8.052  10.348  10.704 -0.1514  0.0268 -0.2884
  528MOL0     C72738   8.080  10.413  10.563  0.2980  0.1756 -0.7173
  528MOL0     C72739   8.227  10.420  10.519  0.1455 -0.3754 -0.5994
  528MOL0     C72740   8.275  10.288  10.464 -0.2557 -0.3687  0.3798
  528MOL0     C72741   8.407  10.290  10.396 -0.2758  0.1493  0.4823
  528MOL0     C72742   8.516  10.351  10.482  0.6642 -0.2030  0.4494
  528MOL0     N72743   8.644  10.351  10.421  0.2469 -0.5046 -0.1693
  528MOL0     C72744   8.757  10.318  10.492  0.4082 -0.1356 -1.5472
  528MOL0     C72745   8.861  10.344  10.413 -0.2332  1.0788 -0.4756
  528MOL0     C72746   9.003  10.294  10.425 -0.3027  0.2159 -0.3047
  528MOL0     C72747   9.065  10.335  10.556 -0.4098 -0.0461 -0.0555
  528MOL0     C72748   9.215  10.298  10.576 -0.1446 -0.5687 -0.5876
  528MOL0     C72749   9.282  10.381  10.691  0.4592 -0.5350  0.9109
  528MOL0     O72750   9.421  10.352  10.684 -0.1534 -0.2887 -0.1553
  528MOL0     C72751   9.506  10.408  10.766  0.5594  0.2196 -0.3183
  528MOL0     C72752   9.475  10.500  10.863 -1.2151  0.6512 -0.6004
  528MOL0     C72753   9.578  10.562  10.935  0.8129  0.0781 -0.0065
  528MOL0     C72754   9.549  10.688  11.010  0.3153 -0.6438 -0.0507
  528MOL0     C72755   9.714  10.518  10.924  0.7036 -0.5217  0.0506
  528MOL0     C72756   9.831  10.574  11.003  0.7968  0.2881  0.7861
  528MOL0     O72757   9.811  10.693  11.080  0.1879  0.2843 -0.3192
  528MOL0     C72758   9.902  10.714  11.186 -0.3732 -0.3137  1.1442
  528MOL0     C72759   9.911  10.619  11.285  0.1205  0.1839 -0.5184
  528MOL0     C72760   9.996  10.641  11.391  0.1139 -0.2940 -0.3050
  528MOL0     C72761  10.079  10.753  11.398 -0.2332 -0.1394  0.0588
  528MOL0     O72762  10.170  10.781  11.496 -0.0081 -0.3513 -0.2243
  528MOL0     C72763  10.121  10.796  11.623  0.0407 -0.1859 -0.6557
  528MOL0     C72764  10.228  10.755  11.731  0.0775  0.4542 -0.5376
  528MOL0     C72765  10.346  10.862  11.754 -0.1055  1.1223  0.2392
  528MOL0     C72766  10.452  10.813  11.849  0.9365 -0.0480  0.1647
  528MOL0     C72767  10.578  10.909  11.835  0.0005 -0.5708 -0.2382
  528MOL0     C72768  10.690  10.870  11.938  0.2877 -0.5028  0.0870
  528MOL0     C72769  10.633  10.857  12.080  0.9019 -0.4827 -0.1533
  528MOL0     C72770  10.742  10.862  12.183 -0.4000 -1.0963 -0.0981
  528MOL0    Cl72771  10.841  10.727  12.160  0.0211  0.2135  0.1257
  528MOL0     C72772  10.068  10.849  11.302  0.2539 -1.0116 -0.6378
  528MOL0     C72773   9.981  10.830  11.190 -0.5873 -0.9754 -0.5378
  528MOL0     O72774   9.935  10.512  11.004  0.3614  0.3667  0.1620
  528MOL0     C72775   9.735  10.416  10.837  0.0678 -0.1187 -0.4638
  528MOL0     C72776   9.636  10.362  10.752 -0.4812 -0.2209 -0.0407
  528MOL0     N72777   8.810  10.405  10.301 -0.1870  0.1834 -0.1299
  528MOL0     N72778   8.681  10.411  10.314 -0.3679  0.1337 -0.3687
  528MOL0     C72779   7.440  10.284  10.789 -0.0918  0.5450  0.0260
  528MOL0     C72780   7.312  10.229  10.750 -0.3292  0.0544  0.1807
  528MOL0     C72781   6.993  10.060  10.449 -0.4183  1.3969 -0.0546
  528MOL0     C72782   7.015   9.919  10.488 -0.2784 -0.5251  0.1152
  528MOL0     C72783   6.927   9.820  10.452  0.8272  0.1108 -0.1120
  528MOL0     C72784   6.814   9.853  10.374 -0.0841  0.5983  0.2702
  528MOL0     O72785   6.732   9.756  10.312  0.4538 -0.0589  0.2434
  528MOL0     C72786   6.721   9.625  10.365  0.4419  0.2112  0.3740
  528MOL0     C72787   6.613   9.534  10.304 -0.3735 -0.0726  0.9930
  528MOL0     C72788   6.590   9.424  10.411 -0.3367  0.3854 -0.0534
  528MOL0     C72789   6.474   9.334  10.366 -0.4042  0.4678 -0.3437
  528MOL0     C72790   6.519   9.250  10.255  1.0866  0.0201 -0.3622
  528MOL0     C72791   6.560   9.183  10.171 -0.4934  0.3269 -0.3722
  528MOL0     C72792   6.779   9.984  10.342 -0.4148  0.1228 -0.3387
  528MOL0     C72793   6.863  10.090  10.393 -0.0579 -0.5021  0.7805
  528MOL0     C72794   6.826  10.230  10.341 -0.8888  0.0315 -0.1113
  528MOL0     H72795   7.386  10.180  10.422 -0.6685  0.7989 -0.4996
  528MOL0     H72796   7.597  10.290  10.481  0.6578  1.8895  0.9737
  528MOL0     H72797   7.780  10.334  10.583 -0.2401  0.5539  0.8387
  528MOL0     H72798   7.787  10.195  10.682  1.7137  0.5180 -2.1776
  528MOL0     H72799   7.891  10.479  10.756  1.0866  1.4415 -1.2594
  528MOL0     H72800   7.908  10.333  10.859 -0.6964 -1.5888 -0.7967
  528MOL0     H72801   8.125  10.399  10.768 -2.3283  1.2028  1.3910
  528MOL0     H72802   8.077  10.242  10.711 -0.5555  0.0236  1.4383
  528MOL0     H72803   8.018  10.364  10.487 -0.5266  1.1431 -0.6932
  528MOL0     H72804   8.053  10.519  10.570 -0.5802  0.1535 -2.9050
  528MOL0     H72805   8.282  10.438  10.611  1.1944 -2.1724 -0.8206
  528MOL0     H72806   8.246  10.500  10.447  0.5786  0.5427  0.5039
  528MOL0     H72807   8.285  10.206  10.536  1.3195 -0.2184  0.3801
  528MOL0     H72808   8.203  10.245  10.394  0.2475  0.3319 -0.5944
  528MOL0     H72809   8.400  10.339  10.298  3.4984  1.6145  0.7508
  528MOL0     H72810   8.433  10.185  10.381 -2.2254 -0.2001 -0.7965
  528MOL0     H72811   8.493  10.458  10.492 -2.4249 -0.6325 -0.9968
  528MOL0     H72812   8.516  10.316  10.586 -1.2373  1.0493  0.9322
  528MOL0     H72813   8.752  10.286  10.596  0.2934  0.8800 -1.2255
  528MOL0     H72814   9.068  10.324  10.342 -0.0777 -0.3784 -0.3478
  528MOL0     H72815   9.016  10.186  10.413 -0.0371 -0.1663  2.5248
  528MOL0     H72816   9.057  10.444  10.560  1.8985  0.3629 -3.3318
  528MOL0     H72817   9.008  10.282  10.633  1.0038 -1.6022 -0.0389
  528MOL0     H72818   9.214  10.192  10.603  0.5124 -1.1634 -2.7286
  528MOL0     H72819   9.275  10.318  10.488 -0.3273 -0.3544 -0.6666
  528MOL0     H72820   9.256  10.486  10.675 -1.8760 -1.0448  0.9474
  528MOL0     H72821   9.234  10.347  10.783  0.0358 -1.5593  0.3359
  528MOL0     H72822   9.376  10.543  10.876 -0.6961  2.3209 -1.8442
  528MOL0     H72823   9.615  10.767  10.973 -0.4055  1.0416  2.0503
  528MOL0     H72824   9.550  10.684  11.119 -2.1899  0.2090  0.0609
  528MOL0     H72825   9.449  10.728  10.990  0.1830 -0.0950  1.5589
  528MOL0     H72826   9.844  10.534  11.291  0.0588  0.2978  3.3986
  528MOL0     H72827  10.007  10.560  11.463 -0.0275  1.4501  1.7950
  528MOL0     H72828  10.079  10.897  11.633 -1.8795 -1.0923  1.1923
  528MOL0     H72829  10.032  10.734  11.635  0.7056 -1.2670 -1.2207
  528MOL0     H72830  10.170  10.731  11.821 -1.7769 -2.1921 -2.2686
  528MOL0     H72831  10.266  10.658  11.696  0.0577 -0.4793  1.8417
  528MOL0     H72832  10.307  10.964  11.767  3.4980  3.0963 -2.4280
  528MOL0     H72833  10.399  10.871  11.658  0.5934  2.3128  0.7138
  528MOL0     H72834  10.483  10.709  11.845  0.5544 -0.3262  2.7503
  528MOL0     H72835  10.401  10.828  11.945 -2.1170 -0.9460 -1.1926
  528MOL0     H72836  10.620  10.904  11.734 -0.8226 -2.3834 -0.5287
  528MOL0     H72837  10.545  11.011  11.855 -1.0781 -1.0870  0.7501
  528MOL0     H72838  10.776  10.936  11.932  0.4594 -0.7978 -0.9720
  528MOL0     H72839  10.727  10.770  11.913 -2.6731 -0.8280 -4.1671
  528MOL0     H72840  10.577  10.764  12.087  0.5143 -0.2851 -0.5605
  528MOL0     H72841  10.567  10.944  12.094  1.6477 -0.0751  0.9632
  528MOL0     H72842  10.717  10.861  12.290 -1.5015 -1.6722 -0.3401
  528MOL0     H72843  10.788  10.959  12.164 -4.5209  0.7208 -2.1346
  528MOL0     H72844  10.130  10.938  11.307 -2.8861  1.2928  0.2401
  528MOL0     H72845   9.981  10.911  11.118  0.6154  0.7411  1.2878
  528MOL0     H72846   9.837  10.378  10.826 -0.1487 -0.4593 -1.4245
  528MOL0     H72847   9.662  10.284  10.682  0.8992 -2.6015  2.9188
  528MOL0     H72848   7.431  10.307  10.894 -1.6655 -0.7493  0.2223
  528MOL0     H72849   7.237  10.214  10.827 -0.0232  0.9366  0.6613
  528MOL0     H72850   7.099   9.888  10.550  0.2537 -0.8947 -0.7605
  528MOL0     H72851   6.945   9.716  10.478  1.8255  0.5005  0.8659
  528MOL0     H72852   6.817   9.575  10.353 -0.0343 -0.5022 -0.5503
  528MOL0     H72853   6.708   9.634  10.474 -1.0556 -1.9712  0.4403
  528MOL0     H72854   6.654   9.499  10.209 -1.0264  0.5040  0.4891
  528MOL0     H72855   6.522   9.586  10.272 -1.5707 -2.5668  0.0558
  528MOL0     H72856   6.686   9.372  10.421 -0.8049 -0.5090 -0.0746
  528MOL0     H72857   6.560   9.465  10.508 -2.8867 -2.3842  0.5097
  528MOL0     H72858   6.389   9.393  10.332 -0.8677 -0.7851 -1.4298
  528MOL0     H72859   6.436   9.271  10.447  0.4795 -0.8498 -0.9226
  528MOL0     H72860   6.588   9.122  10.088  1.9275  0.9128 -0.0717
  528MOL0     H72861   6.689   9.997  10.283 -1.3473  2.0774  1.3926
  528MOL0     H72862   6.904  10.284  10.287 -0.3922 -0.2703  0.3031
  528MOL0     H72863   6.735  10.243  10.282 -0.0427  2.0688 -1.0516
  528MOL0     H72864   6.810  10.287  10.433 -0.8564 -0.8205  0.4415
  529MOL0     O72865   3.099   2.305   9.603 -0.9908  0.0483 -0.1697
  529MOL0     C72866   3.109   2.385   9.701 -0.9789  0.6297 -0.3068
  529MOL0     O72867   3.216   2.464   9.721  0.2117  0.2855 -0.9684
  529MOL0     C72868   3.330   2.458   9.636 -0.1327  0.2012 -0.0337
  529MOL0     C72869   3.327   2.493   9.496 -0.0614  0.2057 -0.2733
  529MOL0     C72870   3.448   2.493   9.430 -0.3769 -0.4096 -0.0516
  529MOL0     C72871   3.567   2.463   9.495  0.0280  0.4412 -0.0278
  529MOL0     O72872   3.680   2.479   9.420 -0.3811  1.1160  0.4090
  529MOL0     C72873   3.814   2.476   9.472 -0.4338 -0.3950 -0.7444
  529MOL0     C72874   3.895   2.440   9.359 -0.7587 -0.7352 -0.3847
  529MOL0     C72875   4.050   2.424   9.386  0.6057  0.4179 -0.9391
  529MOL0     C72876   4.126   2.545   9.421  0.1889 -0.1173  0.8307
  529MOL0     C72877   4.279   2.528   9.407  0.6437  0.0055  0.2408
  529MOL0     C72878   4.346   2.642   9.482  0.6185 -0.5963  0.5512
  529MOL0     C72879   4.495   2.622   9.476 -0.1082 -0.4669 -0.2802
  529MOL0     C72880   4.578   2.727   9.558  0.9149  0.7064  0.5545
  529MOL0     N72881   4.716   2.716   9.510 -0.5438 -0.0249 -0.2698
  529MOL0     C72882   4.762   2.714   9.378 -0.0948  0.2264  0.4600
  529MOL0     C72883   4.898   2.693   9.374  0.4552  0.6568 -0.7836
  529MOL0     C72884   4.977   2.690   9.258 -0.7673 -0.3739 -0.6610
  529MOL0     C72885   5.128   2.650   9.296  0.2673  0.7080  0.1123
  529MOL0     C72886   5.138   2.494   9.310 -0.9449  0.8514 -0.1600
  529MOL0     C72887   5.277   2.447   9.284 -0.2715 -0.2045 -0.5235
  529MOL0     O72888   5.324   2.453   9.142 -0.0732  0.4425 -0.4132
  529MOL0     C72889   5.451   2.413   9.119  0.8126 -0.4868  0.8880
  529MOL0     C72890   5.510   2.436   8.999 -0.0782  0.2914 -0.2187
  529MOL0     C72891   5.643   2.397   8.969  0.2616 -0.9909  0.5301
  529MOL0     C72892   5.693   2.417   8.824  0.0880 -0.1199  0.3285
  529MOL0     C72893   5.721   2.331   9.065  0.8902  0.5164  0.1500
  529MOL0     C72894   5.853   2.281   9.052  0.0807  0.5227  0.3668
  529MOL0     O72895   5.906   2.212   9.159 -0.1726  0.7284 -0.8268
  529MOL0     C72896   6.028   2.153   9.152 -0.3310 -0.0289  0.3532
  529MOL0     C72897   6.139   2.237   9.175  0.2182 -0.1075  0.1480
  529MOL0     C72898   6.266   2.190   9.137  0.0687 -0.3395  0.6029
  529MOL0     C72899   6.287   2.054   9.113  0.2514 -0.3824  1.4221
  529MOL0     O72900   6.408   1.998   9.082 -0.2178 -0.5455 -0.1406
  529MOL0     C72901   6.524   2.031   9.152 -0.3975  0.0012  0.4664
  529MOL0     C72902   6.636   1.983   9.062 -0.4932 -0.6821 -0.8476
  529MOL0     C72903   6.751   1.912   9.134  0.3501 -0.3651  0.0035
  529MOL0     C72904   6.839   1.839   9.037 -0.3665 -0.0663 -0.0738
  529MOL0     C72905   6.935   1.745   9.114  0.1229 -0.0930 -0.1503
  529MOL0     C72906   7.062   1.807   9.163 -0.2026 -0.0683 -0.1975
  529MOL0     C72907   7.169   1.829   9.057  0.0725  0.7616 -0.2547
  529MOL0     C72908   7.185   1.970   9.016  0.2228  0.3509 -0.7060
  529MOL0    Cl72909   7.342   2.003   8.930  0.1245 -0.4542 -0.1967
  529MOL0     C72910   6.172   1.974   9.085 -0.4852 -0.0359  0.5012
  529MOL0     C72911   6.048   2.021   9.115 -0.6036  0.1701  0.2445
  529MOL0     O72912   5.919   2.314   8.954 -0.5525  0.3300  0.7027
  529MOL0     C72913   5.664   2.321   9.187  0.0303 -0.8389 -0.1482
  529MOL0     C72914   5.530   2.359   9.219  0.7355  0.1228 -0.2095
  529MOL0     N72915   4.932   2.666   9.503 -0.0820 -0.1132 -0.7905
  529MOL0     N72916   4.831   2.690   9.583 -0.7048  0.1294 -0.4352
  529MOL0     C72917   3.561   2.422   9.624 -0.7417  0.1764  0.7505
  529MOL0     C72918   3.449   2.420   9.694  0.0383 -0.1466 -0.7229
  529MOL0     C72919   2.985   2.394   9.792 -0.3157  0.2562 -0.4334
  529MOL0     C72920   2.978   2.509   9.875  0.4897  0.0902  0.5901
  529MOL0     C72921   2.869   2.533   9.958  0.1938 -0.9041 -0.4786
  529MOL0     C72922   2.761   2.448   9.952 -0.6009 -0.2737  0.7122
  529MOL0     O72923   2.634   2.452  10.002 -0.7148 -0.1463 -0.1027
  529MOL0     C72924   2.615   2.546  10.107 -0.6631 -0.3109  0.0466
  529MOL0     C72925   2.467   2.537  10.165 -0.4699  0.4711 -0.3103
  529MOL0     C72926   2.419   2.682  10.202 -0.1542  0.4098 -0.1848
  529MOL0     C72927   2.344   2.755  10.088 -0.0952  0.3770  0.2245
  529MOL0     C72928   2.206   2.701  10.066 -0.0478 -0.3268  0.5110
  529MOL0     C72929   2.092   2.666  10.056  0.6848  0.0681 -0.2137
  529MOL0     C72930   2.762   2.344   9.869 -0.4183 -0.4534  1.3190
  529MOL0     C72931   2.872   2.308   9.787 -0.2966 -0.7601  0.3317
  529MOL0     C72932   2.860   2.176   9.707  0.3981 -0.1347 -0.0400
  529MOL0     H72933   3.233   2.517   9.446 -0.0259  2.6577  0.6920
  529MOL0     H72934   3.454   2.533   9.329  0.5102  1.4973  0.7018
  529MOL0     H72935   3.827   2.400   9.550 -1.4449 -0.7671 -0.9348
  529MOL0     H72936   3.841   2.574   9.514  0.2672 -0.1998 -1.6131
  529MOL0     H72937   3.858   2.343   9.323  0.2254 -0.7558 -1.3985
  529MOL0     H72938   3.872   2.513   9.281 -1.0325 -1.2704 -0.8134
  529MOL0     H72939   4.050   2.363   9.477  0.9622 -1.5436 -2.1995
  529MOL0     H72940   4.105   2.360   9.317  2.1343  0.4568  0.1894
  529MOL0     H72941   4.090   2.614   9.344 -0.0792  1.3784  2.2382
  529MOL0     H72942   4.092   2.582   9.518 -2.2655 -0.9833  0.3761
  529MOL0     H72943   4.314   2.536   9.304  0.5159  1.3749  0.2904
  529MOL0     H72944   4.310   2.430   9.445  2.7392 -0.1384 -1.6107
  529MOL0     H72945   4.316   2.741   9.447  3.0320 -0.2756 -0.8884
  529MOL0     H72946   4.320   2.634   9.588  1.7811 -0.7669  0.8413
  529MOL0     H72947   4.525   2.609   9.371 -0.7534 -0.2232 -0.5039
  529MOL0     H72948   4.522   2.534   9.535 -2.1380  1.4613  3.9433
  529MOL0     H72949   4.538   2.826   9.535 -0.1340  0.4555  1.2298
  529MOL0     H72950   4.579   2.697   9.663 -0.2444 -0.8262  0.1665
  529MOL0     H72951   4.705   2.739   9.289  2.5344  0.8748 -1.1450
  529MOL0     H72952   4.996   2.786   9.210  1.5279 -0.6445 -0.3979
  529MOL0     H72953   4.927   2.622   9.188 -2.9844 -1.8214  2.1017
  529MOL0     H72954   5.192   2.679   9.213 -0.8930 -0.0118 -1.0774
  529MOL0     H72955   5.162   2.693   9.391 -2.0872  0.8824  0.9400
  529MOL0     H72956   5.110   2.465   9.412 -0.8496  1.0396 -0.0806
  529MOL0     H72957   5.071   2.436   9.245  3.3317 -3.2788 -1.4608
  529MOL0     H72958   5.341   2.502   9.354 -0.7442  2.2221 -1.8781
  529MOL0     H72959   5.280   2.343   9.317  4.2457 -0.3618 -0.7194
  529MOL0     H72960   5.460   2.495   8.923 -1.6801  0.3919  0.8689
  529MOL0     H72961   5.766   2.498   8.819 -1.6463  1.4674 -2.9816
  529MOL0     H72962   5.609   2.430   8.756  0.6653 -0.1697 -0.4160
  529MOL0     H72963   5.733   2.322   8.788 -3.5922 -2.0714  0.9690
  529MOL0     H72964   6.118   2.335   9.215 -2.0947 -0.2199 -0.6389
  529MOL0     H72965   6.350   2.257   9.153  0.1057 -0.3522  0.4611
  529MOL0     H72966   6.530   2.139   9.167  0.7741 -0.0218  0.2788
  529MOL0     H72967   6.530   1.979   9.248 -0.5973 -0.7294  0.0917
  529MOL0     H72968   6.587   1.919   8.988  0.1570 -0.1376 -1.7606
  529MOL0     H72969   6.677   2.070   9.010  3.1168 -1.2572  0.7529
  529MOL0     H72970   6.703   1.847   9.207 -3.4283  0.2812 -1.6762
  529MOL0     H72971   6.818   1.989   9.176  0.8524  1.6219 -3.9770
  529MOL0     H72972   6.902   1.908   8.980 -0.0393  1.8121  2.4388
  529MOL0     H72973   6.782   1.783   8.961 -1.8227  0.4358  0.6057
  529MOL0     H72974   6.884   1.685   9.189 -1.2141  0.4818 -0.5653
  529MOL0     H72975   6.956   1.663   9.045 -2.8039  1.4286 -3.1617
  529MOL0     H72976   7.087   1.722   9.227  0.7693 -1.0578 -1.8150
  529MOL0     H72977   7.045   1.900   9.218 -1.6539 -0.0250 -0.6724
  529MOL0     H72978   7.155   1.762   8.972  1.4967 -1.7402  1.3358
  529MOL0     H72979   7.268   1.793   9.087  0.7151 -0.0761 -3.0441
  529MOL0     H72980   7.173   2.044   9.095  1.1246  0.6825 -0.8668
  529MOL0     H72981   7.115   1.991   8.934 -0.8797  0.2595  0.1774
  529MOL0     H72982   6.184   1.874   9.045  1.2043  0.8147 -1.2800
  529MOL0     H72983   5.964   1.953   9.100 -2.4783  2.0735  1.3888
  529MOL0     H72984   5.716   2.273   9.270  1.4318 -1.8479 -1.5638
  529MOL0     H72985   5.505   2.336   9.322  0.2928  2.6721  0.3060
  529MOL0     H72986   3.650   2.379   9.668 -0.9216 -0.7180  0.2443
  529MOL0     H72987   3.430   2.383   9.795 -0.3550 -2.0895 -1.4626
  529MOL0     H72988   3.058   2.582   9.876  2.6732 -2.0206 -2.0107
  529MOL0     H72989   2.887   2.622  10.018  2.5596 -0.8877 -1.1308
  529MOL0     H72990   2.694   2.523  10.179 -0.3907  1.6238  0.4179
  529MOL0     H72991   2.637   2.644  10.063  0.4624 -1.6655 -2.6270
  529MOL0     H72992   2.478   2.483  10.259  0.5860  1.1378 -0.0277
  529MOL0     H72993   2.391   2.495  10.098 -0.9360 -0.1960  0.6274
  529MOL0     H72994   2.349   2.670  10.285 -0.0001 -1.8506 -0.3241
  529MOL0     H72995   2.508   2.739  10.229  1.5344 -1.5772 -1.2057
  529MOL0     H72996   2.400   2.740   9.995 -3.1103 -0.8814 -1.5082
  529MOL0     H72997   2.345   2.860  10.120 -3.0999 -0.0108  1.9712
  529MOL0     H72998   1.993   2.639  10.026 -0.2294  4.6426 -2.2246
  529MOL0     H72999   2.669   2.291   9.851 -1.8389  2.4888 -0.6746
  529MOL0     H73000   2.755   2.144   9.707  1.3234 -3.7133 -0.9622
  529MOL0     H73001   2.889   2.177   9.601 -1.5006 -2.2743 -0.6783
  529MOL0     H73002   2.916   2.100   9.763  2.7184  0.9606 -0.7516
  530MOL0     O73003   2.807   8.805   1.790 -0.6217  0.5247 -0.5180
  530MOL0     C73004   2.822   8.762   1.683 -0.1735 -0.2600  0.1475
  530MOL0     O73005   2.945   8.739   1.628  0.0563  0.1235  0.5151
  530MOL0     C73006   3.059   8.757   1.695 -0.4665  0.4925 -0.1978
  530MOL0     C73007   3.094   8.893   1.710  0.4887  0.3252 -0.0388
  530MOL0     C73008   3.222   8.929   1.758 -0.0317  0.1237 -0.5075
  530MOL0     C73009   3.314   8.828   1.799 -0.3771 -0.1750 -0.2083
  530MOL0     O73010   3.438   8.849   1.858 -0.2864  0.3198 -0.2205
  530MOL0     C73011   3.480   8.986   1.851 -0.2011 -0.1192 -0.5304
  530MOL0     C73012   3.613   9.006   1.933  1.3167 -0.2979 -0.0658
  530MOL0     C73013   3.728   8.964   1.844 -0.2967 -0.1808  0.1660
  530MOL0     C73014   3.858   9.027   1.906 -0.8051  0.2969 -0.0258
  530MOL0     C73015   3.971   9.017   1.802 -0.9805 -0.0226 -0.7498
  530MOL0     C73016   4.118   8.990   1.854  1.4459 -0.0469 -0.4549
  530MOL0     C73017   4.207   8.949   1.740 -0.1926 -0.0398  0.2055
  530MOL0     C73018   4.276   9.075   1.683  0.3637 -0.2941 -0.1543
  530MOL0     N73019   4.396   9.117   1.751 -0.6846  0.5920  0.5454
  530MOL0     C73020   4.411   9.109   1.892 -1.8199  0.5304  0.2360
  530MOL0     C73021   4.535   9.145   1.913 -0.3057  0.3069  0.5678
  530MOL0     C73022   4.602   9.137   2.044 -0.0503 -0.1059  0.3493
  530MOL0     C73023   4.663   9.280   2.078 -0.0296  0.8454 -0.2728
  530MOL0     C73024   4.575   9.377   2.155  0.6663  0.4043 -0.9119
  530MOL0     C73025   4.636   9.496   2.236  0.0615 -0.4334 -0.1084
  530MOL0     O73026   4.719   9.586   2.158 -0.2275 -0.3703 -0.7044
  530MOL0     C73027   4.753   9.715   2.200 -0.9461  0.2065  0.3422
  530MOL0     C73028   4.724   9.754   2.331 -0.1852 -0.3116 -0.4258
  530MOL0     C73029   4.767   9.873   2.386 -0.3096 -0.0185 -0.0057
  530MOL0     C73030   4.729   9.893   2.521 -0.3944  0.0926 -0.8836
  530MOL0     C73031   4.849   9.965   2.301  0.5149  0.0795  0.1620
  530MOL0     C73032   4.917  10.096   2.343 -0.2531 -0.5301 -0.5616
  530MOL0     O73033   4.904  10.138   2.468  0.0183 -0.0457 -0.5919
  530MOL0     C73034   4.929  10.277   2.481 -0.1866  1.4352 -0.0631
  530MOL0     C73035   4.887  10.376   2.395  1.1801  0.4311  0.1868
  530MOL0     C73036   4.926  10.505   2.406 -0.1745 -0.3428  0.3257
  530MOL0     C73037   4.999  10.555   2.520 -0.4574  0.0169  0.8216
  530MOL0     O73038   5.066  10.678   2.510 -0.0580  0.8236  0.0711
  530MOL0     C73039   5.003  10.795   2.559 -0.6455 -0.9213 -0.3078
  530MOL0     C73040   5.117  10.882   2.584 -0.0972  0.5374  0.1696
  530MOL0     C73041   5.196  10.860   2.713  1.2443 -0.2036 -0.1621
  530MOL0     C73042   5.316  10.954   2.724 -0.5964 -0.4376  0.3397
  530MOL0     C73043   5.419  10.910   2.829 -0.2922 -0.0334  0.4200
  530MOL0     C73044   5.375  10.904   2.973 -0.5249 -0.8929 -0.4159
  530MOL0     C73045   5.478  10.879   3.087 -0.3225  0.2188 -1.0200
  530MOL0     C73046   5.578  10.991   3.095 -0.1450 -0.0384 -0.3468
  530MOL0    Cl73047   5.703  10.972   3.219 -0.1139  0.0232  0.1058
  530MOL0     C73048   5.026  10.453   2.614  0.3697  0.0291  0.5397
  530MOL0     C73049   4.981  10.320   2.600 -0.3620  0.3221 -0.4292
  530MOL0     O73050   4.994  10.147   2.257  0.2866  0.3166  0.5709
  530MOL0     C73051   4.881   9.920   2.171  0.0596  0.8103 -0.2271
  530MOL0     C73052   4.828   9.803   2.123  0.5786 -0.6691  0.0344
  530MOL0     N73053   4.592   9.168   1.790  1.1918  0.0472  0.7238
  530MOL0     N73054   4.517   9.135   1.694 -0.1508 -0.0228 -0.0926
  530MOL0     C73055   3.274   8.696   1.794  0.1672  0.3455 -0.5015
  530MOL0     C73056   3.145   8.662   1.739  0.3843 -0.0928 -0.1809
  530MOL0     C73057   2.701   8.739   1.594  0.8244 -0.0271 -0.3293
  530MOL0     C73058   2.721   8.738   1.452  0.5182 -0.7595  1.3801
  530MOL0     C73059   2.616   8.719   1.360  0.6877 -0.0668  0.3014
  530MOL0     C73060   2.485   8.708   1.400 -0.9257 -0.1335 -0.9384
  530MOL0     O73061   2.382   8.686   1.310 -0.5365  1.4810  0.4542
  530MOL0     C73062   2.254   8.747   1.321  0.3286  0.3933 -0.2680
  530MOL0     C73063   2.165   8.694   1.211 -0.5367  0.4044 -0.2654
  530MOL0     C73064   2.217   8.729   1.071  0.5344  1.1973  0.3005
  530MOL0     C73065   2.141   8.658   0.964  0.5735 -0.5554 -0.4439
  530MOL0     C73066   2.005   8.715   0.955 -0.0005  0.4662 -0.4458
  530MOL0     C73067   1.898   8.771   0.955  0.3027  0.4047  0.0610
  530MOL0     C73068   2.466   8.709   1.541 -0.6022 -0.4684  0.8225
  530MOL0     C73069   2.569   8.722   1.638 -0.2929 -0.0164 -0.0831
  530MOL0     C73070   2.537   8.694   1.786  0.5832 -0.6475  0.8362
  530MOL0     H73071   3.028   8.968   1.668 -1.2665 -0.7882  0.6094
  530MOL0     H73072   3.244   9.035   1.759 -0.9180  0.3230 -1.2686
  530MOL0     H73073   3.399   9.057   1.871  1.9289  1.7842  2.2823
  530MOL0     H73074   3.509   9.020   1.751  2.0216  0.3911  0.2194
  530MOL0     H73075   3.611   9.109   1.971  0.7242  0.2359 -1.4753
  530MOL0     H73076   3.619   8.947   2.025 -3.9952 -1.0738  0.0893
  530MOL0     H73077   3.728   8.855   1.835  0.7538 -0.0854 -1.2486
  530MOL0     H73078   3.722   9.009   1.744  0.0090  1.7722  0.9817
  530MOL0     H73079   3.843   9.132   1.934 -3.6058 -0.1834  0.6465
  530MOL0     H73080   3.883   8.966   1.993  1.8411 -0.4075 -1.1866
  530MOL0     H73081   3.972   9.108   1.742 -1.1691  0.0775 -0.6012
  530MOL0     H73082   3.943   8.937   1.733 -1.3121  1.8665 -2.8927
  530MOL0     H73083   4.146   9.085   1.900 -0.6730  1.2870 -1.7417
  530MOL0     H73084   4.112   8.916   1.934 -0.0150  0.7549  0.2274
  530MOL0     H73085   4.161   8.893   1.659  1.4590  1.6131 -1.9936
  530MOL0     H73086   4.288   8.885   1.779 -0.6607 -0.4229  0.5678
  530MOL0     H73087   4.310   9.031   1.588 -0.5148  0.7655 -0.9951
  530MOL0     H73088   4.205   9.158   1.675 -0.6693 -1.1391 -0.0700
  530MOL0     H73089   4.353   9.071   1.976  0.9674  0.4001  2.2185
  530MOL0     H73090   4.678   9.058   2.048 -0.6579 -0.8299 -1.4716
  530MOL0     H73091   4.528   9.113   2.121 -0.2526  2.2020  0.9444
  530MOL0     H73092   4.749   9.266   2.144 -1.1632  1.5488  1.4285
  530MOL0     H73093   4.705   9.334   1.993  0.2528  0.9455 -0.0691
  530MOL0     H73094   4.506   9.414   2.078 -0.4311  1.6911  0.6321
  530MOL0     H73095   4.512   9.327   2.229  1.9562  0.6345  0.3800
  530MOL0     H73096   4.547   9.550   2.268  0.0145 -1.2351  1.1851
  530MOL0     H73097   4.688   9.467   2.329 -3.1501 -0.3318  1.8558
  530MOL0     H73098   4.663   9.687   2.391  1.6073 -0.0755  1.7898
  530MOL0     H73099   4.815   9.898   2.588  2.1024  0.0022 -3.8236
  530MOL0     H73100   4.651   9.827   2.559 -0.7923  1.3218  0.5274
  530MOL0     H73101   4.684   9.993   2.522 -1.0573 -0.1918 -1.4118
  530MOL0     H73102   4.831  10.352   2.304 -0.1751  0.0524  1.0899
  530MOL0     H73103   4.895  10.575   2.329 -3.5023 -1.5279  0.4402
  530MOL0     H73104   4.937  10.833   2.480  1.0199  2.7256 -0.1663
  530MOL0     H73105   4.944  10.779   2.649  0.4061 -2.9533  0.0869
  530MOL0     H73106   5.186  10.868   2.500 -0.0126 -3.8321  0.7786
  530MOL0     H73107   5.076  10.984   2.591 -0.6873  0.7023 -3.6355
  530MOL0     H73108   5.217  10.753   2.709  0.3503 -0.3600 -1.4898
  530MOL0     H73109   5.132  10.872   2.800 -2.1872  0.1585 -2.5348
  530MOL0     H73110   5.284  11.058   2.737 -0.2160 -0.2897  0.1247
  530MOL0     H73111   5.380  10.955   2.635 -2.7657  0.3987 -1.3224
  530MOL0     H73112   5.443  10.807   2.803 -1.6490 -0.7224  1.6824
  530MOL0     H73113   5.505  10.976   2.816  1.1084 -1.8449  0.2314
  530MOL0     H73114   5.293  10.833   2.980 -0.9235 -0.4874 -0.8584
  530MOL0     H73115   5.329  11.001   2.994  0.0176 -0.4493 -1.1871
  530MOL0     H73116   5.536  10.788   3.068 -1.9505 -1.5722  1.8851
  530MOL0     H73117   5.424  10.866   3.181 -1.0432  0.0409 -1.4523
  530MOL0     H73118   5.523  11.085   3.109 -1.1982 -0.2006 -2.7850
  530MOL0     H73119   5.636  11.009   3.004  2.6458  2.9749  1.8141
  530MOL0     H73120   5.091  10.482   2.696 -1.9450 -1.8757  3.1983
  530MOL0     H73121   5.015  10.250   2.676 -0.3360  1.5116  0.6970
  530MOL0     H73122   4.938   9.978   2.099  3.6748 -1.0961  0.8392
  530MOL0     H73123   4.864   9.780   2.023 -1.0210 -1.3464 -0.4221
  530MOL0     H73124   3.339   8.617   1.831  1.0247  2.3662  2.7031
  530MOL0     H73125   3.125   8.560   1.707  1.2133  0.2371 -1.8553
  530MOL0     H73126   2.821   8.751   1.411 -0.4988  0.3486 -0.9508
  530MOL0     H73127   2.654   8.707   1.259  1.1937  1.1441  0.3353
  530MOL0     H73128   2.204   8.718   1.414  1.5663  0.5025  0.4454
  530MOL0     H73129   2.253   8.856   1.317 -0.3558  0.4755  1.2811
  530MOL0     H73130   2.068   8.743   1.222 -1.5362 -1.7690  1.1992
  530MOL0     H73131   2.151   8.586   1.221  2.2964  0.1601  3.2957
  530MOL0     H73132   2.223   8.835   1.044  1.3136  0.8017 -1.2259
  530MOL0     H73133   2.321   8.695   1.072  0.2888  0.3596 -0.7594
  530MOL0     H73134   2.135   8.552   0.991  2.9455 -0.8564 -0.8745
  530MOL0     H73135   2.186   8.672   0.865 -0.5418 -0.4659 -0.9500
  530MOL0     H73136   1.805   8.823   0.959  1.3744  2.8683 -2.8622
  530MOL0     H73137   2.362   8.688   1.563 -2.4320  3.8878 -2.2192
  530MOL0     H73138   2.559   8.782   1.847  2.1595  0.7216 -1.5209
  530MOL0     H73139   2.432   8.672   1.806  0.5402 -1.1489  0.0678
  530MOL0     H73140   2.594   8.605   1.814 -0.4577 -1.9065 -0.8368
  531MOL0     O73141   5.663   1.287   9.173 -0.7682  0.2631 -0.1351
  531MOL0     C73142   5.612   1.392   9.189 -0.4135  0.3745 -0.1540
  531MOL0     O73143   5.665   1.514   9.172  0.1968 -0.4893  0.7669
  531MOL0     C73144   5.802   1.527   9.157  0.3373  0.4455 -0.2476
  531MOL0     C73145   5.906   1.449   9.208 -0.1325 -0.2494 -0.7747
  531MOL0     C73146   6.044   1.480   9.199 -0.1383  0.1167 -0.4643
  531MOL0     C73147   6.081   1.591   9.126  0.4571 -0.0522  0.4718
  531MOL0     O73148   6.215   1.607   9.103 -0.1913  0.3903  0.5242
  531MOL0     C73149   6.281   1.619   9.224 -0.1907  0.0348 -0.2513
  531MOL0     C73150   6.418   1.684   9.208  0.0960  0.4487 -0.0699
  531MOL0     C73151   6.514   1.567   9.160 -0.5091  0.0548 -0.3856
  531MOL0     C73152   6.555   1.558   9.013  0.4719 -0.6993  0.1009
  531MOL0     C73153   6.654   1.452   8.969 -0.5646  0.1704 -0.0842
  531MOL0     C73154   6.595   1.313   8.968  0.6282 -0.5896 -0.4160
  531MOL0     C73155   6.492   1.284   8.851  0.2623 -0.4151  0.6511
  531MOL0     C73156   6.529   1.336   8.709  0.2675 -0.0303  0.0489
  531MOL0     N73157   6.655   1.287   8.667 -0.0556  0.9133 -0.6115
  531MOL0     C73158   6.689   1.154   8.649 -0.3650 -0.4258  0.1782
  531MOL0     C73159   6.818   1.154   8.613 -0.3387  0.1369 -0.0893
  531MOL0     C73160   6.897   1.027   8.607 -1.0411 -0.1731  0.1694
  531MOL0     C73161   6.965   1.015   8.463  0.2312  0.1176  0.2556
  531MOL0     C73162   7.031   0.879   8.441 -0.6325 -0.5442  0.2775
  531MOL0     C73163   7.101   0.883   8.307  0.5291 -0.3808  0.1723
  531MOL0     O73164   7.197   0.777   8.303  0.1955  0.2011 -0.7349
  531MOL0     C73165   7.242   0.741   8.183  0.3183  1.2624 -0.7274
  531MOL0     C73166   7.173   0.645   8.109 -0.1347 -0.0600 -0.0071
  531MOL0     C73167   7.232   0.597   7.987 -1.3425  0.5538 -0.1813
  531MOL0     C73168   7.153   0.502   7.904 -0.6538 -0.2246 -0.9223
  531MOL0     C73169   7.357   0.643   7.938 -0.0145 -0.0297 -0.0240
  531MOL0     C73170   7.435   0.603   7.812 -0.3399  0.4338 -0.5926
  531MOL0     O73171   7.562   0.657   7.810 -1.1181 -0.8340 -0.5230
  531MOL0     C73172   7.668   0.609   7.734  0.5482  0.7125  0.3249
  531MOL0     C73173   7.757   0.697   7.665 -1.0773 -0.1266 -0.6763
  531MOL0     C73174   7.855   0.649   7.580  0.3460 -0.0953  0.0778
  531MOL0     C73175   7.861   0.506   7.556  0.6718 -0.2904  0.4302
  531MOL0     O73176   7.945   0.438   7.470  0.2757 -0.3734 -0.2435
  531MOL0     C73177   8.032   0.527   7.400  0.3150  0.4909  0.0672
  531MOL0     C73178   8.092   0.453   7.285 -0.1979 -0.5080  0.2481
  531MOL0     C73179   8.211   0.526   7.228  0.4711 -0.2121  0.0460
  531MOL0     C73180   8.300   0.426   7.146  0.6806  0.1249 -0.3383
  531MOL0     C73181   8.425   0.482   7.095 -0.1353 -0.4727 -0.3584
  531MOL0     C73182   8.533   0.476   7.208  0.4475  0.1569  0.3021
  531MOL0     C73183   8.667   0.537   7.166  0.1662 -0.1084 -0.6627
  531MOL0     C73184   8.783   0.512   7.262 -0.5231 -0.2088  0.3224
  531MOL0    Cl73185   8.943   0.548   7.196 -0.0471  0.1263 -0.2106
  531MOL0     C73186   7.771   0.426   7.620  0.5605 -0.1128  0.1270
  531MOL0     C73187   7.677   0.472   7.709 -0.1849 -0.0883 -0.5096
  531MOL0     O73188   7.383   0.554   7.717  0.2074  0.2425  0.1605
  531MOL0     C73189   7.417   0.743   8.025 -0.0188  0.6923  1.0377
  531MOL0     C73190   7.361   0.788   8.140 -0.0464  0.3783  0.0806
  531MOL0     N73191   6.862   1.287   8.623  0.5215  0.1168  1.0007
  531MOL0     N73192   6.764   1.363   8.643 -0.1869 -0.5492  0.8554
  531MOL0     C73193   5.976   1.668   9.063 -0.3095  0.5105  0.4219
  531MOL0     C73194   5.841   1.639   9.088  0.0876 -0.1952 -0.0794
  531MOL0     C73195   5.468   1.384   9.228 -0.4064  0.3025 -0.5149
  531MOL0     C73196   5.416   1.512   9.276  0.3120  0.9082  0.2420
  531MOL0     C73197   5.283   1.526   9.313 -0.4411  0.0784  0.2081
  531MOL0     C73198   5.200   1.407   9.324  0.0113 -0.6640  0.7173
  531MOL0     O73199   5.081   1.408   9.391  0.0491 -0.4612  0.2669
  531MOL0     C73200   5.025   1.535   9.435  0.9821 -0.4529  0.1917
  531MOL0     C73201   4.920   1.508   9.543  0.2943 -0.1798  0.0336
  531MOL0     C73202   4.803   1.447   9.462  1.1085 -0.0659 -0.5884
  531MOL0     C73203   4.686   1.396   9.548  0.6107 -1.2102 -0.1546
  531MOL0     C73204   4.586   1.327   9.475  0.5139  0.2797 -0.3774
  531MOL0     C73205   4.496   1.259   9.430  0.6607  0.2500 -0.9718
  531MOL0     C73206   5.251   1.286   9.273 -0.0156  0.6724 -0.2886
  531MOL0     C73207   5.385   1.269   9.229 -0.0980  0.3391  0.1849
  531MOL0     C73208   5.438   1.130   9.171  0.3435 -0.6087  0.2946
  531MOL0     H73209   5.890   1.357   9.263 -0.3173  1.0813  1.5395
  531MOL0     H73210   6.108   1.400   9.234 -1.1741 -0.7449 -0.4947
  531MOL0     H73211   6.301   1.519   9.264 -1.6354 -1.8622 -3.8108
  531MOL0     H73212   6.231   1.686   9.295 -0.5306 -0.0553 -0.3999
  531MOL0     H73213   6.415   1.752   9.123 -0.2059  0.6859  0.1326
  531MOL0     H73214   6.453   1.733   9.299  2.5274 -3.3529  1.3281
  531MOL0     H73215   6.598   1.583   9.227 -1.7723  0.4158  1.1588
  531MOL0     H73216   6.468   1.471   9.184 -1.1723  0.2697 -0.7549
  531MOL0     H73217   6.458   1.535   8.969  0.2140  2.4683 -1.2742
  531MOL0     H73218   6.591   1.656   8.980  1.3285 -0.3976  1.8233
  531MOL0     H73219   6.739   1.469   9.036 -0.6367  0.9950 -0.2020
  531MOL0     H73220   6.689   1.482   8.870 -1.1277  0.5968 -0.1610
  531MOL0     H73221   6.672   1.236   8.979 -0.2429 -1.2378  1.5672
  531MOL0     H73222   6.544   1.303   9.065  3.5794  0.2573  1.3555
  531MOL0     H73223   6.395   1.325   8.881  0.6865  0.8991  0.2926
  531MOL0     H73224   6.480   1.175   8.847 -0.8360 -0.3745  2.1870
  531MOL0     H73225   6.460   1.305   8.630 -0.4737 -0.1032  0.7053
  531MOL0     H73226   6.535   1.445   8.713  0.9398  0.0127 -1.4100
  531MOL0     H73227   6.619   1.071   8.653 -1.4142  0.2995 -1.7720
  531MOL0     H73228   6.830   0.942   8.625  1.9546 -2.5370  1.0288
  531MOL0     H73229   6.975   1.024   8.684 -0.8208 -0.5314 -0.0643
  531MOL0     H73230   6.894   1.029   8.380 -0.5030  1.0328  1.0082
  531MOL0     H73231   7.040   1.095   8.457 -0.4435  0.9368  2.1862
  531MOL0     H73232   7.106   0.873   8.520  2.8874  0.7975 -2.6779
  531MOL0     H73233   6.965   0.792   8.443  1.0564 -1.8735  0.8442
  531MOL0     H73234   7.029   0.879   8.224 -0.2586 -1.2145  0.8789
  531MOL0     H73235   7.158   0.976   8.298 -3.1259  1.9943 -0.5302
  531MOL0     H73236   7.078   0.612   8.151 -0.0518 -0.5408 -0.1965
  531MOL0     H73237   7.054   0.492   7.950  0.0054  0.3454  0.6706
  531MOL0     H73238   7.208   0.408   7.899 -0.7989 -0.4138  0.6706
  531MOL0     H73239   7.145   0.538   7.801 -1.9266 -0.1446 -0.8223
  531MOL0     H73240   7.754   0.804   7.685 -1.5577 -0.2575 -0.0155
  531MOL0     H73241   7.934   0.711   7.538  0.6467  0.5886  1.5860
  531MOL0     H73242   7.979   0.618   7.372  2.7186  2.3387  1.0821
  531MOL0     H73243   8.107   0.563   7.472 -0.8396 -1.3204  2.3418
  531MOL0     H73244   8.124   0.354   7.318 -1.8886 -1.1081  0.1950
  531MOL0     H73245   8.016   0.431   7.208  0.5692 -1.7462 -0.1858
  531MOL0     H73246   8.267   0.574   7.308 -0.1409  2.3278 -0.9570
  531MOL0     H73247   8.177   0.608   7.164 -1.0360 -2.0953 -1.7228
  531MOL0     H73248   8.239   0.403   7.058 -2.9797  1.2384  1.7071
  531MOL0     H73249   8.310   0.334   7.205 -1.0553  0.3612  0.3857
  531MOL0     H73250   8.451   0.427   7.003  0.7117  0.3204 -0.6029
  531MOL0     H73251   8.403   0.587   7.075 -2.2116 -0.9053 -0.6024
  531MOL0     H73252   8.538   0.377   7.254 -0.2840  1.4324  3.3383
  531MOL0     H73253   8.493   0.531   7.294 -1.4440 -2.8969  1.5356
  531MOL0     H73254   8.652   0.645   7.161  2.6797  0.3533  0.3856
  531MOL0     H73255   8.702   0.497   7.070 -2.9819 -2.8689 -0.8608
  531MOL0     H73256   8.792   0.408   7.294 -0.9696 -0.1102  0.7949
  531MOL0     H73257   8.768   0.572   7.353  1.3485  0.8312  0.0023
  531MOL0     H73258   7.775   0.319   7.602 -0.2175 -0.2249  0.5936
  531MOL0     H73259   7.604   0.407   7.757 -0.5482  0.3894 -0.4078
  531MOL0     H73260   7.513   0.787   7.996  1.0703 -2.2042 -0.1269
  531MOL0     H73261   7.406   0.863   8.204  2.1277 -0.5436 -0.3057
  531MOL0     H73262   6.010   1.752   9.003  0.5219  1.0931  1.6566
  531MOL0     H73263   5.761   1.701   9.049 -1.2732  0.5297  3.4613
  531MOL0     H73264   5.474   1.604   9.285  1.3777  0.2536  0.2831
  531MOL0     H73265   5.252   1.625   9.345 -3.1698 -0.5749 -0.0943
  531MOL0     H73266   5.085   1.607   9.492 -0.3875 -0.4924  1.7797
  531MOL0     H73267   4.982   1.590   9.351 -2.0553  0.0204  1.8823
  531MOL0     H73268   4.891   1.598   9.599  3.8204  0.2344  1.5212
  531MOL0     H73269   4.952   1.439   9.622 -1.8801 -0.4555  0.7377
  531MOL0     H73270   4.767   1.526   9.394 -0.3220 -0.5814 -0.4626
  531MOL0     H73271   4.843   1.362   9.407  2.1215 -0.3997  0.6112
  531MOL0     H73272   4.645   1.485   9.598  1.5001 -0.1090 -1.3454
  531MOL0     H73273   4.726   1.336   9.630  0.7345  0.8075  1.3374
  531MOL0     H73274   4.415   1.197   9.399  1.3107 -0.3124 -1.5785
  531MOL0     H73275   5.184   1.203   9.297  0.7214 -0.1134 -0.8979
  531MOL0     H73276   5.514   1.090   9.239  0.5769 -0.6954 -0.0182
  531MOL0     H73277   5.356   1.057   9.166  0.2652 -0.4740 -0.5200
  531MOL0     H73278   5.480   1.144   9.071 -0.1669 -0.7539  0.0524
  532MOL0     O73279   1.081   1.481   3.068  0.6839  0.1424  0.6618
  532MOL0     C73280   1.057   1.436   2.955 -0.4974 -0.0415  0.4784
  532MOL0     O73281   1.158   1.440   2.852  0.0009 -0.7761  0.5057
  532MOL0     C73282   1.248   1.549   2.835  0.1497 -0.0971 -0.1189
  532MOL0     C73283   1.369   1.523   2.774 -0.5308 -0.5355  0.6071
  532MOL0     C73284   1.454   1.624   2.738 -0.2227  1.0430  0.5485
  532MOL0     C73285   1.431   1.753   2.763  0.0253 -0.1160 -0.4015
  532MOL0     O73286   1.508   1.856   2.732  0.5414 -1.0756 -0.2499
  532MOL0     C73287   1.640   1.828   2.680 -0.0393  0.6729  0.1293
  532MOL0     C73288   1.695   1.962   2.632  0.4603  0.2579  0.1281
  532MOL0     C73289   1.767   2.039   2.745 -0.5785  0.1548  0.4274
  532MOL0     C73290   1.896   1.969   2.793  0.3851 -0.3015  0.8846
  532MOL0     C73291   1.994   2.056   2.878 -0.3113 -0.4576 -0.3990
  532MOL0     C73292   2.062   2.175   2.805  0.3622 -0.0890  0.1930
  532MOL0     C73293   2.159   2.257   2.901  0.4087  0.0156  1.2225
  532MOL0     C73294   2.224   2.383   2.847  0.1991 -0.5713  0.0827
  532MOL0     N73295   2.307   2.363   2.729  0.0487 -0.0122 -0.4191
  532MOL0     C73296   2.376   2.244   2.693  0.1556 -0.0828  0.6017
  532MOL0     C73297   2.426   2.278   2.568 -0.2438  0.6444 -0.3517
  532MOL0     C73298   2.473   2.184   2.461 -0.1697 -1.2954 -1.1103
  532MOL0     C73299   2.625   2.158   2.487  1.0780  0.2272  0.9212
  532MOL0     C73300   2.724   2.278   2.467  0.3292 -0.0810 -0.2366
  532MOL0     C73301   2.873   2.254   2.493 -0.9262 -0.3828 -0.5740
  532MOL0     O73302   2.945   2.374   2.501 -0.0957 -0.4037 -0.2529
  532MOL0     C73303   3.080   2.374   2.488 -0.3664  0.4013 -0.3714
  532MOL0     C73304   3.149   2.499   2.481  0.8296  0.5709 -0.3820
  532MOL0     C73305   3.285   2.511   2.463 -0.3333  0.6136  0.3922
  532MOL0     C73306   3.332   2.653   2.427 -0.8724  0.1490 -0.5609
  532MOL0     C73307   3.357   2.391   2.491 -0.4121 -0.6119 -0.4161
  532MOL0     C73308   3.507   2.392   2.495  0.0667  0.0271  0.6809
  532MOL0     O73309   3.579   2.510   2.488  0.3850 -0.0033 -0.3159
  532MOL0     C73310   3.717   2.504   2.498 -0.5020  0.7157  0.7869
  532MOL0     C73311   3.785   2.490   2.622  0.2338 -0.8043 -0.1699
  532MOL0     C73312   3.932   2.488   2.626 -0.5240  0.0494 -0.1157
  532MOL0     C73313   4.001   2.496   2.502 -0.7227 -0.8871 -0.1887
  532MOL0     O73314   4.139   2.500   2.516  0.3113 -0.1252  0.6790
  532MOL0     C73315   4.204   2.576   2.416  0.2019  0.0017 -0.4492
  532MOL0     C73316   4.341   2.630   2.450  0.2230  0.1095  0.3944
  532MOL0     C73317   4.351   2.702   2.586 -0.1602 -0.8830 -0.1896
  532MOL0     C73318   4.497   2.713   2.634 -0.2768 -0.8277 -0.0785
  532MOL0     C73319   4.498   2.798   2.755 -0.6690 -0.5933 -0.5653
  532MOL0     C73320   4.634   2.801   2.826  0.7895  0.4898 -1.0933
  532MOL0     C73321   4.730   2.907   2.770  0.2043  0.6580  0.0942
  532MOL0     C73322   4.859   2.909   2.851  0.3629 -0.1243 -0.8515
  532MOL0    Cl73323   4.974   3.003   2.764  0.2717  0.2807  0.0435
  532MOL0     C73324   3.937   2.502   2.375  0.2503 -0.0605 -0.9741
  532MOL0     C73325   3.793   2.508   2.380 -0.8046  0.0060  0.5687
  532MOL0     O73326   3.567   2.287   2.493 -0.2193  0.6555  0.2291
  532MOL0     C73327   3.285   2.271   2.518  0.4194  0.5295  0.6456
  532MOL0     C73328   3.154   2.258   2.505  0.2323 -0.7320  0.7415
  532MOL0     N73329   2.394   2.405   2.538 -0.1408 -0.5556 -0.0233
  532MOL0     N73330   2.332   2.459   2.641  0.1606  0.0983 -0.0336
  532MOL0     C73331   1.302   1.780   2.828 -0.4483  0.1732  0.4053
  532MOL0     C73332   1.214   1.680   2.876  0.3113 -0.4510 -0.1410
  532MOL0     C73333   0.922   1.382   2.912  0.7766 -0.5722 -0.0893
  532MOL0     C73334   0.848   1.457   2.820  0.0577  0.2156  0.2503
  532MOL0     C73335   0.727   1.408   2.765 -0.2510 -0.0675 -0.6186
  532MOL0     C73336   0.679   1.286   2.807 -0.3978  1.0304 -0.2081
  532MOL0     O73337   0.566   1.233   2.764 -0.0567  0.4271 -0.0879
  532MOL0     C73338   0.499   1.274   2.641 -1.3265  0.8601 -0.5612
  532MOL0     C73339   0.393   1.381   2.672  0.2206 -0.1547  0.5144
  532MOL0     C73340   0.290   1.356   2.775 -0.5540  0.2057 -0.1688
  532MOL0     C73341   0.201   1.241   2.749 -0.3275 -0.2751  0.2058
  532MOL0     C73342   0.142   1.257   2.613 -0.5684  1.2302 -0.6281
  532MOL0     C73343   0.097   1.268   2.502 -0.2975 -0.6518 -0.7839
  532MOL0     C73344   0.753   1.206   2.892  0.0688  0.5499  0.4716
  532MOL0     C73345   0.882   1.253   2.936  0.0109  0.2018  0.6052
  532MOL0     C73346   0.973   1.163   3.015 -0.0734  0.5012  0.5452
  532MOL0     H73347   1.397   1.425   2.738  0.3669  1.0581 -3.6042
  532MOL0     H73348   1.546   1.590   2.690  0.3805  2.0067  1.0094
  532MOL0     H73349   1.633   1.767   2.589  0.1690 -1.4249  1.4511
  532MOL0     H73350   1.707   1.776   2.749  2.0164  0.9188 -1.5412
  532MOL0     H73351   1.761   1.938   2.548 -0.4089  0.6517 -0.6859
  532MOL0     H73352   1.609   2.018   2.595  0.9323  1.6977  1.1354
  532MOL0     H73353   1.790   2.139   2.705 -0.0385  0.0794  0.5437
  532MOL0     H73354   1.700   2.049   2.831  0.7443 -0.8045  1.6087
  532MOL0     H73355   1.874   1.877   2.848 -0.9971 -0.8544 -0.5055
  532MOL0     H73356   1.946   1.935   2.702  0.5401  2.9706 -0.4086
  532MOL0     H73357   2.075   1.987   2.904  0.4390  0.1575 -1.0677
  532MOL0     H73358   1.949   2.087   2.972 -0.3820 -0.5931 -0.3882
  532MOL0     H73359   2.118   2.123   2.726  0.2480 -1.8486  1.2252
  532MOL0     H73360   1.989   2.249   2.772  1.3499  1.9917  2.3581
  532MOL0     H73361   2.240   2.190   2.931  0.8393 -0.7886 -1.4261
  532MOL0     H73362   2.090   2.281   2.983 -1.0748 -3.5082  1.2081
  532MOL0     H73363   2.141   2.450   2.823 -0.0534 -1.1131 -0.6310
  532MOL0     H73364   2.274   2.427   2.933  0.3815 -0.4119 -0.1035
  532MOL0     H73365   2.374   2.141   2.729 -1.1198 -0.4411 -0.4075
  532MOL0     H73366   2.459   2.233   2.364  0.2891 -0.1881 -0.6371
  532MOL0     H73367   2.415   2.093   2.476 -1.4826 -0.5460 -1.4774
  532MOL0     H73368   2.639   2.116   2.587 -1.7710 -1.2321  0.8252
  532MOL0     H73369   2.644   2.081   2.411 -2.7912 -0.5252  0.4974
  532MOL0     H73370   2.714   2.309   2.363 -0.4287 -0.5147 -0.3000
  532MOL0     H73371   2.695   2.361   2.533 -0.7770 -2.2527  2.1915
  532MOL0     H73372   2.884   2.200   2.588  2.2715 -0.6778 -1.0114
  532MOL0     H73373   2.921   2.193   2.416 -1.9888 -3.1909  0.8461
  532MOL0     H73374   3.084   2.584   2.498 -1.3010 -1.4186  2.4850
  532MOL0     H73375   3.397   2.643   2.340 -2.2116 -0.6170 -1.5104
  532MOL0     H73376   3.401   2.696   2.500 -1.2443  0.8323 -0.5966
  532MOL0     H73377   3.257   2.727   2.397  1.1603  2.7411  0.2676
  532MOL0     H73378   3.726   2.503   2.712  0.4851  3.3644 -0.4087
  532MOL0     H73379   3.995   2.468   2.711  3.3420  1.8273 -2.3091
  532MOL0     H73380   4.206   2.524   2.320  0.4088  2.7729 -2.0607
  532MOL0     H73381   4.145   2.666   2.395  0.3496 -0.1674 -1.6811
  532MOL0     H73382   4.404   2.541   2.442 -1.4793 -0.9940 -2.6532
  532MOL0     H73383   4.362   2.703   2.371 -1.3441  0.8728  0.6259
  532MOL0     H73384   4.289   2.646   2.657  0.2291 -0.5084  0.4550
  532MOL0     H73385   4.306   2.801   2.571 -1.1349 -1.6335 -2.5675
  532MOL0     H73386   4.564   2.749   2.555  2.4559  0.1066  2.4677
  532MOL0     H73387   4.541   2.620   2.670 -1.0263 -0.4257  2.0145
  532MOL0     H73388   4.464   2.896   2.722 -1.9629 -1.5840 -2.3636
  532MOL0     H73389   4.421   2.764   2.825 -0.5565 -0.1024 -0.1975
  532MOL0     H73390   4.679   2.701   2.827  1.6854  0.8653  0.7351
  532MOL0     H73391   4.622   2.833   2.930 -2.7090 -1.0246 -0.8881
  532MOL0     H73392   4.687   3.007   2.781  2.2098  1.4793  1.0893
  532MOL0     H73393   4.753   2.896   2.664 -0.2295 -0.7299  0.1332
  532MOL0     H73394   4.905   2.809   2.847  2.1674  0.6547 -0.4793
  532MOL0     H73395   4.850   2.952   2.951  1.3381  0.2019 -0.8915
  532MOL0     H73396   3.988   2.512   2.280  0.7663  1.1020 -0.5855
  532MOL0     H73397   3.731   2.516   2.291  1.5057  1.4085 -1.0449
  532MOL0     H73398   3.341   2.180   2.535  0.4769  0.4463  0.0341
  532MOL0     H73399   3.111   2.160   2.523 -2.1134  0.0572 -0.1572
  532MOL0     H73400   1.280   1.885   2.846 -0.8714  0.2562 -0.5201
  532MOL0     H73401   1.130   1.710   2.937 -0.3317  2.7976 -2.4139
  532MOL0     H73402   0.896   1.548   2.786  2.2000 -0.7195  0.6146
  532MOL0     H73403   0.673   1.469   2.694 -0.1729 -1.7878 -2.2282
  532MOL0     H73404   0.573   1.300   2.566  0.6184 -0.6746  0.7153
  532MOL0     H73405   0.437   1.190   2.608 -1.8776  0.5770  1.0619
  532MOL0     H73406   0.340   1.410   2.581 -0.4581  0.6362  1.1449
  532MOL0     H73407   0.454   1.469   2.695  1.9574 -0.3859 -2.6166
  532MOL0     H73408   0.340   1.338   2.871 -0.0770 -1.1803 -0.6406
  532MOL0     H73409   0.235   1.448   2.794  2.4286  2.1690 -0.4648
  532MOL0     H73410   0.120   1.234   2.823 -1.8701  2.7553 -1.0290
  532MOL0     H73411   0.259   1.149   2.761  2.1953  0.9215 -1.8287
  532MOL0     H73412   0.066   1.273   2.399 -0.7388 -1.2802 -0.6912
  532MOL0     H73413   0.715   1.106   2.913 -0.8260  0.6287 -0.6403
  532MOL0     H73414   1.071   1.166   2.966  0.0230 -2.4435  0.3232
  532MOL0     H73415   0.970   1.200   3.117 -0.8638  1.7232  0.1002
  532MOL0     H73416   0.941   1.058   3.011  1.8921 -0.3107  3.4481
  533MOL0     O73417   2.963   9.109   4.334  0.4053  0.2724  0.0751
  533MOL0     C73418   2.873   9.185   4.368 -0.0963  0.8174 -0.1462
  533MOL0     O73419   2.882   9.318   4.360  0.4764  0.2696 -0.6231
  533MOL0     C73420   3.010   9.374   4.336 -0.3952  0.6549  1.4108
  533MOL0     C73421   3.056   9.375   4.203  0.1513 -0.9302  0.3455
  533MOL0     C73422   3.189   9.422   4.163 -0.0397 -0.1585  0.2007
  533MOL0     C73423   3.260   9.490   4.262 -0.3681 -0.4478  0.3584
  533MOL0     O73424   3.372   9.549   4.218 -0.6544 -0.1059 -0.1834
  533MOL0     C73425   3.425   9.648   4.304 -0.5759 -0.2081  0.6242
  533MOL0     C73426   3.545   9.713   4.243  0.5859  1.0661 -0.4171
  533MOL0     C73427   3.668   9.627   4.248 -0.6486  0.1391  0.4625
  533MOL0     C73428   3.776   9.685   4.144  0.3162 -0.4784  0.7064
  533MOL0     C73429   3.907   9.707   4.229  0.2191  0.2631 -0.1318
  533MOL0     C73430   4.008   9.795   4.163 -0.4341 -0.3816  0.3059
  533MOL0     C73431   4.043   9.748   4.021  0.0957 -0.2492 -0.6182
  533MOL0     C73432   4.113   9.616   4.023  0.4360 -1.0737  0.2805
  533MOL0     N73433   4.217   9.599   4.123  0.1571  0.2807  0.4250
  533MOL0     C73434   4.338   9.657   4.104 -0.7005  0.3116  0.3372
  533MOL0     C73435   4.417   9.592   4.193 -1.2125  0.0814  0.6703
  533MOL0     C73436   4.561   9.619   4.216  0.1698 -0.1150  0.0536
  533MOL0     C73437   4.620   9.549   4.341 -0.0625  0.9765 -0.6320
  533MOL0     C73438   4.767   9.570   4.353  0.0260  0.5753  0.4959
  533MOL0     C73439   4.838   9.497   4.469 -0.5242  0.9732 -1.0505
  533MOL0     O73440   4.764   9.481   4.595 -0.7509  0.5895 -0.8170
  533MOL0     C73441   4.826   9.417   4.700 -0.8529 -0.1132  0.0307
  533MOL0     C73442   4.751   9.365   4.808 -0.1640 -0.0003  0.0049
  533MOL0     C73443   4.816   9.301   4.916  0.0658  1.0690  0.2571
  533MOL0     C73444   4.723   9.231   5.011  0.6543  0.5341 -0.4836
  533MOL0     C73445   4.958   9.280   4.915 -0.3169  0.0701  0.0729
  533MOL0     C73446   5.039   9.203   5.028  0.0478 -0.0778  0.3244
  533MOL0     O73447   5.179   9.213   5.021  0.8045  0.1223  0.0098
  533MOL0     C73448   5.254   9.156   5.121 -0.2816  0.0625 -0.5636
  533MOL0     C73449   5.294   9.230   5.228  0.6085 -0.6207  0.4445
  533MOL0     C73450   5.362   9.174   5.332  0.2815  1.0242  0.0797
  533MOL0     C73451   5.384   9.032   5.343  0.3351 -0.1776  0.7851
  533MOL0     O73452   5.457   8.966   5.437  0.5279 -0.4657  0.3243
  533MOL0     C73453   5.501   9.011   5.561 -0.2686  0.6422 -0.5652
  533MOL0     C73454   5.383   9.022   5.650 -0.8660 -0.5796  0.5295
  533MOL0     C73455   5.335   8.893   5.693 -0.1660 -0.2235 -0.5113
  533MOL0     C73456   5.236   8.920   5.810 -0.5655  0.4346  0.5477
  533MOL0     C73457   5.153   8.787   5.822 -0.1468  0.0620  0.6374
  533MOL0     C73458   5.072   8.800   5.948 -0.4766 -0.1114  0.5503
  533MOL0     C73459   5.003   8.675   6.000 -0.4876 -0.0598  0.0276
  533MOL0     C73460   4.945   8.714   6.127 -0.5114  0.1621  0.0481
  533MOL0    Cl73461   4.858   8.576   6.199 -0.0370 -0.3745 -0.3180
  533MOL0     C73462   5.338   8.956   5.229 -0.3027 -0.3698 -0.1879
  533MOL0     C73463   5.281   9.021   5.122  0.0025  0.4802 -0.4248
  533MOL0     O73464   4.971   9.140   5.107  0.4301 -0.0253 -0.1699
  533MOL0     C73465   5.035   9.332   4.807  0.2431  0.8163  0.3481
  533MOL0     C73466   4.967   9.399   4.699  0.7119 -0.5557 -0.0920
  533MOL0     N73467   4.340   9.504   4.277  0.1317  1.3626  0.4494
  533MOL0     N73468   4.218   9.511   4.226  0.2263  0.0074 -0.0139
  533MOL0     C73469   3.224   9.477   4.395 -0.0378  0.6948 -0.3190
  533MOL0     C73470   3.105   9.410   4.430  0.1870 -0.8559 -0.1488
  533MOL0     C73471   2.751   9.120   4.436  0.3916 -0.4274 -0.0267
  533MOL0     C73472   2.700   9.194   4.543  0.9303 -0.2420  0.2452
  533MOL0     C73473   2.587   9.148   4.621 -0.0662  0.3114  0.5693
  533MOL0     C73474   2.534   9.022   4.585  0.3030  0.1899 -0.9968
  533MOL0     O73475   2.426   8.976   4.664  1.0695 -0.5327  0.8955
  533MOL0     C73476   2.370   8.843   4.663 -0.2368 -0.9433 -0.6623
  533MOL0     C73477   2.251   8.837   4.561  0.3024 -0.4052  0.7656
  533MOL0     C73478   2.146   8.945   4.595 -0.2076 -0.5683 -0.1417
  533MOL0     C73479   2.016   8.911   4.529 -0.2660  0.9558 -0.0723
  533MOL0     C73480   2.033   8.867   4.388  0.6021 -0.4910  0.7241
  533MOL0     C73481   2.059   8.819   4.281  0.1246 -0.4397  0.3715
  533MOL0     C73482   2.594   8.943   4.492 -0.2857 -0.1825  0.9536
  533MOL0     C73483   2.703   8.987   4.409 -0.6735  0.3655 -0.1131
  533MOL0     C73484   2.761   8.902   4.304 -0.5405  0.9583  0.3368
  533MOL0     H73485   2.999   9.339   4.118 -1.4291  0.9016  0.5425
  533MOL0     H73486   3.229   9.419   4.062 -0.9464 -1.3154 -0.1462
  533MOL0     H73487   3.463   9.598   4.394  2.9824 -0.2896 -0.7597
  533MOL0     H73488   3.354   9.730   4.316  0.4136  0.7558  0.0852
  533MOL0     H73489   3.521   9.729   4.138  1.8412  2.9945 -0.4555
  533MOL0     H73490   3.568   9.806   4.296 -2.2124  0.6529  1.7889
  533MOL0     H73491   3.691   9.609   4.353 -0.8170  2.9796  1.0858
  533MOL0     H73492   3.632   9.530   4.213 -0.5979  0.7911 -1.5566
  533MOL0     H73493   3.801   9.619   4.061  0.0497  2.3997 -1.8495
  533MOL0     H73494   3.741   9.773   4.088  0.0265 -1.8085 -1.3035
  533MOL0     H73495   3.955   9.610   4.246 -0.1714  0.0824 -0.0229
  533MOL0     H73496   3.877   9.757   4.322 -0.9372 -1.8508  0.7176
  533MOL0     H73497   3.976   9.899   4.158  0.6547 -0.0232  0.5951
  533MOL0     H73498   4.102   9.800   4.219  0.5759  1.2358 -1.4354
  533MOL0     H73499   4.114   9.818   3.977  0.9077 -1.8175 -1.9160
  533MOL0     H73500   3.954   9.742   3.958 -0.2315 -1.8953 -0.0518
  533MOL0     H73501   4.039   9.536   4.030  1.5262 -2.3761 -2.0366
  533MOL0     H73502   4.166   9.599   3.929  1.6053  0.1702  0.6820
  533MOL0     H73503   4.365   9.731   4.028 -2.1919 -0.3483 -0.8954
  533MOL0     H73504   4.562   9.728   4.231 -1.7089  0.0826 -0.8968
  533MOL0     H73505   4.612   9.588   4.124  0.8278  0.5023  0.2048
  533MOL0     H73506   4.578   9.588   4.435 -1.5487 -0.7073 -0.5418
  533MOL0     H73507   4.607   9.441   4.348  1.0033  0.9354  2.1153
  533MOL0     H73508   4.824   9.540   4.265 -0.2680  1.2355  0.0737
  533MOL0     H73509   4.778   9.679   4.360 -2.9557  0.9815  0.4243
  533MOL0     H73510   4.879   9.402   4.435  0.9195  2.2528 -3.0654
  533MOL0     H73511   4.924   9.558   4.497  0.2823 -0.3887 -0.4568
  533MOL0     H73512   4.644   9.383   4.809  0.1190  2.1601  2.4873
  533MOL0     H73513   4.619   9.263   4.994  0.0083 -1.4023 -0.3649
  533MOL0     H73514   4.746   9.270   5.110 -0.0591  4.2630 -1.6035
  533MOL0     H73515   4.731   9.124   4.992 -0.5562  0.4872 -0.8381
  533MOL0     H73516   5.275   9.337   5.217 -1.1846 -0.9291  0.3503
  533MOL0     H73517   5.385   9.251   5.406 -0.9874  1.3707  0.1356
  533MOL0     H73518   5.576   8.943   5.605 -0.4016 -0.5414 -2.0960
  533MOL0     H73519   5.556   9.105   5.554 -0.1355  0.6921  0.8058
  533MOL0     H73520   5.412   9.089   5.732  0.6390  1.4287 -1.5260
  533MOL0     H73521   5.305   9.074   5.594 -1.7329 -1.5480  0.7954
  533MOL0     H73522   5.409   8.818   5.720  0.4294  1.1274  1.9651
  533MOL0     H73523   5.282   8.849   5.609 -1.4074 -1.3421  0.8043
  533MOL0     H73524   5.176   9.006   5.779  1.3008  2.1499  1.4553
  533MOL0     H73525   5.297   8.949   5.896 -0.1185 -0.8376  0.6818
  533MOL0     H73526   5.093   8.775   5.731 -1.2687  3.4644  0.8198
  533MOL0     H73527   5.225   8.706   5.835 -1.9785 -1.8558 -0.4704
  533MOL0     H73528   4.996   8.878   5.940 -1.5423 -0.9294  2.0161
  533MOL0     H73529   5.138   8.849   6.020  0.8160  3.8831 -2.9715
  533MOL0     H73530   5.068   8.587   6.009  0.2456  0.3954 -0.6412
  533MOL0     H73531   4.922   8.648   5.933  0.8375  0.4367 -1.8434
  533MOL0     H73532   4.861   8.783   6.113 -1.0261 -0.7483 -1.6651
  533MOL0     H73533   5.014   8.768   6.191 -2.8921  3.8809 -0.2313
  533MOL0     H73534   5.339   8.848   5.237 -4.2640 -0.4715  1.2708
  533MOL0     H73535   5.250   8.968   5.032  0.0241  1.5121 -1.0469
  533MOL0     H73536   5.142   9.315   4.795  0.3393  1.1064  0.7913
  533MOL0     H73537   5.031   9.433   4.618 -2.0108  2.6276 -1.1199
  533MOL0     H73538   3.265   9.522   4.485 -3.4489  2.4119  0.5450
  533MOL0     H73539   3.081   9.405   4.536 -1.6083 -3.4227 -0.5659
  533MOL0     H73540   2.741   9.291   4.570  2.7671 -1.3355  1.7166
  533MOL0     H73541   2.542   9.202   4.704  0.2803  0.9003  0.3821
  533MOL0     H73542   2.441   8.760   4.657  0.4655 -0.4118  0.0738
  533MOL0     H73543   2.330   8.839   4.765  0.2826  1.2539 -0.3253
  533MOL0     H73544   2.213   8.736   4.548  0.4901 -0.1744 -2.5049
  533MOL0     H73545   2.292   8.866   4.464 -0.8370  2.2775  0.9902
  533MOL0     H73546   2.133   8.959   4.703  1.4844  1.0579 -0.1000
  533MOL0     H73547   2.182   9.042   4.560 -0.6830  0.5542  2.2254
  533MOL0     H73548   1.967   9.008   4.517  1.5237  1.8024 -0.9472
  533MOL0     H73549   1.959   8.848   4.598  0.5767 -0.3036 -0.4968
  533MOL0     H73550   2.081   8.798   4.178  0.5959 -0.7366  0.5290
  533MOL0     H73551   2.553   8.844   4.479 -0.2852 -0.1286  0.5389
  533MOL0     H73552   2.687   8.830   4.269  1.1733 -1.0620  0.6698
  533MOL0     H73553   2.794   8.961   4.218  0.0413 -1.9105 -1.5494
  533MOL0     H73554   2.851   8.848   4.335 -1.4153  0.5536  2.3492
  534MOL0     O73555   1.486   3.303   6.687 -0.7473 -0.0303  0.1138
  534MOL0     C73556   1.369   3.334   6.716 -0.1746 -0.9967  0.3733
  534MOL0     O73557   1.328   3.357   6.840  0.0510  0.4364 -0.3650
  534MOL0     C73558   1.382   3.284   6.940 -0.1222 -0.5738 -0.2396
  534MOL0     C73559   1.502   3.311   7.016 -0.0857  0.1709 -0.6036
  534MOL0     C73560   1.544   3.230   7.127  0.5533  0.4185  0.4733
  534MOL0     C73561   1.467   3.111   7.146 -0.2000  0.1734  0.0569
  534MOL0     O73562   1.507   3.031   7.252  0.0927  0.2455 -0.3536
  534MOL0     C73563   1.530   2.896   7.208  0.0242  0.7205 -0.4264
  534MOL0     C73564   1.626   2.813   7.297 -0.1052 -0.0243  0.7401
  534MOL0     C73565   1.777   2.846   7.276  0.0836 -0.4953  0.5298
  534MOL0     C73566   1.854   2.785   7.398  0.4729  0.0381  0.2891
  534MOL0     C73567   1.999   2.823   7.385  0.1384 -0.6740 -0.0645
  534MOL0     C73568   2.075   2.739   7.485 -1.1245 -0.0886  0.2518
  534MOL0     C73569   2.213   2.804   7.525  0.4922 -0.0427 -0.3127
  534MOL0     C73570   2.283   2.714   7.624  0.5489  0.4032 -0.1610
  534MOL0     N73571   2.419   2.771   7.637 -0.1694 -0.3112 -0.0902
  534MOL0     C73572   2.527   2.719   7.573 -0.3059 -0.2442  1.1297
  534MOL0     C73573   2.631   2.793   7.615 -0.3459 -1.0244 -0.5659
  534MOL0     C73574   2.779   2.778   7.572  0.1008 -1.1784  0.1701
  534MOL0     C73575   2.874   2.888   7.621  1.0926 -0.2560 -0.1434
  534MOL0     C73576   3.012   2.821   7.653  0.1435 -0.4629  0.0507
  534MOL0     C73577   3.112   2.918   7.723  0.0917 -0.6166  0.7276
  534MOL0     O73578   3.224   2.839   7.782 -0.0251 -0.3894  0.5608
  534MOL0     C73579   3.351   2.898   7.778  0.8882  0.3122 -0.5914
  534MOL0     C73580   3.377   3.037   7.807 -0.4382  0.1639 -0.7990
  534MOL0     C73581   3.504   3.088   7.810 -0.2080 -0.8606  0.0277
  534MOL0     C73582   3.513   3.244   7.804  0.3305  0.2419 -0.7202
  534MOL0     C73583   3.615   3.000   7.794  1.5080 -0.2023  0.5357
  534MOL0     C73584   3.749   3.049   7.800 -0.7655 -0.1200 -0.6433
  534MOL0     O73585   3.838   2.981   7.732 -0.3901 -0.4081  0.4410
  534MOL0     C73586   3.967   3.026   7.742 -0.3227  0.1425  0.4150
  534MOL0     C73587   4.064   2.947   7.809 -0.5698  0.2186 -0.0325
  534MOL0     C73588   4.198   2.994   7.822  0.7422  0.7763 -0.1817
  534MOL0     C73589   4.240   3.099   7.744  0.7523  0.3098 -0.9271
  534MOL0     O73590   4.368   3.131   7.749 -0.2044  0.1772 -0.3355
  534MOL0     C73591   4.396   3.267   7.752 -0.3246 -0.2978  0.0458
  534MOL0     C73592   4.537   3.303   7.805 -0.3462 -0.2735 -0.3283
  534MOL0     C73593   4.655   3.224   7.755  0.4378 -0.0683  0.7101
  534MOL0     C73594   4.695   3.228   7.603 -0.2278 -0.4158 -0.2566
  534MOL0     C73595   4.759   3.365   7.572 -0.3801 -0.0330 -0.1012
  534MOL0     C73596   4.766   3.387   7.425  0.5500 -0.0475  0.0476
  534MOL0     C73597   4.843   3.287   7.339  0.1399  0.6086 -0.6631
  534MOL0     C73598   4.988   3.267   7.365 -0.3769  0.0211 -0.3426
  534MOL0    Cl73599   5.076   3.155   7.252  0.0351  0.0609  0.1336
  534MOL0     C73600   4.143   3.182   7.683  1.2698 -0.1236  0.5389
  534MOL0     C73601   4.008   3.142   7.677 -0.2297 -0.2395  0.0313
  534MOL0     O73602   3.781   3.134   7.883  0.9148 -0.5449 -0.2553
  534MOL0     C73603   3.586   2.870   7.759  0.2454 -0.7513  0.0560
  534MOL0     C73604   3.455   2.817   7.756 -0.4964  0.2250  0.4343
  534MOL0     N73605   2.582   2.878   7.714 -0.4694  0.1084 -0.6678
  534MOL0     N73606   2.462   2.855   7.730  0.5392 -0.2524  0.1488
  534MOL0     C73607   1.350   3.082   7.076 -0.0807  0.2280  0.1174
  534MOL0     C73608   1.305   3.169   6.975 -0.3114 -0.5106  0.3495
  534MOL0     C73609   1.283   3.370   6.602  0.0933 -0.2248  0.6023
  534MOL0     C73610   1.341   3.449   6.491  0.2818  1.0105  0.3255
  534MOL0     C73611   1.258   3.498   6.390  0.2883  0.7248  0.2173
  534MOL0     C73612   1.120   3.459   6.384 -0.1859  0.0147  0.2460
  534MOL0     O73613   1.039   3.511   6.287 -0.2001  0.1167 -0.0533
  534MOL0     C73614   1.083   3.601   6.179 -0.6593  0.1659 -1.2110
  534MOL0     C73615   1.039   3.740   6.230 -0.8368  0.2538  0.4814
  534MOL0     C73616   0.906   3.768   6.155  0.9676 -0.4459  0.7128
  534MOL0     C73617   0.937   3.807   6.008  0.1589 -0.0300  0.0490
  534MOL0     C73618   0.812   3.839   5.945 -0.4887  0.3399 -0.7680
  534MOL0     C73619   0.704   3.854   5.895 -0.8646 -0.1006  0.0810
  534MOL0     C73620   1.072   3.374   6.478  0.0584 -0.0358 -0.2550
  534MOL0     C73621   1.152   3.328   6.589  0.5586 -0.4920 -0.3241
  534MOL0     C73622   1.092   3.229   6.693 -0.2881  0.7591  0.8184
  534MOL0     H73623   1.562   3.396   6.987  0.5514  0.8156  2.2611
  534MOL0     H73624   1.633   3.253   7.186  0.2680  0.8333  0.7460
  534MOL0     H73625   1.561   2.887   7.104 -2.9436 -1.7496 -1.2234
  534MOL0     H73626   1.431   2.852   7.212 -0.0050  0.7063  3.9071
  534MOL0     H73627   1.605   2.828   7.404  0.4219 -0.1363  0.8605
  534MOL0     H73628   1.617   2.706   7.275  1.1821  0.0813 -0.3886
  534MOL0     H73629   1.806   2.792   7.185 -2.9514  0.9919 -1.5190
  534MOL0     H73630   1.798   2.951   7.253 -1.2400 -0.3863 -0.3155
  534MOL0     H73631   1.837   2.831   7.496  1.4613 -0.8836  0.9181
  534MOL0     H73632   1.820   2.681   7.411 -3.3005  1.3056  2.2362
  534MOL0     H73633   2.020   2.930   7.396  2.3544 -0.7088 -2.8508
  534MOL0     H73634   2.037   2.803   7.284 -3.0290 -1.0194 -1.3141
  534MOL0     H73635   2.015   2.731   7.576  1.4180  2.4445  2.3413
  534MOL0     H73636   2.088   2.635   7.451 -0.8706  1.0882 -3.7088
  534MOL0     H73637   2.197   2.901   7.571  0.7254  0.3794 -1.1050
  534MOL0     H73638   2.265   2.818   7.430 -0.6416 -2.8833 -1.5044
  534MOL0     H73639   2.229   2.728   7.718 -0.3155  2.2754 -0.8744
  534MOL0     H73640   2.271   2.610   7.592 -1.0354 -0.3997  2.7575
  534MOL0     H73641   2.516   2.632   7.509  1.2947 -0.8754  1.6513
  534MOL0     H73642   2.781   2.785   7.463  0.1474 -0.5958  0.2009
  534MOL0     H73643   2.798   2.676   7.605  1.4967 -0.9187  0.2125
  534MOL0     H73644   2.887   2.963   7.542 -1.1037  2.6467  2.0415
  534MOL0     H73645   2.826   2.945   7.700 -2.1074 -2.4505 -0.3103
  534MOL0     H73646   2.992   2.736   7.720 -0.8941  0.4363  0.9258
  534MOL0     H73647   3.059   2.778   7.565 -1.3443 -1.4401 -0.3136
  534MOL0     H73648   3.146   2.994   7.652 -0.3089 -0.2107  0.9655
  534MOL0     H73649   3.058   2.977   7.798  0.1928 -0.9324  1.0512
  534MOL0     H73650   3.290   3.096   7.833  0.9043  1.0870  1.9923
  534MOL0     H73651   3.508   3.286   7.703  0.2413 -1.1110 -1.2986
  534MOL0     H73652   3.605   3.281   7.851 -0.3835  0.8150  0.2634
  534MOL0     H73653   3.432   3.296   7.855  1.3224  3.3895 -2.0735
  534MOL0     H73654   4.027   2.860   7.862 -2.4396  0.4327 -0.9006
  534MOL0     H73655   4.272   2.931   7.871  1.9924  1.0145 -1.6716
  534MOL0     H73656   4.407   3.290   7.645 -0.3458 -3.4866 -0.7457
  534MOL0     H73657   4.316   3.327   7.797 -0.4524  1.1467 -1.9389
  534MOL0     H73658   4.548   3.411   7.791 -1.2942 -0.1913 -0.4819
  534MOL0     H73659   4.528   3.292   7.913  1.1780 -2.7289 -0.3639
  534MOL0     H73660   4.647   3.121   7.792  0.1913 -0.0546  0.6952
  534MOL0     H73661   4.740   3.259   7.815 -0.4504  0.5784  1.6318
  534MOL0     H73662   4.611   3.222   7.533  0.7003 -1.4434 -1.3262
  534MOL0     H73663   4.758   3.142   7.578 -0.0490 -0.1379 -0.7592
  534MOL0     H73664   4.691   3.435   7.621 -2.1232 -1.0256 -0.9730
  534MOL0     H73665   4.859   3.369   7.615  0.0651  2.3205 -1.1834
  534MOL0     H73666   4.807   3.486   7.398 -0.9012  0.4898 -0.2678
  534MOL0     H73667   4.663   3.381   7.388  0.8616 -0.4267 -0.7846
  534MOL0     H73668   4.830   3.305   7.233 -0.2876 -4.2783 -1.6822
  534MOL0     H73669   4.801   3.186   7.343  0.7532  0.3164 -1.3479
  534MOL0     H73670   5.010   3.222   7.463  2.2350 -0.5516 -1.1204
  534MOL0     H73671   5.037   3.364   7.358  0.6010 -0.4927 -0.7350
  534MOL0     H73672   4.178   3.265   7.622 -3.4869  0.1336 -2.2821
  534MOL0     H73673   3.938   3.200   7.618 -1.2884 -0.2594  1.2290
  534MOL0     H73674   3.675   2.810   7.744  0.1464 -0.8494 -0.1533
  534MOL0     H73675   3.425   2.714   7.737  0.6441 -0.0633  0.1512
  534MOL0     H73676   1.308   2.983   7.086 -1.2114  0.2923 -3.0485
  534MOL0     H73677   1.222   3.134   6.916  0.6908 -1.0433 -0.7994
  534MOL0     H73678   1.449   3.453   6.479  0.5475 -0.4608  1.7510
  534MOL0     H73679   1.299   3.558   6.310 -2.1789  0.7848 -1.1097
  534MOL0     H73680   1.190   3.594   6.159 -0.6134  1.0309 -1.2866
  534MOL0     H73681   1.043   3.587   6.078  0.7519  1.6658 -2.0141
  534MOL0     H73682   1.114   3.818   6.213 -1.2787  0.5442 -0.1984
  534MOL0     H73683   1.024   3.741   6.338  1.6831  3.1666  0.9331
  534MOL0     H73684   0.838   3.683   6.171  0.7385 -0.6311 -1.0049
  534MOL0     H73685   0.857   3.855   6.199 -0.5930 -0.0791 -1.5663
  534MOL0     H73686   0.971   3.727   5.942  1.4434  1.4233 -1.1135
  534MOL0     H73687   0.998   3.897   6.012  0.1474 -0.0468  0.7785
  534MOL0     H73688   0.610   3.848   5.844 -0.3630  1.6651 -1.1418
  534MOL0     H73689   0.967   3.352   6.465 -0.3870  1.7560  0.0053
  534MOL0     H73690   0.992   3.203   6.657  0.3467  1.5498 -1.7264
  534MOL0     H73691   1.149   3.136   6.696  0.2229  0.3985 -5.7126
  534MOL0     H73692   1.090   3.274   6.793 -2.4481 -0.7173  1.5019
  535MOL0     O73693   2.947   8.756   2.949 -0.1133 -0.2081  0.9284
  535MOL0     C73694   2.890   8.840   3.014 -0.1852 -1.2330  0.4494
  535MOL0     O73695   2.906   8.862   3.144 -0.4552  0.4923  0.6875
  535MOL0     C73696   2.986   8.774   3.200 -0.0346 -0.5151  0.5960
  535MOL0     C73697   3.117   8.806   3.238  0.3308 -0.4367 -0.1946
  535MOL0     C73698   3.204   8.717   3.300 -0.0666 -0.1810  0.5108
  535MOL0     C73699   3.146   8.594   3.340 -0.2662  0.3053  0.4660
  535MOL0     O73700   3.213   8.496   3.403 -0.7825 -0.0175  0.0378
  535MOL0     C73701   3.356   8.474   3.383  0.3444 -1.4962 -0.4230
  535MOL0     C73702   3.378   8.394   3.258  0.0524 -0.0341 -0.5430
  535MOL0     C73703   3.533   8.377   3.218 -0.4475  0.1243 -0.5356
  535MOL0     C73704   3.569   8.268   3.111  0.5124  0.1542 -0.1006
  535MOL0     C73705   3.711   8.242   3.069 -0.0571  0.5894  0.4928
  535MOL0     C73706   3.768   8.338   2.963 -0.1165  0.1878 -0.0849
  535MOL0     C73707   3.908   8.280   2.911  0.7171  0.0227  1.0255
  535MOL0     C73708   3.965   8.370   2.800 -0.6427  0.8976  0.0921
  535MOL0     N73709   4.112   8.400   2.832 -0.0106 -0.2760 -0.1709
  535MOL0     C73710   4.163   8.528   2.815 -0.9518 -0.1834 -0.3660
  535MOL0     C73711   4.297   8.513   2.821  0.1634  0.4582 -0.1955
  535MOL0     C73712   4.398   8.621   2.838 -0.6102  0.9797 -0.3785
  535MOL0     C73713   4.518   8.578   2.757 -1.0773 -0.2758  0.0722
  535MOL0     C73714   4.609   8.700   2.755  0.8052  0.1383 -0.1648
  535MOL0     C73715   4.746   8.660   2.687 -0.2528  0.1542  0.0391
  535MOL0     O73716   4.846   8.757   2.691 -0.2893 -0.7424 -0.7531
  535MOL0     C73717   4.955   8.742   2.612  0.5496  1.0348 -0.5807
  535MOL0     C73718   5.024   8.857   2.597 -0.4326  0.3982  1.0590
  535MOL0     C73719   5.130   8.869   2.507 -0.2643 -0.2144  0.4289
  535MOL0     C73720   5.217   8.992   2.506 -0.3147 -0.5403 -0.5749
  535MOL0     C73721   5.161   8.751   2.427  0.1078  0.2835  0.5297
  535MOL0     C73722   5.278   8.753   2.327  1.6850  0.2956  0.0105
  535MOL0     O73723   5.350   8.636   2.327  0.1741 -0.1601  0.1202
  535MOL0     C73724   5.459   8.597   2.258 -0.6165 -0.0174 -0.2314
  535MOL0     C73725   5.541   8.495   2.302  0.0309  0.1910  0.5397
  535MOL0     C73726   5.661   8.448   2.225 -0.1655  0.3095  1.0784
  535MOL0     C73727   5.693   8.509   2.104  0.8506  0.8621 -0.5291
  535MOL0     O73728   5.802   8.479   2.023  0.4274  0.2805  0.8590
  535MOL0     C73729   5.883   8.364   2.070 -0.6156  0.3335  0.7661
  535MOL0     C73730   6.006   8.337   1.977 -0.5110  0.1425  0.6808
  535MOL0     C73731   6.120   8.270   2.066 -0.5259  0.0864 -0.1363
  535MOL0     C73732   6.231   8.241   1.961 -0.7673 -0.3752 -0.2926
  535MOL0     C73733   6.347   8.169   2.040 -0.6496  0.3096  0.7435
  535MOL0     C73734   6.462   8.132   1.951 -0.4251  0.1723  0.0120
  535MOL0     C73735   6.535   8.259   1.892 -0.3293 -0.4884 -0.3399
  535MOL0     C73736   6.655   8.204   1.818  0.5257  0.3033  0.2032
  535MOL0    Cl73737   6.580   8.139   1.670 -0.0847 -0.1050 -0.3107
  535MOL0     C73738   5.605   8.614   2.068 -0.6771 -0.2919 -0.5677
  535MOL0     C73739   5.503   8.666   2.143  0.7861  0.6137 -0.1352
  535MOL0     O73740   5.303   8.853   2.259 -0.0474 -0.2947 -0.6597
  535MOL0     C73741   5.092   8.629   2.450 -0.2604  0.3948  0.1252
  535MOL0     C73742   4.981   8.627   2.535 -0.8201  0.0011  0.9216
  535MOL0     N73743   4.322   8.384   2.838  0.0811  0.1789 -0.2033
  535MOL0     N73744   4.215   8.307   2.848 -0.1264 -0.0335  0.0983
  535MOL0     C73745   3.017   8.559   3.290  1.0622  0.1679 -1.3763
  535MOL0     C73746   2.935   8.645   3.228 -0.0501  0.0645 -0.2293
  535MOL0     C73747   2.804   8.941   2.947  0.6743 -0.3631 -0.2604
  535MOL0     C73748   2.826   9.072   2.993 -0.1233  0.8944 -0.2211
  535MOL0     C73749   2.760   9.179   2.934  0.3554  0.7323 -0.5808
  535MOL0     C73750   2.669   9.146   2.830  0.8803  0.2107 -0.2574
  535MOL0     O73751   2.621   9.253   2.772  0.4929 -0.6106  0.1053
  535MOL0     C73752   2.511   9.235   2.674  1.1459 -0.0312 -0.3204
  535MOL0     C73753   2.475   9.371   2.620  0.1635 -0.4876 -0.7663
  535MOL0     C73754   2.435   9.459   2.740  0.1144 -0.4365 -0.2480
  535MOL0     C73755   2.400   9.607   2.698  0.3413  1.1975  0.7022
  535MOL0     C73756   2.495   9.663   2.599  0.7751  0.4246 -0.3478
  535MOL0     C73757   2.591   9.699   2.531  0.5125  0.4751  0.0910
  535MOL0     C73758   2.638   9.009   2.792  0.0906 -0.0807 -0.0021
  535MOL0     C73759   2.707   8.904   2.851  0.3302 -0.2671 -0.3718
  535MOL0     C73760   2.676   8.764   2.810 -0.4978 -0.3312  0.0938
  535MOL0     H73761   3.152   8.905   3.214 -0.4901  0.2549  1.3186
  535MOL0     H73762   3.304   8.735   3.339  0.3441 -2.9558  0.9249
  535MOL0     H73763   3.405   8.410   3.456  1.4438 -1.1101 -0.7915
  535MOL0     H73764   3.399   8.575   3.384 -1.8553 -0.4036 -3.1740
  535MOL0     H73765   3.331   8.295   3.266 -0.9830  0.5940  3.2004
  535MOL0     H73766   3.342   8.447   3.170 -0.0592 -0.6504 -0.8703
  535MOL0     H73767   3.577   8.471   3.185 -1.9572  0.4326 -1.7878
  535MOL0     H73768   3.599   8.365   3.305  1.1791  4.0998 -1.0231
  535MOL0     H73769   3.531   8.170   3.142 -1.7103  0.5009 -1.5019
  535MOL0     H73770   3.506   8.284   3.022  2.3466 -0.0153 -1.4920
  535MOL0     H73771   3.718   8.136   3.043 -0.5097  0.8461 -0.7586
  535MOL0     H73772   3.782   8.246   3.152  1.0000 -1.4870 -0.2305
  535MOL0     H73773   3.692   8.368   2.891 -1.7994 -3.9042 -0.2430
  535MOL0     H73774   3.793   8.429   3.019  0.2719  0.9441 -1.4648
  535MOL0     H73775   3.889   8.176   2.880  1.8171 -0.1360  0.8167
  535MOL0     H73776   3.981   8.272   2.992 -0.4341  0.0182  2.0907
  535MOL0     H73777   3.958   8.311   2.707  0.9174 -0.3899  0.7384
  535MOL0     H73778   3.913   8.466   2.799  1.1763  1.9332 -0.8279
  535MOL0     H73779   4.113   8.622   2.797  1.2266  0.5594 -3.2563
  535MOL0     H73780   4.410   8.620   2.947  0.6221 -0.0931 -0.4978
  535MOL0     H73781   4.355   8.715   2.804  1.7859  1.6636 -1.7333
  535MOL0     H73782   4.567   8.498   2.814 -1.0132  1.1009  2.0439
  535MOL0     H73783   4.488   8.544   2.658 -2.2545  1.6847 -0.2893
  535MOL0     H73784   4.558   8.775   2.696  1.3569 -0.3715 -1.3190
  535MOL0     H73785   4.632   8.739   2.855  0.2436  1.5582 -0.5779
  535MOL0     H73786   4.782   8.568   2.736 -1.0356 -0.4476 -0.4871
  535MOL0     H73787   4.714   8.635   2.586  0.0360  2.9635 -0.8249
  535MOL0     H73788   5.004   8.936   2.668  1.9100  0.7484  1.4137
  535MOL0     H73789   5.324   8.970   2.505 -0.2164 -0.0859 -2.5315
  535MOL0     H73790   5.205   9.067   2.585  0.8119 -0.0705 -0.8384
  535MOL0     H73791   5.199   9.046   2.413  0.6298 -3.2097 -2.4259
  535MOL0     H73792   5.503   8.452   2.394  0.3717 -0.9391  0.1700
  535MOL0     H73793   5.720   8.361   2.249  0.8783  0.0468 -2.0556
  535MOL0     H73794   5.916   8.388   2.172 -1.7518 -1.5296  1.6165
  535MOL0     H73795   5.819   8.276   2.078  4.0198 -3.5001  0.4790
  535MOL0     H73796   5.975   8.281   1.888 -0.7995  0.8895  0.3032
  535MOL0     H73797   6.050   8.431   1.942  0.6519  0.2915  2.4529
  535MOL0     H73798   6.095   8.173   2.110  1.5902 -1.2277 -1.6618
  535MOL0     H73799   6.150   8.340   2.145  4.2756 -0.5654 -1.0996
  535MOL0     H73800   6.262   8.337   1.917  0.3045 -1.3875 -1.8835
  535MOL0     H73801   6.192   8.182   1.877 -1.4715 -1.1939  0.5978
  535MOL0     H73802   6.390   8.239   2.113 -1.3696  2.2651 -0.6037
  535MOL0     H73803   6.312   8.081   2.094  1.7375  0.0448  2.0146
  535MOL0     H73804   6.421   8.064   1.875  1.7937 -0.7053 -0.4637
  535MOL0     H73805   6.531   8.073   2.012 -1.8581  0.0833  1.6309
  535MOL0     H73806   6.568   8.328   1.970  0.6223 -1.3607  0.0450
  535MOL0     H73807   6.463   8.316   1.831 -0.5066  3.1174  2.8721
  535MOL0     H73808   6.711   8.129   1.874  1.3080  0.5379 -0.2442
  535MOL0     H73809   6.733   8.276   1.790  0.7040 -0.7482 -2.2410
  535MOL0     H73810   5.632   8.667   1.977  0.9352  0.7182  0.4450
  535MOL0     H73811   5.445   8.747   2.100 -1.2879 -0.5301  0.3698
  535MOL0     H73812   5.135   8.546   2.395 -0.9179 -1.9536  2.9222
  535MOL0     H73813   4.919   8.539   2.541 -0.7462 -0.0846  0.4875
  535MOL0     H73814   2.979   8.458   3.302  3.5196 -0.4937  3.3431
  535MOL0     H73815   2.836   8.617   3.192 -0.7920  1.4504  0.6458
  535MOL0     H73816   2.903   9.082   3.070 -1.1836  0.0617  0.9965
  535MOL0     H73817   2.777   9.281   2.966  1.3707  0.2182  0.6721
  535MOL0     H73818   2.546   9.165   2.598  0.7574  1.0312 -1.5192
  535MOL0     H73819   2.423   9.192   2.724 -0.5166  3.2791 -0.0988
  535MOL0     H73820   2.394   9.352   2.550 -0.4009  0.9885 -0.5571
  535MOL0     H73821   2.557   9.413   2.561 -0.2531  0.1298 -0.9202
  535MOL0     H73822   2.342   9.409   2.770 -1.6296  0.7752 -3.2246
  535MOL0     H73823   2.506   9.463   2.823 -2.2115  4.1201  1.8733
  535MOL0     H73824   2.385   9.664   2.790 -0.8013 -0.8897  1.9051
  535MOL0     H73825   2.307   9.597   2.641  0.1289 -0.8420  1.3136
  535MOL0     H73826   2.688   9.723   2.492  1.0219 -0.0731  0.9910
  535MOL0     H73827   2.551   8.995   2.728 -3.0260  0.8342  3.6159
  535MOL0     H73828   2.679   8.696   2.895  0.2199  0.1635  0.4711
  535MOL0     H73829   2.579   8.748   2.761 -0.3253 -0.2574 -0.2798
  535MOL0     H73830   2.744   8.717   2.739 -1.8793 -0.3997 -1.2471
  536MOL0     O73831   3.784   4.127   4.187 -0.8077 -0.3040  0.4060
  536MOL0     C73832   3.689   4.073   4.132  0.1195  0.2549  0.6494
  536MOL0     O73833   3.695   3.989   4.023  0.7698 -0.0843 -0.2235
  536MOL0     C73834   3.809   3.989   3.951 -0.9176 -0.1700 -0.5060
  536MOL0     C73835   3.898   3.882   3.979  0.1255 -0.5895 -1.0922
  536MOL0     C73836   4.019   3.870   3.917  0.7457 -0.0659  0.3911
  536MOL0     C73837   4.052   3.963   3.817 -0.4873  0.1537 -0.2169
  536MOL0     O73838   4.166   3.927   3.741 -0.1134 -0.0354 -0.1640
  536MOL0     C73839   4.226   4.022   3.655  0.4508  0.2784  0.4964
  536MOL0     C73840   4.351   3.962   3.597  0.5580 -0.0964 -0.1718
  536MOL0     C73841   4.417   4.068   3.499  1.0211 -0.6903 -0.4767
  536MOL0     C73842   4.555   4.028   3.446  0.6392 -0.1896  0.2156
  536MOL0     C73843   4.646   4.143   3.402  0.2227 -0.2388  0.2629
  536MOL0     C73844   4.780   4.109   3.350 -0.7367  0.5113 -0.2689
  536MOL0     C73845   4.864   4.237   3.323  0.0074  0.1505  0.3704
  536MOL0     C73846   4.975   4.211   3.227 -0.5106 -0.0604 -0.6478
  536MOL0     N73847   5.054   4.330   3.174  0.4459  0.2197 -0.8164
  536MOL0     C73848   5.117   4.421   3.255  0.1064 -0.3550  0.2870
  536MOL0     C73849   5.159   4.512   3.164  0.7150 -0.4881 -0.5785
  536MOL0     C73850   5.236   4.635   3.177  0.5330  0.6126  0.1470
  536MOL0     C73851   5.370   4.616   3.228 -0.1430  0.5697 -0.2218
  536MOL0     C73852   5.456   4.536   3.128 -0.3139 -0.2278 -0.3133
  536MOL0     C73853   5.604   4.561   3.150  0.0892 -0.7853  0.3008
  536MOL0     O73854   5.692   4.505   3.053 -0.7816 -0.3420 -0.0348
  536MOL0     C73855   5.831   4.532   3.051  0.7126 -0.6418 -0.4068
  536MOL0     C73856   5.911   4.448   2.981 -0.2393 -0.2713  0.1299
  536MOL0     C73857   6.051   4.478   2.963 -0.8761  0.3280  0.2856
  536MOL0     C73858   6.140   4.386   2.873  0.9949 -0.8517 -0.2309
  536MOL0     C73859   6.102   4.594   3.023  0.1894 -0.5190 -0.7167
  536MOL0     C73860   6.238   4.654   2.995  0.3270 -0.2668 -0.3071
  536MOL0     O73861   6.264   4.780   3.062  0.1927 -0.2814  0.7348
  536MOL0     C73862   6.370   4.854   3.014 -0.0778  1.0462  0.0181
  536MOL0     C73863   6.501   4.840   3.068  0.4769  0.2344 -0.6497
  536MOL0     C73864   6.607   4.926   3.025  0.1894 -0.7844 -0.1102
  536MOL0     C73865   6.585   5.024   2.931 -0.2564  0.1122  0.1690
  536MOL0     O73866   6.694   5.094   2.885  0.1383 -1.2493  0.5650
  536MOL0     C73867   6.722   5.216   2.955 -0.0643  0.1933  0.4808
  536MOL0     C73868   6.848   5.277   2.909 -0.5733  0.2906 -0.5998
  536MOL0     C73869   6.858   5.324   2.766  0.0454 -0.3122 -0.2520
  536MOL0     C73870   7.001   5.343   2.718  1.1070 -0.6105 -0.1382
  536MOL0     C73871   7.000   5.401   2.575 -0.0920 -0.0161 -0.3009
  536MOL0     C73872   7.155   5.406   2.537 -0.3251  0.0917  0.2026
  536MOL0     C73873   7.179   5.469   2.404 -0.0576  0.0567 -0.2604
  536MOL0     C73874   7.316   5.428   2.350 -0.6673 -0.7454  0.2579
  536MOL0    Cl73875   7.445   5.483   2.468  0.1482 -0.0893 -0.1419
  536MOL0     C73876   6.456   5.032   2.880  0.1782 -0.4968  0.1025
  536MOL0     C73877   6.350   4.949   2.921 -0.5467  0.5627  0.2213
  536MOL0     O73878   6.318   4.611   2.908  0.0931  0.2212 -0.2668
  536MOL0     C73879   6.019   4.661   3.115 -0.4500 -0.4509 -0.2521
  536MOL0     C73880   5.885   4.631   3.135  0.0125 -0.0313 -0.3257
  536MOL0     N73881   5.134   4.474   3.037 -0.1386 -0.3876 -0.3139
  536MOL0     N73882   5.068   4.360   3.043  0.2171  0.7780 -0.0182
  536MOL0     C73883   3.968   4.074   3.792 -0.3591  0.2614 -0.0956
  536MOL0     C73884   3.844   4.085   3.857 -0.0899 -0.5149 -0.4095
  536MOL0     C73885   3.554   4.076   4.191 -0.1778  0.8713  0.3653
  536MOL0     C73886   3.446   4.034   4.108  0.5636  0.3005  0.2750
  536MOL0     C73887   3.309   4.040   4.148 -0.4508 -0.1371 -0.5688
  536MOL0     C73888   3.274   4.084   4.278  0.4205 -0.1978 -0.5686
  536MOL0     O73889   3.136   4.097   4.301  0.2400  0.2191 -0.3668
  536MOL0     C73890   3.081   4.168   4.418 -0.0993  0.1696  0.2650
  536MOL0     C73891   2.951   4.242   4.383 -0.4911  0.3777  0.0494
  536MOL0     C73892   2.954   4.341   4.260  0.0682  0.6297  0.0009
  536MOL0     C73893   2.821   4.416   4.244 -1.3488  0.2337  0.5074
  536MOL0     C73894   2.813   4.493   4.118  0.4836 -0.8164  0.3354
  536MOL0     C73895   2.795   4.524   4.001  0.5782  0.3085  0.3251
  536MOL0     C73896   3.383   4.107   4.364 -0.4795 -0.0695 -0.0939
  536MOL0     C73897   3.518   4.098   4.325  0.2599  0.2060  1.2394
  536MOL0     C73898   3.621   4.092   4.429 -0.4941  0.0108 -0.1791
  536MOL0     H73899   3.872   3.810   4.055  0.6500  2.4326  2.2171
  536MOL0     H73900   4.085   3.786   3.938  1.2424  0.1908 -0.1254
  536MOL0     H73901   4.240   4.117   3.707 -4.1990  2.0335 -1.0436
  536MOL0     H73902   4.159   4.052   3.575  1.1901 -0.3631 -0.3886
  536MOL0     H73903   4.424   3.933   3.673 -1.1417 -1.3986  1.0472
  536MOL0     H73904   4.326   3.884   3.525  1.3333  1.6490 -2.4900
  536MOL0     H73905   4.352   4.091   3.414 -0.6612  1.6741  1.3252
  536MOL0     H73906   4.432   4.165   3.546 -0.5652 -0.6698  0.0253
  536MOL0     H73907   4.607   3.960   3.515 -0.9340 -0.7528  0.9050
  536MOL0     H73908   4.535   3.967   3.357  2.0570 -1.9796  1.0462
  536MOL0     H73909   4.655   4.213   3.486  0.4323 -0.8494  0.7591
  536MOL0     H73910   4.606   4.203   3.320  0.3844  3.1797  2.4816
  536MOL0     H73911   4.836   4.043   3.417  1.6147  0.6310 -1.9717
  536MOL0     H73912   4.773   4.058   3.253 -0.8260  2.6285 -1.4241
  536MOL0     H73913   4.903   4.277   3.417  2.0541 -0.2123 -0.2642
  536MOL0     H73914   4.809   4.310   3.264  0.9225  1.3401  0.9362
  536MOL0     H73915   5.043   4.141   3.276 -1.7509 -0.3587  0.6970
  536MOL0     H73916   4.934   4.157   3.141 -1.1285 -1.4975  0.5199
  536MOL0     H73917   5.124   4.425   3.363  0.5792 -0.7596  0.2763
  536MOL0     H73918   5.187   4.705   3.246  0.2903 -1.1009  1.8071
  536MOL0     H73919   5.242   4.673   3.075  1.3389  0.7752  0.2490
  536MOL0     H73920   5.414   4.715   3.240 -1.4768  0.9730  1.7430
  536MOL0     H73921   5.370   4.572   3.328  0.3983  1.0096 -0.0204
  536MOL0     H73922   5.432   4.430   3.145  1.3360 -0.5116  0.3704
  536MOL0     H73923   5.431   4.564   3.025 -0.6639  1.3226  0.1771
  536MOL0     H73924   5.628   4.667   3.145 -3.1287  0.0626  0.8002
  536MOL0     H73925   5.628   4.544   3.255 -0.2224  0.1508  0.5312
  536MOL0     H73926   5.876   4.354   2.940 -1.0824 -1.3490  3.0849
  536MOL0     H73927   6.173   4.440   2.784 -1.6747  0.4632 -0.4966
  536MOL0     H73928   6.084   4.297   2.844  2.3132 -2.5528  2.0730
  536MOL0     H73929   6.230   4.357   2.929  1.6081 -0.2176 -0.8607
  536MOL0     H73930   6.515   4.772   3.152 -1.1740  1.4719  0.7183
  536MOL0     H73931   6.711   4.913   3.053  0.0846 -1.2661  0.0576
  536MOL0     H73932   6.639   5.283   2.932 -1.3081 -2.4058 -3.9371
  536MOL0     H73933   6.724   5.192   3.062  2.1426  0.8105  0.6257
  536MOL0     H73934   6.868   5.370   2.962  1.2534  0.8300 -2.1262
  536MOL0     H73935   6.929   5.209   2.938 -0.4484  0.7092  0.0359
  536MOL0     H73936   6.807   5.420   2.756 -1.1119 -0.9717 -0.8331
  536MOL0     H73937   6.805   5.254   2.702 -0.5501  0.3390 -0.4804
  536MOL0     H73938   7.054   5.247   2.711  2.9465  0.3059  0.6659
  536MOL0     H73939   7.059   5.409   2.783 -3.6787  2.7541  1.2950
  536MOL0     H73940   6.942   5.341   2.505  0.6120 -0.2861 -0.6674
  536MOL0     H73941   6.951   5.499   2.581 -3.2779 -1.5567  1.3581
  536MOL0     H73942   7.192   5.304   2.523  0.0776  0.3471 -0.6653
  536MOL0     H73943   7.202   5.465   2.616  1.4447 -1.1279  0.1048
  536MOL0     H73944   7.175   5.578   2.415 -2.4880 -0.1065  1.5088
  536MOL0     H73945   7.091   5.448   2.342 -1.1885 -1.1977  1.6544
  536MOL0     H73946   7.341   5.471   2.252 -1.7571 -3.2591 -1.2113
  536MOL0     H73947   7.328   5.321   2.334  3.0568 -0.0702 -3.4174
  536MOL0     H73948   6.443   5.113   2.809  4.6320  0.0862 -0.3298
  536MOL0     H73949   6.248   4.953   2.882 -0.0307  1.2422 -1.1114
  536MOL0     H73950   6.066   4.741   3.171  0.0748  0.3892 -1.8245
  536MOL0     H73951   5.829   4.696   3.201  0.1718 -0.0661 -0.1566
  536MOL0     H73952   3.989   4.134   3.704 -2.5018  3.9362  1.6499
  536MOL0     H73953   3.762   4.152   3.832 -1.4623 -1.8731  0.2953
  536MOL0     H73954   3.476   4.008   4.007  1.9528  0.8422  0.5251
  536MOL0     H73955   3.238   4.008   4.073 -0.5978  0.2629 -0.6040
  536MOL0     H73956   3.068   4.095   4.498  0.2426 -3.1435 -2.4324
  536MOL0     H73957   3.152   4.244   4.452  0.7659 -0.9195  0.9342
  536MOL0     H73958   2.923   4.297   4.473  0.7522 -1.9039  1.9378
  536MOL0     H73959   2.876   4.164   4.367 -0.4549  0.2663  0.4092
  536MOL0     H73960   3.030   4.415   4.286 -0.1530  1.5763 -1.8883
  536MOL0     H73961   2.980   4.291   4.166  1.9025  2.0221 -0.2855
  536MOL0     H73962   2.806   4.485   4.328 -2.8158  0.2636  0.2393
  536MOL0     H73963   2.734   4.350   4.244  0.6402 -2.6192 -1.3461
  536MOL0     H73964   2.793   4.540   3.896  0.1717  4.8204  0.8235
  536MOL0     H73965   3.350   4.127   4.465 -0.5881  1.2702 -0.3622
  536MOL0     H73966   3.588   4.080   4.533 -0.8561  1.5688 -0.0916
  536MOL0     H73967   3.697   4.016   4.410 -1.1294 -0.8916  0.7887
  536MOL0     H73968   3.679   4.185   4.425  2.0339 -1.2832  2.3301
  537MOL0     O73969   0.556   6.205   0.844  0.1854  1.0011  0.6112
  537MOL0     C73970   0.456   6.243   0.910  0.4762 -0.2127  0.2415
  537MOL0     O73971   0.459   6.340   1.006 -0.7021 -0.0610  0.3277
  537MOL0     C73972   0.575   6.417   1.003  0.7307 -0.4593 -0.2578
  537MOL0     C73973   0.590   6.506   0.893  0.0592 -0.4195 -0.6415
  537MOL0     C73974   0.700   6.589   0.890  0.7049 -0.2767 -0.5863
  537MOL0     C73975   0.798   6.588   0.995 -0.1399  0.0062 -0.4063
  537MOL0     O73976   0.917   6.661   0.985 -0.5384 -0.0695 -0.2819
  537MOL0     C73977   0.935   6.765   0.888 -0.6393 -0.1261  0.0828
  537MOL0     C73978   1.086   6.804   0.892 -0.5983 -0.5912  1.3156
  537MOL0     C73979   1.117   6.893   1.013  0.6794 -0.1330  0.3376
  537MOL0     C73980   1.267   6.940   1.023 -0.5000 -0.3640  0.8698
  537MOL0     C73981   1.260   7.077   1.099  0.0471  0.2171 -0.0025
  537MOL0     C73982   1.399   7.126   1.110  0.3794 -0.5084  0.5337
  537MOL0     C73983   1.378   7.271   1.160 -0.8894 -0.0072  0.1202
  537MOL0     C73984   1.510   7.348   1.134  0.4024 -0.0671  0.1881
  537MOL0     N73985   1.612   7.304   1.234  0.2456 -0.2076 -0.0216
  537MOL0     C73986   1.711   7.219   1.235 -0.6545 -0.6966  0.3643
  537MOL0     C73987   1.781   7.234   1.349 -0.1742  0.4471  0.5560
  537MOL0     C73988   1.905   7.160   1.395  0.6971  1.0127 -0.5561
  537MOL0     C73989   1.895   7.076   1.526 -0.0320  0.4375 -0.2755
  537MOL0     C73990   2.011   6.999   1.575  0.0753 -0.0801 -0.6407
  537MOL0     C73991   2.041   6.881   1.495  0.5150  0.3075  0.4575
  537MOL0     O73992   2.173   6.843   1.532 -0.5451 -0.3027  0.1994
  537MOL0     C73993   2.240   6.761   1.448  0.7099  0.2522  0.4808
  537MOL0     C73994   2.379   6.771   1.449 -0.9322 -0.6343 -0.6173
  537MOL0     C73995   2.456   6.686   1.365 -0.2956  1.0708  0.0881
  537MOL0     C73996   2.607   6.706   1.347  0.2960  1.5218  0.5193
  537MOL0     C73997   2.388   6.588   1.276  0.2208  0.0462 -1.2838
  537MOL0     C73998   2.463   6.503   1.177 -0.8896  1.1317 -0.1523
  537MOL0     O73999   2.564   6.564   1.103  0.5697 -0.2911 -0.6719
  537MOL0     C74000   2.639   6.485   1.027 -0.1339 -0.3667 -0.5477
  537MOL0     C74001   2.587   6.442   0.903 -0.5869  0.0351 -0.0285
  537MOL0     C74002   2.664   6.359   0.819  0.7096  0.5009 -0.3723
  537MOL0     C74003   2.793   6.319   0.858 -0.3937 -0.2883  0.5429
  537MOL0     O74004   2.857   6.232   0.776 -0.9281 -0.3761  1.1205
  537MOL0     C74005   2.987   6.177   0.813  0.3422 -0.0907  0.3022
  537MOL0     C74006   3.025   6.093   0.697  0.0221 -0.2573 -0.4291
  537MOL0     C74007   3.181   6.084   0.691  0.4224  0.2756  0.2417
  537MOL0     C74008   3.236   6.001   0.568 -0.8002 -0.3393  0.2913
  537MOL0     C74009   3.389   6.003   0.558  0.5283 -0.0638 -0.0127
  537MOL0     C74010   3.418   5.924   0.425 -0.2109 -0.4546  0.8309
  537MOL0     C74011   3.564   5.873   0.414 -0.1791 -0.0515 -1.1867
  537MOL0     C74012   3.607   5.762   0.517  0.4174 -0.1934  0.1887
  537MOL0    Cl74013   3.524   5.606   0.487 -0.1875  0.0695 -0.4796
  537MOL0     C74014   2.841   6.365   0.980  0.6582 -0.4447 -0.6645
  537MOL0     C74015   2.758   6.438   1.074 -0.0953  0.6194  0.7629
  537MOL0     O74016   2.443   6.375   1.179 -0.3782  0.4881 -0.1819
  537MOL0     C74017   2.248   6.588   1.273 -1.0081 -0.4399 -0.3185
  537MOL0     C74018   2.170   6.672   1.362  0.2624 -0.1672  0.3717
  537MOL0     N74019   1.720   7.335   1.414 -0.2881  0.4351 -0.8681
  537MOL0     N74020   1.620   7.379   1.349  0.3304  0.0974  0.3760
  537MOL0     C74021   0.768   6.513   1.108 -0.5062  0.0719 -0.0501
  537MOL0     C74022   0.663   6.423   1.108  0.9286 -0.3897 -1.0899
  537MOL0     C74023   0.326   6.180   0.891  0.8087 -0.4781  0.2350
  537MOL0     C74024   0.222   6.267   0.854 -0.1856  0.0572  0.6789
  537MOL0     C74025   0.106   6.216   0.812 -0.5447  0.1071 -0.8837
  537MOL0     C74026   0.085   6.076   0.823  0.6054 -1.1477 -0.6803
  537MOL0     O74027  -0.029   6.013   0.783 -0.2729  0.5168 -0.4587
  537MOL0     C74028  -0.136   6.091   0.723  0.3257  0.0649  0.5094
  537MOL0     C74029  -0.230   6.142   0.823  0.2935 -0.2275  0.7270
  537MOL0     C74030  -0.324   6.034   0.880  0.5706  0.6717 -0.1838
  537MOL0     C74031  -0.426   5.978   0.783  0.1077  0.4788  0.1287
  537MOL0     C74032  -0.498   5.859   0.838  0.5425 -0.1718  0.0622
  537MOL0     C74033  -0.568   5.761   0.836  0.0551 -1.1041 -0.5435
  537MOL0     C74034   0.177   5.996   0.878 -0.5229  0.0312  0.2566
  537MOL0     C74035   0.301   6.039   0.904  0.3064 -0.7237 -0.2488
  537MOL0     C74036   0.406   5.936   0.936  0.0556  0.1937 -0.5331
  537MOL0     H74037   0.534   6.503   0.800  0.6112 -2.2299 -0.9649
  537MOL0     H74038   0.721   6.647   0.802 -0.5866 -0.3857 -0.9826
  537MOL0     H74039   0.879   6.854   0.920 -0.8021 -0.5856  1.1120
  537MOL0     H74040   0.913   6.743   0.783  3.3249 -2.3097 -0.4583
  537MOL0     H74041   1.146   6.713   0.898  0.6248  0.2550  2.4702
  537MOL0     H74042   1.094   6.859   0.797 -1.8523 -2.9426 -0.2470
  537MOL0     H74043   1.059   6.984   0.994  2.0645  0.7402  0.0992
  537MOL0     H74044   1.081   6.842   1.102 -2.0394  0.3851 -0.3731
  537MOL0     H74045   1.332   6.874   1.081  1.3564  2.5408  2.2922
  537MOL0     H74046   1.301   6.945   0.919  0.6303  0.8264  1.2764
  537MOL0     H74047   1.215   7.058   1.197 -2.2414 -1.2127 -1.2426
  537MOL0     H74048   1.197   7.146   1.042  0.4960 -0.5225 -1.4445
  537MOL0     H74049   1.456   7.059   1.176  1.2173 -0.8911 -0.5456
  537MOL0     H74050   1.435   7.120   1.007 -2.0024  0.1351 -0.3977
  537MOL0     H74051   1.356   7.273   1.267  1.2460 -2.5357  0.7189
  537MOL0     H74052   1.302   7.320   1.098  1.2623  1.3368 -1.6275
  537MOL0     H74053   1.548   7.335   1.033 -1.0565 -2.6617 -0.0877
  537MOL0     H74054   1.487   7.454   1.148  1.5049  0.1636  0.3190
  537MOL0     H74055   1.733   7.148   1.156 -2.4701 -2.9009  1.7194
  537MOL0     H74056   1.978   7.242   1.401 -0.9610  2.5743 -0.6413
  537MOL0     H74057   1.947   7.098   1.316  1.9531  0.9354  0.1277
  537MOL0     H74058   1.857   7.143   1.604  0.0247 -0.4171  0.5064
  537MOL0     H74059   1.819   6.999   1.508  0.7180 -1.1931  2.8431
  537MOL0     H74060   2.089   7.070   1.602 -1.7306  1.7117  0.1349
  537MOL0     H74061   1.969   6.962   1.669 -2.4526  2.1277 -0.7932
  537MOL0     H74062   1.974   6.803   1.529 -0.1320  2.6258  5.3199
  537MOL0     H74063   2.028   6.898   1.387 -0.5081  1.6522  0.7540
  537MOL0     H74064   2.436   6.842   1.508  1.5408 -1.9212 -1.3256
  537MOL0     H74065   2.653   6.609   1.326 -0.5933  1.5691 -2.0137
  537MOL0     H74066   2.654   6.744   1.438  0.4947  1.1176  0.5855
  537MOL0     H74067   2.626   6.774   1.264 -0.7178  1.9304  0.6016
  537MOL0     H74068   2.485   6.463   0.870 -0.3823  3.8098  1.2396
  537MOL0     H74069   2.620   6.328   0.724 -2.2320  3.6623 -0.2643
  537MOL0     H74070   3.061   6.257   0.818  0.4769  0.0410 -2.4048
  537MOL0     H74071   2.986   6.117   0.904 -0.4491  1.2549  1.2108
  537MOL0     H74072   2.976   5.996   0.704  0.9052 -0.7191 -0.5378
  537MOL0     H74073   3.000   6.139   0.601  1.4974 -0.0239 -0.7369
  537MOL0     H74074   3.210   6.041   0.787  1.3101 -2.2035 -1.0455
  537MOL0     H74075   3.232   6.181   0.681 -0.1139  0.4063 -1.8690
  537MOL0     H74076   3.183   6.031   0.477 -0.0848 -0.2402 -0.1010
  537MOL0     H74077   3.201   5.898   0.579  3.2684 -2.0053 -0.5026
  537MOL0     H74078   3.424   6.103   0.532  0.5637 -0.0656  0.0309
  537MOL0     H74079   3.442   5.958   0.642  3.3110 -1.5105 -2.3324
  537MOL0     H74080   3.396   5.971   0.328  3.8906  2.8530  1.2102
  537MOL0     H74081   3.356   5.834   0.426  1.8173 -1.9235 -0.0111
  537MOL0     H74082   3.642   5.947   0.430 -0.0986  0.2660 -2.8812
  537MOL0     H74083   3.585   5.839   0.312 -1.4845  1.3373 -1.9486
  537MOL0     H74084   3.576   5.798   0.615 -0.1683 -0.1955  0.0051
  537MOL0     H74085   3.716   5.754   0.529  0.2863 -0.2492  1.4976
  537MOL0     H74086   2.940   6.337   1.014  0.7078 -0.9098 -1.1880
  537MOL0     H74087   2.801   6.468   1.169 -0.2032 -0.6606  1.2336
  537MOL0     H74088   2.195   6.517   1.211  0.8873 -2.3127  0.0875
  537MOL0     H74089   2.063   6.658   1.357  0.2645  0.2161 -1.6074
  537MOL0     H74090   0.825   6.505   1.200 -0.2623 -2.5781 -0.3377
  537MOL0     H74091   0.645   6.355   1.190 -0.4260 -0.6481 -1.5770
  537MOL0     H74092   0.235   6.375   0.855 -1.5503  0.2359  0.6210
  537MOL0     H74093   0.028   6.286   0.783 -0.1963  0.1448 -1.7477
  537MOL0     H74094  -0.102   6.172   0.658 -1.9641  0.4241 -0.3281
  537MOL0     H74095  -0.188   6.027   0.651 -0.5705  2.0058 -0.6272
  537MOL0     H74096  -0.303   6.212   0.781 -1.1996 -3.2176 -2.1397
  537MOL0     H74097  -0.179   6.195   0.904 -0.1987  1.9605 -0.3263
  537MOL0     H74098  -0.257   5.953   0.910  0.5508  0.9507  0.6406
  537MOL0     H74099  -0.366   6.073   0.973 -1.5632 -2.6635  0.3834
  537MOL0     H74100  -0.373   5.940   0.695  0.9189  2.5843 -0.3457
  537MOL0     H74101  -0.495   6.057   0.751  0.2622 -0.2529 -2.2460
  537MOL0     H74102  -0.620   5.669   0.816  0.3404 -1.3956  0.0436
  537MOL0     H74103   0.142   5.893   0.876  0.5817 -0.3586  0.1047
  537MOL0     H74104   0.456   5.969   1.027  1.7892  2.7347 -2.2615
  537MOL0     H74105   0.359   5.838   0.943  0.5323  0.0740  1.4028
  537MOL0     H74106   0.477   5.925   0.853  0.2198 -3.2668 -0.0734
  538MOL0     O74107   2.074   5.184   3.473 -0.0218  0.3265 -0.6167
  538MOL0     C74108   2.099   5.063   3.452 -0.1392 -0.1850  0.1235
  538MOL0     O74109   2.045   4.996   3.355  0.0837  0.1230 -0.6117
  538MOL0     C74110   1.954   5.057   3.270 -0.0172  0.4424 -0.3468
  538MOL0     C74111   1.992   5.119   3.149  0.0991 -0.2508  0.2081
  538MOL0     C74112   1.896   5.170   3.059 -0.2785  0.6252 -0.1971
  538MOL0     C74113   1.760   5.152   3.082  0.4605  0.2215  0.1870
  538MOL0     O74114   1.676   5.201   2.988 -0.3020  0.3649 -0.2955
  538MOL0     C74115   1.532   5.178   2.993  0.3944  0.5943  0.1443
  538MOL0     C74116   1.492   5.033   2.956 -0.3211  0.3383 -0.3923
  538MOL0     C74117   1.346   5.032   2.917 -0.8112 -0.5777 -0.5183
  538MOL0     C74118   1.257   5.078   3.034 -0.0924  0.6924 -0.3064
  538MOL0     C74119   1.106   5.045   3.012 -0.3634  0.2522  1.0399
  538MOL0     C74120   1.027   5.083   3.135 -0.5523 -0.2328  1.1084
  538MOL0     C74121   1.025   5.238   3.169 -0.3977 -0.9715 -0.6015
  538MOL0     C74122   0.900   5.294   3.231  0.7066 -0.3341  0.1272
  538MOL0     N74123   0.798   5.303   3.123 -0.2157 -1.5053  0.1390
  538MOL0     C74124   0.698   5.215   3.095 -0.6436  0.3545 -0.0314
  538MOL0     C74125   0.616   5.282   3.004 -0.1474 -0.8678  0.6754
  538MOL0     C74126   0.508   5.209   2.933  0.3885  0.7643 -0.0732
  538MOL0     C74127   0.387   5.156   3.018 -0.3602 -0.9641  0.0403
  538MOL0     C74128   0.407   5.009   3.065 -0.4912 -0.0639  0.0243
  538MOL0     C74129   0.277   4.960   3.126  0.6628 -0.1886 -0.8369
  538MOL0     O74130   0.305   4.829   3.174  0.5948  0.2583  0.2995
  538MOL0     C74131   0.348   4.825   3.304  0.4218  0.0590 -0.9587
  538MOL0     C74132   0.369   4.695   3.357  0.8335  0.3797  0.1341
  538MOL0     C74133   0.422   4.654   3.478 -0.6980  1.2503 -0.2507
  538MOL0     C74134   0.427   4.507   3.515 -0.0513  0.5099  0.4425
  538MOL0     C74135   0.453   4.759   3.570 -0.7206 -0.8643  0.1281
  538MOL0     C74136   0.492   4.736   3.716  0.0354 -0.4380  0.3593
  538MOL0     O74137   0.501   4.602   3.771 -0.5720 -0.4971  0.2047
  538MOL0     C74138   0.520   4.597   3.912 -0.0202  0.1180  0.7261
  538MOL0     C74139   0.646   4.633   3.970 -0.6627 -0.5563 -0.2617
  538MOL0     C74140   0.676   4.614   4.096 -0.3492 -0.3329 -0.3702
  538MOL0     C74141   0.568   4.573   4.181  0.7476 -0.6713 -0.2063
  538MOL0     O74142   0.585   4.587   4.315 -0.1084 -0.6850  0.1610
  538MOL0     C74143   0.494   4.523   4.405  0.6649  1.3230 -0.8278
  538MOL0     C74144   0.536   4.538   4.552  0.8386 -0.3891  0.1766
  538MOL0     C74145   0.566   4.680   4.595 -0.2348 -0.6587  0.8208
  538MOL0     C74146   0.629   4.690   4.730  0.0828  0.4927 -0.0356
  538MOL0     C74147   0.656   4.837   4.757 -1.2617  0.3815 -0.1446
  538MOL0     C74148   0.696   4.872   4.903 -0.2155  1.2574 -0.5521
  538MOL0     C74149   0.804   4.778   4.961  0.3334  0.3288  0.0845
  538MOL0     C74150   0.842   4.807   5.106  0.2465 -0.7153 -0.4425
  538MOL0    Cl74151   0.698   4.808   5.207  0.4255  0.3696  0.4965
  538MOL0     C74152   0.443   4.545   4.125  0.1456 -0.3345  0.1813
  538MOL0     C74153   0.421   4.555   3.991  0.2860  0.0089  0.0710
  538MOL0     O74154   0.503   4.833   3.790  0.4317  0.2421  0.2803
  538MOL0     C74155   0.431   4.892   3.519  0.3796  0.1385 -0.1233
  538MOL0     C74156   0.371   4.921   3.390 -0.2594 -0.5534  0.0138
  538MOL0     N74157   0.658   5.417   2.985 -0.4697  0.0153  0.6324
  538MOL0     N74158   0.767   5.420   3.058 -0.2938  0.4947  0.7945
  538MOL0     C74159   1.718   5.076   3.199  0.6477 -1.4888  0.3231
  538MOL0     C74160   1.816   5.029   3.290 -0.3159 -0.7984  0.5113
  538MOL0     C74161   2.194   5.003   3.551  0.0155  0.4796 -0.3356
  538MOL0     C74162   2.223   4.869   3.534 -0.5459 -0.1613 -0.3195
  538MOL0     C74163   2.288   4.790   3.627 -0.1344  0.0690 -0.9896
  538MOL0     C74164   2.356   4.852   3.731  0.8557 -0.0425  0.0821
  538MOL0     O74165   2.425   4.793   3.829  0.2810  0.9483 -0.8046
  538MOL0     C74166   2.403   4.654   3.860  0.0632  0.0307  0.3701
  538MOL0     C74167   2.414   4.621   4.008  0.3225 -0.5490 -0.4479
  538MOL0     C74168   2.421   4.467   4.030 -0.2936  0.5841  0.5544
  538MOL0     C74169   2.459   4.414   4.165 -0.7452  0.2469 -0.5255
  538MOL0     C74170   2.478   4.268   4.157 -0.1974 -0.2649  0.1084
  538MOL0     C74171   2.502   4.148   4.158  0.3361 -0.3438  0.2168
  538MOL0     C74172   2.346   4.992   3.739 -0.1642 -0.1352  0.4525
  538MOL0     C74173   2.267   5.076   3.654 -1.0017 -0.2557  0.3656
  538MOL0     C74174   2.255   5.224   3.682  0.1340  0.2887 -0.5558
  538MOL0     H74175   2.098   5.140   3.132 -0.1235 -0.1290 -1.1766
  538MOL0     H74176   1.944   5.223   2.977  1.2200  1.3746  1.1085
  538MOL0     H74177   1.490   5.251   2.923  2.5322  0.2287 -1.5984
  538MOL0     H74178   1.496   5.204   3.094  0.7246  0.4183  0.3068
  538MOL0     H74179   1.557   4.999   2.874 -1.4808  1.5584 -1.8767
  538MOL0     H74180   1.512   4.957   3.033 -3.0404  0.0344  0.0980
  538MOL0     H74181   1.332   5.101   2.833  0.6584  0.3465 -0.0262
  538MOL0     H74182   1.316   4.932   2.883  1.6059 -1.8904  0.9604
  538MOL0     H74183   1.292   5.049   3.134 -1.0189  1.1599  0.1680
  538MOL0     H74184   1.259   5.187   3.028 -0.6086  1.0218  3.1792
  538MOL0     H74185   1.098   4.936   3.000  0.9218  0.3819 -1.6381
  538MOL0     H74186   1.067   5.085   2.918  0.4197 -2.4464 -0.5503
  538MOL0     H74187   0.926   5.047   3.116 -1.6306  2.6522  1.0497
  538MOL0     H74188   1.065   5.025   3.220 -2.5901  1.1945  3.0957
  538MOL0     H74189   1.037   5.287   3.072 -0.2844 -0.6531 -0.4278
  538MOL0     H74190   1.119   5.271   3.215 -0.5467  0.2054 -1.1263
  538MOL0     H74191   0.862   5.235   3.315 -1.4560  1.3916  0.4679
  538MOL0     H74192   0.914   5.395   3.269  1.6088  0.0076 -1.0602
  538MOL0     H74193   0.683   5.110   3.118 -1.9842 -0.3454 -3.5602
  538MOL0     H74194   0.547   5.139   2.859 -2.3630  1.4013 -2.3315
  538MOL0     H74195   0.465   5.290   2.872  0.6510  1.7596  1.0275
  538MOL0     H74196   0.378   5.217   3.108  0.3600  2.5677 -2.0944
  538MOL0     H74197   0.291   5.169   2.967 -0.8440 -1.0335  0.9240
  538MOL0     H74198   0.450   4.946   2.986  1.0919 -1.3786  1.8389
  538MOL0     H74199   0.487   5.011   3.140  0.8771 -0.6122 -1.3583
  538MOL0     H74200   0.242   5.026   3.206  1.4907 -2.5567  1.6187
  538MOL0     H74201   0.193   4.954   3.057 -0.2920 -2.5644  0.4221
  538MOL0     H74202   0.308   4.624   3.302 -4.0180  4.6720 -0.7168
  538MOL0     H74203   0.360   4.478   3.596  0.4105  0.9958  1.0061
  538MOL0     H74204   0.530   4.485   3.547  0.8079  2.2467 -0.9402
  538MOL0     H74205   0.398   4.452   3.425 -3.4604  2.9060 -0.1060
  538MOL0     H74206   0.720   4.675   3.903  0.3878 -2.7479 -0.5530
  538MOL0     H74207   0.775   4.632   4.135  1.5848 -1.2119 -4.3810
  538MOL0     H74208   0.397   4.572   4.392 -0.6090 -0.0050  2.5031
  538MOL0     H74209   0.474   4.416   4.391 -1.5787  1.4753  0.7857
  538MOL0     H74210   0.454   4.500   4.614 -3.0352  3.7875 -1.7987
  538MOL0     H74211   0.628   4.481   4.565  1.4182  0.0805 -1.6514
  538MOL0     H74212   0.471   4.734   4.593  0.0626 -0.1096  1.3219
  538MOL0     H74213   0.632   4.718   4.517 -1.8445  1.7648  0.5200
  538MOL0     H74214   0.724   4.636   4.726  0.2990  0.7925  0.8196
  538MOL0     H74215   0.568   4.653   4.813 -0.4281 -0.7454 -0.9242
  538MOL0     H74216   0.733   4.861   4.683 -2.0043 -2.0449 -1.8176
  538MOL0     H74217   0.559   4.886   4.749 -0.5593  1.6187 -1.6148
  538MOL0     H74218   0.606   4.853   4.961  0.0723 -0.3841 -0.5906
  538MOL0     H74219   0.730   4.976   4.907 -0.5853  1.3764 -0.5317
  538MOL0     H74220   0.899   4.779   4.907  1.4615 -1.5347  1.9092
  538MOL0     H74221   0.772   4.674   4.958  2.5905 -0.4194  0.0670
  538MOL0     H74222   0.894   4.903   5.107  0.8845 -1.0583 -0.1105
  538MOL0     H74223   0.918   4.733   5.134  0.2761 -0.8869 -0.9671
  538MOL0     H74224   0.356   4.512   4.180 -0.7713  0.1322 -0.9476
  538MOL0     H74225   0.329   4.525   3.942  0.2031  0.2785  0.0625
  538MOL0     H74226   0.444   4.985   3.574  2.0119  0.2829 -0.7074
  538MOL0     H74227   0.365   5.027   3.368 -1.0051 -0.6771 -0.3911
  538MOL0     H74228   1.612   5.052   3.206  0.5753 -1.3896 -0.3570
  538MOL0     H74229   1.789   4.966   3.374  2.6137 -2.1149  0.6058
  538MOL0     H74230   2.178   4.804   3.460  0.5044 -1.9571  0.5477
  538MOL0     H74231   2.292   4.681   3.621 -1.0345 -0.0794  0.7081
  538MOL0     H74232   2.301   4.635   3.827 -1.0202  1.6314  2.5424
  538MOL0     H74233   2.477   4.597   3.803  2.2255  1.4466  1.6212
  538MOL0     H74234   2.322   4.655   4.055  0.0521 -1.1841 -0.5194
  538MOL0     H74235   2.504   4.655   4.062 -1.3436 -3.9515  5.3111
  538MOL0     H74236   2.334   4.409   3.997  1.2900 -0.3318 -2.3295
  538MOL0     H74237   2.499   4.435   3.961 -0.5571 -0.4627  0.7303
  538MOL0     H74238   2.378   4.426   4.238 -0.4771 -0.4484 -0.1052
  538MOL0     H74239   2.546   4.468   4.204 -0.2448 -0.8166 -0.1443
  538MOL0     H74240   2.509   4.042   4.158  0.0525 -0.3796  1.5608
  538MOL0     H74241   2.412   5.046   3.806 -0.1663  2.0270 -1.2035
  538MOL0     H74242   2.151   5.258   3.678  0.3151  0.7667 -1.6850
  538MOL0     H74243   2.295   5.252   3.780  0.4156 -1.6261 -0.0977
  538MOL0     H74244   2.316   5.269   3.603  2.6355 -1.3260  0.3580
  539MOL0     O74245   6.056   6.121   8.718 -0.1939 -0.5555  0.4152
  539MOL0     C74246   6.022   6.056   8.813  0.7777 -0.1380 -0.3364
  539MOL0     O74247   6.096   5.960   8.860 -0.1387 -0.0763 -0.1342
  539MOL0     C74248   6.236   5.962   8.851  0.1054 -0.6502  0.2787
  539MOL0     C74249   6.298   5.961   8.725  0.2648 -0.5766  0.3766
  539MOL0     C74250   6.434   5.943   8.713  0.3114  0.0655 -0.0445
  539MOL0     C74251   6.526   5.930   8.816  0.9988 -0.0955 -0.1296
  539MOL0     O74252   6.665   5.937   8.792  0.6812  0.1985 -0.4809
  539MOL0     C74253   6.749   5.960   8.903 -0.2591  0.1420  0.6894
  539MOL0     C74254   6.886   5.988   8.845 -0.2356  0.0124 -0.5244
  539MOL0     C74255   6.985   6.009   8.959  0.1315 -0.0122 -0.2827
  539MOL0     C74256   7.134   6.029   8.908  1.4013  0.4383  0.2677
  539MOL0     C74257   7.163   6.171   8.853 -0.1554 -0.4936  0.8742
  539MOL0     C74258   7.210   6.278   8.963  0.2795  0.6375  0.4547
  539MOL0     C74259   7.215   6.421   8.914 -0.2110  0.3144  0.1053
  539MOL0     C74260   7.277   6.511   9.021  0.3197 -0.2801  0.8742
  539MOL0     N74261   7.306   6.644   8.984 -0.4722 -0.2712  0.9911
  539MOL0     C74262   7.426   6.679   8.930  0.4482  0.2193  0.1490
  539MOL0     C74263   7.423   6.815   8.934 -0.2305  0.5429 -0.3950
  539MOL0     C74264   7.545   6.903   8.906 -0.2344 -0.0424  0.3066
  539MOL0     C74265   7.495   7.041   8.862 -0.5262 -0.1096 -0.3094
  539MOL0     C74266   7.612   7.142   8.837 -0.3925  0.5201 -0.8279
  539MOL0     C74267   7.660   7.207   8.958  0.2436  0.6550 -0.5434
  539MOL0     O74268   7.731   7.127   9.052  0.1393 -0.1360 -0.3053
  539MOL0     C74269   7.864   7.087   9.024  0.9141  0.6197  0.6578
  539MOL0     C74270   7.938   7.129   8.913 -0.5565 -0.2464 -0.4671
  539MOL0     C74271   8.069   7.084   8.911 -1.0768  0.0817 -0.1233
  539MOL0     C74272   8.156   7.137   8.796  0.1431  0.1439 -0.1679
  539MOL0     C74273   8.131   7.001   9.007  0.0260 -0.2781 -0.6671
  539MOL0     C74274   8.275   6.950   9.008  1.3807  0.2664  0.2317
  539MOL0     O74275   8.297   6.861   9.106  0.9090  0.0266  0.0508
  539MOL0     C74276   8.419   6.803   9.117 -0.6880 -0.2746 -1.0569
  539MOL0     C74277   8.482   6.713   9.026  0.4387  0.2636 -0.3258
  539MOL0     C74278   8.609   6.661   9.052  0.9916  0.0127 -0.1815
  539MOL0     C74279   8.667   6.691   9.182  0.1846  0.1656 -0.5842
  539MOL0     O74280   8.788   6.639   9.221  0.7030  0.0549 -0.0157
  539MOL0     C74281   8.881   6.591   9.123 -0.0796 -0.5798 -1.0405
  539MOL0     C74282   9.019   6.564   9.196 -0.6374 -0.2649  0.4784
  539MOL0     C74283   9.133   6.650   9.145 -0.1111 -0.6885 -0.7909
  539MOL0     C74284   9.253   6.599   9.206  0.5222 -0.9031 -0.0375
  539MOL0     C74285   9.373   6.687   9.157 -0.7155 -0.5737  1.6089
  539MOL0     C74286   9.443   6.621   9.033 -0.0064  0.4070  0.3991
  539MOL0     C74287   9.551   6.707   8.965  0.0433  0.2244  0.4562
  539MOL0     C74288   9.653   6.614   8.892  0.0341  0.3343  0.0956
  539MOL0    Cl74289   9.781   6.565   9.021  0.0378  0.0626 -0.1295
  539MOL0     C74290   8.610   6.781   9.271  0.0984  0.2666  1.2918
  539MOL0     C74291   8.483   6.841   9.240  0.3207 -0.7010  0.7679
  539MOL0     O74292   8.361   6.992   8.937 -0.3073 -0.2992  0.1008
  539MOL0     C74293   8.047   6.962   9.121 -0.5611 -0.2207  0.1680
  539MOL0     C74294   7.912   6.998   9.124 -0.5922 -0.9855 -0.7802
  539MOL0     N74295   7.302   6.851   8.994  0.0058 -0.4586  0.5780
  539MOL0     N74296   7.228   6.745   9.025  0.1050  0.1975 -0.0285
  539MOL0     C74297   6.466   5.945   8.947  0.8768  0.2042  0.6648
  539MOL0     C74298   6.325   5.967   8.963 -0.8375  0.0626  0.3751
  539MOL0     C74299   5.877   6.058   8.858  0.4572 -0.6046 -0.0580
  539MOL0     C74300   5.781   6.096   8.764  0.1709 -0.1375 -0.2524
  539MOL0     C74301   5.641   6.094   8.783 -0.2097 -0.3448  0.0231
  539MOL0     C74302   5.595   6.057   8.914  0.6014  0.0162  0.4075
  539MOL0     O74303   5.467   6.047   8.953 -0.3512  0.4158 -0.1690
  539MOL0     C74304   5.367   6.096   8.868  1.1163 -1.1857  0.2349
  539MOL0     C74305   5.311   6.000   8.757  0.0704  0.2898  0.0349
  539MOL0     C74306   5.304   5.854   8.813 -0.7186  0.0489 -0.3662
  539MOL0     C74307   5.215   5.836   8.935  0.0556 -0.6125 -0.5539
  539MOL0     C74308   5.076   5.874   8.921  0.1566  1.1870 -0.4231
  539MOL0     C74309   4.968   5.908   8.875 -0.8837 -0.9615 -0.0488
  539MOL0     C74310   5.696   6.009   8.999  0.0154  0.5144 -0.5197
  539MOL0     C74311   5.834   6.021   8.981  0.7210  0.5708 -0.2514
  539MOL0     C74312   5.928   5.994   9.098  0.6915 -0.6981  0.5382
  539MOL0     H74313   6.233   5.974   8.639 -0.3123 -0.8472  0.7659
  539MOL0     H74314   6.490   5.951   8.620  1.3283  0.7490  0.6001
  539MOL0     H74315   6.747   5.870   8.965 -1.9499 -0.3004  0.0376
  539MOL0     H74316   6.712   6.046   8.959 -1.4441  0.5162 -0.5941
  539MOL0     H74317   6.911   5.896   8.790  2.3167  1.3886 -1.8151
  539MOL0     H74318   6.882   6.067   8.769  0.4303  0.9409  0.3833
  539MOL0     H74319   6.953   6.092   9.024 -2.5093 -1.4419  0.3741
  539MOL0     H74320   6.984   5.927   9.032  1.0148  2.8782  3.3045
  539MOL0     H74321   7.202   6.005   8.991  0.0715  2.0115  1.9149
  539MOL0     H74322   7.148   5.955   8.829  0.8510  0.2507  0.3374
  539MOL0     H74323   7.075   6.215   8.805  2.0544  2.0186 -1.2880
  539MOL0     H74324   7.244   6.178   8.779 -2.3757  1.6737 -1.5661
  539MOL0     H74325   7.153   6.273   9.057 -1.7429 -0.3870 -0.7504
  539MOL0     H74326   7.310   6.241   8.986  1.3435  1.5324 -2.3527
  539MOL0     H74327   7.116   6.458   8.886  0.5052  0.3158 -2.7000
  539MOL0     H74328   7.285   6.411   8.831 -0.6506 -0.0905 -0.2214
  539MOL0     H74329   7.208   6.515   9.106  2.7084 -0.1311  2.9274
  539MOL0     H74330   7.368   6.468   9.063  1.9065  1.1496 -0.9388
  539MOL0     H74331   7.499   6.615   8.884  1.5541  2.5012 -1.4551
  539MOL0     H74332   7.598   6.854   8.824 -2.2126 -3.7653  1.0802
  539MOL0     H74333   7.607   6.915   8.995 -0.5558 -2.3995  0.9138
  539MOL0     H74334   7.438   7.026   8.770 -0.3178 -0.8244 -0.3262
  539MOL0     H74335   7.431   7.081   8.941  0.7042 -1.3689  1.4040
  539MOL0     H74336   7.688   7.094   8.775 -1.4289 -0.2174 -1.5785
  539MOL0     H74337   7.580   7.223   8.772  0.6098  1.0483 -0.6796
  539MOL0     H74338   7.724   7.286   8.920  1.3096  0.8715  1.5463
  539MOL0     H74339   7.583   7.266   9.008  0.5344  0.5244  0.0645
  539MOL0     H74340   7.907   7.202   8.839 -1.7917  1.3010  1.4683
  539MOL0     H74341   8.184   7.054   8.730  0.5454 -0.5348  0.8204
  539MOL0     H74342   8.243   7.186   8.840  0.1497 -1.1323  1.3586
  539MOL0     H74343   8.094   7.207   8.740 -2.6495 -2.2509 -0.3481
  539MOL0     H74344   8.432   6.687   8.934 -1.4203 -1.0739  1.0062
  539MOL0     H74345   8.652   6.599   8.974 -0.7053 -0.2781 -0.9415
  539MOL0     H74346   8.838   6.497   9.086 -0.3167 -0.0718 -2.0665
  539MOL0     H74347   8.900   6.672   9.052  0.2682  1.1267  0.9014
  539MOL0     H74348   9.010   6.583   9.304 -0.2807  2.2319  0.1360
  539MOL0     H74349   9.040   6.458   9.186  0.5064  0.1643 -2.8257
  539MOL0     H74350   9.120   6.758   9.161 -0.2260 -0.8408  0.1947
  539MOL0     H74351   9.140   6.631   9.037 -1.1632  0.8189 -1.1628
  539MOL0     H74352   9.271   6.493   9.186  1.4454 -0.6383 -0.6819
  539MOL0     H74353   9.247   6.594   9.315  0.3785  0.7302  0.0487
  539MOL0     H74354   9.332   6.782   9.122 -0.1086 -0.7099  0.4675
  539MOL0     H74355   9.449   6.713   9.231  0.3660 -1.7674  0.9621
  539MOL0     H74356   9.361   6.600   8.964 -1.0230 -0.7583  1.9015
  539MOL0     H74357   9.486   6.532   9.081  0.6384  0.7001  0.3816
  539MOL0     H74358   9.607   6.759   9.044  2.5547 -1.6303  0.0095
  539MOL0     H74359   9.499   6.767   8.890  2.8221 -2.4689 -4.0426
  539MOL0     H74360   9.703   6.669   8.812  0.0533 -2.3192 -1.8452
  539MOL0     H74361   9.612   6.521   8.853 -1.0681  1.2229 -0.9122
  539MOL0     H74362   8.656   6.798   9.368  0.0844  0.4680  1.2624
  539MOL0     H74363   8.439   6.914   9.307 -0.1281  0.2277 -0.5097
  539MOL0     H74364   8.089   6.912   9.208 -0.9484  3.0813  2.4205
  539MOL0     H74365   7.863   6.971   9.217  1.8214 -0.4022  0.7719
  539MOL0     H74366   6.529   5.949   9.035  1.3449  2.0381  0.2832
  539MOL0     H74367   6.278   5.963   9.061 -0.8620 -2.3678  0.3158
  539MOL0     H74368   5.811   6.118   8.662 -0.8303  1.3476 -0.2517
  539MOL0     H74369   5.575   6.106   8.698 -0.2255 -2.8139 -0.3617
  539MOL0     H74370   5.288   6.127   8.938  1.8437  1.2620  0.0628
  539MOL0     H74371   5.396   6.195   8.832  0.4884 -1.0366  0.1352
  539MOL0     H74372   5.386   5.988   8.679 -0.9397 -1.8541 -0.6834
  539MOL0     H74373   5.213   6.018   8.711  1.4334  0.5277 -2.9809
  539MOL0     H74374   5.280   5.776   8.740 -0.8940  0.5468 -0.8464
  539MOL0     H74375   5.397   5.817   8.856 -0.8905  1.2375  1.1154
  539MOL0     H74376   5.262   5.896   9.014 -1.7854  1.6089 -1.0523
  539MOL0     H74377   5.219   5.732   8.971  1.0706 -0.2492  0.4704
  539MOL0     H74378   4.871   5.933   8.838 -1.4282 -2.9413 -0.0916
  539MOL0     H74379   5.653   5.980   9.095  0.6667  0.4210 -0.2546
  539MOL0     H74380   5.884   6.037   9.188 -0.8600  2.4398 -1.5105
  539MOL0     H74381   5.945   5.887   9.109  0.5445 -0.8328 -0.4695
  539MOL0     H74382   6.023   6.044   9.079  1.0996 -1.6048  0.1549
  540MOL0     O74383   6.438   2.104   7.191 -0.2950  0.0658  0.0255
  540MOL0     C74384   6.424   2.171   7.294  0.1362  0.0490  0.9180
  540MOL0     O74385   6.529   2.214   7.373 -0.5423  0.3966  0.5730
  540MOL0     C74386   6.657   2.185   7.344  0.9297  0.6513 -0.3401
  540MOL0     C74387   6.695   2.058   7.303  0.4613  0.0588 -0.7151
  540MOL0     C74388   6.824   2.032   7.259  0.1391  0.5586  0.7136
  540MOL0     C74389   6.915   2.131   7.251 -0.7523 -0.5027  0.5482
  540MOL0     O74390   7.050   2.126   7.199 -0.2173 -0.5876 -0.2463
  540MOL0     C74391   7.093   2.009   7.121  0.6415  0.2527 -0.2532
  540MOL0     C74392   7.244   2.013   7.101  0.3437 -0.5051 -0.8630
  540MOL0     C74393   7.296   1.896   7.010 -0.2658 -0.1235  0.0490
  540MOL0     C74394   7.447   1.871   7.041  0.6848 -0.2166  0.1727
  540MOL0     C74395   7.510   1.759   6.964  0.4635 -0.2042  0.0599
  540MOL0     C74396   7.494   1.770   6.811  0.4003  0.0077  0.7285
  540MOL0     C74397   7.557   1.899   6.749  0.3191 -0.8078  0.3356
  540MOL0     C74398   7.556   1.899   6.597  0.7937 -0.9329 -0.1981
  540MOL0     N74399   7.613   1.779   6.543 -0.1561  0.2972 -0.5322
  540MOL0     C74400   7.538   1.679   6.484 -0.2769 -0.0775 -0.3543
  540MOL0     C74401   7.626   1.599   6.417 -0.8111  0.3196  0.5802
  540MOL0     C74402   7.592   1.489   6.331  0.0135 -0.3677 -0.1253
  540MOL0     C74403   7.703   1.389   6.308  0.3781  0.4613  0.0317
  540MOL0     C74404   7.734   1.299   6.422  0.2741 -0.6959  0.4088
  540MOL0     C74405   7.863   1.233   6.382 -0.1299  0.2550  0.0609
  540MOL0     O74406   7.978   1.324   6.379 -0.3869  0.0307  0.1508
  540MOL0     C74407   8.085   1.263   6.328  1.4953 -0.5515  0.7783
  540MOL0     C74408   8.109   1.275   6.201 -0.5029 -0.4800  0.2073
  540MOL0     C74409   8.227   1.209   6.142  0.2233 -0.2488  0.1606
  540MOL0     C74410   8.242   1.226   5.988  0.2531  0.2424  0.8035
  540MOL0     C74411   8.323   1.152   6.234 -0.7454 -0.2207  0.1577
  540MOL0     C74412   8.463   1.113   6.205  0.0446 -0.6315  0.0659
  540MOL0     O74413   8.526   1.030   6.295  0.9666 -0.2284 -0.8012
  540MOL0     C74414   8.661   1.021   6.284  1.0835  0.9512  0.5827
  540MOL0     C74415   8.709   0.898   6.256  0.8539  0.0779 -0.5426
  540MOL0     C74416   8.845   0.868   6.259  0.4526  0.0462 -0.2869
  540MOL0     C74417   8.941   0.972   6.278  0.2766  0.1482 -0.2578
  540MOL0     O74418   9.069   0.943   6.276  0.0292  0.4468  0.2753
  540MOL0     C74419   9.170   1.044   6.290  0.0506  0.4289  0.5512
  540MOL0     C74420   9.298   0.994   6.216 -0.4514  1.0373 -0.6774
  540MOL0     C74421   9.346   0.871   6.295 -0.4125 -0.2209  0.1161
  540MOL0     C74422   9.487   0.848   6.262 -0.8332 -0.0170  0.5838
  540MOL0     C74423   9.538   0.724   6.328 -0.3227 -0.2776  0.5605
  540MOL0     C74424   9.692   0.733   6.323 -0.5100  0.2019 -0.5480
  540MOL0     C74425   9.739   0.604   6.387 -0.2496  0.0551  0.6012
  540MOL0     C74426   9.893   0.584   6.371  0.5533  0.0809 -0.1378
  540MOL0    Cl74427   9.940   0.573   6.195 -0.0508 -0.0944  0.3891
  540MOL0     C74428   8.888   1.099   6.307  0.1314 -0.6036 -0.6475
  540MOL0     C74429   8.748   1.123   6.318  0.4226 -0.2453  0.5794
  540MOL0     O74430   8.520   1.150   6.104  0.4652 -0.1481 -0.4190
  540MOL0     C74431   8.290   1.135   6.368 -0.1448  0.2424 -0.1942
  540MOL0     C74432   8.175   1.200   6.415 -0.1727 -0.3686 -0.2544
  540MOL0     N74433   7.751   1.659   6.421  0.4398  0.0361 -0.9598
  540MOL0     N74434   7.745   1.757   6.508  0.8172  0.1360 -0.1613
  540MOL0     C74435   6.881   2.261   7.299  0.0288 -0.3691  0.1114
  540MOL0     C74436   6.750   2.283   7.338 -0.5078 -0.3294 -0.2320
  540MOL0     C74437   6.283   2.188   7.328  0.0023  0.1039 -0.4768
  540MOL0     C74438   6.182   2.165   7.236 -0.0939 -0.3843 -0.4561
  540MOL0     C74439   6.050   2.182   7.265  0.2683 -1.0642 -0.4174
  540MOL0     C74440   6.001   2.212   7.399  0.1036  0.5193 -0.4760
  540MOL0     O74441   5.867   2.199   7.429  0.1741  0.3554 -0.6639
  540MOL0     C74442   5.825   2.198   7.568  0.0880 -0.1190  0.8583
  540MOL0     C74443   5.672   2.206   7.571 -0.2568 -0.4895 -0.4891
  540MOL0     C74444   5.611   2.328   7.498  0.0494 -0.0760 -0.5344
  540MOL0     C74445   5.651   2.469   7.547  0.1665 -0.3033 -0.4607
  540MOL0     C74446   5.610   2.583   7.462 -1.0316  0.0193  0.3679
  540MOL0     C74447   5.565   2.672   7.397 -0.0763  0.4746  0.1671
  540MOL0     C74448   6.100   2.241   7.495 -0.8022 -0.2431 -0.1736
  540MOL0     C74449   6.234   2.236   7.454  0.1730 -0.0838 -0.4502
  540MOL0     C74450   6.333   2.268   7.566 -0.1528  0.2697 -0.1960
  540MOL0     H74451   6.618   1.982   7.291  0.6676 -0.5478  1.4029
  540MOL0     H74452   6.845   1.932   7.220 -0.6293  1.6664 -2.9591
  540MOL0     H74453   7.045   2.005   7.023 -2.3758 -1.2906  1.1405
  540MOL0     H74454   7.064   1.919   7.176  1.0767 -1.2599 -2.3963
  540MOL0     H74455   7.262   2.105   7.044 -1.2825  0.1134 -0.4411
  540MOL0     H74456   7.296   2.025   7.196 -0.4367  0.8276 -0.5820
  540MOL0     H74457   7.248   1.802   7.037 -1.5626 -0.6089 -3.4519
  540MOL0     H74458   7.282   1.917   6.903  0.6234 -4.0357 -0.9704
  540MOL0     H74459   7.503   1.963   7.022  1.7396 -1.2790 -2.4444
  540MOL0     H74460   7.454   1.845   7.147 -4.0071  1.6956  1.1731
  540MOL0     H74461   7.454   1.666   6.978  1.1138 -0.6178 -0.0550
  540MOL0     H74462   7.616   1.755   6.989  0.6107  0.2242 -0.4760
  540MOL0     H74463   7.547   1.684   6.768  1.1914  1.9482 -2.5820
  540MOL0     H74464   7.390   1.779   6.780  1.1917 -0.2711 -2.4041
  540MOL0     H74465   7.662   1.915   6.774 -0.0988  1.2298  0.9885
  540MOL0     H74466   7.508   1.992   6.782 -0.1591 -0.8864 -0.1469
  540MOL0     H74467   7.455   1.904   6.554  0.8000 -2.2180 -0.4098
  540MOL0     H74468   7.617   1.984   6.567 -0.8523  0.3492 -0.0514
  540MOL0     H74469   7.431   1.662   6.490  0.0694 -2.0904  1.2767
  540MOL0     H74470   7.549   1.530   6.239 -0.0424 -3.1043 -1.4324
  540MOL0     H74471   7.506   1.443   6.381 -0.0081  0.4807  0.6521
  540MOL0     H74472   7.652   1.321   6.239 -3.3667 -1.2505  4.0219
  540MOL0     H74473   7.787   1.434   6.255 -0.9812  0.2001 -2.5056
  540MOL0     H74474   7.743   1.348   6.519 -2.7599  0.7673  0.0600
  540MOL0     H74475   7.662   1.218   6.439  0.4043 -0.2579  3.8182
  540MOL0     H74476   7.889   1.159   6.459 -0.1974  0.6380  0.4564
  540MOL0     H74477   7.854   1.179   6.287  3.1288 -2.4664  1.0663
  540MOL0     H74478   8.025   1.314   6.144 -1.8922 -0.8182  1.9623
  540MOL0     H74479   8.228   1.133   5.934  1.6021  1.0653 -1.0597
  540MOL0     H74480   8.337   1.266   5.952  1.8048 -1.7397  2.4922
  540MOL0     H74481   8.163   1.300   5.969 -0.2283 -0.3210  0.5915
  540MOL0     H74482   8.636   0.825   6.222  1.4175 -0.2347 -1.1082
  540MOL0     H74483   8.870   0.766   6.233 -3.2350 -0.3551 -3.1654
  540MOL0     H74484   9.139   1.134   6.236  0.0956 -0.0725 -0.3303
  540MOL0     H74485   9.188   1.060   6.397 -0.1297 -1.5103  0.9043
  540MOL0     H74486   9.286   0.971   6.110  0.1846 -0.7458 -0.4068
  540MOL0     H74487   9.368   1.077   6.224  0.4469  0.3326 -1.0480
  540MOL0     H74488   9.281   0.787   6.272  1.9473 -2.3198  0.6815
  540MOL0     H74489   9.339   0.893   6.402  0.0825  1.7427 -0.2090
  540MOL0     H74490   9.539   0.936   6.301 -0.8109  1.2647 -2.1519
  540MOL0     H74491   9.500   0.841   6.154  2.0594  1.6872  0.7432
  540MOL0     H74492   9.499   0.716   6.430 -3.4601  2.6881 -0.2244
  540MOL0     H74493   9.487   0.641   6.279 -0.7891 -0.7771  1.8420
  540MOL0     H74494   9.714   0.824   6.378  0.9861  3.4055 -5.7110
  540MOL0     H74495   9.732   0.753   6.223 -0.4768  3.6852  0.0401
  540MOL0     H74496   9.689   0.521   6.335 -1.7183  0.0038  2.0091
  540MOL0     H74497   9.725   0.600   6.495  1.5280  1.7853  0.9376
  540MOL0     H74498   9.927   0.498   6.428 -1.5621  0.5615  1.9749
  540MOL0     H74499   9.940   0.672   6.417 -0.9837  1.3677 -0.9157
  540MOL0     H74500   8.953   1.185   6.319 -2.7113  1.6874 -0.6033
  540MOL0     H74501   8.704   1.218   6.346 -1.6157 -0.9480 -0.0487
  540MOL0     H74502   8.362   1.096   6.439 -1.9480  0.2248  1.6996
  540MOL0     H74503   8.143   1.204   6.519  1.9804  0.8065  0.4293
  540MOL0     H74504   6.956   2.338   7.296  0.7355 -1.0697 -1.3380
  540MOL0     H74505   6.723   2.384   7.367  1.3840 -0.4273  2.1687
  540MOL0     H74506   6.203   2.130   7.135 -1.2746 -0.9614 -0.5172
  540MOL0     H74507   5.979   2.156   7.187 -2.4712 -0.5563  1.7479
  540MOL0     H74508   5.847   2.099   7.610 -1.5321 -2.5638 -3.4647
  540MOL0     H74509   5.867   2.283   7.623  1.8614 -0.0684 -0.4721
  540MOL0     H74510   5.638   2.224   7.673 -1.4160  2.8609 -1.3430
  540MOL0     H74511   5.621   2.113   7.545 -1.0409 -0.7141  1.6285
  540MOL0     H74512   5.632   2.329   7.391 -1.0514  1.3929 -0.7684
  540MOL0     H74513   5.502   2.319   7.512 -0.0860 -2.2505 -2.3775
  540MOL0     H74514   5.760   2.473   7.555  0.1764  0.4274 -0.8703
  540MOL0     H74515   5.599   2.482   7.643  2.3162 -0.8130  0.8366
  540MOL0     H74516   5.530   2.755   7.338  0.1104  0.0103 -0.6161
  540MOL0     H74517   6.069   2.252   7.598 -1.8126 -2.3781 -0.1906
  540MOL0     H74518   6.395   2.182   7.591  0.4579  0.4588 -1.0106
  540MOL0     H74519   6.403   2.343   7.529  1.6680 -1.7026 -0.9708
  540MOL0     H74520   6.288   2.302   7.660  0.1216  0.0236  0.0295
  541MOL0     O74521   6.171   1.817   5.437  0.0262  0.0835 -0.2579
  541MOL0     C74522   6.070   1.776   5.492  0.4308 -0.0369 -0.0097
  541MOL0     O74523   6.024   1.651   5.470  0.1177 -0.1167 -0.6480
  541MOL0     C74524   6.072   1.585   5.366 -0.3140 -0.0961  0.2976
  541MOL0     C74525   6.197   1.519   5.367  0.1093 -1.0182 -0.0383
  541MOL0     C74526   6.240   1.463   5.245  0.1725  0.7142 -0.4951
  541MOL0     C74527   6.169   1.467   5.125  0.7570 -0.4352 -0.0404
  541MOL0     O74528   6.214   1.394   5.020  0.4966 -0.2095 -0.1570
  541MOL0     C74529   6.188   1.434   4.889  0.0324  0.8876  0.1145
  541MOL0     C74530   6.315   1.403   4.809  0.9048  0.0135  0.3670
  541MOL0     C74531   6.445   1.478   4.855  0.2551  0.2804 -0.0124
  541MOL0     C74532   6.542   1.496   4.738 -0.1561 -0.6917 -0.9261
  541MOL0     C74533   6.669   1.557   4.798 -0.1408  0.5870  0.0886
  541MOL0     C74534   6.770   1.615   4.701  0.1392 -0.7723 -0.7887
  541MOL0     C74535   6.862   1.507   4.640  0.2610  0.7234 -0.7119
  541MOL0     C74536   6.964   1.547   4.534 -0.0410 -1.7715  0.2613
  541MOL0     N74537   7.061   1.645   4.589 -0.7433  0.0627  0.0942
  541MOL0     C74538   7.182   1.619   4.660  0.1448 -0.2678  0.9169
  541MOL0     C74539   7.224   1.739   4.698  0.1450 -0.5227  0.1113
  541MOL0     C74540   7.355   1.772   4.768 -0.4755  0.3072 -0.1110
  541MOL0     C74541   7.472   1.790   4.669  0.1119 -0.2823  0.1738
  541MOL0     C74542   7.479   1.671   4.575  0.0390 -0.1894 -0.0433
  541MOL0     C74543   7.617   1.658   4.507 -0.0402 -0.6906 -1.2403
  541MOL0     O74544   7.721   1.639   4.609 -0.1073 -0.5174 -0.3443
  541MOL0     C74545   7.855   1.648   4.576 -0.2579  0.2248  0.5360
  541MOL0     C74546   7.907   1.646   4.454  0.5759 -0.2679 -0.5754
  541MOL0     C74547   8.041   1.627   4.426 -0.2796  0.1118 -0.1187
  541MOL0     C74548   8.084   1.621   4.277  0.2895  0.1791  1.0319
  541MOL0     C74549   8.134   1.617   4.536  0.3809 -0.2645  0.3605
  541MOL0     C74550   8.282   1.590   4.527 -0.0316 -0.7163  0.4214
  541MOL0     O74551   8.326   1.473   4.475  0.4051  0.9255  0.6140
  541MOL0     C74552   8.455   1.452   4.474 -0.0649  0.4677  0.9856
  541MOL0     C74553   8.507   1.417   4.347 -0.1524  0.6111  0.3402
  541MOL0     C74554   8.637   1.377   4.329 -0.3654 -0.4302  0.1650
  541MOL0     C74555   8.721   1.365   4.445 -0.7714  0.4093  0.9399
  541MOL0     O74556   8.852   1.316   4.432 -0.0812  0.5328  0.1003
  541MOL0     C74557   8.938   1.374   4.333  1.3113 -0.4478  0.1643
  541MOL0     C74558   9.074   1.288   4.340 -0.3019  0.1541  0.4788
  541MOL0     C74559   9.161   1.331   4.456  0.2206  0.0147  0.1862
  541MOL0     C74560   9.305   1.261   4.456 -0.0497 -0.5093  0.0638
  541MOL0     C74561   9.398   1.304   4.561 -0.1547  0.1122  0.1551
  541MOL0     C74562   9.534   1.234   4.560  0.8683 -0.2237  0.2603
  541MOL0     C74563   9.631   1.282   4.465  0.0171 -0.3347 -0.1877
  541MOL0     C74564   9.780   1.242   4.483 -0.1280 -0.2054 -0.6678
  541MOL0    Cl74565   9.845   1.299   4.636  0.2350  0.4002 -0.6043
  541MOL0     C74566   8.676   1.409   4.570 -0.0323 -0.1563  0.1606
  541MOL0     C74567   8.538   1.444   4.585  0.1537  0.6587  0.3805
  541MOL0     O74568   8.358   1.669   4.585  0.2804 -0.5377  0.6459
  541MOL0     C74569   8.081   1.623   4.668 -0.4847  0.1279 -0.3313
  541MOL0     C74570   7.946   1.642   4.683 -0.3238  0.0897  0.3084
  541MOL0     N74571   7.136   1.839   4.653  0.3236  0.7844 -0.4419
  541MOL0     N74572   7.040   1.777   4.595  0.3452 -0.2223  0.0541
  541MOL0     C74573   6.042   1.534   5.129  0.6161  0.3292  0.1488
  541MOL0     C74574   5.995   1.590   5.252 -0.0081 -0.1578  1.0302
  541MOL0     C74575   6.013   1.873   5.600 -0.4417 -0.0592 -0.2997
  541MOL0     C74576   6.083   1.987   5.639  0.4528 -0.2338 -0.3283
  541MOL0     C74577   6.021   2.084   5.727 -0.0782 -0.0254 -0.1744
  541MOL0     C74578   5.890   2.070   5.767  0.0052 -0.1494  0.2469
  541MOL0     O74579   5.846   2.169   5.850  0.2060  0.3095 -0.3099
  541MOL0     C74580   5.715   2.171   5.902  0.5070 -0.4783 -0.3602
  541MOL0     C74581   5.615   2.213   5.804  0.0146 -0.5450 -0.0327
  541MOL0     C74582   5.481   2.217   5.872 -0.1159 -0.2633 -0.2135
  541MOL0     C74583   5.387   2.274   5.763  0.6230 -0.9990 -1.2372
  541MOL0     C74584   5.247   2.268   5.799  0.6491 -0.0911  0.1178
  541MOL0     C74585   5.133   2.272   5.828  0.6325  0.2515  0.8112
  541MOL0     C74586   5.829   1.946   5.746 -0.2692 -0.5382  0.7284
  541MOL0     C74587   5.874   1.855   5.645 -0.9563  0.0586 -0.3789
  541MOL0     C74588   5.779   1.746   5.600  0.4818 -0.1669  0.5603
  541MOL0     H74589   6.252   1.515   5.460  0.0767 -1.3649 -0.0326
  541MOL0     H74590   6.336   1.416   5.225  0.4098  1.6787 -1.7142
  541MOL0     H74591   6.156   1.538   4.885  0.7859  1.1349  0.3478
  541MOL0     H74592   6.112   1.372   4.841  0.6991  0.0455  0.1137
  541MOL0     H74593   6.328   1.295   4.821 -1.6575 -0.1372  2.8986
  541MOL0     H74594   6.291   1.420   4.704 -1.6161 -1.3415  0.6426
  541MOL0     H74595   6.429   1.576   4.900  1.7117 -0.3016  1.9156
  541MOL0     H74596   6.489   1.411   4.929  0.0770  1.0812  0.8296
  541MOL0     H74597   6.563   1.399   4.692 -2.1251 -0.1884 -3.0725
  541MOL0     H74598   6.491   1.552   4.659 -0.3662  0.6862  0.1409
  541MOL0     H74599   6.708   1.470   4.852 -0.9903 -0.4611 -0.9447
  541MOL0     H74600   6.648   1.650   4.853  3.8762  3.7519 -3.0686
  541MOL0     H74601   6.720   1.643   4.607 -0.0247 -1.5669 -0.9435
  541MOL0     H74602   6.811   1.703   4.751 -1.6151  0.1232 -0.8341
  541MOL0     H74603   6.807   1.432   4.583 -0.6787  1.1048 -0.3390
  541MOL0     H74604   6.912   1.450   4.718  0.3008 -0.6380 -1.6853
  541MOL0     H74605   7.011   1.455   4.498 -0.4013 -2.0418  0.4837
  541MOL0     H74606   6.917   1.604   4.453  3.8153 -0.0865 -1.0825
  541MOL0     H74607   7.231   1.522   4.665  1.7677  0.4700  0.0744
  541MOL0     H74608   7.377   1.690   4.837 -2.3670 -1.2519 -1.2591
  541MOL0     H74609   7.347   1.865   4.825  0.2415 -1.6939  3.4887
  541MOL0     H74610   7.463   1.881   4.607  1.9327  0.2812  0.6724
  541MOL0     H74611   7.568   1.798   4.721  1.7910 -0.7717 -2.6352
  541MOL0     H74612   7.471   1.575   4.627 -3.0603 -2.0700 -3.5836
  541MOL0     H74613   7.399   1.671   4.501 -3.1120 -0.0008  3.0796
  541MOL0     H74614   7.613   1.566   4.449 -1.3522 -2.0877  0.9605
  541MOL0     H74615   7.638   1.749   4.449  1.2750  0.9958  1.6619
  541MOL0     H74616   7.844   1.655   4.366 -2.3947 -3.5499  0.9452
  541MOL0     H74617   8.027   1.557   4.208  0.9956  1.3653 -0.7247
  541MOL0     H74618   8.185   1.580   4.263  0.0190  0.1021 -0.9819
  541MOL0     H74619   8.084   1.721   4.234 -2.0454 -0.6070 -1.0511
  541MOL0     H74620   8.446   1.409   4.258  0.5414 -3.8546  0.0128
  541MOL0     H74621   8.667   1.347   4.229 -0.7792  2.9795 -1.1198
  541MOL0     H74622   8.897   1.368   4.231  1.6080 -0.3106  0.0349
  541MOL0     H74623   8.954   1.478   4.363  2.2834 -0.5972  0.2007
  541MOL0     H74624   9.062   1.180   4.344  0.3572  0.0533 -0.0790
  541MOL0     H74625   9.121   1.318   4.246 -4.2522  0.9068 -1.4930
  541MOL0     H74626   9.119   1.305   4.554  1.7672 -2.2152  0.3191
  541MOL0     H74627   9.181   1.439   4.449 -1.0507  0.1757 -1.6115
  541MOL0     H74628   9.354   1.293   4.364 -2.4612 -1.2551 -1.5900
  541MOL0     H74629   9.287   1.153   4.459 -1.3907 -0.3472 -1.1586
  541MOL0     H74630   9.411   1.412   4.548 -1.7635  0.9501  3.9707
  541MOL0     H74631   9.353   1.292   4.660  0.7181  1.7614  0.7946
  541MOL0     H74632   9.512   1.127   4.556 -1.1258 -0.0670  3.1529
  541MOL0     H74633   9.574   1.254   4.660 -0.0164  0.0640  0.5703
  541MOL0     H74634   9.616   1.389   4.450 -3.3452 -0.7922 -0.9758
  541MOL0     H74635   9.602   1.233   4.371  0.0403 -0.3150 -0.2048
  541MOL0     H74636   9.832   1.286   4.397 -0.6032  0.3301 -0.6868
  541MOL0     H74637   9.785   1.133   4.479 -2.1812 -0.3434 -1.0112
  541MOL0     H74638   8.747   1.414   4.651  4.3468  0.2860 -3.3224
  541MOL0     H74639   8.508   1.474   4.685 -0.0745  0.6904  0.3029
  541MOL0     H74640   8.138   1.590   4.755 -2.9937 -0.5018  1.1634
  541MOL0     H74641   7.904   1.653   4.782  0.0574 -0.9550  0.5955
  541MOL0     H74642   5.990   1.527   5.034  1.5356  0.4593 -0.3749
  541MOL0     H74643   5.904   1.648   5.249 -0.4934 -0.8768  1.5070
  541MOL0     H74644   6.187   1.999   5.611  0.8575 -0.4191  1.0419
  541MOL0     H74645   6.079   2.168   5.764  2.5512 -2.1462  0.8288
  541MOL0     H74646   5.685   2.082   5.958 -0.9052  1.2021  1.7347
  541MOL0     H74647   5.711   2.250   5.977 -0.0922 -1.3096  0.5141
  541MOL0     H74648   5.617   2.154   5.712  4.2168  1.4015 -1.4597
  541MOL0     H74649   5.645   2.314   5.773  0.6425 -1.1642 -1.5313
  541MOL0     H74650   5.447   2.119   5.905 -2.6075 -0.4913 -3.0444
  541MOL0     H74651   5.498   2.284   5.957  2.6598 -0.0087 -0.8770
  541MOL0     H74652   5.403   2.210   5.677 -0.2316 -1.3023 -1.1792
  541MOL0     H74653   5.415   2.376   5.735  0.2185 -0.0704  1.4273
  541MOL0     H74654   5.028   2.276   5.846  0.7132 -2.7624  2.7677
  541MOL0     H74655   5.729   1.936   5.786 -0.0169  1.8625  2.1304
  541MOL0     H74656   5.799   1.739   5.493  2.3061  2.6256  0.6132
  541MOL0     H74657   5.803   1.649   5.644  0.9345 -0.4821 -0.3652
  541MOL0     H74658   5.674   1.769   5.621  0.2906 -0.1626 -0.3772
  542MOL0     O74659   7.276  10.881   6.210 -0.8391  0.5104  0.3266
  542MOL0     C74660   7.291  10.907   6.330  0.2644  0.1434  0.0390
  542MOL0     O74661   7.411  10.901   6.391  0.4022  0.1967  0.2811
  542MOL0     C74662   7.524  10.894   6.316  0.4292 -0.2989  1.1556
  542MOL0     C74663   7.614  10.999   6.323 -0.2844  0.5520 -0.4344
  542MOL0     C74664   7.728  10.994   6.241  0.5619  0.7929 -0.9723
  542MOL0     C74665   7.763  10.880   6.169  0.2927 -0.0083 -0.2795
  542MOL0     O74666   7.875  10.879   6.089  0.3040  0.7022  0.4858
  542MOL0     C74667   7.984  10.944   6.147  0.0937  0.5585 -0.0317
  542MOL0     C74668   8.014  11.076   6.074 -0.0908  0.1468  0.1854
  542MOL0     C74669   8.156  11.078   6.012 -0.2104 -0.1891  0.1773
  542MOL0     C74670   8.266  11.109   6.110  0.5771 -0.5695  0.5247
  542MOL0     C74671   8.395  11.124   6.041 -0.6296 -0.4644  0.0572
  542MOL0     C74672   8.492  11.174   6.149 -0.1742  0.0962  0.2871
  542MOL0     C74673   8.634  11.185   6.100 -0.2510 -0.0852  0.2478
  542MOL0     C74674   8.669  11.257   5.963  0.1241 -0.4047 -0.8267
  542MOL0     N74675   8.807  11.271   5.926  0.3250  0.3591 -0.0602
  542MOL0     C74676   8.911  11.306   6.000 -0.5128 -0.0607 -0.2854
  542MOL0     C74677   9.020  11.277   5.930  0.4833 -0.6851  0.0992
  542MOL0     C74678   9.168  11.301   5.973 -0.2093 -0.1537  0.4018
  542MOL0     C74679   9.193  11.453   5.992  0.5548 -1.2849 -0.3618
  542MOL0     C74680   9.335  11.497   6.025 -1.2986  0.4097  0.5291
  542MOL0     C74681   9.340  11.651   6.044 -0.2373  1.0666 -0.1820
  542MOL0     O74682   9.471  11.690   6.085  0.4294 -0.1599  0.0540
  542MOL0     C74683   9.568  11.700   5.989  1.1377  0.5066  0.1017
  542MOL0     C74684   9.550  11.681   5.854 -0.4622 -0.2711 -0.1561
  542MOL0     C74685   9.664  11.687   5.770 -0.0761  0.1632 -0.4764
  542MOL0     C74686   9.630  11.676   5.624 -0.2959 -0.1093  0.0637
  542MOL0     C74687   9.792  11.721   5.817  0.1934 -0.5689 -0.7250
  542MOL0     C74688   9.913  11.744   5.729 -0.9104  1.1429  0.0584
  542MOL0     O74689  10.013  11.818   5.778 -0.3735  0.0072 -0.3037
  542MOL0     C74690  10.116  11.885   5.710  0.4165 -0.6253 -0.0004
  542MOL0     C74691  10.208  11.954   5.786 -0.6063 -0.0660 -0.0852
  542MOL0     C74692  10.319  12.029   5.729 -0.3172 -0.9499 -0.3695
  542MOL0     C74693  10.324  12.044   5.592  0.1262  0.2752 -0.5509
  542MOL0     O74694  10.421  12.105   5.517 -0.6303  0.3076 -0.1336
  542MOL0     C74695  10.554  12.069   5.543  0.0838  0.0111 -0.0770
  542MOL0     C74696  10.652  12.141   5.451  0.1752 -0.9380 -0.4040
  542MOL0     C74697  10.635  12.095   5.306  0.1249  0.1371  0.4405
  542MOL0     C74698  10.746  12.153   5.210 -0.0090 -0.1860 -0.4987
  542MOL0     C74699  10.714  12.143   5.063  0.5507 -0.8531  0.3856
  542MOL0     C74700  10.606  12.248   5.016 -0.0881 -0.1537  0.5370
  542MOL0     C74701  10.543  12.216   4.876  0.4928 -0.2912  0.0249
  542MOL0     C74702  10.418  12.137   4.879  0.3250  0.4408  0.1233
  542MOL0    Cl74703  10.292  12.253   4.920  0.5206 -0.1764  0.1173
  542MOL0     C74704  10.221  11.993   5.514  0.3917 -0.8088 -0.1425
  542MOL0     C74705  10.118  11.911   5.567 -0.3909 -0.3291  0.4929
  542MOL0     O74706   9.917  11.688   5.617 -0.3221 -0.2872  0.1247
  542MOL0     C74707   9.804  11.746   5.958  0.3607  0.5507 -0.7709
  542MOL0     C74708   9.700  11.729   6.045  0.5753  0.7693  0.5236
  542MOL0     N74709   8.980  11.235   5.805 -0.3653 -0.2626 -0.1171
  542MOL0     N74710   8.855  11.227   5.808  0.0451  0.7253  0.0583
  542MOL0     C74711   7.680  10.773   6.161  0.7252  0.1761  0.8104
  542MOL0     C74712   7.552  10.783   6.225 -0.4948 -0.2025 -0.6764
  542MOL0     C74713   7.168  10.948   6.411 -0.5395  0.7699 -0.2369
  542MOL0     C74714   7.049  10.948   6.337 -0.6458 -0.5626  0.6355
  542MOL0     C74715   6.926  10.974   6.393 -0.6869 -0.1580  0.0923
  542MOL0     C74716   6.930  10.999   6.530 -0.4344  1.3529 -0.2283
  542MOL0     O74717   6.820  11.005   6.611  0.0598  0.2546 -0.4800
  542MOL0     C74718   6.724  11.112   6.576  0.7389 -0.3207  0.7039
  542MOL0     C74719   6.580  11.052   6.600 -0.1496  0.6763 -0.3090
  542MOL0     C74720   6.455  11.144   6.618  0.6592  0.6526  0.0844
  542MOL0     C74721   6.365  11.136   6.489 -0.0192  0.1842 -0.5128
  542MOL0     C74722   6.239  11.215   6.496  0.1811  0.5649  0.7556
  542MOL0     C74723   6.136  11.283   6.491 -0.0821  0.4303 -0.3192
  542MOL0     C74724   7.045  11.026   6.604  0.0573 -0.3003 -0.0424
  542MOL0     C74725   7.170  11.005   6.540  0.2736  0.3752  0.0686
  542MOL0     C74726   7.296  11.026   6.617  0.6635  0.2028 -0.7356
  542MOL0     H74727   7.598  11.086   6.386  1.9889  0.7829 -0.1156
  542MOL0     H74728   7.794  11.081   6.243 -0.1162  1.3314 -1.6089
  542MOL0     H74729   8.070  10.877   6.132 -0.9950 -1.1857  1.0771
  542MOL0     H74730   7.977  10.962   6.254 -0.2324  2.0118 -0.2781
  542MOL0     H74731   7.936  11.090   5.998  0.7777 -1.0889 -0.9709
  542MOL0     H74732   8.005  11.156   6.148 -2.0027 -1.0616  1.3362
  542MOL0     H74733   8.177  10.984   5.961  2.4834 -0.4066  1.5341
  542MOL0     H74734   8.158  11.151   5.931 -0.4722  0.3449  0.6449
  542MOL0     H74735   8.246  11.198   6.170 -0.7570 -1.7712  1.9365
  542MOL0     H74736   8.267  11.031   6.186  0.0725 -1.1981 -0.0912
  542MOL0     H74737   8.404  11.197   5.959  1.7891 -1.9880 -1.1612
  542MOL0     H74738   8.424  11.023   6.010 -1.1550 -0.6179  0.0678
  542MOL0     H74739   8.460  11.273   6.184 -1.3425 -0.7444  1.7027
  542MOL0     H74740   8.502  11.107   6.235  2.5106  0.0442 -0.0022
  542MOL0     H74741   8.658  11.080   6.084  1.6204  0.5955 -1.8855
  542MOL0     H74742   8.696  11.234   6.176  2.3941  0.4948 -2.1231
  542MOL0     H74743   8.613  11.200   5.888 -1.6870  1.0758 -0.6788
  542MOL0     H74744   8.627  11.358   5.963 -1.4568 -0.9295  2.7167
  542MOL0     H74745   8.910  11.332   6.105  1.8605 -0.2196 -0.1747
  542MOL0     H74746   9.247  11.271   5.904  1.1766 -1.1578  2.3370
  542MOL0     H74747   9.194  11.249   6.066 -0.8388  0.0397  0.6892
  542MOL0     H74748   9.171  11.500   5.896  3.1556  0.0464 -0.3962
  542MOL0     H74749   9.126  11.486   6.073  0.5138 -2.0370 -0.0791
  542MOL0     H74750   9.367  11.444   6.115 -0.0335  0.4382  0.1130
  542MOL0     H74751   9.405  11.475   5.944  0.3869  1.1867  1.7230
  542MOL0     H74752   9.295  11.706   5.961  2.4815  2.7254 -0.7036
  542MOL0     H74753   9.282  11.684   6.130 -0.9214  0.0437 -0.2345
  542MOL0     H74754   9.457  11.662   5.801 -0.8260  0.3814  0.2473
  542MOL0     H74755   9.524  11.693   5.605 -0.3900  1.6629  1.8296
  542MOL0     H74756   9.668  11.578   5.593  0.8147  0.3196  0.0291
  542MOL0     H74757   9.689  11.747   5.566 -0.6616  0.1849  0.0525
  542MOL0     H74758  10.209  11.934   5.892  3.7709 -0.2148  0.0412
  542MOL0     H74759  10.395  12.061   5.799 -1.0780 -1.1376  0.5590
  542MOL0     H74760  10.580  12.095   5.646  3.5317 -0.3889 -0.7425
  542MOL0     H74761  10.563  11.961   5.532 -0.3506  0.0644 -0.9812
  542MOL0     H74762  10.629  12.247   5.462 -1.4236 -0.7926 -3.7776
  542MOL0     H74763  10.752  12.109   5.484  2.5707  2.3560 -3.6729
  542MOL0     H74764  10.536  12.117   5.267 -1.2232 -0.7732  3.1184
  542MOL0     H74765  10.650  11.986   5.309  1.8797  0.2189 -2.0751
  542MOL0     H74766  10.843  12.103   5.221  1.0662  1.1577 -3.1168
  542MOL0     H74767  10.759  12.258   5.238  1.3488 -1.1812  3.2364
  542MOL0     H74768  10.809  12.169   5.015  0.6515  1.0426  1.5147
  542MOL0     H74769  10.676  12.043   5.043 -2.6544  0.2630  0.2577
  542MOL0     H74770  10.648  12.349   5.006 -1.1556  0.2320 -0.2117
  542MOL0     H74771  10.523  12.245   5.087 -0.2021 -0.9688  0.3758
  542MOL0     H74772  10.609  12.156   4.813 -2.0924 -1.7474 -1.4482
  542MOL0     H74773  10.534  12.303   4.810  2.1819 -1.2811 -1.6256
  542MOL0     H74774  10.416  12.060   4.957 -0.7332 -0.0938 -0.4128
  542MOL0     H74775  10.394  12.086   4.786  0.2493 -1.2411  1.0326
  542MOL0     H74776  10.230  12.027   5.412  2.8897  2.2414  0.9211
  542MOL0     H74777  10.045  11.866   5.501 -0.9984  0.9238  0.2829
  542MOL0     H74778   9.904  11.758   6.000 -0.1946  0.1521  0.7444
  542MOL0     H74779   9.712  11.742   6.152 -0.8779 -2.3007  1.1651
  542MOL0     H74780   7.708  10.700   6.085 -3.7431  0.3817 -1.3731
  542MOL0     H74781   7.481  10.702   6.213 -0.0744 -0.5665 -0.7368
  542MOL0     H74782   7.037  10.922   6.232  4.0527 -0.7841 -0.0611
  542MOL0     H74783   6.843  10.978   6.323 -1.3031  1.4623  0.8660
  542MOL0     H74784   6.740  11.204   6.634  2.3664 -0.6049  0.7722
  542MOL0     H74785   6.747  11.138   6.473 -0.2933 -0.3972  0.4445
  542MOL0     H74786   6.594  11.006   6.698  1.1296  0.9473 -0.3467
  542MOL0     H74787   6.570  10.968   6.531 -1.7517  1.2913 -0.8892
  542MOL0     H74788   6.393  11.096   6.693  1.4295 -1.1220 -0.3716
  542MOL0     H74789   6.477  11.247   6.648  1.1298 -0.4302  3.9213
  542MOL0     H74790   6.342  11.035   6.453  1.3965  0.2064 -1.5813
  542MOL0     H74791   6.431  11.173   6.410  1.0306  0.1212  0.3053
  542MOL0     H74792   6.052  11.350   6.492  1.8737  3.0431 -0.9070
  542MOL0     H74793   7.032  11.045   6.710 -0.0555  0.2251 -0.1490
  542MOL0     H74794   7.331  10.929   6.654  1.1321  0.4268 -0.5782
  542MOL0     H74795   7.363  11.077   6.547 -1.0837  1.6005 -1.4627
  542MOL0     H74796   7.296  11.095   6.702  2.3246  0.4766 -0.9150
  543MOL0     O74797   4.511   0.747   3.382 -0.4521 -0.1263 -0.5728
  543MOL0     C74798   4.437   0.848   3.373 -0.2944  1.1201  0.4707
  543MOL0     O74799   4.473   0.962   3.310  0.2589 -1.0591  0.0874
  543MOL0     C74800   4.604   0.965   3.255  0.4186 -0.5954 -0.6376
  543MOL0     C74801   4.706   1.047   3.320 -0.1025  0.3545  0.1915
  543MOL0     C74802   4.833   1.042   3.263 -0.1357 -0.1745 -0.0892
  543MOL0     C74803   4.869   0.967   3.144 -0.1697 -0.3324 -0.8880
  543MOL0     O74804   4.995   0.984   3.085  0.0317 -0.1049  0.5126
  543MOL0     C74805   5.064   1.106   3.112 -0.6225  0.7871 -0.3552
  543MOL0     C74806   5.192   1.096   3.030  0.5053 -0.6055  0.2391
  543MOL0     C74807   5.262   1.234   3.056 -0.2986  0.3562 -0.0488
  543MOL0     C74808   5.415   1.219   3.030 -0.0697  0.1244 -0.1057
  543MOL0     C74809   5.502   1.330   3.073 -0.7683 -1.3238  0.3612
  543MOL0     C74810   5.639   1.332   3.010  0.2620 -0.3589  0.2706
  543MOL0     C74811   5.725   1.456   3.041 -0.0757  0.0810 -0.1887
  543MOL0     C74812   5.837   1.456   2.941  0.6644 -0.4200  0.3332
  543MOL0     N74813   5.934   1.567   2.960 -0.5219  0.2408  0.3920
  543MOL0     C74814   6.070   1.563   2.949 -0.9957  0.2165 -0.8259
  543MOL0     C74815   6.115   1.686   2.985  0.4682 -0.9958 -0.1849
  543MOL0     C74816   6.250   1.747   2.968  0.0562 -0.0873 -1.1511
  543MOL0     C74817   6.243   1.869   2.875 -1.1456 -0.2442 -0.8486
  543MOL0     C74818   6.372   1.951   2.871  0.9349 -0.2441  0.4570
  543MOL0     C74819   6.340   2.075   2.781 -0.9106 -0.6189  0.6457
  543MOL0     O74820   6.459   2.126   2.716 -0.5382  0.3725  0.8496
  543MOL0     C74821   6.563   2.170   2.791  0.4281  0.7104  0.6108
  543MOL0     C74822   6.549   2.216   2.923  0.8366  0.0967  0.2244
  543MOL0     C74823   6.665   2.245   3.001 -0.7399 -0.9307 -0.6744
  543MOL0     C74824   6.637   2.274   3.147  0.0255 -0.3986 -0.3471
  543MOL0     C74825   6.794   2.245   2.943 -0.6371  0.2376  0.2524
  543MOL0     C74826   6.912   2.301   3.013  0.2401 -0.4031 -0.3008
  543MOL0     O74827   6.898   2.377   3.129  0.5575  0.1688 -1.2112
  543MOL0     C74828   7.007   2.383   3.210  0.4794 -0.4176  0.8591
  543MOL0     C74829   7.033   2.293   3.313 -1.0003  0.0375 -0.4830
  543MOL0     C74830   7.144   2.315   3.399 -0.2388  0.0004  0.2199
  543MOL0     C74831   7.223   2.428   3.386  0.8063  0.2573  0.3515
  543MOL0     O74832   7.333   2.450   3.471  0.3460 -0.2966 -0.4111
  543MOL0     C74833   7.366   2.353   3.565 -0.0647  0.6539  0.3908
  543MOL0     C74834   7.499   2.398   3.630 -0.6040  0.2663  0.7472
  543MOL0     C74835   7.618   2.382   3.529 -0.0208 -0.2690 -0.4852
  543MOL0     C74836   7.732   2.294   3.580  0.2374  0.1746  0.1094
  543MOL0     C74837   7.847   2.307   3.482 -0.1852  0.9376 -0.0702
  543MOL0     C74838   7.984   2.297   3.552 -0.3000  0.0974  0.0034
  543MOL0     C74839   8.100   2.267   3.455  0.5794  0.1752  0.0494
  543MOL0     C74840   8.227   2.227   3.521  0.0054  0.6645 -0.6961
  543MOL0    Cl74841   8.295   2.354   3.620  0.2395  0.0677 -0.1161
  543MOL0     C74842   7.195   2.524   3.289  0.6646  0.6478 -1.1210
  543MOL0     C74843   7.093   2.495   3.200  0.5264  0.5597  1.0823
  543MOL0     O74844   7.018   2.272   2.967  0.3535 -0.4040  0.5570
  543MOL0     C74845   6.801   2.205   2.808 -0.2495 -0.5145 -0.3034
  543MOL0     C74846   6.689   2.165   2.735 -0.1521  0.1676 -0.1317
  543MOL0     N74847   6.005   1.763   3.032 -1.0806  0.3721  0.2404
  543MOL0     N74848   5.899   1.683   3.024  0.3707  0.6138 -0.3269
  543MOL0     C74849   4.764   0.905   3.075  0.4632  0.7658  0.4927
  543MOL0     C74850   4.632   0.893   3.137 -0.0306 -0.4152 -0.1824
  543MOL0     C74851   4.304   0.831   3.438 -1.0833  0.5243  0.1678
  543MOL0     C74852   4.231   0.713   3.418  0.2813 -0.2659 -0.7175
  543MOL0     C74853   4.092   0.706   3.464 -0.5095 -0.8638  0.7817
  543MOL0     C74854   4.033   0.807   3.529  0.5634 -0.5307 -0.8610
  543MOL0     O74855   3.902   0.806   3.576 -0.0663  0.1487 -0.2175
  543MOL0     C74856   3.824   0.688   3.544  0.8248 -0.2144  0.5259
  543MOL0     C74857   3.683   0.697   3.617  0.2447  0.2129  0.0868
  543MOL0     C74858   3.628   0.837   3.610 -0.1322  0.3503 -0.1340
  543MOL0     C74859   3.482   0.859   3.643 -0.0582 -0.5733 -0.4955
  543MOL0     C74860   3.433   0.822   3.782 -0.5078  0.2267  0.7627
  543MOL0     C74861   3.405   0.795   3.900 -0.9679  0.2603  0.3240
  543MOL0     C74862   4.112   0.916   3.556 -0.5844  0.4434  0.1978
  543MOL0     C74863   4.246   0.928   3.520 -0.2079  0.3815 -0.5592
  543MOL0     C74864   4.328   1.049   3.563  0.3575 -0.5787  0.1814
  543MOL0     H74865   4.695   1.110   3.407 -0.2038 -0.6706  0.9420
  543MOL0     H74866   4.905   1.102   3.318  1.0455 -1.4715 -0.1648
  543MOL0     H74867   5.090   1.117   3.217 -0.7152 -0.4493 -0.1910
  543MOL0     H74868   5.005   1.189   3.072  0.2575  0.8637 -1.5561
  543MOL0     H74869   5.257   1.012   3.056 -1.7900 -2.6008 -0.0051
  543MOL0     H74870   5.170   1.098   2.923  0.3088  2.7505  0.2510
  543MOL0     H74871   5.217   1.312   2.994 -0.9935  0.2023  0.2505
  543MOL0     H74872   5.254   1.267   3.160 -0.4831 -0.3071  0.1520
  543MOL0     H74873   5.458   1.127   3.071 -1.1544 -1.0811 -1.5722
  543MOL0     H74874   5.426   1.198   2.923 -1.2235  0.2318 -0.2656
  543MOL0     H74875   5.515   1.340   3.181 -1.8581  1.2045  0.3436
  543MOL0     H74876   5.449   1.422   3.044  2.7561  1.0606  0.8448
  543MOL0     H74877   5.691   1.250   3.061  1.7776  0.7590  0.5557
  543MOL0     H74878   5.629   1.320   2.901  0.4600  3.2039 -0.2351
  543MOL0     H74879   5.760   1.450   3.144 -2.0940 -1.2170  0.4602
  543MOL0     H74880   5.672   1.547   3.013  1.8482  0.6565 -2.2552
  543MOL0     H74881   5.880   1.356   2.932 -0.0914 -0.7549  0.3737
  543MOL0     H74882   5.784   1.476   2.848  1.9909  1.4527 -0.0622
  543MOL0     H74883   6.124   1.480   2.903  0.3699  1.3479 -1.3317
  543MOL0     H74884   6.332   1.682   2.937 -0.0856 -0.8964  0.0764
  543MOL0     H74885   6.288   1.772   3.068  2.8077 -1.1287 -1.8346
  543MOL0     H74886   6.223   1.820   2.779  0.0727 -1.6179 -0.4417
  543MOL0     H74887   6.169   1.942   2.910 -0.9734 -0.9173  1.0161
  543MOL0     H74888   6.408   1.974   2.971 -1.6289  1.3533  1.0958
  543MOL0     H74889   6.441   1.881   2.821  1.1324  0.1543  0.1697
  543MOL0     H74890   6.282   2.049   2.692  2.5547 -0.0801 -1.9616
  543MOL0     H74891   6.276   2.147   2.832 -2.1995  1.0789 -3.0250
  543MOL0     H74892   6.452   2.218   2.972  0.4661 -0.1185 -0.4909
  543MOL0     H74893   6.715   2.219   3.199  1.0372  0.9506 -0.3875
  543MOL0     H74894   6.533   2.247   3.170 -0.6761  1.6938 -0.8123
  543MOL0     H74895   6.653   2.382   3.161  3.2102 -0.5747 -1.8267
  543MOL0     H74896   6.971   2.210   3.344  2.3805 -2.3011  0.7130
  543MOL0     H74897   7.171   2.238   3.471  0.4960  0.9905  1.0412
  543MOL0     H74898   7.297   2.351   3.650  2.2514  1.0460  2.3875
  543MOL0     H74899   7.377   2.255   3.519 -2.7892  0.6373 -0.4254
  543MOL0     H74900   7.488   2.506   3.645  2.9967  0.9477 -0.5750
  543MOL0     H74901   7.519   2.347   3.724  0.9032 -0.4586  0.0657
  543MOL0     H74902   7.657   2.482   3.510  2.3514 -1.2054 -0.8422
  543MOL0     H74903   7.591   2.341   3.431  0.2826  0.1233 -0.7354
  543MOL0     H74904   7.698   2.189   3.583  2.9149 -0.7373  1.1137
  543MOL0     H74905   7.755   2.326   3.681 -0.0716  0.9292 -0.0571
  543MOL0     H74906   7.831   2.230   3.407 -1.1888  1.0260  0.0439
  543MOL0     H74907   7.848   2.406   3.436  1.2890 -0.1250 -2.4850
  543MOL0     H74908   7.982   2.223   3.632 -1.6226 -0.0060 -0.1025
  543MOL0     H74909   8.006   2.393   3.598 -1.4486  0.6940 -0.6473
  543MOL0     H74910   8.116   2.344   3.378  3.1100 -1.3991 -1.1067
  543MOL0     H74911   8.070   2.183   3.392 -1.9078  0.7349  0.3575
  543MOL0     H74912   8.312   2.203   3.456  0.2552 -0.3578 -0.0277
  543MOL0     H74913   8.203   2.137   3.579 -0.2354 -0.6057 -2.6710
  543MOL0     H74914   7.251   2.616   3.293  1.1066  0.3955 -1.4878
  543MOL0     H74915   7.068   2.580   3.137  0.2653 -0.6765 -0.5391
  543MOL0     H74916   6.894   2.212   2.752 -0.0971 -0.5438 -0.0554
  543MOL0     H74917   6.692   2.126   2.634 -3.3214  2.3515 -1.2006
  543MOL0     H74918   4.793   0.846   2.989 -2.1193 -1.1861  0.8276
  543MOL0     H74919   4.552   0.845   3.081 -0.1712 -0.3170 -0.0663
  543MOL0     H74920   4.278   0.634   3.360 -1.0674 -1.5563 -0.1315
  543MOL0     H74921   4.042   0.619   3.423  2.6662 -2.5423  0.1635
  543MOL0     H74922   3.816   0.683   3.435  0.2454  0.6600  0.5190
  543MOL0     H74923   3.874   0.601   3.587 -0.1745 -0.8391  0.4461
  543MOL0     H74924   3.701   0.680   3.724  0.3660  1.0137  0.1947
  543MOL0     H74925   3.608   0.624   3.583 -0.6422  1.1678 -0.0784
  543MOL0     H74926   3.679   0.898   3.685  0.3933 -0.3869  0.1245
  543MOL0     H74927   3.654   0.878   3.513  1.6016  0.5336  0.3659
  543MOL0     H74928   3.414   0.798   3.582 -1.4000 -0.6988  1.0699
  543MOL0     H74929   3.464   0.965   3.623  0.7460 -0.5787 -1.3215
  543MOL0     H74930   3.406   0.776   4.005 -2.1631 -0.5907  0.1923
  543MOL0     H74931   4.067   1.001   3.606 -0.7412  1.5647 -1.7567
  543MOL0     H74932   4.311   1.066   3.670 -1.1166 -0.3110 -0.0796
  543MOL0     H74933   4.437   1.038   3.552  0.2596 -1.6790  0.2507
  543MOL0     H74934   4.303   1.145   3.516 -1.9366 -1.2523 -0.0831
  544MOL0     O74935   9.773   2.903   9.449  0.2643 -0.6948  0.7183
  544MOL0     C74936   9.668   2.945   9.408 -0.6102  0.0336  0.2866
  544MOL0     O74937   9.640   3.078   9.368  0.4195 -0.2879 -0.0404
  544MOL0     C74938   9.725   3.177   9.381 -0.0557  0.2661 -0.1437
  544MOL0     C74939   9.803   3.191   9.492 -0.3019 -0.5475  0.4268
  544MOL0     C74940   9.873   3.313   9.517 -0.8733 -0.0142  0.2887
  544MOL0     C74941   9.873   3.427   9.429 -0.0085  0.9596 -0.2302
  544MOL0     O74942   9.962   3.531   9.456 -0.3228 -0.4836 -0.0572
  544MOL0     C74943  10.015   3.598   9.343  0.7741  0.6161  0.4002
  544MOL0     C74944  10.117   3.697   9.390 -0.1403  0.5615  0.0006
  544MOL0     C74945  10.172   3.779   9.277  0.0971  0.2505  0.3759
  544MOL0     C74946  10.275   3.884   9.326 -0.7532  1.0495 -0.6940
  544MOL0     C74947  10.413   3.814   9.372 -1.5399  0.5647 -0.1835
  544MOL0     C74948  10.530   3.915   9.365 -0.1505 -0.5067  0.5616
  544MOL0     C74949  10.657   3.841   9.426  0.3527 -0.4953  0.2261
  544MOL0     C74950  10.794   3.919   9.415  0.0154  0.2003 -0.4192
  544MOL0     N74951  10.908   3.837   9.459  0.5293 -0.0015  0.6628
  544MOL0     C74952  11.020   3.813   9.381 -0.8575  0.5671  0.5054
  544MOL0     C74953  11.086   3.716   9.459 -0.6018 -0.5490  0.9336
  544MOL0     C74954  11.212   3.657   9.426 -0.1479  0.1760 -0.6928
  544MOL0     C74955  11.321   3.758   9.391 -0.1113 -1.0427 -0.3248
  544MOL0     C74956  11.368   3.824   9.517  0.3915  0.7296 -0.1415
  544MOL0     C74957  11.439   3.740   9.618  0.5094  1.1626  0.2200
  544MOL0     O74958  11.523   3.823   9.700  0.4859 -0.0865  0.0101
  544MOL0     C74959  11.620   3.760   9.779  0.1635 -0.3564  0.4898
  544MOL0     C74960  11.698   3.841   9.864 -0.2643 -0.5822 -0.4266
  544MOL0     C74961  11.815   3.803   9.932 -0.0031  0.5161 -0.3619
  544MOL0     C74962  11.905   3.923   9.992  0.4319  0.2843  0.3886
  544MOL0     C74963  11.855   3.670   9.933  0.2704  0.5084 -0.3046
  544MOL0     C74964  11.969   3.616  10.010 -0.0683  0.4010 -0.7948
  544MOL0     O74965  12.019   3.686  10.115 -1.1069 -0.1208 -0.2371
  544MOL0     C74966  12.150   3.659  10.155  0.7224  0.1872 -0.1418
  544MOL0     C74967  12.200   3.530  10.178 -0.1438 -0.3118  0.2490
  544MOL0     C74968  12.339   3.515  10.222  1.3335 -0.3718  0.6509
  544MOL0     C74969  12.409   3.634  10.239  0.3973  0.2833  0.3777
  544MOL0     O74970  12.544   3.628  10.278 -0.1996 -0.4402 -0.0971
  544MOL0     C74971  12.621   3.527  10.217 -0.2416 -0.8855  0.4439
  544MOL0     C74972  12.761   3.584  10.189  0.9330  0.1518  0.0632
  544MOL0     C74973  12.852   3.487  10.113  0.7930  0.4494 -0.0163
  544MOL0     C74974  13.005   3.507  10.131 -0.2755 -0.0559  0.4040
  544MOL0     C74975  13.100   3.391  10.085 -0.3217 -0.3005 -0.6223
  544MOL0     C74976  13.249   3.419  10.090  0.1685 -0.5167 -0.1824
  544MOL0     C74977  13.349   3.310  10.084  0.5031 -0.4211 -0.4838
  544MOL0     C74978  13.324   3.183  10.174  0.0494  0.1856 -0.0353
  544MOL0    Cl74979  13.453   3.066  10.122 -0.5680 -0.2960  0.0785
  544MOL0     C74980  12.367   3.757  10.208 -0.7659  0.5092 -0.3699
  544MOL0     C74981  12.233   3.771  10.170 -0.5704  0.5691  0.3368
  544MOL0     O74982  12.008   3.505   9.968  0.2413 -0.2006 -0.8533
  544MOL0     C74983  11.793   3.587   9.835  0.7830  0.2771  0.5157
  544MOL0     C74984  11.673   3.627   9.767  0.0518 -0.0121  1.2384
  544MOL0     N74985  11.027   3.703   9.582 -0.5304  0.1256 -0.8055
  544MOL0     N74986  10.910   3.766   9.571 -0.2946  0.3409  0.0569
  544MOL0     C74987   9.798   3.410   9.320  0.3261  0.7401  0.6550
  544MOL0     C74988   9.720   3.290   9.297 -0.2267 -0.5017  0.3319
  544MOL0     C74989   9.570   2.845   9.358  0.0865  0.2116  0.4693
  544MOL0     C74990   9.446   2.889   9.287 -0.1302  0.3726 -0.7344
  544MOL0     C74991   9.350   2.785   9.250 -1.1800 -0.3698 -0.4537
  544MOL0     C74992   9.362   2.654   9.286 -0.4331  0.7633  1.3524
  544MOL0     O74993   9.264   2.564   9.246  0.5111  0.1160  0.3052
  544MOL0     C74994   9.292   2.421   9.267  0.5785  0.0585  0.5214
  544MOL0     C74995   9.216   2.332   9.167 -0.5608  0.3421  0.8788
  544MOL0     C74996   9.065   2.366   9.181  0.1000 -0.0421  0.1715
  544MOL0     C74997   8.986   2.282   9.083  0.1991  0.2894 -0.7570
  544MOL0     C74998   8.848   2.324   9.101  0.8940  1.0344 -0.0340
  544MOL0     C74999   8.732   2.359   9.102 -0.2536  0.4923  0.5270
  544MOL0     C75000   9.469   2.615   9.360 -1.1438 -0.3700 -1.2658
  544MOL0     C75001   9.580   2.700   9.386 -0.6731 -0.7908 -0.1929
  544MOL0     C75002   9.694   2.636   9.465 -0.1206 -0.5729  0.3768
  544MOL0     H75003   9.810   3.108   9.563  1.4360 -1.0479 -0.2758
  544MOL0     H75004   9.925   3.329   9.611 -1.3325 -0.5232  0.6318
  544MOL0     H75005   9.936   3.649   9.288  1.2526  0.4554 -0.4501
  544MOL0     H75006  10.060   3.529   9.271 -0.0143  0.6231 -0.1137
  544MOL0     H75007  10.078   3.766   9.465  0.0499  3.3006 -2.2468
  544MOL0     H75008  10.192   3.625   9.427 -0.4787  0.6069  0.7798
  544MOL0     H75009  10.197   3.718   9.190 -3.1313  0.4824 -0.8392
  544MOL0     H75010  10.091   3.842   9.240 -0.7664 -1.0082  0.0759
  544MOL0     H75011  10.307   3.941   9.238  0.9459 -0.5063 -1.1476
  544MOL0     H75012  10.240   3.954   9.402 -0.6496 -0.7367  1.0617
  544MOL0     H75013  10.431   3.727   9.309  1.1012 -0.5993  2.0002
  544MOL0     H75014  10.404   3.775   9.474  1.4804  0.7810  0.2517
  544MOL0     H75015  10.539   3.953   9.263  2.2746  2.6408  1.7747
  544MOL0     H75016  10.516   3.994   9.439 -0.0312  1.7222 -1.6698
  544MOL0     H75017  10.674   3.754   9.361  0.9818  0.7078 -1.2721
  544MOL0     H75018  10.652   3.814   9.532  3.4777  0.5321  0.7417
  544MOL0     H75019  10.801   3.945   9.309  1.1928  0.7049 -0.2241
  544MOL0     H75020  10.793   4.009   9.476  0.7919 -0.6816  0.9338
  544MOL0     H75021  11.043   3.839   9.278  0.0196  0.9611  0.7907
  544MOL0     H75022  11.205   3.582   9.347 -1.3767 -0.2148 -0.2343
  544MOL0     H75023  11.235   3.606   9.520 -0.8259  1.2090  0.0513
  544MOL0     H75024  11.405   3.712   9.337  0.0347 -1.2087  0.0437
  544MOL0     H75025  11.285   3.839   9.327  1.5997  1.1598  1.3130
  544MOL0     H75026  11.436   3.908   9.496  0.6774  0.5778  0.1790
  544MOL0     H75027  11.279   3.866   9.564  0.4428  0.8349 -0.1356
  544MOL0     H75028  11.372   3.697   9.692  0.7488  1.4557  0.6103
  544MOL0     H75029  11.497   3.662   9.569 -1.4167 -0.2147  0.0157
  544MOL0     H75030  11.660   3.942   9.877  0.8496 -0.2100  0.0475
  544MOL0     H75031  11.866   4.019   9.956  1.1267  0.4121 -0.0291
  544MOL0     H75032  12.005   3.903   9.954 -0.6904 -1.7774 -1.7586
  544MOL0     H75033  11.895   3.908  10.100  2.4019 -1.9165  0.3440
  544MOL0     H75034  12.126   3.452  10.164 -1.9232  1.3339  0.0508
  544MOL0     H75035  12.370   3.411  10.233  0.5999 -0.6824 -0.0307
  544MOL0     H75036  12.628   3.445  10.289  2.2710 -0.2321  1.0400
  544MOL0     H75037  12.584   3.495  10.119  2.5037 -0.0808 -0.9749
  544MOL0     H75038  12.755   3.673  10.125 -0.6248 -0.4922 -0.7360
  544MOL0     H75039  12.798   3.602  10.290 -4.9282  3.6583  2.1392
  544MOL0     H75040  12.820   3.491  10.009  2.8272  1.1441 -0.6602
  544MOL0     H75041  12.827   3.391  10.160 -2.6592  1.0254 -0.4319
  544MOL0     H75042  13.033   3.525  10.235  1.6012  0.9632 -0.2273
  544MOL0     H75043  13.020   3.601  10.077  1.6658  0.9167  2.4871
  544MOL0     H75044  13.074   3.306  10.148 -1.6195  0.2151 -0.4349
  544MOL0     H75045  13.062   3.343   9.994 -3.0900 -1.7726  1.1818
  544MOL0     H75046  13.265   3.470  10.185  3.0765  0.8560 -1.2977
  544MOL0     H75047  13.267   3.485  10.004  0.2597 -3.0556 -2.2483
  544MOL0     H75048  13.450   3.348  10.104 -0.2274  1.5031 -0.1968
  544MOL0     H75049  13.347   3.272   9.982  2.1797  2.2944 -1.6255
  544MOL0     H75050  13.222   3.144  10.161 -0.1954  0.6279  0.5356
  544MOL0     H75051  13.341   3.199  10.280  3.3770 -1.3347 -0.2216
  544MOL0     H75052  12.428   3.844  10.229  0.5185 -0.0157 -1.7575
  544MOL0     H75053  12.205   3.875  10.158  1.5816  1.2471  0.9025
  544MOL0     H75054  11.819   3.483   9.823 -2.5400 -0.4450 -2.0062
  544MOL0     H75055  11.621   3.568   9.692 -2.8747  1.0196  2.3236
  544MOL0     H75056   9.786   3.484   9.241  0.6124 -3.7496 -4.0829
  544MOL0     H75057   9.655   3.284   9.210 -2.5355 -0.8472  1.9706
  544MOL0     H75058   9.437   2.994   9.259  2.6212  1.6676  2.4951
  544MOL0     H75059   9.260   2.807   9.193 -0.9324 -1.6505 -1.3982
  544MOL0     H75060   9.399   2.406   9.247  1.2058 -0.3753  3.7255
  544MOL0     H75061   9.268   2.390   9.369 -3.5745  2.1617  0.3773
  544MOL0     H75062   9.243   2.230   9.197 -0.7143 -0.7395 -2.2834
  544MOL0     H75063   9.250   2.341   9.064  0.8938  3.4880  1.5153
  544MOL0     H75064   9.042   2.357   9.288  3.7842 -0.1235  1.0866
  544MOL0     H75065   9.043   2.468   9.149 -3.7100  0.5644  3.8624
  544MOL0     H75066   8.999   2.174   9.095  0.1912  0.3948  0.2697
  544MOL0     H75067   9.021   2.297   8.980  0.9038  2.0470 -0.2984
  544MOL0     H75068   8.634   2.401   9.098  0.3488  1.8912 -0.7265
  544MOL0     H75069   9.477   2.514   9.398 -0.9182 -0.4383 -1.4940
  544MOL0     H75070   9.722   2.691   9.556  0.2906  1.2163 -0.7644
  544MOL0     H75071   9.658   2.537   9.492 -1.1015 -0.3039  0.1121
  544MOL0     H75072   9.777   2.624   9.394 -2.7911  0.9060 -3.3189
  545MOL0     O75073   0.169   0.998   0.952 -0.0953  0.0684  0.7289
  545MOL0     C75074   0.155   1.117   0.990  0.2111 -0.6589  0.3633
  545MOL0     O75075   0.210   1.177   1.107  0.8732  0.4226  0.3873
  545MOL0     C75076   0.300   1.110   1.183 -0.9815  0.2219 -0.3758
  545MOL0     C75077   0.319   1.151   1.318  0.5845 -0.3275 -0.4157
  545MOL0     C75078   0.409   1.083   1.401  0.8184  0.1260  0.0937
  545MOL0     C75079   0.482   0.973   1.354 -0.9771 -0.7086 -0.4006
  545MOL0     O75080   0.561   0.900   1.442 -0.3733  0.3072  0.1468
  545MOL0     C75081   0.532   0.908   1.587 -0.3126  0.3503 -0.6067
  545MOL0     C75082   0.604   0.803   1.669 -0.1158  0.1810  0.1776
  545MOL0     C75083   0.755   0.809   1.646  0.2553  0.4214 -0.2868
  545MOL0     C75084   0.829   0.682   1.682 -0.6207 -0.3402 -0.4135
  545MOL0     C75085   0.976   0.703   1.657 -0.2281  0.5448 -0.3769
  545MOL0     C75086   1.051   0.575   1.678  0.0929  0.4100 -0.2207
  545MOL0     C75087   1.203   0.594   1.665 -0.0509  0.0604  0.7320
  545MOL0     C75088   1.260   0.641   1.803 -0.9999 -0.1745  0.6955
  545MOL0     N75089   1.409   0.657   1.786  0.3752 -0.2475 -0.0908
  545MOL0     C75090   1.478   0.773   1.759  0.5878  0.2054 -0.6532
  545MOL0     C75091   1.608   0.745   1.777  0.1175  0.0115 -0.3126
  545MOL0     C75092   1.719   0.850   1.750 -0.4756  0.3146  0.1755
  545MOL0     C75093   1.856   0.794   1.703  0.8135  0.2429 -0.6896
  545MOL0     C75094   1.971   0.892   1.705  0.0872  0.1268 -0.2968
  545MOL0     C75095   2.015   0.953   1.570  0.5280 -0.3379  0.2702
  545MOL0     O75096   2.088   0.855   1.488 -0.1119 -0.1178  0.1533
  545MOL0     C75097   2.221   0.851   1.507  0.4225 -0.3851 -0.6867
  545MOL0     C75098   2.275   0.760   1.603 -0.7811 -0.0160  0.3418
  545MOL0     C75099   2.417   0.758   1.629  0.0731 -0.2274 -0.1279
  545MOL0     C75100   2.475   0.670   1.739  0.6947  0.4546  0.2824
  545MOL0     C75101   2.498   0.829   1.537  0.0860 -0.9218  0.1097
  545MOL0     C75102   2.650   0.820   1.524  0.2207 -0.4302 -0.3393
  545MOL0     O75103   2.720   0.919   1.466 -0.5706 -0.4043 -0.3899
  545MOL0     C75104   2.856   0.919   1.456 -0.0680  0.0640  0.5259
  545MOL0     C75105   2.934   1.001   1.531  0.6430 -0.5340 -1.2140
  545MOL0     C75106   3.070   1.000   1.532 -0.3168 -0.4842  0.3440
  545MOL0     C75107   3.137   0.903   1.456 -0.3342  0.4462  0.6097
  545MOL0     O75108   3.276   0.895   1.439  0.2535  0.1406 -0.3166
  545MOL0     C75109   3.345   0.910   1.559 -0.7616  0.3967 -0.5123
  545MOL0     C75110   3.438   1.021   1.565  0.2126 -0.7562  0.1670
  545MOL0     C75111   3.549   1.017   1.453 -0.2736  0.2441  0.7875
  545MOL0     C75112   3.655   1.137   1.470  0.2169 -0.0607  0.0110
  545MOL0     C75113   3.744   1.146   1.349 -0.4849  0.1449 -0.6486
  545MOL0     C75114   3.860   1.245   1.350 -0.6257  0.6128 -0.0205
  545MOL0     C75115   3.996   1.183   1.366 -0.4972 -0.1940  0.1262
  545MOL0     C75116   4.072   1.128   1.248  0.2435  0.6654  0.5162
  545MOL0    Cl75117   4.250   1.125   1.262 -0.3011  0.0298  0.1839
  545MOL0     C75118   3.060   0.818   1.374 -0.2718  0.3589  0.9967
  545MOL0     C75119   2.921   0.825   1.371  0.2031 -0.7993 -0.3991
  545MOL0     O75120   2.703   0.717   1.567 -0.1397 -0.6161  0.1834
  545MOL0     C75121   2.440   0.917   1.444 -0.3776 -0.1356 -0.3126
  545MOL0     C75122   2.305   0.930   1.431  0.0323 -0.7002 -0.2093
  545MOL0     N75123   1.622   0.616   1.819  0.8987  0.3858  0.5095
  545MOL0     N75124   1.503   0.555   1.816  0.8267 -0.2678  0.1595
  545MOL0     C75125   0.474   0.938   1.225 -0.8759 -0.3496  0.5294
  545MOL0     C75126   0.380   1.004   1.141 -1.7579 -0.5368  0.3351
  545MOL0     C75127   0.041   1.194   0.929  0.8123  0.9633 -0.4124
  545MOL0     C75128  -0.051   1.259   1.011 -0.4566 -0.2112 -0.0877
  545MOL0     C75129  -0.160   1.329   0.957 -0.2446  0.2408 -0.4740
  545MOL0     C75130  -0.180   1.335   0.820  0.1297 -0.0227  0.3843
  545MOL0     O75131  -0.290   1.405   0.778 -0.4061 -0.0263 -0.4364
  545MOL0     C75132  -0.326   1.439   0.641  0.0821  0.7378  1.1847
  545MOL0     C75133  -0.402   1.326   0.581 -0.6215 -0.4450  0.1287
  545MOL0     C75134  -0.439   1.341   0.435 -0.3043  0.6356  0.0205
  545MOL0     C75135  -0.489   1.199   0.385  0.4245  0.1849  0.1987
  545MOL0     C75136  -0.617   1.150   0.445 -0.2585  0.5873 -0.0443
  545MOL0     C75137  -0.714   1.097   0.501 -1.0626 -0.4862  0.1994
  545MOL0     C75138  -0.083   1.271   0.737  0.3932 -1.1841 -1.5736
  545MOL0     C75139   0.030   1.204   0.787  0.1660 -0.0899  0.2768
  545MOL0     C75140   0.126   1.159   0.679 -0.3570  0.1343 -0.1567
  545MOL0     H75141   0.269   1.235   1.366 -0.6557 -0.9032 -0.6451
  545MOL0     H75142   0.434   1.129   1.496  3.0604  1.1545 -0.9215
  545MOL0     H75143   0.426   0.898   1.611  0.1680 -1.5307  0.9691
  545MOL0     H75144   0.574   1.006   1.610  0.1615  0.3637 -1.4729
  545MOL0     H75145   0.576   0.823   1.773  0.2222 -2.3026  0.8154
  545MOL0     H75146   0.568   0.705   1.638  0.2820 -0.1847  0.8321
  545MOL0     H75147   0.776   0.834   1.541 -2.6047 -2.1666 -1.6506
  545MOL0     H75148   0.790   0.891   1.708 -1.7873  0.2388  1.2209
  545MOL0     H75149   0.805   0.663   1.787 -0.3713  2.2435  0.1562
  545MOL0     H75150   0.802   0.604   1.609 -0.3837 -0.5974 -0.2274
  545MOL0     H75151   1.008   0.773   1.735 -2.6509  0.9869  0.3156
  545MOL0     H75152   1.006   0.743   1.560  1.1845  0.2891 -0.0675
  545MOL0     H75153   1.014   0.536   1.773 -1.2661 -1.3216 -1.3978
  545MOL0     H75154   1.016   0.507   1.600  1.0620 -1.3679  0.8284
  545MOL0     H75155   1.213   0.661   1.580 -1.0533  1.0480  1.3611
  545MOL0     H75156   1.250   0.499   1.637  2.0026  1.4058 -0.6054
  545MOL0     H75157   1.219   0.741   1.823 -1.0799 -0.1876  0.6024
  545MOL0     H75158   1.229   0.570   1.880  1.5660 -0.5908  1.4175
  545MOL0     H75159   1.438   0.874   1.757 -0.8450 -0.1950  2.5511
  545MOL0     H75160   1.743   0.886   1.850 -0.4315 -3.8527  1.9037
  545MOL0     H75161   1.683   0.929   1.684 -0.1740 -0.2019 -0.6172
  545MOL0     H75162   1.882   0.706   1.762 -0.5152  0.0619 -0.3581
  545MOL0     H75163   1.855   0.770   1.597 -2.2279 -0.7439 -0.5154
  545MOL0     H75164   1.960   0.969   1.782 -0.9819 -2.9197  2.8782
  545MOL0     H75165   2.056   0.827   1.727  0.0817  0.0126 -0.6078
  545MOL0     H75166   1.930   0.982   1.507  0.8762 -0.6913 -0.3803
  545MOL0     H75167   2.087   1.030   1.601  0.1791 -0.5328  1.6129
  545MOL0     H75168   2.222   0.692   1.668 -1.9089 -0.4587 -0.9794
  545MOL0     H75169   2.562   0.606   1.720 -0.2879 -0.1287 -2.7612
  545MOL0     H75170   2.396   0.610   1.785 -1.0060  0.0016 -3.0047
  545MOL0     H75171   2.506   0.736   1.821 -0.6332  2.0046 -0.3977
  545MOL0     H75172   2.876   1.064   1.597  0.0533 -1.4077 -0.8712
  545MOL0     H75173   3.127   1.080   1.579 -0.7283  0.1377 -0.1926
  545MOL0     H75174   3.279   0.909   1.645  0.1266 -2.9432  0.2859
  545MOL0     H75175   3.403   0.817   1.567  0.3999  1.0658 -0.9142
  545MOL0     H75176   3.388   1.118   1.563  2.3402  0.3962 -0.8124
  545MOL0     H75177   3.491   1.016   1.660  2.0854 -0.0774 -0.7964
  545MOL0     H75178   3.511   1.029   1.351  3.4586  2.4892 -0.5466
  545MOL0     H75179   3.603   0.923   1.464 -0.8152 -0.5717 -2.6404
  545MOL0     H75180   3.711   1.132   1.564  1.8134  0.3506 -0.8774
  545MOL0     H75181   3.601   1.231   1.480  1.3961  0.3962  3.3207
  545MOL0     H75182   3.788   1.048   1.331 -0.6804 -0.4930  1.9472
  545MOL0     H75183   3.674   1.173   1.269 -0.0662  0.8518 -0.7807
  545MOL0     H75184   3.847   1.299   1.445 -0.7513  1.3881 -0.4737
  545MOL0     H75185   3.855   1.311   1.263 -0.3471 -1.3832 -1.6184
  545MOL0     H75186   3.997   1.114   1.450  4.0661 -0.9443 -0.2804
  545MOL0     H75187   4.053   1.267   1.407 -0.0056 -1.5853  2.4693
  545MOL0     H75188   4.047   1.178   1.154  0.2992 -3.2283 -1.8101
  545MOL0     H75189   4.036   1.026   1.237  1.6348  0.1867  0.1073
  545MOL0     H75190   3.115   0.749   1.310  1.1758  0.0937  2.4474
  545MOL0     H75191   2.871   0.751   1.310 -1.1852  1.0680 -1.6436
  545MOL0     H75192   2.496   0.975   1.371 -0.0751 -0.5464 -0.4125
  545MOL0     H75193   2.266   1.004   1.361 -0.5366 -0.6162  0.1868
  545MOL0     H75194   0.530   0.853   1.189  1.2064  1.1160  0.1421
  545MOL0     H75195   0.379   0.977   1.036 -0.8324 -0.4371  0.2889
  545MOL0     H75196  -0.026   1.259   1.116 -0.1538 -0.5081 -0.1555
  545MOL0     H75197  -0.235   1.375   1.021 -1.6094 -1.0854 -1.0669
  545MOL0     H75198  -0.393   1.525   0.634 -1.3803 -0.4956 -2.4495
  545MOL0     H75199  -0.232   1.458   0.588  0.4882 -0.5503  1.4091
  545MOL0     H75200  -0.498   1.312   0.631 -0.4168 -1.1465  0.3349
  545MOL0     H75201  -0.348   1.232   0.595  0.1474 -0.7578 -3.8037
  545MOL0     H75202  -0.516   1.418   0.425  1.3129  2.1597 -1.4473
  545MOL0     H75203  -0.357   1.376   0.372 -1.0942  0.7390 -0.9799
  545MOL0     H75204  -0.408   1.126   0.399  1.4214  1.4330  1.2275
  545MOL0     H75205  -0.500   1.204   0.277 -3.4332 -1.8269  0.3182
  545MOL0     H75206  -0.782   1.041   0.562 -1.8208 -0.9062 -0.9993
  545MOL0     H75207  -0.114   1.293   0.636 -1.9960  0.5222 -0.5750
  545MOL0     H75208   0.095   1.063   0.636  0.3981 -0.2265  0.0851
  545MOL0     H75209   0.132   1.234   0.601  1.0876  0.2691  0.0575
  545MOL0     H75210   0.225   1.141   0.722 -0.7751  0.7409  1.1094
  546MOL0     O75211   6.097   1.152   9.353 -0.2327  0.1962  0.5657
  546MOL0     C75212   6.071   1.155   9.475 -0.7596 -0.1033 -0.0047
  546MOL0     O75213   6.144   1.210   9.580  0.2881 -0.5081  0.0439
  546MOL0     C75214   6.276   1.228   9.551  0.6467  0.0602  0.0406
  546MOL0     C75215   6.373   1.124   9.533 -0.1525  0.8343  0.1255
  546MOL0     C75216   6.504   1.146   9.497  0.1663 -0.6463 -0.1619
  546MOL0     C75217   6.545   1.280   9.470 -0.4931 -0.1751 -0.5674
  546MOL0     O75218   6.668   1.325   9.441  0.6001  0.2408 -0.4391
  546MOL0     C75219   6.776   1.226   9.429 -0.1741 -0.0263 -0.5609
  546MOL0     C75220   6.903   1.300   9.370  0.6454  0.6826  0.3390
  546MOL0     C75221   6.906   1.302   9.215  0.6818  0.0883  0.3593
  546MOL0     C75222   7.031   1.373   9.164  0.8508 -0.1675 -0.1666
  546MOL0     C75223   7.056   1.363   9.019  0.3039 -0.2762  0.0345
  546MOL0     C75224   7.185   1.444   8.986 -0.5637  0.7862  0.0587
  546MOL0     C75225   7.197   1.482   8.836  0.0959 -1.0355 -0.1341
  546MOL0     C75226   7.152   1.377   8.740  0.1057  0.3796  0.0325
  546MOL0     N75227   7.226   1.248   8.745  0.1895  0.1185 -0.4588
  546MOL0     C75228   7.282   1.192   8.637  0.0544 -0.2245 -1.1092
  546MOL0     C75229   7.314   1.067   8.673  0.0699  0.3411  0.3623
  546MOL0     C75230   7.373   0.960   8.576  0.6056  0.4195 -1.1868
  546MOL0     C75231   7.506   0.905   8.627  0.6716 -0.2932  0.0408
  546MOL0     C75232   7.532   0.765   8.578  0.8064  0.3303 -0.0314
  546MOL0     C75233   7.665   0.717   8.625  0.0266 -1.1041 -0.2881
  546MOL0     O75234   7.767   0.799   8.559 -0.2087  0.4771 -0.2582
  546MOL0     C75235   7.866   0.736   8.492 -0.0239 -0.1700 -0.3679
  546MOL0     C75236   7.919   0.795   8.379  0.0135 -0.0895  0.3523
  546MOL0     C75237   8.027   0.745   8.306  0.6509 -0.4528 -0.6543
  546MOL0     C75238   8.080   0.819   8.185 -0.1303  0.0621 -1.3077
  546MOL0     C75239   8.098   0.642   8.367 -0.2884  1.0038  0.5262
  546MOL0     C75240   8.221   0.571   8.311 -0.8864  0.1032 -0.5954
  546MOL0     O75241   8.311   0.651   8.242 -0.0088  0.4443 -0.7724
  546MOL0     C75242   8.415   0.592   8.169  0.1476  0.2013  0.1601
  546MOL0     C75243   8.461   0.455   8.169  0.6139  0.7937 -0.2605
  546MOL0     C75244   8.575   0.416   8.106  0.3201  0.5844 -0.1527
  546MOL0     C75245   8.664   0.505   8.048 -0.2974  0.4921 -0.0267
  546MOL0     O75246   8.785   0.479   7.996  0.5775  0.2377  0.1480
  546MOL0     C75247   8.823   0.343   7.987  0.4964 -0.0440  0.5789
  546MOL0     C75248   8.970   0.350   7.929  0.7551  0.2243  0.1217
  546MOL0     C75249   9.038   0.219   7.904  0.7681  1.1190 -0.9005
  546MOL0     C75250   9.119   0.174   8.020  0.2107  0.4026 -0.4221
  546MOL0     C75251   9.247   0.255   8.036 -1.2416  0.5724  0.0523
  546MOL0     C75252   9.343   0.196   8.138 -0.5859  0.6789  0.9936
  546MOL0     C75253   9.477   0.283   8.138  0.1025  0.6479  0.2592
  546MOL0     C75254   9.602   0.191   8.138  0.7508 -0.4006 -0.8466
  546MOL0    Cl75255   9.639   0.134   8.303  0.1129 -0.2369 -0.1415
  546MOL0     C75256   8.621   0.639   8.045 -0.3163  0.0305 -0.4569
  546MOL0     C75257   8.501   0.685   8.108 -0.0441  0.1954 -0.1234
  546MOL0     O75258   8.234   0.455   8.346  0.3329 -0.0309 -0.3600
  546MOL0     C75259   8.046   0.581   8.484  0.6336  0.0489  0.0889
  546MOL0     C75260   7.931   0.621   8.544  0.2142 -0.1808 -0.7879
  546MOL0     N75261   7.278   1.043   8.802  0.3837  0.0813 -0.4017
  546MOL0     N75262   7.228   1.151   8.841  0.0337 -0.1509  0.3918
  546MOL0     C75263   6.452   1.386   9.486 -0.1346  0.7216  0.2845
  546MOL0     C75264   6.319   1.361   9.529  1.2321  0.3855  0.3051
  546MOL0     C75265   5.941   1.086   9.517 -0.3363 -0.3987  0.4640
  546MOL0     C75266   5.919   1.076   9.660 -0.2795 -0.6207 -0.0060
  546MOL0     C75267   5.803   1.015   9.705 -0.8312  1.1136 -0.2329
  546MOL0     C75268   5.695   0.963   9.628 -0.1215  0.0109 -0.2031
  546MOL0     O75269   5.600   0.894   9.696 -0.6554 -0.2266 -0.1786
  546MOL0     C75270   5.500   0.823   9.621  0.3701 -0.1532  0.3070
  546MOL0     C75271   5.386   0.899   9.575 -0.2706 -1.0803  0.5280
  546MOL0     C75272   5.315   0.975   9.682 -0.2250 -0.2049 -0.0205
  546MOL0     C75273   5.209   1.071   9.611  0.0020 -0.0524  0.3527
  546MOL0     C75274   5.103   1.125   9.702 -0.2287  0.2388  0.2589
  546MOL0     C75275   5.012   1.173   9.766 -0.1033 -0.3492  0.0776
  546MOL0     C75276   5.717   0.979   9.488  0.2432  0.8924 -0.6441
  546MOL0     C75277   5.837   1.025   9.432 -0.4004 -0.4309  0.0805
  546MOL0     C75278   5.854   1.023   9.283 -0.1843  0.8814  0.1006
  546MOL0     H75279   6.342   1.024   9.562  1.2634  0.1098 -0.7770
  546MOL0     H75280   6.569   1.059   9.489 -1.2966 -1.8340  0.5874
  546MOL0     H75281   6.750   1.143   9.362  0.4263 -0.5204 -0.1973
  546MOL0     H75282   6.792   1.184   9.529 -3.8795 -0.6351 -0.0890
  546MOL0     H75283   6.917   1.397   9.419 -1.6826 -0.1305  2.9594
  546MOL0     H75284   6.986   1.236   9.399 -1.1238 -1.2265  1.5394
  546MOL0     H75285   6.903   1.203   9.168 -0.4185  0.8873 -1.3414
  546MOL0     H75286   6.815   1.351   9.178 -0.6614 -2.3207  0.2751
  546MOL0     H75287   7.022   1.480   9.184  0.2876 -0.2393 -0.0245
  546MOL0     H75288   7.118   1.333   9.216  0.2323 -2.4801 -0.8066
  546MOL0     H75289   6.977   1.413   8.963  1.9542  2.3552 -0.0911
  546MOL0     H75290   7.069   1.257   8.996 -0.5698 -0.3249 -0.2826
  546MOL0     H75291   7.199   1.535   9.044 -0.3139  1.3053 -0.7879
  546MOL0     H75292   7.274   1.386   9.013 -1.2375 -1.0350 -1.3856
  546MOL0     H75293   7.298   1.512   8.806 -0.0569  0.4870  0.7789
  546MOL0     H75294   7.126   1.566   8.838 -1.2775 -2.1497 -0.5723
  546MOL0     H75295   7.046   1.359   8.759  0.1662  0.7754  0.7881
  546MOL0     H75296   7.169   1.421   8.641  0.9523  0.9345  0.4115
  546MOL0     H75297   7.294   1.243   8.542 -2.9464 -1.2298 -2.1741
  546MOL0     H75298   7.379   1.011   8.480 -0.8404  0.5127 -1.2461
  546MOL0     H75299   7.298   0.881   8.566  0.1432  0.6699  0.0585
  546MOL0     H75300   7.580   0.977   8.591 -0.4249 -0.3882 -2.5969
  546MOL0     H75301   7.503   0.907   8.737 -2.8986 -2.5529  0.1163
  546MOL0     H75302   7.458   0.700   8.627 -0.4864  0.8822 -1.1980
  546MOL0     H75303   7.520   0.770   8.470 -5.3937  1.9431  0.3441
  546MOL0     H75304   7.678   0.735   8.732  1.5124  0.5363 -0.6999
  546MOL0     H75305   7.683   0.612   8.603  0.0763 -0.8089 -1.7943
  546MOL0     H75306   7.868   0.882   8.340 -4.2807 -0.7351  3.7453
  546MOL0     H75307   8.119   0.752   8.108  1.6169  0.2627 -0.6264
  546MOL0     H75308   8.163   0.881   8.218  0.7151 -1.3421 -0.7251
  546MOL0     H75309   7.999   0.886   8.153 -1.6975 -0.0519  1.9963
  546MOL0     H75310   8.412   0.374   8.222 -1.3323  0.8443 -1.8930
  546MOL0     H75311   8.600   0.311   8.102 -1.5914 -0.0170  1.7141
  546MOL0     H75312   8.812   0.299   8.087 -3.0769 -2.0379 -0.5138
  546MOL0     H75313   8.763   0.291   7.911  0.1457 -0.9191  1.4262
  546MOL0     H75314   8.963   0.410   7.837  0.9745 -0.1620 -0.1475
  546MOL0     H75315   9.024   0.410   8.003  1.4274  0.3749 -0.4847
  546MOL0     H75316   9.103   0.222   7.816  1.2832  2.8668 -0.5038
  546MOL0     H75317   8.961   0.146   7.879  1.7428 -0.9606  1.7367
  546MOL0     H75318   9.154   0.071   8.011 -0.4823 -0.3487  3.7114
  546MOL0     H75319   9.052   0.182   8.106 -1.3874  1.9418 -1.7204
  546MOL0     H75320   9.309   0.244   7.946  0.4184 -1.5754  1.3759
  546MOL0     H75321   9.227   0.363   8.045 -1.5190  0.7771 -2.2765
  546MOL0     H75322   9.372   0.096   8.105  0.1590  1.8499 -2.3335
  546MOL0     H75323   9.284   0.191   8.230 -3.8517 -0.4750 -1.0027
  546MOL0     H75324   9.471   0.345   8.228 -1.2527  1.5378 -0.4146
  546MOL0     H75325   9.480   0.342   8.046  0.3442 -0.2230 -0.3010
  546MOL0     H75326   9.693   0.242   8.106  2.3325 -1.8164  1.1271
  546MOL0     H75327   9.584   0.107   8.071 -1.8835  1.3839 -2.5567
  546MOL0     H75328   8.700   0.708   8.017  0.9258 -0.3814  1.7455
  546MOL0     H75329   8.480   0.791   8.099  0.7219  0.2196 -2.0731
  546MOL0     H75330   8.108   0.506   8.533  0.9684 -1.8386 -2.9487
  546MOL0     H75331   7.896   0.573   8.635  0.3270 -1.9143 -1.6192
  546MOL0     H75332   6.485   1.488   9.467  0.7951  0.4266  0.2634
  546MOL0     H75333   6.253   1.445   9.549 -1.2466 -1.9492  2.7359
  546MOL0     H75334   5.991   1.116   9.731  1.5957 -2.8262 -0.5514
  546MOL0     H75335   5.792   1.005   9.813  0.5386 -1.1284 -0.2450
  546MOL0     H75336   5.551   0.754   9.552  0.7389 -1.8214  2.1417
  546MOL0     H75337   5.465   0.744   9.688  2.1447 -0.0500  1.4379
  546MOL0     H75338   5.321   0.834   9.515 -0.8210 -0.3133  0.2761
  546MOL0     H75339   5.430   0.981   9.518  1.9577 -0.2974  3.2073
  546MOL0     H75340   5.275   0.894   9.743  1.8407 -2.0767 -1.0214
  546MOL0     H75341   5.376   1.042   9.744 -1.3444  1.2670 -0.4530
  546MOL0     H75342   5.164   1.016   9.528 -1.4095 -0.6093  1.4456
  546MOL0     H75343   5.262   1.148   9.554  0.2757 -0.1630  0.4568
  546MOL0     H75344   4.932   1.220   9.819 -0.6963  1.4844 -2.2816
  546MOL0     H75345   5.633   0.950   9.425 -1.1506  1.8474  0.6727
  546MOL0     H75346   5.930   0.948   9.259 -1.0679  0.2493 -0.8234
  546MOL0     H75347   5.760   0.990   9.237 -0.1291 -0.8106  1.1171
  546MOL0     H75348   5.876   1.120   9.238 -0.7830  0.3362 -1.4340
  547MOL0     O75349   8.503  10.519   5.374 -0.5563  0.3953 -0.2302
  547MOL0     C75350   8.452  10.571   5.278 -0.0544 -0.3749 -0.1208
  547MOL0     O75351   8.514  10.610   5.168  0.2043 -0.3243  0.8402
  547MOL0     C75352   8.648  10.599   5.131  0.4871  0.0387  0.1328
  547MOL0     C75353   8.747  10.561   5.223 -0.6838  0.7951  0.6496
  547MOL0     C75354   8.874  10.545   5.177 -0.2180  0.3297  0.0436
  547MOL0     C75355   8.910  10.564   5.043  0.0145  0.1519  0.2613
  547MOL0     O75356   9.031  10.543   4.986 -0.6561 -0.5219  0.0166
  547MOL0     C75357   9.147  10.546   5.069  0.6084  0.4969  0.2433
  547MOL0     C75358   9.265  10.537   4.974  0.9837  0.8491 -0.5053
  547MOL0     C75359   9.394  10.544   5.056  0.3473  0.6419  0.2611
  547MOL0     C75360   9.518  10.554   4.964  0.5459  0.1875 -0.0182
  547MOL0     C75361   9.650  10.548   5.041  0.3325 -0.3500  0.1162
  547MOL0     C75362   9.768  10.513   4.947 -0.2513  0.4602  0.8555
  547MOL0     C75363   9.890  10.463   5.027 -0.5368 -0.1243 -0.1558
  547MOL0     C75364  10.021  10.535   4.990 -0.1361  0.3193  0.3013
  547MOL0     N75365  10.134  10.498   5.072 -0.2897  0.9645  0.0941
  547MOL0     C75366  10.254  10.451   5.019  0.3200 -0.1838 -0.7996
  547MOL0     C75367  10.325  10.423   5.123  1.0057 -0.2420 -0.3753
  547MOL0     C75368  10.464  10.365   5.115 -0.5293 -1.2553 -0.5715
  547MOL0     C75369  10.466  10.220   5.150  0.3758  0.2334 -0.4734
  547MOL0     C75370  10.465  10.186   5.300 -0.1181 -0.1481  0.3773
  547MOL0     C75371  10.600  10.222   5.363  0.3308 -0.5788  0.3055
  547MOL0     O75372  10.593  10.191   5.503  0.2270  0.0640  0.2781
  547MOL0     C75373  10.705  10.170   5.575  0.2647  0.1042 -0.5821
  547MOL0     C75374  10.834  10.147   5.525  0.2175  0.8479 -0.4342
  547MOL0     C75375  10.942  10.139   5.613  0.2475  0.3765 -0.4611
  547MOL0     C75376  11.087  10.136   5.554  0.3853 -0.8351  0.8673
  547MOL0     C75377  10.935  10.136   5.758 -0.3411 -0.4553 -0.6522
  547MOL0     C75378  11.040  10.148   5.858  0.1904  0.3993  0.3464
  547MOL0     O75379  11.156  10.223   5.825  0.0178 -0.2165  0.0763
  547MOL0     C75380  11.268  10.194   5.893 -0.2117 -0.1042  0.2808
  547MOL0     C75381  11.305  10.274   6.001 -0.1200  0.4713  0.9352
  547MOL0     C75382  11.413  10.220   6.075 -0.4012  0.2971  0.0062
  547MOL0     C75383  11.497  10.116   6.027 -0.1414 -0.3980  0.1523
  547MOL0     O75384  11.601  10.086   6.112  0.1790 -0.6704  1.0512
  547MOL0     C75385  11.725  10.018   6.058  0.1651  0.1552 -0.0064
  547MOL0     C75386  11.847  10.034   6.158 -0.3452 -0.0552  0.3472
  547MOL0     C75387  11.822   9.941   6.279  0.3933 -0.0217 -0.3286
  547MOL0     C75388  11.953   9.924   6.354  0.4991 -0.1018  0.0778
  547MOL0     C75389  11.954   9.834   6.474 -0.2265  0.4015  0.1677
  547MOL0     C75390  11.871   9.902   6.577  0.0945  0.4729 -0.1017
  547MOL0     C75391  11.873   9.823   6.710  0.2497  1.4086  0.0417
  547MOL0     C75392  11.816   9.897   6.833  0.4595 -0.0291  0.2860
  547MOL0    Cl75393  11.651   9.948   6.804 -0.0665 -0.1485  0.3461
  547MOL0     C75394  11.477  10.070   5.903 -0.4751 -0.0709  0.5268
  547MOL0     C75395  11.359  10.095   5.840  0.0922  0.4882 -0.6442
  547MOL0     O75396  11.020  10.099   5.973  0.3497 -0.1752 -0.2713
  547MOL0     C75397  10.801  10.138   5.798 -0.1532  0.6156 -0.0832
  547MOL0     C75398  10.687  10.162   5.719 -0.6349 -0.0225  0.8557
  547MOL0     N75399  10.250  10.446   5.238  0.0521 -0.1700 -0.6729
  547MOL0     N75400  10.124  10.477   5.208  0.1415  0.7677 -0.5433
  547MOL0     C75401   8.802  10.593   4.959 -0.0039 -0.1957 -0.0963
  547MOL0     C75402   8.668  10.624   5.001 -0.1589  0.1451 -1.0056
  547MOL0     C75403   8.305  10.601   5.278  0.7961 -0.3985  0.0057
  547MOL0     C75404   8.250  10.651   5.152 -0.0985 -0.5048  0.2176
  547MOL0     C75405   8.113  10.673   5.135 -0.3870 -0.0910  0.2303
  547MOL0     C75406   8.028  10.658   5.245  0.9628 -0.0389 -0.0475
  547MOL0     O75407   7.896  10.677   5.241  0.0362  0.4687  0.1194
  547MOL0     C75408   7.845  10.783   5.147  0.2994 -0.1669  0.0678
  547MOL0     C75409   7.729  10.870   5.206  0.0801 -0.3812 -0.4495
  547MOL0     C75410   7.777  10.972   5.309 -0.6585  0.3173 -0.7452
  547MOL0     C75411   7.659  11.018   5.397 -0.3740 -0.6076  0.1921
  547MOL0     C75412   7.708  11.121   5.488  0.5320  1.3062  0.6376
  547MOL0     C75413   7.749  11.196   5.576 -0.2104  0.6527  0.4616
  547MOL0     C75414   8.074  10.603   5.363 -0.4371 -0.4800 -0.6476
  547MOL0     C75415   8.217  10.571   5.390  0.3472 -0.0427 -0.4411
  547MOL0     C75416   8.265  10.510   5.523  0.1485 -0.8083 -0.3262
  547MOL0     H75417   8.730  10.548   5.329 -1.6573 -1.8167  0.2711
  547MOL0     H75418   8.952  10.530   5.251  1.3192  0.9042 -1.4115
  547MOL0     H75419   9.147  10.467   5.144  2.6844 -1.0597 -1.2558
  547MOL0     H75420   9.157  10.642   5.119  0.9465  0.9995 -0.7491
  547MOL0     H75421   9.267  10.442   4.920 -1.1648  1.5196 -1.8943
  547MOL0     H75422   9.251  10.619   4.903 -1.2802  1.5561  0.6722
  547MOL0     H75423   9.387  10.636   5.114 -2.1277  0.1406  0.8545
  547MOL0     H75424   9.414  10.455   5.117 -0.4678  1.3004  1.5207
  547MOL0     H75425   9.521  10.477   4.886 -1.8392  0.0472 -0.0437
  547MOL0     H75426   9.509  10.656   4.926  1.3488  0.5572  0.7499
  547MOL0     H75427   9.641  10.470   5.117  1.9628  1.7198  2.5951
  547MOL0     H75428   9.662  10.639   5.101  1.3389 -0.1222 -0.4096
  547MOL0     H75429   9.742  10.440   4.870  0.2208  0.8956  0.2710
  547MOL0     H75430   9.802  10.597   4.885 -0.2540 -0.5319 -0.5390
  547MOL0     H75431   9.909  10.356   5.016  0.6582 -0.0245  0.6581
  547MOL0     H75432   9.881  10.487   5.134  0.7935 -0.8262  0.1311
  547MOL0     H75433  10.045  10.530   4.884  0.0476  0.4584  0.3357
  547MOL0     H75434  10.013  10.641   5.017  0.8504  0.6114 -0.4746
  547MOL0     H75435  10.271  10.438   4.912 -0.3242 -1.3562 -0.7802
  547MOL0     H75436  10.528  10.433   5.171  0.7441  0.2646 -3.6207
  547MOL0     H75437  10.502  10.378   5.013  0.6899 -0.8221 -0.0824
  547MOL0     H75438  10.389  10.161   5.100  2.4993 -5.1357  1.8708
  547MOL0     H75439  10.556  10.180   5.104  1.7423  2.8967 -0.3258
  547MOL0     H75440  10.384  10.239   5.352 -1.6640  0.1838 -2.2064
  547MOL0     H75441  10.453  10.078   5.311 -2.2144 -0.1865 -1.5148
  547MOL0     H75442  10.680  10.167   5.313  0.0931 -0.3518 -0.3327
  547MOL0     H75443  10.622  10.327   5.342  2.0696 -0.1926  3.4174
  547MOL0     H75444  10.861  10.148   5.420 -0.5384 -3.0610 -0.7921
  547MOL0     H75445  11.080  10.123   5.445 -1.6543  2.5245  0.4596
  547MOL0     H75446  11.134  10.043   5.588 -0.3242 -1.1214  1.0860
  547MOL0     H75447  11.156  10.217   5.581  0.7006 -1.4700  2.0437
  547MOL0     H75448  11.249  10.353   6.049  0.1835  0.9267  0.5469
  547MOL0     H75449  11.436  10.260   6.173 -0.9648  2.7869 -0.8224
  547MOL0     H75450  11.692   9.916   6.037 -0.7234  0.6508 -1.1251
  547MOL0     H75451  11.755  10.067   5.965  2.5342 -2.5110 -0.7752
  547MOL0     H75452  11.943  10.003   6.115 -0.6036  0.5499 -0.6924
  547MOL0     H75453  11.852  10.138   6.193  0.0409 -0.6547  2.2141
  547MOL0     H75454  11.778   9.845   6.251 -0.5454  0.6623 -1.2653
  547MOL0     H75455  11.751   9.992   6.345  2.5973  0.5333  1.8019
  547MOL0     H75456  11.991  10.022   6.382 -0.8909  0.3462  0.4632
  547MOL0     H75457  12.030   9.884   6.288 -0.3929  0.5316 -1.3957
  547MOL0     H75458  11.913   9.736   6.447  1.0006 -0.5941  1.6989
  547MOL0     H75459  12.056   9.813   6.507 -0.0482 -1.5680 -1.4342
  547MOL0     H75460  11.768   9.902   6.541 -0.5117 -1.9682  1.4635
  547MOL0     H75461  11.913   9.999   6.609 -0.6293  0.2359  1.6945
  547MOL0     H75462  11.975   9.792   6.734 -0.1507 -0.1196 -0.0851
  547MOL0     H75463  11.810   9.735   6.692  1.8726  0.9054 -4.7085
  547MOL0     H75464  11.876   9.987   6.852  0.9562 -0.6331  1.8086
  547MOL0     H75465  11.819   9.843   6.929 -0.2852  0.0120  0.3396
  547MOL0     H75466  11.544   9.997   5.857 -0.4073  1.2434 -1.6095
  547MOL0     H75467  11.320  10.040   5.755  0.7524 -2.7864  0.9862
  547MOL0     H75468  10.786  10.156   5.904 -1.3420 -0.4133 -0.0553
  547MOL0     H75469  10.595  10.161   5.775 -0.7566 -3.6244  0.8312
  547MOL0     H75470   8.822  10.585   4.853 -1.2770  0.5112 -0.4130
  547MOL0     H75471   8.586  10.642   4.932 -0.0537 -1.2393 -1.5107
  547MOL0     H75472   8.312  10.667   5.064  0.1013  0.1195  0.4662
  547MOL0     H75473   8.092  10.738   5.050 -0.0607 -0.5778 -0.2264
  547MOL0     H75474   7.924  10.851   5.115 -0.5740  0.5169 -0.6821
  547MOL0     H75475   7.802  10.724   5.066 -0.6196 -0.0079  0.4221
  547MOL0     H75476   7.661  10.802   5.259 -1.7126  0.5362 -1.4597
  547MOL0     H75477   7.671  10.925   5.131  0.3242  1.6362  0.7678
  547MOL0     H75478   7.865  10.935   5.363 -0.9697  0.3540 -0.1992
  547MOL0     H75479   7.827  11.056   5.260  2.3263 -0.7205  0.2985
  547MOL0     H75480   7.609  10.935   5.448  0.1313 -0.8346  0.3176
  547MOL0     H75481   7.580  11.057   5.331 -1.6339 -4.7848 -1.0898
  547MOL0     H75482   7.799  11.245   5.657  3.4791  1.0071 -1.8133
  547MOL0     H75483   8.007  10.570   5.442  0.3093 -1.5302 -0.4257
  547MOL0     H75484   8.186  10.494   5.597  2.3458 -0.6186  2.2633
  547MOL0     H75485   8.300  10.409   5.500 -1.0049 -0.9357 -1.6575
  547MOL0     H75486   8.341  10.574   5.569 -0.7451  2.2931 -2.8543
  548MOL0     O75487   5.509   1.413   3.552  0.2146 -0.0909  0.2211
  548MOL0     C75488   5.511   1.539   3.555 -0.6382 -0.2108  0.1281
  548MOL0     O75489   5.618   1.620   3.544 -0.7652 -0.9485 -0.9645
  548MOL0     C75490   5.737   1.561   3.518  0.7168 -0.0058 -0.3212
  548MOL0     C75491   5.772   1.572   3.389  0.1533 -0.2843  0.6335
  548MOL0     C75492   5.898   1.528   3.351 -0.0602  0.6269 -0.0475
  548MOL0     C75493   5.987   1.467   3.440  0.2584 -0.1905 -0.1517
  548MOL0     O75494   6.100   1.432   3.373  0.3433 -0.0676 -0.1062
  548MOL0     C75495   6.226   1.473   3.420  0.1822 -0.4325  0.0859
  548MOL0     C75496   6.321   1.377   3.358 -0.3606  0.1195  0.1644
  548MOL0     C75497   6.468   1.420   3.389 -0.2395 -0.6907 -0.5879
  548MOL0     C75498   6.515   1.540   3.304 -0.5077 -0.0954 -0.0963
  548MOL0     C75499   6.664   1.561   3.322 -0.6006  0.2115 -0.8423
  548MOL0     C75500   6.734   1.686   3.265 -0.0841 -0.9363 -0.6761
  548MOL0     C75501   6.729   1.694   3.109  0.2103 -0.2190  0.5825
  548MOL0     C75502   6.784   1.837   3.072 -0.5231  0.4629  0.3711
  548MOL0     N75503   6.919   1.859   3.123  0.2855 -0.5778 -0.2337
  548MOL0     C75504   7.031   1.820   3.064 -0.2497 -1.1827 -0.0520
  548MOL0     C75505   7.132   1.888   3.124 -0.8235  0.7575 -0.4716
  548MOL0     C75506   7.283   1.883   3.083  0.5058 -0.4403 -1.0540
  548MOL0     C75507   7.373   1.998   3.138 -0.2534 -0.5078 -0.2279
  548MOL0     C75508   7.381   2.004   3.291  0.1970 -0.3754  0.0118
  548MOL0     C75509   7.371   1.878   3.375  0.6538  0.1514 -0.5653
  548MOL0     O75510   7.484   1.801   3.338  0.1472  0.4254  0.3881
  548MOL0     C75511   7.605   1.820   3.406  0.5954  1.1568 -0.3011
  548MOL0     C75512   7.718   1.822   3.329  0.2290  0.6091  0.4194
  548MOL0     C75513   7.843   1.829   3.394 -0.7747 -0.1120 -0.1924
  548MOL0     C75514   7.970   1.825   3.303 -0.1541  0.0256  0.1569
  548MOL0     C75515   7.861   1.831   3.532  0.7117 -0.4389 -0.7525
  548MOL0     C75516   7.990   1.815   3.615  0.0649 -0.2078  0.0940
  548MOL0     O75517   7.974   1.768   3.736  0.2182  0.1467  0.1062
  548MOL0     C75518   8.079   1.748   3.811 -0.1588  0.0204 -0.0762
  548MOL0     C75519   8.138   1.856   3.881  0.3966  0.3896 -0.0247
  548MOL0     C75520   8.247   1.828   3.966  0.3144 -0.1060  0.0997
  548MOL0     C75521   8.294   1.695   3.974  0.5537 -0.4289  0.2992
  548MOL0     O75522   8.401   1.657   4.056 -1.1018  0.6157 -0.3409
  548MOL0     C75523   8.510   1.752   4.057 -0.4818 -0.1739 -0.4814
  548MOL0     C75524   8.643   1.684   4.113  0.4823 -0.2861  0.1841
  548MOL0     C75525   8.754   1.795   4.131 -0.2520 -0.1835 -1.2761
  548MOL0     C75526   8.874   1.724   4.188  0.5156 -0.2095 -0.3409
  548MOL0     C75527   9.000   1.818   4.218  1.1114 -0.0186 -0.0310
  548MOL0     C75528   9.110   1.735   4.263  0.4570 -0.3952 -0.3621
  548MOL0     C75529   9.219   1.823   4.324 -0.1912 -0.5412  0.5838
  548MOL0     C75530   9.322   1.734   4.386 -0.5472  0.7756 -0.6610
  548MOL0    Cl75531   9.435   1.661   4.253 -0.0311  0.2500 -0.5788
  548MOL0     C75532   8.227   1.591   3.915  0.5285  0.2262 -1.2025
  548MOL0     C75533   8.118   1.613   3.834  0.5832  0.1646  0.0890
  548MOL0     O75534   8.094   1.860   3.565  0.1332 -0.9011  0.6228
  548MOL0     C75535   7.744   1.824   3.608  0.3685 -0.0150 -0.0425
  548MOL0     C75536   7.617   1.823   3.546 -0.4855 -0.2306 -1.1039
  548MOL0     N75537   7.076   1.963   3.225  0.1254  0.5619 -0.7904
  548MOL0     N75538   6.950   1.952   3.215 -0.1559 -0.3142 -0.0544
  548MOL0     C75539   5.954   1.463   3.577  0.4446 -0.4536 -0.0116
  548MOL0     C75540   5.824   1.513   3.619 -0.0797  0.5488  0.1751
  548MOL0     C75541   5.395   1.614   3.604  0.1933 -0.4664 -0.1265
  548MOL0     C75542   5.407   1.733   3.688 -0.2084  0.1806  0.1038
  548MOL0     C75543   5.297   1.798   3.726  0.2763  0.6393  0.5670
  548MOL0     C75544   5.171   1.756   3.684 -0.0062 -0.2462  0.1101
  548MOL0     O75545   5.066   1.832   3.731 -0.2461  0.0586  0.0648
  548MOL0     C75546   4.932   1.817   3.691  0.2212 -0.1489 -0.7159
  548MOL0     C75547   4.859   1.933   3.753 -0.6630  0.3869  0.0010
  548MOL0     C75548   4.715   1.953   3.713 -0.4392 -0.9168 -0.1543
  548MOL0     C75549   4.615   1.959   3.831  0.0673 -0.1547 -0.5339
  548MOL0     C75550   4.595   2.091   3.888  0.3752  0.3385 -0.2727
  548MOL0     C75551   4.578   2.206   3.935 -0.6004 -0.3178 -0.0396
  548MOL0     C75552   5.155   1.654   3.594 -0.0129  0.8463  0.4178
  548MOL0     C75553   5.262   1.579   3.549 -0.1285 -0.1670 -1.3107
  548MOL0     C75554   5.245   1.486   3.441  0.4289  0.2828  0.1541
  548MOL0     H75555   5.700   1.630   3.333  1.6365  2.4669  1.3665
  548MOL0     H75556   5.937   1.555   3.253  0.9509  2.0481  0.7010
  548MOL0     H75557   6.240   1.464   3.528 -0.0500 -1.3844  0.0414
  548MOL0     H75558   6.246   1.573   3.381 -1.8764 -0.4252 -1.0954
  548MOL0     H75559   6.305   1.274   3.393  0.2543 -1.0052 -2.5662
  548MOL0     H75560   6.320   1.367   3.249  0.4241 -1.8132  0.2928
  548MOL0     H75561   6.457   1.458   3.491  0.5474  1.5026 -1.2557
  548MOL0     H75562   6.541   1.339   3.378  1.3092  0.5360  0.2211
  548MOL0     H75563   6.495   1.515   3.199  0.2622 -0.3805 -0.1814
  548MOL0     H75564   6.464   1.633   3.332 -1.0720 -1.0374  2.2055
  548MOL0     H75565   6.712   1.473   3.278  0.1209 -0.7492  1.6842
  548MOL0     H75566   6.685   1.563   3.430  2.6346 -0.3782 -1.3601
  548MOL0     H75567   6.682   1.769   3.313  1.0407 -0.1511 -0.7628
  548MOL0     H75568   6.836   1.692   3.305  0.5638  0.7749 -2.3965
  548MOL0     H75569   6.627   1.675   3.072  1.1956  0.7775 -3.0135
  548MOL0     H75570   6.794   1.612   3.077  2.1856  1.7692 -0.7564
  548MOL0     H75571   6.788   1.848   2.964 -2.2275 -0.5829  0.1617
  548MOL0     H75572   6.716   1.914   3.112  1.9844  2.0881  1.7973
  548MOL0     H75573   7.043   1.747   2.984 -0.8047 -0.7669 -0.5302
  548MOL0     H75574   7.285   1.880   2.974 -0.8819  0.3355 -1.1273
  548MOL0     H75575   7.327   1.789   3.117  1.2528  0.2520 -0.0619
  548MOL0     H75576   7.476   1.994   3.101  0.5902  2.7819  1.4095
  548MOL0     H75577   7.335   2.093   3.101 -0.9250  0.6229  3.0796
  548MOL0     H75578   7.476   2.041   3.330  0.3465 -0.0807 -0.6364
  548MOL0     H75579   7.303   2.070   3.330  2.1815  0.8435  2.1705
  548MOL0     H75580   7.365   1.904   3.481  3.4741  0.2738 -0.3596
  548MOL0     H75581   7.276   1.827   3.359 -0.0547  0.5321  1.9587
  548MOL0     H75582   7.713   1.809   3.222 -1.7324 -1.4546  0.6723
  548MOL0     H75583   8.031   1.913   3.326 -0.4318 -0.3959  2.8679
  548MOL0     H75584   7.940   1.820   3.198 -1.4427  0.1141  0.5047
  548MOL0     H75585   8.025   1.732   3.323 -2.9505 -2.5018 -2.7894
  548MOL0     H75586   8.104   1.956   3.856  0.5317  0.4626  0.0832
  548MOL0     H75587   8.292   1.906   4.027  0.4836 -0.3900  0.3425
  548MOL0     H75588   8.535   1.796   3.960  4.2184  1.3574  1.1323
  548MOL0     H75589   8.495   1.843   4.115 -0.5204 -2.1068  2.7376
  548MOL0     H75590   8.612   1.639   4.208 -3.0255  1.3585 -0.0401
  548MOL0     H75591   8.678   1.599   4.053 -1.0387 -0.3342 -0.6972
  548MOL0     H75592   8.712   1.867   4.202 -0.5729  0.0057 -1.6541
  548MOL0     H75593   8.775   1.841   4.034 -0.0287 -1.8558 -2.0601
  548MOL0     H75594   8.910   1.646   4.121  1.2235 -1.0274  0.9465
  548MOL0     H75595   8.837   1.681   4.281  2.0379  0.2302  0.5007
  548MOL0     H75596   9.033   1.876   4.131  0.1955 -0.6535 -0.8299
  548MOL0     H75597   8.962   1.887   4.294 -0.0010  0.0121 -0.5861
  548MOL0     H75598   9.147   1.672   4.182  2.1459 -1.5140  1.2112
  548MOL0     H75599   9.068   1.667   4.337 -0.8692  0.2715 -0.4611
  548MOL0     H75600   9.179   1.899   4.391  3.7126  1.4125  1.0292
  548MOL0     H75601   9.271   1.876   4.243 -1.8112  0.3163  0.0736
  548MOL0     H75602   9.282   1.653   4.446  0.2628  1.2220  0.5094
  548MOL0     H75603   9.389   1.786   4.455  0.5400  1.1354 -1.9382
  548MOL0     H75604   8.264   1.489   3.929  0.8018  0.4273 -0.4357
  548MOL0     H75605   8.080   1.528   3.778  1.1842  1.3939 -2.3180
  548MOL0     H75606   7.745   1.815   3.716  1.8714  0.6417  0.0335
  548MOL0     H75607   7.535   1.822   3.617  0.5996  0.6581  0.2153
  548MOL0     H75608   6.032   1.423   3.641 -1.4245 -0.0488  2.7343
  548MOL0     H75609   5.794   1.513   3.723 -0.4021 -1.3275  0.1148
  548MOL0     H75610   5.504   1.766   3.724  0.2628 -1.6906  0.6611
  548MOL0     H75611   5.310   1.877   3.800 -0.9522  1.5767 -0.1727
  548MOL0     H75612   4.924   1.827   3.583 -1.6270  1.0007 -0.5346
  548MOL0     H75613   4.889   1.720   3.717  0.2579 -0.2670 -1.0979
  548MOL0     H75614   4.911   2.018   3.709  1.5620  0.1570  2.0225
  548MOL0     H75615   4.870   1.923   3.862  0.9262  1.4140 -0.0402
  548MOL0     H75616   4.704   2.046   3.656 -1.3818 -1.4006 -0.8000
  548MOL0     H75617   4.670   1.876   3.649 -0.6831  0.2869 -1.4730
  548MOL0     H75618   4.629   1.884   3.909 -0.5776 -1.7715 -1.9108
  548MOL0     H75619   4.518   1.939   3.784  0.0203 -0.0887 -0.4656
  548MOL0     H75620   4.567   2.304   3.976 -1.8405 -0.5388  0.1878
  548MOL0     H75621   5.053   1.637   3.560 -0.8564  4.5235  0.6681
  548MOL0     H75622   5.333   1.482   3.376  0.9867 -0.4502  0.9251
  548MOL0     H75623   5.226   1.388   3.486  2.1761 -0.4406 -0.5834
  548MOL0     H75624   5.160   1.507   3.375 -0.8014 -0.1847  1.5408
  549MOL0     O75625  11.173   0.660   1.522 -0.0893  0.9651 -0.4458
  549MOL0     C75626  11.080   0.595   1.571 -0.2953 -0.1209  0.1463
  549MOL0     O75627  11.064   0.580   1.707  0.2876  0.3711 -0.1141
  549MOL0     C75628  11.139   0.649   1.796 -0.6900  1.1313 -0.5209
  549MOL0     C75629  11.068   0.707   1.908  0.3186 -0.1916  0.1158
  549MOL0     C75630  11.136   0.790   2.001 -0.3817  0.2596  0.3781
  549MOL0     C75631  11.281   0.778   2.010 -0.4780  0.2096 -0.4094
  549MOL0     O75632  11.349   0.836   2.115 -0.3362  1.0005 -0.6601
  549MOL0     C75633  11.388   0.976   2.104  0.4165 -0.0774  0.9728
  549MOL0     C75634  11.453   1.013   2.240  0.5490 -0.3622  0.1722
  549MOL0     C75635  11.569   0.925   2.275 -0.3004  0.7110 -0.1614
  549MOL0     C75636  11.634   0.963   2.408 -0.0335  0.8264  0.2842
  549MOL0     C75637  11.763   0.876   2.411 -0.1433 -0.8763 -0.3155
  549MOL0     C75638  11.826   0.863   2.551  0.5444  0.1294 -0.1520
  549MOL0     C75639  11.971   0.825   2.551 -0.0509  0.4490 -0.4938
  549MOL0     C75640  12.037   0.846   2.693 -0.3757 -1.0094 -0.3897
  549MOL0     N75641  12.177   0.826   2.679 -0.2003  0.2673 -0.5860
  549MOL0     C75642  12.245   0.727   2.747 -0.4086 -0.6339  0.2906
  549MOL0     C75643  12.373   0.762   2.715 -0.1855  0.2815  0.5880
  549MOL0     C75644  12.484   0.673   2.752 -0.7139 -0.3958 -0.2204
  549MOL0     C75645  12.619   0.746   2.780 -0.4404 -1.1350  1.0456
  549MOL0     C75646  12.617   0.839   2.905  0.5589 -0.5493  0.0412
  549MOL0     C75647  12.754   0.874   2.958  0.2102 -0.0595 -0.0577
  549MOL0     O75648  12.812   0.970   2.872  0.4799 -0.1950 -0.0663
  549MOL0     C75649  12.943   1.018   2.892 -0.0998  0.1857  1.2483
  549MOL0     C75650  12.973   1.146   2.841  0.2595  0.4804 -1.0074
  549MOL0     C75651  13.099   1.202   2.860  1.1441 -0.4109  0.9705
  549MOL0     C75652  13.124   1.343   2.801 -0.2515  0.3075 -0.0442
  549MOL0     C75653  13.198   1.136   2.932  0.3698  0.8570 -0.4303
  549MOL0     C75654  13.333   1.197   2.965 -0.2401  0.2550 -0.6512
  549MOL0     O75655  13.384   1.177   3.100 -0.1676 -0.5284  0.2737
  549MOL0     C75656  13.519   1.183   3.135 -0.2597  0.2218 -0.0337
  549MOL0     C75657  13.621   1.248   3.067 -0.9086 -1.0531  0.0960
  549MOL0     C75658  13.751   1.252   3.106  0.1684 -0.1447 -0.1217
  549MOL0     C75659  13.786   1.189   3.226  0.4501 -0.0477  0.2374
  549MOL0     O75660  13.913   1.200   3.282 -0.7556 -0.2733  0.6731
  549MOL0     C75661  14.013   1.291   3.220  1.1851 -0.2938 -0.4251
  549MOL0     C75662  14.143   1.282   3.298 -0.0226 -0.4343 -0.0290
  549MOL0     C75663  14.118   1.299   3.452  1.1148  0.3632 -0.4427
  549MOL0     C75664  14.250   1.288   3.521 -0.3339 -0.0023 -0.4963
  549MOL0     C75665  14.237   1.308   3.677 -0.8142  0.0213  0.5718
  549MOL0     C75666  14.379   1.341   3.729  0.1227  0.1770 -0.3586
  549MOL0     C75667  14.376   1.379   3.877 -0.0657  0.3463 -0.5970
  549MOL0     C75668  14.523   1.391   3.930  0.2335 -0.2570  0.0173
  549MOL0    Cl75669  14.541   1.449   4.100  0.0464 -0.2337  0.0017
  549MOL0     C75670  13.688   1.110   3.295  0.0333  0.1138 -0.0681
  549MOL0     C75671  13.551   1.106   3.252 -0.0809 -1.5884 -0.3165
  549MOL0     O75672  13.393   1.239   2.872 -0.1181 -0.0211 -0.3887
  549MOL0     C75673  13.169   1.001   2.979  0.0102 -0.0169  0.1115
  549MOL0     C75674  13.041   0.944   2.962  0.4207 -0.1904 -0.2009
  549MOL0     N75675  12.381   0.875   2.635  0.2747  0.3378 -0.4879
  549MOL0     N75676  12.260   0.914   2.611  0.0976  0.2470  0.1414
  549MOL0     C75677  11.349   0.700   1.912 -0.5299  0.1633 -0.8550
  549MOL0     C75678  11.277   0.639   1.803 -0.0339 -0.0513  0.4689
  549MOL0     C75679  10.982   0.521   1.495 -0.4170  0.5367 -0.3457
  549MOL0     C75680  10.903   0.428   1.567 -0.1586 -0.4108  0.1857
  549MOL0     C75681  10.805   0.355   1.500  0.6399 -0.3333 -0.3554
  549MOL0     C75682  10.781   0.364   1.364 -0.0184 -0.1268  0.8050
  549MOL0     O75683  10.677   0.288   1.306  0.4768 -0.4053  0.0773
  549MOL0     C75684  10.676   0.262   1.171  0.2358 -0.2313 -0.1454
  549MOL0     C75685  10.645   0.114   1.164  0.0030 -0.4655  0.5503
  549MOL0     C75686  10.653   0.056   1.021  0.7557  0.2654 -0.1485
  549MOL0     C75687  10.655  -0.091   1.025 -0.1649 -0.3949 -0.0671
  549MOL0     C75688  10.624  -0.148   0.888  0.0549 -0.6400  0.2184
  549MOL0     C75689  10.613  -0.192   0.775  0.4935  0.7187  0.5438
  549MOL0     C75690  10.857   0.460   1.293 -0.4957  0.1336 -0.2471
  549MOL0     C75691  10.957   0.537   1.359 -0.4158  0.1761  0.4402
  549MOL0     C75692  11.048   0.617   1.266 -0.6723 -0.7582  0.2340
  549MOL0     H75693  10.960   0.708   1.900  0.2441 -1.8342  0.5275
  549MOL0     H75694  11.070   0.840   2.071 -1.8764 -1.2472  0.1147
  549MOL0     H75695  11.299   1.033   2.077  1.1060  0.3642 -0.4754
  549MOL0     H75696  11.456   0.984   2.019  0.0927  2.4036  0.8603
  549MOL0     H75697  11.483   1.118   2.229 -0.9043 -0.1127 -1.9125
  549MOL0     H75698  11.382   1.005   2.323  2.2240 -1.5161  1.5537
  549MOL0     H75699  11.534   0.823   2.296 -2.7513  1.6848  0.8506
  549MOL0     H75700  11.640   0.920   2.193  2.6377  0.9657  2.1746
  549MOL0     H75701  11.656   1.070   2.411  1.1490  0.6746 -1.3115
  549MOL0     H75702  11.573   0.943   2.496 -1.4932  3.2586 -0.0852
  549MOL0     H75703  11.828   0.914   2.332 -0.9936  1.6754  0.1338
  549MOL0     H75704  11.736   0.774   2.384 -0.3061 -0.9347  0.0626
  549MOL0     H75705  11.817   0.954   2.612  0.5697 -1.1868  1.9280
  549MOL0     H75706  11.775   0.780   2.600  0.7067  0.5491  0.7475
  549MOL0     H75707  12.032   0.876   2.476  1.9853  1.2933  1.6322
  549MOL0     H75708  11.966   0.716   2.543  1.7589  0.0515  2.3767
  549MOL0     H75709  12.027   0.949   2.728 -2.6587 -1.0229 -0.8138
  549MOL0     H75710  11.986   0.778   2.763 -2.7349 -0.0417 -1.0783
  549MOL0     H75711  12.200   0.660   2.821 -0.2698 -0.1053  0.8603
  549MOL0     H75712  12.509   0.598   2.676  1.7146 -0.0765  0.1814
  549MOL0     H75713  12.449   0.618   2.840  0.8872 -0.8623  0.1659
  549MOL0     H75714  12.700   0.675   2.799 -0.3480 -0.8272  1.8321
  549MOL0     H75715  12.656   0.801   2.692 -1.7698 -4.2640 -1.6885
  549MOL0     H75716  12.563   0.931   2.880 -0.1364 -0.4312  1.7926
  549MOL0     H75717  12.576   0.779   2.987 -0.7109 -1.2285 -1.0595
  549MOL0     H75718  12.747   0.914   3.060  0.7840 -1.4932  0.5786
  549MOL0     H75719  12.816   0.784   2.966  1.1595  0.1882 -3.3442
  549MOL0     H75720  12.890   1.204   2.801  0.1910  0.8145 -0.3932
  549MOL0     H75721  13.049   1.365   2.725  0.0291 -1.5566 -0.9228
  549MOL0     H75722  13.221   1.356   2.753 -0.0278  0.8592  0.5413
  549MOL0     H75723  13.110   1.417   2.881  0.5173 -2.4788  2.9067
  549MOL0     H75724  13.598   1.311   2.981  2.2886  0.9694  0.5568
  549MOL0     H75725  13.834   1.306   3.061  1.3198 -0.3414  1.6703
  549MOL0     H75726  14.037   1.250   3.121 -1.7995 -1.8636 -0.6244
  549MOL0     H75727  13.978   1.394   3.216  4.0626  0.9146  1.7012
  549MOL0     H75728  14.206   1.196   3.275 -0.6759 -0.7907 -0.5314
  549MOL0     H75729  14.197   1.373   3.269 -1.6421  0.8105  0.7153
  549MOL0     H75730  14.060   1.210   3.475  1.4223  0.4385  0.6324
  549MOL0     H75731  14.057   1.388   3.472  1.1190  0.2191  0.2000
  549MOL0     H75732  14.318   1.361   3.475 -1.2300  0.5277 -1.0073
  549MOL0     H75733  14.299   1.192   3.502 -1.9799 -0.8521 -0.6281
  549MOL0     H75734  14.171   1.389   3.708 -0.0497  0.8425  0.1026
  549MOL0     H75735  14.192   1.218   3.720 -0.1850 -0.2912  0.5865
  549MOL0     H75736  14.427   1.421   3.672  1.5270  2.0494  3.1252
  549MOL0     H75737  14.444   1.255   3.714 -0.1235  0.4960 -4.1106
  549MOL0     H75738  14.323   1.300   3.932  0.4590 -1.1519 -2.1355
  549MOL0     H75739  14.326   1.474   3.897  0.7345  0.6610 -0.0337
  549MOL0     H75740  14.575   1.456   3.859 -1.8555  2.2540  0.6547
  549MOL0     H75741  14.569   1.292   3.932 -2.0114 -1.3773  0.1948
  549MOL0     H75742  13.711   1.037   3.371 -0.9478 -2.5097 -2.1376
  549MOL0     H75743  13.471   1.061   3.310  0.0036  0.5131  1.6032
  549MOL0     H75744  13.249   0.944   3.025 -0.3307 -1.1301 -0.6017
  549MOL0     H75745  13.012   0.844   2.992  0.1141  0.0053  0.1574
  549MOL0     H75746  11.457   0.695   1.918 -0.5915 -0.1913  4.0608
  549MOL0     H75747  11.321   0.587   1.719  0.4152 -0.2936  0.8531
  549MOL0     H75748  10.921   0.415   1.673  0.4719 -0.0478  0.1290
  549MOL0     H75749  10.727   0.304   1.556  0.3312  1.5256  1.0118
  549MOL0     H75750  10.609   0.331   1.118  1.2729  2.6272  2.0205
  549MOL0     H75751  10.770   0.293   1.124  0.1627 -0.4358 -0.4342
  549MOL0     H75752  10.544   0.099   1.203  0.2732  0.1624  1.5498
  549MOL0     H75753  10.713   0.066   1.235  2.0347  3.6796  1.7689
  549MOL0     H75754  10.562   0.084   0.967 -1.8599 -1.3828  3.0164
  549MOL0     H75755  10.744   0.086   0.970 -0.6114  0.0945 -2.8830
  549MOL0     H75756  10.586  -0.126   1.102 -0.3159  2.3507  1.1253
  549MOL0     H75757  10.754  -0.121   1.062  0.6776  2.6586  0.4409
  549MOL0     H75758  10.599  -0.210   0.671 -0.6623 -0.1809  0.8258
  549MOL0     H75759  10.864   0.472   1.185  4.7507  0.1919 -0.1697
  549MOL0     H75760  11.150   0.583   1.283  0.7321  2.7639 -0.3434
  549MOL0     H75761  11.024   0.601   1.160 -0.7324 -0.0264  0.1346
  549MOL0     H75762  11.042   0.725   1.282 -1.0599 -0.5318 -1.3061
  550MOL0     O75763   3.268   9.153   6.869 -0.4444  0.4202 -0.1077
  550MOL0     C75764   3.266   9.190   6.986 -0.2231  0.3425 -0.3884
  550MOL0     O75765   3.312   9.313   7.035 -0.7284 -0.4329  0.9167
  550MOL0     C75766   3.368   9.404   6.949  0.0531 -0.0585 -0.9105
  550MOL0     C75767   3.499   9.450   6.977 -0.2995 -0.5938 -0.6014
  550MOL0     C75768   3.566   9.535   6.887 -0.3902  0.0923  0.0537
  550MOL0     C75769   3.500   9.573   6.764 -0.0459 -0.4079 -0.4255
  550MOL0     O75770   3.556   9.658   6.666 -0.5145 -0.0390  0.9064
  550MOL0     C75771   3.676   9.726   6.697  0.2636 -0.4339 -0.2655
  550MOL0     C75772   3.797   9.633   6.683 -0.6088  0.3684 -0.3117
  550MOL0     C75773   3.829   9.587   6.542 -0.0079 -0.4944  0.1396
  550MOL0     C75774   3.965   9.529   6.524 -0.0782  0.2220  0.7899
  550MOL0     C75775   3.995   9.384   6.591  0.2322 -0.6065 -0.9981
  550MOL0     C75776   4.128   9.327   6.551  0.0670 -0.2020 -0.2974
  550MOL0     C75777   4.178   9.202   6.628  0.1918  0.1042  0.4211
  550MOL0     C75778   4.299   9.130   6.562 -0.3803 -0.0651 -0.4893
  550MOL0     N75779   4.404   9.214   6.508  0.7863 -0.1033 -0.4302
  550MOL0     C75780   4.491   9.274   6.589  0.3293 -0.1047 -0.4342
  550MOL0     C75781   4.578   9.337   6.503  1.4263  0.7784  0.0431
  550MOL0     C75782   4.688   9.431   6.540  0.5437 -0.5499 -0.1546
  550MOL0     C75783   4.629   9.571   6.563 -0.1923  0.4216 -0.7976
  550MOL0     C75784   4.729   9.668   6.624  0.0600 -0.1597  0.0485
  550MOL0     C75785   4.665   9.802   6.655 -0.2266  0.3062  0.7863
  550MOL0     O75786   4.760   9.886   6.709 -0.4255  0.3689  0.2793
  550MOL0     C75787   4.817   9.986   6.634  0.5823  0.5612  0.1627
  550MOL0     C75788   4.956   9.998   6.609  0.4715 -0.6258 -0.2142
  550MOL0     C75789   5.009  10.105   6.531 -0.0791  0.4289  0.4887
  550MOL0     C75790   5.157  10.113   6.525  0.6124  0.6998 -0.3064
  550MOL0     C75791   4.915  10.189   6.467 -0.7438  0.2461  0.4143
  550MOL0     C75792   4.957  10.303   6.379 -0.2249  0.2587  0.3796
  550MOL0     O75793   4.860  10.348   6.288 -0.2561 -0.0341  0.0019
  550MOL0     C75794   4.853  10.483   6.260 -0.4966  0.0891 -0.0781
  550MOL0     C75795   4.808  10.562   6.359 -0.3232 -0.8853  0.6883
  550MOL0     C75796   4.765  10.694   6.330 -0.2431 -0.0509 -0.2315
  550MOL0     C75797   4.794  10.747   6.201  0.1571 -0.3601  0.0555
  550MOL0     O75798   4.743  10.872   6.176  0.5183 -0.5542  0.5137
  550MOL0     C75799   4.794  10.952   6.068 -0.2940  0.2692  0.2940
  550MOL0     C75800   4.765  11.096   6.115  0.0753  0.0610  0.5180
  550MOL0     C75801   4.772  11.207   6.006  0.1424  0.9547 -0.8846
  550MOL0     C75802   4.630  11.269   5.991  0.3195  0.3563  0.1779
  550MOL0     C75803   4.614  11.331   5.852  1.0792 -0.7744  0.1549
  550MOL0     C75804   4.722  11.444   5.817  0.6292  0.4848 -1.3112
  550MOL0     C75805   4.667  11.531   5.707  0.4302  0.0413 -0.2853
  550MOL0     C75806   4.722  11.679   5.709  1.2693 -0.8159  0.3928
  550MOL0    Cl75807   4.664  11.765   5.562 -0.1196 -0.0092 -0.0628
  550MOL0     C75808   4.849  10.670   6.104  0.9967 -0.0022  0.1117
  550MOL0     C75809   4.873  10.533   6.135 -0.0695  0.4374  0.0885
  550MOL0     O75810   5.063  10.358   6.395 -0.0087  0.6553 -0.3046
  550MOL0     C75811   4.773  10.163   6.477 -0.9075 -0.2983  0.6812
  550MOL0     C75812   4.727  10.069   6.571 -0.3812 -0.8941 -0.8065
  550MOL0     N75813   4.543   9.294   6.376 -0.0763 -0.2570 -0.5190
  550MOL0     N75814   4.440   9.224   6.380 -1.3182 -0.0800 -0.3371
  550MOL0     C75815   3.368   9.540   6.743  0.8668 -0.2520 -0.1730
  550MOL0     C75816   3.298   9.454   6.832  0.6217  0.3511 -0.2037
  550MOL0     C75817   3.214   9.100   7.086 -0.4760 -0.3634 -0.9219
  550MOL0     C75818   3.137   8.988   7.046  0.5112  0.1885 -0.6523
  550MOL0     C75819   3.094   8.900   7.144 -0.4627 -0.1294  0.4664
  550MOL0     C75820   3.112   8.926   7.280 -0.1114  1.1926 -0.6522
  550MOL0     O75821   3.056   8.849   7.380 -0.5782 -0.0215 -0.6832
  550MOL0     C75822   2.977   8.732   7.347  0.6110  0.1124  0.1145
  550MOL0     C75823   2.939   8.647   7.469  0.4208  0.2310  0.7138
  550MOL0     C75824   2.854   8.730   7.575  0.4052 -0.3773  1.1546
  550MOL0     C75825   2.796   8.636   7.686  0.4795  0.8006  0.1774
  550MOL0     C75826   2.762   8.725   7.795  0.7012  0.0876 -0.1928
  550MOL0     C75827   2.742   8.807   7.884  0.1860 -0.5254 -0.0651
  550MOL0     C75828   3.192   9.029   7.315  0.2399  0.1368  0.4192
  550MOL0     C75829   3.249   9.121   7.225  0.7683 -0.5432  0.3790
  550MOL0     C75830   3.331   9.231   7.287  0.1126  0.3159  0.0203
  550MOL0     H75831   3.550   9.426   7.070  0.1593  0.4059 -0.5863
  550MOL0     H75832   3.664   9.568   6.920 -0.2256 -1.2090  0.9532
  550MOL0     H75833   3.671   9.774   6.796 -3.7723  2.1073 -1.4509
  550MOL0     H75834   3.688   9.807   6.624 -0.1210  2.9960  3.1354
  550MOL0     H75835   3.886   9.680   6.726 -0.5139  1.0756 -1.2352
  550MOL0     H75836   3.777   9.545   6.744 -1.0570  1.1816  0.7367
  550MOL0     H75837   3.753   9.521   6.499 -0.4503 -0.0528  0.2444
  550MOL0     H75838   3.831   9.682   6.488  0.7497 -0.6925 -0.1953
  550MOL0     H75839   3.976   9.504   6.418  0.7164 -2.5037  1.4211
  550MOL0     H75840   4.042   9.601   6.553  1.1288 -0.2590 -1.0796
  550MOL0     H75841   3.912   9.317   6.566 -0.1977 -0.0090 -1.2197
  550MOL0     H75842   4.007   9.390   6.700  1.5406  0.8733 -1.1775
  550MOL0     H75843   4.125   9.303   6.444  0.3454 -1.5236 -0.0270
  550MOL0     H75844   4.205   9.403   6.563 -0.4127  0.0632  1.4258
  550MOL0     H75845   4.104   9.121   6.634  1.4390 -0.9874  1.8392
  550MOL0     H75846   4.196   9.228   6.733 -1.9465  0.6899  0.7085
  550MOL0     H75847   4.335   9.072   6.647 -1.2279  0.6525  0.3907
  550MOL0     H75848   4.261   9.067   6.481  0.0104  1.4221 -1.8847
  550MOL0     H75849   4.490   9.277   6.697  1.1735  0.6244 -0.4319
  550MOL0     H75850   4.759   9.439   6.458  0.2408  0.0163 -0.3699
  550MOL0     H75851   4.738   9.401   6.632  1.2566  0.4771 -0.1872
  550MOL0     H75852   4.583   9.603   6.468 -0.7207  0.9901 -0.3605
  550MOL0     H75853   4.551   9.560   6.638 -0.9380  1.9531 -1.3054
  550MOL0     H75854   4.781   9.631   6.713 -0.0966  0.8876  0.5974
  550MOL0     H75855   4.809   9.690   6.552  0.8010  0.3380  0.9893
  550MOL0     H75856   4.604   9.834   6.570  0.8099  0.2357  0.0019
  550MOL0     H75857   4.590   9.781   6.733 -3.3932 -0.6969 -2.2645
  550MOL0     H75858   5.026   9.936   6.664  0.1497  0.0392  0.9806
  550MOL0     H75859   5.192  10.170   6.612  0.6387 -2.3537  1.8395
  550MOL0     H75860   5.179  10.158   6.428 -4.2408  3.3362 -0.5080
  550MOL0     H75861   5.202  10.014   6.530  1.7451  1.0774 -2.1883
  550MOL0     H75862   4.783  10.526   6.459  0.4916 -1.9765  0.5161
  550MOL0     H75863   4.707  10.748   6.403 -0.3207 -0.3154 -0.0954
  550MOL0     H75864   4.896  10.932   6.033 -1.0546 -1.3042 -1.1851
  550MOL0     H75865   4.735  10.930   5.978  1.8042 -0.9518 -0.8772
  550MOL0     H75866   4.669  11.100   6.169 -0.2775  1.0292 -0.1545
  550MOL0     H75867   4.851  11.112   6.181  0.5045  0.2327 -0.0773
  550MOL0     H75868   4.801  11.158   5.913 -0.2329 -1.3538  0.1302
  550MOL0     H75869   4.855  11.274   6.030  1.3227  0.3303 -2.9881
  550MOL0     H75870   4.620  11.345   6.070  0.2231 -0.0627  0.5712
  550MOL0     H75871   4.552  11.193   6.003  0.9804 -0.3953 -0.2586
  550MOL0     H75872   4.616  11.256   5.773 -1.4924  1.0833 -1.8398
  550MOL0     H75873   4.518  11.383   5.849  1.4825 -0.0705 -2.0547
  550MOL0     H75874   4.819  11.397   5.803 -1.1358 -3.9828 -0.0939
  550MOL0     H75875   4.723  11.505   5.908 -1.5292 -0.6594 -0.4453
  550MOL0     H75876   4.562  11.545   5.735  0.1910 -0.9943 -0.6359
  550MOL0     H75877   4.680  11.481   5.610 -0.9699  0.8175 -0.8972
  550MOL0     H75878   4.831  11.683   5.717  1.3852  2.2495 -1.3302
  550MOL0     H75879   4.686  11.728   5.800  1.4837  0.7286 -0.3174
  550MOL0     H75880   4.870  10.689   6.000 -1.2863 -1.1569 -0.6163
  550MOL0     H75881   4.915  10.465   6.061 -0.1144  0.7083 -0.1854
  550MOL0     H75882   4.706  10.222   6.416  0.3039 -0.0424 -0.4634
  550MOL0     H75883   4.621  10.064   6.596 -0.3312  1.2038 -0.0458
  550MOL0     H75884   3.318   9.580   6.656 -0.0400 -0.9999 -0.0210
  550MOL0     H75885   3.196   9.428   6.807  0.4559  0.7762  0.0086
  550MOL0     H75886   3.114   8.959   6.944 -1.2649  0.1814 -0.2725
  550MOL0     H75887   3.044   8.808   7.119 -1.9067  1.1604 -1.7395
  550MOL0     H75888   2.886   8.752   7.290 -0.3349  0.0422  1.5442
  550MOL0     H75889   3.047   8.675   7.287  4.0613  4.5569 -0.6378
  550MOL0     H75890   3.028   8.604   7.515  1.7031 -0.8191 -2.4910
  550MOL0     H75891   2.885   8.564   7.424  1.7942  1.4626 -3.6683
  550MOL0     H75892   2.920   8.804   7.620 -0.6371  1.4664 -0.2257
  550MOL0     H75893   2.780   8.780   7.512  3.1316 -0.7857 -2.7841
  550MOL0     H75894   2.873   8.564   7.717 -1.4638 -2.1082 -1.2923
  550MOL0     H75895   2.707   8.583   7.652 -1.0240  1.1919  3.2013
  550MOL0     H75896   2.738   8.881   7.962  0.4842  0.6624 -1.1331
  550MOL0     H75897   3.224   9.028   7.419  1.1190 -1.1476  0.1702
  550MOL0     H75898   3.371   9.183   7.377 -0.4431 -0.0857  0.0605
  550MOL0     H75899   3.414   9.266   7.225 -0.1715 -0.7277 -0.9840
  550MOL0     H75900   3.263   9.312   7.312 -1.6394 -0.7398 -1.1138
  551MOL0     O75901   0.100   5.600   4.437  0.7865 -0.2781 -0.2137
  551MOL0     C75902   0.087   5.711   4.391  0.7734  0.1571  0.1946
  551MOL0     O75903   0.187   5.800   4.363 -0.4754  0.5508 -0.3155
  551MOL0     C75904   0.315   5.774   4.404 -0.6174  0.5399 -0.5526
  551MOL0     C75905   0.351   5.804   4.534  0.3493  0.1034  0.0093
  551MOL0     C75906   0.488   5.792   4.573  0.5639 -0.2216 -0.1372
  551MOL0     C75907   0.580   5.742   4.482  0.4263 -0.2224 -0.5500
  551MOL0     O75908   0.702   5.710   4.536  0.7085 -0.5240  0.0015
  551MOL0     C75909   0.786   5.624   4.469  0.1624  0.6876  0.0435
  551MOL0     C75910   0.910   5.613   4.559  0.0064  0.2120  0.4257
  551MOL0     C75911   0.989   5.490   4.520  0.6033  0.0551  0.8446
  551MOL0     C75912   1.117   5.469   4.615  0.2711  0.4554  0.3302
  551MOL0     C75913   1.204   5.353   4.568 -0.7651  0.4984 -1.0408
  551MOL0     C75914   1.338   5.360   4.656  0.2159  0.4138  0.3297
  551MOL0     C75915   1.447   5.265   4.608  0.2408  0.0542  0.5832
  551MOL0     C75916   1.532   5.211   4.717 -0.2762 -0.0617  0.2511
  551MOL0     N75917   1.613   5.311   4.786 -0.0266 -0.6229 -0.0603
  551MOL0     C75918   1.733   5.352   4.734 -0.1580  0.0859 -0.1730
  551MOL0     C75919   1.784   5.445   4.830 -0.4942  1.2431 -0.4623
  551MOL0     C75920   1.913   5.529   4.823  0.1829 -0.1634  1.0044
  551MOL0     C75921   2.016   5.479   4.923 -0.1287 -0.6581 -0.0220
  551MOL0     C75922   2.142   5.559   4.948  0.3022 -0.1414 -0.0782
  551MOL0     C75923   2.247   5.471   5.015  0.2691  0.3665 -0.1031
  551MOL0     O75924   2.257   5.342   4.943 -0.3491 -0.3407  0.0685
  551MOL0     C75925   2.380   5.290   4.900 -0.0754  0.1433 -0.0883
  551MOL0     C75926   2.493   5.359   4.872  0.8137 -0.7184 -0.2148
  551MOL0     C75927   2.615   5.300   4.843 -0.0286  0.4488  0.4995
  551MOL0     C75928   2.733   5.391   4.813  0.3173 -0.1328 -0.8520
  551MOL0     C75929   2.617   5.160   4.831  0.8590  0.3924  0.1693
  551MOL0     C75930   2.747   5.086   4.789 -0.2694 -0.5356 -1.0513
  551MOL0     O75931   2.866   5.129   4.851 -0.4397 -0.3936  0.0929
  551MOL0     C75932   2.977   5.064   4.804 -1.0308  0.5818  0.4740
  551MOL0     C75933   3.027   4.941   4.839 -1.0608  0.2923 -0.4148
  551MOL0     C75934   3.157   4.899   4.784  0.5171 -0.2655 -0.6623
  551MOL0     C75935   3.233   4.979   4.705  0.2302  0.3357  0.8086
  551MOL0     O75936   3.366   4.940   4.681 -0.1639  0.6330 -0.1629
  551MOL0     C75937   3.453   5.032   4.616  0.3951 -0.7516 -0.2913
  551MOL0     C75938   3.588   4.971   4.580  0.1053  0.3731  0.1811
  551MOL0     C75939   3.657   4.889   4.697  0.7609  0.4824 -0.0488
  551MOL0     C75940   3.810   4.885   4.682 -0.6705  0.0336 -0.8036
  551MOL0     C75941   3.876   4.826   4.818  0.6422 -0.3221  0.1806
  551MOL0     C75942   4.026   4.831   4.789 -0.5229  0.9281 -0.1653
  551MOL0     C75943   4.114   4.768   4.904  0.1017  0.0847  0.2595
  551MOL0     C75944   4.264   4.795   4.887  0.1960  0.1870  0.1266
  551MOL0    Cl75945   4.340   4.698   4.763  0.3930 -0.1346 -0.0196
  551MOL0     C75946   3.177   5.099   4.661  0.6019 -0.1343 -0.2879
  551MOL0     C75947   3.053   5.134   4.709  0.3764 -0.9030 -0.2399
  551MOL0     O75948   2.741   4.989   4.711  0.1519 -1.1563 -0.5391
  551MOL0     C75949   2.503   5.088   4.854  0.2120  0.8652  0.0824
  551MOL0     C75950   2.385   5.151   4.891  0.3371 -0.1540  0.1524
  551MOL0     N75951   1.685   5.460   4.929 -0.4445 -0.1082  0.0206
  551MOL0     N75952   1.584   5.378   4.902 -0.1270 -0.3230 -0.6958
  551MOL0     C75953   0.553   5.725   4.349  0.0937  0.1828  0.3326
  551MOL0     C75954   0.416   5.740   4.311 -0.5138 -0.5251  0.6222
  551MOL0     C75955  -0.049   5.772   4.356  0.6083 -0.2198 -0.3115
  551MOL0     C75956  -0.053   5.904   4.295  0.4515  0.1522  0.2093
  551MOL0     C75957  -0.174   5.975   4.272 -0.9427 -0.2778  0.8883
  551MOL0     C75958  -0.293   5.928   4.308  1.1723  0.2164 -1.0908
  551MOL0     O75959  -0.402   6.004   4.275 -0.3644 -0.2804 -0.7994
  551MOL0     C75960  -0.530   5.955   4.329 -0.6632 -0.1924  0.2795
  551MOL0     C75961  -0.543   5.973   4.481 -0.1218  0.6971  0.5599
  551MOL0     C75962  -0.684   5.943   4.518 -0.5322 -0.0297 -0.3720
  551MOL0     C75963  -0.700   5.875   4.649 -0.6700  0.3709 -0.4598
  551MOL0     C75964  -0.843   5.842   4.673 -0.1271 -1.5679 -0.2034
  551MOL0     C75965  -0.955   5.803   4.689  0.2914 -0.1737 -0.0299
  551MOL0     C75966  -0.294   5.790   4.353 -0.0360 -0.0150  0.3717
  551MOL0     C75967  -0.177   5.716   4.384  0.0124  0.6772 -0.6597
  551MOL0     C75968  -0.192   5.573   4.446 -0.3187 -0.2074  0.0234
  551MOL0     H75969   0.268   5.820   4.602  2.6288 -1.3986  3.4714
  551MOL0     H75970   0.516   5.835   4.669 -0.3330 -1.6307  0.7888
  551MOL0     H75971   0.818   5.664   4.373 -0.4542 -0.3761 -0.6243
  551MOL0     H75972   0.737   5.529   4.447 -0.5761  1.1011 -0.1349
  551MOL0     H75973   0.975   5.701   4.549 -0.3643  0.6906  1.9030
  551MOL0     H75974   0.882   5.616   4.665  1.8988  2.5776  0.9653
  551MOL0     H75975   0.917   5.409   4.539 -2.4554  2.6667  1.2773
  551MOL0     H75976   1.022   5.495   4.416  0.4743  2.4317  0.8711
  551MOL0     H75977   1.170   5.562   4.591 -0.9566  0.8971 -0.7923
  551MOL0     H75978   1.081   5.467   4.718  2.2285 -2.0363  1.0591
  551MOL0     H75979   1.235   5.377   4.466  1.5042  2.0143 -0.0694
  551MOL0     H75980   1.147   5.260   4.559 -2.9930  1.7200 -0.3772
  551MOL0     H75981   1.371   5.463   4.669  1.0151  0.0611  1.1555
  551MOL0     H75982   1.303   5.322   4.752 -1.2222  2.5609  0.7089
  551MOL0     H75983   1.509   5.312   4.531 -0.4808  0.7753  0.4349
  551MOL0     H75984   1.404   5.179   4.557 -0.3752  0.9340 -0.4087
  551MOL0     H75985   1.471   5.142   4.776 -0.7889 -0.5977 -0.8822
  551MOL0     H75986   1.600   5.139   4.670  1.5331  0.8391  1.3635
  551MOL0     H75987   1.769   5.314   4.639  0.9058 -0.0372  0.2560
  551MOL0     H75988   1.868   5.625   4.850 -0.6968 -0.4417  0.5619
  551MOL0     H75989   1.949   5.535   4.720  1.6336  2.4750  1.5931
  551MOL0     H75990   1.959   5.488   5.016  1.7275  3.3512  0.9476
  551MOL0     H75991   2.038   5.375   4.898 -2.3740 -0.6526 -2.3902
  551MOL0     H75992   2.174   5.579   4.845 -0.2578 -3.4623 -1.0115
  551MOL0     H75993   2.128   5.647   5.012  1.4943 -1.2054  1.7278
  551MOL0     H75994   2.343   5.525   5.012  1.4542 -1.6656 -0.2796
  551MOL0     H75995   2.219   5.457   5.119 -0.9110  0.0090 -0.4580
  551MOL0     H75996   2.480   5.466   4.869 -0.5029 -0.6181  3.5008
  551MOL0     H75997   2.749   5.384   4.705 -0.3203 -0.3277 -0.9384
  551MOL0     H75998   2.824   5.364   4.866  0.6901 -0.2272 -1.5271
  551MOL0     H75999   2.720   5.495   4.844 -0.4254 -1.1963  2.8836
  551MOL0     H76000   2.964   4.873   4.895  1.2038 -1.2721  0.3955
  551MOL0     H76001   3.193   4.799   4.810  1.4959  0.1726 -0.2766
  551MOL0     H76002   3.412   5.068   4.521  0.7727  0.9085  0.1554
  551MOL0     H76003   3.479   5.121   4.673 -2.0008  0.9565 -1.7024
  551MOL0     H76004   3.584   4.891   4.506  1.2149 -1.1818  1.7002
  551MOL0     H76005   3.665   5.041   4.546  3.1771 -2.9731 -0.3997
  551MOL0     H76006   3.607   4.792   4.701  1.3378  0.2061  0.4950
  551MOL0     H76007   3.629   4.940   4.790 -2.8558 -0.1215 -0.6576
  551MOL0     H76008   3.858   4.979   4.653 -0.2607 -0.0463 -0.3845
  551MOL0     H76009   3.830   4.813   4.602  5.0402  1.2096 -0.8926
  551MOL0     H76010   3.839   4.896   4.893  2.9167  0.4295  0.6747
  551MOL0     H76011   3.839   4.726   4.843 -0.5256  0.2308  0.7474
  551MOL0     H76012   4.051   4.935   4.766 -1.7181  1.5897  1.3456
  551MOL0     H76013   4.052   4.772   4.701  0.4477  0.6975  0.2682
  551MOL0     H76014   4.100   4.660   4.912  2.3945 -0.5462 -2.4825
  551MOL0     H76015   4.079   4.803   5.001  0.5624  0.9606  0.1213
  551MOL0     H76016   4.304   4.774   4.987 -2.0360 -0.8737  0.8697
  551MOL0     H76017   4.269   4.901   4.859 -3.2870  0.4737  0.0582
  551MOL0     H76018   3.226   5.170   4.596  2.6111 -2.9368 -2.0642
  551MOL0     H76019   3.012   5.226   4.670 -0.0821 -0.6873  0.7302
  551MOL0     H76020   2.494   4.981   4.838 -4.4210  1.3058 -1.9053
  551MOL0     H76021   2.303   5.081   4.894  1.7227 -2.0392 -2.2771
  551MOL0     H76022   0.627   5.702   4.274 -1.1939  0.3353 -1.0299
  551MOL0     H76023   0.414   5.734   4.203  0.7245  0.7422  0.5097
  551MOL0     H76024   0.039   5.953   4.263  0.4819 -1.2660 -2.1603
  551MOL0     H76025  -0.170   6.070   4.219  0.3121 -2.5139 -3.4203
  551MOL0     H76026  -0.617   6.009   4.289 -0.1378 -0.1984 -0.9049
  551MOL0     H76027  -0.546   5.851   4.301 -0.4021 -0.9308  2.6566
  551MOL0     H76028  -0.519   6.075   4.511 -0.6520  1.0020 -0.0084
  551MOL0     H76029  -0.471   5.907   4.530  0.6035 -0.0092 -1.3440
  551MOL0     H76030  -0.730   6.042   4.527  0.5426  0.4143  0.4102
  551MOL0     H76031  -0.737   5.885   4.441 -0.9488 -0.3492  0.1468
  551MOL0     H76032  -0.655   5.935   4.729  0.8619 -2.2203  0.7703
  551MOL0     H76033  -0.645   5.781   4.636 -2.2115 -0.5043 -0.8838
  551MOL0     H76034  -1.048   5.756   4.710  0.1672 -2.1113 -3.9921
  551MOL0     H76035  -0.385   5.741   4.387 -0.0094 -1.1192 -1.0415
  551MOL0     H76036  -0.128   5.566   4.535 -1.3773  1.6107  0.9906
  551MOL0     H76037  -0.297   5.566   4.478 -0.4844  0.8899 -0.2366
  551MOL0     H76038  -0.175   5.497   4.370 -0.9427  1.0601 -1.4510
  552MOL0     O76039   3.493   2.604   6.571  0.3660  0.5802  0.3328
  552MOL0     C76040   3.434   2.709   6.541 -0.1054  0.0127  0.1352
  552MOL0     O76041   3.501   2.828   6.518  0.3619 -0.1310 -0.1264
  552MOL0     C76042   3.620   2.852   6.582  0.1611  0.3659  0.3406
  552MOL0     C76043   3.683   2.961   6.532  0.6750 -0.4746  0.4732
  552MOL0     C76044   3.807   2.997   6.583  0.1422  0.7780 -0.3866
  552MOL0     C76045   3.864   2.932   6.688  0.8283  0.1375 -0.2188
  552MOL0     O76046   3.983   2.967   6.731 -0.9174  0.0575  0.2402
  552MOL0     C76047   4.088   2.875   6.765 -0.3760  0.7203  0.5386
  552MOL0     C76048   4.193   2.960   6.827  0.5254 -0.3811 -0.1809
  552MOL0     C76049   4.315   2.868   6.838 -1.1822  0.2805  0.4104
  552MOL0     C76050   4.428   2.944   6.895 -0.0512  0.3974  0.2979
  552MOL0     C76051   4.554   2.865   6.864 -0.9347 -0.2616 -0.3148
  552MOL0     C76052   4.676   2.942   6.928  0.8193  0.7297  0.5946
  552MOL0     C76053   4.804   2.857   6.928  0.1464 -0.1665 -0.0512
  552MOL0     C76054   4.848   2.785   6.800  0.4015  0.1474 -0.0711
  552MOL0     N76055   4.867   2.870   6.684  0.8678 -0.1734  0.3638
  552MOL0     C76056   4.972   2.960   6.671  0.5051 -0.1212 -0.7259
  552MOL0     C76057   4.959   3.010   6.545  0.3087 -0.3271  0.1387
  552MOL0     C76058   5.034   3.124   6.485  0.1163  0.6857  0.4042
  552MOL0     C76059   5.138   3.067   6.384  1.0276  0.1057 -0.5947
  552MOL0     C76060   5.247   3.170   6.359  0.5094 -0.5361 -0.4149
  552MOL0     C76061   5.340   3.120   6.239  1.1162 -1.0429 -0.0737
  552MOL0     O76062   5.418   3.006   6.283  0.5637 -0.1365  0.6282
  552MOL0     C76063   5.468   2.926   6.184 -0.0431  0.1485  0.5246
  552MOL0     C76064   5.498   2.803   6.218  0.2526  0.5612 -1.4444
  552MOL0     C76065   5.545   2.702   6.130  0.0613  0.2279 -0.2716
  552MOL0     C76066   5.569   2.565   6.197  0.5123 -0.1729  0.0898
  552MOL0     C76067   5.565   2.734   5.997 -0.4910 -0.6300 -0.6246
  552MOL0     C76068   5.625   2.641   5.897 -0.4564 -0.3666 -0.7556
  552MOL0     O76069   5.635   2.689   5.770  0.7028 -0.0755 -0.2690
  552MOL0     C76070   5.701   2.611   5.678 -0.0356  0.0434  1.0248
  552MOL0     C76071   5.844   2.618   5.675  0.3618 -0.4364 -0.3428
  552MOL0     C76072   5.911   2.540   5.578  0.7368 -0.0922  0.6728
  552MOL0     C76073   5.834   2.459   5.490 -0.2890  0.2368 -0.2910
  552MOL0     O76074   5.888   2.368   5.401  0.0077  0.4932 -0.4395
  552MOL0     C76075   5.965   2.260   5.463  0.4063  0.0666 -0.0657
  552MOL0     C76076   6.020   2.181   5.354  0.5446  0.3151  0.4503
  552MOL0     C76077   6.167   2.211   5.319  0.3815 -0.3929 -0.9724
  552MOL0     C76078   6.190   2.354   5.289  0.1528  0.4944  0.6884
  552MOL0     C76079   6.343   2.370   5.281  0.6937  0.1227  0.0179
  552MOL0     C76080   6.384   2.517   5.268 -0.2530 -0.2188 -0.4845
  552MOL0     C76081   6.319   2.615   5.362 -0.3283 -0.1235  0.3808
  552MOL0     C76082   6.386   2.756   5.356 -0.0372  0.3707  0.0908
  552MOL0    Cl76083   6.337   2.855   5.495 -0.2367  0.0254  0.1355
  552MOL0     C76084   5.701   2.463   5.492  0.7622 -1.0988  0.4027
  552MOL0     C76085   5.626   2.534   5.583  0.1235  0.4528  0.0917
  552MOL0     O76086   5.666   2.531   5.937  0.8236 -0.4085 -0.7107
  552MOL0     C76087   5.531   2.866   5.959  0.1744 -0.9317 -0.0043
  552MOL0     C76088   5.478   2.958   6.048 -0.4617 -0.0740 -0.4059
  552MOL0     N76089   4.851   2.947   6.489 -0.6882 -0.0829  0.4232
  552MOL0     N76090   4.793   2.868   6.570 -0.2723  0.3464 -0.2312
  552MOL0     C76091   3.802   2.818   6.742 -0.1147 -0.2803 -0.2794
  552MOL0     C76092   3.680   2.780   6.681 -0.5205 -0.5182 -0.3957
  552MOL0     C76093   3.284   2.717   6.543  0.1870  0.2465  0.1308
  552MOL0     C76094   3.222   2.592   6.562  0.2002 -0.6758  0.0105
  552MOL0     C76095   3.086   2.583   6.564 -0.4997 -0.2935  0.4241
  552MOL0     C76096   2.997   2.689   6.553  0.4039  0.3104 -0.5012
  552MOL0     O76097   2.858   2.665   6.575 -0.1284  0.2659  0.1251
  552MOL0     C76098   2.763   2.778   6.569 -0.8403 -0.0825 -0.2120
  552MOL0     C76099   2.761   2.857   6.439 -0.3001 -0.4506  0.2430
  552MOL0     C76100   2.641   2.947   6.426  0.3907  0.0072  0.1312
  552MOL0     C76101   2.612   2.994   6.284 -0.3982 -0.1252 -0.3373
  552MOL0     C76102   2.495   3.078   6.292 -0.6745 -0.1187 -0.1883
  552MOL0     C76103   2.394   3.139   6.307  0.9244 -0.6454  0.1532
  552MOL0     C76104   3.055   2.818   6.558 -0.1269 -0.3777  0.0248
  552MOL0     C76105   3.195   2.836   6.537 -0.7470  0.7487  0.6134
  552MOL0     C76106   3.251   2.977   6.518 -0.3255 -1.2647  0.2984
  552MOL0     H76107   3.647   3.033   6.460  0.3688 -0.8888  0.2103
  552MOL0     H76108   3.854   3.082   6.533  1.5746 -0.0447 -0.4997
  552MOL0     H76109   4.113   2.824   6.671 -4.0897  0.1070 -0.2926
  552MOL0     H76110   4.058   2.801   6.840 -1.3865  3.2028  2.7393
  552MOL0     H76111   4.214   3.052   6.773  1.9692  1.0414  2.5906
  552MOL0     H76112   4.164   2.988   6.929  0.5740 -1.5556  0.1702
  552MOL0     H76113   4.285   2.780   6.895  1.7893 -1.5412 -0.6035
  552MOL0     H76114   4.333   2.823   6.740  0.7923 -0.1557  0.9341
  552MOL0     H76115   4.427   3.038   6.838  0.7826  0.0997 -0.2329
  552MOL0     H76116   4.410   2.961   7.001 -1.6436  1.6067 -0.1151
  552MOL0     H76117   4.562   2.848   6.757  2.1871  1.0498 -0.3866
  552MOL0     H76118   4.549   2.774   6.924 -1.2168  0.2191  0.4185
  552MOL0     H76119   4.701   3.035   6.877  3.3318 -0.7887 -1.2142
  552MOL0     H76120   4.648   2.969   7.030  0.3871 -0.3565  0.7794
  552MOL0     H76121   4.797   2.786   7.011  1.7412 -2.0244 -1.4220
  552MOL0     H76122   4.892   2.919   6.950  1.0459 -0.8449 -1.5918
  552MOL0     H76123   4.942   2.736   6.826 -0.7011 -0.9383  2.2086
  552MOL0     H76124   4.775   2.710   6.767 -0.3702 -0.1969  2.2279
  552MOL0     H76125   5.038   3.003   6.745 -2.0395  3.0230 -0.0579
  552MOL0     H76126   5.097   3.162   6.566  3.5612 -1.1705 -1.1729
  552MOL0     H76127   4.963   3.194   6.439 -1.9881 -2.1640 -1.0409
  552MOL0     H76128   5.175   2.975   6.429 -1.0134 -1.3487 -1.7549
  552MOL0     H76129   5.100   3.029   6.289  2.2357 -0.2189 -0.9681
  552MOL0     H76130   5.207   3.269   6.333  0.5243 -1.1890 -3.2883
  552MOL0     H76131   5.310   3.186   6.447  1.8505 -2.3862 -0.9896
  552MOL0     H76132   5.289   3.088   6.148  1.4396 -2.5039  0.2390
  552MOL0     H76133   5.407   3.203   6.212  1.0681 -0.0904  2.4107
  552MOL0     H76134   5.486   2.769   6.320  0.5383  1.8348 -0.9748
  552MOL0     H76135   5.674   2.536   6.190  1.0913  1.9976 -1.5054
  552MOL0     H76136   5.502   2.495   6.146  0.0852 -0.8751  1.5334
  552MOL0     H76137   5.532   2.566   6.300 -0.1256  1.0633 -0.1300
  552MOL0     H76138   5.892   2.675   5.754 -0.0548 -0.0806 -0.3480
  552MOL0     H76139   6.019   2.534   5.570  0.8543 -1.4225  2.5996
  552MOL0     H76140   6.053   2.288   5.522  0.5257 -0.2471 -0.0908
  552MOL0     H76141   5.913   2.192   5.531 -0.5532  1.5553  0.7268
  552MOL0     H76142   6.022   2.075   5.379  1.1385  0.6826  2.1357
  552MOL0     H76143   5.953   2.189   5.268 -0.3791  2.3217  1.2799
  552MOL0     H76144   6.201   2.140   5.243 -3.3540 -3.0888 -0.4038
  552MOL0     H76145   6.216   2.186   5.414 -4.8820 -0.1914  2.2223
  552MOL0     H76146   6.156   2.405   5.379  0.7106  0.5238  0.8912
  552MOL0     H76147   6.137   2.385   5.198 -1.4415 -4.0430 -0.1715
  552MOL0     H76148   6.394   2.340   5.373  0.0143  0.5776  0.5555
  552MOL0     H76149   6.392   2.325   5.194  1.7660  0.8501  0.2134
  552MOL0     H76150   6.362   2.546   5.165  1.1955 -1.1041 -1.0761
  552MOL0     H76151   6.493   2.526   5.271 -0.3425  0.9019 -0.3360
  552MOL0     H76152   6.335   2.573   5.462  1.3890 -1.4406 -0.4052
  552MOL0     H76153   6.213   2.614   5.335 -0.8030 -1.5527  2.1116
  552MOL0     H76154   6.348   2.810   5.269  1.8276  0.6261 -0.6153
  552MOL0     H76155   6.495   2.753   5.352  0.0608  1.3988  1.2692
  552MOL0     H76156   5.642   2.400   5.426 -1.5420  2.1827 -0.9554
  552MOL0     H76157   5.518   2.534   5.587 -0.0509  2.7387 -1.8132
  552MOL0     H76158   5.533   2.901   5.856  1.5131  1.6222  0.8001
  552MOL0     H76159   5.454   3.056   6.006  0.8860 -0.1733 -1.4717
  552MOL0     H76160   3.847   2.750   6.813 -2.3992 -0.7111  0.8513
  552MOL0     H76161   3.628   2.695   6.723  0.0957  0.5923  2.8734
  552MOL0     H76162   3.285   2.505   6.577  0.3578 -0.8969 -1.7698
  552MOL0     H76163   3.045   2.483   6.578 -0.7945  0.1274  3.0656
  552MOL0     H76164   2.661   2.740   6.582 -1.3891  1.5219  0.3842
  552MOL0     H76165   2.793   2.847   6.649  1.2196 -1.2995  0.1289
  552MOL0     H76166   2.760   2.786   6.355  1.6197  3.0569 -3.0781
  552MOL0     H76167   2.858   2.905   6.422 -0.4335  1.0062  3.1039
  552MOL0     H76168   2.549   2.903   6.467 -0.4810  2.9304  1.6186
  552MOL0     H76169   2.643   3.030   6.497 -0.8678  0.0289  0.1788
  552MOL0     H76170   2.589   2.906   6.223  1.4513  0.4038 -1.8934
  552MOL0     H76171   2.696   3.046   6.237  0.4411  1.6908  2.9022
  552MOL0     H76172   2.303   3.194   6.318  1.2241  0.0219 -0.6210
  552MOL0     H76173   3.006   2.913   6.574  0.8384  1.4476 -5.6732
  552MOL0     H76174   3.294   3.020   6.609  0.8972  2.7687 -1.9501
  552MOL0     H76175   3.320   2.994   6.435  0.2057  1.0407  1.1495
  552MOL0     H76176   3.164   3.039   6.493  0.7900  0.1810 -0.1372
  553MOL0     O76177   5.076   9.282   2.534  0.8545 -0.1816 -0.1458
  553MOL0     C76178   4.958   9.260   2.560  0.1911 -0.4458  0.3281
  553MOL0     O76179   4.892   9.325   2.654  0.1452  0.0445 -0.5210
  553MOL0     C76180   4.936   9.456   2.689 -0.2315 -1.5205 -0.3480
  553MOL0     C76181   4.946   9.550   2.582 -0.3823  0.2367  0.4015
  553MOL0     C76182   4.991   9.681   2.600  0.2123  0.1888  0.1328
  553MOL0     C76183   5.027   9.717   2.728  0.3143 -1.2230 -0.2664
  553MOL0     O76184   5.085   9.843   2.736  0.2640  0.4883 -1.2128
  553MOL0     C76185   5.125   9.889   2.865 -0.2350 -1.1652  0.2201
  553MOL0     C76186   5.205  10.017   2.829 -0.6799 -0.3574  0.0808
  553MOL0     C76187   5.237  10.097   2.957 -0.1197 -0.5101  0.0329
  553MOL0     C76188   5.320  10.227   2.926 -0.2325  0.0312 -0.5256
  553MOL0     C76189   5.469  10.212   2.875  0.0138 -0.9764  0.0156
  553MOL0     C76190   5.550  10.154   2.991 -0.3483  0.9456  1.0385
  553MOL0     C76191   5.689  10.187   2.967 -0.3147 -0.1010 -0.7244
  553MOL0     C76192   5.740  10.335   2.981  0.8958  0.2226  0.3083
  553MOL0     N76193   5.671  10.406   3.084  0.3949 -0.1942 -0.5934
  553MOL0     C76194   5.688  10.375   3.215  0.6246  1.4206  0.6343
  553MOL0     C76195   5.613  10.474   3.282  0.9300  0.2647  0.0207
  553MOL0     C76196   5.586  10.483   3.427 -0.5607  0.5821  0.4463
  553MOL0     C76197   5.695  10.467   3.522 -0.2225  0.1761 -0.6991
  553MOL0     C76198   5.771  10.593   3.569 -0.1131  0.3459  0.6527
  553MOL0     C76199   5.847  10.658   3.454 -0.0951 -0.1991 -0.7304
  553MOL0     O76200   5.951  10.568   3.414  0.6603  0.0951  0.7936
  553MOL0     C76201   6.057  10.622   3.347 -0.3901 -0.5294  0.2444
  553MOL0     C76202   6.180  10.557   3.359  0.3231 -0.4152  1.1063
  553MOL0     C76203   6.293  10.607   3.300  0.0286  0.3582  1.3570
  553MOL0     C76204   6.416  10.529   3.321 -0.7119  0.1000 -0.0199
  553MOL0     C76205   6.281  10.713   3.207 -1.0876 -0.1633  0.0871
  553MOL0     C76206   6.400  10.776   3.141 -0.2154  0.9834  0.5138
  553MOL0     O76207   6.517  10.704   3.135  0.0987  0.4449  0.0639
  553MOL0     C76208   6.633  10.766   3.088  0.0794  0.2178 -0.2819
  553MOL0     C76209   6.692  10.715   2.971 -0.4019 -0.4374  0.4339
  553MOL0     C76210   6.804  10.778   2.914 -0.1881  1.0157 -0.1011
  553MOL0     C76211   6.867  10.887   2.984 -0.1637  0.1187 -0.1411
  553MOL0     O76212   6.993  10.941   2.954 -0.2790 -0.7832  0.2851
  553MOL0     C76213   7.057  10.892   2.840 -0.3965 -0.2153  0.1967
  553MOL0     C76214   7.179  10.986   2.833  0.2869 -0.4805  1.0392
  553MOL0     C76215   7.249  10.959   2.699  0.0612 -0.4080  0.2490
  553MOL0     C76216   7.383  11.033   2.693  0.5170  1.0424 -0.2239
  553MOL0     C76217   7.444  11.012   2.546  0.2971 -0.2634  0.4194
  553MOL0     C76218   7.587  11.058   2.540  0.3771 -0.0077 -0.1646
  553MOL0     C76219   7.622  11.053   2.380 -0.6725  0.3470  1.0714
  553MOL0     C76220   7.770  11.032   2.348  0.5279  1.3145  0.1248
  553MOL0    Cl76221   7.871  11.158   2.432  0.1688 -0.1253 -0.3380
  553MOL0     C76222   6.811  10.936   3.099 -0.3914  0.8184  0.5202
  553MOL0     C76223   6.696  10.875   3.153  0.9699  0.5095  0.2823
  553MOL0     O76224   6.386  10.887   3.089 -0.6674  0.0692  0.1437
  553MOL0     C76225   6.155  10.776   3.186  0.6149  0.4099  0.2281
  553MOL0     C76226   6.044  10.736   3.262  0.7738  0.5170  0.0890
  553MOL0     N76227   5.557  10.557   3.191 -0.0351 -0.3998 -0.6364
  553MOL0     N76228   5.595  10.515   3.071 -0.3094  0.3784  0.4053
  553MOL0     C76229   5.006   9.625   2.836 -0.0302 -0.8647 -0.6150
  553MOL0     C76230   4.969   9.497   2.813  0.1832  0.2615  0.2412
  553MOL0     C76231   4.885   9.167   2.475  0.3103  0.0399  0.2485
  553MOL0     C76232   4.936   9.111   2.358  0.5820 -0.0315 -0.2803
  553MOL0     C76233   4.869   9.017   2.287 -1.4788  0.1026  0.2836
  553MOL0     C76234   4.740   8.971   2.326 -0.5459  0.2298  0.1265
  553MOL0     O76235   4.687   8.864   2.252 -0.0602  0.8770  0.3162
  553MOL0     C76236   4.545   8.844   2.239  0.4960  0.2056  0.0261
  553MOL0     C76237   4.505   8.733   2.337  0.5321 -0.0028  0.3995
  553MOL0     C76238   4.350   8.734   2.347 -0.1111 -0.1797 -0.8443
  553MOL0     C76239   4.300   8.754   2.489 -0.6910 -0.8417  0.3596
  553MOL0     C76240   4.302   8.898   2.524  0.1635 -0.7190  0.5459
  553MOL0     C76241   4.291   9.017   2.549 -0.5193 -0.4976  0.5974
  553MOL0     C76242   4.684   9.020   2.437 -0.0895  0.1950  0.0995
  553MOL0     C76243   4.757   9.111   2.518 -0.7298  0.3479 -0.3845
  553MOL0     C76244   4.693   9.139   2.651 -0.0865  0.4452 -0.4724
  553MOL0     H76245   4.911   9.527   2.482 -0.4491  1.4157  0.1358
  553MOL0     H76246   5.008   9.738   2.509 -1.5636 -1.1466 -1.1154
  553MOL0     H76247   5.186   9.820   2.924 -1.5410 -2.6830 -0.1478
  553MOL0     H76248   5.035   9.910   2.923 -0.5606 -0.6716 -0.4544
  553MOL0     H76249   5.302   9.990   2.786  1.4574  2.5717  2.6461
  553MOL0     H76250   5.151  10.076   2.755 -0.8514 -1.6593 -0.8624
  553MOL0     H76251   5.147  10.134   3.007 -1.3035  0.4752 -2.5984
  553MOL0     H76252   5.292  10.029   3.023 -1.0272 -0.4939  0.8304
  553MOL0     H76253   5.266  10.295   2.861 -3.4323 -0.0183  1.8637
  553MOL0     H76254   5.333  10.283   3.019  1.0054 -3.7787  1.8595
  553MOL0     H76255   5.516  10.309   2.859 -0.9026 -0.4828  0.2844
  553MOL0     H76256   5.484  10.150   2.786  1.9668 -0.8005  0.1911
  553MOL0     H76257   5.506  10.192   3.084 -4.6457 -1.3177  0.2117
  553MOL0     H76258   5.543  10.045   2.987 -1.1393  0.9911  0.9698
  553MOL0     H76259   5.716  10.148   2.869 -0.5734  0.8944 -1.2013
  553MOL0     H76260   5.738  10.121   3.039 -0.7635  1.4637  1.1027
  553MOL0     H76261   5.846  10.333   3.006  1.0863  0.1568 -0.4873
  553MOL0     H76262   5.730  10.380   2.882 -1.3761 -3.6245 -1.4171
  553MOL0     H76263   5.725  10.285   3.263  1.9263  0.4136 -2.0681
  553MOL0     H76264   5.522  10.394   3.437 -1.9549  1.2807 -1.5568
  553MOL0     H76265   5.530  10.573   3.456 -0.7094 -0.1124  2.5197
  553MOL0     H76266   5.653  10.426   3.615 -0.4668 -0.1124 -0.9333
  553MOL0     H76267   5.763  10.388   3.487  1.1671  0.1777  1.7656
  553MOL0     H76268   5.698  10.666   3.607 -1.8624 -0.5740 -0.7476
  553MOL0     H76269   5.835  10.570   3.654 -2.1071  0.3034  2.2119
  553MOL0     H76270   5.779  10.676   3.370 -1.2645 -0.7548  0.0639
  553MOL0     H76271   5.889  10.752   3.491  1.7445 -1.6650  1.1398
  553MOL0     H76272   6.192  10.462   3.410  2.6232  0.7287  2.8953
  553MOL0     H76273   6.497  10.596   3.353  0.6387 -0.9912 -1.0042
  553MOL0     H76274   6.452  10.471   3.235 -1.3986 -1.8600  0.9600
  553MOL0     H76275   6.400  10.452   3.397  0.8787 -0.3497 -0.0926
  553MOL0     H76276   6.642  10.632   2.921 -1.0223  1.0554 -1.5757
  553MOL0     H76277   6.849  10.735   2.825  0.6347  1.0326  0.2912
  553MOL0     H76278   7.098  10.790   2.841  4.0576  1.3111 -1.8776
  553MOL0     H76279   6.998  10.889   2.748 -0.4233 -2.3904  0.2274
  553MOL0     H76280   7.143  11.089   2.830  3.6489  0.8136 -0.2799
  553MOL0     H76281   7.247  10.968   2.917  0.7939 -4.0092  0.0402
  553MOL0     H76282   7.185  10.977   2.613 -1.6234 -4.0289  0.5327
  553MOL0     H76283   7.278  10.854   2.689  0.2632 -0.3226 -0.0715
  553MOL0     H76284   7.454  10.992   2.765 -0.9510 -0.3608  0.4659
  553MOL0     H76285   7.367  11.136   2.727 -1.4274  0.9962 -0.8921
  553MOL0     H76286   7.430  10.914   2.501 -0.7211  0.4855 -0.9601
  553MOL0     H76287   7.386  11.075   2.477 -0.0401  0.1343  1.0502
  553MOL0     H76288   7.649  10.994   2.604  1.3102  0.1563 -0.8814
  553MOL0     H76289   7.586  11.153   2.595  0.4719 -0.2122  0.1935
  553MOL0     H76290   7.603  11.151   2.333 -1.4583 -0.8864 -1.3527
  553MOL0     H76291   7.565  10.973   2.331 -0.0393  1.0234 -0.9012
  553MOL0     H76292   7.792  11.023   2.242  3.4952 -1.1652  0.8241
  553MOL0     H76293   7.794  10.935   2.392  4.9950  2.0357 -0.2807
  553MOL0     H76294   6.846  11.021   3.156  1.4862  0.2484  0.2666
  553MOL0     H76295   6.633  10.914   3.231 -2.1030 -2.9115 -0.2318
  553MOL0     H76296   6.148  10.860   3.116  1.0142  0.7580  0.6075
  553MOL0     H76297   5.956  10.799   3.265  0.6882  0.5018 -1.5196
  553MOL0     H76298   5.041   9.661   2.932  2.2668 -0.7709 -1.4081
  553MOL0     H76299   4.953   9.429   2.896  0.2001  0.4108  0.3684
  553MOL0     H76300   5.028   9.149   2.313  3.2206 -1.1708  3.6329
  553MOL0     H76301   4.926   8.971   2.208 -2.1412 -0.3484  0.0562
  553MOL0     H76302   4.492   8.939   2.247  2.3344  1.2678  0.0038
  553MOL0     H76303   4.523   8.795   2.144 -1.2799 -1.3378  1.1508
  553MOL0     H76304   4.558   8.755   2.429 -1.6810  3.1572  1.1015
  553MOL0     H76305   4.549   8.641   2.297 -0.3670 -0.1422 -0.3255
  553MOL0     H76306   4.304   8.803   2.276  0.1681  2.5155  1.4015
  553MOL0     H76307   4.315   8.634   2.318 -1.4074  0.2081 -0.6741
  553MOL0     H76308   4.357   8.699   2.564  0.8383  0.2909  0.0838
  553MOL0     H76309   4.197   8.717   2.497 -0.7609 -1.7052 -3.0600
  553MOL0     H76310   4.272   9.117   2.582  1.1712  0.3279 -0.7826
  553MOL0     H76311   4.596   8.967   2.474  0.2403  0.8832  1.9650
  553MOL0     H76312   4.673   9.247   2.654  1.7127  0.7933  0.4914
  553MOL0     H76313   4.598   9.086   2.658 -0.9514  2.0426  0.6321
  553MOL0     H76314   4.757   9.121   2.738 -0.0402 -1.5814 -0.8959
  554MOL0     O76315  10.975   9.228   0.156 -0.9971  0.1608 -0.6571
  554MOL0     C76316  10.939   9.146   0.241 -0.4507  0.1291  0.2567
  554MOL0     O76317  11.031   9.078   0.328 -0.1314 -0.1203 -0.6570
  554MOL0     C76318  11.163   9.098   0.302  0.5415 -0.0856  0.1341
  554MOL0     C76319  11.230   9.160   0.401 -0.0399  0.4589  0.2871
  554MOL0     C76320  11.367   9.159   0.396  0.4133  0.0677  0.9057
  554MOL0     C76321  11.445   9.094   0.290  0.2824 -0.3064  0.1854
  554MOL0     O76322  11.582   9.092   0.296 -0.2401 -0.3924  0.1317
  554MOL0     C76323  11.657   9.140   0.181  0.2575 -0.4485  0.3008
  554MOL0     C76324  11.734   9.021   0.106  0.2385 -0.4491  0.3917
  554MOL0     C76325  11.812   8.926   0.197 -0.2253 -0.1899  0.5904
  554MOL0     C76326  11.946   8.997   0.237 -0.9875 -0.1210  0.6990
  554MOL0     C76327  12.069   8.938   0.156 -0.8558 -0.0694 -0.3009
  554MOL0     C76328  12.052   8.943   0.000 -0.1791  0.2329 -0.1814
  554MOL0     C76329  12.167   8.872  -0.070  0.1154  0.1909  0.1624
  554MOL0     C76330  12.172   8.716  -0.063  0.3654 -0.1886  0.4780
  554MOL0     N76331  12.306   8.666  -0.047 -0.6701 -0.4337  0.1617
  554MOL0     C76332  12.419   8.697  -0.124 -0.3198  1.0141  0.0129
  554MOL0     C76333  12.498   8.594  -0.086  0.7395 -0.2056 -0.0707
  554MOL0     C76334  12.629   8.572  -0.153 -0.1964  0.1892  0.1685
  554MOL0     C76335  12.698   8.704  -0.183 -0.0488 -0.8527  0.4510
  554MOL0     C76336  12.840   8.680  -0.231  0.3722  0.0309  0.3476
  554MOL0     C76337  12.951   8.621  -0.138 -0.4028  0.0077  1.1117
  554MOL0     O76338  13.071   8.602  -0.204  0.2512  0.1894 -0.4427
  554MOL0     C76339  13.194   8.580  -0.138  0.2247 -0.5551 -0.3971
  554MOL0     C76340  13.210   8.585  -0.006 -1.0816 -0.0003 -0.1432
  554MOL0     C76341  13.329   8.554   0.068  0.1254  0.0098 -0.6608
  554MOL0     C76342  13.316   8.555   0.214 -0.5461  0.0508 -0.3906
  554MOL0     C76343  13.443   8.522  -0.016 -0.4194 -0.5435  0.3934
  554MOL0     C76344  13.582   8.498   0.040  0.2455 -1.2231  0.5344
  554MOL0     O76345  13.688   8.477  -0.042 -0.6293 -0.2917 -0.0254
  554MOL0     C76346  13.806   8.435   0.009 -0.0004  0.7335  0.1426
  554MOL0     C76347  13.817   8.327   0.100 -0.6359  0.3114  0.5932
  554MOL0     C76348  13.943   8.287   0.150 -0.0844 -0.6635  0.1930
  554MOL0     C76349  14.060   8.357   0.124  0.2318 -0.0206  0.0636
  554MOL0     O76350  14.182   8.305   0.166  0.7527 -0.1534  0.9539
  554MOL0     C76351  14.184   8.180   0.240 -1.0994  0.1037  0.7460
  554MOL0     C76352  14.331   8.162   0.271 -0.7117 -0.2254  0.0073
  554MOL0     C76353  14.431   8.174   0.149  0.5775  0.2292 -0.4479
  554MOL0     C76354  14.561   8.110   0.197 -0.7297 -0.3836 -0.0127
  554MOL0     C76355  14.649   8.101   0.067  0.7903 -0.3334  0.0029
  554MOL0     C76356  14.769   8.021   0.088 -0.9085  0.7369  0.1603
  554MOL0     C76357  14.744   7.872   0.124  0.2261 -0.1216 -0.2795
  554MOL0     C76358  14.687   7.789   0.015  0.5978 -0.2775 -0.4006
  554MOL0    Cl76359  14.667   7.618   0.055 -0.1563  0.0204 -0.1431
  554MOL0     C76360  14.047   8.464   0.035 -0.0670 -0.1890  0.2470
  554MOL0     C76361  13.921   8.503  -0.016 -0.1738 -0.3321  0.6369
  554MOL0     O76362  13.591   8.519   0.160  0.4227 -0.2880  0.0559
  554MOL0     C76363  13.432   8.544  -0.160 -0.7142  0.2786 -0.3366
  554MOL0     C76364  13.305   8.558  -0.219  0.8880 -0.1100 -0.1092
  554MOL0     N76365  12.446   8.520   0.020 -0.5254  0.3238  1.0003
  554MOL0     N76366  12.324   8.558   0.035  0.1404  0.1219  0.3724
  554MOL0     C76367  11.370   9.043   0.187  0.2845 -0.1407 -0.0974
  554MOL0     C76368  11.228   9.042   0.193 -0.5170  0.4591 -0.4848
  554MOL0     C76369  10.789   9.114   0.246 -1.0106 -0.0024 -0.0156
  554MOL0     C76370  10.698   9.215   0.208 -0.2746 -0.4137  1.1430
  554MOL0     C76371  10.559   9.200   0.227 -0.5758 -0.1249 -0.0704
  554MOL0     C76372  10.512   9.069   0.276  0.0709  0.1632  0.4515
  554MOL0     O76373  10.383   9.022   0.266 -0.0725  1.1930 -0.6410
  554MOL0     C76374  10.274   9.114   0.294 -1.2583 -0.1889  0.1323
  554MOL0     C76375  10.147   9.039   0.272 -0.7755  0.3256 -0.2310
  554MOL0     C76376  10.033   9.130   0.303 -1.3780 -0.3612 -0.4668
  554MOL0     C76377   9.908   9.064   0.244 -0.2249  0.4645  0.0823
  554MOL0     C76378   9.853   8.977   0.342  0.5836  0.5113 -0.5410
  554MOL0     C76379   9.808   8.900   0.428 -0.3488 -0.2570 -0.1111
  554MOL0     C76380  10.604   8.970   0.309  0.6566  0.9745  0.1383
  554MOL0     C76381  10.742   8.993   0.295 -0.4091  0.1388  0.5539
  554MOL0     C76382  10.829   8.878   0.323 -0.9162  0.1855  0.4943
  554MOL0     H76383  11.167   9.200   0.479 -3.1019  0.1251 -1.8313
  554MOL0     H76384  11.419   9.215   0.473 -1.4330 -0.3575  2.5137
  554MOL0     H76385  11.728   9.209   0.227  0.1696 -0.2127  0.0913
  554MOL0     H76386  11.600   9.189   0.101 -0.0286  1.6821  1.7372
  554MOL0     H76387  11.664   8.965   0.043 -0.1781 -0.7582  1.1215
  554MOL0     H76388  11.804   9.063   0.033 -1.2034  0.8890 -0.2881
  554MOL0     H76389  11.760   8.912   0.292 -0.0364  1.3281  0.9541
  554MOL0     H76390  11.838   8.832   0.149 -1.1671  0.3118 -0.9727
  554MOL0     H76391  11.935   9.104   0.223 -2.0533 -0.1583  1.1874
  554MOL0     H76392  11.973   8.988   0.342  1.5675 -0.7416  0.0553
  554MOL0     H76393  12.080   8.832   0.179 -0.1741 -0.2315 -1.3257
  554MOL0     H76394  12.160   8.992   0.184 -1.8390  2.3647 -1.4993
  554MOL0     H76395  11.957   8.902  -0.034  0.3920 -2.2688  1.0051
  554MOL0     H76396  12.057   9.046  -0.034 -0.9445  0.3872  0.1552
  554MOL0     H76397  12.258   8.920  -0.034  1.0160 -0.7668 -0.7678
  554MOL0     H76398  12.162   8.900  -0.176 -0.4219  2.1303  0.6624
  554MOL0     H76399  12.104   8.670   0.009 -2.2701 -0.4203 -1.9858
  554MOL0     H76400  12.136   8.689  -0.163 -0.1356  4.2456 -0.7530
  554MOL0     H76401  12.430   8.764  -0.209  0.5902  1.4323  0.4507
  554MOL0     H76402  12.603   8.519  -0.245 -2.1563  2.1242 -0.4579
  554MOL0     H76403  12.697   8.509  -0.094 -2.0155 -1.2059  0.8693
  554MOL0     H76404  12.638   8.751  -0.261 -1.5003 -2.5233  0.4935
  554MOL0     H76405  12.689   8.755  -0.086  0.8397 -0.4361  0.3182
  554MOL0     H76406  12.824   8.610  -0.313 -2.1643  1.6664 -0.6720
  554MOL0     H76407  12.877   8.778  -0.264  0.9695 -1.1172 -2.7103
  554MOL0     H76408  12.968   8.683  -0.049  0.7704 -1.4675  1.9523
  554MOL0     H76409  12.924   8.521  -0.103 -0.2624 -0.8679 -1.1184
  554MOL0     H76410  13.124   8.602   0.059 -1.1102 -0.5337 -0.0354
  554MOL0     H76411  13.213   8.579   0.243 -0.4348  0.1350 -0.0642
  554MOL0     H76412  13.386   8.631   0.251 -0.0813 -1.3384  1.7495
  554MOL0     H76413  13.328   8.454   0.254  2.3989 -0.6927 -2.7876
  554MOL0     H76414  13.727   8.272   0.128  0.0156 -1.0786  0.0243
  554MOL0     H76415  13.952   8.191   0.200  0.4978 -1.3613 -1.1848
  554MOL0     H76416  14.125   8.183   0.332 -0.6252 -3.3557  1.3118
  554MOL0     H76417  14.154   8.110   0.162  0.0686  2.3588 -1.8852
  554MOL0     H76418  14.367   8.241   0.338  3.0788 -0.9279 -0.9335
  554MOL0     H76419  14.350   8.066   0.320 -3.1917 -1.8812 -2.0379
  554MOL0     H76420  14.453   8.277   0.119  0.7344 -0.0145 -1.1936
  554MOL0     H76421  14.386   8.120   0.066 -1.9433 -2.0167  2.1595
  554MOL0     H76422  14.536   8.017   0.250  1.4870  0.7830  3.3544
  554MOL0     H76423  14.607   8.172   0.273 -1.6852  0.1971  0.1088
  554MOL0     H76424  14.592   8.059  -0.017  3.8550 -1.9952 -1.4133
  554MOL0     H76425  14.670   8.205   0.039 -5.6243  0.9351 -1.8809
  554MOL0     H76426  14.817   8.072   0.171 -0.1038 -0.7271  0.6337
  554MOL0     H76427  14.832   8.033  -0.000 -1.1928 -2.2696 -0.5795
  554MOL0     H76428  14.681   7.857   0.212 -0.5378 -0.4309 -0.8716
  554MOL0     H76429  14.837   7.820   0.148  0.5468  0.0508 -1.1330
  554MOL0     H76430  14.744   7.807  -0.077  1.5010  1.0948  0.4039
  554MOL0     H76431  14.586   7.829   0.001  1.2157  2.3656  1.7929
  554MOL0     H76432  14.138   8.508  -0.005  1.1571 -1.7844  1.1456
  554MOL0     H76433  13.904   8.589  -0.080  1.6489 -0.4007 -0.0103
  554MOL0     H76434  13.517   8.534  -0.227  0.1919  2.0230  0.4960
  554MOL0     H76435  13.287   8.550  -0.326 -1.3976 -3.8452  0.3577
  554MOL0     H76436  11.422   8.993   0.105 -0.5221 -0.1585 -0.6040
  554MOL0     H76437  11.175   9.005   0.106 -0.8698  5.0137 -2.5330
  554MOL0     H76438  10.734   9.308   0.164 -1.2175 -1.0952 -1.2479
  554MOL0     H76439  10.484   9.275   0.208 -0.1191  0.7291  1.3134
  554MOL0     H76440  10.278   9.145   0.398 -0.8226 -1.0923  0.3987
  554MOL0     H76441  10.265   9.198   0.225 -1.4709 -0.5608 -0.3011
  554MOL0     H76442  10.143   8.949   0.335 -0.6117  1.8567  2.0935
  554MOL0     H76443  10.144   9.022   0.164  1.2699  2.4659 -0.7041
  554MOL0     H76444  10.017   9.141   0.411  2.2860  0.8590  0.0986
  554MOL0     H76445  10.053   9.229   0.261  2.1957 -0.5320  0.4845
  554MOL0     H76446   9.933   9.016   0.149 -1.5569  2.6936 -1.4888
  554MOL0     H76447   9.841   9.149   0.228 -0.0158  0.5649 -0.2755
  554MOL0     H76448   9.786   8.816   0.490  1.2453 -1.1161 -0.6699
  554MOL0     H76449  10.573   8.869   0.334  0.9199  1.1265  1.1499
  554MOL0     H76450  10.867   8.871   0.425  2.8851  0.5672 -0.7210
  554MOL0     H76451  10.776   8.787   0.297  2.1845 -1.0276 -2.3539
  554MOL0     H76452  10.916   8.878   0.256  0.2729  1.4757  1.9480
  555MOL0     O76453   9.428   7.127   6.342 -0.1071  0.1745 -0.6247
  555MOL0     C76454   9.346   7.072   6.418 -0.6616  0.1034 -0.4810
  555MOL0     O76455   9.356   6.944   6.467 -0.1378  0.2978 -0.2611
  555MOL0     C76456   9.474   6.877   6.443  0.8100  1.2517 -0.1874
  555MOL0     C76457   9.594   6.909   6.503 -0.3049 -0.2375 -0.0921
  555MOL0     C76458   9.709   6.837   6.476 -0.4005 -1.6089 -1.5298
  555MOL0     C76459   9.705   6.727   6.399  0.3157 -0.8767 -0.0128
  555MOL0     O76460   9.820   6.648   6.400 -0.9188  0.5203  0.0573
  555MOL0     C76461   9.938   6.712   6.352  0.1221 -0.0686 -0.3258
  555MOL0     C76462  10.000   6.652   6.222  0.6214  0.1351 -0.3352
  555MOL0     C76463  10.045   6.509   6.243  0.4454  0.8484 -0.6781
  555MOL0     C76464  10.115   6.437   6.130  0.0612 -0.0709  0.1004
  555MOL0     C76465  10.254   6.490   6.124 -0.0163  0.7837 -0.3941
  555MOL0     C76466  10.345   6.408   6.028  0.2132 -0.3920  0.3601
  555MOL0     C76467  10.491   6.437   6.053 -0.7320  0.7253  0.2530
  555MOL0     C76468  10.577   6.336   5.977 -0.1110 -0.2821  0.9699
  555MOL0     N76469  10.720   6.327   6.008  0.6827  0.0254 -0.0506
  555MOL0     C76470  10.803   6.220   5.997  0.4435 -0.5381 -0.1355
  555MOL0     C76471  10.907   6.255   6.075  0.1239 -0.2815  0.1358
  555MOL0     C76472  11.018   6.166   6.102  0.6360  0.2138  1.2885
  555MOL0     C76473  11.133   6.201   6.015  0.1784  0.4063 -0.3652
  555MOL0     C76474  11.236   6.089   6.006  0.6453  0.3015  0.3436
  555MOL0     C76475  11.379   6.147   5.987  0.9023 -0.1323  0.9307
  555MOL0     O76476  11.427   6.214   6.109  0.0723 -0.4068  0.8037
  555MOL0     C76477  11.551   6.265   6.110 -1.2540 -0.4624  0.0821
  555MOL0     C76478  11.600   6.316   6.228 -1.5256  0.0724  0.0550
  555MOL0     C76479  11.726   6.381   6.236  0.5447  0.5322  0.2682
  555MOL0     C76480  11.750   6.453   6.364 -0.5510  0.0218  0.5875
  555MOL0     C76481  11.805   6.394   6.114 -0.1408  0.1491 -0.6739
  555MOL0     C76482  11.938   6.469   6.114  0.1372 -1.3994  0.1427
  555MOL0     O76483  12.036   6.460   6.204 -0.4691  0.0681  0.0662
  555MOL0     C76484  12.157   6.522   6.178 -0.1167 -0.8570  0.9847
  555MOL0     C76485  12.198   6.636   6.245  0.3308 -0.2764 -0.7850
  555MOL0     C76486  12.317   6.702   6.228 -0.0946 -0.0655 -1.0567
  555MOL0     C76487  12.407   6.646   6.137 -0.1840 -0.0331 -0.2766
  555MOL0     O76488  12.514   6.726   6.096  0.5808 -0.0658 -0.7466
  555MOL0     C76489  12.632   6.695   6.176 -0.2442  0.3885 -0.4416
  555MOL0     C76490  12.754   6.667   6.092  0.1336 -0.7662  0.4441
  555MOL0     C76491  12.806   6.785   6.008  0.0635 -0.6028 -0.2447
  555MOL0     C76492  12.961   6.811   6.014 -0.5229  0.1373  0.0992
  555MOL0     C76493  13.005   6.930   5.926  0.2412  1.2678 -0.0206
  555MOL0     C76494  13.145   6.974   5.969 -0.1590 -0.3937  0.8888
  555MOL0     C76495  13.188   7.098   5.898 -0.6814  0.0633 -0.4506
  555MOL0     C76496  13.340   7.107   5.872  0.3473 -0.2101  0.2849
  555MOL0    Cl76497  13.430   7.137   6.018  0.0117  0.2826 -0.1837
  555MOL0     C76498  12.376   6.531   6.059  0.2836 -0.8913 -0.0561
  555MOL0     C76499  12.251   6.464   6.082 -0.8193  0.4963 -0.0865
  555MOL0     O76500  11.945   6.535   6.015 -0.5683  0.3494 -0.1327
  555MOL0     C76501  11.766   6.327   6.000  0.4485  0.8167  0.1532
  555MOL0     C76502  11.640   6.264   5.996 -0.2192 -0.0850 -0.1841
  555MOL0     N76503  10.901   6.385   6.118  0.1049  0.0359  0.2344
  555MOL0     N76504  10.787   6.425   6.075 -0.0428 -0.8876  0.1413
  555MOL0     C76505   9.584   6.698   6.333  0.6837  0.2758 -0.1592
  555MOL0     C76506   9.467   6.772   6.353  0.3706  0.0149 -0.4656
  555MOL0     C76507   9.244   7.176   6.461 -0.4975 -0.1489  0.6472
  555MOL0     C76508   9.216   7.279   6.379  0.4345 -0.8607 -0.0864
  555MOL0     C76509   9.127   7.375   6.410  0.8864  0.0336  0.1820
  555MOL0     C76510   9.045   7.359   6.513 -0.3754  0.1923  0.4330
  555MOL0     O76511   8.959   7.465   6.544  0.3845 -0.0534  0.3401
  555MOL0     C76512   8.857   7.450   6.642 -0.3789 -0.2055 -0.5523
  555MOL0     C76513   8.747   7.357   6.590 -0.6622 -0.0277 -0.4888
  555MOL0     C76514   8.683   7.435   6.473 -0.0961 -0.1743 -0.2375
  555MOL0     C76515   8.551   7.364   6.427 -0.8837 -0.4252  0.1686
  555MOL0     C76516   8.455   7.340   6.540 -0.0207  0.2003 -0.4196
  555MOL0     C76517   8.368   7.345   6.622  0.2653  0.3988  0.1063
  555MOL0     C76518   9.060   7.249   6.596  0.0441 -0.2466 -0.0833
  555MOL0     C76519   9.169   7.157   6.575  0.5423 -0.2746  1.1122
  555MOL0     C76520   9.188   7.041   6.676  0.1595 -1.3058 -0.2649
  555MOL0     H76521   9.592   7.000   6.561  1.5107  0.1440 -0.5731
  555MOL0     H76522   9.796   6.877   6.527 -0.8400 -0.2170 -1.8340
  555MOL0     H76523  10.001   6.709   6.442  0.7256 -0.0732 -0.7390
  555MOL0     H76524   9.916   6.817   6.332  0.5206  0.2084  0.6251
  555MOL0     H76525   9.929   6.659   6.140 -0.6416 -1.5579  0.5526
  555MOL0     H76526  10.087   6.717   6.205  0.7652 -0.0714 -0.3873
  555MOL0     H76527  10.108   6.504   6.333  2.1781  1.0974 -1.8326
  555MOL0     H76528   9.963   6.441   6.268  1.8585 -0.0703  1.7284
  555MOL0     H76529  10.117   6.328   6.142 -2.0760 -0.2810 -0.9010
  555MOL0     H76530  10.056   6.454   6.039 -0.0096 -3.6221 -0.6670
  555MOL0     H76531  10.295   6.486   6.225  0.5243 -0.0343 -0.6267
  555MOL0     H76532  10.246   6.593   6.089 -1.6634  0.6154 -0.5734
  555MOL0     H76533  10.315   6.304   6.043  0.9521 -0.6513  0.0697
  555MOL0     H76534  10.315   6.426   5.925  0.0384 -1.2209  0.2560
  555MOL0     H76535  10.526   6.438   6.157  0.5679  1.8286 -0.1705
  555MOL0     H76536  10.519   6.535   6.015  0.7394 -0.0970 -0.8721
  555MOL0     H76537  10.537   6.234   5.984  2.5793 -1.7176 -1.9333
  555MOL0     H76538  10.577   6.364   5.871  0.7656  2.7601  1.6823
  555MOL0     H76539  10.793   6.127   5.942 -0.2080 -1.5166  1.5498
  555MOL0     H76540  10.982   6.064   6.085 -2.2341  1.3536 -0.0845
  555MOL0     H76541  11.040   6.174   6.209 -0.8643 -1.2863  1.7427
  555MOL0     H76542  11.082   6.205   5.918 -0.7069  0.1671  0.0760
  555MOL0     H76543  11.175   6.301   6.031  3.3673 -1.0816  1.5154
  555MOL0     H76544  11.238   6.039   6.103  2.4375  1.8110  1.1589
  555MOL0     H76545  11.214   6.032   5.916  3.5487  0.8578 -0.8294
  555MOL0     H76546  11.440   6.059   5.967 -0.3899 -0.7061 -0.7343
  555MOL0     H76547  11.370   6.211   5.899  0.6633 -0.4921  0.6920
  555MOL0     H76548  11.531   6.312   6.312 -1.9053 -2.0848 -0.3148
  555MOL0     H76549  11.776   6.376   6.438 -0.7103 -1.2273 -0.6124
  555MOL0     H76550  11.658   6.502   6.397  0.4634  1.0827  1.9756
  555MOL0     H76551  11.828   6.527   6.346 -0.4807  0.2175  1.5974
  555MOL0     H76552  12.136   6.684   6.320  3.1616 -0.2238  1.7311
  555MOL0     H76553  12.330   6.800   6.273 -1.5231  0.6847 -2.1818
  555MOL0     H76554  12.645   6.774   6.250 -0.8880 -2.3197  2.8201
  555MOL0     H76555  12.612   6.605   6.235 -0.7810  2.0440  2.0294
  555MOL0     H76556  12.844   6.634   6.145  0.5177 -2.6131 -1.2231
  555MOL0     H76557  12.722   6.581   6.032 -0.3035  0.5192 -1.2345
  555MOL0     H76558  12.756   6.873   6.050  1.5142  0.3372 -0.3933
  555MOL0     H76559  12.775   6.767   5.904 -0.1010 -1.3840 -0.0650
  555MOL0     H76560  13.015   6.721   5.985  0.4034  0.5250  0.5643
  555MOL0     H76561  12.997   6.822   6.117  2.3252  0.6383 -0.8720
  555MOL0     H76562  13.002   6.908   5.819  3.9585 -1.4866  0.2539
  555MOL0     H76563  12.935   7.010   5.950  0.3706  0.8723  1.8570
  555MOL0     H76564  13.218   6.900   5.936  0.1714  0.0096  0.7046
  555MOL0     H76565  13.155   6.995   6.076  1.1441  2.4886  0.2907
  555MOL0     H76566  13.156   7.182   5.960  0.1558 -0.9453  1.4279
  555MOL0     H76567  13.144   7.094   5.798  0.2062  0.5322 -0.8772
  555MOL0     H76568  13.362   7.189   5.802  2.5346  0.8877  2.1395
  555MOL0     H76569  13.374   7.018   5.818  0.6014 -0.2695  0.5437
  555MOL0     H76570  12.440   6.505   5.975 -0.3918  0.6139 -1.0790
  555MOL0     H76571  12.223   6.370   6.036  1.6235 -1.1987  1.5734
  555MOL0     H76572  11.832   6.311   5.916  1.8932 -3.4981  1.7973
  555MOL0     H76573  11.610   6.226   5.899  0.8426  2.1437 -1.4423
  555MOL0     H76574   9.563   6.614   6.267 -1.0226 -0.8813  1.7047
  555MOL0     H76575   9.373   6.741   6.307  1.0181 -2.5116 -0.2086
  555MOL0     H76576   9.263   7.288   6.282 -0.3459 -3.4536 -0.7963
  555MOL0     H76577   9.126   7.455   6.338 -0.4410 -2.0147 -2.2470
  555MOL0     H76578   8.898   7.420   6.739  2.9252  2.2087 -1.0085
  555MOL0     H76579   8.829   7.556   6.644 -1.0879 -0.2898  4.1024
  555MOL0     H76580   8.679   7.339   6.674  3.1830 -2.8684  2.3722
  555MOL0     H76581   8.787   7.260   6.559 -0.6601 -0.0749 -0.3380
  555MOL0     H76582   8.659   7.537   6.504  2.2790  0.6164 -0.8060
  555MOL0     H76583   8.758   7.440   6.394  3.0504 -2.5150  2.2943
  555MOL0     H76584   8.559   7.265   6.380  2.4354  1.3634 -3.6301
  555MOL0     H76585   8.498   7.430   6.358  0.4291 -0.0988 -0.5704
  555MOL0     H76586   8.298   7.349   6.704 -3.1283 -2.1203 -2.3442
  555MOL0     H76587   9.008   7.232   6.690 -0.9903 -1.6434 -0.8681
  555MOL0     H76588   9.130   6.951   6.653 -0.9457 -0.1682 -2.3139
  555MOL0     H76589   9.295   7.025   6.691  0.7501  2.9606  1.7614
  555MOL0     H76590   9.148   7.085   6.768  2.0206  0.9205 -0.4309
  556MOL0     O76591   0.839  11.126   6.510  0.7187  0.4546 -0.3517
  556MOL0     C76592   0.859  11.006   6.503 -0.2142 -0.0867 -0.6859
  556MOL0     O76593   0.978  10.944   6.521  0.4930  0.3124 -0.5504
  556MOL0     C76594   1.089  11.018   6.522  0.4565 -0.7522 -0.3235
  556MOL0     C76595   1.155  11.058   6.406 -0.3516 -0.3422 -1.3438
  556MOL0     C76596   1.266  11.136   6.418  0.5711 -0.1897 -0.3313
  556MOL0     C76597   1.322  11.167   6.540 -0.1355  0.8059 -1.1571
  556MOL0     O76598   1.436  11.233   6.566  0.2036  0.0787 -0.6159
  556MOL0     C76599   1.537  11.246   6.466  0.2541 -0.2802 -0.0206
  556MOL0     C76600   1.680  11.248   6.524  0.5397 -0.7236  0.7599
  556MOL0     C76601   1.727  11.114   6.576  1.3166 -0.1381 -0.7547
  556MOL0     C76602   1.883  11.112   6.612  0.3820  0.0668  0.4382
  556MOL0     C76603   1.918  10.980   6.688  0.8103 -0.5706  0.4641
  556MOL0     C76604   2.047  10.966   6.772  0.2716 -0.0213 -0.0824
  556MOL0     C76605   2.067  10.827   6.835  0.3143  0.1216  0.6407
  556MOL0     C76606   1.963  10.775   6.934 -0.2123 -0.0824  0.0897
  556MOL0     N76607   1.980  10.840   7.066  0.3881 -0.2389  0.1278
  556MOL0     C76608   1.920  10.951   7.103  0.8103  0.1163 -0.2185
  556MOL0     C76609   1.961  10.972   7.228  0.6976 -1.0859  0.3107
  556MOL0     C76610   1.914  11.085   7.307  0.3753 -0.2749 -0.2110
  556MOL0     C76611   2.013  11.200   7.289 -0.5163 -0.3420  0.5152
  556MOL0     C76612   1.978  11.281   7.159 -0.1177  1.2881  0.4373
  556MOL0     C76613   2.013  11.432   7.174 -0.8724  0.0666  0.3795
  556MOL0     O76614   2.156  11.437   7.185 -0.1977 -0.2981  0.3466
  556MOL0     C76615   2.220  11.561   7.185  0.3484  0.0201  0.2069
  556MOL0     C76616   2.356  11.558   7.173  0.0378 -0.3530 -0.0147
  556MOL0     C76617   2.436  11.672   7.190 -0.1875  0.1638 -0.1346
  556MOL0     C76618   2.590  11.654   7.176 -0.0858  0.9773  0.8803
  556MOL0     C76619   2.378  11.794   7.229  0.0005 -0.2168 -0.5474
  556MOL0     C76620   2.448  11.919   7.257  0.2304 -0.5019 -0.8580
  556MOL0     O76621   2.564  11.948   7.198  1.2285  0.0512  0.5797
  556MOL0     C76622   2.645  12.056   7.239  0.7568 -0.1848  0.5088
  556MOL0     C76623   2.779  12.042   7.211 -0.3947  0.3436 -0.2746
  556MOL0     C76624   2.876  12.124   7.269  0.2197 -0.6426  0.6416
  556MOL0     C76625   2.843  12.236   7.334  0.2729  0.5631  0.2124
  556MOL0     O76626   2.940  12.315   7.388  0.4611 -0.6169 -0.0476
  556MOL0     C76627   2.932  12.387   7.508  0.4264  0.6241 -0.9712
  556MOL0     C76628   3.047  12.479   7.525 -0.3414 -0.2035 -0.1791
  556MOL0     C76629   3.178  12.411   7.539  0.4975 -0.1283 -0.4718
  556MOL0     C76630   3.293  12.503   7.531  0.4861 -0.3012 -0.4424
  556MOL0     C76631   3.425  12.435   7.552  0.3267 -0.0761  0.7472
  556MOL0     C76632   3.542  12.534   7.532 -0.5885  0.4386  0.2286
  556MOL0     C76633   3.566  12.580   7.392  0.2816 -0.3227 -0.1784
  556MOL0     C76634   3.669  12.693   7.387  0.9670  0.0526 -0.0860
  556MOL0    Cl76635   3.671  12.792   7.235  0.0386  0.1362 -0.6176
  556MOL0     C76636   2.704  12.269   7.343 -0.5826 -0.7536 -0.4309
  556MOL0     C76637   2.612  12.176   7.299  0.0841  0.3950 -0.0616
  556MOL0     O76638   2.411  11.979   7.355  0.7988 -0.0280 -0.4854
  556MOL0     C76639   2.233  11.790   7.241 -0.7867  0.0460  0.7681
  556MOL0     C76640   2.156  11.673   7.228 -0.5308  0.5131  0.1413
  556MOL0     N76641   2.075  10.895   7.255  0.3315  0.3324  0.4896
  556MOL0     N76642   2.076  10.809   7.160 -0.3311  0.7800  0.2344
  556MOL0     C76643   1.248  11.142   6.663  0.0797 -0.1496  0.4596
  556MOL0     C76644   1.134  11.067   6.645  0.2299  0.3179 -0.2886
  556MOL0     C76645   0.749  10.906   6.457  0.1132 -0.3950 -0.6131
  556MOL0     C76646   0.780  10.774   6.429 -0.1440  0.3064 -0.4748
  556MOL0     C76647   0.686  10.685   6.392  0.4818  0.3743  0.4830
  556MOL0     C76648   0.553  10.720   6.368  0.0293 -0.6086 -1.3188
  556MOL0     O76649   0.477  10.626   6.312 -0.8927 -0.2717 -0.0064
  556MOL0     C76650   0.341  10.658   6.291 -0.1802  0.2465 -0.7634
  556MOL0     C76651   0.238  10.563   6.239  0.1942 -0.4164  0.4493
  556MOL0     C76652   0.092  10.607   6.215 -0.3359 -0.3678  0.0485
  556MOL0     C76653   0.018  10.669   6.335 -0.2140 -0.2988 -0.1013
  556MOL0     C76654  -0.124  10.707   6.305  0.1925  0.4770  1.0569
  556MOL0     C76655  -0.244  10.720   6.269 -0.5462  0.1933 -0.5038
  556MOL0     C76656   0.517  10.857   6.382  0.2292 -0.1984  0.7158
  556MOL0     C76657   0.614  10.944   6.442 -0.3695  0.6099  0.7063
  556MOL0     C76658   0.547  11.086   6.474 -0.8842  1.2693 -0.0329
  556MOL0     H76659   1.118  11.037   6.306 -1.1510  0.1161 -1.1551
  556MOL0     H76660   1.323  11.167   6.331 -1.0487 -2.8736 -2.5034
  556MOL0     H76661   1.514  11.343   6.421  2.6770  0.0408 -0.7321
  556MOL0     H76662   1.531  11.172   6.385  1.2694 -1.2838  0.7940
  556MOL0     H76663   1.744  11.287   6.444 -2.1388  0.5861 -0.8963
  556MOL0     H76664   1.683  11.326   6.601 -2.9666  1.2201 -0.8259
  556MOL0     H76665   1.662  11.094   6.661  0.8117  4.2504  0.1229
  556MOL0     H76666   1.702  11.034   6.506  1.7772 -0.0504 -1.0233
  556MOL0     H76667   1.938  11.120   6.518  3.0466 -1.8283  1.6829
  556MOL0     H76668   1.906  11.203   6.669 -1.4493  0.7583  0.1116
  556MOL0     H76669   1.915  10.900   6.613 -1.2638  0.4219 -0.6189
  556MOL0     H76670   1.836  10.947   6.753  2.1173 -2.4995  1.2166
  556MOL0     H76671   2.125  10.983   6.697  0.7303 -1.3595  0.0587
  556MOL0     H76672   2.055  11.045   6.847 -2.1569 -2.7463  3.3954
  556MOL0     H76673   2.162  10.830   6.890  0.1158 -1.1461  1.0988
  556MOL0     H76674   2.079  10.752   6.756  0.1395  0.0170  0.7133
  556MOL0     H76675   1.859  10.778   6.903 -0.8274  0.9482  2.0760
  556MOL0     H76676   1.988  10.670   6.952  0.3445  0.3066  1.8497
  556MOL0     H76677   1.844  11.002   7.044  1.5695 -1.0136 -2.2842
  556MOL0     H76678   1.907  11.059   7.413 -3.8790  2.9534  0.5943
  556MOL0     H76679   1.812  11.113   7.278 -0.3756 -0.6985  1.7819
  556MOL0     H76680   2.002  11.264   7.377 -1.3235  0.4883 -0.1754
  556MOL0     H76681   2.118  11.170   7.302 -0.8736 -0.6135  3.4041
  556MOL0     H76682   2.003  11.240   7.061  0.2359  2.9751 -0.1989
  556MOL0     H76683   1.872  11.281   7.133 -0.6690  1.0754  2.5282
  556MOL0     H76684   1.993  11.481   7.078  1.6751 -2.4293 -1.5906
  556MOL0     H76685   1.963  11.470   7.264  0.5873 -2.5910  2.4487
  556MOL0     H76686   2.412  11.471   7.142  1.8929  1.7748 -3.1625
  556MOL0     H76687   2.612  11.547   7.185 -2.4990  0.0122 -2.4229
  556MOL0     H76688   2.649  11.707   7.251  4.1151  0.8148 -1.9624
  556MOL0     H76689   2.618  11.680   7.073  2.1270  0.6997  1.3554
  556MOL0     H76690   2.811  11.954   7.157  1.9467  0.6307  0.5252
  556MOL0     H76691   2.982  12.101   7.257 -0.4634 -3.1011 -1.8400
  556MOL0     H76692   2.837  12.439   7.523  0.1436 -0.5530  2.1591
  556MOL0     H76693   2.932  12.314   7.590  3.1195  0.5577 -0.9386
  556MOL0     H76694   3.051  12.544   7.437  2.5532 -2.9482 -2.2747
  556MOL0     H76695   3.031  12.535   7.618 -0.2259  0.3868 -0.5108
  556MOL0     H76696   3.199  12.334   7.464  5.5669 -0.6840  1.1469
  556MOL0     H76697   3.187  12.352   7.630  2.9633  0.4027 -0.3246
  556MOL0     H76698   3.292  12.574   7.615  0.2982  0.1197 -0.7964
  556MOL0     H76699   3.293  12.555   7.435  0.2666  0.2804 -0.1362
  556MOL0     H76700   3.429  12.380   7.647 -4.2723 -0.5694  0.8841
  556MOL0     H76701   3.435  12.356   7.477 -0.6044 -0.0674  0.6092
  556MOL0     H76702   3.624  12.471   7.568 -0.7864  0.8759  1.5146
  556MOL0     H76703   3.539  12.616   7.604  3.0277 -1.5468  3.0157
  556MOL0     H76704   3.469  12.614   7.355 -0.4503 -1.7375  0.3517
  556MOL0     H76705   3.597  12.497   7.327  0.3384  0.7308 -1.5334
  556MOL0     H76706   3.767  12.650   7.410  0.9810  0.4991  0.7239
  556MOL0     H76707   3.639  12.772   7.456 -0.2867 -1.7515  1.5521
  556MOL0     H76708   2.669  12.364   7.383  1.7661  0.7709 -1.7304
  556MOL0     H76709   2.506  12.194   7.313 -0.0690 -0.9000  0.6135
  556MOL0     H76710   2.179  11.881   7.267  0.0839  0.8200 -0.0819
  556MOL0     H76711   2.054  11.698   7.255  0.1122  0.6593  2.7858
  556MOL0     H76712   1.287  11.171   6.760 -1.2993 -0.2300  1.0628
  556MOL0     H76713   1.099  11.025   6.739  1.3024 -1.8909 -0.8253
  556MOL0     H76714   0.881  10.738   6.445  0.1271  1.0214 -0.5444
  556MOL0     H76715   0.702  10.580   6.369 -0.3018  0.4625 -0.5231
  556MOL0     H76716   0.294  10.686   6.386 -2.2393  1.0341 -1.9333
  556MOL0     H76717   0.329  10.744   6.224 -0.1899 -0.3070 -1.4900
  556MOL0     H76718   0.236  10.477   6.307 -0.7507 -1.3313 -0.6841
  556MOL0     H76719   0.273  10.530   6.141  1.2264  1.6070  0.0936
  556MOL0     H76720   0.087  10.668   6.125 -4.0465  0.9595  1.0027
  556MOL0     H76721   0.034  10.519   6.184 -0.2149 -0.6545  0.6133
  556MOL0     H76722   0.070  10.760   6.364  3.1659 -2.3534  0.7769
  556MOL0     H76723   0.023  10.605   6.424  0.7195  0.8805  0.7247
  556MOL0     H76724  -0.348  10.732   6.248 -1.2335  3.3821  3.5374
  556MOL0     H76725   0.423  10.901   6.350  0.5374  0.7505  1.0751
  556MOL0     H76726   0.562  11.118   6.578  1.6998  3.6198 -1.0011
  556MOL0     H76727   0.597  11.154   6.404 -0.0103  1.9723  1.2282
  556MOL0     H76728   0.439  11.095   6.460 -1.2350 -1.8253 -0.0100
  557MOL0     O76729   3.802   7.578  10.089 -0.3681  0.0116  0.6493
  557MOL0     C76730   3.697   7.530  10.142 -0.3147 -0.1121 -0.2447
  557MOL0     O76731   3.696   7.414  10.221 -0.1638 -0.5581 -0.0092
  557MOL0     C76732   3.782   7.317  10.190  0.0610  0.3660  0.1475
  557MOL0     C76733   3.731   7.199  10.128 -0.5204  0.5379  0.2043
  557MOL0     C76734   3.813   7.084  10.114  0.1490  0.5573  0.7206
  557MOL0     C76735   3.948   7.089  10.148  0.1734  0.3349  0.3495
  557MOL0     O76736   4.026   6.971  10.131 -0.0081 -0.3202 -0.0729
  557MOL0     C76737   4.162   6.984  10.103  0.0467  0.1851  0.1403
  557MOL0     C76738   4.204   6.842  10.057  0.5183  0.3306 -0.6047
  557MOL0     C76739   4.352   6.828  10.041 -0.3890 -0.4238 -0.1519
  557MOL0     C76740   4.420   6.793  10.174  0.2310  0.4222  0.1306
  557MOL0     C76741   4.570   6.774  10.150 -0.0901  0.7643 -0.2190
  557MOL0     C76742   4.622   6.732  10.286  0.2217  0.6223 -0.7954
  557MOL0     C76743   4.762   6.674  10.278  0.0338 -0.0113 -0.4810
  557MOL0     C76744   4.813   6.628  10.415 -0.2580  0.2592 -0.1092
  557MOL0     N76745   4.962   6.638  10.405  0.2898  0.1675  0.0077
  557MOL0     C76746   5.037   6.570  10.309  0.0078 -0.0670 -0.1450
  557MOL0     C76747   5.144   6.650  10.301  0.3165 -0.2488  0.3472
  557MOL0     C76748   5.265   6.624  10.207 -0.1487  0.6410 -0.1431
  557MOL0     C76749   5.277   6.732  10.095 -0.0101 -0.3694 -0.1077
  557MOL0     C76750   5.328   6.670   9.963 -0.0315 -0.0415  1.2559
  557MOL0     C76751   5.477   6.643   9.971  0.5109  0.0384  0.6656
  557MOL0     O76752   5.531   6.620   9.846 -0.0745 -0.3970  1.1312
  557MOL0     C76753   5.669   6.607   9.810 -0.0121  0.0699 -0.2819
  557MOL0     C76754   5.769   6.640   9.901 -0.7938 -0.6690 -0.6386
  557MOL0     C76755   5.900   6.643   9.859  0.2050  0.0743 -0.5451
  557MOL0     C76756   6.009   6.684   9.960  0.6159  0.3184 -0.8864
  557MOL0     C76757   5.942   6.619   9.723  0.1864 -0.8001 -0.2970
  557MOL0     C76758   6.081   6.643   9.672 -0.4854  0.2255 -0.5030
  557MOL0     O76759   6.106   6.566   9.558  0.0424  0.2567 -0.4923
  557MOL0     C76760   6.236   6.564   9.512  0.3746 -0.0216 -0.1468
  557MOL0     C76761   6.340   6.514   9.589  0.0134  0.1961 -0.3136
  557MOL0     C76762   6.468   6.514   9.539  0.9269  0.0840 -0.5785
  557MOL0     C76763   6.493   6.552   9.403 -0.8857  0.0438 -0.6051
  557MOL0     O76764   6.621   6.532   9.362  0.1034 -0.2384 -0.7968
  557MOL0     C76765   6.663   6.586   9.245 -0.3673  0.0986 -0.4079
  557MOL0     C76766   6.809   6.589   9.256  0.1608 -0.1643  0.2588
  557MOL0     C76767   6.873   6.637   9.391 -0.4712 -0.0136  0.5997
  557MOL0     C76768   7.005   6.706   9.371 -0.0275 -0.3214  0.1309
  557MOL0     C76769   7.095   6.728   9.494  0.4073 -0.0785  0.4541
  557MOL0     C76770   7.218   6.820   9.452  0.0311  0.6148 -0.5797
  557MOL0     C76771   7.174   6.968   9.443 -0.3258 -0.1192 -0.9597
  557MOL0     C76772   7.187   7.013   9.300 -0.5857 -0.1798  0.2393
  557MOL0    Cl76773   7.159   7.190   9.290  0.3779  0.1695  0.1034
  557MOL0     C76774   6.391   6.616   9.333  0.7928 -0.1917  0.0584
  557MOL0     C76775   6.265   6.611   9.384 -0.8534  0.1146  0.4478
  557MOL0     O76776   6.163   6.722   9.721 -0.2982  0.3962 -0.0501
  557MOL0     C76777   5.839   6.573   9.632  0.3120  0.4094 -0.1970
  557MOL0     C76778   5.705   6.572   9.676 -0.1658 -0.9074 -0.4088
  557MOL0     N76779   5.144   6.754  10.384  0.8947  0.4690  0.3683
  557MOL0     N76780   5.029   6.753  10.439  1.0044 -0.7160  0.4854
  557MOL0     C76781   4.001   7.211  10.205 -0.1529  0.5425 -0.4956
  557MOL0     C76782   3.917   7.319  10.236  0.1624  0.1899 -0.2573
  557MOL0     C76783   3.566   7.603  10.148  0.3073  0.3843 -0.1243
  557MOL0     C76784   3.450   7.526  10.160 -0.1275  0.3126  1.3602
  557MOL0     C76785   3.323   7.585  10.146  0.4622  0.2746  0.0924
  557MOL0     C76786   3.303   7.717  10.137 -0.6200 -0.2499  0.1853
  557MOL0     O76787   3.182   7.772  10.153 -0.0440  0.8131  0.2438
  557MOL0     C76788   3.104   7.755  10.272 -0.5264  0.4824  0.3648
  557MOL0     C76789   2.999   7.847  10.282 -0.1394 -0.1741 -0.5673
  557MOL0     C76790   2.883   7.834  10.178  0.1456  0.1934  0.7758
  557MOL0     C76791   2.777   7.737  10.216  0.1191  0.0660 -0.4495
  557MOL0     C76792   2.697   7.692  10.099 -0.5813 -0.0452  0.4956
  557MOL0     C76793   2.635   7.638  10.015 -0.4102  0.3476 -0.0107
  557MOL0     C76794   3.423   7.795  10.143  0.3199 -1.1233 -0.1482
  557MOL0     C76795   3.553   7.746  10.150  0.0210 -0.0416  0.1912
  557MOL0     C76796   3.674   7.833  10.145 -0.0246 -0.4591  0.2968
  557MOL0     H76797   3.628   7.201  10.094  0.5602  1.7607 -3.5172
  557MOL0     H76798   3.763   6.994  10.079 -0.9965  1.6626 -0.6300
  557MOL0     H76799   4.213   6.995  10.200  1.2619 -0.7252 -0.3694
  557MOL0     H76800   4.179   7.064  10.030  0.4358 -0.9771 -1.0639
  557MOL0     H76801   4.165   6.766  10.125 -1.7298 -0.7586 -2.9461
  557MOL0     H76802   4.158   6.820   9.961  2.9310 -1.2630 -1.4957
  557MOL0     H76803   4.365   6.748   9.968 -3.6762  0.5170 -1.9803
  557MOL0     H76804   4.392   6.916   9.989 -0.6914 -0.9721 -1.3542
  557MOL0     H76805   4.421   6.883  10.236  3.4589 -0.3742  1.4235
  557MOL0     H76806   4.380   6.705  10.226  1.4785 -0.7043 -0.7476
  557MOL0     H76807   4.613   6.864  10.106 -2.7124  1.0990 -2.3633
  557MOL0     H76808   4.593   6.693  10.080  1.5951  0.0654  1.0554
  557MOL0     H76809   4.623   6.809  10.363  1.2490 -0.2513  0.1012
  557MOL0     H76810   4.556   6.650  10.317 -2.6105  1.9843 -2.7741
  557MOL0     H76811   4.819   6.755  10.232  1.4301 -0.9199 -0.4000
  557MOL0     H76812   4.769   6.588  10.210 -1.0946  0.0218 -0.6615
  557MOL0     H76813   4.780   6.684  10.502  1.1605  1.4888 -0.3168
  557MOL0     H76814   4.795   6.521  10.432 -1.8582  0.6083  0.5851
  557MOL0     H76815   5.016   6.477  10.258  2.8586 -0.8951  0.0411
  557MOL0     H76816   5.256   6.525  10.162  1.1288  1.0805 -1.4389
  557MOL0     H76817   5.355   6.607  10.267 -0.3630 -2.1032 -0.4444
  557MOL0     H76818   5.174   6.761  10.073  0.5643 -0.9468 -4.2366
  557MOL0     H76819   5.332   6.822  10.125  1.3608 -0.6153 -1.7499
  557MOL0     H76820   5.273   6.576   9.948  2.8432 -1.8954  1.6197
  557MOL0     H76821   5.319   6.742   9.881  0.4603  0.2014  1.4099
  557MOL0     H76822   5.526   6.733  10.011  0.6511  1.2681 -2.0730
  557MOL0     H76823   5.491   6.556  10.035  1.9820 -1.2838 -1.3621
  557MOL0     H76824   5.752   6.668  10.004 -0.6937  0.0426 -0.8097
  557MOL0     H76825   5.992   6.644  10.061 -0.6219 -1.7857 -1.8755
  557MOL0     H76826   6.008   6.793   9.969 -1.1097  0.2250  0.5984
  557MOL0     H76827   6.114   6.658   9.946 -0.1978 -3.5600 -0.8365
  557MOL0     H76828   6.332   6.465   9.685 -0.1969  0.0170 -0.4204
  557MOL0     H76829   6.548   6.470   9.598  1.6518  2.2077  0.1378
  557MOL0     H76830   6.646   6.530   9.153 -1.0250 -0.2852 -0.0606
  557MOL0     H76831   6.611   6.682   9.229 -1.0920 -0.4222 -1.2791
  557MOL0     H76832   6.846   6.488   9.236 -3.6935 -1.6524 -0.2849
  557MOL0     H76833   6.849   6.644   9.171 -2.7566 -1.3569 -2.0550
  557MOL0     H76834   6.905   6.555   9.456  1.5680  1.0519  1.0178
  557MOL0     H76835   6.802   6.699   9.447 -0.8564  0.4751 -0.4206
  557MOL0     H76836   6.983   6.806   9.331  1.0615 -0.1672 -0.0988
  557MOL0     H76837   7.069   6.653   9.299 -1.8410 -2.1473 -0.2487
  557MOL0     H76838   7.034   6.776   9.572 -0.8612  1.2607 -1.2617
  557MOL0     H76839   7.118   6.627   9.528 -0.5040 -0.3299  0.3691
  557MOL0     H76840   7.264   6.799   9.354  0.2238  2.3406 -0.8819
  557MOL0     H76841   7.287   6.802   9.535 -1.4745 -0.4852  0.4943
  557MOL0     H76842   7.238   7.026   9.510 -1.4287 -2.0666  1.9932
  557MOL0     H76843   7.069   6.984   9.471  0.0361  1.3005 -0.2983
  557MOL0     H76844   7.116   6.960   9.235  0.5111 -3.7606  1.7262
  557MOL0     H76845   7.283   6.986   9.256 -1.6347 -0.8960 -1.7521
  557MOL0     H76846   6.396   6.654   9.231 -0.1580  1.3393  0.5517
  557MOL0     H76847   6.190   6.656   9.320 -0.1667 -0.5406 -0.8636
  557MOL0     H76848   5.858   6.543   9.529 -0.1516  2.4175 -0.9124
  557MOL0     H76849   5.625   6.543   9.608 -1.3318 -2.6639  1.5858
  557MOL0     H76850   4.107   7.213  10.230 -0.2712  3.3195  0.1983
  557MOL0     H76851   3.953   7.408  10.285 -1.0233  1.3364 -1.3848
  557MOL0     H76852   3.457   7.418  10.165 -4.1944 -0.0985  1.7302
  557MOL0     H76853   3.237   7.519  10.142  0.8525 -0.2516  0.1581
  557MOL0     H76854   3.070   7.652  10.279 -2.0427  1.0366  1.8287
  557MOL0     H76855   3.178   7.772  10.352  0.3264 -1.3773  0.0404
  557MOL0     H76856   3.051   7.943  10.280  0.2285 -0.3771 -2.7263
  557MOL0     H76857   2.957   7.837  10.382  0.2810 -1.3565 -0.4955
  557MOL0     H76858   2.837   7.928  10.149 -2.8150 -1.9875 -2.2923
  557MOL0     H76859   2.925   7.796  10.085  0.8823  0.7548  0.8745
  557MOL0     H76860   2.700   7.786  10.277 -0.6658 -1.5128 -0.1244
  557MOL0     H76861   2.817   7.654  10.275  1.0171  0.5055 -0.4104
  557MOL0     H76862   2.590   7.587   9.932  2.3503 -0.8617 -0.8968
  557MOL0     H76863   3.411   7.901  10.162 -0.4279 -1.1629 -0.3558
  557MOL0     H76864   3.712   7.832  10.043 -0.9309 -3.0513 -0.0894
  557MOL0     H76865   3.640   7.935  10.165  1.6510  0.6465 -2.0209
  557MOL0     H76866   3.756   7.809  10.214 -0.3704  0.6310  1.1335
  558MOL0     O76867   8.089   9.274   2.043  0.4654 -0.4079 -0.2260
  558MOL0     C76868   8.121   9.239   1.929 -0.1156  0.6682 -0.0641
  558MOL0     O76869   8.246   9.226   1.877 -0.1422  0.7848  0.1770
  558MOL0     C76870   8.346   9.271   1.961 -1.0644  0.3048  0.0213
  558MOL0     C76871   8.347   9.409   1.979 -0.3900  0.0132  0.0604
  558MOL0     C76872   8.438   9.469   2.058  0.3994  0.2684  0.6042
  558MOL0     C76873   8.531   9.385   2.126  1.3975 -0.4411 -0.6320
  558MOL0     O76874   8.616   9.450   2.211  0.7090 -1.5698 -0.4167
  558MOL0     C76875   8.732   9.383   2.275 -0.1886 -0.2004  0.1806
  558MOL0     C76876   8.672   9.340   2.410  0.0426 -1.1712  0.1750
  558MOL0     C76877   8.759   9.249   2.492 -0.3840 -0.5069  0.0783
  558MOL0     C76878   8.885   9.316   2.536 -0.4713 -0.2258 -0.2797
  558MOL0     C76879   8.977   9.222   2.615 -0.2662  0.0325  0.1196
  558MOL0     C76880   9.127   9.265   2.643 -0.1149  0.1627  0.8631
  558MOL0     C76881   9.149   9.320   2.787 -0.1258 -0.2083  0.0960
  558MOL0     C76882   9.285   9.387   2.808  0.2707  0.0654 -0.6603
  558MOL0     N76883   9.385   9.294   2.760 -0.3492 -0.7866 -0.3518
  558MOL0     C76884   9.435   9.192   2.833 -0.7343  0.6373  0.2841
  558MOL0     C76885   9.551   9.146   2.767  0.2313 -0.2125 -0.4506
  558MOL0     C76886   9.639   9.032   2.798 -0.5112  0.0568 -0.3564
  558MOL0     C76887   9.581   8.906   2.740 -0.0387 -0.3160  0.4038
  558MOL0     C76888   9.654   8.785   2.783 -0.4455  0.4380 -0.6394
  558MOL0     C76889   9.810   8.805   2.769 -0.3221  0.0718 -0.7046
  558MOL0     O76890   9.883   8.678   2.773 -0.0224  0.2449 -0.9590
  558MOL0     C76891  10.021   8.672   2.755  0.4351  0.0002 -0.4384
  558MOL0     C76892  10.074   8.549   2.745  0.5246 -0.8299  0.8006
  558MOL0     C76893  10.206   8.537   2.714  0.0790  0.4616  0.3917
  558MOL0     C76894  10.260   8.396   2.685  0.2783 -0.4465 -0.5647
  558MOL0     C76895  10.289   8.653   2.698 -0.2295 -0.1815  0.1997
  558MOL0     C76896  10.429   8.653   2.655 -0.7430 -0.0374 -0.2282
  558MOL0     O76897  10.473   8.771   2.605  0.5002 -0.2225  0.4481
  558MOL0     C76898  10.603   8.800   2.566 -0.3350  0.2091  0.1247
  558MOL0     C76899  10.664   8.914   2.591 -0.4383 -0.4283  0.6180
  558MOL0     C76900  10.791   8.948   2.543 -0.6091  0.9788 -0.1149
  558MOL0     C76901  10.875   8.841   2.499  0.5685  0.0179  1.0425
  558MOL0     O76902  11.008   8.863   2.497 -0.8287 -0.1739 -0.0539
  558MOL0     C76903  11.104   8.766   2.440  0.2930 -0.1571  0.0809
  558MOL0     C76904  11.248   8.809   2.440  0.2006  0.0954  0.2185
  558MOL0     C76905  11.266   8.940   2.372 -0.5390  0.2632 -0.3230
  558MOL0     C76906  11.398   9.019   2.406  0.0054  0.1868 -0.2218
  558MOL0     C76907  11.532   8.952   2.360 -0.0945  0.1746 -0.2306
  558MOL0     C76908  11.663   9.045   2.379  0.0904  0.4583 -0.5683
  558MOL0     C76909  11.784   8.966   2.344 -0.3643  0.2255  0.1853
  558MOL0     C76910  11.916   9.047   2.373  0.0802 -0.0482 -0.2919
  558MOL0    Cl76911  11.918   9.187   2.267  0.1466  0.0150 -0.2968
  558MOL0     C76912  10.820   8.716   2.482 -0.4331  0.5740 -0.4107
  558MOL0     C76913  10.684   8.698   2.505  0.0072  0.4483  0.2039
  558MOL0     O76914  10.507   8.556   2.684  0.0216 -0.6916 -0.5661
  558MOL0     C76915  10.229   8.778   2.704 -0.3675  0.1538  0.0965
  558MOL0     C76916  10.095   8.786   2.735  0.4441  0.4318  0.9737
  558MOL0     N76917   9.561   9.228   2.658  0.0851 -0.7194  0.5866
  558MOL0     N76918   9.464   9.313   2.650  0.4751 -0.1049  0.2755
  558MOL0     C76919   8.534   9.246   2.116  0.1340 -0.7924 -1.0501
  558MOL0     C76920   8.439   9.188   2.035 -0.0851 -0.1213  0.8082
  558MOL0     C76921   8.004   9.215   1.835 -0.6441  0.4612 -0.4712
  558MOL0     C76922   8.013   9.099   1.751  0.6747  0.2132  0.7223
  558MOL0     C76923   7.922   9.072   1.653 -0.1982 -0.3085  0.3421
  558MOL0     C76924   7.802   9.142   1.655  0.1881 -0.5784  0.4029
  558MOL0     O76925   7.710   9.120   1.559  0.0909 -0.4786  0.5940
  558MOL0     C76926   7.703   9.226   1.465  0.6889 -0.0238  0.7992
  558MOL0     C76927   7.623   9.174   1.342 -0.6778  0.7248 -0.3218
  558MOL0     C76928   7.578   9.284   1.239 -0.4218  0.6086  0.1303
  558MOL0     C76929   7.519   9.225   1.112  0.5514 -0.4644 -0.4085
  558MOL0     C76930   7.387   9.160   1.128 -0.4798 -0.0668  0.3475
  558MOL0     C76931   7.292   9.089   1.141  0.5503  0.2081 -0.1441
  558MOL0     C76932   7.782   9.247   1.748  0.4824  0.8615  0.1259
  558MOL0     C76933   7.877   9.286   1.837  0.9322 -0.2910  0.2357
  558MOL0     C76934   7.846   9.409   1.920 -0.6966 -0.1027  0.1394
  558MOL0     H76935   8.278   9.469   1.921  0.5555 -1.8071 -3.2219
  558MOL0     H76936   8.431   9.576   2.070  1.6921  0.5429 -0.9006
  558MOL0     H76937   8.813   9.456   2.280 -0.1464 -0.2040 -0.3557
  558MOL0     H76938   8.767   9.298   2.216  3.2671  0.0180  1.7013
  558MOL0     H76939   8.642   9.429   2.465  1.3507  0.8260 -2.1634
  558MOL0     H76940   8.580   9.285   2.388 -0.8553  0.6013 -0.7116
  558MOL0     H76941   8.705   9.226   2.585  0.4863 -0.0133  0.7221
  558MOL0     H76942   8.782   9.156   2.439 -0.2457 -3.4214  4.6883
  558MOL0     H76943   8.948   9.347   2.452  2.6812 -0.3009  1.8788
  558MOL0     H76944   8.870   9.406   2.597  1.9628  0.5695 -0.7548
  558MOL0     H76945   8.988   9.132   2.554 -0.6596  0.6399 -0.8690
  558MOL0     H76946   8.922   9.192   2.705 -1.5588 -0.7244 -0.8883
  558MOL0     H76947   9.189   9.175   2.638 -1.1230 -0.5719  1.2049
  558MOL0     H76948   9.166   9.337   2.571 -0.9764  0.4255  0.6438
  558MOL0     H76949   9.142   9.243   2.863 -1.8175 -1.6133 -1.3761
  558MOL0     H76950   9.085   9.408   2.804  1.0546  0.5820  0.6237
  558MOL0     H76951   9.276   9.486   2.762 -0.1344  1.1456  1.5899
  558MOL0     H76952   9.300   9.424   2.910 -0.8872 -3.0592  0.7598
  558MOL0     H76953   9.382   9.151   2.918  0.9290 -0.6079  0.7684
  558MOL0     H76954   9.646   9.026   2.907 -0.6661 -1.1453 -0.3938
  558MOL0     H76955   9.742   9.048   2.766  0.7358 -0.6611  2.8677
  558MOL0     H76956   9.476   8.891   2.765 -0.4360  0.4224 -0.7500
  558MOL0     H76957   9.569   8.916   2.631 -2.8181  1.7818  0.8099
  558MOL0     H76958   9.617   8.764   2.884 -2.2173  4.4241 -0.2379
  558MOL0     H76959   9.635   8.706   2.711 -0.5606  0.5559 -0.7387
  558MOL0     H76960   9.824   8.863   2.678  0.8846  1.0065  0.0504
  558MOL0     H76961   9.848   8.869   2.849  1.9397 -0.1726 -1.5322
  558MOL0     H76962  10.018   8.462   2.779 -0.1434  0.4366  3.2311
  558MOL0     H76963  10.343   8.369   2.751  1.8866  2.4561 -1.2632
  558MOL0     H76964  10.294   8.389   2.582  0.5930 -0.5567 -0.4538
  558MOL0     H76965  10.177   8.326   2.701 -0.2503  0.4196  0.7165
  558MOL0     H76966  10.601   8.979   2.650  0.8914 -0.8686  2.6009
  558MOL0     H76967  10.830   9.047   2.563  0.2115  0.6117  0.1645
  558MOL0     H76968  11.114   8.671   2.495  1.6346 -0.6431 -0.9476
  558MOL0     H76969  11.081   8.742   2.336  1.3749 -0.6036 -0.0760
  558MOL0     H76970  11.287   8.820   2.542 -0.9919 -0.6562  0.7744
  558MOL0     H76971  11.310   8.731   2.395  0.9320  1.1537 -0.6745
  558MOL0     H76972  11.179   9.005   2.386 -1.1280 -0.9464  2.3332
  558MOL0     H76973  11.282   8.920   2.266  3.9528 -2.2861  0.5863
  558MOL0     H76974  11.406   9.051   2.510 -0.1784 -0.2615 -0.0660
  558MOL0     H76975  11.390   9.110   2.346  0.3868 -0.6053 -1.5168
  558MOL0     H76976  11.545   8.859   2.417 -1.6576  0.0246 -0.0749
  558MOL0     H76977  11.516   8.921   2.256 -1.2815 -2.8350  0.7172
  558MOL0     H76978  11.668   9.085   2.480  1.3138 -1.8202  0.3268
  558MOL0     H76979  11.650   9.131   2.312 -0.3812  0.9867  0.1897
  558MOL0     H76980  11.778   8.935   2.239  1.8317  2.7517 -0.8009
  558MOL0     H76981  11.773   8.876   2.404 -1.2324  0.6346  0.6549
  558MOL0     H76982  12.008   8.993   2.350  0.5727  1.4129 -1.9162
  558MOL0     H76983  11.919   9.085   2.476  2.3439 -2.0221  0.4800
  558MOL0     H76984  10.866   8.630   2.434 -3.1256 -0.2990 -1.6185
  558MOL0     H76985  10.634   8.603   2.489 -0.2459  0.5623  0.3113
  558MOL0     H76986  10.277   8.874   2.685 -2.2557  1.1403  0.1065
  558MOL0     H76987  10.058   8.887   2.748 -1.6399 -0.1788  0.1316
  558MOL0     H76988   8.598   9.188   2.181  3.6607  0.3541 -3.1917
  558MOL0     H76989   8.425   9.081   2.030 -1.2993  0.0824 -1.2472
  558MOL0     H76990   8.105   9.041   1.757  0.4778 -0.3865 -1.2738
  558MOL0     H76991   7.930   8.992   1.581 -0.8171 -1.0346  1.0646
  558MOL0     H76992   7.663   9.322   1.498 -0.7651  0.1584 -1.2577
  558MOL0     H76993   7.802   9.247   1.423  1.8542 -0.4050  3.2054
  558MOL0     H76994   7.536   9.111   1.362 -1.6957  2.2754  0.3098
  558MOL0     H76995   7.700   9.109   1.299  0.2547 -0.0528  2.3159
  558MOL0     H76996   7.515   9.354   1.295  1.4023  0.6639  2.2563
  558MOL0     H76997   7.667   9.343   1.211 -0.2826  0.3103 -0.0600
  558MOL0     H76998   7.602   9.159   1.085  2.2395  0.6018  1.8667
  558MOL0     H76999   7.512   9.314   1.049  0.4541 -0.0118  0.2455
  558MOL0     H77000   7.210   9.022   1.155  1.6784 -1.6479 -1.9030
  558MOL0     H77001   7.689   9.301   1.743 -0.2087  0.1265  3.1876
  558MOL0     H77002   7.869   9.380   2.023 -0.8955 -0.9981 -0.0631
  558MOL0     H77003   7.897   9.501   1.888 -2.8790  0.8423 -0.8332
  558MOL0     H77004   7.741   9.437   1.926 -0.7451 -0.4741  1.3265
  559MOL0     O77005  10.348   3.101  10.907 -0.3654 -0.2438  0.1285
  559MOL0     C77006  10.254   3.054  10.977  0.4725 -0.0052  0.2515
  559MOL0     O77007  10.272   2.987  11.092  0.9905  0.9960 -0.0202
  559MOL0     C77008  10.406   2.975  11.137  0.3048  0.4824  0.2552
  559MOL0     C77009  10.486   2.883  11.071 -0.9485  0.2213  0.3965
  559MOL0     C77010  10.621   2.872  11.101 -0.0291 -0.6255  0.3372
  559MOL0     C77011  10.675   2.945  11.211  0.4392 -0.8874 -0.6510
  559MOL0     O77012  10.802   2.932  11.263 -0.2583 -0.1120  0.0209
  559MOL0     C77013  10.899   2.888  11.170  0.2872 -0.5406  0.0032
  559MOL0     C77014  10.936   2.747  11.204 -0.2606 -0.0602  0.0502
  559MOL0     C77015  11.066   2.703  11.129  0.5345  0.4247  0.2466
  559MOL0     C77016  11.108   2.565  11.196  0.6591  0.6551  0.1131
  559MOL0     C77017  11.253   2.522  11.151  0.4401  0.2100  0.8008
  559MOL0     C77018  11.331   2.448  11.258 -0.3217  0.5114 -0.6463
  559MOL0     C77019  11.480   2.417  11.218  0.3371  0.1624  0.4567
  559MOL0     C77020  11.486   2.342  11.088 -0.4822  0.3709 -0.2884
  559MOL0     N77021  11.620   2.277  11.076 -0.3032  0.5381 -0.4404
  559MOL0     C77022  11.647   2.139  11.093 -0.2562 -0.1355  1.2646
  559MOL0     C77023  11.771   2.131  11.040 -0.6478  0.7580  0.1327
  559MOL0     C77024  11.866   2.016  11.033  0.4627 -0.0801 -0.6142
  559MOL0     C77025  11.925   1.993  11.173 -0.7648 -0.3961 -0.0785
  559MOL0     C77026  12.005   2.122  11.223 -0.4216  0.2340  0.1319
  559MOL0     C77027  12.126   2.093  11.314  0.5045  0.5857  0.4818
  559MOL0     O77028  12.216   2.003  11.242  0.4243  0.5150 -0.1802
  559MOL0     C77029  12.337   1.966  11.301 -0.5580 -0.3019  0.6922
  559MOL0     C77030  12.420   1.881  11.212 -0.8335  0.5580  0.1126
  559MOL0     C77031  12.544   1.854  11.254  0.1671  0.2517  0.8134
  559MOL0     C77032  12.633   1.801  11.144  0.9508 -0.1945  0.1953
  559MOL0     C77033  12.587   1.887  11.385  0.2288  0.1785 -0.9339
  559MOL0     C77034  12.722   1.851  11.451 -0.6456 -0.1566 -0.4218
  559MOL0     O77035  12.787   1.737  11.393  0.2798 -0.2122 -0.6011
  559MOL0     C77036  12.911   1.686  11.431  0.0154 -0.2583  0.2417
  559MOL0     C77037  12.976   1.611  11.332 -0.2418  0.5335  0.3349
  559MOL0     C77038  13.106   1.560  11.365  0.2138 -0.2762 -0.4041
  559MOL0     C77039  13.177   1.589  11.481  1.3903  0.6785 -0.7827
  559MOL0     O77040  13.306   1.539  11.487  0.5741  0.1244  0.3500
  559MOL0     C77041  13.376   1.548  11.614  0.2743 -0.7394 -0.3334
  559MOL0     C77042  13.528   1.519  11.600  0.0169  0.3264 -0.1131
  559MOL0     C77043  13.599   1.492  11.733  0.2992 -0.4282 -0.1328
  559MOL0     C77044  13.744   1.483  11.721 -0.4434 -0.3494  0.1232
  559MOL0     C77045  13.817   1.494  11.849 -0.2881  1.0066 -0.0125
  559MOL0     C77046  13.969   1.472  11.823  0.4058 -0.2737  1.1541
  559MOL0     C77047  14.067   1.475  11.941 -0.5940 -0.3897  0.6807
  559MOL0     C77048  14.063   1.341  12.014  0.6984 -0.1044  0.2443
  559MOL0    Cl77049  14.157   1.337  12.163 -0.2635  0.1432 -0.0803
  559MOL0     C77050  13.098   1.648  11.581 -0.0674  0.2608 -0.1946
  559MOL0     C77051  12.976   1.705  11.556  0.8532 -0.4675  0.4806
  559MOL0     O77052  12.767   1.928  11.537  0.4649  0.1109 -0.3822
  559MOL0     C77053  12.503   1.958  11.475  0.1677 -0.1929  0.5287
  559MOL0     C77054  12.374   1.997  11.431 -0.5326 -0.8961  0.2650
  559MOL0     N77055  11.805   2.248  10.989 -0.6728  0.0156 -0.1279
  559MOL0     N77056  11.715   2.336  11.006  0.4807  1.0101  0.6649
  559MOL0     C77057  10.585   3.021  11.288  0.3976 -0.5674 -0.0924
  559MOL0     C77058  10.458   3.037  11.247  0.1717 -0.1536  0.1864
  559MOL0     C77059  10.112   3.084  10.939  1.2921  0.7634 -0.7079
  559MOL0     C77060  10.109   3.177  10.828 -0.7265  0.5265 -0.6297
  559MOL0     C77061   9.981   3.190  10.767 -0.2295  0.0494 -0.4055
  559MOL0     C77062   9.868   3.161  10.844  0.3994  0.3542  0.2269
  559MOL0     O77063   9.752   3.190  10.798 -0.2161  0.5473  0.4222
  559MOL0     C77064   9.692   3.094  10.719 -0.5508 -0.0898  0.4089
  559MOL0     C77065   9.560   3.134  10.655  0.5031  0.3277  0.1283
  559MOL0     C77066   9.536   3.019  10.552  0.0379 -0.7107 -0.1520
  559MOL0     C77067   9.410   3.047  10.477 -0.0210  0.7074  0.1683
  559MOL0     C77068   9.291   3.002  10.556  0.9666 -0.4138 -0.0871
  559MOL0     C77069   9.179   2.995  10.603  0.0846  1.0400  0.4011
  559MOL0     C77070   9.881   3.077  10.944  0.2283 -0.0792 -0.0413
  559MOL0     C77071   9.996   3.023  10.986 -0.1235 -0.5496 -0.2489
  559MOL0     C77072   9.994   2.935  11.100  0.0488  0.1400  0.4293
  559MOL0     H77073  10.450   2.825  10.987 -0.5722 -0.9283  0.9993
  559MOL0     H77074  10.688   2.809  11.042 -0.0471 -0.4659  0.1455
  559MOL0     H77075  10.984   2.952  11.195 -1.4108  2.4534 -1.3612
  559MOL0     H77076  10.880   2.895  11.063  2.7363  1.3192 -0.3861
  559MOL0     H77077  10.937   2.746  11.313 -0.4605  0.7876  0.0660
  559MOL0     H77078  10.856   2.679  11.173  0.2182 -0.4020 -0.4562
  559MOL0     H77079  11.059   2.679  11.022 -0.9064 -1.7878  0.7640
  559MOL0     H77080  11.143   2.777  11.152  0.2865  0.4099  1.1515
  559MOL0     H77081  11.103   2.567  11.305  1.2386 -0.9975  0.2037
  559MOL0     H77082  11.042   2.483  11.165  2.0890  1.0027 -4.5615
  559MOL0     H77083  11.318   2.608  11.134  2.7593 -1.2870  1.7263
  559MOL0     H77084  11.244   2.462  11.060  0.7498 -0.4016  1.1730
  559MOL0     H77085  11.350   2.504  11.350  2.4577 -1.7361  0.2915
  559MOL0     H77086  11.283   2.355  11.288 -1.5642 -0.0870 -4.0334
  559MOL0     H77087  11.522   2.344  11.288  0.2295 -1.8827 -1.5054
  559MOL0     H77088  11.557   2.494  11.206  0.8752 -0.7067 -2.8850
  559MOL0     H77089  11.407   2.266  11.086 -0.5635  0.4765 -1.1453
  559MOL0     H77090  11.459   2.408  11.005 -1.7921 -0.4478 -0.5322
  559MOL0     H77091  11.590   2.055  11.129  2.4336 -3.0351 -0.6980
  559MOL0     H77092  11.935   2.048  10.954 -0.9801  1.1775 -1.4179
  559MOL0     H77093  11.820   1.922  11.003  0.7074 -1.1543  2.0928
  559MOL0     H77094  11.846   1.978  11.247  0.8717 -1.3783  1.5731
  559MOL0     H77095  11.992   1.906  11.175 -0.7992 -0.4364 -0.5296
  559MOL0     H77096  12.043   2.174  11.134  0.3883 -2.8519 -1.4607
  559MOL0     H77097  11.933   2.184  11.278 -1.3123  0.4755 -1.2512
  559MOL0     H77098  12.174   2.187  11.342  0.5713  0.5984  0.3230
  559MOL0     H77099  12.105   2.046  11.411  0.5104  1.9321  1.1473
  559MOL0     H77100  12.393   1.857  11.110  0.0129 -0.0341  0.0163
  559MOL0     H77101  12.735   1.837  11.158  1.1657 -0.7528  0.0676
  559MOL0     H77102  12.604   1.828  11.042 -1.0963  1.0178  1.0400
  559MOL0     H77103  12.630   1.692  11.147 -2.0875 -0.1942  0.6922
  559MOL0     H77104  12.942   1.596  11.231 -1.6279 -1.2210  1.0156
  559MOL0     H77105  13.160   1.495  11.296  0.3304 -1.5584  0.8465
  559MOL0     H77106  13.361   1.646  11.659 -2.1972 -1.6246  0.9083
  559MOL0     H77107  13.337   1.473  11.682  1.6395  1.7484  3.5025
  559MOL0     H77108  13.538   1.440  11.524  1.3239 -0.9566  1.3456
  559MOL0     H77109  13.565   1.608  11.548  0.6158  0.7724  1.0610
  559MOL0     H77110  13.564   1.394  11.768  0.2281 -0.0972  0.7444
  559MOL0     H77111  13.579   1.577  11.799 -1.1436  1.6723 -2.9932
  559MOL0     H77112  13.766   1.565  11.653 -0.3799 -0.3286  0.1689
  559MOL0     H77113  13.771   1.393  11.664 -1.7283 -0.4512 -0.3594
  559MOL0     H77114  13.793   1.595  11.885 -2.4438  0.7756 -0.6632
  559MOL0     H77115  13.779   1.420  11.920 -2.1773  2.1858  0.2720
  559MOL0     H77116  14.006   1.550  11.755 -1.0889  1.9709  2.7677
  559MOL0     H77117  13.982   1.376  11.772 -0.4997  0.0858  0.2186
  559MOL0     H77118  14.039   1.550  12.016 -3.2636 -0.6907  0.0907
  559MOL0     H77119  14.169   1.494  11.905 -0.9438 -1.4248 -0.9544
  559MOL0     H77120  14.089   1.252  11.955  1.6906 -0.8457  1.7334
  559MOL0     H77121  13.963   1.324  12.055 -0.2227  3.0738 -0.4524
  559MOL0     H77122  13.139   1.649  11.682 -1.1231 -0.2728  0.2572
  559MOL0     H77123  12.937   1.762  11.640  2.1701 -0.0287  0.8234
  559MOL0     H77124  12.532   1.978  11.577 -0.7089 -0.5916  0.8649
  559MOL0     H77125  12.315   2.063  11.493  1.0476  2.0055 -1.0941
  559MOL0     H77126  10.617   3.073  11.377 -2.0491  2.4609 -0.8217
  559MOL0     H77127  10.384   3.092  11.306  1.0540  0.5325  0.6839
  559MOL0     H77128  10.193   3.231  10.787 -0.5741  1.6126  1.0320
  559MOL0     H77129   9.969   3.250  10.677  0.0987  1.1918  0.2830
  559MOL0     H77130   9.748   3.048  10.637 -3.5698  0.2478 -2.0226
  559MOL0     H77131   9.681   3.010  10.788  1.3012 -1.0086 -0.3420
  559MOL0     H77132   9.562   3.237  10.617  0.1979  0.8242  1.4183
  559MOL0     H77133   9.481   3.139  10.730 -1.0165  0.7251 -1.4114
  559MOL0     H77134   9.615   3.024  10.478  0.7144 -2.1718  0.4386
  559MOL0     H77135   9.535   2.925  10.609  0.1759  0.1957  1.3930
  559MOL0     H77136   9.404   2.984  10.387  0.8772  1.3102 -0.3243
  559MOL0     H77137   9.400   3.151  10.444  2.2397  1.0301  0.3594
  559MOL0     H77138   9.078   3.006  10.636 -0.1171  0.6092 -0.0698
  559MOL0     H77139   9.786   3.047  10.987  1.4550  0.5564  3.4859
  559MOL0     H77140  10.075   2.861  11.096 -0.2271 -0.1297 -0.5076
  559MOL0     H77141  10.008   2.991  11.193  0.3906  2.0961 -0.7389
  559MOL0     H77142   9.899   2.881  11.096  1.8169 -3.2426  0.7747
  560MOL0     O77143   8.972   4.774   7.588 -0.3238  0.0561 -0.3226
  560MOL0     C77144   8.957   4.689   7.675  1.3018 -0.3846  0.5887
  560MOL0     O77145   9.060   4.622   7.736  0.2285 -0.5017 -0.9444
  560MOL0     C77146   9.186   4.683   7.728 -0.7429 -0.1277 -0.0011
  560MOL0     C77147   9.251   4.728   7.846 -0.2479  0.0684 -0.2854
  560MOL0     C77148   9.388   4.752   7.846  0.1018  0.4215 -0.9984
  560MOL0     C77149   9.467   4.743   7.722 -0.1789  0.1111  0.1324
  560MOL0     O77150   9.602   4.777   7.722  0.1765 -0.1761 -0.0952
  560MOL0     C77151   9.659   4.813   7.851 -0.2524  0.4464 -0.2604
  560MOL0     C77152   9.809   4.843   7.844  0.9065 -0.3168  0.0062
  560MOL0     C77153   9.888   4.716   7.847  0.1768 -0.0674 -0.0998
  560MOL0     C77154  10.032   4.757   7.804 -0.0420  0.0394  0.4483
  560MOL0     C77155  10.147   4.688   7.878  0.0543 -0.3757 -1.0465
  560MOL0     C77156  10.132   4.694   8.030  0.0943 -0.2888 -0.2317
  560MOL0     C77157  10.260   4.632   8.094 -0.1939 -0.2850  0.4511
  560MOL0     C77158  10.233   4.638   8.242 -1.0029  0.4781  0.0272
  560MOL0     N77159  10.349   4.577   8.308  0.4392 -0.5957  0.1078
  560MOL0     C77160  10.481   4.628   8.321 -0.1328  0.5060  0.2984
  560MOL0     C77161  10.538   4.533   8.403  0.2979 -0.9670 -0.3545
  560MOL0     C77162  10.677   4.532   8.455  0.3263 -0.8781  0.4362
  560MOL0     C77163  10.745   4.401   8.460  0.2120 -0.2823 -0.8508
  560MOL0     C77164  10.842   4.409   8.580  0.4839 -0.1071 -0.4194
  560MOL0     C77165  10.949   4.519   8.563  0.0794  0.2152 -0.7756
  560MOL0     O77166  11.059   4.499   8.659  0.6683  0.2382 -0.3572
  560MOL0     C77167  11.058   4.538   8.786 -0.0068  0.4648  0.0474
  560MOL0     C77168  11.181   4.525   8.848 -0.3170 -0.1453 -0.4199
  560MOL0     C77169  11.211   4.586   8.979  0.9617 -0.1266  0.0750
  560MOL0     C77170  11.344   4.556   9.037  1.0038  0.1413 -0.1263
  560MOL0     C77171  11.103   4.646   9.047 -0.3732 -0.0141  0.3391
  560MOL0     C77172  11.114   4.711   9.184  0.7423 -0.1110  0.3807
  560MOL0     O77173  11.238   4.728   9.242  0.2253  0.1237  0.2482
  560MOL0     C77174  11.268   4.779   9.367 -0.8563  0.0601 -0.4219
  560MOL0     C77175  11.184   4.799   9.478 -0.9785 -0.6082  0.6832
  560MOL0     C77176  11.226   4.857   9.596 -0.4532 -0.0065  0.0220
  560MOL0     C77177  11.361   4.881   9.616  0.9759  0.2517 -0.1582
  560MOL0     O77178  11.410   4.937   9.726  0.0570 -0.2454  0.1929
  560MOL0     C77179  11.324   4.962   9.841 -0.4093  0.0253  0.0350
  560MOL0     C77180  11.405   4.998   9.975  0.7964 -0.1883 -0.2459
  560MOL0     C77181  11.547   5.055   9.948  0.2768 -0.4759  0.5950
  560MOL0     C77182  11.603   5.124  10.071 -0.3168  0.4899 -0.0106
  560MOL0     C77183  11.745   5.174  10.047 -0.1625  0.2279  0.4679
  560MOL0     C77184  11.795   5.231  10.181 -1.3539  0.3526 -0.7217
  560MOL0     C77185  11.942   5.285  10.156  0.5526  0.3452  0.0833
  560MOL0     C77186  12.030   5.289  10.291 -0.2820 -0.3027  0.3780
  560MOL0    Cl77187  12.210   5.282  10.249  0.5662  0.3266 -0.1539
  560MOL0     C77188  11.452   4.847   9.520 -0.0340 -0.0625  0.3706
  560MOL0     C77189  11.405   4.795   9.401  0.3683  0.5036 -0.0366
  560MOL0     O77190  11.006   4.755   9.227 -0.0322 -0.3207  0.2950
  560MOL0     C77191  10.983   4.668   8.974 -0.0701 -0.6764  0.2608
  560MOL0     C77192  10.960   4.618   8.850  0.0732 -0.2809 -0.4617
  560MOL0     N77193  10.440   4.445   8.444  0.0745  0.4817  0.3748
  560MOL0     N77194  10.333   4.460   8.380 -0.1615 -0.1419  0.2977
  560MOL0     C77195   9.399   4.709   7.606  0.1952 -0.7632  0.2784
  560MOL0     C77196   9.264   4.674   7.607 -0.0582 -0.7693  0.2210
  560MOL0     C77197   8.813   4.640   7.695 -0.3343 -0.1058 -0.2849
  560MOL0     C77198   8.711   4.708   7.636  0.6081  0.2200  0.7137
  560MOL0     C77199   8.577   4.673   7.652 -0.3637 -0.7872 -0.2554
  560MOL0     C77200   8.541   4.568   7.735 -0.0924 -0.0781  0.1061
  560MOL0     O77201   8.408   4.532   7.769 -0.4132  0.0630  0.4543
  560MOL0     C77202   8.304   4.616   7.729 -0.7960  0.4217  0.6973
  560MOL0     C77203   8.184   4.600   7.822 -0.2340  0.5369 -1.0295
  560MOL0     C77204   8.130   4.456   7.832  0.2029 -0.5157  0.0577
  560MOL0     C77205   8.069   4.407   7.708  0.8049  0.9561 -1.0910
  560MOL0     C77206   7.956   4.320   7.733  0.0295 -1.1393 -0.9094
  560MOL0     C77207   7.868   4.252   7.772  0.3218  0.6159 -0.9040
  560MOL0     C77208   8.646   4.491   7.789 -0.6495 -0.4328  0.2370
  560MOL0     C77209   8.781   4.520   7.774  0.9851  0.5678 -0.6923
  560MOL0     C77210   8.881   4.420   7.833  0.1797  0.5726 -0.1563
  560MOL0     H77211   9.222   4.719   7.951 -1.2027  2.8569 -0.2407
  560MOL0     H77212   9.435   4.765   7.943  0.0689 -1.3717 -0.7162
  560MOL0     H77213   9.637   4.728   7.916 -1.3786  2.1967  1.7584
  560MOL0     H77214   9.604   4.898   7.891  3.2001  2.4800  0.6262
  560MOL0     H77215   9.825   4.907   7.757  0.9285 -0.9068 -0.4273
  560MOL0     H77216   9.828   4.904   7.933  1.1650 -1.9397  1.0993
  560MOL0     H77217   9.879   4.673   7.948  0.4016  0.1362  0.0067
  560MOL0     H77218   9.856   4.648   7.767  2.9843 -0.5904 -0.8576
  560MOL0     H77219  10.044   4.751   7.695  1.0437  3.0190  0.2952
  560MOL0     H77220  10.051   4.863   7.822 -0.7216  0.2130  0.1628
  560MOL0     H77221  10.242   4.734   7.848 -0.1570 -0.0592 -1.2197
  560MOL0     H77222  10.156   4.582   7.851 -0.9012 -0.4284 -1.1837
  560MOL0     H77223  10.115   4.797   8.062 -2.4584 -0.4944 -0.7597
  560MOL0     H77224  10.055   4.623   8.058  2.0653 -2.6715 -0.4979
  560MOL0     H77225  10.347   4.693   8.069 -0.5500 -0.2834 -0.8477
  560MOL0     H77226  10.293   4.533   8.061  1.1563  0.2602  0.0838
  560MOL0     H77227  10.235   4.740   8.282 -2.1610  0.0201  1.3056
  560MOL0     H77228  10.136   4.594   8.264 -0.4190 -1.7608 -1.6006
  560MOL0     H77229  10.520   4.725   8.293 -0.2576  0.9246  1.5316
  560MOL0     H77230  10.668   4.574   8.556 -0.0003 -3.4252  1.5633
  560MOL0     H77231  10.740   4.598   8.396  0.2571 -1.5594 -0.4194
  560MOL0     H77232  10.671   4.322   8.480  1.8880 -2.3203 -2.2616
  560MOL0     H77233  10.801   4.375   8.370  0.5044 -0.8495 -0.5129
  560MOL0     H77234  10.778   4.429   8.666 -1.2554 -2.5914 -1.0266
  560MOL0     H77235  10.893   4.314   8.599  1.1294  0.2676 -0.2580
  560MOL0     H77236  11.002   4.507   8.468  0.5968  1.1633 -0.6240
  560MOL0     H77237  10.905   4.618   8.551  1.7432  0.8138 -2.4060
  560MOL0     H77238  11.260   4.469   8.799  0.3926 -0.0667  0.6039
  560MOL0     H77239  11.340   4.550   9.146 -1.1814 -0.3395 -0.1886
  560MOL0     H77240  11.401   4.644   9.008 -0.1258  1.2792  0.9865
  560MOL0     H77241  11.381   4.465   8.990  1.1908  0.0770  0.1411
  560MOL0     H77242  11.079   4.773   9.469 -1.6043  1.1997  2.1443
  560MOL0     H77243  11.154   4.863   9.676  2.4288  1.2371  2.7143
  560MOL0     H77244  11.261   5.048   9.816  0.8035  1.2559  0.9919
  560MOL0     H77245  11.249   4.885   9.859  0.4895 -0.5308  1.5267
  560MOL0     H77246  11.348   5.061  10.042  0.8592  1.8547 -2.0018
  560MOL0     H77247  11.413   4.901  10.026  1.3372  1.5244  3.1804
  560MOL0     H77248  11.556   5.126   9.865 -0.2600  0.5156  1.3666
  560MOL0     H77249  11.611   4.972   9.916 -1.5006 -1.9470  0.6555
  560MOL0     H77250  11.609   5.055  10.157  5.0504 -1.0338 -1.2317
  560MOL0     H77251  11.542   5.203  10.117 -2.6426 -1.2461  0.1158
  560MOL0     H77252  11.818   5.099  10.016  0.4119  0.0799  2.0929
  560MOL0     H77253  11.756   5.251   9.970 -1.3085 -1.6443 -1.6697
  560MOL0     H77254  11.800   5.156  10.261  0.9126  0.1927 -0.9386
  560MOL0     H77255  11.731   5.310  10.220 -1.9739 -0.5081  0.0481
  560MOL0     H77256  11.936   5.380  10.103 -0.4698  0.6096  0.6542
  560MOL0     H77257  12.000   5.216  10.093  0.4870 -1.6443  2.0728
  560MOL0     H77258  11.994   5.208  10.356 -0.1566 -2.1216 -1.7065
  560MOL0     H77259  12.012   5.388  10.334  0.0095  0.9367 -2.1905
  560MOL0     H77260  11.557   4.851   9.544 -0.4564  1.8296  2.1931
  560MOL0     H77261  11.474   4.759   9.325  2.1720  0.3018  1.6194
  560MOL0     H77262  10.894   4.716   9.015  0.1101  0.3209 -0.4685
  560MOL0     H77263  10.858   4.630   8.815 -0.5520  1.9426  1.8458
  560MOL0     H77264   9.451   4.717   7.510  0.3273  1.3029  0.4644
  560MOL0     H77265   9.224   4.626   7.518  0.9972 -1.1922 -0.0308
  560MOL0     H77266   8.737   4.786   7.565  1.2815 -1.5614 -1.1040
  560MOL0     H77267   8.502   4.726   7.594 -0.8569 -0.1068  0.9717
  560MOL0     H77268   8.338   4.720   7.736  3.9846 -0.9185  0.4975
  560MOL0     H77269   8.280   4.596   7.624 -0.2910 -1.7820  0.9617
  560MOL0     H77270   8.095   4.659   7.800 -0.6551  1.2954  2.2152
  560MOL0     H77271   8.212   4.626   7.924 -2.2603  0.6345 -0.4585
  560MOL0     H77272   8.216   4.392   7.852  2.3846  1.4952 -2.1266
  560MOL0     H77273   8.069   4.451   7.922  0.3982 -0.6679  0.1815
  560MOL0     H77274   8.152   4.367   7.649  1.8412  1.5390 -0.0688
  560MOL0     H77275   8.017   4.492   7.664 -0.1204  0.1187 -1.6715
  560MOL0     H77276   7.795   4.184   7.809  1.2801 -0.4980 -0.9959
  560MOL0     H77277   8.609   4.407   7.846 -0.5257 -0.5717  0.1159
  560MOL0     H77278   8.960   4.405   7.759  0.3635  2.9974 -0.5595
  560MOL0     H77279   8.919   4.467   7.924 -0.8457  0.0178  0.5834
  560MOL0     H77280   8.838   4.321   7.848 -0.0765  0.6403 -0.4317
  561MOL0     O77281   7.054   1.168   3.227 -0.3826 -0.2646  1.2671
  561MOL0     C77282   6.935   1.194   3.189 -0.3730 -0.6293 -0.1397
  561MOL0     O77283   6.898   1.294   3.097 -0.6164  0.4319 -0.0411
  561MOL0     C77284   6.996   1.342   3.026  0.3740 -0.0552  0.1183
  561MOL0     C77285   7.008   1.299   2.897  0.2767 -0.3701  0.4162
  561MOL0     C77286   7.107   1.354   2.807 -0.3894  0.3660 -0.9185
  561MOL0     C77287   7.198   1.441   2.859  0.0546 -1.2355 -0.4955
  561MOL0     O77288   7.292   1.488   2.773  0.1133  0.2972  0.5444
  561MOL0     C77289   7.311   1.631   2.756  1.0090  0.5612  0.0202
  561MOL0     C77290   7.458   1.669   2.781 -0.7797  1.0948  0.0612
  561MOL0     C77291   7.503   1.803   2.734  0.2636  0.1508  0.2484
  561MOL0     C77292   7.658   1.806   2.760  0.4659 -0.1990  0.3620
  561MOL0     C77293   7.708   1.951   2.735  0.4596  0.0262  0.2875
  561MOL0     C77294   7.860   1.960   2.740  0.5719 -0.1349  0.1279
  561MOL0     C77295   7.922   2.093   2.704  0.1323  0.0525  0.1764
  561MOL0     C77296   7.862   2.224   2.745  0.2980  0.4706  0.0606
  561MOL0     N77297   7.933   2.344   2.684 -0.3924  0.0095 -0.4058
  561MOL0     C77298   7.949   2.371   2.550  0.1078  0.4135 -0.5705
  561MOL0     C77299   8.006   2.502   2.547 -0.3856  0.8926 -0.1193
  561MOL0     C77300   8.028   2.581   2.421 -0.8255 -0.5605 -0.1178
  561MOL0     C77301   8.157   2.668   2.419  0.7020  0.4616 -0.1609
  561MOL0     C77302   8.283   2.586   2.460 -0.2048  0.0005 -0.0877
  561MOL0     C77303   8.406   2.643   2.393  0.0044  0.3005 -0.1319
  561MOL0     O77304   8.422   2.778   2.426  0.2660 -0.5507  0.4403
  561MOL0     C77305   8.534   2.840   2.361  0.6863  0.8340 -0.6155
  561MOL0     C77306   8.536   2.975   2.339 -0.4247 -0.4178  0.5335
  561MOL0     C77307   8.647   3.051   2.295  0.0790  0.3285 -0.0622
  561MOL0     C77308   8.620   3.201   2.301  1.0660  0.0948 -0.2008
  561MOL0     C77309   8.765   2.983   2.252 -0.5553 -0.4881  0.1928
  561MOL0     C77310   8.893   3.045   2.208 -0.6998 -0.4945 -0.4105
  561MOL0     O77311   8.994   2.965   2.164  0.6078  0.3524 -0.3655
  561MOL0     C77312   9.114   3.028   2.168 -1.1867 -0.5823 -0.2995
  561MOL0     C77313   9.165   3.106   2.058  0.1152  0.8832  0.0071
  561MOL0     C77314   9.280   3.167   2.074 -0.5511  0.2364  0.0614
  561MOL0     C77315   9.355   3.159   2.187  0.0616  0.7946  0.6577
  561MOL0     O77316   9.472   3.222   2.201  0.0451  0.5235  0.1591
  561MOL0     C77317   9.525   3.319   2.110  0.7328  0.4146 -0.2358
  561MOL0     C77318   9.626   3.416   2.175 -0.4364 -0.9926 -0.0707
  561MOL0     C77319   9.756   3.355   2.228 -0.4007  0.0824  0.1977
  561MOL0     C77320   9.828   3.459   2.310  0.2204  0.1091 -0.3353
  561MOL0     C77321   9.964   3.401   2.363  0.3277 -0.4332  0.5763
  561MOL0     C77322  10.032   3.502   2.459 -0.5247 -0.2025 -0.9389
  561MOL0     C77323  10.177   3.456   2.492  0.2816  0.0732  0.3054
  561MOL0     C77324  10.275   3.567   2.548  0.4620  0.2083 -1.1739
  561MOL0    Cl77325  10.270   3.726   2.461 -0.1966  0.3125 -0.5520
  561MOL0     C77326   9.305   3.083   2.296 -0.0357  0.0579 -0.2112
  561MOL0     C77327   9.186   3.015   2.282 -0.6012  0.4737 -0.1515
  561MOL0     O77328   8.905   3.167   2.228 -0.2908 -0.0273  0.2781
  561MOL0     C77329   8.762   2.841   2.258  0.2720 -0.4677 -0.3581
  561MOL0     C77330   8.653   2.780   2.319  0.5447  1.1814  0.7388
  561MOL0     N77331   8.017   2.543   2.677 -0.5703 -0.4863 -0.0776
  561MOL0     N77332   7.971   2.448   2.751 -0.6121  0.7679 -0.1162
  561MOL0     C77333   7.178   1.496   2.988 -0.2721  0.3465 -0.3895
  561MOL0     C77334   7.079   1.445   3.075  0.4132  0.3605  0.0307
  561MOL0     C77335   6.837   1.103   3.246  0.7184 -0.3872  0.2784
  561MOL0     C77336   6.703   1.139   3.233 -0.9055  0.4267 -0.1026
  561MOL0     C77337   6.594   1.062   3.287  0.6499 -0.2215  0.5208
  561MOL0     C77338   6.621   0.954   3.362  0.1466  0.0184 -0.2055
  561MOL0     O77339   6.522   0.873   3.409  0.1828 -0.2875 -0.1264
  561MOL0     C77340   6.384   0.899   3.373 -0.8085 -0.0224  0.0982
  561MOL0     C77341   6.308   0.776   3.419  0.3841 -0.0253 -0.3160
  561MOL0     C77342   6.167   0.778   3.357  0.2828  0.0451  0.2840
  561MOL0     C77343   6.042   0.716   3.428 -1.1671 -1.0911 -0.5188
  561MOL0     C77344   5.934   0.664   3.337 -0.3026  0.2976 -0.9338
  561MOL0     C77345   5.851   0.623   3.266  0.2663 -0.0015 -0.4528
  561MOL0     C77346   6.755   0.918   3.377 -0.2656  0.0504 -0.2637
  561MOL0     C77347   6.861   0.979   3.311 -0.3034 -0.1483 -0.4460
  561MOL0     C77348   6.999   0.904   3.314  0.5275 -0.1271  0.4781
  561MOL0     H77349   6.963   1.207   2.860  1.6529 -0.9293  0.0986
  561MOL0     H77350   7.129   1.319   2.706 -0.0639 -0.9168 -0.4228
  561MOL0     H77351   7.241   1.681   2.823 -0.7243 -0.7360 -0.7613
  561MOL0     H77352   7.287   1.656   2.653 -0.0923  2.7935  0.7540
  561MOL0     H77353   7.482   1.666   2.888  0.4452  2.0134 -0.1590
  561MOL0     H77354   7.509   1.588   2.728 -3.6553  1.3850 -3.5609
  561MOL0     H77355   7.478   1.815   2.629 -0.8884 -0.0979  0.4807
  561MOL0     H77356   7.457   1.878   2.799  0.7095  0.9004 -0.2912
  561MOL0     H77357   7.694   1.779   2.859  0.3468  0.9647  0.7338
  561MOL0     H77358   7.707   1.739   2.689 -2.5660 -0.4612 -1.6946
  561MOL0     H77359   7.652   2.022   2.797 -2.8145 -0.3655 -1.9863
  561MOL0     H77360   7.678   1.983   2.635 -0.1709  1.0311  0.7891
  561MOL0     H77361   7.890   1.944   2.844  0.1218  1.2560  0.4984
  561MOL0     H77362   7.905   1.879   2.682  1.6913  1.2424 -1.0175
  561MOL0     H77363   7.921   2.109   2.595 -0.3403  1.4031  0.3635
  561MOL0     H77364   8.028   2.084   2.730  0.2607  0.8989  0.0038
  561MOL0     H77365   7.758   2.239   2.715  0.8443  1.3066 -1.5597
  561MOL0     H77366   7.861   2.227   2.854 -1.2013 -1.8286  0.1643
  561MOL0     H77367   7.934   2.297   2.472 -1.6307  0.6552 -0.5007
  561MOL0     H77368   7.945   2.652   2.409  0.1738  0.5957 -0.4386
  561MOL0     H77369   8.035   2.502   2.347 -0.3537 -1.2559  0.6572
  561MOL0     H77370   8.168   2.711   2.320  0.6090 -0.9232 -0.7989
  561MOL0     H77371   8.148   2.751   2.490  2.4284 -0.0062  0.6713
  561MOL0     H77372   8.285   2.599   2.569  0.8236 -0.3758 -0.0547
  561MOL0     H77373   8.274   2.480   2.435  0.0478 -0.0113 -0.1221
  561MOL0     H77374   8.482   2.580   2.440 -0.8785 -0.2113  0.6485
  561MOL0     H77375   8.399   2.624   2.285 -0.8380  3.8887 -0.8392
  561MOL0     H77376   8.448   3.032   2.368  1.0542  1.7315  0.9812
  561MOL0     H77377   8.716   3.249   2.323  1.6930 -1.4670  0.5866
  561MOL0     H77378   8.551   3.220   2.384 -0.5773 -2.0374 -0.9732
  561MOL0     H77379   8.587   3.242   2.205  2.4112  0.3249 -0.5853
  561MOL0     H77380   9.104   3.114   1.968 -0.8375 -0.6472  0.4791
  561MOL0     H77381   9.321   3.222   1.990  2.0048  0.4802  1.3682
  561MOL0     H77382   9.567   3.259   2.029  0.2742 -0.7472  0.3611
  561MOL0     H77383   9.443   3.383   2.076 -0.8731 -1.1128  0.6183
  561MOL0     H77384   9.660   3.493   2.106  1.0377 -2.4766 -1.0573
  561MOL0     H77385   9.571   3.463   2.258  1.2806  0.7246  0.1618
  561MOL0     H77386   9.816   3.325   2.141  2.4238  0.2673  1.9504
  561MOL0     H77387   9.737   3.261   2.281 -0.6220 -0.2326 -0.4271
  561MOL0     H77388   9.774   3.491   2.399  0.5103 -0.4706  0.0577
  561MOL0     H77389   9.842   3.546   2.245 -1.4446  1.1616  0.6404
  561MOL0     H77390   9.958   3.305   2.413 -2.9762  0.1245  1.5035
  561MOL0     H77391  10.036   3.392   2.281  1.1495 -0.8128  1.3380
  561MOL0     H77392   9.981   3.516   2.554  1.1697 -0.3043  0.0259
  561MOL0     H77393  10.037   3.594   2.400  0.9671 -1.0317 -2.1783
  561MOL0     H77394  10.218   3.424   2.396 -1.7870  1.1855 -1.0337
  561MOL0     H77395  10.170   3.371   2.560 -0.0967  1.6946  2.4046
  561MOL0     H77396  10.379   3.537   2.559  0.7471  1.6406  0.5288
  561MOL0     H77397  10.256   3.565   2.656  1.9143  0.0454 -0.9028
  561MOL0     H77398   9.373   3.067   2.379  2.1340  1.7144 -1.5437
  561MOL0     H77399   9.153   2.951   2.364 -1.2403 -1.0145 -1.5029
  561MOL0     H77400   8.844   2.772   2.242 -0.5408 -1.1000 -2.0466
  561MOL0     H77401   8.659   2.673   2.335  0.8586  0.9889 -0.5241
  561MOL0     H77402   7.249   1.563   3.035 -0.2369 -0.5204  0.8747
  561MOL0     H77403   7.065   1.471   3.179 -2.3008 -0.0273 -0.1633
  561MOL0     H77404   6.681   1.225   3.172 -0.4169 -0.5236 -1.6818
  561MOL0     H77405   6.494   1.103   3.275  0.6682  0.9009  3.4126
  561MOL0     H77406   6.348   0.990   3.423 -0.3135  1.4324 -2.0411
  561MOL0     H77407   6.394   0.917   3.265  2.7436 -0.7280  0.2154
  561MOL0     H77408   6.300   0.770   3.528  0.2501  0.1493 -0.3164
  561MOL0     H77409   6.363   0.692   3.377  3.9448  1.9258  0.0027
  561MOL0     H77410   6.131   0.881   3.354  0.4276  0.0794 -0.3673
  561MOL0     H77411   6.177   0.731   3.259 -1.7173 -1.9040  0.9273
  561MOL0     H77412   6.013   0.801   3.491 -1.8582  0.4935 -2.8147
  561MOL0     H77413   6.079   0.636   3.492  0.5388  1.1443  1.5212
  561MOL0     H77414   5.769   0.594   3.203  0.8765  0.9294 -1.7523
  561MOL0     H77415   6.779   0.825   3.428  0.3539  0.3243 -0.0438
  561MOL0     H77416   7.005   0.840   3.403 -0.6818 -1.9273 -0.6784
  561MOL0     H77417   6.987   0.845   3.222 -0.1838  4.1343 -2.4104
  561MOL0     H77418   7.096   0.953   3.302  0.8767 -1.2240 -1.6607
  562MOL0     O77419   7.555   9.377   5.348  0.3734 -0.2263 -0.8580
  562MOL0     C77420   7.571   9.353   5.470  0.1277  0.2805 -0.4461
  562MOL0     O77421   7.671   9.400   5.547 -0.4229  0.9438 -0.2945
  562MOL0     C77422   7.797   9.404   5.501 -0.3011 -1.1355 -0.0156
  562MOL0     C77423   7.845   9.337   5.386  0.1819 -1.0783 -0.0778
  562MOL0     C77424   7.981   9.334   5.364  0.0755 -0.0866 -0.7347
  562MOL0     C77425   8.081   9.410   5.435  0.9014 -0.4328 -0.3195
  562MOL0     O77426   8.211   9.417   5.403  0.2337 -0.5080 -0.9279
  562MOL0     C77427   8.262   9.364   5.284 -0.0061  0.1723  0.1210
  562MOL0     C77428   8.291   9.208   5.308 -0.1180  0.4586  0.0755
  562MOL0     C77429   8.416   9.195   5.390 -0.7223  0.3390 -0.2167
  562MOL0     C77430   8.470   9.048   5.402 -0.4172 -0.2420 -0.2251
  562MOL0     C77431   8.620   9.053   5.434 -0.7804 -0.1511  0.3175
  562MOL0     C77432   8.661   9.064   5.581  0.1356 -0.2494  0.3793
  562MOL0     C77433   8.793   9.017   5.620  0.1117  0.0815  0.5193
  562MOL0     C77434   8.901   9.120   5.592 -0.1583  0.3133 -0.1922
  562MOL0     N77435   9.018   9.108   5.687  0.3750 -0.1783 -0.2215
  562MOL0     C77436   9.068   8.990   5.734 -0.3153  0.6385 -0.4295
  562MOL0     C77437   9.172   9.028   5.818  0.3501  0.0227 -0.3552
  562MOL0     C77438   9.262   8.936   5.906 -0.4671  0.5365  0.4478
  562MOL0     C77439   9.336   8.836   5.817 -0.5786 -0.1827 -0.3796
  562MOL0     C77440   9.411   8.736   5.901  0.2087 -0.4338 -0.8860
  562MOL0     C77441   9.551   8.784   5.930  0.3787 -0.1310 -0.0204
  562MOL0     O77442   9.624   8.824   5.817 -0.1818 -0.3358 -0.2956
  562MOL0     C77443   9.758   8.863   5.825  0.5893  0.6939  0.1087
  562MOL0     C77444   9.805   8.942   5.728 -0.2149  0.2629 -0.0894
  562MOL0     C77445   9.949   8.945   5.691  0.0263  1.1366 -0.2758
  562MOL0     C77446   9.982   9.023   5.562  0.3942  0.0682 -0.4995
  562MOL0     C77447  10.036   8.883   5.780 -0.9805  0.4044 -0.6605
  562MOL0     C77448  10.183   8.893   5.769 -0.0279  0.0948 -0.2288
  562MOL0     O77449  10.249   8.858   5.887 -0.0620  0.4494  0.6927
  562MOL0     C77450  10.387   8.856   5.890 -0.6753  0.3717  0.0663
  562MOL0     C77451  10.446   8.733   5.914 -0.7916  0.5642  0.4876
  562MOL0     C77452  10.579   8.718   5.942  0.0850  0.8108 -0.1522
  562MOL0     C77453  10.659   8.831   5.952  0.7098 -0.9418 -0.6128
  562MOL0     O77454  10.786   8.814   5.995  0.2394 -0.5953  0.3030
  562MOL0     C77455  10.870   8.736   5.902 -0.3269 -0.7800  0.1541
  562MOL0     C77456  11.018   8.748   5.944  0.4680 -0.1306  0.1123
  562MOL0     C77457  11.087   8.890   5.911  0.5656  0.5519 -0.7602
  562MOL0     C77458  11.224   8.880   5.970 -1.2222 -0.3047 -0.1776
  562MOL0     C77459  11.294   9.019   5.944 -0.5292  0.3332 -0.6182
  562MOL0     C77460  11.451   9.018   5.961  0.5827  0.0518 -0.1645
  562MOL0     C77461  11.513   9.154   5.925 -0.2315  0.1312  0.7342
  562MOL0     C77462  11.663   9.149   5.917 -1.2171 -0.0764 -0.3105
  562MOL0    Cl77463  11.718   9.071   5.763  0.2962  0.3013 -0.0714
  562MOL0     C77464  10.605   8.957   5.919  1.0289  0.0877 -0.6784
  562MOL0     C77465  10.468   8.970   5.894  0.2021  0.7052  1.2016
  562MOL0     O77466  10.236   8.942   5.669 -0.6430  0.0747 -0.0860
  562MOL0     C77467   9.985   8.817   5.896 -1.0122 -0.0279  0.1786
  562MOL0     C77468   9.846   8.807   5.916 -0.0843  0.1599 -0.1750
  562MOL0     N77469   9.188   9.165   5.813  0.3179  0.8530  0.4126
  562MOL0     N77470   9.096   9.210   5.739 -0.3650 -0.2806 -0.0024
  562MOL0     C77471   8.027   9.485   5.543 -0.3641  0.1411 -0.4575
  562MOL0     C77472   7.888   9.477   5.574  0.1705 -0.0792 -0.0391
  562MOL0     C77473   7.479   9.250   5.535 -0.5911 -0.7069  0.2134
  562MOL0     C77474   7.345   9.256   5.496 -0.0774 -0.1802  0.2083
  562MOL0     C77475   7.246   9.179   5.565  0.1104 -0.4329  0.6386
  562MOL0     C77476   7.285   9.092   5.665 -0.0845 -0.4849  0.6439
  562MOL0     O77477   7.183   9.018   5.722 -0.7781  0.3948  0.2409
  562MOL0     C77478   7.201   8.948   5.851  0.4889 -0.4304  0.2303
  562MOL0     C77479   7.212   8.795   5.816  0.3748 -0.3669 -0.7610
  562MOL0     C77480   7.201   8.705   5.943 -0.1339 -0.5496  0.8051
  562MOL0     C77481   7.054   8.688   5.999 -0.5816  0.0786  0.4985
  562MOL0     C77482   7.064   8.602   6.118 -0.4967 -0.2091 -0.9784
  562MOL0     C77483   7.083   8.529   6.216 -0.2814  0.4371  0.1552
  562MOL0     C77484   7.417   9.080   5.702 -0.4570 -0.1260 -0.7875
  562MOL0     C77485   7.516   9.154   5.639 -0.6412 -0.2742 -0.3522
  562MOL0     C77486   7.657   9.129   5.687  0.7015  0.6771  0.4100
  562MOL0     H77487   7.784   9.276   5.321 -3.5152  0.7783  1.3676
  562MOL0     H77488   8.009   9.269   5.282 -2.1882 -0.9885 -0.8809
  562MOL0     H77489   8.346   9.425   5.249 -0.0361 -0.9912 -2.1742
  562MOL0     H77490   8.185   9.382   5.209  1.1889 -1.6347 -1.6604
  562MOL0     H77491   8.202   9.163   5.351 -0.9604  2.2148  0.2686
  562MOL0     H77492   8.310   9.169   5.208 -2.1900  2.2453 -1.1202
  562MOL0     H77493   8.496   9.258   5.350 -0.0170 -1.5933 -2.0545
  562MOL0     H77494   8.391   9.234   5.490 -1.6541  3.2905 -1.4788
  562MOL0     H77495   8.423   9.000   5.489 -0.1399 -1.0682 -0.5280
  562MOL0     H77496   8.447   8.993   5.311  1.1398 -1.7305  0.2420
  562MOL0     H77497   8.675   9.125   5.373 -1.3756  0.6420  0.7003
  562MOL0     H77498   8.668   8.964   5.393  1.3286  2.3114 -3.0674
  562MOL0     H77499   8.637   9.164   5.619 -1.6221  0.4265 -2.2485
  562MOL0     H77500   8.585   9.003   5.632 -0.5677  0.6950  0.4941
  562MOL0     H77501   8.821   8.921   5.574 -0.5636  0.1220 -0.0042
  562MOL0     H77502   8.798   9.005   5.729  1.0871 -0.7294  0.3996
  562MOL0     H77503   8.932   9.117   5.487 -0.6789 -1.4424 -0.3393
  562MOL0     H77504   8.861   9.219   5.617 -4.5029 -1.1165 -0.5056
  562MOL0     H77505   9.029   8.891   5.714 -1.3473  0.6278  1.3984
  562MOL0     H77506   9.198   8.884   5.979  0.4408 -2.8402 -0.9831
  562MOL0     H77507   9.326   8.999   5.969  0.1915  0.4833 -0.1621
  562MOL0     H77508   9.265   8.785   5.752 -2.4293  2.0800 -0.2480
  562MOL0     H77509   9.404   8.886   5.748  3.5595 -5.6483 -0.9801
  562MOL0     H77510   9.358   8.720   5.996  2.2716 -1.4400  0.1629
  562MOL0     H77511   9.416   8.637   5.856 -0.3469 -0.0593 -1.7976
  562MOL0     H77512   9.557   8.867   6.001  1.4993 -0.2083 -0.0075
  562MOL0     H77513   9.606   8.701   5.975 -1.3095 -1.0929  0.3562
  562MOL0     H77514   9.730   8.992   5.668  0.5887  1.5902 -0.0347
  562MOL0     H77515  10.016   8.953   5.485  1.7747  1.5484 -1.2932
  562MOL0     H77516  10.057   9.099   5.588  0.4460 -0.7686  2.0479
  562MOL0     H77517   9.895   9.080   5.530 -0.2287  0.0357  1.0540
  562MOL0     H77518  10.382   8.646   5.906  0.5126 -0.2918 -1.3404
  562MOL0     H77519  10.627   8.622   5.960 -1.0435  0.0549 -0.9949
  562MOL0     H77520  10.848   8.629   5.903  0.7554 -1.0509  2.3921
  562MOL0     H77521  10.851   8.783   5.805  0.9147  3.5066  1.7629
  562MOL0     H77522  11.025   8.728   6.051  0.3877 -1.3861 -0.0944
  562MOL0     H77523  11.072   8.666   5.897  0.0077  0.9015 -2.3938
  562MOL0     H77524  11.016   8.965   5.947 -0.3267  0.2738 -1.8614
  562MOL0     H77525  11.090   8.902   5.802  1.2475 -3.5687 -1.3833
  562MOL0     H77526  11.281   8.812   5.905  1.5517  1.2341  0.5035
  562MOL0     H77527  11.232   8.854   6.076  0.7452 -0.2463 -0.2605
  562MOL0     H77528  11.279   9.062   5.845  2.6729  1.9021 -0.5171
  562MOL0     H77529  11.258   9.099   6.009 -1.0444  0.4532 -1.0493
  562MOL0     H77530  11.488   8.935   5.900 -2.2631 -2.1775  0.9391
  562MOL0     H77531  11.483   8.993   6.062  2.0421  1.5884 -0.1876
  562MOL0     H77532  11.483   9.224   6.004  0.3042  2.5363 -1.0739
  562MOL0     H77533  11.474   9.196   5.832 -3.0013 -0.8009  1.3754
  562MOL0     H77534  11.710   9.085   5.993  2.5433  1.4572 -1.1316
  562MOL0     H77535  11.716   9.244   5.919  2.2997 -1.8622 -0.0920
  562MOL0     H77536  10.669   9.045   5.912  0.0722  0.7805 -1.0350
  562MOL0     H77537  10.423   9.061   5.856  0.3449 -1.2613 -4.7316
  562MOL0     H77538  10.052   8.782   5.973 -0.0671 -0.4759 -0.8152
  562MOL0     H77539   9.820   8.733   5.990  0.2635  1.0490  0.8752
  562MOL0     H77540   8.091   9.554   5.597  0.0094  0.2062 -0.9764
  562MOL0     H77541   7.862   9.529   5.665  1.4877  0.8615 -0.1722
  562MOL0     H77542   7.318   9.309   5.405  1.8004  0.4750 -0.0123
  562MOL0     H77543   7.147   9.193   5.524  0.3444  1.4570  0.6477
  562MOL0     H77544   7.284   8.985   5.911 -2.3343  0.7390  3.7835
  562MOL0     H77545   7.109   8.965   5.907  0.2333 -0.0955 -0.2779
  562MOL0     H77546   7.317   8.782   5.785  1.4726 -0.0082  2.4355
  562MOL0     H77547   7.140   8.764   5.740 -1.3273 -3.3224  1.8241
  562MOL0     H77548   7.234   8.602   5.925 -1.2613 -0.8575  0.3866
  562MOL0     H77549   7.264   8.753   6.018 -1.2517  0.8248  0.9032
  562MOL0     H77550   6.999   8.632   5.922 -3.2450 -0.0013  2.3330
  562MOL0     H77551   7.006   8.781   6.031 -0.0689  0.2137  0.8949
  562MOL0     H77552   7.099   8.471   6.305  0.2445  0.0981 -0.1554
  562MOL0     H77553   7.444   9.024   5.790  0.7923  1.5019 -0.0829
  562MOL0     H77554   7.721   9.163   5.604  0.3129  0.0848 -0.1411
  562MOL0     H77555   7.689   9.192   5.771 -1.0592  1.0161  0.8677
  562MOL0     H77556   7.661   9.020   5.693  1.8402  0.4207 -2.8176
  563MOL0     O77557   8.451  10.079   2.970  0.4536  0.3956  0.0065
  563MOL0     C77558   8.415   9.963   2.965  0.5937 -0.6423  0.2987
  563MOL0     O77559   8.483   9.868   2.895  0.0547 -0.0617 -0.4232
  563MOL0     C77560   8.558   9.917   2.787  0.2111  0.7074 -0.8850
  563MOL0     C77561   8.693   9.857   2.782  0.5994  0.3877  0.6250
  563MOL0     C77562   8.792   9.918   2.694  0.5353  0.6140 -0.1716
  563MOL0     C77563   8.756  10.029   2.617  0.2949  0.5853 -0.2936
  563MOL0     O77564   8.849  10.108   2.552 -0.5423  0.5377  0.1285
  563MOL0     C77565   8.993  10.081   2.572 -0.3174  0.4772 -0.4070
  563MOL0     C77566   9.082  10.176   2.492 -0.5122 -0.2926 -0.2757
  563MOL0     C77567   9.105  10.123   2.351 -0.7212 -0.3568 -0.0793
  563MOL0     C77568   9.260  10.105   2.338  0.5758 -0.4228  0.5633
  563MOL0     C77569   9.312   9.970   2.384 -0.2525 -0.3029  0.2222
  563MOL0     C77570   9.463   9.953   2.360  0.5872 -0.9973  0.4208
  563MOL0     C77571   9.564  10.060   2.402 -0.4457 -1.3842  0.1994
  563MOL0     C77572   9.557  10.060   2.560  0.8937  0.4009  0.6532
  563MOL0     N77573   9.661  10.144   2.614 -0.1251  0.2063 -0.1704
  563MOL0     C77574   9.657  10.279   2.614 -0.2923  0.1602 -0.8974
  563MOL0     C77575   9.771  10.313   2.679 -1.2094  0.3779 -0.0781
  563MOL0     C77576   9.811  10.456   2.716  0.5998  0.1764  0.1607
  563MOL0     C77577   9.952  10.472   2.766 -0.3666 -0.4939 -0.7675
  563MOL0     C77578   9.985  10.421   2.907  0.0811 -0.0408 -0.3234
  563MOL0     C77579  10.137  10.415   2.936 -0.3419  0.1937  0.1480
  563MOL0     O77580  10.193  10.548   2.934  0.0480  0.0391 -0.5153
  563MOL0     C77581  10.329  10.570   2.948 -0.0673 -0.8410  0.1772
  563MOL0     C77582  10.422  10.464   2.965 -0.2943  1.0912 -1.1438
  563MOL0     C77583  10.555  10.482   2.993  0.0338  0.6109  1.2763
  563MOL0     C77584  10.646  10.361   2.992  0.1536  0.5197 -0.1511
  563MOL0     C77585  10.601  10.613   2.978  0.1484  0.1048 -0.7229
  563MOL0     C77586  10.747  10.644   2.975 -0.3600  0.5654  0.1641
  563MOL0     O77587  10.833  10.591   3.064 -0.2739  0.3989 -0.3897
  563MOL0     C77588  10.969  10.584   3.036  0.1555 -0.5420  0.7267
  563MOL0     C77589  11.064  10.676   3.073 -0.7613  0.0988  0.8303
  563MOL0     C77590  11.201  10.666   3.036 -0.3418 -1.0702  0.3226
  563MOL0     C77591  11.245  10.554   2.959  0.0352  1.2140 -0.5295
  563MOL0     O77592  11.384  10.549   2.945 -0.6146 -0.1094  0.3926
  563MOL0     C77593  11.439  10.426   2.903  0.3961 -0.2877  0.2240
  563MOL0     C77594  11.442  10.312   3.009  0.3931 -0.0134  0.4286
  563MOL0     C77595  11.566  10.320   3.104  0.9036 -0.6940 -0.2606
  563MOL0     C77596  11.612  10.186   3.158 -0.4743  0.2015  0.1289
  563MOL0     C77597  11.745  10.196   3.234 -0.2240  0.5779 -0.0924
  563MOL0     C77598  11.809  10.056   3.273  0.4204  0.1230 -0.2509
  563MOL0     C77599  11.813   9.940   3.172  0.2084 -0.1621  0.7343
  563MOL0     C77600  11.924   9.835   3.193  0.6756  0.6033  0.2745
  563MOL0    Cl77601  11.925   9.746   3.356 -0.3906 -0.1039 -0.0561
  563MOL0     C77602  11.146  10.466   2.915  0.1062 -0.2185 -0.1625
  563MOL0     C77603  11.017  10.482   2.952 -0.1050  0.2181  0.0598
  563MOL0     O77604  10.779  10.720   2.883 -0.7352  0.2606 -0.9820
  563MOL0     C77605  10.515  10.719   2.957 -0.2425  0.2263 -0.0413
  563MOL0     C77606  10.379  10.698   2.946 -0.1249  0.2426 -0.7111
  563MOL0     N77607   9.834  10.197   2.721  0.4439 -0.0071  0.1021
  563MOL0     N77608   9.774  10.092   2.674  0.4620 -0.3243  0.2539
  563MOL0     C77609   8.622  10.073   2.614  0.2730 -0.1522 -0.0682
  563MOL0     C77610   8.530  10.033   2.709 -0.1326 -0.1822 -0.2740
  563MOL0     C77611   8.291   9.920   3.034  0.7188 -1.0176 -0.1632
  563MOL0     C77612   8.218   9.808   2.997 -0.0683  1.0743 -0.8013
  563MOL0     C77613   8.092   9.775   3.063  0.1310  0.1825 -0.0445
  563MOL0     C77614   8.048   9.848   3.174  0.1369  0.4012  0.0308
  563MOL0     O77615   7.946   9.801   3.242  0.3827 -0.1031  1.1054
  563MOL0     C77616   7.863   9.901   3.309 -0.2178 -0.6962 -0.5765
  563MOL0     C77617   7.745   9.833   3.376  0.3719  0.2522  0.1789
  563MOL0     C77618   7.626   9.788   3.283  0.2356  0.3017 -1.0257
  563MOL0     C77619   7.672   9.672   3.195 -0.5541  1.1854 -0.3508
  563MOL0     C77620   7.712   9.722   3.061  0.1584  0.2957  0.7230
  563MOL0     C77621   7.758   9.753   2.953 -0.6408  0.6267 -0.1485
  563MOL0     C77622   8.127   9.963   3.204  0.9588  1.2565 -0.0834
  563MOL0     C77623   8.243  10.005   3.140 -0.0533  0.3136 -0.3881
  563MOL0     C77624   8.319  10.115   3.212 -0.1155 -0.0139  0.6727
  563MOL0     H77625   8.712   9.776   2.851 -0.9979  0.7253  1.5141
  563MOL0     H77626   8.894   9.881   2.694 -0.2882 -1.8722 -1.0497
  563MOL0     H77627   9.019   9.976   2.555  3.2828  0.9917  1.0720
  563MOL0     H77628   9.017  10.104   2.676  3.5875  2.4307 -1.5098
  563MOL0     H77629   9.035  10.274   2.477 -0.2690 -0.4763 -2.6291
  563MOL0     H77630   9.174  10.183   2.550 -1.7682  1.3155  1.6908
  563MOL0     H77631   9.055  10.026   2.342  1.5553 -1.5019 -0.9203
  563MOL0     H77632   9.059  10.186   2.274 -1.0684 -1.3457 -0.6984
  563MOL0     H77633   9.272  10.118   2.230  0.9944  0.2678  0.6849
  563MOL0     H77634   9.306  10.192   2.386  1.1094  0.5487 -1.5482
  563MOL0     H77635   9.260   9.894   2.324  2.6016 -1.3617 -1.1146
  563MOL0     H77636   9.292   9.947   2.489  0.2758 -0.3106  0.3228
  563MOL0     H77637   9.496   9.855   2.396  0.6776 -1.5512 -1.1051
  563MOL0     H77638   9.473   9.956   2.251 -2.8915  0.0648 -0.0048
  563MOL0     H77639   9.550  10.161   2.363  1.1810 -0.0942  2.7488
  563MOL0     H77640   9.665  10.035   2.368  0.7386  0.9916  1.7100
  563MOL0     H77641   9.463  10.106   2.590  1.9279  0.8675  3.4801
  563MOL0     H77642   9.552   9.957   2.598  1.5662  0.8532  2.0584
  563MOL0     H77643   9.587  10.355   2.579 -1.4307 -1.0737 -1.3684
  563MOL0     H77644   9.746  10.493   2.796 -0.1944 -2.0607  0.6247
  563MOL0     H77645   9.801  10.519   2.627 -1.0978 -0.4028 -0.0913
  563MOL0     H77646  10.018  10.414   2.701  1.1232 -0.0086  0.2434
  563MOL0     H77647   9.981  10.577   2.761 -0.5118 -0.2273  2.1573
  563MOL0     H77648   9.940  10.477   2.989  0.4830  0.5082 -0.4747
  563MOL0     H77649   9.946  10.319   2.916  2.0381 -1.0765 -2.3911
  563MOL0     H77650  10.143  10.391   3.042  1.2668 -0.6837 -0.1155
  563MOL0     H77651  10.190  10.341   2.876  0.3944  0.6055  0.2722
  563MOL0     H77652  10.381  10.364   2.967 -0.3873  1.1292 -1.2129
  563MOL0     H77653  10.734  10.360   3.058  0.4967 -0.0430 -0.6024
  563MOL0     H77654  10.671  10.338   2.888 -3.5844 -0.3662 -0.9848
  563MOL0     H77655  10.587  10.276   3.026  0.0651  0.5087 -0.3356
  563MOL0     H77656  11.027  10.762   3.129 -1.6215  0.0329  0.3759
  563MOL0     H77657  11.275  10.741   3.062 -1.7414  1.0807 -1.5324
  563MOL0     H77658  11.381  10.392   2.816  0.1991  1.1028 -0.2112
  563MOL0     H77659  11.537  10.449   2.859 -0.6115 -0.6676 -2.4632
  563MOL0     H77660  11.356  10.311   3.076  0.1189 -0.7472  0.0793
  563MOL0     H77661  11.432  10.219   2.953  0.3705 -0.5086  1.2434
  563MOL0     H77662  11.543  10.384   3.190 -1.5487 -1.1479 -0.4948
  563MOL0     H77663  11.652  10.364   3.052  2.0320 -1.4553  0.9048
  563MOL0     H77664  11.624  10.116   3.075  3.1918 -0.8728  1.3732
  563MOL0     H77665  11.544  10.140   3.230  0.0208 -2.1959 -0.8378
  563MOL0     H77666  11.816  10.259   3.180 -0.0170  1.7310  1.4697
  563MOL0     H77667  11.713  10.255   3.321 -2.3053  1.1740 -1.1851
  563MOL0     H77668  11.762  10.011   3.361  3.3755 -1.2709  0.7625
  563MOL0     H77669  11.914  10.072   3.299  0.6316 -1.6418  0.1613
  563MOL0     H77670  11.831   9.982   3.073 -2.3069 -0.2154  0.1632
  563MOL0     H77671  11.719   9.883   3.165  1.0127 -1.7397  2.0826
  563MOL0     H77672  12.024   9.878   3.179  0.7118  1.1902  2.1331
  563MOL0     H77673  11.903   9.751   3.127  2.5892 -0.1698  0.5753
  563MOL0     H77674  11.180  10.382   2.855 -0.3318 -0.5167  0.0051
  563MOL0     H77675  10.939  10.412   2.925  1.9330 -1.6481 -1.3766
  563MOL0     H77676  10.549  10.821   2.953  0.7038 -0.0928 -0.2858
  563MOL0     H77677  10.316  10.785   2.954  2.3890  2.3709 -2.2098
  563MOL0     H77678   8.597  10.158   2.551 -2.7035 -1.7303 -1.2013
  563MOL0     H77679   8.435  10.085   2.712 -0.6934 -1.1805 -0.1629
  563MOL0     H77680   8.257   9.736   2.925  0.0071 -0.5895  0.8308
  563MOL0     H77681   8.041   9.681   3.044 -1.5375  1.4992 -2.6129
  563MOL0     H77682   7.905   9.958   3.393 -0.6988 -1.7813  0.4255
  563MOL0     H77683   7.835   9.985   3.245  1.0261  0.2534  0.0843
  563MOL0     H77684   7.703   9.896   3.454 -0.8318 -2.1835  1.6100
  563MOL0     H77685   7.782   9.751   3.438  0.6291  0.8542  0.8265
  563MOL0     H77686   7.554   9.752   3.358  1.7265 -0.5043  0.0739
  563MOL0     H77687   7.588   9.873   3.226  0.1336 -0.1206 -1.5929
  563MOL0     H77688   7.602   9.590   3.179  1.8955 -0.8117 -1.3985
  563MOL0     H77689   7.755   9.628   3.252 -2.7808 -1.6736  0.9034
  563MOL0     H77690   7.805   9.764   2.857  3.8322 -1.4913  1.5474
  563MOL0     H77691   8.096  10.016   3.294 -0.3783  2.7834 -1.3696
  563MOL0     H77692   8.284  10.135   3.314 -2.8767 -3.6224  0.6298
  563MOL0     H77693   8.426  10.091   3.212  0.0675  0.7214 -0.0149
  563MOL0     H77694   8.314  10.199   3.142 -0.1019 -1.1970 -0.7825
  564MOL0     O77695   9.674   3.164   3.521  0.8565  0.5358  0.1906
  564MOL0     C77696   9.667   3.187   3.402  0.0003  0.0672 -0.2659
  564MOL0     O77697   9.771   3.205   3.316 -0.0741  0.3185 -0.3147
  564MOL0     C77698   9.891   3.225   3.376 -0.4870 -0.1502 -0.1143
  564MOL0     C77699   9.986   3.123   3.374 -0.3354 -1.0262  0.6210
  564MOL0     C77700  10.106   3.144   3.448 -1.3453  0.9102 -0.7863
  564MOL0     C77701  10.124   3.254   3.527 -0.5272 -0.1112 -0.4911
  564MOL0     O77702  10.233   3.289   3.607  0.5337  0.0309 -0.3019
  564MOL0     C77703  10.353   3.205   3.602 -0.0398  0.8905 -0.4065
  564MOL0     C77704  10.481   3.258   3.666  0.2069  0.1558  0.3454
  564MOL0     C77705  10.574   3.139   3.708  0.0434 -0.4022  0.2939
  564MOL0     C77706  10.704   3.190   3.761  0.5132 -0.0277 -0.5878
  564MOL0     C77707  10.801   3.079   3.786  0.2859  0.7830  0.1696
  564MOL0     C77708  10.924   3.130   3.860  0.4731 -0.5404  0.0957
  564MOL0     C77709  11.044   3.036   3.829 -0.4617  0.7833  0.5577
  564MOL0     C77710  11.171   3.110   3.860 -0.6541  0.6561  0.1192
  564MOL0     N77711  11.283   3.017   3.831 -0.5703  0.0106  0.4185
  564MOL0     C77712  11.300   2.893   3.891  0.3021  0.3267 -0.2401
  564MOL0     C77713  11.419   2.843   3.858 -1.4580 -0.3586 -0.6811
  564MOL0     C77714  11.494   2.717   3.909  0.7133  0.5305 -0.1982
  564MOL0     C77715  11.643   2.738   3.892 -0.2074  0.1023 -0.2779
  564MOL0     C77716  11.720   2.646   3.985 -0.3732  0.5278  0.5037
  564MOL0     C77717  11.865   2.695   3.984 -0.8777  0.0157 -0.5714
  564MOL0     O77718  11.917   2.692   3.852  0.1357  0.1047  1.1730
  564MOL0     C77719  12.043   2.735   3.836 -0.6242  0.2738 -0.6929
  564MOL0     C77720  12.113   2.716   3.716 -0.2721  0.7665  0.5939
  564MOL0     C77721  12.238   2.778   3.692 -0.3099  0.2596  0.3733
  564MOL0     C77722  12.283   2.758   3.545 -0.1615  0.6597 -0.4793
  564MOL0     C77723  12.311   2.843   3.795 -0.8704 -0.7209  0.1421
  564MOL0     C77724  12.449   2.891   3.773  0.3497 -0.3898 -0.1511
  564MOL0     O77725  12.498   2.948   3.887  0.4153 -0.8390  0.3403
  564MOL0     C77726  12.634   2.963   3.889  0.3833  0.5960  0.3599
  564MOL0     C77727  12.698   2.844   3.942 -0.7624 -0.3803  1.2294
  564MOL0     C77728  12.832   2.849   3.986  0.4545 -0.0033  0.2281
  564MOL0     C77729  12.914   2.952   3.937 -0.4145  0.5573 -1.2178
  564MOL0     O77730  13.050   2.956   3.969 -0.6283 -0.0170 -0.5129
  564MOL0     C77731  13.113   2.832   3.997 -0.0423 -0.5654 -1.1137
  564MOL0     C77732  13.256   2.836   3.988 -0.4872  0.7138  0.2588
  564MOL0     C77733  13.304   2.835   3.840  1.5386  0.1802 -0.2742
  564MOL0     C77734  13.442   2.799   3.807 -0.2911  0.3320  0.1044
  564MOL0     C77735  13.458   2.709   3.685 -0.1159 -0.4420 -0.2306
  564MOL0     C77736  13.585   2.630   3.692  0.3418  0.4345 -0.4109
  564MOL0     C77737  13.612   2.556   3.564  0.1241  0.4242  0.1514
  564MOL0     C77738  13.723   2.449   3.578 -0.7388  0.2994 -0.1560
  564MOL0    Cl77739  13.671   2.313   3.678  0.2442 -0.3254 -0.2207
  564MOL0     C77740  12.854   3.057   3.875  0.2251 -0.0442 -0.0826
  564MOL0     C77741  12.717   3.065   3.847 -0.4442 -0.2729  0.7085
  564MOL0     O77742  12.509   2.884   3.667 -0.4642  0.0641 -0.3392
  564MOL0     C77743  12.248   2.854   3.918 -0.9967 -0.6545 -0.1160
  564MOL0     C77744  12.122   2.793   3.941  0.3692  0.1576  0.0695
  564MOL0     N77745  11.475   2.936   3.775  0.1705 -0.5658  0.3233
  564MOL0     N77746  11.390   3.027   3.751 -0.3913 -0.2608 -0.6008
  564MOL0     C77747  10.026   3.358   3.524 -0.6402  0.0305 -0.5526
  564MOL0     C77748   9.913   3.342   3.447 -0.3416 -0.4796 -0.4754
  564MOL0     C77749   9.537   3.184   3.337  0.8386  0.1854  0.3252
  564MOL0     C77750   9.528   3.119   3.207  0.3112  0.3111  0.3610
  564MOL0     C77751   9.397   3.101   3.156 -0.8144 -0.4366 -0.2441
  564MOL0     C77752   9.288   3.154   3.215 -0.0588 -0.3724  0.0568
  564MOL0     O77753   9.180   3.138   3.138  0.5882  0.3558  0.1656
  564MOL0     C77754   9.067   3.232   3.150  0.0304 -0.6903 -0.1311
  564MOL0     C77755   8.999   3.258   3.010 -0.3131  0.7044 -0.7176
  564MOL0     C77756   8.852   3.220   3.005  0.5383 -0.0910 -1.5553
  564MOL0     C77757   8.837   3.066   2.994  0.5024 -0.5179 -0.2043
  564MOL0     C77758   8.691   3.033   3.000  0.0146  0.0491  0.3778
  564MOL0     C77759   8.576   2.992   2.999  0.1606 -0.1054  0.9229
  564MOL0     C77760   9.290   3.221   3.328 -0.9873 -0.4178  0.1217
  564MOL0     C77761   9.414   3.225   3.402  0.2365 -0.0081 -0.0427
  564MOL0     C77762   9.408   3.259   3.550  0.4830  0.3315 -0.7277
  564MOL0     H77763   9.960   3.027   3.331  0.5347 -0.6965 -0.6891
  564MOL0     H77764  10.180   3.066   3.462 -2.7212 -0.1122  1.3777
  564MOL0     H77765  10.376   3.181   3.498  1.4620 -2.9113  0.6279
  564MOL0     H77766  10.339   3.107   3.650  1.0477  1.5891  1.4260
  564MOL0     H77767  10.522   3.331   3.596 -0.1075  0.3535  0.3642
  564MOL0     H77768  10.457   3.316   3.755 -2.1586  0.4972 -0.4337
  564MOL0     H77769  10.525   3.076   3.783  0.2811  0.1436  0.9303
  564MOL0     H77770  10.595   3.073   3.624 -2.3549 -1.5535  0.5462
  564MOL0     H77771  10.740   3.271   3.697 -0.6640  0.4624 -0.6627
  564MOL0     H77772  10.683   3.243   3.855  0.5942 -3.5762  1.5994
  564MOL0     H77773  10.829   3.039   3.688 -0.0631 -2.7364  1.3463
  564MOL0     H77774  10.757   2.996   3.842 -0.1414  0.0734 -1.1560
  564MOL0     H77775  10.952   3.229   3.823 -2.0998 -0.1297 -0.9368
  564MOL0     H77776  10.898   3.143   3.966  1.4016 -1.6460  0.4805
  564MOL0     H77777  11.043   3.008   3.723  0.6831 -0.5101  0.8625
  564MOL0     H77778  11.036   2.947   3.892 -0.9070  0.9491  0.7425
  564MOL0     H77779  11.153   3.206   3.809 -2.3244  0.8879  1.0473
  564MOL0     H77780  11.184   3.137   3.965 -0.4447  0.7250  0.0762
  564MOL0     H77781  11.237   2.852   3.969 -1.6071  2.2832 -0.6645
  564MOL0     H77782  11.469   2.638   3.837 -1.0682  0.8138  0.0534
  564MOL0     H77783  11.466   2.684   4.009  3.8819  1.0044  0.9418
  564MOL0     H77784  11.665   2.728   3.785 -1.3669  0.0258 -0.5193
  564MOL0     H77785  11.667   2.842   3.915 -0.1234  0.4786 -1.8908
  564MOL0     H77786  11.682   2.633   4.087 -0.8851 -0.2434  0.2226
  564MOL0     H77787  11.726   2.548   3.938  0.8802  1.0808 -0.5593
  564MOL0     H77788  11.867   2.802   4.010 -2.3226  0.7890 -3.3146
  564MOL0     H77789  11.929   2.630   4.045 -0.8725  0.7724  0.2600
  564MOL0     H77790  12.063   2.663   3.636  1.2596  0.7042 -0.3624
  564MOL0     H77791  12.243   2.845   3.491 -3.0080  1.2932  2.3435
  564MOL0     H77792  12.234   2.670   3.503 -2.6094  0.6498  2.0829
  564MOL0     H77793  12.391   2.752   3.529 -0.4300  1.5135 -3.0683
  564MOL0     H77794  12.637   2.761   3.977 -1.4319 -1.3421 -1.8622
  564MOL0     H77795  12.869   2.768   4.049 -1.1654 -0.8990  0.0962
  564MOL0     H77796  13.079   2.800   4.096 -2.6980 -0.9200 -2.0711
  564MOL0     H77797  13.063   2.763   3.929 -0.4902 -1.8098  0.4341
  564MOL0     H77798  13.306   2.919   4.038 -0.4752 -0.0138  1.4839
  564MOL0     H77799  13.294   2.744   4.033 -1.4152 -1.0904 -2.3544
  564MOL0     H77800  13.274   2.929   3.794  0.1906 -1.8033 -3.8583
  564MOL0     H77801  13.243   2.756   3.795  0.2733  1.2965 -0.5621
  564MOL0     H77802  13.476   2.739   3.892 -2.1707  0.0542  0.7031
  564MOL0     H77803  13.514   2.882   3.801  0.2453 -0.1650 -0.5416
  564MOL0     H77804  13.373   2.641   3.675 -0.3083 -0.2879  0.3614
  564MOL0     H77805  13.445   2.778   3.601  2.1413  2.0738  1.3341
  564MOL0     H77806  13.588   2.564   3.779 -3.3878  0.1245 -0.3551
  564MOL0     H77807  13.672   2.695   3.699  0.4074  0.7597 -3.1828
  564MOL0     H77808  13.645   2.621   3.483  0.5693  0.1167  0.0838
  564MOL0     H77809  13.519   2.508   3.534 -0.3608  1.4406 -0.0105
  564MOL0     H77810  13.814   2.501   3.610 -0.7936  1.2023 -1.3821
  564MOL0     H77811  13.744   2.408   3.479  0.5926  0.3856  0.0626
  564MOL0     H77812  12.912   3.141   3.837 -0.5060  0.0860 -0.9314
  564MOL0     H77813  12.664   3.144   3.795 -0.8598 -1.2970 -0.4814
  564MOL0     H77814  12.293   2.910   3.999  1.3024 -1.7788 -0.5478
  564MOL0     H77815  12.079   2.797   4.041  0.1687 -0.0886 -0.0060
  564MOL0     H77816  10.032   3.441   3.593 -3.6907 -0.8478  0.9439
  564MOL0     H77817   9.843   3.423   3.428  1.8177  1.3541 -0.9937
  564MOL0     H77818   9.608   3.074   3.150 -0.1193  0.3906 -0.3239
  564MOL0     H77819   9.378   3.063   3.057 -0.5831  0.6532 -0.7233
  564MOL0     H77820   8.997   3.189   3.221 -0.7078  1.6264  0.6427
  564MOL0     H77821   9.093   3.329   3.194  0.4301 -0.3954 -0.9853
  564MOL0     H77822   9.037   3.183   2.940 -1.3003 -3.1356  2.4922
  564MOL0     H77823   9.021   3.360   2.975 -1.2195  1.8765  1.9027
  564MOL0     H77824   8.797   3.247   3.096 -2.3785  0.7109 -3.4172
  564MOL0     H77825   8.791   3.262   2.924 -2.8328  4.0379  2.5851
  564MOL0     H77826   8.895   3.013   3.070  1.2231  0.0762 -0.3162
  564MOL0     H77827   8.888   3.029   2.904  0.4311 -0.9894 -0.0514
  564MOL0     H77828   8.473   2.961   3.000  0.1755 -0.4698 -1.6689
  564MOL0     H77829   9.207   3.259   3.387  0.0692  1.2423  0.6051
  564MOL0     H77830   9.434   3.177   3.618  1.0136  0.9299 -0.1917
  564MOL0     H77831   9.484   3.338   3.555  3.3829 -1.9403 -3.9496
  564MOL0     H77832   9.308   3.289   3.581  1.8967  1.9078  2.9601
  565MOL0     O77833   6.993   7.268   5.797 -0.1612 -0.6304  0.0324
  565MOL0     C77834   6.915   7.241   5.892 -0.2630 -0.3704  0.8067
  565MOL0     O77835   6.945   7.173   6.007  0.1485  0.3586 -0.2109
  565MOL0     C77836   7.076   7.127   6.005 -0.0973  0.8005 -0.2342
  565MOL0     C77837   7.179   7.215   6.042 -0.1220  0.2035  0.1229
  565MOL0     C77838   7.317   7.185   6.044  0.1083  0.4443  0.2078
  565MOL0     C77839   7.360   7.053   6.006 -0.5629 -0.3416 -0.8129
  565MOL0     O77840   7.489   7.017   6.014 -0.1501  0.8508  0.2061
  565MOL0     C77841   7.586   7.098   5.960 -0.0581  0.1357  0.1668
  565MOL0     C77842   7.685   6.998   5.898  1.4324 -0.2986  0.2338
  565MOL0     C77843   7.763   6.929   6.003  0.0631  0.1917 -0.4686
  565MOL0     C77844   7.848   6.816   5.941 -0.6548  0.2333  0.1256
  565MOL0     C77845   7.906   6.725   6.048 -0.1696 -0.2971  0.2158
  565MOL0     C77846   8.010   6.798   6.133 -0.7156 -0.2157  0.3017
  565MOL0     C77847   8.057   6.709   6.259  0.7162 -0.1874  0.8525
  565MOL0     C77848   8.157   6.595   6.219 -0.6583  0.5577  0.3789
  565MOL0     N77849   8.298   6.617   6.259 -0.5541 -0.1951 -0.5037
  565MOL0     C77850   8.374   6.731   6.226 -0.1023  0.7463 -0.2534
  565MOL0     C77851   8.489   6.727   6.296  0.6480  0.9380  0.2077
  565MOL0     C77852   8.609   6.820   6.309 -0.2057  0.3544 -0.3212
  565MOL0     C77853   8.672   6.888   6.188 -0.2035  0.2481  0.0909
  565MOL0     C77854   8.798   6.973   6.202 -0.5246  0.0040 -0.7980
  565MOL0     C77855   8.915   6.908   6.291  0.6634 -0.2132 -0.3549
  565MOL0     O77856   8.933   6.774   6.248 -0.2780  0.0683 -0.1290
  565MOL0     C77857   9.033   6.698   6.298  0.7032 -0.7530 -0.5789
  565MOL0     C77858   9.106   6.609   6.217  0.0421  0.6085  0.3186
  565MOL0     C77859   9.209   6.525   6.276 -0.0126 -1.1681 -0.0969
  565MOL0     C77860   9.275   6.420   6.194  0.5143  0.1137  0.1889
  565MOL0     C77861   9.238   6.540   6.416 -0.2786  0.0110  0.8205
  565MOL0     C77862   9.337   6.463   6.496 -0.2966  0.2325 -0.2960
  565MOL0     O77863   9.374   6.521   6.611 -0.1855 -0.2466 -0.5913
  565MOL0     C77864   9.470   6.465   6.686 -0.2449 -0.0579  0.2424
  565MOL0     C77865   9.607   6.454   6.636  0.0064  0.0582 -0.9166
  565MOL0     C77866   9.702   6.399   6.712 -0.1354  0.6086  0.6933
  565MOL0     C77867   9.669   6.345   6.836 -0.4066  0.2853 -1.0666
  565MOL0     O77868   9.771   6.282   6.902  0.0729 -0.2744 -0.6080
  565MOL0     C77869   9.757   6.270   7.044  0.2949 -0.5938  0.0129
  565MOL0     C77870   9.888   6.199   7.087 -0.2829 -0.4231 -0.2543
  565MOL0     C77871  10.004   6.306   7.083  0.1429  0.0327 -0.1859
  565MOL0     C77872  10.123   6.245   7.155 -0.5286 -0.3248 -0.2177
  565MOL0     C77873  10.251   6.313   7.119 -0.6459 -0.2143  0.2290
  565MOL0     C77874  10.317   6.272   6.977 -0.2695  0.1704  0.3596
  565MOL0     C77875  10.425   6.367   6.942  0.3211  0.3030  0.8586
  565MOL0     C77876  10.445   6.373   6.789  0.2326  0.2772 -0.3745
  565MOL0    Cl77877  10.465   6.213   6.734 -0.0892 -0.4841 -0.7687
  565MOL0     C77878   9.543   6.366   6.896 -0.4070  0.3346  0.8493
  565MOL0     C77879   9.440   6.416   6.810 -0.0024 -0.6014 -0.3747
  565MOL0     O77880   9.379   6.352   6.458 -0.4772  0.7000 -0.4935
  565MOL0     C77881   9.173   6.647   6.487  0.3604 -0.6095 -0.2158
  565MOL0     C77882   9.079   6.724   6.429 -0.1498 -0.6008 -0.5079
  565MOL0     N77883   8.468   6.621   6.378  0.2692 -0.2504  0.3613
  565MOL0     N77884   8.355   6.557   6.368  1.1293  0.0747 -0.6097
  565MOL0     C77885   7.254   6.958   5.982  0.2441  0.5541 -0.5721
  565MOL0     C77886   7.113   6.989   5.981  0.4427 -0.1514 -0.0017
  565MOL0     C77887   6.774   7.281   5.890  0.3486  0.5082 -0.6036
  565MOL0     C77888   6.687   7.225   5.992 -0.0248 -0.1805  0.1037
  565MOL0     C77889   6.551   7.257   5.990 -0.2282  0.5866 -0.0400
  565MOL0     C77890   6.504   7.348   5.902  0.1154  0.3524  0.1944
  565MOL0     O77891   6.373   7.398   5.885 -0.4212  0.2301 -0.4917
  565MOL0     C77892   6.268   7.370   5.986  0.0910  0.2983  0.0890
  565MOL0     C77893   6.200   7.236   5.964  0.0011 -0.1801  0.3448
  565MOL0     C77894   6.179   7.203   5.823  0.1924  0.2992 -0.1987
  565MOL0     C77895   6.098   7.311   5.755 -0.7013 -0.4598  0.1523
  565MOL0     C77896   5.966   7.342   5.809 -0.3426  0.2963  0.6111
  565MOL0     C77897   5.866   7.387   5.859  0.2368  0.4833  0.0405
  565MOL0     C77898   6.585   7.411   5.818  0.1223  0.1173  0.0867
  565MOL0     C77899   6.715   7.373   5.800 -0.0312 -0.4981 -0.1868
  565MOL0     C77900   6.778   7.429   5.679 -0.5462 -0.3525 -0.1342
  565MOL0     H77901   7.149   7.316   6.067  2.6966  0.9283  0.9531
  565MOL0     H77902   7.378   7.271   6.069 -0.3862  0.8563  0.0081
  565MOL0     H77903   7.636   7.159   6.036  0.2677  0.3713 -0.2310
  565MOL0     H77904   7.551   7.175   5.890 -1.9620  0.8399  1.7868
  565MOL0     H77905   7.628   6.926   5.837 -1.6182  1.7095  0.5161
  565MOL0     H77906   7.759   7.046   5.835  1.3568 -0.0325  0.3496
  565MOL0     H77907   7.830   6.999   6.053 -0.8682  0.5798  0.2799
  565MOL0     H77908   7.697   6.890   6.081  0.0647  1.9239  0.4659
  565MOL0     H77909   7.782   6.746   5.887  3.5208 -4.1505  0.0065
  565MOL0     H77910   7.924   6.850   5.869  0.6640 -3.5813 -0.5436
  565MOL0     H77911   7.965   6.649   5.997  1.1164  0.1825  0.9375
  565MOL0     H77912   7.821   6.698   6.112 -0.6568  0.1077 -0.2424
  565MOL0     H77913   8.095   6.830   6.072 -0.6613  0.9770  0.9734
  565MOL0     H77914   7.958   6.891   6.157  1.4141  1.8662 -2.4867
  565MOL0     H77915   7.967   6.673   6.309  0.9043 -0.2275  1.1677
  565MOL0     H77916   8.119   6.776   6.321  2.9323 -0.0626 -1.3377
  565MOL0     H77917   8.128   6.505   6.276  2.1351 -1.9163 -1.7769
  565MOL0     H77918   8.148   6.568   6.114 -0.8500 -3.1717  1.2015
  565MOL0     H77919   8.340   6.800   6.149  0.0016  0.6367 -0.3966
  565MOL0     H77920   8.688   6.759   6.354  0.1943  1.2144  0.1678
  565MOL0     H77921   8.581   6.906   6.371 -0.0704  0.4566 -0.4034
  565MOL0     H77922   8.689   6.815   6.109 -1.7845  0.2302 -0.2736
  565MOL0     H77923   8.590   6.944   6.143 -0.5814  0.2447  0.7618
  565MOL0     H77924   8.849   7.011   6.113  4.1191 -0.2668  1.4656
  565MOL0     H77925   8.787   7.063   6.264 -0.2940 -0.9673  0.6854
  565MOL0     H77926   9.005   6.969   6.281  1.4516 -1.3187 -0.1972
  565MOL0     H77927   8.880   6.911   6.394  0.6031  0.0362 -0.3822
  565MOL0     H77928   9.082   6.594   6.112 -1.1599  0.4742  0.6059
  565MOL0     H77929   9.383   6.406   6.202  1.0195  2.2476 -2.0121
  565MOL0     H77930   9.261   6.442   6.088  0.1435  0.3063  0.2753
  565MOL0     H77931   9.230   6.322   6.216  0.2213  0.2996  0.4218
  565MOL0     H77932   9.634   6.492   6.537  0.9671 -2.2875 -1.6228
  565MOL0     H77933   9.803   6.392   6.673 -0.6684  1.3844 -0.8979
  565MOL0     H77934   9.755   6.371   7.086  3.6317 -1.1228  1.8630
  565MOL0     H77935   9.669   6.214   7.077 -0.3087  0.4700  0.2543
  565MOL0     H77936   9.887   6.156   7.188  1.8752  2.1831  0.9884
  565MOL0     H77937   9.915   6.122   7.014  2.4175  2.1180 -2.1716
  565MOL0     H77938   9.973   6.401   7.128  1.5439  1.4647 -2.0540
  565MOL0     H77939  10.027   6.322   6.977  0.0025  1.3586 -0.0317
  565MOL0     H77940  10.139   6.140   7.128  0.6863 -0.0441 -0.6529
  565MOL0     H77941  10.100   6.247   7.262 -1.0856  1.5134 -0.3480
  565MOL0     H77942  10.225   6.419   7.124  0.8635  0.1029  3.1368
  565MOL0     H77943  10.331   6.300   7.192  1.2641  0.5468 -1.6176
  565MOL0     H77944  10.236   6.278   6.903  0.3461  2.8167 -0.1961
  565MOL0     H77945  10.357   6.171   6.983 -0.5960 -0.0802 -1.1751
  565MOL0     H77946  10.524   6.337   6.979  0.8013  1.5730  0.6718
  565MOL0     H77947  10.402   6.465   6.985 -0.1546  0.1748  0.8982
  565MOL0     H77948  10.533   6.437   6.784  0.2308  0.2242 -1.4986
  565MOL0     H77949  10.359   6.418   6.738 -0.0650 -0.4906 -0.5753
  565MOL0     H77950   9.526   6.320   6.993  1.7574 -0.3118  0.9711
  565MOL0     H77951   9.335   6.426   6.835 -0.5971 -0.4895 -2.6528
  565MOL0     H77952   9.190   6.669   6.592 -1.5613  0.5759 -0.1006
  565MOL0     H77953   9.025   6.791   6.494 -0.4415 -2.5778  1.3936
  565MOL0     H77954   7.293   6.860   5.958 -1.8353 -0.1675 -1.2635
  565MOL0     H77955   7.045   6.908   5.957  1.6675 -1.4750  0.8028
  565MOL0     H77956   6.719   7.158   6.072 -4.6351  0.6159  3.0221
  565MOL0     H77957   6.492   7.203   6.064  0.4363 -0.2677 -0.1243
  565MOL0     H77958   6.305   7.378   6.089  1.4168  3.6995 -0.5031
  565MOL0     H77959   6.184   7.440   5.986 -1.0698 -1.0094  1.7662
  565MOL0     H77960   6.106   7.240   6.020  1.5210  1.7961  2.9506
  565MOL0     H77961   6.268   7.159   6.001  1.3970  0.4552 -0.8272
  565MOL0     H77962   6.277   7.192   5.775  0.7886  2.2015  0.4934
  565MOL0     H77963   6.122   7.109   5.828 -1.9428  1.4741 -1.0523
  565MOL0     H77964   6.075   7.278   5.654  1.0014  3.5788 -1.8069
  565MOL0     H77965   6.162   7.400   5.749  2.1238 -2.4541 -1.9515
  565MOL0     H77966   5.782   7.429   5.910  0.2965  2.9498 -1.7068
  565MOL0     H77967   6.546   7.475   5.740  0.0963  1.6827  1.3195
  565MOL0     H77968   6.725   7.524   5.668  0.9782  0.7238  1.3540
  565MOL0     H77969   6.886   7.444   5.681 -0.6486  0.3184  1.5619
  565MOL0     H77970   6.760   7.364   5.593  0.5265  1.7143 -2.0436
  566MOL0     O77971   2.778  10.786   0.157  0.4342 -0.5139 -0.1071
  566MOL0     C77972   2.716  10.838   0.062 -0.0159  0.2470 -0.2026
  566MOL0     O77973   2.778  10.897  -0.049  0.1868 -0.0519 -0.0427
  566MOL0     C77974   2.908  10.945  -0.035  0.2200  0.0273 -0.1343
  566MOL0     C77975   2.945  11.039   0.059  0.0487 -0.5424  0.8689
  566MOL0     C77976   3.083  11.090   0.065 -0.1790 -0.1261 -0.3022
  566MOL0     C77977   3.176  11.058  -0.032  0.3948 -0.3551 -0.6745
  566MOL0     O77978   3.300  11.127  -0.035 -0.2902 -0.3907 -0.4643
  566MOL0     C77979   3.401  11.072  -0.119 -0.3290 -0.1798 -0.1033
  566MOL0     C77980   3.532  11.138  -0.074  0.3626 -0.2282 -0.4570
  566MOL0     C77981   3.642  11.062  -0.153  0.2248  0.5936 -0.1698
  566MOL0     C77982   3.651  11.110  -0.297 -0.7628 -0.3022  0.2844
  566MOL0     C77983   3.786  11.052  -0.355 -0.3156 -0.3115  0.2051
  566MOL0     C77984   3.808  11.111  -0.494  0.5305 -0.1331 -0.0981
  566MOL0     C77985   3.957  11.093  -0.530 -0.3604 -0.0046 -0.2081
  566MOL0     C77986   4.000  11.144  -0.668  0.4685  0.3099  0.1412
  566MOL0     N77987   4.142  11.126  -0.707 -0.1995  0.6963  0.1327
  566MOL0     C77988   4.222  11.220  -0.761 -0.3595 -0.1412 -0.4123
  566MOL0     C77989   4.341  11.162  -0.799  0.2847  0.2392 -0.1194
  566MOL0     C77990   4.463  11.221  -0.866  0.0824 -0.4573  0.2594
  566MOL0     C77991   4.471  11.373  -0.840 -0.6901  0.6038 -0.3203
  566MOL0     C77992   4.524  11.382  -0.698  0.5201 -0.0704  1.0668
  566MOL0     C77993   4.537  11.528  -0.651  0.2564  0.0105 -0.2785
  566MOL0     O77994   4.429  11.614  -0.699  0.4237 -0.2411 -0.3798
  566MOL0     C77995   4.303  11.602  -0.634 -0.1862 -0.3578 -0.0300
  566MOL0     C77996   4.271  11.520  -0.526  0.0948 -0.0425  0.0219
  566MOL0     C77997   4.142  11.509  -0.469  0.3959 -0.4187 -0.6933
  566MOL0     C77998   4.114  11.417  -0.355 -0.7811  0.0286 -0.3206
  566MOL0     C77999   4.040  11.602  -0.509 -0.5599 -0.4935  0.3680
  566MOL0     C78000   3.913  11.608  -0.444 -0.8724  0.3313 -0.2167
  566MOL0     O78001   3.875  11.723  -0.390 -0.4690  0.1973  0.1447
  566MOL0     C78002   3.755  11.722  -0.323 -0.0764 -0.4503 -0.7392
  566MOL0     C78003   3.751  11.720  -0.186 -0.1304 -0.6145 -0.2361
  566MOL0     C78004   3.629  11.728  -0.119 -0.6597 -0.2882  0.2578
  566MOL0     C78005   3.509  11.698  -0.189 -0.7558  0.0487 -0.7984
  566MOL0     O78006   3.392  11.696  -0.120  0.2023 -0.0942  0.2172
  566MOL0     C78007   3.350  11.831  -0.088  0.4622 -0.5326 -0.1038
  566MOL0     C78008   3.214  11.826  -0.002 -0.6427 -0.6306 -0.2800
  566MOL0     C78009   3.105  11.738  -0.072  0.1466  0.0938  0.1612
  566MOL0     C78010   2.985  11.734   0.024  0.1134 -0.0404 -1.1965
  566MOL0     C78011   2.887  11.613  -0.004  0.3739  0.2135 -0.9816
  566MOL0     C78012   2.752  11.615   0.079 -0.3224  0.0143  0.4706
  566MOL0     C78013   2.651  11.511   0.024 -0.0884 -0.1317 -0.4927
  566MOL0     C78014   2.546  11.493   0.133 -0.0320  0.3750 -0.2060
  566MOL0    Cl78015   2.475  11.643   0.193 -0.2994 -0.0163  0.1423
  566MOL0     C78016   3.513  11.689  -0.328 -0.4777 -0.3698 -0.1751
  566MOL0     C78017   3.637  11.706  -0.392 -0.5081 -0.1884  0.1400
  566MOL0     O78018   3.842  11.507  -0.450  0.3064 -0.0228  0.4936
  566MOL0     C78019   4.068  11.684  -0.618 -0.2656  0.2707  0.3805
  566MOL0     C78020   4.198  11.685  -0.680  1.2439 -0.6802  0.2697
  566MOL0     N78021   4.331  11.022  -0.773 -0.0665 -0.6556  0.3706
  566MOL0     N78022   4.210  11.010  -0.731  0.1339  0.2716 -0.1507
  566MOL0     C78023   3.146  10.943  -0.121 -0.4250 -0.1299 -0.0378
  566MOL0     C78024   3.017  10.893  -0.118 -0.5318 -0.4472 -0.3464
  566MOL0     C78025   2.569  10.814   0.063 -0.4849  0.3800  0.6760
  566MOL0     C78026   2.501  10.820  -0.061 -0.1371  0.5546  0.4774
  566MOL0     C78027   2.368  10.785  -0.063  0.4569 -0.3892 -0.8244
  566MOL0     C78028   2.285  10.768   0.049 -0.0026  0.1344  0.2173
  566MOL0     O78029   2.156  10.727   0.038 -0.3638 -0.7302  0.0346
  566MOL0     C78030   2.081  10.682   0.149 -0.0296 -0.6634  0.3107
  566MOL0     C78031   2.037  10.793   0.234  0.3797 -0.6905 -0.1264
  566MOL0     C78032   1.924  10.861   0.158  0.8114 -0.7505 -0.1008
  566MOL0     C78033   1.882  10.993   0.218 -0.2546 -0.2067  1.2106
  566MOL0     C78034   1.752  11.037   0.175 -0.0002  0.2313 -0.5222
  566MOL0     C78035   1.656  11.087   0.134 -0.4432  0.5053  1.2527
  566MOL0     C78036   2.356  10.769   0.177 -0.2664  0.4472  0.1311
  566MOL0     C78037   2.494  10.790   0.182 -0.0076 -0.5641 -0.4701
  566MOL0     C78038   2.569  10.817   0.316 -0.3745  0.3174 -0.0813
  566MOL0     H78039   2.871  11.072   0.131  0.6523 -0.8799  1.6554
  566MOL0     H78040   3.120  11.159   0.141  1.8090 -1.1093 -0.2965
  566MOL0     H78041   3.385  11.091  -0.225 -1.8844 -0.8982 -0.0187
  566MOL0     H78042   3.416  10.965  -0.100  1.9420 -0.1316 -1.3020
  566MOL0     H78043   3.525  11.246  -0.087  0.9274 -0.1958 -0.5282
  566MOL0     H78044   3.540  11.120   0.033 -2.4318  1.0409  0.0407
  566MOL0     H78045   3.734  11.085  -0.098  1.9428 -1.6054 -1.9430
  566MOL0     H78046   3.633  10.953  -0.143 -1.5043  0.7808  0.6974
  566MOL0     H78047   3.569  11.075  -0.360 -1.1077  1.6356 -0.3930
  566MOL0     H78048   3.648  11.219  -0.291 -0.6624 -0.2770 -0.0881
  566MOL0     H78049   3.779  10.945  -0.375 -2.6100 -0.0450 -0.7094
  566MOL0     H78050   3.871  11.084  -0.294  1.5881 -2.1727 -1.3106
  566MOL0     H78051   3.734  11.079  -0.567 -0.8658  2.3821  0.0863
  566MOL0     H78052   3.789  11.219  -0.494  0.0129 -0.2039  1.2972
  566MOL0     H78053   3.984  10.988  -0.521  1.6533  0.6103  1.6697
  566MOL0     H78054   4.020  11.153  -0.464  0.4437  1.0303 -1.8424
  566MOL0     H78055   3.935  11.116  -0.752  0.8642  2.1403 -0.8236
  566MOL0     H78056   3.993  11.252  -0.653  1.5402  0.2052  1.6143
  566MOL0     H78057   4.198  11.326  -0.769 -0.6231 -0.0267  1.3657
  566MOL0     H78058   4.476  11.195  -0.971 -1.2084  0.5397 -0.1680
  566MOL0     H78059   4.546  11.161  -0.827 -1.4631 -1.6198  1.9746
  566MOL0     H78060   4.543  11.424  -0.905 -1.0221  2.8530  0.9667
  566MOL0     H78061   4.374  11.421  -0.851 -3.2005 -4.0354 -0.7090
  566MOL0     H78062   4.446  11.332  -0.641 -1.2887 -0.2051 -1.3317
  566MOL0     H78063   4.621  11.335  -0.682  0.8627 -1.3485 -3.3876
  566MOL0     H78064   4.553  11.532  -0.543  0.2348 -0.1676 -0.2692
  566MOL0     H78065   4.624  11.573  -0.700  0.7049  0.9484  1.3384
  566MOL0     H78066   4.347  11.458  -0.481 -0.6397  0.1665  1.6394
  566MOL0     H78067   4.034  11.352  -0.392 -0.1536 -0.0507 -1.6163
  566MOL0     H78068   4.086  11.472  -0.265 -1.0405  1.1746 -1.0744
  566MOL0     H78069   4.194  11.344  -0.341 -1.2573 -1.0408 -2.6566
  566MOL0     H78070   3.847  11.724  -0.135 -0.1087  2.4467 -0.3391
  566MOL0     H78071   3.630  11.738  -0.011  1.1238 -0.8208  0.3129
  566MOL0     H78072   3.419  11.880  -0.019 -0.7586 -1.0598  1.5754
  566MOL0     H78073   3.339  11.890  -0.179 -0.0255  1.0409  0.9369
  566MOL0     H78074   3.239  11.791   0.099  2.9709 -0.3952 -0.9946
  566MOL0     H78075   3.183  11.930   0.009  3.1863  0.6622 -0.5648
  566MOL0     H78076   3.149  11.638  -0.080  2.6510  1.0731  0.8386
  566MOL0     H78077   3.081  11.777  -0.171  0.6562  0.9782  0.3805
  566MOL0     H78078   2.926  11.825   0.009 -0.4392 -0.5520 -2.2922
  566MOL0     H78079   3.010  11.732   0.130  1.1573 -0.8779 -1.4303
  566MOL0     H78080   2.856  11.608  -0.109 -2.2054  4.0729 -0.6391
  566MOL0     H78081   2.949  11.528   0.024 -1.0726 -0.1046  1.6008
  566MOL0     H78082   2.713  11.717   0.072  0.3022  0.1553 -1.9034
  566MOL0     H78083   2.774  11.594   0.184  2.3750  2.4923  0.5312
  566MOL0     H78084   2.691  11.412   0.003 -2.3639 -1.1115 -0.5267
  566MOL0     H78085   2.600  11.549  -0.065  1.6474  1.6479 -0.7992
  566MOL0     H78086   2.597  11.436   0.212  2.7855  1.1045 -1.3539
  566MOL0     H78087   2.458  11.438   0.099  1.2934 -0.8634 -1.8294
  566MOL0     H78088   3.433  11.672  -0.399  1.1071  0.1692 -2.1988
  566MOL0     H78089   3.636  11.693  -0.500  0.4812  2.3096 -0.2470
  566MOL0     H78090   3.994  11.748  -0.665  0.0463 -0.8387 -1.7709
  566MOL0     H78091   4.208  11.756  -0.762 -2.1958  1.7458  1.7488
  566MOL0     H78092   3.224  10.909  -0.189 -0.7847 -2.2468  0.5590
  566MOL0     H78093   2.987  10.814  -0.186 -5.2489 -0.3229  1.2343
  566MOL0     H78094   2.559  10.845  -0.150  0.9992  0.0621  1.0545
  566MOL0     H78095   2.311  10.772  -0.155 -0.5456  2.7565 -0.7826
  566MOL0     H78096   2.003  10.617   0.111  1.0318 -2.2358  0.7076
  566MOL0     H78097   2.151  10.617   0.202  0.5203 -1.0642 -0.8701
  566MOL0     H78098   2.118  10.862   0.261 -1.3981  0.8314  1.6812
  566MOL0     H78099   1.983  10.750   0.319  0.2165 -1.8817 -0.8259
  566MOL0     H78100   1.941  10.880   0.052 -1.5707  2.3445 -0.0791
  566MOL0     H78101   1.838  10.794   0.164  0.5543 -0.4368 -0.2549
  566MOL0     H78102   1.957  11.071   0.201  0.9506 -1.7119 -0.7940
  566MOL0     H78103   1.880  10.984   0.327 -0.1851  0.3927  1.2659
  566MOL0     H78104   1.583  11.143   0.079  1.1731  1.4171 -0.0650
  566MOL0     H78105   2.303  10.753   0.270  0.3206 -0.2191  0.3665
  566MOL0     H78106   2.635  10.904   0.306 -2.7252  1.8910 -4.1511
  566MOL0     H78107   2.503  10.832   0.402 -3.0099 -1.8799 -1.5681
  566MOL0     H78108   2.623  10.724   0.336  0.9043  1.1871  0.6799
  567MOL0     O78109  10.362   8.879   9.071  0.7244 -0.2885 -0.1346
  567MOL0     C78110  10.345   8.921   9.188 -0.5345 -0.0132 -1.0462
  567MOL0     O78111  10.446   8.954   9.274 -0.2200 -0.0953 -0.5946
  567MOL0     C78112  10.570   8.905   9.229  0.0059  0.5056  0.7233
  567MOL0     C78113  10.661   9.000   9.190 -1.7084 -0.1309  0.1704
  567MOL0     C78114  10.792   8.969   9.160  0.2776 -0.8203 -0.2949
  567MOL0     C78115  10.831   8.829   9.151  0.6810  0.3235  0.3997
  567MOL0     O78116  10.961   8.805   9.123  0.7376  0.0981  0.6189
  567MOL0     C78117  11.008   8.671   9.085 -0.1660 -0.2513 -0.3309
  567MOL0     C78118  10.977   8.649   8.940  0.3045 -0.1236  1.3700
  567MOL0     C78119  11.094   8.680   8.844 -0.2228 -0.0398 -0.1749
  567MOL0     C78120  11.056   8.684   8.704  0.2670 -0.6850 -0.3182
  567MOL0     C78121  11.181   8.738   8.619  0.2408 -0.0994  0.2366
  567MOL0     C78122  11.136   8.753   8.472 -0.1887  0.1956  0.4510
  567MOL0     C78123  11.255   8.758   8.383  0.8745 -0.6330 -0.0664
  567MOL0     C78124  11.211   8.816   8.249  0.4612 -0.2232  0.4332
  567MOL0     N78125  11.314   8.822   8.150 -0.3761  0.3573 -0.2425
  567MOL0     C78126  11.363   8.716   8.073 -0.1539 -0.7962  0.4460
  567MOL0     C78127  11.455   8.767   7.988  0.1167 -0.2745  0.0416
  567MOL0     C78128  11.543   8.689   7.899 -0.2779  0.4514  1.1001
  567MOL0     C78129  11.696   8.699   7.935  0.0917 -0.1139 -0.0806
  567MOL0     C78130  11.725   8.650   8.075  0.3068  0.0909  1.0203
  567MOL0     C78131  11.875   8.676   8.098 -0.1446 -1.0686 -0.6054
  567MOL0     O78132  11.968   8.625   8.000  0.5447 -0.4112 -0.3604
  567MOL0     C78133  12.077   8.558   8.058  0.3689  0.5675  0.6212
  567MOL0     C78134  12.156   8.607   8.157  0.3692  0.1924 -0.5323
  567MOL0     C78135  12.264   8.546   8.213  0.2426 -0.4702  0.3961
  567MOL0     C78136  12.327   8.629   8.326  0.7015  0.5948 -0.6377
  567MOL0     C78137  12.316   8.432   8.143  0.5420  0.2323  0.1980
  567MOL0     C78138  12.438   8.373   8.175 -0.6423 -0.8815 -0.3361
  567MOL0     O78139  12.459   8.239   8.161  0.4994  0.1519 -0.2497
  567MOL0     C78140  12.577   8.186   8.202  0.4059  0.5650  0.2542
  567MOL0     C78141  12.702   8.234   8.167  0.4908 -0.0599 -0.1436
  567MOL0     C78142  12.815   8.162   8.193  0.0842  0.5288  0.2217
  567MOL0     C78143  12.809   8.040   8.256  0.3621  0.0341  0.5568
  567MOL0     O78144  12.922   7.978   8.286  0.3452 -0.4825  0.2366
  567MOL0     C78145  13.059   8.019   8.241  0.1757  0.2482  0.0476
  567MOL0     C78146  13.173   7.935   8.312 -0.6626  0.1738  0.1683
  567MOL0     C78147  13.295   7.914   8.223  0.5792 -0.4084  0.4988
  567MOL0     C78148  13.341   8.045   8.146  0.6624  0.3600 -0.0041
  567MOL0     C78149  13.460   8.007   8.052 -0.2338  0.3110  0.0592
  567MOL0     C78150  13.588   7.963   8.124 -0.1571  0.1128  0.3021
  567MOL0     C78151  13.706   7.940   8.022 -0.7177 -0.0761  0.9209
  567MOL0     C78152  13.772   8.070   7.971  0.7201 -0.8019  0.8266
  567MOL0    Cl78153  13.678   8.143   7.836 -0.0410 -0.4852  0.0642
  567MOL0     C78154  12.687   7.996   8.298  0.2016 -1.2075  0.2699
  567MOL0     C78155  12.571   8.064   8.267 -0.6852  0.3112  0.4306
  567MOL0     O78156  12.528   8.453   8.203  0.5629 -0.2122 -0.3176
  567MOL0     C78157  12.242   8.380   8.035 -0.5067 -0.4052  0.0807
  567MOL0     C78158  12.120   8.434   8.001  0.4469  0.1674  0.0111
  567MOL0     N78159  11.449   8.907   8.011  0.2372 -0.2257  0.4153
  567MOL0     N78160  11.387   8.930   8.115  0.5358 -0.5335  0.2179
  567MOL0     C78161  10.733   8.735   9.186  0.2285  0.4988  0.1312
  567MOL0     C78162  10.606   8.773   9.244  0.2215  0.6454 -0.3026
  567MOL0     C78163  10.207   8.912   9.227 -0.5954 -0.1571 -0.0955
  567MOL0     C78164  10.181   8.846   9.351  0.4579 -0.3361  0.3787
  567MOL0     C78165  10.052   8.814   9.378 -0.2495  0.0866 -0.1031
  567MOL0     C78166   9.945   8.844   9.289 -0.1835  0.2632 -0.3993
  567MOL0     O78167   9.819   8.820   9.312 -0.2948 -0.4959 -0.1685
  567MOL0     C78168   9.763   8.846   9.440 -0.8980 -0.2104  0.0654
  567MOL0     C78169   9.610   8.855   9.441 -0.1364  0.3801  1.2631
  567MOL0     C78170   9.554   8.940   9.322 -0.7154  0.6298  0.2124
  567MOL0     C78171   9.599   9.088   9.331  0.0541  0.1945 -0.6983
  567MOL0     C78172   9.506   9.177   9.402 -0.5103 -0.4338  0.0061
  567MOL0     C78173   9.426   9.247   9.459  0.1054  0.5593  0.2420
  567MOL0     C78174   9.969   8.920   9.179  0.7866  0.1045  0.3381
  567MOL0     C78175  10.096   8.952   9.142 -0.6846 -0.6636  0.1559
  567MOL0     C78176  10.113   9.023   9.011 -0.3746 -0.0208 -0.1929
  567MOL0     H78177  10.652   9.108   9.195  1.9163  0.3394 -0.5755
  567MOL0     H78178  10.857   9.050   9.128 -0.5386  0.3659  0.9693
  567MOL0     H78179  10.954   8.599   9.147 -1.4932  1.3846  0.4923
  567MOL0     H78180  11.114   8.661   9.106 -0.3337 -2.2385 -0.2658
  567MOL0     H78181  10.927   8.553   8.927 -1.4205  0.8011  0.8587
  567MOL0     H78182  10.899   8.721   8.914  1.8824  0.7496 -1.2320
  567MOL0     H78183  11.127   8.784   8.859 -1.7252  0.4656 -0.2035
  567MOL0     H78184  11.173   8.607   8.864  0.1614 -0.0004 -1.4453
  567MOL0     H78185  11.025   8.589   8.661 -0.3972 -0.8637  0.5399
  567MOL0     H78186  10.968   8.747   8.689 -0.0801 -0.7816  1.1964
  567MOL0     H78187  11.257   8.660   8.627 -0.6936 -0.9709  0.9324
  567MOL0     H78188  11.216   8.836   8.653 -1.7278 -0.0726  2.4954
  567MOL0     H78189  11.086   8.661   8.440 -1.1482  0.8425  0.0533
  567MOL0     H78190  11.074   8.842   8.467 -0.3357  0.1601  1.4541
  567MOL0     H78191  11.313   8.665   8.378  0.6582 -0.8635  1.3606
  567MOL0     H78192  11.328   8.825   8.430  1.5268 -0.2809 -1.5170
  567MOL0     H78193  11.126   8.760   8.208  0.5494  0.5292 -0.8530
  567MOL0     H78194  11.186   8.922   8.257 -0.6505 -0.4095 -0.2574
  567MOL0     H78195  11.335   8.611   8.081 -0.7876 -0.8330 -1.7321
  567MOL0     H78196  11.530   8.727   7.797 -2.6940  0.5001  1.3747
  567MOL0     H78197  11.516   8.583   7.890 -4.3953  1.3151  1.1909
  567MOL0     H78198  11.758   8.640   7.867 -0.5641 -2.5691  1.3320
  567MOL0     H78199  11.716   8.806   7.925 -1.8687  0.5689  2.2508
  567MOL0     H78200  11.667   8.708   8.147 -1.0654 -0.7373  0.6255
  567MOL0     H78201  11.691   8.546   8.075 -1.3047  0.5887  2.2059
  567MOL0     H78202  11.886   8.784   8.099  2.2709 -1.2551  0.8299
  567MOL0     H78203  11.895   8.641   8.200 -0.4335  0.2061 -0.0999
  567MOL0     H78204  12.125   8.703   8.197 -1.0974 -1.3226  2.2529
  567MOL0     H78205  12.408   8.575   8.375  0.5968  2.0358  1.2652
  567MOL0     H78206  12.247   8.638   8.400  1.5471 -0.2750  0.4229
  567MOL0     H78207  12.361   8.724   8.283  1.1415  0.6025 -0.2774
  567MOL0     H78208  12.696   8.316   8.097 -0.5435 -0.9792 -1.1739
  567MOL0     H78209  12.906   8.201   8.149 -0.1242 -1.2179 -1.9339
  567MOL0     H78210  13.064   7.995   8.134  0.9280  1.6479 -0.2596
  567MOL0     H78211  13.094   8.118   8.269  2.8697 -1.0556  1.6981
  567MOL0     H78212  13.199   7.983   8.407 -0.9839  1.0956 -0.2043
  567MOL0     H78213  13.130   7.836   8.330  1.5548 -0.9399 -0.2948
  567MOL0     H78214  13.263   7.843   8.146  0.2696 -3.3514  3.1239
  567MOL0     H78215  13.377   7.872   8.282  2.6609 -0.0932 -1.9570
  567MOL0     H78216  13.367   8.129   8.211 -2.8000  1.7707 -0.2503
  567MOL0     H78217  13.263   8.080   8.078 -0.4533  0.9328  1.5128
  567MOL0     H78218  13.429   7.935   7.976 -1.2594  0.4955  0.2906
  567MOL0     H78219  13.488   8.100   8.002 -1.9389  1.4215  1.0596
  567MOL0     H78220  13.569   7.867   8.174 -0.3397 -1.4342 -2.5645
  567MOL0     H78221  13.614   8.036   8.202  3.7921 -0.3558 -0.3840
  567MOL0     H78222  13.674   7.886   7.932  0.9927  2.4442 -1.3525
  567MOL0     H78223  13.793   7.887   8.060  2.6174  1.7856 -3.2541
  567MOL0     H78224  13.875   8.045   7.943  1.1523  0.9452  0.7309
  567MOL0     H78225  13.778   8.141   8.054 -3.1454 -0.1581  0.7522
  567MOL0     H78226  12.687   7.903   8.353 -2.1561 -0.7898  1.0843
  567MOL0     H78227  12.481   8.017   8.305 -0.0862 -0.6230  0.7214
  567MOL0     H78228  12.274   8.284   7.994  1.0105 -1.1460  2.7527
  567MOL0     H78229  12.074   8.396   7.911 -0.6562  1.8268 -0.1782
  567MOL0     H78230  10.752   8.628   9.189 -0.2223  0.4289  0.8301
  567MOL0     H78231  10.547   8.699   9.295 -1.1367  1.0312 -1.2502
  567MOL0     H78232  10.266   8.825   9.415  0.5273 -0.5662  0.2142
  567MOL0     H78233  10.038   8.779   9.479 -0.8161  1.8260  0.4671
  567MOL0     H78234   9.796   8.764   9.503  3.3866  1.0663 -0.2547
  567MOL0     H78235   9.811   8.939   9.473  1.3235 -0.3990 -2.3171
  567MOL0     H78236   9.592   8.905   9.537  0.8864  0.7564  1.2727
  567MOL0     H78237   9.565   8.755   9.447 -2.5443  1.2924 -0.0325
  567MOL0     H78238   9.607   8.900   9.236  2.0968 -0.4281  2.2722
  567MOL0     H78239   9.446   8.936   9.305 -0.5190  0.1599 -0.9911
  567MOL0     H78240   9.612   9.117   9.227  0.8247 -0.8023 -0.8915
  567MOL0     H78241   9.695   9.112   9.379 -0.6181  1.1944  0.2130
  567MOL0     H78242   9.351   9.311   9.502 -1.4743 -1.3418  0.4367
  567MOL0     H78243   9.884   8.941   9.115  0.8214  0.7517  0.4954
  567MOL0     H78244  10.210   9.075   9.006 -0.2393  0.4342  3.5341
  567MOL0     H78245  10.101   8.945   8.936 -0.8409 -1.9608  1.7910
  567MOL0     H78246  10.030   9.092   8.992 -1.1297 -1.4413 -2.3305
  568MOL0     O78247   1.148   6.678   7.148 -0.0070 -0.0097  0.8198
  568MOL0     C78248   1.071   6.601   7.091  0.6429 -0.0550  0.1846
  568MOL0     O78249   1.097   6.471   7.070  0.0914  0.3116  1.1148
  568MOL0     C78250   1.225   6.428   7.092 -0.5243 -0.7293  0.8171
  568MOL0     C78251   1.259   6.379   7.210  0.4634  0.4141  0.3255
  568MOL0     C78252   1.397   6.340   7.224  0.1212 -0.5591  0.5909
  568MOL0     C78253   1.496   6.359   7.124 -0.1166 -0.0470 -0.8676
  568MOL0     O78254   1.627   6.314   7.134  0.0979 -0.9661  0.0453
  568MOL0     C78255   1.669   6.232   7.243  0.1089 -0.5300  0.8201
  568MOL0     C78256   1.824   6.237   7.267  0.4039 -0.0664  0.0785
  568MOL0     C78257   1.862   6.154   7.389 -0.6326  0.6184  0.4509
  568MOL0     C78258   1.867   5.996   7.361 -0.2554 -0.0414  0.5274
  568MOL0     C78259   1.954   5.921   7.470  1.2450  0.1485  0.2444
  568MOL0     C78260   2.102   5.964   7.485  0.0925  1.0239  0.1158
  568MOL0     C78261   2.165   5.944   7.630 -0.3916  0.5273 -0.5436
  568MOL0     C78262   2.119   6.040   7.737  0.1087 -0.2559 -0.1217
  568MOL0     N78263   2.134   6.183   7.694  0.1264  0.7862 -0.4697
  568MOL0     C78264   2.044   6.273   7.740 -0.2681 -0.0831 -0.3308
  568MOL0     C78265   2.099   6.395   7.725 -0.1134 -0.5822  0.0043
  568MOL0     C78266   2.059   6.539   7.756 -0.4943  0.2303  0.0916
  568MOL0     C78267   1.944   6.551   7.857 -0.5292 -0.7476 -0.3725
  568MOL0     C78268   1.981   6.504   8.001  0.2330 -0.3261 -0.2713
  568MOL0     C78269   1.853   6.515   8.082 -0.5641 -0.6641 -0.3286
  568MOL0     O78270   1.813   6.652   8.096 -0.2995 -0.4508  0.2468
  568MOL0     C78271   1.680   6.660   8.124  0.1006  0.4459 -0.3853
  568MOL0     C78272   1.602   6.747   8.047  0.2665 -0.9515 -0.0421
  568MOL0     C78273   1.470   6.759   8.076  0.5158 -0.3071  0.1359
  568MOL0     C78274   1.400   6.850   7.974 -0.1639 -0.2296  0.4482
  568MOL0     C78275   1.405   6.708   8.186  0.0751  0.3302 -0.4536
  568MOL0     C78276   1.264   6.710   8.216 -0.3435 -0.4630 -0.6838
  568MOL0     O78277   1.225   6.659   8.345 -0.6003  0.2209 -0.3759
  568MOL0     C78278   1.089   6.618   8.355 -0.4620  0.2021 -0.8053
  568MOL0     C78279   1.038   6.493   8.310  0.4817  1.2271  0.8086
  568MOL0     C78280   0.907   6.453   8.332 -0.5302  0.3650  0.6206
  568MOL0     C78281   0.816   6.539   8.394  0.1423  0.1826  0.0721
  568MOL0     O78282   0.688   6.497   8.410 -0.1492 -0.1626  0.6460
  568MOL0     C78283   0.612   6.540   8.300 -0.4101  0.7418 -0.5038
  568MOL0     C78284   0.473   6.491   8.291  0.1467 -0.7440  0.3810
  568MOL0     C78285   0.454   6.344   8.316 -0.2328  0.4884  0.5811
  568MOL0     C78286   0.333   6.281   8.260 -0.1580  0.1515 -0.4233
  568MOL0     C78287   0.328   6.130   8.296  0.0508  0.0582 -0.5610
  568MOL0     C78288   0.228   6.048   8.219 -0.3787 -0.4508  0.8137
  568MOL0     C78289   0.196   5.913   8.295 -0.9945 -0.5495 -0.3943
  568MOL0     C78290   0.086   5.838   8.215  0.2647 -0.3058  0.3244
  568MOL0    Cl78291   0.073   5.672   8.280  0.4321  0.1144  0.2454
  568MOL0     C78292   0.865   6.665   8.438 -0.5664 -0.1606 -0.1504
  568MOL0     C78293   1.010   6.702   8.432  0.5309  0.8355 -0.2017
  568MOL0     O78294   1.185   6.757   8.134 -0.2236 -0.2204 -0.1746
  568MOL0     C78295   1.494   6.635   8.277  1.2515 -0.1801  0.6467
  568MOL0     C78296   1.625   6.601   8.239 -0.8193  0.1166  0.4693
  568MOL0     N78297   2.224   6.372   7.665  0.3408 -0.9161 -0.7702
  568MOL0     N78298   2.244   6.245   7.654 -0.4652 -0.1637 -0.4169
  568MOL0     C78299   1.455   6.418   7.004 -0.0974 -0.0655  0.9572
  568MOL0     C78300   1.320   6.452   6.991 -0.5961 -0.6703  0.6703
  568MOL0     C78301   0.927   6.645   7.075  0.5240  0.1282 -0.0966
  568MOL0     C78302   0.832   6.554   7.018  0.4079 -0.7120  0.6595
  568MOL0     C78303   0.696   6.580   6.999  0.0717 -0.2142  0.0857
  568MOL0     C78304   0.642   6.702   7.045 -0.5324 -0.2634  0.7447
  568MOL0     O78305   0.506   6.726   7.035  0.2236 -0.3320 -0.1362
  568MOL0     C78306   0.461   6.847   7.098  1.0808  0.1311 -0.6715
  568MOL0     C78307   0.307   6.868   7.076  0.2990  0.2785  0.4441
  568MOL0     C78308   0.249   6.967   7.172 -0.4971 -0.0951 -0.3210
  568MOL0     C78309   0.092   6.942   7.201 -0.3055  0.1030 -0.2310
  568MOL0     C78310   0.037   7.063   7.264 -0.1068  0.7181 -0.2760
  568MOL0     C78311  -0.012   7.162   7.314  0.5246 -0.6566  0.2393
  568MOL0     C78312   0.735   6.792   7.101 -0.1189 -0.1467  0.3916
  568MOL0     C78313   0.874   6.772   7.114  0.1796  0.4756  0.0418
  568MOL0     C78314   0.955   6.875   7.184  0.0582 -0.4290 -1.0794
  568MOL0     H78315   1.182   6.380   7.286 -1.1748 -2.8348 -1.0605
  568MOL0     H78316   1.403   6.288   7.319 -0.9878 -4.7470 -1.4325
  568MOL0     H78317   1.633   6.135   7.207 -2.9426  1.2415 -1.3845
  568MOL0     H78318   1.620   6.248   7.339 -2.3505 -0.8960 -0.2884
  568MOL0     H78319   1.874   6.206   7.175  0.8127  1.5869 -0.2830
  568MOL0     H78320   1.855   6.339   7.291  0.0912 -0.3541  1.8637
  568MOL0     H78321   1.960   6.197   7.412  0.5899 -0.9494 -1.4747
  568MOL0     H78322   1.797   6.169   7.476 -2.2182  1.0375 -0.7727
  568MOL0     H78323   1.763   5.961   7.364  0.2623 -1.6342  0.8786
  568MOL0     H78324   1.912   5.976   7.264  0.9828 -1.1883  1.3009
  568MOL0     H78325   1.944   5.813   7.451 -1.7619  0.2929  0.5438
  568MOL0     H78326   1.895   5.937   7.561 -0.3379 -0.4258 -0.6374
  568MOL0     H78327   2.155   5.892   7.422  1.5827  1.4335  0.8492
  568MOL0     H78328   2.122   6.060   7.436 -0.7868  1.1790  0.0459
  568MOL0     H78329   2.274   5.940   7.622 -0.3450  1.7812 -0.7331
  568MOL0     H78330   2.137   5.840   7.646 -0.7203  0.6665 -0.2009
  568MOL0     H78331   2.014   6.017   7.760  0.2604 -0.6368  0.2155
  568MOL0     H78332   2.182   6.024   7.824  0.7183  0.1486 -0.4872
  568MOL0     H78333   1.964   6.253   7.810 -1.2959 -0.9728 -1.7065
  568MOL0     H78334   2.044   6.590   7.660  0.9825  0.3668 -0.0867
  568MOL0     H78335   2.144   6.593   7.799 -1.1391  2.0780 -0.8334
  568MOL0     H78336   1.911   6.655   7.864  0.7829 -0.3585  0.2049
  568MOL0     H78337   1.859   6.490   7.825 -0.1413 -0.5228 -1.8969
  568MOL0     H78338   2.008   6.398   8.006 -0.1317 -0.4687 -1.2452
  568MOL0     H78339   2.065   6.560   8.044  1.4412 -2.1513 -0.1359
  568MOL0     H78340   1.766   6.463   8.041 -1.2275 -1.8429  2.3386
  568MOL0     H78341   1.878   6.472   8.179 -1.7921 -0.4986  0.0771
  568MOL0     H78342   1.646   6.799   7.964  2.5942 -0.7339  1.2514
  568MOL0     H78343   1.355   6.936   8.025  1.9840  0.0106  2.0665
  568MOL0     H78344   1.330   6.782   7.924 -1.1131  0.4920  0.7716
  568MOL0     H78345   1.468   6.889   7.897 -1.0430  0.6801  0.1025
  568MOL0     H78346   1.106   6.423   8.262 -0.6623 -0.2216  1.2117
  568MOL0     H78347   0.892   6.353   8.293  2.4245 -0.7596  2.0371
  568MOL0     H78348   0.614   6.649   8.291 -2.1446  0.7212 -1.5769
  568MOL0     H78349   0.667   6.506   8.212  1.5252  1.1472  0.4883
  568MOL0     H78350   0.413   6.555   8.355 -2.5845  1.0872 -3.6369
  568MOL0     H78351   0.447   6.519   8.189  3.0177 -2.3101 -0.9136
  568MOL0     H78352   0.444   6.335   8.425 -0.3486  0.4769  0.5708
  568MOL0     H78353   0.543   6.291   8.281 -0.1781  0.1252  1.2449
  568MOL0     H78354   0.339   6.289   8.151  1.9051  3.1903 -0.2044
  568MOL0     H78355   0.244   6.335   8.295  0.5603 -0.3216  2.3380
  568MOL0     H78356   0.424   6.078   8.297  0.3608  0.4730  2.6476
  568MOL0     H78357   0.300   6.133   8.402  0.4529  1.5427 -0.4726
  568MOL0     H78358   0.267   6.022   8.120 -0.0700 -0.9248  1.0556
  568MOL0     H78359   0.136   6.106   8.206  1.0009  1.4296 -1.0387
  568MOL0     H78360   0.165   5.931   8.399  2.8205  0.6975  0.7112
  568MOL0     H78361   0.284   5.850   8.285 -0.9520 -1.0549  2.3953
  568MOL0     H78362   0.097   5.844   8.107 -3.3876  0.5776 -0.1391
  568MOL0     H78363  -0.013   5.879   8.237  0.5297 -0.1126  1.2168
  568MOL0     H78364   0.789   6.728   8.483  0.0773  1.6082 -1.4284
  568MOL0     H78365   1.048   6.784   8.491  0.3137 -1.1004  2.8781
  568MOL0     H78366   1.453   6.598   8.370  0.6085 -2.8643 -0.6055
  568MOL0     H78367   1.677   6.537   8.310 -1.1676 -0.3969  0.2691
  568MOL0     H78368   1.530   6.428   6.926 -1.3122 -0.3324 -0.2797
  568MOL0     H78369   1.282   6.498   6.900  2.3926  0.8229  0.0287
  568MOL0     H78370   0.873   6.458   6.988 -0.9994 -0.8043 -1.1108
  568MOL0     H78371   0.625   6.507   6.962  0.4721 -0.0178 -1.1163
  568MOL0     H78372   0.484   6.860   7.204 -3.6549 -0.7801  0.6758
  568MOL0     H78373   0.518   6.935   7.066 -0.3001  1.3788  0.1448
  568MOL0     H78374   0.262   6.771   7.096 -2.5094  1.2214 -0.7633
  568MOL0     H78375   0.283   6.891   6.971  1.5745 -0.7972 -0.1174
  568MOL0     H78376   0.314   6.967   7.260  2.5661  1.3332 -2.3978
  568MOL0     H78377   0.253   7.066   7.125 -0.4757 -0.4815 -1.1380
  568MOL0     H78378   0.083   6.851   7.261  1.6430  0.9675  1.4726
  568MOL0     H78379   0.044   6.927   7.104 -0.0073 -1.2302 -0.1933
  568MOL0     H78380  -0.066   7.242   7.360  2.2807  2.3910 -2.5486
  568MOL0     H78381   0.701   6.885   7.146 -0.9358  0.5106 -1.4671
  568MOL0     H78382   0.896   6.967   7.181 -3.5899 -2.5720 -0.7430
  568MOL0     H78383   0.988   6.847   7.285  0.4396 -1.7208 -1.5360
  568MOL0     H78384   1.041   6.899   7.121 -0.4680  0.9585 -1.2958
  569MOL0     O78385   6.894   2.294   8.984 -0.6846 -0.0039  0.0397
  569MOL0     C78386   6.867   2.288   8.861  1.1345 -0.8512  0.2644
  569MOL0     O78387   6.963   2.293   8.760  0.5586  1.0660 -0.2402
  569MOL0     C78388   7.094   2.302   8.782 -0.1764  0.7457  0.6286
  569MOL0     C78389   7.152   2.410   8.861 -0.2354 -0.4976  0.6255
  569MOL0     C78390   7.287   2.422   8.866  0.3772 -0.4209  0.7161
  569MOL0     C78391   7.374   2.345   8.787 -0.3752  0.4347  0.5458
  569MOL0     O78392   7.504   2.375   8.805 -0.5123 -0.1269  0.0627
  569MOL0     C78393   7.600   2.279   8.788  0.0897  0.2770 -0.4892
  569MOL0     C78394   7.733   2.352   8.802  0.5662 -0.1392  0.0175
  569MOL0     C78395   7.843   2.255   8.766  0.3178  0.4262  0.8178
  569MOL0     C78396   7.984   2.312   8.797  0.1261  0.9229 -0.7678
  569MOL0     C78397   8.104   2.209   8.760  0.3170 -0.0159 -1.5614
  569MOL0     C78398   8.115   2.181   8.614  0.7222  1.2519  0.0398
  569MOL0     C78399   8.249   2.101   8.598  0.1797  1.0231 -0.4367
  569MOL0     C78400   8.287   2.077   8.450  0.1622 -0.5800  0.4815
  569MOL0     N78401   8.293   2.190   8.351  0.2553  0.5868 -0.5785
  569MOL0     C78402   8.189   2.269   8.310 -0.2670 -0.2289 -0.4652
  569MOL0     C78403   8.237   2.365   8.228 -0.5600 -0.0522  0.3346
  569MOL0     C78404   8.172   2.476   8.166 -0.4418 -0.1378  1.0112
  569MOL0     C78405   8.078   2.428   8.052  0.5348 -0.1431  0.1180
  569MOL0     C78406   8.015   2.547   7.969  0.3021 -0.1220  0.0433
  569MOL0     C78407   7.858   2.558   7.970  0.1643  0.0061  0.7157
  569MOL0     O78408   7.804   2.445   7.888  0.6326 -0.3749  0.3407
  569MOL0     C78409   7.789   2.466   7.751 -0.4004  0.4307 -0.4785
  569MOL0     C78410   7.879   2.424   7.660 -0.7967  0.3125  0.3930
  569MOL0     C78411   7.868   2.460   7.526  0.3139 -0.5713 -0.3212
  569MOL0     C78412   7.952   2.388   7.423  0.6376  0.3969 -0.5412
  569MOL0     C78413   7.760   2.541   7.484  0.2551 -0.4500 -0.3114
  569MOL0     C78414   7.727   2.590   7.350 -0.0104  0.1009 -0.6830
  569MOL0     O78415   7.659   2.704   7.329  0.3521  0.1956 -0.7370
  569MOL0     C78416   7.664   2.761   7.204  0.6707  0.0169  0.1387
  569MOL0     C78417   7.786   2.804   7.155 -0.3265  0.0819  0.0730
  569MOL0     C78418   7.804   2.856   7.031  0.5367  0.2720 -0.3478
  569MOL0     C78419   7.691   2.869   6.944 -0.6981 -0.5409 -0.9169
  569MOL0     O78420   7.695   2.928   6.822 -0.1534  0.3448 -0.0713
  569MOL0     C78421   7.809   3.016   6.788 -0.6441 -0.7587  0.7928
  569MOL0     C78422   7.776   3.043   6.643  0.0265  0.2148  0.6665
  569MOL0     C78423   7.793   2.918   6.545 -0.4378 -0.6179  0.5316
  569MOL0     C78424   7.755   2.956   6.399  0.4671 -0.3190  0.6197
  569MOL0     C78425   7.830   3.077   6.341 -0.7242 -0.1416  0.4523
  569MOL0     C78426   7.799   3.105   6.193  0.3097 -0.3427 -0.1575
  569MOL0     C78427   7.893   3.219   6.145 -0.2699 -0.8736 -0.9823
  569MOL0     C78428   7.833   3.299   6.033  0.2320  0.8917  0.5261
  569MOL0    Cl78429   7.946   3.432   5.991 -0.8166  0.7832  0.0066
  569MOL0     C78430   7.564   2.833   6.992  0.5201 -1.2480  0.2577
  569MOL0     C78431   7.552   2.778   7.118  0.2289  0.5632 -0.3536
  569MOL0     O78432   7.751   2.503   7.258 -0.2450  0.3442 -0.5338
  569MOL0     C78433   7.660   2.572   7.578  0.3657 -0.2391  0.6093
  569MOL0     C78434   7.675   2.535   7.713 -0.3679  0.3736  0.7434
  569MOL0     N78435   8.377   2.335   8.219  0.3322  0.6725 -0.1613
  569MOL0     N78436   8.402   2.233   8.289 -0.4503 -0.0832  0.3350
  569MOL0     C78437   7.316   2.251   8.699  0.3561  0.2117  1.1129
  569MOL0     C78438   7.176   2.229   8.695 -0.4235  0.0658 -0.1960
  569MOL0     C78439   6.720   2.281   8.810 -0.7207  0.2038 -0.0715
  569MOL0     C78440   6.692   2.206   8.688 -0.2623  0.6713  0.3746
  569MOL0     C78441   6.561   2.189   8.643  0.2843  0.5229  0.2505
  569MOL0     C78442   6.464   2.244   8.710  0.2095  1.1933 -0.0426
  569MOL0     O78443   6.331   2.215   8.675 -0.4549  0.1608 -0.1532
  569MOL0     C78444   6.268   2.113   8.752 -0.4220 -0.2551  0.6174
  569MOL0     C78445   6.144   2.051   8.687  0.6431 -0.4549 -0.0846
  569MOL0     C78446   6.020   2.152   8.671  0.1271  0.5015  0.3899
  569MOL0     C78447   5.903   2.072   8.634 -0.6335 -0.0448 -0.3106
  569MOL0     C78448   5.810   2.153   8.550 -0.2347 -0.7599 -0.2022
  569MOL0     C78449   5.734   2.212   8.479 -0.5524  0.0133  0.7501
  569MOL0     C78450   6.485   2.318   8.833  0.1061 -0.3861 -0.9409
  569MOL0     C78451   6.613   2.340   8.880  0.1228  0.2927 -0.4937
  569MOL0     C78452   6.619   2.428   9.003  0.5192  0.8096  0.3400
  569MOL0     H78453   7.094   2.474   8.926  1.1501  0.4107  1.0009
  569MOL0     H78454   7.334   2.497   8.929 -0.2879 -0.4104  1.1987
  569MOL0     H78455   7.585   2.232   8.690 -0.1766 -0.2493 -0.1979
  569MOL0     H78456   7.576   2.204   8.864 -1.5189  0.4345 -0.8068
  569MOL0     H78457   7.740   2.439   8.736  2.2082 -0.2977 -0.0656
  569MOL0     H78458   7.753   2.383   8.905  0.5176  1.8678 -0.5190
  569MOL0     H78459   7.817   2.158   8.810  0.0817 -0.4965 -1.2331
  569MOL0     H78460   7.849   2.246   8.657  0.0883  0.9371  0.7596
  569MOL0     H78461   8.005   2.408   8.747  0.6102  1.4317  0.3915
  569MOL0     H78462   7.991   2.331   8.904 -0.7395  0.4176 -0.6118
  569MOL0     H78463   8.077   2.118   8.814 -0.2129  0.8123 -0.3826
  569MOL0     H78464   8.192   2.255   8.806 -0.3976 -0.1920  0.0731
  569MOL0     H78465   8.025   2.134   8.573  1.5020 -1.0233  0.7862
  569MOL0     H78466   8.126   2.277   8.563  2.4835  0.5996 -0.9094
  569MOL0     H78467   8.242   2.011   8.660  1.0190  1.3741  0.1910
  569MOL0     H78468   8.326   2.161   8.648  0.0921  1.9500 -1.3818
  569MOL0     H78469   8.385   2.029   8.447  0.2267 -0.7932  3.2205
  569MOL0     H78470   8.217   2.003   8.409 -2.6688  1.6170  0.9831
  569MOL0     H78471   8.084   2.245   8.317 -0.1467 -1.3585 -1.9966
  569MOL0     H78472   8.242   2.540   8.112 -0.2423 -0.9862  0.2535
  569MOL0     H78473   8.122   2.549   8.231  1.3525  2.8409 -0.6924
  569MOL0     H78474   8.122   2.360   7.977  0.7249  0.0126  0.0884
  569MOL0     H78475   8.002   2.368   8.104  0.8335  0.6867  1.5491
  569MOL0     H78476   8.047   2.640   8.018  1.5126  0.5469 -1.8990
  569MOL0     H78477   8.054   2.559   7.867 -0.2346  0.1694 -0.1276
  569MOL0     H78478   7.819   2.550   8.072 -0.8676 -0.3401  0.3019
  569MOL0     H78479   7.820   2.653   7.931  0.2604 -0.5746 -0.8724
  569MOL0     H78480   7.957   2.360   7.700 -0.0839 -0.1874 -1.6775
  569MOL0     H78481   7.978   2.462   7.347  0.9561  1.3512  0.4706
  569MOL0     H78482   7.888   2.315   7.373 -1.6346  2.0407 -0.2161
  569MOL0     H78483   8.040   2.346   7.472  1.4338  3.9298  1.4377
  569MOL0     H78484   7.865   2.809   7.229 -2.6442  2.3786  2.5920
  569MOL0     H78485   7.904   2.878   6.994  0.5339 -0.3351 -0.7259
  569MOL0     H78486   7.796   3.111   6.841  0.3263 -0.3857  0.3916
  569MOL0     H78487   7.909   2.974   6.807 -0.5288 -0.3675  1.0911
  569MOL0     H78488   7.676   3.079   6.619 -0.2688 -1.3263 -0.5970
  569MOL0     H78489   7.839   3.130   6.619  2.4072 -0.9443  2.2763
  569MOL0     H78490   7.734   2.830   6.573 -2.9900  1.1662  1.0778
  569MOL0     H78491   7.900   2.892   6.547  0.1168  1.1996 -1.6562
  569MOL0     H78492   7.647   2.973   6.399  0.0037 -2.8663  1.0468
  569MOL0     H78493   7.779   2.874   6.330  0.0411 -0.7753  1.0016
  569MOL0     H78494   7.806   3.166   6.400  0.0357  0.5086 -0.1969
  569MOL0     H78495   7.936   3.053   6.353 -0.6890 -0.9666 -1.2334
  569MOL0     H78496   7.699   3.150   6.196  0.1844 -0.4816 -1.5346
  569MOL0     H78497   7.792   3.017   6.129 -1.1415 -0.9749  0.8080
  569MOL0     H78498   7.991   3.180   6.117 -0.6130 -3.2944  0.8637
  569MOL0     H78499   7.912   3.281   6.233 -2.4923 -1.9663  0.3533
  569MOL0     H78500   7.732   3.338   6.047  0.0866  0.5395  0.4595
  569MOL0     H78501   7.827   3.232   5.947 -0.0517  0.6133  0.7607
  569MOL0     H78502   7.478   2.846   6.928  2.4479  0.5281 -2.1921
  569MOL0     H78503   7.457   2.755   7.165  0.7063 -0.0918  0.3305
  569MOL0     H78504   7.575   2.634   7.553 -0.9224 -2.5395 -1.0899
  569MOL0     H78505   7.599   2.569   7.783 -0.3673  2.2429 -0.1068
  569MOL0     H78506   7.370   2.188   8.629  2.8056  1.1970  1.9715
  569MOL0     H78507   7.139   2.167   8.613  0.5846 -2.1450  0.9174
  569MOL0     H78508   6.765   2.166   8.619 -0.0744  0.1279  0.8815
  569MOL0     H78509   6.545   2.122   8.558  1.4291 -0.8054  1.0284
  569MOL0     H78510   6.346   2.039   8.771 -0.5333 -0.7358 -0.6816
  569MOL0     H78511   6.233   2.163   8.843 -2.9065  0.2843 -0.5670
  569MOL0     H78512   6.118   1.961   8.743  1.1328 -1.8214 -1.9746
  569MOL0     H78513   6.171   2.014   8.588  1.7503 -0.4355  0.1981
  569MOL0     H78514   5.996   2.190   8.771 -1.6313 -2.9697  1.4443
  569MOL0     H78515   6.051   2.230   8.601 -1.9785  0.6137 -0.4838
  569MOL0     H78516   5.866   2.032   8.729 -0.6812 -0.2047 -0.3972
  569MOL0     H78517   5.939   1.988   8.574  0.7723  0.8237 -0.7469
  569MOL0     H78518   5.676   2.263   8.404  2.8516  1.0241 -1.4146
  569MOL0     H78519   6.393   2.355   8.876  0.1367 -1.5196  0.1260
  569MOL0     H78520   6.695   2.409   9.080 -0.4497  2.2254  1.7225
  569MOL0     H78521   6.625   2.531   8.967 -1.7359  0.6073 -0.7321
  569MOL0     H78522   6.528   2.420   9.063  1.1401 -0.0137  1.2086
  570MOL0     O78523   5.222   9.440   0.932 -0.4403 -0.2778 -0.4964
  570MOL0     C78524   5.216   9.372   0.838  0.0919 -0.0401 -0.3599
  570MOL0     O78525   5.328   9.341   0.766 -0.3650  0.2830  0.4229
  570MOL0     C78526   5.452   9.357   0.829  0.6460 -0.3107  0.5457
  570MOL0     C78527   5.514   9.480   0.828 -0.1142  0.4684  0.2499
  570MOL0     C78528   5.638   9.495   0.887  0.2720  0.8310 -0.2217
  570MOL0     C78529   5.716   9.382   0.927  0.0804 -0.5125  0.1446
  570MOL0     O78530   5.844   9.386   0.985  0.3430  0.0507 -0.6014
  570MOL0     C78531   5.916   9.513   0.972 -0.1259  0.3521  0.6895
  570MOL0     C78532   6.047   9.497   1.032 -0.2164  0.2542 -0.0957
  570MOL0     C78533   6.133   9.621   1.000  0.4156  0.2385 -0.2119
  570MOL0     C78534   6.276   9.623   1.053 -0.3078 -0.7453 -0.4459
  570MOL0     C78535   6.388   9.619   0.943  0.0241 -0.2158  0.5909
  570MOL0     C78536   6.525   9.624   0.996 -0.6441 -0.3857 -0.5532
  570MOL0     C78537   6.615   9.645   0.882  0.2342 -0.6912  0.5116
  570MOL0     C78538   6.758   9.696   0.915 -0.3368  0.5472 -0.6107
  570MOL0     N78539   6.859   9.633   0.824 -0.3624 -0.2781 -0.1860
  570MOL0     C78540   6.951   9.702   0.753  0.1781  0.5615 -0.5554
  570MOL0     C78541   7.000   9.616   0.671  0.0454  0.3628 -0.4877
  570MOL0     C78542   7.072   9.666   0.548 -0.5108  0.5107  1.3745
  570MOL0     C78543   7.229   9.682   0.567  0.4382  0.4241 -0.6665
  570MOL0     C78544   7.304   9.707   0.441 -0.0115  0.1233  0.1048
  570MOL0     C78545   7.449   9.734   0.480 -0.3284  0.2034 -0.3482
  570MOL0     O78546   7.526   9.775   0.365 -0.0282  0.8242  0.3806
  570MOL0     C78547   7.660   9.788   0.372  0.2914  1.0298 -0.0095
  570MOL0     C78548   7.721   9.834   0.259 -0.1916 -0.5717  0.0663
  570MOL0     C78549   7.854   9.881   0.264  0.4496 -0.4495  0.0238
  570MOL0     C78550   7.921   9.941   0.137 -0.4884  0.6208 -0.3012
  570MOL0     C78551   7.925   9.865   0.386 -0.3015  0.0595  0.6457
  570MOL0     C78552   8.059   9.917   0.414  0.3964  0.4211 -0.5621
  570MOL0     O78553   8.133   9.839   0.492 -0.5069 -0.4684 -0.2891
  570MOL0     C78554   8.238   9.888   0.569  0.8164  0.1404  0.4989
  570MOL0     C78555   8.243  10.007   0.643 -0.2783  0.4441 -0.2667
  570MOL0     C78556   8.346  10.036   0.727 -0.1519  0.0865  0.5098
  570MOL0     C78557   8.455   9.947   0.741  0.0648  0.2067  0.0103
  570MOL0     O78558   8.560   9.954   0.833 -0.4417 -0.1562  0.1644
  570MOL0     C78559   8.595  10.081   0.880  0.2914  0.2247 -0.3023
  570MOL0     C78560   8.684  10.154   0.772 -0.5346  0.0753  0.0350
  570MOL0     C78561   8.739  10.289   0.826  0.0834 -0.6236 -0.2755
  570MOL0     C78562   8.834  10.367   0.727 -0.0857  0.2381 -0.2892
  570MOL0     C78563   8.850  10.515   0.761  0.0747  0.0558 -0.2663
  570MOL0     C78564   8.950  10.581   0.668 -0.1795  0.3104 -0.3009
  570MOL0     C78565   9.097  10.539   0.691 -0.4253 -0.3735 -0.0837
  570MOL0     C78566   9.193  10.612   0.610  0.3745  0.5239  0.4138
  570MOL0    Cl78567   9.204  10.778   0.675  0.1300  0.1750 -0.1829
  570MOL0     C78568   8.456   9.835   0.654 -1.0012  0.2767 -0.5067
  570MOL0     C78569   8.352   9.804   0.572  1.2841 -0.2026  0.1377
  570MOL0     O78570   8.092  10.032   0.385  1.1048  0.4382  0.3235
  570MOL0     C78571   7.870   9.792   0.489  0.3580 -0.6016  0.2087
  570MOL0     C78572   7.732   9.750   0.485 -1.2436 -0.6058 -0.4021
  570MOL0     N78573   6.959   9.492   0.716 -0.1043 -0.0051  0.9489
  570MOL0     N78574   6.869   9.501   0.807  0.2637  0.1568  0.4200
  570MOL0     C78575   5.661   9.256   0.916  0.2206  0.8111 -0.1671
  570MOL0     C78576   5.527   9.247   0.870 -0.0061 -0.5189  0.6978
  570MOL0     C78577   5.083   9.329   0.782  0.6404 -0.5625 -0.4244
  570MOL0     C78578   5.075   9.295   0.644  0.4925 -0.2142 -0.6649
  570MOL0     C78579   4.947   9.274   0.590  0.0453  1.0625  0.0622
  570MOL0     C78580   4.828   9.290   0.660 -0.2863  0.4665  0.4194
  570MOL0     O78581   4.711   9.258   0.602  0.3222  0.4276 -0.4990
  570MOL0     C78582   4.675   9.115   0.627 -0.3660  0.1580  0.0631
  570MOL0     C78583   4.608   9.057   0.497 -0.4589  0.6536  0.1870
  570MOL0     C78584   4.485   9.135   0.439  0.3179 -0.4404  0.3462
  570MOL0     C78585   4.365   9.110   0.534 -0.5448 -0.0721 -0.0451
  570MOL0     C78586   4.254   9.185   0.485  0.2199 -0.5791  1.1991
  570MOL0     C78587   4.170   9.261   0.441  0.1891  0.0027 -0.4026
  570MOL0     C78588   4.841   9.311   0.792  0.0762 -0.2514 -0.0695
  570MOL0     C78589   4.958   9.328   0.857 -0.2643 -0.4207  0.0654
  570MOL0     C78590   4.947   9.370   1.003 -0.9570 -0.9607  0.6297
  570MOL0     H78591   5.466   9.567   0.784 -1.3165 -0.4132 -0.2527
  570MOL0     H78592   5.678   9.596   0.896  0.6479  0.8011 -1.3777
  570MOL0     H78593   5.864   9.598   1.017 -1.3059 -0.2444  0.4962
  570MOL0     H78594   5.927   9.534   0.866 -1.3952 -0.9285  0.2680
  570MOL0     H78595   6.033   9.502   1.140  2.6137  3.2837  0.2796
  570MOL0     H78596   6.089   9.400   1.002 -5.1454 -3.2510  2.8516
  570MOL0     H78597   6.121   9.653   0.896  1.1141  1.0909 -0.0369
  570MOL0     H78598   6.084   9.709   1.041  0.1120  0.2024 -0.4812
  570MOL0     H78599   6.290   9.720   1.101  3.2032 -0.3858 -1.9777
  570MOL0     H78600   6.285   9.545   1.130 -0.8584 -2.9214 -2.4469
  570MOL0     H78601   6.371   9.701   0.873  0.7018 -0.7680 -0.2362
  570MOL0     H78602   6.382   9.525   0.888  0.3572 -0.1722  0.4809
  570MOL0     H78603   6.536   9.716   1.054 -2.4854 -0.5625  0.1716
  570MOL0     H78604   6.562   9.536   1.050  0.2320  0.2813 -0.0535
  570MOL0     H78605   6.574   9.699   0.796  1.6618 -0.3741 -0.0150
  570MOL0     H78606   6.623   9.543   0.843 -3.2878 -0.3170 -1.6105
  570MOL0     H78607   6.750   9.805   0.905 -0.1672  0.3448 -4.9225
  570MOL0     H78608   6.783   9.677   1.020 -0.8013 -0.7765 -0.7308
  570MOL0     H78609   6.971   9.808   0.743  0.7198  0.3091 -2.8338
  570MOL0     H78610   7.031   9.764   0.521 -1.9339 -0.2313  0.7580
  570MOL0     H78611   7.055   9.592   0.470  1.6793  1.9550 -0.6187
  570MOL0     H78612   7.239   9.761   0.641  0.2212 -1.6429  1.6857
  570MOL0     H78613   7.272   9.593   0.613  1.2923  2.1988  2.2117
  570MOL0     H78614   7.295   9.620   0.376 -0.5777 -2.2522  3.1268
  570MOL0     H78615   7.263   9.798   0.395  0.4331  1.0017  1.3738
  570MOL0     H78616   7.459   9.809   0.559 -1.6922 -0.5495  0.5814
  570MOL0     H78617   7.487   9.638   0.519  0.2305 -1.8221 -5.1817
  570MOL0     H78618   7.661   9.841   0.169 -0.9668 -2.2606  0.4160
  570MOL0     H78619   7.893   9.886   0.047  0.4892 -0.6364  0.1424
  570MOL0     H78620   8.029   9.931   0.151 -0.6971 -1.4101  0.0655
  570MOL0     H78621   7.892  10.046   0.137 -1.1029  0.4530 -0.6608
  570MOL0     H78622   8.156  10.070   0.661  1.6066  2.4622  2.6891
  570MOL0     H78623   8.325  10.116   0.797 -1.4015 -0.7419  1.1284
  570MOL0     H78624   8.506  10.143   0.897 -0.2932 -0.5321 -0.5445
  570MOL0     H78625   8.647  10.082   0.976  0.5116 -2.3395 -0.3268
  570MOL0     H78626   8.771  10.091   0.749  0.0034  0.6703  0.3778
  570MOL0     H78627   8.635  10.169   0.676 -2.5653 -2.2545  0.6275
  570MOL0     H78628   8.799  10.271   0.915  3.8897  3.7126 -1.5981
  570MOL0     H78629   8.655  10.356   0.847 -0.7777 -1.4731 -0.8849
  570MOL0     H78630   8.800  10.369   0.623  3.5482 -0.5468 -1.6521
  570MOL0     H78631   8.934  10.322   0.724 -0.5040 -0.7078 -0.3260
  570MOL0     H78632   8.758  10.571   0.743 -0.8236 -1.1101  0.5816
  570MOL0     H78633   8.875  10.524   0.867  0.6817  1.3923 -0.5058
  570MOL0     H78634   8.951  10.690   0.676 -1.3988  0.2232  1.7264
  570MOL0     H78635   8.932  10.552   0.564  2.4305  0.7323 -0.9471
  570MOL0     H78636   9.115  10.438   0.651  1.8716  1.3535 -3.9237
  570MOL0     H78637   9.117  10.545   0.798 -0.9144  1.5318 -0.0644
  570MOL0     H78638   9.162  10.609   0.506 -1.9134 -3.2820  0.9984
  570MOL0     H78639   9.293  10.567   0.618  0.0564 -0.2616  0.0229
  570MOL0     H78640   8.531   9.757   0.654 -1.0077  0.2569  0.6338
  570MOL0     H78641   8.363   9.716   0.510 -0.2687 -2.5965  3.0225
  570MOL0     H78642   7.921   9.766   0.581 -0.9005 -0.5630  0.9551
  570MOL0     H78643   7.696   9.693   0.570 -1.0913 -1.2401 -0.7547
  570MOL0     H78644   5.712   9.165   0.947 -1.4610  0.8382  3.1493
  570MOL0     H78645   5.488   9.146   0.874  0.6514 -0.8630 -0.8629
  570MOL0     H78646   5.169   9.288   0.590  1.8709 -0.7167  1.6553
  570MOL0     H78647   4.936   9.224   0.494  1.5678 -1.1471  0.9406
  570MOL0     H78648   4.765   9.062   0.660  0.7360  3.3302  2.8115
  570MOL0     H78649   4.610   9.106   0.715  1.9207 -1.3754  1.6921
  570MOL0     H78650   4.569   8.959   0.525  0.2480  0.3832  0.2462
  570MOL0     H78651   4.681   9.038   0.418 -0.6595  3.1761 -0.6982
  570MOL0     H78652   4.504   9.243   0.442 -1.0542 -0.1656 -0.2255
  570MOL0     H78653   4.459   9.100   0.339 -2.6955 -0.4222  1.0361
  570MOL0     H78654   4.385   9.151   0.633 -0.8961  3.2795 -1.2611
  570MOL0     H78655   4.348   9.003   0.551  1.0582 -0.4842 -0.7942
  570MOL0     H78656   4.081   9.310   0.407  0.8815 -0.8411 -3.7782
  570MOL0     H78657   4.749   9.327   0.846 -0.1067  0.9022 -0.6914
  570MOL0     H78658   5.036   9.354   1.065  0.6813  0.8306 -1.1475
  570MOL0     H78659   4.939   9.479   1.008  0.8859 -0.8074  0.6656
  570MOL0     H78660   4.855   9.330   1.048 -0.9582  1.4825  3.0892
  571MOL0     O78661   8.854   6.872   3.822  0.2375 -0.3617 -0.0920
  571MOL0     C78662   8.910   6.860   3.933  0.4542  0.0826 -0.0388
  571MOL0     O78663   9.016   6.787   3.957 -0.3485  0.1879  0.2842
  571MOL0     C78664   9.086   6.727   3.851 -0.4669  0.1672 -0.3345
  571MOL0     C78665   9.036   6.652   3.743 -0.8111 -0.3792 -0.1985
  571MOL0     C78666   9.123   6.607   3.646  0.0780 -0.0027 -0.1292
  571MOL0     C78667   9.260   6.612   3.662 -0.3499  0.2395 -0.1471
  571MOL0     O78668   9.336   6.534   3.576 -0.2911 -0.3929  0.0210
  571MOL0     C78669   9.478   6.536   3.578 -0.1863  0.3904  0.2964
  571MOL0     C78670   9.523   6.659   3.499 -0.1698 -0.1184 -0.7019
  571MOL0     C78671   9.492   6.629   3.347 -0.2582 -0.7099 -1.0189
  571MOL0     C78672   9.601   6.700   3.258 -0.2484  0.2949 -0.6316
  571MOL0     C78673   9.568   6.680   3.111  0.0481  0.0473  0.4197
  571MOL0     C78674   9.603   6.531   3.070 -0.1710  0.8710  0.2129
  571MOL0     C78675   9.754   6.479   3.099 -0.4003  0.5010 -0.4066
  571MOL0     C78676   9.830   6.571   3.008 -0.7398  0.4541  0.4787
  571MOL0     N78677   9.972   6.509   3.007  1.1876 -0.6006 -0.4793
  571MOL0     C78678  10.059   6.508   2.899 -0.2552 -0.6659 -0.7083
  571MOL0     C78679  10.174   6.462   2.936 -0.2220  0.3568 -0.8258
  571MOL0     C78680  10.309   6.447   2.866  0.4474 -0.3223 -0.2204
  571MOL0     C78681  10.411   6.547   2.923  0.5452 -0.2059 -0.6010
  571MOL0     C78682  10.391   6.693   2.869  0.0015  0.4483 -0.4354
  571MOL0     C78683  10.510   6.784   2.896  0.7756  0.2712 -0.7426
  571MOL0     O78684  10.498   6.912   2.831  0.2139  0.2026 -0.0970
  571MOL0     C78685  10.432   7.013   2.903  0.2950 -0.0239  0.2332
  571MOL0     C78686  10.454   7.144   2.851  0.7660  0.7092  0.2527
  571MOL0     C78687  10.407   7.254   2.917  0.3985  0.4453  0.1705
  571MOL0     C78688  10.438   7.387   2.843  0.3389  0.2805 -0.1012
  571MOL0     C78689  10.325   7.237   3.033 -0.2179 -1.0223  0.0114
  571MOL0     C78690  10.256   7.352   3.101 -0.2095 -0.7975 -0.3304
  571MOL0     O78691  10.158   7.316   3.183 -0.4232 -0.4179 -0.3822
  571MOL0     C78692  10.078   7.414   3.239 -0.2094  0.1708 -0.2410
  571MOL0     C78693   9.977   7.459   3.159  0.2732  0.0003  0.3475
  571MOL0     C78694   9.888   7.553   3.212 -0.1428 -0.2557 -0.0447
  571MOL0     C78695   9.885   7.586   3.351 -0.3882  0.4552  0.7524
  571MOL0     O78696   9.789   7.670   3.398 -0.4163  0.7228  0.5559
  571MOL0     C78697   9.775   7.685   3.542  0.5519 -0.0631 -0.4586
  571MOL0     C78698   9.647   7.772   3.579 -0.6029  0.2782  0.3972
  571MOL0     C78699   9.643   7.805   3.728  0.1940 -0.5180 -0.3281
  571MOL0     C78700   9.517   7.754   3.785  0.3477 -0.1253  0.3405
  571MOL0     C78701   9.529   7.783   3.934 -0.2046  0.3972  0.0957
  571MOL0     C78702   9.406   7.728   4.020 -0.4238  0.1048  1.0192
  571MOL0     C78703   9.307   7.848   4.022 -0.1637 -0.3557  0.2214
  571MOL0     C78704   9.192   7.818   4.113 -0.7231  0.0028 -0.2633
  571MOL0    Cl78705   9.086   7.690   4.062 -0.0280 -0.2890  0.2078
  571MOL0     C78706   9.979   7.524   3.432  0.0157  0.6608  0.7726
  571MOL0     C78707  10.077   7.447   3.374 -0.3103 -0.0491  0.5094
  571MOL0     O78708  10.303   7.470   3.084  0.1560  0.2926 -0.0234
  571MOL0     C78709  10.303   7.110   3.086  0.3045  0.0238  0.2691
  571MOL0     C78710  10.349   6.995   3.013  0.1479 -0.2785  0.6120
  571MOL0     N78711  10.167   6.427   3.065  0.8938  0.0892  0.2524
  571MOL0     N78712  10.042   6.453   3.101 -0.1503 -0.7518  0.2174
  571MOL0     C78713   9.318   6.681   3.774  0.2910  0.0132  0.4475
  571MOL0     C78714   9.224   6.746   3.858 -0.8170 -0.5005  0.3200
  571MOL0     C78715   8.843   6.925   4.051  0.1761  0.4553 -0.2395
  571MOL0     C78716   8.868   6.860   4.175  0.2947 -0.1394 -0.1387
  571MOL0     C78717   8.797   6.906   4.286  0.2777  0.9623 -0.5085
  571MOL0     C78718   8.698   7.012   4.271 -0.4576  0.5485  0.5564
  571MOL0     O78719   8.632   7.065   4.384 -0.4464 -0.0025  0.6314
  571MOL0     C78720   8.500   7.015   4.395 -0.0964 -0.1314  0.4296
  571MOL0     C78721   8.509   6.938   4.525 -0.8920 -0.9520  0.1711
  571MOL0     C78722   8.372   6.915   4.592 -0.3646 -0.3010  0.7506
  571MOL0     C78723   8.373   6.819   4.719  0.8202 -0.8600  0.3395
  571MOL0     C78724   8.461   6.851   4.829 -0.0020 -0.3266 -0.0070
  571MOL0     C78725   8.537   6.880   4.915 -0.2047 -0.3937  0.4607
  571MOL0     C78726   8.680   7.066   4.148 -0.3045 -0.7457  0.4095
  571MOL0     C78727   8.768   7.037   4.041 -0.9766 -0.1301  0.5698
  571MOL0     C78728   8.746   7.114   3.911  0.0881  0.1851  0.0732
  571MOL0     H78729   8.929   6.634   3.741 -0.9673  0.5021 -0.5447
  571MOL0     H78730   9.081   6.541   3.571 -3.1523 -0.6837  2.0532
  571MOL0     H78731   9.513   6.449   3.521 -0.1457  1.2900 -1.0817
  571MOL0     H78732   9.522   6.533   3.678 -0.4007 -0.4133  0.3762
  571MOL0     H78733   9.479   6.752   3.535 -2.0891 -1.0776 -0.4220
  571MOL0     H78734   9.630   6.661   3.520 -0.7723  0.8962  2.8734
  571MOL0     H78735   9.497   6.523   3.320  2.9052 -0.4362 -1.8794
  571MOL0     H78736   9.393   6.671   3.326 -1.6563 -2.7863  0.9653
  571MOL0     H78737   9.597   6.807   3.282 -1.1523  1.3314 -4.5887
  571MOL0     H78738   9.703   6.662   3.275 -0.6030  0.1788  1.5151
  571MOL0     H78739   9.634   6.742   3.051  0.1010 -1.3231 -1.0019
  571MOL0     H78740   9.467   6.701   3.074  0.6938 -1.8433 -2.7228
  571MOL0     H78741   9.538   6.457   3.118 -1.6348 -0.3127 -3.3126
  571MOL0     H78742   9.582   6.515   2.964 -0.7223 -1.7198  0.6519
  571MOL0     H78743   9.761   6.379   3.055 -1.5535 -0.2159  0.9521
  571MOL0     H78744   9.787   6.476   3.203  1.6549  1.5740 -0.9974
  571MOL0     H78745   9.791   6.564   2.906  1.1482 -1.6009 -0.1848
  571MOL0     H78746   9.823   6.673   3.048 -2.6872  0.6673 -0.2765
  571MOL0     H78747  10.034   6.546   2.800 -0.2595 -0.4970 -0.6440
  571MOL0     H78748  10.297   6.485   2.764  0.3370 -0.4170 -0.2436
  571MOL0     H78749  10.349   6.346   2.864  0.1624 -0.4607  0.5846
  571MOL0     H78750  10.409   6.556   3.032  0.1231 -2.5966 -0.3724
  571MOL0     H78751  10.516   6.519   2.908  0.7000  0.1768 -0.2734
  571MOL0     H78752  10.383   6.683   2.761  2.7108 -1.8231 -0.5312
  571MOL0     H78753  10.292   6.731   2.898 -1.4553 -1.6323 -2.3546
  571MOL0     H78754  10.532   6.798   3.002 -0.1495  0.8702 -0.6221
  571MOL0     H78755  10.598   6.733   2.857  1.1950  0.5374 -0.1533
  571MOL0     H78756  10.510   7.152   2.758  0.2847  0.4903 -0.0614
  571MOL0     H78757  10.503   7.457   2.896  0.2612 -0.1261  0.5369
  571MOL0     H78758  10.348   7.444   2.817  0.4486  0.5660  0.1336
  571MOL0     H78759  10.484   7.375   2.744  0.7016 -0.1290  0.1166
  571MOL0     H78760   9.966   7.428   3.055 -1.1890  0.0694  0.4634
  571MOL0     H78761   9.825   7.618   3.153  1.9111  4.7313  2.5978
  571MOL0     H78762   9.763   7.592   3.598  1.1531  0.7263  1.0590
  571MOL0     H78763   9.861   7.746   3.571 -0.1145 -0.6325  3.3628
  571MOL0     H78764   9.647   7.863   3.520  1.3357  0.0326 -0.0466
  571MOL0     H78765   9.564   7.706   3.552 -0.1252 -0.4864  0.7343
  571MOL0     H78766   9.643   7.915   3.731  1.7829 -0.3946 -2.3895
  571MOL0     H78767   9.731   7.767   3.781 -0.3591 -2.1745 -0.5554
  571MOL0     H78768   9.505   7.647   3.763 -0.6611  0.2441 -1.0584
  571MOL0     H78769   9.436   7.811   3.738 -1.5320 -3.4147 -0.7397
  571MOL0     H78770   9.619   7.734   3.973 -0.4476  1.7423  2.5665
  571MOL0     H78771   9.544   7.889   3.955 -1.4067  0.6504 -0.2884
  571MOL0     H78772   9.430   7.687   4.119 -2.4274 -1.1931  1.0171
  571MOL0     H78773   9.366   7.642   3.966  3.0617 -0.1468 -1.5488
  571MOL0     H78774   9.272   7.867   3.920 -1.1992  0.5662  0.7225
  571MOL0     H78775   9.365   7.934   4.056  1.4183 -0.1399 -2.6880
  571MOL0     H78776   9.128   7.904   4.133 -0.5312 -0.1351  1.0309
  571MOL0     H78777   9.224   7.778   4.210 -1.7575 -0.6441 -0.1666
  571MOL0     H78778   9.982   7.533   3.540  0.8224  4.5205  0.5748
  571MOL0     H78779  10.150   7.401   3.440  0.0889 -0.0443  0.0751
  571MOL0     H78780  10.245   7.093   3.176  2.2183  0.9243  1.7189
  571MOL0     H78781  10.314   6.898   3.047  2.4333 -1.3647  0.0637
  571MOL0     H78782   9.423   6.696   3.798 -0.1422  3.4757  0.5967
  571MOL0     H78783   9.267   6.817   3.927  1.2644  0.2864 -1.6529
  571MOL0     H78784   8.923   6.767   4.184 -3.6469 -2.8287 -1.0872
  571MOL0     H78785   8.801   6.847   4.377  1.8728  3.1898  0.9519
  571MOL0     H78786   8.436   7.103   4.400  0.4045  0.1668  2.2877
  571MOL0     H78787   8.477   6.960   4.303 -0.0555 -0.4272  0.5930
  571MOL0     H78788   8.563   6.997   4.600 -1.0894  1.1267 -1.2513
  571MOL0     H78789   8.576   6.852   4.517  0.6134  0.2501 -0.7942
  571MOL0     H78790   8.341   7.008   4.641  2.4717  0.7349  0.8004
  571MOL0     H78791   8.301   6.876   4.519  0.3537  1.1338 -0.7786
  571MOL0     H78792   8.386   6.716   4.684 -1.7185 -1.4852  1.0344
  571MOL0     H78793   8.273   6.816   4.762  0.5433 -1.7175 -0.3250
  571MOL0     H78794   8.618   6.912   4.977 -0.7802  1.4462  0.3184
  571MOL0     H78795   8.604   7.141   4.131 -1.4726 -2.0713 -0.4149
  571MOL0     H78796   8.672   7.065   3.848 -0.2948  2.2596 -1.1925
  571MOL0     H78797   8.708   7.214   3.935  4.7014  2.1349  0.1245
  571MOL0     H78798   8.839   7.142   3.861  1.0247 -0.6689  1.2704
  572MOL0     O78799  10.503   5.281   3.879 -0.6638  0.2646 -0.9262
  572MOL0     C78800  10.438   5.349   3.798  0.0746  1.0471  0.1579
  572MOL0     O78801  10.475   5.467   3.752 -0.1267 -0.0590  0.4035
  572MOL0     C78802  10.591   5.523   3.804  0.9719  0.2973  0.1548
  572MOL0     C78803  10.718   5.461   3.782 -0.0656  0.5818  0.0552
  572MOL0     C78804  10.833   5.523   3.816 -1.2091 -1.0603 -0.4243
  572MOL0     C78805  10.824   5.647   3.877 -0.2263 -0.5700  0.3153
  572MOL0     O78806  10.938   5.712   3.909 -0.0217 -0.4648  0.8827
  572MOL0     C78807  10.977   5.706   4.046  0.4564 -0.1918 -0.0536
  572MOL0     C78808  11.110   5.626   4.054  0.7745  0.0773  0.2567
  572MOL0     C78809  11.232   5.701   4.015 -1.2997  0.1426  0.2815
  572MOL0     C78810  11.349   5.605   4.018 -0.0587  0.0394  0.2146
  572MOL0     C78811  11.476   5.644   3.929  0.2850 -0.7796 -0.3403
  572MOL0     C78812  11.544   5.769   3.977  0.0322  0.1443 -0.0465
  572MOL0     C78813  11.652   5.814   3.866 -0.1967  0.3922 -0.1508
  572MOL0     C78814  11.722   5.948   3.898  1.2179 -0.0879  0.3475
  572MOL0     N78815  11.833   5.977   3.804  0.8085 -0.3129  0.3494
  572MOL0     C78816  11.826   6.054   3.695 -0.6877  0.6529  0.1853
  572MOL0     C78817  11.955   6.041   3.644 -0.0813 -0.2476  0.0200
  572MOL0     C78818  12.021   6.068   3.515 -0.0263  0.7020 -0.0197
  572MOL0     C78819  11.965   6.198   3.443 -0.0710  0.2842 -0.4196
  572MOL0     C78820  11.984   6.331   3.512 -0.3820 -0.5376 -0.0076
  572MOL0     C78821  12.124   6.356   3.561 -0.0568  0.1312 -0.7821
  572MOL0     O78822  12.159   6.278   3.679  0.1682 -0.7181 -0.0372
  572MOL0     C78823  12.279   6.304   3.747 -0.2654  0.1361  0.2920
  572MOL0     C78824  12.376   6.393   3.714 -0.5141 -0.7225  0.4347
  572MOL0     C78825  12.496   6.406   3.789 -0.2824 -0.1485 -0.2253
  572MOL0     C78826  12.585   6.521   3.759 -0.3611 -0.1738  0.6696
  572MOL0     C78827  12.529   6.323   3.898  0.3526  0.1423 -0.8745
  572MOL0     C78828  12.656   6.307   3.974  0.9199 -0.3701 -0.4679
  572MOL0     O78829  12.772   6.343   3.910  0.7169 -0.1391  0.1712
  572MOL0     C78830  12.895   6.387   3.965  0.8591 -1.1547 -0.5501
  572MOL0     C78831  12.949   6.497   3.907 -0.5367  0.4758 -0.2040
  572MOL0     C78832  13.067   6.553   3.966 -0.4147  0.3474 -0.4127
  572MOL0     C78833  13.142   6.480   4.060  0.6270 -0.4439 -0.3421
  572MOL0     O78834  13.256   6.536   4.110  0.5296  0.2555 -0.5580
  572MOL0     C78835  13.291   6.509   4.244 -0.2333  0.6720 -1.3730
  572MOL0     C78836  13.369   6.632   4.300 -0.4538 -0.1297  0.4640
  572MOL0     C78837  13.489   6.662   4.210 -0.3380  0.1670  0.0359
  572MOL0     C78838  13.567   6.787   4.265  0.0867  0.2926 -0.3314
  572MOL0     C78839  13.713   6.790   4.215  0.0293  0.1549 -0.5547
  572MOL0     C78840  13.810   6.708   4.291 -0.4159  0.4525 -0.1934
  572MOL0     C78841  13.948   6.733   4.236 -0.3090  0.2374 -0.3115
  572MOL0     C78842  14.033   6.638   4.318  0.3572  0.2386 -0.0759
  572MOL0    Cl78843  14.195   6.639   4.253  0.1815  0.3632  0.0176
  572MOL0     C78844  13.091   6.359   4.105  0.4015 -0.6026 -0.1437
  572MOL0     C78845  12.970   6.319   4.061 -0.1486  0.3030  0.4928
  572MOL0     O78846  12.656   6.265   4.088 -0.0579 -0.2279 -0.2083
  572MOL0     C78847  12.414   6.233   3.937 -1.0666 -0.0003  0.6878
  572MOL0     C78848  12.303   6.221   3.860  0.6341  0.8323  0.2202
  572MOL0     N78849  12.034   5.957   3.724 -0.4903  0.7584  0.0901
  572MOL0     N78850  11.959   5.924   3.819 -0.0277  0.4181  0.3239
  572MOL0     C78851  10.702   5.713   3.897  0.0582  0.3091  0.0686
  572MOL0     C78852  10.585   5.646   3.862  0.7108 -0.0118  0.7532
  572MOL0     C78853  10.317   5.293   3.739  0.0821 -0.1467  0.9761
  572MOL0     C78854  10.264   5.354   3.627  0.2771  0.6045  0.5227
  572MOL0     C78855  10.150   5.303   3.564  1.0967 -0.0208 -0.2142
  572MOL0     C78856  10.070   5.204   3.631  0.4541  0.1403 -0.2338
  572MOL0     O78857   9.951   5.176   3.571  0.2828  0.3821 -0.0729
  572MOL0     C78858   9.871   5.065   3.610  0.5657  0.0840 -0.1753
  572MOL0     C78859   9.761   5.032   3.512  0.3195  0.8278 -0.0295
  572MOL0     C78860   9.654   5.134   3.489 -0.0851  0.2094 -0.2121
  572MOL0     C78861   9.598   5.210   3.610 -0.3418 -0.7033  0.2115
  572MOL0     C78862   9.516   5.320   3.555  0.0800 -0.4511 -0.7057
  572MOL0     C78863   9.445   5.405   3.495 -0.1580 -0.5935  0.5224
  572MOL0     C78864  10.116   5.148   3.744 -0.0013  0.7278 -0.1019
  572MOL0     C78865  10.239   5.187   3.802  0.6392 -0.0073 -0.1095
  572MOL0     C78866  10.265   5.136   3.941  0.0184  0.8753 -0.9148
  572MOL0     H78867  10.729   5.368   3.727  2.1750  0.5502  0.4855
  572MOL0     H78868  10.932   5.481   3.801 -1.2901 -1.8979  1.1944
  572MOL0     H78869  10.905   5.657   4.113  0.3026  0.0714 -0.0257
  572MOL0     H78870  10.994   5.809   4.079  3.0739  0.2141 -2.3659
  572MOL0     H78871  11.129   5.583   4.153  1.7851 -4.5624 -1.6914
  572MOL0     H78872  11.096   5.542   3.985 -1.0957  0.4734  0.0880
  572MOL0     H78873  11.212   5.732   3.912  2.0128 -0.5888 -0.7188
  572MOL0     H78874  11.263   5.780   4.085  1.2967 -2.3293  2.1434
  572MOL0     H78875  11.371   5.584   4.122  1.4353 -1.1057 -0.2997
  572MOL0     H78876  11.323   5.510   3.971 -1.0906 -0.2616  1.3613
  572MOL0     H78877  11.438   5.672   3.831  0.3377  2.3639  0.4131
  572MOL0     H78878  11.559   5.573   3.925  0.3227 -0.8264  0.8757
  572MOL0     H78879  11.466   5.845   3.976 -0.3865 -0.0628  3.8748
  572MOL0     H78880  11.579   5.755   4.079  0.9173 -0.7781 -0.4504
  572MOL0     H78881  11.615   5.830   3.764  1.7151 -1.4248 -1.2216
  572MOL0     H78882  11.722   5.731   3.852  2.7421  2.9222 -1.5371
  572MOL0     H78883  11.640   6.021   3.892 -1.7570 -3.2847 -4.0218
  572MOL0     H78884  11.759   5.949   4.001 -0.8174  0.7411  1.1309
  572MOL0     H78885  11.751   6.120   3.654 -0.1159  1.1664 -0.0562
  572MOL0     H78886  11.995   5.987   3.447  0.9277  1.8848 -1.8855
  572MOL0     H78887  12.128   6.067   3.536 -0.4817  0.7396  2.6161
  572MOL0     H78888  12.016   6.209   3.347  1.8810  2.0643  0.7245
  572MOL0     H78889  11.859   6.192   3.416 -0.5336  3.3860  0.2939
  572MOL0     H78890  11.954   6.407   3.440 -1.4613 -1.6583 -0.7864
  572MOL0     H78891  11.907   6.338   3.589 -1.2218  1.7921 -0.9613
  572MOL0     H78892  12.204   6.336   3.489  0.5309 -0.3200 -0.0172
  572MOL0     H78893  12.119   6.463   3.585 -0.3561 -0.1793  0.6541
  572MOL0     H78894  12.359   6.454   3.626  3.2488 -0.0827 -0.0032
  572MOL0     H78895  12.550   6.569   3.667 -4.0880  1.3043  2.6429
  572MOL0     H78896  12.688   6.493   3.737 -0.2521 -1.2309  2.3831
  572MOL0     H78897  12.584   6.589   3.845  2.0715 -1.3748  1.7518
  572MOL0     H78898  12.915   6.562   3.826  3.4092  1.2378 -1.4383
  572MOL0     H78899  13.108   6.644   3.923 -1.3778  0.6152 -0.7975
  572MOL0     H78900  13.199   6.497   4.303 -0.3967  1.4503 -1.4601
  572MOL0     H78901  13.363   6.428   4.259  0.7452  1.6284 -0.8084
  572MOL0     H78902  13.301   6.717   4.292 -0.5781 -0.4179 -2.9477
  572MOL0     H78903  13.403   6.614   4.402  0.4152  3.0008  0.8395
  572MOL0     H78904  13.460   6.680   4.106  1.6578  0.0152 -0.5933
  572MOL0     H78905  13.549   6.571   4.224 -0.5680  0.5531  5.3635
  572MOL0     H78906  13.556   6.775   4.374  0.7092 -1.2008 -0.4204
  572MOL0     H78907  13.526   6.881   4.225  0.8214 -0.3351 -2.7056
  572MOL0     H78908  13.710   6.750   4.114 -1.3749 -0.7818 -0.1746
  572MOL0     H78909  13.738   6.896   4.222 -0.2826  0.1276  2.1934
  572MOL0     H78910  13.783   6.606   4.263  1.7048 -0.5349  1.1091
  572MOL0     H78911  13.806   6.731   4.398  1.2233 -1.4638  0.3358
  572MOL0     H78912  13.989   6.832   4.255 -1.0492  0.3105  1.0342
  572MOL0     H78913  13.953   6.710   4.130 -0.6167  1.2644 -0.5575
  572MOL0     H78914  13.984   6.541   4.303 -0.9460  0.5025  2.0468
  572MOL0     H78915  14.032   6.659   4.425 -1.3176 -0.8973  0.1827
  572MOL0     H78916  13.144   6.300   4.179 -1.1369  0.0846  1.5876
  572MOL0     H78917  12.928   6.228   4.103  1.1872 -1.2095 -1.2451
  572MOL0     H78918  12.428   6.175   4.027 -0.2796  2.8634  2.5329
  572MOL0     H78919  12.222   6.154   3.887 -0.2188  2.4051  1.8040
  572MOL0     H78920  10.711   5.813   3.939  2.9501 -0.0568  0.5023
  572MOL0     H78921  10.485   5.687   3.866  1.5465  2.1155  1.0248
  572MOL0     H78922  10.320   5.435   3.583  1.2592 -1.0476 -1.3937
  572MOL0     H78923  10.117   5.350   3.472  1.3645  2.1066  0.7130
  572MOL0     H78924   9.935   4.976   3.616 -0.0941 -0.3869  0.0280
  572MOL0     H78925   9.835   5.087   3.711 -0.1235 -0.0096 -0.3943
  572MOL0     H78926   9.709   4.943   3.548 -0.2488  0.4462 -1.6910
  572MOL0     H78927   9.807   4.998   3.418 -0.2210 -0.9828  0.3142
  572MOL0     H78928   9.699   5.209   3.424 -0.0234 -1.2126 -1.8605
  572MOL0     H78929   9.569   5.097   3.430 -0.0662  1.2320 -0.9016
  572MOL0     H78930   9.673   5.270   3.661  0.4468 -1.0493 -0.5225
  572MOL0     H78931   9.547   5.149   3.685 -2.3792  0.8198  0.1807
  572MOL0     H78932   9.398   5.485   3.441 -2.2233 -1.8611  0.3587
  572MOL0     H78933  10.050   5.079   3.798 -2.3239  0.8395 -2.6128
  572MOL0     H78934  10.341   5.058   3.932  0.6736  1.3784  0.1139
  572MOL0     H78935  10.297   5.207   4.017 -2.2127  0.0396  0.9171
  572MOL0     H78936  10.177   5.088   3.986  2.1387 -4.6586 -1.8894
  573MOL0     O78937   8.054   5.251   7.601 -0.8975 -0.1563  0.4675
  573MOL0     C78938   8.038   5.346   7.519  0.1842  0.9440  0.6022
  573MOL0     O78939   8.139   5.405   7.441 -0.9272  0.5458 -0.2589
  573MOL0     C78940   8.263   5.349   7.449  0.0386 -0.3671 -0.1695
  573MOL0     C78941   8.346   5.387   7.560 -0.2701 -0.6309  1.4169
  573MOL0     C78942   8.470   5.336   7.570  0.2923 -0.3758 -1.0558
  573MOL0     C78943   8.527   5.255   7.478 -0.5475 -0.2824 -0.8162
  573MOL0     O78944   8.661   5.231   7.499  0.3866 -0.1598 -0.7345
  573MOL0     C78945   8.727   5.133   7.414 -0.1828 -0.3661 -0.3761
  573MOL0     C78946   8.843   5.081   7.496 -0.4949  0.2788  0.5432
  573MOL0     C78947   8.929   5.179   7.578  0.6752 -0.1356  0.3199
  573MOL0     C78948   9.051   5.092   7.649 -0.6066 -0.5014 -0.0931
  573MOL0     C78949   9.123   5.172   7.762  0.2886  0.2467  0.5205
  573MOL0     C78950   9.249   5.101   7.803 -0.8461 -0.0117 -0.2609
  573MOL0     C78951   9.344   5.178   7.893 -0.0528  0.1447 -0.2418
  573MOL0     C78952   9.465   5.225   7.812  0.3906 -0.0579 -0.4258
  573MOL0     N78953   9.576   5.252   7.901 -0.3318  0.7086 -0.2400
  573MOL0     C78954   9.582   5.350   7.999  0.3422 -0.2105 -0.0635
  573MOL0     C78955   9.704   5.336   8.052 -0.2062  1.0050 -0.7793
  573MOL0     C78956   9.755   5.430   8.157 -0.8093 -0.7023  0.2154
  573MOL0     C78957   9.867   5.367   8.229 -1.1645 -0.2239 -0.1554
  573MOL0     C78958   9.912   5.460   8.349 -0.5499 -0.0306 -0.8225
  573MOL0     C78959  10.041   5.421   8.420 -0.1386  0.6424 -0.4017
  573MOL0     O78960  10.161   5.473   8.352  0.3985 -0.2247  0.1891
  573MOL0     C78961  10.280   5.428   8.386 -1.3148 -0.1433 -0.0950
  573MOL0     C78962  10.323   5.297   8.353 -0.5514  0.1999 -0.6641
  573MOL0     C78963  10.456   5.255   8.364 -0.3254 -0.6365 -0.2072
  573MOL0     C78964  10.490   5.119   8.312 -0.1379  0.4516  0.5366
  573MOL0     C78965  10.553   5.348   8.422  0.6006  0.2675 -0.2720
  573MOL0     C78966  10.703   5.317   8.436  0.2591  0.1191  0.2028
  573MOL0     O78967  10.725   5.185   8.459 -0.4607 -0.1359 -0.2731
  573MOL0     C78968  10.834   5.136   8.534  0.1926 -0.4525 -0.5714
  573MOL0     C78969  10.819   5.065   8.652  0.5589  0.0122 -0.1821
  573MOL0     C78970  10.920   5.019   8.728 -0.5603 -0.1036 -0.5276
  573MOL0     C78971  11.056   5.035   8.691 -0.4881  0.1008  0.0418
  573MOL0     O78972  11.153   4.969   8.769  1.0830  0.5019  0.0740
  573MOL0     C78973  11.265   5.056   8.805  0.4513 -0.5165 -0.0815
  573MOL0     C78974  11.314   4.994   8.938  0.8191  0.7177 -0.3195
  573MOL0     C78975  11.397   5.097   9.020  0.2525  0.6349 -0.2308
  573MOL0     C78976  11.513   5.014   9.084  0.8020 -0.2215  0.3819
  573MOL0     C78977  11.593   5.105   9.180 -0.5660  0.0833  0.3676
  573MOL0     C78978  11.711   5.183   9.107 -0.0422 -0.4116  0.7068
  573MOL0     C78979  11.825   5.078   9.081  0.1571 -0.3868  1.5107
  573MOL0     C78980  11.928   5.146   8.984 -0.1155 -0.0683 -0.5934
  573MOL0    Cl78981  12.087   5.060   8.957  0.2573  0.0227  0.2395
  573MOL0     C78982  11.078   5.114   8.578  1.0209  0.3620 -0.3943
  573MOL0     C78983  10.971   5.166   8.499  0.7135  0.2526 -0.0655
  573MOL0     O78984  10.787   5.404   8.438  0.5286  0.3196  0.3804
  573MOL0     C78985  10.506   5.467   8.478  0.9248 -0.4357  0.0940
  573MOL0     C78986  10.370   5.511   8.444  0.6806  1.0174 -0.0091
  573MOL0     N78987   9.767   5.228   7.986 -0.4893 -0.7850 -0.3303
  573MOL0     N78988   9.697   5.183   7.895 -0.1131 -0.1601  0.1449
  573MOL0     C78989   8.451   5.223   7.372 -0.3762 -0.0609  0.2053
  573MOL0     C78990   8.323   5.268   7.358  1.3746  0.9925  0.3333
  573MOL0     C78991   7.905   5.397   7.515  0.2976 -0.5694 -0.2129
  573MOL0     C78992   7.795   5.316   7.553  0.2903  0.0442 -0.5653
  573MOL0     C78993   7.660   5.352   7.546  0.1279  0.3881  0.1427
  573MOL0     C78994   7.621   5.469   7.494 -0.4255 -0.5715 -0.1593
  573MOL0     O78995   7.488   5.499   7.486 -0.2650 -0.1632  0.4695
  573MOL0     C78996   7.447   5.628   7.444 -0.0292  0.4249  0.0233
  573MOL0     C78997   7.300   5.643   7.418  0.7538 -0.1972 -0.6993
  573MOL0     C78998   7.215   5.603   7.533  1.0252 -0.1107 -0.2065
  573MOL0     C78999   7.161   5.459   7.524 -0.1923 -0.0772  0.1313
  573MOL0     C79000   7.110   5.426   7.659  0.3734 -0.9018  1.0078
  573MOL0     C79001   7.060   5.392   7.761  1.2446 -0.2124 -0.3471
  573MOL0     C79002   7.724   5.551   7.444 -0.5545 -0.4075 -0.2262
  573MOL0     C79003   7.864   5.528   7.473  0.3419  0.1670  0.9994
  573MOL0     C79004   7.961   5.625   7.423 -0.7750  0.0735  0.4638
  573MOL0     H79005   8.304   5.458   7.629 -2.5270  0.9754 -1.3917
  573MOL0     H79006   8.525   5.366   7.659  1.7285  0.5172 -2.2075
  573MOL0     H79007   8.762   5.181   7.323  1.4371  1.7961  1.2793
  573MOL0     H79008   8.669   5.043   7.389 -1.3435  0.0186  0.8342
  573MOL0     H79009   8.804   5.002   7.561 -0.1067  0.7432  1.3443
  573MOL0     H79010   8.910   5.042   7.419 -0.0378 -0.8590  1.4825
  573MOL0     H79011   8.959   5.269   7.524 -2.5798  1.3962  0.7928
  573MOL0     H79012   8.855   5.204   7.655  0.2690 -2.6505  0.8669
  573MOL0     H79013   9.017   4.999   7.696  2.7079 -1.2506  1.0457
  573MOL0     H79014   9.119   5.077   7.564 -1.3990 -0.2057 -0.7980
  573MOL0     H79015   9.054   5.185   7.846 -1.8184  0.1650 -1.1075
  573MOL0     H79016   9.143   5.270   7.716 -2.1944 -0.1960 -1.8110
  573MOL0     H79017   9.208   5.011   7.849 -3.3227 -0.3265 -2.7539
  573MOL0     H79018   9.307   5.054   7.723 -1.1717 -0.8509 -0.0147
  573MOL0     H79019   9.372   5.113   7.976  1.6348  0.1490 -0.7634
  573MOL0     H79020   9.294   5.257   7.951 -1.5315 -1.2858  0.5030
  573MOL0     H79021   9.505   5.148   7.747  1.8770 -0.3426  0.7696
  573MOL0     H79022   9.436   5.318   7.762  0.6772 -0.1127 -0.6986
  573MOL0     H79023   9.511   5.431   8.013  1.0722  0.3320  0.5489
  573MOL0     H79024   9.681   5.460   8.231 -0.4313 -0.2756  0.4267
  573MOL0     H79025   9.786   5.524   8.111 -1.3386 -0.4022  0.4721
  573MOL0     H79026   9.837   5.265   8.255 -0.1161 -0.1007  1.7064
  573MOL0     H79027   9.951   5.359   8.159 -1.1297  1.7817 -0.4152
  573MOL0     H79028   9.935   5.563   8.321  2.8049 -1.1348 -2.7078
  573MOL0     H79029   9.829   5.455   8.420 -1.5334  0.1173 -1.9305
  573MOL0     H79030  10.051   5.451   8.525  1.5884 -1.9660  0.2742
  573MOL0     H79031  10.049   5.313   8.435  1.4657  0.7023 -0.7083
  573MOL0     H79032  10.253   5.232   8.301  1.8632  0.4962 -4.7565
  573MOL0     H79033  10.572   5.122   8.239  2.1953 -2.1419  2.8233
  573MOL0     H79034  10.403   5.078   8.261  0.1515  2.0522 -1.4065
  573MOL0     H79035  10.533   5.058   8.392  0.9050 -0.9241 -1.0209
  573MOL0     H79036  10.715   5.042   8.674  0.4991  2.6078  2.9289
  573MOL0     H79037  10.893   4.950   8.808 -1.4923  1.5234  0.6261
  573MOL0     H79038  11.330   5.044   8.717 -2.2943 -1.6344 -2.1162
  573MOL0     H79039  11.232   5.159   8.819  2.2119  0.4129 -2.2337
  573MOL0     H79040  11.226   4.965   8.997  0.9280  0.2384 -0.3870
  573MOL0     H79041  11.370   4.901   8.922  0.1265  0.2969 -0.3531
  573MOL0     H79042  11.340   5.150   9.097  2.3815 -0.9796  2.6474
  573MOL0     H79043  11.437   5.164   8.942  1.7993 -2.0389 -1.8875
  573MOL0     H79044  11.582   4.976   9.007  1.5101  2.7939 -0.6391
  573MOL0     H79045  11.461   4.933   9.135 -0.1794  0.7076  0.8901
  573MOL0     H79046  11.526   5.175   9.231  1.0035  2.0184 -0.1428
  573MOL0     H79047  11.645   5.040   9.251  0.3154  0.4718  0.0898
  573MOL0     H79048  11.749   5.270   9.162  2.0475  0.9307 -2.5634
  573MOL0     H79049  11.675   5.223   9.012  4.7697  3.0003 -0.1122
  573MOL0     H79050  11.791   4.986   9.032  2.7718 -0.2624 -0.7917
  573MOL0     H79051  11.871   5.053   9.177  4.2259 -1.2959 -0.4823
  573MOL0     H79052  11.951   5.238   9.039 -1.6964  1.7088 -2.7162
  573MOL0     H79053  11.878   5.167   8.889 -1.0772 -0.6316 -0.2200
  573MOL0     H79054  11.178   5.142   8.547  0.0665  0.1981 -4.2017
  573MOL0     H79055  10.995   5.231   8.415  1.1216  0.1758 -0.0086
  573MOL0     H79056  10.572   5.531   8.535  0.2700  0.2867  0.0603
  573MOL0     H79057  10.331   5.606   8.479 -0.8697 -0.4554  2.5289
  573MOL0     H79058   8.497   5.169   7.291  1.2051  3.7561 -1.7187
  573MOL0     H79059   8.276   5.217   7.274  1.0046  0.5908  0.7763
  573MOL0     H79060   7.809   5.216   7.593 -0.4100  0.9160  2.0612
  573MOL0     H79061   7.582   5.285   7.583  2.5376 -1.7692  1.6051
  573MOL0     H79062   7.484   5.695   7.522  0.2795  1.5053 -1.0171
  573MOL0     H79063   7.501   5.657   7.353  0.2072 -2.9445 -1.0612
  573MOL0     H79064   7.268   5.597   7.325  1.9853 -1.6921 -0.4201
  573MOL0     H79065   7.287   5.751   7.404 -0.1039 -0.1485  0.3595
  573MOL0     H79066   7.254   5.617   7.634  0.4724  0.7040 -0.0966
  573MOL0     H79067   7.131   5.672   7.524 -1.0666 -2.7100 -2.2411
  573MOL0     H79068   7.245   5.395   7.493  0.3766  1.4427 -1.6908
  573MOL0     H79069   7.091   5.441   7.441  0.4376 -0.8992 -0.2416
  573MOL0     H79070   7.006   5.349   7.843 -1.0184 -1.9971 -2.6061
  573MOL0     H79071   7.686   5.640   7.395  0.0167 -0.3386 -0.5585
  573MOL0     H79072   7.900   5.711   7.393 -1.3778 -0.2925  0.6106
  573MOL0     H79073   8.034   5.662   7.495 -2.0061  0.6895  1.4396
  573MOL0     H79074   8.001   5.595   7.326 -2.3666  0.7154 -0.4345
  574MOL0     O79075   4.022   8.871   2.887  0.3662  0.0888  0.0425
  574MOL0     C79076   3.934   8.914   2.965  0.7291 -0.4423  0.5577
  574MOL0     O79077   3.894   8.852   3.076  0.7355 -0.3649 -0.5573
  574MOL0     C79078   3.943   8.737   3.135 -0.2135 -0.0131  0.2891
  574MOL0     C79079   3.855   8.658   3.218 -0.1259  0.6612  0.2402
  574MOL0     C79080   3.898   8.521   3.252  0.6636  0.3595  0.1786
  574MOL0     C79081   4.031   8.492   3.247 -0.1682 -0.5386  0.0486
  574MOL0     O79082   4.069   8.373   3.292 -0.1863 -0.2680  0.1816
  574MOL0     C79083   4.199   8.319   3.262  0.4397 -0.0955  0.6154
  574MOL0     C79084   4.212   8.170   3.265 -0.2917 -0.3979 -0.1984
  574MOL0     C79085   4.103   8.100   3.186  0.5382  0.3646  0.3292
  574MOL0     C79086   4.057   7.968   3.253  0.2557  0.0719 -0.3103
  574MOL0     C79087   3.922   7.897   3.194 -0.5234  0.3754  0.4288
  574MOL0     C79088   3.926   7.876   3.038  0.7277 -0.3696 -0.1008
  574MOL0     C79089   3.795   7.820   2.982 -0.2206 -0.0482 -0.5069
  574MOL0     C79090   3.805   7.764   2.843 -0.3893 -0.1131  0.2216
  574MOL0     N79091   3.817   7.870   2.740  0.2996 -0.2387  0.8467
  574MOL0     C79092   3.935   7.912   2.682 -0.9415 -0.2499  0.5310
  574MOL0     C79093   3.889   7.999   2.591 -0.0191 -0.3130  0.3215
  574MOL0     C79094   3.983   8.076   2.501 -0.2291 -1.1320  0.2925
  574MOL0     C79095   4.062   7.984   2.401  0.1247 -0.4942 -0.2444
  574MOL0     C79096   4.150   8.057   2.303  1.1450 -0.1519  1.3772
  574MOL0     C79097   4.277   7.999   2.262 -0.3455 -0.2738 -0.2830
  574MOL0     O79098   4.352   8.084   2.180  0.6378 -0.3217  0.2058
  574MOL0     C79099   4.492   8.083   2.190  0.2718  0.7283 -0.0257
  574MOL0     C79100   4.577   7.995   2.258 -0.3251 -0.2882 -0.1688
  574MOL0     C79101   4.717   8.000   2.249  0.0324  0.1427  0.4674
  574MOL0     C79102   4.795   7.897   2.320 -0.7358 -0.6378  0.3808
  574MOL0     C79103   4.785   8.102   2.176  0.1062  0.7093 -0.4965
  574MOL0     C79104   4.929   8.118   2.165 -0.2554  0.3870 -0.9235
  574MOL0     O79105   4.959   8.189   2.052 -0.4939 -0.1491 -0.3118
  574MOL0     C79106   5.094   8.201   2.032 -0.0658 -0.1938 -0.6242
  574MOL0     C79107   5.181   8.276   2.106 -0.4690  0.7146 -0.5671
  574MOL0     C79108   5.317   8.266   2.079 -0.5888 -0.1706  0.2545
  574MOL0     C79109   5.367   8.194   1.973 -0.1490  0.7778 -0.2624
  574MOL0     O79110   5.502   8.203   1.955  0.8907 -0.2347 -0.1321
  574MOL0     C79111   5.560   8.117   1.857  0.0439  0.5517 -0.7425
  574MOL0     C79112   5.708   8.129   1.857  0.4249  0.4099 -0.4347
  574MOL0     C79113   5.757   8.064   1.727 -0.1790  0.4323 -0.1391
  574MOL0     C79114   5.910   8.087   1.707 -0.8585 -0.4980  0.6097
  574MOL0     C79115   5.966   8.007   1.579  0.0842 -0.2099  0.2093
  574MOL0     C79116   6.110   8.025   1.563 -0.4741  0.4927  0.6940
  574MOL0     C79117   6.167   7.977   1.423 -0.0346 -0.3893  0.1574
  574MOL0     C79118   6.314   7.994   1.427  0.3000  0.1473  0.6590
  574MOL0    Cl79119   6.396   7.939   1.273 -0.2663 -0.4603  0.4379
  574MOL0     C79120   5.278   8.122   1.892  0.7791  0.2306  0.7981
  574MOL0     C79121   5.144   8.133   1.919  0.5381 -0.0527 -0.2376
  574MOL0     O79122   5.009   8.066   2.251  1.2973  0.0526  0.2412
  574MOL0     C79123   4.696   8.197   2.114  0.1416 -0.6589 -0.2998
  574MOL0     C79124   4.558   8.181   2.112 -0.0507  0.2584  0.1372
  574MOL0     N79125   3.753   8.017   2.601  0.5174  0.1332 -0.1042
  574MOL0     N79126   3.709   7.938   2.694  0.0106  0.6273  0.2730
  574MOL0     C79127   4.113   8.582   3.172 -0.5502  0.5657 -0.4406
  574MOL0     C79128   4.073   8.701   3.113  0.0115  0.0189  0.3496
  574MOL0     C79129   3.842   9.032   2.931  0.3998 -0.1304  0.0090
  574MOL0     C79130   3.765   9.103   3.027 -0.0455  0.7655  0.2688
  574MOL0     C79131   3.695   9.212   2.992  0.7353 -0.4007 -0.7395
  574MOL0     C79132   3.684   9.257   2.866 -0.5216 -0.9408  0.2361
  574MOL0     O79133   3.641   9.382   2.827 -0.0957 -0.3426 -0.1699
  574MOL0     C79134   3.571   9.462   2.919  0.2779 -0.2982 -0.2931
  574MOL0     C79135   3.521   9.593   2.847  0.1952  0.1417 -0.3841
  574MOL0     C79136   3.458   9.687   2.944  0.6357  0.6599  1.1228
  574MOL0     C79137   3.428   9.829   2.887  0.5924  0.3561 -0.0340
  574MOL0     C79138   3.555   9.900   2.884 -0.5724 -0.2285 -0.2116
  574MOL0     C79139   3.662   9.955   2.873  0.5716 -0.8268  0.8396
  574MOL0     C79140   3.740   9.182   2.763 -0.7498  0.0091  0.2311
  574MOL0     C79141   3.821   9.071   2.790 -0.2327  0.0403 -0.8666
  574MOL0     C79142   3.885   9.006   2.673 -0.6157  0.7218 -0.9836
  574MOL0     H79143   3.750   8.682   3.226 -0.6236 -1.7843  2.1577
  574MOL0     H79144   3.830   8.450   3.298  0.3145  0.3916 -0.2825
  574MOL0     H79145   4.277   8.356   3.329  2.2000 -2.4630 -0.0162
  574MOL0     H79146   4.223   8.343   3.158  0.0606 -0.0068  0.5443
  574MOL0     H79147   4.314   8.142   3.238  0.0997 -0.5354  1.2981
  574MOL0     H79148   4.206   8.132   3.368  2.0400 -0.9329 -0.2160
  574MOL0     H79149   4.007   8.153   3.183 -1.1010 -2.4350 -1.4316
  574MOL0     H79150   4.139   8.084   3.084  0.2470  0.4911  0.2037
  574MOL0     H79151   4.134   7.889   3.247  0.9947  0.7862 -0.3670
  574MOL0     H79152   4.038   7.995   3.357  4.5676  0.4048  0.5828
  574MOL0     H79153   3.843   7.969   3.217  0.0816  1.5150 -0.9408
  574MOL0     H79154   3.901   7.803   3.245 -2.8211  1.1461  1.0243
  574MOL0     H79155   3.930   7.977   2.996 -0.8575 -0.9683 -1.8629
  574MOL0     H79156   4.014   7.825   2.998 -0.4878 -0.8352 -2.3886
  574MOL0     H79157   3.731   7.908   2.982  1.0169  0.9114  0.8975
  574MOL0     H79158   3.749   7.742   3.045 -0.9904 -0.9245 -2.1043
  574MOL0     H79159   3.878   7.683   2.832 -1.3553 -0.9492 -0.1698
  574MOL0     H79160   3.712   7.712   2.817 -0.2431 -0.8803  1.1521
  574MOL0     H79161   4.037   7.890   2.713 -0.9801  2.2877  2.8622
  574MOL0     H79162   4.057   8.121   2.568 -0.4216 -1.5517  0.7862
  574MOL0     H79163   3.926   8.155   2.451 -0.0564 -1.2235 -0.0596
  574MOL0     H79164   4.118   7.926   2.474  0.3880  0.8309  0.6548
  574MOL0     H79165   3.992   7.922   2.345  2.7858 -0.8584 -3.4572
  574MOL0     H79166   4.090   8.083   2.215 -2.3385 -0.0680  3.5782
  574MOL0     H79167   4.164   8.156   2.348 -1.1581  1.2704 -0.7676
  574MOL0     H79168   4.331   7.969   2.353 -0.5925  0.0614 -0.0267
  574MOL0     H79169   4.252   7.914   2.199 -0.1697  1.1535 -2.3654
  574MOL0     H79170   4.524   7.915   2.308 -4.8084  0.2431 -3.4528
  574MOL0     H79171   4.875   7.860   2.255  0.5076  0.1628  1.4006
  574MOL0     H79172   4.726   7.822   2.359 -3.7872  1.5669 -0.3901
  574MOL0     H79173   4.845   7.939   2.408 -1.1613  1.3124 -0.2661
  574MOL0     H79174   5.145   8.330   2.193 -0.1088  1.2436 -0.7437
  574MOL0     H79175   5.393   8.329   2.124  0.9733 -3.0536  1.9643
  574MOL0     H79176   5.535   8.012   1.872  0.4326  0.7099  1.3608
  574MOL0     H79177   5.532   8.140   1.754  1.9486 -1.5054 -1.8050
  574MOL0     H79178   5.733   8.235   1.847  1.1075  0.2929 -0.0272
  574MOL0     H79179   5.755   8.099   1.951 -0.2222  0.7972  0.0184
  574MOL0     H79180   5.698   8.106   1.645 -1.9192 -3.1734 -0.9293
  574MOL0     H79181   5.747   7.955   1.733  3.7296 -0.2642 -2.3533
  574MOL0     H79182   5.967   8.052   1.793 -1.1326  1.4727  1.6517
  574MOL0     H79183   5.940   8.192   1.696  0.6658 -0.6309  2.8970
  574MOL0     H79184   5.923   7.907   1.580 -1.1999  0.3113 -0.3812
  574MOL0     H79185   5.919   8.032   1.483 -3.0393 -2.2418  1.0558
  574MOL0     H79186   6.154   7.962   1.640 -0.8363  2.0087  2.2141
  574MOL0     H79187   6.133   8.132   1.575 -2.9993  1.1904  0.0118
  574MOL0     H79188   6.133   8.053   1.352 -2.0369 -1.8407 -0.5193
  574MOL0     H79189   6.147   7.876   1.388  0.2354 -0.0992 -0.8638
  574MOL0     H79190   6.346   7.929   1.509 -4.1054  1.6927  3.9592
  574MOL0     H79191   6.348   8.097   1.442  1.1302  0.1507 -1.0069
  574MOL0     H79192   5.319   8.066   1.808  0.4398  0.7646  0.2686
  574MOL0     H79193   5.061   8.090   1.863  0.5125  0.0928 -0.3123
  574MOL0     H79194   4.733   8.286   2.065  2.1248  0.9730  3.7429
  574MOL0     H79195   4.508   8.250   2.045 -1.3310 -1.7836 -1.1342
  574MOL0     H79196   4.220   8.563   3.163  0.0704  3.3877  0.0043
  574MOL0     H79197   4.151   8.742   3.050  0.6793 -2.0631 -0.2389
  574MOL0     H79198   3.760   9.067   3.129  0.4812 -2.1568 -0.6350
  574MOL0     H79199   3.636   9.255   3.073  2.6559  0.7749  0.1156
  574MOL0     H79200   3.492   9.399   2.962 -1.2250  1.6330 -0.0861
  574MOL0     H79201   3.638   9.491   3.000  0.2335  1.1247 -0.7462
  574MOL0     H79202   3.455   9.556   2.768 -1.2864  1.3807  0.2110
  574MOL0     H79203   3.602   9.648   2.799  0.2223  2.1129  1.7544
  574MOL0     H79204   3.374   9.623   2.970 -0.4060  0.2418 -2.6626
  574MOL0     H79205   3.520   9.690   3.034 -0.1008  2.4481  1.6159
  574MOL0     H79206   3.359   9.868   2.962  0.2634 -2.2457  1.1234
  574MOL0     H79207   3.374   9.810   2.794  0.6113 -1.7785  0.3271
  574MOL0     H79208   3.758   9.999   2.857  0.6208 -1.1332  0.2299
  574MOL0     H79209   3.723   9.222   2.664  0.6402  0.4783  0.1676
  574MOL0     H79210   3.993   9.016   2.687  0.0456 -1.8763 -3.3062
  574MOL0     H79211   3.869   8.899   2.682  2.3666  0.3816  3.2591
  574MOL0     H79212   3.843   9.042   2.578 -2.6185 -1.7806 -1.1332
  575MOL0     O79213  10.274   2.366   2.664 -0.7830 -0.2663 -0.1434
  575MOL0     C79214  10.191   2.445   2.690  0.9944  0.1511 -0.1710
  575MOL0     O79215  10.216   2.563   2.748 -0.3596 -0.5469 -0.7431
  575MOL0     C79216  10.331   2.602   2.821  0.0956  0.1125  0.1087
  575MOL0     C79217  10.345   2.738   2.842 -0.8467 -0.0591  0.0323
  575MOL0     C79218  10.453   2.794   2.919 -0.6688  0.8072  0.5973
  575MOL0     C79219  10.548   2.709   2.983  0.4643 -0.5716 -0.2922
  575MOL0     O79220  10.662   2.751   3.047 -0.3902 -0.6229 -0.2907
  575MOL0     C79221  10.706   2.888   3.030 -0.8447 -0.3417  0.0756
  575MOL0     C79222  10.787   2.890   2.899  0.7435 -0.1759 -0.2441
  575MOL0     C79223  10.916   2.815   2.921  0.0857 -0.1613  0.1916
  575MOL0     C79224  11.024   2.894   3.002  0.5440  0.2371  0.4870
  575MOL0     C79225  11.157   2.800   2.997 -0.7566 -0.6951  0.2304
  575MOL0     C79226  11.292   2.883   3.029 -0.3712 -0.6927  0.1377
  575MOL0     C79227  11.296   2.948   3.169 -0.2127 -0.0396 -0.0142
  575MOL0     C79228  11.256   2.850   3.293  0.0439 -0.9066  0.3631
  575MOL0     N79229  11.354   2.736   3.308  0.7338 -0.6242  0.8661
  575MOL0     C79230  11.392   2.702   3.433  0.8491 -0.0261  0.4106
  575MOL0     C79231  11.460   2.585   3.418  0.0726 -0.2271  0.3756
  575MOL0     C79232  11.525   2.534   3.543 -0.9355  0.1120  0.2048
  575MOL0     C79233  11.666   2.478   3.507 -0.0111 -0.2367  0.1993
  575MOL0     C79234  11.745   2.418   3.631  0.6138 -0.6160  0.2908
  575MOL0     C79235  11.876   2.367   3.593 -0.6808  0.2102 -0.4048
  575MOL0     O79236  11.947   2.312   3.708  0.2734  0.6039 -0.2958
  575MOL0     C79237  12.073   2.354   3.730  0.4639 -0.7646  0.0279
  575MOL0     C79238  12.112   2.384   3.863 -0.5914  0.8106 -0.2245
  575MOL0     C79239  12.245   2.421   3.895 -0.5389 -0.7356  0.3877
  575MOL0     C79240  12.260   2.458   4.045  0.8797 -0.0180  0.4313
  575MOL0     C79241  12.346   2.412   3.791  0.1369 -0.2325  0.2469
  575MOL0     C79242  12.498   2.420   3.824  0.1449 -0.2693  0.7506
  575MOL0     O79243  12.582   2.464   3.721  0.0688 -0.1186  0.2298
  575MOL0     C79244  12.714   2.470   3.738 -0.9672 -0.6990 -0.6770
  575MOL0     C79245  12.802   2.428   3.639  1.2376  0.1243 -0.0472
  575MOL0     C79246  12.934   2.416   3.659 -0.6352  0.6822  0.1590
  575MOL0     C79247  12.988   2.444   3.785  0.1646 -0.2459  0.7532
  575MOL0     O79248  13.124   2.446   3.807 -0.4560  0.7034 -0.1172
  575MOL0     C79249  13.201   2.321   3.779  0.7924  0.0072 -0.4787
  575MOL0     C79250  13.238   2.250   3.909  0.6933  0.6573 -0.0231
  575MOL0     C79251  13.337   2.341   3.990  0.4120 -0.1447  0.2494
  575MOL0     C79252  13.384   2.272   4.118 -0.9434 -0.4843 -0.7294
  575MOL0     C79253  13.467   2.141   4.099  0.3083  0.0900 -0.3246
  575MOL0     C79254  13.591   2.146   4.007  0.1995 -0.5399 -0.3419
  575MOL0     C79255  13.682   2.029   4.005 -1.0471  0.8574  0.4589
  575MOL0     C79256  13.749   2.007   4.144  0.1321  0.0122 -0.6019
  575MOL0    Cl79257  13.864   1.878   4.115  0.2042  0.1445 -0.0740
  575MOL0     C79258  12.908   2.487   3.895 -0.6015  0.1408 -0.3241
  575MOL0     C79259  12.764   2.502   3.870  0.1509  0.4817  0.4065
  575MOL0     O79260  12.533   2.398   3.936 -1.0287 -0.1142 -0.4530
  575MOL0     C79261  12.306   2.394   3.660 -0.4701 -0.1733 -0.9037
  575MOL0     C79262  12.170   2.380   3.627  0.0399 -1.1041 -0.5754
  575MOL0     N79263  11.460   2.543   3.283 -0.2254  0.3498 -0.1331
  575MOL0     N79264  11.404   2.646   3.219  0.2806 -0.5657  0.6273
  575MOL0     C79265  10.523   2.572   2.971 -0.1136 -0.4694  0.5269
  575MOL0     C79266  10.419   2.517   2.891 -0.1411  0.3985 -0.2188
  575MOL0     C79267  10.045   2.420   2.643 -0.1913 -0.9405  0.1821
  575MOL0     C79268   9.965   2.537   2.643 -0.6543 -0.3863  0.0249
  575MOL0     C79269   9.829   2.523   2.608  0.1233 -0.6967  0.2096
  575MOL0     C79270   9.773   2.404   2.555 -0.1954  0.4904 -0.4006
  575MOL0     O79271   9.643   2.380   2.518 -0.0787  0.3919  0.2576
  575MOL0     C79272   9.552   2.485   2.532  0.3831 -0.8243 -0.2997
  575MOL0     C79273   9.414   2.436   2.499 -0.3349  0.1298  0.4717
  575MOL0     C79274   9.311   2.551   2.518  0.1694  0.8226  0.3127
  575MOL0     C79275   9.170   2.501   2.467 -1.1114  0.3391  0.1958
  575MOL0     C79276   9.126   2.584   2.355  0.3878 -0.0279 -0.3986
  575MOL0     C79277   9.108   2.658   2.260 -0.1931  0.4102 -0.5514
  575MOL0     C79278   9.865   2.298   2.541 -0.1912 -0.0404 -0.0675
  575MOL0     C79279   9.988   2.299   2.597 -0.6652  0.4144  0.2051
  575MOL0     C79280  10.067   2.177   2.584 -0.9069  1.2900  0.7167
  575MOL0     H79281  10.270   2.799   2.794  0.0405  0.2355 -1.0164
  575MOL0     H79282  10.444   2.902   2.934  0.2891  0.8142  1.2009
  575MOL0     H79283  10.763   2.907   3.122 -1.3710  0.7016  0.2057
  575MOL0     H79284  10.620   2.955   3.036 -1.1523 -0.4012 -2.5922
  575MOL0     H79285  10.725   2.852   2.818  0.2908 -0.7593  0.3641
  575MOL0     H79286  10.804   2.997   2.881  0.6536  0.0974  1.1459
  575MOL0     H79287  10.896   2.719   2.969 -1.4200  1.0273  2.0897
  575MOL0     H79288  10.955   2.811   2.819  0.5266  1.1007  0.2917
  575MOL0     H79289  11.048   2.991   2.957  0.4169 -0.2196 -0.5730
  575MOL0     H79290  10.987   2.911   3.104 -0.5852  2.0417 -0.1705
  575MOL0     H79291  11.174   2.759   2.897 -2.0951  0.4442 -0.4964
  575MOL0     H79292  11.133   2.720   3.068 -2.5324  0.9028  1.5226
  575MOL0     H79293  11.380   2.821   3.012 -0.2516 -1.0037  1.7776
  575MOL0     H79294  11.291   2.976   2.970  0.2898 -0.3294  0.6886
  575MOL0     H79295  11.224   3.029   3.178 -0.6179 -0.3529 -0.4091
  575MOL0     H79296  11.390   3.004   3.182 -0.6855  1.1441 -1.4210
  575MOL0     H79297  11.259   2.906   3.387  1.6615 -3.6414  2.0738
  575MOL0     H79298  11.156   2.809   3.276 -0.1953  0.2352 -1.2245
  575MOL0     H79299  11.360   2.737   3.531 -2.5900  0.1708 -0.6489
  575MOL0     H79300  11.463   2.453   3.583 -0.6317  0.4627  1.4433
  575MOL0     H79301  11.540   2.610   3.620 -0.5775  0.5415 -0.2873
  575MOL0     H79302  11.653   2.409   3.423 -3.0445 -0.2818  0.5946
  575MOL0     H79303  11.705   2.572   3.468 -0.4114 -0.4421 -0.7236
  575MOL0     H79304  11.762   2.500   3.701  2.0211  0.4651 -1.2100
  575MOL0     H79305  11.685   2.342   3.681  1.8850 -1.4817  0.5579
  575MOL0     H79306  11.873   2.291   3.514  1.0281  0.2159 -0.5294
  575MOL0     H79307  11.933   2.449   3.548 -0.5233  0.5660  0.4233
  575MOL0     H79308  12.045   2.372   3.948  1.6925  1.6025  1.8212
  575MOL0     H79309  12.284   2.564   4.051 -0.7609  0.3784  0.4685
  575MOL0     H79310  12.341   2.403   4.095  0.1536  0.6676  2.4409
  575MOL0     H79311  12.174   2.437   4.109  0.3555  0.5524 -0.0744
  575MOL0     H79312  12.759   2.409   3.542 -0.9994  1.4284  0.6015
  575MOL0     H79313  12.995   2.381   3.576 -0.6881  1.3445 -0.1646
  575MOL0     H79314  13.153   2.252   3.709  2.1745 -0.4844 -0.9711
  575MOL0     H79315  13.293   2.336   3.723 -0.0692 -1.3956 -2.3704
  575MOL0     H79316  13.147   2.234   3.967  0.9964  0.3026  0.3645
  575MOL0     H79317  13.288   2.153   3.898 -1.6669 -0.9366  1.9627
  575MOL0     H79318  13.285   2.435   4.014 -0.2511 -0.3782 -0.2444
  575MOL0     H79319  13.419   2.363   3.920  2.5327 -2.4054  1.8619
  575MOL0     H79320  13.302   2.243   4.185 -2.0093  1.1140 -1.2725
  575MOL0     H79321  13.446   2.345   4.171  3.1394 -2.2987 -2.5272
  575MOL0     H79322  13.491   2.110   4.201  0.4138  0.3641 -0.2667
  575MOL0     H79323  13.401   2.062   4.060 -1.2686  0.7356  0.9828
  575MOL0     H79324  13.654   2.231   4.036 -0.9172  0.9664 -2.0800
  575MOL0     H79325  13.547   2.162   3.908 -1.6664 -0.1795  0.4956
  575MOL0     H79326  13.763   2.044   3.933 -0.7892 -0.6109  0.4093
  575MOL0     H79327  13.632   1.934   3.984  0.4671  0.0974  0.1917
  575MOL0     H79328  13.681   1.967   4.220  0.8437 -1.1240 -0.5488
  575MOL0     H79329  13.784   2.108   4.166 -1.6874  0.8596 -1.3869
  575MOL0     H79330  12.945   2.520   3.992 -1.1637 -0.7522  0.2105
  575MOL0     H79331  12.701   2.539   3.950 -3.5401 -1.0019 -1.5713
  575MOL0     H79332  12.376   2.394   3.578 -0.6793 -1.0331 -1.0873
  575MOL0     H79333  12.144   2.375   3.522 -0.8695 -0.1022 -0.4150
  575MOL0     H79334  10.599   2.507   3.014 -0.4514 -1.3066 -0.1145
  575MOL0     H79335  10.403   2.410   2.886  0.2688  0.2909  0.5370
  575MOL0     H79336  10.008   2.635   2.663  2.2025 -1.4017 -0.7075
  575MOL0     H79337   9.767   2.613   2.615  0.8404 -0.3250  2.4954
  575MOL0     H79338   9.549   2.528   2.632  0.3573 -0.0141 -0.6442
  575MOL0     H79339   9.575   2.565   2.462  2.2458  0.4801  1.6710
  575MOL0     H79340   9.389   2.345   2.554 -2.2294 -0.1109 -0.7098
  575MOL0     H79341   9.408   2.418   2.391  0.1727  5.1116 -0.6211
  575MOL0     H79342   9.304   2.584   2.622 -0.6204 -2.2012  1.3401
  575MOL0     H79343   9.342   2.640   2.464  0.1017  0.3591 -0.4994
  575MOL0     H79344   9.114   2.509   2.561  0.3858 -4.0420  1.6963
  575MOL0     H79345   9.165   2.401   2.423 -4.5465  0.9827 -1.1889
  575MOL0     H79346   9.103   2.723   2.176 -0.0510  0.7614 -0.2885
  575MOL0     H79347   9.818   2.208   2.502 -1.4386 -0.2967  1.8924
  575MOL0     H79348  10.153   2.201   2.520 -1.8956 -0.4839 -1.4140
  575MOL0     H79349  10.097   2.144   2.684 -0.0256  1.1187  0.4057
  575MOL0     H79350  10.011   2.101   2.528 -0.2368  0.6407  0.9213
  576MOL0     O79351  10.035   9.590   3.168 -0.0469  0.1046 -0.0201
  576MOL0     C79352  10.088   9.697   3.136 -0.1900  0.3087 -0.6491
  576MOL0     O79353  10.219   9.716   3.128 -0.6099 -0.2720  0.1575
  576MOL0     C79354  10.322   9.625   3.151  1.1081  0.1048  0.2135
  576MOL0     C79355  10.307   9.517   3.235 -0.5234  0.3235  0.1630
  576MOL0     C79356  10.417   9.428   3.263 -0.2460 -0.1529 -0.3106
  576MOL0     C79357  10.544   9.455   3.204  0.7042  0.3241  0.0629
  576MOL0     O79358  10.650   9.370   3.228  0.5748  0.4865  0.4197
  576MOL0     C79359  10.762   9.418   3.298 -0.5163 -0.8047 -0.0880
  576MOL0     C79360  10.735   9.410   3.446  0.4544  0.5931 -0.6519
  576MOL0     C79361  10.711   9.269   3.498  0.2830  0.1135 -0.1025
  576MOL0     C79362  10.679   9.274   3.648 -0.5360 -0.2973 -0.3135
  576MOL0     C79363  10.708   9.135   3.706  0.7633 -0.1063  0.1404
  576MOL0     C79364  10.645   9.118   3.843 -0.0726  0.4339  0.4916
  576MOL0     C79365  10.689   8.982   3.903  1.2177 -0.2610 -0.6052
  576MOL0     C79366  10.612   8.859   3.846 -0.3796  0.1394 -0.3370
  576MOL0     N79367  10.700   8.736   3.868 -0.0407 -0.7942  0.1499
  576MOL0     C79368  10.803   8.689   3.792 -0.0242  0.7675  0.2921
  576MOL0     C79369  10.850   8.589   3.861 -0.4321 -0.3046  0.3530
  576MOL0     C79370  10.949   8.493   3.813 -0.5022  0.5489  0.4105
  576MOL0     C79371  11.084   8.497   3.884  0.2677  0.3980  0.6817
  576MOL0     C79372  11.178   8.388   3.838  0.5455 -0.3984  0.0534
  576MOL0     C79373  11.301   8.377   3.930  0.6421  0.0176 -0.3408
  576MOL0     O79374  11.391   8.476   3.887  0.6455  0.1654 -0.1409
  576MOL0     C79375  11.500   8.502   3.971 -0.1063  0.0673  0.8521
  576MOL0     C79376  11.542   8.425   4.080  0.0839 -0.1952  0.7989
  576MOL0     C79377  11.665   8.454   4.146  1.1236  0.0980  1.0351
  576MOL0     C79378  11.706   8.369   4.267  0.7572  0.5523 -2.0031
  576MOL0     C79379  11.743   8.566   4.101 -0.3032 -0.9275  0.4824
  576MOL0     C79380  11.877   8.609   4.156 -0.8400  0.9205  0.5915
  576MOL0     O79381  11.955   8.688   4.076  0.7527  0.0254  0.0957
  576MOL0     C79382  12.073   8.738   4.123 -0.1028 -0.4186 -0.0345
  576MOL0     C79383  12.077   8.882   4.138  0.1881  0.6793 -0.6141
  576MOL0     C79384  12.188   8.931   4.201 -0.4842  0.0749  0.5609
  576MOL0     C79385  12.310   8.852   4.224  0.2337  0.3746  0.5373
  576MOL0     O79386  12.418   8.920   4.270 -0.4111 -0.3621 -0.0436
  576MOL0     C79387  12.535   8.854   4.306 -0.5521 -0.0461 -0.0424
  576MOL0     C79388  12.647   8.951   4.322  0.3442 -0.4209  0.0306
  576MOL0     C79389  12.773   8.879   4.366 -0.1311  0.0635 -0.7796
  576MOL0     C79390  12.832   8.784   4.261  0.2316 -0.6786  0.4767
  576MOL0     C79391  12.978   8.739   4.294  0.8247  0.3405  0.3332
  576MOL0     C79392  12.997   8.679   4.427 -0.7851 -0.1483  0.0160
  576MOL0     C79393  13.144   8.633   4.450  1.0055  0.1419 -0.3444
  576MOL0     C79394  13.154   8.534   4.558  0.4519 -0.0888 -0.0970
  576MOL0    Cl79395  13.144   8.626   4.713  0.0059 -0.1093 -0.2613
  576MOL0     C79396  12.306   8.711   4.195  0.6617  0.2444 -0.3447
  576MOL0     C79397  12.183   8.654   4.154  0.3835  0.3120  0.3035
  576MOL0     O79398  11.913   8.561   4.262 -0.0698 -0.0088 -0.2351
  576MOL0     C79399  11.702   8.642   3.988  0.9515 -0.0187 -0.4125
  576MOL0     C79400  11.585   8.604   3.926 -0.2803 -1.0200 -0.5269
  576MOL0     N79401  10.777   8.567   3.975  0.8115  0.2369  0.8823
  576MOL0     N79402  10.686   8.656   3.982 -0.1109  0.0240  0.5042
  576MOL0     C79403  10.553   9.559   3.111  0.0483  0.4889  0.5200
  576MOL0     C79404  10.445   9.639   3.087  0.2337  0.0078  0.7691
  576MOL0     C79405   9.996   9.813   3.126 -0.1812  0.0011 -0.1008
  576MOL0     C79406   9.904   9.833   3.228 -0.9506  0.5115 -0.4520
  576MOL0     C79407   9.812   9.941   3.230  0.5361  0.3309  1.7531
  576MOL0     C79408   9.806  10.030   3.123  0.2355  0.0814 -0.2148
  576MOL0     O79409   9.707  10.127   3.127 -0.6071 -0.1379 -0.1305
  576MOL0     C79410   9.658  10.186   3.006  0.1516  0.0365 -0.4624
  576MOL0     C79411   9.515  10.250   3.017  0.2219  0.5607 -0.2906
  576MOL0     C79412   9.473  10.305   3.153 -0.1225  0.1328  0.3078
  576MOL0     C79413   9.579  10.401   3.217  0.0531  0.4103 -0.6320
  576MOL0     C79414   9.606  10.516   3.129  0.4928  0.0579  0.3330
  576MOL0     C79415   9.645  10.584   3.043 -0.1985 -0.6019 -1.1448
  576MOL0     C79416   9.893  10.008   3.018 -0.1328 -0.1128  0.2402
  576MOL0     C79417   9.989   9.910   3.019 -0.0090  0.3692  0.1228
  576MOL0     C79418  10.066   9.904   2.898  0.0678 -0.6871 -0.1868
  576MOL0     H79419  10.217   9.490   3.290 -0.3444 -2.6119 -0.8079
  576MOL0     H79420  10.399   9.348   3.335 -0.9819  0.2856  0.0081
  576MOL0     H79421  10.782   9.516   3.255 -1.6621 -1.3078 -1.9150
  576MOL0     H79422  10.844   9.350   3.270  0.6914  0.4391  0.3209
  576MOL0     H79423  10.817   9.463   3.494 -1.1651  2.1632  0.5198
  576MOL0     H79424  10.654   9.481   3.466  0.2508  0.7837 -2.0529
  576MOL0     H79425  10.627   9.226   3.442  0.0916  0.3155  0.0298
  576MOL0     H79426  10.808   9.218   3.490  1.8979  3.2776 -2.8189
  576MOL0     H79427  10.738   9.354   3.693 -1.6630  0.6972 -0.5678
  576MOL0     H79428  10.573   9.301   3.648 -0.4935 -0.0779 -1.1707
  576MOL0     H79429  10.817   9.119   3.707  0.8222  0.3000  1.5754
  576MOL0     H79430  10.662   9.063   3.639  0.6038 -0.3613  0.5222
  576MOL0     H79431  10.690   9.197   3.903  2.6601 -1.5556  1.2850
  576MOL0     H79432  10.537   9.131   3.840  0.1682  2.8244  0.6861
  576MOL0     H79433  10.669   8.974   4.011 -1.1437 -1.1150 -1.0388
  576MOL0     H79434  10.794   8.960   3.886  1.2484  0.4766 -1.3869
  576MOL0     H79435  10.513   8.842   3.890  0.6741  0.1693  2.2513
  576MOL0     H79436  10.602   8.868   3.737 -0.1246  0.2285 -0.3528
  576MOL0     H79437  10.831   8.718   3.691  1.7827  0.6568  0.7280
  576MOL0     H79438  10.970   8.510   3.707  1.3241  0.5684  0.7493
  576MOL0     H79439  10.903   8.394   3.823 -1.9707  1.1357 -0.2755
  576MOL0     H79440  11.113   8.601   3.870 -3.1497  1.2137 -1.5451
  576MOL0     H79441  11.065   8.487   3.991  0.7350  2.1247  0.9483
  576MOL0     H79442  11.128   8.290   3.836  1.4172 -0.8671  0.7551
  576MOL0     H79443  11.220   8.410   3.739  1.4932  0.7866  0.7036
  576MOL0     H79444  11.274   8.385   4.036  0.8825  1.2207 -0.3542
  576MOL0     H79445  11.348   8.279   3.924 -0.5226 -0.7719  2.1991
  576MOL0     H79446  11.493   8.332   4.108  0.3563 -1.6129 -2.9001
  576MOL0     H79447  11.749   8.417   4.355 -0.2558  1.8070 -2.1639
  576MOL0     H79448  11.783   8.298   4.236  1.1123  1.2814 -2.8290
  576MOL0     H79449  11.621   8.314   4.310  0.4850  0.6208 -2.4442
  576MOL0     H79450  11.994   8.950   4.130  0.4875  1.4409  1.8919
  576MOL0     H79451  12.180   9.037   4.222 -1.5085  0.5456 -1.8927
  576MOL0     H79452  12.531   8.806   4.404  1.2160 -2.9802 -1.3043
  576MOL0     H79453  12.556   8.768   4.242  2.3996 -0.4782  1.3483
  576MOL0     H79454  12.653   9.001   4.225 -1.5990 -2.2270 -1.1138
  576MOL0     H79455  12.611   9.016   4.402  0.0688  0.2624 -0.6426
  576MOL0     H79456  12.752   8.819   4.455  0.6357  0.3936 -0.3645
  576MOL0     H79457  12.851   8.947   4.403  0.4761 -1.5251  1.0558
  576MOL0     H79458  12.824   8.826   4.161 -2.3764  2.5086  1.8287
  576MOL0     H79459  12.761   8.702   4.247  0.3989 -0.4784 -1.9643
  576MOL0     H79460  13.008   8.659   4.227 -1.9557 -1.3245  0.9169
  576MOL0     H79461  13.047   8.823   4.281  0.3294  0.5131 -1.4885
  576MOL0     H79462  12.933   8.591   4.443 -1.0188  0.4574  3.0828
  576MOL0     H79463  12.965   8.752   4.502 -1.4924 -2.1853  1.8191
  576MOL0     H79464  13.205   8.722   4.465 -1.9157  2.6294 -2.0371
  576MOL0     H79465  13.174   8.594   4.352  0.2417 -0.2901 -0.4195
  576MOL0     H79466  13.254   8.492   4.547  0.0399 -1.2063  0.2534
  576MOL0     H79467  13.085   8.449   4.556  1.1650 -0.8497  2.5624
  576MOL0     H79468  12.378   8.631   4.180 -1.9133 -2.1666 -0.7915
  576MOL0     H79469  12.170   8.552   4.121 -0.2788  0.6565 -0.5285
  576MOL0     H79470  11.755   8.723   3.940 -3.3443  3.7221  0.5499
  576MOL0     H79471  11.551   8.661   3.841  0.0481  1.2179  0.7488
  576MOL0     H79472  10.645   9.573   3.055 -0.7712 -2.1368 -1.7024
  576MOL0     H79473  10.453   9.730   3.028  0.6919 -1.6264 -1.8242
  576MOL0     H79474   9.894   9.753   3.301 -1.0951  0.3444 -0.6527
  576MOL0     H79475   9.732   9.934   3.303 -0.1438 -0.1824  0.9771
  576MOL0     H79476   9.720  10.267   2.966 -0.9288 -0.2174 -2.8651
  576MOL0     H79477   9.638  10.113   2.927 -0.4615  1.0485 -1.2770
  576MOL0     H79478   9.438  10.178   2.988 -2.2373  3.2700 -0.8668
  576MOL0     H79479   9.514  10.328   2.940  4.3118  0.7022 -0.4347
  576MOL0     H79480   9.375  10.354   3.146 -0.7566 -1.1874 -0.4275
  576MOL0     H79481   9.453  10.222   3.222  0.2879 -0.7426 -0.6053
  576MOL0     H79482   9.675  10.359   3.246 -0.3117 -0.9240 -1.2173
  576MOL0     H79483   9.528  10.430   3.309  2.7602 -0.6763  1.3462
  576MOL0     H79484   9.674  10.660   2.972  0.4629 -1.4563 -1.8151
  576MOL0     H79485   9.879  10.069   2.929  1.2816 -0.6939 -0.3957
  576MOL0     H79486  10.025   9.956   2.811 -2.7697  1.5112  2.2301
  576MOL0     H79487  10.164   9.952   2.904  0.5431 -1.4644 -1.4633
  576MOL0     H79488  10.083   9.804   2.859 -3.6954 -0.0878 -4.0350
  577MOL0     O79489   8.874   5.998  10.440 -0.1396  0.3820  0.3313
  577MOL0     C79490   8.814   5.941  10.347 -0.4663 -0.3537  0.2335
  577MOL0     O79491   8.878   5.861  10.258  0.4555  0.5190 -0.2615
  577MOL0     C79492   9.007   5.829  10.299 -0.8492  0.2925  0.0699
  577MOL0     C79493   9.114   5.900  10.242 -0.0216 -0.5935 -0.2672
  577MOL0     C79494   9.247   5.886  10.265 -0.7555  0.1898  1.1408
  577MOL0     C79495   9.285   5.786  10.356  0.7644  0.2545  0.3978
  577MOL0     O79496   9.418   5.780  10.388 -0.7072  0.0273 -0.2692
  577MOL0     C79497   9.467   5.660  10.446  0.9145 -0.3599 -0.1010
  577MOL0     C79498   9.604   5.688  10.496 -0.8548 -0.6604  0.2411
  577MOL0     C79499   9.663   5.556  10.543  0.0091  0.3593 -0.7970
  577MOL0     C79500   9.804   5.577  10.607 -0.8159 -0.1541  0.1820
  577MOL0     C79501   9.796   5.634  10.745  0.1893  0.3101  0.1101
  577MOL0     C79502   9.943   5.627  10.794 -1.1368 -0.0404 -0.3885
  577MOL0     C79503  10.020   5.759  10.784  0.3736 -0.7624  0.7870
  577MOL0     C79504  10.153   5.769  10.852 -1.0338 -0.0945  0.4039
  577MOL0     N79505  10.209   5.904  10.836  0.1178 -0.7544  0.6022
  577MOL0     C79506  10.276   5.962  10.937 -0.5711 -0.6346  0.0789
  577MOL0     C79507  10.320   6.081  10.892 -0.9808 -0.5267  0.7317
  577MOL0     C79508  10.408   6.182  10.960  0.3102 -0.6183 -0.1289
  577MOL0     C79509  10.529   6.223  10.874  0.3489  0.9436 -0.1920
  577MOL0     C79510  10.606   6.335  10.932 -0.3177 -0.1876 -0.5624
  577MOL0     C79511  10.714   6.303  11.047 -0.0723 -0.0751 -0.2729
  577MOL0     O79512  10.826   6.235  10.991 -0.7282 -0.8339  0.4980
  577MOL0     C79513  10.937   6.202  11.070  0.6955  0.1990 -0.0272
  577MOL0     C79514  10.962   6.253  11.198 -0.3735 -1.1611 -1.1514
  577MOL0     C79515  11.070   6.223  11.280  0.6120  0.2355 -0.3758
  577MOL0     C79516  11.070   6.273  11.424  0.4169 -0.5065  0.6091
  577MOL0     C79517  11.172   6.144  11.225 -0.5949 -0.2224 -0.4118
  577MOL0     C79518  11.292   6.096  11.306  0.1199 -0.5161 -0.2960
  577MOL0     O79519  11.357   5.979  11.259 -0.2860 -0.5922 -0.2145
  577MOL0     C79520  11.474   5.950  11.316 -0.4102  0.1907 -0.8772
  577MOL0     C79521  11.477   5.826  11.383  0.2928  0.0071  0.1877
  577MOL0     C79522  11.584   5.786  11.458  0.7818 -0.2487 -0.2122
  577MOL0     C79523  11.702   5.867  11.453 -0.5338  0.1100 -0.3893
  577MOL0     O79524  11.807   5.832  11.531 -0.1775 -1.1999 -0.4113
  577MOL0     C79525  11.944   5.857  11.490 -0.0884  0.3471 -0.6291
  577MOL0     C79526  12.025   5.937  11.590  0.2889  0.3401 -0.6975
  577MOL0     C79527  11.990   5.899  11.737  0.4265  0.2799 -0.4093
  577MOL0     C79528  12.088   5.940  11.846 -0.4629 -0.4007  0.6271
  577MOL0     C79529  12.037   5.912  11.982 -0.5617  0.3616  0.0413
  577MOL0     C79530  12.026   5.761  12.009 -0.2605  0.3425 -0.3772
  577MOL0     C79531  12.147   5.679  11.974  0.2188  0.4279  0.7392
  577MOL0     C79532  12.156   5.545  12.035 -0.1488  0.5630  0.2845
  577MOL0    Cl79533  12.017   5.457  11.966 -0.1538 -0.0538 -0.1871
  577MOL0     C79534  11.700   5.986  11.379 -0.0469 -0.2994  0.5151
  577MOL0     C79535  11.588   6.034  11.317 -0.6351  0.0343 -0.7234
  577MOL0     O79536  11.336   6.172  11.400  0.3328  0.5758 -0.1339
  577MOL0     C79537  11.148   6.093  11.096 -0.0341  0.5226  0.7492
  577MOL0     C79538  11.034   6.117  11.024 -0.3769  0.1574  0.0341
  577MOL0     N79539  10.274   6.084  10.761  0.6862  0.1527  0.6777
  577MOL0     N79540  10.220   5.980  10.725 -0.4435  0.4670 -0.0905
  577MOL0     C79541   9.184   5.720  10.421  0.8478  0.2685  0.6692
  577MOL0     C79542   9.047   5.733  10.392  0.4666  0.4867  0.2553
  577MOL0     C79543   8.670   5.948  10.321 -0.6742  0.0965  0.6961
  577MOL0     C79544   8.629   5.900  10.194  0.0866 -1.0422  0.3010
  577MOL0     C79545   8.493   5.893  10.163 -0.2604  0.7144  0.6954
  577MOL0     C79546   8.399   5.929  10.254 -0.5308 -0.5113 -0.0871
  577MOL0     O79547   8.262   5.914  10.261  0.0089 -0.3008  0.2195
  577MOL0     C79548   8.192   5.844  10.154 -0.2157  0.5720 -0.1666
  577MOL0     C79549   8.042   5.853  10.186  0.0989  0.2248 -0.4698
  577MOL0     C79550   8.006   5.999  10.150  0.2737  0.8629  0.5491
  577MOL0     C79551   7.992   6.071  10.285 -0.1747 -0.5754  0.5548
  577MOL0     C79552   7.938   6.209  10.259 -0.1837  0.2426 -0.0504
  577MOL0     C79553   7.898   6.325  10.245  0.4041 -0.6748  0.3150
  577MOL0     C79554   8.444   5.991  10.379  0.0217  0.5572 -0.1009
  577MOL0     C79555   8.576   6.004  10.409  0.0851 -0.3799 -0.0093
  577MOL0     C79556   8.600   6.084  10.531  0.0360 -0.5168 -0.8941
  577MOL0     H79557   9.094   5.979  10.171  0.3303  0.4821  0.7973
  577MOL0     H79558   9.311   5.944  10.200 -1.6458  0.9079  0.8751
  577MOL0     H79559   9.476   5.577  10.376 -1.8366 -1.4076  0.6852
  577MOL0     H79560   9.410   5.624  10.532  1.3026 -0.0353  0.3018
  577MOL0     H79561   9.673   5.737  10.427  0.7741  0.1568  2.3403
  577MOL0     H79562   9.590   5.749  10.586  2.0659  0.7935 -0.1943
  577MOL0     H79563   9.595   5.503  10.610 -0.0570  1.2292 -0.1708
  577MOL0     H79564   9.677   5.494  10.454 -1.8121  0.1742 -0.9804
  577MOL0     H79565   9.859   5.482  10.603 -0.0517  0.2253  1.1900
  577MOL0     H79566   9.864   5.646  10.548  1.7716 -1.9653  0.5057
  577MOL0     H79567   9.736   5.564  10.805  0.4898 -1.4444 -1.5528
  577MOL0     H79568   9.750   5.732  10.757 -1.4925 -0.5075  0.6453
  577MOL0     H79569   9.931   5.604  10.900 -0.5989  0.4534 -0.2164
  577MOL0     H79570  10.001   5.557  10.733 -1.2358 -0.1435 -0.3658
  577MOL0     H79571   9.962   5.848  10.810 -0.2511  0.6483 -4.3049
  577MOL0     H79572  10.042   5.773  10.677  1.9315 -2.2221  0.8634
  577MOL0     H79573  10.155   5.719  10.950 -2.1106 -1.0317 -0.0314
  577MOL0     H79574  10.219   5.704  10.794 -1.5190 -1.3640  1.2217
  577MOL0     H79575  10.300   5.916  11.032 -0.4009 -1.9195 -0.5662
  577MOL0     H79576  10.438   6.157  11.063  0.6539  0.9306  0.1687
  577MOL0     H79577  10.350   6.272  10.981  0.2219 -0.4936 -0.9059
  577MOL0     H79578  10.601   6.141  10.867  0.2704  0.7800  0.7771
  577MOL0     H79579  10.494   6.244  10.773  0.5664  0.7128 -0.3144
  577MOL0     H79580  10.669   6.381  10.855  0.8368 -1.0551 -0.1629
  577MOL0     H79581  10.540   6.413  10.971 -0.4351 -0.6843  0.2572
  577MOL0     H79582  10.752   6.398  11.084 -0.0813 -0.4315  0.7019
  577MOL0     H79583  10.673   6.260  11.139  0.1133  1.5395  0.6034
  577MOL0     H79584  10.905   6.333  11.244  1.2579 -1.6812  2.0789
  577MOL0     H79585  11.110   6.196  11.490  2.6803 -0.9561 -1.1696
  577MOL0     H79586  10.974   6.318  11.452  0.4230 -1.3624  2.1455
  577MOL0     H79587  11.137   6.359  11.417  1.2627 -1.2671 -1.3637
  577MOL0     H79588  11.388   5.764  11.386  0.4583 -0.3226 -1.0334
  577MOL0     H79589  11.590   5.691  11.510 -0.8245  0.3479  1.1248
  577MOL0     H79590  11.991   5.758  11.486  2.1477  1.1738  2.1198
  577MOL0     H79591  11.956   5.910  11.395  3.5298 -1.4428 -1.3220
  577MOL0     H79592  12.128   5.920  11.558 -0.2090 -0.9598 -1.7262
  577MOL0     H79593  11.997   6.042  11.580  2.6140  0.8849 -2.1387
  577MOL0     H79594  11.972   5.792  11.748  1.9858 -0.1586 -1.7795
  577MOL0     H79595  11.898   5.953  11.763  1.9656  1.8277  2.3231
  577MOL0     H79596  12.108   6.047  11.833 -1.8961 -0.3236 -1.5104
  577MOL0     H79597  12.186   5.897  11.823 -0.6472  0.6326 -2.7465
  577MOL0     H79598  12.107   5.955  12.054  0.5556  1.4845 -1.6446
  577MOL0     H79599  11.946   5.971  11.992 -0.5305  0.2317  1.4003
  577MOL0     H79600  11.942   5.714  11.957  1.5049 -3.3023 -0.2378
  577MOL0     H79601  12.003   5.739  12.114 -0.9527  1.8620 -0.1908
  577MOL0     H79602  12.238   5.731  12.006  2.4330 -2.2139 -0.7707
  577MOL0     H79603  12.155   5.662  11.866  2.1573 -0.8002  1.0325
  577MOL0     H79604  12.162   5.539  12.144  0.1008 -4.1443  0.2256
  577MOL0     H79605  12.246   5.492  12.002 -0.4214  1.4172 -2.0186
  577MOL0     H79606  11.784   6.054  11.387 -0.9824  0.7242  2.2171
  577MOL0     H79607  11.591   6.134  11.275 -1.4255  1.7115  2.8109
  577MOL0     H79608  11.218   6.024  11.049 -1.5078  1.4569 -3.2511
  577MOL0     H79609  11.015   6.065  10.931 -1.9535 -0.1851  0.5143
  577MOL0     H79610   9.212   5.644  10.494  1.2204 -0.3289 -0.0770
  577MOL0     H79611   8.974   5.680  10.451  1.6060 -0.0741  1.1970
  577MOL0     H79612   8.689   5.859  10.114 -2.6862 -1.4781 -1.6989
  577MOL0     H79613   8.469   5.847  10.068  1.3790  2.1356 -0.4813
  577MOL0     H79614   8.224   5.881  10.056  2.0053 -3.0166 -0.9851
  577MOL0     H79615   8.225   5.740  10.153 -1.4173  0.1208  1.9630
  577MOL0     H79616   8.013   5.830  10.289  2.4256  2.9680  0.9444
  577MOL0     H79617   7.991   5.783  10.119 -1.0357  0.4626  0.1164
  577MOL0     H79618   8.083   6.047  10.089  0.8259 -0.4824  0.1526
  577MOL0     H79619   7.910   5.999  10.098  0.2706 -0.4877  0.5076
  577MOL0     H79620   8.084   6.091  10.340 -0.8987  1.5505  1.0643
  577MOL0     H79621   7.916   6.023  10.347 -1.1630  0.2553  0.0034
  577MOL0     H79622   7.863   6.426  10.254  0.6637 -0.6821  1.4677
  577MOL0     H79623   8.361   6.024  10.440 -1.3458  0.8097 -1.9957
  577MOL0     H79624   8.642   6.180  10.498  1.8696 -0.5512  1.1402
  577MOL0     H79625   8.512   6.096  10.596  0.5815 -1.5517  0.0635
  577MOL0     H79626   8.665   6.040  10.607 -1.9437  2.0189  2.5588
  578MOL0     O79627  10.491   8.987   7.923  0.9172 -0.2994 -0.2906
  578MOL0     C79628  10.427   8.985   7.815 -0.0400  0.4351  1.0771
  578MOL0     O79629  10.452   9.069   7.709  1.0005  0.2690 -0.0347
  578MOL0     C79630  10.544   9.172   7.729 -0.2607 -0.6510 -0.8453
  578MOL0     C79631  10.652   9.200   7.632  0.0330 -0.2443 -0.4862
  578MOL0     C79632  10.742   9.298   7.658 -0.2165  0.5677 -0.3442
  578MOL0     C79633  10.730   9.385   7.763  0.9476  0.2387  0.1205
  578MOL0     O79634  10.813   9.492   7.757  0.3183  0.1211  0.0113
  578MOL0     C79635  10.818   9.580   7.875  0.5919  0.2235 -0.3735
  578MOL0     C79636  10.937   9.538   7.965 -0.9562  0.1551 -1.2525
  578MOL0     C79637  10.898   9.400   8.035 -1.2017  0.0643  0.7463
  578MOL0     C79638  11.018   9.353   8.108  0.8059 -0.8378  0.5634
  578MOL0     C79639  10.983   9.284   8.240 -0.7752  0.2893 -0.6774
  578MOL0     C79640  10.908   9.371   8.334  0.2269  0.3289 -0.2442
  578MOL0     C79641  10.971   9.504   8.361  0.5108 -0.0476 -0.0146
  578MOL0     C79642  10.900   9.589   8.468 -0.3387  0.6082  0.3302
  578MOL0     N79643  10.978   9.696   8.531  0.0355  0.8719 -0.1609
  578MOL0     C79644  11.029   9.797   8.460  0.1753 -0.5178  0.3075
  578MOL0     C79645  11.104   9.863   8.556 -0.3683  0.1455  0.3427
  578MOL0     C79646  11.169   9.997   8.528 -0.5035 -0.0637  0.3402
  578MOL0     C79647  11.292  10.024   8.619  0.5853 -0.1484  0.0682
  578MOL0     C79648  11.382  10.132   8.553 -1.2946  0.5978  0.3740
  578MOL0     C79649  11.507  10.159   8.641  0.8736 -0.0498  0.4490
  578MOL0     O79650  11.586  10.050   8.610 -0.4232 -0.1434  0.5913
  578MOL0     C79651  11.705  10.044   8.685 -0.2259  0.3308 -0.5483
  578MOL0     C79652  11.761   9.920   8.719 -0.0738  0.2549 -1.0127
  578MOL0     C79653  11.867   9.913   8.812 -0.1290  0.2313 -0.2107
  578MOL0     C79654  11.917   9.773   8.839 -0.2652  0.0070 -0.9472
  578MOL0     C79655  11.915  10.028   8.880 -0.0688  0.6030 -0.4172
  578MOL0     C79656  12.020  10.029   8.981 -0.1620 -0.6117 -1.2308
  578MOL0     O79657  12.086  10.152   9.015  0.2285 -0.1752  0.7219
  578MOL0     C79658  12.189  10.146   9.101 -0.6404  0.3714  0.3475
  578MOL0     C79659  12.184  10.103   9.231 -0.1763 -0.0237  0.0836
  578MOL0     C79660  12.302  10.108   9.314 -0.2712 -0.2788  0.3833
  578MOL0     C79661  12.425  10.155   9.252 -0.4172 -0.5455  0.0308
  578MOL0     O79662  12.535  10.150   9.338 -0.9274  0.3357 -0.2378
  578MOL0     C79663  12.630  10.062   9.293  0.8486 -0.2732 -0.8751
  578MOL0     C79664  12.720  10.034   9.418  0.6401 -0.1136  0.0686
  578MOL0     C79665  12.833   9.939   9.379  0.1438  0.1959 -0.1610
  578MOL0     C79666  12.966  10.006   9.360 -0.9412 -0.0504  0.3327
  578MOL0     C79667  13.083   9.911   9.360  0.1393  0.3707  0.0412
  578MOL0     C79668  13.076   9.829   9.240  0.2997 -0.7267  0.8751
  578MOL0     C79669  13.197   9.732   9.238 -0.2958 -0.2060  0.0856
  578MOL0     C79670  13.331   9.790   9.237 -0.2734 -0.0264  0.6996
  578MOL0    Cl79671  13.359   9.895   9.095  0.0843 -0.2776 -0.1110
  578MOL0     C79672  12.424  10.207   9.128  0.0043  0.3792 -0.1882
  578MOL0     C79673  12.304  10.207   9.052  0.4717 -0.1823 -0.3503
  578MOL0     O79674  12.048   9.925   9.034  0.4256  0.6190  0.0969
  578MOL0     C79675  11.863  10.149   8.840  0.7636  0.4395  1.0328
  578MOL0     C79676  11.753  10.157   8.751 -0.3377 -0.4058  0.3797
  578MOL0     N79677  11.102   9.793   8.674  0.6924  0.0481 -0.4262
  578MOL0     N79678  11.016   9.697   8.664  0.0476 -0.3129 -0.7995
  578MOL0     C79679  10.623   9.374   7.851 -0.1317 -0.2517 -0.7871
  578MOL0     C79680  10.537   9.259   7.845 -0.5150  0.0133  1.2261
  578MOL0     C79681  10.316   8.894   7.794 -0.2277  0.8224 -0.3402
  578MOL0     C79682  10.182   8.934   7.804  0.4904  0.5929  0.7321
  578MOL0     C79683  10.085   8.840   7.763  0.4399 -1.0413 -0.2532
  578MOL0     C79684  10.114   8.707   7.740  1.3585  0.9076  0.4501
  578MOL0     O79685  10.005   8.624   7.708 -0.3299  0.1047 -0.0099
  578MOL0     C79686  10.038   8.485   7.682  0.5101  0.4088 -0.7316
  578MOL0     C79687   9.913   8.417   7.630 -0.7038  0.3341  0.1345
  578MOL0     C79688   9.951   8.269   7.598  0.3664 -0.0641  0.6461
  578MOL0     C79689   9.899   8.221   7.464  0.6931  0.5247 -0.1797
  578MOL0     C79690   9.965   8.098   7.432  0.8676  0.1441  0.0924
  578MOL0     C79691  10.020   7.990   7.406 -0.0189 -0.4628 -0.8726
  578MOL0     C79692  10.245   8.667   7.730  0.0782  0.3501  0.6054
  578MOL0     C79693  10.347   8.761   7.751  0.4463  0.0897  0.4505
  578MOL0     C79694  10.491   8.706   7.756  0.2846 -0.6036 -0.9057
  578MOL0     H79695  10.674   9.127   7.554 -2.3649 -0.6533 -0.8708
  578MOL0     H79696  10.834   9.308   7.602  1.2889 -1.4581  1.5993
  578MOL0     H79697  10.728   9.582   7.939  0.8957 -0.0513  0.0718
  578MOL0     H79698  10.847   9.679   7.839  3.1053  1.4308  4.1517
  578MOL0     H79699  11.033   9.530   7.913 -1.5847  3.2742 -3.1618
  578MOL0     H79700  10.949   9.609   8.047 -2.8834 -0.0837 -0.7017
  578MOL0     H79701  10.803   9.405   8.089 -0.3290 -0.0853  2.3599
  578MOL0     H79702  10.881   9.329   7.954  0.6415  0.9410 -0.4781
  578MOL0     H79703  11.081   9.286   8.048 -0.0268 -1.8384  0.7925
  578MOL0     H79704  11.089   9.436   8.121  0.2234 -0.4360  1.2454
  578MOL0     H79705  11.074   9.262   8.296 -0.1128  0.6297 -1.5871
  578MOL0     H79706  10.927   9.190   8.233  0.5828 -0.5224 -0.8740
  578MOL0     H79707  10.802   9.383   8.311 -0.5306  1.0965  3.0554
  578MOL0     H79708  10.908   9.315   8.428 -1.6288 -0.9053 -0.9115
  578MOL0     H79709  10.961   9.561   8.268  2.3790 -1.5667 -1.2013
  578MOL0     H79710  11.077   9.486   8.381 -0.0015 -2.0401  1.1304
  578MOL0     H79711  10.801   9.622   8.434 -0.6682  1.6478  2.1073
  578MOL0     H79712  10.882   9.519   8.550  0.7410 -0.5268 -0.3830
  578MOL0     H79713  10.999   9.829   8.361 -2.3424 -0.5495  1.0055
  578MOL0     H79714  11.090  10.073   8.527 -2.1846 -1.7255 -1.2981
  578MOL0     H79715  11.202   9.999   8.424 -0.5145  2.1158  0.3238
  578MOL0     H79716  11.263  10.051   8.721 -0.3379  1.2918 -0.5445
  578MOL0     H79717  11.351   9.932   8.627  0.0982 -0.7461 -2.5325
  578MOL0     H79718  11.410  10.102   8.451 -2.3364 -1.1318  0.5650
  578MOL0     H79719  11.325  10.222   8.530 -0.7705  0.2055 -3.0379
  578MOL0     H79720  11.554  10.253   8.610 -1.2798  1.6795  2.0638
  578MOL0     H79721  11.471  10.158   8.745 -0.1851  1.0381  0.1178
  578MOL0     H79722  11.718   9.836   8.664 -0.2745  0.5958 -1.3823
  578MOL0     H79723  12.025   9.763   8.853 -0.7035 -1.4992  2.1441
  578MOL0     H79724  11.887   9.694   8.769  0.0279  0.2353 -1.3377
  578MOL0     H79725  11.875   9.750   8.937 -0.4264 -1.4691 -1.3338
  578MOL0     H79726  12.090  10.069   9.274  0.9639 -2.1766  1.0250
  578MOL0     H79727  12.311  10.081   9.419  0.1843 -1.1710  0.1293
  578MOL0     H79728  12.583   9.971   9.255 -1.4806  0.2008  0.6323
  578MOL0     H79729  12.695  10.113   9.221  0.2918 -0.0995 -1.2639
  578MOL0     H79730  12.754  10.125   9.468 -1.4698  1.0921 -0.5597
  578MOL0     H79731  12.657   9.981   9.491 -1.8648  1.7967 -0.5396
  578MOL0     H79732  12.802   9.881   9.292  0.3349  3.1884 -2.3932
  578MOL0     H79733  12.844   9.871   9.465  2.6724 -0.3880 -0.8574
  578MOL0     H79734  12.981  10.080   9.439  1.6419  0.4788 -0.5614
  578MOL0     H79735  12.967  10.068   9.269  1.4732  1.2935  1.1806
  578MOL0     H79736  13.181   9.959   9.369  1.1348 -1.7748  1.3868
  578MOL0     H79737  13.081   9.845   9.447 -2.3293  0.1716 -0.0936
  578MOL0     H79738  13.089   9.893   9.152  0.3630 -0.5484  1.0159
  578MOL0     H79739  12.987   9.766   9.227 -0.9171  1.0943 -0.0913
  578MOL0     H79740  13.199   9.686   9.139  1.4806  1.6173 -0.8042
  578MOL0     H79741  13.182   9.661   9.319  0.8913  1.5248  1.9341
  578MOL0     H79742  13.405   9.710   9.232  0.6658  0.8688  0.0080
  578MOL0     H79743  13.348   9.860   9.319 -1.6220  0.8163  0.2972
  578MOL0     H79744  12.516  10.248   9.088 -1.9901  2.5958 -2.9063
  578MOL0     H79745  12.309  10.255   8.955 -1.9015 -0.5603 -0.7308
  578MOL0     H79746  11.892  10.237   8.897 -0.5466 -0.3964  3.0990
  578MOL0     H79747  11.726  10.260   8.729 -0.8352 -0.2070  1.7943
  578MOL0     H79748  10.583   9.441   7.926  0.9363 -0.1078 -0.3284
  578MOL0     H79749  10.455   9.256   7.916 -0.8920  1.5685  0.8997
  578MOL0     H79750  10.146   9.034   7.827 -1.2504 -0.0167  0.7757
  578MOL0     H79751   9.982   8.872   7.752  0.9707  0.5280 -0.9604
  578MOL0     H79752  10.116   8.476   7.605  0.3815 -2.0477 -0.6439
  578MOL0     H79753  10.072   8.445   7.777 -0.4284  2.4309  0.5243
  578MOL0     H79754   9.863   8.465   7.545 -2.6407  1.6748  1.9243
  578MOL0     H79755   9.843   8.416   7.713 -0.2698  2.8677  0.6218
  578MOL0     H79756  10.058   8.247   7.598  0.5309  0.4568 -1.8445
  578MOL0     H79757   9.925   8.205   7.683  2.8332 -0.5765  1.1144
  578MOL0     H79758   9.927   8.294   7.388  0.2099  2.3945  1.3440
  578MOL0     H79759   9.790   8.218   7.468  0.6237 -1.9708 -1.8717
  578MOL0     H79760  10.069   7.895   7.399  2.4588  0.7215 -1.0103
  578MOL0     H79761  10.265   8.566   7.695 -0.0039  0.2141  0.9437
  578MOL0     H79762  10.520   8.705   7.862 -1.1748 -0.4547 -0.4801
  578MOL0     H79763  10.489   8.605   7.714  2.2281 -0.9794 -0.2002
  578MOL0     H79764  10.562   8.773   7.705  0.4529 -1.1461 -1.3885
  579MOL0     O79765   6.037   5.146   5.504  0.2017 -0.3989 -0.0162
  579MOL0     C79766   6.000   5.038   5.462  0.8817 -0.5458 -0.4110
  579MOL0     O79767   6.084   4.939   5.424 -0.6298  0.7090 -0.6780
  579MOL0     C79768   6.218   4.944   5.434  1.3497  0.8716 -0.3760
  579MOL0     C79769   6.280   4.824   5.474 -0.2389 -0.4877  0.1733
  579MOL0     C79770   6.425   4.828   5.479 -0.9383  0.1113 -0.1818
  579MOL0     C79771   6.502   4.944   5.455  0.8936  0.2692 -0.8251
  579MOL0     O79772   6.638   4.938   5.473 -0.9214  0.5914 -0.1233
  579MOL0     C79773   6.716   5.031   5.391 -0.0660  0.1054  0.6655
  579MOL0     C79774   6.852   4.978   5.353  0.4513  0.4803  0.3480
  579MOL0     C79775   6.925   5.076   5.271  0.0160  0.4021  0.0300
  579MOL0     C79776   7.072   5.038   5.241  0.4707 -0.1992  0.5645
  579MOL0     C79777   7.133   5.142   5.149 -0.1698 -0.3146  0.0104
  579MOL0     C79778   7.261   5.095   5.080 -0.1428  0.2755  0.1187
  579MOL0     C79779   7.321   5.210   5.002  0.4773  0.5837 -0.9491
  579MOL0     C79780   7.445   5.181   4.921 -0.7185  0.2581  0.3838
  579MOL0     N79781   7.562   5.169   5.015  0.2337 -0.9706  0.3870
  579MOL0     C79782   7.646   5.068   5.012  0.3457  0.1583  0.0338
  579MOL0     C79783   7.750   5.098   5.088 -0.0365  1.0875 -0.2395
  579MOL0     C79784   7.866   5.021   5.135 -0.4369  0.3598 -0.2102
  579MOL0     C79785   7.977   5.041   5.026 -0.4946  0.0082 -0.3727
  579MOL0     C79786   8.078   4.921   5.020  0.5035 -0.0230 -0.1467
  579MOL0     C79787   8.181   4.959   4.916 -0.4169  0.1104 -0.5598
  579MOL0     O79788   8.280   4.849   4.921 -1.2987 -0.1874 -0.4396
  579MOL0     C79789   8.413   4.892   4.898 -0.4332 -0.0616  0.0595
  579MOL0     C79790   8.443   4.948   4.772  0.6649 -0.3283 -0.0157
  579MOL0     C79791   8.574   4.966   4.744  0.4967  0.2740  0.7864
  579MOL0     C79792   8.589   5.047   4.613  0.8363 -0.5255 -1.1179
  579MOL0     C79793   8.678   4.931   4.832 -0.2754 -0.3743  0.5209
  579MOL0     C79794   8.814   4.974   4.814 -0.5728 -0.2247  0.5926
  579MOL0     O79795   8.896   4.981   4.920 -0.6847 -0.0721 -0.7862
  579MOL0     C79796   9.025   5.025   4.894 -0.3449 -0.4241  0.5518
  579MOL0     C79797   9.061   5.154   4.922  0.3293  0.0949  0.1694
  579MOL0     C79798   9.194   5.201   4.909  0.1682 -0.2346 -0.8136
  579MOL0     C79799   9.294   5.113   4.867 -0.2620 -0.2812 -0.1640
  579MOL0     O79800   9.430   5.138   4.860  0.6716  0.1551 -0.0350
  579MOL0     C79801   9.473   5.161   4.993  0.3829  0.7726  0.5316
  579MOL0     C79802   9.619   5.175   5.005  0.5755 -0.9741  0.2141
  579MOL0     C79803   9.692   5.042   4.968 -0.1520  1.0504  0.1826
  579MOL0     C79804   9.842   5.032   4.963  0.2737  0.3873 -0.5835
  579MOL0     C79805   9.895   5.124   4.859  0.3033  0.6737 -0.3906
  579MOL0     C79806  10.041   5.120   4.842 -0.3655  0.3058 -1.1256
  579MOL0     C79807  10.095   5.009   4.746  0.8743  0.4488 -0.9458
  579MOL0     C79808  10.248   5.006   4.732  0.2832 -0.4762  1.1043
  579MOL0    Cl79809  10.324   4.926   4.876  0.1411 -0.0186  0.0528
  579MOL0     C79810   9.255   4.981   4.841  0.6729 -0.0617 -0.1840
  579MOL0     C79811   9.125   4.934   4.858  0.1081  0.1075  0.1613
  579MOL0     O79812   8.853   4.979   4.697  0.5894 -0.0009 -0.6704
  579MOL0     C79813   8.647   4.870   4.956  1.0326 -0.3570 -0.4857
  579MOL0     C79814   8.512   4.849   4.980 -0.2997 -0.1883 -1.2238
  579MOL0     N79815   7.725   5.225   5.142  1.2933  0.6264 -0.4800
  579MOL0     N79816   7.616   5.268   5.087 -0.1075 -0.1082  0.1394
  579MOL0     C79817   6.427   5.067   5.433  0.4813  0.2368 -0.2553
  579MOL0     C79818   6.290   5.064   5.413 -0.1738  0.1792  0.7152
  579MOL0     C79819   5.849   5.014   5.438 -0.7564 -0.9438  0.4876
  579MOL0     C79820   5.815   4.914   5.353 -0.0343 -0.0780 -0.7971
  579MOL0     C79821   5.689   4.856   5.330 -0.5533  0.2182 -0.2555
  579MOL0     C79822   5.583   4.920   5.394  0.7196 -0.8226 -0.5254
  579MOL0     O79823   5.452   4.884   5.400  0.0256  0.5792  0.2085
  579MOL0     C79824   5.421   4.785   5.304  0.1915 -0.0720  0.2737
  579MOL0     C79825   5.268   4.797   5.295 -0.8581  0.0717  0.3726
  579MOL0     C79826   5.235   4.934   5.229  1.4038 -0.2511 -0.2808
  579MOL0     C79827   5.089   4.967   5.237  0.1593  0.7393 -0.2506
  579MOL0     C79828   5.047   5.089   5.176  0.0661 -0.8596 -1.0121
  579MOL0     C79829   5.016   5.197   5.130 -0.5309 -0.0600  0.0196
  579MOL0     C79830   5.608   5.039   5.463 -0.3379  0.1675  0.2730
  579MOL0     C79831   5.740   5.086   5.487 -0.0408 -0.4092  0.6204
  579MOL0     C79832   5.753   5.210   5.576  0.6261  0.0472 -0.2074
  579MOL0     H79833   6.210   4.741   5.479 -3.5318  2.0042 -0.9610
  579MOL0     H79834   6.489   4.745   5.505 -1.1463 -0.3073 -0.9887
  579MOL0     H79835   6.736   5.127   5.440 -0.7347 -0.2339  1.6313
  579MOL0     H79836   6.660   5.043   5.298  1.3624  0.0492 -0.2363
  579MOL0     H79837   6.910   4.953   5.442 -0.4281 -0.8702  0.5764
  579MOL0     H79838   6.840   4.882   5.302  0.2375 -0.3060  1.8314
  579MOL0     H79839   6.863   5.114   5.189 -0.3103  3.0479  1.3688
  579MOL0     H79840   6.936   5.163   5.336  3.2406  0.4305 -0.3931
  579MOL0     H79841   7.125   5.026   5.336 -0.3452  2.9161  1.5235
  579MOL0     H79842   7.085   4.949   5.179  3.2212  1.0026 -0.7792
  579MOL0     H79843   7.158   5.230   5.209 -1.4361 -0.3716  0.6636
  579MOL0     H79844   7.068   5.164   5.063  0.1662 -0.3224 -0.2444
  579MOL0     H79845   7.329   5.064   5.159 -1.0750 -0.6316  0.5887
  579MOL0     H79846   7.241   5.012   5.012  0.7500  0.4258 -0.3469
  579MOL0     H79847   7.335   5.292   5.073 -0.7347 -0.1364  0.1594
  579MOL0     H79848   7.251   5.238   4.923  0.4251 -1.4420 -1.7014
  579MOL0     H79849   7.431   5.084   4.872 -3.4707  1.1018 -0.6554
  579MOL0     H79850   7.470   5.247   4.837  0.1252  0.9843  1.1799
  579MOL0     H79851   7.638   4.974   4.957 -1.5170  1.6160 -2.4021
  579MOL0     H79852   7.826   4.920   5.150 -0.6369  0.3247 -0.9529
  579MOL0     H79853   7.895   5.069   5.228 -1.6850  3.1064 -1.1510
  579MOL0     H79854   7.925   5.038   4.930 -0.8220  1.0712 -0.2444
  579MOL0     H79855   8.030   5.135   5.045 -1.2073  0.1963  0.7533
  579MOL0     H79856   8.133   4.923   5.114  0.4597  1.8763 -0.1253
  579MOL0     H79857   8.034   4.822   5.004 -2.5913  1.0733  0.7339
  579MOL0     H79858   8.134   4.975   4.819 -0.8059 -0.6945 -0.5166
  579MOL0     H79859   8.227   5.054   4.943 -0.0876 -0.7268  2.2296
  579MOL0     H79860   8.364   4.979   4.705  0.3721 -0.3783  0.3027
  579MOL0     H79861   8.624   4.980   4.533  1.8929 -0.2050 -0.9463
  579MOL0     H79862   8.657   5.131   4.634 -1.8779  1.5376  0.0444
  579MOL0     H79863   8.496   5.090   4.574  1.5627  1.3475 -0.9147
  579MOL0     H79864   8.990   5.224   4.965 -3.0583 -1.4415 -2.3989
  579MOL0     H79865   9.199   5.303   4.945 -3.5251 -1.2871  3.6873
  579MOL0     H79866   9.420   5.247   5.033 -2.2448 -0.7244  0.4990
  579MOL0     H79867   9.452   5.064   5.039  1.8336  0.5170  0.7165
  579MOL0     H79868   9.655   5.253   4.937  2.3193 -1.8381  0.0744
  579MOL0     H79869   9.644   5.204   5.108  1.6352  0.4853 -0.4202
  579MOL0     H79870   9.660   5.001   4.871  0.8392 -2.6637  1.2516
  579MOL0     H79871   9.660   4.971   5.045 -0.0646  1.2978  0.4487
  579MOL0     H79872   9.875   4.928   4.954 -2.3238 -0.6866  1.0722
  579MOL0     H79873   9.879   5.068   5.060 -0.6507 -1.8612  0.6871
  579MOL0     H79874   9.852   5.120   4.759 -0.8930 -0.1097  0.1324
  579MOL0     H79875   9.873   5.223   4.899  1.6615  0.8489 -0.0184
  579MOL0     H79876  10.093   5.108   4.937 -0.8667 -0.1860 -0.9116
  579MOL0     H79877  10.072   5.215   4.796  1.9270 -0.2062 -0.7723
  579MOL0     H79878  10.052   5.030   4.647 -0.6478 -0.1986 -0.4566
  579MOL0     H79879  10.062   4.909   4.777  1.1014 -0.1801 -2.5996
  579MOL0     H79880  10.289   5.107   4.724 -0.3567 -0.3545 -2.0196
  579MOL0     H79881  10.268   4.948   4.642  0.2192 -1.4392  1.7013
  579MOL0     H79882   9.334   4.909   4.823 -0.6768 -1.6689  0.0611
  579MOL0     H79883   9.113   4.826   4.851  1.4866 -0.0734  0.2955
  579MOL0     H79884   8.724   4.859   5.032  2.1727 -1.2824 -1.7016
  579MOL0     H79885   8.489   4.806   5.077 -2.2557 -1.7119 -2.2852
  579MOL0     H79886   6.475   5.161   5.406  2.3308 -1.1389 -2.0464
  579MOL0     H79887   6.249   5.156   5.373 -1.1136 -1.2840 -1.9372
  579MOL0     H79888   5.897   4.867   5.299 -0.8997 -3.8316  0.7925
  579MOL0     H79889   5.682   4.762   5.276 -1.2131  0.1544 -0.0702
  579MOL0     H79890   5.481   4.798   5.213  0.1964  4.0328  0.6716
  579MOL0     H79891   5.441   4.685   5.344  0.2663 -0.8595 -1.6042
  579MOL0     H79892   5.223   4.776   5.392 -3.9314 -1.3054 -1.1753
  579MOL0     H79893   5.235   4.715   5.230 -2.6380  1.3379 -0.4199
  579MOL0     H79894   5.289   5.018   5.273  1.5590  0.1609 -1.2216
  579MOL0     H79895   5.260   4.938   5.122 -2.0189 -1.0038 -1.2244
  579MOL0     H79896   5.047   4.970   5.338 -1.1210  1.7431 -0.7916
  579MOL0     H79897   5.036   4.887   5.186 -0.0309  0.5416  0.2470
  579MOL0     H79898   4.996   5.293   5.086 -0.4533 -0.1307 -0.1701
  579MOL0     H79899   5.523   5.096   5.501 -2.5100 -1.4428 -1.8425
  579MOL0     H79900   5.742   5.306   5.526 -1.5319 -0.1671 -0.2349
  579MOL0     H79901   5.664   5.209   5.640  1.3243  1.9520  0.8907
  579MOL0     H79902   5.837   5.211   5.646  1.4462 -1.1204 -1.1370
  580MOL0     O79903  10.147   8.493   5.890  0.4098  0.6668  0.6925
  580MOL0     C79904  10.104   8.390   5.938  1.1248  0.2031 -0.6527
  580MOL0     O79905  10.176   8.286   5.977 -0.2003  0.1450 -0.2689
  580MOL0     C79906  10.306   8.300   6.015  0.2862 -0.2599 -0.4161
  580MOL0     C79907  10.338   8.392   6.117 -0.3795  0.0014  0.2517
  580MOL0     C79908  10.474   8.417   6.151 -0.3217 -0.1938  0.5292
  580MOL0     C79909  10.578   8.348   6.086  0.0492  0.1612 -0.0554
  580MOL0     O79910  10.713   8.380   6.092 -0.0167 -0.3914 -0.4021
  580MOL0     C79911  10.758   8.445   6.212 -0.2701  0.7477 -0.6179
  580MOL0     C79912  10.905   8.486   6.214  0.0345  0.1751  0.1185
  580MOL0     C79913  10.981   8.499   6.341 -0.3186  0.2508  0.2868
  580MOL0     C79914  11.110   8.577   6.324  0.7081 -0.1489 -0.9528
  580MOL0     C79915  11.158   8.647   6.454  0.1070  0.7093 -0.0745
  580MOL0     C79916  11.198   8.555   6.566 -0.5729 -0.2115  0.0501
  580MOL0     C79917  11.230   8.623   6.707 -0.1836 -0.1586  0.0873
  580MOL0     C79918  11.361   8.691   6.710  0.2168  0.1272 -0.8282
  580MOL0     N79919  11.457   8.592   6.740 -1.2797  0.3311  0.8082
  580MOL0     C79920  11.513   8.565   6.862  0.0592  0.8651  0.0420
  580MOL0     C79921  11.626   8.488   6.841  0.3617 -0.4439  0.8280
  580MOL0     C79922  11.719   8.459   6.960  0.1341  0.1806 -0.5623
  580MOL0     C79923  11.862   8.501   6.932 -0.0868  0.0387  0.4787
  580MOL0     C79924  11.966   8.444   7.026  0.0812 -0.3828  0.0444
  580MOL0     C79925  12.113   8.482   6.987 -1.0399 -0.3127 -0.1298
  580MOL0     O79926  12.201   8.463   7.101  0.1645 -0.3267 -0.3202
  580MOL0     C79927  12.339   8.490   7.076 -0.0588 -0.2101 -0.2053
  580MOL0     C79928  12.436   8.463   7.172  0.7495 -0.2816 -0.8405
  580MOL0     C79929  12.572   8.472   7.148 -0.3485 -0.2102  0.0656
  580MOL0     C79930  12.664   8.419   7.257 -0.0161  0.2665 -0.6453
  580MOL0     C79931  12.620   8.548   7.037 -0.3817 -0.3040 -0.8997
  580MOL0     C79932  12.760   8.573   7.005 -0.5630 -0.1062  0.8589
  580MOL0     O79933  12.808   8.518   6.887 -0.4380  0.0701 -0.6546
  580MOL0     C79934  12.932   8.543   6.842  0.3324 -0.4811  0.1277
  580MOL0     C79935  12.998   8.443   6.768 -0.0785 -0.4210  0.2594
  580MOL0     C79936  13.117   8.478   6.700  0.3065  0.6524  0.1310
  580MOL0     C79937  13.177   8.605   6.722  0.3869  0.7307  0.9419
  580MOL0     O79938  13.302   8.630   6.661  0.1759  0.3078  0.7082
  580MOL0     C79939  13.336   8.764   6.630 -0.4517  0.4388 -0.7048
  580MOL0     C79940  13.418   8.835   6.734 -0.7643  0.0390 -1.6153
  580MOL0     C79941  13.575   8.818   6.718  0.9380  0.0444 -0.5052
  580MOL0     C79942  13.638   8.898   6.599 -0.0777 -0.0126  0.6108
  580MOL0     C79943  13.791   8.889   6.597 -0.2735 -0.3422 -0.6434
  580MOL0     C79944  13.843   8.985   6.490 -0.3388  0.0858  0.4582
  580MOL0     C79945  13.988   8.940   6.463  0.4606 -0.6469 -0.0338
  580MOL0     C79946  14.069   9.024   6.371  0.1317  0.6417 -0.7549
  580MOL0    Cl79947  13.985   9.027   6.216 -0.2893  0.2963  0.1350
  580MOL0     C79948  13.110   8.700   6.792 -0.0192 -0.5339  0.1712
  580MOL0     C79949  12.988   8.668   6.842 -0.8684 -0.0329 -0.4170
  580MOL0     O79950  12.833   8.633   7.089 -0.1126  0.4242  0.1794
  580MOL0     C79951  12.527   8.587   6.940  0.0040  0.8958 -0.4381
  580MOL0     C79952  12.385   8.551   6.961  0.2155  0.3793  0.2365
  580MOL0     N79953  11.630   8.462   6.702  0.1323 -1.1013 -0.4836
  580MOL0     N79954  11.534   8.525   6.650 -0.4451  0.3772  0.2534
  580MOL0     C79955  10.545   8.260   5.988  0.4896  0.9611  0.3748
  580MOL0     C79956  10.413   8.234   5.954  0.8837  0.2630 -1.1294
  580MOL0     C79957   9.964   8.387   5.970  0.1526 -0.3993 -0.1712
  580MOL0     C79958   9.924   8.342   6.098  0.1388  0.0698  0.0809
  580MOL0     C79959   9.792   8.328   6.139 -1.7103  0.4548 -0.0394
  580MOL0     C79960   9.700   8.369   6.049  0.5956  0.4828 -0.4062
  580MOL0     O79961   9.567   8.343   6.082  0.0095  0.4228 -0.7736
  580MOL0     C79962   9.507   8.225   6.020 -0.0196 -0.1583 -0.3615
  580MOL0     C79963   9.357   8.253   6.010 -0.0906  0.3301  0.1065
  580MOL0     C79964   9.327   8.333   5.886 -0.7921  0.3945 -0.1177
  580MOL0     C79965   9.201   8.416   5.894 -0.5931 -0.3456 -0.2818
  580MOL0     C79966   9.092   8.319   5.920  0.2825  0.6267 -0.6177
  580MOL0     C79967   9.015   8.230   5.952 -0.0453  0.1612  0.0341
  580MOL0     C79968   9.736   8.420   5.930  1.4348  0.0128 -0.2633
  580MOL0     C79969   9.861   8.430   5.885 -0.0670  0.1863 -0.1840
  580MOL0     C79970   9.884   8.479   5.744  0.1291  0.2485 -0.4759
  580MOL0     H79971  10.263   8.438   6.181  1.9082  1.7909  1.8291
  580MOL0     H79972  10.496   8.486   6.232  0.4372  1.2753 -0.8718
  580MOL0     H79973  10.746   8.367   6.288 -0.9064 -0.2713 -1.7323
  580MOL0     H79974  10.700   8.534   6.238 -0.7496  0.4271 -0.5820
  580MOL0     H79975  10.956   8.403   6.164 -0.0726  1.2680 -1.9308
  580MOL0     H79976  10.924   8.578   6.158  0.9552  0.1103  0.3058
  580MOL0     H79977  10.917   8.542   6.419 -0.5673 -1.9079  1.3628
  580MOL0     H79978  11.005   8.396   6.370  0.1281  0.1932 -0.2705
  580MOL0     H79979  11.185   8.502   6.300 -0.6077 -1.5038 -0.9840
  580MOL0     H79980  11.099   8.650   6.243 -2.0191 -1.7396 -2.1590
  580MOL0     H79981  11.077   8.711   6.490  0.8958  1.4639  0.4074
  580MOL0     H79982  11.247   8.706   6.430 -0.4039  1.5591  0.0739
  580MOL0     H79983  11.112   8.488   6.575 -0.8256 -0.3787 -2.8219
  580MOL0     H79984  11.289   8.502   6.536 -0.0157  0.1386  1.0819
  580MOL0     H79985  11.216   8.557   6.793 -0.4519  0.7958  0.7947
  580MOL0     H79986  11.153   8.697   6.734 -1.2978 -1.5936  1.0233
  580MOL0     H79987  11.386   8.745   6.618 -3.4304  0.7504 -1.6173
  580MOL0     H79988  11.362   8.760   6.794  1.5698  0.6570 -1.2535
  580MOL0     H79989  11.486   8.605   6.959 -0.6548 -0.0333  0.2311
  580MOL0     H79990  11.713   8.351   6.980  1.1349  0.0223 -1.0803
  580MOL0     H79991  11.678   8.511   7.046  0.4488 -3.1574  1.8079
  580MOL0     H79992  11.885   8.472   6.829 -2.6783  0.4421 -0.2893
  580MOL0     H79993  11.859   8.610   6.939  0.1861  0.3019 -2.3235
  580MOL0     H79994  11.941   8.476   7.128  0.2085 -2.6024  0.8202
  580MOL0     H79995  11.958   8.335   7.035  0.9751 -0.4857 -0.3253
  580MOL0     H79996  12.141   8.425   6.898 -2.2778  1.7723 -1.9580
  580MOL0     H79997  12.117   8.589   6.964 -0.2101 -0.5647 -1.2913
  580MOL0     H79998  12.406   8.426   7.270 -1.0539 -0.1720 -1.3284
  580MOL0     H79999  12.623   8.327   7.300 -0.8037  1.1581  0.5842
  580MOL0     H80000  12.672   8.489   7.340 -0.4304 -0.0405 -0.3392
  580MOL0     H80001  12.758   8.383   7.215  0.9495  1.1998  0.6512
  580MOL0     H80002  12.958   8.342   6.762 -3.1539  0.6373  1.3346
  580MOL0     H80003  13.166   8.399   6.642  0.0991  0.6420 -0.0311
  580MOL0     H80004  13.393   8.761   6.536  0.2976  0.4350 -0.2554
  580MOL0     H80005  13.245   8.826   6.623 -0.5685  0.4185  0.5270
  580MOL0     H80006  13.401   8.942   6.741 -3.4586 -0.3631 -0.8880
  580MOL0     H80007  13.402   8.782   6.829  0.7327  1.6311 -0.4203
  580MOL0     H80008  13.608   8.714   6.710  0.7916  0.0467 -1.3246
  580MOL0     H80009  13.617   8.858   6.810 -2.8371  3.6912 -0.0448
  580MOL0     H80010  13.603   9.000   6.617  1.5966  0.2939  2.5709
  580MOL0     H80011  13.594   8.862   6.506 -0.0804 -3.5400  1.8198
  580MOL0     H80012  13.831   8.917   6.695 -1.5329  1.7173 -0.6511
  580MOL0     H80013  13.814   8.785   6.574 -1.5450 -0.8076  0.0673
  580MOL0     H80014  13.841   9.091   6.520  1.2469  0.5918 -1.0797
  580MOL0     H80015  13.795   8.979   6.392  0.2248  0.3990  0.1570
  580MOL0     H80016  13.985   8.836   6.428 -0.7149 -1.6257  2.7415
  580MOL0     H80017  14.038   8.944   6.560  0.4247 -1.8784  0.0437
  580MOL0     H80018  14.168   8.980   6.359 -0.3362 -0.5003 -0.5449
  580MOL0     H80019  14.075   9.124   6.414 -0.1863  0.3619 -0.0368
  580MOL0     H80020  13.144   8.802   6.809 -2.4805  0.3856  0.0035
  580MOL0     H80021  12.936   8.745   6.899 -0.8490 -1.1370  1.1626
  580MOL0     H80022  12.550   8.613   6.838 -2.2597 -1.1178 -1.5681
  580MOL0     H80023  12.319   8.561   6.875 -1.7835 -2.1577  1.3567
  580MOL0     H80024  10.626   8.215   5.932 -0.2091  2.6402 -2.1471
  580MOL0     H80025  10.391   8.176   5.864 -3.4766  1.9434 -1.3953
  580MOL0     H80026  10.002   8.312   6.167 -1.1571  0.4187  1.7458
  580MOL0     H80027   9.766   8.296   6.240  0.8143  1.0650  0.8802
  580MOL0     H80028   9.547   8.211   5.919 -0.2392 -0.7953 -0.3675
  580MOL0     H80029   9.533   8.135   6.076 -0.8500 -0.5980 -0.6675
  580MOL0     H80030   9.315   8.306   6.096  0.4609  2.3795 -0.8076
  580MOL0     H80031   9.310   8.155   6.000  0.8130  0.0786 -2.3025
  580MOL0     H80032   9.411   8.403   5.878  0.2558 -0.8064  0.1471
  580MOL0     H80033   9.320   8.265   5.801 -2.8218  1.0447 -0.5117
  580MOL0     H80034   9.191   8.471   5.800  0.8703 -1.7207 -1.2912
  580MOL0     H80035   9.213   8.483   5.980  3.9014  0.1589 -1.0389
  580MOL0     H80036   8.960   8.138   5.966  2.5562 -1.1761  2.4237
  580MOL0     H80037   9.654   8.463   5.873 -1.1856 -0.3239  2.9585
  580MOL0     H80038   9.957   8.560   5.741 -0.9194  1.1952 -2.6492
  580MOL0     H80039   9.909   8.403   5.669  0.4999 -1.6077  1.4251
  580MOL0     H80040   9.794   8.531   5.709  2.5821  3.8148 -2.1344
  581MOL0     O80041  10.726   6.606   5.376  0.0822  0.3752 -0.3927
  581MOL0     C80042  10.759   6.487   5.363 -0.7801 -0.7643  0.2579
  581MOL0     O80043  10.677   6.376   5.381 -0.7122  0.4793 -0.2494
  581MOL0     C80044  10.561   6.383   5.443 -0.4879  0.3259  0.5739
  581MOL0     C80045  10.473   6.277   5.402  0.5588  0.6029  0.0270
  581MOL0     C80046  10.348   6.263   5.461 -0.3751  0.1336  0.6691
  581MOL0     C80047  10.310   6.359   5.560  0.4017  0.8136 -1.3354
  581MOL0     O80048  10.197   6.331   5.634 -0.0465 -0.2515 -0.1773
  581MOL0     C80049  10.074   6.340   5.556 -0.4610 -0.7947  0.0149
  581MOL0     C80050   9.977   6.248   5.625 -0.0319 -0.4880 -0.5603
  581MOL0     C80051   9.930   6.299   5.759  0.1643 -0.0280  0.2160
  581MOL0     C80052   9.845   6.208   5.831  0.9756  0.8729  0.5481
  581MOL0     C80053   9.783   6.289   5.949 -0.1171  0.6440  0.2901
  581MOL0     C80054   9.717   6.188   6.043 -0.0951  0.1077  0.1606
  581MOL0     C80055   9.630   6.256   6.161 -0.1246  0.3376  0.5152
  581MOL0     C80056   9.589   6.152   6.266  0.0157 -0.0128 -0.2733
  581MOL0     N80057   9.703   6.089   6.342 -0.2439 -0.0659  0.0352
  581MOL0     C80058   9.762   6.144   6.455  0.2364 -0.3240 -0.5669
  581MOL0     C80059   9.878   6.064   6.484  0.8672 -0.2167 -0.2019
  581MOL0     C80060   9.971   6.083   6.603  0.1019  0.1319  0.0684
  581MOL0     C80061  10.082   5.986   6.608  0.5802 -0.7850 -0.1418
  581MOL0     C80062  10.155   6.010   6.739 -0.8337 -0.1431 -0.0186
  581MOL0     C80063  10.288   5.925   6.751 -0.4013  0.6163  0.1673
  581MOL0     O80064  10.255   5.784   6.793 -0.4344 -0.6959  0.3781
  581MOL0     C80065  10.352   5.701   6.851 -1.0875 -0.2700  0.0942
  581MOL0     C80066  10.313   5.587   6.923 -0.5911  0.7471 -0.8563
  581MOL0     C80067  10.407   5.498   6.985 -0.0460  0.4999 -0.0204
  581MOL0     C80068  10.355   5.384   7.061 -0.5643 -0.8388 -0.1793
  581MOL0     C80069  10.548   5.524   6.963 -0.2953 -0.4453  0.1154
  581MOL0     C80070  10.657   5.430   7.001 -0.6092  0.5361  0.3248
  581MOL0     O80071  10.783   5.452   6.955  0.4162 -0.0952 -0.2291
  581MOL0     C80072  10.888   5.391   7.011  0.0416  0.0752 -0.6112
  581MOL0     C80073  10.904   5.395   7.152  0.4955  0.7522 -0.1850
  581MOL0     C80074  11.013   5.334   7.205  0.5583  0.3553 -0.3599
  581MOL0     C80075  11.110   5.276   7.125 -0.4929 -0.3556  0.7159
  581MOL0     O80076  11.228   5.216   7.178 -0.3357  0.3650  0.3758
  581MOL0     C80077  11.283   5.247   7.310 -0.0032  0.2508  0.4286
  581MOL0     C80078  11.417   5.170   7.295 -0.2816  1.5678 -0.3737
  581MOL0     C80079  11.488   5.165   7.425  0.1956 -0.3951  0.3411
  581MOL0     C80080  11.608   5.079   7.422 -0.0418 -0.2794 -0.0503
  581MOL0     C80081  11.686   5.081   7.550 -0.7610 -0.1037 -0.5367
  581MOL0     C80082  11.794   4.974   7.554 -0.4341 -0.1646  1.1282
  581MOL0     C80083  11.762   4.854   7.646  0.2878  0.8637 -0.5609
  581MOL0     C80084  11.858   4.729   7.622  1.2175  0.1712 -0.2284
  581MOL0    Cl80085  12.027   4.777   7.630 -0.0538  0.0894 -0.5830
  581MOL0     C80086  11.102   5.282   6.984  0.0463  0.3594  0.4876
  581MOL0     C80087  10.979   5.325   6.929 -0.2108  0.6438 -0.5315
  581MOL0     O80088  10.632   5.331   7.069  0.1308  0.3410  0.2963
  581MOL0     C80089  10.583   5.638   6.888  0.0041 -0.3724  0.4872
  581MOL0     C80090  10.490   5.726   6.841  0.2512 -0.6246  0.7161
  581MOL0     N80091   9.891   5.974   6.385 -0.1286 -0.1019  0.1506
  581MOL0     N80092   9.790   5.991   6.299  0.2249 -0.0760 -0.6732
  581MOL0     C80093  10.410   6.444   5.613 -0.0180  0.5799 -0.0076
  581MOL0     C80094  10.532   6.458   5.556 -0.7983  0.4974 -0.2090
  581MOL0     C80095  10.887   6.465   5.289 -0.5721  0.1273  0.7223
  581MOL0     C80096  10.896   6.341   5.221  0.1972  0.5399 -0.6732
  581MOL0     C80097  11.015   6.321   5.139  0.4442  0.9947 -0.0646
  581MOL0     C80098  11.119   6.417   5.134 -0.4893  0.3339  0.4888
  581MOL0     O80099  11.235   6.404   5.062 -0.5141  0.1703  0.1978
  581MOL0     C80100  11.268   6.270   5.012 -1.0411  0.0957  0.0378
  581MOL0     C80101  11.421   6.272   4.975  0.2849 -0.2997  0.5484
  581MOL0     C80102  11.456   6.370   4.860 -0.3493 -0.1056 -0.6833
  581MOL0     C80103  11.600   6.375   4.808 -0.3339 -0.5263 -0.5369
  581MOL0     C80104  11.652   6.248   4.756  0.0548 -0.0183  0.3389
  581MOL0     C80105  11.690   6.133   4.729  0.0777 -0.2237  0.5128
  581MOL0     C80106  11.102   6.535   5.205  0.2254  0.3005 -0.0069
  581MOL0     C80107  10.994   6.556   5.291 -0.6774 -0.2450  0.2443
  581MOL0     C80108  10.983   6.691   5.359 -0.7575  0.2155  0.0301
  581MOL0     H80109  10.514   6.202   5.335 -0.4216 -1.0491  1.1898
  581MOL0     H80110  10.292   6.172   5.445 -0.3534  0.4015 -1.2231
  581MOL0     H80111  10.088   6.305   5.453 -0.5821  0.5798 -0.4905
  581MOL0     H80112  10.040   6.444   5.552  0.9815 -0.3385 -3.1963
  581MOL0     H80113   9.892   6.242   5.557 -0.3330  0.2305 -0.2578
  581MOL0     H80114  10.030   6.152   5.634  0.1507 -0.3258  0.1805
  581MOL0     H80115  10.017   6.317   5.822  1.4624 -1.9460 -0.9375
  581MOL0     H80116   9.888   6.399   5.743  1.4491  0.8505  2.0156
  581MOL0     H80117   9.778   6.165   5.756  2.7703  1.2031 -1.3300
  581MOL0     H80118   9.906   6.129   5.876  0.0769 -0.9072 -1.1989
  581MOL0     H80119   9.709   6.361   5.912 -1.3303 -0.0127  1.3448
  581MOL0     H80120   9.862   6.345   5.999 -1.6988  2.1411  1.1923
  581MOL0     H80121   9.650   6.135   5.976  0.4992  1.7768 -1.8909
  581MOL0     H80122   9.799   6.124   6.077 -0.4789  0.6140  2.2463
  581MOL0     H80123   9.541   6.293   6.109  1.0192  3.5004  0.5662
  581MOL0     H80124   9.686   6.340   6.203 -2.2325  1.2293  1.6687
  581MOL0     H80125   9.506   6.185   6.330 -2.0174 -3.5819 -0.7870
  581MOL0     H80126   9.550   6.062   6.218  1.6938 -0.5736 -0.6544
  581MOL0     H80127   9.718   6.227   6.511 -1.4475 -0.7834 -1.1387
  581MOL0     H80128   9.917   6.085   6.698  1.7678 -0.3329  1.0624
  581MOL0     H80129   9.994   6.190   6.605 -2.7648  0.8539  0.0954
  581MOL0     H80130  10.028   5.891   6.607 -1.5918  0.3417 -2.7315
  581MOL0     H80131  10.147   6.001   6.521  0.7543  0.9104  0.2374
  581MOL0     H80132  10.182   6.116   6.741 -1.0511 -0.0221 -1.8269
  581MOL0     H80133  10.086   5.981   6.818  0.4463 -0.9376  0.8470
  581MOL0     H80134  10.351   5.923   6.662  1.3982 -1.5255  1.4049
  581MOL0     H80135  10.354   5.963   6.829  1.4376 -0.7378 -0.6758
  581MOL0     H80136  10.209   5.554   6.921 -0.9255  1.7525 -0.4425
  581MOL0     H80137  10.377   5.293   7.004 -0.8969 -1.6530  0.9542
  581MOL0     H80138  10.247   5.393   7.075 -0.9187 -2.2756 -1.6016
  581MOL0     H80139  10.405   5.380   7.158  0.0895  0.9550 -0.4235
  581MOL0     H80140  10.841   5.449   7.222 -1.2361 -2.0836  0.6170
  581MOL0     H80141  11.013   5.353   7.312 -3.0869  1.4365 -0.4319
  581MOL0     H80142  11.299   5.355   7.322 -0.8610  0.3133  1.0345
  581MOL0     H80143  11.222   5.209   7.392  3.3784  0.0941  3.1200
  581MOL0     H80144  11.398   5.068   7.259  1.3700  2.1100 -3.0356
  581MOL0     H80145  11.480   5.217   7.219  2.4157 -1.0178  0.0984
  581MOL0     H80146  11.412   5.124   7.492 -2.1809 -1.0152 -2.4931
  581MOL0     H80147  11.517   5.263   7.464 -1.6507 -0.0452  0.9179
  581MOL0     H80148  11.670   5.114   7.339 -1.8152  0.2291 -1.2019
  581MOL0     H80149  11.563   4.982   7.396  3.6555 -1.5961 -2.2443
  581MOL0     H80150  11.728   5.178   7.579 -0.9919 -0.5644  1.5163
  581MOL0     H80151  11.613   5.081   7.632 -0.0285  1.8096  0.1740
  581MOL0     H80152  11.883   5.021   7.596  1.5650 -0.7138 -2.1355
  581MOL0     H80153  11.809   4.937   7.452 -0.6980  1.1577  0.5866
  581MOL0     H80154  11.657   4.826   7.636 -0.1088  0.9807  2.2984
  581MOL0     H80155  11.769   4.886   7.751  0.5614  3.1507 -1.2108
  581MOL0     H80156  11.849   4.692   7.519 -0.4216 -1.8885  0.5949
  581MOL0     H80157  11.848   4.649   7.695  1.1685 -1.5837 -2.0680
  581MOL0     H80158  11.182   5.241   6.924 -0.2688 -1.7423  1.3983
  581MOL0     H80159  10.959   5.307   6.823 -0.2609  0.4883 -0.4969
  581MOL0     H80160  10.690   5.656   6.881  0.1693 -1.5953 -0.4469
  581MOL0     H80161  10.518   5.817   6.789 -0.6807 -0.0262  1.2374
  581MOL0     H80162  10.373   6.490   5.704 -0.0422 -1.1675  0.9100
  581MOL0     H80163  10.600   6.531   5.599 -0.3516  0.7103 -1.2276
  581MOL0     H80164  10.822   6.262   5.222  0.6751 -0.0224 -2.7533
  581MOL0     H80165  11.019   6.230   5.081 -1.0024  1.3600 -0.7841
  581MOL0     H80166  11.247   6.190   5.083 -0.9441 -1.3759 -1.5218
  581MOL0     H80167  11.208   6.254   4.922  0.3293 -1.3138 -0.6750
  581MOL0     H80168  11.459   6.172   4.953  3.2050  0.5674  1.1995
  581MOL0     H80169  11.469   6.305   5.068 -1.9672  0.0005  1.6882
  581MOL0     H80170  11.387   6.349   4.777 -1.8960  0.0440  0.5339
  581MOL0     H80171  11.436   6.467   4.906  0.6785 -1.4896  2.9862
  581MOL0     H80172  11.663   6.415   4.889  0.1636 -0.3752 -0.9906
  581MOL0     H80173  11.608   6.446   4.725  1.2064 -1.1013 -0.9223
  581MOL0     H80174  11.676   6.036   4.687 -0.2528  0.4526 -1.0488
  581MOL0     H80175  11.178   6.611   5.192 -1.2415  1.7705 -0.4087
  581MOL0     H80176  10.922   6.758   5.297  1.4051  1.4526 -0.9140
  581MOL0     H80177  10.937   6.672   5.456 -1.5520 -1.7715 -0.6811
  581MOL0     H80178  11.075   6.747   5.379  0.0799 -0.1751 -2.3882
  582MOL0     O80179   3.407   2.359  10.365 -0.5270 -0.0684  0.2496
  582MOL0     C80180   3.341   2.422  10.444  0.2866 -0.6606 -0.8680
  582MOL0     O80181   3.388   2.482  10.558 -0.1517 -0.4395  0.1711
  582MOL0     C80182   3.520   2.460  10.601  1.2147 -0.0305  0.0032
  582MOL0     C80183   3.632   2.499  10.527 -0.4151  0.2650 -0.1762
  582MOL0     C80184   3.756   2.511  10.591  0.2567 -0.2877 -0.1006
  582MOL0     C80185   3.774   2.464  10.717 -0.7764  0.1952  0.2513
  582MOL0     O80186   3.901   2.460  10.773 -0.2155  0.1641 -0.0859
  582MOL0     C80187   3.917   2.427  10.915 -0.6831  0.4098 -0.3092
  582MOL0     C80188   4.069   2.444  10.951  0.1051  0.9122 -0.5214
  582MOL0     C80189   4.107   2.380  11.091 -0.0777  0.3179  0.4587
  582MOL0     C80190   4.257   2.379  11.118 -0.0372 -0.3257  0.0397
  582MOL0     C80191   4.296   2.271  11.220 -0.9638 -0.5714  0.7709
  582MOL0     C80192   4.450   2.236  11.220 -0.1904 -0.7400  0.3134
  582MOL0     C80193   4.479   2.142  11.328 -0.3239  0.7402  0.0119
  582MOL0     C80194   4.599   2.060  11.293 -0.1932 -0.1749 -0.7479
  582MOL0     N80195   4.727   2.134  11.298 -0.7697  0.2395  0.5277
  582MOL0     C80196   4.805   2.152  11.412  0.6313 -0.2087  0.1464
  582MOL0     C80197   4.921   2.218  11.364 -0.4636  0.4335 -0.2029
  582MOL0     C80198   5.044   2.262  11.448  0.6653 -0.1965  0.7290
  582MOL0     C80199   5.144   2.157  11.468  0.2670 -0.3263 -0.2559
  582MOL0     C80200   5.288   2.203  11.483  0.5570 -0.3724 -0.1965
  582MOL0     C80201   5.391   2.103  11.550 -0.1244  0.7820  0.2573
  582MOL0     O80202   5.526   2.139  11.543 -0.1903  0.3883  0.5809
  582MOL0     C80203   5.591   2.127  11.423  0.7892  0.0173 -0.3160
  582MOL0     C80204   5.718   2.181  11.428 -0.3045  0.2343  0.2212
  582MOL0     C80205   5.805   2.173  11.318 -0.7694 -1.0612 -1.2571
  582MOL0     C80206   5.943   2.220  11.349  0.0709 -0.4840  0.6187
  582MOL0     C80207   5.762   2.105  11.203 -0.0033 -0.7597 -0.3560
  582MOL0     C80208   5.854   2.074  11.101 -0.0371  0.6249  0.4655
  582MOL0     O80209   5.937   2.177  11.055  0.4519  0.0610 -0.6483
  582MOL0     C80210   6.014   2.157  10.942 -0.7515 -0.3337 -0.3354
  582MOL0     C80211   6.102   2.041  10.932  0.7928 -0.9115  0.0027
  582MOL0     C80212   6.182   2.049  10.818 -0.0824 -0.0305 -0.1842
  582MOL0     C80213   6.176   2.142  10.722  0.8251 -0.2024  0.2190
  582MOL0     O80214   6.249   2.102  10.614 -0.0351 -0.6641  1.3475
  582MOL0     C80215   6.156   2.072  10.500 -0.2203 -0.7366  0.6626
  582MOL0     C80216   6.059   1.953  10.529  0.9284  0.0595 -0.7274
  582MOL0     C80217   5.993   1.912  10.392 -0.5915 -0.0422 -0.5439
  582MOL0     C80218   5.901   1.798  10.406 -0.4881 -0.4213  0.4129
  582MOL0     C80219   5.863   1.742  10.267 -0.5394 -0.0073 -0.0499
  582MOL0     C80220   5.747   1.650  10.260  0.0707 -0.3512  0.1534
  582MOL0     C80221   5.777   1.536  10.353  0.0703  0.3048  0.5062
  582MOL0     C80222   5.672   1.428  10.332  0.6125  0.4644 -0.5784
  582MOL0    Cl80223   5.517   1.484  10.401  0.4252  0.1244 -0.7047
  582MOL0     C80224   6.090   2.253  10.734 -0.6767  0.1718 -0.1191
  582MOL0     C80225   6.005   2.256  10.843 -0.4216  0.1013  0.6079
  582MOL0     O80226   5.858   1.956  11.063 -0.5194  0.4552  0.1828
  582MOL0     C80227   5.632   2.051  11.199  0.6354  0.0888  0.3792
  582MOL0     C80228   5.549   2.054  11.310  0.7360  0.1302  0.1885
  582MOL0     N80229   4.911   2.241  11.226 -0.3289 -0.7652 -0.3546
  582MOL0     N80230   4.796   2.196  11.190  0.8911  0.4550 -0.1741
  582MOL0     C80231   3.667   2.420  10.790  0.9572  0.6106 -0.1274
  582MOL0     C80232   3.540   2.403  10.731 -0.6270  0.4392 -0.8590
  582MOL0     C80233   3.193   2.425  10.423  0.3091  0.3347 -0.6672
  582MOL0     C80234   3.112   2.430  10.541 -0.6026  0.4448  0.1475
  582MOL0     C80235   2.971   2.427  10.534 -0.2128  1.2543  0.0586
  582MOL0     C80236   2.912   2.425  10.402 -0.4988 -0.5510  0.0920
  582MOL0     O80237   2.776   2.425  10.386  0.5185 -0.1717 -0.0040
  582MOL0     C80238   2.689   2.435  10.489  0.6029 -0.3071  0.2218
  582MOL0     C80239   2.651   2.587  10.515 -0.5189 -0.6119  0.9015
  582MOL0     C80240   2.524   2.614  10.590 -0.9586  1.0635 -0.0527
  582MOL0     C80241   2.514   2.561  10.735 -0.2544 -0.0720 -0.4658
  582MOL0     C80242   2.592   2.634  10.842  0.4165  0.5419  0.3563
  582MOL0     C80243   2.659   2.688  10.924 -0.4347 -0.4981  0.3905
  582MOL0     C80244   2.992   2.407  10.292  0.0344  0.3208 -0.2657
  582MOL0     C80245   3.133   2.408  10.299  0.8632 -0.9517  0.7433
  582MOL0     C80246   3.214   2.405  10.173  0.2929 -0.3182  0.6295
  582MOL0     H80247   3.611   2.542  10.430 -1.2657  1.9070  0.7103
  582MOL0     H80248   3.844   2.560  10.550  0.8530 -2.9045 -2.2585
  582MOL0     H80249   3.883   2.323  10.916  1.0884 -0.1936 -0.2508
  582MOL0     H80250   3.855   2.499  10.971 -1.4943  1.4593 -2.4410
  582MOL0     H80251   4.124   2.383  10.879 -0.5070 -2.1304  1.3769
  582MOL0     H80252   4.097   2.550  10.952 -2.9554  1.8372 -1.3768
  582MOL0     H80253   4.051   2.411  11.180 -1.3432 -3.0325  0.9934
  582MOL0     H80254   4.081   2.274  11.093  1.7890 -0.2144 -0.6833
  582MOL0     H80255   4.304   2.367  11.020 -2.5896 -1.9507 -1.1070
  582MOL0     H80256   4.284   2.479  11.152  1.2386  0.7683 -3.6803
  582MOL0     H80257   4.232   2.185  11.197 -0.9016 -0.3972 -0.0802
  582MOL0     H80258   4.267   2.293  11.323  1.6093 -0.9103  1.6164
  582MOL0     H80259   4.481   2.196  11.122 -1.5524  0.1361 -0.5086
  582MOL0     H80260   4.507   2.328  11.235  0.3051 -1.1611  1.0520
  582MOL0     H80261   4.398   2.069  11.340  1.3208 -1.2548 -0.4324
  582MOL0     H80262   4.505   2.193  11.421  2.3544  0.1146 -0.3163
  582MOL0     H80263   4.608   1.980  11.367  0.3641  2.6133  2.4299
  582MOL0     H80264   4.570   2.012  11.199 -1.3561 -1.1374  0.0723
  582MOL0     H80265   4.783   2.119  11.513  0.7536 -1.8839 -0.3497
  582MOL0     H80266   5.007   2.301  11.544 -0.9559 -1.4406  0.6487
  582MOL0     H80267   5.094   2.338  11.386  0.4145 -0.1325  0.6038
  582MOL0     H80268   5.106   2.094  11.548 -2.0133  1.5269  0.2010
  582MOL0     H80269   5.142   2.098  11.376 -0.3540  0.8920 -1.0547
  582MOL0     H80270   5.326   2.227  11.383  1.4655 -2.1402 -0.3101
  582MOL0     H80271   5.289   2.295  11.542 -1.3109 -1.7799  2.2198
  582MOL0     H80272   5.356   2.104  11.653  1.6912 -1.6125  0.9816
  582MOL0     H80273   5.367   2.002  11.515 -0.2239  0.6409  0.7343
  582MOL0     H80274   5.739   2.219  11.527 -0.0494 -0.9404  0.6389
  582MOL0     H80275   5.972   2.295  11.274  0.2883 -0.3715  0.8141
  582MOL0     H80276   6.018   2.141  11.344 -0.0172 -0.4759 -2.8749
  582MOL0     H80277   5.941   2.271  11.446  1.9336 -0.1901  0.5436
  582MOL0     H80278   6.116   1.971  11.014 -0.0952 -0.0339  0.9269
  582MOL0     H80279   6.252   1.966  10.811  1.8403  1.4683  0.2349
  582MOL0     H80280   6.094   2.161  10.482 -2.9900 -1.7415  4.0686
  582MOL0     H80281   6.218   2.039  10.416 -0.1534  0.7795  0.0840
  582MOL0     H80282   6.129   1.876  10.562 -0.0481 -0.6806 -0.3211
  582MOL0     H80283   5.982   1.978  10.602  1.6222 -0.4501  0.1967
  582MOL0     H80284   6.078   1.881  10.329  1.7131  3.5611  0.4606
  582MOL0     H80285   5.947   2.002  10.350  0.8817 -0.5024 -3.4787
  582MOL0     H80286   5.821   1.844  10.465 -0.8581  2.1623 -1.9324
  582MOL0     H80287   5.949   1.724  10.472  1.2529  0.2576 -0.0336
  582MOL0     H80288   5.830   1.819  10.197  1.5134  0.7663 -0.2475
  582MOL0     H80289   5.961   1.705  10.234 -1.3942 -2.0926 -0.4003
  582MOL0     H80290   5.731   1.615  10.157 -0.7181  2.6011 -0.8336
  582MOL0     H80291   5.653   1.701  10.285  0.4441  0.2959  0.2573
  582MOL0     H80292   5.773   1.578  10.454 -0.2877  1.7693 -0.0980
  582MOL0     H80293   5.879   1.507  10.326 -0.8069 -1.1863 -1.4866
  582MOL0     H80294   5.701   1.334  10.380  1.8015  3.3394  5.2016
  582MOL0     H80295   5.659   1.407  10.225 -1.1611 -1.5028 -0.0314
  582MOL0     H80296   6.088   2.334  10.661  0.8427 -0.5137 -0.9945
  582MOL0     H80297   5.935   2.336  10.866 -1.1836 -0.5897  0.7594
  582MOL0     H80298   5.593   1.992  11.117 -0.9868  0.1532  1.0605
  582MOL0     H80299   5.460   1.993  11.313 -1.1515  2.7727  1.6185
  582MOL0     H80300   3.671   2.365  10.884 -0.6907 -2.5001 -1.7113
  582MOL0     H80301   3.465   2.352  10.790  1.6468 -1.1509  0.8147
  582MOL0     H80302   3.147   2.446  10.643  0.3294 -2.7705  0.4444
  582MOL0     H80303   2.919   2.438  10.628 -0.2760 -0.5149  0.2757
  582MOL0     H80304   2.600   2.375  10.471  0.1479  0.1683  0.8438
  582MOL0     H80305   2.725   2.401  10.587  0.6707 -1.7027 -0.2641
  582MOL0     H80306   2.628   2.629  10.416  1.6370 -0.6564  0.3200
  582MOL0     H80307   2.732   2.643  10.562 -0.3613  0.5848 -0.7224
  582MOL0     H80308   2.510   2.722  10.594  0.5453  1.2523  0.7759
  582MOL0     H80309   2.446   2.560  10.536  0.3407 -2.8797  1.6668
  582MOL0     H80310   2.544   2.456  10.733  0.2701 -0.0212  2.0915
  582MOL0     H80311   2.407   2.564  10.760  0.5210  0.5272  3.3661
  582MOL0     H80312   2.724   2.717  11.003  3.0104 -2.8371 -1.3423
  582MOL0     H80313   2.944   2.388  10.197 -0.6865  0.0175  0.1481
  582MOL0     H80314   3.154   2.415  10.082  1.5972  0.1311 -0.2163
  582MOL0     H80315   3.283   2.490  10.160 -1.3458  1.1585  1.2092
  582MOL0     H80316   3.263   2.307  10.173  0.6990 -0.1289 -0.6971
  583MOL0     O80317   0.156  10.249   4.375 -0.0386  0.0055 -0.5066
  583MOL0     C80318   0.048  10.207   4.332  0.2177 -0.2615  0.2063
  583MOL0     O80319   0.031  10.097   4.246  0.3724  0.0794  0.1926
  583MOL0     C80320   0.144  10.018   4.234  0.7580  0.4483 -0.2762
  583MOL0     C80321   0.252  10.055   4.159 -0.7075 -0.1715 -0.1221
  583MOL0     C80322   0.364   9.970   4.144  0.0290  0.4408  0.3720
  583MOL0     C80323   0.363   9.844   4.214 -0.0331 -0.3189 -0.2236
  583MOL0     O80324   0.476   9.768   4.215 -0.0505  0.5403 -0.1803
  583MOL0     C80325   0.592   9.818   4.153 -0.9404  0.4005  0.0430
  583MOL0     C80326   0.698   9.721   4.188 -0.0053 -0.0878  0.6946
  583MOL0     C80327   0.748   9.724   4.336 -0.1666 -0.5161  0.4070
  583MOL0     C80328   0.864   9.822   4.353  0.0284  0.0014 -0.4100
  583MOL0     C80329   0.887   9.863   4.499  0.9223 -0.4082 -0.6178
  583MOL0     C80330   1.016   9.945   4.513 -0.3169 -0.6404 -0.0926
  583MOL0     C80331   1.027  10.001   4.661 -0.0712  0.4514  0.3111
  583MOL0     C80332   1.153  10.088   4.675  0.8029 -0.2965 -0.1230
  583MOL0     N80333   1.190  10.112   4.819 -0.1745  0.3082  0.2240
  583MOL0     C80334   1.301  10.178   4.854 -0.4364 -0.3879  0.1278
  583MOL0     C80335   1.285  10.210   4.985 -0.3143 -0.0357 -0.9941
  583MOL0     C80336   1.376  10.296   5.070 -0.4840  0.3213 -0.7429
  583MOL0     C80337   1.366  10.439   5.012 -0.0404  0.1839 -0.3416
  583MOL0     C80338   1.455  10.529   5.096  0.2310  0.1860  0.4870
  583MOL0     C80339   1.604  10.529   5.055 -0.5852  0.4587  0.1803
  583MOL0     O80340   1.695  10.584   5.148 -0.1043 -0.7389  0.0624
  583MOL0     C80341   1.834  10.600   5.117  0.5008 -0.3835  0.1041
  583MOL0     C80342   1.899  10.552   4.999 -0.7278 -0.6185 -0.0884
  583MOL0     C80343   2.041  10.553   4.989  1.3386  0.4953  0.6828
  583MOL0     C80344   2.090  10.505   4.857 -0.0070 -0.2734  0.5812
  583MOL0     C80345   2.125  10.601   5.093 -0.3421 -0.5669  0.8282
  583MOL0     C80346   2.271  10.620   5.093 -0.2056  0.3053  0.3590
  583MOL0     O80347   2.337  10.644   5.211 -0.4150  0.2126 -0.3071
  583MOL0     C80348   2.479  10.644   5.208  0.5655 -0.1481 -0.1839
  583MOL0     C80349   2.559  10.557   5.124  0.8303 -0.0926 -0.6756
  583MOL0     C80350   2.696  10.558   5.125 -0.2181  0.1716 -0.1234
  583MOL0     C80351   2.762  10.650   5.213  0.4886  0.2025  0.6304
  583MOL0     O80352   2.897  10.631   5.218 -0.0269 -0.1664 -0.2924
  583MOL0     C80353   2.957  10.704   5.325 -0.2632  0.2367 -0.3032
  583MOL0     C80354   3.109  10.692   5.287  0.7126 -0.4395  0.4912
  583MOL0     C80355   3.201  10.743   5.393 -0.0928  0.3744  0.0601
  583MOL0     C80356   3.344  10.704   5.335  0.2006 -0.2267  0.2098
  583MOL0     C80357   3.437  10.716   5.450  0.4346  0.1357  0.5847
  583MOL0     C80358   3.582  10.685   5.424  0.5654 -0.1923  0.8206
  583MOL0     C80359   3.644  10.800   5.344 -0.0786 -0.0953 -0.0054
  583MOL0     C80360   3.772  10.757   5.271  0.3585 -0.5087 -0.2430
  583MOL0    Cl80361   3.816  10.903   5.167 -0.0385 -0.2292 -0.1251
  583MOL0     C80362   2.686  10.729   5.300  0.9209  0.0794  0.0956
  583MOL0     C80363   2.547  10.733   5.299  0.4090 -1.1301  0.5175
  583MOL0     O80364   2.327  10.639   4.985  0.9571  0.2555 -0.7705
  583MOL0     C80365   2.054  10.647   5.204  0.0460 -0.1241 -0.4073
  583MOL0     C80366   1.917  10.649   5.220  0.3069  0.1815  0.0695
  583MOL0     N80367   1.163  10.163   5.021  0.1561 -0.3868  0.1239
  583MOL0     N80368   1.101  10.118   4.919  0.4600  0.2274  0.2325
  583MOL0     C80369   0.254   9.810   4.294 -0.0899  1.1277  1.4299
  583MOL0     C80370   0.143   9.893   4.301 -0.5102 -0.1252 -0.5448
  583MOL0     C80371  -0.074  10.274   4.387 -0.0777 -0.5081  0.0548
  583MOL0     C80372  -0.181  10.285   4.299 -0.2342  0.8689 -0.0682
  583MOL0     C80373  -0.289  10.356   4.341  0.5564  0.5311  0.5459
  583MOL0     C80374  -0.304  10.409   4.464 -0.6741  0.2420  0.6526
  583MOL0     O80375  -0.421  10.466   4.492  0.5099  0.7359  0.7870
  583MOL0     C80376  -0.436  10.546   4.616 -0.0434 -0.5365 -0.4409
  583MOL0     C80377  -0.583  10.581   4.636  0.5375 -0.6159 -0.6667
  583MOL0     C80378  -0.623  10.716   4.559  0.0536  1.4101  0.0671
  583MOL0     C80379  -0.665  10.683   4.415  0.6821  0.0446 -0.3081
  583MOL0     C80380  -0.684  10.815   4.343 -0.3346 -0.4811  0.3403
  583MOL0     C80381  -0.697  10.920   4.285  0.1610  0.7839  0.3341
  583MOL0     C80382  -0.201  10.384   4.559  0.3011  0.3204 -1.4341
  583MOL0     C80383  -0.083  10.324   4.521  0.6228  0.3444 -0.2879
  583MOL0     C80384   0.024  10.305   4.624 -0.5287  0.6238  0.7328
  583MOL0     H80385   0.244  10.155   4.117  1.7208 -0.5465 -1.6936
  583MOL0     H80386   0.448   9.997   4.079  0.9110 -2.6107  0.0928
  583MOL0     H80387   0.622   9.915   4.194  0.3566 -0.0236  0.1596
  583MOL0     H80388   0.577   9.808   4.045  0.3794  2.1358 -0.3416
  583MOL0     H80389   0.670   9.621   4.154  1.9344 -1.2675  2.2981
  583MOL0     H80390   0.794   9.739   4.137 -0.8299 -1.9967 -1.7223
  583MOL0     H80391   0.672   9.762   4.404 -0.9128 -1.4459  0.1148
  583MOL0     H80392   0.771   9.624   4.375  2.0395  0.3429  1.4531
  583MOL0     H80393   0.955   9.781   4.308  1.4790  4.1399 -1.6497
  583MOL0     H80394   0.840   9.912   4.296  0.0858  0.0020 -0.4335
  583MOL0     H80395   0.894   9.776   4.565 -0.2867 -1.3547 -1.6932
  583MOL0     H80396   0.794   9.911   4.531  0.4604  0.3502 -2.9695
  583MOL0     H80397   1.095   9.873   4.491 -2.1792 -2.9712  0.3838
  583MOL0     H80398   1.020  10.024   4.438  3.6506 -2.2123 -1.8006
  583MOL0     H80399   1.011   9.930   4.743  0.2070 -2.2468 -1.8624
  583MOL0     H80400   0.944  10.071   4.677 -0.1003  0.5453 -0.2483
  583MOL0     H80401   1.236  10.047   4.617  1.0009  0.4040 -0.3386
  583MOL0     H80402   1.121  10.185   4.636  1.3023  0.8331  2.1002
  583MOL0     H80403   1.391  10.206   4.800 -1.7361  4.3702 -0.0529
  583MOL0     H80404   1.479  10.263   5.053 -0.9016 -0.5763 -1.6289
  583MOL0     H80405   1.354  10.288   5.177  1.4118 -1.5086 -0.4078
  583MOL0     H80406   1.411  10.437   4.912  3.3880 -0.4968  1.0688
  583MOL0     H80407   1.265  10.481   5.008  0.9371  2.6770 -3.4133
  583MOL0     H80408   1.423  10.633   5.090 -0.2895  0.0455  0.7910
  583MOL0     H80409   1.445  10.494   5.199  4.0562 -3.0502  0.0364
  583MOL0     H80410   1.653  10.432   5.039  1.3712  0.9778  2.3952
  583MOL0     H80411   1.613  10.573   4.955  1.6951 -0.5277 -0.1161
  583MOL0     H80412   1.847  10.520   4.909 -0.9596 -1.5277  0.3564
  583MOL0     H80413   2.189  10.459   4.862  0.3271  0.4320  0.5743
  583MOL0     H80414   2.111  10.595   4.799 -2.2444  0.5035  0.8800
  583MOL0     H80415   2.022  10.439   4.802  0.9738 -0.5627 -0.3289
  583MOL0     H80416   2.505  10.490   5.058 -1.4588  0.1511  0.8683
  583MOL0     H80417   2.743  10.492   5.053 -0.9836 -1.1715  0.5555
  583MOL0     H80418   2.925  10.809   5.324  1.0282  0.6655  0.3497
  583MOL0     H80419   2.954  10.658   5.424  0.2656 -1.7395 -1.1670
  583MOL0     H80420   3.133  10.588   5.262  2.0684  0.3148 -1.6216
  583MOL0     H80421   3.126  10.759   5.203  2.9223  1.0611  2.0436
  583MOL0     H80422   3.171  10.682   5.479  0.1728  1.1554  0.7245
  583MOL0     H80423   3.191  10.849   5.418 -2.0579  0.1138  0.5592
  583MOL0     H80424   3.369  10.759   5.244 -1.2647  2.1098  1.1129
  583MOL0     H80425   3.346  10.600   5.303 -1.8361 -0.2955  0.1385
  583MOL0     H80426   3.433  10.814   5.499  2.5108  1.0498 -0.9436
  583MOL0     H80427   3.406  10.635   5.517 -1.0618 -2.2620 -2.7217
  583MOL0     H80428   3.587  10.595   5.362  3.1189  0.5927 -0.2139
  583MOL0     H80429   3.635  10.673   5.518  1.2199 -3.3599  0.1513
  583MOL0     H80430   3.673  10.891   5.398  0.5304  0.2006 -0.8190
  583MOL0     H80431   3.566  10.833   5.276 -2.0698  0.7870  2.5221
  583MOL0     H80432   3.767  10.675   5.198  2.8548 -0.8139 -0.1400
  583MOL0     H80433   3.858  10.754   5.339 -0.5432  1.9920  1.1398
  583MOL0     H80434   2.729  10.786   5.382 -3.2279  2.9041  0.6127
  583MOL0     H80435   2.492  10.799   5.365 -0.4016 -0.6520 -0.6069
  583MOL0     H80436   2.115  10.677   5.289  0.5182  3.8807 -1.9467
  583MOL0     H80437   1.866  10.675   5.312 -3.0326 -0.9606 -1.2934
  583MOL0     H80438   0.254   9.708   4.333 -0.8863  0.1066 -1.0356
  583MOL0     H80439   0.050   9.858   4.344 -0.3865 -0.3339 -0.4455
  583MOL0     H80440  -0.174  10.237   4.202 -1.1689 -0.9206  0.6932
  583MOL0     H80441  -0.364  10.389   4.270  1.6171  3.4478  0.6425
  583MOL0     H80442  -0.401  10.489   4.702 -0.7419 -0.9913 -0.4544
  583MOL0     H80443  -0.372  10.635   4.613  0.4850 -0.8845  0.2350
  583MOL0     H80444  -0.602  10.600   4.742  1.5077 -1.7845 -0.2515
  583MOL0     H80445  -0.647  10.497   4.607 -1.1191  0.2978  0.2161
  583MOL0     H80446  -0.718  10.758   4.592 -1.7753 -0.6772 -2.1123
  583MOL0     H80447  -0.543  10.791   4.562  1.7903 -0.3330 -0.0877
  583MOL0     H80448  -0.761  10.632   4.420 -0.0300  1.4330  0.8875
  583MOL0     H80449  -0.590  10.624   4.362  0.5725 -0.5442  0.1859
  583MOL0     H80450  -0.707  11.012   4.231 -2.6679  0.1443 -0.4180
  583MOL0     H80451  -0.209  10.396   4.667 -0.2634  1.0145 -1.5485
  583MOL0     H80452  -0.019  10.285   4.723 -0.5790 -2.6644  0.1737
  583MOL0     H80453   0.078  10.212   4.603  3.6472  2.7792  0.7815
  583MOL0     H80454   0.086  10.395   4.625 -1.5947  1.4488 -1.5679
  584MOL0     O80455   0.857   1.749   9.755  0.3863 -0.7223 -0.4512
  584MOL0     C80456   0.775   1.675   9.805  0.7017 -0.3046  0.0926
  584MOL0     O80457   0.805   1.564   9.895  0.5161 -0.2854 -0.3569
  584MOL0     C80458   0.925   1.571   9.965  0.3026 -0.0764 -0.2915
  584MOL0     C80459   1.038   1.484   9.941  0.0719  0.2727 -0.3534
  584MOL0     C80460   1.163   1.507  10.005  0.3593 -0.0842  0.2185
  584MOL0     C80461   1.186   1.620  10.081 -0.0219  0.4804 -0.3239
  584MOL0     O80462   1.309   1.634  10.130 -0.3274  0.2214  0.6150
  584MOL0     C80463   1.327   1.726  10.236 -0.0468 -1.0242  0.5412
  584MOL0     C80464   1.476   1.735  10.282 -0.0619 -0.3610  0.8395
  584MOL0     C80465   1.544   1.601  10.298  0.0657  0.1135 -0.2344
  584MOL0     C80466   1.488   1.503  10.408  0.0181 -0.5533 -0.9048
  584MOL0     C80467   1.507   1.359  10.375 -0.6551  0.9585  0.7750
  584MOL0     C80468   1.656   1.313  10.372  0.1097 -0.0392 -0.7724
  584MOL0     C80469   1.738   1.345  10.498 -1.0936 -0.6782 -0.8410
  584MOL0     C80470   1.843   1.236  10.526  0.6461  0.0406 -0.2259
  584MOL0     N80471   1.948   1.235  10.410  0.2155 -0.0116 -0.1851
  584MOL0     C80472   2.028   1.347  10.380  0.1044  0.1096 -0.2740
  584MOL0     C80473   2.082   1.325  10.265 -0.7286 -0.0652 -0.1141
  584MOL0     C80474   2.202   1.401  10.202  0.0669 -0.1083  0.2913
  584MOL0     C80475   2.332   1.414  10.275  0.4648 -0.1133 -0.8031
  584MOL0     C80476   2.443   1.314  10.228 -0.3648 -0.4996  0.0719
  584MOL0     C80477   2.569   1.332  10.320 -0.3356 -1.0276  0.2232
  584MOL0     O80478   2.609   1.467  10.304  0.0368  0.2681  0.2085
  584MOL0     C80479   2.736   1.495  10.341 -0.1541 -0.1764  0.1643
  584MOL0     C80480   2.813   1.423  10.429  0.1884  0.6702 -0.2362
  584MOL0     C80481   2.925   1.467  10.490 -0.3953  0.4503  0.8177
  584MOL0     C80482   2.996   1.380  10.591 -0.2636  0.4863 -0.1678
  584MOL0     C80483   2.985   1.585  10.448  0.8714  0.4493  0.5315
  584MOL0     C80484   3.106   1.655  10.495  0.1405  0.0551 -0.0977
  584MOL0     O80485   3.171   1.747  10.416  0.2489  0.0811  0.9983
  584MOL0     C80486   3.299   1.806  10.431  0.1030 -0.4959 -0.2047
  584MOL0     C80487   3.408   1.738  10.494 -0.3660  0.6942  0.4163
  584MOL0     C80488   3.524   1.800  10.523  0.5420 -0.1521 -0.1880
  584MOL0     C80489   3.541   1.931  10.482  0.1148  0.2143  0.1992
  584MOL0     O80490   3.663   1.990  10.516  0.1461  0.2649 -0.2471
  584MOL0     C80491   3.685   2.126  10.480 -0.6026 -0.4369  0.6853
  584MOL0     C80492   3.830   2.161  10.505  0.9312  0.1758  0.2440
  584MOL0     C80493   3.899   2.100  10.629  0.8466  0.3003 -0.5318
  584MOL0     C80494   4.052   2.143  10.626  0.1491 -0.4082  0.7459
  584MOL0     C80495   4.131   2.057  10.720  0.0076 -0.4459 -0.0335
  584MOL0     C80496   4.270   2.119  10.742  0.4424  0.3059 -0.3587
  584MOL0     C80497   4.377   2.005  10.760 -0.3123  0.1333  0.3721
  584MOL0     C80498   4.347   1.893  10.859  0.0688 -0.1662 -0.9931
  584MOL0    Cl80499   4.307   1.964  11.020  0.0302  0.0882 -0.0012
  584MOL0     C80500   3.438   2.006  10.424  0.0959  0.5787 -0.7946
  584MOL0     C80501   3.318   1.941  10.396  0.2293 -0.2703  0.4851
  584MOL0     O80502   3.138   1.636  10.606  0.2486  0.4512  0.8106
  584MOL0     C80503   2.915   1.664  10.353  0.2996  0.7485  0.0319
  584MOL0     C80504   2.790   1.616  10.303  0.2604 -0.4510 -0.2550
  584MOL0     N80505   2.030   1.201  10.218  0.6907 -0.4687 -0.1117
  584MOL0     N80506   1.955   1.147  10.307 -0.1650  0.0834 -0.1128
  584MOL0     C80507   1.078   1.710  10.103 -0.2523  0.6470 -0.1801
  584MOL0     C80508   0.948   1.690  10.042  1.0007 -0.1013 -0.5087
  584MOL0     C80509   0.631   1.688   9.765  0.1022 -0.7899  0.4467
  584MOL0     C80510   0.601   1.728   9.635 -0.4790  0.4014 -0.0457
  584MOL0     C80511   0.473   1.712   9.588 -0.4379 -0.6954 -0.2174
  584MOL0     C80512   0.374   1.650   9.663 -1.0044  0.3192 -0.5856
  584MOL0     O80513   0.255   1.654   9.598  0.1873 -0.3001 -0.6950
  584MOL0     C80514   0.157   1.560   9.639 -0.2247  0.2835 -0.7071
  584MOL0     C80515   0.064   1.619   9.738 -0.2983 -0.7911 -0.7568
  584MOL0     C80516   0.001   1.751   9.686 -0.4406  0.6087 -0.2533
  584MOL0     C80517  -0.122   1.791   9.743  0.8162 -0.3060 -0.2871
  584MOL0     C80518  -0.122   1.801   9.892  1.3318  0.4036  0.1616
  584MOL0     C80519  -0.138   1.801  10.011  0.1032 -0.0010 -0.3651
  584MOL0     C80520   0.403   1.611   9.800 -0.3143  0.0282 -0.3892
  584MOL0     C80521   0.526   1.641   9.851 -0.2368 -0.9987  0.0731
  584MOL0     C80522   0.547   1.605  10.000  0.4949 -0.4718  0.1197
  584MOL0     H80523   1.037   1.395   9.879 -4.4725 -0.8022  0.9006
  584MOL0     H80524   1.242   1.433   9.992  1.0751  0.7276 -0.1386
  584MOL0     H80525   1.261   1.712  10.322  0.4301  3.0499  1.8014
  584MOL0     H80526   1.308   1.830  10.210  3.7652  0.2299  1.9916
  584MOL0     H80527   1.537   1.781  10.204 -1.2919  0.2857  0.2178
  584MOL0     H80528   1.501   1.807  10.360  2.6150  0.6530 -0.8133
  584MOL0     H80529   1.534   1.548  10.203 -0.8074 -0.5259  0.1964
  584MOL0     H80530   1.652   1.614  10.312  0.5373 -2.3524 -1.1064
  584MOL0     H80531   1.535   1.528  10.503  0.5498 -1.3875 -0.9408
  584MOL0     H80532   1.384   1.535  10.422  0.5015  1.2886 -1.2547
  584MOL0     H80533   1.473   1.352  10.271  0.7365  3.1539  0.1087
  584MOL0     H80534   1.455   1.297  10.449 -2.9570 -0.5780 -1.9235
  584MOL0     H80535   1.658   1.205  10.353  0.5505 -0.0885 -0.4927
  584MOL0     H80536   1.692   1.366  10.283 -1.9336  1.5797 -0.6949
  584MOL0     H80537   1.672   1.353  10.585 -1.6683 -3.7506 -0.8755
  584MOL0     H80538   1.799   1.435  10.492  1.0283 -1.6773  2.6060
  584MOL0     H80539   1.894   1.268  10.617  0.6087 -2.3064  0.6801
  584MOL0     H80540   1.778   1.149  10.539  0.6310  0.0202 -0.4397
  584MOL0     H80541   2.053   1.431  10.444 -0.3067 -0.7301  1.0218
  584MOL0     H80542   2.162   1.501  10.185 -2.8249 -1.0735  0.8761
  584MOL0     H80543   2.220   1.362  10.101  0.2079  0.0427  0.2585
  584MOL0     H80544   2.364   1.518  10.265  2.7717 -0.9101 -2.5063
  584MOL0     H80545   2.318   1.414  10.383  2.9924 -0.1539 -0.4299
  584MOL0     H80546   2.414   1.209  10.237 -0.4781 -0.4168  0.7545
  584MOL0     H80547   2.475   1.344  10.128 -0.4741  0.6718  0.3695
  584MOL0     H80548   2.546   1.314  10.425 -0.3167 -0.8903  0.2518
  584MOL0     H80549   2.637   1.253  10.289 -2.6049 -2.4012 -1.6519
  584MOL0     H80550   2.794   1.322  10.462  3.5607  0.4829  1.5288
  584MOL0     H80551   3.101   1.371  10.562 -0.3629  1.3975 -0.8728
  584MOL0     H80552   2.959   1.277  10.604  1.3124 -0.0676  0.1254
  584MOL0     H80553   2.986   1.426  10.689 -2.4154 -1.9237  0.8855
  584MOL0     H80554   3.396   1.632  10.512  0.8650  0.6666  1.2132
  584MOL0     H80555   3.607   1.736  10.552  0.3344 -1.8993 -3.0380
  584MOL0     H80556   3.662   2.141  10.374 -1.3147 -1.4256  0.6920
  584MOL0     H80557   3.622   2.184  10.549 -1.5016  0.1041 -0.5645
  584MOL0     H80558   3.880   2.134  10.412 -0.7156 -0.3370 -0.5291
  584MOL0     H80559   3.836   2.271  10.504 -2.4487  0.4796  0.7696
  584MOL0     H80560   3.877   1.993  10.621  0.2533  0.4671 -1.2143
  584MOL0     H80561   3.853   2.127  10.724  4.1461  3.0023  0.4958
  584MOL0     H80562   4.051   2.249  10.653  0.8751  0.1750 -1.3456
  584MOL0     H80563   4.101   2.145  10.529  1.6652 -0.3473  1.4871
  584MOL0     H80564   4.076   2.060  10.815 -0.3463  0.4884 -0.2629
  584MOL0     H80565   4.135   1.957  10.674  1.2871 -0.5473  0.2613
  584MOL0     H80566   4.253   2.184  10.828  0.4602  0.3437 -0.3836
  584MOL0     H80567   4.294   2.189  10.662  0.0907 -0.3537 -1.0491
  584MOL0     H80568   4.468   2.058  10.792 -1.5000  0.8068  2.9505
  584MOL0     H80569   4.393   1.965  10.659  0.8554 -1.2512  1.0624
  584MOL0     H80570   4.439   1.836  10.870  0.4079  0.7659  1.6457
  584MOL0     H80571   4.254   1.845  10.828 -0.9784  0.0273  1.6459
  584MOL0     H80572   3.450   2.111  10.403  3.1149  0.8565  1.6199
  584MOL0     H80573   3.234   1.986  10.343 -0.3654 -1.5074  0.3418
  584MOL0     H80574   2.949   1.756  10.308 -1.7964  1.2212 -0.7117
  584MOL0     H80575   2.739   1.687  10.238 -2.3446 -0.9542  1.1127
  584MOL0     H80576   1.101   1.798  10.162 -0.7320 -0.8202  2.3261
  584MOL0     H80577   0.867   1.762  10.051 -1.0305 -2.0556 -2.0646
  584MOL0     H80578   0.680   1.765   9.569 -2.3386  0.1714 -2.5717
  584MOL0     H80579   0.453   1.763   9.494  1.7578 -0.4148 -0.5750
  584MOL0     H80580   0.101   1.544   9.547  0.1367  5.4939 -2.1274
  584MOL0     H80581   0.192   1.460   9.668 -1.7497  0.1135  0.7114
  584MOL0     H80582   0.120   1.643   9.829  0.6724  0.7159 -1.6954
  584MOL0     H80583  -0.014   1.547   9.763  1.2174 -1.8628  1.1485
  584MOL0     H80584   0.077   1.829   9.686 -0.3935  0.5632 -0.3356
  584MOL0     H80585  -0.015   1.730   9.579 -0.0684  1.7751 -0.5452
  584MOL0     H80586  -0.199   1.717   9.717 -0.2861  1.8950 -4.1914
  584MOL0     H80587  -0.152   1.888   9.704 -0.1315  0.5517  2.3921
  584MOL0     H80588  -0.146   1.811  10.117  2.8784  0.1225 -0.0728
  584MOL0     H80589   0.335   1.561   9.869 -0.0065 -0.3355 -0.3398
  584MOL0     H80590   0.588   1.505  10.019 -0.0615 -0.9917 -1.3190
  584MOL0     H80591   0.621   1.680  10.031 -1.6440  2.0758 -0.5709
  584MOL0     H80592   0.453   1.616  10.055  0.1343 -2.1836 -0.1022
  585MOL0     O80593  10.301   9.480   4.024 -0.0141  0.1499 -0.4489
  585MOL0     C80594  10.315   9.567   4.112  0.0855 -0.2864  0.1301
  585MOL0     O80595  10.415   9.571   4.207 -0.2871 -0.4254  0.2806
  585MOL0     C80596  10.495   9.455   4.241 -0.0253 -0.5402  0.4013
  585MOL0     C80597  10.486   9.416   4.371  0.1335 -0.5835  0.4342
  585MOL0     C80598  10.535   9.293   4.410 -0.5594 -0.3241  0.5040
  585MOL0     C80599  10.604   9.214   4.324  0.1523 -0.2867  0.4257
  585MOL0     O80600  10.647   9.095   4.367 -0.0905  0.5958  0.5191
  585MOL0     C80601  10.732   9.082   4.480 -0.5924 -0.0811  0.6863
  585MOL0     C80602  10.748   8.940   4.510 -0.4119  1.0374 -1.1633
  585MOL0     C80603  10.846   8.873   4.415 -0.8165  0.1279 -0.5386
  585MOL0     C80604  10.866   8.726   4.463  0.5685 -1.1180  0.9652
  585MOL0     C80605  10.962   8.670   4.359  0.4394  0.0867  0.4221
  585MOL0     C80606  10.994   8.525   4.398  0.7064  0.5840 -0.0599
  585MOL0     C80607  11.071   8.451   4.287  0.2897  0.0272  0.2927
  585MOL0     C80608  11.181   8.362   4.344  0.3270 -1.1559 -0.7343
  585MOL0     N80609  11.280   8.428   4.433 -0.4238  0.4957 -1.1676
  585MOL0     C80610  11.339   8.556   4.410 -0.2727  0.1424 -0.3413
  585MOL0     C80611  11.427   8.565   4.514 -0.5791  0.1576  0.6132
  585MOL0     C80612  11.518   8.687   4.537 -0.5307  0.2999  0.1732
  585MOL0     C80613  11.645   8.664   4.622  0.2319  0.7362 -0.1469
  585MOL0     C80614  11.669   8.764   4.738  0.3637  0.4403  0.3329
  585MOL0     C80615  11.666   8.918   4.712  0.0109  0.6024  0.2881
  585MOL0     O80616  11.746   8.956   4.599  0.6504  0.1977  0.0249
  585MOL0     C80617  11.880   8.955   4.609  0.2148  0.0979  0.1950
  585MOL0     C80618  11.941   9.035   4.699  0.7644  0.1975 -0.7778
  585MOL0     C80619  12.077   9.020   4.727  0.2858 -0.1403  0.2585
  585MOL0     C80620  12.131   9.109   4.833 -0.2129  0.1918 -1.2714
  585MOL0     C80621  12.158   8.933   4.652  0.4757  0.1522 -0.3153
  585MOL0     C80622  12.298   8.902   4.695 -0.7515 -0.0282 -0.1515
  585MOL0     O80623  12.326   8.909   4.831  0.1787  0.5994 -0.0454
  585MOL0     C80624  12.457   8.898   4.879 -0.3205 -0.3958  0.3999
  585MOL0     C80625  12.557   8.988   4.828  0.8376  0.3061 -0.0621
  585MOL0     C80626  12.692   8.980   4.870  0.2538 -0.2590 -0.3307
  585MOL0     C80627  12.717   8.876   4.968  0.6061  0.1929 -0.6321
  585MOL0     O80628  12.845   8.835   5.013  0.7669 -0.0656  0.1265
  585MOL0     C80629  12.963   8.912   4.985 -0.3855  0.3643  1.0173
  585MOL0     C80630  13.079   8.851   5.067 -0.2606  0.0452  0.1435
  585MOL0     C80631  13.214   8.920   5.043  0.4295  0.2254 -0.3066
  585MOL0     C80632  13.327   8.828   5.091 -0.7830  0.4329  0.5421
  585MOL0     C80633  13.465   8.898   5.073 -0.2845  0.4732 -0.7877
  585MOL0     C80634  13.576   8.813   5.148 -0.8441 -1.1945  0.0724
  585MOL0     C80635  13.704   8.890   5.169 -0.3473 -0.3807 -0.3890
  585MOL0     C80636  13.796   8.890   5.048  0.3157  0.5353 -0.2097
  585MOL0    Cl80637  13.865   8.730   5.019 -0.2920 -0.1665  0.0411
  585MOL0     C80638  12.612   8.795   5.025 -1.0703 -0.2339 -0.1245
  585MOL0     C80639  12.483   8.809   4.977 -0.5124  0.5669  0.2773
  585MOL0     O80640  12.379   8.883   4.599 -0.0492  0.4945  0.2284
  585MOL0     C80641  12.107   8.864   4.547 -0.4464 -0.6074  0.3659
  585MOL0     C80642  11.969   8.881   4.523 -0.5528 -0.8784  0.0379
  585MOL0     N80643  11.411   8.452   4.595 -0.4789 -0.0826 -0.5730
  585MOL0     N80644  11.318   8.379   4.550 -0.5375  0.4448 -0.7725
  585MOL0     C80645  10.629   9.252   4.189  0.1523  0.3088 -0.3352
  585MOL0     C80646  10.571   9.374   4.151  0.0639 -0.0933 -0.3800
  585MOL0     C80647  10.222   9.685   4.121  0.0071  0.1994 -0.0251
  585MOL0     C80648  10.257   9.806   4.193 -0.3692  0.3745 -0.0028
  585MOL0     C80649  10.186   9.919   4.181  0.0638  0.2199 -0.4513
  585MOL0     C80650  10.085   9.933   4.085 -1.3707 -0.8566 -0.1801
  585MOL0     O80651  10.032  10.056   4.070 -0.0803 -0.0155 -1.3383
  585MOL0     C80652   9.908  10.062   4.004  0.7486  0.1163  0.4932
  585MOL0     C80653   9.834  10.195   4.008  0.1883  0.8477 -0.1239
  585MOL0     C80654   9.795  10.236   4.156  0.9589 -0.0586 -0.4517
  585MOL0     C80655   9.649  10.191   4.185 -0.4681 -0.0891  0.1435
  585MOL0     C80656   9.545  10.244   4.106  0.1240 -0.1925 -0.2873
  585MOL0     C80657   9.450  10.294   4.050  0.2788 -1.0636 -0.0265
  585MOL0     C80658  10.045   9.816   4.020  0.0625 -0.0754 -0.3574
  585MOL0     C80659  10.103   9.686   4.040 -0.1954  0.0421  0.6695
  585MOL0     C80660  10.043   9.574   3.963  0.3931 -1.3541  0.4407
  585MOL0     H80661  10.425   9.468   4.444  2.9369  1.1616  1.7440
  585MOL0     H80662  10.517   9.253   4.509 -0.5175  2.0208  1.5248
  585MOL0     H80663  10.689   9.123   4.572  0.0912  1.3177  0.4196
  585MOL0     H80664  10.837   9.108   4.463 -0.4899 -0.9209 -0.0437
  585MOL0     H80665  10.779   8.921   4.613 -2.9696  0.4319 -0.4290
  585MOL0     H80666  10.653   8.885   4.512  1.2282 -1.9616 -0.6939
  585MOL0     H80667  10.802   8.872   4.315 -2.9999 -1.1668  0.3577
  585MOL0     H80668  10.944   8.919   4.402  0.3342 -1.7684  0.8746
  585MOL0     H80669  10.910   8.731   4.563 -2.0535 -2.4730  2.2951
  585MOL0     H80670  10.769   8.676   4.472 -0.8724  1.5960  1.3695
  585MOL0     H80671  11.061   8.717   4.358 -0.0722  1.2112 -0.7846
  585MOL0     H80672  10.912   8.684   4.263  0.7822  2.4317  0.5240
  585MOL0     H80673  11.057   8.530   4.487 -0.9676 -0.3242  1.2316
  585MOL0     H80674  10.901   8.469   4.414  1.6426 -0.8752  0.4904
  585MOL0     H80675  11.119   8.529   4.227  0.1277  0.1941  0.3789
  585MOL0     H80676  10.999   8.395   4.226  2.1090 -1.1757 -0.8414
  585MOL0     H80677  11.137   8.275   4.394 -2.4777  0.2490 -0.5582
  585MOL0     H80678  11.239   8.326   4.258  0.5674  2.3527 -2.2001
  585MOL0     H80679  11.323   8.631   4.334 -0.5719  1.0896  0.6230
  585MOL0     H80680  11.461   8.772   4.577  1.9820  1.6199  1.1498
  585MOL0     H80681  11.551   8.714   4.437 -1.8841 -3.1090 -1.3438
  585MOL0     H80682  11.651   8.567   4.672  1.1782 -0.3340 -2.2199
  585MOL0     H80683  11.735   8.659   4.560 -0.8251  0.0066 -1.7065
  585MOL0     H80684  11.593   8.744   4.814 -2.2316  0.1260 -2.1920
  585MOL0     H80685  11.767   8.740   4.781  0.7236  0.0653 -0.6734
  585MOL0     H80686  11.568   8.958   4.685 -0.5539 -2.2013 -2.3236
  585MOL0     H80687  11.710   8.969   4.798  0.4784  0.8843 -0.1098
  585MOL0     H80688  11.871   9.094   4.757  0.7334 -0.2352 -0.3667
  585MOL0     H80689  12.071   9.201   4.841  2.0818  1.8436 -2.2492
  585MOL0     H80690  12.229   9.151   4.809 -0.4907  0.7174 -1.5071
  585MOL0     H80691  12.137   9.053   4.927 -0.7640  1.0550 -0.6995
  585MOL0     H80692  12.524   9.061   4.756  1.5078 -1.8762 -2.7738
  585MOL0     H80693  12.772   9.046   4.838  0.6560 -0.5841 -0.0004
  585MOL0     H80694  12.991   8.917   4.879  0.9872 -0.4973  1.3075
  585MOL0     H80695  12.936   9.010   5.024 -0.7977  0.5733  0.2192
  585MOL0     H80696  13.042   8.857   5.170  0.3482 -0.8100  0.4236
  585MOL0     H80697  13.081   8.745   5.041 -3.1442 -0.2207  0.6576
  585MOL0     H80698  13.215   9.013   5.100 -0.4905  0.1760 -0.1910
  585MOL0     H80699  13.228   8.937   4.936  0.7319  0.4715 -0.2270
  585MOL0     H80700  13.323   8.740   5.027 -0.0942  1.2176 -0.6302
  585MOL0     H80701  13.306   8.789   5.191 -0.0129 -5.8260 -1.3141
  585MOL0     H80702  13.497   8.914   4.970  0.2774  3.1746 -0.2690
  585MOL0     H80703  13.467   9.001   5.108 -1.1773  1.3686 -3.2160
  585MOL0     H80704  13.598   8.724   5.089 -1.2894 -0.0126 -1.9936
  585MOL0     H80705  13.536   8.778   5.244 -1.9026 -1.0046 -0.2927
  585MOL0     H80706  13.753   8.840   5.253  1.3565  3.2446  0.9698
  585MOL0     H80707  13.674   8.992   5.194  2.4652  0.8540 -1.6317
  585MOL0     H80708  13.887   8.949   5.060  1.2071 -1.0192  1.1906
  585MOL0     H80709  13.736   8.932   4.967 -0.1379  0.0192 -0.1490
  585MOL0     H80710  12.650   8.714   5.088 -0.8998 -1.8434 -2.1740
  585MOL0     H80711  12.406   8.743   5.015  0.5510  0.6369  2.7242
  585MOL0     H80712  12.178   8.801   4.495 -1.0392  0.0060 -1.2513
  585MOL0     H80713  11.935   8.825   4.437  1.6607 -1.3857 -0.5722
  585MOL0     H80714  10.689   9.194   4.120  0.5683  1.4168 -0.9373
  585MOL0     H80715  10.568   9.404   4.047  0.7205  3.3244  0.4687
  585MOL0     H80716  10.343   9.796   4.259  0.7662 -1.0130 -1.5941
  585MOL0     H80717  10.206  10.012   4.233 -2.3999  1.4735 -1.5664
  585MOL0     H80718   9.921  10.036   3.898 -1.2267 -0.5007  0.3700
  585MOL0     H80719   9.835   9.996   4.051 -0.4178  0.5880 -0.5830
  585MOL0     H80720   9.740  10.174   3.955 -2.0492  0.4829  3.6197
  585MOL0     H80721   9.889  10.276   3.960 -1.6043  1.0124 -2.0058
  585MOL0     H80722   9.865  10.196   4.230  1.7344 -1.3819 -1.8331
  585MOL0     H80723   9.808  10.344   4.161  1.7911  0.0245 -3.0081
  585MOL0     H80724   9.618  10.225   4.285  2.5832 -0.3392  1.2746
  585MOL0     H80725   9.651  10.082   4.187  2.7381 -0.1542 -0.9512
  585MOL0     H80726   9.393  10.376   4.012  0.0771 -0.9788  0.4576
  585MOL0     H80727   9.957   9.821   3.957 -0.1506  0.2630 -0.0367
  585MOL0     H80728  10.038   9.480   4.020 -0.4393 -2.3756 -1.2422
  585MOL0     H80729   9.940   9.603   3.943  0.3548  0.0270  2.3261
  585MOL0     H80730  10.095   9.563   3.868 -0.3665 -1.0251 -0.0180
  586MOL0     O80731   9.556   5.653   7.531 -0.6451 -0.7924 -0.6526
  586MOL0     C80732   9.490   5.561   7.500  0.2857  0.2914  0.1327
  586MOL0     O80733   9.540   5.441   7.478 -0.1640 -0.0016 -0.0869
  586MOL0     C80734   9.676   5.428   7.487 -0.7505 -0.7094 -0.3911
  586MOL0     C80735   9.753   5.424   7.370  0.4001 -0.9895 -0.3442
  586MOL0     C80736   9.890   5.416   7.375  0.9081 -0.0876  0.4198
  586MOL0     C80737   9.948   5.404   7.498  0.9525 -0.3340  0.7025
  586MOL0     O80738  10.081   5.401   7.506  0.3910  0.0916  0.4758
  586MOL0     C80739  10.130   5.270   7.517 -0.1252  0.7350 -0.1001
  586MOL0     C80740  10.257   5.266   7.430 -0.7670  0.5326  0.1512
  586MOL0     C80741  10.287   5.126   7.379  0.4637  0.3430 -0.0640
  586MOL0     C80742  10.437   5.100   7.351  0.4894  0.2068  0.4025
  586MOL0     C80743  10.519   5.094   7.479  0.2158 -0.0595 -0.2065
  586MOL0     C80744  10.498   4.980   7.579 -0.1124  0.0950  0.5000
  586MOL0     C80745  10.597   4.992   7.692 -0.5363  0.5931  0.0648
  586MOL0     C80746  10.572   4.882   7.794 -0.6658 -0.0146  0.2082
  586MOL0     N80747  10.621   4.913   7.929 -0.2914  0.7051  0.1704
  586MOL0     C80748  10.730   4.974   7.966  0.1275 -0.1738 -0.2060
  586MOL0     C80749  10.746   4.955   8.101 -0.3965 -0.1967 -0.4622
  586MOL0     C80750  10.842   5.016   8.202  0.3235  0.2828 -0.1163
  586MOL0     C80751  10.995   4.994   8.174 -0.1080 -0.0895  0.0022
  586MOL0     C80752  11.046   4.853   8.150 -0.3868 -0.0092  0.2838
  586MOL0     C80753  11.003   4.751   8.248 -0.7235  0.6660 -0.3725
  586MOL0     O80754  11.082   4.746   8.372 -0.4784  0.7067  0.2133
  586MOL0     C80755  11.193   4.664   8.372  0.2434  0.2024  0.4275
  586MOL0     C80756  11.240   4.572   8.277  0.2816  0.2072  0.1641
  586MOL0     C80757  11.358   4.508   8.278  0.9452  0.6033  0.1067
  586MOL0     C80758  11.388   4.405   8.167  0.4586  0.3965 -0.2716
  586MOL0     C80759  11.438   4.533   8.390  0.6426 -0.4798 -0.3839
  586MOL0     C80760  11.561   4.454   8.419  0.3701  0.3179 -0.1152
  586MOL0     O80761  11.660   4.527   8.483 -0.0461 -0.7946 -0.0268
  586MOL0     C80762  11.793   4.489   8.494 -1.1419  0.1032 -0.2480
  586MOL0     C80763  11.892   4.589   8.497 -0.1518  0.5131  0.2931
  586MOL0     C80764  12.032   4.568   8.496  0.2675 -0.9027  0.8166
  586MOL0     C80765  12.082   4.435   8.494  0.7074  1.3276  0.3467
  586MOL0     O80766  12.208   4.393   8.502  0.4372  0.5058 -0.0284
  586MOL0     C80767  12.311   4.491   8.486 -0.0199 -0.2682  0.6145
  586MOL0     C80768  12.346   4.544   8.622 -0.4236 -0.5354  0.9575
  586MOL0     C80769  12.483   4.627   8.625  1.1466  0.6774  0.5295
  586MOL0     C80770  12.601   4.539   8.619 -0.8664 -0.3748  0.5110
  586MOL0     C80771  12.736   4.610   8.659  0.5460 -0.6242  0.8560
  586MOL0     C80772  12.858   4.524   8.659  0.1301  0.8468 -0.4581
  586MOL0     C80773  12.990   4.618   8.668 -0.8308 -0.2172  0.2742
  586MOL0     C80774  13.112   4.541   8.620  1.2840 -0.4072  0.1477
  586MOL0    Cl80775  13.154   4.564   8.439  0.2921  0.0976 -1.1230
  586MOL0     C80776  11.989   4.332   8.507  0.7376  0.4280 -0.0163
  586MOL0     C80777  11.845   4.357   8.501 -0.1005  1.1996  0.0787
  586MOL0     O80778  11.573   4.332   8.394  0.2545 -0.0085 -0.6388
  586MOL0     C80779  11.396   4.617   8.488 -0.1273 -0.4167 -0.5899
  586MOL0     C80780  11.279   4.685   8.474  0.6855  0.2402 -0.3066
  586MOL0     N80781  10.652   4.861   8.135 -0.0476 -0.5467 -0.2113
  586MOL0     N80782  10.582   4.849   8.032  0.1283  0.4615  0.0561
  586MOL0     C80783   9.873   5.394   7.615  0.4293  0.5156  0.5779
  586MOL0     C80784   9.736   5.417   7.616  0.6602 -0.7912 -0.6754
  586MOL0     C80785   9.347   5.581   7.485  0.3133  0.0103  0.2232
  586MOL0     C80786   9.280   5.475   7.419  0.7000  0.8896 -0.1419
  586MOL0     C80787   9.137   5.472   7.424 -0.2639 -0.7656  0.0008
  586MOL0     C80788   9.065   5.577   7.468  0.1581  0.3046 -0.3796
  586MOL0     O80789   8.933   5.589   7.474  0.0195 -0.6168  0.1186
  586MOL0     C80790   8.824   5.499   7.429 -0.2108 -0.1466 -0.1307
  586MOL0     C80791   8.755   5.553   7.299  0.2316 -0.6493  0.1694
  586MOL0     C80792   8.842   5.601   7.181 -1.1193  0.3734 -0.0302
  586MOL0     C80793   8.782   5.628   7.048 -0.2692  0.7085  0.2353
  586MOL0     C80794   8.706   5.517   6.988  0.2145  0.0478 -0.8147
  586MOL0     C80795   8.636   5.431   6.938  1.0527 -0.1399  0.2337
  586MOL0     C80796   9.133   5.683   7.524 -1.0637 -0.7697  0.1639
  586MOL0     C80797   9.273   5.683   7.537  0.7241 -0.0169 -0.3938
  586MOL0     C80798   9.335   5.807   7.605  0.6072 -0.1880 -0.2308
  586MOL0     H80799   9.704   5.437   7.274  1.8142 -2.7250 -1.3719
  586MOL0     H80800   9.953   5.422   7.287  1.1019 -1.3284  0.4635
  586MOL0     H80801  10.053   5.199   7.483 -0.2247  0.9026 -0.2272
  586MOL0     H80802  10.155   5.239   7.619 -1.9387  3.2865  1.2348
  586MOL0     H80803  10.245   5.328   7.341 -1.0056 -0.9642 -0.8970
  586MOL0     H80804  10.337   5.312   7.487 -0.5087 -1.2287  1.3069
  586MOL0     H80805  10.257   5.060   7.461  1.3434  1.7321  1.4491
  586MOL0     H80806  10.238   5.098   7.286  0.1758 -0.2354  0.2594
  586MOL0     H80807  10.434   5.006   7.295 -1.3700  0.7042 -0.3941
  586MOL0     H80808  10.481   5.180   7.291 -1.2605 -0.7385 -2.3021
  586MOL0     H80809  10.493   5.184   7.537  0.7766  0.1274 -0.2334
  586MOL0     H80810  10.626   5.091   7.458  0.2300 -1.1120 -0.0246
  586MOL0     H80811  10.396   4.979   7.619 -0.7712  2.3162 -0.9568
  586MOL0     H80812  10.505   4.884   7.527  1.1441 -0.4454  1.6142
  586MOL0     H80813  10.597   5.086   7.748 -0.4651 -0.1687  1.3855
  586MOL0     H80814  10.700   4.990   7.655 -0.3527 -0.9662  0.5582
  586MOL0     H80815  10.465   4.860   7.806 -0.6256  1.1114  3.7092
  586MOL0     H80816  10.624   4.790   7.766 -0.2911  0.7542 -1.8034
  586MOL0     H80817  10.797   5.032   7.904  0.5319 -0.6530 -0.2315
  586MOL0     H80818  10.811   4.987   8.303  0.1862 -0.6942 -0.4362
  586MOL0     H80819  10.812   5.121   8.194 -4.2557 -0.8608 -0.7641
  586MOL0     H80820  11.020   5.054   8.085 -0.8860 -2.0575 -1.6164
  586MOL0     H80821  11.048   5.027   8.263  2.4555 -1.7065 -0.8343
  586MOL0     H80822  11.004   4.830   8.051  2.2452 -0.1713 -0.8740
  586MOL0     H80823  11.155   4.851   8.145 -0.4600 -1.1265 -2.0812
  586MOL0     H80824  10.900   4.764   8.284  0.7573 -0.7367  5.3518
  586MOL0     H80825  11.000   4.653   8.200  0.0906  0.7666 -0.6377
  586MOL0     H80826  11.178   4.546   8.192  2.1300  0.3665 -1.3094
  586MOL0     H80827  11.366   4.304   8.201  2.5507  0.5662  1.8884
  586MOL0     H80828  11.495   4.402   8.143  0.8287  2.2302  0.8701
  586MOL0     H80829  11.322   4.429   8.083  1.3245  3.8145 -0.1380
  586MOL0     H80830  11.862   4.694   8.498  2.8928  1.4872  2.1732
  586MOL0     H80831  12.093   4.657   8.485 -0.9504 -0.1588 -0.2657
  586MOL0     H80832  12.394   4.435   8.443 -1.6226 -1.7461 -0.6981
  586MOL0     H80833  12.282   4.560   8.405  1.2727 -1.5750 -1.0410
  586MOL0     H80834  12.269   4.614   8.655 -1.1190 -0.7687 -0.1400
  586MOL0     H80835  12.346   4.468   8.700  0.4498 -0.5547  0.9544
  586MOL0     H80836  12.477   4.690   8.714 -2.5068 -0.4534  1.2315
  586MOL0     H80837  12.483   4.704   8.546 -2.9481  0.9081  0.5538
  586MOL0     H80838  12.604   4.499   8.517  2.3503  1.3604 -0.2454
  586MOL0     H80839  12.584   4.459   8.691 -0.8116 -1.6927 -0.8939
  586MOL0     H80840  12.739   4.687   8.581  0.6376 -1.1335  0.3467
  586MOL0     H80841  12.727   4.657   8.757 -1.4252  1.3159 -0.1658
  586MOL0     H80842  12.857   4.472   8.563  1.4149 -1.0427  0.4985
  586MOL0     H80843  12.850   4.457   8.744  1.7632  0.6161 -0.4405
  586MOL0     H80844  12.995   4.648   8.773 -3.1874 -4.1182  1.7460
  586MOL0     H80845  12.985   4.702   8.598  1.2834  0.5010  0.9192
  586MOL0     H80846  13.092   4.433   8.627 -2.1515  0.0710 -0.4863
  586MOL0     H80847  13.197   4.578   8.678  1.2731  2.4763 -1.4633
  586MOL0     H80848  12.024   4.231   8.522  1.2979  0.5829 -0.2660
  586MOL0     H80849  11.770   4.281   8.519  1.7294 -0.6031  0.5091
  586MOL0     H80850  11.456   4.629   8.577 -2.2974 -0.2669  0.9275
  586MOL0     H80851  11.250   4.769   8.536  2.3919  1.8095 -1.5074
  586MOL0     H80852   9.938   5.385   7.702  0.3724  1.5779  0.7428
  586MOL0     H80853   9.681   5.422   7.710  1.5618 -2.0043 -0.0662
  586MOL0     H80854   9.333   5.397   7.366  0.2241  0.1793  0.4223
  586MOL0     H80855   9.094   5.391   7.366  1.0125 -0.5359 -1.3240
  586MOL0     H80856   8.870   5.406   7.394  0.8053  0.6547 -0.9817
  586MOL0     H80857   8.736   5.488   7.493 -2.0666  1.4587 -2.2183
  586MOL0     H80858   8.699   5.640   7.336  0.1411 -0.4275 -0.4806
  586MOL0     H80859   8.672   5.494   7.260 -1.9788  1.4081  1.4595
  586MOL0     H80860   8.886   5.697   7.210 -0.8545  0.1146  0.4389
  586MOL0     H80861   8.928   5.534   7.170  2.7412  4.7771  0.4155
  586MOL0     H80862   8.860   5.659   6.977 -2.2808  3.1109 -1.0874
  586MOL0     H80863   8.723   5.717   7.073  2.2833  2.3896  0.6502
  586MOL0     H80864   8.585   5.349   6.893 -0.8249  0.4521  1.1723
  586MOL0     H80865   9.086   5.766   7.576 -0.6247 -0.8462  0.6981
  586MOL0     H80866   9.403   5.860   7.538 -0.5686  0.7276 -0.7277
  586MOL0     H80867   9.259   5.879   7.635  0.4702  0.0198 -1.0559
  586MOL0     H80868   9.390   5.772   7.694 -0.3009 -1.2490 -0.0664
  587MOL0     O80869   1.386   1.193   5.156  0.4628 -0.2580  0.1979
  587MOL0     C80870   1.323   1.197   5.051 -0.2644  0.4540  0.1437
  587MOL0     O80871   1.362   1.132   4.941  0.0966  0.9424  0.6354
  587MOL0     C80872   1.481   1.061   4.938 -0.5722 -0.5369 -0.3225
  587MOL0     C80873   1.519   0.956   5.025  0.7213  0.0732  0.7721
  587MOL0     C80874   1.628   0.871   4.983 -0.3203 -0.1422  0.3340
  587MOL0     C80875   1.710   0.909   4.878 -1.1263  0.3437  0.6435
  587MOL0     O80876   1.819   0.831   4.830  0.0247 -0.5042  0.0360
  587MOL0     C80877   1.867   0.712   4.887 -0.4217 -0.5502  0.3017
  587MOL0     C80878   1.942   0.628   4.788 -0.5248 -0.2240 -0.4105
  587MOL0     C80879   2.083   0.682   4.744  0.4632  1.5463 -0.0059
  587MOL0     C80880   2.176   0.585   4.675 -0.1573  0.8681  0.5929
  587MOL0     C80881   2.310   0.650   4.639 -0.2704  0.5375  0.6115
  587MOL0     C80882   2.397   0.563   4.550 -0.4136 -0.8610  0.2092
  587MOL0     C80883   2.535   0.586   4.593 -0.9731  0.1711  0.3960
  587MOL0     C80884   2.597   0.728   4.559  0.4948 -0.2153 -0.4127
  587MOL0     N80885   2.741   0.729   4.557  0.1499  0.3266  0.4494
  587MOL0     C80886   2.820   0.736   4.673 -0.7140 -0.1034  0.0441
  587MOL0     C80887   2.945   0.738   4.630 -0.3362  0.1343 -0.0647
  587MOL0     C80888   3.068   0.726   4.713 -0.1281 -0.7189 -0.0820
  587MOL0     C80889   3.204   0.700   4.637  0.4897  0.4508  0.9207
  587MOL0     C80890   3.259   0.823   4.569 -0.3203  0.1066  1.0264
  587MOL0     C80891   3.266   0.943   4.664  0.5979  0.2558  0.2317
  587MOL0     O80892   3.325   0.903   4.789  0.2166 -1.0425  0.1544
  587MOL0     C80893   3.459   0.879   4.819 -0.0216  0.5340  0.3862
  587MOL0     C80894   3.558   0.895   4.718 -0.0371 -0.3611  0.2597
  587MOL0     C80895   3.698   0.884   4.741  0.5836  0.4480  0.4564
  587MOL0     C80896   3.775   0.915   4.613 -0.5270  0.1678 -0.3140
  587MOL0     C80897   3.744   0.863   4.871  0.1885  0.2972 -0.2458
  587MOL0     C80898   3.890   0.834   4.898 -1.1861  1.0428 -0.8124
  587MOL0     O80899   3.927   0.748   4.997  0.4041 -0.0137 -0.0960
  587MOL0     C80900   4.061   0.747   5.040  1.3812 -0.2958  0.8387
  587MOL0     C80901   4.122   0.629   5.056  0.0167  0.2176  0.2593
  587MOL0     C80902   4.263   0.612   5.083  0.4519  0.0616  0.0189
  587MOL0     C80903   4.334   0.732   5.109  0.2175 -0.0404 -0.7370
  587MOL0     O80904   4.475   0.734   5.139  0.3951  0.1832 -0.1555
  587MOL0     C80905   4.533   0.609   5.145 -0.6160  0.1775  0.7864
  587MOL0     C80906   4.686   0.619   5.157 -0.2679 -0.8381 -0.3120
  587MOL0     C80907   4.756   0.488   5.190 -0.5229  0.0085  0.4085
  587MOL0     C80908   4.904   0.511   5.220  0.6247 -0.2706  0.3256
  587MOL0     C80909   4.994   0.392   5.249 -0.3911  0.8916  0.3976
  587MOL0     C80910   4.951   0.338   5.377 -0.3849  0.8923 -0.5656
  587MOL0     C80911   5.062   0.244   5.426 -0.4646  0.4070  0.1141
  587MOL0     C80912   5.035   0.101   5.370 -1.4994 -0.2967 -0.3382
  587MOL0    Cl80913   5.156   0.002   5.450  0.1737 -0.0137  0.3251
  587MOL0     C80914   4.266   0.849   5.090  0.2173 -0.9052 -0.5143
  587MOL0     C80915   4.137   0.867   5.056 -0.0043 -0.1857  0.0369
  587MOL0     O80916   3.971   0.901   4.838 -0.2518 -0.1572 -0.5316
  587MOL0     C80917   3.644   0.833   4.969  0.7605 -0.0129 -0.2081
  587MOL0     C80918   3.506   0.844   4.945  1.1427  0.1985  0.0248
  587MOL0     N80919   2.942   0.747   4.488  0.6851  0.6647  0.2082
  587MOL0     N80920   2.819   0.731   4.444 -0.1503 -0.1661  0.2570
  587MOL0     C80921   1.687   1.026   4.812 -0.4373 -0.0383  0.1427
  587MOL0     C80922   1.570   1.092   4.837  0.9753 -0.4348 -0.3120
  587MOL0     C80923   1.188   1.259   5.039 -0.3495 -0.2508 -0.3651
  587MOL0     C80924   1.094   1.213   4.948  0.0418 -0.2339  1.0467
  587MOL0     C80925   0.975   1.268   4.929 -0.3541  0.9302 -0.6601
  587MOL0     C80926   0.927   1.367   5.009 -0.2925  0.7418  0.5316
  587MOL0     O80927   0.803   1.424   4.994 -0.3330  0.5979  0.5892
  587MOL0     C80928   0.707   1.364   4.899  0.3919  0.3150 -1.4975
  587MOL0     C80929   0.720   1.401   4.751 -0.1475  0.6762 -0.3080
  587MOL0     C80930   0.643   1.536   4.721  1.1984 -0.1155  0.0336
  587MOL0     C80931   0.491   1.505   4.702 -0.0249 -0.3451  0.3706
  587MOL0     C80932   0.438   1.628   4.652 -0.4610  0.6727  0.3266
  587MOL0     C80933   0.388   1.733   4.603 -0.5993 -0.3274  1.0396
  587MOL0     C80934   1.011   1.411   5.113  0.0032  0.1090  0.4065
  587MOL0     C80935   1.140   1.358   5.130 -0.6030 -0.1366 -0.1318
  587MOL0     C80936   1.237   1.426   5.224 -0.2413  0.3229 -0.4256
  587MOL0     H80937   1.449   0.938   5.106 -2.4234  1.3194 -1.4746
  587MOL0     H80938   1.651   0.786   5.046 -0.2459  0.4340  1.1073
  587MOL0     H80939   1.779   0.655   4.920  0.0512 -1.9419 -0.7168
  587MOL0     H80940   1.935   0.743   4.967  0.4517  2.9114 -1.5975
  587MOL0     H80941   1.948   0.526   4.827 -0.6472 -0.6961 -1.5866
  587MOL0     H80942   1.868   0.625   4.707 -1.6872  3.3483  0.3395
  587MOL0     H80943   2.073   0.763   4.672 -0.2395  1.7665  0.3283
  587MOL0     H80944   2.147   0.730   4.819  0.6507  0.4831  0.5290
  587MOL0     H80945   2.189   0.500   4.743  0.4254  0.9365  0.5749
  587MOL0     H80946   2.141   0.541   4.581  1.4562  0.5255  0.1230
  587MOL0     H80947   2.356   0.677   4.735  0.4169  1.0773  0.1393
  587MOL0     H80948   2.291   0.738   4.576  0.4358  0.4790  0.3137
  587MOL0     H80949   2.368   0.458   4.561  2.0903 -1.7391 -0.6331
  587MOL0     H80950   2.379   0.597   4.448 -0.3348  1.3231  0.8861
  587MOL0     H80951   2.589   0.508   4.538 -1.8230  2.0641 -3.4821
  587MOL0     H80952   2.542   0.576   4.701  1.9247 -2.9795  0.0906
  587MOL0     H80953   2.549   0.760   4.465  0.3382  1.1019  0.0944
  587MOL0     H80954   2.557   0.806   4.625 -0.7469  0.5158 -1.9450
  587MOL0     H80955   2.792   0.738   4.778  0.9056  0.1867  0.4865
  587MOL0     H80956   3.061   0.636   4.774  1.5486 -4.1557 -4.4077
  587MOL0     H80957   3.077   0.808   4.785 -0.4050 -2.9623  2.6984
  587MOL0     H80958   3.278   0.671   4.713  1.0118  0.7625  0.5303
  587MOL0     H80959   3.198   0.625   4.558 -0.6525  2.1573 -0.6837
  587MOL0     H80960   3.356   0.799   4.523  0.0719 -0.5330  2.1557
  587MOL0     H80961   3.207   0.839   4.474  1.7843 -2.1800 -0.6645
  587MOL0     H80962   3.330   1.023   4.624  0.2898  1.7318  2.5082
  587MOL0     H80963   3.173   0.996   4.686  0.1797  0.3746 -1.6394
  587MOL0     H80964   3.520   0.920   4.620  0.2803  0.2570  0.2954
  587MOL0     H80965   3.864   0.852   4.602  1.6458  3.2024 -1.6458
  587MOL0     H80966   3.810   1.019   4.610  0.5294 -0.1421  0.6665
  587MOL0     H80967   3.707   0.903   4.528 -1.2059 -1.9290  0.4507
  587MOL0     H80968   4.065   0.538   5.036  2.6241 -0.9428 -2.5743
  587MOL0     H80969   4.302   0.513   5.101  2.0318  0.3403 -1.5334
  587MOL0     H80970   4.492   0.550   5.227 -1.0817  2.6457  2.4356
  587MOL0     H80971   4.519   0.565   5.045  2.5446 -1.0693  0.7568
  587MOL0     H80972   4.732   0.651   5.063 -1.0136 -0.5352 -0.5793
  587MOL0     H80973   4.708   0.689   5.239 -1.3784 -0.3582 -0.4104
  587MOL0     H80974   4.755   0.417   5.106  2.7035 -0.0296  0.3019
  587MOL0     H80975   4.708   0.446   5.280  0.1056  3.4225  2.5360
  587MOL0     H80976   4.923   0.581   5.301  0.8847  0.1515 -0.0903
  587MOL0     H80977   4.954   0.558   5.134  1.0242 -1.6523 -0.2204
  587MOL0     H80978   5.007   0.316   5.171  4.8034  3.7309 -2.0083
  587MOL0     H80979   5.093   0.438   5.255  0.2668 -0.3538 -0.4262
  587MOL0     H80980   4.856   0.284   5.384 -0.8419  1.8104  0.8468
  587MOL0     H80981   4.942   0.421   5.448  0.1493  0.2917  0.2280
  587MOL0     H80982   5.066   0.238   5.535 -0.6162 -0.5886  0.0751
  587MOL0     H80983   5.158   0.284   5.394 -0.6332 -0.8122 -2.1730
  587MOL0     H80984   5.054   0.104   5.263  2.4253 -0.0521  0.1896
  587MOL0     H80985   4.934   0.061   5.379 -1.6490  0.4131  1.6323
  587MOL0     H80986   4.322   0.942   5.095  0.7885 -1.3245  2.0685
  587MOL0     H80987   4.107   0.966   5.025 -1.6697 -0.2328  1.3855
  587MOL0     H80988   3.681   0.795   5.064  0.1296 -0.4086 -0.1150
  587MOL0     H80989   3.427   0.833   5.019 -3.2153  0.1140 -4.1734
  587MOL0     H80990   1.744   1.070   4.730  3.4000 -0.8355  2.1464
  587MOL0     H80991   1.548   1.185   4.785  0.1516 -0.0747  0.6343
  587MOL0     H80992   1.116   1.140   4.871 -1.0063  2.7048 -2.3369
  587MOL0     H80993   0.909   1.215   4.861  1.4138 -0.6194 -1.2495
  587MOL0     H80994   0.698   1.256   4.911 -2.1192  0.6125 -0.0108
  587MOL0     H80995   0.606   1.393   4.930 -0.0475 -1.7980 -0.7781
  587MOL0     H80996   0.681   1.314   4.698 -1.5484  1.2295 -0.2229
  587MOL0     H80997   0.828   1.417   4.739 -0.0781  2.2002  1.7819
  587MOL0     H80998   0.647   1.604   4.806  1.6271  1.6825 -1.3443
  587MOL0     H80999   0.690   1.582   4.633  0.5551  0.1376 -0.1840
  587MOL0     H81000   0.453   1.471   4.799  3.9828 -0.6261  2.0711
  587MOL0     H81001   0.496   1.416   4.640  3.4169  0.5165 -0.8305
  587MOL0     H81002   0.351   1.828   4.570 -1.4435 -0.6171  1.1163
  587MOL0     H81003   0.970   1.485   5.181  1.5176  2.1848 -0.8047
  587MOL0     H81004   1.337   1.424   5.180  1.2860 -1.2250  2.7370
  587MOL0     H81005   1.207   1.528   5.252  1.2787  0.6492  0.1441
  587MOL0     H81006   1.246   1.365   5.314  0.8567 -1.5059 -1.7230
  588MOL0     O81007  10.992   0.388   0.068  0.5432  0.2154 -0.6751
  588MOL0     C81008  10.892   0.370   0.141 -0.3068  0.4774 -0.4511
  588MOL0     O81009  10.893   0.337   0.278 -0.1909  0.5234  0.2653
  588MOL0     C81010  11.014   0.331   0.330  0.1068 -0.1496 -0.0017
  588MOL0     C81011  11.051   0.423   0.435  0.3331  0.0193 -0.5936
  588MOL0     C81012  11.176   0.408   0.501 -0.1953 -0.6052 -0.3149
  588MOL0     C81013  11.266   0.306   0.464  0.2287 -0.3224  0.0554
  588MOL0     O81014  11.392   0.276   0.500  0.3722 -0.6390  0.2005
  588MOL0     C81015  11.462   0.337   0.604  0.1531 -0.3343  0.0035
  588MOL0     C81016  11.606   0.281   0.601 -0.4963 -0.6429 -0.7071
  588MOL0     C81017  11.597   0.130   0.624 -0.2721 -0.5817  0.5316
  588MOL0     C81018  11.736   0.063   0.627  0.1215  0.2171 -0.0008
  588MOL0     C81019  11.725  -0.083   0.654 -0.6520 -0.6915  0.4806
  588MOL0     C81020  11.864  -0.156   0.673  0.4087  0.2996 -0.3433
  588MOL0     C81021  11.939  -0.177   0.546  0.4601  0.2216 -0.3022
  588MOL0     C81022  12.086  -0.203   0.550 -0.5179  0.4269 -0.6099
  588MOL0     N81023  12.114  -0.329   0.612 -0.2316 -1.2322  0.1447
  588MOL0     C81024  12.204  -0.418   0.561  0.0063 -0.2457 -0.4783
  588MOL0     C81025  12.253  -0.484   0.666  0.0006  0.1082 -0.1369
  588MOL0     C81026  12.357  -0.594   0.658  0.1165 -0.3511  0.0206
  588MOL0     C81027  12.476  -0.565   0.758 -0.4931 -0.1625  0.7955
  588MOL0     C81028  12.495  -0.678   0.855 -0.2176  0.0825 -0.9069
  588MOL0     C81029  12.590  -0.624   0.965 -0.5688 -0.1261  0.0368
  588MOL0     O81030  12.583  -0.699   1.091 -0.0708 -0.2813  0.7239
  588MOL0     C81031  12.696  -0.712   1.170  0.0049 -0.0528 -0.2793
  588MOL0     C81032  12.685  -0.786   1.282 -0.4139  0.2588  0.3949
  588MOL0     C81033  12.783  -0.799   1.379 -0.5419  0.2051 -0.7903
  588MOL0     C81034  12.735  -0.866   1.505  0.4702  0.1210  0.1088
  588MOL0     C81035  12.911  -0.746   1.361  0.6482  0.6777 -0.1446
  588MOL0     C81036  13.024  -0.745   1.451 -0.6905  1.4178  0.0848
  588MOL0     O81037  13.147  -0.711   1.404 -0.3204  0.1988 -0.1785
  588MOL0     C81038  13.256  -0.709   1.491  0.5299  1.1303  0.3121
  588MOL0     C81039  13.338  -0.601   1.490  0.4742 -0.0115  0.2611
  588MOL0     C81040  13.453  -0.598   1.573  1.2475 -0.6432 -0.0485
  588MOL0     C81041  13.468  -0.700   1.672  0.1929 -0.0217 -0.0485
  588MOL0     O81042  13.571  -0.676   1.759  0.5837 -0.1475  0.1303
  588MOL0     C81043  13.656  -0.782   1.794 -0.0279 -0.4097  0.7922
  588MOL0     C81044  13.806  -0.748   1.772 -0.5567 -0.3780 -0.3364
  588MOL0     C81045  13.855  -0.698   1.637  0.4358 -0.7262 -0.2625
  588MOL0     C81046  13.858  -0.546   1.627 -0.0451  0.0947  0.3592
  588MOL0     C81047  13.843  -0.490   1.484  0.4430 -0.6063 -0.7869
  588MOL0     C81048  13.954  -0.534   1.382  0.3178  0.3913 -0.2070
  588MOL0     C81049  14.088  -0.484   1.429  0.4502  0.5321  0.0031
  588MOL0     C81050  14.197  -0.542   1.335  1.1875 -0.4192  0.6614
  588MOL0    Cl81051  14.358  -0.516   1.402  0.2590  0.0810 -0.9337
  588MOL0     C81052  13.387  -0.814   1.657 -0.4748 -0.6645  0.4378
  588MOL0     C81053  13.287  -0.821   1.566 -0.1616 -0.8351  0.3814
  588MOL0     O81054  13.000  -0.774   1.570 -0.1603 -0.5004 -0.4117
  588MOL0     C81055  12.931  -0.676   1.239  0.0373 -0.8783 -0.3723
  588MOL0     C81056  12.828  -0.662   1.146 -0.3827 -0.1133 -0.3442
  588MOL0     N81057  12.186  -0.444   0.778  0.0105  0.4361 -0.1054
  588MOL0     N81058  12.091  -0.360   0.741  0.2458  1.0494  0.4038
  588MOL0     C81059  11.234   0.220   0.358 -0.0633  0.5489  0.0674
  588MOL0     C81060  11.109   0.234   0.296 -0.2092  0.0968  0.6753
  588MOL0     C81061  10.763   0.368   0.073 -0.2175  0.6523  0.2380
  588MOL0     C81062  10.755   0.423  -0.051 -0.1638 -0.4575 -0.2722
  588MOL0     C81063  10.646   0.411  -0.138  0.5140  0.2814 -0.8867
  588MOL0     C81064  10.535   0.350  -0.084 -0.3770 -0.2846 -0.1101
  588MOL0     O81065  10.427   0.354  -0.161 -0.3280  0.3580 -0.2976
  588MOL0     C81066  10.301   0.322  -0.096 -0.5121 -0.5285  0.5931
  588MOL0     C81067  10.170   0.366  -0.163  0.5812 -0.3385 -0.5757
  588MOL0     C81068  10.183   0.511  -0.221 -0.4912  1.1986  1.0373
  588MOL0     C81069  10.052   0.579  -0.250 -0.8944  0.5986  0.0168
  588MOL0     C81070  10.001   0.631  -0.123 -0.3778  0.0017  0.0325
  588MOL0     C81071   9.963   0.695  -0.025 -0.3131 -0.4521  0.5532
  588MOL0     C81072  10.544   0.282   0.041  0.4118  0.1187 -0.3038
  588MOL0     C81073  10.646   0.296   0.127 -0.7812  0.0002 -0.4667
  588MOL0     C81074  10.634   0.219   0.256 -0.9298  0.0165  0.2521
  588MOL0     H81075  10.996   0.516   0.444  1.4493  0.5446  1.4066
  588MOL0     H81076  11.213   0.489   0.563  0.6025 -0.0463 -1.5004
  588MOL0     H81077  11.426   0.320   0.705 -0.0463  1.3351  0.2305
  588MOL0     H81078  11.459   0.445   0.587 -2.9418 -0.5572 -1.5520
  588MOL0     H81079  11.655   0.293   0.505 -0.5736 -0.8511 -0.7722
  588MOL0     H81080  11.663   0.323   0.685 -1.4701  1.6280 -1.0830
  588MOL0     H81081  11.556   0.115   0.724  1.4746 -0.6748  1.2769
  588MOL0     H81082  11.556   0.078   0.538 -0.7501 -1.2199  1.1351
  588MOL0     H81083  11.779   0.072   0.527 -2.7799  2.2471 -1.2204
  588MOL0     H81084  11.796   0.110   0.705  0.9117 -3.2034  1.6247
  588MOL0     H81085  11.684  -0.137   0.568  1.8677 -0.9339 -0.6619
  588MOL0     H81086  11.661  -0.094   0.742 -2.0062 -0.9056 -0.5022
  588MOL0     H81087  11.935  -0.103   0.737 -2.4122  2.2623  1.4015
  588MOL0     H81088  11.863  -0.249   0.732  1.8348  0.8585  0.6115
  588MOL0     H81089  11.927  -0.084   0.489 -4.3204 -0.4527 -0.8473
  588MOL0     H81090  11.897  -0.256   0.484  0.7298 -0.7854  0.7639
  588MOL0     H81091  12.123  -0.209   0.447 -3.7325  1.0301 -1.9004
  588MOL0     H81092  12.143  -0.120   0.594 -1.8822  1.1759 -0.2008
  588MOL0     H81093  12.237  -0.422   0.457  1.3962 -0.8217 -0.0320
  588MOL0     H81094  12.387  -0.609   0.554  0.1996  0.0743 -0.0223
  588MOL0     H81095  12.309  -0.688   0.686 -1.6297  0.2591 -0.7674
  588MOL0     H81096  12.564  -0.553   0.694 -1.1431  0.5318  0.0113
  588MOL0     H81097  12.468  -0.474   0.818 -1.2182  2.0500 -2.4435
  588MOL0     H81098  12.394  -0.695   0.893 -0.7118 -0.3781 -2.3524
  588MOL0     H81099  12.517  -0.771   0.802  0.7723  1.6201 -3.3399
  588MOL0     H81100  12.693  -0.628   0.929 -0.1009  3.8476  0.4827
  588MOL0     H81101  12.568  -0.518   0.985  0.5471  0.3080 -0.9281
  588MOL0     H81102  12.583  -0.819   1.303 -0.1423 -1.2418 -0.4655
  588MOL0     H81103  12.743  -0.787   1.580  1.1996 -0.8095  1.0463
  588MOL0     H81104  12.794  -0.949   1.545  0.1845 -0.1343  0.0024
  588MOL0     H81105  12.627  -0.885   1.499  0.7568 -1.8621  0.4805
  588MOL0     H81106  13.317  -0.519   1.423 -0.0627  0.9537  1.5681
  588MOL0     H81107  13.519  -0.513   1.562 -0.6055  0.6793 -1.4825
  588MOL0     H81108  13.651  -0.802   1.901  3.2093  1.4606  1.4374
  588MOL0     H81109  13.638  -0.874   1.738  0.2896 -0.9186  1.5070
  588MOL0     H81110  13.835  -0.679   1.852  0.7022  0.0903 -1.1503
  588MOL0     H81111  13.860  -0.842   1.786  0.3374 -0.9943 -5.6512
  588MOL0     H81112  13.788  -0.738   1.560 -1.8099 -3.1999  2.7172
  588MOL0     H81113  13.956  -0.734   1.617  1.2509  2.8173 -3.6719
  588MOL0     H81114  13.947  -0.509   1.679  0.6413 -0.7744 -0.1803
  588MOL0     H81115  13.771  -0.515   1.686 -1.6049 -2.2861 -0.5463
  588MOL0     H81116  13.746  -0.509   1.437  1.0004  0.7400 -2.5724
  588MOL0     H81117  13.854  -0.384   1.510 -0.4000 -0.8527  0.7464
  588MOL0     H81118  13.926  -0.491   1.285 -0.4274 -1.5192 -0.8904
  588MOL0     H81119  13.962  -0.643   1.374  0.7334  0.4550 -0.6982
  588MOL0     H81120  14.103  -0.511   1.534 -0.7609 -1.3261 -0.2526
  588MOL0     H81121  14.085  -0.375   1.427 -1.1674  0.5255  0.5452
  588MOL0     H81122  14.191  -0.494   1.237 -3.8819 -0.3659  0.7370
  588MOL0     H81123  14.187  -0.649   1.312 -0.5992  0.0551 -1.0007
  588MOL0     H81124  13.405  -0.893   1.729  0.9585 -0.7490  0.0158
  588MOL0     H81125  13.243  -0.914   1.532  1.0158 -1.1371 -0.3744
  588MOL0     H81126  13.024  -0.626   1.217 -1.3560  0.9084 -2.6804
  588MOL0     H81127  12.857  -0.591   1.069 -0.5300  2.4639  1.8102
  588MOL0     H81128  11.304   0.141   0.336  1.0115  1.3683  0.4787
  588MOL0     H81129  11.085   0.174   0.208  0.6694  2.9007 -1.6391
  588MOL0     H81130  10.832   0.492  -0.085  0.5311  0.6755  3.1430
  588MOL0     H81131  10.640   0.467  -0.231 -0.0815  1.3219 -0.2447
  588MOL0     H81132  10.285   0.215  -0.079 -1.9140 -0.4052  0.1206
  588MOL0     H81133  10.310   0.367   0.003  2.0228  1.4724 -0.4265
  588MOL0     H81134  10.086   0.356  -0.093 -1.3331  3.1869 -2.0725
  588MOL0     H81135  10.161   0.296  -0.247 -1.5599  0.0041 -0.6973
  588MOL0     H81136  10.249   0.574  -0.160  1.1533 -0.6327  1.2481
  588MOL0     H81137  10.236   0.498  -0.316 -0.0159  0.4240  1.4050
  588MOL0     H81138   9.982   0.514  -0.303 -0.2415 -0.1797  0.0685
  588MOL0     H81139  10.077   0.656  -0.323  3.2285 -2.0186 -1.7381
  588MOL0     H81140   9.925   0.764   0.048  0.7980  0.0700  0.6620
  588MOL0     H81141  10.453   0.234   0.077  0.0488  0.0579 -1.2922
  588MOL0     H81142  10.545   0.155   0.260 -1.6911  0.8181 -2.0153
  588MOL0     H81143  10.726   0.162   0.268 -0.2940  0.4649 -1.9983
  588MOL0     H81144  10.619   0.295   0.333  3.4646  0.2969  1.0435
  589MOL0     O81145   5.389   4.330   1.200  0.0078  0.3124  0.2083
  589MOL0     C81146   5.437   4.213   1.205 -1.1587 -1.0288 -0.2740
  589MOL0     O81147   5.564   4.180   1.172  0.1123  0.4677  0.0084
  589MOL0     C81148   5.644   4.276   1.119  0.5422  0.6316  0.3845
  589MOL0     C81149   5.610   4.353   0.998 -0.3493  0.1257 -0.3645
  589MOL0     C81150   5.702   4.431   0.928 -0.2814 -0.2790 -0.1651
  589MOL0     C81151   5.840   4.440   0.980 -0.2155  0.3136  0.1406
  589MOL0     O81152   5.938   4.526   0.932  0.4974  0.4784  0.2755
  589MOL0     C81153   5.904   4.611   0.821  0.6400 -0.9227 -0.9125
  589MOL0     C81154   6.024   4.702   0.788  0.6232  0.5745 -0.4148
  589MOL0     C81155   5.976   4.806   0.691  0.0210  0.1457  0.2546
  589MOL0     C81156   6.091   4.912   0.673  0.0474 -0.2996 -0.3166
  589MOL0     C81157   6.096   4.973   0.536  1.3634  0.5661  0.2343
  589MOL0     C81158   6.226   5.055   0.535  0.0028 -0.8834  0.3781
  589MOL0     C81159   6.262   5.102   0.390  0.1660  0.3784  0.0135
  589MOL0     C81160   6.410   5.165   0.390  0.2088 -0.5282 -0.2120
  589MOL0     N81161   6.445   5.208   0.258 -0.7314  0.1293 -0.5200
  589MOL0     C81162   6.373   5.282   0.163  0.6169 -1.2046 -0.7365
  589MOL0     C81163   6.466   5.320   0.070  0.5243 -0.9452 -0.6671
  589MOL0     C81164   6.445   5.389  -0.063  0.2666  0.2929 -0.2636
  589MOL0     C81165   6.533   5.314  -0.169 -0.4415  0.0346  0.6845
  589MOL0     C81166   6.499   5.379  -0.308  0.3436 -0.4387 -0.3619
  589MOL0     C81167   6.605   5.317  -0.402  0.1948 -0.5673  0.0716
  589MOL0     O81168   6.739   5.361  -0.364 -0.2730 -0.5101 -0.6905
  589MOL0     C81169   6.849   5.315  -0.431 -0.1249  0.1191 -0.4757
  589MOL0     C81170   6.841   5.233  -0.548 -0.4360 -0.5194  0.3359
  589MOL0     C81171   6.966   5.190  -0.608  0.6313 -0.2074  0.6806
  589MOL0     C81172   6.946   5.109  -0.736 -0.6658 -0.0095 -0.1220
  589MOL0     C81173   7.092   5.234  -0.558  0.1484 -0.0832  0.1779
  589MOL0     C81174   7.231   5.204  -0.614 -0.0195  0.5886 -0.1617
  589MOL0     O81175   7.325   5.299  -0.595 -0.4876 -0.2252  0.4301
  589MOL0     C81176   7.455   5.269  -0.608  0.1185  0.3173 -0.4900
  589MOL0     C81177   7.548   5.351  -0.672  0.3527 -0.3724  0.4724
  589MOL0     C81178   7.681   5.314  -0.681  0.0903 -0.0374  0.1941
  589MOL0     C81179   7.728   5.196  -0.623 -0.6763 -0.1335 -0.3363
  589MOL0     O81180   7.859   5.155  -0.621  0.1510  0.0956 -0.1826
  589MOL0     C81181   7.957   5.200  -0.717 -0.8244  0.6657 -0.2838
  589MOL0     C81182   8.001   5.079  -0.797  0.3025 -0.4780 -0.2977
  589MOL0     C81183   8.113   5.000  -0.726  0.1078  0.3278  0.0125
  589MOL0     C81184   8.158   4.889  -0.813 -0.1714 -0.8601  0.5329
  589MOL0     C81185   8.255   4.791  -0.744  0.4980  1.0941  0.1552
  589MOL0     C81186   8.386   4.867  -0.697 -0.2390  1.0653  0.3483
  589MOL0     C81187   8.517   4.783  -0.671  0.2106 -0.6141 -1.2318
  589MOL0     C81188   8.563   4.730  -0.806 -0.4463 -0.8804  0.5725
  589MOL0    Cl81189   8.737   4.687  -0.787 -0.5895 -0.0071 -0.1853
  589MOL0     C81190   7.633   5.119  -0.553  0.7767  1.2878  0.1735
  589MOL0     C81191   7.498   5.156  -0.543  0.1094 -0.3084  0.2656
  589MOL0     O81192   7.251   5.092  -0.673 -0.2973 -1.0489  0.2058
  589MOL0     C81193   7.091   5.318  -0.443  0.2366  0.1543  0.4612
  589MOL0     C81194   6.970   5.354  -0.377 -1.2518  0.2557  0.1242
  589MOL0     N81195   6.596   5.275   0.109 -0.1036 -0.4263 -0.5998
  589MOL0     N81196   6.579   5.215   0.222  1.0729 -0.4176  0.9517
  589MOL0     C81197   5.871   4.372   1.100  0.3526  0.1094 -0.1567
  589MOL0     C81198   5.769   4.295   1.169  0.0856 -1.1349  0.8062
  589MOL0     C81199   5.355   4.109   1.284 -0.9357 -0.0548  0.0840
  589MOL0     C81200   5.422   4.017   1.360  0.5537 -0.6025 -0.6480
  589MOL0     C81201   5.357   3.937   1.452 -0.4087 -1.0602 -0.0947
  589MOL0     C81202   5.217   3.925   1.442  0.4612 -0.4543  0.0765
  589MOL0     O81203   5.158   3.823   1.516  0.2503  0.4845 -0.8046
  589MOL0     C81204   5.025   3.785   1.484  0.5382 -0.4053 -0.0019
  589MOL0     C81205   4.968   3.672   1.568 -0.7050  0.0228  0.4946
  589MOL0     C81206   4.965   3.705   1.717 -0.0121 -0.3380 -0.1686
  589MOL0     C81207   4.928   3.578   1.793 -0.6059  0.0923 -0.4978
  589MOL0     C81208   4.782   3.586   1.833  0.2871  0.0652 -0.1750
  589MOL0     C81209   4.660   3.603   1.839  0.9580 -0.6433 -0.2442
  589MOL0     C81210   5.146   4.013   1.359 -0.9086 -0.0846  0.8014
  589MOL0     C81211   5.213   4.111   1.282  0.3451  0.7267 -0.6427
  589MOL0     C81212   5.120   4.213   1.214 -0.4180  0.3664  0.1218
  589MOL0     H81213   5.510   4.354   0.956 -0.4708 -1.5074 -0.1962
  589MOL0     H81214   5.663   4.489   0.845  2.7576  0.7774 -1.0184
  589MOL0     H81215   5.826   4.673   0.865  3.1026  0.2089  2.3031
  589MOL0     H81216   5.870   4.558   0.732  0.9477  0.5065 -1.9311
  589MOL0     H81217   6.056   4.760   0.875 -0.3769  2.1488 -1.0627
  589MOL0     H81218   6.103   4.637   0.749 -1.0104 -2.6951  1.3243
  589MOL0     H81219   5.967   4.766   0.590 -0.2302  1.2435 -0.1723
  589MOL0     H81220   5.880   4.852   0.714 -0.0643 -0.7752  1.8944
  589MOL0     H81221   6.085   4.992   0.747 -0.1533 -0.5733 -0.0355
  589MOL0     H81222   6.180   4.849   0.686  0.8605  0.6734 -1.0527
  589MOL0     H81223   6.009   5.033   0.510  1.8391  1.1248 -0.0921
  589MOL0     H81224   6.087   4.891   0.464  2.0036  2.0034 -1.5402
  589MOL0     H81225   6.208   5.142   0.598 -5.0036 -0.7278 -0.8991
  589MOL0     H81226   6.311   4.994   0.568  1.7365  1.1179 -0.1215
  589MOL0     H81227   6.185   5.167   0.347 -1.7819 -2.2000 -0.6180
  589MOL0     H81228   6.268   5.016   0.324 -0.7891  0.9939 -0.9063
  589MOL0     H81229   6.416   5.249   0.460  0.2889 -2.0014  1.6324
  589MOL0     H81230   6.489   5.093   0.414  2.0315  1.5297  0.3496
  589MOL0     H81231   6.266   5.296   0.152  0.3652 -1.1644  1.3840
  589MOL0     H81232   6.466   5.496  -0.051 -1.5780  0.8456 -1.5641
  589MOL0     H81233   6.338   5.384  -0.081 -0.0211 -2.1865  1.6629
  589MOL0     H81234   6.639   5.333  -0.155  0.0277  0.7858 -3.0413
  589MOL0     H81235   6.502   5.209  -0.161  0.5851 -0.1642  2.7769
  589MOL0     H81236   6.401   5.377  -0.357 -0.1034  0.0123  0.4865
  589MOL0     H81237   6.527   5.484  -0.296  1.1178 -0.6637 -0.1489
  589MOL0     H81238   6.587   5.209  -0.399  2.1995 -0.9966 -1.1666
  589MOL0     H81239   6.583   5.347  -0.505 -0.8249 -0.5616  0.2866
  589MOL0     H81240   6.741   5.210  -0.584 -0.2210  1.0924 -1.4777
  589MOL0     H81241   6.849   5.124  -0.784 -0.6082  0.8169  0.0022
  589MOL0     H81242   6.950   5.001  -0.720  4.4821  0.1012  1.1948
  589MOL0     H81243   7.017   5.145  -0.811 -0.4892  1.3069  0.6482
  589MOL0     H81244   7.531   5.450  -0.713 -1.1995 -0.3584  1.0792
  589MOL0     H81245   7.741   5.380  -0.743  0.8642 -1.7551 -0.9565
  589MOL0     H81246   7.914   5.279  -0.779 -2.2150  0.4655  0.3743
  589MOL0     H81247   8.040   5.250  -0.667  0.2484  1.4502 -2.7178
  589MOL0     H81248   7.916   5.010  -0.806  0.9930 -1.0673 -3.4284
  589MOL0     H81249   8.033   5.118  -0.894  0.1821  1.8458  0.5441
  589MOL0     H81250   8.067   4.956  -0.637 -0.8106  0.4273 -0.4004
  589MOL0     H81251   8.194   5.068  -0.698 -1.2634  1.8874  0.3987
  589MOL0     H81252   8.210   4.936  -0.898  0.0769  0.4595  1.3729
  589MOL0     H81253   8.078   4.831  -0.859 -0.8256  0.0610  0.4927
  589MOL0     H81254   8.202   4.736  -0.666  0.4981  0.2919 -0.3959
  589MOL0     H81255   8.279   4.716  -0.819  1.5525  2.3173 -0.7844
  589MOL0     H81256   8.358   4.934  -0.615 -0.4185  1.9281 -0.3954
  589MOL0     H81257   8.416   4.942  -0.771 -0.2393 -1.0102 -1.8587
  589MOL0     H81258   8.493   4.699  -0.604  0.3068 -0.9518 -1.6187
  589MOL0     H81259   8.597   4.838  -0.620 -0.1698 -1.7198  0.6866
  589MOL0     H81260   8.564   4.805  -0.885  0.0425 -1.3801  0.0971
  589MOL0     H81261   8.496   4.650  -0.839 -1.1309 -0.2168  0.3505
  589MOL0     H81262   7.666   5.028  -0.504  0.2333  0.3381 -1.1719
  589MOL0     H81263   7.425   5.093  -0.494  1.3895  0.7550  3.8376
  589MOL0     H81264   7.190   5.348  -0.408  0.9596 -2.6972  1.1891
  589MOL0     H81265   6.968   5.421  -0.292  0.9862  1.7382 -0.8947
  589MOL0     H81266   5.972   4.377   1.140  0.9409 -3.0324 -1.0292
  589MOL0     H81267   5.791   4.249   1.265  1.0224 -1.9240  0.2378
  589MOL0     H81268   5.530   4.018   1.357  0.6848 -4.0580 -2.1276
  589MOL0     H81269   5.408   3.868   1.519 -1.1337 -0.9524  0.5802
  589MOL0     H81270   4.966   3.875   1.504  1.9326  0.3084  1.1379
  589MOL0     H81271   5.009   3.752   1.381  0.4705 -2.6643  0.6720
  589MOL0     H81272   5.033   3.587   1.548  0.3083  1.4876 -3.2479
  589MOL0     H81273   4.865   3.652   1.537  0.0858 -3.0070 -0.5185
  589MOL0     H81274   5.067   3.738   1.738 -0.8332  0.9989  2.0358
  589MOL0     H81275   4.901   3.793   1.727 -0.0988 -0.2944 -1.0231
  589MOL0     H81276   4.981   3.574   1.889  2.0506 -0.2552 -1.8958
  589MOL0     H81277   4.949   3.494   1.727  0.4495  0.3827 -0.5525
  589MOL0     H81278   4.553   3.607   1.840  0.9744 -0.2044  0.8217
  589MOL0     H81279   5.039   4.020   1.369 -0.7843  2.6772  1.0756
  589MOL0     H81280   5.161   4.211   1.112 -1.7288  0.9340 -0.4315
  589MOL0     H81281   5.018   4.176   1.207 -0.3046 -0.1221  0.9005
  589MOL0     H81282   5.128   4.315   1.253 -3.4722  1.2794 -1.3743
  590MOL0     O81283   1.469   5.647   8.264 -0.3780  0.5203 -0.0343
  590MOL0     C81284   1.438   5.526   8.261  0.5909  0.1861  0.6745
  590MOL0     O81285   1.518   5.421   8.242  0.0222  0.6613  0.2910
  590MOL0     C81286   1.651   5.445   8.240 -0.3168  0.0726 -0.2040
  590MOL0     C81287   1.721   5.362   8.156  0.0514 -0.1303 -0.3169
  590MOL0     C81288   1.859   5.377   8.129  0.3025 -0.0677 -0.0625
  590MOL0     C81289   1.932   5.469   8.208  1.1257 -0.6962  0.8710
  590MOL0     O81290   2.066   5.445   8.188 -0.0598 -0.3333 -0.1155
  590MOL0     C81291   2.144   5.471   8.307  0.9302  0.2727  0.3607
  590MOL0     C81292   2.292   5.449   8.284 -0.7090 -0.0579  0.3045
  590MOL0     C81293   2.380   5.490   8.395  0.1257  0.6116  0.5796
  590MOL0     C81294   2.534   5.481   8.372 -0.7049  0.1907 -0.1754
  590MOL0     C81295   2.605   5.545   8.490 -0.3478 -0.0967 -0.1682
  590MOL0     C81296   2.603   5.472   8.616  0.5565 -0.0151 -0.1976
  590MOL0     C81297   2.714   5.360   8.626  0.2127 -0.1099  1.0265
  590MOL0     C81298   2.851   5.411   8.661 -0.2839  0.5999 -0.0764
  590MOL0     N81299   2.911   5.477   8.546  0.1522  0.6798  0.0802
  590MOL0     C81300   2.980   5.597   8.556 -0.1504 -0.6401 -0.2481
  590MOL0     C81301   3.055   5.608   8.445  0.2217 -0.1820  0.5936
  590MOL0     C81302   3.140   5.730   8.419  0.0146  0.7527 -0.1353
  590MOL0     C81303   3.061   5.821   8.329 -0.6061  0.4107  0.1203
  590MOL0     C81304   3.063   5.751   8.187  0.1281  0.9134 -0.4021
  590MOL0     C81305   3.052   5.852   8.071 -0.7300  0.2997 -0.5085
  590MOL0     O81306   3.107   5.981   8.096 -0.9286 -0.4280  0.4364
  590MOL0     C81307   3.248   6.005   8.100  0.4573 -0.4474  0.3014
  590MOL0     C81308   3.345   5.918   8.051  0.3322  0.8081 -0.6769
  590MOL0     C81309   3.482   5.956   8.061  0.1117  0.4246 -0.5651
  590MOL0     C81310   3.583   5.864   8.004  0.4283  0.2557 -0.1853
  590MOL0     C81311   3.520   6.083   8.118 -0.0604  0.1719  0.7097
  590MOL0     C81312   3.659   6.131   8.130 -0.1489 -0.1973  0.5214
  590MOL0     O81313   3.755   6.042   8.161  0.2557 -0.7034  0.6420
  590MOL0     C81314   3.883   6.089   8.152 -0.2573 -0.2109 -0.7306
  590MOL0     C81315   3.950   6.085   8.276  0.1040 -0.7478 -0.2162
  590MOL0     C81316   4.083   6.123   8.281 -0.5658  0.5482  0.2635
  590MOL0     C81317   4.152   6.155   8.167  1.0039 -0.8942  0.0536
  590MOL0     O81318   4.282   6.198   8.185  0.0392 -1.0587  0.4569
  590MOL0     C81319   4.361   6.237   8.071 -0.2250  0.9607 -0.4426
  590MOL0     C81320   4.509   6.254   8.109  0.4747 -0.4953 -0.4423
  590MOL0     C81321   4.524   6.378   8.208  0.2097 -0.0383 -0.1814
  590MOL0     C81322   4.669   6.401   8.246 -0.0926 -0.7448 -0.5900
  590MOL0     C81323   4.687   6.529   8.334 -0.0598  0.7807 -0.7343
  590MOL0     C81324   4.830   6.552   8.395  1.1463 -0.2901  0.3514
  590MOL0     C81325   4.933   6.585   8.292 -0.0779  0.2086 -1.0128
  590MOL0     C81326   5.074   6.623   8.348  0.8148  0.2586  0.1429
  590MOL0    Cl81327   5.167   6.681   8.209  0.3291  0.0100 -0.4931
  590MOL0     C81328   4.086   6.162   8.048 -0.1631  0.5063  1.1289
  590MOL0     C81329   3.947   6.123   8.039 -0.8869  0.7168  0.1781
  590MOL0     O81330   3.676   6.253   8.131  0.7272  0.0627  0.0278
  590MOL0     C81331   3.419   6.162   8.170  0.6016 -0.0416 -0.9498
  590MOL0     C81332   3.287   6.126   8.165 -0.2785  1.0506  0.8555
  590MOL0     N81333   3.047   5.488   8.372  0.0779  0.1654  0.2968
  590MOL0     N81334   2.954   5.418   8.434  0.2843  0.5998 -0.0890
  590MOL0     C81335   1.870   5.550   8.299  0.9769  0.0933 -0.1793
  590MOL0     C81336   1.730   5.540   8.315 -0.3856  0.3704  0.1941
  590MOL0     C81337   1.296   5.501   8.286 -0.2466 -0.9570  0.0271
  590MOL0     C81338   1.207   5.554   8.203  0.9395  0.9844  0.1184
  590MOL0     C81339   1.073   5.517   8.220  0.0516  0.2690 -0.3631
  590MOL0     C81340   1.029   5.453   8.334  0.3480 -0.4952  1.1236
  590MOL0     O81341   0.893   5.460   8.351  0.5176  0.2443 -0.1836
  590MOL0     C81342   0.837   5.429   8.482 -0.3170  0.3667 -0.3063
  590MOL0     C81343   0.688   5.433   8.499 -0.5712 -0.2309  0.3009
  590MOL0     C81344   0.640   5.580   8.505 -0.7119  0.2965  0.5725
  590MOL0     C81345   0.486   5.598   8.493 -0.4222  0.5757  0.3953
  590MOL0     C81346   0.428   5.565   8.357  0.1145 -0.2431  0.8060
  590MOL0     C81347   0.364   5.522   8.260  0.5953  0.3758  0.2543
  590MOL0     C81348   1.122   5.405   8.425  0.5010 -0.4005  0.1702
  590MOL0     C81349   1.255   5.425   8.398  0.3644 -0.0381  0.3215
  590MOL0     C81350   1.348   5.344   8.484  0.5737  0.7846  0.4336
  590MOL0     H81351   1.665   5.287   8.101  0.5648  1.0634 -2.6228
  590MOL0     H81352   1.913   5.314   8.059  0.3993  0.9035 -0.8792
  590MOL0     H81353   2.114   5.407   8.390  0.1285  2.4703  1.8400
  590MOL0     H81354   2.128   5.577   8.324 -1.7560 -0.1836  1.0371
  590MOL0     H81355   2.318   5.346   8.258 -0.4688  0.1864 -0.4750
  590MOL0     H81356   2.323   5.510   8.198  0.5637  0.7852  1.3191
  590MOL0     H81357   2.354   5.590   8.431 -2.4014 -0.1818  1.1172
  590MOL0     H81358   2.355   5.426   8.480  0.3825  1.0736  1.0171
  590MOL0     H81359   2.579   5.384   8.352  2.5810  2.1211 -3.5334
  590MOL0     H81360   2.560   5.543   8.286 -0.0476  2.5824  1.6198
  590MOL0     H81361   2.547   5.636   8.512  0.3811  0.4929 -0.6511
  590MOL0     H81362   2.702   5.588   8.465 -0.6630  1.3212  0.8770
  590MOL0     H81363   2.609   5.532   8.708 -3.0050 -4.7737  3.6670
  590MOL0     H81364   2.505   5.428   8.637  0.2647  1.2225  1.2128
  590MOL0     H81365   2.714   5.303   8.533 -1.5704  1.2126  0.1541
  590MOL0     H81366   2.686   5.288   8.704 -2.3026  0.6911  0.9512
  590MOL0     H81367   2.849   5.471   8.753  0.0211 -1.2175  1.1945
  590MOL0     H81368   2.915   5.325   8.686 -0.6380 -0.3400 -2.1714
  590MOL0     H81369   2.980   5.678   8.628  2.7384  2.2261 -3.1299
  590MOL0     H81370   3.236   5.702   8.376  0.3478 -1.2014  1.6844
  590MOL0     H81371   3.159   5.780   8.514  1.3043  2.0694 -1.0561
  590MOL0     H81372   2.957   5.835   8.360 -1.0474 -1.5910 -0.3107
  590MOL0     H81373   3.120   5.912   8.321 -2.7957  1.7327 -2.4846
  590MOL0     H81374   3.145   5.680   8.172  0.3749  0.9740  0.5881
  590MOL0     H81375   2.977   5.684   8.181  2.1088 -1.6771 -1.7281
  590MOL0     H81376   3.102   5.807   7.985  0.4227  1.5096 -0.5097
  590MOL0     H81377   2.947   5.865   8.042 -1.0702  0.9787  0.9222
  590MOL0     H81378   3.326   5.824   7.999 -0.0319 -1.8303  3.7217
  590MOL0     H81379   3.646   5.912   7.928  0.9154 -1.9992 -1.2908
  590MOL0     H81380   3.535   5.781   7.951 -1.1924  1.1438 -0.1587
  590MOL0     H81381   3.654   5.824   8.077  0.9491  1.6328  0.0874
  590MOL0     H81382   3.894   6.047   8.361  1.8122 -2.3600  0.2486
  590MOL0     H81383   4.135   6.113   8.376  2.4607 -4.8505 -1.4991
  590MOL0     H81384   4.347   6.157   7.997 -0.8029  0.9440 -0.3205
  590MOL0     H81385   4.320   6.328   8.026 -2.2689 -0.6992 -2.2060
  590MOL0     H81386   4.546   6.164   8.160 -1.6967 -2.6544 -2.4533
  590MOL0     H81387   4.565   6.269   8.016 -1.6699  1.6432 -1.4952
  590MOL0     H81388   4.460   6.360   8.296 -1.1337  0.8134 -0.9527
  590MOL0     H81389   4.473   6.467   8.170 -2.9845 -1.3421  0.6721
  590MOL0     H81390   4.736   6.428   8.163  0.4124  4.4895  1.1506
  590MOL0     H81391   4.714   6.316   8.298  3.6914  0.8834 -0.8736
  590MOL0     H81392   4.647   6.616   8.282 -1.6483  1.3382  1.2918
  590MOL0     H81393   4.632   6.510   8.426  1.2802 -2.4799 -0.4471
  590MOL0     H81394   4.865   6.467   8.454  2.7973  0.2258  0.1612
  590MOL0     H81395   4.814   6.638   8.460  0.5097  0.8402 -1.2259
  590MOL0     H81396   4.901   6.655   8.215  3.3478 -0.4861 -3.2882
  590MOL0     H81397   4.946   6.488   8.243  1.7222  0.8325 -1.8714
  590MOL0     H81398   5.119   6.538   8.401  2.9113 -0.2284 -2.2072
  590MOL0     H81399   5.070   6.698   8.427  0.3269  0.7917 -0.3789
  590MOL0     H81400   4.126   6.189   7.951  0.4605 -0.2915  1.1551
  590MOL0     H81401   3.892   6.109   7.946  0.0949 -1.9346 -0.0895
  590MOL0     H81402   3.436   6.247   8.236 -0.7608 -2.2393  2.5333
  590MOL0     H81403   3.219   6.200   8.205 -0.5219  1.1982  0.1776
  590MOL0     H81404   1.919   5.620   8.365 -0.2115 -0.2145  1.0710
  590MOL0     H81405   1.679   5.606   8.385 -0.7396 -0.4797  0.7502
  590MOL0     H81406   1.239   5.611   8.117  3.8731 -0.7277 -0.0413
  590MOL0     H81407   0.999   5.559   8.153 -0.5670  1.6130  1.1009
  590MOL0     H81408   0.869   5.328   8.510 -1.9438 -0.2780 -0.6559
  590MOL0     H81409   0.885   5.500   8.551  1.6798 -0.8395 -0.3876
  590MOL0     H81410   0.668   5.386   8.596 -0.3880  0.9177  0.9099
  590MOL0     H81411   0.637   5.377   8.420 -1.7598 -0.0290  0.8955
  590MOL0     H81412   0.676   5.615   8.602  0.3983 -0.6762  0.5466
  590MOL0     H81413   0.688   5.628   8.420  0.4419 -3.9430 -1.4803
  590MOL0     H81414   0.468   5.704   8.513  2.4302  2.0578 -3.5584
  590MOL0     H81415   0.436   5.525   8.557 -0.4205  0.1925 -0.0319
  590MOL0     H81416   0.317   5.479   8.174 -0.1631 -3.4658  2.3716
  590MOL0     H81417   1.092   5.356   8.517  3.0654 -1.5451  0.4841
  590MOL0     H81418   1.362   5.399   8.577  0.4765  1.9680 -0.2350
  590MOL0     H81419   1.299   5.248   8.504  0.9645  0.1465 -1.4548
  590MOL0     H81420   1.448   5.325   8.445  1.1143  0.8049  1.7641
  591MOL0     O81421   6.686   7.493   5.343  0.4132 -0.0767 -1.0158
  591MOL0     C81422   6.615   7.422   5.280  0.6071  0.2308 -0.5841
  591MOL0     O81423   6.640   7.357   5.165 -0.2953 -0.1528 -0.6702
  591MOL0     C81424   6.759   7.376   5.097  0.2292 -0.8880 -0.5426
  591MOL0     C81425   6.818   7.500   5.080  0.4349 -0.5095  0.3234
  591MOL0     C81426   6.930   7.516   5.002  0.1864 -0.0095 -0.1849
  591MOL0     C81427   6.996   7.410   4.937  0.0743 -0.5046  0.1240
  591MOL0     O81428   7.114   7.399   4.870  0.1134 -0.0622 -0.0643
  591MOL0     C81429   7.219   7.441   4.961 -0.1229  0.1546  0.5816
  591MOL0     C81430   7.350   7.373   4.918 -0.4221 -1.3735  0.3484
  591MOL0     C81431   7.461   7.389   5.025 -0.3885  1.1803 -0.3954
  591MOL0     C81432   7.564   7.279   5.018  0.2115 -0.2910 -0.2897
  591MOL0     C81433   7.674   7.299   5.125 -0.8879 -0.5381 -0.1939
  591MOL0     C81434   7.773   7.412   5.087  0.1373 -0.3927  1.0966
  591MOL0     C81435   7.901   7.435   5.177  0.4309 -0.0839 -0.6544
  591MOL0     C81436   8.011   7.334   5.153 -0.3068 -0.7545  0.3814
  591MOL0     N81437   8.146   7.364   5.223  0.1895 -0.3774  0.2660
  591MOL0     C81438   8.231   7.463   5.186  0.1859 -0.5934 -0.3339
  591MOL0     C81439   8.312   7.479   5.292  0.5398 -0.0555  0.0390
  591MOL0     C81440   8.436   7.553   5.328 -0.0349  0.4742 -0.2891
  591MOL0     C81441   8.430   7.705   5.301 -0.1881  0.8557  0.5025
  591MOL0     C81442   8.490   7.791   5.414 -0.6090  0.2119 -0.3388
  591MOL0     C81443   8.626   7.755   5.471  0.8873 -0.4004  0.1108
  591MOL0     O81444   8.735   7.757   5.367  0.3072 -0.9338 -0.0135
  591MOL0     C81445   8.860   7.733   5.416 -0.1732 -0.3392  0.1818
  591MOL0     C81446   8.964   7.775   5.338 -0.0867 -0.2750 -0.4610
  591MOL0     C81447   9.097   7.757   5.381  0.5097  0.3520  0.3320
  591MOL0     C81448   9.191   7.830   5.300  1.1929  0.2710  0.1286
  591MOL0     C81449   9.124   7.676   5.497  0.5666  0.8242 -0.4206
  591MOL0     C81450   9.258   7.645   5.547  0.1136 -0.6148  0.6315
  591MOL0     O81451   9.276   7.590   5.667  0.1620 -0.1369  0.4438
  591MOL0     C81452   9.399   7.559   5.725 -0.9488  0.6976  0.0112
  591MOL0     C81453   9.428   7.424   5.767 -0.2357  0.6727 -0.2455
  591MOL0     C81454   9.559   7.390   5.802 -0.7407  0.5492 -0.5988
  591MOL0     C81455   9.661   7.487   5.797 -0.3114  0.5605  0.5394
  591MOL0     O81456   9.792   7.465   5.823 -0.7967  0.3120 -0.1374
  591MOL0     C81457   9.847   7.334   5.800  0.5607  0.3453  0.2263
  591MOL0     C81458   9.988   7.359   5.757  0.3973 -0.4085 -0.3959
  591MOL0     C81459  10.054   7.228   5.738  1.0390  0.2780 -0.1072
  591MOL0     C81460  10.205   7.244   5.711  0.1778  0.5361  0.1687
  591MOL0     C81461  10.279   7.311   5.824 -0.0068 -0.0978 -0.4047
  591MOL0     C81462  10.421   7.322   5.777  0.4171  0.1832 -0.0938
  591MOL0     C81463  10.462   7.443   5.687  0.1638 -0.3183  0.1201
  591MOL0     C81464  10.524   7.386   5.564 -0.2126  0.4677 -0.0300
  591MOL0    Cl81465  10.678   7.288   5.598  0.1386  0.3496  0.0846
  591MOL0     C81466   9.626   7.611   5.759  0.2933 -0.8761  0.2098
  591MOL0     C81467   9.500   7.652   5.726 -0.2280 -0.5044  0.1249
  591MOL0     O81468   9.356   7.678   5.473 -0.5078 -0.3400 -0.4186
  591MOL0     C81469   9.013   7.631   5.571  1.1896 -0.6575  0.3306
  591MOL0     C81470   8.881   7.654   5.527  0.1109  0.0414 -0.4997
  591MOL0     N81471   8.271   7.394   5.395 -0.4619  0.2775  0.7967
  591MOL0     N81472   8.169   7.327   5.353 -0.3929 -0.1431 -0.3496
  591MOL0     C81473   6.923   7.286   4.948 -0.3928 -0.1984 -0.1001
  591MOL0     C81474   6.809   7.268   5.025  0.4608  0.7310  0.5062
  591MOL0     C81475   6.472   7.391   5.324 -0.3884 -0.0576  0.2337
  591MOL0     C81476   6.411   7.275   5.274 -0.3070  1.0667  1.0140
  591MOL0     C81477   6.280   7.237   5.308  0.2263 -0.6627  0.2366
  591MOL0     C81478   6.197   7.322   5.386  0.7135 -0.4217  0.5562
  591MOL0     O81479   6.065   7.294   5.419  0.0999  0.2820 -0.5653
  591MOL0     C81480   5.972   7.216   5.342  0.3098 -0.0920 -0.0916
  591MOL0     C81481   5.825   7.234   5.387 -0.0012  0.3389  0.2088
  591MOL0     C81482   5.736   7.114   5.364 -0.3444  0.8795 -0.1370
  591MOL0     C81483   5.590   7.143   5.332  0.3645 -0.0459  0.7054
  591MOL0     C81484   5.570   7.205   5.201 -0.3453 -0.9240  0.0421
  591MOL0     C81485   5.544   7.245   5.092  0.2396 -0.5161  0.3275
  591MOL0     C81486   6.259   7.437   5.438  0.5995  0.3886 -0.1050
  591MOL0     C81487   6.395   7.463   5.417  0.0893 -0.6031  0.2277
  591MOL0     C81488   6.439   7.588   5.483  0.0983  0.0692 -0.1150
  591MOL0     H81489   6.787   7.595   5.122  0.1522 -0.8936  1.0121
  591MOL0     H81490   6.978   7.613   4.992  2.0372 -1.0118 -1.8647
  591MOL0     H81491   7.204   7.408   5.064 -1.4265 -0.1734  0.3089
  591MOL0     H81492   7.242   7.548   4.954  3.6125 -0.5610 -0.2500
  591MOL0     H81493   7.328   7.266   4.916 -1.7883 -1.1314  0.7336
  591MOL0     H81494   7.381   7.398   4.817 -1.0714 -0.3194  0.3913
  591MOL0     H81495   7.501   7.491   5.018 -4.1685  2.9821  1.5799
  591MOL0     H81496   7.412   7.390   5.122 -1.2365  1.2189 -0.8202
  591MOL0     H81497   7.518   7.180   5.030  1.0956 -0.5808  0.9354
  591MOL0     H81498   7.614   7.281   4.921  2.1516  1.8109  0.6868
  591MOL0     H81499   7.736   7.210   5.134  2.9950  1.8422 -0.8063
  591MOL0     H81500   7.625   7.326   5.219 -0.9457 -0.2259 -0.3107
  591MOL0     H81501   7.810   7.384   4.987  1.2280 -1.1763  1.6852
  591MOL0     H81502   7.718   7.504   5.069  0.1444 -0.7027 -0.7894
  591MOL0     H81503   7.866   7.428   5.280 -0.5568 -0.8271 -1.0206
  591MOL0     H81504   7.939   7.536   5.159 -1.8858  0.9445 -0.2365
  591MOL0     H81505   7.983   7.235   5.190 -2.3589  0.2519  1.7188
  591MOL0     H81506   8.038   7.328   5.047  0.9209  0.5555  0.5869
  591MOL0     H81507   8.236   7.511   5.089  1.0118 -2.2457 -1.1370
  591MOL0     H81508   8.527   7.509   5.285 -0.6461 -0.7563 -0.3713
  591MOL0     H81509   8.461   7.532   5.433 -1.0468 -2.9844 -0.6027
  591MOL0     H81510   8.480   7.724   5.205 -1.0091 -2.1899 -0.6345
  591MOL0     H81511   8.330   7.748   5.290 -0.2550  0.6502  0.2988
  591MOL0     H81512   8.489   7.896   5.382  3.8651  1.1289  1.8146
  591MOL0     H81513   8.418   7.793   5.496  0.6586 -1.1988  0.8663
  591MOL0     H81514   8.650   7.814   5.560 -0.2270  0.6171 -0.2391
  591MOL0     H81515   8.622   7.654   5.512  1.7322  0.5011  2.6044
  591MOL0     H81516   8.936   7.842   5.257  1.1185 -0.4817 -1.0662
  591MOL0     H81517   9.253   7.758   5.246  0.9905 -0.9254  1.4281
  591MOL0     H81518   9.256   7.897   5.358  0.9125 -0.4759  1.3343
  591MOL0     H81519   9.145   7.887   5.218 -0.3417 -2.1253 -0.7971
  591MOL0     H81520   9.339   7.362   5.777 -0.7463  1.4965  0.4007
  591MOL0     H81521   9.583   7.294   5.846 -0.9553  0.9327  0.3780
  591MOL0     H81522   9.844   7.278   5.894 -0.1870  0.7019  0.4288
  591MOL0     H81523   9.798   7.270   5.726  0.9371  0.3833 -0.0577
  591MOL0     H81524   9.990   7.422   5.668  0.9397  2.4494  1.4904
  591MOL0     H81525  10.042   7.413   5.835  1.6736 -2.1406 -0.0259
  591MOL0     H81526  10.010   7.186   5.647  2.0613 -1.8472  0.3203
  591MOL0     H81527  10.036   7.160   5.822 -2.9677  2.6382  1.2572
  591MOL0     H81528  10.213   7.308   5.623 -1.8694  1.5079  0.6321
  591MOL0     H81529  10.241   7.144   5.686 -1.6586  0.6421 -3.7959
  591MOL0     H81530  10.239   7.409   5.852 -0.0283 -0.9275  2.8960
  591MOL0     H81531  10.263   7.252   5.915  0.2159  0.3389 -0.0780
  591MOL0     H81532  10.444   7.220   5.743 -0.6519 -1.0571  2.6620
  591MOL0     H81533  10.481   7.322   5.868  0.3973 -0.3352 -0.0800
  591MOL0     H81534  10.535   7.501   5.743  1.5406 -2.0275  0.1890
  591MOL0     H81535  10.373   7.504   5.668 -1.1672 -1.7878  1.2882
  591MOL0     H81536  10.552   7.461   5.489 -1.6920  0.7880 -0.2917
  591MOL0     H81537  10.450   7.323   5.513  1.2285 -0.7735 -0.6742
  591MOL0     H81538   9.703   7.684   5.737 -0.8307  0.4782  0.6472
  591MOL0     H81539   9.485   7.754   5.694  0.8966 -0.7717 -1.3694
  591MOL0     H81540   9.027   7.582   5.667  1.7902 -2.1936 -0.5053
  591MOL0     H81541   8.807   7.611   5.594  0.3459 -0.0958 -0.3277
  591MOL0     H81542   6.961   7.202   4.890  1.0841  0.9947 -0.9351
  591MOL0     H81543   6.773   7.165   5.027  2.4455 -0.0308  2.6592
  591MOL0     H81544   6.460   7.199   5.215  1.4656  0.3080  3.2949
  591MOL0     H81545   6.253   7.136   5.280  0.1425 -0.1200 -1.7998
  591MOL0     H81546   5.990   7.229   5.235  2.6314  0.4719  0.3161
  591MOL0     H81547   6.000   7.113   5.370 -0.5973 -0.2644  0.2262
  591MOL0     H81548   5.794   7.325   5.334 -0.0656 -0.2890 -0.8575
  591MOL0     H81549   5.812   7.248   5.495  2.4342 -1.9296  0.8894
  591MOL0     H81550   5.775   7.064   5.274  3.6936  1.2083  1.2029
  591MOL0     H81551   5.728   7.044   5.447 -0.7589  1.6686  0.4937
  591MOL0     H81552   5.549   7.212   5.406  0.7773  2.6206 -1.3785
  591MOL0     H81553   5.528   7.054   5.330  0.1904  0.0737  0.7504
  591MOL0     H81554   5.526   7.288   4.996  0.7185 -4.0093 -1.5251
  591MOL0     H81555   6.196   7.480   5.515 -0.3517 -2.3285  0.7498
  591MOL0     H81556   6.523   7.572   5.552  0.4145 -0.4678 -0.6033
  591MOL0     H81557   6.478   7.643   5.397  2.2486 -2.9057 -1.2329
  591MOL0     H81558   6.359   7.644   5.531  1.5938  0.8749  1.5499
  592MOL0     O81559   8.365   6.055  11.377  0.4451  0.6864 -0.3360
  592MOL0     C81560   8.304   6.073  11.481  0.4436  0.5718 -0.2070
  592MOL0     O81561   8.359   6.061  11.602 -0.0846  0.2601  0.1301
  592MOL0     C81562   8.486   6.016  11.621 -0.1282  0.1486  0.9815
  592MOL0     C81563   8.600   6.039  11.539  0.2827 -0.1805  0.3772
  592MOL0     C81564   8.729   6.004  11.584 -0.4188  0.6579  0.4106
  592MOL0     C81565   8.744   5.916  11.692  0.2852 -0.2365 -0.5130
  592MOL0     O81566   8.867   5.859  11.718  0.3171  0.0246 -0.1592
  592MOL0     C81567   8.963   5.841  11.614 -0.7001 -1.4230 -0.1546
  592MOL0     C81568   9.107   5.802  11.654  0.4284  0.9645 -0.4788
  592MOL0     C81569   9.181   5.906  11.730  0.1555  0.2234 -0.0894
  592MOL0     C81570   9.290   5.970  11.643  0.8017 -0.0339  0.2199
  592MOL0     C81571   9.364   6.087  11.714  0.8033 -0.2624  0.3450
  592MOL0     C81572   9.478   6.154  11.635  0.1599 -0.5667 -0.0838
  592MOL0     C81573   9.421   6.236  11.523  0.1341  0.5452 -0.1186
  592MOL0     C81574   9.526   6.307  11.434  0.5437  0.3123 -0.6354
  592MOL0     N81575   9.460   6.392  11.339 -0.0737 -0.6560  0.0608
  592MOL0     C81576   9.377   6.343  11.241 -0.3206  0.4862 -0.5103
  592MOL0     C81577   9.346   6.444  11.158  0.4705  0.1315 -0.9918
  592MOL0     C81578   9.277   6.431  11.024  0.1621  0.1584 -0.4876
  592MOL0     C81579   9.385   6.454  10.923  0.1541  0.3518  0.7638
  592MOL0     C81580   9.339   6.479  10.775 -0.4010 -0.3305  0.6189
  592MOL0     C81581   9.431   6.570  10.692  0.4166 -0.0626  0.0154
  592MOL0     O81582   9.562   6.516  10.677  0.1230  0.2010  0.3331
  592MOL0     C81583   9.685   6.583  10.707  0.1568  0.7315 -0.5999
  592MOL0     C81584   9.689   6.718  10.729  0.1463 -0.2085  0.2020
  592MOL0     C81585   9.811   6.783  10.748  0.1278 -0.6801 -0.0885
  592MOL0     C81586   9.806   6.933  10.768 -0.4669 -0.5181 -0.2522
  592MOL0     C81587   9.931   6.713  10.746 -0.3679  0.0600 -0.6208
  592MOL0     C81588  10.067   6.772  10.781  1.1257 -0.0586  0.5094
  592MOL0     O81589  10.174   6.727  10.716  0.3369  0.9454  0.0068
  592MOL0     C81590  10.309   6.759  10.748 -0.1332  0.0483  0.3477
  592MOL0     C81591  10.366   6.679  10.849  0.2706  0.1726  0.3530
  592MOL0     C81592  10.493   6.704  10.899 -0.4201  0.1111  0.0553
  592MOL0     C81593  10.564   6.809  10.840  0.8128 -0.5689  0.0366
  592MOL0     O81594  10.699   6.835  10.868  0.4226  0.0468 -0.3882
  592MOL0     C81595  10.774   6.730  10.936 -0.3300 -0.4706 -0.9278
  592MOL0     C81596  10.925   6.751  10.923  0.3047 -0.2953  0.7655
  592MOL0     C81597  10.989   6.885  10.968 -0.2984 -0.9244 -0.2415
  592MOL0     C81598  11.141   6.886  10.969  0.2858 -0.1045  0.6823
  592MOL0     C81599  11.215   6.883  10.839  0.0297  0.6832 -0.6449
  592MOL0     C81600  11.359   6.861  10.866 -1.2209  0.6057  0.8405
  592MOL0     C81601  11.441   6.838  10.735  0.5226  0.2222 -0.6872
  592MOL0     C81602  11.590   6.811  10.760  0.3229  0.5596  1.2388
  592MOL0    Cl81603  11.655   6.962  10.816 -0.3663  0.0757  0.0090
  592MOL0     C81604  10.510   6.887  10.740 -0.2064  0.0540 -0.0474
  592MOL0     C81605  10.378   6.863  10.692 -0.7168  0.8006  0.3065
  592MOL0     O81606  10.067   6.864  10.861  0.1081  0.7906 -0.0697
  592MOL0     C81607   9.922   6.573  10.723 -0.0802  0.5562  0.6975
  592MOL0     C81608   9.802   6.511  10.706 -0.7635  0.3636  0.0753
  592MOL0     N81609   9.397   6.551  11.223  0.2758 -0.3303  0.0456
  592MOL0     N81610   9.466   6.527  11.326  0.6641 -0.0248  0.3067
  592MOL0     C81611   8.632   5.886  11.767 -0.2766 -0.5422  0.0991
  592MOL0     C81612   8.507   5.943  11.733 -0.2405 -0.2653  0.6781
  592MOL0     C81613   8.178   6.153  11.476 -0.1181  0.2489 -0.1887
  592MOL0     C81614   8.160   6.247  11.577 -0.7744  0.1282  0.5369
  592MOL0     C81615   8.040   6.323  11.590 -0.2824  0.7469  0.2988
  592MOL0     C81616   7.931   6.307  11.503 -0.3125 -0.1562  0.1208
  592MOL0     O81617   7.821   6.384  11.510 -0.0976 -0.7227  0.0617
  592MOL0     C81618   7.833   6.520  11.572 -0.5627  0.7844  0.7452
  592MOL0     C81619   7.716   6.603  11.513 -0.2202  0.3309  0.1929
  592MOL0     C81620   7.728   6.601  11.359  0.3307  0.3631  0.0872
  592MOL0     C81621   7.677   6.728  11.299 -0.1617 -0.4056  0.4417
  592MOL0     C81622   7.541   6.760  11.348  0.4761  0.0642  0.9970
  592MOL0     C81623   7.423   6.753  11.366  0.7005  0.1969 -1.1931
  592MOL0     C81624   7.941   6.214  11.405  0.3541  0.0949  0.0898
  592MOL0     C81625   8.069   6.143  11.385 -0.1897  0.6262 -0.1085
  592MOL0     C81626   8.077   6.037  11.273  0.0304 -0.2135  0.2790
  592MOL0     H81627   8.594   6.088  11.443 -0.7398  0.3510  0.6956
  592MOL0     H81628   8.814   6.039  11.527  0.1790 -0.1351  0.7826
  592MOL0     H81629   8.979   5.934  11.559 -0.8129 -3.1011 -3.2114
  592MOL0     H81630   8.922   5.774  11.538  0.8983 -0.1762 -2.2189
  592MOL0     H81631   9.099   5.712  11.715 -0.0304 -0.6341 -2.7842
  592MOL0     H81632   9.165   5.767  11.568 -0.6460 -0.0574 -0.8226
  592MOL0     H81633   9.114   5.977  11.779 -2.1388 -1.6874 -0.2794
  592MOL0     H81634   9.248   5.868  11.808 -0.0480  1.5750  0.7786
  592MOL0     H81635   9.354   5.887  11.612  1.5603  0.8712 -0.7478
  592MOL0     H81636   9.253   6.003  11.546 -0.8144 -0.9216  0.5082
  592MOL0     H81637   9.402   6.049  11.809  2.4655  1.3408  0.3691
  592MOL0     H81638   9.300   6.173  11.739  1.0564  0.6089 -1.7960
  592MOL0     H81639   9.521   6.224  11.708 -1.1034  1.2755 -1.0270
  592MOL0     H81640   9.547   6.075  11.604 -1.9114 -3.1838  1.5472
  592MOL0     H81641   9.351   6.303  11.573  2.1740  1.4109  1.7544
  592MOL0     H81642   9.362   6.172  11.457 -1.5923  2.8059 -0.8856
  592MOL0     H81643   9.587   6.370  11.499 -0.9094 -0.6658  1.8384
  592MOL0     H81644   9.591   6.231  11.389  0.1154  1.3225 -3.1076
  592MOL0     H81645   9.348   6.240  11.224 -0.6831  0.4202  0.4496
  592MOL0     H81646   9.199   6.508  11.018 -0.6787 -0.4644  1.5685
  592MOL0     H81647   9.222   6.339  11.003  0.5750 -0.2543  0.1847
  592MOL0     H81648   9.445   6.541  10.953  1.8697 -1.0366  1.5633
  592MOL0     H81649   9.446   6.363  10.912 -2.1201 -1.1757  0.0551
  592MOL0     H81650   9.328   6.386  10.718 -0.6434  0.0143  0.0919
  592MOL0     H81651   9.239   6.524  10.776 -0.1491  0.2312  2.0002
  592MOL0     H81652   9.397   6.591  10.590  2.1809  1.6917 -0.2701
  592MOL0     H81653   9.439   6.662  10.751 -0.1580 -0.9892  1.6002
  592MOL0     H81654   9.602   6.782  10.734  0.6494  0.6723 -1.5163
  592MOL0     H81655   9.713   6.976  10.729 -0.0463 -0.2951 -1.0111
  592MOL0     H81656   9.883   6.967  10.699 -1.0121 -1.1799 -1.2047
  592MOL0     H81657   9.818   6.976  10.868 -1.3283 -1.9005  0.4912
  592MOL0     H81658  10.310   6.596  10.890  0.8553 -0.7769 -0.6879
  592MOL0     H81659  10.534   6.646  10.982 -1.9206 -2.1261 -0.6710
  592MOL0     H81660  10.758   6.733  11.044  2.0008 -0.1241 -0.5382
  592MOL0     H81661  10.742   6.635  10.892 -2.4229  0.6910 -2.0702
  592MOL0     H81662  10.989   6.671  10.960 -2.5096 -2.5357  1.1811
  592MOL0     H81663  10.934   6.743  10.814 -2.8318 -0.1868  0.4015
  592MOL0     H81664  10.954   6.912  11.068 -1.1881 -0.2217 -0.7212
  592MOL0     H81665  10.962   6.969  10.902  1.7650 -0.9938 -1.2575
  592MOL0     H81666  11.169   6.796  11.024 -1.5653 -1.0353  0.2137
  592MOL0     H81667  11.175   6.976  11.020 -0.4528  2.2711 -2.6544
  592MOL0     H81668  11.185   6.798  10.777 -0.2524 -0.6905  1.2872
  592MOL0     H81669  11.200   6.979  10.789 -0.9650  1.9926  1.9869
  592MOL0     H81670  11.369   6.773  10.929 -5.1725 -0.2617  0.4690
  592MOL0     H81671  11.397   6.950  10.918 -0.6827  2.0884 -1.8427
  592MOL0     H81672  11.436   6.938  10.692 -3.7648  0.2539 -0.5042
  592MOL0     H81673  11.395   6.764  10.669  0.7931 -0.6541  0.0602
  592MOL0     H81674  11.630   6.775  10.665 -3.9627  1.3191 -1.1400
  592MOL0     H81675  11.610   6.734  10.835 -1.6150 -1.6406 -0.3684
  592MOL0     H81676  10.556   6.964  10.678 -3.0198  0.5676 -1.6736
  592MOL0     H81677  10.334   6.930  10.619  0.1913  2.5160  1.2790
  592MOL0     H81678  10.022   6.530  10.718  1.1948  3.0224  2.5051
  592MOL0     H81679   9.795   6.406  10.678  0.1200  1.0373 -3.0440
  592MOL0     H81680   8.648   5.833  11.861 -1.1819 -0.9898  0.0087
  592MOL0     H81681   8.420   5.920  11.793 -0.6111  0.2525  0.3465
  592MOL0     H81682   8.249   6.271  11.633  2.1788 -1.0309 -3.2255
  592MOL0     H81683   8.047   6.394  11.671  0.2615  1.7674 -0.6181
  592MOL0     H81684   7.824   6.528  11.680 -0.8631 -0.3432  0.8191
  592MOL0     H81685   7.924   6.572  11.540  0.5540 -1.5089 -0.0556
  592MOL0     H81686   7.721   6.706  11.549  0.2404  0.9767 -1.5989
  592MOL0     H81687   7.631   6.547  11.552  0.5097 -0.3078  0.8895
  592MOL0     H81688   7.829   6.582  11.322 -0.3108 -0.8799 -1.0798
  592MOL0     H81689   7.665   6.518  11.326 -0.1613  0.3753  0.9694
  592MOL0     H81690   7.677   6.702  11.193 -0.9062 -0.7785  0.5283
  592MOL0     H81691   7.739   6.817  11.315 -3.0286  1.5698  1.3647
  592MOL0     H81692   7.319   6.749  11.392  1.2132 -2.4124  0.8295
  592MOL0     H81693   7.855   6.202  11.340  0.5156  3.7816 -1.0520
  592MOL0     H81694   7.975   5.999  11.256 -1.0561  2.4616  0.3814
  592MOL0     H81695   8.094   6.100  11.186  0.5205  2.2028  2.0189
  592MOL0     H81696   8.153   5.962  11.296  2.6823  1.8325 -1.2957
  593MOL0     O81697   0.234   7.652   9.532  0.3496  0.4852  0.0243
  593MOL0     C81698   0.226   7.599   9.643  0.3013 -0.1363 -0.7039
  593MOL0     O81699   0.330   7.550   9.708  0.0629 -0.4331 -0.9108
  593MOL0     C81700   0.459   7.571   9.666 -0.1567 -0.4415 -0.5236
  593MOL0     C81701   0.540   7.628   9.762  0.4059  0.7701  0.0218
  593MOL0     C81702   0.672   7.660   9.729  0.6969 -0.0609  0.1448
  593MOL0     C81703   0.727   7.608   9.614  0.8870 -0.2080 -0.4624
  593MOL0     O81704   0.860   7.630   9.603 -0.1476  0.7669 -0.0146
  593MOL0     C81705   0.927   7.516   9.555  0.1807 -0.2607 -0.0272
  593MOL0     C81706   1.053   7.481   9.634 -0.3946  0.5476 -0.4390
  593MOL0     C81707   1.044   7.353   9.723  0.1415  0.5808  0.0087
  593MOL0     C81708   0.925   7.358   9.828 -0.5026 -0.5166  0.8836
  593MOL0     C81709   0.965   7.392   9.969 -0.1622 -0.7032  0.5154
  593MOL0     C81710   0.863   7.341  10.082 -0.1670 -0.3312  0.0442
  593MOL0     C81711   0.908   7.387  10.221  0.1851  0.2252  0.2490
  593MOL0     C81712   0.825   7.328  10.329  0.3837  0.1917  0.2221
  593MOL0     N81713   0.846   7.378  10.463  0.1548  0.7470  0.0814
  593MOL0     C81714   0.957   7.330  10.540  0.3983  0.1273 -0.7206
  593MOL0     C81715   0.953   7.419  10.643  0.0010  0.4953 -0.5621
  593MOL0     C81716   1.050   7.423  10.756 -0.3275  0.2087  0.7449
  593MOL0     C81717   1.194   7.475  10.721  1.1553 -0.8770 -0.3421
  593MOL0     C81718   1.304   7.375  10.752 -0.9797 -0.0502 -0.3186
  593MOL0     C81719   1.442   7.428  10.706 -0.8794 -0.7691 -0.9350
  593MOL0     O81720   1.537   7.323  10.750  0.0691  0.8156 -0.5310
  593MOL0     C81721   1.669   7.348  10.740 -0.0202  0.8033 -0.1256
  593MOL0     C81722   1.726   7.471  10.741  0.4501 -0.3618  0.6914
  593MOL0     C81723   1.867   7.499  10.749  1.0489  0.9752 -0.1474
  593MOL0     C81724   1.918   7.641  10.756  0.6781 -0.8851  0.3907
  593MOL0     C81725   1.953   7.382  10.740 -0.1464 -0.2568 -0.6436
  593MOL0     C81726   2.093   7.401  10.752  0.0536  0.2894  0.2890
  593MOL0     O81727   2.153   7.434  10.873 -0.2622  0.2166  0.6709
  593MOL0     C81728   2.283   7.472  10.861  0.1868 -0.2822 -0.3223
  593MOL0     C81729   2.308   7.608  10.822 -0.5835 -0.0547 -0.3938
  593MOL0     C81730   2.441   7.655  10.797  0.1405  0.3596  0.5399
  593MOL0     C81731   2.553   7.576  10.812  0.2956  1.0485  0.3391
  593MOL0     O81732   2.675   7.628  10.802 -0.9722  0.4375 -0.4138
  593MOL0     C81733   2.768   7.572  10.885 -0.3830 -0.2233 -0.1627
  593MOL0     C81734   2.870   7.681  10.939  0.2399 -0.3856  0.2006
  593MOL0     C81735   2.973   7.723  10.838  0.3837 -0.1226  0.1019
  593MOL0     C81736   3.067   7.831  10.900 -0.6720  0.0782 -0.7296
  593MOL0     C81737   3.152   7.883  10.780 -0.4026 -0.3147 -0.2554
  593MOL0     C81738   3.287   7.949  10.823  0.5592  0.4772  0.2500
  593MOL0     C81739   3.376   7.851  10.906 -0.4920 -0.5785  0.1025
  593MOL0     C81740   3.516   7.884  10.884  0.0303 -0.0887  1.2938
  593MOL0    Cl81741   3.620   7.804  11.006  0.1514 -0.0053  0.0988
  593MOL0     C81742   2.519   7.443  10.845 -1.0165 -0.0797 -0.3682
  593MOL0     C81743   2.394   7.391  10.877  1.0507  0.7496 -0.5816
  593MOL0     O81744   2.151   7.390  10.644 -0.1849  0.2985 -0.0437
  593MOL0     C81745   1.895   7.252  10.728  0.0808 -0.0796 -0.4754
  593MOL0     C81746   1.754   7.235  10.733  0.1134 -0.1644 -0.3799
  593MOL0     N81747   0.849   7.508  10.635  0.5051 -0.1684 -1.2761
  593MOL0     N81748   0.788   7.480  10.525 -0.5879 -0.7084  0.9735
  593MOL0     C81749   0.644   7.541   9.523  0.2670  0.5247 -0.0902
  593MOL0     C81750   0.510   7.517   9.548  0.4242 -0.7625  0.3608
  593MOL0     C81751   0.099   7.591   9.704  0.4145 -0.6099 -0.3813
  593MOL0     C81752  -0.017   7.608   9.622  0.1956 -0.3864  0.3284
  593MOL0     C81753  -0.151   7.601   9.677  0.0105  0.1372  0.3568
  593MOL0     C81754  -0.172   7.589   9.816 -0.4187 -0.0417  0.5716
  593MOL0     O81755  -0.291   7.592   9.871 -0.0604  0.4079 -0.0152
  593MOL0     C81756  -0.415   7.631   9.803 -0.3335 -0.4588  0.0282
  593MOL0     C81757  -0.538   7.621   9.899  0.6083 -0.0649  0.3082
  593MOL0     C81758  -0.672   7.625   9.825  0.2289  0.2453  0.2317
  593MOL0     C81759  -0.790   7.650   9.918 -0.2555 -0.1943  0.6383
  593MOL0     C81760  -0.922   7.622   9.853  0.7763 -0.5522 -0.5162
  593MOL0     C81761  -1.034   7.599   9.800  0.0656 -0.4457 -0.0314
  593MOL0     C81762  -0.054   7.578   9.894 -0.2694 -0.6617 -0.4967
  593MOL0     C81763   0.079   7.585   9.846  1.0778 -0.4094  0.4687
  593MOL0     C81764   0.186   7.591   9.944  0.3733  0.2502  0.9802
  593MOL0     H81765   0.494   7.654   9.857 -1.2893  1.9064 -1.0470
  593MOL0     H81766   0.731   7.696   9.813  0.5624  0.0156  0.2062
  593MOL0     H81767   0.952   7.541   9.451 -2.3841  0.1682 -0.6022
  593MOL0     H81768   0.860   7.430   9.551  1.3533 -1.1724 -0.6395
  593MOL0     H81769   1.135   7.466   9.563  1.1087 -0.4368  1.3943
  593MOL0     H81770   1.081   7.563   9.701  0.7913  1.5533 -2.0778
  593MOL0     H81771   1.023   7.273   9.652  0.4558  0.8799 -0.4267
  593MOL0     H81772   1.141   7.318   9.759 -0.2769 -2.3009 -1.3647
  593MOL0     H81773   0.832   7.407   9.798 -1.5248 -1.2982  2.6283
  593MOL0     H81774   0.893   7.253   9.831 -1.0951 -0.4134 -0.8349
  593MOL0     H81775   0.964   7.501   9.978  1.1635 -0.5264 -0.9967
  593MOL0     H81776   1.065   7.356   9.990  1.1226  1.1005 -1.8722
  593MOL0     H81777   0.760   7.375  10.065 -0.0535  0.9840  1.6575
  593MOL0     H81778   0.870   7.233  10.096  0.2317 -0.0741  2.1614
  593MOL0     H81779   0.896   7.496  10.215  1.4601  0.3694  0.0007
  593MOL0     H81780   1.014   7.362  10.238 -0.0718 -1.9085 -1.0474
  593MOL0     H81781   0.723   7.361  10.310  0.5468  1.0646  0.7819
  593MOL0     H81782   0.833   7.219  10.326  0.3026  0.1762  0.6407
  593MOL0     H81783   1.026   7.247  10.529 -0.3608 -0.6918  0.5858
  593MOL0     H81784   1.056   7.321  10.796 -0.5783  0.1534  0.6463
  593MOL0     H81785   1.025   7.497  10.832  1.3738  1.3759  0.2246
  593MOL0     H81786   1.184   7.508  10.618  1.7327 -0.1162 -0.1605
  593MOL0     H81787   1.219   7.565  10.778  0.9670 -0.3052 -1.1579
  593MOL0     H81788   1.309   7.365  10.861 -1.1357 -1.1395 -0.3973
  593MOL0     H81789   1.286   7.278  10.704  0.3263 -1.2348  1.4666
  593MOL0     H81790   1.446   7.443  10.598 -1.4385  4.3556 -0.5054
  593MOL0     H81791   1.455   7.527  10.750 -1.3671 -0.2018 -2.0373
  593MOL0     H81792   1.666   7.561  10.729 -1.6224 -1.8729 -1.2310
  593MOL0     H81793   2.002   7.650  10.826  0.0493  0.0632  1.0602
  593MOL0     H81794   1.835   7.709  10.778  1.6291  0.1503  0.9058
  593MOL0     H81795   1.953   7.681  10.661  0.5590 -0.9419  0.3224
  593MOL0     H81796   2.222   7.674  10.816 -1.0589 -0.4576  1.4288
  593MOL0     H81797   2.426   7.759  10.770 -1.8527 -0.1673 -0.5802
  593MOL0     H81798   2.721   7.523  10.971 -2.7060  1.7998 -0.1610
  593MOL0     H81799   2.831   7.501  10.831 -0.7251 -0.0408 -0.8145
  593MOL0     H81800   2.817   7.772  10.965  0.7465  1.3172 -3.9311
  593MOL0     H81801   2.922   7.640  11.026 -1.4785 -3.0214  0.1293
  593MOL0     H81802   2.924   7.763  10.749  1.7156 -1.2508 -1.1996
  593MOL0     H81803   3.035   7.638  10.808  4.4291  1.6731  2.5691
  593MOL0     H81804   3.135   7.772  10.962 -0.5428  0.7437 -0.2243
  593MOL0     H81805   3.019   7.914  10.952  0.7318 -0.2146  1.1471
  593MOL0     H81806   3.186   7.796  10.724 -0.9808 -0.8341  0.1841
  593MOL0     H81807   3.086   7.950  10.723 -2.1406  0.7441  2.7778
  593MOL0     H81808   3.274   8.036  10.888  0.5698  0.1839  0.6424
  593MOL0     H81809   3.339   7.996  10.739 -1.8140  4.4778  0.7839
  593MOL0     H81810   3.363   7.746  10.880 -0.5523 -2.1929  5.3886
  593MOL0     H81811   3.357   7.862  11.014 -0.3903  1.0807 -0.0252
  593MOL0     H81812   3.553   7.985  10.902 -2.2647  0.9223  0.6549
  593MOL0     H81813   3.548   7.855  10.784 -0.3954  1.4697  0.6800
  593MOL0     H81814   2.605   7.378  10.858 -1.3884 -0.2027  1.8252
  593MOL0     H81815   2.375   7.292  10.917  1.9749  0.0198 -1.8788
  593MOL0     H81816   1.959   7.165  10.725 -0.2659 -0.4692  1.6058
  593MOL0     H81817   1.705   7.138  10.726  0.3143 -0.1442 -2.6338
  593MOL0     H81818   0.683   7.504   9.428 -1.0587  0.9649 -0.8342
  593MOL0     H81819   0.447   7.464   9.477  2.4917 -2.7343 -0.1189
  593MOL0     H81820  -0.004   7.631   9.517 -1.1284  1.4334  0.5166
  593MOL0     H81821  -0.234   7.622   9.610  0.0585 -1.4845 -0.2532
  593MOL0     H81822  -0.409   7.738   9.778  0.2640 -0.4220  0.3059
  593MOL0     H81823  -0.434   7.570   9.715 -1.6997  0.9098 -0.6713
  593MOL0     H81824  -0.535   7.700   9.975 -0.6882  0.6847 -0.3862
  593MOL0     H81825  -0.527   7.523   9.946 -0.0930 -1.2197 -1.8293
  593MOL0     H81826  -0.669   7.699   9.744  0.6705 -0.5813 -0.5307
  593MOL0     H81827  -0.695   7.535   9.767 -1.0002  1.4268 -1.1891
  593MOL0     H81828  -0.787   7.752   9.957  3.3499 -0.8730  2.5912
  593MOL0     H81829  -0.791   7.580  10.003  2.4056 -0.6867  0.3318
  593MOL0     H81830  -1.129   7.576   9.757  0.5797 -1.9312 -0.4433
  593MOL0     H81831  -0.067   7.567  10.001 -3.1512  0.5052 -0.6486
  593MOL0     H81832   0.237   7.494   9.938 -1.9083 -1.1511  2.4512
  593MOL0     H81833   0.259   7.668   9.917  0.4148  1.0944  3.2428
  593MOL0     H81834   0.149   7.619  10.044 -0.7320  3.9200 -0.3112
  594MOL0     O81835   6.842   2.872   1.264  0.2296  0.5157 -0.1413
  594MOL0     C81836   6.796   2.776   1.197 -0.7516  0.0586 -0.2107
  594MOL0     O81837   6.861   2.727   1.095 -0.2398 -0.3616  1.1161
  594MOL0     C81838   6.986   2.770   1.048 -0.0800 -0.4135 -0.2611
  594MOL0     C81839   7.031   2.903   1.056  0.6350  0.2955  0.3911
  594MOL0     C81840   7.154   2.947   1.013  0.8176  0.2228 -1.1382
  594MOL0     C81841   7.237   2.860   0.952  0.0178  0.4669  0.2542
  594MOL0     O81842   7.356   2.912   0.919  0.8772  0.3368 -0.0724
  594MOL0     C81843   7.383   2.915   0.782 -0.3666  0.4094  0.3959
  594MOL0     C81844   7.484   3.017   0.781 -0.9783 -0.8024  0.3533
  594MOL0     C81845   7.503   3.074   0.638 -0.7064  0.8846 -0.2051
  594MOL0     C81846   7.611   3.185   0.644  0.1857  0.6349 -0.4161
  594MOL0     C81847   7.655   3.233   0.506 -0.0255 -0.3344 -0.6087
  594MOL0     C81848   7.772   3.344   0.512  0.5717 -0.7402 -0.1565
  594MOL0     C81849   7.890   3.312   0.604 -1.4250  0.1981 -0.9290
  594MOL0     C81850   7.986   3.428   0.602  0.5704 -0.8872  0.4121
  594MOL0     N81851   8.116   3.393   0.660  0.1609 -0.2137 -0.8618
  594MOL0     C81852   8.236   3.353   0.600  0.3572 -0.2829  0.1552
  594MOL0     C81853   8.330   3.340   0.703  0.1776 -0.2219  0.5283
  594MOL0     C81854   8.465   3.301   0.681  0.6355  0.2702  0.6117
  594MOL0     C81855   8.559   3.418   0.648 -0.0348 -0.5654  0.7939
  594MOL0     C81856   8.666   3.380   0.544 -0.9185 -0.2759 -0.3997
  594MOL0     C81857   8.754   3.257   0.572  0.0120  0.1654 -0.2726
  594MOL0     O81858   8.840   3.287   0.685  0.1902 -0.3196  0.9374
  594MOL0     C81859   8.962   3.355   0.670 -0.2678 -0.7002  0.2413
  594MOL0     C81860   9.006   3.412   0.543 -0.6993 -0.6444 -0.4988
  594MOL0     C81861   9.143   3.456   0.524 -0.3360  0.4461  0.0937
  594MOL0     C81862   9.160   3.507   0.386  0.6170 -0.4969  0.0735
  594MOL0     C81863   9.239   3.435   0.630 -0.1250 -0.2808  0.5058
  594MOL0     C81864   9.386   3.458   0.619 -0.1852 -0.4684  0.3347
  594MOL0     O81865   9.453   3.446   0.739  0.6369  0.0311 -0.2880
  594MOL0     C81866   9.586   3.493   0.747  0.5605  0.5762 -0.2844
  594MOL0     C81867   9.690   3.428   0.681 -0.5817 -1.1036  0.5258
  594MOL0     C81868   9.824   3.474   0.715 -0.0503 -0.3157  0.7783
  594MOL0     C81869   9.843   3.574   0.812 -0.6458 -0.1018 -0.1600
  594MOL0     O81870   9.981   3.594   0.847 -0.0861  0.2669 -0.1351
  594MOL0     C81871  10.000   3.686   0.952 -0.1359 -0.1731 -0.7767
  594MOL0     C81872  10.146   3.694   1.007 -0.0107 -0.6442 -0.4547
  594MOL0     C81873  10.203   3.552   1.038 -0.0358  0.3197 -0.1333
  594MOL0     C81874  10.102   3.460   1.104  0.2179  0.0379 -0.1310
  594MOL0     C81875  10.155   3.322   1.146  0.0835  0.2598 -0.3855
  594MOL0     C81876  10.042   3.252   1.223  0.1012 -0.1350 -0.1521
  594MOL0     C81877  10.089   3.112   1.263 -0.2756  0.0730 -0.2932
  594MOL0     C81878   9.975   3.056   1.352 -0.1658  0.3892 -0.1153
  594MOL0    Cl81879  10.022   2.891   1.404 -0.5440 -0.1558  0.5258
  594MOL0     C81880   9.733   3.641   0.864 -0.9148 -0.8996 -0.1931
  594MOL0     C81881   9.607   3.598   0.835 -0.0422  0.4909  0.3972
  594MOL0     O81882   9.437   3.476   0.507  0.2579 -0.2097  0.1001
  594MOL0     C81883   9.186   3.393   0.758  0.0937  0.7782  0.3963
  594MOL0     C81884   9.048   3.364   0.779  0.1423 -0.2422  0.4276
  594MOL0     N81885   8.268   3.392   0.817  0.0863  0.2593 -0.4058
  594MOL0     N81886   8.143   3.411   0.794  0.2860  0.2761  0.3784
  594MOL0     C81887   7.201   2.726   0.938  0.3810  0.9493 -0.2182
  594MOL0     C81888   7.076   2.676   0.988 -0.6642  0.8886 -0.2731
  594MOL0     C81889   6.690   2.688   1.262  0.1097 -0.1226 -0.4046
  594MOL0     C81890   6.640   2.579   1.192  0.8992 -0.0614 -0.5309
  594MOL0     C81891   6.521   2.512   1.236 -1.2720 -0.0910  0.4541
  594MOL0     C81892   6.466   2.540   1.356 -0.2600  0.1064 -0.4520
  594MOL0     O81893   6.364   2.459   1.401 -0.0316  0.6339  1.4845
  594MOL0     C81894   6.318   2.477   1.536 -0.0203  0.0277  0.7366
  594MOL0     C81895   6.201   2.374   1.551  0.8796 -0.2791  0.9814
  594MOL0     C81896   6.076   2.423   1.481 -0.2422 -1.3333 -0.7634
  594MOL0     C81897   5.974   2.323   1.469 -1.0836  0.0223  0.6046
  594MOL0     C81898   5.878   2.325   1.576 -0.3471  0.7939 -0.5718
  594MOL0     C81899   5.803   2.352   1.667  0.8584  0.6218  0.4397
  594MOL0     C81900   6.517   2.650   1.435  0.1854 -0.3636 -0.3072
  594MOL0     C81901   6.626   2.726   1.385  0.8792  0.4090  0.3256
  594MOL0     C81902   6.674   2.841   1.478 -0.4179  0.1077  0.7066
  594MOL0     H81903   6.960   2.969   1.104 -0.1831 -0.0209 -0.3659
  594MOL0     H81904   7.176   3.052   1.002 -2.7360  1.3328  0.6391
  594MOL0     H81905   7.297   2.945   0.722  0.5497  1.6754 -0.3139
  594MOL0     H81906   7.422   2.821   0.742 -0.9802  0.7025 -0.9371
  594MOL0     H81907   7.440   3.104   0.830  1.0379 -0.0143  0.9025
  594MOL0     H81908   7.577   2.979   0.824  0.8807 -0.0973 -2.7021
  594MOL0     H81909   7.540   2.995   0.573 -2.6855 -0.2133 -0.0674
  594MOL0     H81910   7.406   3.118   0.613 -2.2009 -1.2110  1.5282
  594MOL0     H81911   7.583   3.276   0.696  2.7410  0.1521  2.0273
  594MOL0     H81912   7.702   3.154   0.695  0.6258  4.7101  1.6081
  594MOL0     H81913   7.562   3.270   0.462  0.7902 -0.8082 -2.8564
  594MOL0     H81914   7.689   3.143   0.453  0.6929 -0.7900  0.5778
  594MOL0     H81915   7.815   3.360   0.412  2.3467  2.8533  1.0212
  594MOL0     H81916   7.717   3.431   0.548  1.3100  0.1130 -1.0352
  594MOL0     H81917   7.930   3.221   0.558 -5.1116 -1.3903 -1.3021
  594MOL0     H81918   7.861   3.282   0.705 -0.8187 -2.0834 -1.3759
  594MOL0     H81919   8.009   3.473   0.505 -2.5191  0.8914  0.3746
  594MOL0     H81920   7.943   3.505   0.667 -0.5693 -3.2893  2.7038
  594MOL0     H81921   8.260   3.320   0.499  0.6148 -1.0010  0.4454
  594MOL0     H81922   8.468   3.229   0.598  0.4473  2.2703 -1.2171
  594MOL0     H81923   8.513   3.251   0.766  0.1184  1.6614  1.7492
  594MOL0     H81924   8.509   3.510   0.618  1.1677  0.2723  1.3156
  594MOL0     H81925   8.613   3.445   0.740 -0.8871 -0.3056  1.2288
  594MOL0     H81926   8.616   3.361   0.449 -0.6989 -1.0097 -0.3688
  594MOL0     H81927   8.722   3.471   0.521 -3.6874  1.7402  0.2509
  594MOL0     H81928   8.690   3.170   0.592  2.2457 -1.8607 -1.4508
  594MOL0     H81929   8.809   3.231   0.481 -1.4978 -1.1668 -0.8466
  594MOL0     H81930   8.938   3.413   0.459 -0.4348  0.7586 -0.7080
  594MOL0     H81931   9.067   3.546   0.343  0.8390 -1.9996 -1.8802
  594MOL0     H81932   9.181   3.425   0.317 -1.2863  0.1892 -1.4055
  594MOL0     H81933   9.231   3.590   0.385 -0.2940  0.4807  3.3752
  594MOL0     H81934   9.664   3.341   0.622 -0.1900  0.7190 -2.5106
  594MOL0     H81935   9.907   3.418   0.672  2.2457  1.2249  2.9445
  594MOL0     H81936   9.969   3.783   0.912 -1.4671  0.2515  1.1589
  594MOL0     H81937   9.930   3.660   1.031  0.6444 -4.4457 -1.2318
  594MOL0     H81938  10.215   3.736   0.933  0.1585 -2.3001 -1.2873
  594MOL0     H81939  10.143   3.749   1.102 -0.6007 -0.2442 -0.7048
  594MOL0     H81940  10.292   3.566   1.099 -0.8170  1.3105  0.8234
  594MOL0     H81941  10.241   3.513   0.943  0.6573  0.7019 -0.0186
  594MOL0     H81942  10.027   3.443   1.026  3.0303 -0.8339 -2.8491
  594MOL0     H81943  10.070   3.520   1.190  0.7081  0.5406 -0.2957
  594MOL0     H81944  10.170   3.268   1.052  0.2728 -0.6306  0.1474
  594MOL0     H81945  10.253   3.324   1.194  0.5679 -0.8058 -1.2746
  594MOL0     H81946   9.953   3.257   1.160 -1.2019 -3.2111  1.2455
  594MOL0     H81947  10.021   3.305   1.317  0.2931  0.6627 -0.5511
  594MOL0     H81948  10.185   3.114   1.316  0.0516 -2.1477 -0.7153
  594MOL0     H81949  10.113   3.048   1.177  0.7022 -1.5311  1.0952
  594MOL0     H81950   9.878   3.045   1.303 -0.1899 -0.0754  0.0228
  594MOL0     H81951   9.966   3.125   1.436  0.1275  2.1560 -1.4959
  594MOL0     H81952   9.737   3.726   0.930 -1.5203 -1.9794  1.2808
  594MOL0     H81953   9.527   3.651   0.886  1.9986 -0.1062  4.5695
  594MOL0     H81954   9.245   3.394   0.849 -0.3170 -1.0724  0.7227
  594MOL0     H81955   9.004   3.341   0.876 -1.1499  1.0089  0.1807
  594MOL0     H81956   7.278   2.667   0.890  0.6621  0.6565  0.5763
  594MOL0     H81957   7.047   2.571   0.982 -2.1879  1.3100 -0.7076
  594MOL0     H81958   6.667   2.552   1.090 -1.6818 -1.6020 -0.8950
  594MOL0     H81959   6.481   2.418   1.200  0.7762 -0.6539 -0.5496
  594MOL0     H81960   6.397   2.458   1.610  0.2526 -1.6122  0.0627
  594MOL0     H81961   6.288   2.582   1.547  2.0304  1.0719 -2.3534
  594MOL0     H81962   6.182   2.350   1.656  1.5842 -0.6698  1.0236
  594MOL0     H81963   6.235   2.280   1.507 -0.9416 -1.0297  1.0750
  594MOL0     H81964   6.037   2.514   1.529  0.2736 -1.5315  0.0540
  594MOL0     H81965   6.103   2.450   1.379  0.6836  0.9966  0.0284
  594MOL0     H81966   6.023   2.226   1.453  3.2634  1.8673  1.3483
  594MOL0     H81967   5.919   2.341   1.376  1.1477  1.7363 -0.4689
  594MOL0     H81968   5.750   2.370   1.758  0.3210 -1.0126  0.4770
  594MOL0     H81969   6.476   2.672   1.533  2.7599 -2.3835  1.3678
  594MOL0     H81970   6.657   2.937   1.428 -0.5338 -1.5217 -2.6297
  594MOL0     H81971   6.613   2.848   1.569  0.4168 -1.0862  1.3772
  594MOL0     H81972   6.779   2.833   1.508  0.6914  2.4684 -2.0230
  595MOL0     O81973   7.670   2.720   9.136  0.1044  0.2467 -0.1193
  595MOL0     C81974   7.592   2.711   9.236 -0.7434 -0.8069  0.0853
  595MOL0     O81975   7.634   2.717   9.374 -0.1472 -0.4650  1.0205
  595MOL0     C81976   7.765   2.720   9.396 -0.4492 -0.3875 -0.5801
  595MOL0     C81977   7.813   2.836   9.454  0.1189  0.0867  1.0615
  595MOL0     C81978   7.951   2.856   9.481 -0.3001  0.7366 -0.8873
  595MOL0     C81979   8.026   2.740   9.465 -0.3978  0.6482 -0.1962
  595MOL0     O81980   8.157   2.727   9.502 -1.0927 -0.2059 -0.3683
  595MOL0     C81981   8.189   2.792   9.624  1.0151  0.4810 -1.0026
  595MOL0     C81982   8.192   2.678   9.723 -0.3158  0.4142 -0.4754
  595MOL0     C81983   8.241   2.700   9.871  0.0800 -0.4317 -0.2649
  595MOL0     C81984   8.265   2.565   9.951 -0.4592  0.2603  0.2080
  595MOL0     C81985   8.291   2.596  10.104 -0.3960 -0.1990  0.2754
  595MOL0     C81986   8.444   2.629  10.108 -0.2541 -0.2284 -0.0758
  595MOL0     C81987   8.483   2.651  10.251  0.0363  0.1847 -0.1958
  595MOL0     C81988   8.487   2.515  10.339  1.0939  0.3099  0.6835
  595MOL0     N81989   8.601   2.505  10.420  0.2198 -0.8253 -0.1034
  595MOL0     C81990   8.725   2.531  10.374  0.3069  0.0334  0.0031
  595MOL0     C81991   8.804   2.484  10.482  0.3406 -0.0736  0.5705
  595MOL0     C81992   8.953   2.511  10.490 -0.0580  0.2800 -0.5806
  595MOL0     C81993   9.012   2.478  10.629  0.0803 -0.0496 -0.5448
  595MOL0     C81994   8.998   2.587  10.736 -0.0751 -0.6762 -0.1820
  595MOL0     C81995   9.006   2.532  10.880 -0.0483  0.1314  0.1573
  595MOL0     O81996   9.035   2.635  10.969  0.6624  0.1126  0.0610
  595MOL0     C81997   9.168   2.655  10.994  0.2213  0.4777 -0.4757
  595MOL0     C81998   9.231   2.765  10.956  0.7494  0.2371 -1.6510
  595MOL0     C81999   9.368   2.788  10.977  0.1595 -0.2450 -0.8567
  595MOL0     C82000   9.434   2.918  10.932 -0.6169 -0.2400 -0.0942
  595MOL0     C82001   9.448   2.691  11.051  0.3915  0.0221  0.3028
  595MOL0     C82002   9.598   2.705  11.078  0.2708  0.4043  0.0405
  595MOL0     O82003   9.641   2.641  11.184  0.1591  0.0157  0.8241
  595MOL0     C82004   9.774   2.633  11.197 -0.7786  0.6469  0.3763
  595MOL0     C82005   9.872   2.602  11.093  0.3577 -0.0016 -0.7950
  595MOL0     C82006  10.002   2.570  11.129 -0.1516  0.8816 -0.1643
  595MOL0     C82007  10.046   2.579  11.263 -0.2997  0.6622  0.2601
  595MOL0     O82008  10.175   2.554  11.304  0.5768  0.0170  0.0669
  595MOL0     C82009  10.282   2.571  11.213 -0.1075 -0.3645 -0.4957
  595MOL0     C82010  10.421   2.535  11.274 -0.7161 -0.0483  0.6482
  595MOL0     C82011  10.460   2.628  11.389 -0.6586  0.1851  0.1202
  595MOL0     C82012  10.609   2.604  11.427 -0.2235 -0.3225  0.2641
  595MOL0     C82013  10.641   2.668  11.564 -0.2461 -0.5933  0.0588
  595MOL0     C82014  10.767   2.615  11.617 -0.2391  0.1641  0.0392
  595MOL0     C82015  10.793   2.670  11.761  0.3205 -0.0124  0.6281
  595MOL0     C82016  10.932   2.610  11.799  0.1268  0.5413 -0.6565
  595MOL0    Cl82017  11.064   2.681  11.708 -0.0739  0.1244 -0.0067
  595MOL0     C82018   9.951   2.624  11.354 -1.1775 -0.2300  0.5611
  595MOL0     C82019   9.822   2.643  11.323 -0.1750  0.0271 -0.7559
  595MOL0     O82020   9.668   2.787  11.014 -0.2461  0.5274 -0.5674
  595MOL0     C82021   9.373   2.568  11.090  0.2558 -0.1541 -0.2048
  595MOL0     C82022   9.238   2.556  11.062  0.6192 -0.4340  0.0089
  595MOL0     N82023   8.728   2.406  10.559 -0.1853  0.4498 -0.6202
  595MOL0     N82024   8.601   2.423  10.527 -0.5921  0.6426  0.1676
  595MOL0     C82025   7.984   2.623   9.404  0.3465  0.6252 -0.0050
  595MOL0     C82026   7.849   2.605   9.373 -0.2749 -0.7198  0.4676
  595MOL0     C82027   7.452   2.698   9.213  0.7654  0.1115 -0.8852
  595MOL0     C82028   7.401   2.760   9.100  0.1241 -0.1454  0.2341
  595MOL0     C82029   7.265   2.757   9.073  1.0718  0.7638  0.3033
  595MOL0     C82030   7.173   2.682   9.152 -0.0837 -0.3439 -0.2435
  595MOL0     O82031   7.033   2.666   9.112 -0.0211 -0.3302  0.0176
  595MOL0     C82032   6.934   2.607   9.201 -0.5636  0.2349  0.0565
  595MOL0     C82033   6.909   2.710   9.310  0.1868  0.1775 -0.7386
  595MOL0     C82034   6.775   2.684   9.388  0.2733 -0.4334 -1.0351
  595MOL0     C82035   6.774   2.786   9.506  0.1845 -0.0848 -0.2825
  595MOL0     C82036   6.645   2.781   9.576  0.3715  0.5355 -0.2158
  595MOL0     C82037   6.539   2.757   9.631  0.5149 -0.5286 -0.0053
  595MOL0     C82038   7.225   2.618   9.270  0.6199  0.1946 -0.9970
  595MOL0     C82039   7.362   2.631   9.306  0.5461 -0.2275  0.2259
  595MOL0     C82040   7.397   2.564   9.426 -0.4880  1.2190 -0.7509
  595MOL0     H82041   7.739   2.907   9.489  0.0320  1.5322 -1.7780
  595MOL0     H82042   7.994   2.946   9.523  1.6416 -0.0416 -1.0856
  595MOL0     H82043   8.132   2.880   9.654  2.5507  1.1883 -0.0603
  595MOL0     H82044   8.287   2.837   9.611  1.0030  0.9954  0.4838
  595MOL0     H82045   8.089   2.641   9.717 -0.2724  0.5575 -4.1344
  595MOL0     H82046   8.262   2.599   9.693  0.7920  1.6399 -1.2509
  595MOL0     H82047   8.338   2.750   9.873  0.2850 -0.4289 -3.6956
  595MOL0     H82048   8.167   2.768   9.913 -0.6891  1.5627 -4.3771
  595MOL0     H82049   8.171   2.508   9.943 -1.1414  1.1583  1.4826
  595MOL0     H82050   8.350   2.522   9.898  0.3404  0.9817  0.8794
  595MOL0     H82051   8.273   2.515  10.174  0.0076  0.9759  1.7927
  595MOL0     H82052   8.235   2.684  10.136  2.1511  1.1682  1.2534
  595MOL0     H82053   8.503   2.553  10.057 -1.7673 -0.8480 -0.9893
  595MOL0     H82054   8.460   2.726  10.061 -1.1447 -0.1812 -0.2978
  595MOL0     H82055   8.405   2.714  10.297  0.6852  1.5777 -0.9443
  595MOL0     H82056   8.571   2.713  10.268 -1.7164  2.3418  1.9336
  595MOL0     H82057   8.394   2.503  10.396 -0.0448  2.6920 -0.5119
  595MOL0     H82058   8.487   2.434  10.266  0.2494  0.7894  0.1273
  595MOL0     H82059   8.761   2.594  10.293 -2.8811  0.1201 -1.4879
  595MOL0     H82060   8.980   2.617  10.482  1.1370  0.0058 -0.2485
  595MOL0     H82061   9.011   2.456  10.416  3.9774  2.2078  0.8929
  595MOL0     H82062   8.972   2.382  10.662 -2.0229  1.1274  0.6583
  595MOL0     H82063   9.119   2.464  10.616  0.1955  0.5498 -0.2986
  595MOL0     H82064   9.075   2.663  10.716 -3.3455  3.0177  0.1616
  595MOL0     H82065   8.899   2.633  10.730 -0.8014 -1.5554  3.1785
  595MOL0     H82066   8.910   2.483  10.904 -0.5833  0.0635 -1.9769
  595MOL0     H82067   9.084   2.456  10.887 -1.0062 -0.8629  0.4084
  595MOL0     H82068   9.159   2.830  10.908 -1.8975 -0.9407  0.4557
  595MOL0     H82069   9.357   2.972  10.877  1.6017  0.7699 -2.4151
  595MOL0     H82070   9.514   2.903  10.859 -2.3503  0.2071 -2.2131
  595MOL0     H82071   9.462   2.984  11.014 -0.4205 -0.1848 -0.2055
  595MOL0     H82072   9.831   2.602  10.992  1.0608  0.5799 -1.0912
  595MOL0     H82073  10.077   2.550  11.052  3.6242  2.1460  2.8321
  595MOL0     H82074  10.276   2.513  11.121  0.7424 -1.9830  0.4116
  595MOL0     H82075  10.286   2.676  11.186  2.7548 -1.2067 -4.1606
  595MOL0     H82076  10.425   2.434  11.317  0.2845  0.4762  1.8395
  595MOL0     H82077  10.493   2.538  11.191 -2.0989  2.2184 -0.5558
  595MOL0     H82078  10.395   2.630  11.477 -1.1692  2.7206 -0.2362
  595MOL0     H82079  10.450   2.728  11.346  1.4034 -0.0676 -1.0374
  595MOL0     H82080  10.676   2.639  11.348  1.1956 -2.0660  0.6396
  595MOL0     H82081  10.631   2.497  11.434  1.7552  0.0415  0.1671
  595MOL0     H82082  10.635   2.777  11.554 -4.2090 -0.2097  3.6033
  595MOL0     H82083  10.551   2.642  11.621  1.0497 -1.5917  1.7263
  595MOL0     H82084  10.851   2.625  11.548 -1.0146 -0.8610 -1.0898
  595MOL0     H82085  10.765   2.506  11.619 -0.1151  0.1596 -0.1583
  595MOL0     H82086  10.706   2.649  11.823 -1.1529  1.3188 -0.8916
  595MOL0     H82087  10.800   2.779  11.765 -0.1390 -0.0237  1.9402
  595MOL0     H82088  10.929   2.501  11.793 -0.4949  0.5209 -0.1596
  595MOL0     H82089  10.947   2.637  11.905  2.9645 -1.0203 -0.5677
  595MOL0     H82090   9.979   2.634  11.459  1.4424  1.5398 -0.2112
  595MOL0     H82091   9.756   2.673  11.405  0.1905 -1.6749  0.2110
  595MOL0     H82092   9.422   2.495  11.153 -0.5385 -0.1146  0.4769
  595MOL0     H82093   9.184   2.467  11.092  1.6956 -0.9440  0.4491
  595MOL0     H82094   8.052   2.539   9.392 -0.9609 -0.8478  2.1725
  595MOL0     H82095   7.817   2.510   9.332  0.1792 -0.3677 -0.7413
  595MOL0     H82096   7.460   2.814   9.027  1.7194  0.0969  1.6509
  595MOL0     H82097   7.241   2.800   8.976  0.8394 -1.2006 -0.5507
  595MOL0     H82098   6.845   2.577   9.145  0.0734  0.7172 -1.2418
  595MOL0     H82099   6.973   2.518   9.252  0.3110  0.8385  0.4538
  595MOL0     H82100   6.908   2.813   9.271  1.6619  0.8884  0.9678
  595MOL0     H82101   6.993   2.715   9.380 -1.7453  0.8448  1.6797
  595MOL0     H82102   6.691   2.703   9.321  0.7871 -2.6790 -2.4271
  595MOL0     H82103   6.764   2.581   9.425 -0.0472 -0.7925 -2.0935
  595MOL0     H82104   6.784   2.889   9.472  0.0430 -0.8071 -2.7064
  595MOL0     H82105   6.857   2.766   9.574 -0.1738 -4.2805 -0.7834
  595MOL0     H82106   6.437   2.751   9.665  0.3847  0.6359 -0.1515
  595MOL0     H82107   7.165   2.563   9.342 -1.0442  1.4821 -1.3492
  595MOL0     H82108   7.428   2.465   9.390 -3.0919  0.5859 -1.4926
  595MOL0     H82109   7.471   2.618   9.485  1.0172  1.0179 -2.3560
  595MOL0     H82110   7.319   2.542   9.499  0.1312 -1.5709 -0.7962
  596MOL0     O82111   8.156   9.955   7.031 -0.4045 -0.0255  0.0794
  596MOL0     C82112   8.146   9.873   6.941 -0.6611  0.4543 -0.0465
  596MOL0     O82113   8.253   9.804   6.887 -1.4478  0.1591 -0.4307
  596MOL0     C82114   8.375   9.818   6.955  0.6155  0.2485 -0.1162
  596MOL0     C82115   8.373   9.781   7.087 -0.3017 -0.0626 -0.6974
  596MOL0     C82116   8.482   9.799   7.167 -0.4395 -0.2412  0.4849
  596MOL0     C82117   8.610   9.830   7.104 -0.1761 -0.7897  0.6253
  596MOL0     O82118   8.725   9.841   7.179 -0.2314 -0.8525  0.0142
  596MOL0     C82119   8.726   9.804   7.312 -0.1266  1.0501 -0.4055
  596MOL0     C82120   8.876   9.776   7.351  1.3707 -0.8233 -0.1077
  596MOL0     C82121   8.957   9.680   7.268  0.4286  0.5096 -0.0458
  596MOL0     C82122   8.918   9.533   7.307  0.6071  0.3664  0.5240
  596MOL0     C82123   9.001   9.434   7.229  0.2230 -0.0193  0.5151
  596MOL0     C82124   8.981   9.291   7.282  0.1203 -0.4029 -0.4690
  596MOL0     C82125   9.017   9.198   7.177  0.6581 -0.3350 -0.1468
  596MOL0     C82126   9.164   9.157   7.153 -0.2354  0.1988 -0.3804
  596MOL0     N82127   9.233   9.080   7.267  0.1121  0.4354 -0.3381
  596MOL0     C82128   9.308   9.125   7.377 -0.2515 -0.2130 -0.3861
  596MOL0     C82129   9.357   9.007   7.444  0.1383  0.2282 -0.7564
  596MOL0     C82130   9.423   9.014   7.576 -0.2571 -0.3569  0.0431
  596MOL0     C82131   9.580   9.026   7.563  0.0318 -0.2606 -0.4823
  596MOL0     C82132   9.644   9.003   7.702 -0.5914  0.3351 -1.3293
  596MOL0     C82133   9.624   9.106   7.817 -0.1600 -0.0094  0.3358
  596MOL0     O82134   9.721   9.211   7.819 -0.1073 -0.9933 -0.6313
  596MOL0     C82135   9.842   9.194   7.895  0.0012  0.8799 -0.0034
  596MOL0     C82136   9.927   9.307   7.887  0.0753  0.4850 -0.1683
  596MOL0     C82137  10.056   9.298   7.949 -0.0240  0.4816 -0.7045
  596MOL0     C82138  10.134   9.431   7.936 -0.2633  0.5626 -0.7623
  596MOL0     C82139  10.088   9.188   8.032 -0.8495 -0.2394 -0.9950
  596MOL0     C82140  10.211   9.172   8.124  0.0616 -0.6139  0.3819
  596MOL0     O82141  10.250   9.055   8.185 -0.4227 -0.5817  0.6256
  596MOL0     C82142  10.362   9.041   8.263 -0.7448  0.1658 -0.2868
  596MOL0     C82143  10.498   9.071   8.229  0.5020  0.0348 -0.3889
  596MOL0     C82144  10.593   9.054   8.330 -0.9655  1.1700  0.2172
  596MOL0     C82145  10.567   8.996   8.448 -0.1658 -0.4835 -0.0279
  596MOL0     O82146  10.678   8.974   8.533  0.5279  0.3435 -0.5244
  596MOL0     C82147  10.663   9.015   8.671  0.3894 -0.6623  0.1291
  596MOL0     C82148  10.781   8.971   8.751 -0.0801 -0.0858  0.5256
  596MOL0     C82149  10.914   9.044   8.709 -0.1655  0.7680 -0.5601
  596MOL0     C82150  11.013   9.061   8.829  0.3758  0.0278 -0.6526
  596MOL0     C82151  11.132   9.162   8.796  0.4292  0.5101 -0.6987
  596MOL0     C82152  11.239   9.107   8.704  0.1370  0.3781  0.1256
  596MOL0     C82153  11.351   9.200   8.681  0.8976  0.4529  0.2711
  596MOL0     C82154  11.463   9.119   8.606  0.2348 -1.1172 -0.3316
  596MOL0    Cl82155  11.549   9.001   8.716 -0.0023 -0.6219  0.3511
  596MOL0     C82156  10.434   8.959   8.481 -0.4768  0.1472  0.2564
  596MOL0     C82157  10.337   8.984   8.389 -0.5304  0.0820  0.6558
  596MOL0     O82158  10.268   9.275   8.147  0.3835 -0.4216  0.2259
  596MOL0     C82159   9.990   9.085   8.049  0.4781  0.1535 -1.0446
  596MOL0     C82160   9.873   9.084   7.974 -0.5829  0.7133  0.4633
  596MOL0     N82161   9.297   8.903   7.376  0.5027  0.8265 -0.5068
  596MOL0     N82162   9.232   8.947   7.274  0.4182 -0.2158  0.3973
  596MOL0     C82163   8.613   9.840   6.962  0.1967 -0.0071 -0.4690
  596MOL0     C82164   8.494   9.840   6.892  0.1087  0.4351  0.1831
  596MOL0     C82165   8.010   9.864   6.879  0.2868 -1.0246 -0.4794
  596MOL0     C82166   8.001   9.849   6.736  0.7151  0.5857 -0.0330
  596MOL0     C82167   7.876   9.855   6.680  0.6976  0.4315  0.1396
  596MOL0     C82168   7.754   9.879   6.749 -0.5837 -0.3746 -0.8468
  596MOL0     O82169   7.631   9.878   6.693 -0.2591  0.1796  0.0218
  596MOL0     C82170   7.521   9.925   6.777  0.8643  0.0650 -1.0048
  596MOL0     C82171   7.406   9.974   6.699 -0.4340 -0.5792 -0.0483
  596MOL0     C82172   7.347   9.865   6.606 -0.0659 -0.4954 -0.4691
  596MOL0     C82173   7.190   9.882   6.587 -0.5692  0.2249 -0.1432
  596MOL0     C82174   7.128   9.879   6.720  0.4986 -0.5979 -0.3309
  596MOL0     C82175   7.080   9.863   6.836  0.5702 -0.1454  0.2957
  596MOL0     C82176   7.768   9.877   6.896 -0.0474  0.3702 -0.3576
  596MOL0     C82177   7.891   9.875   6.962  0.0166  0.4699 -1.3192
  596MOL0     C82178   7.888   9.882   7.111 -0.6961  0.3839 -0.3291
  596MOL0     H82179   8.282   9.752   7.138  0.6054 -0.6110  0.6733
  596MOL0     H82180   8.481   9.775   7.273 -0.7484  0.4584  0.6504
  596MOL0     H82181   8.672   9.714   7.342  1.9616 -0.1743 -0.0568
  596MOL0     H82182   8.689   9.880   7.380 -0.8091 -1.5128  2.3164
  596MOL0     H82183   8.923   9.874   7.337 -0.7782 -0.0673 -3.3530
  596MOL0     H82184   8.884   9.746   7.456 -1.1044  0.3995  0.4950
  596MOL0     H82185   8.949   9.697   7.160  2.2342 -0.0054 -0.2881
  596MOL0     H82186   9.064   9.690   7.290  0.1151  0.1012  1.7937
  596MOL0     H82187   8.932   9.510   7.413  0.0645 -0.5494  0.4089
  596MOL0     H82188   8.813   9.520   7.280  0.6042 -1.0146  1.0961
  596MOL0     H82189   9.106   9.462   7.241 -0.1038  1.0678  0.8739
  596MOL0     H82190   8.976   9.439   7.122 -1.7895  0.0774  0.9485
  596MOL0     H82191   9.045   9.274   7.369 -1.7422 -0.2615  1.0061
  596MOL0     H82192   8.876   9.270   7.306  0.7035  0.2415  3.1015
  596MOL0     H82193   8.984   9.223   7.076  0.2479 -1.3634 -0.2765
  596MOL0     H82194   8.956   9.111   7.202  1.1274 -0.6187  0.0193
  596MOL0     H82195   9.168   9.098   7.061  1.0316 -1.6870  0.8120
  596MOL0     H82196   9.212   9.255   7.139 -1.2540  0.5140 -1.8612
  596MOL0     H82197   9.335   9.227   7.402  3.2373 -0.7546 -1.4280
  596MOL0     H82198   9.393   8.923   7.628  0.7568 -1.0830 -0.5857
  596MOL0     H82199   9.381   9.090   7.641 -1.4526 -2.2339  1.5675
  596MOL0     H82200   9.634   8.954   7.501  4.3628  2.2401 -0.0199
  596MOL0     H82201   9.622   9.120   7.525  0.9377 -0.2748  0.4199
  596MOL0     H82202   9.610   8.905   7.737 -1.8854  1.2415  0.1152
  596MOL0     H82203   9.751   9.015   7.684 -0.6563  2.6660 -0.4544
  596MOL0     H82204   9.525   9.150   7.801  0.0207 -0.1510 -1.3859
  596MOL0     H82205   9.613   9.069   7.920 -2.7160  0.2623  0.2339
  596MOL0     H82206   9.899   9.384   7.816 -0.8029  0.2241 -0.1221
  596MOL0     H82207  10.237   9.394   7.936 -1.5398 -3.6005  1.4501
  596MOL0     H82208  10.102   9.494   8.019 -2.0674  1.0113 -1.7380
  596MOL0     H82209  10.110   9.489   7.846 -0.1170  1.1798 -0.4034
  596MOL0     H82210  10.514   9.121   8.134  0.3463  3.0216  1.0390
  596MOL0     H82211  10.696   9.064   8.298 -1.0774 -2.8202 -1.9920
  596MOL0     H82212  10.665   9.124   8.679 -1.3416 -0.7044  1.7645
  596MOL0     H82213  10.577   8.967   8.719  0.1111 -0.9565 -0.6499
  596MOL0     H82214  10.756   8.995   8.855 -0.7989 -2.6040  1.0056
  596MOL0     H82215  10.795   8.863   8.737 -2.3464 -0.4706  0.7685
  596MOL0     H82216  10.892   9.142   8.666  2.1259  0.9454 -1.4863
  596MOL0     H82217  10.954   8.975   8.634 -2.3825  0.7326 -1.7599
  596MOL0     H82218  11.044   8.965   8.870 -5.0076 -1.9319 -0.3700
  596MOL0     H82219  10.953   9.109   8.908 -0.4912 -0.3379 -1.0811
  596MOL0     H82220  11.092   9.251   8.747  0.6444 -0.1286 -2.0678
  596MOL0     H82221  11.178   9.196   8.890 -1.6330  0.2138  0.4659
  596MOL0     H82222  11.184   9.092   8.611 -0.7807  1.2871  0.4998
  596MOL0     H82223  11.281   9.019   8.754  0.1713  2.0466  3.2662
  596MOL0     H82224  11.393   9.243   8.773  1.0250  1.4907 -0.2598
  596MOL0     H82225  11.305   9.279   8.621 -2.7789  0.4119  2.7466
  596MOL0     H82226  11.533   9.195   8.570 -0.0577 -1.8007 -2.4962
  596MOL0     H82227  11.417   9.059   8.526 -1.6117 -1.9339  1.2600
  596MOL0     H82228  10.407   8.906   8.571 -1.2287  3.7338  2.3203
  596MOL0     H82229  10.237   8.946   8.405 -0.3674 -0.8038 -0.3287
  596MOL0     H82230  10.005   9.005   8.121 -0.4645  1.6772  0.8979
  596MOL0     H82231   9.810   8.996   7.970 -2.9667  2.3821 -2.8994
  596MOL0     H82232   8.710   9.856   6.917 -0.2133  0.9127 -1.0286
  596MOL0     H82233   8.502   9.846   6.783 -1.1316 -0.8602 -0.0131
  596MOL0     H82234   8.094   9.838   6.682  0.1359 -2.0413 -0.6366
  596MOL0     H82235   7.875   9.850   6.571  1.9592  1.7584  0.0230
  596MOL0     H82236   7.479   9.843   6.836 -2.6122  0.8252 -2.1830
  596MOL0     H82237   7.549  10.004   6.848  0.3555 -2.0718  1.7753
  596MOL0     H82238   7.453  10.056   6.645  2.3810 -0.0051  2.9457
  596MOL0     H82239   7.335  10.017   6.770 -0.5603 -0.3620 -0.2999
  596MOL0     H82240   7.407   9.858   6.515  0.1297  1.5708 -0.5437
  596MOL0     H82241   7.355   9.765   6.650  1.7023  0.5425  1.7183
  596MOL0     H82242   7.153   9.803   6.521  0.9143 -0.7343  0.1252
  596MOL0     H82243   7.181   9.984   6.547  0.4188  0.1358 -0.6181
  596MOL0     H82244   7.058   9.846   6.940  0.6791 -3.3996 -0.1103
  596MOL0     H82245   7.682   9.885   6.962  1.5498 -2.4916  2.3237
  596MOL0     H82246   7.962   9.809   7.144 -1.9310 -1.3846 -1.2941
  596MOL0     H82247   7.918   9.985   7.135  2.4385 -0.1480 -1.4587
  596MOL0     H82248   7.793   9.859   7.159  1.2762 -1.4440  3.0214
  597MOL0     O82249   7.470   4.073   4.920 -0.6813 -0.1110 -0.0546
  597MOL0     C82250   7.410   4.172   4.962 -1.3818  0.0079 -0.2893
  597MOL0     O82251   7.434   4.306   4.933  0.3198 -0.0181  0.2197
  597MOL0     C82252   7.558   4.328   4.879 -0.3831 -0.3890 -0.4659
  597MOL0     C82253   7.577   4.330   4.745  0.6468  0.0392  0.0008
  597MOL0     C82254   7.707   4.346   4.703  1.2562 -1.0103  0.3111
  597MOL0     C82255   7.811   4.384   4.783 -1.0683 -0.4255  0.1698
  597MOL0     O82256   7.932   4.419   4.721  0.4461 -0.3233  0.5863
  597MOL0     C82257   8.045   4.453   4.803 -0.4885  0.4543 -0.6420
  597MOL0     C82258   8.136   4.533   4.713  0.7787 -0.1327  0.8320
  597MOL0     C82259   8.286   4.546   4.757  0.3779  0.5156 -0.0588
  597MOL0     C82260   8.395   4.571   4.645  0.3147 -0.6767 -0.3319
  597MOL0     C82261   8.540   4.581   4.688  0.8017  0.4403 -0.0210
  597MOL0     C82262   8.630   4.630   4.579  0.1460 -0.6538 -0.9525
  597MOL0     C82263   8.615   4.552   4.445  0.7394 -0.6518 -0.2254
  597MOL0     C82264   8.714   4.608   4.340  0.0720  0.3027  0.4576
  597MOL0     N82265   8.853   4.595   4.385 -0.4589 -0.3259 -0.5160
  597MOL0     C82266   8.927   4.682   4.460 -0.3064  0.2197  0.0739
  597MOL0     C82267   9.054   4.648   4.452  0.8280  0.0538 -0.7116
  597MOL0     C82268   9.168   4.717   4.520  0.5766 -0.3103  1.0342
  597MOL0     C82269   9.190   4.866   4.493 -1.0527 -0.0601  0.1507
  597MOL0     C82270   9.232   4.900   4.348  0.3243  1.1755  0.0320
  597MOL0     C82271   9.355   4.821   4.302  0.3209  0.2917  0.5395
  597MOL0     O82272   9.477   4.875   4.349 -0.4992  0.9744  0.2618
  597MOL0     C82273   9.574   4.781   4.373 -0.0696 -0.8543 -0.6527
  597MOL0     C82274   9.625   4.794   4.506 -0.2250 -0.3162 -0.2215
  597MOL0     C82275   9.738   4.720   4.540  0.0898  0.4693 -0.5534
  597MOL0     C82276   9.792   4.748   4.677 -0.2408 -0.2030  0.2682
  597MOL0     C82277   9.778   4.607   4.465  0.2828  0.4278  0.6026
  597MOL0     C82278   9.880   4.501   4.495 -0.2227  1.4950 -0.0472
  597MOL0     O82279   9.893   4.390   4.411  0.3816  0.4314  1.0568
  597MOL0     C82280  10.012   4.317   4.405 -0.3263 -0.3267  0.7699
  597MOL0     C82281  10.030   4.201   4.478  0.3827  0.1467 -0.3695
  597MOL0     C82282  10.151   4.145   4.491  0.0192 -0.4923  0.3704
  597MOL0     C82283  10.261   4.199   4.415 -0.7860 -0.6070 -0.8490
  597MOL0     O82284  10.389   4.146   4.434  0.4223  0.2023 -0.3580
  597MOL0     C82285  10.404   4.036   4.519  0.1302 -0.3212 -0.4315
  597MOL0     C82286  10.545   3.993   4.523 -0.0015 -0.5122  0.1191
  597MOL0     C82287  10.618   4.100   4.603  0.8493 -0.0181  0.1795
  597MOL0     C82288  10.761   4.061   4.622  0.0454 -0.4555  0.7397
  597MOL0     C82289  10.832   4.168   4.702 -0.2525 -0.5497  0.4967
  597MOL0     C82290  10.978   4.123   4.749  0.1280 -0.4323 -0.6935
  597MOL0     C82291  10.962   4.063   4.890  0.9917  0.3751  0.0565
  597MOL0     C82292  11.094   4.032   4.948 -0.5720  0.1924 -0.0903
  597MOL0    Cl82293  11.159   4.186   5.011 -0.5697 -0.0106  0.0860
  597MOL0     C82294  10.242   4.305   4.330  1.0179  0.4548  0.1359
  597MOL0     C82295  10.119   4.365   4.318 -0.2245 -0.0415  0.5683
  597MOL0     O82296   9.937   4.504   4.603 -0.8663 -0.8063 -0.5676
  597MOL0     C82297   9.721   4.589   4.335 -0.3597  0.1501  0.5165
  597MOL0     C82298   9.613   4.668   4.297  0.1640  0.8339 -0.5411
  597MOL0     N82299   9.061   4.530   4.375 -0.4719  0.3120  0.7577
  597MOL0     N82300   8.941   4.504   4.334  0.2887  0.6929 -0.2822
  597MOL0     C82301   7.799   4.389   4.921 -0.0057  0.3019  0.4461
  597MOL0     C82302   7.670   4.356   4.967 -0.9392 -0.6843 -0.7611
  597MOL0     C82303   7.289   4.135   5.033 -0.1620  0.0299 -0.2524
  597MOL0     C82304   7.175   4.084   4.968  0.7536  0.6259  0.2794
  597MOL0     C82305   7.047   4.070   5.027 -1.7990  0.7524  0.3870
  597MOL0     C82306   7.036   4.093   5.165 -0.1102 -0.2668 -0.8665
  597MOL0     O82307   6.921   4.087   5.243 -0.4066  0.8874  0.0631
  597MOL0     C82308   6.793   4.063   5.167 -0.0794 -1.2045 -0.3051
  597MOL0     C82309   6.675   4.029   5.252 -0.1470  0.3724 -0.5815
  597MOL0     C82310   6.645   4.123   5.370 -0.6939 -0.3231 -0.6651
  597MOL0     C82311   6.558   4.054   5.477 -0.7060 -0.1832 -0.2132
  597MOL0     C82312   6.506   4.155   5.574 -0.2539 -0.0190 -1.1628
  597MOL0     C82313   6.464   4.224   5.661  0.4369 -0.0226  0.9983
  597MOL0     C82314   7.145   4.155   5.233 -0.0560  0.9204 -0.6542
  597MOL0     C82315   7.265   4.172   5.168 -1.0262  0.3897 -0.1969
  597MOL0     C82316   7.380   4.221   5.242 -0.5739 -0.3377 -0.4823
  597MOL0     H82317   7.500   4.303   4.673  0.7657  1.3791 -0.6482
  597MOL0     H82318   7.736   4.343   4.598 -0.8706 -1.2657 -0.3241
  597MOL0     H82319   8.101   4.370   4.847 -1.2149 -0.1875 -0.8865
  597MOL0     H82320   8.022   4.505   4.896  2.5626  0.4439  0.2117
  597MOL0     H82321   8.132   4.481   4.617 -0.4462 -3.1137  2.3598
  597MOL0     H82322   8.098   4.635   4.701  2.2593  0.5719  1.8705
  597MOL0     H82323   8.295   4.616   4.841  0.3631 -1.8020  2.0022
  597MOL0     H82324   8.308   4.451   4.807  2.8887  2.0276  1.9780
  597MOL0     H82325   8.366   4.498   4.568 -2.7370 -1.0893  1.0615
  597MOL0     H82326   8.373   4.667   4.597  0.9102 -1.0209 -1.3315
  597MOL0     H82327   8.579   4.480   4.706  3.8404  0.5732 -4.3734
  597MOL0     H82328   8.553   4.636   4.782  1.6275  2.0266 -1.0203
  597MOL0     H82329   8.610   4.735   4.554 -0.6008 -0.6395 -0.3188
  597MOL0     H82330   8.730   4.613   4.621 -0.2276 -0.3408  0.0756
  597MOL0     H82331   8.513   4.557   4.407 -0.0581 -1.1307  1.7542
  597MOL0     H82332   8.629   4.446   4.467 -3.4117 -1.4769 -0.7871
  597MOL0     H82333   8.692   4.555   4.247 -2.7387  2.2290 -0.1089
  597MOL0     H82334   8.685   4.710   4.311 -2.8579 -0.3795  0.7393
  597MOL0     H82335   8.885   4.761   4.522  1.0972 -0.9370  2.6665
  597MOL0     H82336   9.259   4.661   4.497  1.1383  0.4424  1.3733
  597MOL0     H82337   9.151   4.697   4.626  1.0472 -1.9216  0.8303
  597MOL0     H82338   9.113   4.929   4.540  2.1125  6.1347 -1.9386
  597MOL0     H82339   9.275   4.902   4.552 -1.8740  1.5337  0.4270
  597MOL0     H82340   9.148   4.885   4.280 -0.3058  2.8970  0.3905
  597MOL0     H82341   9.260   5.005   4.335  0.4484  1.0476 -0.8039
  597MOL0     H82342   9.337   4.717   4.331 -0.0812 -0.4599 -2.0815
  597MOL0     H82343   9.353   4.818   4.192 -1.9019  0.6071  0.5301
  597MOL0     H82344   9.588   4.868   4.578  1.8394  0.6791 -0.1144
  597MOL0     H82345   9.901   4.756   4.673 -0.2955  2.2568  1.5562
  597MOL0     H82346   9.753   4.665   4.738 -1.4517 -0.1142 -0.3589
  597MOL0     H82347   9.756   4.842   4.722 -1.1894 -0.4719  0.0987
  597MOL0     H82348   9.940   4.170   4.531  1.0767 -0.8831  0.2449
  597MOL0     H82349  10.162   4.055   4.551  2.8645  0.1965  1.0092
  597MOL0     H82350  10.375   4.064   4.620  1.8362 -1.5326  0.4452
  597MOL0     H82351  10.341   3.958   4.475  0.3963 -0.1656 -1.1081
  597MOL0     H82352  10.547   3.899   4.577  2.4979 -0.3740  0.3860
  597MOL0     H82353  10.591   3.975   4.425  0.8195 -0.8229  0.5535
  597MOL0     H82354  10.576   4.128   4.699  0.2463  3.0141 -0.8848
  597MOL0     H82355  10.626   4.196   4.552  1.6947  1.5979  3.1687
  597MOL0     H82356  10.812   4.062   4.525 -0.4720  0.0843  0.4685
  597MOL0     H82357  10.768   3.961   4.666 -0.7952 -0.2312  1.3890
  597MOL0     H82358  10.837   4.254   4.634  1.4694 -0.6780  0.4040
  597MOL0     H82359  10.776   4.199   4.790  0.5390  1.9528  0.1932
  597MOL0     H82360  11.038   4.214   4.760 -2.6369  1.1723  3.3159
  597MOL0     H82361  11.030   4.051   4.685  2.7281  0.1955  0.5702
  597MOL0     H82362  10.892   3.980   4.898  1.6717 -0.1607  0.5913
  597MOL0     H82363  10.917   4.143   4.949  3.8720  0.9650  1.6878
  597MOL0     H82364  11.164   3.994   4.873 -1.1530 -1.3976  0.1322
  597MOL0     H82365  11.085   3.958   5.029  0.8089  0.1247  0.0302
  597MOL0     H82366  10.320   4.350   4.270 -2.4211  3.9345 -2.2496
  597MOL0     H82367  10.117   4.450   4.251 -0.4524 -1.4932 -1.3415
  597MOL0     H82368   9.747   4.499   4.281 -0.5556 -1.1743  2.5231
  597MOL0     H82369   9.570   4.646   4.200  0.1175  1.0242 -0.5648
  597MOL0     H82370   7.873   4.393   5.000 -1.6672 -3.2348  2.4264
  597MOL0     H82371   7.646   4.364   5.073 -0.0899  0.3833 -0.6289
  597MOL0     H82372   7.180   4.062   4.862  1.0075 -1.5229  0.6928
  597MOL0     H82373   6.968   4.021   4.971 -0.8662  0.8781 -1.0920
  597MOL0     H82374   6.776   4.151   5.105  1.3425 -1.8139 -1.6532
  597MOL0     H82375   6.791   3.981   5.094 -0.3110 -1.6663  0.2146
  597MOL0     H82376   6.699   3.929   5.287  0.1409  0.7959  0.4565
  597MOL0     H82377   6.578   4.033   5.200  0.3653  3.0293 -1.5030
  597MOL0     H82378   6.741   4.151   5.415  1.1574 -2.2531 -3.1595
  597MOL0     H82379   6.601   4.218   5.337 -1.3835  0.4109  2.0454
  597MOL0     H82380   6.608   3.981   5.541 -1.7963 -2.0056 -1.3449
  597MOL0     H82381   6.469   4.014   5.427  0.0189 -0.0376 -1.6404
  597MOL0     H82382   6.417   4.283   5.738  1.4332  1.3049  0.6178
  597MOL0     H82383   7.144   4.181   5.339  1.1995  1.0277 -0.6490
  597MOL0     H82384   7.452   4.281   5.185  0.0369 -1.9305 -1.4628
  597MOL0     H82385   7.342   4.298   5.310  3.1191  1.0848  0.2428
  597MOL0     H82386   7.432   4.150   5.307  0.3641 -0.5387 -1.4047
  598MOL0     O82387   1.654   0.491  11.381 -0.6290  0.0051  0.4881
  598MOL0     C82388   1.647   0.615  11.364 -0.7135  0.4784 -0.8935
  598MOL0     O82389   1.667   0.680  11.245  0.6054  0.3692  0.1338
  598MOL0     C82390   1.755   0.635  11.151  0.1742 -0.1583  0.2403
  598MOL0     C82391   1.726   0.657  11.020 -0.7788 -0.3803  0.1089
  598MOL0     C82392   1.815   0.609  10.920 -1.3800  0.4292 -0.9825
  598MOL0     C82393   1.938   0.542  10.957  0.1764 -0.2500 -1.0606
  598MOL0     O82394   2.026   0.510  10.856 -0.4359 -0.0671 -0.4326
  598MOL0     C82395   2.125   0.409  10.883 -0.4432  0.6967 -0.6498
  598MOL0     C82396   2.165   0.346  10.751  0.4913 -0.6488  0.3723
  598MOL0     C82397   2.271   0.431  10.678 -0.1742 -0.4719 -0.1818
  598MOL0     C82398   2.332   0.351  10.560  0.4083 -0.2127  0.0689
  598MOL0     C82399   2.448   0.426  10.486 -0.0424 -0.3868 -0.8553
  598MOL0     C82400   2.506   0.353  10.363 -0.8972 -0.4841  0.4789
  598MOL0     C82401   2.636   0.421  10.317  0.3705 -0.1080 -0.2421
  598MOL0     C82402   2.760   0.404  10.407 -0.3487  0.5926  0.3106
  598MOL0     N82403   2.872   0.456  10.332  0.0142  0.8988  0.1329
  598MOL0     C82404   2.960   0.382  10.256 -0.7762  0.6428 -0.0230
  598MOL0     C82405   3.036   0.470  10.194 -0.8017 -0.3335 -0.1007
  598MOL0     C82406   3.144   0.448  10.093 -0.5873  0.6126 -0.4297
  598MOL0     C82407   3.276   0.408  10.159 -0.2240  0.2387 -0.1398
  598MOL0     C82408   3.337   0.531  10.231  0.4472  0.8600  0.6976
  598MOL0     C82409   3.491   0.515  10.247 -0.9127 -0.1526  0.7024
  598MOL0     O82410   3.553   0.519  10.116 -0.0148  0.0395  0.1316
  598MOL0     C82411   3.677   0.468  10.115  0.4390 -0.2597  0.6390
  598MOL0     C82412   3.728   0.446   9.983  0.1600 -0.2770 -0.0009
  598MOL0     C82413   3.860   0.398   9.960  0.0262  0.6466  0.6780
  598MOL0     C82414   3.902   0.372   9.824  0.5080 -0.0189  1.2089
  598MOL0     C82415   3.945   0.381  10.075 -0.1287 -0.9361  0.1616
  598MOL0     C82416   4.085   0.338  10.067 -0.8950  0.7708  0.5826
  598MOL0     O82417   4.130   0.298  10.189 -0.4395 -0.3057  0.0463
  598MOL0     C82418   4.263   0.291  10.214 -0.2724  0.8973  0.4311
  598MOL0     C82419   4.364   0.253  10.115 -0.0551  1.1068  0.3051
  598MOL0     C82420   4.500   0.266  10.146  0.2284  0.7068  0.7284
  598MOL0     C82421   4.545   0.307  10.271 -0.3721 -0.4021  0.1833
  598MOL0     O82422   4.678   0.343  10.281  0.8990  0.1346 -0.5028
  598MOL0     C82423   4.716   0.364  10.417  0.3204 -0.1355  0.4307
  598MOL0     C82424   4.870   0.358  10.435  0.2201  0.0443  0.0758
  598MOL0     C82425   4.911   0.321  10.580 -0.6290  0.2457 -0.5992
  598MOL0     C82426   4.932   0.170  10.595 -0.4977 -0.1154 -0.6279
  598MOL0     C82427   4.950   0.128  10.743  0.5079 -0.6850 -0.4577
  598MOL0     C82428   4.958  -0.028  10.763  0.8165 -0.5702 -0.4625
  598MOL0     C82429   5.000  -0.070  10.905 -0.2554  0.5020 -1.4615
  598MOL0     C82430   4.911  -0.001  11.014  0.4007  0.8648  0.1532
  598MOL0    Cl82431   4.973   0.155  11.060 -0.1495  0.1779  0.3999
  598MOL0     C82432   4.442   0.338  10.364 -0.7921  0.1657  0.2802
  598MOL0     C82433   4.312   0.326  10.336 -0.5461 -1.3461 -0.2619
  598MOL0     O82434   4.158   0.360   9.970  0.0175  0.3297 -0.3597
  598MOL0     C82435   3.896   0.426  10.200 -0.1840 -0.3135  0.0844
  598MOL0     C82436   3.762   0.450  10.225 -0.7522  0.9963 -0.7525
  598MOL0     N82437   2.996   0.597  10.236 -0.2704  0.1199 -0.1131
  598MOL0     N82438   2.895   0.585  10.318 -0.0124 -0.0497  0.5496
  598MOL0     C82439   1.967   0.525  11.095  0.2608  0.2269 -0.0247
  598MOL0     C82440   1.875   0.570  11.189 -0.0325  0.3782 -1.0148
  598MOL0     C82441   1.590   0.704  11.469 -0.1585  0.0739 -0.4879
  598MOL0     C82442   1.531   0.826  11.427  0.0073 -0.0099 -0.2769
  598MOL0     C82443   1.466   0.907  11.515 -0.0799  0.3193  0.0247
  598MOL0     C82444   1.453   0.873  11.650  0.9095 -0.4276  0.8585
  598MOL0     O82445   1.350   0.935  11.722 -0.8351 -0.1159 -0.6582
  598MOL0     C82446   1.350   0.922  11.859  0.2313 -0.9666  0.5851
  598MOL0     C82447   1.286   1.056  11.906  0.2023  0.5800  0.3639
  598MOL0     C82448   1.136   1.055  11.898 -0.3740  0.1656 -0.6844
  598MOL0     C82449   1.058   1.139  12.005 -0.9407 -0.1884  0.1386
  598MOL0     C82450   1.097   1.098  12.140  0.8911 -0.1713  0.2218
  598MOL0     C82451   1.132   1.065  12.249 -0.1851 -0.5899 -0.0652
  598MOL0     C82452   1.523   0.761  11.697 -0.2264  0.2437  0.0409
  598MOL0     C82453   1.595   0.679  11.612 -0.5269  0.0084  0.5457
  598MOL0     C82454   1.711   0.583  11.664  1.0272  0.4873  0.3406
  598MOL0     H82455   1.637   0.715  10.996  0.0054  1.8902  2.2168
  598MOL0     H82456   1.781   0.615  10.818 -0.4586  0.4437 -1.2965
  598MOL0     H82457   2.089   0.324  10.943 -2.3258  1.5523 -0.4845
  598MOL0     H82458   2.207   0.457  10.936 -1.6300  1.3112  0.6936
  598MOL0     H82459   2.206   0.245  10.761 -1.9507 -1.7507 -0.0053
  598MOL0     H82460   2.088   0.324  10.677  1.9168  0.6893 -1.6226
  598MOL0     H82461   2.231   0.523  10.635 -0.7753 -1.5039 -1.9592
  598MOL0     H82462   2.353   0.448  10.748 -1.6533 -0.8942  1.7271
  598MOL0     H82463   2.382   0.258  10.588  3.0147  1.3585  1.0329
  598MOL0     H82464   2.247   0.330  10.494 -0.4585 -1.0281  1.3787
  598MOL0     H82465   2.527   0.450  10.558  0.3330 -0.8027 -1.1202
  598MOL0     H82466   2.405   0.521  10.454  0.4501  0.2790  0.4039
  598MOL0     H82467   2.536   0.250  10.385 -0.6686  0.2177  3.9778
  598MOL0     H82468   2.431   0.359  10.284 -1.3373  0.7804  0.9719
  598MOL0     H82469   2.621   0.525  10.287  2.2220  0.5362  0.8887
  598MOL0     H82470   2.662   0.380  10.219  1.4590 -0.3572  0.1410
  598MOL0     H82471   2.745   0.453  10.504 -1.1632 -0.1518  0.5729
  598MOL0     H82472   2.772   0.298  10.428 -3.3475 -0.3179 -1.9247
  598MOL0     H82473   2.962   0.273  10.249  4.1098  0.5181 -0.2307
  598MOL0     H82474   3.176   0.531  10.029 -0.2077  1.4018  0.7486
  598MOL0     H82475   3.124   0.364  10.025  1.1300  0.5071 -0.8372
  598MOL0     H82476   3.247   0.331  10.230 -0.3360  0.5748  0.1803
  598MOL0     H82477   3.347   0.377  10.081 -2.1513 -1.7819 -1.1908
  598MOL0     H82478   3.311   0.615  10.167  0.9453  0.8068  0.4246
  598MOL0     H82479   3.297   0.534  10.333 -0.9034 -1.8751  0.3437
  598MOL0     H82480   3.545   0.589  10.307 -0.1090  0.2518 -0.4657
  598MOL0     H82481   3.496   0.415  10.291  1.3896 -0.7258 -0.6675
  598MOL0     H82482   3.652   0.431   9.908  1.1572 -1.4823 -0.7992
  598MOL0     H82483   3.970   0.287   9.807  1.7788  1.3494 -0.9650
  598MOL0     H82484   3.959   0.455   9.782  1.5549  0.9709  4.3550
  598MOL0     H82485   3.816   0.346   9.762  0.4264  0.5471  1.0852
  598MOL0     H82486   4.331   0.213  10.019  1.3091 -1.7602  0.9109
  598MOL0     H82487   4.578   0.251  10.073 -0.9198  2.6196 -1.0056
  598MOL0     H82488   4.700   0.468  10.448 -0.4205 -0.3994  0.9763
  598MOL0     H82489   4.670   0.298  10.492 -2.0172 -1.8542 -2.2777
  598MOL0     H82490   4.904   0.290  10.356  0.9719  1.2897 -0.7042
  598MOL0     H82491   4.909   0.456  10.404  1.8662 -1.0840 -1.6746
  598MOL0     H82492   4.839   0.353  10.655  2.0798 -0.7787  2.6962
  598MOL0     H82493   5.007   0.370  10.596 -1.0541  0.4254  1.7078
  598MOL0     H82494   5.018   0.152  10.529  1.2318  0.3925  1.3505
  598MOL0     H82495   4.852   0.113  10.549 -0.8646 -0.4030  0.3439
  598MOL0     H82496   5.029   0.191  10.785  0.2701  1.8828 -3.5210
  598MOL0     H82497   4.854   0.164  10.780 -0.7705  1.3027 -4.9948
  598MOL0     H82498   5.018  -0.084  10.692 -0.4365 -0.5666 -1.5625
  598MOL0     H82499   4.859  -0.074  10.756  1.6382 -2.4689 -0.2160
  598MOL0     H82500   5.100  -0.037  10.934  0.3062 -0.8098 -1.8088
  598MOL0     H82501   4.994  -0.180  10.904 -2.8931  0.5746 -0.6900
  598MOL0     H82502   4.909  -0.062  11.104 -0.4099  0.2799 -0.2475
  598MOL0     H82503   4.805   0.010  10.988  0.1144 -0.8073  0.5265
  598MOL0     H82504   4.463   0.385  10.460 -0.6514  0.3738  0.1467
  598MOL0     H82505   4.246   0.373  10.409 -0.7098 -2.0834  0.0764
  598MOL0     H82506   3.972   0.441  10.276  0.5423 -2.5890 -0.1122
  598MOL0     H82507   3.728   0.460  10.327 -2.2494  0.9955 -1.2237
  598MOL0     H82508   2.046   0.467  11.142 -1.0654 -0.2175  1.7758
  598MOL0     H82509   1.889   0.550  11.295  1.1224  4.5889 -0.1828
  598MOL0     H82510   1.539   0.859  11.324  0.3023  0.3651 -0.1357
  598MOL0     H82511   1.411   0.993  11.479  0.2137  0.4401 -0.1384
  598MOL0     H82512   1.292   0.830  11.870  0.6621 -1.5502 -1.5925
  598MOL0     H82513   1.447   0.921  11.910  0.6890  1.5197 -0.0840
  598MOL0     H82514   1.331   1.138  11.850  1.4407  0.1981  0.7658
  598MOL0     H82515   1.310   1.079  12.010  0.1169 -2.6002  1.1834
  598MOL0     H82516   1.098   1.098  11.804 -1.6642 -0.4224 -0.4525
  598MOL0     H82517   1.104   0.951  11.894 -0.1941  0.0221  0.9123
  598MOL0     H82518   0.954   1.113  11.986 -1.0045  0.7043 -0.8314
  598MOL0     H82519   1.073   1.247  11.993  0.2792 -0.4051 -0.3834
  598MOL0     H82520   1.186   1.027  12.333 -1.7526  0.1830  1.3401
  598MOL0     H82521   1.531   0.739  11.803  3.3457 -0.2290 -0.2084
  598MOL0     H82522   1.688   0.479  11.638  1.9050  0.7041 -1.4502
  598MOL0     H82523   1.805   0.608  11.614  1.4688 -0.0285  0.8897
  598MOL0     H82524   1.736   0.600  11.769  1.9038  5.5785 -0.4419
  599MOL0     O82525   4.519   5.375   8.516  0.2915 -0.3426  0.9048
  599MOL0     C82526   4.532   5.368   8.634  0.3629 -0.0051 -0.7870
  599MOL0     O82527   4.631   5.429   8.713  0.0795  0.3868 -0.2069
  599MOL0     C82528   4.738   5.482   8.639 -0.2532  0.4188  0.5573
  599MOL0     C82529   4.794   5.603   8.673  0.5042 -0.6208  0.2714
  599MOL0     C82530   4.914   5.641   8.617 -0.0737 -0.4149 -0.6040
  599MOL0     C82531   4.982   5.561   8.531 -0.4265 -0.4622  0.4652
  599MOL0     O82532   5.107   5.589   8.475 -0.6799  0.0023 -0.1206
  599MOL0     C82533   5.149   5.726   8.467  0.2139  0.2358 -0.0187
  599MOL0     C82534   5.282   5.736   8.382  0.5190  0.3215  0.8302
  599MOL0     C82535   5.359   5.875   8.399 -0.6898 -0.6237  1.3065
  599MOL0     C82536   5.475   5.881   8.295 -0.5433  0.3612 -0.8983
  599MOL0     C82537   5.592   5.988   8.316 -0.1049  0.2089 -1.0416
  599MOL0     C82538   5.556   6.138   8.365 -0.3499  0.6384  0.5977
  599MOL0     C82539   5.675   6.222   8.402 -0.4968 -0.6900 -0.9770
  599MOL0     C82540   5.773   6.263   8.287  0.1157  0.2004 -1.0885
  599MOL0     N82541   5.772   6.399   8.225 -0.5210 -0.3550 -0.9354
  599MOL0     C82542   5.855   6.508   8.255  0.0039 -0.4777  0.3904
  599MOL0     C82543   5.799   6.607   8.182 -0.4416 -0.3450  0.8989
  599MOL0     C82544   5.832   6.756   8.174 -0.1682 -0.3681  0.4473
  599MOL0     C82545   5.803   6.809   8.031  0.1159  0.1166 -0.0768
  599MOL0     C82546   5.913   6.915   7.991 -0.0037  0.0701 -0.5378
  599MOL0     C82547   5.857   6.971   7.862  0.3119 -0.0354  0.1459
  599MOL0     O82548   5.942   7.078   7.818 -0.4499 -0.4273  0.7532
  599MOL0     C82549   6.042   7.069   7.722  0.4387  1.0388 -0.0278
  599MOL0     C82550   6.096   6.942   7.691 -0.1836  0.4260 -0.0028
  599MOL0     C82551   6.210   6.919   7.610 -1.0785 -0.0016  0.0315
  599MOL0     C82552   6.242   6.776   7.574 -0.6286  0.9461 -0.2731
  599MOL0     C82553   6.288   7.033   7.577 -0.1891 -0.0918 -0.1264
  599MOL0     C82554   6.427   7.035   7.528  0.5579  0.4420  0.2250
  599MOL0     O82555   6.474   7.165   7.497  0.7280 -0.2771 -0.0352
  599MOL0     C82556   6.599   7.158   7.457  0.3544 -0.1497  0.2289
  599MOL0     C82557   6.705   7.194   7.541  0.4667  0.0662  0.3673
  599MOL0     C82558   6.834   7.194   7.494  0.5027 -0.2595 -0.1415
  599MOL0     C82559   6.860   7.165   7.358 -0.2482  0.2617 -0.4371
  599MOL0     O82560   6.994   7.146   7.320 -0.7374  0.5172  0.2228
  599MOL0     C82561   7.037   7.102   7.181 -0.0083  0.4603 -1.0966
  599MOL0     C82562   7.182   7.134   7.143  0.5129  0.2683  0.9681
  599MOL0     C82563   7.274   7.059   7.247 -0.1573 -0.3606 -0.4615
  599MOL0     C82564   7.427   7.100   7.220  0.2635 -0.4346 -0.0249
  599MOL0     C82565   7.519   7.042   7.326 -0.5872  0.2222 -0.0070
  599MOL0     C82566   7.665   7.073   7.296  0.9563 -0.6169  0.7331
  599MOL0     C82567   7.749   6.989   7.391 -0.3561 -0.3189  0.1523
  599MOL0     C82568   7.898   7.019   7.364 -0.2773 -0.0122 -0.0056
  599MOL0    Cl82569   7.986   6.889   7.424  0.2873  0.2350 -0.3087
  599MOL0     C82570   6.755   7.142   7.270  0.2905  0.6491 -0.0444
  599MOL0     C82571   6.626   7.130   7.322  0.7151  0.2137  0.3848
  599MOL0     O82572   6.480   6.931   7.499 -0.6045  0.3166  0.5249
  599MOL0     C82573   6.234   7.163   7.607  0.1321  0.4019  0.2780
  599MOL0     C82574   6.109   7.182   7.672 -0.3831  0.0935 -0.2620
  599MOL0     N82575   5.673   6.569   8.125  0.0830  0.1145  0.3341
  599MOL0     N82576   5.667   6.441   8.148  0.5851 -0.2514  0.3448
  599MOL0     C82577   4.935   5.437   8.503  0.0945 -0.1079  1.0878
  599MOL0     C82578   4.809   5.388   8.551  0.5495 -0.2393 -0.7382
  599MOL0     C82579   4.425   5.287   8.706 -0.5148 -0.7496  0.2374
  599MOL0     C82580   4.335   5.229   8.619  0.3159 -0.0499  0.8659
  599MOL0     C82581   4.232   5.145   8.671 -0.1079 -0.6825 -0.3108
  599MOL0     C82582   4.220   5.114   8.801  0.1457  0.3664 -1.1932
  599MOL0     O82583   4.113   5.038   8.842 -0.4882  0.8894  0.4699
  599MOL0     C82584   4.082   5.034   8.988 -0.9425 -0.1171  0.0586
  599MOL0     C82585   3.949   4.968   9.014  0.4530 -0.0504 -0.2225
  599MOL0     C82586   3.933   4.828   8.974  0.3289  0.5135  0.1241
  599MOL0     C82587   4.040   4.726   9.036  0.2153 -0.2730  0.2787
  599MOL0     C82588   4.003   4.591   9.005  0.3828 -0.3851  0.2415
  599MOL0     C82589   3.968   4.485   8.976 -0.3336 -0.1277 -0.6848
  599MOL0     C82590   4.315   5.171   8.890  1.5370  0.9147 -0.3158
  599MOL0     C82591   4.415   5.254   8.843 -0.0314 -0.2535  0.6646
  599MOL0     C82592   4.511   5.316   8.942 -0.2192 -0.5992 -1.0792
  599MOL0     H82593   4.732   5.665   8.737 -0.3801  1.1128 -2.1286
  599MOL0     H82594   4.949   5.740   8.644 -0.1125 -0.2008 -1.3203
  599MOL0     H82595   5.152   5.774   8.566 -3.9834 -0.2070  0.5060
  599MOL0     H82596   5.070   5.778   8.412  0.3013 -1.8233 -2.2267
  599MOL0     H82597   5.347   5.656   8.417 -0.5174 -1.8124 -1.7805
  599MOL0     H82598   5.254   5.728   8.277 -4.7432  2.4475  1.7347
  599MOL0     H82599   5.302   5.966   8.379 -3.4243 -2.4753  0.1789
  599MOL0     H82600   5.396   5.882   8.502 -2.5485 -1.6673  2.0819
  599MOL0     H82601   5.519   5.781   8.295 -1.6009 -0.1368  0.5362
  599MOL0     H82602   5.431   5.897   8.196  0.6175  2.2158 -1.1522
  599MOL0     H82603   5.657   5.986   8.227  0.9035  0.6271 -0.3384
  599MOL0     H82604   5.664   5.959   8.394  0.3108  4.3040  0.3253
  599MOL0     H82605   5.509   6.182   8.277 -2.6046  0.1490  1.4714
  599MOL0     H82606   5.482   6.145   8.446  0.2447  3.1361  0.9997
  599MOL0     H82607   5.729   6.171   8.482  0.0765  0.6347 -0.4839
  599MOL0     H82608   5.640   6.317   8.444  1.8518 -0.4573  0.6363
  599MOL0     H82609   5.873   6.237   8.325 -0.9098  1.3434  2.9286
  599MOL0     H82610   5.757   6.195   8.203 -1.8760 -0.8020  0.0176
  599MOL0     H82611   5.939   6.514   8.323  1.1821 -0.2769 -1.0333
  599MOL0     H82612   5.940   6.768   8.191 -0.2402  1.1597 -0.0046
  599MOL0     H82613   5.777   6.812   8.250 -0.3267 -1.3433  1.0569
  599MOL0     H82614   5.795   6.725   7.962  0.4980 -0.7559  0.9267
  599MOL0     H82615   5.701   6.850   8.035  0.0992 -0.0339  1.1096
  599MOL0     H82616   5.916   6.998   8.063  2.2521 -0.8719  0.5524
  599MOL0     H82617   6.010   6.871   7.967 -0.5444 -1.3059 -0.3136
  599MOL0     H82618   5.854   6.885   7.793 -0.3034  0.5045 -0.5076
  599MOL0     H82619   5.759   7.017   7.877 -0.2013 -1.1403  0.2826
  599MOL0     H82620   6.047   6.851   7.724 -0.4105  0.9155  1.0493
  599MOL0     H82621   6.242   6.773   7.464 -0.8895  2.7545 -0.3407
  599MOL0     H82622   6.180   6.699   7.621  1.3557  1.1894  3.0807
  599MOL0     H82623   6.341   6.746   7.610 -1.5540  1.2880  2.7910
  599MOL0     H82624   6.688   7.247   7.634 -0.8112  1.6998 -0.7433
  599MOL0     H82625   6.916   7.231   7.555 -0.2182 -0.7050  1.1297
  599MOL0     H82626   7.018   6.995   7.167 -1.8985  0.6227 -0.0621
  599MOL0     H82627   6.968   7.158   7.117  0.5490  2.7186  0.1733
  599MOL0     H82628   7.208   7.091   7.046  2.4230 -1.2445  2.0756
  599MOL0     H82629   7.191   7.243   7.151 -2.1750  1.1048 -3.6222
  599MOL0     H82630   7.255   6.952   7.236 -0.3168 -0.4374  0.5572
  599MOL0     H82631   7.238   7.072   7.349 -0.1379 -2.8511 -0.0883
  599MOL0     H82632   7.432   7.209   7.230 -0.8378 -0.3570 -0.1825
  599MOL0     H82633   7.460   7.065   7.122 -1.1071 -1.1821 -0.2460
  599MOL0     H82634   7.486   7.079   7.424 -1.1897 -0.7888  0.1783
  599MOL0     H82635   7.507   6.934   7.334  1.2623 -0.0652 -0.8124
  599MOL0     H82636   7.685   7.180   7.299 -2.7855  0.2377  0.3172
  599MOL0     H82637   7.677   7.035   7.194 -2.9792  0.8093 -0.4327
  599MOL0     H82638   7.730   6.884   7.367 -2.8014  0.0102  0.3196
  599MOL0     H82639   7.722   7.011   7.495 -3.1739 -2.8130  0.0895
  599MOL0     H82640   7.924   7.107   7.423  1.5179 -0.1208 -0.5791
  599MOL0     H82641   7.941   7.052   7.268  1.5594 -1.8319  0.1228
  599MOL0     H82642   6.764   7.117   7.165 -0.0917 -0.7706  0.2346
  599MOL0     H82643   6.548   7.119   7.247  2.5634 -1.4503 -1.4228
  599MOL0     H82644   6.284   7.256   7.584 -0.5278  0.2621 -1.8960
  599MOL0     H82645   6.068   7.280   7.695  0.8859  1.2325 -2.5473
  599MOL0     H82646   4.992   5.380   8.430 -3.3486  1.8676 -3.6448
  599MOL0     H82647   4.766   5.293   8.522  1.0633  0.0816 -2.7270
  599MOL0     H82648   4.328   5.245   8.512  2.2448 -0.8321  0.5924
  599MOL0     H82649   4.155   5.111   8.602 -0.4017 -1.1421  0.2344
  599MOL0     H82650   4.155   4.981   9.049 -3.8425 -1.9043  2.1881
  599MOL0     H82651   4.080   5.138   9.022  1.6467 -0.1962  0.6512
  599MOL0     H82652   3.881   5.030   8.955  1.3962 -0.9059 -2.3178
  599MOL0     H82653   3.932   4.993   9.119 -2.5431  4.9348 -1.5297
  599MOL0     H82654   3.834   4.801   9.012 -1.1300  1.1559 -2.9236
  599MOL0     H82655   3.928   4.817   8.866 -2.0658  1.4695  0.0757
  599MOL0     H82656   4.046   4.752   9.142 -0.9886  1.0951  0.0459
  599MOL0     H82657   4.144   4.746   9.006 -0.1899  1.1429 -0.2693
  599MOL0     H82658   3.935   4.383   8.966 -1.3373 -0.4315  3.6270
  599MOL0     H82659   4.297   5.150   8.995 -2.9443 -2.1247 -1.4063
  599MOL0     H82660   4.613   5.276   8.938  0.3665  0.4473  1.5667
  599MOL0     H82661   4.523   5.423   8.928  3.5379 -1.0349 -2.3223
  599MOL0     H82662   4.486   5.303   9.048 -2.8557  2.8457 -1.1223
  600MOL0     O82663   6.746   2.183   8.115  0.3106  0.4391 -0.2670
  600MOL0     C82664   6.695   2.160   8.226  0.3419 -0.7909  0.1283
  600MOL0     O82665   6.763   2.157   8.343  0.0785  0.5750  0.0138
  600MOL0     C82666   6.896   2.194   8.338  0.3078  0.1275 -0.3325
  600MOL0     C82667   6.937   2.327   8.344  0.0218  0.3973 -0.5053
  600MOL0     C82668   7.073   2.353   8.352 -0.0296  0.3986 -0.0021
  600MOL0     C82669   7.169   2.247   8.341 -0.9118  0.9763  0.9281
  600MOL0     O82670   7.306   2.258   8.349  0.4171  0.1945  0.9553
  600MOL0     C82671   7.375   2.388   8.328 -0.4195 -0.0241 -0.6508
  600MOL0     C82672   7.535   2.375   8.337 -0.0792 -0.5359  0.7880
  600MOL0     C82673   7.592   2.273   8.244 -0.7874  0.5944  0.0329
  600MOL0     C82674   7.743   2.285   8.233 -0.4337 -0.3395  0.2461
  600MOL0     C82675   7.803   2.148   8.233  0.2420  0.4711  0.3827
  600MOL0     C82676   7.796   2.083   8.102 -0.5948  0.2885  0.1342
  600MOL0     C82677   7.899   1.961   8.086  0.1056  0.2190 -0.4344
  600MOL0     C82678   8.038   2.021   8.035 -0.5189 -0.5545 -0.4395
  600MOL0     N82679   8.144   1.913   8.050  0.7928 -0.1135  0.3752
  600MOL0     C82680   8.161   1.808   7.965  0.3246  0.1410  0.1668
  600MOL0     C82681   8.263   1.736   8.021 -0.0546 -0.3402  0.3619
  600MOL0     C82682   8.313   1.614   7.949 -0.6116  0.5606 -1.0287
  600MOL0     C82683   8.459   1.581   7.950 -0.1531  0.0650 -0.2676
  600MOL0     C82684   8.548   1.692   7.893  0.2016  0.6892  0.2399
  600MOL0     C82685   8.588   1.680   7.748  0.3369  0.0831  0.0711
  600MOL0     O82686   8.659   1.788   7.700  0.3395  0.2048  0.2764
  600MOL0     C82687   8.662   1.816   7.565  0.2794  0.7176  0.9705
  600MOL0     C82688   8.612   1.726   7.462  0.1823  0.0688  0.1541
  600MOL0     C82689   8.603   1.751   7.326 -0.0640  0.5997 -0.5838
  600MOL0     C82690   8.540   1.649   7.228  0.6558  0.6223  0.8454
  600MOL0     C82691   8.653   1.875   7.281  0.4631  0.5441 -0.0932
  600MOL0     C82692   8.671   1.918   7.143 -0.6698  0.1337 -0.0005
  600MOL0     O82693   8.670   2.052   7.124 -0.3149 -0.2330 -0.2276
  600MOL0     C82694   8.696   2.117   7.010 -0.0453  0.7138  0.2087
  600MOL0     C82695   8.701   2.256   7.019 -0.3252 -0.3141  0.6069
  600MOL0     C82696   8.732   2.333   6.916  0.3224 -0.7637  1.1570
  600MOL0     C82697   8.758   2.286   6.784 -0.1072  0.2604 -0.4260
  600MOL0     O82698   8.800   2.353   6.669 -0.1334 -0.2695 -0.7318
  600MOL0     C82699   8.871   2.478   6.695 -0.6429  0.8127  0.2302
  600MOL0     C82700   8.921   2.534   6.561  0.1222 -0.8117 -0.1343
  600MOL0     C82701   8.999   2.664   6.566  0.8364 -0.0402 -0.0175
  600MOL0     C82702   9.077   2.710   6.451 -0.3262  0.6552  0.1306
  600MOL0     C82703   9.225   2.677   6.468  0.8495 -0.7463 -0.2403
  600MOL0     C82704   9.306   2.745   6.367  0.2256 -0.0527 -0.2225
  600MOL0     C82705   9.347   2.887   6.396  0.2427 -0.0889 -0.5201
  600MOL0     C82706   9.399   2.970   6.284  0.0950 -0.6762  0.4919
  600MOL0    Cl82707   9.275   2.976   6.157 -0.1543  0.2361 -0.5377
  600MOL0     C82708   8.742   2.145   6.774 -0.4050 -0.6403  1.0732
  600MOL0     C82709   8.718   2.066   6.880 -0.0223 -1.0367  0.3134
  600MOL0     O82710   8.684   1.837   7.052 -0.1260 -0.3047 -0.5042
  600MOL0     C82711   8.696   1.977   7.380 -0.7073  0.6718 -0.0125
  600MOL0     C82712   8.708   1.940   7.517 -0.3253 -0.1068  0.5979
  600MOL0     N82713   8.290   1.793   8.142 -0.2084 -0.0682  0.1430
  600MOL0     N82714   8.224   1.901   8.156  0.3632 -0.0519  0.0310
  600MOL0     C82715   7.126   2.116   8.330 -0.3081  0.0061 -0.1318
  600MOL0     C82716   6.987   2.086   8.328  0.7217  0.7633  0.2852
  600MOL0     C82717   6.543   2.145   8.233  0.0684  0.6315  0.2826
  600MOL0     C82718   6.492   2.052   8.328  0.8244  0.1011  0.2844
  600MOL0     C82719   6.354   2.053   8.350 -0.8474  0.9369 -0.7376
  600MOL0     C82720   6.268   2.113   8.266  0.2476  0.4534  1.2156
  600MOL0     O82721   6.139   2.088   8.297  0.1043 -0.0084 -0.6875
  600MOL0     C82722   6.041   2.179   8.235  0.2269 -0.2131  0.1314
  600MOL0     C82723   5.991   2.117   8.098  0.6970 -0.4646 -0.5019
  600MOL0     C82724   5.856   2.168   8.050 -0.4814 -0.0443  0.4441
  600MOL0     C82725   5.846   2.330   8.026 -0.6674  0.2319 -0.1466
  600MOL0     C82726   5.942   2.370   7.919  0.3312 -0.4077  0.1023
  600MOL0     C82727   6.022   2.405   7.830  0.0866  0.2667  0.0302
  600MOL0     C82728   6.319   2.187   8.154 -0.8896  0.3194 -0.5184
  600MOL0     C82729   6.456   2.208   8.142 -0.2671 -0.8248  0.1565
  600MOL0     C82730   6.501   2.302   8.025 -0.2484  1.0641 -0.4939
  600MOL0     H82731   6.856   2.399   8.346 -1.4339 -1.1218 -1.5820
  600MOL0     H82732   7.104   2.457   8.351 -0.9747  0.6812 -1.4853
  600MOL0     H82733   7.339   2.447   8.414  0.7413  1.8014 -1.3528
  600MOL0     H82734   7.344   2.434   8.234 -1.3198  0.8849  0.0607
  600MOL0     H82735   7.574   2.476   8.319 -0.2292 -0.0577  2.8781
  600MOL0     H82736   7.565   2.348   8.438 -1.7670 -1.2960  1.1200
  600MOL0     H82737   7.556   2.173   8.270  0.1808  0.2672  0.1404
  600MOL0     H82738   7.552   2.293   8.144  2.0352 -2.2206 -1.8470
  600MOL0     H82739   7.777   2.344   8.146 -0.2582  4.0522  2.9804
  600MOL0     H82740   7.791   2.333   8.319 -0.6524  1.1549 -0.4236
  600MOL0     H82741   7.745   2.094   8.308  0.6410  1.0013  1.0905
  600MOL0     H82742   7.904   2.165   8.272 -0.4178  0.3333  2.2048
  600MOL0     H82743   7.697   2.045   8.078  1.0859 -3.5860 -1.5565
  600MOL0     H82744   7.826   2.162   8.032 -0.1536 -0.0786 -0.0996
  600MOL0     H82745   7.872   1.890   8.008 -1.3783 -1.6796  1.6897
  600MOL0     H82746   7.909   1.898   8.174 -0.9273  2.9802  1.7995
  600MOL0     H82747   8.041   2.057   7.931 -1.6455  1.1169  0.0658
  600MOL0     H82748   8.077   2.100   8.100  1.8276  0.0574 -2.4228
  600MOL0     H82749   8.103   1.783   7.877 -0.1053  0.9306  0.2215
  600MOL0     H82750   8.272   1.608   7.848 -0.2710  0.4144 -1.1595
  600MOL0     H82751   8.274   1.523   7.996  3.3053 -0.6502  0.3372
  600MOL0     H82752   8.476   1.582   8.058 -0.7735 -0.2849 -0.1581
  600MOL0     H82753   8.483   1.486   7.901  0.4832  1.0053 -1.8162
  600MOL0     H82754   8.506   1.793   7.906  0.8765  1.5009 -2.9151
  600MOL0     H82755   8.639   1.694   7.953  0.5878  0.4501 -0.3282
  600MOL0     H82756   8.651   1.590   7.749  1.6429  0.9498  2.1120
  600MOL0     H82757   8.496   1.670   7.690  0.1506 -0.1485  0.3993
  600MOL0     H82758   8.590   1.627   7.500  0.3765  1.8598  5.7664
  600MOL0     H82759   8.492   1.574   7.291  2.0066 -1.5721 -0.6078
  600MOL0     H82760   8.615   1.598   7.167 -0.7400  1.5778 -1.8506
  600MOL0     H82761   8.474   1.695   7.153  2.4360  0.8246 -0.6673
  600MOL0     H82762   8.680   2.309   7.112 -2.0594  0.4300 -0.1713
  600MOL0     H82763   8.737   2.441   6.925  0.2451 -0.7762  1.3570
  600MOL0     H82764   8.801   2.555   6.730  0.3390  1.4980  0.7343
  600MOL0     H82765   8.956   2.453   6.759 -0.0893  2.5674  0.2462
  600MOL0     H82766   8.996   2.459   6.536  1.5234  0.3498  0.4611
  600MOL0     H82767   8.838   2.548   6.491 -3.3018  3.6217  4.0750
  600MOL0     H82768   9.062   2.661   6.656 -0.3543 -4.8229  0.9690
  600MOL0     H82769   8.921   2.739   6.581  0.0680 -0.9274  0.5771
  600MOL0     H82770   9.061   2.818   6.438 -0.1500  0.7512  0.6725
  600MOL0     H82771   9.034   2.660   6.364 -0.6581  0.1061  0.6092
  600MOL0     H82772   9.252   2.711   6.569 -2.2449 -0.6244  0.6676
  600MOL0     H82773   9.240   2.569   6.477  1.4058 -0.6923 -0.4776
  600MOL0     H82774   9.253   2.721   6.274 -0.1286 -0.3862  0.0630
  600MOL0     H82775   9.395   2.682   6.364 -1.1020 -2.0840  0.6350
  600MOL0     H82776   9.418   2.892   6.479  0.3951  2.8057 -0.7101
  600MOL0     H82777   9.260   2.944   6.431  1.5701  3.2044 -2.1320
  600MOL0     H82778   9.487   2.914   6.253  0.8338  0.3604  0.6647
  600MOL0     H82779   9.447   3.059   6.325 -1.5706  1.6500 -2.2621
  600MOL0     H82780   8.745   2.098   6.675 -0.9491 -0.2347  0.8613
  600MOL0     H82781   8.715   1.959   6.860  0.2853 -1.0520  0.3408
  600MOL0     H82782   8.729   2.075   7.345  1.5946 -0.9820 -2.8888
  600MOL0     H82783   8.745   2.014   7.588  0.1017  1.1105 -0.8353
  600MOL0     H82784   7.195   2.031   8.330 -0.6479 -0.2746  0.3285
  600MOL0     H82785   6.942   1.987   8.331  0.0031  1.0723  0.0983
  600MOL0     H82786   6.557   2.009   8.404  1.7917  0.6581 -0.2054
  600MOL0     H82787   6.327   1.998   8.440 -1.0058  0.5685 -1.0112
  600MOL0     H82788   5.956   2.189   8.303  0.7574  1.9839  0.5494
  600MOL0     H82789   6.078   2.281   8.223  3.3431 -0.8131  2.9949
  600MOL0     H82790   5.969   2.011   8.112  0.1734 -0.3894 -0.7083
  600MOL0     H82791   6.071   2.138   8.026  1.2189  1.7912  0.6341
  600MOL0     H82792   5.838   2.113   7.957 -2.4411 -0.9385  1.2950
  600MOL0     H82793   5.773   2.145   8.117 -1.5288  3.1317  0.4092
  600MOL0     H82794   5.849   2.387   8.120 -1.7028  0.4953 -0.2590
  600MOL0     H82795   5.752   2.357   7.976  0.9694 -0.5949 -4.0047
  600MOL0     H82796   6.076   2.437   7.743  0.6499  1.3551  0.7557
  600MOL0     H82797   6.256   2.236   8.080 -2.7514 -0.3284  0.5621
  600MOL0     H82798   6.417   2.361   7.988 -1.2256  0.2499  0.3460
  600MOL0     H82799   6.572   2.374   8.067  2.0192 -0.4936 -1.4889
  600MOL0     H82800   6.556   2.247   7.949 -1.9202 -0.0451 -0.9603
  601MOL0     O82801   4.157   4.253   5.804 -0.2048  0.1980  0.1077
  601MOL0     C82802   4.098   4.145   5.801  0.3970 -0.0643  0.4496
  601MOL0     O82803   4.160   4.025   5.802 -0.3144  0.9288  0.3150
  601MOL0     C82804   4.299   4.023   5.801  0.1994  0.3369 -0.0731
  601MOL0     C82805   4.373   4.086   5.904  0.6861 -0.3399  0.1277
  601MOL0     C82806   4.509   4.074   5.905  0.6742 -1.3069 -0.1008
  601MOL0     C82807   4.571   4.000   5.809 -0.3409  0.8750 -0.3279
  601MOL0     O82808   4.703   3.990   5.823 -0.6971  0.0082  0.0825
  601MOL0     C82809   4.777   3.881   5.760  0.6976 -0.3883 -0.3250
  601MOL0     C82810   4.918   3.861   5.834 -0.2247 -0.2864  0.2744
  601MOL0     C82811   5.012   3.771   5.758 -0.8839  0.5489 -0.1877
  601MOL0     C82812   5.150   3.754   5.828  0.1649 -0.3098 -0.4646
  601MOL0     C82813   5.262   3.691   5.739 -0.5579  0.8497  0.5776
  601MOL0     C82814   5.386   3.680   5.825 -0.5039  0.6040  0.9735
  601MOL0     C82815   5.515   3.633   5.743  0.2751 -0.1034  0.6423
  601MOL0     C82816   5.511   3.484   5.700 -0.0592  0.8489  0.8152
  601MOL0     N82817   5.566   3.391   5.794  0.0395  0.0886 -0.5155
  601MOL0     C82818   5.681   3.320   5.779  0.2051 -0.0523 -0.4400
  601MOL0     C82819   5.687   3.242   5.891 -0.2831 -0.0832 -0.0256
  601MOL0     C82820   5.804   3.171   5.929  0.2395  0.5705 -0.1828
  601MOL0     C82821   5.866   3.072   5.823  0.8674  0.7162 -0.4334
  601MOL0     C82822   6.001   3.025   5.873  0.5482  0.2583 -0.6770
  601MOL0     C82823   5.989   2.955   6.012  0.5399  1.5261  0.2781
  601MOL0     O82824   6.115   2.908   6.056 -0.8803 -0.1560  0.1121
  601MOL0     C82825   6.161   2.799   5.981  0.2925  0.1626 -0.1082
  601MOL0     C82826   6.104   2.667   6.006 -0.7329 -0.3529  0.3617
  601MOL0     C82827   6.144   2.556   5.926  1.1629 -0.7391  0.0850
  601MOL0     C82828   6.063   2.432   5.932 -0.7954 -0.4589  0.2879
  601MOL0     C82829   6.255   2.581   5.843 -0.0086  0.2363  0.5061
  601MOL0     C82830   6.327   2.479   5.762  0.5749  0.1413 -0.8222
  601MOL0     O82831   6.465   2.481   5.759 -0.3168 -0.2913  0.0580
  601MOL0     C82832   6.535   2.401   5.668  0.1248 -0.5775 -0.1230
  601MOL0     C82833   6.651   2.454   5.609  0.7555  0.1193 -0.3157
  601MOL0     C82834   6.736   2.380   5.528 -0.1243  0.8267  0.4400
  601MOL0     C82835   6.705   2.248   5.511 -0.2064 -0.1770  0.8183
  601MOL0     O82836   6.795   2.174   5.434  0.2715  0.1433 -0.2285
  601MOL0     C82837   6.761   2.048   5.378  0.1564  0.2591 -0.5763
  601MOL0     C82838   6.880   2.002   5.280 -0.0030 -0.4564 -0.2668
  601MOL0     C82839   7.015   1.985   5.352  1.0825 -0.8332  0.8311
  601MOL0     C82840   7.124   1.934   5.256  0.4146  0.4688  0.0368
  601MOL0     C82841   7.270   1.959   5.296  1.1068  0.1362 -0.0326
  601MOL0     C82842   7.368   1.874   5.211 -0.0392 -0.3853  0.8681
  601MOL0     C82843   7.500   1.850   5.282  0.2449 -0.0194  0.0447
  601MOL0     C82844   7.615   1.836   5.183 -0.9655 -0.5875  0.1907
  601MOL0    Cl82845   7.597   1.690   5.084 -0.6466  0.6959 -0.1868
  601MOL0     C82846   6.587   2.194   5.565 -0.7247 -0.1712 -0.1883
  601MOL0     C82847   6.503   2.266   5.653  0.1472 -0.0958  0.4066
  601MOL0     O82848   6.261   2.415   5.682  0.0518  0.7278  0.5209
  601MOL0     C82849   6.315   2.710   5.830  0.7032  0.3256 -0.0203
  601MOL0     C82850   6.269   2.814   5.904  0.2140 -0.0855 -0.2052
  601MOL0     N82851   5.574   3.269   5.966 -0.2226  0.1107  0.1426
  601MOL0     N82852   5.503   3.355   5.904  0.2438  0.7669  0.1429
  601MOL0     C82853   4.501   3.921   5.727  0.6468  0.4786  1.0228
  601MOL0     C82854   4.361   3.931   5.715  0.1577  0.8356  0.5115
  601MOL0     C82855   3.948   4.145   5.800 -1.1832 -0.3699 -0.0555
  601MOL0     C82856   3.883   4.089   5.915 -0.1639  0.8342 -0.6632
  601MOL0     C82857   3.743   4.086   5.931 -1.2112 -0.2190 -0.3622
  601MOL0     C82858   3.669   4.167   5.850  0.3562 -0.8167  0.1826
  601MOL0     O82859   3.535   4.189   5.867 -0.5086 -0.1127 -0.0995
  601MOL0     C82860   3.445   4.099   5.922  0.7115  0.2669  0.4677
  601MOL0     C82861   3.303   4.136   5.880 -0.6810 -0.4639  0.4697
  601MOL0     C82862   3.278   4.101   5.736  0.0264  0.0814 -0.2421
  601MOL0     C82863   3.150   4.155   5.671 -0.6420 -0.5565  0.7349
  601MOL0     C82864   3.031   4.139   5.754 -0.1218  0.0869 -0.2493
  601MOL0     C82865   2.938   4.115   5.823 -0.3336  0.0781 -0.0940
  601MOL0     C82866   3.731   4.225   5.741 -0.0207 -1.1678 -0.1123
  601MOL0     C82867   3.866   4.219   5.714 -0.7537  0.3988 -0.6272
  601MOL0     C82868   3.927   4.298   5.598  1.1753  0.3870  0.8009
  601MOL0     H82869   4.328   4.151   5.979 -0.6467  0.0808 -0.9927
  601MOL0     H82870   4.567   4.136   5.973  0.4445  1.0760 -1.9497
  601MOL0     H82871   4.791   3.896   5.653  1.1009 -0.4437 -0.2824
  601MOL0     H82872   4.714   3.792   5.768  0.4923 -0.1192  1.7172
  601MOL0     H82873   4.965   3.958   5.853 -1.3594 -0.0754  2.2529
  601MOL0     H82874   4.890   3.807   5.925 -1.1124 -2.3809 -1.1412
  601MOL0     H82875   4.974   3.674   5.725 -2.6351  1.1176  0.0817
  601MOL0     H82876   5.034   3.825   5.665 -0.6234 -0.0835 -0.4951
  601MOL0     H82877   5.186   3.849   5.868  0.3906 -0.0192 -1.3514
  601MOL0     H82878   5.137   3.686   5.913  2.1499  0.0384  0.1687
  601MOL0     H82879   5.275   3.744   5.644 -1.2197 -2.8043 -1.7952
  601MOL0     H82880   5.234   3.590   5.707  0.0505  0.0533  2.4522
  601MOL0     H82881   5.414   3.781   5.855 -0.6640  0.5128  1.4497
  601MOL0     H82882   5.362   3.617   5.911 -0.4289 -2.3313 -1.0128
  601MOL0     H82883   5.609   3.644   5.798  2.7075 -4.1187 -2.1522
  601MOL0     H82884   5.514   3.702   5.658 -0.6183  1.0886  1.5914
  601MOL0     H82885   5.417   3.437   5.669  1.7509 -1.5149 -1.4655
  601MOL0     H82886   5.577   3.482   5.613 -2.8626  3.3283 -1.6284
  601MOL0     H82887   5.762   3.328   5.706  2.4911 -1.2140  1.8252
  601MOL0     H82888   5.772   3.115   6.017  0.6699 -1.5467 -1.3085
  601MOL0     H82889   5.886   3.241   5.950  1.6200 -0.5245 -1.6182
  601MOL0     H82890   5.794   2.992   5.804  0.4979  0.6478  1.1420
  601MOL0     H82891   5.875   3.118   5.725 -2.8979  3.0126  0.1400
  601MOL0     H82892   6.036   2.950   5.802 -1.3656 -0.7729 -0.5996
  601MOL0     H82893   6.069   3.111   5.878  1.4013 -0.4780  0.9190
  601MOL0     H82894   5.945   3.034   6.074 -0.2492  0.1376  1.5348
  601MOL0     H82895   5.922   2.869   6.001  2.5346  0.0199 -0.9222
  601MOL0     H82896   6.024   2.659   6.079 -2.7285 -1.0875 -1.7724
  601MOL0     H82897   5.969   2.437   5.987 -0.1244  0.6029  1.3988
  601MOL0     H82898   6.136   2.365   5.978 -0.3818 -0.2687 -0.0757
  601MOL0     H82899   6.029   2.398   5.833 -3.0027  0.9743  0.4890
  601MOL0     H82900   6.672   2.559   5.626 -0.2185  0.7670 -2.7130
  601MOL0     H82901   6.826   2.413   5.478  0.0189 -2.0181 -1.4285
  601MOL0     H82902   6.755   1.981   5.464  0.9540 -1.2318 -1.6487
  601MOL0     H82903   6.662   2.041   5.331  0.4719 -1.5207 -1.0497
  601MOL0     H82904   6.867   1.897   5.251  0.7656 -0.1973 -1.5963
  601MOL0     H82905   6.882   2.062   5.190 -0.2758 -0.1212 -0.0526
  601MOL0     H82906   7.003   1.920   5.440  0.4269  0.7979  2.0105
  601MOL0     H82907   7.046   2.080   5.397 -0.6540 -0.7047  1.8452
  601MOL0     H82908   7.112   1.985   5.160 -0.1965  1.5787  0.6914
  601MOL0     H82909   7.106   1.829   5.231 -2.4909  0.4836  1.6643
  601MOL0     H82910   7.299   2.065   5.297  1.7107 -0.0074  1.4277
  601MOL0     H82911   7.286   1.933   5.401  1.9328  1.8727  0.3168
  601MOL0     H82912   7.397   1.929   5.121  3.0057 -1.0524  1.3431
  601MOL0     H82913   7.335   1.771   5.194  2.0577 -1.0743  0.7566
  601MOL0     H82914   7.488   1.760   5.343  1.4453  0.3725  0.8922
  601MOL0     H82915   7.520   1.938   5.344  0.9474 -0.8181  0.9781
  601MOL0     H82916   7.711   1.838   5.236  0.0476 -3.1486 -1.3634
  601MOL0     H82917   7.624   1.920   5.113  0.4598 -1.1986 -0.4004
  601MOL0     H82918   6.579   2.088   5.547 -0.3180 -0.3681  0.7363
  601MOL0     H82919   6.427   2.213   5.710 -0.0232 -0.8681 -0.5185
  601MOL0     H82920   6.400   2.708   5.762  0.6784 -1.5857 -0.0590
  601MOL0     H82921   6.319   2.911   5.907 -2.9384  1.6726  1.1578
  601MOL0     H82922   4.548   3.861   5.649 -0.2529  0.8833  0.1545
  601MOL0     H82923   4.306   3.879   5.637 -0.9993  2.1432  0.4194
  601MOL0     H82924   3.943   4.040   5.991 -1.1555 -0.5532 -0.7351
  601MOL0     H82925   3.701   4.048   6.024 -0.7843 -2.3719 -0.9958
  601MOL0     H82926   3.478   4.002   5.885  0.0956 -0.6559  2.2388
  601MOL0     H82927   3.443   4.099   6.032 -0.9806 -0.7029  0.4777
  601MOL0     H82928   3.286   4.243   5.894  1.8552  0.1213 -0.4223
  601MOL0     H82929   3.233   4.080   5.942 -1.5187 -1.3841 -1.2304
  601MOL0     H82930   3.351   4.135   5.663 -1.5387 -2.0222 -2.9811
  601MOL0     H82931   3.283   3.992   5.736  2.5895  0.1143  1.6515
  601MOL0     H82932   3.134   4.110   5.573 -0.4220 -0.5997  0.7190
  601MOL0     H82933   3.162   4.263   5.654  0.5604 -1.0536 -2.1978
  601MOL0     H82934   2.860   4.080   5.887  1.4704 -1.2322  1.5150
  601MOL0     H82935   3.650   4.257   5.676  1.1849 -0.6534 -1.4198
  601MOL0     H82936   3.857   4.330   5.520  0.9200  0.5450  1.0950
  601MOL0     H82937   3.967   4.392   5.636 -0.6910  0.5863  2.4345
  601MOL0     H82938   4.009   4.240   5.553  0.7714  2.3292 -2.8438
  602MOL0     O82939   9.038   7.427  11.231  0.1604  0.3653 -0.1317
  602MOL0     C82940   9.027   7.313  11.186 -0.2760 -0.2211 -0.9549
  602MOL0     O82941   9.128   7.223  11.160 -0.3301  0.4034 -0.6618
  602MOL0     C82942   9.255   7.275  11.155 -1.3676  0.2189  0.3774
  602MOL0     C82943   9.329   7.228  11.047  0.1785 -0.6269 -0.3713
  602MOL0     C82944   9.468   7.259  11.038  0.1108  0.0338 -0.6971
  602MOL0     C82945   9.532   7.318  11.143  1.3201 -0.1391  0.1095
  602MOL0     O82946   9.665   7.322  11.140 -0.0355 -0.3626  0.0717
  602MOL0     C82947   9.735   7.368  11.258  0.8362 -0.3553 -0.2631
  602MOL0     C82948   9.893   7.369  11.242 -0.4853 -0.5338  0.2733
  602MOL0     C82949   9.958   7.222  11.230  0.4376  0.6633 -0.5732
  602MOL0     C82950  10.110   7.209  11.218 -0.2413  0.0275 -0.9305
  602MOL0     C82951  10.148   7.058  11.220  0.2220 -0.0372  0.2108
  602MOL0     C82952  10.266   7.001  11.138 -0.1374  0.2052  0.0463
  602MOL0     C82953  10.394   7.072  11.175  0.1389  1.3648 -0.1917
  602MOL0     C82954  10.509   7.016  11.100 -0.4660  0.0582  0.2314
  602MOL0     N82955  10.638   7.072  11.148 -0.4816  0.5831  1.0282
  602MOL0     C82956  10.711   7.008  11.245 -1.0515 -0.9601 -1.3925
  602MOL0     C82957  10.828   7.072  11.241  0.4616 -0.1688 -0.1613
  602MOL0     C82958  10.933   7.060  11.347  0.4165 -0.1854  0.8572
  602MOL0     C82959  10.873   7.094  11.485  0.6249  0.5623 -0.4452
  602MOL0     C82960  10.827   7.243  11.489  0.2788 -0.5466 -0.5221
  602MOL0     C82961  10.951   7.339  11.504  0.0688 -0.2889 -0.1786
  602MOL0     O82962  11.017   7.330  11.641  0.7359  0.2015  0.0106
  602MOL0     C82963  11.149   7.370  11.644 -0.5083 -0.6123 -1.0246
  602MOL0     C82964  11.211   7.345  11.762  0.3604 -0.6741  0.3042
  602MOL0     C82965  11.356   7.362  11.775 -0.6898  0.2155 -0.9671
  602MOL0     C82966  11.408   7.335  11.917 -0.5447 -0.5257 -0.3772
  602MOL0     C82967  11.439   7.413  11.662  0.2314  0.1830 -0.2921
  602MOL0     C82968  11.591   7.434  11.651  0.1181 -1.1442  0.6470
  602MOL0     O82969  11.665   7.373  11.743  0.0939 -0.4644 -0.7379
  602MOL0     C82970  11.799   7.375  11.719 -0.6292 -0.2726  0.2066
  602MOL0     C82971  11.877   7.481  11.747 -0.2633  0.5629  0.2365
  602MOL0     C82972  12.012   7.496  11.716 -0.4963  0.0189 -0.1421
  602MOL0     C82973  12.081   7.389  11.646  0.3797 -0.1826 -0.5270
  602MOL0     O82974  12.209   7.406  11.616 -0.4318 -0.2132  0.9517
  602MOL0     C82975  12.283   7.292  11.574 -0.6900  0.8182 -0.1538
  602MOL0     C82976  12.334   7.207  11.698 -0.7018  0.5473 -0.0790
  602MOL0     C82977  12.432   7.277  11.796 -0.2449  0.3645  0.8362
  602MOL0     C82978  12.572   7.314  11.736  0.7991 -0.1529  0.0622
  602MOL0     C82979  12.655   7.387  11.838 -0.0716 -0.4737 -0.7602
  602MOL0     C82980  12.780   7.465  11.778  0.7693 -0.3852 -0.5920
  602MOL0     C82981  12.871   7.375  11.686  0.4024  0.2175 -0.3396
  602MOL0     C82982  12.934   7.260  11.765  0.9598 -0.3985 -0.1022
  602MOL0    Cl82983  13.052   7.337  11.866 -0.1822 -0.0314 -0.0869
  602MOL0     C82984  12.003   7.266  11.648 -0.7560  0.5866 -0.0530
  602MOL0     C82985  11.870   7.260  11.682  0.7284 -0.0622 -0.3312
  602MOL0     O82986  11.631   7.506  11.560 -0.4046 -0.3563  0.3997
  602MOL0     C82987  11.366   7.432  11.548  0.2698 -0.1235  0.1255
  602MOL0     C82988  11.230   7.424  11.538  0.9439  0.5897 -0.8391
  602MOL0     N82989  10.829   7.169  11.138 -0.2850 -0.1444  0.2946
  602MOL0     N82990  10.709   7.170  11.082 -0.3488 -0.2709  0.8080
  602MOL0     C82991   9.452   7.379  11.245 -0.5195 -0.2184  0.3552
  602MOL0     C82992   9.322   7.345  11.257 -0.0457 -0.4274  0.4981
  602MOL0     C82993   8.886   7.264  11.181 -0.0726  0.2352  0.2566
  602MOL0     C82994   8.803   7.295  11.292 -0.2966 -0.7197 -1.1864
  602MOL0     C82995   8.667   7.259  11.289  0.3245 -0.2252 -0.2152
  602MOL0     C82996   8.616   7.193  11.183 -0.1358 -0.0103  0.7879
  602MOL0     O82997   8.482   7.170  11.183  0.2984  0.5646  0.1395
  602MOL0     C82998   8.419   7.114  11.066 -0.8321  0.9513 -0.7480
  602MOL0     C82999   8.272   7.088  11.094 -0.1525  0.5646  0.7448
  602MOL0     C83000   8.243   6.987  11.205  0.4566 -0.3530 -0.1225
  602MOL0     C83001   8.097   6.959  11.210  0.4904 -0.9446 -0.0762
  602MOL0     C83002   8.058   6.935  11.353  0.1342 -0.3989  0.0350
  602MOL0     C83003   7.996   6.924  11.459 -0.2523  0.4980  0.2240
  602MOL0     C83004   8.703   7.165  11.073  0.3370 -0.6034 -0.3951
  602MOL0     C83005   8.837   7.199  11.064 -0.0935  0.3615 -0.4309
  602MOL0     C83006   8.930   7.159  10.942  0.0366  0.4752  0.4992
  602MOL0     H83007   9.277   7.174  10.968  2.6810 -3.3253 -0.3699
  602MOL0     H83008   9.532   7.216  10.962  3.5365  3.8938 -0.3166
  602MOL0     H83009   9.706   7.307  11.344 -1.1273 -2.9282 -2.5439
  602MOL0     H83010   9.699   7.470  11.275 -0.4729 -0.3469 -2.6112
  602MOL0     H83011   9.914   7.434  11.157 -3.0734 -1.2881 -1.0228
  602MOL0     H83012   9.941   7.426  11.322  3.1146 -0.1998 -1.8849
  602MOL0     H83013   9.937   7.157  11.315  1.8668 -0.7993 -1.2784
  602MOL0     H83014   9.916   7.170  11.143 -1.1107  1.9209 -0.6329
  602MOL0     H83015  10.138   7.242  11.118 -2.8242 -0.6155 -1.9412
  602MOL0     H83016  10.170   7.264  11.291  1.1282 -0.4404 -1.6603
  602MOL0     H83017  10.062   7.007  11.175 -1.9571  0.6188  3.3611
  602MOL0     H83018  10.147   7.033  11.326 -0.9075  1.9330  0.7144
  602MOL0     H83019  10.266   6.892  11.150  1.4930  0.2425  0.5838
  602MOL0     H83020  10.249   7.012  11.030  0.3597 -2.7894 -0.4118
  602MOL0     H83021  10.412   7.067  11.283  3.9183  0.1989 -0.7572
  602MOL0     H83022  10.386   7.180  11.160  0.0012  1.7390  2.1849
  602MOL0     H83023  10.509   6.907  11.110 -0.1368  0.2309  2.5159
  602MOL0     H83024  10.501   7.048  10.996  0.8987 -0.1028  0.0554
  602MOL0     H83025  10.678   6.935  11.317  0.5935 -0.8516 -0.4770
  602MOL0     H83026  11.017   7.127  11.330 -1.7070  2.6082  0.7878
  602MOL0     H83027  10.972   6.958  11.351 -0.1484 -0.4224  0.4842
  602MOL0     H83028  10.779   7.039  11.491  0.9037  0.1705  0.4409
  602MOL0     H83029  10.938   7.081  11.572  0.1945 -0.9999 -0.3275
  602MOL0     H83030  10.769   7.267  11.399 -1.3011 -0.7416  0.4024
  602MOL0     H83031  10.761   7.257  11.575  0.1432 -2.1426 -0.3332
  602MOL0     H83032  11.019   7.320  11.420 -0.6079 -1.1662 -0.5459
  602MOL0     H83033  10.934   7.446  11.494  0.4250 -0.1185  0.9414
  602MOL0     H83034  11.153   7.315  11.849  0.8474 -0.9914  0.5256
  602MOL0     H83035  11.364   7.405  11.990  0.4988  0.7087 -0.8948
  602MOL0     H83036  11.517   7.343  11.921 -0.2518 -2.2138 -2.9526
  602MOL0     H83037  11.394   7.231  11.948 -1.7310 -0.4741 -0.6984
  602MOL0     H83038  11.822   7.568  11.781 -2.9941 -1.2666  0.8143
  602MOL0     H83039  12.058   7.586  11.755 -0.2336 -0.4178  0.5739
  602MOL0     H83040  12.232   7.219  11.509  0.3815 -0.8187  0.7703
  602MOL0     H83041  12.366   7.325  11.511 -0.5839 -1.2535 -1.1995
  602MOL0     H83042  12.243   7.182  11.754 -0.1497  2.6206  1.9132
  602MOL0     H83043  12.377   7.113  11.662  0.2824  0.8119  0.3783
  602MOL0     H83044  12.444   7.205  11.877  0.1479  0.3704  0.7876
  602MOL0     H83045  12.395   7.370  11.839 -1.1355  0.1190  0.6144
  602MOL0     H83046  12.566   7.376  11.646 -0.5675 -0.9534 -0.4235
  602MOL0     H83047  12.617   7.217  11.712 -1.6622 -2.0185  2.3775
  602MOL0     H83048  12.595   7.462  11.889  0.3056 -0.5693 -0.1681
  602MOL0     H83049  12.678   7.314  11.916  1.7214 -1.5662 -2.1972
  602MOL0     H83050  12.834   7.515  11.859 -2.0681  1.0328  0.5558
  602MOL0     H83051  12.734   7.546  11.720  1.2369  0.1185 -0.2649
  602MOL0     H83052  12.951   7.431  11.636  0.4405  0.5918  0.1301
  602MOL0     H83053  12.808   7.333  11.607  0.0572  2.1096 -1.1408
  602MOL0     H83054  12.987   7.198  11.692  4.2392  1.7991  0.2216
  602MOL0     H83055  12.857   7.208  11.825 -0.1308  2.2855  0.9695
  602MOL0     H83056  12.043   7.167  11.628 -2.5987 -0.1891 -0.0925
  602MOL0     H83057  11.821   7.164  11.668 -2.2902  1.4238 -0.8470
  602MOL0     H83058  11.412   7.464  11.456  0.6343 -1.2264 -0.0876
  602MOL0     H83059  11.176   7.446  11.447  0.2256  2.4288 -0.0183
  602MOL0     H83060   9.497   7.445  11.318  0.6339  0.3233 -0.7879
  602MOL0     H83061   9.279   7.389  11.346 -0.6122  0.5702 -0.2554
  602MOL0     H83062   8.847   7.352  11.373  0.4270 -0.1230 -1.9679
  602MOL0     H83063   8.601   7.277  11.373  1.6759  1.1443  0.6151
  602MOL0     H83064   8.431   7.194  10.993  1.2732  0.8588 -0.5610
  602MOL0     H83065   8.464   7.020  11.034  0.1770  1.3840 -0.6175
  602MOL0     H83066   8.242   7.053  10.995  3.9870  1.3676 -1.0165
  602MOL0     H83067   8.217   7.181  11.116 -0.7914  1.1061 -2.5499
  602MOL0     H83068   8.289   6.890  11.184 -0.5249 -1.0959  1.0660
  602MOL0     H83069   8.283   7.026  11.299  0.4502  1.6625 -0.9045
  602MOL0     H83070   8.070   6.879  11.141  0.6444 -1.4644  0.4522
  602MOL0     H83071   8.055   7.054  11.176  3.9092  0.6701 -0.2139
  602MOL0     H83072   7.952   6.924  11.557  0.3367  2.1692  0.5143
  602MOL0     H83073   8.665   7.137  10.976 -0.5283  1.2847 -0.6448
  602MOL0     H83074   9.009   7.232  10.921  1.2921 -1.3436 -1.5030
  602MOL0     H83075   8.987   7.068  10.959 -0.0961  0.3798  0.4305
  602MOL0     H83076   8.870   7.154  10.851 -0.4589 -0.1419  0.8584
  603MOL0     O83077   3.398   7.303   6.799 -0.2738 -0.0508  0.0038
  603MOL0     C83078   3.313   7.389   6.793  0.1045  0.1481 -0.1515
  603MOL0     O83079   3.333   7.523   6.799 -1.1430  0.6176 -0.2314
  603MOL0     C83080   3.464   7.565   6.812  0.8211 -0.2840 -0.4119
  603MOL0     C83081   3.529   7.620   6.705 -0.2905 -0.3955 -1.1684
  603MOL0     C83082   3.665   7.665   6.711  0.1039 -0.1765 -0.4919
  603MOL0     C83083   3.735   7.637   6.823 -0.0612  0.1882 -0.0452
  603MOL0     O83084   3.865   7.677   6.828 -0.5844  0.4823 -0.9471
  603MOL0     C83085   3.931   7.684   6.957 -0.0213  0.2328 -0.0499
  603MOL0     C83086   4.084   7.722   6.959 -0.1469  0.4919 -0.0196
  603MOL0     C83087   4.169   7.643   6.859 -0.2704  0.2231  0.5646
  603MOL0     C83088   4.321   7.674   6.889  0.3744 -0.9444  0.7168
  603MOL0     C83089   4.423   7.605   6.800 -0.4478 -0.8848 -0.7866
  603MOL0     C83090   4.568   7.648   6.834 -0.7293 -0.1477  0.3606
  603MOL0     C83091   4.675   7.551   6.767  0.4138  0.6469 -0.3317
  603MOL0     C83092   4.820   7.591   6.799 -0.7792  0.1075  0.4584
  603MOL0     N83093   4.909   7.509   6.713 -0.1947  0.6305 -0.0024
  603MOL0     C83094   4.927   7.546   6.582 -0.7189 -0.5474 -0.0153
  603MOL0     C83095   4.965   7.436   6.520  0.6385  0.9714  0.6674
  603MOL0     C83096   5.000   7.433   6.379 -1.4062  0.1440  0.4879
  603MOL0     C83097   5.145   7.495   6.375 -0.9081 -0.1840 -1.1727
  603MOL0     C83098   5.250   7.408   6.449 -0.2030 -0.2941 -0.6277
  603MOL0     C83099   5.389   7.446   6.400 -0.4722 -0.3108 -0.1079
  603MOL0     O83100   5.483   7.393   6.492 -0.2919 -1.1810 -0.2801
  603MOL0     C83101   5.620   7.409   6.461 -0.2660  0.5405  0.2327
  603MOL0     C83102   5.670   7.496   6.368  0.3699 -0.1724  0.6900
  603MOL0     C83103   5.804   7.504   6.343  0.1492  0.5324 -0.0747
  603MOL0     C83104   5.853   7.617   6.257 -0.1405  0.2297 -0.7293
  603MOL0     C83105   5.892   7.405   6.389 -0.8407 -0.5297 -0.2625
  603MOL0     C83106   6.032   7.386   6.347  0.7424 -0.0869 -0.4906
  603MOL0     O83107   6.113   7.338   6.444  0.2983 -0.4503  0.2083
  603MOL0     C83108   6.234   7.289   6.399 -0.3831 -0.0661 -0.0343
  603MOL0     C83109   6.344   7.376   6.415 -0.0174 -0.2876  0.1849
  603MOL0     C83110   6.475   7.336   6.383  0.0455 -0.1058  0.4177
  603MOL0     C83111   6.489   7.205   6.335  0.1452 -0.7230  0.0182
  603MOL0     O83112   6.609   7.149   6.312  0.2113 -0.0103 -0.4687
  603MOL0     C83113   6.736   7.217   6.333  0.5085 -0.4092 -0.3214
  603MOL0     C83114   6.842   7.110   6.348  0.1062  0.0615 -0.0523
  603MOL0     C83115   6.977   7.168   6.354 -0.3550  0.8939 -0.0123
  603MOL0     C83116   7.092   7.054   6.348  0.4321  0.4116  0.3786
  603MOL0     C83117   7.234   7.096   6.391 -0.0320  0.0017  0.3047
  603MOL0     C83118   7.336   6.979   6.372 -0.0983 -0.2123  0.1037
  603MOL0     C83119   7.485   7.025   6.382 -0.5380 -0.5621 -0.9598
  603MOL0     C83120   7.587   6.912   6.366  0.4962 -0.1416  0.5433
  603MOL0    Cl83121   7.747   6.992   6.386 -0.0087  0.0985 -0.1567
  603MOL0     C83122   6.379   7.118   6.312  0.5058 -0.2323 -0.4319
  603MOL0     C83123   6.250   7.159   6.346  0.1937  0.5293 -0.0744
  603MOL0     O83124   6.073   7.422   6.238 -0.0636 -0.2619  0.4816
  603MOL0     C83125   5.842   7.314   6.479  0.1951  0.3035 -0.2834
  603MOL0     C83126   5.704   7.308   6.509 -0.3982  0.5108  0.2847
  603MOL0     N83127   4.959   7.332   6.606  0.5089  0.6216 -0.1019
  603MOL0     N83128   4.930   7.373   6.724 -0.7620  0.2192  0.0051
  603MOL0     C83129   3.664   7.582   6.939 -0.1503  0.6509 -0.4062
  603MOL0     C83130   3.535   7.541   6.931  0.3457  0.2186 -0.3697
  603MOL0     C83131   3.169   7.333   6.782 -1.0218 -0.7086 -0.0952
  603MOL0     C83132   3.150   7.198   6.811  0.2139 -0.1344 -0.0875
  603MOL0     C83133   3.015   7.141   6.817  0.1979 -0.3102 -0.0839
  603MOL0     C83134   2.907   7.214   6.778  0.5888 -0.2010 -0.2253
  603MOL0     O83135   2.780   7.176   6.818 -0.5029 -0.9260 -0.6597
  603MOL0     C83136   2.731   7.046   6.756  0.8381  0.1494  0.8189
  603MOL0     C83137   2.698   7.065   6.600  0.3446  1.1001 -0.1905
  603MOL0     C83138   2.598   7.184   6.588 -0.0727 -0.3126 -0.7289
  603MOL0     C83139   2.561   7.219   6.443  0.2099  0.2511 -0.0559
  603MOL0     C83140   2.502   7.103   6.379  0.6204 -0.1903  0.0073
  603MOL0     C83141   2.448   7.012   6.321  0.7368 -0.9605  0.6130
  603MOL0     C83142   2.930   7.345   6.737 -0.0907  0.5539 -0.2703
  603MOL0     C83143   3.057   7.401   6.726 -0.1261  0.3496 -0.1147
  603MOL0     C83144   3.078   7.535   6.668 -0.2585 -0.0458 -0.3258
  603MOL0     H83145   3.483   7.627   6.607 -1.3360  0.6961 -0.6357
  603MOL0     H83146   3.712   7.720   6.630  3.2847 -1.0934  0.5620
  603MOL0     H83147   3.931   7.593   7.017  0.1891  0.0170 -0.3765
  603MOL0     H83148   3.890   7.771   7.009  1.5885  0.5523  0.7487
  603MOL0     H83149   4.092   7.825   6.922  2.6278  0.2362 -0.3340
  603MOL0     H83150   4.123   7.720   7.062  1.5564 -0.5247 -0.6400
  603MOL0     H83151   4.146   7.539   6.881  2.3603 -0.4569  0.4879
  603MOL0     H83152   4.151   7.670   6.754  0.3569  0.7654  0.5843
  603MOL0     H83153   4.331   7.783   6.884 -2.0053 -0.7323 -0.6516
  603MOL0     H83154   4.329   7.645   6.994 -1.7846  3.1099  2.2291
  603MOL0     H83155   4.400   7.626   6.695 -0.8495  1.4317 -0.3018
  603MOL0     H83156   4.416   7.499   6.825 -0.0813 -0.0781  3.6607
  603MOL0     H83157   4.597   7.743   6.788  3.5513 -0.6462  1.5807
  603MOL0     H83158   4.567   7.656   6.943 -0.8520 -0.4214  0.3793
  603MOL0     H83159   4.663   7.555   6.659  0.6886  0.0091 -0.3888
  603MOL0     H83160   4.657   7.448   6.799 -3.2802  0.5841 -2.1655
  603MOL0     H83161   4.837   7.697   6.778  0.1584 -0.1334 -0.0252
  603MOL0     H83162   4.823   7.565   6.905 -3.0899  0.1313  0.5937
  603MOL0     H83163   4.947   7.644   6.540  0.8852 -1.8156 -2.4138
  603MOL0     H83164   4.934   7.491   6.313 -0.4484  0.0993 -0.5498
  603MOL0     H83165   5.002   7.330   6.341  2.3161  0.5394 -0.9018
  603MOL0     H83166   5.167   7.495   6.268  0.7823  2.4321 -0.8990
  603MOL0     H83167   5.139   7.598   6.412 -2.2355 -0.2095 -1.2939
  603MOL0     H83168   5.247   7.438   6.554 -3.3241  0.8319 -0.9440
  603MOL0     H83169   5.219   7.304   6.432 -0.5913 -1.0461  3.4941
  603MOL0     H83170   5.403   7.403   6.300  2.1052  2.3601 -1.0402
  603MOL0     H83171   5.397   7.555   6.388  3.3985 -0.5460 -0.9252
  603MOL0     H83172   5.602   7.569   6.326  3.0424  1.8649 -0.4134
  603MOL0     H83173   5.871   7.581   6.156  0.7389 -1.8059  0.0936
  603MOL0     H83174   5.952   7.652   6.290 -0.6147  0.6763  0.2634
  603MOL0     H83175   5.779   7.697   6.264 -1.1030 -0.7418  1.0977
  603MOL0     H83176   6.336   7.477   6.453  1.0016 -0.0201 -0.2704
  603MOL0     H83177   6.552   7.410   6.404  0.4097 -0.2160 -0.4982
  603MOL0     H83178   6.773   7.272   6.246  1.9231 -0.4119  0.2503
  603MOL0     H83179   6.733   7.280   6.422  0.1193 -1.5874  0.5286
  603MOL0     H83180   6.819   7.045   6.433  0.0167 -0.5619 -0.5402
  603MOL0     H83181   6.848   7.048   6.258 -0.3247 -0.5788  0.3545
  603MOL0     H83182   6.983   7.216   6.452 -1.9996 -1.0819  1.1233
  603MOL0     H83183   6.994   7.239   6.272  0.1999 -0.2068 -0.8799
  603MOL0     H83184   7.105   7.012   6.248  0.8642 -2.0015  1.3837
  603MOL0     H83185   7.081   6.963   6.407  2.5883 -1.7049 -2.2200
  603MOL0     H83186   7.274   7.167   6.319  2.0847 -1.9038 -0.5095
  603MOL0     H83187   7.235   7.141   6.490 -1.0508 -0.0568  0.3596
  603MOL0     H83188   7.330   6.924   6.278  2.6103 -1.0161  0.3205
  603MOL0     H83189   7.325   6.908   6.454 -0.8627 -0.2577 -0.0304
  603MOL0     H83190   7.505   7.067   6.481  0.1248 -0.0564 -1.2970
  603MOL0     H83191   7.504   7.102   6.306 -1.3167 -1.7694 -2.4302
  603MOL0     H83192   7.577   6.862   6.269 -1.0821  0.5327  0.3130
  603MOL0     H83193   7.562   6.839   6.443  0.4527  0.4987  1.1497
  603MOL0     H83194   6.409   7.018   6.285  3.3332  0.4455 -0.1443
  603MOL0     H83195   6.162   7.098   6.332 -1.7048  2.8339  1.0119
  603MOL0     H83196   5.914   7.249   6.527  0.7991  1.4725  0.4454
  603MOL0     H83197   5.678   7.227   6.577  3.4368 -0.3891  0.9060
  603MOL0     H83198   3.714   7.568   7.035  1.3363  0.3492 -1.2020
  603MOL0     H83199   3.492   7.483   7.013  1.6488  2.4171  2.0149
  603MOL0     H83200   3.230   7.139   6.856  0.4915 -0.0153 -0.4192
  603MOL0     H83201   2.998   7.034   6.827 -0.2310 -0.6041 -2.9003
  603MOL0     H83202   2.809   6.971   6.769  0.4052 -0.6509 -0.9048
  603MOL0     H83203   2.645   7.000   6.805 -0.6080  0.7813 -0.9906
  603MOL0     H83204   2.658   6.975   6.553  0.6233  1.1984 -0.6182
  603MOL0     H83205   2.794   7.084   6.550 -0.0262  0.8697 -1.0014
  603MOL0     H83206   2.509   7.167   6.650 -0.6299  0.6751 -1.2190
  603MOL0     H83207   2.643   7.274   6.632 -2.4000  1.8697 -2.4770
  603MOL0     H83208   2.650   7.245   6.386  0.5823  0.0062  0.4007
  603MOL0     H83209   2.492   7.304   6.446  1.8717  1.6175  0.6765
  603MOL0     H83210   2.392   6.930   6.280 -0.2255  0.9440 -2.1574
  603MOL0     H83211   2.843   7.401   6.703  0.0007 -0.3889 -2.1948
  603MOL0     H83212   3.166   7.530   6.603 -0.4749 -0.7884 -0.5725
  603MOL0     H83213   2.988   7.582   6.628  0.2818  3.2650  1.9362
  603MOL0     H83214   3.107   7.596   6.754  0.4315  2.2164 -2.0639
  604MOL0     O83215   3.137   1.359   6.599 -0.2135 -0.1211  0.6279
  604MOL0     C83216   3.092   1.266   6.540  0.8832  1.1315 -0.1388
  604MOL0     O83217   3.164   1.161   6.489  0.7035  0.0015  0.5166
  604MOL0     C83218   3.286   1.130   6.525 -0.4170 -0.0434 -0.1197
  604MOL0     C83219   3.355   1.048   6.438  0.0449 -0.3888  0.5430
  604MOL0     C83220   3.491   1.014   6.459 -0.1584  0.5736 -0.0767
  604MOL0     C83221   3.549   1.063   6.576 -0.7952 -0.4030 -0.6496
  604MOL0     O83222   3.684   1.044   6.607 -0.5263  1.1522  0.5762
  604MOL0     C83223   3.778   1.151   6.628  0.2420 -0.9382 -0.3446
  604MOL0     C83224   3.821   1.222   6.500  0.3548 -0.7301  0.0604
  604MOL0     C83225   3.915   1.143   6.404 -0.5235 -0.0947 -0.7375
  604MOL0     C83226   4.000   1.254   6.357  0.0704  0.5635  0.1166
  604MOL0     C83227   4.091   1.209   6.246 -0.3414  0.3006 -0.0788
  604MOL0     C83228   4.185   1.314   6.187 -0.0243 -0.1096 -0.0050
  604MOL0     C83229   4.298   1.232   6.103  0.7890  0.2906  0.3743
  604MOL0     C83230   4.391   1.332   6.030 -0.0948 -1.0249  0.1465
  604MOL0     N83231   4.512   1.276   5.968  0.1884 -0.2657  0.5230
  604MOL0     C83232   4.601   1.343   5.880  0.0733 -0.4338 -0.7165
  604MOL0     C83233   4.702   1.256   5.866  0.6443 -0.5120  0.9181
  604MOL0     C83234   4.823   1.260   5.773  1.5369  0.6490  0.5407
  604MOL0     C83235   4.774   1.282   5.626 -0.0755  0.1885 -0.9625
  604MOL0     C83236   4.881   1.278   5.527 -0.8136  0.4403  0.4042
  604MOL0     C83237   4.931   1.133   5.498 -0.3189 -0.3716 -0.8491
  604MOL0     O83238   5.027   1.077   5.588 -0.5679  0.2389 -0.5290
  604MOL0     C83239   5.160   1.074   5.538 -0.7673  0.0304  0.6150
  604MOL0     C83240   5.225   0.952   5.567  1.2598  0.7763  0.2682
  604MOL0     C83241   5.345   0.913   5.516 -0.2938 -0.8341 -0.0268
  604MOL0     C83242   5.404   0.776   5.561 -0.6478  0.1659  0.2058
  604MOL0     C83243   5.416   1.006   5.434 -0.5482 -0.1580 -0.1371
  604MOL0     C83244   5.562   0.987   5.423  0.4347 -1.0831  0.3140
  604MOL0     O83245   5.612   1.005   5.299  0.7285 -0.4130  0.3667
  604MOL0     C83246   5.737   0.966   5.270  0.1551 -0.0325  0.5310
  604MOL0     C83247   5.821   1.040   5.185  0.0978 -0.5889  0.9088
  604MOL0     C83248   5.958   1.007   5.154  0.5448 -0.4533  0.4265
  604MOL0     C83249   6.000   0.878   5.193 -0.3704 -0.3724 -0.7211
  604MOL0     O83250   6.128   0.856   5.163 -0.3261  0.9698  0.4024
  604MOL0     C83251   6.203   0.753   5.230 -0.5329 -0.2082  0.0961
  604MOL0     C83252   6.355   0.775   5.246 -0.2230 -0.7979 -0.4060
  604MOL0     C83253   6.430   0.798   5.113 -0.2265  0.5591  0.8027
  604MOL0     C83254   6.582   0.800   5.132 -0.6920 -1.0522  0.4279
  604MOL0     C83255   6.661   0.820   5.001  0.1585 -0.5955 -0.3917
  604MOL0     C83256   6.816   0.807   5.021  0.1502  0.0431 -0.2173
  604MOL0     C83257   6.885   0.816   4.884  0.4909  0.1961  0.4327
  604MOL0     C83258   7.035   0.845   4.917 -0.0642 -0.4387  0.4842
  604MOL0    Cl83259   7.102   0.720   5.025  0.5723  0.2882 -0.0225
  604MOL0     C83260   5.915   0.797   5.259 -0.0354  0.8170 -0.9826
  604MOL0     C83261   5.784   0.836   5.309 -0.8661  0.2777 -0.0793
  604MOL0     O83262   5.627   0.978   5.526  1.0023  0.2903 -0.2761
  604MOL0     C83263   5.365   1.132   5.398 -0.0036 -0.2561  0.8480
  604MOL0     C83264   5.235   1.165   5.446  0.4170  0.1954  0.2744
  604MOL0     N83265   4.685   1.145   5.949 -0.4582 -0.1896 -0.4526
  604MOL0     N83266   4.581   1.170   6.020  0.1094 -0.3630  0.5321
  604MOL0     C83267   3.473   1.134   6.667  0.2225  0.1551  0.5441
  604MOL0     C83268   3.340   1.156   6.649 -0.6625  0.3245 -0.0763
  604MOL0     C83269   2.942   1.265   6.527 -0.0102  0.2679 -0.3807
  604MOL0     C83270   2.874   1.381   6.541  0.2459  0.5467 -0.6414
  604MOL0     C83271   2.735   1.389   6.535  0.6518  0.1450 -0.1356
  604MOL0     C83272   2.656   1.274   6.514  0.4937 -0.1576  0.4579
  604MOL0     O83273   2.520   1.276   6.512 -0.2732 -0.7251  0.5286
  604MOL0     C83274   2.442   1.372   6.581 -0.7262  0.0846  0.1376
  604MOL0     C83275   2.309   1.314   6.626  0.1084 -0.4254  0.5478
  604MOL0     C83276   2.228   1.269   6.511  0.2041 -0.0774  1.3295
  604MOL0     C83277   2.098   1.213   6.561 -0.1918  0.1007 -0.7977
  604MOL0     C83278   2.036   1.153   6.440 -0.2238 -0.4245 -0.0425
  604MOL0     C83279   1.978   1.109   6.342 -0.1322  0.4947 -1.1654
  604MOL0     C83280   2.728   1.156   6.506  0.4390 -0.2518 -0.0032
  604MOL0     C83281   2.859   1.146   6.509 -0.1932  0.0459 -0.8564
  604MOL0     C83282   2.922   1.013   6.496 -0.2394 -0.2185 -0.2624
  604MOL0     H83283   3.303   1.014   6.348 -0.8457  0.0700  0.8767
  604MOL0     H83284   3.546   0.961   6.382  0.2266  1.4469 -0.4215
  604MOL0     H83285   3.877   1.115   6.657  0.8432  0.5105 -0.4984
  604MOL0     H83286   3.745   1.213   6.712  0.0369 -1.3907 -0.0847
  604MOL0     H83287   3.725   1.253   6.459  0.3461 -0.9775 -0.1160
  604MOL0     H83288   3.889   1.300   6.533  1.1418 -1.6137  0.5912
  604MOL0     H83289   3.968   1.067   6.463 -3.8968 -2.1791 -0.1300
  604MOL0     H83290   3.873   1.090   6.319 -0.3313 -0.0266 -0.8736
  604MOL0     H83291   3.941   1.340   6.325  0.4794  0.7198 -0.2302
  604MOL0     H83292   4.073   1.282   6.433 -0.0861 -0.2572  0.5877
  604MOL0     H83293   4.040   1.165   6.159  2.6202  0.6945 -2.1587
  604MOL0     H83294   4.150   1.130   6.293  1.1827  1.3679 -0.1227
  604MOL0     H83295   4.135   1.397   6.138 -0.3029  0.4161  1.1374
  604MOL0     H83296   4.238   1.365   6.268 -1.5687 -2.1130  2.4194
  604MOL0     H83297   4.254   1.169   6.025  2.5796  2.2664 -2.4507
  604MOL0     H83298   4.352   1.183   6.185  2.5849  1.5517  0.0180
  604MOL0     H83299   4.337   1.382   5.949  4.0283 -0.7871 -2.7541
  604MOL0     H83300   4.424   1.415   6.094 -2.4903  0.2765 -0.1956
  604MOL0     H83301   4.607   1.445   5.844  0.9000  0.0809  0.7766
  604MOL0     H83302   4.870   1.162   5.784 -0.3888 -0.5942 -1.5210
  604MOL0     H83303   4.895   1.338   5.799  0.6180  1.4737  0.6932
  604MOL0     H83304   4.697   1.208   5.603  0.2527  0.0938 -1.7766
  604MOL0     H83305   4.708   1.369   5.620 -1.3821 -0.6241  0.7921
  604MOL0     H83306   4.844   1.309   5.428  1.6178 -0.6541 -0.9336
  604MOL0     H83307   4.966   1.345   5.542  0.9166 -1.3845 -0.7283
  604MOL0     H83308   4.843   1.068   5.499  0.3701 -1.3252 -0.5324
  604MOL0     H83309   4.979   1.130   5.400 -1.0335 -0.4098 -1.2064
  604MOL0     H83310   5.177   0.884   5.637  0.6421  0.5925 -0.3156
  604MOL0     H83311   5.443   0.720   5.475 -0.1752  1.1180 -0.2145
  604MOL0     H83312   5.323   0.712   5.599 -0.4619  0.2001  0.6655
  604MOL0     H83313   5.477   0.789   5.641  1.3860  0.9009 -1.6582
  604MOL0     H83314   5.790   1.139   5.152  2.1593 -0.2023 -0.0173
  604MOL0     H83315   6.017   1.078   5.096  0.3746  0.1924  1.0200
  604MOL0     H83316   6.162   0.750   5.331 -1.8582  2.6971 -0.2467
  604MOL0     H83317   6.192   0.655   5.182  2.1122 -0.4920 -0.1079
  604MOL0     H83318   6.357   0.869   5.302 -3.3380 -0.7769 -0.1816
  604MOL0     H83319   6.393   0.692   5.307 -1.3579 -0.5797  0.6194
  604MOL0     H83320   6.390   0.887   5.063  0.1648 -0.3460 -1.1843
  604MOL0     H83321   6.405   0.716   5.046 -1.1443  0.2344  1.5181
  604MOL0     H83322   6.629   0.716   5.184  0.1744  0.5800  2.4358
  604MOL0     H83323   6.602   0.892   5.187 -0.5456 -0.3885 -0.7108
  604MOL0     H83324   6.627   0.741   4.933 -1.4235  0.1039 -0.4690
  604MOL0     H83325   6.637   0.919   4.960  0.7628 -0.9098 -1.5605
  604MOL0     H83326   6.835   0.707   5.063 -0.7387 -1.0649 -2.2913
  604MOL0     H83327   6.842   0.886   5.091 -0.0972 -0.9094  0.9749
  604MOL0     H83328   6.836   0.897   4.829  1.3232  0.4311  0.0229
  604MOL0     H83329   6.884   0.718   4.836  0.0147 -0.5504  1.8820
  604MOL0     H83330   7.051   0.941   4.967 -0.1770 -1.1413  1.9368
  604MOL0     H83331   7.088   0.856   4.822 -3.1225  5.6582 -1.0303
  604MOL0     H83332   5.945   0.695   5.279  1.3565  0.8798 -2.5374
  604MOL0     H83333   5.721   0.768   5.364  0.2322 -0.7407 -0.0430
  604MOL0     H83334   5.426   1.196   5.336 -0.9753 -0.3400 -0.2377
  604MOL0     H83335   5.180   1.254   5.418 -0.1860 -0.5033 -0.8552
  604MOL0     H83336   3.521   1.191   6.746  0.4509  3.1467 -1.5954
  604MOL0     H83337   3.294   1.210   6.731  0.0501 -1.0116  1.2466
  604MOL0     H83338   2.916   1.477   6.569  0.0771  0.1305  1.1494
  604MOL0     H83339   2.697   1.491   6.540  1.5307  0.4226  1.5776
  604MOL0     H83340   2.486   1.402   6.677 -2.3226 -0.1394  0.9663
  604MOL0     H83341   2.435   1.460   6.516  0.8198 -0.5383 -0.9409
  604MOL0     H83342   2.248   1.392   6.672 -2.1832 -1.9769  0.3188
  604MOL0     H83343   2.315   1.226   6.691  2.1214  0.9632  2.3912
  604MOL0     H83344   2.207   1.346   6.437 -0.3832 -0.7877  0.7426
  604MOL0     H83345   2.284   1.187   6.465 -0.1484  1.7981 -2.8246
  604MOL0     H83346   2.046   1.297   6.608  2.3172  1.7295 -0.7535
  604MOL0     H83347   2.117   1.142   6.642  1.2068  0.8956 -0.4015
  604MOL0     H83348   1.915   1.073   6.263  0.9926 -1.0881 -1.3659
  604MOL0     H83349   2.667   1.066   6.502  1.6024 -1.1281  1.3616
  604MOL0     H83350   2.982   0.990   6.585  1.1576 -1.2584 -1.4316
  604MOL0     H83351   2.846   0.936   6.481  1.0137 -1.5042 -0.2297
  604MOL0     H83352   2.987   1.006   6.408 -1.5694  1.5334 -1.4460
  605MOL0     O83353   8.509   0.370   6.662 -0.7972  0.1620  0.4207
  605MOL0     C83354   8.554   0.457   6.586  0.4843  0.0793 -0.2853
  605MOL0     O83355   8.679   0.515   6.588 -0.5225 -0.0935  0.2008
  605MOL0     C83356   8.778   0.445   6.663  0.6754 -0.2589 -0.3970
  605MOL0     C83357   8.823   0.320   6.616 -0.5118  0.4494  0.5979
  605MOL0     C83358   8.919   0.244   6.696 -0.4956  0.2346 -0.3725
  605MOL0     C83359   8.961   0.293   6.821  0.2401  0.1020  0.0947
  605MOL0     O83360   9.039   0.211   6.900 -0.2727 -0.4172 -0.3819
  605MOL0     C83361   9.097   0.258   7.028 -0.0666  1.3718 -0.2465
  605MOL0     C83362   9.206   0.161   7.064 -0.1572  0.9932 -1.0950
  605MOL0     C83363   9.139   0.020   7.066 -0.0815 -0.3373  0.8829
  605MOL0     C83364   9.236  -0.084   7.115  0.2852 -0.7245  0.0372
  605MOL0     C83365   9.253  -0.082   7.273  0.3263  0.0536  0.4790
  605MOL0     C83366   9.301  -0.216   7.333  0.1389 -0.5643 -0.4196
  605MOL0     C83367   9.451  -0.216   7.372  0.3163  0.7819 -0.2172
  605MOL0     C83368   9.550  -0.253   7.256  0.1550 -0.9132  0.3708
  605MOL0     N83369   9.688  -0.190   7.282  0.4961 -0.2078 -0.4865
  605MOL0     C83370   9.715  -0.057   7.256  0.3090 -0.4380 -0.5027
  605MOL0     C83371   9.850  -0.043   7.292  0.1933  0.3616 -0.2985
  605MOL0     C83372   9.944   0.079   7.275 -0.0165  0.4093  0.0204
  605MOL0     C83373  10.082   0.054   7.208  0.2058  0.2097 -0.2916
  605MOL0     C83374  10.182   0.160   7.265  0.2723  0.5116  0.5965
  605MOL0     C83375  10.322   0.134   7.199 -0.4249 -0.0784  0.1854
  605MOL0     O83376  10.368  -0.000   7.200 -0.2654 -0.6305  0.3171
  605MOL0     C83377  10.500  -0.039   7.222 -0.2190 -0.2764 -0.1063
  605MOL0     C83378  10.517  -0.177   7.243  0.0432 -0.0906  1.0020
  605MOL0     C83379  10.645  -0.221   7.274 -0.9494 -0.4369  0.4386
  605MOL0     C83380  10.670  -0.367   7.296  0.4566 -0.0289  0.9310
  605MOL0     C83381  10.757  -0.130   7.289 -0.5068  0.6026 -0.1257
  605MOL0     C83382  10.894  -0.169   7.337 -0.0619  0.3604 -0.2434
  605MOL0     O83383  10.932  -0.299   7.352  0.7935  0.0086  0.6127
  605MOL0     C83384  11.045  -0.341   7.415 -0.4950  0.2007 -0.3878
  605MOL0     C83385  11.107  -0.459   7.363 -0.1848 -0.5924 -0.1316
  605MOL0     C83386  11.217  -0.517   7.424  0.0323  0.1161  0.2370
  605MOL0     C83387  11.264  -0.479   7.550 -0.7360  0.5725  0.2971
  605MOL0     O83388  11.365  -0.541   7.621 -0.3621  0.3365  0.7525
  605MOL0     C83389  11.440  -0.648   7.540  0.2465 -0.3705 -0.2303
  605MOL0     C83390  11.550  -0.701   7.636  0.3749  0.0369  0.5073
  605MOL0     C83391  11.502  -0.747   7.779  0.0406  0.0018 -0.2416
  605MOL0     C83392  11.427  -0.882   7.783  0.2002  1.3437 -0.4704
  605MOL0     C83393  11.395  -0.917   7.932 -0.7185 -0.0518  0.4049
  605MOL0     C83394  11.304  -1.037   7.955 -0.8106  0.2119  0.0644
  605MOL0     C83395  11.279  -1.050   8.100 -0.5929  0.1308 -0.6222
  605MOL0     C83396  11.180  -1.164   8.134  0.0129 -0.1086  0.1001
  605MOL0    Cl83397  11.019  -1.090   8.116  0.1143  0.5781 -0.0913
  605MOL0     C83398  11.207  -0.352   7.593  0.4703  0.6866 -0.0713
  605MOL0     C83399  11.105  -0.288   7.529  0.0903  0.0188 -0.3743
  605MOL0     O83400  10.970  -0.076   7.349 -0.0244  0.2048  0.5323
  605MOL0     C83401  10.737   0.006   7.270 -0.6680 -0.3669 -0.8892
  605MOL0     C83402  10.609   0.052   7.236  0.5161  0.5066  0.1712
  605MOL0     N83403   9.889  -0.165   7.334 -0.7097 -0.2397  0.6329
  605MOL0     N83404   9.798  -0.252   7.337 -0.1128  0.0200 -0.1888
  605MOL0     C83405   8.894   0.407   6.870 -0.5488  0.5978  0.3183
  605MOL0     C83406   8.804   0.487   6.792 -0.4809  0.8877 -0.3329
  605MOL0     C83407   8.444   0.518   6.510  0.4111  0.9464 -0.0585
  605MOL0     C83408   8.425   0.657   6.505 -0.0218  0.2783 -0.0368
  605MOL0     C83409   8.324   0.715   6.440 -0.0767 -0.1289  0.0237
  605MOL0     C83410   8.235   0.637   6.355  0.0766 -0.1433 -0.4542
  605MOL0     O83411   8.140   0.683   6.277 -0.3538  0.3378  0.6283
  605MOL0     C83412   8.142   0.830   6.267 -0.0133 -0.1526 -0.0080
  605MOL0     C83413   8.031   0.870   6.161 -0.1600  0.2226 -0.0657
  605MOL0     C83414   7.895   0.890   6.218  0.6699  0.1303 -0.0685
  605MOL0     C83415   7.800   0.937   6.114  0.6572  0.1568  0.0694
  605MOL0     C83416   7.682   0.987   6.185  0.0707  0.0017  0.5390
  605MOL0     C83417   7.582   1.034   6.240  0.7405 -0.3230  0.4697
  605MOL0     C83418   8.255   0.501   6.355  0.0769 -0.3267 -0.0600
  605MOL0     C83419   8.356   0.442   6.433  0.3171  0.3920 -0.5742
  605MOL0     C83420   8.383   0.291   6.415  0.4387  0.5244  0.1667
  605MOL0     H83421   8.795   0.293   6.515  2.0333 -0.0294 -0.0491
  605MOL0     H83422   8.979   0.164   6.656 -0.6334 -0.3785  0.6081
  605MOL0     H83423   9.028   0.255   7.112  0.7476  0.0198  0.4120
  605MOL0     H83424   9.145   0.356   7.016  3.5390 -0.1608  0.1509
  605MOL0     H83425   9.295   0.172   7.000  1.9745 -1.6706  1.2025
  605MOL0     H83426   9.237   0.192   7.164 -1.9921 -2.5247  0.7286
  605MOL0     H83427   9.049   0.025   7.128  1.2939  0.8574  2.8940
  605MOL0     H83428   9.107   0.005   6.962 -3.4533  5.1294  0.7405
  605MOL0     H83429   9.189  -0.182   7.096 -0.0719 -0.0856 -2.8423
  605MOL0     H83430   9.326  -0.083   7.054 -0.3465 -1.5724 -0.9538
  605MOL0     H83431   9.153  -0.054   7.306 -0.2950  1.0096 -2.0098
  605MOL0     H83432   9.323  -0.005   7.309  0.4404 -0.7127  1.9878
  605MOL0     H83433   9.254  -0.230   7.431  0.8406  2.6269  0.4838
  605MOL0     H83434   9.281  -0.306   7.274  2.9103 -1.9603  0.5929
  605MOL0     H83435   9.475  -0.284   7.454  1.4336  0.9242 -0.4094
  605MOL0     H83436   9.465  -0.114   7.410 -0.8139 -0.4237  3.9642
  605MOL0     H83437   9.553  -0.361   7.270  3.5484 -0.8840  0.8974
  605MOL0     H83438   9.511  -0.218   7.161  2.6746  0.4128 -0.2785
  605MOL0     H83439   9.658   0.018   7.202 -0.7622  0.3621  1.6071
  605MOL0     H83440   9.968   0.108   7.378 -0.2585  0.3252  0.1011
  605MOL0     H83441   9.894   0.163   7.226  1.1659  0.7271 -0.6854
  605MOL0     H83442  10.130  -0.042   7.231 -0.5628  0.0764  0.8388
  605MOL0     H83443  10.074   0.068   7.100  0.8746 -4.9191 -1.2916
  605MOL0     H83444  10.139   0.260   7.249  1.8499  0.8670 -2.0688
  605MOL0     H83445  10.199   0.145   7.372  1.2059 -2.4631  0.1262
  605MOL0     H83446  10.313   0.159   7.094 -2.0681 -2.6237 -0.3886
  605MOL0     H83447  10.395   0.199   7.248  0.2557 -0.4905 -0.2641
  605MOL0     H83448  10.435  -0.242   7.216  0.4279  1.1867 -4.4459
  605MOL0     H83449  10.581  -0.424   7.270  0.7554  0.0081 -0.2044
  605MOL0     H83450  10.692  -0.383   7.402 -2.8295 -0.8222  1.6187
  605MOL0     H83451  10.748  -0.394   7.225 -1.3118 -0.7196 -0.8345
  605MOL0     H83452  11.066  -0.489   7.267 -1.0283  0.0204  0.0219
  605MOL0     H83453  11.254  -0.613   7.389 -0.4004 -0.1371  0.4664
  605MOL0     H83454  11.364  -0.721   7.511 -0.6273 -0.0313  1.1342
  605MOL0     H83455  11.489  -0.618   7.446 -0.0153  0.3722 -0.1338
  605MOL0     H83456  11.600  -0.783   7.582  1.4850  0.2311  1.2043
  605MOL0     H83457  11.623  -0.623   7.658  0.6967  0.2215 -1.0529
  605MOL0     H83458  11.434  -0.674   7.825 -0.5498 -0.2836 -0.6481
  605MOL0     H83459  11.591  -0.763   7.840 -0.0115  1.2774  0.2148
  605MOL0     H83460  11.498  -0.951   7.737 -2.8241 -0.6428 -2.5360
  605MOL0     H83461  11.331  -0.879   7.731 -0.0132 -0.7183 -0.2712
  605MOL0     H83462  11.489  -0.942   7.984  0.1715  1.7192 -0.2839
  605MOL0     H83463  11.363  -0.823   7.978 -4.7999 -0.5456 -1.0541
  605MOL0     H83464  11.351  -1.127   7.913 -1.0986  1.5586 -3.5175
  605MOL0     H83465  11.210  -1.010   7.906 -0.5522  2.9820  0.9375
  605MOL0     H83466  11.253  -0.956   8.148  0.0379  0.6599 -1.2904
  605MOL0     H83467  11.376  -1.093   8.127  0.1624 -0.1592 -3.4260
  605MOL0     H83468  11.202  -1.191   8.238 -0.5925  3.1371  1.1878
  605MOL0     H83469  11.198  -1.259   8.082  1.7902  1.0405 -1.5014
  605MOL0     H83470  11.237  -0.306   7.687  1.5203 -0.6874  0.3066
  605MOL0     H83471  11.072  -0.192   7.566  2.9930  0.9014  0.2086
  605MOL0     H83472  10.811   0.085   7.281 -2.1929  0.8962  1.2368
  605MOL0     H83473  10.601   0.158   7.214 -2.1227  0.7283  1.7227
  605MOL0     H83474   8.914   0.429   6.974  0.2244 -1.5737  0.6771
  605MOL0     H83475   8.745   0.569   6.833 -2.0084 -1.0499  1.6495
  605MOL0     H83476   8.494   0.728   6.551 -1.4266  1.0761  0.9118
  605MOL0     H83477   8.313   0.822   6.446  2.0339  0.2826 -2.0105
  605MOL0     H83478   8.121   0.873   6.366  0.0993  1.2274 -0.5603
  605MOL0     H83479   8.236   0.868   6.226 -0.7203 -1.2462 -2.8437
  605MOL0     H83480   8.036   0.799   6.078  1.9787 -0.8590  0.8843
  605MOL0     H83481   8.072   0.965   6.126 -0.7589  0.5454  0.0995
  605MOL0     H83482   7.863   0.792   6.255  3.6125 -0.9818 -0.2294
  605MOL0     H83483   7.890   0.964   6.299 -3.7992 -0.4827  0.4678
  605MOL0     H83484   7.778   0.853   6.047  2.4823  0.2440 -0.6903
  605MOL0     H83485   7.837   1.025   6.061  0.2542  1.0643  1.2450
  605MOL0     H83486   7.489   1.069   6.281  0.5905  1.0095 -0.8978
  605MOL0     H83487   8.182   0.450   6.292 -0.2456 -0.7042  0.6085
  605MOL0     H83488   8.491   0.272   6.408  0.1356 -1.1145 -0.6643
  605MOL0     H83489   8.347   0.249   6.509 -0.7997 -1.7640 -1.2444
  605MOL0     H83490   8.333   0.242   6.331  1.9866  0.4651 -0.7498
  606MOL0     O83491   1.101   8.197   5.730 -0.1904  0.1730  0.3252
  606MOL0     C83492   1.103   8.203   5.610  0.0055  0.7572  0.4270
  606MOL0     O83493   1.213   8.208   5.532  0.2446 -0.5605 -0.6753
  606MOL0     C83494   1.336   8.214   5.596 -0.0631  0.3508 -0.3330
  606MOL0     C83495   1.398   8.102   5.647 -0.3741  0.3705 -0.9192
  606MOL0     C83496   1.527   8.101   5.707 -0.0518  0.0765  0.9563
  606MOL0     C83497   1.594   8.221   5.714  0.0036 -1.3139 -0.2491
  606MOL0     O83498   1.713   8.207   5.779 -0.2069  0.9813 -0.4069
  606MOL0     C83499   1.824   8.251   5.698 -0.0597 -0.1994  0.6322
  606MOL0     C83500   1.960   8.273   5.779 -0.1280  0.9078 -0.3401
  606MOL0     C83501   1.932   8.352   5.912  0.6701  0.5348 -0.1367
  606MOL0     C83502   1.900   8.503   5.886  0.0481 -0.7688 -0.4740
  606MOL0     C83503   2.013   8.582   5.831 -0.2880 -0.5054  0.2240
  606MOL0     C83504   2.144   8.578   5.916 -0.4572  0.5708  0.7585
  606MOL0     C83505   2.274   8.598   5.829 -0.1183 -0.1200 -0.6536
  606MOL0     C83506   2.280   8.746   5.783 -0.2232  1.0411  1.1360
  606MOL0     N83507   2.391   8.763   5.685 -0.0179 -0.9565  0.6119
  606MOL0     C83508   2.524   8.733   5.689  0.2660 -0.2083 -0.5357
  606MOL0     C83509   2.570   8.756   5.560 -0.3718 -0.6158 -0.2977
  606MOL0     C83510   2.705   8.729   5.501 -0.6185  0.0807 -0.7697
  606MOL0     C83511   2.793   8.849   5.488 -0.9344  0.2289 -0.0432
  606MOL0     C83512   2.766   8.919   5.354  1.1228  0.0797  0.8191
  606MOL0     C83513   2.893   8.921   5.269 -0.5185  0.5310 -0.4022
  606MOL0     O83514   2.990   8.995   5.336  0.4032 -0.3578 -0.3579
  606MOL0     C83515   3.107   9.036   5.273 -0.2828  0.1480 -0.2653
  606MOL0     C83516   3.142   9.004   5.147 -0.2398 -0.6390  0.9420
  606MOL0     C83517   3.258   9.049   5.086  0.2347 -0.5867  0.1365
  606MOL0     C83518   3.273   9.008   4.934 -0.1132  0.4990  0.0614
  606MOL0     C83519   3.354   9.124   5.161  0.7842  0.1806 -0.4374
  606MOL0     C83520   3.494   9.169   5.116  1.0614 -1.0079 -0.1132
  606MOL0     O83521   3.585   9.179   5.216  0.0374  0.3777  0.2702
  606MOL0     C83522   3.724   9.174   5.193  0.9876 -0.6104 -0.2185
  606MOL0     C83523   3.804   9.228   5.297  0.9106 -0.4208  0.1501
  606MOL0     C83524   3.946   9.233   5.278 -0.4392  0.5653 -0.0963
  606MOL0     C83525   4.008   9.188   5.156 -0.1365  0.8278 -0.5431
  606MOL0     O83526   4.141   9.188   5.121  0.3150 -0.0309 -0.2513
  606MOL0     C83527   4.237   9.222   5.220 -0.6036 -0.3318 -0.3647
  606MOL0     C83528   4.377   9.179   5.172  0.2603  0.8353 -0.1690
  606MOL0     C83529   4.432   9.057   5.243 -0.4007  0.2605 -0.9021
  606MOL0     C83530   4.581   9.022   5.207 -0.4542 -0.9863  0.6087
  606MOL0     C83531   4.625   8.900   5.281  1.4220  0.1339 -0.0647
  606MOL0     C83532   4.758   8.856   5.231 -0.8910  0.5767  0.8097
  606MOL0     C83533   4.791   8.712   5.274 -0.4150  0.4535 -0.1099
  606MOL0     C83534   4.919   8.659   5.222  0.1442 -0.6755 -0.4382
  606MOL0    Cl83535   5.052   8.749   5.310  0.0997 -0.1102 -0.1072
  606MOL0     C83536   3.918   9.150   5.054  0.0202 -0.2210 -0.3278
  606MOL0     C83537   3.783   9.144   5.075 -0.7414  0.3896  0.2862
  606MOL0     O83538   3.508   9.211   4.998 -0.4486  0.0057 -0.5438
  606MOL0     C83539   3.324   9.155   5.290 -0.3464 -0.0850 -0.4955
  606MOL0     C83540   3.198   9.119   5.346 -0.3629 -0.4696 -0.1449
  606MOL0     N83541   2.462   8.808   5.487  0.2072  0.6835  0.1438
  606MOL0     N83542   2.356   8.809   5.564 -0.8769 -0.6655  0.0368
  606MOL0     C83543   1.531   8.344   5.676 -0.4633  0.1612 -0.1672
  606MOL0     C83544   1.406   8.341   5.607  0.5895 -0.4091  0.1865
  606MOL0     C83545   0.980   8.187   5.534  0.6174  0.3693  0.0215
  606MOL0     C83546   0.940   8.288   5.440  0.9680 -0.8725  0.4361
  606MOL0     C83547   0.823   8.273   5.369 -0.4274  0.9248 -1.0281
  606MOL0     C83548   0.744   8.159   5.378  0.1255 -0.1159 -0.0249
  606MOL0     O83549   0.630   8.148   5.307 -0.3058  0.2097  0.6805
  606MOL0     C83550   0.622   8.041   5.206 -0.5446 -0.1472 -0.0619
  606MOL0     C83551   0.482   7.990   5.171  0.5918  0.1574  0.2027
  606MOL0     C83552   0.391   7.938   5.288 -0.4520 -0.0882  0.1353
  606MOL0     C83553   0.402   7.786   5.308  0.3213 -0.0307  0.0064
  606MOL0     C83554   0.528   7.744   5.369 -0.7250 -0.6590  0.1463
  606MOL0     C83555   0.638   7.710   5.418  0.2574 -0.2423 -0.3683
  606MOL0     C83556   0.779   8.060   5.471 -0.2564  0.3116 -0.2142
  606MOL0     C83557   0.895   8.075   5.557 -1.8397  0.2909  0.3472
  606MOL0     C83558   0.924   7.959   5.659 -0.4591 -0.4108  0.1209
  606MOL0     H83559   1.346   8.009   5.630 -0.0902  0.0068  0.0986
  606MOL0     H83560   1.567   8.002   5.723 -1.3043 -0.4811  0.7570
  606MOL0     H83561   1.797   8.341   5.643  0.3560 -1.9623 -2.7520
  606MOL0     H83562   1.842   8.183   5.614 -1.0959 -0.1202  0.3343
  606MOL0     H83563   2.005   8.174   5.789  0.8471  1.5034  1.9693
  606MOL0     H83564   2.032   8.324   5.714  2.2009 -2.0444 -0.2777
  606MOL0     H83565   1.843   8.312   5.962 -0.6649  3.1265 -0.2336
  606MOL0     H83566   2.016   8.326   5.976 -0.9835 -0.5002  1.7314
  606MOL0     H83567   1.814   8.510   5.818  1.7156  2.5155 -2.4741
  606MOL0     H83568   1.876   8.555   5.979  3.2179  0.0940 -0.0509
  606MOL0     H83569   1.977   8.685   5.819 -1.2307 -0.9479 -0.9316
  606MOL0     H83570   2.036   8.543   5.731 -0.1282 -0.8576  0.3972
  606MOL0     H83571   2.143   8.658   5.990 -0.8306  1.4920 -0.2107
  606MOL0     H83572   2.163   8.478   5.956  2.5446  0.6151 -0.2786
  606MOL0     H83573   2.273   8.526   5.747  2.0273  0.9535 -1.7097
  606MOL0     H83574   2.367   8.583   5.885 -0.2924  0.7398 -0.1077
  606MOL0     H83575   2.189   8.767   5.725 -0.2880 -0.6043  0.6022
  606MOL0     H83576   2.294   8.818   5.864 -0.6890  2.5217 -0.0311
  606MOL0     H83577   2.589   8.705   5.771  1.0446  0.7334 -0.8098
  606MOL0     H83578   2.695   8.675   5.407 -1.6164 -0.9434 -0.1036
  606MOL0     H83579   2.757   8.652   5.559 -0.3380 -1.9433 -3.5594
  606MOL0     H83580   2.768   8.922   5.566  1.3294  0.9421  0.0726
  606MOL0     H83581   2.895   8.811   5.486 -0.6530  0.9976 -0.6340
  606MOL0     H83582   2.690   8.863   5.300  0.6231  0.5236  1.0488
  606MOL0     H83583   2.729   9.021   5.367  0.7685  0.5966 -3.0055
  606MOL0     H83584   2.938   8.821   5.265 -0.3359  0.4152  2.2140
  606MOL0     H83585   2.871   8.967   5.173 -0.5685 -0.1148 -0.7070
  606MOL0     H83586   3.074   8.949   5.083 -2.3182  1.9669  0.7045
  606MOL0     H83587   3.247   9.086   4.861 -1.8945  1.7499  1.9222
  606MOL0     H83588   3.205   8.923   4.923  0.6984 -0.3028  1.0776
  606MOL0     H83589   3.376   8.976   4.915  1.0659  1.9424  3.3294
  606MOL0     H83590   3.761   9.249   5.395  2.0295  2.2096  0.1610
  606MOL0     H83591   4.007   9.261   5.363 -2.2196 -0.6274  1.6595
  606MOL0     H83592   4.241   9.331   5.228  1.2944 -0.3136 -1.1316
  606MOL0     H83593   4.231   9.180   5.321  1.4263  2.5172  1.0922
  606MOL0     H83594   4.366   9.156   5.066 -2.2110 -0.8986  0.3940
  606MOL0     H83595   4.440   9.268   5.185 -1.1490  1.7288  0.9008
  606MOL0     H83596   4.369   8.970   5.221  1.1509 -1.5230  1.3144
  606MOL0     H83597   4.435   9.070   5.352 -0.0579 -1.3095 -0.7039
  606MOL0     H83598   4.644   9.106   5.236  0.2530 -0.8074 -1.3291
  606MOL0     H83599   4.581   9.009   5.098 -2.0808 -0.1412  0.4772
  606MOL0     H83600   4.615   8.911   5.389 -2.7876 -0.8581 -0.1447
  606MOL0     H83601   4.556   8.819   5.254  0.4994  1.1997 -1.0206
  606MOL0     H83602   4.832   8.926   5.270 -0.3329  0.3711  0.1372
  606MOL0     H83603   4.765   8.866   5.122  2.9008  1.8575  1.0091
  606MOL0     H83604   4.710   8.643   5.250 -0.5593  0.3814  0.5797
  606MOL0     H83605   4.794   8.716   5.383 -3.0113  1.0609  0.0107
  606MOL0     H83606   4.928   8.663   5.113 -0.9460  0.4111 -0.5121
  606MOL0     H83607   4.930   8.553   5.245 -1.6814 -1.1039 -1.2866
  606MOL0     H83608   3.961   9.120   4.960 -0.5443 -1.2905 -0.2620
  606MOL0     H83609   3.722   9.118   4.989  1.4198  1.4843 -1.6880
  606MOL0     H83610   3.390   9.206   5.359 -1.0864  0.5749 -0.2676
  606MOL0     H83611   3.174   9.141   5.450 -1.3629  3.9995 -1.1146
  606MOL0     H83612   1.586   8.438   5.682  1.1901 -0.7125 -1.0407
  606MOL0     H83613   1.364   8.433   5.567  1.4991 -0.3339 -0.6486
  606MOL0     H83614   1.006   8.371   5.419 -0.9859  0.6501  0.0558
  606MOL0     H83615   0.798   8.360   5.309  3.3367  2.1181 -1.1238
  606MOL0     H83616   0.655   8.083   5.110 -1.0461 -2.1263 -1.1521
  606MOL0     H83617   0.682   7.953   5.230 -0.3838 -0.3965 -1.3161
  606MOL0     H83618   0.479   7.924   5.084  1.1255 -0.3391  0.5580
  606MOL0     H83619   0.428   8.080   5.139 -0.5590 -0.6067 -0.0678
  606MOL0     H83620   0.411   7.983   5.385 -2.4423  1.3607 -0.0628
  606MOL0     H83621   0.287   7.962   5.262 -0.2972 -0.2282 -0.6476
  606MOL0     H83622   0.373   7.739   5.214 -1.0353 -0.1373  0.4437
  606MOL0     H83623   0.318   7.768   5.376  1.1459  1.7735  1.5851
  606MOL0     H83624   0.736   7.687   5.456 -1.0788  0.5362  4.1021
  606MOL0     H83625   0.710   7.978   5.486  0.4361  0.2416  3.5067
  606MOL0     H83626   0.930   7.982   5.765 -0.8300  2.1736 -0.3576
  606MOL0     H83627   0.857   7.874   5.638  0.1144 -1.3827  2.0118
  606MOL0     H83628   1.021   7.919   5.626 -0.5414  0.8882 -1.9027
  607MOL0     O83629  10.907   2.609   1.715 -0.1473  0.4709  0.0451
  607MOL0     C83630  10.855   2.540   1.629  0.1974 -0.4445  0.5494
  607MOL0     O83631  10.922   2.473   1.543 -0.0233  0.1850  0.4245
  607MOL0     C83632  11.040   2.415   1.562  0.1487 -0.3038 -0.7731
  607MOL0     C83633  11.075   2.317   1.470  0.0606  0.1409 -0.2401
  607MOL0     C83634  11.198   2.250   1.478 -0.7764 -0.3057 -0.0566
  607MOL0     C83635  11.289   2.273   1.585  0.1724 -0.3553 -0.2639
  607MOL0     O83636  11.399   2.187   1.593  0.4918  0.0958  0.2137
  607MOL0     C83637  11.509   2.217   1.676 -0.0019  0.0217  0.5281
  607MOL0     C83638  11.508   2.147   1.813 -0.7520  0.0898 -0.5020
  607MOL0     C83639  11.644   2.151   1.888  0.4599 -0.2323 -0.1721
  607MOL0     C83640  11.627   2.114   2.037 -0.1207 -0.0575  0.2030
  607MOL0     C83641  11.762   2.074   2.095  0.7584  0.1414 -0.0003
  607MOL0     C83642  11.863   2.189   2.108 -1.0184 -0.1330 -0.2080
  607MOL0     C83643  11.990   2.143   2.178 -0.2286  0.0690 -0.2251
  607MOL0     C83644  12.104   2.238   2.158  1.1565 -0.0349 -0.0344
  607MOL0     N83645  12.232   2.174   2.199  0.6039  0.1555  0.6444
  607MOL0     C83646  12.309   2.204   2.307  0.4057 -0.8103  0.1132
  607MOL0     C83647  12.438   2.168   2.281  0.1142  0.0419  0.3305
  607MOL0     C83648  12.553   2.208   2.373  0.3810  0.0722 -0.2485
  607MOL0     C83649  12.645   2.088   2.392 -0.0540  0.6754 -0.2167
  607MOL0     C83650  12.754   2.074   2.293 -0.1376 -0.2575 -0.4788
  607MOL0     C83651  12.858   1.962   2.305  0.2727  0.5766 -0.7601
  607MOL0     O83652  12.961   1.976   2.202  0.3111 -0.6802 -0.6274
  607MOL0     C83653  13.066   1.889   2.207 -1.2784  0.1007  0.3314
  607MOL0     C83654  13.076   1.768   2.274  0.5304 -0.3603 -0.2454
  607MOL0     C83655  13.193   1.697   2.250 -1.0033 -0.0640 -0.5262
  607MOL0     C83656  13.218   1.573   2.326 -0.1284  0.3132  0.1926
  607MOL0     C83657  13.302   1.737   2.161  0.0664 -0.1476  0.5775
  607MOL0     C83658  13.432   1.665   2.127  0.1759  0.0566  0.0515
  607MOL0     O83659  13.491   1.698   1.998 -0.5004  0.6591 -0.0538
  607MOL0     C83660  13.616   1.657   1.953 -0.2753  0.1262  0.3218
  607MOL0     C83661  13.704   1.561   2.010  0.2754  0.4671  0.0762
  607MOL0     C83662  13.823   1.526   1.957 -0.2978  0.2644 -0.1466
  607MOL0     C83663  13.865   1.592   1.842  0.4308  0.6242  0.2572
  607MOL0     O83664  13.981   1.533   1.795 -0.5405 -0.6089  0.4472
  607MOL0     C83665  14.033   1.590   1.673  0.5571 -0.9079  0.0635
  607MOL0     C83666  14.170   1.533   1.632  0.6446 -0.4154 -0.1760
  607MOL0     C83667  14.267   1.596   1.734  0.1428 -0.0315  0.5180
  607MOL0     C83668  14.412   1.567   1.695 -0.7785  0.4919 -0.3115
  607MOL0     C83669  14.517   1.617   1.797  0.2608  0.0793  0.5538
  607MOL0     C83670  14.654   1.570   1.759 -0.7936 -0.1643  0.2423
  607MOL0     C83671  14.724   1.668   1.655  0.1740 -0.6786 -0.1641
  607MOL0     C83672  14.861   1.698   1.692 -0.2052  0.4934  0.3989
  607MOL0    Cl83673  14.870   1.782   1.845  0.2270 -0.2294 -0.0269
  607MOL0     C83674  13.773   1.683   1.777 -1.6658 -0.0382 -0.5437
  607MOL0     C83675  13.660   1.720   1.831  0.3348 -0.4885 -0.9760
  607MOL0     O83676  13.491   1.611   2.219 -0.5640 -0.4246 -0.0990
  607MOL0     C83677  13.279   1.854   2.093 -0.0276 -0.1703 -0.3768
  607MOL0     C83678  13.165   1.929   2.117 -0.8586 -0.2933  0.3023
  607MOL0     N83679  12.437   2.107   2.158  0.7633 -0.7687 -0.3195
  607MOL0     N83680  12.317   2.110   2.111  0.0324 -0.2239 -1.0571
  607MOL0     C83681  11.249   2.370   1.682  0.2956  0.7618 -0.0268
  607MOL0     C83682  11.132   2.447   1.667  0.1906 -0.3571 -0.1301
  607MOL0     C83683  10.710   2.541   1.611 -0.3252 -0.5811  0.4594
  607MOL0     C83684  10.646   2.419   1.576  0.1501 -0.9064  0.6381
  607MOL0     C83685  10.507   2.422   1.552 -0.2320 -0.9427 -0.4086
  607MOL0     C83686  10.426   2.543   1.578 -0.4791 -0.0393  0.7409
  607MOL0     O83687  10.290   2.533   1.559  0.0890 -1.0810 -0.1201
  607MOL0     C83688  10.202   2.644   1.561 -0.4242  0.3682  0.1627
  607MOL0     C83689  10.162   2.702   1.696  0.1026 -0.4903 -0.3936
  607MOL0     C83690  10.159   2.596   1.810  1.3774 -0.4731  1.0042
  607MOL0     C83691  10.055   2.476   1.784  0.3424  0.8148  0.0967
  607MOL0     C83692   9.912   2.526   1.780  0.8978  1.1256 -0.5769
  607MOL0     C83693   9.799   2.564   1.791 -0.0023 -0.0220 -0.9002
  607MOL0     C83694  10.494   2.656   1.612  0.1608 -0.4542  0.3780
  607MOL0     C83695  10.632   2.659   1.626 -0.7557 -0.6263 -0.0965
  607MOL0     C83696  10.693   2.794   1.648 -0.1482  0.1250  0.4420
  607MOL0     H83697  10.998   2.276   1.405  1.6561 -2.8317 -0.4444
  607MOL0     H83698  11.208   2.165   1.412 -1.1677  0.6447 -1.3927
  607MOL0     H83699  11.522   2.324   1.693  1.0096 -0.1122  0.7150
  607MOL0     H83700  11.596   2.184   1.619  0.5425  2.9069 -0.4449
  607MOL0     H83701  11.440   2.195   1.884 -2.0057  1.5742 -2.5890
  607MOL0     H83702  11.480   2.041   1.811  3.8689 -1.4559  1.5993
  607MOL0     H83703  11.700   2.068   1.844  1.2321  0.3693 -0.3333
  607MOL0     H83704  11.688   2.250   1.876  2.0113 -0.5604  2.1399
  607MOL0     H83705  11.583   2.202   2.085 -0.8380 -0.9191  1.1666
  607MOL0     H83706  11.565   2.024   2.036  0.2069 -0.2905 -1.1827
  607MOL0     H83707  11.808   1.997   2.033 -2.7056 -0.3391 -2.2631
  607MOL0     H83708  11.741   2.025   2.190 -1.5109 -0.4812 -0.7677
  607MOL0     H83709  11.885   2.230   2.009  1.1610 -0.0101  0.2610
  607MOL0     H83710  11.816   2.266   2.170  1.6542  1.2921  0.1996
  607MOL0     H83711  12.018   2.046   2.136 -2.3724 -0.6266 -0.1871
  607MOL0     H83712  11.973   2.138   2.286  1.3263  1.7833  0.1300
  607MOL0     H83713  12.112   2.269   2.053  1.0730 -0.3331 -0.1301
  607MOL0     H83714  12.078   2.330   2.211 -0.8024 -0.9012  0.5791
  607MOL0     H83715  12.279   2.258   2.396 -1.3971 -0.2161 -0.8047
  607MOL0     H83716  12.524   2.252   2.469  1.5265 -0.9054  0.5820
  607MOL0     H83717  12.604   2.289   2.320  0.3725  0.8439  0.8820
  607MOL0     H83718  12.687   2.101   2.492 -3.5119  0.6307  1.3882
  607MOL0     H83719  12.588   1.995   2.392  0.8300  0.0362  2.8101
  607MOL0     H83720  12.693   2.048   2.206 -1.6721  2.1633 -0.2039
  607MOL0     H83721  12.806   2.168   2.275 -0.8370 -0.1253 -1.9260
  607MOL0     H83722  12.905   1.952   2.403 -2.6845 -2.7957  0.5215
  607MOL0     H83723  12.801   1.868   2.300  0.4035  0.3303  1.5359
  607MOL0     H83724  13.002   1.727   2.342  0.3827 -0.7369 -0.6280
  607MOL0     H83725  13.313   1.548   2.375 -1.5498 -2.0631  1.9120
  607MOL0     H83726  13.191   1.497   2.252 -0.5172 -0.0853  0.7388
  607MOL0     H83727  13.146   1.571   2.408 -1.0972  2.6731 -0.5079
  607MOL0     H83728  13.680   1.504   2.099  0.8707  1.6717  1.0580
  607MOL0     H83729  13.885   1.444   1.991  1.2958  0.5947 -2.0724
  607MOL0     H83730  13.965   1.579   1.588 -0.3971  0.0197  0.6816
  607MOL0     H83731  14.047   1.698   1.682 -1.7139 -0.6045  0.5226
  607MOL0     H83732  14.150   1.425   1.636 -0.5425 -0.1814  2.3181
  607MOL0     H83733  14.199   1.573   1.535 -3.2349  0.5404 -1.0850
  607MOL0     H83734  14.245   1.555   1.833 -0.0323 -0.9960  0.0813
  607MOL0     H83735  14.246   1.703   1.746 -4.4288 -0.6760  0.1287
  607MOL0     H83736  14.432   1.610   1.596  0.5918 -1.8583 -1.1394
  607MOL0     H83737  14.422   1.458   1.695 -0.3976  0.4715 -2.3604
  607MOL0     H83738  14.515   1.726   1.787  0.8238 -0.1048 -2.9682
  607MOL0     H83739  14.494   1.589   1.900 -1.3740 -0.4453  0.0701
  607MOL0     H83740  14.651   1.468   1.721 -0.8800  0.3008 -1.0350
  607MOL0     H83741  14.712   1.574   1.851 -0.2754  1.9722 -0.1164
  607MOL0     H83742  14.671   1.763   1.651  0.5019 -0.4361  0.9570
  607MOL0     H83743  14.716   1.632   1.551 -2.6139 -0.3548 -0.1402
  607MOL0     H83744  14.912   1.758   1.616  0.9378 -1.9496 -0.8826
  607MOL0     H83745  14.918   1.605   1.695 -0.1039  0.5680  0.9879
  607MOL0     H83746  13.804   1.728   1.683 -0.9439 -1.5256 -1.0548
  607MOL0     H83747  13.591   1.784   1.777 -0.1688 -1.3281 -1.3472
  607MOL0     H83748  13.359   1.892   2.030  0.5473 -0.7426 -0.0095
  607MOL0     H83749  13.158   2.022   2.062  0.1425 -0.2765  0.1774
  607MOL0     H83750  11.312   2.366   1.769  0.1270 -3.6323  0.1072
  607MOL0     H83751  11.117   2.524   1.741  1.3047 -0.2176 -0.0378
  607MOL0     H83752  10.695   2.327   1.546  0.0537 -0.9654  0.6636
  607MOL0     H83753  10.436   2.346   1.523 -1.5702 -0.4567  1.4240
  607MOL0     H83754  10.244   2.730   1.508 -1.4949  0.8793  0.1060
  607MOL0     H83755  10.112   2.616   1.505 -0.9856 -2.1234  2.1297
  607MOL0     H83756  10.068   2.759   1.694  0.6681  0.8857  3.2872
  607MOL0     H83757  10.238   2.778   1.714  0.7193 -0.4014 -3.0352
  607MOL0     H83758  10.263   2.564   1.820  1.5267 -0.3755 -0.0961
  607MOL0     H83759  10.138   2.645   1.905 -2.0255 -3.9247  2.3087
  607MOL0     H83760  10.058   2.412   1.872 -0.0468  1.3271  0.4857
  607MOL0     H83761  10.088   2.424   1.693 -0.2752  0.6750 -0.0515
  607MOL0     H83762   9.699   2.593   1.816 -0.0176 -1.9090  1.6297
  607MOL0     H83763  10.435   2.746   1.628  1.4656  0.3213  0.9310
  607MOL0     H83764  10.618   2.873   1.641 -1.1309 -0.9154 -1.3508
  607MOL0     H83765  10.738   2.816   1.745 -3.6435  2.0160  1.8075
  607MOL0     H83766  10.771   2.809   1.572  1.7189  0.3469  2.2960
  608MOL0     O83767   2.418   4.521   7.009  0.0011 -0.1896 -0.1005
  608MOL0     C83768   2.352   4.575   7.099 -0.4643 -0.9265  0.5646
  608MOL0     O83769   2.398   4.675   7.184  0.0906 -0.3212 -0.3300
  608MOL0     C83770   2.530   4.721   7.175  0.2811  0.8662  0.5652
  608MOL0     C83771   2.646   4.641   7.164  0.9903  0.7626 -0.5955
  608MOL0     C83772   2.778   4.690   7.149  1.0969 -0.4851  0.5274
  608MOL0     C83773   2.787   4.831   7.132 -0.3820 -0.8839  0.9520
  608MOL0     O83774   2.910   4.887   7.098  0.2042  0.1153  0.5295
  608MOL0     C83775   2.965   4.953   7.213  0.4891  0.4155 -0.2051
  608MOL0     C83776   3.113   4.999   7.194  0.0523  0.7233  0.1542
  608MOL0     C83777   3.218   4.882   7.179 -0.0735  0.5109  0.2326
  608MOL0     C83778   3.360   4.929   7.182 -0.2309 -0.1777 -1.2271
  608MOL0     C83779   3.462   4.819   7.228  0.4705  0.7136 -0.6830
  608MOL0     C83780   3.604   4.883   7.232  0.3163 -0.7402 -0.7851
  608MOL0     C83781   3.653   4.926   7.091 -0.2290  0.0679  0.6465
  608MOL0     C83782   3.652   4.811   6.993  0.6308 -0.2712 -0.6582
  608MOL0     N83783   3.744   4.825   6.877 -0.5482 -0.7521 -0.1493
  608MOL0     C83784   3.861   4.761   6.870 -0.2345  0.6404  0.7912
  608MOL0     C83785   3.912   4.801   6.745 -0.6489  0.4743  0.0084
  608MOL0     C83786   4.043   4.769   6.678  0.1527  0.4008  0.1120
  608MOL0     C83787   4.162   4.862   6.723  0.6830 -0.1502  0.2388
  608MOL0     C83788   4.224   4.813   6.845  0.5762  1.0570  0.5894
  608MOL0     C83789   4.345   4.904   6.875  0.7534  0.1835 -1.1678
  608MOL0     O83790   4.454   4.864   6.787  0.3627 -0.9204  0.1815
  608MOL0     C83791   4.575   4.907   6.824  0.8054 -0.5740  0.4660
  608MOL0     C83792   4.606   5.008   6.914 -0.5150 -0.5044 -0.7766
  608MOL0     C83793   4.739   5.029   6.966  0.5262 -0.0212 -0.1882
  608MOL0     C83794   4.753   5.141   7.073  0.9438 -0.0590  0.8357
  608MOL0     C83795   4.840   4.946   6.923  0.4220 -0.1512 -0.9580
  608MOL0     C83796   4.986   4.952   6.964 -0.0835  0.0415 -0.2692
  608MOL0     O83797   5.030   5.078   7.003  0.8150 -0.2783 -0.1244
  608MOL0     C83798   5.159   5.098   7.020  0.0230 -0.4720 -0.6259
  608MOL0     C83799   5.258   5.047   6.944 -0.3341  0.5362 -0.1243
  608MOL0     C83800   5.394   5.083   6.960  0.6184 -0.4698 -0.3587
  608MOL0     C83801   5.429   5.188   7.043  0.2186 -0.1801 -0.2315
  608MOL0     O83802   5.558   5.237   7.064 -0.5538  0.7291 -0.7453
  608MOL0     C83803   5.649   5.142   7.125  0.1557 -0.1291 -0.7322
  608MOL0     C83804   5.792   5.187   7.081 -0.4855  0.2468 -0.4746
  608MOL0     C83805   5.908   5.125   7.170 -0.3247 -0.3498 -0.4074
  608MOL0     C83806   6.045   5.151   7.102  0.1597  0.0831 -0.1480
  608MOL0     C83807   6.172   5.093   7.179  0.4810  0.7094 -0.1114
  608MOL0     C83808   6.299   5.090   7.093 -0.1567  0.8048 -0.4673
  608MOL0     C83809   6.430   5.060   7.168 -0.2012  0.7676  0.3006
  608MOL0     C83810   6.551   5.071   7.073  0.1641  0.0970 -0.7609
  608MOL0    Cl83811   6.573   4.934   6.964  0.3598 -0.2466 -0.3054
  608MOL0     C83812   5.330   5.242   7.121  0.0594 -0.8135 -0.0297
  608MOL0     C83813   5.200   5.196   7.117  0.5749 -0.0686 -0.2508
  608MOL0     O83814   5.057   4.853   6.939  0.1988  0.3848 -0.1420
  608MOL0     C83815   4.804   4.857   6.826 -0.1871 -0.4471 -0.3066
  608MOL0     C83816   4.678   4.835   6.779 -0.4501  0.1550  0.7342
  608MOL0     N83817   3.826   4.887   6.682 -0.2887  0.8307  0.1710
  608MOL0     N83818   3.729   4.897   6.763  0.0583 -0.0903  0.1848
  608MOL0     C83819   2.673   4.912   7.150 -0.2880 -0.9794  0.6893
  608MOL0     C83820   2.547   4.860   7.176  0.2764 -0.1340  0.2130
  608MOL0     C83821   2.207   4.541   7.102  0.1544 -0.7527 -0.4256
  608MOL0     C83822   2.114   4.640   7.125  0.2771 -0.4107  0.1643
  608MOL0     C83823   1.975   4.613   7.115 -0.5732 -0.8149  0.3621
  608MOL0     C83824   1.938   4.486   7.099  0.7050  1.1066  0.0758
  608MOL0     O83825   1.807   4.454   7.086  0.1967  0.4318  0.2083
  608MOL0     C83826   1.711   4.527   7.166 -0.6511 -0.0673 -0.0193
  608MOL0     C83827   1.577   4.461   7.145 -0.5902 -0.7013 -0.4617
  608MOL0     C83828   1.522   4.482   7.003 -0.5583  0.9974 -0.7390
  608MOL0     C83829   1.378   4.435   6.989 -0.9607 -0.6383 -0.0286
  608MOL0     C83830   1.367   4.290   7.020  0.7258 -0.2108  0.0375
  608MOL0     C83831   1.349   4.179   7.071 -0.0335  0.0478  0.6317
  608MOL0     C83832   2.026   4.389   7.066  0.8653  0.4445 -0.7156
  608MOL0     C83833   2.164   4.409   7.059 -0.1457  0.1183  0.0768
  608MOL0     C83834   2.255   4.287   7.043 -1.0184 -0.3178  0.2439
  608MOL0     H83835   2.633   4.533   7.161  1.8722  0.5742  1.3580
  608MOL0     H83836   2.866   4.627   7.137  1.0334 -0.6715  1.0126
  608MOL0     H83837   2.961   4.899   7.308  2.6269  1.5609  0.6179
  608MOL0     H83838   2.910   5.045   7.238  1.3881  0.6960  0.8197
  608MOL0     H83839   3.125   5.055   7.100 -0.4965 -1.8583 -1.5496
  608MOL0     H83840   3.144   5.057   7.281  2.7276 -2.8674  1.8342
  608MOL0     H83841   3.202   4.817   7.266 -1.1435 -0.2974 -0.5397
  608MOL0     H83842   3.199   4.824   7.088  3.1732 -3.0716  1.5574
  608MOL0     H83843   3.381   4.976   7.086  1.3068  1.5095 -0.1299
  608MOL0     H83844   3.381   5.005   7.257  1.6579 -1.5325 -0.3006
  608MOL0     H83845   3.452   4.725   7.173 -0.7875  0.3675  0.0886
  608MOL0     H83846   3.446   4.786   7.331  0.2070 -3.3218 -1.8166
  608MOL0     H83847   3.594   4.974   7.292 -1.4857 -0.6686 -1.1306
  608MOL0     H83848   3.669   4.813   7.286 -1.4216 -0.4919  1.8055
  608MOL0     H83849   3.753   4.971   7.098 -0.3412  0.7510 -1.4433
  608MOL0     H83850   3.594   5.012   7.059  0.7781  0.5826  0.1068
  608MOL0     H83851   3.690   4.726   7.051  1.4470  1.3290  1.2769
  608MOL0     H83852   3.553   4.788   6.952  1.9246 -2.0896 -3.0457
  608MOL0     H83853   3.917   4.695   6.936  2.9068  1.2080 -1.0712
  608MOL0     H83854   4.021   4.776   6.571 -1.7480 -5.1025 -0.2101
  608MOL0     H83855   4.063   4.662   6.694  0.1404  0.1718 -1.2752
  608MOL0     H83856   4.227   4.878   6.637 -0.7057  0.8107 -0.6710
  608MOL0     H83857   4.121   4.963   6.730  0.9573 -0.1323  2.3502
  608MOL0     H83858   4.145   4.810   6.920 -0.6167 -1.0807 -0.6649
  608MOL0     H83859   4.255   4.713   6.815  0.7375  1.4719 -0.7168
  608MOL0     H83860   4.321   5.011   6.879 -0.2862 -0.0695  1.1558
  608MOL0     H83861   4.367   4.883   6.980 -0.2138 -1.7263 -1.3023
  608MOL0     H83862   4.535   5.070   6.967  0.4763 -0.8603  1.0875
  608MOL0     H83863   4.831   5.109   7.144 -0.5967 -0.9541  2.1934
  608MOL0     H83864   4.657   5.137   7.125 -0.4416 -0.9003 -1.6287
  608MOL0     H83865   4.776   5.233   7.018  0.9859 -1.2983 -1.3199
  608MOL0     H83866   5.220   4.986   6.862 -3.5600  2.9664 -0.6348
  608MOL0     H83867   5.459   5.036   6.888 -1.9379  0.3170 -3.3888
  608MOL0     H83868   5.639   5.133   7.234 -0.7639 -2.7982 -0.9825
  608MOL0     H83869   5.621   5.042   7.093 -2.1023 -0.4099  1.7433
  608MOL0     H83870   5.820   5.168   6.977  1.2305  2.4646 -0.5108
  608MOL0     H83871   5.796   5.296   7.092 -0.1525  0.0970  1.0161
  608MOL0     H83872   5.888   5.018   7.169  0.3637 -0.4897 -0.0260
  608MOL0     H83873   5.905   5.168   7.271  0.1161  0.9799 -0.9429
  608MOL0     H83874   6.065   5.258   7.096 -0.1390  0.1702  0.3841
  608MOL0     H83875   6.042   5.122   6.996 -0.2731  2.7334 -0.9336
  608MOL0     H83876   6.189   5.154   7.269  1.1530  2.5059 -1.3966
  608MOL0     H83877   6.145   4.991   7.207  1.2040  1.0351  1.9523
  608MOL0     H83878   6.321   5.183   7.040  5.3529  0.7687  1.1308
  608MOL0     H83879   6.288   5.009   7.020  1.4043 -1.3702  1.5635
  608MOL0     H83880   6.428   4.961   7.214  2.1068  0.7152  0.3757
  608MOL0     H83881   6.431   5.138   7.245  1.1006  1.7317 -0.6653
  608MOL0     H83882   6.642   5.079   7.133 -0.6736 -0.8639  0.6976
  608MOL0     H83883   6.529   5.156   7.008 -0.3902  0.5285 -0.0244
  608MOL0     H83884   5.363   5.317   7.192  1.4376 -2.2122  0.8694
  608MOL0     H83885   5.136   5.226   7.199  1.8098  1.0852  0.3360
  608MOL0     H83886   4.878   4.791   6.782 -1.6432 -2.1173 -0.3575
  608MOL0     H83887   4.660   4.771   6.693 -1.6995 -0.4222  1.3921
  608MOL0     H83888   2.682   5.020   7.144 -1.2631 -0.8026  1.9683
  608MOL0     H83889   2.462   4.926   7.194  0.3089 -0.8355  3.6522
  608MOL0     H83890   2.142   4.741   7.152  0.5934 -0.3808 -0.2771
  608MOL0     H83891   1.903   4.694   7.114 -1.4911 -1.6042 -1.4554
  608MOL0     H83892   1.731   4.516   7.273 -2.1569 -0.5660  0.2331
  608MOL0     H83893   1.706   4.630   7.129  0.0961  0.1894  0.5856
  608MOL0     H83894   1.502   4.509   7.208 -0.6138 -0.5088 -0.6391
  608MOL0     H83895   1.601   4.356   7.162  0.2538 -0.6321 -1.1577
  608MOL0     H83896   1.535   4.585   6.969  1.3144  0.5213 -1.6115
  608MOL0     H83897   1.585   4.419   6.940 -2.8929 -3.7311  1.1317
  608MOL0     H83898   1.352   4.461   6.886  0.7229  1.2569 -0.0340
  608MOL0     H83899   1.317   4.498   7.055  0.5210 -1.2124  1.9843
  608MOL0     H83900   1.340   4.082   7.115 -1.1218  0.6213  1.7255
  608MOL0     H83901   1.992   4.287   7.055 -3.6740  1.5939  0.5887
  608MOL0     H83902   2.276   4.280   6.936  2.8757  2.2091  0.6493
  608MOL0     H83903   2.353   4.289   7.093 -1.4009  0.4994  0.9752
  608MOL0     H83904   2.205   4.198   7.082  2.7462 -2.3762  0.9279
  609MOL0     O83905   2.061   0.758   3.051  0.0609  0.2527  0.0984
  609MOL0     C83906   2.098   0.644   3.078 -0.1162 -0.6565  0.3370
  609MOL0     O83907   2.014   0.536   3.104 -0.4222  0.6902  0.2864
  609MOL0     C83908   1.882   0.541   3.072  0.0130  0.0796  0.4370
  609MOL0     C83909   1.837   0.581   2.948  0.0082 -0.8235  0.0462
  609MOL0     C83910   1.703   0.573   2.917 -0.0870 -0.3932 -0.0029
  609MOL0     C83911   1.610   0.532   3.008  0.8987 -0.1334 -0.1886
  609MOL0     O83912   1.483   0.520   2.966  0.1928  0.3998 -0.3612
  609MOL0     C83913   1.383   0.469   3.061 -0.2317  0.1278  0.5385
  609MOL0     C83914   1.253   0.441   2.985  0.3561  1.1191  0.5833
  609MOL0     C83915   1.261   0.356   2.854 -0.3383 -0.6365 -0.5802
  609MOL0     C83916   1.305   0.212   2.867  0.3426  0.4113 -0.0785
  609MOL0     C83917   1.343   0.140   2.742 -0.3606  0.2535 -0.7749
  609MOL0     C83918   1.472   0.197   2.669 -0.7055  0.2725 -0.5909
  609MOL0     C83919   1.598   0.152   2.739  0.5515  0.2902  0.1591
  609MOL0     C83920   1.723   0.201   2.673  0.1774 -0.6152 -0.3992
  609MOL0     N83921   1.852   0.142   2.735  0.2406 -1.1133  0.2074
  609MOL0     C83922   1.946   0.212   2.805  0.6598  0.0941 -0.2045
  609MOL0     C83923   2.054   0.136   2.832  0.1315 -0.2993 -0.4057
  609MOL0     C83924   2.182   0.180   2.902  0.3517 -0.7750 -0.1566
  609MOL0     C83925   2.283   0.074   2.913 -1.0328 -0.1856 -0.1251
  609MOL0     C83926   2.402   0.100   3.019  0.2438  0.3471  0.9465
  609MOL0     C83927   2.508  -0.008   2.995  0.3033  0.2276 -0.0661
  609MOL0     O83928   2.564  -0.003   2.866  0.2105 -0.5340  0.2386
  609MOL0     C83929   2.682  -0.073   2.843  0.3318  0.2876 -0.1696
  609MOL0     C83930   2.724  -0.085   2.710 -1.1603 -0.4339 -0.4748
  609MOL0     C83931   2.847  -0.145   2.670  0.6448 -0.2976  1.0035
  609MOL0     C83932   2.891  -0.139   2.526  0.4069 -0.1767  0.5062
  609MOL0     C83933   2.932  -0.193   2.770 -0.2151 -0.0019  0.1840
  609MOL0     C83934   3.073  -0.236   2.746  1.0786 -0.6883 -0.3271
  609MOL0     O83935   3.146  -0.178   2.642 -0.7181 -0.0405 -0.4154
  609MOL0     C83936   3.279  -0.164   2.642 -0.6592  0.2324 -0.6148
  609MOL0     C83937   3.351  -0.057   2.705  0.1732  0.3535  0.2432
  609MOL0     C83938   3.493  -0.049   2.691 -0.3770 -0.8416  0.1141
  609MOL0     C83939   3.558  -0.156   2.631 -0.2886 -0.8992  0.8972
  609MOL0     O83940   3.695  -0.149   2.648 -0.4034  0.6183 -0.4721
  609MOL0     C83941   3.783  -0.241   2.589 -0.7569 -0.2666  1.0552
  609MOL0     C83942   3.931  -0.199   2.614  0.2012  0.0101 -0.5642
  609MOL0     C83943   4.025  -0.305   2.555 -0.3163 -0.0782  0.1756
  609MOL0     C83944   4.059  -0.261   2.407  0.2723  0.0502  0.1435
  609MOL0     C83945   4.185  -0.342   2.351  0.5436 -0.1442 -0.3316
  609MOL0     C83946   4.135  -0.478   2.303  0.5696  0.5298  0.9061
  609MOL0     C83947   4.241  -0.564   2.249 -1.5725  0.3647 -1.1878
  609MOL0     C83948   4.205  -0.691   2.168  0.4564 -0.5404 -0.2200
  609MOL0    Cl83949   4.182  -0.809   2.297 -0.2204  0.0777  0.0276
  609MOL0     C83950   3.488  -0.269   2.581  0.3574 -0.1407 -0.8532
  609MOL0     C83951   3.350  -0.269   2.587 -0.0067  0.8416 -0.4233
  609MOL0     O83952   3.120  -0.312   2.826  0.0587  0.0678  0.0011
  609MOL0     C83953   2.886  -0.184   2.902  0.5565 -0.2966 -0.4199
  609MOL0     C83954   2.768  -0.120   2.939 -0.2049 -0.5508 -0.1892
  609MOL0     N83955   2.009   0.010   2.786 -0.2731 -0.8824  0.0736
  609MOL0     N83956   1.893   0.014   2.728 -0.2807  0.1931  1.1098
  609MOL0     C83957   1.651   0.495   3.135  0.0304  0.1830 -0.0787
  609MOL0     C83958   1.790   0.487   3.161  0.2030 -0.1807 -0.0279
  609MOL0     C83959   2.236   0.597   3.052 -0.7154 -0.1080 -0.5143
  609MOL0     C83960   2.272   0.532   2.938 -0.1915 -0.1921 -0.2894
  609MOL0     C83961   2.397   0.493   2.906  0.7905 -1.3832  0.1015
  609MOL0     C83962   2.501   0.505   2.991  0.3847  0.1375 -0.5280
  609MOL0     O83963   2.632   0.472   2.972  0.3469 -0.2224  0.4935
  609MOL0     C83964   2.658   0.398   2.848 -1.1945  0.2136  0.1017
  609MOL0     C83965   2.802   0.373   2.830 -0.0450  0.2035 -0.2913
  609MOL0     C83966   2.851   0.239   2.889  0.0655 -0.2450  0.1147
  609MOL0     C83967   3.003   0.251   2.921  0.2031  0.4622 -0.2184
  609MOL0     C83968   3.049   0.128   2.971 -0.7091  1.2258  1.1636
  609MOL0     C83969   3.102   0.027   2.998  0.1073 -0.0470  0.3794
  609MOL0     C83970   2.469   0.567   3.115 -0.9206 -0.6156 -0.1182
  609MOL0     C83971   2.345   0.615   3.145 -0.9495 -0.1085 -1.0949
  609MOL0     C83972   2.314   0.674   3.278 -0.0022 -0.3235  0.5067
  609MOL0     H83973   1.910   0.613   2.874 -1.0826 -2.1563 -1.6954
  609MOL0     H83974   1.671   0.604   2.818 -0.3810  0.7584  0.4329
  609MOL0     H83975   1.361   0.542   3.140  0.2198  1.4654 -0.5219
  609MOL0     H83976   1.413   0.374   3.104  0.0437 -0.0870 -0.1168
  609MOL0     H83977   1.185   0.391   3.055 -2.0399  1.8324 -1.1176
  609MOL0     H83978   1.198   0.534   2.975 -0.7862  0.3729 -0.2909
  609MOL0     H83979   1.163   0.360   2.807 -0.5971  2.1430  0.0564
  609MOL0     H83980   1.328   0.401   2.780 -0.1003  2.1108  1.1516
  609MOL0     H83981   1.392   0.210   2.933 -0.1209  0.6313  0.5516
  609MOL0     H83982   1.233   0.149   2.921  0.8801 -0.8076 -0.7521
  609MOL0     H83983   1.255   0.156   2.679 -3.9402  3.5056  4.2781
  609MOL0     H83984   1.353   0.032   2.760 -1.4883  0.1113 -0.9240
  609MOL0     H83985   1.475   0.150   2.570  0.1818  0.5012 -0.6837
  609MOL0     H83986   1.476   0.306   2.672  1.3312  0.2064  0.5767
  609MOL0     H83987   1.606   0.043   2.734  5.5109  0.4725 -2.9478
  609MOL0     H83988   1.598   0.183   2.844  0.0097 -1.9377  0.8725
  609MOL0     H83989   1.728   0.169   2.569 -0.8951  0.2082 -0.7210
  609MOL0     H83990   1.728   0.310   2.675 -0.1928 -0.5963  1.8053
  609MOL0     H83991   1.951   0.314   2.841  2.3182  0.1157 -0.3917
  609MOL0     H83992   2.151   0.223   2.998  1.6241 -0.1741  0.0129
  609MOL0     H83993   2.222   0.262   2.842  0.3058  0.2681  1.1804
  609MOL0     H83994   2.233  -0.022   2.928 -0.5068 -1.1020 -3.5092
  609MOL0     H83995   2.317   0.064   2.810  0.3534  0.1543  0.2743
  609MOL0     H83996   2.443   0.201   3.003 -3.8977  2.0219 -0.7528
  609MOL0     H83997   2.358   0.097   3.119 -0.6342  0.2794  0.5690
  609MOL0     H83998   2.575   0.008   3.080 -0.9512  1.2058  0.7782
  609MOL0     H83999   2.460  -0.106   3.007 -4.1691  2.2392  0.6417
  609MOL0     H84000   2.644  -0.046   2.648 -0.5199  1.6453 -0.0684
  609MOL0     H84001   2.964  -0.216   2.498  1.6622  1.3063 -0.4669
  609MOL0     H84002   2.949  -0.047   2.517 -0.1042  0.1300  0.3225
  609MOL0     H84003   2.809  -0.134   2.454 -0.6086 -0.7323  1.5920
  609MOL0     H84004   3.302   0.023   2.760 -0.6345 -1.5934  2.5045
  609MOL0     H84005   3.547   0.033   2.737 -1.1100 -0.5087  0.4064
  609MOL0     H84006   3.773  -0.341   2.633  4.6760  0.6497  5.6593
  609MOL0     H84007   3.770  -0.243   2.481 -1.2467  0.4673  1.1002
  609MOL0     H84008   3.943  -0.101   2.566  2.5561 -0.8703 -1.9345
  609MOL0     H84009   3.948  -0.192   2.722  1.9641  0.4273 -0.8350
  609MOL0     H84010   3.986  -0.407   2.561  0.6831 -0.4401  0.7263
  609MOL0     H84011   4.120  -0.311   2.609  0.9184 -1.7197 -1.9540
  609MOL0     H84012   4.086  -0.157   2.385 -0.9321 -0.1544 -2.7543
  609MOL0     H84013   3.972  -0.273   2.342  0.4215 -0.5764  0.0540
  609MOL0     H84014   4.226  -0.287   2.266  1.2223  1.3625  0.9247
  609MOL0     H84015   4.266  -0.352   2.424 -0.5410  0.6833  1.0185
  609MOL0     H84016   4.063  -0.462   2.223  1.3382 -3.4437 -0.8191
  609MOL0     H84017   4.088  -0.530   2.386  0.6318 -0.1737  0.5091
  609MOL0     H84018   4.307  -0.593   2.331 -0.7610 -1.3803 -2.4000
  609MOL0     H84019   4.307  -0.499   2.190  0.4754 -1.7816 -1.3858
  609MOL0     H84020   4.279  -0.729   2.097  0.9893 -0.3199  0.2103
  609MOL0     H84021   4.116  -0.678   2.105 -1.1213 -0.5935  1.8874
  609MOL0     H84022   3.548  -0.347   2.534 -1.8385 -0.6597 -2.9467
  609MOL0     H84023   3.288  -0.351   2.552  1.5584 -1.0782  1.0608
  609MOL0     H84024   2.948  -0.209   2.988  0.2387 -0.6544 -0.2917
  609MOL0     H84025   2.755  -0.111   3.046 -2.3352 -0.7016 -0.3929
  609MOL0     H84026   1.590   0.459   3.217  1.1427 -4.1574 -0.9036
  609MOL0     H84027   1.825   0.446   3.255  0.1366 -0.5486 -0.1634
  609MOL0     H84028   2.196   0.513   2.863 -0.8108 -0.6026  0.4314
  609MOL0     H84029   2.417   0.449   2.809 -0.4717 -0.2526 -0.7266
  609MOL0     H84030   2.595   0.308   2.850 -1.1485  0.2015  1.0356
  609MOL0     H84031   2.635   0.450   2.754 -3.4306 -3.0278 -1.3418
  609MOL0     H84032   2.853   0.459   2.873 -0.0279 -0.2122  0.5391
  609MOL0     H84033   2.843   0.365   2.729  1.6996 -1.1541  0.4751
  609MOL0     H84034   2.793   0.214   2.979  0.2158  0.4496  0.4129
  609MOL0     H84035   2.831   0.163   2.813 -0.0994  1.1063 -1.2403
  609MOL0     H84036   3.021   0.315   3.008  1.5240  2.8213 -2.1283
  609MOL0     H84037   3.065   0.302   2.848  1.0630  3.0964  2.1723
  609MOL0     H84038   3.148  -0.067   3.016  0.0176 -0.5787 -1.8527
  609MOL0     H84039   2.553   0.583   3.182 -0.3708  2.4203 -1.3542
  609MOL0     H84040   2.301   0.782   3.266  2.7349  0.1534  1.1512
  609MOL0     H84041   2.220   0.637   3.319 -0.3055 -1.3696 -1.0429
  609MOL0     H84042   2.395   0.650   3.347 -0.0747 -0.1785  0.6419
  610MOL0     O84043   8.457   7.164   9.197 -0.1873  0.4613 -0.3279
  610MOL0     C84044   8.407   7.184   9.306 -0.8327  0.0302 -0.2324
  610MOL0     O84045   8.471   7.155   9.427 -0.0796 -0.0636  0.5669
  610MOL0     C84046   8.609   7.154   9.424  0.7035  0.0589 -0.7029
  610MOL0     C84047   8.693   7.224   9.331  0.2472  0.5873  0.2603
  610MOL0     C84048   8.832   7.205   9.332 -1.0899  0.1303 -0.3392
  610MOL0     C84049   8.904   7.137   9.434  1.2751  0.5282 -0.1367
  610MOL0     O84050   9.040   7.128   9.441 -0.4655 -1.1653 -0.8077
  610MOL0     C84051   9.106   7.010   9.503  0.1733 -0.1674  0.4744
  610MOL0     C84052   9.253   7.047   9.530  0.8586  0.1691  0.4525
  610MOL0     C84053   9.321   7.050   9.391  0.0950  0.2686 -0.4844
  610MOL0     C84054   9.473   7.021   9.389  0.6106  0.1192  0.2573
  610MOL0     C84055   9.537   7.057   9.251 -1.4823  0.3524 -0.5729
  610MOL0     C84056   9.672   7.115   9.265 -0.1978  0.3114  0.5851
  610MOL0     C84057   9.784   7.017   9.311  0.6467 -0.3329 -0.5819
  610MOL0     C84058   9.873   6.964   9.195 -0.3132 -0.0904 -0.3733
  610MOL0     N84059   9.989   6.884   9.248 -0.5060  1.2121  0.5225
  610MOL0     C84060  10.046   6.777   9.183  0.9188  0.7562  0.1544
  610MOL0     C84061  10.164   6.758   9.235 -0.5088 -0.0709  0.1250
  610MOL0     C84062  10.275   6.662   9.219 -0.5106  0.1267 -0.9147
  610MOL0     C84063  10.410   6.720   9.170  0.1096 -0.3578 -0.1482
  610MOL0     C84064  10.527   6.622   9.200  0.7300 -0.4925  0.1899
  610MOL0     C84065  10.646   6.644   9.109 -0.1536 -0.0874 -0.0415
  610MOL0     O84066  10.748   6.539   9.128 -0.5812  0.6024  0.6140
  610MOL0     C84067  10.872   6.563   9.081 -0.0308  0.1647  0.9663
  610MOL0     C84068  10.896   6.626   8.956 -0.2336 -0.8418  0.1860
  610MOL0     C84069  11.024   6.653   8.910 -0.1746 -0.2307  0.4771
  610MOL0     C84070  11.027   6.747   8.784 -0.2770  0.1389 -0.3980
  610MOL0     C84071  11.134   6.592   8.976 -0.6204 -0.1134 -0.3086
  610MOL0     C84072  11.278   6.610   8.933  0.5010 -0.1174  0.1762
  610MOL0     O84073  11.371   6.529   8.998  0.3334 -0.2849 -0.6200
  610MOL0     C84074  11.490   6.515   8.954  0.4082 -0.7301 -0.8142
  610MOL0     C84075  11.594   6.531   9.041 -0.4283 -0.5144 -0.6024
  610MOL0     C84076  11.717   6.504   8.988 -0.3092  0.4457  0.0246
  610MOL0     C84077  11.737   6.466   8.855 -0.0252 -0.2060 -0.3478
  610MOL0     O84078  11.864   6.459   8.808 -0.0396 -0.5760  0.1791
  610MOL0     C84079  11.903   6.355   8.718 -0.7533 -0.2752 -0.0587
  610MOL0     C84080  12.047   6.374   8.675 -0.1229 -0.1958  0.7394
  610MOL0     C84081  12.159   6.376   8.789 -0.0795 -0.1247 -0.0975
  610MOL0     C84082  12.277   6.449   8.747 -0.3828  0.4137  0.5832
  610MOL0     C84083  12.398   6.429   8.841 -0.5878  1.0873 -0.2770
  610MOL0     C84084  12.535   6.466   8.788 -0.1247 -0.0582  0.5033
  610MOL0     C84085  12.562   6.412   8.650 -0.3920 -0.2889 -0.8768
  610MOL0     C84086  12.564   6.258   8.639 -0.8607 -0.1342  0.1510
  610MOL0    Cl84087  12.690   6.167   8.730 -0.0197 -0.0407  0.3207
  610MOL0     C84088  11.627   6.452   8.765 -0.0975  0.6585 -0.0535
  610MOL0     C84089  11.500   6.471   8.822 -0.1597 -0.0114 -0.0898
  610MOL0     O84090  11.303   6.687   8.840 -0.3910  0.0563  0.7247
  610MOL0     C84091  11.112   6.511   9.092  0.1388 -0.0565  0.1319
  610MOL0     C84092  10.984   6.494   9.137  0.7554  0.1160 -0.6960
  610MOL0     N84093  10.187   6.857   9.338  0.1010  0.3211 -0.0162
  610MOL0     N84094  10.075   6.923   9.348  0.3414  0.3263 -0.3347
  610MOL0     C84095   8.813   7.054   9.516  0.3289 -0.2558 -0.5112
  610MOL0     C84096   8.675   7.060   9.499 -1.0021  0.0297  0.0646
  610MOL0     C84097   8.261   7.207   9.315 -0.2852  0.1262  0.5116
  610MOL0     C84098   8.192   7.124   9.395 -0.4815  0.4884  0.0434
  610MOL0     C84099   8.062   7.152   9.438  0.2805  0.2653  1.4472
  610MOL0     C84100   7.994   7.254   9.364  0.0761 -0.4358 -0.2929
  610MOL0     O84101   7.863   7.285   9.398  0.4641 -0.4375  0.8228
  610MOL0     C84102   7.798   7.383   9.323 -0.4193  0.1963 -0.7227
  610MOL0     C84103   7.656   7.399   9.390 -0.9288 -0.5117 -0.5430
  610MOL0     C84104   7.584   7.519   9.332  0.4058  0.0109  0.8525
  610MOL0     C84105   7.554   7.625   9.434  0.1070  0.4598  0.0756
  610MOL0     C84106   7.678   7.689   9.481 -0.1099  0.4480  0.8397
  610MOL0     C84107   7.785   7.739   9.510  0.2075 -0.0145  0.7049
  610MOL0     C84108   8.060   7.319   9.258 -0.0508  0.2403 -0.2339
  610MOL0     C84109   8.193   7.301   9.227  0.3015 -0.7120 -0.4128
  610MOL0     C84110   8.258   7.383   9.126 -0.2289 -0.0053  0.2741
  610MOL0     H84111   8.658   7.291   9.254 -1.5745 -0.2508  0.2996
  610MOL0     H84112   8.887   7.240   9.246  0.2769  2.6285  1.4056
  610MOL0     H84113   9.105   6.918   9.444  0.2071  0.0264  0.1728
  610MOL0     H84114   9.054   6.988   9.597  0.0865 -3.5835 -0.2603
  610MOL0     H84115   9.267   7.147   9.574  0.1337  1.5073 -2.1757
  610MOL0     H84116   9.302   6.973   9.594  1.8293  1.5355  1.3492
  610MOL0     H84117   9.268   6.976   9.332 -3.0490 -0.7965  3.2479
  610MOL0     H84118   9.298   7.148   9.347 -0.0935  1.2027  1.5608
  610MOL0     H84119   9.510   7.096   9.460 -1.4604  0.0656  1.4574
  610MOL0     H84120   9.490   6.916   9.412 -0.1031 -0.6954 -2.5578
  610MOL0     H84121   9.469   7.129   9.206 -2.2444  0.0000 -0.0191
  610MOL0     H84122   9.544   6.970   9.185 -0.8275  0.5055 -0.7156
  610MOL0     H84123   9.703   7.165   9.172  0.1282  1.4964  1.3053
  610MOL0     H84124   9.668   7.199   9.336 -2.2738 -0.1411  1.0568
  610MOL0     H84125   9.732   6.931   9.354  1.7346 -0.3760  0.6807
  610MOL0     H84126   9.843   7.064   9.391  0.5901 -0.2824 -0.5690
  610MOL0     H84127   9.808   6.894   9.142 -3.7836  0.1778  3.0552
  610MOL0     H84128   9.923   7.048   9.145  1.6637 -1.6711 -1.2175
  610MOL0     H84129  10.005   6.710   9.108 -3.0990 -2.1123  4.3431
  610MOL0     H84130  10.246   6.584   9.148 -0.3500 -0.7877 -0.0010
  610MOL0     H84131  10.284   6.620   9.319  2.6743  1.6541 -0.4347
  610MOL0     H84132  10.396   6.749   9.065  2.5265 -0.1881 -0.4788
  610MOL0     H84133  10.438   6.816   9.215  1.3561 -1.0878  0.6821
  610MOL0     H84134  10.555   6.641   9.304 -3.1178  2.9979  0.8144
  610MOL0     H84135  10.483   6.524   9.181 -0.7875  0.6906 -2.9504
  610MOL0     H84136  10.620   6.649   9.003 -0.3039  0.7279  0.0230
  610MOL0     H84137  10.682   6.747   9.121  3.3543 -0.6893 -3.3140
  610MOL0     H84138  10.813   6.667   8.899  0.3614 -0.7444 -0.6270
  610MOL0     H84139  11.103   6.714   8.713 -0.1413  1.0275 -0.6795
  610MOL0     H84140  11.054   6.850   8.811  1.3908 -0.4798  0.3916
  610MOL0     H84141  10.932   6.735   8.730 -2.5835  1.5415  2.9542
  610MOL0     H84142  11.590   6.550   9.148  1.7588 -0.2809 -0.5152
  610MOL0     H84143  11.807   6.528   9.045  0.0099  2.3213 -1.1843
  610MOL0     H84144  11.895   6.265   8.779  1.0082 -1.5682 -1.5863
  610MOL0     H84145  11.842   6.350   8.627  1.3276 -3.9296 -1.4601
  610MOL0     H84146  12.082   6.292   8.611  1.2579 -1.2807  2.7914
  610MOL0     H84147  12.060   6.467   8.620  0.3567 -1.0619 -0.6814
  610MOL0     H84148  12.188   6.279   8.830 -0.7610 -0.8467 -1.2940
  610MOL0     H84149  12.115   6.438   8.867 -2.9559 -1.1371 -0.7989
  610MOL0     H84150  12.263   6.557   8.730  2.6740  0.6348 -1.5740
  610MOL0     H84151  12.312   6.407   8.652  0.2080  1.4264  0.3284
  610MOL0     H84152  12.390   6.473   8.941  0.2425 -1.5483  1.0629
  610MOL0     H84153  12.401   6.321   8.863  0.1065  1.6407  2.7774
  610MOL0     H84154  12.613   6.415   8.846  1.1137 -3.8136 -3.8702
  610MOL0     H84155  12.558   6.573   8.796  1.1481 -0.3517  1.1129
  610MOL0     H84156  12.665   6.443   8.628 -0.1923  0.1406  0.6064
  610MOL0     H84157  12.501   6.475   8.584 -0.2894 -0.2852 -0.9697
  610MOL0     H84158  12.581   6.240   8.532  0.7440  1.2697  0.1172
  610MOL0     H84159  12.462   6.226   8.661 -0.9398 -0.9524 -1.2447
  610MOL0     H84160  11.640   6.438   8.658 -1.0344  0.7069 -0.1795
  610MOL0     H84161  11.407   6.460   8.768 -1.5705 -3.5555  2.6794
  610MOL0     H84162  11.181   6.465   9.161 -2.6319 -1.8282  1.8810
  610MOL0     H84163  10.966   6.438   9.229 -0.3951 -0.7242 -1.4050
  610MOL0     H84164   8.851   6.996   9.600  0.7643 -2.9107 -2.3822
  610MOL0     H84165   8.621   6.992   9.563  0.0425  0.5003  1.5082
  610MOL0     H84166   8.257   7.059   9.453  3.0875  3.0639 -0.7121
  610MOL0     H84167   8.016   7.102   9.523  0.1840 -0.1488  1.1565
  610MOL0     H84168   7.859   7.474   9.333  0.3629 -0.4964  1.2131
  610MOL0     H84169   7.793   7.360   9.216 -0.5521 -1.0074 -0.4617
  610MOL0     H84170   7.651   7.396   9.499 -4.3968 -1.0762 -0.5861
  610MOL0     H84171   7.605   7.312   9.347 -0.3486 -0.6612 -0.9445
  610MOL0     H84172   7.641   7.565   9.250 -1.0149  3.2190  1.5158
  610MOL0     H84173   7.492   7.493   9.279  0.8399  2.4485 -1.3245
  610MOL0     H84174   7.503   7.567   9.511 -1.3562  0.2969 -0.9729
  610MOL0     H84175   7.480   7.697   9.398 -1.5129 -0.4527  1.4282
  610MOL0     H84176   7.873   7.777   9.556  1.9891 -0.4896 -2.0792
  610MOL0     H84177   8.020   7.395   9.193 -0.1764 -0.1947 -0.6722
  610MOL0     H84178   8.271   7.333   9.029 -0.1259 -1.0176  0.8004
  610MOL0     H84179   8.207   7.478   9.107  2.7971  2.2578  2.3454
  610MOL0     H84180   8.360   7.407   9.160 -0.0338 -1.0454  0.4435
  611MOL0     O84181   8.779   4.415   1.102 -0.3611  0.0838 -0.0299
  611MOL0     C84182   8.807   4.464   0.992 -0.6342 -0.1966 -0.1775
  611MOL0     O84183   8.928   4.503   0.948  0.3519 -0.0730  0.0193
  611MOL0     C84184   9.032   4.479   1.032  0.8135  0.0397 -0.4920
  611MOL0     C84185   9.137   4.390   0.987  0.6355 -0.0229 -0.0711
  611MOL0     C84186   9.253   4.372   1.063 -0.1411  0.9164  0.0009
  611MOL0     C84187   9.266   4.446   1.187 -0.1575  0.3837  0.3319
  611MOL0     O84188   9.383   4.454   1.259 -0.7990  0.2154 -0.7673
  611MOL0     C84189   9.468   4.337   1.257  0.4066  0.4220  0.5946
  611MOL0     C84190   9.564   4.332   1.370 -0.8535  0.2385  0.1504
  611MOL0     C84191   9.654   4.450   1.357 -0.6063 -0.4489  0.4154
  611MOL0     C84192   9.755   4.455   1.466  0.1249 -0.2506  0.8365
  611MOL0     C84193   9.858   4.568   1.452 -0.8566  0.5845  0.2802
  611MOL0     C84194   9.937   4.584   1.584 -0.4886 -0.5241  0.1277
  611MOL0     C84195  10.063   4.652   1.551  0.0613 -0.2314  0.9038
  611MOL0     C84196  10.128   4.711   1.685 -0.0551 -0.4173  1.0633
  611MOL0     N84197  10.283   4.713   1.678 -0.2994  0.5881  1.0773
  611MOL0     C84198  10.367   4.798   1.606 -0.9693  0.1278 -0.1052
  611MOL0     C84199  10.494   4.774   1.644 -0.2965  0.6488 -0.2507
  611MOL0     C84200  10.617   4.852   1.607 -0.3769  0.8258  0.1772
  611MOL0     C84201  10.632   4.963   1.713 -0.4137  0.1909  0.5189
  611MOL0     C84202  10.744   4.931   1.812 -0.6228 -0.5804  0.4737
  611MOL0     C84203  10.881   4.909   1.746  0.5590 -0.3035 -0.4333
  611MOL0     O84204  10.903   5.017   1.656  0.1108 -0.6152  0.2803
  611MOL0     C84205  11.029   5.044   1.611  0.3242  0.4290  0.0772
  611MOL0     C84206  11.026   5.165   1.537 -0.3285 -0.2628  0.0338
  611MOL0     C84207  11.139   5.214   1.478 -0.8105 -0.9250  0.6079
  611MOL0     C84208  11.131   5.346   1.407 -0.6799 -0.2091  0.0149
  611MOL0     C84209  11.261   5.135   1.494 -0.2230 -0.1347  0.6885
  611MOL0     C84210  11.399   5.193   1.455  0.6185 -0.5614  0.6173
  611MOL0     O84211  11.507   5.097   1.457 -0.2241 -0.3727 -0.0739
  611MOL0     C84212  11.631   5.153   1.425 -0.1031  0.2801  0.0430
  611MOL0     C84213  11.675   5.165   1.289  1.4870 -0.1997 -0.5864
  611MOL0     C84214  11.804   5.222   1.268 -0.5529  0.1266  0.0821
  611MOL0     C84215  11.888   5.267   1.367 -0.2355 -0.1906  0.2173
  611MOL0     O84216  12.018   5.300   1.339  0.3965  0.0623 -0.3534
  611MOL0     C84217  12.036   5.354   1.212 -0.6946  0.0648  0.6727
  611MOL0     C84218  12.139   5.464   1.226 -0.5061 -0.7309 -0.4057
  611MOL0     C84219  12.138   5.563   1.104  0.2331  0.2839  0.2261
  611MOL0     C84220  12.250   5.665   1.114 -0.3533 -1.0643  0.5234
  611MOL0     C84221  12.248   5.774   1.000 -0.4331  0.3554  0.6062
  611MOL0     C84222  12.141   5.884   0.988  0.0406  0.4531 -0.2762
  611MOL0     C84223  12.127   5.978   1.122 -0.2570 -0.4452  0.7617
  611MOL0     C84224  12.258   6.047   1.145 -0.7136 -1.1113 -0.5079
  611MOL0    Cl84225  12.224   6.192   1.237 -0.1558  0.0980  0.1183
  611MOL0     C84226  11.839   5.261   1.497  0.2161  0.5327 -0.6352
  611MOL0     C84227  11.714   5.191   1.527 -0.0223  0.9361  0.6058
  611MOL0     O84228  11.418   5.315   1.436  0.5154 -0.2287 -0.1708
  611MOL0     C84229  11.254   5.014   1.564 -0.1495  0.4790  0.0041
  611MOL0     C84230  11.140   4.960   1.625 -0.7297 -0.0012  0.3070
  611MOL0     N84231  10.485   4.667   1.731  0.2453  0.4467  0.6499
  611MOL0     N84232  10.368   4.631   1.753  0.0234  0.5007  0.2947
  611MOL0     C84233   9.174   4.547   1.219  0.3738  0.5803 -0.2231
  611MOL0     C84234   9.056   4.566   1.140  0.7205 -0.0530 -0.1802
  611MOL0     C84235   8.692   4.483   0.900 -0.0852  0.0640 -1.2323
  611MOL0     C84236   8.710   4.584   0.804 -0.5170 -0.5647  0.2798
  611MOL0     C84237   8.616   4.610   0.707  0.9402  0.4456  0.3774
  611MOL0     C84238   8.494   4.547   0.707  0.0959  0.6258  1.0872
  611MOL0     O84239   8.401   4.551   0.604  0.0696  0.0074  1.0121
  611MOL0     C84240   8.432   4.632   0.490 -0.1790  0.2531  0.1766
  611MOL0     C84241   8.309   4.652   0.402 -0.3461 -0.0013  0.5108
  611MOL0     C84242   8.195   4.726   0.482  0.4801  0.6093  0.0300
  611MOL0     C84243   8.103   4.635   0.561  0.5916 -0.4224 -0.0556
  611MOL0     C84244   7.981   4.709   0.616  0.1170 -0.2488 -0.8239
  611MOL0     C84245   7.884   4.755   0.672 -0.5930 -0.4378  1.3748
  611MOL0     C84246   8.465   4.459   0.809 -0.5786 -0.3182 -0.2962
  611MOL0     C84247   8.565   4.416   0.902  0.0303 -0.4653  1.0637
  611MOL0     C84248   8.516   4.326   1.008 -0.6603 -0.8187  0.3482
  611MOL0     H84249   9.119   4.343   0.891  0.0358  4.4252 -2.4090
  611MOL0     H84250   9.333   4.320   1.011  0.8166 -0.7608  2.8766
  611MOL0     H84251   9.519   4.332   1.160 -1.4631 -1.9176 -0.3523
  611MOL0     H84252   9.396   4.255   1.260 -1.1326  1.5719 -1.7663
  611MOL0     H84253   9.525   4.332   1.472 -0.2055 -0.9427  0.4160
  611MOL0     H84254   9.616   4.240   1.342 -2.4749 -0.2985 -1.2551
  611MOL0     H84255   9.716   4.435   1.268  0.7049 -3.6376  1.7251
  611MOL0     H84256   9.610   4.550   1.360 -0.1930 -0.2788  1.0055
  611MOL0     H84257   9.702   4.468   1.562  0.2268  1.5936  0.6831
  611MOL0     H84258   9.803   4.358   1.482  0.6768  0.1674  1.7793
  611MOL0     H84259   9.804   4.658   1.423 -0.1289  1.1453  0.6168
  611MOL0     H84260   9.926   4.544   1.370 -1.1074 -0.0520  0.2477
  611MOL0     H84261   9.878   4.637   1.659  0.3031  0.2304  0.2228
  611MOL0     H84262   9.961   4.486   1.626 -0.2833 -0.3528  0.4114
  611MOL0     H84263  10.050   4.726   1.471  0.5764 -1.5546 -0.4507
  611MOL0     H84264  10.135   4.582   1.507 -1.7979 -0.9197 -1.2225
  611MOL0     H84265  10.083   4.810   1.695 -0.8528 -0.7721  1.0434
  611MOL0     H84266  10.095   4.653   1.772 -1.2899  3.5024  3.4763
  611MOL0     H84267  10.332   4.884   1.550 -3.2445 -2.0607 -2.2896
  611MOL0     H84268  10.615   4.894   1.506  2.1429 -1.3007 -0.8887
  611MOL0     H84269  10.706   4.788   1.611 -0.7338  0.3476  4.3793
  611MOL0     H84270  10.656   5.058   1.664 -0.7609  2.4273  4.3142
  611MOL0     H84271  10.535   4.981   1.759  0.2768  0.9413  1.7350
  611MOL0     H84272  10.751   5.013   1.884  0.0857 -1.0786  0.9836
  611MOL0     H84273  10.716   4.846   1.875  0.3852 -1.6459 -0.4698
  611MOL0     H84274  10.955   4.902   1.826  0.1133 -0.4262 -0.0276
  611MOL0     H84275  10.877   4.811   1.697 -0.0130 -0.1010 -0.8004
  611MOL0     H84276  10.935   5.224   1.533  0.5549  1.1694  0.4345
  611MOL0     H84277  11.148   5.436   1.468 -1.8596  1.6188 -2.1783
  611MOL0     H84278  11.033   5.346   1.358 -0.9826 -1.9644  0.5498
  611MOL0     H84279  11.200   5.353   1.322 -2.8421  0.2188 -1.7913
  611MOL0     H84280  11.613   5.135   1.205 -1.3429 -1.5842  1.7894
  611MOL0     H84281  11.842   5.226   1.167  1.3274  1.9616  0.7882
  611MOL0     H84282  12.076   5.282   1.140  0.2918  0.9093  0.3687
  611MOL0     H84283  11.944   5.401   1.174 -2.1708 -1.6816  1.8788
  611MOL0     H84284  12.112   5.516   1.318 -0.8241 -1.1751 -0.2436
  611MOL0     H84285  12.234   5.412   1.242  0.0390  0.5548  0.7009
  611MOL0     H84286  12.043   5.616   1.095  1.0640  1.8419  0.2649
  611MOL0     H84287  12.160   5.511   1.010 -2.2537 -1.7862  0.7010
  611MOL0     H84288  12.344   5.609   1.106 -0.0118 -0.2406 -2.0739
  611MOL0     H84289  12.250   5.719   1.209  0.7746 -0.8329  0.4033
  611MOL0     H84290  12.337   5.837   1.006 -2.1145  3.0533 -0.6875
  611MOL0     H84291  12.246   5.724   0.903  0.1503 -0.4304  0.9887
  611MOL0     H84292  12.043   5.838   0.967 -0.8827  2.2734 -0.1971
  611MOL0     H84293  12.156   5.948   0.901 -1.3264 -0.8783 -1.5630
  611MOL0     H84294  12.100   5.931   1.217  0.6279  1.2641  1.9110
  611MOL0     H84295  12.055   6.057   1.102 -1.6496 -1.5917  1.0697
  611MOL0     H84296  12.304   6.065   1.047  0.0445  1.6893  0.2685
  611MOL0     H84297  12.334   5.987   1.194  1.1062  2.4206  1.3947
  611MOL0     H84298  11.902   5.296   1.578 -2.2227  2.3824  0.5946
  611MOL0     H84299  11.669   5.177   1.624  0.0684  1.9809  0.8164
  611MOL0     H84300  11.347   4.962   1.579  0.2595  0.7324 -1.4998
  611MOL0     H84301  11.149   4.862   1.671 -1.3952 -1.4793 -2.4597
  611MOL0     H84302   9.197   4.613   1.301  2.2973  1.1268 -1.1246
  611MOL0     H84303   8.982   4.643   1.156 -1.3129 -1.6240 -1.4743
  611MOL0     H84304   8.801   4.643   0.804  0.5785 -2.1869  1.3469
  611MOL0     H84305   8.640   4.678   0.626 -2.4822  1.2452 -0.1233
  611MOL0     H84306   8.465   4.732   0.520  1.3731 -0.0659 -0.3639
  611MOL0     H84307   8.511   4.574   0.441  0.5519 -0.2682  1.8993
  611MOL0     H84308   8.271   4.555   0.369 -1.9076  1.9125 -4.3461
  611MOL0     H84309   8.336   4.716   0.317 -1.0245  1.1550  1.1493
  611MOL0     H84310   8.235   4.807   0.544 -2.2817  1.1534  1.2274
  611MOL0     H84311   8.126   4.768   0.409 -0.5632  0.3995  0.8761
  611MOL0     H84312   8.151   4.597   0.652 -1.9847 -2.3720  0.6425
  611MOL0     H84313   8.067   4.541   0.517 -4.7047 -0.2798  3.0297
  611MOL0     H84314   7.798   4.796   0.723 -1.0531 -0.1802  0.4224
  611MOL0     H84315   8.367   4.412   0.819 -0.6354 -0.0947  0.2216
  611MOL0     H84316   8.501   4.383   1.100 -2.9566 -1.4942  0.4526
  611MOL0     H84317   8.418   4.284   0.983 -1.6248  1.1552  0.6500
  611MOL0     H84318   8.581   4.240   1.027 -0.7187 -1.3191 -1.5234
  612MOL0     O84319   0.255   4.242   3.721  0.1943  0.0375  0.7797
  612MOL0     C84320   0.313   4.174   3.633  1.0097 -0.1388 -0.2883
  612MOL0     O84321   0.445   4.132   3.642 -0.2907  0.3762  0.2359
  612MOL0     C84322   0.501   4.127   3.767  0.8092  0.1483 -0.7418
  612MOL0     C84323   0.547   4.241   3.834  0.1018 -0.1729 -0.0419
  612MOL0     C84324   0.589   4.226   3.973  0.8646 -0.3638 -1.4862
  612MOL0     C84325   0.582   4.098   4.032 -0.2195 -0.0331  0.0836
  612MOL0     O84326   0.607   4.081   4.170  0.4896 -0.2991 -0.0228
  612MOL0     C84327   0.689   4.182   4.231 -0.3445  0.2569 -0.0498
  612MOL0     C84328   0.714   4.164   4.384 -0.1655  0.2851 -0.8052
  612MOL0     C84329   0.818   4.053   4.410 -0.9396 -0.4077  0.4087
  612MOL0     C84330   0.856   4.061   4.564  0.1723  0.2419  0.2758
  612MOL0     C84331   0.943   3.949   4.619  0.2054 -0.2930 -0.2885
  612MOL0     C84332   1.095   3.972   4.583  0.3100  0.2374 -0.1657
  612MOL0     C84333   1.174   4.085   4.664  0.4973 -0.0936 -0.6566
  612MOL0     C84334   1.327   4.090   4.642 -0.1368  0.8011 -0.6437
  612MOL0     N84335   1.395   4.217   4.680 -0.1265 -0.4776  1.0811
  612MOL0     C84336   1.330   4.334   4.723  0.5658  0.1392  0.2078
  612MOL0     C84337   1.431   4.417   4.737  0.0159 -0.5154 -0.2947
  612MOL0     C84338   1.430   4.568   4.769  0.0342  0.5709 -0.1367
  612MOL0     C84339   1.522   4.643   4.676  0.4849 -0.8411 -0.1203
  612MOL0     C84340   1.473   4.664   4.537  0.4165 -0.0281  0.1525
  612MOL0     C84341   1.539   4.773   4.458 -0.2281 -0.3403  0.0938
  612MOL0     O84342   1.678   4.749   4.449 -0.2109 -0.0200 -0.0130
  612MOL0     C84343   1.721   4.656   4.359 -0.2402 -0.3414  0.3706
  612MOL0     C84344   1.853   4.613   4.355  0.9548  0.0787  0.8354
  612MOL0     C84345   1.915   4.540   4.250 -0.4885  0.1181 -0.2248
  612MOL0     C84346   2.060   4.496   4.264  0.1121 -0.1170  0.2415
  612MOL0     C84347   1.837   4.503   4.138  0.1566  0.1845 -0.4646
  612MOL0     C84348   1.891   4.438   4.027  0.4287 -0.1012 -0.4806
  612MOL0     O84349   2.015   4.465   3.995 -0.3902 -0.0459 -0.1908
  612MOL0     C84350   2.073   4.384   3.896 -0.0668 -0.3045 -0.7380
  612MOL0     C84351   2.098   4.447   3.779  0.1473 -0.4218  0.7360
  612MOL0     C84352   2.172   4.375   3.679 -0.2173  0.5204  0.1566
  612MOL0     C84353   2.233   4.255   3.715  0.0065 -0.2056  0.1641
  612MOL0     O84354   2.304   4.175   3.630  0.1642  0.3133  0.0280
  612MOL0     C84355   2.290   4.182   3.490  0.2187 -0.8562  0.7674
  612MOL0     C84356   2.315   4.049   3.417 -0.1136 -0.3043  0.6785
  612MOL0     C84357   2.334   4.042   3.265 -0.3734  0.1304 -0.9052
  612MOL0     C84358   2.225   4.112   3.193 -0.9359  0.2598  0.0883
  612MOL0     C84359   2.213   4.060   3.054 -0.1693 -0.0006  0.5118
  612MOL0     C84360   2.102   4.111   2.961 -0.0164 -0.4211  0.4667
  612MOL0     C84361   1.961   4.062   3.001 -0.2473  1.0335 -0.7735
  612MOL0     C84362   1.848   4.150   2.943  0.0105 -0.0537  0.5787
  612MOL0    Cl84363   1.819   4.306   3.026 -0.1293 -0.0856  0.1341
  612MOL0     C84364   2.203   4.190   3.833  0.0050 -0.5459 -1.2426
  612MOL0     C84365   2.120   4.253   3.930 -0.1091  0.6589 -0.5076
  612MOL0     O84366   1.815   4.358   3.979 -0.2667  0.2304  0.0741
  612MOL0     C84367   1.700   4.546   4.142  0.2250  0.1806  0.4499
  612MOL0     C84368   1.642   4.618   4.251  0.2692 -0.4302 -0.2101
  612MOL0     N84369   1.552   4.351   4.728 -0.1283  0.2227 -0.1495
  612MOL0     N84370   1.527   4.239   4.680  0.1457 -0.0158 -0.8751
  612MOL0     C84371   0.527   3.995   3.972  0.2226  0.1154  0.1551
  612MOL0     C84372   0.493   4.003   3.832 -0.4135  0.0908  0.1095
  612MOL0     C84373   0.251   4.152   3.502 -0.2690 -0.4450  1.2197
  612MOL0     C84374   0.325   4.174   3.387 -0.9078  0.0484  0.2188
  612MOL0     C84375   0.284   4.138   3.264  0.1174  0.1948 -0.2893
  612MOL0     C84376   0.154   4.103   3.249 -0.1291 -0.3720 -0.2458
  612MOL0     O84377   0.095   4.072   3.126 -0.5670  0.7344  0.3132
  612MOL0     C84378   0.183   4.059   3.011 -0.4450 -0.4163 -0.2130
  612MOL0     C84379   0.115   4.017   2.880  0.4274  0.0079  0.1811
  612MOL0     C84380   0.094   3.860   2.876  0.3801  1.0481  0.6003
  612MOL0     C84381   0.032   3.813   2.748  0.5308 -0.1176 -0.0377
  612MOL0     C84382  -0.112   3.823   2.739 -0.1571  0.5632  0.2634
  612MOL0     C84383  -0.233   3.815   2.758 -0.2958 -0.5489  0.2749
  612MOL0     C84384   0.063   4.107   3.353 -1.1996 -1.3951 -0.3406
  612MOL0     C84385   0.110   4.125   3.485  0.4050  0.7824  0.5811
  612MOL0     C84386   0.012   4.106   3.602  0.1500  0.4522 -0.4862
  612MOL0     H84387   0.560   4.335   3.782 -2.0264  0.1110 -0.1807
  612MOL0     H84388   0.625   4.312   4.029 -0.3779 -1.9272  1.9257
  612MOL0     H84389   0.638   4.279   4.225 -2.0551 -0.7009 -1.8383
  612MOL0     H84390   0.781   4.192   4.174 -0.4118  2.9181  0.1652
  612MOL0     H84391   0.743   4.263   4.421  0.1209 -1.0392  2.9681
  612MOL0     H84392   0.617   4.138   4.427  0.8516 -1.4757  0.5795
  612MOL0     H84393   0.793   3.950   4.385 -0.2546 -0.5190  0.1543
  612MOL0     H84394   0.911   4.084   4.361 -0.7276 -1.0166  0.4282
  612MOL0     H84395   0.900   4.159   4.586  0.3857 -0.4537  3.2874
  612MOL0     H84396   0.759   4.055   4.614 -0.7596  1.6736 -1.2428
  612MOL0     H84397   0.908   3.858   4.569 -1.0301 -0.0116  0.0118
  612MOL0     H84398   0.930   3.938   4.727 -2.0026  1.5666 -0.3014
  612MOL0     H84399   1.140   3.873   4.590  0.4318  0.2655 -0.5409
  612MOL0     H84400   1.108   4.003   4.479  0.5939  3.1252  0.6537
  612MOL0     H84401   1.139   4.075   4.768 -2.0575 -1.3888 -1.5717
  612MOL0     H84402   1.128   4.176   4.625 -1.9329 -1.0453 -0.1520
  612MOL0     H84403   1.380   4.012   4.697 -2.2088  0.4779  1.0344
  612MOL0     H84404   1.337   4.072   4.534  0.0255  0.6436 -0.6025
  612MOL0     H84405   1.225   4.359   4.726  0.4013 -0.2629 -1.4588
  612MOL0     H84406   1.475   4.572   4.869 -0.4471  1.4173  0.0489
  612MOL0     H84407   1.332   4.615   4.776  0.1278  0.6346  0.8114
  612MOL0     H84408   1.532   4.745   4.715  2.1668 -1.7167  1.9478
  612MOL0     H84409   1.621   4.598   4.685  0.7066  0.0466  3.3461
  612MOL0     H84410   1.472   4.566   4.488 -0.5566 -0.7344  1.5259
  612MOL0     H84411   1.369   4.697   4.552  0.0723 -1.0917  0.2129
  612MOL0     H84412   1.488   4.777   4.361 -0.3620 -0.3088  0.1657
  612MOL0     H84413   1.525   4.870   4.508  1.3719 -1.8947  3.9708
  612MOL0     H84414   1.909   4.651   4.441 -0.8077  1.4065  1.4558
  612MOL0     H84415   2.074   4.393   4.229  2.0432 -0.1254  0.8897
  612MOL0     H84416   2.081   4.503   4.371 -2.3394 -0.6463  0.8100
  612MOL0     H84417   2.128   4.560   4.206 -2.4590  0.2976 -2.5340
  612MOL0     H84418   2.071   4.551   3.762 -0.3277 -0.5139  0.9264
  612MOL0     H84419   2.198   4.422   3.585  1.5164  0.5363  0.5949
  612MOL0     H84420   2.190   4.216   3.460 -0.6277 -3.1316  0.7788
  612MOL0     H84421   2.367   4.250   3.454 -2.6209  1.5958 -1.1877
  612MOL0     H84422   2.415   4.020   3.452  0.2165 -0.1700 -0.1258
  612MOL0     H84423   2.238   3.980   3.451 -1.4220  1.2120  0.8932
  612MOL0     H84424   2.347   3.940   3.230 -1.2051  0.3885 -2.0356
  612MOL0     H84425   2.431   4.090   3.250 -0.0260  0.1550  1.1573
  612MOL0     H84426   2.244   4.220   3.197  2.6927 -0.3084  2.0355
  612MOL0     H84427   2.124   4.105   3.234 -1.5667  2.4348 -0.9226
  612MOL0     H84428   2.309   4.081   3.008  0.0145  1.6506  1.5967
  612MOL0     H84429   2.214   3.951   3.069 -1.2214  0.1071  1.5093
  612MOL0     H84430   2.121   4.088   2.856 -3.1373 -1.3700 -0.0030
  612MOL0     H84431   2.104   4.220   2.968 -0.9258 -0.2406 -1.5153
  612MOL0     H84432   1.954   4.046   3.109 -2.8923 -2.6569 -1.3179
  612MOL0     H84433   1.948   3.963   2.956 -1.9149  1.1836 -0.6617
  612MOL0     H84434   1.751   4.100   2.949  1.6952 -3.4543  3.6837
  612MOL0     H84435   1.872   4.174   2.839 -0.5124  0.3305  0.5462
  612MOL0     H84436   2.262   4.099   3.840  1.1101  0.0288 -2.4656
  612MOL0     H84437   2.091   4.220   4.030 -4.5854  1.3502 -1.3895
  612MOL0     H84438   1.636   4.528   4.056  0.0343  3.1591 -0.1286
  612MOL0     H84439   1.536   4.636   4.239  0.1069 -1.5963 -0.6382
  612MOL0     H84440   0.535   3.898   4.020  2.3361 -0.2097 -0.7617
  612MOL0     H84441   0.471   3.915   3.771  3.1576 -0.1035 -1.0983
  612MOL0     H84442   0.429   4.203   3.395 -1.2616  0.9579  1.9677
  612MOL0     H84443   0.356   4.134   3.182  0.0049  3.3185 -0.6690
  612MOL0     H84444   0.222   4.160   2.995  0.5534 -0.8586 -0.6741
  612MOL0     H84445   0.263   3.989   3.035 -1.6715 -0.8281  3.0933
  612MOL0     H84446   0.175   4.048   2.794 -0.4643  0.8218 -0.1797
  612MOL0     H84447   0.027   4.081   2.864  0.1902 -0.9822 -3.5088
  612MOL0     H84448   0.193   3.815   2.879 -0.2433 -0.6061 -1.1961
  612MOL0     H84449   0.046   3.826   2.968 -0.4776  1.1521  0.2036
  612MOL0     H84450   0.056   3.706   2.741 -2.1053 -0.7762 -0.0643
  612MOL0     H84451   0.076   3.858   2.659  1.2059  0.8158  0.7450
  612MOL0     H84452  -0.336   3.791   2.775 -0.3192 -2.0506 -1.6546
  612MOL0     H84453  -0.037   4.086   3.316 -1.6950  2.5415 -1.7391
  612MOL0     H84454  -0.013   4.205   3.642  3.2309  1.5047 -0.9143
  612MOL0     H84455  -0.082   4.054   3.581  0.0388  0.7327 -0.6903
  612MOL0     H84456   0.061   4.037   3.672 -0.0354 -1.4229 -2.1131
  613MOL0     O84457   3.400  11.131   4.436  0.0439 -0.1494 -0.0522
  613MOL0     C84458   3.453  11.081   4.532  0.5500 -1.1127  0.1080
  613MOL0     O84459   3.584  11.109   4.574  0.2878 -0.0874 -0.2771
  613MOL0     C84460   3.649  11.218   4.516  0.8125  0.4633  0.0248
  613MOL0     C84461   3.592  11.325   4.440  0.5142  0.9772 -0.2325
  613MOL0     C84462   3.680  11.424   4.392  0.2223  1.0378  0.0997
  613MOL0     C84463   3.818  11.419   4.421  0.2024  0.4922 -0.2459
  613MOL0     O84464   3.903  11.522   4.390 -0.1772 -0.1610  0.4385
  613MOL0     C84465   3.899  11.589   4.261  0.3635 -0.4531 -0.3214
  613MOL0     C84466   4.020  11.680   4.244  0.6742 -0.0743  0.0766
  613MOL0     C84467   4.140  11.605   4.192  0.1282  0.0490  0.7539
  613MOL0     C84468   4.256  11.701   4.145 -0.4538  0.3017  0.0844
  613MOL0     C84469   4.346  11.766   4.258 -0.3398 -0.0446 -0.3174
  613MOL0     C84470   4.456  11.851   4.204  0.0931 -0.0868  0.0320
  613MOL0     C84471   4.563  11.881   4.312  0.0446 -0.2927 -0.4697
  613MOL0     C84472   4.646  11.998   4.265 -0.6487  0.3727  0.5602
  613MOL0     N84473   4.755  12.047   4.347  0.2617 -0.6881 -0.4211
  613MOL0     C84474   4.883  12.000   4.345  0.1930  0.1384  0.3514
  613MOL0     C84475   4.957  12.078   4.435 -0.3039  0.0400 -0.2057
  613MOL0     C84476   5.109  12.069   4.472 -0.9317  0.3075 -0.9617
  613MOL0     C84477   5.197  12.110   4.346 -0.2650  0.2610  0.1216
  613MOL0     C84478   5.224  12.267   4.355 -0.1519  0.1518 -0.3956
  613MOL0     C84479   5.287  12.325   4.232  0.0708  0.6510  0.3771
  613MOL0     O84480   5.418  12.281   4.217 -0.0331 -0.0904 -0.1547
  613MOL0     C84481   5.517  12.363   4.259 -0.5252 -1.6985 -0.6578
  613MOL0     C84482   5.654  12.323   4.238  0.2278  0.0246  0.1885
  613MOL0     C84483   5.763  12.405   4.270 -0.1677  0.3156  0.8283
  613MOL0     C84484   5.903  12.348   4.249  0.1880 -0.0218  0.1255
  613MOL0     C84485   5.740  12.537   4.324 -0.1402 -0.2913 -0.1693
  613MOL0     C84486   5.846  12.631   4.357  0.4445  0.6478 -0.5885
  613MOL0     O84487   5.964  12.624   4.279 -0.1332 -1.1266  0.0964
  613MOL0     C84488   6.076  12.694   4.301 -0.5347 -0.3120  0.3033
  613MOL0     C84489   6.107  12.780   4.406  0.2076 -0.6419  0.1504
  613MOL0     C84490   6.228  12.842   4.429 -0.0500 -0.3187 -0.3089
  613MOL0     C84491   6.331  12.824   4.333 -1.1995  0.6972 -0.0878
  613MOL0     O84492   6.443  12.904   4.354 -0.5003  0.6182  0.2939
  613MOL0     C84493   6.535  12.908   4.245  0.2106 -0.2560 -1.2207
  613MOL0     C84494   6.632  12.790   4.244 -0.7324  0.0380 -0.0551
  613MOL0     C84495   6.779  12.835   4.213 -0.1880 -0.1846 -1.0854
  613MOL0     C84496   6.806  12.886   4.071  0.1478  0.2104  0.5489
  613MOL0     C84497   6.950  12.946   4.056 -0.4069 -0.5696  0.0057
  613MOL0     C84498   7.004  12.967   3.914 -0.1943  0.1088  0.2251
  613MOL0     C84499   7.124  13.072   3.925 -0.3506 -0.1468 -0.4322
  613MOL0     C84500   7.247  13.023   4.003  0.0254  0.1280  0.0245
  613MOL0    Cl84501   7.289  12.845   3.990 -0.1417 -0.2078  0.2115
  613MOL0     C84502   6.301  12.731   4.226 -0.9748 -0.1955 -0.7448
  613MOL0     C84503   6.182  12.670   4.214  0.9468 -0.5865  0.3784
  613MOL0     O84504   5.812  12.722   4.437 -0.4091  0.5803 -0.4257
  613MOL0     C84505   5.603  12.571   4.357  0.4290  0.1027  0.2132
  613MOL0     C84506   5.500  12.491   4.322  0.8381 -0.2191  0.2517
  613MOL0     N84507   4.868  12.173   4.490 -0.2194  0.3187 -0.0940
  613MOL0     N84508   4.757  12.148   4.441  0.1156  0.4111 -0.3396
  613MOL0     C84509   3.865  11.310   4.504  0.7792 -0.0118 -0.0716
  613MOL0     C84510   3.786  11.207   4.548  0.4498 -0.5196 -1.1943
  613MOL0     C84511   3.376  10.992   4.628 -0.7037 -0.2164  0.1461
  613MOL0     C84512   3.448  10.954   4.748 -0.2841  1.0732  0.1825
  613MOL0     C84513   3.383  10.881   4.846 -0.1213  0.1164  0.0121
  613MOL0     C84514   3.246  10.856   4.835  0.1242 -0.1182 -0.1667
  613MOL0     O84515   3.186  10.772   4.926  0.5924 -0.2411  0.1966
  613MOL0     C84516   3.115  10.663   4.866 -0.4237  0.9369  0.2197
  613MOL0     C84517   3.117  10.539   4.946  0.0038  0.2925  1.5357
  613MOL0     C84518   3.264  10.484   4.948  0.2380 -0.3936 -0.7115
  613MOL0     C84519   3.265  10.348   5.022  0.0285 -0.0639 -0.5842
  613MOL0     C84520   3.232  10.235   4.941 -0.7006  0.8448 -0.1323
  613MOL0     C84521   3.217  10.156   4.859 -0.2245  0.4120  0.4321
  613MOL0     C84522   3.176  10.899   4.717  0.0631  0.4132  0.4719
  613MOL0     C84523   3.236  10.969   4.618  1.4246  0.1947 -0.5652
  613MOL0     C84524   3.138  11.017   4.511  0.2277  0.7402  0.4889
  613MOL0     H84525   3.487  11.348   4.425  0.5971  1.3910 -0.1779
  613MOL0     H84526   3.630  11.501   4.334  0.0764  0.0400 -1.1529
  613MOL0     H84527   3.803  11.642   4.259 -1.3284 -3.2807 -1.9840
  613MOL0     H84528   3.903  11.515   4.180 -1.8323 -1.8901  0.7725
  613MOL0     H84529   3.986  11.760   4.176 -0.3160  0.6207  1.3423
  613MOL0     H84530   4.032  11.738   4.336  0.9981 -2.7214  1.7917
  613MOL0     H84531   4.177  11.528   4.261 -1.6830  0.3147  2.0955
  613MOL0     H84532   4.117  11.560   4.095  3.6201  0.2635 -0.3155
  613MOL0     H84533   4.317  11.640   4.079 -1.1961  0.4756 -0.7858
  613MOL0     H84534   4.224  11.783   4.080  1.9153  2.0196  0.9364
  613MOL0     H84535   4.386  11.685   4.319 -2.0197 -1.2979 -0.7932
  613MOL0     H84536   4.275  11.818   4.323 -1.0454 -1.0097 -0.2924
  613MOL0     H84537   4.495  11.792   4.120  2.9430  1.0070  0.4517
  613MOL0     H84538   4.428  11.946   4.156  1.3514  0.8363  1.0346
  613MOL0     H84539   4.621  11.793   4.338 -0.3288 -0.8303 -1.4108
  613MOL0     H84540   4.508  11.922   4.397  1.1099 -0.1642  0.1713
  613MOL0     H84541   4.685  11.967   4.168 -1.0412 -0.9509  0.8031
  613MOL0     H84542   4.567  12.073   4.250 -2.3208 -1.4435 -0.1831
  613MOL0     H84543   4.921  11.922   4.279 -1.5309 -0.8530  0.4571
  613MOL0     H84544   5.138  11.966   4.498  1.0838  1.2059  0.6293
  613MOL0     H84545   5.126  12.132   4.559 -0.3867 -1.6322  0.3955
  613MOL0     H84546   5.296  12.065   4.348 -1.0097 -1.4553  0.0737
  613MOL0     H84547   5.149  12.084   4.251 -0.5838 -1.6027  0.7612
  613MOL0     H84548   5.130  12.317   4.382  1.3002  2.6541  0.3021
  613MOL0     H84549   5.286  12.273   4.445  0.9349 -1.9242 -0.9402
  613MOL0     H84550   5.232  12.294   4.142  0.0190  0.9976  0.2905
  613MOL0     H84551   5.263  12.431   4.226  0.9854  0.8284 -0.2790
  613MOL0     H84552   5.672  12.225   4.195 -0.8096  1.0423 -2.8002
  613MOL0     H84553   5.902  12.240   4.230 -1.1364  0.2089 -1.3760
  613MOL0     H84554   5.959  12.359   4.342 -2.2804 -0.7642  1.8009
  613MOL0     H84555   5.952  12.403   4.168  0.7107  1.8456  1.6435
  613MOL0     H84556   6.033  12.801   4.482  1.0584  0.9117  0.5891
  613MOL0     H84557   6.248  12.893   4.522  1.5961 -2.3712  0.5330
  613MOL0     H84558   6.474  12.912   4.154 -0.5174  2.8124 -0.7025
  613MOL0     H84559   6.606  12.991   4.238  0.5241 -0.6821 -4.3840
  613MOL0     H84560   6.638  12.752   4.347  3.2376  2.1060  0.7115
  613MOL0     H84561   6.600  12.710   4.176 -2.5040  0.0073  0.7764
  613MOL0     H84562   6.847  12.753   4.240 -1.4343 -0.8129  0.2760
  613MOL0     H84563   6.799  12.912   4.288  0.6867 -0.9259 -0.5203
  613MOL0     H84564   6.735  12.960   4.035  0.8043  0.8327  0.5146
  613MOL0     H84565   6.798  12.793   4.014 -1.1336 -0.1407  1.2548
  613MOL0     H84566   6.945  13.046   4.099  1.9329 -0.0359 -0.8258
  613MOL0     H84567   7.023  12.889   4.114  0.5689 -0.7845 -1.3877
  613MOL0     H84568   6.930  12.992   3.838 -0.7494 -3.1765 -0.4900
  613MOL0     H84569   7.040  12.870   3.877 -3.5863 -0.5279 -1.7464
  613MOL0     H84570   7.087  13.168   3.962  2.1342  0.6130  0.3332
  613MOL0     H84571   7.161  13.088   3.823 -1.2440 -2.1815 -1.1354
  613MOL0     H84572   7.225  13.045   4.108  1.1969 -0.9463  0.5197
  613MOL0     H84573   7.330  13.082   3.964  1.2186 -1.7842 -0.4700
  613MOL0     H84574   6.377  12.711   4.150  1.5909  1.2597  1.2690
  613MOL0     H84575   6.161  12.598   4.135 -0.0080 -0.8310  0.8299
  613MOL0     H84576   5.571  12.668   4.395 -2.4062 -1.0267  0.9532
  613MOL0     H84577   5.403  12.529   4.354  1.9887  1.6307  1.7007
  613MOL0     H84578   3.972  11.308   4.524  0.9471 -1.2388 -0.9845
  613MOL0     H84579   3.822  11.115   4.594  1.6038  0.0728 -0.8779
  613MOL0     H84580   3.552  10.983   4.763  0.0065  0.8720 -1.3112
  613MOL0     H84581   3.441  10.843   4.930  0.8200 -1.1880 -1.1691
  613MOL0     H84582   3.012  10.696   4.853 -1.0251 -0.6640  0.6415
  613MOL0     H84583   3.161  10.641   4.769 -1.3248 -1.4132  0.2633
  613MOL0     H84584   3.059  10.461   4.894  1.1222 -0.7381  1.7912
  613MOL0     H84585   3.077  10.554   5.046  1.3734  4.0649  1.6698
  613MOL0     H84586   3.299  10.465   4.847 -0.2487  0.2562 -1.0082
  613MOL0     H84587   3.329  10.564   4.984 -1.9705  1.2479 -0.1035
  613MOL0     H84588   3.182  10.353   5.093 -1.3919  0.0067 -2.2054
  613MOL0     H84589   3.368  10.344   5.060 -0.4629 -3.2468  0.7315
  613MOL0     H84590   3.203  10.087   4.778  0.8344  0.3960  0.2499
  613MOL0     H84591   3.072  10.869   4.723  0.9445 -3.0502 -0.0130
  613MOL0     H84592   3.041  10.968   4.522  1.4948 -1.9927  0.3466
  613MOL0     H84593   3.129  11.125   4.531  3.7776  1.6811 -2.0404
  613MOL0     H84594   3.171  10.997   4.409  0.0043  4.8316 -0.5631
  614MOL0     O84595   3.240   4.277   4.672 -0.2608 -0.0893  0.2372
  614MOL0     C84596   3.191   4.389   4.687  0.2702  0.5827 -0.5894
  614MOL0     O84597   3.219   4.503   4.612  0.2749 -0.3846 -0.2964
  614MOL0     C84598   3.351   4.516   4.559 -0.1924 -0.9124  0.0421
  614MOL0     C84599   3.459   4.454   4.616  0.4094 -0.0915 -0.7033
  614MOL0     C84600   3.590   4.478   4.579  0.4526  0.6247 -0.3727
  614MOL0     C84601   3.612   4.548   4.463 -0.4357  0.2588  0.4211
  614MOL0     O84602   3.739   4.565   4.409  0.1801 -0.2980 -0.0961
  614MOL0     C84603   3.842   4.471   4.422  0.2676  0.0205 -0.1948
  614MOL0     C84604   3.911   4.459   4.298  0.1806 -0.2343  0.5499
  614MOL0     C84605   3.992   4.588   4.256  0.4004  0.5759 -0.4277
  614MOL0     C84606   4.091   4.635   4.364  0.6356  0.9685  0.5170
  614MOL0     C84607   4.197   4.727   4.298  1.0046  0.4751  0.7910
  614MOL0     C84608   4.322   4.765   4.383  0.3431 -0.4279  0.4037
  614MOL0     C84609   4.433   4.825   4.305 -0.3991  0.0770  0.0811
  614MOL0     C84610   4.397   4.975   4.267 -0.6631 -0.7153  0.4414
  614MOL0     N84611   4.516   5.053   4.245 -0.4349  0.1616 -0.5194
  614MOL0     C84612   4.537   5.173   4.311  0.8561  0.1308  0.3405
  614MOL0     C84613   4.655   5.226   4.256  0.9315  0.3756 -0.0043
  614MOL0     C84614   4.732   5.350   4.293 -0.5119 -1.0070  0.1865
  614MOL0     C84615   4.886   5.332   4.277 -1.1907 -0.4248 -0.5299
  614MOL0     C84616   4.970   5.442   4.346  0.8152 -0.1917  0.2060
  614MOL0     C84617   5.120   5.424   4.331 -0.1119  0.4286  0.6632
  614MOL0     O84618   5.156   5.449   4.195  0.1114 -0.6275 -0.1585
  614MOL0     C84619   5.287   5.453   4.160 -0.3336  0.5743  0.0447
  614MOL0     C84620   5.313   5.489   4.031 -0.0571 -0.2744 -0.0315
  614MOL0     C84621   5.438   5.510   3.974  0.0363 -0.7613 -0.8126
  614MOL0     C84622   5.440   5.555   3.834  0.2650 -0.3105 -0.6915
  614MOL0     C84623   5.556   5.491   4.055  0.3137 -0.0465 -0.5177
  614MOL0     C84624   5.694   5.529   4.019  0.5788 -0.5351 -0.4287
  614MOL0     O84625   5.786   5.546   4.115 -0.8930  0.0631 -0.3333
  614MOL0     C84626   5.921   5.580   4.092 -0.0041  0.2447  0.1068
  614MOL0     C84627   6.014   5.556   4.198  0.4819  0.1657  0.5139
  614MOL0     C84628   6.147   5.585   4.185 -0.4999 -0.2146  0.8957
  614MOL0     C84629   6.199   5.646   4.070 -0.5214 -0.2711 -0.3716
  614MOL0     O84630   6.334   5.659   4.057 -0.2176  0.0038  0.4056
  614MOL0     C84631   6.391   5.756   3.976  0.7063 -0.5634  0.1677
  614MOL0     C84632   6.542   5.763   3.989  0.0220  0.0954  0.1550
  614MOL0     C84633   6.600   5.720   4.129 -0.0656 -0.3415  0.3553
  614MOL0     C84634   6.749   5.721   4.130  0.1691  0.4723 -0.4026
  614MOL0     C84635   6.798   5.683   4.274  0.5845  0.6928 -0.6014
  614MOL0     C84636   6.942   5.646   4.284  0.3151  0.0677  0.1443
  614MOL0     C84637   7.026   5.747   4.202  0.5408  0.0067  0.0339
  614MOL0     C84638   7.183   5.728   4.225 -0.2214 -0.8516 -0.4284
  614MOL0    Cl84639   7.287   5.833   4.112 -0.1785 -0.1834 -0.0212
  614MOL0     C84640   6.108   5.691   3.972 -0.6209 -0.3460  0.2406
  614MOL0     C84641   5.973   5.654   3.983  0.2576 -0.4493  0.1582
  614MOL0     O84642   5.719   5.545   3.895  0.4446 -0.5382  0.3245
  614MOL0     C84643   5.533   5.454   4.191  0.3008  0.0770  0.4899
  614MOL0     C84644   5.402   5.437   4.238  1.1373  0.3321  0.3170
  614MOL0     N84645   4.683   5.151   4.147 -0.0192 -0.2155 -0.1669
  614MOL0     N84646   4.599   5.049   4.144 -1.0004  0.0913  0.4323
  614MOL0     C84647   3.497   4.587   4.385  0.8375  0.3289 -0.0694
  614MOL0     C84648   3.367   4.573   4.437  0.4369 -0.4285  1.3553
  614MOL0     C84649   3.075   4.406   4.778  0.7689  0.2864 -0.0202
  614MOL0     C84650   3.004   4.524   4.771  0.7303 -0.4812  0.4545
  614MOL0     C84651   2.894   4.555   4.848 -0.1108  0.0331  0.1592
  614MOL0     C84652   2.845   4.462   4.944 -0.3553  0.2799  0.2695
  614MOL0     O84653   2.741   4.482   5.033 -0.4012 -0.6459 -0.0261
  614MOL0     C84654   2.620   4.414   4.999 -1.0928 -0.2017  0.1567
  614MOL0     C84655   2.564   4.484   4.877 -0.6502 -0.0931  0.0367
  614MOL0     C84656   2.536   4.637   4.905 -0.0154 -0.1192 -0.0842
  614MOL0     C84657   2.500   4.669   5.049  0.8937  0.1635  0.0174
  614MOL0     C84658   2.365   4.626   5.087  0.0134  0.0899 -0.1197
  614MOL0     C84659   2.252   4.593   5.126 -0.2136  0.4355  0.3104
  614MOL0     C84660   2.927   4.345   4.959 -1.0910 -0.6969 -1.2145
  614MOL0     C84661   3.039   4.322   4.884  1.1333  1.5183  0.1626
  614MOL0     C84662   3.130   4.201   4.924 -0.8301 -0.0190  0.7222
  614MOL0     H84663   3.461   4.413   4.716 -1.1850  0.4160 -0.4230
  614MOL0     H84664   3.670   4.441   4.644 -0.1409  0.2988  0.1876
  614MOL0     H84665   3.811   4.369   4.447  0.9766 -0.6624 -1.9638
  614MOL0     H84666   3.925   4.500   4.487  0.0750  3.4069 -1.2723
  614MOL0     H84667   3.983   4.378   4.308  1.6807  1.0910  0.8452
  614MOL0     H84668   3.846   4.429   4.216  1.1664 -2.3236  0.4589
  614MOL0     H84669   4.044   4.555   4.166 -1.5408 -1.5671 -0.8618
  614MOL0     H84670   3.924   4.663   4.216 -0.3608 -0.3433 -0.8928
  614MOL0     H84671   4.049   4.692   4.447  0.6360  2.6346 -0.5640
  614MOL0     H84672   4.152   4.558   4.411  0.8410 -0.0086 -1.2642
  614MOL0     H84673   4.151   4.817   4.257 -1.3730 -1.3192 -0.7803
  614MOL0     H84674   4.234   4.660   4.220 -2.6291 -1.9460  0.9034
  614MOL0     H84675   4.285   4.842   4.452 -3.3384 -0.2520 -1.4855
  614MOL0     H84676   4.355   4.675   4.436 -2.7433 -1.7225  0.3347
  614MOL0     H84677   4.468   4.764   4.221  0.5450  0.6116  0.0709
  614MOL0     H84678   4.517   4.826   4.375  0.2157  3.1648 -0.5446
  614MOL0     H84679   4.331   4.985   4.180  1.6221 -0.4084 -1.3628
  614MOL0     H84680   4.347   5.019   4.353  0.9803  1.5404  0.3293
  614MOL0     H84681   4.463   5.217   4.378 -0.3139  3.2730 -2.7287
  614MOL0     H84682   4.695   5.382   4.391 -2.0453 -0.9275 -0.3861
  614MOL0     H84683   4.713   5.418   4.210  0.8581 -0.7250  0.0881
  614MOL0     H84684   4.918   5.236   4.316 -3.1071 -1.3392 -1.0706
  614MOL0     H84685   4.907   5.338   4.170 -0.4484  4.5046 -0.3625
  614MOL0     H84686   4.938   5.542   4.315  0.1699  1.0319  4.1523
  614MOL0     H84687   4.933   5.444   4.449 -0.3871 -0.3438 -0.2167
  614MOL0     H84688   5.178   5.489   4.398  2.3072  2.4719 -3.0425
  614MOL0     H84689   5.153   5.323   4.360 -1.7946  0.0356  1.2928
  614MOL0     H84690   5.221   5.504   3.976 -0.0486 -1.7685 -0.4804
  614MOL0     H84691   5.490   5.652   3.831  1.3604 -0.8266  0.0520
  614MOL0     H84692   5.344   5.572   3.785  1.3606  0.9929 -2.4778
  614MOL0     H84693   5.492   5.488   3.765  0.0909  0.8575 -1.9854
  614MOL0     H84694   5.982   5.504   4.288  2.9954 -1.6044  0.4936
  614MOL0     H84695   6.226   5.545   4.248  1.0303  1.7449  0.3153
  614MOL0     H84696   6.376   5.731   3.870  0.3142 -1.2792  0.3929
  614MOL0     H84697   6.356   5.859   3.993  3.3004  0.2967  0.7487
  614MOL0     H84698   6.576   5.693   3.912  1.9464 -1.2606  2.1050
  614MOL0     H84699   6.588   5.862   3.978  2.2982 -0.9871 -0.7585
  614MOL0     H84700   6.552   5.624   4.150 -1.4062  0.4423  1.0280
  614MOL0     H84701   6.563   5.789   4.205 -1.5389 -1.3546  0.5955
  614MOL0     H84702   6.779   5.820   4.096 -0.6205 -0.2360 -3.5034
  614MOL0     H84703   6.797   5.648   4.064 -0.7329  0.6355 -1.2614
  614MOL0     H84704   6.773   5.758   4.350  0.8766  2.5931 -2.2798
  614MOL0     H84705   6.747   5.589   4.296  1.4089  0.6161  1.1676
  614MOL0     H84706   6.955   5.543   4.249 -1.5426 -0.9819  2.3066
  614MOL0     H84707   6.981   5.643   4.386 -0.3401  0.5745  0.4152
  614MOL0     H84708   6.996   5.848   4.231 -0.4677 -0.2535 -0.0687
  614MOL0     H84709   7.008   5.749   4.094  2.6663  1.2538 -0.3567
  614MOL0     H84710   7.215   5.623   4.220  0.9942 -0.6446  1.6846
  614MOL0     H84711   7.205   5.752   4.330  0.5388 -0.3616 -0.6950
  614MOL0     H84712   6.134   5.757   3.889 -0.1064 -1.3154 -0.3877
  614MOL0     H84713   5.918   5.683   3.894 -1.2832 -0.6605  0.9957
  614MOL0     H84714   5.619   5.436   4.255  1.2700 -3.3250 -1.5329
  614MOL0     H84715   5.397   5.417   4.345  1.1877  4.0639  1.1703
  614MOL0     H84716   3.517   4.620   4.283  0.6233  1.4330  0.2370
  614MOL0     H84717   3.282   4.613   4.384  0.7163  1.0098  1.9428
  614MOL0     H84718   3.022   4.597   4.692 -1.1395  3.1430  3.0459
  614MOL0     H84719   2.849   4.654   4.838 -0.5500 -0.0878  0.8496
  614MOL0     H84720   2.657   4.313   4.976 -1.1930 -0.5517  1.4207
  614MOL0     H84721   2.544   4.395   5.076 -1.6725 -1.5372 -0.6947
  614MOL0     H84722   2.475   4.430   4.842 -0.6161 -0.1504  0.0377
  614MOL0     H84723   2.639   4.465   4.799 -0.4490 -0.4388  0.3130
  614MOL0     H84724   2.632   4.688   4.893  0.3555 -1.2069 -2.2533
  614MOL0     H84725   2.467   4.682   4.832  0.0406  1.8472  1.0072
  614MOL0     H84726   2.506   4.777   5.061  2.3746  0.1087  0.0660
  614MOL0     H84727   2.567   4.636   5.129 -1.0052  0.3267  1.7330
  614MOL0     H84728   2.156   4.559   5.158 -0.0102  0.7536  1.2771
  614MOL0     H84729   2.893   4.270   5.029 -0.8809 -0.5664 -0.9724
  614MOL0     H84730   3.123   4.125   4.846  0.3490  0.3273  0.2661
  614MOL0     H84731   3.233   4.231   4.945 -0.3164 -1.9889  1.1837
  614MOL0     H84732   3.092   4.161   5.019 -2.5772  1.1308  0.5562
  615MOL0     O84733   4.134   3.428   4.868 -0.6188  0.6671 -0.2289
  615MOL0     C84734   4.154   3.344   4.781 -0.1035 -0.2085 -0.6222
  615MOL0     O84735   4.277   3.293   4.763  0.0812  0.9650 -0.2895
  615MOL0     C84736   4.380   3.344   4.840  0.1948  0.2302 -0.1498
  615MOL0     C84737   4.433   3.274   4.946  0.3227 -0.6529  0.8051
  615MOL0     C84738   4.544   3.333   5.009  0.7710 -0.2982 -0.0886
  615MOL0     C84739   4.611   3.453   4.959 -0.6256 -0.4787  0.1711
  615MOL0     O84740   4.711   3.522   5.017  0.2486  0.5020  0.5565
  615MOL0     C84741   4.803   3.438   5.102  0.5565 -0.8057  0.3408
  615MOL0     C84742   4.933   3.519   5.137 -0.2244  0.0708  0.0806
  615MOL0     C84743   5.028   3.528   5.018  0.4710 -0.6857 -1.2633
  615MOL0     C84744   4.989   3.644   4.932 -1.0054 -0.9256  0.2094
  615MOL0     C84745   5.097   3.675   4.828 -0.2844  0.1529 -0.2185
  615MOL0     C84746   5.054   3.772   4.718 -0.8351  0.7631  0.0732
  615MOL0     C84747   5.167   3.774   4.605 -0.2966 -0.3209 -0.1890
  615MOL0     C84748   5.139   3.881   4.504  0.8604  0.5497 -0.3723
  615MOL0     N84749   5.236   3.893   4.405 -0.4051 -0.0729  0.3367
  615MOL0     C84750   5.208   3.888   4.264  0.4196 -0.3626 -0.3995
  615MOL0     C84751   5.300   3.956   4.198 -0.1319 -0.3080 -0.4256
  615MOL0     C84752   5.291   3.998   4.051 -0.2679 -1.2845 -0.5686
  615MOL0     C84753   5.429   4.005   3.989 -0.1685  0.4334 -0.2042
  615MOL0     C84754   5.426   4.039   3.835 -0.9621 -0.1936 -0.2508
  615MOL0     C84755   5.567   4.022   3.778  0.6793  0.0476 -0.2421
  615MOL0     O84756   5.661   4.115   3.835  0.0252 -0.0838  0.2051
  615MOL0     C84757   5.793   4.088   3.812  0.8124  0.6963 -0.3726
  615MOL0     C84758   5.878   4.192   3.849 -0.5452 -0.9914 -0.6334
  615MOL0     C84759   6.014   4.198   3.817  0.1407  0.5825  0.0616
  615MOL0     C84760   6.096   4.302   3.887  0.4640  0.2354 -0.2820
  615MOL0     C84761   6.071   4.104   3.734  0.2623 -0.7146  0.5492
  615MOL0     C84762   6.211   4.105   3.679 -0.5562  0.2011  0.7478
  615MOL0     O84763   6.253   3.988   3.625 -1.2802 -0.0320 -0.0698
  615MOL0     C84764   6.388   3.993   3.598  0.4001 -0.4974  0.5230
  615MOL0     C84765   6.432   4.048   3.472  0.0574 -0.1735  0.8624
  615MOL0     C84766   6.560   4.031   3.426  0.4508  1.4571  0.3460
  615MOL0     C84767   6.650   3.960   3.508 -0.3809  0.6329 -1.5001
  615MOL0     O84768   6.778   3.949   3.463  0.5061  0.2379  0.1379
  615MOL0     C84769   6.852   3.828   3.468 -0.4054  0.2973 -0.2946
  615MOL0     C84770   6.922   3.807   3.333  0.4439  0.2716 -0.2348
  615MOL0     C84771   6.980   3.669   3.335 -0.0950 -0.2598 -0.4795
  615MOL0     C84772   6.892   3.549   3.304 -0.5039  0.3190 -0.0997
  615MOL0     C84773   6.969   3.417   3.293 -0.3266 -0.0828 -0.5497
  615MOL0     C84774   7.086   3.406   3.384  0.1486 -0.9261  0.3692
  615MOL0     C84775   7.163   3.276   3.382  0.0279 -0.2839  0.3300
  615MOL0     C84776   7.300   3.286   3.450 -0.4740 -1.2998  0.3162
  615MOL0    Cl84777   7.277   3.347   3.613  0.2386  0.0501 -0.4908
  615MOL0     C84778   6.605   3.911   3.637 -0.4970 -0.5836  0.3774
  615MOL0     C84779   6.468   3.916   3.666 -0.0289  0.2952  0.5317
  615MOL0     O84780   6.280   4.205   3.681  0.2618 -0.8758  0.1055
  615MOL0     C84781   5.991   3.993   3.703  0.7665 -0.3132  1.0512
  615MOL0     C84782   5.854   3.984   3.737  0.5740  0.2725  0.5865
  615MOL0     N84783   5.395   4.007   4.291 -0.7490  0.1303 -0.2827
  615MOL0     N84784   5.352   3.971   4.413 -1.1891 -0.5901  0.6283
  615MOL0     C84785   4.549   3.508   4.851  0.0786  0.8497 -0.4339
  615MOL0     C84786   4.437   3.455   4.788 -0.1382 -0.0361 -0.3700
  615MOL0     C84787   4.039   3.293   4.700 -0.2677  0.4443  0.0837
  615MOL0     C84788   4.064   3.176   4.625 -0.7493  0.8072  0.3999
  615MOL0     C84789   3.976   3.115   4.540  0.3268 -0.3957 -0.0417
  615MOL0     C84790   3.842   3.160   4.541  0.1716  0.2311  0.6062
  615MOL0     O84791   3.748   3.102   4.450  0.0670 -0.7090  0.5956
  615MOL0     C84792   3.613   3.083   4.493 -0.3146  0.7017  0.1016
  615MOL0     C84793   3.550   2.976   4.409 -0.1234  0.2933  0.3095
  615MOL0     C84794   3.560   2.994   4.253 -0.2065 -0.9097 -0.3137
  615MOL0     C84795   3.477   3.107   4.205  0.9329 -0.9787  0.0442
  615MOL0     C84796   3.369   3.165   4.283 -0.5080  0.6289  0.0028
  615MOL0     C84797   3.289   3.207   4.361 -0.3748 -0.0530 -0.3414
  615MOL0     C84798   3.815   3.282   4.603 -0.1660 -0.2538 -0.5291
  615MOL0     C84799   3.907   3.344   4.690 -0.1697  0.8213  0.6894
  615MOL0     C84800   3.868   3.473   4.763 -0.7514  0.5227  1.1482
  615MOL0     H84801   4.384   3.179   4.967  1.0793 -1.5920 -1.3954
  615MOL0     H84802   4.592   3.288   5.095  2.5618  0.7907 -0.4541
  615MOL0     H84803   4.836   3.343   5.058 -0.8146 -1.4551  0.6660
  615MOL0     H84804   4.748   3.423   5.195 -0.8933  0.9890 -0.1620
  615MOL0     H84805   4.899   3.617   5.172 -0.7757 -0.2439  0.4383
  615MOL0     H84806   4.989   3.481   5.223  1.5772  1.6361 -0.3353
  615MOL0     H84807   5.128   3.535   5.063  0.0758  0.0926 -0.4614
  615MOL0     H84808   5.023   3.435   4.960  2.1278 -0.8600 -1.1709
  615MOL0     H84809   4.904   3.610   4.872  0.1320  0.2120 -2.1919
  615MOL0     H84810   4.957   3.728   4.993 -0.5166 -0.9960  0.5662
  615MOL0     H84811   5.109   3.577   4.780  1.4191 -0.3374  1.1020
  615MOL0     H84812   5.186   3.712   4.880 -1.3868  1.5251  0.7761
  615MOL0     H84813   4.958   3.740   4.677  0.5202 -0.8818 -2.0011
  615MOL0     H84814   5.045   3.871   4.764  0.4906  1.7568 -1.6661
  615MOL0     H84815   5.161   3.678   4.552 -1.6717 -0.0471 -0.5898
  615MOL0     H84816   5.267   3.788   4.645 -1.0306 -0.4439  1.7858
  615MOL0     H84817   5.039   3.865   4.463  0.7213 -1.1374  0.5576
  615MOL0     H84818   5.141   3.973   4.564 -1.6340  0.7777 -0.5502
  615MOL0     H84819   5.112   3.875   4.216  0.5143 -0.6091 -0.5205
  615MOL0     H84820   5.236   4.092   4.037  1.8909  0.4306  1.5989
  615MOL0     H84821   5.231   3.922   3.999 -2.1242  1.8380 -3.4302
  615MOL0     H84822   5.481   4.090   4.035 -1.6140  2.5654 -2.2748
  615MOL0     H84823   5.495   3.919   4.004 -2.1160 -1.1998 -0.5578
  615MOL0     H84824   5.354   3.968   3.793 -1.4467  0.1857 -0.0706
  615MOL0     H84825   5.401   4.138   3.797  3.1241  1.1713  0.1360
  615MOL0     H84826   5.596   3.918   3.797 -1.8683 -0.4028  1.6603
  615MOL0     H84827   5.563   4.034   3.669 -1.9345 -4.2136 -0.8622
  615MOL0     H84828   5.833   4.278   3.897  1.5728 -1.8357  3.3107
  615MOL0     H84829   6.088   4.402   3.843 -1.1817 -0.4345 -1.6204
  615MOL0     H84830   6.200   4.279   3.908  0.0743  0.1479  1.7627
  615MOL0     H84831   6.054   4.313   3.987 -0.2136  1.9628 -0.7057
  615MOL0     H84832   6.361   4.098   3.406 -0.5913 -0.6460  1.1913
  615MOL0     H84833   6.584   4.069   3.327 -0.9703  1.1326 -0.1480
  615MOL0     H84834   6.926   3.826   3.548  1.7394 -2.1161 -2.1577
  615MOL0     H84835   6.780   3.747   3.484 -1.0371  0.0000 -3.7424
  615MOL0     H84836   6.845   3.815   3.255 -0.4716 -1.0644  0.4912
  615MOL0     H84837   7.001   3.881   3.319  1.2997 -1.0488 -2.9958
  615MOL0     H84838   7.017   3.648   3.436  0.2069 -0.9946 -0.7366
  615MOL0     H84839   7.059   3.667   3.260  0.1308 -0.8573 -0.2369
  615MOL0     H84840   6.838   3.569   3.210 -0.9312 -0.0676  0.0626
  615MOL0     H84841   6.810   3.541   3.376 -1.0223  2.0621 -0.4232
  615MOL0     H84842   6.899   3.336   3.317  0.5408 -0.5805  0.4082
  615MOL0     H84843   7.017   3.395   3.198 -2.2983 -3.2789 -0.9559
  615MOL0     H84844   7.057   3.425   3.488  1.6575 -2.8591  1.2046
  615MOL0     H84845   7.158   3.485   3.360  1.3964 -2.0538  0.3177
  615MOL0     H84846   7.176   3.241   3.279  1.8898  1.1142  0.0274
  615MOL0     H84847   7.103   3.198   3.429 -1.9038  1.2053  0.4578
  615MOL0     H84848   7.377   3.335   3.390 -0.2969 -1.5921  0.3014
  615MOL0     H84849   7.354   3.194   3.476  1.4596  0.1660  1.8342
  615MOL0     H84850   6.685   3.867   3.697  2.1373  0.4454 -2.1478
  615MOL0     H84851   6.429   3.859   3.749  0.7032 -1.0364 -0.0091
  615MOL0     H84852   6.024   3.909   3.642  1.0176  3.7920 -5.3891
  615MOL0     H84853   5.798   3.896   3.709 -2.3873  2.4239 -0.7554
  615MOL0     H84854   4.591   3.604   4.821 -2.7467  2.5098  0.5020
  615MOL0     H84855   4.398   3.504   4.699 -2.6119  0.5238  0.9186
  615MOL0     H84856   4.161   3.128   4.612 -1.2604 -0.0740 -0.2794
  615MOL0     H84857   4.010   3.031   4.479  1.9424 -0.5637  1.0255
  615MOL0     H84858   3.617   3.040   4.594  1.4497 -0.8579 -0.5752
  615MOL0     H84859   3.557   3.177   4.490  0.9110  1.4296 -2.7756
  615MOL0     H84860   3.446   2.948   4.430 -0.1419  0.8557  1.0244
  615MOL0     H84861   3.614   2.891   4.434  0.0462  0.9288  2.2724
  615MOL0     H84862   3.665   3.012   4.230  0.7427  0.8873  4.2532
  615MOL0     H84863   3.524   2.901   4.207 -0.7962 -0.5013 -0.6975
  615MOL0     H84864   3.429   3.082   4.110  2.1546  0.3258 -0.9548
  615MOL0     H84865   3.556   3.181   4.188  1.9059 -1.5775  1.6362
  615MOL0     H84866   3.214   3.233   4.432  1.8440 -0.8152  2.5005
  615MOL0     H84867   3.721   3.334   4.593  1.2272  2.4036 -0.7805
  615MOL0     H84868   3.895   3.457   4.867  1.3558 -2.3665  0.2993
  615MOL0     H84869   3.928   3.559   4.731  1.1999  0.2260  3.7131
  615MOL0     H84870   3.764   3.504   4.756 -0.8270 -0.0292 -0.7758
  616MOL0     O84871  10.332   4.419   6.939 -0.6429 -0.4086  0.6884
  616MOL0     C84872  10.340   4.297   6.949  0.4293 -0.7606  0.3520
  616MOL0     O84873  10.457   4.235   6.970 -0.4902  0.1594  0.0542
  616MOL0     C84874  10.575   4.292   6.952  1.8127 -0.1924 -0.1581
  616MOL0     C84875  10.660   4.250   6.851 -0.4033 -0.2801  0.0543
  616MOL0     C84876  10.788   4.302   6.838  0.2939 -0.5500 -0.4570
  616MOL0     C84877  10.821   4.411   6.922 -1.2064  0.5672  0.3306
  616MOL0     O84878  10.944   4.479   6.920 -0.2651 -0.4304  0.2255
  616MOL0     C84879  11.031   4.488   7.037  1.1835  0.4314  0.4342
  616MOL0     C84880  11.136   4.590   7.000 -0.3167 -0.9800 -0.3549
  616MOL0     C84881  11.223   4.600   7.132  0.1654  0.2399  0.0722
  616MOL0     C84882  11.327   4.709   7.120 -0.8100 -0.3596 -0.2846
  616MOL0     C84883  11.406   4.710   7.249  0.1470  0.7129  0.1988
  616MOL0     C84884  11.518   4.592   7.261  0.1691  0.1883 -0.5048
  616MOL0     C84885  11.607   4.616   7.386  0.6927 -0.1601  0.6140
  616MOL0     C84886  11.651   4.475   7.436 -0.2798  0.2550  0.0213
  616MOL0     N84887  11.545   4.400   7.504  0.3851 -0.1485  0.3267
  616MOL0     C84888  11.462   4.432   7.595  0.7120  0.2138  0.4176
  616MOL0     C84889  11.365   4.339   7.602  0.5851 -1.0208  0.1655
  616MOL0     C84890  11.250   4.345   7.688  0.5342 -0.0256  0.0867
  616MOL0     C84891  11.116   4.349   7.620  0.5844  0.4662  0.5100
  616MOL0     C84892  11.090   4.471   7.531 -0.3250  0.0838  0.7457
  616MOL0     C84893  10.974   4.446   7.429  0.1858 -0.2915 -0.6540
  616MOL0     O84894  11.022   4.370   7.315 -0.9160  0.2150 -0.9733
  616MOL0     C84895  10.938   4.262   7.295  0.2620 -0.6588  0.8161
  616MOL0     C84896  10.996   4.136   7.273 -0.0627 -0.0122 -0.7575
  616MOL0     C84897  10.913   4.018   7.253  0.0925  0.3455 -0.3184
  616MOL0     C84898  10.993   3.889   7.257 -0.2281  0.4103 -0.3746
  616MOL0     C84899  10.772   4.028   7.245 -0.0489  0.2307  0.0812
  616MOL0     C84900  10.688   3.909   7.226 -0.5166 -0.4563 -0.0048
  616MOL0     O84901  10.586   3.923   7.135 -0.3777  0.4716  0.1145
  616MOL0     C84902  10.479   3.838   7.133  0.3560 -0.6377 -0.0573
  616MOL0     C84903  10.437   3.782   7.019  0.5105 -0.4103  0.3612
  616MOL0     C84904  10.325   3.695   7.014 -0.4721 -0.1207  1.4301
  616MOL0     C84905  10.252   3.647   7.129 -1.0046 -0.3126  0.0817
  616MOL0     O84906  10.156   3.552   7.135 -0.0898  0.3329  0.3546
  616MOL0     C84907  10.128   3.494   7.011  0.0419 -0.5336  0.3436
  616MOL0     C84908  10.023   3.394   7.038  0.0519 -0.6993 -0.0940
  616MOL0     C84909   9.985   3.330   6.905 -0.2361 -0.7626  0.4045
  616MOL0     C84910   9.879   3.230   6.926 -0.1091 -0.4658  0.7957
  616MOL0     C84911   9.821   3.189   6.789  0.4622 -0.3464 -0.2485
  616MOL0     C84912   9.714   3.088   6.796 -0.2829  0.2668 -0.4206
  616MOL0     C84913   9.667   3.050   6.654 -0.0445 -0.4152  0.4855
  616MOL0     C84914   9.616   3.168   6.576 -0.5076  0.4331  0.1415
  616MOL0    Cl84915   9.492   3.245   6.683 -0.1134  0.4426  0.0375
  616MOL0     C84916  10.306   3.707   7.245  0.4770  0.0181 -0.0844
  616MOL0     C84917  10.410   3.803   7.249 -0.6229 -0.6307  0.1964
  616MOL0     O84918  10.716   3.806   7.285  0.0833 -0.2575  0.1809
  616MOL0     C84919  10.717   4.156   7.253 -0.6581 -0.1270  0.1485
  616MOL0     C84920  10.800   4.268   7.277  0.6360  0.2836  0.6911
  616MOL0     N84921  11.402   4.237   7.516  0.9359  0.0502  0.1612
  616MOL0     N84922  11.503   4.277   7.453  0.4203  0.1554 -0.1909
  616MOL0     C84923  10.731   4.468   7.013  0.2891  0.4976  0.2214
  616MOL0     C84924  10.608   4.407   7.024  0.6265  0.2470  0.0816
  616MOL0     C84925  10.229   4.202   6.944  0.1418  0.3817 -0.5901
  616MOL0     C84926  10.236   4.091   7.029 -0.1952  0.5532 -0.1354
  616MOL0     C84927  10.141   3.990   7.021  0.3637 -0.3908 -0.3940
  616MOL0     C84928  10.036   4.003   6.933 -0.1751  0.0781 -0.3467
  616MOL0     O84929   9.940   3.908   6.934  0.4359  0.7091  0.4223
  616MOL0     C84930   9.817   3.924   7.000 -0.1040 -0.2628 -0.1099
  616MOL0     C84931   9.813   3.849   7.134  0.2519  0.1560  0.1802
  616MOL0     C84932   9.785   3.693   7.120  0.0340 -0.2259  0.6441
  616MOL0     C84933   9.635   3.667   7.093 -0.5499  0.1582 -0.1138
  616MOL0     C84934   9.556   3.683   7.213 -0.4907 -0.0901 -0.8620
  616MOL0     C84935   9.483   3.712   7.306 -0.0063 -0.7765 -0.3303
  616MOL0     C84936  10.027   4.116   6.854  0.2543 -0.3221 -0.0027
  616MOL0     C84937  10.118   4.212   6.857 -0.1059  0.4760 -0.2642
  616MOL0     C84938  10.103   4.336   6.762 -1.1874 -0.0546  0.3258
  616MOL0     H84939  10.635   4.166   6.787 -0.6469 -1.0461  1.1145
  616MOL0     H84940  10.854   4.258   6.763  0.2660  2.2863 -2.3131
  616MOL0     H84941  11.079   4.391   7.052 -1.8300 -0.8022  3.3020
  616MOL0     H84942  10.970   4.515   7.124  3.4150 -0.0520  2.2337
  616MOL0     H84943  11.191   4.563   6.910 -1.1503  1.7385 -1.8049
  616MOL0     H84944  11.096   4.691   6.983  0.2612 -0.5792  0.5814
  616MOL0     H84945  11.160   4.621   7.219  0.8094  1.4553  0.2670
  616MOL0     H84946  11.284   4.509   7.144  0.3135  0.6124  2.9516
  616MOL0     H84947  11.398   4.707   7.036  0.9045  0.3299  1.0820
  616MOL0     H84948  11.285   4.809   7.122  0.7647  0.3779  3.4084
  616MOL0     H84949  11.342   4.706   7.337 -0.3867  1.7556 -0.1238
  616MOL0     H84950  11.458   4.806   7.250 -0.6611  1.1692 -0.4551
  616MOL0     H84951  11.471   4.493   7.271  1.5537 -0.3571  1.1046
  616MOL0     H84952  11.569   4.593   7.165  1.4808  0.2563  0.1761
  616MOL0     H84953  11.559   4.669   7.469  0.6228 -0.3349  0.6837
  616MOL0     H84954  11.697   4.675   7.367  0.1361  0.5347  0.0703
  616MOL0     H84955  11.702   4.417   7.357 -0.2957  1.3723 -0.8275
  616MOL0     H84956  11.727   4.503   7.510  2.2832 -0.2487 -2.2479
  616MOL0     H84957  11.471   4.524   7.651  4.5124 -1.1771  2.4556
  616MOL0     H84958  11.259   4.429   7.757  1.2936  0.0203 -0.0648
  616MOL0     H84959  11.261   4.253   7.746  1.9401 -1.1587 -1.8444
  616MOL0     H84960  11.107   4.251   7.572  1.8531 -0.6565  2.4413
  616MOL0     H84961  11.041   4.357   7.699 -0.8652 -3.5253 -0.2474
  616MOL0     H84962  11.051   4.541   7.605 -0.8203  0.2717  0.3154
  616MOL0     H84963  11.179   4.509   7.479  0.0379 -0.1396  1.1977
  616MOL0     H84964  10.903   4.389   7.489 -0.8552  1.9502  0.3167
  616MOL0     H84965  10.937   4.539   7.385  3.5010  0.3735 -2.4168
  616MOL0     H84966  11.105   4.136   7.281 -0.1111 -1.5377  0.3508
  616MOL0     H84967  10.966   3.807   7.188  0.5787  0.0257 -0.2488
  616MOL0     H84968  10.998   3.841   7.355  2.0452  1.1270 -0.0835
  616MOL0     H84969  11.098   3.908   7.235 -0.7790  2.0675 -1.8382
  616MOL0     H84970  10.489   3.804   6.927 -0.1981  0.3064  0.1172
  616MOL0     H84971  10.280   3.679   6.916  1.2577  2.3826  0.1156
  616MOL0     H84972  10.094   3.569   6.939  2.3998 -0.5073 -0.8424
  616MOL0     H84973  10.211   3.444   6.961 -0.6937 -0.2797 -1.1968
  616MOL0     H84974  10.065   3.322   7.109 -0.8650  0.4848  1.7490
  616MOL0     H84975   9.942   3.452   7.084  2.0534  1.3173  1.0718
  616MOL0     H84976  10.073   3.274   6.870  0.3087 -1.7566  3.1076
  616MOL0     H84977   9.951   3.407   6.836  0.6799  0.8428  1.6616
  616MOL0     H84978   9.801   3.279   6.985 -2.0359 -2.4184  0.0234
  616MOL0     H84979   9.916   3.149   6.988 -0.1337  0.6572  2.3196
  616MOL0     H84980   9.772   3.276   6.744 -1.1204 -1.5985 -1.0757
  616MOL0     H84981   9.901   3.159   6.721 -0.3290 -1.3180 -0.7723
  616MOL0     H84982   9.629   3.123   6.855 -0.4436  1.6762 -1.4278
  616MOL0     H84983   9.756   2.997   6.838 -1.7673 -0.4409 -0.3955
  616MOL0     H84984   9.591   2.971   6.652  1.9557 -2.4038 -1.3336
  616MOL0     H84985   9.749   3.001   6.601  1.1253 -2.6054  3.9556
  616MOL0     H84986   9.570   3.142   6.481  0.2225  2.1690 -0.7370
  616MOL0     H84987   9.690   3.241   6.541 -0.5218  2.2038  3.3982
  616MOL0     H84988  10.260   3.676   7.338 -2.5222 -2.3491 -2.1600
  616MOL0     H84989  10.438   3.836   7.348  0.4991 -2.0630  0.3812
  616MOL0     H84990  10.609   4.165   7.246 -0.5905 -0.0688 -1.0988
  616MOL0     H84991  10.748   4.360   7.301 -0.7459  0.8363 -3.5700
  616MOL0     H84992  10.756   4.562   7.060 -1.7363  1.1760  0.0588
  616MOL0     H84993  10.531   4.441   7.094 -1.5108 -3.9728  0.1194
  616MOL0     H84994  10.319   4.088   7.099 -0.2709 -0.2985 -0.0769
  616MOL0     H84995  10.160   3.901   7.081  0.9653 -1.1286 -1.6317
  616MOL0     H84996   9.814   4.030   7.026  1.2148 -0.2487  0.0375
  616MOL0     H84997   9.730   3.901   6.937  0.4729 -0.9722 -0.6536
  616MOL0     H84998   9.733   3.898   7.191  0.5690  0.3222  0.4836
  616MOL0     H84999   9.909   3.873   7.180  0.6960  1.3586 -1.3088
  616MOL0     H85000   9.846   3.657   7.037 -1.0470 -0.3866 -0.1092
  616MOL0     H85001   9.819   3.650   7.215  0.2209 -1.2940  0.1106
  616MOL0     H85002   9.616   3.566   7.054  1.7770 -0.4785  0.2716
  616MOL0     H85003   9.599   3.733   7.014 -1.3229  0.2269  0.2838
  616MOL0     H85004   9.433   3.721   7.400 -0.1962 -2.9332 -0.1881
  616MOL0     H85005   9.948   4.113   6.780  0.3695 -1.6623 -0.0906
  616MOL0     H85006  10.190   4.401   6.747 -2.4131  1.4650 -0.4488
  616MOL0     H85007  10.087   4.297   6.661  0.9648  1.0883 -0.5259
  616MOL0     H85008  10.010   4.388   6.787 -1.1529  0.0670  0.2016
  617MOL0     O85009   1.629  10.716   4.764  0.0614  0.1838 -0.0504
  617MOL0     C85010   1.579  10.768   4.664 -0.3428 -0.5151  0.2315
  617MOL0     O85011   1.652  10.777   4.546 -0.1158  0.0020  0.4549
  617MOL0     C85012   1.778  10.732   4.535  0.0666 -0.0989  0.3633
  617MOL0     C85013   1.805  10.616   4.478  0.3023 -0.0970 -0.2280
  617MOL0     C85014   1.930  10.569   4.458 -0.2873 -0.2834 -1.2237
  617MOL0     C85015   2.047  10.641   4.505 -0.6536  0.0772  0.3043
  617MOL0     O85016   2.180  10.595   4.504 -0.6640  0.0393  0.2276
  617MOL0     C85017   2.197  10.450   4.485  0.1942  0.0472  0.6788
  617MOL0     C85018   2.349  10.409   4.453 -0.6608 -0.1040  1.1054
  617MOL0     C85019   2.453  10.411   4.564  0.1634 -0.0629 -0.1001
  617MOL0     C85020   2.598  10.368   4.534 -0.5073  0.3402 -0.3764
  617MOL0     C85021   2.689  10.431   4.648  0.5106  0.0953  0.4260
  617MOL0     C85022   2.822  10.359   4.650 -0.6770 -0.9886  0.4894
  617MOL0     C85023   2.924  10.417   4.558 -0.3831  0.2564 -0.7950
  617MOL0     C85024   3.063  10.364   4.581 -0.4359 -0.4814  0.7915
  617MOL0     N85025   3.163  10.442   4.499  0.3446  0.1197 -0.3831
  617MOL0     C85026   3.253  10.372   4.420 -0.4110 -0.2079  0.1166
  617MOL0     C85027   3.327  10.477   4.374 -0.3071 -0.8682 -0.3465
  617MOL0     C85028   3.438  10.455   4.267  0.1694  0.3806 -0.4285
  617MOL0     C85029   3.561  10.546   4.296  0.0512 -0.5368 -0.7335
  617MOL0     C85030   3.688  10.526   4.202  0.6291 -0.3788 -0.8528
  617MOL0     C85031   3.658  10.612   4.079 -0.8883  0.0355  0.5294
  617MOL0     O85032   3.753  10.563   3.979  0.3174  0.3512  0.1644
  617MOL0     C85033   3.881  10.600   3.980 -0.6626 -0.3132  0.4504
  617MOL0     C85034   3.969  10.555   3.883  0.5347  0.7731 -0.7749
  617MOL0     C85035   4.099  10.602   3.875 -0.4452 -0.1237  0.7267
  617MOL0     C85036   4.185  10.541   3.764 -0.4226  0.1960 -0.4127
  617MOL0     C85037   4.146  10.706   3.968 -0.1162  0.5643  0.6169
  617MOL0     C85038   4.287  10.768   3.965 -0.4411  0.2513 -0.3175
  617MOL0     O85039   4.334  10.819   4.083  0.1910  0.6049  0.4162
  617MOL0     C85040   4.466  10.860   4.097 -0.0200  0.0332 -0.0014
  617MOL0     C85041   4.534  10.937   4.003 -0.0431 -0.0552 -0.0922
  617MOL0     C85042   4.667  10.978   4.005 -0.0828  0.7941 -0.3451
  617MOL0     C85043   4.744  10.928   4.114  0.6536  0.0461  0.1803
  617MOL0     O85044   4.876  10.960   4.136 -0.3091  1.0432  0.3999
  617MOL0     C85045   4.933  11.076   4.068 -0.2465 -0.4523  0.4539
  617MOL0     C85046   5.079  11.086   4.108  0.1112  0.4155  0.6845
  617MOL0     C85047   5.101  11.125   4.256  0.9098 -0.6905  0.1666
  617MOL0     C85048   5.237  11.074   4.302 -0.7119 -0.5143  0.3570
  617MOL0     C85049   5.356  11.128   4.212 -0.1071 -0.3196 -0.4069
  617MOL0     C85050   5.485  11.092   4.268 -0.1171  0.6073 -0.6497
  617MOL0     C85051   5.507  11.159   4.408 -0.6741  0.5858 -0.7666
  617MOL0     C85052   5.503  11.313   4.402 -0.0488  0.4092  0.5160
  617MOL0    Cl85053   5.640  11.370   4.318 -0.1458  0.3880  0.5236
  617MOL0     C85054   4.683  10.850   4.215 -0.1699 -0.1240 -0.3262
  617MOL0     C85055   4.547  10.816   4.209 -0.6025 -0.6952  0.5042
  617MOL0     O85056   4.348  10.766   3.855  0.2690  0.3985 -0.0449
  617MOL0     C85057   4.060  10.744   4.074 -0.7839  0.0532 -0.0474
  617MOL0     C85058   3.936  10.689   4.079 -0.1267 -0.2037  0.4077
  617MOL0     N85059   3.285  10.596   4.437  0.2430  0.0039 -0.4684
  617MOL0     N85060   3.184  10.573   4.513 -0.1946 -0.1727 -0.0703
  617MOL0     C85061   2.014  10.762   4.570 -0.5988 -0.0137 -0.0415
  617MOL0     C85062   1.887  10.809   4.584  0.8910  0.3875  0.4907
  617MOL0     C85063   1.445  10.828   4.677 -0.0774 -0.2448  0.5690
  617MOL0     C85064   1.365  10.764   4.770 -0.4361 -1.3207  0.3642
  617MOL0     C85065   1.238  10.811   4.789  0.0643  0.3853 -0.5840
  617MOL0     C85066   1.176  10.911   4.717 -0.5362 -0.7049  0.1102
  617MOL0     O85067   1.045  10.943   4.747 -0.4482  0.0285  0.0866
  617MOL0     C85068   0.998  11.075   4.691  0.4698  0.2287 -0.1267
  617MOL0     C85069   0.888  11.121   4.784 -0.0073  0.5242 -0.0087
  617MOL0     C85070   0.927  11.159   4.932  0.0673 -0.4136  0.4778
  617MOL0     C85071   0.825  11.255   4.994  0.8044 -0.3369 -0.0865
  617MOL0     C85072   0.874  11.285   5.128  0.4855  0.0632  1.2732
  617MOL0     C85073   0.912  11.326   5.236  0.4819  0.5736  0.5987
  617MOL0     C85074   1.256  10.980   4.628 -0.0989 -0.8994 -0.2780
  617MOL0     C85075   1.389  10.940   4.607 -0.8916  0.1046 -0.4916
  617MOL0     C85076   1.463  11.024   4.508 -0.7315 -0.6276  1.1976
  617MOL0     H85077   1.725  10.555   4.436 -1.2479  2.2543 -0.9244
  617MOL0     H85078   1.944  10.474   4.407  3.3377 -1.1381  0.9982
  617MOL0     H85079   2.138  10.424   4.396 -1.5281 -0.6926  1.9898
  617MOL0     H85080   2.159  10.401   4.575 -0.9476  0.4323  0.4203
  617MOL0     H85081   2.350  10.314   4.399 -0.0276 -0.5520  1.8871
  617MOL0     H85082   2.397  10.475   4.379  1.7241 -1.2910  1.5063
  617MOL0     H85083   2.454  10.514   4.600 -0.7052  0.7280 -2.1782
  617MOL0     H85084   2.418  10.350   4.648  1.9720 -0.3965  0.4545
  617MOL0     H85085   2.617  10.260   4.538  1.9038  0.6934 -0.5605
  617MOL0     H85086   2.641  10.401   4.439 -1.1982  0.1609 -0.7566
  617MOL0     H85087   2.647  10.416   4.748  2.0898 -2.9546  0.7348
  617MOL0     H85088   2.701  10.540   4.640 -1.5960  0.5227  2.0985
  617MOL0     H85089   2.854  10.379   4.753 -1.3988  3.4532  0.0779
  617MOL0     H85090   2.808  10.252   4.635 -1.2059 -0.7727 -0.6516
  617MOL0     H85091   2.935  10.526   4.546  0.6164  0.6760  2.7912
  617MOL0     H85092   2.878  10.386   4.464 -3.2603 -1.3494  1.0171
  617MOL0     H85093   3.091  10.384   4.685 -1.8224  0.8339  0.9420
  617MOL0     H85094   3.077  10.257   4.564  2.7741 -0.0183 -0.1528
  617MOL0     H85095   3.254  10.264   4.407 -0.7973 -0.5362  2.4363
  617MOL0     H85096   3.399  10.460   4.166 -1.9464 -0.7096  0.2706
  617MOL0     H85097   3.470  10.351   4.280 -0.8568  0.2785  1.9218
  617MOL0     H85098   3.520  10.647   4.302 -0.8742 -0.7845 -2.3179
  617MOL0     H85099   3.587  10.513   4.397  2.5790  1.0993 -0.7883
  617MOL0     H85100   3.781  10.554   4.253 -0.0837 -2.0419  1.5727
  617MOL0     H85101   3.710  10.421   4.179 -1.0309 -0.2442 -3.3934
  617MOL0     H85102   3.555  10.583   4.054  0.4091 -3.6157 -1.3119
  617MOL0     H85103   3.676  10.718   4.098  3.3396  0.0751 -2.4187
  617MOL0     H85104   3.931  10.475   3.820 -1.3059  0.0440  1.1354
  617MOL0     H85105   4.272  10.486   3.802 -1.2172 -0.1344  1.0141
  617MOL0     H85106   4.232  10.617   3.701  0.7478  0.5004  0.7816
  617MOL0     H85107   4.120  10.472   3.710  0.6282 -0.0644 -1.3777
  617MOL0     H85108   4.468  10.968   3.923 -0.9592 -0.9241  0.2972
  617MOL0     H85109   4.710  11.026   3.918 -0.1000  0.0199 -0.7802
  617MOL0     H85110   4.927  11.063   3.960  6.2105  0.9848 -0.4609
  617MOL0     H85111   4.881  11.170   4.089  0.2551 -0.1195  0.2366
  617MOL0     H85112   5.126  10.993   4.075  0.0107  1.0522 -1.4012
  617MOL0     H85113   5.138  11.160   4.054  0.9777 -0.8835 -0.1900
  617MOL0     H85114   5.024  11.074   4.314  1.4821 -1.3162  0.3944
  617MOL0     H85115   5.093  11.234   4.265  1.6116 -0.4422 -1.8107
  617MOL0     H85116   5.227  10.965   4.298  0.7825 -0.9095  4.0552
  617MOL0     H85117   5.245  11.107   4.406 -0.0584  3.3773 -0.7547
  617MOL0     H85118   5.337  11.080   4.115 -3.7187  0.6449 -0.3506
  617MOL0     H85119   5.355  11.235   4.188  0.4084  0.1733  1.5683
  617MOL0     H85120   5.570  11.120   4.205 -0.4452 -0.0013 -1.3809
  617MOL0     H85121   5.496  10.985   4.284  2.1535  0.8934  0.0687
  617MOL0     H85122   5.609  11.137   4.440 -1.5694 -0.4859  1.5399
  617MOL0     H85123   5.437  11.122   4.484 -1.0327  1.7644 -0.5022
  617MOL0     H85124   5.511  11.351   4.504  1.4360  0.2189  0.4929
  617MOL0     H85125   5.418  11.356   4.348 -0.1596 -0.4868 -0.0320
  617MOL0     H85126   4.756  10.816   4.288  1.5669  0.6851 -1.6527
  617MOL0     H85127   4.496  10.754   4.282 -1.1562 -0.1558  0.5847
  617MOL0     H85128   4.100  10.811   4.149 -0.3055 -1.9915  1.6296
  617MOL0     H85129   3.863  10.723   4.152  1.1598 -0.7326  2.0133
  617MOL0     H85130   2.101  10.810   4.613 -1.0447  1.2991 -0.5380
  617MOL0     H85131   1.868  10.900   4.639  0.3916 -0.9905  2.7202
  617MOL0     H85132   1.407  10.688   4.836  2.8161 -0.7262 -0.8356
  617MOL0     H85133   1.185  10.761   4.870  1.9800  1.3661  1.4097
  617MOL0     H85134   1.068  11.158   4.682 -1.9806  2.5232  0.5628
  617MOL0     H85135   0.966  11.056   4.588  2.6400  0.4211 -0.8752
  617MOL0     H85136   0.823  11.034   4.799 -0.3340  0.0003 -3.5012
  617MOL0     H85137   0.841  11.199   4.724  0.1815 -0.2630 -1.2133
  617MOL0     H85138   0.928  11.071   4.998 -1.6548 -0.5911  0.3179
  617MOL0     H85139   1.026  11.202   4.951 -0.1875 -1.2682  4.6145
  617MOL0     H85140   0.730  11.201   4.999  0.3202  0.5149  0.0876
  617MOL0     H85141   0.820  11.348   4.938 -3.5820 -1.1030 -1.3383
  617MOL0     H85142   0.974  11.373   5.309  3.0784 -1.2660 -0.2734
  617MOL0     H85143   1.214  11.055   4.562  0.7036 -0.3120 -0.1434
  617MOL0     H85144   1.434  11.129   4.515  2.7207  0.6306 -0.8239
  617MOL0     H85145   1.571  11.005   4.516 -1.0700 -2.9644  0.9251
  617MOL0     H85146   1.434  10.998   4.406  0.0544  2.9023 -0.0653
  618MOL0     O85147   6.649   6.646   6.556  0.0960 -0.0883  0.3784
  618MOL0     C85148   6.565   6.627   6.644  0.4994 -0.7338  0.5127
  618MOL0     O85149   6.566   6.535   6.744 -0.2437  0.0374 -0.0605
  618MOL0     C85150   6.630   6.417   6.720 -0.2096  0.4388  0.9503
  618MOL0     C85151   6.722   6.369   6.809  0.7566 -0.1751 -0.4797
  618MOL0     C85152   6.810   6.269   6.772 -0.3080 -0.3726  0.1372
  618MOL0     C85153   6.798   6.213   6.646  0.1328  0.2908 -0.8322
  618MOL0     O85154   6.888   6.120   6.600  0.1162  0.3051 -0.4077
  618MOL0     C85155   7.022   6.112   6.658  0.1152 -0.2878  0.6354
  618MOL0     C85156   7.097   6.047   6.548 -1.5191 -0.2990 -0.1379
  618MOL0     C85157   7.134   6.143   6.427  0.4832 -0.2895  0.1171
  618MOL0     C85158   7.204   6.083   6.311 -0.1817  0.0341  0.1423
  618MOL0     C85159   7.237   6.184   6.194  0.0533 -0.4280  0.2214
  618MOL0     C85160   7.349   6.139   6.093  0.3730 -0.4092 -0.0767
  618MOL0     C85161   7.319   6.009   6.024 -0.2375 -0.3290  0.8180
  618MOL0     C85162   7.444   5.964   5.955  0.6367  0.2529 -0.1241
  618MOL0     N85163   7.475   6.041   5.834  0.5719  0.1094 -0.2208
  618MOL0     C85164   7.578   6.127   5.821  0.9156  0.1575 -0.1464
  618MOL0     C85165   7.582   6.158   5.686  0.3715  1.1910  0.4440
  618MOL0     C85166   7.684   6.245   5.623 -0.8670 -0.2830 -0.4795
  618MOL0     C85167   7.813   6.171   5.635  0.1142 -0.2137 -0.3613
  618MOL0     C85168   7.930   6.252   5.598 -1.0404  0.2832  0.5011
  618MOL0     C85169   7.939   6.257   5.441  0.4792  0.1422 -0.4446
  618MOL0     O85170   8.044   6.351   5.404  0.1323  0.0930  1.0335
  618MOL0     C85171   8.169   6.302   5.362 -0.1657  0.5510  1.3416
  618MOL0     C85172   8.230   6.375   5.259  0.1999 -0.4815 -0.3748
  618MOL0     C85173   8.353   6.338   5.211  0.3666 -0.3885 -0.2899
  618MOL0     C85174   8.429   6.441   5.137 -1.1827  0.1531  0.6377
  618MOL0     C85175   8.398   6.204   5.233 -0.0197 -0.7040  0.0154
  618MOL0     C85176   8.519   6.150   5.175  0.4872  0.2299  0.4372
  618MOL0     O85177   8.573   6.201   5.063 -0.4404  0.3445  0.0298
  618MOL0     C85178   8.691   6.159   5.033  0.3718 -0.4564 -0.2889
  618MOL0     C85179   8.803   6.236   5.042 -0.6547 -0.3643 -0.1208
  618MOL0     C85180   8.935   6.191   5.019 -0.5289  0.6275  0.0962
  618MOL0     C85181   8.951   6.050   4.993  0.5458 -0.4188  0.9735
  618MOL0     O85182   9.065   5.970   4.976 -0.0221  0.0712 -0.1237
  618MOL0     C85183   9.191   6.038   5.003 -0.2558 -0.3745 -0.4333
  618MOL0     C85184   9.296   5.944   4.941 -0.2783 -0.9490 -0.8894
  618MOL0     C85185   9.437   6.002   4.962 -0.3028  0.2309 -0.0047
  618MOL0     C85186   9.548   5.934   4.885 -0.4826  0.1672  0.3797
  618MOL0     C85187   9.686   5.974   4.947  0.2520  0.6578 -0.3995
  618MOL0     C85188   9.807   5.937   4.855  0.4370  0.0249  0.3141
  618MOL0     C85189   9.935   5.939   4.931  0.6025 -0.4402  0.6658
  618MOL0     C85190  10.049   5.931   4.843  0.9270 -0.4529  0.5031
  618MOL0    Cl85191  10.187   5.905   4.944 -0.4486 -0.3104 -0.2430
  618MOL0     C85192   8.840   5.972   4.982 -0.3269 -0.1336 -0.0483
  618MOL0     C85193   8.707   6.021   4.996 -0.2064 -0.2926 -0.1110
  618MOL0     O85194   8.571   6.056   5.235 -0.7183  0.3960 -0.5052
  618MOL0     C85195   8.329   6.133   5.329  0.4265  0.4980  0.2490
  618MOL0     C85196   8.224   6.183   5.398  0.3676  0.2034 -0.3837
  618MOL0     N85197   7.482   6.085   5.619 -1.1818  0.7227 -0.0453
  618MOL0     N85198   7.415   6.020   5.714 -0.5434  0.7359  0.0651
  618MOL0     C85199   6.704   6.262   6.556 -0.9715  0.3105 -0.1197
  618MOL0     C85200   6.619   6.366   6.591  0.6173 -0.3364  0.3019
  618MOL0     C85201   6.443   6.718   6.639 -0.6200 -0.0983 -0.1877
  618MOL0     C85202   6.323   6.669   6.693 -0.0448  0.4508 -0.4208
  618MOL0     C85203   6.215   6.761   6.692  0.2699  1.1794 -0.6693
  618MOL0     C85204   6.226   6.887   6.649  0.7345 -0.2503  0.0501
  618MOL0     O85205   6.116   6.968   6.661 -0.5651 -0.8038  0.2893
  618MOL0     C85206   6.154   7.091   6.731  0.2482  0.6335  1.0304
  618MOL0     C85207   6.046   7.163   6.801  0.2105  0.2756 -0.1926
  618MOL0     C85208   6.025   7.098   6.944  0.3270 -0.6999  0.1430
  618MOL0     C85209   5.945   6.970   6.942  0.7114  0.0384 -0.2449
  618MOL0     C85210   5.944   6.913   7.076 -0.7434 -1.0571  0.6303
  618MOL0     C85211   5.933   6.861   7.184  0.3020 -0.6064  0.8464
  618MOL0     C85212   6.341   6.936   6.586 -0.6499  0.3969 -0.0307
  618MOL0     C85213   6.454   6.857   6.589  0.8022  0.2652 -0.4463
  618MOL0     C85214   6.580   6.924   6.549 -0.4986  0.6454 -0.0987
  618MOL0     H85215   6.728   6.420   6.904 -0.1735 -0.0514 -0.4773
  618MOL0     H85216   6.883   6.224   6.838 -0.0059  0.4602  0.3819
  618MOL0     H85217   7.037   6.048   6.746  1.7113 -0.0983  0.5261
  618MOL0     H85218   7.069   6.210   6.668  0.1903 -0.3556  0.9904
  618MOL0     H85219   7.196   6.014   6.580 -0.4578 -1.4023 -4.0639
  618MOL0     H85220   7.056   5.952   6.515 -1.2720 -0.2589 -0.5659
  618MOL0     H85221   7.038   6.178   6.388 -0.4357 -1.0422  1.6082
  618MOL0     H85222   7.188   6.228   6.470  1.6196 -0.6822 -0.4728
  618MOL0     H85223   7.297   6.039   6.347 -0.5941  1.1011  2.8173
  618MOL0     H85224   7.150   5.999   6.265  1.1719 -1.7016  1.5354
  618MOL0     H85225   7.273   6.272   6.249  2.4008 -0.7940 -0.6299
  618MOL0     H85226   7.143   6.207   6.143  0.9048  0.7071 -0.8865
  618MOL0     H85227   7.370   6.224   6.028 -2.0667  1.5452  1.5116
  618MOL0     H85228   7.440   6.136   6.155 -0.8286  1.8862  1.9536
  618MOL0     H85229   7.229   6.024   5.964  0.3249  0.8990  0.2344
  618MOL0     H85230   7.286   5.931   6.094 -2.1310 -1.2738 -1.0189
  618MOL0     H85231   7.527   5.963   6.025 -0.6435  0.9439  1.4675
  618MOL0     H85232   7.425   5.859   5.931 -3.2819  0.0466  2.8283
  618MOL0     H85233   7.634   6.167   5.905  0.6408 -1.5321  0.8790
  618MOL0     H85234   7.691   6.343   5.670  0.2043 -0.2545 -0.6673
  618MOL0     H85235   7.654   6.262   5.520 -1.0544  1.3330 -0.1749
  618MOL0     H85236   7.836   6.146   5.739 -0.4846  2.8307  0.5931
  618MOL0     H85237   7.815   6.072   5.589  1.5564 -0.8214  0.9399
  618MOL0     H85238   7.928   6.353   5.639  2.6565  1.5504 -1.9382
  618MOL0     H85239   8.017   6.195   5.632 -1.6154 -0.7347  0.3010
  618MOL0     H85240   7.934   6.158   5.394 -3.5594  0.5564 -1.2594
  618MOL0     H85241   7.844   6.294   5.401  0.2442  0.9836  0.8331
  618MOL0     H85242   8.192   6.470   5.224  0.5981  0.1561  0.8657
  618MOL0     H85243   8.416   6.425   5.029  0.9724  1.1405  0.1670
  618MOL0     H85244   8.538   6.436   5.145 -0.9482 -1.4044 -2.2374
  618MOL0     H85245   8.386   6.538   5.167  0.8635  1.9091 -1.6457
  618MOL0     H85246   8.782   6.332   5.088  1.4435 -0.0518  0.2993
  618MOL0     H85247   9.027   6.247   5.030  1.1765 -2.0692  0.4951
  618MOL0     H85248   9.199   6.136   4.956 -1.4371  0.3707  0.8476
  618MOL0     H85249   9.203   6.035   5.112  3.2777  1.0071 -0.6523
  618MOL0     H85250   9.287   5.843   4.980 -0.5643 -0.3469  0.6800
  618MOL0     H85251   9.291   5.942   4.831  2.7920 -1.1113 -1.1106
  618MOL0     H85252   9.458   5.990   5.069  2.6786  1.5521 -0.3331
  618MOL0     H85253   9.449   6.108   4.936  0.6658 -0.2586 -1.7430
  618MOL0     H85254   9.542   5.957   4.778  0.9434  0.7704  0.4091
  618MOL0     H85255   9.540   5.825   4.894 -2.7666  0.1056 -1.3749
  618MOL0     H85256   9.696   6.082   4.966 -0.1381  0.5387  0.5737
  618MOL0     H85257   9.692   5.928   5.046  0.4657  2.0688  0.2707
  618MOL0     H85258   9.815   6.012   4.776  0.2083  0.5368  0.7649
  618MOL0     H85259   9.800   5.843   4.800  2.7584  0.8145 -1.4853
  618MOL0     H85260   9.928   5.854   5.000 -0.9673 -1.0387 -0.1796
  618MOL0     H85261   9.945   6.029   4.992  0.5706 -0.1333  0.2198
  618MOL0     H85262  10.059   6.026   4.790 -1.1626 -1.2220 -1.4168
  618MOL0     H85263  10.035   5.846   4.775  0.0051  0.8245 -0.9724
  618MOL0     H85264   8.855   5.865   4.970 -2.3678 -1.0168  3.7096
  618MOL0     H85265   8.617   5.959   4.987  0.4210 -1.3269  0.4768
  618MOL0     H85266   8.364   6.035   5.361 -1.0068  0.4288  1.7648
  618MOL0     H85267   8.176   6.132   5.481  0.5419  0.3744 -0.1810
  618MOL0     H85268   6.691   6.227   6.454 -1.8558 -0.5865  0.2789
  618MOL0     H85269   6.559   6.412   6.513  0.5775 -0.1940  0.4144
  618MOL0     H85270   6.314   6.569   6.734 -0.4925  0.6140 -0.1102
  618MOL0     H85271   6.119   6.723   6.725 -0.8526  2.0761 -2.6683
  618MOL0     H85272   6.245   7.084   6.792  1.7026  0.9210 -1.0075
  618MOL0     H85273   6.195   7.157   6.654 -2.2545  0.0218 -0.9491
  618MOL0     H85274   5.955   7.153   6.741  0.7578  0.3197 -1.0514
  618MOL0     H85275   6.068   7.269   6.816 -0.6516  0.1776  2.2513
  618MOL0     H85276   6.121   7.074   6.989  1.4175 -0.0528 -1.6899
  618MOL0     H85277   5.984   7.176   7.008  0.6230  0.8327 -1.4398
  618MOL0     H85278   5.992   6.912   6.862 -1.8228  0.5632 -2.2334
  618MOL0     H85279   5.844   6.980   6.902  0.3548  2.8359  1.1037
  618MOL0     H85280   5.924   6.813   7.279  1.5282  0.5081  1.5575
  618MOL0     H85281   6.343   7.042   6.561  0.2979  0.1978 -0.8946
  618MOL0     H85282   6.674   6.900   6.601  0.6120 -0.1126 -2.3081
  618MOL0     H85283   6.613   6.911   6.446 -2.3069 -0.8628 -0.5243
  618MOL0     H85284   6.561   7.032   6.550  2.8955  1.4059 -1.8755
  619MOL0     O85285   9.725   9.441   1.837 -0.2617  0.0639  0.0497
  619MOL0     C85286   9.703   9.334   1.788  0.2233  0.7770  0.3220
  619MOL0     O85287   9.802   9.238   1.756  0.2078 -0.6150 -0.6217
  619MOL0     C85288   9.933   9.269   1.785 -0.0905  0.0887 -0.2529
  619MOL0     C85289   9.999   9.384   1.733 -0.1126  0.4132  0.3068
  619MOL0     C85290  10.135   9.410   1.773  0.4782  0.9774 -0.8074
  619MOL0     C85291  10.208   9.323   1.854 -0.2626 -0.3532  0.1568
  619MOL0     O85292  10.335   9.350   1.890 -0.2604 -0.2883  0.2077
  619MOL0     C85293  10.414   9.271   1.975 -0.1616 -0.2169  0.1458
  619MOL0     C85294  10.531   9.350   2.033  0.3902 -0.1149 -0.0173
  619MOL0     C85295  10.639   9.389   1.941 -0.4446 -0.2966  0.6972
  619MOL0     C85296  10.766   9.452   1.994 -0.9149 -0.2406 -0.4735
  619MOL0     C85297  10.857   9.491   1.879  0.2359  0.1435 -0.6909
  619MOL0     C85298  10.969   9.580   1.934 -0.4091 -1.1605  0.0836
  619MOL0     C85299  11.040   9.651   1.815  0.4602  0.0764 -0.3013
  619MOL0     C85300  11.153   9.743   1.851  1.3680  0.1613 -0.2215
  619MOL0     N85301  11.244   9.765   1.735  0.2802 -0.2323 -0.2214
  619MOL0     C85302  11.238   9.877   1.658  0.4044  0.0650 -0.5050
  619MOL0     C85303  11.328   9.858   1.562 -0.8167  0.1652 -0.2664
  619MOL0     C85304  11.354   9.950   1.450  0.4284 -0.4877  0.1291
  619MOL0     C85305  11.430  10.079   1.469 -0.1719  0.6733  0.1774
  619MOL0     C85306  11.583  10.080   1.484  0.3404  0.0224  0.4142
  619MOL0     C85307  11.665  10.024   1.365 -0.0262 -1.1237  0.6122
  619MOL0     O85308  11.659  10.125   1.265  0.3906  0.2654  0.1754
  619MOL0     C85309  11.700  10.104   1.137 -0.6076 -0.0470  0.1088
  619MOL0     C85310  11.715  10.225   1.062  0.3393 -0.4882 -0.0636
  619MOL0     C85311  11.760  10.220   0.927  1.0165 -0.8033 -0.4042
  619MOL0     C85312  11.764  10.343   0.849 -1.5854 -0.5622 -0.0626
  619MOL0     C85313  11.774  10.093   0.865 -0.0988  0.7091  1.2413
  619MOL0     C85314  11.799  10.068   0.717  0.0399 -1.2255  0.6888
  619MOL0     O85315  11.720   9.976   0.656  0.7266  0.1036  0.0207
  619MOL0     C85316  11.711   9.977   0.521 -0.7169  0.2666  0.4760
  619MOL0     C85317  11.798   9.894   0.442  0.3688 -0.7759 -0.2620
  619MOL0     C85318  11.793   9.902   0.304 -0.1352  0.5251  0.0073
  619MOL0     C85319  11.710   9.990   0.242 -0.4767  0.1909  0.2438
  619MOL0     O85320  11.733  10.001   0.108  0.4907  0.8876  0.5043
  619MOL0     C85321  11.681  10.120   0.044  0.1305  0.5866 -0.4048
  619MOL0     C85322  11.777  10.150  -0.082  0.0911  0.2188 -0.4040
  619MOL0     C85323  11.732  10.076  -0.206  0.5068 -0.6466  0.0714
  619MOL0     C85324  11.854  10.069  -0.298 -0.2030  0.6926  1.0806
  619MOL0     C85325  11.814  10.045  -0.447  0.0812 -0.3982  0.7317
  619MOL0     C85326  11.741  10.162  -0.517 -0.2879 -0.2298  0.2163
  619MOL0     C85327  11.677  10.131  -0.665 -1.4252  0.2955 -1.1819
  619MOL0     C85328  11.626  10.252  -0.748  0.2956 -0.2950 -0.4843
  619MOL0    Cl85329  11.749  10.383  -0.761  0.0441 -0.0082  0.1788
  619MOL0     C85330  11.619  10.060   0.319  0.4377 -0.5737  0.5109
  619MOL0     C85331  11.619  10.058   0.456  0.7794 -0.2413  0.5460
  619MOL0     O85332  11.877  10.151   0.665 -0.0556  0.7287  0.4792
  619MOL0     C85333  11.764   9.975   0.941  0.5456  0.5113  0.3075
  619MOL0     C85334  11.730   9.975   1.081  0.5034 -0.5245  0.3911
  619MOL0     N85335  11.396   9.734   1.582 -0.0222  0.3512  0.1064
  619MOL0     N85336  11.342   9.676   1.692  0.6224  0.4505 -0.5329
  619MOL0     C85337  10.142   9.208   1.896 -0.0463  0.9645 -0.5736
  619MOL0     C85338  10.007   9.182   1.862 -0.7464 -0.9167  0.4350
  619MOL0     C85339   9.564   9.308   1.734 -0.5796  0.5117  0.6679
  619MOL0     C85340   9.569   9.256   1.599  0.0049 -0.3710 -0.1753
  619MOL0     C85341   9.450   9.230   1.536  0.5327 -0.5184  0.2706
  619MOL0     C85342   9.327   9.248   1.599 -0.0863  0.0714  0.3188
  619MOL0     O85343   9.217   9.222   1.521  0.5406 -0.4091  0.6379
  619MOL0     C85344   9.092   9.205   1.587 -0.8902  0.3587  0.2776
  619MOL0     C85345   9.010   9.100   1.509 -0.6582 -0.1056  0.4349
  619MOL0     C85346   8.989   9.152   1.369  0.1781 -0.6549 -1.4617
  619MOL0     C85347   8.895   9.075   1.296 -0.2468 -0.0366  0.1132
  619MOL0     C85348   8.871   9.124   1.154 -0.1854 -0.4841 -0.4302
  619MOL0     C85349   8.851   9.168   1.048 -0.4408  0.1902  0.5158
  619MOL0     C85350   9.327   9.313   1.727  0.1964 -0.8305 -0.5135
  619MOL0     C85351   9.445   9.347   1.789 -0.0120  0.3486  0.1762
  619MOL0     C85352   9.433   9.400   1.931 -0.4110  0.0988  0.0370
  619MOL0     H85353   9.957   9.461   1.670  4.2256  0.5157 -2.8855
  619MOL0     H85354  10.178   9.495   1.720  0.5569  1.7811  0.5204
  619MOL0     H85355  10.460   9.186   1.924 -1.9762 -0.5068 -1.0954
  619MOL0     H85356  10.352   9.241   2.060 -0.1245  0.3181  0.3673
  619MOL0     H85357  10.503   9.441   2.086 -2.6920  0.1088 -1.7859
  619MOL0     H85358  10.582   9.277   2.096  0.1649 -0.7325 -0.5341
  619MOL0     H85359  10.673   9.292   1.901 -1.4069 -0.8156  1.0935
  619MOL0     H85360  10.602   9.452   1.859  0.9249  0.3148  0.5326
  619MOL0     H85361  10.746   9.541   2.054  2.4326 -0.6438  1.4512
  619MOL0     H85362  10.827   9.387   2.056  0.8701  1.8765  0.0792
  619MOL0     H85363  10.801   9.549   1.805  1.5786  2.8491  0.2508
  619MOL0     H85364  10.895   9.397   1.839 -1.5228  0.5870 -3.6977
  619MOL0     H85365  10.937   9.650   2.012  0.1464  1.0845 -1.5724
  619MOL0     H85366  11.039   9.516   1.988 -1.0319 -0.5238  1.6952
  619MOL0     H85367  10.965   9.718   1.772  2.1618  1.2559 -1.5254
  619MOL0     H85368  11.066   9.570   1.746 -0.8771 -0.4647 -0.2086
  619MOL0     H85369  11.115   9.835   1.896 -3.8307  0.3331 -4.0778
  619MOL0     H85370  11.213   9.690   1.926  0.7733 -0.1325  0.0550
  619MOL0     H85371  11.180   9.966   1.678 -0.5226 -0.4976 -0.6387
  619MOL0     H85372  11.254   9.984   1.422  0.1550 -2.5734 -1.7473
  619MOL0     H85373  11.402   9.896   1.368 -1.6894 -1.1187 -0.7559
  619MOL0     H85374  11.412  10.137   1.377  0.0147 -0.4126 -0.5626
  619MOL0     H85375  11.375  10.141   1.541 -1.7873  0.1364 -0.5291
  619MOL0     H85376  11.619  10.180   1.510  0.1853  1.0983 -3.0869
  619MOL0     H85377  11.605  10.011   1.567  0.0727  0.6671  1.0322
  619MOL0     H85378  11.770  10.004   1.389  0.3692 -0.1261 -0.2068
  619MOL0     H85379  11.614   9.934   1.329 -3.0128  1.0282 -0.9699
  619MOL0     H85380  11.686  10.323   1.097 -0.8617 -0.3650 -1.3201
  619MOL0     H85381  11.691  10.338   0.768 -1.0068  1.6977 -0.7913
  619MOL0     H85382  11.860  10.360   0.801 -1.3200  0.2357  0.7066
  619MOL0     H85383  11.729  10.433   0.902 -0.5435  0.2310 -0.6832
  619MOL0     H85384  11.857   9.819   0.494 -0.6956 -1.1734  0.4162
  619MOL0     H85385  11.862   9.847   0.241 -1.8767  0.8124 -2.2708
  619MOL0     H85386  11.580  10.105   0.004  0.4654 -3.1377 -0.2226
  619MOL0     H85387  11.696  10.206   0.110  2.4265  0.7058 -0.9851
  619MOL0     H85388  11.786  10.255  -0.109  0.8582  0.1238 -0.5490
  619MOL0     H85389  11.877  10.113  -0.056  0.6752  2.3835  0.6236
  619MOL0     H85390  11.658  10.134  -0.261  1.0922 -0.5339 -0.6057
  619MOL0     H85391  11.696   9.976  -0.181 -0.8977 -0.3975 -0.8337
  619MOL0     H85392  11.925   9.990  -0.272 -1.3293 -1.2592 -1.3559
  619MOL0     H85393  11.908  10.164  -0.297 -0.9121  1.1190  0.2946
  619MOL0     H85394  11.899  10.019  -0.510 -0.0973  0.7447 -0.0186
  619MOL0     H85395  11.739   9.966  -0.442  1.4143 -1.6263  3.5301
  619MOL0     H85396  11.821  10.236  -0.529  0.3278 -0.9069  0.0410
  619MOL0     H85397  11.670  10.215  -0.453  0.0165 -0.5057  0.7892
  619MOL0     H85398  11.592  10.063  -0.651 -1.8187  0.9806 -0.1222
  619MOL0     H85399  11.751  10.068  -0.717  1.2093  1.4404  0.9536
  619MOL0     H85400  11.551  10.300  -0.685  2.5340  2.5661  0.2410
  619MOL0     H85401  11.586  10.217  -0.843 -1.8681 -0.5476  0.4666
  619MOL0     H85402  11.543  10.116   0.265  1.0520 -0.3137 -0.0990
  619MOL0     H85403  11.545  10.111   0.514  0.6669 -1.1719  1.2660
  619MOL0     H85404  11.777   9.877   0.896  0.2168  0.2590  0.7565
  619MOL0     H85405  11.738   9.883   1.138  0.7343 -0.9196 -0.2729
  619MOL0     H85406  10.197   9.147   1.967 -2.5264  0.2706  0.8382
  619MOL0     H85407   9.940   9.101   1.888 -0.6240 -1.1187  0.1174
  619MOL0     H85408   9.665   9.227   1.556  1.2987 -0.1903  2.3766
  619MOL0     H85409   9.445   9.189   1.436  2.3246 -1.3608  0.4872
  619MOL0     H85410   9.100   9.155   1.684  0.6495 -0.6279 -0.3284
  619MOL0     H85411   9.034   9.298   1.586  2.9279  2.9599 -0.8607
  619MOL0     H85412   8.914   9.090   1.559 -1.1759 -0.3089 -0.5702
  619MOL0     H85413   9.060   9.003   1.508 -2.7985 -1.2527  0.4144
  619MOL0     H85414   8.943   9.251   1.375 -1.5489 -1.4798 -0.0569
  619MOL0     H85415   9.088   9.158   1.324  1.1022  2.1419  0.6525
  619MOL0     H85416   8.806   9.073   1.358  0.6345 -2.1999  1.4134
  619MOL0     H85417   8.936   8.973   1.291  2.3306  0.8905  0.6253
  619MOL0     H85418   8.823   9.222   0.959  1.2318  0.9626  0.4071
  619MOL0     H85419   9.235   9.353   1.769  1.2554  0.7230  0.4465
  619MOL0     H85420   9.476   9.331   2.003  0.2153  1.3824  0.9379
  619MOL0     H85421   9.479   9.498   1.948 -1.6896  0.5590  0.8745
  619MOL0     H85422   9.329   9.418   1.956 -1.2322 -0.3152 -2.7162
  620MOL0     O85423   6.364   9.634   9.806 -0.5444  0.7236  0.4151
  620MOL0     C85424   6.342   9.583   9.914  0.5466  0.0401  0.0067
  620MOL0     O85425   6.348   9.649  10.036  0.9593  0.5651  0.2840
  620MOL0     C85426   6.379   9.782  10.027  0.2446 -0.2060 -0.3074
  620MOL0     C85427   6.509   9.825   9.991 -0.0894 -0.0096 -0.9351
  620MOL0     C85428   6.548   9.958  10.001  0.1589 -0.5713  0.0116
  620MOL0     C85429   6.451  10.060  10.032  0.1271  0.2399 -0.1171
  620MOL0     O85430   6.488  10.195  10.017 -0.1681 -0.2584 -0.2632
  620MOL0     C85431   6.391  10.300  10.010 -0.0642 -0.2069 -0.0555
  620MOL0     C85432   6.467  10.430   9.994 -0.6708  0.4317  0.4909
  620MOL0     C85433   6.531  10.449   9.860 -0.4946 -0.1789  0.0680
  620MOL0     C85434   6.616  10.576   9.857  0.9576  0.0736 -0.4827
  620MOL0     C85435   6.697  10.600   9.730  0.1434 -0.2196  0.3112
  620MOL0     C85436   6.762  10.737   9.731 -0.6082  1.1823  0.1374
  620MOL0     C85437   6.850  10.743   9.607  0.0593 -0.8575 -0.1940
  620MOL0     C85438   6.944  10.868   9.609 -0.0257 -0.0989  0.1860
  620MOL0     N85439   7.051  10.852   9.711  0.2684 -0.4514 -0.3660
  620MOL0     C85440   7.134  10.740   9.719 -0.2471  0.2902  0.3490
  620MOL0     C85441   7.240  10.778   9.798  0.1593  0.8373 -0.3562
  620MOL0     C85442   7.361  10.694   9.847  0.6334 -0.3351 -0.6988
  620MOL0     C85443   7.445  10.634   9.736  0.2132  0.5022 -0.0415
  620MOL0     C85444   7.546  10.548   9.802 -0.2081 -0.5026  0.0821
  620MOL0     C85445   7.661  10.515   9.703 -0.5971 -0.7612  0.1076
  620MOL0     O85446   7.731  10.634   9.654 -0.0012  0.4495 -0.0490
  620MOL0     C85447   7.872  10.622   9.659  0.2919  0.2875  0.0858
  620MOL0     C85448   7.945  10.502   9.652  0.3142 -0.2462  0.1765
  620MOL0     C85449   8.080  10.500   9.663 -1.0076  0.1662  0.0264
  620MOL0     C85450   8.142  10.361   9.666 -0.0121  0.2127 -0.2581
  620MOL0     C85451   8.152  10.616   9.663 -0.0844 -0.8998  0.2825
  620MOL0     C85452   8.305  10.624   9.667 -0.0105 -0.5076  0.7304
  620MOL0     O85453   8.379  10.522   9.619 -0.0533  0.0973  0.2036
  620MOL0     C85454   8.515  10.545   9.582  0.3404  0.9810 -0.4486
  620MOL0     C85455   8.610  10.497   9.670  0.5857 -0.6736 -0.0755
  620MOL0     C85456   8.742  10.510   9.637 -1.1698 -0.1128 -0.4788
  620MOL0     C85457   8.791  10.585   9.522 -0.2295 -0.8796 -0.1451
  620MOL0     O85458   8.926  10.592   9.512  0.1338 -0.6351 -0.8061
  620MOL0     C85459   8.970  10.698   9.420 -0.1625 -0.4247 -0.3944
  620MOL0     C85460   8.949  10.835   9.486 -0.7598  0.2612  0.3528
  620MOL0     C85461   9.019  10.856   9.608  0.4369 -0.1277  0.0953
  620MOL0     C85462   9.067  10.995   9.647 -0.4304  0.2870 -0.2618
  620MOL0     C85463   9.121  10.991   9.787 -0.8290  0.1683 -0.8184
  620MOL0     C85464   9.270  10.948   9.793 -0.1998  0.0544 -0.7726
  620MOL0     C85465   9.309  10.970   9.942  0.1331 -0.3997 -0.7589
  620MOL0     C85466   9.448  10.915   9.969 -0.5385 -0.2767 -0.7466
  620MOL0    Cl85467   9.582  11.013   9.888 -0.2321  0.0865  0.3517
  620MOL0     C85468   8.687  10.627   9.429 -0.2677  0.4040 -0.7968
  620MOL0     C85469   8.554  10.606   9.460  0.2219 -0.3890  0.4183
  620MOL0     O85470   8.351  10.734   9.692  0.2231 -0.0066  0.1104
  620MOL0     C85471   8.078  10.734   9.662 -0.5691 -0.2051 -0.7196
  620MOL0     C85472   7.937  10.741   9.671 -0.5106 -0.3844 -1.0573
  620MOL0     N85473   7.214  10.902   9.846 -0.0274 -0.1973  0.5149
  620MOL0     N85474   7.107  10.956   9.787 -0.4050  0.2585 -0.0493
  620MOL0     C85475   6.322  10.017  10.070  0.3395  0.4668  0.3044
  620MOL0     C85476   6.280   9.880  10.064 -0.4749  0.2534 -1.2367
  620MOL0     C85477   6.289   9.443   9.929 -0.2101  0.7664 -0.7303
  620MOL0     C85478   6.190   9.428  10.034 -0.7282 -0.2890 -0.5434
  620MOL0     C85479   6.140   9.304  10.066 -0.1512 -0.7102 -1.2076
  620MOL0     C85480   6.163   9.192   9.983 -0.1924 -0.0608 -0.3473
  620MOL0     O85481   6.085   9.077   9.991  0.2048 -0.6159 -0.5954
  620MOL0     C85482   6.127   8.953   9.933 -0.6710  0.7988  0.1520
  620MOL0     C85483   6.258   8.908   9.991  0.1578 -0.5553 -0.9513
  620MOL0     C85484   6.301   8.765   9.967  0.1268 -0.4971  0.1567
  620MOL0     C85485   6.445   8.746  10.002  0.0814 -1.2749 -0.2165
  620MOL0     C85486   6.465   8.735  10.145 -0.1261 -0.3058 -0.9876
  620MOL0     C85487   6.458   8.711  10.265 -0.4435 -0.0931  0.2239
  620MOL0     C85488   6.254   9.209   9.870  0.5588  0.9630 -0.0972
  620MOL0     C85489   6.329   9.335   9.844 -0.1643 -0.3764 -0.9407
  620MOL0     C85490   6.445   9.336   9.741  0.6895  0.0200  0.6059
  620MOL0     H85491   6.578   9.749   9.956  0.3053 -1.8920  3.2939
  620MOL0     H85492   6.642   9.998   9.965  0.3887 -0.7003  0.4622
  620MOL0     H85493   6.321  10.312  10.094  0.2711  0.2309  0.1680
  620MOL0     H85494   6.328  10.289   9.922  2.8313 -0.4001 -2.2563
  620MOL0     H85495   6.405  10.518  10.016  3.2552  3.5321  0.2927
  620MOL0     H85496   6.543  10.420  10.072 -0.5394 -3.6104  0.0444
  620MOL0     H85497   6.602  10.370   9.836  0.5873  1.5332 -2.9185
  620MOL0     H85498   6.462  10.462   9.777 -0.6921  0.6441  0.3547
  620MOL0     H85499   6.543  10.654   9.875 -0.3800 -1.1347 -0.5288
  620MOL0     H85500   6.681  10.595   9.943 -2.6544  0.0772  2.4993
  620MOL0     H85501   6.620  10.596   9.653 -1.3828 -0.2890  1.7746
  620MOL0     H85502   6.779  10.528   9.719 -1.7628 -2.6972  1.2867
  620MOL0     H85503   6.686  10.815   9.733 -0.3087  1.4652  0.9559
  620MOL0     H85504   6.824  10.737   9.821  2.0315 -1.2574 -1.5027
  620MOL0     H85505   6.785  10.743   9.520  0.1930 -2.5504 -0.3114
  620MOL0     H85506   6.912  10.654   9.597  2.0926  0.6855 -2.7593
  620MOL0     H85507   6.985  10.881   9.508  1.5206  1.7954  0.9887
  620MOL0     H85508   6.889  10.960   9.630  0.3454  0.2930 -0.5006
  620MOL0     H85509   7.121  10.647   9.663 -1.8196  0.1034  0.9844
  620MOL0     H85510   7.314  10.615   9.906 -0.8419  0.1672 -1.1630
  620MOL0     H85511   7.421  10.750   9.920 -1.3094 -1.8363  2.2506
  620MOL0     H85512   7.390  10.574   9.663  1.2077 -0.7347  0.2026
  620MOL0     H85513   7.484  10.719   9.679 -0.5059 -1.5473 -3.9033
  620MOL0     H85514   7.596  10.607   9.879 -1.0593  2.1103 -1.2424
  620MOL0     H85515   7.508  10.453   9.841 -1.2835  0.3091  1.0553
  620MOL0     H85516   7.729  10.464   9.772  1.3640 -0.6553 -1.6730
  620MOL0     H85517   7.627  10.451   9.621 -0.4463 -2.8624  1.5975
  620MOL0     H85518   7.891  10.410   9.631 -0.9151  0.5660 -0.2982
  620MOL0     H85519   8.216  10.350   9.586  3.2221 -0.3188  2.5496
  620MOL0     H85520   8.069  10.280   9.673 -0.8926  0.8751 -1.4867
  620MOL0     H85521   8.194  10.356   9.763 -0.4969 -2.4114 -0.0560
  620MOL0     H85522   8.574  10.453   9.762 -1.3091 -0.2492 -0.5790
  620MOL0     H85523   8.824  10.470   9.695  1.0458 -0.8848 -3.8495
  620MOL0     H85524   9.077  10.682   9.400  0.4075 -1.3563  2.9081
  620MOL0     H85525   8.917  10.692   9.324 -0.2733 -3.9263 -0.2633
  620MOL0     H85526   8.982  10.919   9.423 -0.7926  1.4494  1.8540
  620MOL0     H85527   8.841  10.845   9.504 -1.0642 -0.6400 -0.8628
  620MOL0     H85528   9.101  10.784   9.618  0.4057 -0.5252 -2.1202
  620MOL0     H85529   8.946  10.822   9.682  1.9544 -1.2409  1.1663
  620MOL0     H85530   8.987  11.070   9.641 -0.3424  0.5622  1.4498
  620MOL0     H85531   9.148  11.025   9.579  0.3518 -1.0431  0.0397
  620MOL0     H85532   9.113  11.092   9.827 -2.2445 -0.6260  1.0581
  620MOL0     H85533   9.050  10.927   9.841  0.7171 -1.3283 -0.4689
  620MOL0     H85534   9.334  11.010   9.730  0.8704  0.7408  0.9197
  620MOL0     H85535   9.275  10.843   9.762  1.5574  0.4052 -1.7959
  620MOL0     H85536   9.230  10.928  10.005 -0.6454 -1.4184 -2.3336
  620MOL0     H85537   9.287  11.075   9.963 -2.0125 -1.4486  3.4173
  620MOL0     H85538   9.454  10.806   9.959 -2.0376 -0.5214  0.4824
  620MOL0     H85539   9.466  10.937  10.074 -2.1870  1.3662 -0.7663
  620MOL0     H85540   8.721  10.670   9.336  0.6217  1.6453  0.0627
  620MOL0     H85541   8.475  10.636   9.392  2.4936  0.1427 -2.1596
  620MOL0     H85542   8.131  10.828   9.670 -1.4867  0.2576  0.1231
  620MOL0     H85543   7.890  10.839   9.680  3.6451  1.6128  2.1306
  620MOL0     H85544   6.256  10.094  10.109  1.5381  0.5981  2.1265
  620MOL0     H85545   6.182   9.846  10.095 -0.0275  1.4374  1.7836
  620MOL0     H85546   6.143   9.508  10.090 -3.6291 -1.0188 -1.7662
  620MOL0     H85547   6.072   9.279  10.146  0.5566  1.3348  0.1187
  620MOL0     H85548   6.051   8.875   9.947  2.4505 -2.6548 -0.5497
  620MOL0     H85549   6.151   8.950   9.826  1.9605 -0.5301  0.7028
  620MOL0     H85550   6.251   8.914  10.100  1.5515 -0.3150 -0.8561
  620MOL0     H85551   6.335   8.975   9.952 -0.3234  0.8087  0.3301
  620MOL0     H85552   6.236   8.707  10.033 -0.1455 -0.3143  0.0508
  620MOL0     H85553   6.280   8.732   9.865 -0.3651  3.1351 -1.0672
  620MOL0     H85554   6.496   8.833   9.960  0.6872 -0.1376  2.6560
  620MOL0     H85555   6.478   8.659   9.944 -2.3847 -0.9040 -2.3321
  620MOL0     H85556   6.450   8.701  10.371 -1.2699 -0.7228  0.1160
  620MOL0     H85557   6.276   9.132   9.797  0.9968  1.1698 -0.1854
  620MOL0     H85558   6.490   9.237   9.742  2.3904  0.7571  1.0991
  620MOL0     H85559   6.407   9.349   9.639  0.8742 -0.9487  0.4048
  620MOL0     H85560   6.526   9.404   9.768  0.6565 -0.4640  2.0026
  621MOL0     O85561   4.732   6.029  11.250  0.9137  0.5925  0.6300
  621MOL0     C85562   4.683   6.133  11.208 -0.1355 -0.1886 -0.5915
  621MOL0     O85563   4.735   6.221  11.120 -0.1651  0.4529  0.4247
  621MOL0     C85564   4.861   6.197  11.077 -0.6733 -0.4332  0.6953
  621MOL0     C85565   4.890   6.123  10.963 -0.5398  0.2290 -0.4446
  621MOL0     C85566   5.008   6.127  10.899 -0.6519  0.2198 -0.0786
  621MOL0     C85567   5.112   6.196  10.970 -0.3797 -0.1348  0.6023
  621MOL0     O85568   5.242   6.195  10.927  0.4384  0.0494  0.3456
  621MOL0     C85569   5.282   6.138  10.806  0.2383  0.5082  0.3163
  621MOL0     C85570   5.435   6.124  10.799 -0.1309  0.0030 -0.2118
  621MOL0     C85571   5.516   6.238  10.845 -0.1295 -0.6416  0.9800
  621MOL0     C85572   5.663   6.231  10.799  0.3073  0.0571  0.5645
  621MOL0     C85573   5.732   6.371  10.817 -1.0690  0.7852 -0.5947
  621MOL0     C85574   5.749   6.402  10.970  0.8436 -0.4847  0.6208
  621MOL0     C85575   5.866   6.322  11.031 -0.0113  0.6362 -0.1372
  621MOL0     C85576   5.970   6.422  11.094  0.3570  0.6979 -0.0367
  621MOL0     N85577   6.068   6.348  11.179 -0.1854 -0.5610  0.5222
  621MOL0     C85578   6.115   6.215  11.167 -0.1367  0.1126  0.7590
  621MOL0     C85579   6.169   6.190  11.288 -0.7831 -0.5621  0.6298
  621MOL0     C85580   6.242   6.070  11.343  0.4687  0.2020  0.7439
  621MOL0     C85581   6.253   5.949  11.244  0.5338 -0.3338  0.5696
  621MOL0     C85582   6.355   5.848  11.298 -0.3888 -0.0470 -0.1452
  621MOL0     C85583   6.317   5.775  11.434 -0.4278  0.1695  0.1392
  621MOL0     O85584   6.179   5.735  11.415  0.4874 -0.0540  0.5298
  621MOL0     C85585   6.132   5.642  11.501 -0.2479  0.0532  0.0084
  621MOL0     C85586   6.186   5.611  11.623  0.1364 -0.8136 -0.3183
  621MOL0     C85587   6.126   5.516  11.713 -0.5565 -0.3858  0.2805
  621MOL0     C85588   6.193   5.499  11.852  0.1469  0.2601 -0.8074
  621MOL0     C85589   6.014   5.436  11.666 -0.0279  0.5768 -0.3470
  621MOL0     C85590   5.945   5.323  11.740  0.1219  0.6341 -0.6228
  621MOL0     O85591   5.881   5.222  11.667  0.1975  0.4443  0.0337
  621MOL0     C85592   5.790   5.142  11.724  0.1584 -0.1527 -0.2291
  621MOL0     C85593   5.697   5.196  11.804  0.2072  0.0267  0.7144
  621MOL0     C85594   5.611   5.120  11.881  0.5551 -0.1805  0.2617
  621MOL0     C85595   5.605   4.982  11.856 -0.1700  0.2791 -0.6672
  621MOL0     O85596   5.519   4.897  11.924  0.3092  1.0780 -0.7823
  621MOL0     C85597   5.381   4.947  11.942 -0.2098 -0.0217  0.0700
  621MOL0     C85598   5.296   4.832  11.893  0.0467  0.5184  0.0599
  621MOL0     C85599   5.148   4.864  11.919  0.5046  0.1873  0.5003
  621MOL0     C85600   5.070   4.737  11.937  0.5092  0.2386  0.0214
  621MOL0     C85601   4.922   4.767  11.960 -0.3845  0.3405  0.1712
  621MOL0     C85602   4.830   4.646  11.936  0.2587  0.8318 -0.2627
  621MOL0     C85603   4.691   4.666  11.996 -0.1917 -0.2514  0.0749
  621MOL0     C85604   4.629   4.540  12.019  0.2611  0.6452 -0.5959
  621MOL0    Cl85605   4.469   4.567  12.095  0.3924  0.1443 -0.0263
  621MOL0     C85606   5.702   4.923  11.766  1.0349  0.1547  0.6512
  621MOL0     C85607   5.799   5.001  11.703 -0.3768 -1.4336 -0.2993
  621MOL0     O85608   5.950   5.322  11.862 -0.0297  0.2332 -0.1145
  621MOL0     C85609   5.973   5.466  11.538  0.2243  0.6931  0.0040
  621MOL0     C85610   6.032   5.562  11.450  0.2336 -0.0332 -0.4166
  621MOL0     N85611   6.158   6.305  11.369 -0.2072 -0.9664  0.5864
  621MOL0     N85612   6.105   6.402  11.296  1.2185 -0.2328 -0.4953
  621MOL0     C85613   5.093   6.254  11.093 -0.6104  0.1805 -0.4403
  621MOL0     C85614   4.959   6.276  11.139 -0.7975  0.2400 -0.3831
  621MOL0     C85615   4.548   6.169  11.266 -0.8104  0.3463 -0.7368
  621MOL0     C85616   4.541   6.308  11.307 -0.2065  0.5238  0.6501
  621MOL0     C85617   4.421   6.368  11.351  1.1266 -0.4459 -0.0893
  621MOL0     C85618   4.308   6.291  11.361  0.7047  0.8158  0.6738
  621MOL0     O85619   4.184   6.331  11.394  0.8505 -0.1435  0.3874
  621MOL0     C85620   4.097   6.352  11.284  0.6749 -0.1985  0.5338
  621MOL0     C85621   3.966   6.412  11.343 -0.2638  0.6013 -0.3270
  621MOL0     C85622   3.859   6.457  11.236 -0.5443  0.2022 -0.1981
  621MOL0     C85623   3.739   6.511  11.315 -0.2268 -0.1456  0.5709
  621MOL0     C85624   3.629   6.535  11.219 -0.4855  0.1014  0.2032
  621MOL0     C85625   3.524   6.558  11.158  0.3131  0.3757  0.1622
  621MOL0     C85626   4.326   6.149  11.344  0.5050 -0.1013  0.1230
  621MOL0     C85627   4.442   6.085  11.305 -0.0765 -0.6692 -0.5187
  621MOL0     C85628   4.451   5.929  11.288  0.1381 -0.6423 -0.2133
  621MOL0     H85629   4.811   6.074  10.907 -0.5934 -1.1466  0.7761
  621MOL0     H85630   5.029   6.075  10.807  1.2874 -2.6812  1.8291
  621MOL0     H85631   5.250   6.199  10.720 -1.6033  0.0891  0.6472
  621MOL0     H85632   5.242   6.037  10.793 -0.0104  0.0599  3.7506
  621MOL0     H85633   5.467   6.039  10.861  1.6678  1.0003  0.3152
  621MOL0     H85634   5.460   6.098  10.696  0.3900  0.5700 -0.2365
  621MOL0     H85635   5.463   6.319  10.795 -0.4775 -2.2672 -1.4903
  621MOL0     H85636   5.512   6.244  10.954  2.7468 -3.7526  1.4228
  621MOL0     H85637   5.727   6.161  10.853  2.4405  0.2082 -1.5652
  621MOL0     H85638   5.674   6.203  10.694  1.4425  2.6483 -0.0943
  621MOL0     H85639   5.665   6.444  10.771  0.1812  1.9918 -0.5500
  621MOL0     H85640   5.826   6.365  10.762 -0.8880 -3.7733 -0.1955
  621MOL0     H85641   5.770   6.509  10.978  0.1970 -0.3811  0.9801
  621MOL0     H85642   5.665   6.388  11.037  2.9247 -1.9949  3.0841
  621MOL0     H85643   5.910   6.255  10.956 -1.3166 -2.2081  1.4882
  621MOL0     H85644   5.827   6.250  11.104 -2.2883 -2.9732 -4.4107
  621MOL0     H85645   6.015   6.477  11.011  1.5202 -1.7914 -1.1775
  621MOL0     H85646   5.915   6.495  11.155  1.2591  0.8615  0.6054
  621MOL0     H85647   6.096   6.138  11.093  4.9528 -1.2462  0.4990
  621MOL0     H85648   6.198   6.050  11.441 -1.2983  0.8767  0.1485
  621MOL0     H85649   6.340   6.110  11.371  0.7864 -0.0875  0.0696
  621MOL0     H85650   6.157   5.897  11.240  1.1215 -1.4809  0.8673
  621MOL0     H85651   6.276   5.976  11.140  0.1004 -2.4582 -0.1408
  621MOL0     H85652   6.369   5.761  11.232 -0.7082 -1.8208  1.9967
  621MOL0     H85653   6.451   5.898  11.313 -0.1639 -0.0383 -1.4549
  621MOL0     H85654   6.388   5.696  11.458 -0.2020  0.3123 -0.0581
  621MOL0     H85655   6.325   5.840  11.522  1.2351  0.0859  0.0757
  621MOL0     H85656   6.260   5.682  11.658  1.4356 -1.5267 -1.5044
  621MOL0     H85657   6.202   5.393  11.878 -2.4579  0.5045  1.6155
  621MOL0     H85658   6.136   5.549  11.931 -0.2147 -4.6899  2.5282
  621MOL0     H85659   6.293   5.541  11.863  0.2631 -0.6646  2.8368
  621MOL0     H85660   5.700   5.302  11.827  1.2154  0.4142 -1.0643
  621MOL0     H85661   5.535   5.170  11.941 -0.7182 -0.6609 -0.9065
  621MOL0     H85662   5.356   4.970  12.046  0.2994 -1.4888  0.5388
  621MOL0     H85663   5.366   5.033  11.876  4.0186 -0.6733 -2.0876
  621MOL0     H85664   5.318   4.816  11.787  2.7164  1.6738  0.3561
  621MOL0     H85665   5.330   4.740  11.941  0.2934 -0.2454 -1.5155
  621MOL0     H85666   5.109   4.930  11.841  1.8823  0.5518  0.0993
  621MOL0     H85667   5.137   4.919  12.013 -2.0656 -2.7349  2.0891
  621MOL0     H85668   5.108   4.687  12.027  1.4300  2.5268  0.9960
  621MOL0     H85669   5.077   4.670  11.851 -1.1233 -0.6000  0.4986
  621MOL0     H85670   4.908   4.798  12.064  0.4345  0.5718  0.2145
  621MOL0     H85671   4.898   4.850  11.893  1.1858  0.3434 -0.4215
  621MOL0     H85672   4.869   4.555  11.982 -0.5758 -0.2023 -1.5078
  621MOL0     H85673   4.825   4.623  11.829 -0.2439  0.0317 -0.0816
  621MOL0     H85674   4.633   4.730  11.927  1.5441  0.0545 -1.1593
  621MOL0     H85675   4.700   4.717  12.092  0.6231 -2.9382  1.5262
  621MOL0     H85676   4.688   4.485  12.093  1.5242  0.7315 -1.5003
  621MOL0     H85677   4.631   4.482  11.927  0.2890 -1.3474  0.5906
  621MOL0     H85678   5.693   4.815  11.760  3.1150 -0.1261  1.8732
  621MOL0     H85679   5.878   4.961  11.640 -0.5845  0.1674 -1.6525
  621MOL0     H85680   5.888   5.410  11.499 -0.2740  2.0194 -0.8652
  621MOL0     H85681   5.978   5.587  11.359  2.2576 -0.6103 -1.8491
  621MOL0     H85682   5.181   6.304  11.132  0.0912  0.4047 -2.2306
  621MOL0     H85683   4.923   6.336  11.222 -0.3835 -2.4099  1.8273
  621MOL0     H85684   4.629   6.372  11.297 -0.7523  1.0702 -0.8991
  621MOL0     H85685   4.417   6.474  11.374 -0.1112 -0.6920  0.9406
  621MOL0     H85686   4.144   6.424  11.216  2.0187 -0.9683  0.5977
  621MOL0     H85687   4.075   6.265  11.222 -1.1015 -1.0126  2.2005
  621MOL0     H85688   3.988   6.491  11.416  1.6838 -0.0993 -0.1019
  621MOL0     H85689   3.933   6.328  11.406  1.0172 -0.3227 -0.8465
  621MOL0     H85690   3.911   6.531  11.175  4.0456 -0.7790  2.1418
  621MOL0     H85691   3.830   6.374  11.171  1.2520 -0.1887 -0.5502
  621MOL0     H85692   3.752   6.610  11.359  0.6797 -0.8479  1.9625
  621MOL0     H85693   3.725   6.443  11.399  3.7364 -2.1555 -0.1538
  621MOL0     H85694   3.440   6.586  11.098 -0.0675  1.6327  1.2463
  621MOL0     H85695   4.247   6.081  11.373  2.4712 -2.8994 -0.6850
  621MOL0     H85696   4.506   5.906  11.196 -0.3288  2.7052 -1.4527
  621MOL0     H85697   4.502   5.877  11.370  0.3107 -6.0162 -3.2374
  621MOL0     H85698   4.348   5.897  11.272 -1.2399  3.8957 -1.9885
  622MOL0     O85699   8.243   8.905   6.181 -0.2734  0.0597  0.0512
  622MOL0     C85700   8.162   8.882   6.089 -0.0926 -0.4065 -0.0393
  622MOL0     O85701   8.172   8.778   6.006  0.6264 -0.2061 -0.5068
  622MOL0     C85702   8.267   8.681   6.018 -0.1033 -0.2785 -0.7056
  622MOL0     C85703   8.406   8.702   6.046 -0.2163 -0.7219  0.3584
  622MOL0     C85704   8.486   8.591   6.080 -0.2936  0.0151  0.2935
  622MOL0     C85705   8.433   8.459   6.065  0.6414  0.4074 -0.3787
  622MOL0     O85706   8.492   8.339   6.088  0.0023  0.0036 -0.0551
  622MOL0     C85707   8.620   8.332   6.143  0.1073 -0.1237  0.2213
  622MOL0     C85708   8.649   8.195   6.179  0.2275  0.2331  0.4722
  622MOL0     C85709   8.783   8.160   6.249 -0.0780  0.4091 -0.1340
  622MOL0     C85710   8.779   8.021   6.291 -0.4178  0.2503  0.3041
  622MOL0     C85711   8.904   7.990   6.370  0.3592 -0.1727  0.1932
  622MOL0     C85712   8.896   7.852   6.414 -0.3360  0.4499  0.2508
  622MOL0     C85713   9.018   7.804   6.480  0.2567  0.9054  0.0797
  622MOL0     C85714   9.067   7.867   6.608  0.3536 -0.3862 -0.3119
  622MOL0     N85715   9.186   7.806   6.670 -0.1298  0.6114  0.4837
  622MOL0     C85716   9.212   7.679   6.716  0.5085 -1.1240 -0.7380
  622MOL0     C85717   9.345   7.673   6.729 -0.0969  0.3129 -0.3169
  622MOL0     C85718   9.433   7.557   6.773  0.0521  0.4266 -0.2534
  622MOL0     C85719   9.411   7.435   6.679 -0.1838 -0.2523 -0.6409
  622MOL0     C85720   9.491   7.309   6.722  0.6560  0.0172  0.6151
  622MOL0     C85721   9.644   7.333   6.752 -0.2182 -0.5617 -0.7305
  622MOL0     O85722   9.664   7.395   6.880 -0.1915  0.6282  0.0247
  622MOL0     C85723   9.785   7.456   6.896  1.2309 -0.4130  0.4978
  622MOL0     C85724   9.786   7.557   6.989  0.2396  0.0490  0.0018
  622MOL0     C85725   9.905   7.620   7.033 -0.3251  0.1357 -0.3051
  622MOL0     C85726   9.893   7.722   7.143  0.2299 -0.1353 -0.3958
  622MOL0     C85727  10.028   7.591   6.962  0.2265  0.0165  0.3820
  622MOL0     C85728  10.155   7.647   6.998  1.3488  0.2419  0.1634
  622MOL0     O85729  10.253   7.553   6.989  0.5936  0.5632 -0.5121
  622MOL0     C85730  10.378   7.614   6.984  0.7671  0.2393 -0.4785
  622MOL0     C85731  10.427   7.702   6.885 -0.0474  1.1717 -0.4361
  622MOL0     C85732  10.571   7.721   6.884  0.8066  0.1099  0.3388
  622MOL0     C85733  10.654   7.679   6.989  0.2484  0.5172  0.1819
  622MOL0     O85734  10.782   7.702   6.978 -0.0660 -0.0682  0.4345
  622MOL0     C85735  10.833   7.798   7.075  0.2366 -0.3304 -0.2986
  622MOL0     C85736  10.979   7.839   7.036 -0.5130 -0.4578  0.3117
  622MOL0     C85737  11.003   7.870   6.892  1.1068  0.1772 -0.6534
  622MOL0     C85738  11.136   7.938   6.870 -0.3210 -0.7832  0.4090
  622MOL0     C85739  11.168   7.948   6.717 -0.3347  0.1748  0.1691
  622MOL0     C85740  11.301   8.013   6.676  0.1730 -0.4222  0.1591
  622MOL0     C85741  11.295   8.054   6.524 -0.9717  0.3447  0.8887
  622MOL0     C85742  11.431   8.108   6.470 -0.8346  0.2054 -0.1947
  622MOL0    Cl85743  11.432   8.186   6.307 -0.4914 -0.5890  0.5534
  622MOL0     C85744  10.598   7.609   7.091 -0.2368  0.5359 -0.0343
  622MOL0     C85745  10.467   7.568   7.079 -0.0086  0.0831 -0.2859
  622MOL0     O85746  10.170   7.761   7.031 -0.5038 -0.1629  0.2631
  622MOL0     C85747  10.019   7.488   6.860 -0.8055  0.6442  0.2219
  622MOL0     C85748   9.898   7.422   6.824 -0.6837  0.5220  0.6849
  622MOL0     N85749   9.404   7.803   6.705  0.7426 -0.3543 -0.7883
  622MOL0     N85750   9.300   7.878   6.677 -0.3533 -0.2019 -0.2071
  622MOL0     C85751   8.299   8.446   6.034 -0.9344  0.6920 -0.8569
  622MOL0     C85752   8.218   8.555   6.010 -0.2945  0.5596 -0.9681
  622MOL0     C85753   8.034   8.958   6.089 -1.2433  0.1960  0.3695
  622MOL0     C85754   7.940   8.907   5.996 -0.4661 -0.4153  0.5847
  622MOL0     C85755   7.815   8.968   5.985 -0.3327  0.3925 -0.3803
  622MOL0     C85756   7.787   9.077   6.066 -0.1167 -0.0616  0.1614
  622MOL0     O85757   7.656   9.124   6.051 -0.1501 -0.2062 -0.5010
  622MOL0     C85758   7.603   9.208   6.150 -0.8567  0.0404 -0.5682
  622MOL0     C85759   7.458   9.250   6.115  0.9510  1.2897  0.2984
  622MOL0     C85760   7.452   9.359   6.008  0.1729  0.1520 -0.3501
  622MOL0     C85761   7.323   9.338   5.937 -0.8211 -0.4082 -0.9729
  622MOL0     C85762   7.271   9.458   5.872 -0.0511 -0.2573 -0.6631
  622MOL0     C85763   7.222   9.548   5.811 -0.3635  0.5993 -0.0610
  622MOL0     C85764   7.881   9.126   6.156 -0.1588 -0.3891 -0.3800
  622MOL0     C85765   8.003   9.066   6.176  0.0758  0.7731  0.1061
  622MOL0     C85766   8.088   9.123   6.292  0.3471  0.2279  0.0945
  622MOL0     H85767   8.448   8.802   6.051 -1.2857 -0.1978 -0.5800
  622MOL0     H85768   8.590   8.598   6.111 -0.7121 -0.0800  1.8427
  622MOL0     H85769   8.627   8.396   6.232  0.0842 -2.3856  1.9514
  622MOL0     H85770   8.699   8.356   6.072 -1.6677  1.7623 -1.2307
  622MOL0     H85771   8.565   8.161   6.241 -0.2291  0.4687 -0.0019
  622MOL0     H85772   8.636   8.135   6.088 -0.2494  2.6536 -1.1525
  622MOL0     H85773   8.860   8.181   6.175 -0.2191  2.7503  0.3005
  622MOL0     H85774   8.808   8.224   6.335  1.2900  1.3636 -1.1947
  622MOL0     H85775   8.687   7.990   6.341 -0.1033 -2.2117 -0.5130
  622MOL0     H85776   8.780   7.958   6.202 -1.4920 -0.9247  1.0788
  622MOL0     H85777   8.899   8.051   6.461 -2.2105  1.0290 -0.6615
  622MOL0     H85778   8.992   7.996   6.305 -0.3768 -2.3958 -1.1027
  622MOL0     H85779   8.822   7.840   6.493  0.2659  2.4477  1.1850
  622MOL0     H85780   8.878   7.791   6.324 -0.7254  0.9417 -0.0072
  622MOL0     H85781   9.086   7.804   6.394 -1.8872  0.4871 -1.6894
  622MOL0     H85782   8.998   7.697   6.490 -1.6094  1.1061 -1.1227
  622MOL0     H85783   9.069   7.973   6.583 -1.7286 -0.7294 -2.3320
  622MOL0     H85784   8.981   7.856   6.675 -0.5299  0.3672 -1.2666
  622MOL0     H85785   9.139   7.599   6.726  1.0512 -1.4795  0.6693
  622MOL0     H85786   9.405   7.542   6.878  3.4352  1.2170  0.8877
  622MOL0     H85787   9.540   7.575   6.785  0.1926  0.5896 -1.6525
  622MOL0     H85788   9.305   7.411   6.687 -0.3913  1.1378  2.0053
  622MOL0     H85789   9.445   7.467   6.580 -0.8284 -0.0057 -0.7860
  622MOL0     H85790   9.451   7.264   6.813 -2.0062  2.2343  0.6984
  622MOL0     H85791   9.485   7.247   6.632  1.7277  1.5301 -0.5691
  622MOL0     H85792   9.693   7.235   6.749  0.5823 -0.1523 -2.7443
  622MOL0     H85793   9.701   7.387   6.675 -0.4360 -1.0054 -1.2146
  622MOL0     H85794   9.690   7.564   7.040  1.0416 -3.4826  2.3777
  622MOL0     H85795   9.875   7.816   7.090  0.8999 -0.8551 -1.9702
  622MOL0     H85796   9.984   7.716   7.205  0.9476 -1.0033 -1.5082
  622MOL0     H85797   9.802   7.702   7.201  0.2928  2.0801  0.5843
  622MOL0     H85798  10.365   7.724   6.799 -0.4115 -1.5841 -0.9656
  622MOL0     H85799  10.612   7.765   6.794 -1.5560  1.3864 -0.1950
  622MOL0     H85800  10.763   7.882   7.077  3.0405  2.1949  0.3925
  622MOL0     H85801  10.847   7.757   7.175 -1.9953  2.9005  1.4986
  622MOL0     H85802  11.009   7.930   7.089  0.4421 -0.4600 -0.2048
  622MOL0     H85803  11.048   7.763   7.074  1.5850  1.1387 -0.1340
  622MOL0     H85804  10.925   7.938   6.857  1.8182  1.2176 -0.2831
  622MOL0     H85805  10.998   7.778   6.834 -0.4750 -1.1579  1.4393
  622MOL0     H85806  11.215   7.885   6.925 -0.1855 -1.0336 -0.0214
  622MOL0     H85807  11.114   8.037   6.912 -1.2289 -0.7024 -0.2275
  622MOL0     H85808  11.171   7.843   6.686 -2.7316  0.1549 -0.1450
  622MOL0     H85809  11.083   7.995   6.667 -0.1198 -0.6793 -1.0423
  622MOL0     H85810  11.380   7.939   6.688  0.8826  0.4745  1.1768
  622MOL0     H85811  11.320   8.108   6.727 -0.7706 -0.4324  0.5530
  622MOL0     H85812  11.223   8.134   6.506 -1.0548  0.0249 -0.2838
  622MOL0     H85813  11.274   7.960   6.473 -0.3031 -1.5455  3.7972
  622MOL0     H85814  11.507   8.029   6.471 -1.3951 -0.3432  0.4437
  622MOL0     H85815  11.460   8.183   6.544  2.4414  0.3652 -1.4649
  622MOL0     H85816  10.657   7.583   7.178  0.2404 -0.1749 -0.5589
  622MOL0     H85817  10.436   7.509   7.164 -1.8863  0.2206 -0.8234
  622MOL0     H85818  10.110   7.447   6.817  0.9523  1.1683  3.1560
  622MOL0     H85819   9.898   7.343   6.751  2.6775  0.4847  0.5325
  622MOL0     H85820   8.244   8.352   6.034 -0.3668  0.3500 -1.7849
  622MOL0     H85821   8.117   8.532   5.978  0.8666 -2.9020 -2.6462
  622MOL0     H85822   7.955   8.810   5.949  5.3685  1.1852 -1.7195
  622MOL0     H85823   7.732   8.941   5.921 -0.1662  3.1371 -1.8837
  622MOL0     H85824   7.607   9.163   6.249  3.2180  0.6919 -0.2640
  622MOL0     H85825   7.662   9.300   6.161 -0.6726 -0.0770 -0.5661
  622MOL0     H85826   7.391   9.277   6.198 -0.8290  3.3226 -1.6541
  622MOL0     H85827   7.422   9.151   6.085 -4.3407  2.5061  1.4906
  622MOL0     H85828   7.457   9.459   6.052  0.9272 -0.4452  0.9707
  622MOL0     H85829   7.527   9.341   5.930 -0.0384 -3.7972  0.1821
  622MOL0     H85830   7.249   9.318   6.015  2.7690 -1.6205  2.4593
  622MOL0     H85831   7.324   9.245   5.879  3.2827 -0.8404 -0.5024
  622MOL0     H85832   7.156   9.610   5.754 -4.2186 -2.9026  0.1466
  622MOL0     H85833   7.850   9.197   6.232 -0.7425 -1.5803  0.5294
  622MOL0     H85834   8.189   9.154   6.264  1.4623 -1.6301  1.7794
  622MOL0     H85835   8.041   9.214   6.330  0.7449 -0.2355  1.8248
  622MOL0     H85836   8.103   9.051   6.374  3.1143 -0.2991 -0.7483
  623MOL0     O85837   0.355   8.482   8.326  0.4128  0.0372  0.2959
  623MOL0     C85838   0.293   8.411   8.410 -0.0621  0.2161  0.0960
  623MOL0     O85839   0.351   8.321   8.496  0.7417 -0.3423  0.2083
  623MOL0     C85840   0.486   8.316   8.505  0.2498  0.0390 -0.3222
  623MOL0     C85841   0.545   8.355   8.625 -0.1714  0.4371 -0.3677
  623MOL0     C85842   0.675   8.374   8.646 -0.4351 -0.5075 -0.1646
  623MOL0     C85843   0.761   8.333   8.541 -0.3867  0.2048  0.1686
  623MOL0     O85844   0.895   8.340   8.553 -0.4792 -0.2494 -0.1210
  623MOL0     C85845   0.956   8.342   8.687 -0.0583  0.3440  0.5945
  623MOL0     C85846   1.101   8.292   8.656 -0.0100  0.1296 -0.6863
  623MOL0     C85847   1.179   8.394   8.573  0.2616 -1.2633  0.8666
  623MOL0     C85848   1.324   8.341   8.578  0.5082 -0.6529  0.0515
  623MOL0     C85849   1.404   8.433   8.490  0.3807  0.8469 -0.2277
  623MOL0     C85850   1.555   8.395   8.495 -0.6924  0.9762 -0.0235
  623MOL0     C85851   1.615   8.464   8.373 -0.2710 -0.9990  0.3747
  623MOL0     C85852   1.770   8.427   8.348  0.1959 -0.1443  1.2030
  623MOL0     N85853   1.855   8.483   8.455 -0.0892 -0.4412 -0.2872
  623MOL0     C85854   1.898   8.613   8.445  0.1057 -0.3889  0.0747
  623MOL0     C85855   2.004   8.611   8.541 -0.1207  0.0863  0.1613
  623MOL0     C85856   2.090   8.735   8.570  0.2926 -0.0694 -0.2098
  623MOL0     C85857   2.235   8.708   8.545 -0.1274  0.3416 -0.6212
  623MOL0     C85858   2.283   8.690   8.404 -0.9510 -0.1392 -0.0335
  623MOL0     C85859   2.253   8.801   8.315  0.2025  0.0324  0.8053
  623MOL0     O85860   2.348   8.817   8.208 -0.1027  0.5190 -0.2947
  623MOL0     C85861   2.324   8.930   8.127 -0.2197 -0.9611  0.6036
  623MOL0     C85862   2.206   9.002   8.103  0.7345 -0.1463  0.2785
  623MOL0     C85863   2.203   9.126   8.023 -0.3866  0.5597  0.6764
  623MOL0     C85864   2.067   9.193   8.013 -0.1022 -0.6929  0.1170
  623MOL0     C85865   2.317   9.159   7.944 -0.5655 -0.2757  0.3779
  623MOL0     C85866   2.324   9.279   7.850  0.0351  0.9734 -0.6453
  623MOL0     O85867   2.420   9.271   7.749 -0.2250  0.1880 -0.2291
  623MOL0     C85868   2.426   9.378   7.654 -0.1621  0.0560 -0.0222
  623MOL0     C85869   2.404   9.348   7.518 -0.2013  0.4370  0.2495
  623MOL0     C85870   2.396   9.453   7.425  0.1894  0.0456 -0.4203
  623MOL0     C85871   2.430   9.578   7.463 -0.6178  0.4303  0.2035
  623MOL0     O85872   2.412   9.668   7.359  0.1081 -0.0430  0.0505
  623MOL0     C85873   2.409   9.807   7.407 -0.3672 -0.5482 -0.0345
  623MOL0     C85874   2.387   9.891   7.287 -0.7408 -0.7328 -0.0549
  623MOL0     C85875   2.491   9.861   7.179  0.5110  0.5290 -0.7143
  623MOL0     C85876   2.486   9.970   7.076 -1.1826  0.3263  0.2448
  623MOL0     C85877   2.573   9.944   6.953  0.2432  0.1881 -0.1614
  623MOL0     C85878   2.725   9.965   6.972 -0.3705  0.0416  0.1487
  623MOL0     C85879   2.803   9.943   6.844  0.0725 -0.0487 -0.5168
  623MOL0     C85880   2.777   9.805   6.791  0.3574  0.5880  0.3268
  623MOL0    Cl85881   2.894   9.769   6.662 -0.0654 -0.4552  0.3086
  623MOL0     C85882   2.465   9.608   7.599 -0.4023 -0.4006  0.3546
  623MOL0     C85883   2.456   9.507   7.696 -0.4320  0.2939 -1.0180
  623MOL0     O85884   2.240   9.365   7.872 -0.2368  0.5341  0.5921
  623MOL0     C85885   2.429   9.073   7.965  0.8529 -0.4837 -0.5407
  623MOL0     C85886   2.432   8.966   8.052  0.1136  0.3050  0.4777
  623MOL0     N85887   2.023   8.491   8.602  0.6946  0.7701  0.1754
  623MOL0     N85888   1.940   8.417   8.534  0.1282  0.3263 -0.4830
  623MOL0     C85889   0.710   8.302   8.420  0.1402  0.3079 -0.1921
  623MOL0     C85890   0.569   8.286   8.399 -0.2131  0.1215 -0.5499
  623MOL0     C85891   0.147   8.410   8.405  0.0629  0.2714  0.4794
  623MOL0     C85892   0.083   8.386   8.279 -0.1147 -0.4330  0.2850
  623MOL0     C85893  -0.055   8.372   8.262  0.0835  0.3627 -0.3388
  623MOL0     C85894  -0.140   8.374   8.381  0.9602  0.1347 -0.2478
  623MOL0     O85895  -0.278   8.350   8.373 -0.9592  0.0154  0.2779
  623MOL0     C85896  -0.340   8.378   8.244 -0.3077  0.4597 -0.1470
  623MOL0     C85897  -0.320   8.269   8.137  0.0198 -0.5459 -0.0141
  623MOL0     C85898  -0.302   8.121   8.188  0.6261 -0.8564  0.3912
  623MOL0     C85899  -0.305   8.028   8.065 -0.2687  0.1186  0.0319
  623MOL0     C85900  -0.173   8.034   7.996  0.2445 -0.1936  0.6836
  623MOL0     C85901  -0.067   8.042   7.946 -0.2392 -0.2005  0.5283
  623MOL0     C85902  -0.070   8.395   8.500  0.6566 -0.7877  0.5595
  623MOL0     C85903   0.067   8.427   8.515  0.8018  0.2101  0.1086
  623MOL0     C85904   0.115   8.471   8.652  0.3581  0.2733 -0.5691
  623MOL0     H85905   0.483   8.375   8.712 -0.3465 -0.1512 -0.3478
  623MOL0     H85906   0.717   8.407   8.741 -0.1616 -0.6077 -0.2505
  623MOL0     H85907   0.901   8.264   8.741 -0.6459 -1.4460 -2.3755
  623MOL0     H85908   0.956   8.445   8.725  3.9403  0.8061 -0.1582
  623MOL0     H85909   1.156   8.270   8.749  1.3964  1.5582 -1.1294
  623MOL0     H85910   1.109   8.202   8.594  3.0352  0.6505 -1.2089
  623MOL0     H85911   1.140   8.401   8.471  2.6924 -0.9072 -0.1091
  623MOL0     H85912   1.174   8.490   8.624  2.3737 -1.0335  0.7088
  623MOL0     H85913   1.363   8.353   8.679 -2.4165  3.7507  0.9509
  623MOL0     H85914   1.328   8.235   8.550 -3.1696 -1.5862  2.4241
  623MOL0     H85915   1.386   8.537   8.519  1.5064  0.6276  1.3789
  623MOL0     H85916   1.373   8.432   8.385  4.5759  0.3870 -1.6415
  623MOL0     H85917   1.605   8.435   8.584 -0.1790  2.6705 -1.0162
  623MOL0     H85918   1.577   8.289   8.479  2.5186  1.6855 -1.1001
  623MOL0     H85919   1.609   8.571   8.396  1.3295 -0.9917  0.8668
  623MOL0     H85920   1.571   8.445   8.274 -1.6867 -0.5509  0.8961
  623MOL0     H85921   1.786   8.318   8.348  1.7482  0.0416 -0.0176
  623MOL0     H85922   1.803   8.453   8.247 -1.1326 -0.7466  0.5780
  623MOL0     H85923   1.871   8.706   8.396  1.3411  0.9440  1.7965
  623MOL0     H85924   2.068   8.764   8.674  1.4996  0.4731 -0.0889
  623MOL0     H85925   2.044   8.817   8.513 -0.7403 -0.9684 -0.7145
  623MOL0     H85926   2.293   8.792   8.584 -0.3819 -0.2029  0.9806
  623MOL0     H85927   2.260   8.624   8.610 -2.7441  1.0967  1.5289
  623MOL0     H85928   2.391   8.675   8.401 -0.7586  1.2583 -0.9990
  623MOL0     H85929   2.242   8.597   8.362 -1.3759  0.4598 -0.9823
  623MOL0     H85930   2.154   8.785   8.272  1.0389  2.9146 -2.6379
  623MOL0     H85931   2.244   8.892   8.377  0.3588  1.1728 -0.7867
  623MOL0     H85932   2.111   8.984   8.154  0.0703  1.4549 -0.3340
  623MOL0     H85933   1.982   9.143   8.061 -2.3881  1.8879 -0.9747
  623MOL0     H85934   2.033   9.190   7.909  2.0590 -1.8303 -0.6299
  623MOL0     H85935   2.081   9.292   8.058  2.1226 -0.4532 -0.9799
  623MOL0     H85936   2.376   9.250   7.481  0.4059  0.7509 -1.0930
  623MOL0     H85937   2.350   9.432   7.329 -1.4407 -0.4779  0.4356
  623MOL0     H85938   2.340   9.836   7.487  2.3838  1.5104  1.7633
  623MOL0     H85939   2.510   9.832   7.440 -0.2565 -0.8015 -0.1809
  623MOL0     H85940   2.281   9.885   7.262 -0.2843 -1.4338 -2.0125
  623MOL0     H85941   2.416   9.992   7.315  3.4309 -1.8249  0.3733
  623MOL0     H85942   2.455   9.766   7.137 -2.1151 -0.7388  3.7623
  623MOL0     H85943   2.589   9.852   7.225 -0.4244  0.0130  1.2914
  623MOL0     H85944   2.528  10.064   7.114  5.7626 -1.8753 -0.6137
  623MOL0     H85945   2.381   9.977   7.046 -1.0794 -2.2268 -0.9552
  623MOL0     H85946   2.568   9.842   6.914  2.2864  0.4971 -1.3666
  623MOL0     H85947   2.542  10.013   6.874 -0.7862  1.6546  1.4336
  623MOL0     H85948   2.767   9.896   7.046  1.6604 -0.3147 -1.2531
  623MOL0     H85949   2.754  10.065   7.005 -0.9606  0.4843 -0.6283
  623MOL0     H85950   2.910   9.957   6.858  0.7314 -0.2477 -4.3469
  623MOL0     H85951   2.770  10.013   6.766  0.0209  0.2392 -0.2436
  623MOL0     H85952   2.677   9.789   6.749  1.1321 -3.2381 -0.4164
  623MOL0     H85953   2.785   9.733   6.874 -0.2648 -2.2026 -1.8675
  623MOL0     H85954   2.482   9.713   7.619  0.4163 -0.1744 -1.3409
  623MOL0     H85955   2.474   9.542   7.797 -2.2098  0.3023 -0.6699
  623MOL0     H85956   2.529   9.087   7.927  0.2554  1.4910 -1.4837
  623MOL0     H85957   2.526   8.918   8.076  1.0749  2.1191  0.5093
  623MOL0     H85958   0.778   8.291   8.336  0.9245  0.3340  0.4298
  623MOL0     H85959   0.534   8.257   8.300  0.1278 -0.0392 -0.6241
  623MOL0     H85960   0.145   8.377   8.190  1.8511 -0.1256  1.5401
  623MOL0     H85961  -0.101   8.361   8.164 -0.6694 -1.0098  0.1366
  623MOL0     H85962  -0.444   8.401   8.269 -0.8514 -1.2473 -0.6952
  623MOL0     H85963  -0.289   8.466   8.203  0.7766 -0.8701 -1.8171
  623MOL0     H85964  -0.235   8.282   8.069  1.7242 -2.0793  1.7324
  623MOL0     H85965  -0.412   8.273   8.077  0.6141  1.9820 -0.8937
  623MOL0     H85966  -0.208   8.112   8.244  1.8165  0.2308 -1.3539
  623MOL0     H85967  -0.389   8.095   8.250  0.8980  3.1108  2.8243
  623MOL0     H85968  -0.391   8.038   7.997 -1.6594  0.8885  1.8237
  623MOL0     H85969  -0.317   7.930   8.111  0.3114  1.4920  3.3457
  623MOL0     H85970   0.036   8.040   7.916  0.5005 -1.0225  2.8860
  623MOL0     H85971  -0.135   8.380   8.586 -1.4018 -2.3619 -1.1529
  623MOL0     H85972   0.171   8.564   8.637  1.1917  0.0011  0.6899
  623MOL0     H85973   0.029   8.484   8.718  1.1513 -1.7638  0.9800
  623MOL0     H85974   0.176   8.395   8.702 -3.1352 -1.2543  1.7635
  624MOL0     O85975   2.822   3.353   0.412  1.0385 -0.2235  0.3376
  624MOL0     C85976   2.768   3.250   0.374 -0.5843 -0.1370  0.3332
  624MOL0     O85977   2.843   3.133   0.364 -0.0974  0.7465  0.0689
  624MOL0     C85978   2.971   3.132   0.400 -0.4012  0.7525  0.8059
  624MOL0     C85979   3.008   3.129   0.537 -0.8700  0.0713  0.3527
  624MOL0     C85980   3.139   3.142   0.582  0.3583 -0.4046 -0.0932
  624MOL0     C85981   3.237   3.166   0.484  0.3925 -1.1551  0.4242
  624MOL0     O85982   3.371   3.182   0.517  0.4291 -0.2125  0.2845
  624MOL0     C85983   3.424   3.126   0.643 -0.1654 -0.1983 -0.0066
  624MOL0     C85984   3.579   3.123   0.644  0.1538 -0.8057  0.5776
  624MOL0     C85985   3.644   3.254   0.610 -0.4971 -0.5726 -0.3394
  624MOL0     C85986   3.798   3.232   0.614  0.3030  0.3186  0.3292
  624MOL0     C85987   3.872   3.366   0.601  0.9029 -0.3873 -0.1194
  624MOL0     C85988   4.019   3.344   0.603 -1.0940 -0.2520 -0.4494
  624MOL0     C85989   4.093   3.475   0.585  0.4623  0.0576 -1.0107
  624MOL0     C85990   4.049   3.579   0.483  0.5386  0.4544  0.0504
  624MOL0     N85991   4.149   3.686   0.473 -0.0345  0.1739 -0.1633
  624MOL0     C85992   4.255   3.681   0.384  0.1174 -0.0830 -0.1200
  624MOL0     C85993   4.333   3.792   0.398  0.4484  0.7502  0.6388
  624MOL0     C85994   4.436   3.842   0.304 -0.1636 -0.4694  0.3847
  624MOL0     C85995   4.527   3.952   0.346 -0.0454  0.3105 -0.0762
  624MOL0     C85996   4.654   3.970   0.263 -0.2831 -0.7482  0.7153
  624MOL0     C85997   4.617   4.026   0.129 -0.2157 -1.2765 -0.0121
  624MOL0     O85998   4.728   3.999   0.045 -0.7167  0.7914 -0.2269
  624MOL0     C85999   4.829   4.090   0.025  0.0883  0.3102 -0.3802
  624MOL0     C86000   4.852   4.201   0.092 -0.0457  0.2066 -0.6900
  624MOL0     C86001   4.958   4.289   0.057 -0.3419 -0.4713 -0.1391
  624MOL0     C86002   4.991   4.395   0.146  0.0070  0.0419 -0.4233
  624MOL0     C86003   5.032   4.258  -0.060  0.0041 -0.1921  0.7077
  624MOL0     C86004   5.159   4.320  -0.105 -0.0454  0.6316  0.0104
  624MOL0     O86005   5.218   4.265  -0.218 -0.1964  0.2627 -0.3191
  624MOL0     C86006   5.327   4.327  -0.270  1.2697  0.2116 -0.8087
  624MOL0     C86007   5.433   4.246  -0.313  0.0379  0.7830  0.5158
  624MOL0     C86008   5.559   4.305  -0.347  0.0791 -0.2602 -0.1686
  624MOL0     C86009   5.574   4.441  -0.356 -0.0711  0.3714  0.1721
  624MOL0     O86010   5.692   4.500  -0.378 -0.1481  0.3278 -0.1998
  624MOL0     C86011   5.812   4.454  -0.310  0.8789  0.7679  0.0229
  624MOL0     C86012   5.937   4.509  -0.387 -0.6678 -0.2630  0.2157
  624MOL0     C86013   6.059   4.482  -0.304  0.3689 -0.1962  0.1964
  624MOL0     C86014   6.176   4.548  -0.378  0.0409 -0.1313  0.9474
  624MOL0     C86015   6.309   4.538  -0.288  0.7058  0.4040 -0.2485
  624MOL0     C86016   6.354   4.391  -0.263 -0.6875 -0.1852 -0.0055
  624MOL0     C86017   6.481   4.384  -0.178 -0.7560 -0.6051  0.1619
  624MOL0     C86018   6.495   4.472  -0.047  0.8526  0.2950 -0.1973
  624MOL0    Cl86019   6.356   4.421   0.065  0.0639 -0.1979 -0.1556
  624MOL0     C86020   5.460   4.518  -0.332  1.0336  0.1267 -0.0727
  624MOL0     C86021   5.339   4.461  -0.288 -0.1479  0.2268  0.2995
  624MOL0     O86022   5.199   4.418  -0.048 -0.1402  0.2329 -0.4762
  624MOL0     C86023   4.984   4.150  -0.141 -0.7593  0.0201  0.5758
  624MOL0     C86024   4.890   4.064  -0.087 -0.8489 -0.2253 -0.0500
  624MOL0     N86025   4.275   3.865   0.503  0.3976  0.6412  0.5103
  624MOL0     N86026   4.159   3.807   0.536  0.1813 -0.5996  0.1121
  624MOL0     C86027   3.200   3.170   0.346  0.0834  0.4021 -0.2450
  624MOL0     C86028   3.070   3.154   0.307  0.2062  0.9843  0.2475
  624MOL0     C86029   2.625   3.256   0.359 -0.9988  0.1676 -0.0783
  624MOL0     C86030   2.546   3.143   0.382  0.1679 -0.5057  0.7331
  624MOL0     C86031   2.400   3.145   0.371 -0.4509 -0.6706 -0.0512
  624MOL0     C86032   2.340   3.255   0.323  0.7571 -0.5553 -0.2451
  624MOL0     O86033   2.203   3.267   0.306 -0.5487  0.5412 -0.5887
  624MOL0     C86034   2.131   3.149   0.273 -0.0971 -0.3530  0.5231
  624MOL0     C86035   1.990   3.201   0.235  0.4019 -0.7985  0.4227
  624MOL0     C86036   1.916   3.101   0.152 -0.1470 -0.6055 -0.1614
  624MOL0     C86037   1.858   2.982   0.234  0.4747  0.1029  0.2331
  624MOL0     C86038   1.728   3.010   0.299 -1.3407  0.7879 -0.3262
  624MOL0     C86039   1.622   3.044   0.338 -0.2470  0.5390 -0.1173
  624MOL0     C86040   2.418   3.367   0.291 -0.2185 -0.1121 -0.6336
  624MOL0     C86041   2.555   3.373   0.317  0.1419 -0.8052 -1.3113
  624MOL0     C86042   2.621   3.499   0.278  0.1510  0.0193  0.1429
  624MOL0     H86043   2.924   3.122   0.606 -0.0751  1.5092  1.5278
  624MOL0     H86044   3.173   3.131   0.684 -0.9941  0.6351  0.5020
  624MOL0     H86045   3.378   3.027   0.647 -0.9236 -0.0051 -2.4680
  624MOL0     H86046   3.390   3.183   0.730 -0.1625 -2.1611  1.3447
  624MOL0     H86047   3.615   3.088   0.741 -1.1830  2.2280  2.3112
  624MOL0     H86048   3.613   3.052   0.568  3.4751 -0.1458  1.2957
  624MOL0     H86049   3.608   3.297   0.516 -0.9526 -0.7526 -0.2465
  624MOL0     H86050   3.613   3.333   0.680  1.0668  3.5018 -3.7977
  624MOL0     H86051   3.814   3.180   0.709 -1.8288 -0.7882  0.1522
  624MOL0     H86052   3.836   3.165   0.537  0.1436 -0.9822  1.3436
  624MOL0     H86053   3.850   3.434   0.684 -0.6710 -0.4331 -0.4556
  624MOL0     H86054   3.840   3.414   0.508  1.8672 -0.2217 -0.3755
  624MOL0     H86055   4.046   3.300   0.699  0.5399  2.7975  0.6502
  624MOL0     H86056   4.059   3.285   0.520  1.8386  0.4612  0.3325
  624MOL0     H86057   4.196   3.443   0.570  0.3431 -1.8465  1.4915
  624MOL0     H86058   4.084   3.524   0.682 -0.0896  1.0408 -1.5371
  624MOL0     H86059   4.034   3.519   0.393 -0.3226  0.4739  0.1765
  624MOL0     H86060   3.956   3.631   0.506  1.8964  2.1561  2.1365
  624MOL0     H86061   4.265   3.608   0.304 -3.2258 -0.8728  0.0364
  624MOL0     H86062   4.382   3.878   0.217 -2.4291 -2.8507  0.6881
  624MOL0     H86063   4.496   3.755   0.276 -0.0915 -0.0550 -0.7885
  624MOL0     H86064   4.471   4.045   0.356  0.4892  0.5378  1.0148
  624MOL0     H86065   4.563   3.935   0.448  1.5282 -2.0815 -0.9335
  624MOL0     H86066   4.708   4.045   0.321  0.1606 -1.0792  0.7401
  624MOL0     H86067   4.712   3.877   0.255  1.1763  0.1410  0.7457
  624MOL0     H86068   4.527   3.980   0.088 -1.6749 -1.1780  2.8682
  624MOL0     H86069   4.607   4.135   0.125 -0.7750 -1.3467 -3.4682
  624MOL0     H86070   4.803   4.214   0.187 -0.3737  0.7040 -0.9237
  624MOL0     H86071   5.091   4.374   0.185 -0.2408  1.6867  1.2701
  624MOL0     H86072   4.924   4.406   0.232  0.1465 -1.7867 -0.0380
  624MOL0     H86073   4.988   4.488   0.088 -0.1432  0.0118 -0.4641
  624MOL0     H86074   5.402   4.142  -0.326 -0.9022  1.4288 -4.4257
  624MOL0     H86075   5.639   4.234  -0.364  1.8946  1.6820 -0.2242
  624MOL0     H86076   5.807   4.487  -0.206  2.2731  1.7335 -0.1954
  624MOL0     H86077   5.810   4.345  -0.305 -2.0695  0.7624  0.7980
  624MOL0     H86078   5.938   4.460  -0.485  1.9643  3.3400 -1.7952
  624MOL0     H86079   5.926   4.617  -0.405  0.0809  0.0937  1.7839
  624MOL0     H86080   6.071   4.374  -0.291  0.5545 -0.5565 -2.4972
  624MOL0     H86081   6.038   4.525  -0.205  1.7219 -3.5213  2.0905
  624MOL0     H86082   6.163   4.656  -0.392 -1.5753 -0.2004  1.7129
  624MOL0     H86083   6.192   4.498  -0.474 -0.1507 -0.8951  1.3019
  624MOL0     H86084   6.394   4.584  -0.338 -0.4492  2.3869 -0.5161
  624MOL0     H86085   6.301   4.586  -0.190  4.3192 -0.0746  0.4076
  624MOL0     H86086   6.371   4.365  -0.368  0.6031  2.8716 -0.6723
  624MOL0     H86087   6.268   4.337  -0.223 -0.0472  0.9913  3.3481
  624MOL0     H86088   6.557   4.430  -0.240 -0.3531 -0.1781  0.9576
  624MOL0     H86089   6.503   4.280  -0.153 -1.9389 -1.0974 -0.7294
  624MOL0     H86090   6.489   4.579  -0.068 -0.4604  0.1338 -0.7344
  624MOL0     H86091   6.591   4.453   0.002  1.7393 -1.1058 -2.3056
  624MOL0     H86092   5.465   4.625  -0.352  2.7418  0.0213 -0.3576
  624MOL0     H86093   5.251   4.524  -0.273 -0.5089 -0.1103 -0.3779
  624MOL0     H86094   5.025   4.117  -0.236 -1.4229 -2.2418  1.0066
  624MOL0     H86095   4.875   3.969  -0.139 -1.9066  0.1949 -0.5483
  624MOL0     H86096   3.276   3.193   0.272 -1.0616  0.1369 -1.5669
  624MOL0     H86097   3.032   3.154   0.206  0.8070 -2.4052 -0.0966
  624MOL0     H86098   2.584   3.048   0.418  2.3057 -0.5463 -1.3915
  624MOL0     H86099   2.331   3.062   0.383 -0.9144 -0.4043 -0.8629
  624MOL0     H86100   2.176   3.094   0.190  0.1753  3.3805 -1.9994
  624MOL0     H86101   2.112   3.094   0.366 -2.0553 -2.8691 -1.2149
  624MOL0     H86102   2.000   3.288   0.170 -0.2048 -3.2531 -3.2581
  624MOL0     H86103   1.927   3.240   0.314 -1.9642  0.5429 -1.9751
  624MOL0     H86104   1.830   3.150   0.107 -0.2908 -1.8945 -1.3471
  624MOL0     H86105   1.998   3.077   0.084  1.2003  2.8582  0.0396
  624MOL0     H86106   1.926   2.939   0.308 -2.2011 -1.8286  1.7581
  624MOL0     H86107   1.845   2.910   0.152  3.0610  2.0450 -2.0806
  624MOL0     H86108   1.528   3.079   0.376 -0.3181  3.3208 -2.5833
  624MOL0     H86109   2.374   3.457   0.249  0.3854  0.6169  0.2562
  624MOL0     H86110   2.640   3.553   0.372  1.4703 -1.8219  1.0044
  624MOL0     H86111   2.717   3.478   0.230  0.5683 -1.6519  1.6041
  624MOL0     H86112   2.560   3.564   0.215 -1.2146 -0.7980  0.5936
  625MOL0     O86113   5.600   7.296   7.269  0.2020  0.3253  0.1559
  625MOL0     C86114   5.646   7.187   7.317  0.0775 -0.2469 -0.5972
  625MOL0     O86115   5.758   7.185   7.403  0.8593 -0.3156 -0.0493
  625MOL0     C86116   5.832   7.299   7.425 -0.1776 -0.0883  0.4505
  625MOL0     C86117   5.977   7.288   7.418  0.3809  0.0222  0.3653
  625MOL0     C86118   6.057   7.393   7.437 -0.8604 -1.2656  0.2313
  625MOL0     C86119   6.002   7.520   7.467  0.6347  0.4714  0.5410
  625MOL0     O86120   6.086   7.622   7.496 -0.7000 -0.3410  0.3866
  625MOL0     C86121   6.038   7.742   7.551 -0.3355 -0.2416 -0.0584
  625MOL0     C86122   6.159   7.829   7.593  0.3267 -0.2152 -0.0482
  625MOL0     C86123   6.218   7.790   7.728  0.5714  0.7761  0.8819
  625MOL0     C86124   6.353   7.850   7.764 -0.0670  0.1499  0.2145
  625MOL0     C86125   6.403   7.788   7.894 -0.9898 -0.4490 -0.7756
  625MOL0     C86126   6.417   7.872   8.017  0.2320 -0.6185 -0.8331
  625MOL0     C86127   6.285   7.906   8.089  0.0328  0.5251  0.3436
  625MOL0     C86128   6.314   7.935   8.234 -0.2542 -0.5955  0.2760
  625MOL0     N86129   6.392   8.058   8.254  0.2176 -0.1482  0.1841
  625MOL0     C86130   6.484   8.094   8.344  0.0234  0.3488 -0.0231
  625MOL0     C86131   6.520   8.223   8.320  0.5644 -0.5126 -0.3165
  625MOL0     C86132   6.623   8.302   8.391 -0.2340  0.6956 -0.2120
  625MOL0     C86133   6.764   8.279   8.333 -0.5337 -0.0275  0.4486
  625MOL0     C86134   6.863   8.384   8.384 -0.1830 -0.9443  0.2202
  625MOL0     C86135   7.010   8.334   8.375 -0.3207 -0.2980  0.6292
  625MOL0     O86136   7.037   8.212   8.444 -0.1379 -0.6806 -0.0581
  625MOL0     C86137   7.172   8.169   8.448  1.1073  0.5354  0.2972
  625MOL0     C86138   7.203   8.077   8.541  0.2156  0.4277 -0.0865
  625MOL0     C86139   7.329   8.021   8.558  0.2743 -0.2403 -0.2547
  625MOL0     C86140   7.347   7.926   8.672 -0.5580 -0.0211  0.2013
  625MOL0     C86141   7.432   8.050   8.461  1.1252 -0.4478  0.0583
  625MOL0     C86142   7.565   7.990   8.455 -0.0594 -1.1120  0.0218
  625MOL0     O86143   7.637   8.028   8.341  0.4677 -0.0034  0.7186
  625MOL0     C86144   7.756   7.971   8.321  0.2786  0.3731  0.2347
  625MOL0     C86145   7.868   7.990   8.408  0.2657 -0.2702 -0.2526
  625MOL0     C86146   7.991   7.926   8.384 -0.5674 -0.6043 -0.8098
  625MOL0     C86147   8.016   7.869   8.267  0.6951 -0.2524  0.9191
  625MOL0     O86148   8.140   7.851   8.222 -0.3224 -0.7364 -0.0581
  625MOL0     C86149   8.244   7.942   8.255  0.3926 -0.2866  0.4648
  625MOL0     C86150   8.335   7.952   8.128  0.7636  0.6198 -0.5296
  625MOL0     C86151   8.437   8.054   8.157  0.2429 -1.0152 -0.2216
  625MOL0     C86152   8.545   8.063   8.053 -0.5612 -0.3628  0.8828
  625MOL0     C86153   8.618   8.199   8.041 -0.0207 -0.2216 -0.5569
  625MOL0     C86154   8.527   8.324   7.999 -0.0041 -0.3322  0.2702
  625MOL0     C86155   8.475   8.314   7.854 -0.1536 -0.2437 -0.0727
  625MOL0     C86156   8.351   8.404   7.841  0.6192 -0.1334  0.1779
  625MOL0    Cl86157   8.415   8.570   7.828  0.2580  0.0902 -0.2618
  625MOL0     C86158   7.909   7.846   8.176  0.1386  0.1654  0.5207
  625MOL0     C86159   7.779   7.895   8.207 -0.2979 -0.1915  0.2344
  625MOL0     O86160   7.607   7.915   8.538 -0.1567  0.4898 -0.1841
  625MOL0     C86161   7.397   8.151   8.366  0.6746 -0.0173  0.5651
  625MOL0     C86162   7.267   8.205   8.359 -0.0261 -0.8268  0.2275
  625MOL0     N86163   6.449   8.264   8.206  0.4994 -0.4777  0.8046
  625MOL0     N86164   6.368   8.166   8.169 -0.4231  0.0761  0.3216
  625MOL0     C86165   5.862   7.535   7.471  0.7655 -0.4445 -0.1857
  625MOL0     C86166   5.780   7.428   7.447  0.0781  0.5588 -0.6041
  625MOL0     C86167   5.559   7.071   7.310 -0.0642 -0.8960 -0.4411
  625MOL0     C86168   5.475   7.055   7.194 -0.1243  0.1674  0.4090
  625MOL0     C86169   5.397   6.944   7.181 -0.3447 -0.2246  0.4410
  625MOL0     C86170   5.392   6.834   7.275 -0.5299 -0.2899  0.7838
  625MOL0     O86171   5.309   6.734   7.245 -0.1445  0.1284 -0.1100
  625MOL0     C86172   5.350   6.609   7.300  0.4467  0.0637 -0.7498
  625MOL0     C86173   5.286   6.583   7.438  0.8875  0.5039  0.0656
  625MOL0     C86174   5.131   6.557   7.415 -0.3940  0.4328 -0.1886
  625MOL0     C86175   5.095   6.453   7.512 -0.3879 -0.6787 -0.0435
  625MOL0     C86176   4.946   6.446   7.527 -0.3204  0.1854  0.5896
  625MOL0     C86177   4.829   6.452   7.555  0.1173 -1.5411 -0.4149
  625MOL0     C86178   5.473   6.850   7.388 -0.6370  0.2773 -1.0040
  625MOL0     C86179   5.548   6.968   7.409 -0.3325  0.0219  0.0270
  625MOL0     C86180   5.615   6.974   7.542 -0.9543  0.3468 -1.0366
  625MOL0     H86181   6.028   7.195   7.393 -0.8824 -0.9455  1.2341
  625MOL0     H86182   6.164   7.402   7.423 -1.1704  0.4560 -1.3897
  625MOL0     H86183   5.972   7.730   7.638 -2.2322  3.9084 -0.7039
  625MOL0     H86184   5.978   7.801   7.481 -1.8597  0.8348  2.0392
  625MOL0     H86185   6.238   7.830   7.517 -0.4474  0.5892 -0.8685
  625MOL0     H86186   6.121   7.931   7.608 -0.3459 -0.6357  1.2005
  625MOL0     H86187   6.147   7.827   7.803 -0.7632 -0.7593  0.4323
  625MOL0     H86188   6.232   7.682   7.722 -0.7118  0.5005  2.2835
  625MOL0     H86189   6.426   7.815   7.690  0.6945 -0.3933  1.1930
  625MOL0     H86190   6.356   7.959   7.766  0.5321  0.1381  2.0787
  625MOL0     H86191   6.509   7.763   7.881  0.4320  4.5624 -0.9379
  625MOL0     H86192   6.350   7.694   7.913 -0.1220 -0.9691 -0.8684
  625MOL0     H86193   6.491   7.831   8.086  1.0658 -0.1648 -1.4435
  625MOL0     H86194   6.469   7.966   7.994  0.7057 -0.3589  1.1361
  625MOL0     H86195   6.214   7.822   8.084  0.0147  0.6021 -1.4641
  625MOL0     H86196   6.236   7.993   8.046 -0.9081 -0.2448 -0.1992
  625MOL0     H86197   6.217   7.946   8.284  0.7241  0.1193  2.1285
  625MOL0     H86198   6.369   7.860   8.293  1.0934  0.8336  0.9255
  625MOL0     H86199   6.531   8.025   8.413  2.4737  0.0503 -1.8621
  625MOL0     H86200   6.632   8.277   8.497  1.7400  1.9852 -0.0136
  625MOL0     H86201   6.595   8.407   8.393 -0.4131  0.6553  1.8804
  625MOL0     H86202   6.803   8.178   8.352 -1.6054 -0.4744  0.3696
  625MOL0     H86203   6.756   8.296   8.225  1.6262  1.8526  0.5199
  625MOL0     H86204   6.842   8.472   8.321  0.4250 -2.3345 -2.0469
  625MOL0     H86205   6.843   8.406   8.489  3.5611 -1.5228  1.2005
  625MOL0     H86206   7.025   8.317   8.268 -3.3133  0.6127 -0.0294
  625MOL0     H86207   7.084   8.403   8.416  1.5237 -1.4040 -0.7516
  625MOL0     H86208   7.121   8.046   8.605  0.4436 -0.8740 -0.3856
  625MOL0     H86209   7.264   7.927   8.743 -0.8222  2.1988 -0.0666
  625MOL0     H86210   7.446   7.938   8.718 -0.5130  1.4426 -0.2185
  625MOL0     H86211   7.349   7.824   8.633  2.7913 -0.1026  0.2966
  625MOL0     H86212   7.860   8.034   8.507  1.5289 -3.2475  1.2982
  625MOL0     H86213   8.072   7.927   8.456 -1.6157 -1.9872  0.4639
  625MOL0     H86214   8.209   8.043   8.277 -0.1126 -0.1344 -0.8849
  625MOL0     H86215   8.307   7.908   8.337  0.9484 -1.9510 -0.5852
  625MOL0     H86216   8.367   7.849   8.115 -3.8556 -1.4658  2.0277
  625MOL0     H86217   8.268   7.983   8.047 -2.6395  0.2529  1.9352
  625MOL0     H86218   8.481   8.054   8.257 -0.4603  0.2756  0.1101
  625MOL0     H86219   8.383   8.148   8.170  2.0521  0.1318 -0.6190
  625MOL0     H86220   8.491   8.038   7.961  0.4465  0.8877 -0.0836
  625MOL0     H86221   8.616   7.982   8.071  0.0786 -0.4551 -1.6157
  625MOL0     H86222   8.667   8.215   8.137 -1.1938 -1.8682  0.3486
  625MOL0     H86223   8.699   8.193   7.967 -0.4443 -0.8891 -0.9822
  625MOL0     H86224   8.574   8.421   8.016 -0.9322 -0.1380  1.9622
  625MOL0     H86225   8.445   8.330   8.071 -1.4813  2.7968 -1.4867
  625MOL0     H86226   8.438   8.211   7.842 -0.4216 -0.1276 -0.2402
  625MOL0     H86227   8.552   8.331   7.778  0.5257  2.6695  1.1456
  625MOL0     H86228   8.283   8.388   7.925 -1.7963  0.4345 -1.5582
  625MOL0     H86229   8.290   8.375   7.756 -0.5785 -1.8208  1.5410
  625MOL0     H86230   7.910   7.801   8.077 -2.1094  0.8721  0.1330
  625MOL0     H86231   7.702   7.865   8.136  0.3535 -1.6472  0.1232
  625MOL0     H86232   7.466   8.176   8.286 -1.3361  0.8828 -0.9630
  625MOL0     H86233   7.239   8.276   8.282  0.9159 -1.4592 -0.7401
  625MOL0     H86234   5.819   7.632   7.492  0.0795 -1.3305  2.9811
  625MOL0     H86235   5.674   7.447   7.439  0.0422 -0.1672 -2.1608
  625MOL0     H86236   5.461   7.135   7.121  0.3544 -0.0122  0.1165
  625MOL0     H86237   5.333   6.941   7.093  0.3058  0.7494 -0.0912
  625MOL0     H86238   5.329   6.520   7.238  1.5051 -0.6480 -0.1168
  625MOL0     H86239   5.459   6.601   7.305  0.3725 -1.5438 -0.9224
  625MOL0     H86240   5.305   6.660   7.514  1.2071 -1.6828  2.3561
  625MOL0     H86241   5.325   6.490   7.480 -2.6432 -1.3148 -0.3011
  625MOL0     H86242   5.068   6.643   7.438 -2.8865 -1.6889  1.4885
  625MOL0     H86243   5.118   6.523   7.312 -0.0586 -2.1248  0.5422
  625MOL0     H86244   5.139   6.478   7.609 -3.2290  2.8872  0.5642
  625MOL0     H86245   5.143   6.362   7.476  4.1340  1.5478 -0.3800
  625MOL0     H86246   4.724   6.450   7.579  0.6856  0.8298  3.1438
  625MOL0     H86247   5.479   6.772   7.463 -0.7041 -0.8065 -2.0904
  625MOL0     H86248   5.724   6.972   7.545 -0.9499  0.5501 -1.0233
  625MOL0     H86249   5.584   7.071   7.583  0.7500  1.4424 -2.2387
  625MOL0     H86250   5.583   6.888   7.601  0.9391  0.7291  0.6641
  626MOL0     O86251   5.277   7.020   0.682  0.4961  0.2114  0.3397
  626MOL0     C86252   5.208   7.052   0.583 -0.2736 -0.2595 -1.8857
  626MOL0     O86253   5.252   7.134   0.482 -0.3720 -0.1131  0.2813
  626MOL0     C86254   5.370   7.191   0.486  0.4128  0.4326  0.5319
  626MOL0     C86255   5.441   7.208   0.364  0.2011  0.4991  0.9013
  626MOL0     C86256   5.561   7.285   0.357  0.9883  0.1032 -0.7423
  626MOL0     C86257   5.616   7.334   0.471 -0.3210 -0.3753 -0.4957
  626MOL0     O86258   5.735   7.396   0.444 -0.0815 -0.2200 -0.1351
  626MOL0     C86259   5.829   7.431   0.549 -0.2591  0.5750  0.0181
  626MOL0     C86260   5.893   7.296   0.599 -0.1156  0.8687  0.7275
  626MOL0     C86261   5.997   7.327   0.703  0.0190 -0.0408 -0.2341
  626MOL0     C86262   6.086   7.211   0.749 -0.4063 -0.0698 -0.2289
  626MOL0     C86263   6.162   7.259   0.878  0.0089  0.4170 -0.1445
  626MOL0     C86264   6.286   7.185   0.926  0.2000 -0.1841  1.0622
  626MOL0     C86265   6.388   7.155   0.821 -0.9902 -0.5061 -0.9094
  626MOL0     C86266   6.435   7.276   0.744 -0.6666  0.0173  0.5378
  626MOL0     N86267   6.555   7.250   0.665  0.1063  0.1176 -0.7057
  626MOL0     C86268   6.681   7.257   0.715 -0.4547  0.7806  0.6285
  626MOL0     C86269   6.755   7.259   0.600  1.1060  0.4843 -0.2744
  626MOL0     C86270   6.906   7.252   0.582  0.0370 -0.8038 -0.2275
  626MOL0     C86271   6.979   7.387   0.579  0.5987  0.4076 -0.0260
  626MOL0     C86272   7.136   7.389   0.562  0.1348  0.0249 -0.3884
  626MOL0     C86273   7.173   7.329   0.424  0.3526  0.0658  0.1954
  626MOL0     O86274   7.316   7.328   0.395 -0.5051  0.3321  0.2464
  626MOL0     C86275   7.371   7.450   0.352 -0.1917 -0.6131 -0.2105
  626MOL0     C86276   7.513   7.454   0.334 -0.1290 -0.7369  0.1709
  626MOL0     C86277   7.581   7.565   0.295 -1.1399  0.2154  0.1615
  626MOL0     C86278   7.731   7.557   0.292 -0.4419 -0.1876  0.0226
  626MOL0     C86279   7.514   7.680   0.265  0.5362 -0.7103  1.1303
  626MOL0     C86280   7.577   7.800   0.221  0.3902 -0.3029 -0.1502
  626MOL0     O86281   7.498   7.889   0.150  0.2739  0.3990 -0.2116
  626MOL0     C86282   7.568   7.984   0.078  0.3323 -0.5782  0.4699
  626MOL0     C86283   7.670   7.948  -0.013 -0.8671 -0.5813  0.1862
  626MOL0     C86284   7.743   8.051  -0.074 -0.0211  0.0563  0.5100
  626MOL0     C86285   7.722   8.184  -0.049  0.1183 -0.7586  0.0839
  626MOL0     O86286   7.784   8.288  -0.107 -0.2325 -0.9510 -0.1369
  626MOL0     C86287   7.905   8.269  -0.172  0.1099 -0.7755 -0.0869
  626MOL0     C86288   7.975   8.396  -0.226 -0.4443  0.4657 -0.5437
  626MOL0     C86289   7.896   8.480  -0.327  0.8615  0.3304  0.2780
  626MOL0     C86290   7.864   8.398  -0.458  0.2035  0.1053  0.4917
  626MOL0     C86291   7.814   8.489  -0.567 -0.4437  0.0506 -0.6769
  626MOL0     C86292   7.769   8.410  -0.688  0.3680  0.1468 -0.6157
  626MOL0     C86293   7.766   8.492  -0.817 -0.3106 -0.0791 -0.3200
  626MOL0     C86294   7.677   8.618  -0.812  0.3717 -0.0308 -0.4186
  626MOL0    Cl86295   7.680   8.688  -0.972  0.0531 -0.2098 -0.5246
  626MOL0     C86296   7.624   8.214   0.046 -0.4729 -0.0872 -0.2259
  626MOL0     C86297   7.560   8.117   0.115  0.8251 -0.1794 -0.5066
  626MOL0     O86298   7.697   7.823   0.256 -0.3212  1.1421 -0.0097
  626MOL0     C86299   7.373   7.685   0.289 -0.7368  0.7283 -0.5281
  626MOL0     C86300   7.303   7.571   0.325  0.7113  0.7002 -0.5789
  626MOL0     N86301   6.668   7.272   0.485 -0.6359 -0.6758 -0.1565
  626MOL0     N86302   6.549   7.263   0.527  0.1615  0.0866 -0.5739
  626MOL0     C86303   5.552   7.314   0.590  0.2835  0.7255  0.4958
  626MOL0     C86304   5.432   7.251   0.599  0.0506  0.4168 -0.3824
  626MOL0     C86305   5.066   6.999   0.574 -0.0503 -0.3201  0.2078
  626MOL0     C86306   4.997   7.003   0.452 -0.1210 -0.1962  0.4763
  626MOL0     C86307   4.869   6.959   0.435 -0.3978  0.5020 -0.4698
  626MOL0     C86308   4.792   6.924   0.546  0.1985 -0.0661  0.0366
  626MOL0     O86309   4.652   6.891   0.546 -0.9513 -0.1172  0.1637
  626MOL0     C86310   4.626   6.755   0.531 -0.4038  0.5599  0.4160
  626MOL0     C86311   4.571   6.728   0.383  0.6091  0.6540 -0.4513
  626MOL0     C86312   4.574   6.584   0.337  0.2242  0.0573  0.0026
  626MOL0     C86313   4.448   6.502   0.355 -0.0170 -0.4840  0.3546
  626MOL0     C86314   4.472   6.364   0.330  0.8487  0.3260 -0.4455
  626MOL0     C86315   4.477   6.252   0.293  0.3506 -0.0498  0.6233
  626MOL0     C86316   4.855   6.919   0.667 -0.7408  0.0475 -0.5486
  626MOL0     C86317   4.982   6.969   0.684  0.2158 -0.1426  0.4613
  626MOL0     C86318   5.024   6.985   0.828 -0.3411 -0.2212  0.3724
  626MOL0     H86319   5.399   7.188   0.266 -0.0546  0.7988  0.9462
  626MOL0     H86320   5.607   7.299   0.260  2.2495 -2.2606 -0.5594
  626MOL0     H86321   5.780   7.484   0.631  2.1377  0.4098  1.6535
  626MOL0     H86322   5.911   7.488   0.505  0.9809 -0.7907  0.4719
  626MOL0     H86323   5.813   7.238   0.647  1.3974  0.5687  3.0450
  626MOL0     H86324   5.939   7.240   0.517 -1.8567  0.4187  0.0144
  626MOL0     H86325   6.065   7.403   0.663 -0.4946  1.0858  0.9448
  626MOL0     H86326   5.937   7.368   0.785  1.0376  0.9415  0.0499
  626MOL0     H86327   6.022   7.128   0.781 -1.6680  1.7438  2.2249
  626MOL0     H86328   6.150   7.178   0.666 -1.1468 -1.6119 -0.2276
  626MOL0     H86329   6.084   7.258   0.955  0.1493  0.4612 -0.0017
  626MOL0     H86330   6.187   7.363   0.855 -1.5334  0.7103 -0.5761
  626MOL0     H86331   6.346   7.239   1.000  1.3060 -0.3920  0.3525
  626MOL0     H86332   6.245   7.092   0.966 -0.9029 -0.1415  0.0820
  626MOL0     H86333   6.354   7.073   0.757  0.8279 -3.1932  1.3399
  626MOL0     H86334   6.478   7.105   0.858 -1.2554 -0.3996 -0.0979
  626MOL0     H86335   6.360   7.316   0.675 -1.4046  0.4622  1.5812
  626MOL0     H86336   6.456   7.357   0.814 -1.3328  1.7451 -1.1636
  626MOL0     H86337   6.723   7.257   0.815  1.0310  0.2780  0.0311
  626MOL0     H86338   6.928   7.201   0.487  0.2404 -1.0381 -0.0550
  626MOL0     H86339   6.952   7.191   0.660 -0.4742 -1.0155 -0.0853
  626MOL0     H86340   6.920   7.448   0.509 -0.6595  1.5092  1.8969
  626MOL0     H86341   6.951   7.430   0.676 -1.9653 -1.1164  0.0177
  626MOL0     H86342   7.181   7.489   0.571  1.4558 -0.6998  1.7314
  626MOL0     H86343   7.175   7.327   0.643  1.5220  1.1663 -0.1447
  626MOL0     H86344   7.146   7.223   0.422 -1.5611  0.3840  3.2005
  626MOL0     H86345   7.109   7.373   0.347 -2.8818 -2.9360  0.8906
  626MOL0     H86346   7.567   7.363   0.357  1.3507  0.3929  1.4238
  626MOL0     H86347   7.781   7.604   0.206  1.4974 -1.4012  0.4231
  626MOL0     H86348   7.754   7.451   0.285 -4.7926 -1.2192 -1.8485
  626MOL0     H86349   7.778   7.601   0.380 -0.3414  1.5770 -0.8534
  626MOL0     H86350   7.688   7.843  -0.031 -0.4692 -0.4382 -0.2889
  626MOL0     H86351   7.823   8.025  -0.142  0.2222  1.1384  0.3638
  626MOL0     H86352   7.972   8.221  -0.100 -0.8823  0.2019  1.5683
  626MOL0     H86353   7.897   8.215  -0.266 -0.5240 -2.4473  0.8768
  626MOL0     H86354   8.007   8.469  -0.152 -3.2235  2.4798 -1.1849
  626MOL0     H86355   8.068   8.370  -0.278  0.9978  0.6478  1.8246
  626MOL0     H86356   7.952   8.567  -0.363  0.6237  0.0017 -0.9306
  626MOL0     H86357   7.808   8.526  -0.282  1.0559  1.9187 -0.8763
  626MOL0     H86358   7.796   8.317  -0.428 -2.1059  1.5865 -0.5199
  626MOL0     H86359   7.955   8.344  -0.486  0.2218  0.0577  0.6423
  626MOL0     H86360   7.733   8.552  -0.529 -1.5642 -2.6779  1.8668
  626MOL0     H86361   7.900   8.554  -0.587 -0.4432  0.1264 -0.4286
  626MOL0     H86362   7.668   8.373  -0.667 -0.1612  2.0931  0.4926
  626MOL0     H86363   7.842   8.330  -0.706 -0.3395  0.2361 -5.0658
  626MOL0     H86364   7.742   8.424  -0.900  1.8951  1.1450 -2.0823
  626MOL0     H86365   7.866   8.522  -0.850 -0.8967  0.7015 -1.4626
  626MOL0     H86366   7.714   8.681  -0.731 -1.1413 -1.0128  1.1067
  626MOL0     H86367   7.577   8.580  -0.788  0.0425 -0.4191 -2.2547
  626MOL0     H86368   7.624   8.318   0.077  3.1513  1.0881 -3.3737
  626MOL0     H86369   7.491   8.144   0.194  2.1030 -0.4424  0.7429
  626MOL0     H86370   7.324   7.782   0.280 -0.5768  0.6873 -2.2131
  626MOL0     H86371   7.197   7.569   0.347  0.0751 -1.1366 -3.2625
  626MOL0     H86372   5.600   7.341   0.684  2.6575 -1.0102 -0.1275
  626MOL0     H86373   5.385   7.254   0.696  0.6125  0.1819 -0.1003
  626MOL0     H86374   5.055   7.046   0.371 -0.5626 -0.3999  0.0469
  626MOL0     H86375   4.818   6.981   0.342 -1.1097  0.7779 -0.0222
  626MOL0     H86376   4.716   6.694   0.531 -0.6578  0.1703 -0.1691
  626MOL0     H86377   4.547   6.720   0.598 -1.4698 -1.4870 -1.7384
  626MOL0     H86378   4.632   6.782   0.309  0.9994 -0.6295 -1.1043
  626MOL0     H86379   4.466   6.758   0.380  0.8715  1.8893  1.3118
  626MOL0     H86380   4.605   6.593   0.233  0.0751 -0.4314 -0.0880
  626MOL0     H86381   4.658   6.532   0.383  0.4512  0.7905  0.4339
  626MOL0     H86382   4.368   6.535   0.287 -1.0282 -0.3196  1.5995
  626MOL0     H86383   4.416   6.514   0.458 -1.7482 -2.5217  0.1293
  626MOL0     H86384   4.470   6.153   0.254  0.3299  0.6445 -1.1921
  626MOL0     H86385   4.804   6.894   0.760  2.1605  1.9092  1.7372
  626MOL0     H86386   5.052   7.081   0.870 -0.2442  0.3321 -0.9023
  626MOL0     H86387   4.936   6.972   0.891 -1.3427 -0.3308 -0.9906
  626MOL0     H86388   5.106   6.917   0.853 -2.0144 -2.2848  0.5497
  627MOL0     O86389   2.124   3.327   2.747 -0.8302 -0.4229  0.2622
  627MOL0     C86390   2.111   3.216   2.793 -0.6586  0.1607 -0.3724
  627MOL0     O86391   2.218   3.135   2.827 -0.4565 -0.2771  0.6409
  627MOL0     C86392   2.347   3.172   2.794 -0.1011 -0.8111 -0.4627
  627MOL0     C86393   2.448   3.167   2.888 -0.6739 -0.2112 -0.1421
  627MOL0     C86394   2.583   3.191   2.850 -0.9457 -0.0181 -0.2012
  627MOL0     C86395   2.618   3.223   2.720  0.5226 -0.5158  0.3094
  627MOL0     O86396   2.752   3.245   2.691  0.0601 -0.0224 -0.5965
  627MOL0     C86397   2.781   3.303   2.562  0.3300  0.7065  0.1391
  627MOL0     C86398   2.921   3.373   2.566  1.2059 -0.7333 -0.3488
  627MOL0     C86399   2.915   3.496   2.668 -0.4011  0.3176  0.7744
  627MOL0     C86400   3.044   3.579   2.633 -0.2509  0.3224  0.8430
  627MOL0     C86401   3.049   3.726   2.680  0.4629  0.3071  0.3551
  627MOL0     C86402   3.193   3.793   2.675  0.1682  0.3383 -0.7231
  627MOL0     C86403   3.304   3.716   2.759  0.3282 -0.1966  0.0784
  627MOL0     C86404   3.268   3.719   2.908  0.0476  0.2123 -0.5784
  627MOL0     N86405   3.371   3.689   3.008  0.4832 -0.9454 -0.2232
  627MOL0     C86406   3.456   3.584   3.001  0.6622 -0.7586  0.2632
  627MOL0     C86407   3.513   3.567   3.126  0.0431  0.5465  0.0356
  627MOL0     C86408   3.609   3.465   3.166  0.0514  0.0524  0.3014
  627MOL0     C86409   3.525   3.346   3.220  0.0685  0.5290  0.2166
  627MOL0     C86410   3.482   3.368   3.366 -0.2382  0.1178 -0.4812
  627MOL0     C86411   3.385   3.248   3.398  0.7593  0.0355 -0.1840
  627MOL0     O86412   3.470   3.132   3.416 -0.4576 -0.3765  0.6447
  627MOL0     C86413   3.413   3.005   3.412  0.4219 -0.1837  0.0164
  627MOL0     C86414   3.493   2.893   3.437 -0.2788 -0.0552  0.2181
  627MOL0     C86415   3.443   2.760   3.437 -0.0554 -0.8887 -1.0786
  627MOL0     C86416   3.542   2.656   3.442  0.3131  1.1208  0.0632
  627MOL0     C86417   3.302   2.738   3.407  0.0235  0.0621  0.0793
  627MOL0     C86418   3.238   2.603   3.408  0.5100  0.2274  0.3541
  627MOL0     O86419   3.108   2.596   3.356 -0.2831 -0.4076  0.3416
  627MOL0     C86420   3.039   2.484   3.380 -0.4188 -0.1725 -0.2110
  627MOL0     C86421   3.074   2.365   3.319  0.1868  0.0486  0.1921
  627MOL0     C86422   2.988   2.250   3.320  0.0943  0.3692 -0.6342
  627MOL0     C86423   2.875   2.254   3.403 -1.0294 -0.1897 -0.3881
  627MOL0     O86424   2.805   2.145   3.427  0.7322  0.3148 -0.3125
  627MOL0     C86425   2.820   2.012   3.368  0.4331 -0.6028 -0.0273
  627MOL0     C86426   2.687   1.932   3.403  0.1056 -0.0169 -0.0219
  627MOL0     C86427   2.685   1.903   3.554 -0.4232 -0.7905  0.6322
  627MOL0     C86428   2.592   1.783   3.585 -0.0312  0.1813  0.0305
  627MOL0     C86429   2.602   1.759   3.735  0.3764  0.6054  0.3704
  627MOL0     C86430   2.523   1.618   3.773 -0.0562 -0.1088  0.2744
  627MOL0     C86431   2.434   1.646   3.894 -0.7794 -0.4674 -0.0698
  627MOL0     C86432   2.359   1.511   3.932 -0.1049 -0.2338  0.6100
  627MOL0    Cl86433   2.471   1.375   3.965 -0.5936  0.3806  0.6936
  627MOL0     C86434   2.842   2.368   3.479 -0.0277  0.2829 -0.1849
  627MOL0     C86435   2.922   2.477   3.461 -0.8047 -0.9154 -0.2840
  627MOL0     O86436   3.302   2.509   3.462  0.1190  0.1328  0.0230
  627MOL0     C86437   3.217   2.851   3.381 -0.4604  0.1513 -0.0055
  627MOL0     C86438   3.272   2.981   3.388 -0.0680  0.2859 -0.1403
  627MOL0     N86439   3.479   3.679   3.198 -0.0483  0.4439 -0.5334
  627MOL0     N86440   3.389   3.744   3.132 -0.5496 -0.2268  0.3634
  627MOL0     C86441   2.512   3.214   2.624 -0.0302  0.5198  0.1232
  627MOL0     C86442   2.385   3.196   2.661  0.9916 -0.0535  0.6919
  627MOL0     C86443   1.981   3.154   2.815  0.7172  0.0167 -0.2172
  627MOL0     C86444   1.974   3.040   2.900  0.2368  0.2637  0.7271
  627MOL0     C86445   1.852   2.975   2.916  1.0943 -0.6753 -0.2128
  627MOL0     C86446   1.735   3.013   2.847 -0.6008 -0.0701  0.1442
  627MOL0     O86447   1.610   2.962   2.868  0.1883  0.9620 -0.0002
  627MOL0     C86448   1.594   2.848   2.958  0.6074 -0.0863 -0.8806
  627MOL0     C86449   1.447   2.794   2.959 -0.2987 -0.1429 -0.4005
  627MOL0     C86450   1.351   2.893   3.028  0.2827  0.1740  0.7079
  627MOL0     C86451   1.220   2.822   3.055 -0.0923  0.0845 -0.3601
  627MOL0     C86452   1.227   2.741   3.179  0.3826  0.4416  0.2288
  627MOL0     C86453   1.222   2.683   3.288 -0.2797  0.4919 -0.0135
  627MOL0     C86454   1.744   3.126   2.770 -1.2264  0.0216 -1.3560
  627MOL0     C86455   1.859   3.204   2.756 -0.4131  0.1511 -0.4748
  627MOL0     C86456   1.847   3.319   2.670  0.1296 -0.4791  0.0604
  627MOL0     H86457   2.432   3.152   2.995  1.6017  1.6250  0.5438
  627MOL0     H86458   2.668   3.193   2.917 -0.7593  2.4772 -0.3926
  627MOL0     H86459   2.695   3.356   2.520 -1.2660 -1.4362  0.4739
  627MOL0     H86460   2.792   3.213   2.500 -0.4964 -0.8337  2.1076
  627MOL0     H86461   3.000   3.308   2.603 -0.2255 -1.4860  1.5749
  627MOL0     H86462   2.931   3.409   2.463 -1.6821 -3.6411 -1.8262
  627MOL0     H86463   2.826   3.559   2.660 -0.3374  0.1858 -1.8418
  627MOL0     H86464   2.929   3.453   2.767 -3.6517  0.3998  1.3781
  627MOL0     H86465   3.131   3.533   2.682 -0.1719  0.6178  0.9840
  627MOL0     H86466   3.050   3.579   2.524 -1.4759 -4.0672  0.5996
  627MOL0     H86467   3.007   3.727   2.780 -0.1148  1.7916  0.1181
  627MOL0     H86468   2.990   3.784   2.608 -0.5565 -1.6263 -0.4557
  627MOL0     H86469   3.233   3.793   2.573  0.9340  0.3126 -0.4298
  627MOL0     H86470   3.167   3.894   2.708  1.6501  0.5940 -0.2497
  627MOL0     H86471   3.395   3.769   2.730  0.3964 -1.3035 -1.9317
  627MOL0     H86472   3.317   3.610   2.735  0.4939 -0.3736  0.9447
  627MOL0     H86473   3.227   3.817   2.936  1.9178  0.5473  1.1710
  627MOL0     H86474   3.187   3.646   2.921  0.3213  0.0240  0.0667
  627MOL0     H86475   3.470   3.528   2.909  0.9798 -1.9085  0.9889
  627MOL0     H86476   3.676   3.506   3.242  0.2233  0.6267 -0.1566
  627MOL0     H86477   3.674   3.432   3.085  1.3119 -2.7124  2.2698
  627MOL0     H86478   3.439   3.338   3.152 -1.9203 -0.6382  2.6820
  627MOL0     H86479   3.594   3.262   3.223 -0.8700 -0.2462  0.7802
  627MOL0     H86480   3.572   3.361   3.427 -0.5658 -0.3687 -0.0462
  627MOL0     H86481   3.436   3.466   3.381 -3.3224 -1.0694 -1.4102
  627MOL0     H86482   3.319   3.262   3.484 -1.8257 -2.5643 -1.5559
  627MOL0     H86483   3.315   3.240   3.314  0.3959  2.0571 -0.1219
  627MOL0     H86484   3.596   2.923   3.456 -1.4318  4.0162  0.8770
  627MOL0     H86485   3.541   2.596   3.350 -1.3212 -0.6552  1.1592
  627MOL0     H86486   3.526   2.585   3.523  2.9720 -0.0988 -0.3548
  627MOL0     H86487   3.642   2.698   3.456  0.7110 -0.0177  0.8254
  627MOL0     H86488   3.168   2.366   3.266 -0.6316  1.5497 -1.2947
  627MOL0     H86489   3.008   2.153   3.276  2.3525  0.6175 -0.3247
  627MOL0     H86490   2.840   2.021   3.261  0.6383 -0.7219  0.0022
  627MOL0     H86491   2.906   1.969   3.419  0.6071 -0.6616 -0.3721
  627MOL0     H86492   2.609   2.004   3.377  2.0506  1.8849 -0.9482
  627MOL0     H86493   2.694   1.839   3.344 -1.1492  0.1189 -0.4272
  627MOL0     H86494   2.664   1.994   3.610  2.9343 -0.6570  1.8819
  627MOL0     H86495   2.786   1.888   3.594  0.4522  0.2684 -1.0559
  627MOL0     H86496   2.618   1.693   3.530 -1.2483  0.5292 -1.1804
  627MOL0     H86497   2.489   1.792   3.550  0.0671  1.9881  0.0988
  627MOL0     H86498   2.707   1.759   3.766  0.9217  2.5015 -1.2488
  627MOL0     H86499   2.556   1.841   3.791  0.6803  0.4112  0.9069
  627MOL0     H86500   2.598   1.541   3.791 -1.7422 -2.0761 -0.6854
  627MOL0     H86501   2.471   1.589   3.681  1.2798 -2.2409  0.1316
  627MOL0     H86502   2.360   1.723   3.872 -0.4281 -0.0831  0.0607
  627MOL0     H86503   2.496   1.670   3.981 -1.7058 -0.6103  0.6467
  627MOL0     H86504   2.292   1.492   3.848 -1.2994  4.2890  0.2663
  627MOL0     H86505   2.297   1.532   4.020 -0.8305 -3.3779  0.9835
  627MOL0     H86506   2.748   2.367   3.533 -0.6505  0.0526 -1.2424
  627MOL0     H86507   2.886   2.572   3.500 -0.5366 -0.6480 -0.6718
  627MOL0     H86508   3.110   2.846   3.365 -0.4606  1.2817 -0.4384
  627MOL0     H86509   3.207   3.066   3.369 -3.1803 -2.1008 -1.0276
  627MOL0     H86510   2.539   3.229   2.520  0.6023  0.1826  0.2329
  627MOL0     H86511   2.303   3.197   2.590  1.2003  3.2086  0.3522
  627MOL0     H86512   2.070   3.014   2.943  0.7421  0.5860 -0.1867
  627MOL0     H86513   1.848   2.888   2.980 -2.0040 -1.7946 -1.7182
  627MOL0     H86514   1.663   2.766   2.935  1.6212  0.8148 -1.1597
  627MOL0     H86515   1.610   2.893   3.056  2.3754 -3.0775  0.3184
  627MOL0     H86516   1.441   2.700   3.015  2.2096 -0.2495 -0.2078
  627MOL0     H86517   1.415   2.771   2.857  3.1319 -0.9957 -1.4123
  627MOL0     H86518   1.400   2.937   3.116  0.5308  1.8206 -0.2108
  627MOL0     H86519   1.331   2.979   2.963  2.6431  0.2960  0.0489
  627MOL0     H86520   1.183   2.760   2.973  0.1874 -0.8317  0.1934
  627MOL0     H86521   1.153   2.905   3.080  2.3585  1.8298  0.8476
  627MOL0     H86522   1.214   2.627   3.379 -0.1839 -0.8375 -0.7919
  627MOL0     H86523   1.650   3.163   2.731 -0.7595  1.6939 -0.9720
  627MOL0     H86524   1.853   3.418   2.715  0.2120  0.7196 -2.4033
  627MOL0     H86525   1.920   3.299   2.591  1.3420  1.5744  0.5899
  627MOL0     H86526   1.756   3.327   2.608  1.7650  1.4010 -2.2987
  628MOL0     O86527   8.890   3.358   2.709  0.3193 -0.0290  0.0006
  628MOL0     C86528   8.820   3.411   2.623 -0.3837  0.3500 -0.2643
  628MOL0     O86529   8.856   3.496   2.521 -0.6851 -0.4706  0.0700
  628MOL0     C86530   8.993   3.523   2.508  0.3900 -0.3192 -0.5192
  628MOL0     C86531   9.058   3.438   2.417 -0.4326  0.2868 -0.3929
  628MOL0     C86532   9.199   3.446   2.395  0.1059 -0.0772  0.1435
  628MOL0     C86533   9.274   3.537   2.465 -0.0788 -1.4794 -0.5091
  628MOL0     O86534   9.409   3.534   2.444  0.2415  0.1104  0.2119
  628MOL0     C86535   9.497   3.552   2.556 -0.5555 -0.8676 -0.8019
  628MOL0     C86536   9.494   3.433   2.651  0.0328  0.3708 -0.1556
  628MOL0     C86537   9.604   3.444   2.754 -0.7195 -0.2648 -0.1378
  628MOL0     C86538   9.747   3.398   2.709 -0.4263 -0.2819 -0.2277
  628MOL0     C86539   9.845   3.449   2.816 -1.0506  0.1411  1.0210
  628MOL0     C86540   9.815   3.426   2.957 -0.6268  0.3635  0.1618
  628MOL0     C86541   9.935   3.466   3.053 -0.3313  0.5724  0.5464
  628MOL0     C86542  10.052   3.362   3.041  0.0838  0.0085 -0.3067
  628MOL0     N86543  10.180   3.430   3.072 -1.0453 -0.1552 -0.0323
  628MOL0     C86544  10.235   3.460   3.190  0.6093 -0.4821 -0.0781
  628MOL0     C86545  10.350   3.530   3.159 -0.0023 -0.2198 -0.1596
  628MOL0     C86546  10.432   3.617   3.264  0.9306  0.0391  0.0968
  628MOL0     C86547  10.545   3.533   3.332  0.3424 -0.0906 -0.8058
  628MOL0     C86548  10.623   3.620   3.429  0.2441  0.2541  0.5094
  628MOL0     C86549  10.755   3.561   3.469 -0.9436  0.1014 -0.3525
  628MOL0     O86550  10.812   3.651   3.555  1.0134  0.1558 -0.7521
  628MOL0     C86551  10.937   3.626   3.600 -0.0744 -0.0586  0.2310
  628MOL0     C86552  10.997   3.731   3.669 -1.1342  0.0062 -0.5332
  628MOL0     C86553  11.128   3.718   3.730  0.1018 -0.2491  0.5127
  628MOL0     C86554  11.168   3.829   3.817  0.2401 -0.5162 -0.9284
  628MOL0     C86555  11.207   3.603   3.697  0.7911 -0.0046  0.3748
  628MOL0     C86556  11.342   3.582   3.748 -0.3312  1.1162 -0.1441
  628MOL0     O86557  11.397   3.454   3.732 -0.4735 -0.1273  0.3281
  628MOL0     C86558  11.527   3.421   3.766 -0.2505  0.1232 -0.5612
  628MOL0     C86559  11.539   3.295   3.828 -0.1023 -0.2438 -0.0699
  628MOL0     C86560  11.659   3.265   3.894  0.2975 -0.3635 -0.1043
  628MOL0     C86561  11.775   3.343   3.871  0.6092  0.1945 -0.5175
  628MOL0     O86562  11.905   3.321   3.917  0.8252  0.6176 -0.3077
  628MOL0     C86563  11.937   3.187   3.950  0.3118  0.2495 -0.2898
  628MOL0     C86564  11.965   3.100   3.823 -0.1040 -0.5089  0.1702
  628MOL0     C86565  12.081   3.124   3.738 -1.2840  0.0815  0.1321
  628MOL0     C86566  12.058   3.233   3.635  0.1814  0.3353  0.0350
  628MOL0     C86567  12.193   3.271   3.571 -0.2534 -0.1031  0.2159
  628MOL0     C86568  12.254   3.141   3.500 -0.3343 -0.9908 -0.4215
  628MOL0     C86569  12.387   3.180   3.430 -0.4876  0.0430 -0.0268
  628MOL0     C86570  12.443   3.056   3.366  0.1627 -0.0131 -0.3609
  628MOL0    Cl86571  12.584   3.112   3.256  0.4014  0.6014  0.2194
  628MOL0     C86572  11.756   3.463   3.792 -0.4788 -0.1230  0.5348
  628MOL0     C86573  11.637   3.505   3.746  0.4339  0.5681  0.2907
  628MOL0     O86574  11.401   3.679   3.797 -0.1770  0.2859 -0.5227
  628MOL0     C86575  11.142   3.497   3.633  0.1186 -0.8260 -0.6859
  628MOL0     C86576  11.014   3.512   3.587  0.6265  0.1980 -0.1309
  628MOL0     N86577  10.383   3.519   3.031  0.5827 -0.4522 -0.1735
  628MOL0     N86578  10.276   3.464   2.980 -0.2786 -0.0178  0.4922
  628MOL0     C86579   9.215   3.632   2.547  0.0591 -0.2368 -0.5408
  628MOL0     C86580   9.071   3.626   2.565  0.7650 -0.4699  0.2548
  628MOL0     C86581   8.676   3.395   2.636 -0.6317 -0.8209 -0.7788
  628MOL0     C86582   8.596   3.510   2.640 -0.2845 -0.0355  0.3481
  628MOL0     C86583   8.457   3.498   2.662  0.4357 -0.0999 -0.2995
  628MOL0     C86584   8.402   3.375   2.675  0.1609  0.4552  0.3751
  628MOL0     O86585   8.261   3.380   2.677 -0.1717 -0.1327 -0.1060
  628MOL0     C86586   8.200   3.261   2.654 -0.5472  0.4490  0.9078
  628MOL0     C86587   8.050   3.283   2.621  0.4802  0.1675 -0.0669
  628MOL0     C86588   7.970   3.367   2.729  0.0884 -0.8683 -0.8777
  628MOL0     C86589   7.833   3.380   2.667 -0.5130 -0.0945  0.2127
  628MOL0     C86590   7.819   3.512   2.597  0.7835 -0.8503 -0.4340
  628MOL0     C86591   7.808   3.622   2.546  0.4523 -0.2791  0.1099
  628MOL0     C86592   8.484   3.256   2.680 -0.4353 -0.8666 -0.1687
  628MOL0     C86593   8.619   3.267   2.644 -0.0059  1.5740  0.1200
  628MOL0     C86594   8.693   3.135   2.632 -0.0265  0.3529  0.0178
  628MOL0     H86595   9.009   3.355   2.367  1.8633 -1.1756 -0.3103
  628MOL0     H86596   9.239   3.362   2.339 -0.8973 -0.8062  0.4896
  628MOL0     H86597   9.474   3.646   2.607  4.1175 -0.2362  0.5772
  628MOL0     H86598   9.593   3.564   2.504  0.1142 -0.9296  0.3829
  628MOL0     H86599   9.392   3.423   2.689  0.7043  1.4294  2.0718
  628MOL0     H86600   9.526   3.343   2.597  1.1549  0.8534 -0.3052
  628MOL0     H86601   9.611   3.547   2.791 -1.2381 -0.2194 -0.1489
  628MOL0     H86602   9.577   3.387   2.844 -3.6223 -0.5798 -1.1016
  628MOL0     H86603   9.741   3.288   2.705  3.1653 -0.5595 -0.5163
  628MOL0     H86604   9.773   3.426   2.606 -1.7872 -0.7120 -0.7211
  628MOL0     H86605   9.851   3.558   2.811  2.0514  0.0775  1.3290
  628MOL0     H86606   9.947   3.417   2.795 -1.1644  0.3216  0.1724
  628MOL0     H86607   9.729   3.484   2.993  1.5096  1.7458  3.6895
  628MOL0     H86608   9.798   3.320   2.977  0.6082  0.3686  1.4849
  628MOL0     H86609   9.907   3.470   3.159  1.3154  3.9908  0.9910
  628MOL0     H86610   9.973   3.560   3.013 -1.3490  0.2722 -1.2041
  628MOL0     H86611  10.034   3.290   3.122  1.0505  4.0867  4.0214
  628MOL0     H86612  10.065   3.314   2.944 -0.6359 -2.1390  0.5938
  628MOL0     H86613  10.190   3.440   3.287  0.6768 -3.2186 -0.5433
  628MOL0     H86614  10.363   3.667   3.332  0.2808  0.3449 -0.7652
  628MOL0     H86615  10.481   3.697   3.206  3.5506 -1.0499  0.6466
  628MOL0     H86616  10.506   3.449   3.389 -0.5954 -1.0273 -2.7196
  628MOL0     H86617  10.606   3.484   3.255  1.0534 -2.4099  1.1285
  628MOL0     H86618  10.640   3.713   3.375 -0.5863 -0.2261 -0.6118
  628MOL0     H86619  10.562   3.635   3.519 -0.8115 -1.0682  0.0398
  628MOL0     H86620  10.732   3.478   3.536  1.1124  0.5745  1.0297
  628MOL0     H86621  10.819   3.529   3.387  0.5646 -0.9393  1.1737
  628MOL0     H86622  10.940   3.822   3.684  1.2030  1.3700  0.7283
  628MOL0     H86623  11.262   3.874   3.783 -1.0338  1.9046 -1.4133
  628MOL0     H86624  11.174   3.792   3.920  1.8505  0.1684 -0.7331
  628MOL0     H86625  11.093   3.908   3.809 -0.0134 -0.1522  2.8705
  628MOL0     H86626  11.451   3.234   3.842 -0.3867  0.1119 -0.2855
  628MOL0     H86627  11.665   3.170   3.947  0.7309 -0.2777  0.0020
  628MOL0     H86628  12.025   3.183   4.016 -0.4844 -0.0651  0.7734
  628MOL0     H86629  11.865   3.144   4.019  0.7825 -0.5229 -0.2603
  628MOL0     H86630  11.980   3.000   3.865 -1.8462 -1.4656 -1.3215
  628MOL0     H86631  11.871   3.107   3.767  0.5907  0.7016 -0.9062
  628MOL0     H86632  12.097   3.022   3.702  3.5014  0.1839  1.3597
  628MOL0     H86633  12.174   3.139   3.794 -1.4935  0.0388  0.4940
  628MOL0     H86634  12.005   3.321   3.673 -0.6174 -0.0460 -0.1803
  628MOL0     H86635  11.998   3.191   3.554  2.2119 -3.3705  0.2639
  628MOL0     H86636  12.164   3.351   3.501 -0.9503 -0.1443  0.4439
  628MOL0     H86637  12.256   3.307   3.653 -4.0814 -0.1258  3.4774
  628MOL0     H86638  12.178   3.100   3.434 -0.7253  0.1406 -0.7101
  628MOL0     H86639  12.279   3.066   3.576  0.2583  0.8741  1.3376
  628MOL0     H86640  12.461   3.206   3.506 -0.2425  0.4973 -0.4211
  628MOL0     H86641  12.373   3.264   3.362  4.0359  1.3991  0.4399
  628MOL0     H86642  12.376   2.997   3.303  0.1560  0.0543 -0.4166
  628MOL0     H86643  12.472   2.988   3.447 -2.7681  0.2414  1.0221
  628MOL0     H86644  11.848   3.521   3.783  0.6372 -1.8580  0.3142
  628MOL0     H86645  11.631   3.594   3.684  0.3507 -0.3874 -1.1093
  628MOL0     H86646  11.190   3.401   3.621 -0.4464 -1.3551  1.0592
  628MOL0     H86647  10.975   3.424   3.536 -0.5336  0.3371  0.4728
  628MOL0     H86648   9.258   3.723   2.588 -0.5094 -1.3615  2.8302
  628MOL0     H86649   9.028   3.694   2.638  1.9052  0.6651 -0.0799
  628MOL0     H86650   8.648   3.605   2.639  0.2339 -0.3132 -0.9434
  628MOL0     H86651   8.388   3.581   2.650  1.3677  0.5563 -1.3285
  628MOL0     H86652   8.252   3.213   2.571 -0.0150  3.7992 -0.9050
  628MOL0     H86653   8.213   3.199   2.743  0.6187  0.7249  0.9455
  628MOL0     H86654   7.999   3.193   2.587  1.8851 -1.0666  0.9471
  628MOL0     H86655   8.044   3.351   2.535  1.0974  3.4453  2.2536
  628MOL0     H86656   7.954   3.323   2.828 -0.8637  0.1485 -0.5620
  628MOL0     H86657   8.017   3.458   2.766 -0.1037 -2.2275  3.2847
  628MOL0     H86658   7.763   3.368   2.750  1.0428 -0.3766  1.5147
  628MOL0     H86659   7.820   3.301   2.592 -2.0281  0.2525  0.0817
  628MOL0     H86660   7.830   3.721   2.512  2.5743 -0.9638 -0.7211
  628MOL0     H86661   8.438   3.159   2.695  2.7053 -2.4402  0.0643
  628MOL0     H86662   8.624   3.052   2.653 -3.0866  2.0769 -2.4083
  628MOL0     H86663   8.726   3.126   2.528  0.7703  0.4458  0.2638
  628MOL0     H86664   8.769   3.130   2.710 -1.5216  0.2101  1.5333
  629MOL0     O86665   8.231   3.860   4.260  0.1653  0.1271 -0.2352
  629MOL0     C86666   8.193   3.740   4.268  0.5341  0.3356  0.7612
  629MOL0     O86667   8.273   3.643   4.312  0.5865  0.1778 -0.1613
  629MOL0     C86668   8.404   3.667   4.344  0.5102 -0.0975  0.4531
  629MOL0     C86669   8.500   3.579   4.291  0.3922  0.3517  0.5843
  629MOL0     C86670   8.643   3.608   4.301  0.5043 -0.5175 -0.2941
  629MOL0     C86671   8.690   3.719   4.365  0.5910  0.4887 -0.3979
  629MOL0     O86672   8.827   3.732   4.381  0.1430  0.6564 -0.0727
  629MOL0     C86673   8.883   3.813   4.488 -0.2509 -1.0063 -0.3301
  629MOL0     C86674   8.998   3.728   4.537 -0.4509 -0.1024 -0.0770
  629MOL0     C86675   9.093   3.818   4.630  0.5768 -0.9458  0.0815
  629MOL0     C86676   9.199   3.727   4.681 -0.6450 -0.9653  0.3879
  629MOL0     C86677   9.291   3.809   4.784  0.4966  0.0145  0.3293
  629MOL0     C86678   9.437   3.744   4.793 -0.2353  0.8496  0.8224
  629MOL0     C86679   9.533   3.778   4.673  0.2261 -1.0106  0.2723
  629MOL0     C86680   9.640   3.672   4.641 -0.5316  0.0803 -0.2270
  629MOL0     N86681   9.739   3.741   4.558  0.2037 -0.3121 -0.2373
  629MOL0     C86682   9.795   3.687   4.446  0.5485 -0.4316  0.8160
  629MOL0     C86683   9.907   3.753   4.420  0.0922 -0.3500  0.3181
  629MOL0     C86684  10.010   3.708   4.325  0.1085 -0.8193  1.0351
  629MOL0     C86685  10.148   3.750   4.365 -0.3025  0.7883 -0.9396
  629MOL0     C86686  10.260   3.698   4.275  0.6396  0.1677 -0.8270
  629MOL0     C86687  10.293   3.546   4.296 -0.2006 -0.8222 -0.4059
  629MOL0     O86688  10.318   3.524   4.439 -0.7358  0.0593 -0.4859
  629MOL0     C86689  10.444   3.566   4.480  0.5314  1.0687  0.2993
  629MOL0     C86690  10.554   3.612   4.403 -0.0668  0.6840  0.1211
  629MOL0     C86691  10.680   3.654   4.450 -0.0727 -0.2124  0.1269
  629MOL0     C86692  10.766   3.711   4.344 -0.4436 -0.0792  0.5125
  629MOL0     C86693  10.705   3.638   4.588  0.0890 -0.1975 -0.0888
  629MOL0     C86694  10.840   3.669   4.660  0.8025  0.2255 -0.1997
  629MOL0     O86695  10.843   3.650   4.798  0.9132 -0.0594  0.2058
  629MOL0     C86696  10.962   3.648   4.861  0.9587 -0.4322  0.5431
  629MOL0     C86697  11.092   3.616   4.818 -0.3093 -0.2092  0.0080
  629MOL0     C86698  11.205   3.617   4.908  0.8064  0.5127 -0.2346
  629MOL0     C86699  11.191   3.661   5.038 -0.7303  0.8055 -0.1634
  629MOL0     O86700  11.284   3.662   5.135  0.4294 -0.0585  0.3124
  629MOL0     C86701  11.405   3.591   5.119 -0.0593  0.9626  0.0841
  629MOL0     C86702  11.491   3.648   5.231 -0.3876 -0.4607  0.5582
  629MOL0     C86703  11.545   3.777   5.187 -0.6036  0.3458 -0.7157
  629MOL0     C86704  11.463   3.911   5.221 -0.5568 -0.2550  0.1197
  629MOL0     C86705  11.536   4.031   5.164  0.4271 -0.0703  0.0587
  629MOL0     C86706  11.650   4.083   5.249 -1.1187 -0.4069  0.1872
  629MOL0     C86707  11.729   4.200   5.189  0.1736 -0.4982 -0.1908
  629MOL0     C86708  11.826   4.253   5.293 -0.0375  0.2707 -0.4372
  629MOL0    Cl86709  11.749   4.386   5.397  0.1873  0.1832  0.6015
  629MOL0     C86710  11.062   3.703   5.079  0.9529  0.3946 -0.5000
  629MOL0     C86711  10.947   3.696   4.993  0.0545  0.7033  0.0289
  629MOL0     O86712  10.938   3.702   4.592 -0.6540  0.2739 -0.6962
  629MOL0     C86713  10.594   3.590   4.668 -0.1207 -0.5117 -0.5927
  629MOL0     C86714  10.472   3.555   4.615 -0.6743 -1.1487 -1.2056
  629MOL0     N86715   9.915   3.846   4.522 -0.9086  0.1577  0.4535
  629MOL0     N86716   9.821   3.835   4.613  0.5422 -0.1261  0.4343
  629MOL0     C86717   8.591   3.814   4.411  0.0479  0.0830 -0.0033
  629MOL0     C86718   8.458   3.784   4.402 -0.4717  0.8784  0.2889
  629MOL0     C86719   8.069   3.700   4.196 -0.4959  1.0043  0.0286
  629MOL0     C86720   7.958   3.783   4.219  0.2368 -0.0045  0.1448
  629MOL0     C86721   7.835   3.757   4.159 -0.0347 -0.0678 -0.0268
  629MOL0     C86722   7.822   3.649   4.068 -0.9736  0.0854  0.7812
  629MOL0     O86723   7.705   3.620   4.000  0.1016 -0.5636 -0.3459
  629MOL0     C86724   7.611   3.726   3.987 -0.1330  0.1894  0.4274
  629MOL0     C86725   7.504   3.676   3.891  0.1140  0.2542  0.2222
  629MOL0     C86726   7.551   3.653   3.743 -0.3715  0.5726  0.3036
  629MOL0     C86727   7.596   3.773   3.663 -0.7313  0.6361 -0.3312
  629MOL0     C86728   7.492   3.820   3.572  0.9243  0.6905  0.1355
  629MOL0     C86729   7.397   3.861   3.511  0.1130 -1.1137  0.3773
  629MOL0     C86730   7.936   3.571   4.040  0.4726 -0.3699  0.1299
  629MOL0     C86731   8.056   3.592   4.099 -0.1658  0.3783 -0.4128
  629MOL0     C86732   8.177   3.501   4.068 -0.1501  0.4054  0.5470
  629MOL0     H86733   8.467   3.483   4.251 -1.2800  1.1076  0.0875
  629MOL0     H86734   8.715   3.543   4.252  1.8878 -1.0089  2.2223
  629MOL0     H86735   8.814   3.825   4.572 -0.3459  0.6479 -0.6172
  629MOL0     H86736   8.909   3.907   4.440  0.5401 -1.7334 -1.3918
  629MOL0     H86737   8.969   3.642   4.599  1.7189 -0.3078  0.7648
  629MOL0     H86738   9.058   3.689   4.454 -0.1929  1.0688 -0.4589
  629MOL0     H86739   9.126   3.906   4.575  0.3739 -1.5245 -0.9930
  629MOL0     H86740   9.040   3.848   4.722 -1.1111  0.2119 -1.2118
  629MOL0     H86741   9.141   3.659   4.744 -1.6508  1.0150  1.7335
  629MOL0     H86742   9.258   3.689   4.598  1.9051  0.4385  1.4169
  629MOL0     H86743   9.231   3.817   4.875 -0.3491  0.0791 -0.2171
  629MOL0     H86744   9.308   3.909   4.743  0.0148 -1.0406 -2.6533
  629MOL0     H86745   9.477   3.775   4.890 -1.1532 -2.0606  2.2525
  629MOL0     H86746   9.438   3.634   4.792  0.1684  0.8116 -2.3465
  629MOL0     H86747   9.591   3.866   4.704 -0.0618 -0.1064 -1.6391
  629MOL0     H86748   9.487   3.810   4.580  1.8655  1.3864  0.1931
  629MOL0     H86749   9.686   3.641   4.736  0.8894  0.0594 -0.8909
  629MOL0     H86750   9.603   3.584   4.587  0.7441  1.2830 -3.2390
  629MOL0     H86751   9.755   3.606   4.386  0.8209  0.0448 -0.0228
  629MOL0     H86752   9.998   3.761   4.230  0.5223  1.5741  2.2521
  629MOL0     H86753  10.014   3.600   4.309  4.0629 -0.8254  1.0384
  629MOL0     H86754  10.163   3.858   4.364 -0.5908  0.8691  0.9466
  629MOL0     H86755  10.179   3.721   4.466  2.9414  3.0300 -1.1498
  629MOL0     H86756  10.242   3.718   4.169  2.6363  1.5693 -0.9696
  629MOL0     H86757  10.351   3.751   4.306 -0.7313  2.5288 -0.6263
  629MOL0     H86758  10.209   3.480   4.271 -1.1053 -0.7635  2.1098
  629MOL0     H86759  10.376   3.517   4.231 -0.3704  0.5624 -1.2623
  629MOL0     H86760  10.538   3.618   4.296  1.4077  0.6241 -0.1180
  629MOL0     H86761  10.781   3.815   4.372 -0.0484 -0.5324  2.0612
  629MOL0     H86762  10.718   3.721   4.246 -0.4393 -1.6408  0.3249
  629MOL0     H86763  10.861   3.658   4.333 -0.3869 -0.2037  1.5179
  629MOL0     H86764  11.109   3.591   4.714 -1.4776  2.1456 -0.8284
  629MOL0     H86765  11.304   3.587   4.874  0.2597 -2.5073  0.5048
  629MOL0     H86766  11.373   3.487   5.131 -0.1196  0.6800 -2.2247
  629MOL0     H86767  11.457   3.591   5.023 -2.1091 -1.2091 -1.1407
  629MOL0     H86768  11.431   3.658   5.322  0.1335 -1.1487  0.9860
  629MOL0     H86769  11.579   3.591   5.262 -0.0274  0.2707  0.9278
  629MOL0     H86770  11.560   3.771   5.078 -0.0324  0.4422 -0.6455
  629MOL0     H86771  11.644   3.799   5.228 -0.3900  0.2875 -1.1948
  629MOL0     H86772  11.459   3.923   5.329  0.1712  0.1957  0.1074
  629MOL0     H86773  11.364   3.902   5.175  0.6791 -1.1064 -2.6107
  629MOL0     H86774  11.567   4.017   5.060  1.0051  3.3306 -0.3260
  629MOL0     H86775  11.462   4.112   5.167  0.4910 -0.0301  0.6173
  629MOL0     H86776  11.724   4.004   5.265  0.2684  0.4763 -1.6073
  629MOL0     H86777  11.607   4.110   5.346  0.9144 -0.2265  1.0884
  629MOL0     H86778  11.665   4.283   5.156  0.6631 -1.4357 -4.0445
  629MOL0     H86779  11.794   4.177   5.104 -3.1115 -0.9160 -2.8013
  629MOL0     H86780  11.920   4.291   5.252  1.9543 -2.0601  1.6691
  629MOL0     H86781  11.856   4.174   5.363 -1.3336 -0.1486 -0.3217
  629MOL0     H86782  11.037   3.744   5.176 -0.3337  1.1745 -1.1303
  629MOL0     H86783  10.854   3.734   5.033  0.1085  1.6409 -0.6901
  629MOL0     H86784  10.609   3.580   4.775  1.1245  0.3028 -0.6691
  629MOL0     H86785  10.390   3.542   4.685  1.6545 -0.7921  1.8057
  629MOL0     H86786   8.620   3.908   4.457 -1.4684  0.8506 -0.5268
  629MOL0     H86787   8.386   3.861   4.429 -1.2593 -0.6628  2.8485
  629MOL0     H86788   7.977   3.864   4.289 -2.8498  2.4360 -1.5639
  629MOL0     H86789   7.746   3.817   4.175 -0.3996 -0.0395 -1.8816
  629MOL0     H86790   7.557   3.757   4.077 -5.4875 -0.5710 -2.1409
  629MOL0     H86791   7.667   3.813   3.951  3.5240 -0.6293  3.4857
  629MOL0     H86792   7.423   3.749   3.895 -1.3143 -1.2689  0.3515
  629MOL0     H86793   7.458   3.588   3.938  1.0202 -0.6402 -0.4984
  629MOL0     H86794   7.637   3.587   3.754  2.1314  2.5361 -4.3869
  629MOL0     H86795   7.477   3.595   3.686  0.4510  0.3883 -0.5974
  629MOL0     H86796   7.681   3.744   3.602  1.0946 -2.0083  3.1001
  629MOL0     H86797   7.621   3.862   3.720  0.1934  0.1744  0.0060
  629MOL0     H86798   7.323   3.901   3.444 -0.2963  1.6804  2.3538
  629MOL0     H86799   7.924   3.491   3.968  0.2495  0.3724 -0.6734
  629MOL0     H86800   8.195   3.442   4.159 -0.1059 -1.6481 -0.7158
  629MOL0     H86801   8.148   3.427   3.993 -0.9382  0.5372  0.7195
  629MOL0     H86802   8.265   3.560   4.041  0.1934  0.2630  1.3250
  630MOL0     O86803   7.207   6.190   6.912  0.2149  0.3609  0.5950
  630MOL0     C86804   7.301   6.241   6.976  0.4887  0.1363 -0.0330
  630MOL0     O86805   7.440   6.212   6.951  0.7248 -0.5934  0.0723
  630MOL0     C86806   7.476   6.135   6.838  0.4200 -0.6475 -0.0681
  630MOL0     C86807   7.425   6.010   6.822 -0.2920  0.4756 -0.0909
  630MOL0     C86808   7.489   5.919   6.734 -0.4541  0.0014 -0.0819
  630MOL0     C86809   7.597   5.959   6.654  0.2144 -1.0729  0.7334
  630MOL0     O86810   7.663   5.872   6.575  0.4689 -0.4936  0.1222
  630MOL0     C86811   7.575   5.824   6.471 -0.0478 -0.1925  0.4310
  630MOL0     C86812   7.556   5.920   6.355  0.4466  0.1192 -0.2292
  630MOL0     C86813   7.683   5.950   6.267 -0.0369  0.6845  0.5784
  630MOL0     C86814   7.741   5.813   6.213 -0.0726 -0.7654  0.2806
  630MOL0     C86815   7.867   5.841   6.130 -0.0911 -0.1756  0.4669
  630MOL0     C86816   7.957   5.717   6.113 -0.1761  0.2154  0.0221
  630MOL0     C86817   8.097   5.763   6.059  0.9905 -0.1175 -0.4357
  630MOL0     C86818   8.191   5.654   6.020 -0.7894 -0.2614 -0.0531
  630MOL0     N86819   8.203   5.548   6.120  0.1485  0.6445  0.0974
  630MOL0     C86820   8.103   5.456   6.154  0.0296 -0.5192 -0.4327
  630MOL0     C86821   8.164   5.386   6.259 -0.4167 -0.0558 -0.4447
  630MOL0     C86822   8.096   5.282   6.349  0.0947  0.1139 -0.0976
  630MOL0     C86823   8.084   5.138   6.300  0.0306 -0.3027 -0.1490
  630MOL0     C86824   8.224   5.077   6.300 -0.4291  0.0355 -0.3024
  630MOL0     C86825   8.333   5.110   6.405  0.2845 -1.1943  0.2976
  630MOL0     O86826   8.288   5.070   6.539  0.0650 -0.4390  0.7356
  630MOL0     C86827   8.381   5.080   6.636 -0.7328 -0.1317  0.2228
  630MOL0     C86828   8.340   5.069   6.771  0.7264  0.1545 -0.1192
  630MOL0     C86829   8.429   5.065   6.882  1.0311 -0.0166  1.1264
  630MOL0     C86830   8.377   5.042   7.020 -0.3047 -0.4689 -0.1510
  630MOL0     C86831   8.573   5.084   6.852 -0.2106  0.8932  0.4085
  630MOL0     C86832   8.682   5.073   6.950 -0.3348 -0.8299  0.3207
  630MOL0     O86833   8.791   5.161   6.938 -0.3516 -0.0851 -0.0558
  630MOL0     C86834   8.906   5.157   7.020 -0.8693  0.7733  0.2658
  630MOL0     C86835   8.965   5.274   7.039  0.3976  0.5131  0.4865
  630MOL0     C86836   9.088   5.295   7.106 -0.3567 -0.5473 -0.0724
  630MOL0     C86837   9.146   5.181   7.161  0.4910  0.8887  0.3661
  630MOL0     O86838   9.274   5.192   7.215  0.1581 -0.0844 -0.7642
  630MOL0     C86839   9.356   5.087   7.252  0.0223  0.0740  0.0419
  630MOL0     C86840   9.444   5.123   7.377 -0.3622  0.3024  0.4922
  630MOL0     C86841   9.552   5.023   7.397  0.8842  1.2759 -0.6239
  630MOL0     C86842   9.641   5.059   7.514 -0.4910  0.4307 -0.2370
  630MOL0     C86843   9.789   5.031   7.473 -0.0056 -0.8685 -0.5626
  630MOL0     C86844   9.812   4.886   7.439  1.2175 -0.2813 -0.5865
  630MOL0     C86845   9.957   4.858   7.408  0.0588 -0.0307 -0.6082
  630MOL0     C86846   9.986   4.711   7.383 -0.8488  0.0770  0.4060
  630MOL0    Cl86847  10.160   4.694   7.411 -0.4235  0.2178 -0.0471
  630MOL0     C86848   9.079   5.054   7.145  0.7253  0.5665  0.9196
  630MOL0     C86849   8.956   5.042   7.085  0.4849 -0.5399  0.0329
  630MOL0     O86850   8.676   4.987   7.032 -0.1422  0.7637  0.3009
  630MOL0     C86851   8.601   5.098   6.719  0.1044 -0.8492 -0.2040
  630MOL0     C86852   8.509   5.101   6.616  0.3210 -0.4856 -0.6601
  630MOL0     N86853   8.276   5.447   6.300 -0.3027 -0.0007 -0.2965
  630MOL0     N86854   8.302   5.533   6.210 -0.4411 -0.0975  0.2260
  630MOL0     C86855   7.644   6.088   6.668  0.1382 -0.7213  0.6898
  630MOL0     C86856   7.589   6.174   6.765  1.0759 -0.1003  0.3973
  630MOL0     C86857   7.270   6.318   7.105  0.0189  0.4899  1.4571
  630MOL0     C86858   7.372   6.347   7.196 -0.6445  0.3878 -0.4247
  630MOL0     C86859   7.351   6.417   7.317 -0.4425  1.2410 -1.0383
  630MOL0     C86860   7.219   6.443   7.353  0.0630 -0.3826 -0.2120
  630MOL0     O86861   7.180   6.517   7.458  1.5776 -0.6455 -0.4061
  630MOL0     C86862   7.281   6.614   7.499  0.8505 -0.3518 -0.8238
  630MOL0     C86863   7.206   6.727   7.570 -0.7072  0.0894 -0.0821
  630MOL0     C86864   7.292   6.857   7.601 -0.1776  0.4431  0.0232
  630MOL0     C86865   7.422   6.853   7.674 -0.4977  0.3732 -0.5597
  630MOL0     C86866   7.530   6.789   7.596  0.1694 -0.3075 -0.2266
  630MOL0     C86867   7.629   6.733   7.554  0.5957 -0.1369  0.1909
  630MOL0     C86868   7.118   6.415   7.263  0.0018 -0.1327  1.2409
  630MOL0     C86869   7.135   6.341   7.146  0.4398 -0.3850  0.3586
  630MOL0     C86870   7.005   6.309   7.069  0.9749 -0.3049 -0.7911
  630MOL0     H86871   7.333   5.985   6.875  0.1340  1.4212  1.1251
  630MOL0     H86872   7.473   5.812   6.735  0.2658 -0.1175  1.2819
  630MOL0     H86873   7.476   5.803   6.514  0.3484 -1.0220  0.9680
  630MOL0     H86874   7.602   5.725   6.433  2.9404 -0.4728  2.9125
  630MOL0     H86875   7.476   5.878   6.294 -0.5771  0.5835  0.7664
  630MOL0     H86876   7.515   6.012   6.398  0.2626  1.2057 -2.6006
  630MOL0     H86877   7.656   6.007   6.177  0.5716 -2.4635 -1.7937
  630MOL0     H86878   7.755   6.007   6.327  2.1013 -1.9432  0.6660
  630MOL0     H86879   7.777   5.756   6.299  0.5761  0.5865  0.9196
  630MOL0     H86880   7.657   5.761   6.164 -0.8613 -1.0793  1.8975
  630MOL0     H86881   7.929   5.919   6.176  0.5303 -1.3978  1.7761
  630MOL0     H86882   7.833   5.877   6.033  0.5049  0.1475  0.3714
  630MOL0     H86883   7.962   5.671   6.212  0.8626  2.6195  1.1525
  630MOL0     H86884   7.909   5.649   6.041 -0.2311 -1.2136  1.3739
  630MOL0     H86885   8.149   5.832   6.128  1.8766 -1.1764 -0.0163
  630MOL0     H86886   8.073   5.819   5.968  0.4636 -0.5034 -0.5319
  630MOL0     H86887   8.143   5.609   5.932 -3.6671 -2.1822  2.3116
  630MOL0     H86888   8.289   5.693   5.991 -1.7928  0.2046 -3.1460
  630MOL0     H86889   8.006   5.448   6.106 -0.2125  1.4302 -0.3417
  630MOL0     H86890   7.994   5.321   6.349 -0.4319 -1.2152 -0.6338
  630MOL0     H86891   8.134   5.286   6.452  0.3741  1.9925 -0.2324
  630MOL0     H86892   8.014   5.079   6.360 -0.4219 -2.8632 -2.9804
  630MOL0     H86893   8.047   5.143   6.198 -0.1590  1.5421 -0.0249
  630MOL0     H86894   8.210   4.968   6.295  0.9875 -0.2845  1.5087
  630MOL0     H86895   8.265   5.095   6.200  0.0200 -0.2128 -0.1668
  630MOL0     H86896   8.412   5.039   6.382 -0.0044 -0.8668 -2.0724
  630MOL0     H86897   8.363   5.215   6.398 -0.6868 -0.9708 -0.9008
  630MOL0     H86898   8.234   5.054   6.788  0.8157  0.7908  1.0532
  630MOL0     H86899   8.269   5.055   7.027 -0.9210 -3.1805 -2.4865
  630MOL0     H86900   8.430   5.106   7.091 -1.1889 -0.0544  0.1523
  630MOL0     H86901   8.401   4.937   7.043  1.9513 -0.2462 -1.1681
  630MOL0     H86902   8.929   5.365   6.994  0.4691  0.2839 -0.0426
  630MOL0     H86903   9.139   5.390   7.113  0.3148 -0.8008 -1.2879
  630MOL0     H86904   9.300   4.996   7.278 -0.8325  0.5156 -0.2182
  630MOL0     H86905   9.422   5.073   7.166 -2.6638 -0.9764 -2.0108
  630MOL0     H86906   9.479   5.220   7.342 -3.0267  0.3985 -2.3976
  630MOL0     H86907   9.381   5.136   7.465 -0.0917  0.2785  0.6924
  630MOL0     H86908   9.614   5.012   7.308  0.1751  0.3446 -1.0156
  630MOL0     H86909   9.503   4.927   7.416  0.1598  0.8993 -3.9186
  630MOL0     H86910   9.607   5.014   7.608 -0.3875  0.5623 -0.1374
  630MOL0     H86911   9.634   5.168   7.525  0.9968  0.6629 -1.3029
  630MOL0     H86912   9.807   5.088   7.381  0.8667 -1.6935 -0.9123
  630MOL0     H86913   9.854   5.060   7.556  0.3152 -1.8358 -0.4691
  630MOL0     H86914   9.756   4.853   7.351  1.8088 -0.1689 -1.0141
  630MOL0     H86915   9.769   4.832   7.524 -2.9569 -0.4539 -2.5372
  630MOL0     H86916  10.011   4.908   7.489 -2.5641 -0.3983  1.5202
  630MOL0     H86917   9.973   4.910   7.314 -2.6262  2.8575  0.3622
  630MOL0     H86918   9.952   4.670   7.288 -0.1078 -1.6005  0.8168
  630MOL0     H86919   9.930   4.645   7.451  2.1305 -3.6987 -0.4454
  630MOL0     H86920   9.112   4.959   7.186 -1.0075 -0.9621 -1.0323
  630MOL0     H86921   8.910   4.943   7.081  3.1827 -1.8454 -0.9807
  630MOL0     H86922   8.705   5.106   6.688  0.4178  1.2188  1.1608
  630MOL0     H86923   8.548   5.111   6.515  0.9607 -1.6113 -0.5521
  630MOL0     H86924   7.726   6.116   6.603  1.0931 -4.7836 -0.1560
  630MOL0     H86925   7.633   6.272   6.780  0.0680  0.9711 -2.7804
  630MOL0     H86926   7.478   6.329   7.180 -0.5080  1.5680 -0.9840
  630MOL0     H86927   7.430   6.435   7.388 -0.8435 -0.3036 -0.1349
  630MOL0     H86928   7.360   6.567   7.559  1.1417 -1.7554 -2.2542
  630MOL0     H86929   7.322   6.660   7.409 -1.9444  0.8937 -1.5902
  630MOL0     H86930   7.167   6.690   7.665  0.8316 -1.7306 -0.0998
  630MOL0     H86931   7.116   6.760   7.518 -0.4478 -0.3199 -0.8029
  630MOL0     H86932   7.308   6.909   7.506  0.6301  0.9698  0.4396
  630MOL0     H86933   7.228   6.922   7.662 -2.5397 -0.9708 -0.8199
  630MOL0     H86934   7.408   6.795   7.767  0.7009  1.3127  0.2425
  630MOL0     H86935   7.447   6.953   7.712 -1.1874 -0.0923  1.2632
  630MOL0     H86936   7.712   6.682   7.511 -0.1385 -0.6758 -0.5910
  630MOL0     H86937   7.015   6.426   7.295  0.2732 -1.2049  2.5417
  630MOL0     H86938   7.011   6.377   6.984  1.9255  0.4675 -0.1328
  630MOL0     H86939   6.988   6.208   7.030  0.9095 -0.3737 -0.5885
  630MOL0     H86940   6.924   6.327   7.140  1.9743  2.4983 -0.2352
  631MOL0     O86941   3.286   1.355   7.984  0.0061  0.1579  0.5235
  631MOL0     C86942   3.270   1.437   7.895 -0.1713 -0.3849 -0.4885
  631MOL0     O86943   3.358   1.534   7.875 -0.7183 -0.3496 -0.8384
  631MOL0     C86944   3.463   1.548   7.967  0.1589  0.7524 -0.4258
  631MOL0     C86945   3.456   1.621   8.088 -0.5144  0.3858  0.3752
  631MOL0     C86946   3.571   1.618   8.179 -0.3050 -0.3896  0.7194
  631MOL0     C86947   3.684   1.542   8.151 -0.8136  0.6210 -0.0926
  631MOL0     O86948   3.801   1.529   8.228  0.1864 -0.0848 -0.0461
  631MOL0     C86949   3.818   1.598   8.353  0.8050 -0.6010  0.8401
  631MOL0     C86950   3.942   1.542   8.436 -1.0827  0.5544  0.3167
  631MOL0     C86951   3.963   1.606   8.573 -0.2252  0.8795  0.0001
  631MOL0     C86952   3.885   1.531   8.682  0.0491 -0.5469 -0.0548
  631MOL0     C86953   3.900   1.569   8.831  0.3839  0.4256 -1.0286
  631MOL0     C86954   3.822   1.480   8.929 -0.5258  0.2355  0.1415
  631MOL0     C86955   3.674   1.518   8.924  0.2081 -0.3556  0.1504
  631MOL0     C86956   3.605   1.476   9.056  0.9069 -0.3981  0.9012
  631MOL0     N86957   3.603   1.322   9.073  0.5745 -0.3672  0.9479
  631MOL0     C86958   3.543   1.234   8.998 -0.5160  0.7319  0.3035
  631MOL0     C86959   3.579   1.104   9.046  0.3226  0.0111  0.4020
  631MOL0     C86960   3.543   0.979   8.988 -0.2472  0.3087 -0.1507
  631MOL0     C86961   3.395   0.937   9.035 -0.4105 -0.1635  0.1602
  631MOL0     C86962   3.360   0.797   8.984  0.1745  0.3650  0.0224
  631MOL0     C86963   3.449   0.682   9.048  0.3332 -0.3497 -0.1229
  631MOL0     O86964   3.448   0.675   9.194 -0.9407  0.0185  0.2328
  631MOL0     C86965   3.557   0.612   9.248 -0.7277  0.8631  0.3870
  631MOL0     C86966   3.590   0.630   9.383  0.1406 -0.4799  0.1409
  631MOL0     C86967   3.690   0.555   9.440  0.4935  0.3531 -0.6558
  631MOL0     C86968   3.715   0.579   9.595  0.4097 -0.7192  0.7807
  631MOL0     C86969   3.761   0.460   9.364 -0.2634  0.4214 -0.3599
  631MOL0     C86970   3.876   0.389   9.426 -0.1437 -0.2478 -0.0768
  631MOL0     O86971   3.995   0.405   9.362  0.7198  0.8613 -0.3348
  631MOL0     C86972   4.091   0.320   9.408 -0.7341 -0.4469  0.0451
  631MOL0     C86973   4.173   0.359   9.514  0.3870  0.3798  0.6628
  631MOL0     C86974   4.279   0.280   9.564  0.4405  0.0512 -0.8134
  631MOL0     C86975   4.297   0.150   9.509 -0.0444 -0.3048 -0.0349
  631MOL0     O86976   4.399   0.077   9.555 -0.0284  0.8568  0.3914
  631MOL0     C86977   4.396   0.060   9.705  0.8648 -0.6912  0.3466
  631MOL0     C86978   4.466  -0.075   9.743 -0.1753  0.4819 -0.5376
  631MOL0     C86979   4.544  -0.047   9.881 -0.3482  0.4482  1.1578
  631MOL0     C86980   4.610  -0.175   9.920 -0.0277  0.1263 -0.0802
  631MOL0     C86981   4.719  -0.154  10.035  0.2938 -0.5014  0.6613
  631MOL0     C86982   4.663  -0.093  10.166  0.1363 -0.6158  0.1528
  631MOL0     C86983   4.746  -0.129  10.288  0.5335  0.0576 -1.1839
  631MOL0     C86984   4.755  -0.275  10.318  0.1068 -0.5517  0.6169
  631MOL0    Cl86985   4.789  -0.320  10.489  0.3185 -0.0940 -0.3492
  631MOL0     C86986   4.218   0.114   9.404 -0.4466  0.6423  0.8443
  631MOL0     C86987   4.115   0.189   9.360 -0.5157  0.7846  0.2362
  631MOL0     O86988   3.856   0.313   9.518 -0.1391 -0.4853 -0.0317
  631MOL0     C86989   3.731   0.449   9.223  0.0321  0.2883 -0.0698
  631MOL0     C86990   3.629   0.519   9.174  0.0068 -0.7739 -0.1793
  631MOL0     N86991   3.665   1.135   9.154 -0.0778  0.3934 -0.4015
  631MOL0     N86992   3.675   1.264   9.173  0.1896  0.1026  0.2008
  631MOL0     C86993   3.688   1.470   8.030 -0.1822  0.9366  0.8738
  631MOL0     C86994   3.580   1.471   7.946 -1.1086  0.3193 -0.6494
  631MOL0     C86995   3.153   1.432   7.799 -0.7581 -0.2029 -1.1371
  631MOL0     C86996   3.034   1.399   7.864 -0.0847  0.4651 -0.6489
  631MOL0     C86997   2.920   1.369   7.790 -0.1810  0.5381  0.3350
  631MOL0     C86998   2.924   1.392   7.653 -0.3116 -0.2230 -0.0863
  631MOL0     O86999   2.812   1.384   7.572 -0.4542  0.2623 -0.2517
  631MOL0     C87000   2.688   1.333   7.619  0.9022  0.1264  0.3029
  631MOL0     C87001   2.598   1.355   7.501 -0.2356 -0.4580  0.5045
  631MOL0     C87002   2.463   1.287   7.533 -0.5105 -0.1816  0.1676
  631MOL0     C87003   2.363   1.306   7.419  0.5017 -0.7870  0.6630
  631MOL0     C87004   2.361   1.205   7.308  0.0617  0.2911 -0.4100
  631MOL0     C87005   2.378   1.127   7.220 -0.0403  0.3356  0.5822
  631MOL0     C87006   3.041   1.443   7.592 -0.7725  0.0682 -0.2039
  631MOL0     C87007   3.162   1.464   7.663 -0.1375 -0.1017  0.1347
  631MOL0     C87008   3.294   1.497   7.584 -0.0098  0.5827 -0.0212
  631MOL0     H87009   3.361   1.670   8.106 -1.2944 -1.5334  1.8915
  631MOL0     H87010   3.559   1.686   8.263  0.9309  0.4168  0.2733
  631MOL0     H87011   3.729   1.588   8.416 -0.0896 -2.3666 -0.6168
  631MOL0     H87012   3.838   1.704   8.334  0.4044 -0.5994  0.4296
  631MOL0     H87013   3.919   1.436   8.450 -2.1757  0.9262  1.6234
  631MOL0     H87014   4.029   1.540   8.370 -1.9019  1.1024 -0.8164
  631MOL0     H87015   4.070   1.601   8.595 -0.3717 -1.8724  0.4082
  631MOL0     H87016   3.942   1.712   8.557 -1.1429  0.5488 -1.0822
  631MOL0     H87017   3.784   1.560   8.654  1.5410  3.5627 -1.9969
  631MOL0     H87018   3.906   1.423   8.678 -1.1434 -0.7708 -0.5470
  631MOL0     H87019   3.868   1.672   8.851  3.5422  1.1470  1.0939
  631MOL0     H87020   4.004   1.565   8.866  0.4237 -1.2852 -1.2885
  631MOL0     H87021   3.829   1.376   8.897  0.5456  0.6769 -1.1675
  631MOL0     H87022   3.867   1.485   9.028 -3.2612  1.0153  1.4655
  631MOL0     H87023   3.630   1.467   8.838  0.9052  0.0749 -0.4678
  631MOL0     H87024   3.671   1.626   8.905 -0.0007 -0.7004 -1.9329
  631MOL0     H87025   3.652   1.518   9.145 -0.1323 -1.7443  2.1427
  631MOL0     H87026   3.500   1.507   9.055  1.1668  0.5169 -0.4386
  631MOL0     H87027   3.490   1.246   8.904  1.5970  1.8561 -0.8211
  631MOL0     H87028   3.619   0.906   9.017 -0.6483  0.3881  1.1653
  631MOL0     H87029   3.544   0.997   8.880 -3.2939  1.2921 -0.1319
  631MOL0     H87030   3.389   0.937   9.144 -1.4078  0.5740  0.1224
  631MOL0     H87031   3.323   1.011   8.999 -0.6897 -0.4735  0.0816
  631MOL0     H87032   3.256   0.774   9.009  0.9154 -0.8215  2.3497
  631MOL0     H87033   3.374   0.796   8.876  1.1888  1.2016  0.1306
  631MOL0     H87034   3.419   0.586   9.005  0.3632  0.4743 -2.1149
  631MOL0     H87035   3.553   0.692   9.016  0.0309 -1.8354 -1.7127
  631MOL0     H87036   3.535   0.701   9.443  1.8897 -0.3070  1.6339
  631MOL0     H87037   3.647   0.515   9.652 -2.1003 -0.2957 -1.5273
  631MOL0     H87038   3.680   0.679   9.624  0.5461 -0.4687  0.1030
  631MOL0     H87039   3.819   0.552   9.616  0.5138 -1.8593 -1.0360
  631MOL0     H87040   4.156   0.460   9.550  0.0117  0.5789 -0.0669
  631MOL0     H87041   4.322   0.313   9.657 -3.0276  1.1808  0.5712
  631MOL0     H87042   4.457   0.141   9.745 -0.4185  0.4617  0.0682
  631MOL0     H87043   4.297   0.049   9.752  0.8752 -0.5934  0.3895
  631MOL0     H87044   4.395  -0.156   9.756 -0.0109  0.5765  1.2713
  631MOL0     H87045   4.531  -0.095   9.657 -0.2140  0.7557 -0.6326
  631MOL0     H87046   4.474  -0.018   9.959 -1.5771  1.8585 -0.3988
  631MOL0     H87047   4.615   0.035   9.864 -1.4566  1.0719 -0.7953
  631MOL0     H87048   4.663  -0.217   9.833 -3.4880 -3.5421 -0.6971
  631MOL0     H87049   4.532  -0.242   9.958  0.3298  1.6341  3.7615
  631MOL0     H87050   4.758  -0.252  10.064 -0.3289 -0.9741 -0.0585
  631MOL0     H87051   4.802  -0.092  10.000  0.4768  1.9784  4.7108
  631MOL0     H87052   4.561  -0.130  10.181  0.5097 -0.8804  2.4496
  631MOL0     H87053   4.652   0.015  10.160 -0.4200 -0.6175  0.9674
  631MOL0     H87054   4.698  -0.069  10.366 -0.8808  2.2270 -3.5639
  631MOL0     H87055   4.849  -0.095  10.280  0.1254  1.7166  0.0695
  631MOL0     H87056   4.838  -0.312  10.258 -1.2177  0.0436 -1.7017
  631MOL0     H87057   4.668  -0.321  10.271  0.8122  0.2190 -1.5594
  631MOL0     H87058   4.228   0.026   9.341 -2.1405 -0.6476  2.2628
  631MOL0     H87059   4.051   0.155   9.279 -0.5176  1.2569  0.0399
  631MOL0     H87060   3.783   0.369   9.170  0.8593 -0.7364  2.1579
  631MOL0     H87061   3.590   0.484   9.078 -2.0411  1.0115 -0.0923
  631MOL0     H87062   3.775   1.412   8.000  0.2474  1.5892  0.8348
  631MOL0     H87063   3.589   1.406   7.860  1.4367  0.2723 -0.4259
  631MOL0     H87064   3.025   1.373   7.969  0.1814  0.9932 -0.4966
  631MOL0     H87065   2.822   1.357   7.834 -0.2803  1.8716  0.4930
  631MOL0     H87066   2.694   1.228   7.649  0.8813 -0.3250 -1.2023
  631MOL0     H87067   2.661   1.393   7.707  0.2201  1.9665 -1.0940
  631MOL0     H87068   2.642   1.301   7.417  0.0011 -2.0228  1.5798
  631MOL0     H87069   2.578   1.462   7.488 -2.4710 -0.7544  1.0763
  631MOL0     H87070   2.479   1.181   7.555  1.2847  0.3344  1.5816
  631MOL0     H87071   2.427   1.329   7.627  0.3681 -1.0082  0.8937
  631MOL0     H87072   2.371   1.408   7.379  0.5114 -0.5861  1.1686
  631MOL0     H87073   2.262   1.306   7.462  0.1203 -2.0234 -0.1760
  631MOL0     H87074   2.394   1.065   7.134  1.6903  0.4342  0.8000
  631MOL0     H87075   3.039   1.465   7.485  0.7764  1.0476 -0.0588
  631MOL0     H87076   3.331   1.599   7.599  1.5623 -0.0402  0.6176
  631MOL0     H87077   3.378   1.435   7.617 -0.3529  1.7764  3.5769
  631MOL0     H87078   3.278   1.486   7.477  0.7543 -2.3774  0.0773
  632MOL0     O87079   2.902   7.648   9.552 -0.4418  0.3586 -0.0750
  632MOL0     C87080   2.866   7.601   9.442  0.1514 -0.4300 -0.3019
  632MOL0     O87081   2.937   7.529   9.356 -0.1132 -0.1327  0.4275
  632MOL0     C87082   3.072   7.511   9.375  0.4971 -0.3392 -0.2042
  632MOL0     C87083   3.153   7.604   9.319 -0.7728  0.9213  0.1605
  632MOL0     C87084   3.290   7.598   9.349  0.5694  0.1118 -0.2775
  632MOL0     C87085   3.349   7.492   9.418 -0.1874 -0.6610  0.7444
  632MOL0     O87086   3.486   7.466   9.442 -0.1979  0.1250 -0.0756
  632MOL0     C87087   3.577   7.536   9.352 -0.6690  0.1907 -0.2048
  632MOL0     C87088   3.721   7.498   9.371  0.0987  0.1881 -1.1601
  632MOL0     C87089   3.739   7.344   9.368  0.3068  0.5188  0.5390
  632MOL0     C87090   3.710   7.267   9.234  0.3072 -0.9243 -0.6517
  632MOL0     C87091   3.787   7.330   9.114  0.0248  0.8117  1.2583
  632MOL0     C87092   3.788   7.260   8.978  0.3400  0.1983 -0.7364
  632MOL0     C87093   3.652   7.196   8.943 -0.3927 -0.0920  1.0197
  632MOL0     C87094   3.643   7.149   8.796  0.2265  0.4870 -0.6232
  632MOL0     N87095   3.752   7.050   8.769 -0.0306 -0.1119 -0.1825
  632MOL0     C87096   3.730   6.915   8.754 -0.8116  0.3199  0.1107
  632MOL0     C87097   3.855   6.861   8.736 -0.0525  0.2668  0.7892
  632MOL0     C87098   3.879   6.718   8.705 -0.8260 -0.7675 -0.3790
  632MOL0     C87099   3.863   6.633   8.826  0.1917  1.0313 -0.3549
  632MOL0     C87100   3.834   6.496   8.767 -0.7029 -0.2178  1.0215
  632MOL0     C87101   3.866   6.385   8.860 -0.0794  0.3692 -0.0895
  632MOL0     O87102   3.784   6.389   8.983  0.1334 -0.3916  0.0802
  632MOL0     C87103   3.820   6.311   9.091 -0.2624 -0.3257  0.1806
  632MOL0     C87104   3.739   6.305   9.209 -0.2580 -0.0623 -0.5497
  632MOL0     C87105   3.774   6.238   9.327  0.2165  0.2382  0.0759
  632MOL0     C87106   3.679   6.242   9.441 -0.6268 -0.0313 -0.3746
  632MOL0     C87107   3.901   6.170   9.337  0.2498 -0.2331 -0.2364
  632MOL0     C87108   3.959   6.099   9.450  1.3180  0.2000  0.4043
  632MOL0     O87109   4.073   6.023   9.428 -0.2312 -0.1613 -0.2924
  632MOL0     C87110   4.120   5.923   9.517 -0.6930 -0.0748  0.0420
  632MOL0     C87111   4.173   5.952   9.645  0.5913  0.1242  0.6398
  632MOL0     C87112   4.239   5.857   9.719 -0.1785 -0.2105 -0.5103
  632MOL0     C87113   4.245   5.723   9.676 -0.6112 -0.8257  0.3925
  632MOL0     O87114   4.306   5.618   9.738 -0.1204 -0.6371  0.5919
  632MOL0     C87115   4.362   5.630   9.868 -0.3848  0.0193  0.0046
  632MOL0     C87116   4.387   5.487   9.927  0.1897 -0.3591  0.0267
  632MOL0     C87117   4.477   5.398   9.826  0.4004 -0.3556 -0.9877
  632MOL0     C87118   4.546   5.285   9.911  1.2058 -0.5087  0.4111
  632MOL0     C87119   4.664   5.230   9.842 -0.1618  0.2150  0.0695
  632MOL0     C87120   4.625   5.143   9.716 -0.5250  0.2566  0.2183
  632MOL0     C87121   4.732   5.034   9.675 -0.6586 -0.5173  0.2124
  632MOL0     C87122   4.873   5.081   9.640 -0.0056  0.4126 -0.5911
  632MOL0    Cl87123   4.891   5.179   9.495 -0.3374  0.0679 -0.0612
  632MOL0     C87124   4.179   5.691   9.556 -0.8535  0.4547 -0.2033
  632MOL0     C87125   4.118   5.791   9.472  0.0481  0.9034 -0.1225
  632MOL0     O87126   3.897   6.099   9.556  0.3383 -0.1050  0.0414
  632MOL0     C87127   3.971   6.172   9.224 -0.1791  0.6203 -0.5258
  632MOL0     C87128   3.936   6.235   9.101 -0.2562 -0.1523 -0.8472
  632MOL0     N87129   3.952   6.957   8.727  0.0561 -0.3235 -0.7222
  632MOL0     N87130   3.887   7.065   8.752  0.0961 -0.9811 -0.1325
  632MOL0     C87131   3.265   7.398   9.471 -0.2170  0.0483  0.1269
  632MOL0     C87132   3.129   7.403   9.451 -0.4000  0.3752 -0.3735
  632MOL0     C87133   2.722   7.612   9.415 -0.1179  0.3879  0.7260
  632MOL0     C87134   2.667   7.549   9.300 -0.4002  0.0244 -0.0487
  632MOL0     C87135   2.531   7.552   9.265 -0.3634  0.7848 -0.7170
  632MOL0     C87136   2.447   7.634   9.345  0.1806 -0.3699  0.5465
  632MOL0     O87137   2.323   7.638   9.289 -0.1557 -0.2080 -0.0168
  632MOL0     C87138   2.228   7.715   9.362 -0.3469  0.2709  0.1378
  632MOL0     C87139   2.187   7.652   9.490 -0.6353  0.2334 -0.8525
  632MOL0     C87140   2.145   7.502   9.476 -0.2201  0.2154 -0.4478
  632MOL0     C87141   2.123   7.430   9.612  0.5833  0.0586 -0.1606
  632MOL0     C87142   2.141   7.286   9.599 -1.1723  0.7553 -0.0457
  632MOL0     C87143   2.127   7.162   9.594  0.2595 -0.7442  0.0507
  632MOL0     C87144   2.500   7.702   9.458  0.7730  0.4818 -0.0220
  632MOL0     C87145   2.631   7.697   9.491 -0.4188 -0.3002 -0.1116
  632MOL0     C87146   2.672   7.787   9.610  0.1817  0.3914  0.1339
  632MOL0     H87147   3.103   7.688   9.272 -2.0451 -0.1266 -0.4483
  632MOL0     H87148   3.353   7.670   9.297  0.4903  0.6607  0.3739
  632MOL0     H87149   3.568   7.643   9.373 -1.2389 -0.2552  2.2011
  632MOL0     H87150   3.549   7.505   9.251  0.1902  1.6868 -0.9293
  632MOL0     H87151   3.786   7.553   9.302  0.4731  3.1998  1.3634
  632MOL0     H87152   3.736   7.537   9.472 -1.9524  2.3869 -1.5992
  632MOL0     H87153   3.844   7.317   9.383  0.5584 -0.0664 -1.8863
  632MOL0     H87154   3.681   7.300   9.449  0.6047 -0.8590  0.0345
  632MOL0     H87155   3.750   7.166   9.240  2.5341 -0.1592 -1.4438
  632MOL0     H87156   3.605   7.267   9.205  0.1369  2.4092 -0.4798
  632MOL0     H87157   3.890   7.350   9.145  1.1817 -2.8942  0.3461
  632MOL0     H87158   3.733   7.424   9.098 -3.3378 -1.0419  0.8067
  632MOL0     H87159   3.816   7.330   8.899 -0.6792 -0.7017 -1.9305
  632MOL0     H87160   3.866   7.185   8.992  1.2097  1.2122  0.0420
  632MOL0     H87161   3.565   7.262   8.950 -1.6926 -1.8430  2.4949
  632MOL0     H87162   3.625   7.114   9.010  1.5024 -0.9612  0.7746
  632MOL0     H87163   3.552   7.092   8.774  1.6463 -1.1920 -2.6592
  632MOL0     H87164   3.648   7.240   8.736  1.4670  1.1893  0.5078
  632MOL0     H87165   3.634   6.867   8.765 -0.9566  0.3436 -0.8838
  632MOL0     H87166   3.981   6.709   8.666 -1.1889 -1.7945 -1.1275
  632MOL0     H87167   3.817   6.693   8.619  0.6495 -2.2853 -1.0498
  632MOL0     H87168   3.960   6.620   8.877  0.9971 -2.9640 -2.4845
  632MOL0     H87169   3.789   6.671   8.897 -0.0825 -1.5194  0.8352
  632MOL0     H87170   3.726   6.486   8.750 -0.5082 -0.5563 -0.1099
  632MOL0     H87171   3.882   6.482   8.670 -2.8106  0.6568 -0.1910
  632MOL0     H87172   3.854   6.286   8.815 -2.0586 -0.5627  2.2466
  632MOL0     H87173   3.974   6.399   8.875 -0.6687  2.3703  3.6483
  632MOL0     H87174   3.648   6.363   9.213  1.0548  2.2458 -1.7030
  632MOL0     H87175   3.717   6.292   9.531 -1.6264 -4.9073  3.1513
  632MOL0     H87176   3.674   6.137   9.471  0.2367  0.2106  0.6899
  632MOL0     H87177   3.577   6.264   9.411 -0.1642  1.5561 -0.8956
  632MOL0     H87178   4.183   6.052   9.687  1.5895 -0.1759  1.1339
  632MOL0     H87179   4.288   5.887   9.812 -2.0374 -1.6079  1.0100
  632MOL0     H87180   4.453   5.690   9.859 -0.5311  0.4200  1.0069
  632MOL0     H87181   4.293   5.689   9.930  0.2993  0.9343 -0.0785
  632MOL0     H87182   4.428   5.505  10.026  2.9126 -0.5987 -0.9624
  632MOL0     H87183   4.292   5.435   9.943  0.6163 -1.2723 -0.3474
  632MOL0     H87184   4.560   5.461   9.796  0.7594 -0.1108  0.4533
  632MOL0     H87185   4.423   5.361   9.739  0.0653 -1.5291 -0.3102
  632MOL0     H87186   4.476   5.203   9.931  0.9650 -0.8313 -1.5552
  632MOL0     H87187   4.596   5.315  10.003 -2.1707  2.0592  1.6290
  632MOL0     H87188   4.740   5.300   9.808  0.0426 -0.9847 -2.1683
  632MOL0     H87189   4.720   5.167   9.912  1.3775  0.1464 -1.1858
  632MOL0     H87190   4.619   5.208   9.629 -0.5258  0.1996  0.1764
  632MOL0     H87191   4.533   5.090   9.741  0.4274 -0.9070  1.4151
  632MOL0     H87192   4.693   4.974   9.592  0.8556  0.9884 -1.7267
  632MOL0     H87193   4.731   4.981   9.770  3.3486  1.2198  1.4592
  632MOL0     H87194   4.929   4.988   9.625 -1.6077 -1.2131  2.4626
  632MOL0     H87195   4.917   5.133   9.725 -0.2822 -2.1774  1.2409
  632MOL0     H87196   4.168   5.591   9.515 -1.2025 -0.3319  1.7242
  632MOL0     H87197   4.077   5.781   9.372  1.2004  0.0989 -0.5296
  632MOL0     H87198   4.072   6.135   9.240 -0.7692  0.2130  3.1060
  632MOL0     H87199   4.014   6.238   9.026  1.0524  2.4964  0.4618
  632MOL0     H87200   3.307   7.324   9.539  1.4891 -0.2470 -1.1887
  632MOL0     H87201   3.068   7.326   9.499  1.9653 -0.5722  1.2907
  632MOL0     H87202   2.734   7.500   9.229  1.3022 -0.1741  1.6140
  632MOL0     H87203   2.492   7.497   9.180 -0.2122 -2.9909  1.4770
  632MOL0     H87204   2.276   7.810   9.388  2.2135 -1.2370  1.3027
  632MOL0     H87205   2.138   7.723   9.300 -0.0270 -2.7464 -0.8941
  632MOL0     H87206   2.112   7.722   9.529  0.6192  2.0314 -1.5530
  632MOL0     H87207   2.269   7.649   9.562 -0.6207  0.2458 -0.8684
  632MOL0     H87208   2.062   7.489   9.406 -1.0304  0.5492  0.4389
  632MOL0     H87209   2.232   7.465   9.421 -1.4340  0.3404 -2.5767
  632MOL0     H87210   2.026   7.459   9.652 -0.2274 -1.3002 -1.0399
  632MOL0     H87211   2.192   7.468   9.687 -0.9142  0.6906  0.9483
  632MOL0     H87212   2.118   7.056   9.586  1.6644 -1.2009  3.1283
  632MOL0     H87213   2.444   7.765   9.527  1.1672  0.8638 -0.0401
  632MOL0     H87214   2.769   7.836   9.604  0.8075 -0.6781  1.0749
  632MOL0     H87215   2.597   7.867   9.612 -0.5526 -0.2811  0.1252
  632MOL0     H87216   2.656   7.734   9.705  1.1993 -0.4001 -0.1208
  633MOL0     O87217   9.729   0.648   0.184  0.0826  0.1975  0.2744
  633MOL0     C87218   9.657   0.607   0.274  0.1703  0.6027  0.3752
  633MOL0     O87219   9.698   0.621   0.412  0.1036 -0.1322 -0.6074
  633MOL0     C87220   9.815   0.692   0.432 -0.4513  0.7723  0.3950
  633MOL0     C87221   9.939   0.647   0.384 -0.1243  0.5293  0.2833
  633MOL0     C87222  10.054   0.724   0.405  0.0614  0.8604 -0.1864
  633MOL0     C87223  10.045   0.839   0.482 -0.2314 -0.4138  0.1857
  633MOL0     O87224  10.158   0.913   0.514 -0.3245 -0.5441  0.3542
  633MOL0     C87225  10.184   0.946   0.651 -0.1958  0.6297  0.3034
  633MOL0     C87226  10.336   0.987   0.679 -0.2240  0.0478  0.0282
  633MOL0     C87227  10.369   0.976   0.833 -0.0913  0.0292  0.5931
  633MOL0     C87228  10.488   1.058   0.860 -0.0688  0.0970  0.6004
  633MOL0     C87229  10.487   1.103   1.008  0.2688 -0.3413 -0.1012
  633MOL0     C87230  10.564   1.229   1.041  0.0550 -0.2322  0.2853
  633MOL0     C87231  10.720   1.209   1.058  0.4990 -0.1036  0.3415
  633MOL0     C87232  10.804   1.335   1.066  0.2208  1.3431  0.8938
  633MOL0     N87233  10.765   1.406   1.183  0.3786 -0.2275 -0.5301
  633MOL0     C87234  10.848   1.428   1.290 -0.2143  0.2512  1.3462
  633MOL0     C87235  10.779   1.520   1.365 -0.6558  0.5708 -0.3828
  633MOL0     C87236  10.799   1.575   1.500 -0.9759  0.7127  0.1113
  633MOL0     C87237  10.818   1.475   1.615 -0.4747  0.4472  0.4388
  633MOL0     C87238  10.707   1.367   1.624 -0.4301  0.0827 -0.3708
  633MOL0     C87239  10.570   1.431   1.641  0.3996 -0.5885 -0.6775
  633MOL0     O87240  10.467   1.345   1.704  0.0028  0.3673  0.6169
  633MOL0     C87241  10.393   1.271   1.622 -0.4446  0.4291 -0.8759
  633MOL0     C87242  10.294   1.195   1.687  0.7103  0.1497 -0.3027
  633MOL0     C87243  10.204   1.114   1.611  1.1910 -0.5473  0.2027
  633MOL0     C87244  10.079   1.062   1.687 -0.6741 -0.3567  0.3486
  633MOL0     C87245  10.226   1.094   1.470  0.4864  0.4579 -0.1467
  633MOL0     C87246  10.162   0.988   1.393 -0.1359 -0.6985  0.8946
  633MOL0     O87247  10.176   1.004   1.257  0.3103 -1.2329  0.0666
  633MOL0     C87248  10.137   0.901   1.176  0.6592  0.0737  0.5290
  633MOL0     C87249  10.008   0.898   1.127  0.2389  0.2302  0.4254
  633MOL0     C87250   9.968   0.814   1.019 -0.0222 -0.3760 -0.3467
  633MOL0     C87251  10.058   0.723   0.973  0.1614  0.2304  0.3974
  633MOL0     O87252  10.014   0.626   0.887 -0.5679 -0.3220 -0.4315
  633MOL0     C87253   9.916   0.531   0.944  0.0417  0.0774 -0.4672
  633MOL0     C87254   9.885   0.430   0.827  0.5578 -0.2048  0.2452
  633MOL0     C87255   9.795   0.318   0.867  0.4525  1.4942 -0.7248
  633MOL0     C87256   9.648   0.356   0.873  0.4297 -0.0129  0.5863
  633MOL0     C87257   9.550   0.233   0.882 -0.5510 -0.8152 -0.0787
  633MOL0     C87258   9.550   0.165   0.752 -0.5133 -0.0173 -0.0366
  633MOL0     C87259   9.422   0.071   0.730  0.0382  0.1192  0.1354
  633MOL0     C87260   9.385   0.061   0.583 -0.4167 -0.5530 -0.7731
  633MOL0    Cl87261   9.477  -0.047   0.483 -0.3752  0.0276 -0.3768
  633MOL0     C87262  10.189   0.718   1.025  1.2277  0.3679  0.2370
  633MOL0     C87263  10.233   0.811   1.123  0.5452  0.0750  0.0462
  633MOL0     O87264  10.100   0.895   1.447  0.0467  0.0422 -0.3352
  633MOL0     C87265  10.336   1.156   1.409 -0.4659 -0.0954  0.3900
  633MOL0     C87266  10.419   1.240   1.485  0.4745  0.4616  0.0300
  633MOL0     N87267  10.656   1.545   1.302 -0.7792 -0.1683  0.7970
  633MOL0     N87268  10.657   1.485   1.191 -0.0956 -0.2788 -0.0012
  633MOL0     C87269   9.920   0.892   0.510  0.0190 -1.1831 -0.0851
  633MOL0     C87270   9.806   0.819   0.491 -0.1561  0.0222  0.4013
  633MOL0     C87271   9.531   0.554   0.235  0.1826  0.3146 -0.5128
  633MOL0     C87272   9.512   0.512   0.101 -0.2160 -0.6521  0.0378
  633MOL0     C87273   9.398   0.468   0.039  0.7381 -0.0676 -0.4322
  633MOL0     C87274   9.284   0.460   0.120 -0.0761 -0.2049  0.5783
  633MOL0     O87275   9.163   0.406   0.069 -0.4494 -0.4257 -0.8304
  633MOL0     C87276   9.040   0.473   0.113 -0.5269 -0.0108 -0.0570
  633MOL0     C87277   8.915   0.422   0.044 -0.0897  0.5027 -0.1979
  633MOL0     C87278   8.906   0.268   0.058 -0.5780  0.3597 -0.4625
  633MOL0     C87279   8.777   0.206   0.012 -0.1899  0.2192  0.1927
  633MOL0     C87280   8.658   0.263   0.066 -1.0154  0.6920 -0.6861
  633MOL0     C87281   8.554   0.295   0.119 -0.4796 -0.0336 -0.5204
  633MOL0     C87282   9.297   0.496   0.254 -0.3851 -0.4040 -0.7408
  633MOL0     C87283   9.415   0.538   0.310 -0.0526 -0.5868 -0.3513
  633MOL0     C87284   9.420   0.555   0.461 -0.4602  0.7297  0.2151
  633MOL0     H87285   9.940   0.546   0.345 -2.2287  0.9092 -0.9160
  633MOL0     H87286  10.150   0.680   0.382 -0.5667  0.0202 -1.3171
  633MOL0     H87287  10.154   0.855   0.705 -0.1688 -0.9408 -2.1899
  633MOL0     H87288  10.117   1.030   0.669 -0.5411  0.4520 -0.1388
  633MOL0     H87289  10.398   0.913   0.628  0.3405  0.4195  0.1774
  633MOL0     H87290  10.347   1.091   0.648 -0.3184  0.0125 -0.1243
  633MOL0     H87291  10.275   0.989   0.888 -1.0102 -2.2974 -0.3065
  633MOL0     H87292  10.396   0.873   0.855  0.0802  0.2144  1.2986
  633MOL0     H87293  10.582   1.011   0.830 -1.1100 -1.5846 -0.1533
  633MOL0     H87294  10.479   1.151   0.802 -1.6470 -1.0666 -1.1418
  633MOL0     H87295  10.525   1.025   1.074 -0.7976 -1.8856 -1.2645
  633MOL0     H87296  10.386   1.129   1.041  0.1426  1.5137 -1.7655
  633MOL0     H87297  10.549   1.312   0.970 -0.2725 -0.8790 -0.4127
  633MOL0     H87298  10.516   1.264   1.133  0.5951 -2.3934  1.4479
  633MOL0     H87299  10.754   1.148   0.973 -1.0045 -0.5818  0.0585
  633MOL0     H87300  10.738   1.135   1.137  0.1391 -2.9253 -2.0323
  633MOL0     H87301  10.912   1.315   1.075  0.5684  0.8613 -2.7935
  633MOL0     H87302  10.797   1.396   0.975 -2.1215  0.3331  0.3317
  633MOL0     H87303  10.942   1.377   1.304  1.1041  1.7632 -1.2594
  633MOL0     H87304  10.708   1.631   1.525 -0.5220  1.1662  0.7895
  633MOL0     H87305  10.887   1.640   1.500 -1.2637  1.2373 -2.7753
  633MOL0     H87306  10.912   1.423   1.598 -0.7379 -0.2628  1.0965
  633MOL0     H87307  10.812   1.527   1.711 -2.8779  0.2326  0.4559
  633MOL0     H87308  10.706   1.310   1.531  0.3502  1.1110 -1.0381
  633MOL0     H87309  10.739   1.301   1.705  1.9986  0.6012 -0.8081
  633MOL0     H87310  10.591   1.508   1.716  3.1063 -1.4909 -0.3860
  633MOL0     H87311  10.531   1.472   1.548  0.6026  0.4769 -0.3004
  633MOL0     H87312  10.270   1.195   1.793  2.5507 -1.9838  0.1947
  633MOL0     H87313  10.069   1.113   1.783  0.9119 -1.1363  0.9610
  633MOL0     H87314  10.090   0.955   1.704 -0.2925 -0.1836  1.2239
  633MOL0     H87315   9.998   1.083   1.617  0.9762 -0.9072 -1.8617
  633MOL0     H87316   9.928   0.968   1.150  0.7897  2.2525 -3.0638
  633MOL0     H87317   9.867   0.827   0.981  0.2573  1.1411 -0.6304
  633MOL0     H87318   9.962   0.475   1.026  0.3588  1.2469  0.1826
  633MOL0     H87319   9.826   0.582   0.980  1.7179  3.0495 -0.0582
  633MOL0     H87320   9.851   0.487   0.741  1.2024 -0.1675  0.0122
  633MOL0     H87321   9.981   0.386   0.798  1.6732  2.2029  0.0938
  633MOL0     H87322   9.823   0.286   0.968  0.9250  2.9698 -0.3558
  633MOL0     H87323   9.806   0.232   0.801  0.8076  1.4780 -0.6469
  633MOL0     H87324   9.625   0.413   0.782  2.5038 -1.8114 -1.1799
  633MOL0     H87325   9.627   0.424   0.956 -0.6476 -0.1748  0.4659
  633MOL0     H87326   9.575   0.163   0.962 -1.3124  0.2348  1.1246
  633MOL0     H87327   9.458   0.280   0.917 -0.1932  1.8118 -2.2937
  633MOL0     H87328   9.638   0.102   0.738  1.0792  1.0602  3.8068
  633MOL0     H87329   9.562   0.236   0.669 -1.0718 -0.7784 -0.7823
  633MOL0     H87330   9.336   0.112   0.785  0.3025  1.3559 -0.3575
  633MOL0     H87331   9.439  -0.031   0.764 -0.1728 -0.3336 -1.0713
  633MOL0     H87332   9.387   0.162   0.540 -1.3937 -0.9983 -1.9302
  633MOL0     H87333   9.283   0.023   0.566 -0.5973 -1.1626  1.4476
  633MOL0     H87334  10.250   0.633   0.995 -1.1899 -1.3540 -0.0630
  633MOL0     H87335  10.335   0.809   1.161  1.0974  2.4464 -1.1128
  633MOL0     H87336  10.356   1.141   1.303  0.4778  1.3139  0.3373
  633MOL0     H87337  10.505   1.276   1.431 -0.8391  4.4372  0.2086
  633MOL0     H87338   9.909   0.986   0.563 -0.4961 -1.1283 -0.2835
  633MOL0     H87339   9.715   0.872   0.517 -1.2990 -0.7067 -1.8005
  633MOL0     H87340   9.598   0.518   0.035 -0.5183  0.5594 -0.2823
  633MOL0     H87341   9.393   0.448  -0.068  0.3467  2.2413 -0.8886
  633MOL0     H87342   9.023   0.450   0.219 -0.0920  0.9942  0.2433
  633MOL0     H87343   9.040   0.582   0.099 -1.6377 -0.1337 -1.2238
  633MOL0     H87344   8.913   0.437  -0.064  1.5609 -4.8793 -1.2751
  633MOL0     H87345   8.831   0.474   0.091  0.1872  0.1682  0.6887
  633MOL0     H87346   8.986   0.217   0.003  0.7405 -1.1964  2.6449
  633MOL0     H87347   8.920   0.242   0.163 -1.6457  1.1698 -0.0919
  633MOL0     H87348   8.788   0.099   0.030 -0.1844  0.1097 -0.4390
  633MOL0     H87349   8.765   0.222  -0.096 -1.8149  0.0513  0.3248
  633MOL0     H87350   8.479   0.325   0.189 -1.5991 -2.6364 -0.4848
  633MOL0     H87351   9.205   0.468   0.305 -3.1064  2.9948 -3.2533
  633MOL0     H87352   9.490   0.483   0.506  2.7463  3.3107 -0.2735
  633MOL0     H87353   9.446   0.658   0.487 -1.2114  0.9828 -0.0148
  633MOL0     H87354   9.320   0.530   0.498  0.0829 -0.0065  1.2366
  634MOL0     O87355  10.006   7.185   6.499  0.1113 -0.5475  0.1202
  634MOL0     C87356  10.008   7.307   6.493  1.0313 -1.3137  0.9211
  634MOL0     O87357  10.120   7.385   6.514 -0.4069 -0.5107 -0.3423
  634MOL0     C87358  10.242   7.332   6.559 -0.4914 -0.1214 -0.1998
  634MOL0     C87359  10.276   7.190   6.581 -0.4274 -0.0926 -0.5720
  634MOL0     C87360  10.406   7.153   6.602  0.1347 -0.4619 -0.5089
  634MOL0     C87361  10.513   7.242   6.601  0.4607  0.2630 -0.4363
  634MOL0     O87362  10.645   7.197   6.610  0.1884 -1.0982 -0.5773
  634MOL0     C87363  10.746   7.299   6.578  1.2903  0.0771  0.2836
  634MOL0     C87364  10.869   7.218   6.530  0.1505 -0.6940 -0.2782
  634MOL0     C87365  10.990   7.296   6.480 -0.5378  0.1655  0.3498
  634MOL0     C87366  11.111   7.203   6.505 -0.6848 -0.6103 -0.0966
  634MOL0     C87367  11.243   7.268   6.454 -0.4348  0.1994 -0.3529
  634MOL0     C87368  11.363   7.186   6.509  0.4643  0.2592 -0.4681
  634MOL0     C87369  11.486   7.228   6.432 -1.1216 -0.0791 -0.2191
  634MOL0     C87370  11.622   7.149   6.476  0.3407  0.6443 -0.2441
  634MOL0     N87371  11.655   7.164   6.618 -0.4389 -0.5078 -0.0359
  634MOL0     C87372  11.640   7.277   6.694  0.7450  0.4000 -0.0015
  634MOL0     C87373  11.660   7.232   6.823 -0.4366 -0.1793 -0.6863
  634MOL0     C87374  11.657   7.318   6.956  0.2536 -0.3803 -0.5471
  634MOL0     C87375  11.792   7.363   7.016 -0.0366  0.0923 -0.5881
  634MOL0     C87376  11.862   7.461   6.919 -0.3089  0.3735  0.4045
  634MOL0     C87377  12.017   7.463   6.955  0.0143 -0.0754 -0.9023
  634MOL0     O87378  12.091   7.553   6.869  0.2509 -0.1737  0.5181
  634MOL0     C87379  12.225   7.565   6.881 -0.9471  0.7029 -0.4688
  634MOL0     C87380  12.307   7.633   6.795  0.2011 -0.1030 -0.6567
  634MOL0     C87381  12.440   7.658   6.793  0.0206  0.9230  0.0147
  634MOL0     C87382  12.509   7.748   6.693  0.1270  0.3469  1.0611
  634MOL0     C87383  12.506   7.600   6.907 -0.8458 -0.9266  0.1451
  634MOL0     C87384  12.657   7.621   6.928 -0.4410  0.4705 -0.3938
  634MOL0     O87385  12.695   7.586   7.054 -0.4712  0.6613  0.1408
  634MOL0     C87386  12.826   7.605   7.084 -0.7705 -0.8755 -0.3727
  634MOL0     C87387  12.862   7.710   7.174  1.0298  0.0185 -0.4722
  634MOL0     C87388  12.997   7.741   7.210  0.7686  0.3147 -0.2450
  634MOL0     C87389  13.105   7.667   7.151  0.3098  0.0122 -0.5081
  634MOL0     O87390  13.232   7.701   7.193  0.9396 -0.7985 -0.3048
  634MOL0     C87391  13.332   7.681   7.097 -0.2010  0.4859  0.8603
  634MOL0     C87392  13.456   7.748   7.147 -0.3726  0.1272  0.6589
  634MOL0     C87393  13.504   7.725   7.285  0.0446  1.0480  1.2211
  634MOL0     C87394  13.628   7.806   7.329 -0.2942  0.0134 -0.8986
  634MOL0     C87395  13.665   7.753   7.469  0.0649  0.2546 -0.1720
  634MOL0     C87396  13.805   7.790   7.511  0.7125  1.1514  0.4210
  634MOL0     C87397  13.865   7.723   7.636  1.4653 -0.2277 -0.0909
  634MOL0     C87398  14.014   7.759   7.657 -1.3327  0.2175  0.0486
  634MOL0    Cl87399  14.043   7.933   7.704 -0.3032 -0.0957  0.2617
  634MOL0     C87400  13.074   7.564   7.063  0.5795  0.0081 -0.2924
  634MOL0     C87401  12.935   7.535   7.026 -0.6472 -0.3892  0.5828
  634MOL0     O87402  12.736   7.661   6.838  0.3668  0.7700  0.1707
  634MOL0     C87403  12.427   7.544   7.012  0.0760  0.6879  0.7263
  634MOL0     C87404  12.293   7.511   6.998  0.9021 -0.6225  0.2596
  634MOL0     N87405  11.704   7.099   6.824 -0.5832  0.3218  0.3931
  634MOL0     N87406  11.692   7.062   6.699 -0.2584 -0.6260  0.5194
  634MOL0     C87407  10.479   7.376   6.595  0.1401  0.1755 -0.0431
  634MOL0     C87408  10.346   7.424   6.585 -0.8525  0.4210  0.1183
  634MOL0     C87409   9.883   7.383   6.450 -0.4047  0.9412  0.3276
  634MOL0     C87410   9.865   7.516   6.494  0.2010 -0.1781 -0.1676
  634MOL0     C87411   9.762   7.596   6.442 -0.7862  0.1706 -0.6082
  634MOL0     C87412   9.656   7.546   6.362  0.3148  0.4046  0.2265
  634MOL0     O87413   9.552   7.608   6.308  0.3995 -0.7534 -0.1529
  634MOL0     C87414   9.522   7.737   6.363 -0.9842  0.5461 -0.0349
  634MOL0     C87415   9.377   7.767   6.294 -0.0547 -0.5569  0.0012
  634MOL0     C87416   9.376   7.826   6.155  0.2460  0.1613  0.6316
  634MOL0     C87417   9.244   7.785   6.089 -0.2153 -0.5343 -0.2467
  634MOL0     C87418   9.217   7.857   5.962 -0.6857  0.6581 -0.1695
  634MOL0     C87419   9.170   7.917   5.865 -0.1637  0.4917 -0.3568
  634MOL0     C87420   9.671   7.413   6.329  0.7729 -0.5834 -0.5267
  634MOL0     C87421   9.779   7.331   6.370 -0.2973  0.5506  0.2586
  634MOL0     C87422   9.785   7.184   6.322 -0.2250  0.5835  0.2954
  634MOL0     H87423  10.199   7.116   6.561 -0.9559  0.3368 -0.1370
  634MOL0     H87424  10.430   7.050   6.624  1.6601  0.3628  2.2481
  634MOL0     H87425  10.764   7.358   6.668 -2.0149 -0.3698  1.3992
  634MOL0     H87426  10.708   7.367   6.502 -0.5383  0.0033  1.0655
  634MOL0     H87427  10.895   7.158   6.618 -0.5976 -1.7167 -0.7334
  634MOL0     H87428  10.834   7.158   6.445 -1.5069  0.9909 -0.8560
  634MOL0     H87429  10.983   7.321   6.374  2.1592  0.1188  0.0763
  634MOL0     H87430  11.008   7.378   6.550  2.9682 -2.4500  2.9645
  634MOL0     H87431  11.122   7.194   6.614 -1.0953 -2.4780 -0.1672
  634MOL0     H87432  11.097   7.101   6.467  0.0820 -0.3975 -0.9823
  634MOL0     H87433  11.245   7.372   6.489 -3.7253 -0.0029  0.8021
  634MOL0     H87434  11.232   7.274   6.345  0.6935  0.1756 -0.4765
  634MOL0     H87435  11.385   7.193   6.616  2.7520 -0.6076 -0.8337
  634MOL0     H87436  11.354   7.080   6.485  0.1941  0.3749 -0.8941
  634MOL0     H87437  11.494   7.335   6.452 -1.9214 -0.0637  0.0506
  634MOL0     H87438  11.468   7.214   6.324 -0.4291 -1.9043 -0.1454
  634MOL0     H87439  11.616   7.040   6.464  0.4754  0.8897 -3.0824
  634MOL0     H87440  11.706   7.177   6.412 -0.4951  0.4842 -1.4347
  634MOL0     H87441  11.589   7.372   6.678  1.0195  0.2565 -1.9953
  634MOL0     H87442  11.619   7.251   7.034  0.7246 -0.2072 -0.1630
  634MOL0     H87443  11.597   7.405   6.930  0.4233 -0.3653 -0.9038
  634MOL0     H87444  11.770   7.406   7.114  0.5544 -2.3561  0.6967
  634MOL0     H87445  11.856   7.274   7.021 -1.2996 -1.0924 -3.1375
  634MOL0     H87446  11.858   7.420   6.818  1.8601  2.2128 -0.5136
  634MOL0     H87447  11.819   7.561   6.929 -2.0805 -0.4227  1.1015
  634MOL0     H87448  12.020   7.499   7.058 -0.8419  2.8702 -1.8053
  634MOL0     H87449  12.049   7.359   6.948  0.2419 -0.2086  1.4569
  634MOL0     H87450  12.264   7.666   6.700  0.3688 -2.4596 -1.6272
  634MOL0     H87451  12.597   7.805   6.723  1.2520 -1.2296  0.9038
  634MOL0     H87452  12.435   7.813   6.645  0.7357  0.9086  0.8864
  634MOL0     H87453  12.546   7.680   6.616 -0.5424  0.5975  0.5040
  634MOL0     H87454  12.777   7.759   7.220 -0.0040 -2.5583  0.5882
  634MOL0     H87455  13.031   7.814   7.282  1.4278  1.7892 -1.9864
  634MOL0     H87456  13.356   7.574   7.089  0.2129  0.4600  2.1891
  634MOL0     H87457  13.309   7.728   7.002  2.8040 -0.2755 -0.3687
  634MOL0     H87458  13.530   7.725   7.070 -0.9800 -0.9865  0.3903
  634MOL0     H87459  13.449   7.856   7.129 -0.4523  0.1065  0.5650
  634MOL0     H87460  13.509   7.617   7.302 -3.7557  0.9863  3.1234
  634MOL0     H87461  13.426   7.748   7.359 -0.0844 -0.0046  1.4254
  634MOL0     H87462  13.606   7.913   7.334  1.7678  0.5170 -1.5791
  634MOL0     H87463  13.709   7.785   7.259  0.5694 -0.0914  0.1064
  634MOL0     H87464  13.593   7.801   7.536 -0.6978 -1.1842  0.0530
  634MOL0     H87465  13.668   7.644   7.475 -1.2748  0.0020 -2.8675
  634MOL0     H87466  13.809   7.899   7.522 -2.4307  1.4699 -0.4342
  634MOL0     H87467  13.865   7.762   7.423  1.1448 -0.3642  1.1770
  634MOL0     H87468  13.844   7.615   7.637 -0.3551  0.0378 -1.9134
  634MOL0     H87469  13.811   7.765   7.721  1.4320 -0.9690  0.2594
  634MOL0     H87470  14.072   7.741   7.567 -2.6100 -0.7671 -0.6108
  634MOL0     H87471  14.047   7.699   7.742  2.2111  0.7289 -0.8206
  634MOL0     H87472  13.156   7.502   7.026  3.0915  2.0038  1.5314
  634MOL0     H87473  12.901   7.462   6.953  2.2860  1.1660 -2.6913
  634MOL0     H87474  12.478   7.497   7.095  3.7567  0.6544 -1.3523
  634MOL0     H87475  12.240   7.468   7.082 -0.6988  0.4828 -0.1473
  634MOL0     H87476  10.541   7.461   6.620 -1.4003  1.0912  0.8365
  634MOL0     H87477  10.330   7.530   6.573 -1.6587  0.1644 -1.3229
  634MOL0     H87478   9.929   7.556   6.572  0.3137 -3.3941  1.6058
  634MOL0     H87479   9.755   7.701   6.469 -2.4692  0.0483 -0.4701
  634MOL0     H87480   9.507   7.732   6.472  0.8405 -0.0932  0.2102
  634MOL0     H87481   9.598   7.810   6.334 -1.5651  0.2887 -2.3827
  634MOL0     H87482   9.317   7.839   6.350 -0.9424  0.5970 -2.2809
  634MOL0     H87483   9.325   7.671   6.295  0.8363 -1.1005 -1.3935
  634MOL0     H87484   9.379   7.936   6.163 -0.4338  0.1560  0.9401
  634MOL0     H87485   9.456   7.783   6.094  1.4597  2.2844  0.6194
  634MOL0     H87486   9.163   7.802   6.160 -0.9040  3.0754 -1.6638
  634MOL0     H87487   9.255   7.679   6.061 -1.7004 -0.5557 -0.8187
  634MOL0     H87488   9.136   7.968   5.777 -1.7796  0.3009  0.1120
  634MOL0     H87489   9.594   7.363   6.271  0.4208 -0.5032 -0.1443
  634MOL0     H87490   9.757   7.106   6.393  2.8739  1.0579  2.2959
  634MOL0     H87491   9.731   7.173   6.228  0.6789 -0.5560 -0.1130
  634MOL0     H87492   9.890   7.162   6.300 -0.3893 -3.1425  2.4078
  635MOL0     O87493   0.680   7.304   7.334  0.9391  0.1890 -0.5403
  635MOL0     C87494   0.590   7.373   7.384  0.3728  0.5318  0.8367
  635MOL0     O87495   0.594   7.512   7.389 -0.4712 -0.1771 -0.3122
  635MOL0     C87496   0.714   7.579   7.376  0.0035 -0.5533 -0.1153
  635MOL0     C87497   0.846   7.535   7.374  0.4587  0.6557  0.4581
  635MOL0     C87498   0.955   7.622   7.369 -0.4906  0.1302  0.1566
  635MOL0     C87499   0.940   7.763   7.385 -0.0611  0.1412  0.7575
  635MOL0     O87500   1.058   7.832   7.370 -0.2161 -0.0411  0.3932
  635MOL0     C87501   1.043   7.974   7.331  1.0375  0.2278  0.2298
  635MOL0     C87502   1.179   8.024   7.277 -0.3665 -0.4792  0.0425
  635MOL0     C87503   1.294   8.001   7.372  0.3400 -0.0991  0.1695
  635MOL0     C87504   1.429   8.068   7.338 -0.3570 -0.1552 -0.1182
  635MOL0     C87505   1.539   8.068   7.450  0.6005 -0.0439  0.3233
  635MOL0     C87506   1.487   8.120   7.583 -0.4565  0.8851 -0.5399
  635MOL0     C87507   1.592   8.129   7.696  0.1799 -0.4181 -0.4430
  635MOL0     C87508   1.643   8.272   7.714 -0.5306  0.1510  0.1125
  635MOL0     N87509   1.727   8.297   7.828  0.1054  1.2587 -0.4146
  635MOL0     C87510   1.836   8.377   7.830  1.5254 -0.6318  0.8194
  635MOL0     C87511   1.875   8.376   7.959 -0.2424  0.4849 -0.7190
  635MOL0     C87512   1.990   8.448   8.009 -0.1219  0.1858 -1.4281
  635MOL0     C87513   2.126   8.422   7.950 -0.7159 -1.0117 -0.3617
  635MOL0     C87514   2.228   8.513   8.018 -0.5240  0.2406  0.9743
  635MOL0     C87515   2.374   8.470   8.030 -0.4533 -0.2656  0.3109
  635MOL0     O87516   2.426   8.466   7.892  0.3477  0.4769 -0.2374
  635MOL0     C87517   2.549   8.415   7.868  0.6791  1.3028 -0.0006
  635MOL0     C87518   2.657   8.420   7.961  0.1902 -0.5866 -0.0430
  635MOL0     C87519   2.782   8.365   7.932 -0.3698  0.1895 -0.2305
  635MOL0     C87520   2.893   8.407   8.034  0.1185 -0.2392 -0.0796
  635MOL0     C87521   2.800   8.291   7.812 -0.7035 -0.0924  0.3338
  635MOL0     C87522   2.941   8.241   7.767  0.9480  0.0629 -0.0656
  635MOL0     O87523   3.022   8.184   7.852  0.6881 -0.3593 -0.6600
  635MOL0     C87524   3.150   8.152   7.806  0.4335 -0.4092 -0.9576
  635MOL0     C87525   3.248   8.196   7.894 -2.6137 -0.6717 -0.7913
  635MOL0     C87526   3.387   8.174   7.860  0.2204 -0.9294 -0.7771
  635MOL0     C87527   3.422   8.101   7.748 -0.2968  0.4558 -0.4846
  635MOL0     O87528   3.552   8.075   7.716 -0.2368 -1.1935  0.5223
  635MOL0     C87529   3.658   8.159   7.768  0.2636  0.2150 -0.6412
  635MOL0     C87530   3.783   8.138   7.685  0.3091  0.2735  0.0294
  635MOL0     C87531   3.903   8.227   7.720 -0.0419  0.2811  0.5689
  635MOL0     C87532   4.026   8.176   7.643 -0.3283 -0.1522  0.0782
  635MOL0     C87533   4.164   8.242   7.673 -0.6472 -0.6927 -0.3265
  635MOL0     C87534   4.281   8.193   7.590 -0.0590  0.4083 -0.1286
  635MOL0     C87535   4.402   8.287   7.585 -0.2810  0.9883 -0.2367
  635MOL0     C87536   4.526   8.215   7.621  0.3365  0.4980  0.1547
  635MOL0    Cl87537   4.671   8.321   7.575 -0.2042 -0.2842 -0.2046
  635MOL0     C87538   3.320   8.058   7.660 -0.2593  0.4297 -0.8562
  635MOL0     C87539   3.186   8.087   7.691  0.0418  0.4053  0.0343
  635MOL0     O87540   2.960   8.248   7.644  0.1961 -0.0307  0.3250
  635MOL0     C87541   2.693   8.282   7.722  0.5284 -0.6234 -0.6520
  635MOL0     C87542   2.565   8.345   7.753 -0.7158  0.2547  0.2560
  635MOL0     N87543   1.782   8.314   8.035  0.0669 -0.1261  0.2448
  635MOL0     N87544   1.700   8.258   7.959  0.1965 -0.4681 -0.1713
  635MOL0     C87545   0.807   7.813   7.400 -0.1563 -0.4890 -0.4699
  635MOL0     C87546   0.702   7.716   7.387  0.8936 -0.5134 -0.2175
  635MOL0     C87547   0.476   7.311   7.445 -0.7837 -0.1943  0.7261
  635MOL0     C87548   0.366   7.392   7.485 -0.5589 -0.2367 -0.1636
  635MOL0     C87549   0.254   7.337   7.549 -1.1427 -0.3161 -0.3213
  635MOL0     C87550   0.238   7.199   7.557  0.1896  0.0763  0.8040
  635MOL0     O87551   0.124   7.138   7.612  0.1530 -0.2510  0.2596
  635MOL0     C87552   0.057   7.192   7.725 -0.4923 -0.4322  0.0149
  635MOL0     C87553  -0.088   7.188   7.691  0.5441  0.0204 -0.2110
  635MOL0     C87554  -0.180   7.204   7.819  0.4198  0.3395  0.4193
  635MOL0     C87555  -0.325   7.228   7.766 -0.2374 -0.4934  0.4033
  635MOL0     C87556  -0.384   7.102   7.738  0.0271  0.6815 -0.3250
  635MOL0     C87557  -0.449   7.007   7.691  0.3081 -0.2895 -0.1268
  635MOL0     C87558   0.339   7.118   7.513 -0.8901 -0.5651  0.4800
  635MOL0     C87559   0.462   7.169   7.462  0.2915  1.0406 -0.0403
  635MOL0     C87560   0.568   7.070   7.425 -0.4364  1.3850 -0.5104
  635MOL0     H87561   0.874   7.432   7.355 -0.8798  0.8129 -3.0436
  635MOL0     H87562   1.057   7.586   7.361 -0.8553 -0.8931 -0.0482
  635MOL0     H87563   1.011   8.028   7.420 -1.0220 -1.1734  0.4233
  635MOL0     H87564   0.975   7.989   7.247 -0.4717  2.8954  1.7958
  635MOL0     H87565   1.213   7.970   7.188 -1.2049  0.0509 -0.6135
  635MOL0     H87566   1.183   8.128   7.244  2.2321 -1.4544 -3.3392
  635MOL0     H87567   1.251   8.042   7.464 -0.9522  0.7555 -0.7888
  635MOL0     H87568   1.308   7.892   7.381  2.7043  0.1591  0.0341
  635MOL0     H87569   1.472   8.016   7.252  2.6593  2.8550 -0.6557
  635MOL0     H87570   1.404   8.169   7.303 -0.7876 -0.0827  0.3869
  635MOL0     H87571   1.618   8.134   7.414  0.2648  0.5580  0.6939
  635MOL0     H87572   1.586   7.969   7.446  0.8056  0.0190  1.0207
  635MOL0     H87573   1.445   8.221   7.571  1.4621  1.5398 -2.2866
  635MOL0     H87574   1.411   8.049   7.617 -2.3489  2.5220 -1.1492
  635MOL0     H87575   1.666   8.051   7.676 -0.1405 -1.1302  1.0438
  635MOL0     H87576   1.550   8.105   7.794  1.1894  0.5747  0.2693
  635MOL0     H87577   1.700   8.307   7.628 -0.9749 -1.1677 -0.7481
  635MOL0     H87578   1.551   8.331   7.721 -1.7418 -1.0884 -3.3299
  635MOL0     H87579   1.892   8.415   7.746  0.7829 -1.5595 -0.1145
  635MOL0     H87580   2.011   8.417   8.112  0.2941  0.9846 -1.2685
  635MOL0     H87581   1.971   8.555   8.006 -0.9030  0.1237  0.3778
  635MOL0     H87582   2.154   8.317   7.966  3.1747 -0.5365 -2.5847
  635MOL0     H87583   2.118   8.439   7.842 -0.0350 -0.1896 -0.2904
  635MOL0     H87584   2.230   8.609   7.967 -2.7854 -1.1427 -2.0680
  635MOL0     H87585   2.200   8.526   8.123 -2.0690  0.2305  0.5797
  635MOL0     H87586   2.425   8.544   8.092 -1.2889  0.8860 -0.3371
  635MOL0     H87587   2.378   8.373   8.081  1.4619 -1.6677 -2.2372
  635MOL0     H87588   2.643   8.476   8.053 -0.3210  1.8050 -1.4783
  635MOL0     H87589   2.963   8.469   7.977 -0.8271 -0.9418 -2.1021
  635MOL0     H87590   2.937   8.317   8.078  0.8830  0.6312  0.9746
  635MOL0     H87591   2.863   8.464   8.123  0.5128  0.3878 -0.3428
  635MOL0     H87592   3.225   8.265   7.975  0.5499 -0.7372  0.3159
  635MOL0     H87593   3.470   8.203   7.924 -3.0300  2.5567  2.3813
  635MOL0     H87594   3.644   8.268   7.764  0.4316  0.2501 -0.2973
  635MOL0     H87595   3.683   8.123   7.868 -1.0584 -0.1511 -0.4214
  635MOL0     H87596   3.802   8.031   7.690  1.7011  0.5020 -0.1405
  635MOL0     H87597   3.754   8.155   7.581  3.2483  1.7006 -0.6723
  635MOL0     H87598   3.915   8.235   7.828  0.7757  1.9753  0.3768
  635MOL0     H87599   3.885   8.327   7.681  1.7921 -0.3943 -2.3214
  635MOL0     H87600   4.005   8.181   7.536  1.1530 -0.7655 -0.2710
  635MOL0     H87601   4.039   8.071   7.671  0.0033 -0.1191  0.0551
  635MOL0     H87602   4.146   8.349   7.657 -2.3410 -1.0830 -1.2486
  635MOL0     H87603   4.191   8.221   7.777 -2.4202  0.5284  0.4249
  635MOL0     H87604   4.248   8.165   7.490 -0.7121 -2.1623  0.7210
  635MOL0     H87605   4.314   8.100   7.636  0.5482  1.0540  0.7719
  635MOL0     H87606   4.394   8.380   7.643 -1.9673 -0.9557  2.9620
  635MOL0     H87607   4.405   8.318   7.480 -0.3964 -0.0236 -0.5427
  635MOL0     H87608   4.527   8.127   7.556 -0.7562  3.1085 -3.6813
  635MOL0     H87609   4.516   8.199   7.729  2.6424 -1.3855  0.1898
  635MOL0     H87610   3.359   8.016   7.567  2.1644 -0.0187  0.2920
  635MOL0     H87611   3.110   8.043   7.627  0.8454 -1.0465  0.0426
  635MOL0     H87612   2.694   8.222   7.631  3.7194 -0.5661 -0.7919
  635MOL0     H87613   2.494   8.334   7.672 -1.1698 -1.4799  0.8312
  635MOL0     H87614   0.805   7.920   7.421  2.3768 -0.5870  0.5752
  635MOL0     H87615   0.598   7.737   7.409  1.3698  1.7593  0.0636
  635MOL0     H87616   0.370   7.500   7.477  1.8339 -0.4379 -4.4958
  635MOL0     H87617   0.179   7.397   7.599  0.9239  2.0770  0.0872
  635MOL0     H87618   0.076   7.124   7.808  0.0585 -0.9018 -0.4873
  635MOL0     H87619   0.090   7.293   7.749  2.3996 -2.0111  3.5681
  635MOL0     H87620  -0.117   7.098   7.636 -2.3425  1.4667 -1.2365
  635MOL0     H87621  -0.108   7.272   7.625  3.0793 -0.1608 -1.3097
  635MOL0     H87622  -0.168   7.124   7.893  2.1204 -0.0876 -0.2682
  635MOL0     H87623  -0.147   7.293   7.872 -1.1272 -0.3318  2.6755
  635MOL0     H87624  -0.335   7.288   7.675 -3.7676  1.9465  2.1722
  635MOL0     H87625  -0.387   7.284   7.835 -1.3370 -3.3911  1.9485
  635MOL0     H87626  -0.503   6.931   7.638  1.9845 -2.9098  1.6819
  635MOL0     H87627   0.320   7.012   7.523 -0.9629 -0.6979 -0.9278
  635MOL0     H87628   0.667   7.096   7.464  0.1059  2.0070 -2.2023
  635MOL0     H87629   0.544   6.972   7.466 -0.4618 -0.0416 -3.6267
  635MOL0     H87630   0.567   7.055   7.317 -0.9530  2.3290 -0.6462
  636MOL0     O87631  11.223   1.012   5.403  0.1416  0.2973  0.2341
  636MOL0     C87632  11.188   1.125   5.367 -0.4290  0.7850  0.3140
  636MOL0     O87633  11.277   1.228   5.336  0.6025  0.1381  0.0262
  636MOL0     C87634  11.411   1.198   5.339 -0.8557 -1.4000  0.0438
  636MOL0     C87635  11.467   1.095   5.259  0.3894  0.0190  0.6403
  636MOL0     C87636  11.596   1.054   5.278  0.2656 -1.1287 -0.7795
  636MOL0     C87637  11.673   1.117   5.379 -0.3035 -0.0004 -0.2212
  636MOL0     O87638  11.801   1.077   5.414  0.6646  0.1894  0.7536
  636MOL0     C87639  11.888   1.000   5.326  0.1112  0.7812  1.1519
  636MOL0     C87640  11.947   1.079   5.213 -0.2710 -0.2628 -0.3895
  636MOL0     C87641  12.003   1.221   5.253 -0.7838  1.3097  0.4571
  636MOL0     C87642  12.143   1.217   5.319  0.3347  0.6431  0.3424
  636MOL0     C87643  12.175   1.343   5.395  0.0723 -0.8030  0.4227
  636MOL0     C87644  12.317   1.341   5.457 -0.1321 -0.5274 -0.5216
  636MOL0     C87645  12.363   1.465   5.532  0.9456  0.0403 -0.2809
  636MOL0     C87646  12.497   1.440   5.605  0.8753  0.1538 -0.0907
  636MOL0     N87647  12.517   1.543   5.707  0.0501 -0.3077 -0.0300
  636MOL0     C87648  12.568   1.673   5.668  0.2061 -0.1369  0.1862
  636MOL0     C87649  12.596   1.733   5.788  0.3948  0.6401  0.0501
  636MOL0     C87650  12.657   1.864   5.812  0.3319  0.1254  0.0882
  636MOL0     C87651  12.808   1.845   5.808 -0.6885  0.3899 -0.3286
  636MOL0     C87652  12.864   1.884   5.667 -0.0354 -0.5033  0.4054
  636MOL0     C87653  13.019   1.878   5.666 -0.2059 -0.2650 -0.5123
  636MOL0     O87654  13.064   1.739   5.686 -0.0184 -0.0744 -0.1557
  636MOL0     C87655  13.193   1.713   5.699 -0.7935  0.7103  0.1457
  636MOL0     C87656  13.221   1.579   5.678 -0.2453  0.1801 -1.3822
  636MOL0     C87657  13.348   1.522   5.684  0.1874  0.7686 -0.0045
  636MOL0     C87658  13.362   1.376   5.666 -0.1402  0.1189  0.0864
  636MOL0     C87659  13.459   1.612   5.711  0.1554  0.2045  0.5911
  636MOL0     C87660  13.601   1.558   5.711  0.5195  0.1946  0.6620
  636MOL0     O87661  13.693   1.649   5.654  0.4365 -0.2740 -0.5517
  636MOL0     C87662  13.824   1.631   5.662 -0.1091  0.3436 -1.0387
  636MOL0     C87663  13.891   1.588   5.778  0.2020 -0.6861  0.7123
  636MOL0     C87664  14.031   1.590   5.780  0.8318  0.5446 -0.2529
  636MOL0     C87665  14.105   1.644   5.678  0.5384  0.2019  0.0979
  636MOL0     O87666  14.245   1.660   5.682  0.4378 -0.0753 -0.0421
  636MOL0     C87667  14.309   1.659   5.814  0.3206  0.2262  0.5431
  636MOL0     C87668  14.462   1.667   5.796 -0.0287  1.0385 -0.1278
  636MOL0     C87669  14.547   1.699   5.919  0.1741  0.0119 -0.9534
  636MOL0     C87670  14.694   1.730   5.894 -0.5157  0.0386 -0.5316
  636MOL0     C87671  14.776   1.783   6.014 -0.4111  0.1314 -0.2285
  636MOL0     C87672  14.718   1.913   6.089  0.0367  0.5993  0.9814
  636MOL0     C87673  14.713   2.028   5.997 -0.3724  0.1097  0.0763
  636MOL0     C87674  14.854   2.081   5.960  1.3094 -0.1163  0.0851
  636MOL0    Cl87675  14.952   2.135   6.098 -0.5035 -0.4356 -0.4344
  636MOL0     C87676  14.033   1.689   5.561 -0.4197 -0.0591  0.0242
  636MOL0     C87677  13.894   1.674   5.555 -0.4280  0.0245  0.7799
  636MOL0     O87678  13.628   1.457   5.771 -0.3568 -0.5782  0.3610
  636MOL0     C87679  13.427   1.742   5.714  0.2428 -0.1219  0.5352
  636MOL0     C87680  13.301   1.794   5.708  0.1096 -0.4452 -0.3299
  636MOL0     N87681  12.565   1.645   5.887  0.5660 -0.2060 -0.2911
  636MOL0     N87682  12.508   1.535   5.842 -0.6846 -0.3275 -0.4671
  636MOL0     C87683  11.623   1.214   5.461 -0.7351  0.0991  0.9025
  636MOL0     C87684  11.492   1.252   5.440  1.0473 -0.2653  0.4378
  636MOL0     C87685  11.048   1.170   5.385  0.1332  0.5279 -0.5151
  636MOL0     C87686  11.006   1.279   5.297  0.2807  0.9403  0.1238
  636MOL0     C87687  10.872   1.324   5.288  0.3412 -0.0328 -0.6434
  636MOL0     C87688  10.780   1.259   5.367 -0.6433  0.4147  0.7201
  636MOL0     O87689  10.643   1.297   5.354 -0.1404  0.8756 -0.4529
  636MOL0     C87690  10.580   1.271   5.230  0.4478  0.7176  0.1174
  636MOL0     C87691  10.504   1.148   5.236  0.1306  0.8273 -0.4439
  636MOL0     C87692  10.367   1.172   5.293 -0.2132 -0.0838  0.1245
  636MOL0     C87693  10.297   1.039   5.302  0.8325  0.5393 -0.7204
  636MOL0     C87694  10.159   1.071   5.359 -0.3554  0.4193  0.2191
  636MOL0     C87695  10.055   1.093   5.411  0.4806 -0.4637 -0.4717
  636MOL0     C87696  10.814   1.143   5.442  0.4784  1.2368 -0.4579
  636MOL0     C87697  10.948   1.095   5.454  0.0472 -0.0168  0.7074
  636MOL0     C87698  10.976   0.976   5.536  0.5018  0.3340 -0.1402
  636MOL0     H87699  11.411   1.026   5.197 -0.2477  1.2986 -0.2622
  636MOL0     H87700  11.639   0.974   5.218  3.7267 -0.6695  0.8731
  636MOL0     H87701  11.834   0.918   5.278 -0.9509  1.3251  1.3884
  636MOL0     H87702  11.969   0.964   5.390 -0.2644 -0.3308  1.0174
  636MOL0     H87703  12.033   1.026   5.170  1.0397 -0.6128  2.4519
  636MOL0     H87704  11.873   1.096   5.134  1.8749 -1.0058 -2.6947
  636MOL0     H87705  12.010   1.270   5.156  1.0002 -3.6176 -2.2450
  636MOL0     H87706  11.936   1.269   5.325 -2.5449 -1.9018  1.1987
  636MOL0     H87707  12.146   1.128   5.382  0.7908 -1.5262 -2.5112
  636MOL0     H87708  12.216   1.200   5.239 -0.6504 -0.2386 -0.3964
  636MOL0     H87709  12.098   1.355   5.472 -0.4943 -2.8841  0.2223
  636MOL0     H87710  12.167   1.427   5.325  0.8347  0.8485  2.2306
  636MOL0     H87711  12.321   1.248   5.513  0.2739 -0.9890 -1.2923
  636MOL0     H87712  12.387   1.319   5.375  0.7792 -2.7562  0.7747
  636MOL0     H87713  12.286   1.491   5.605  0.5574  0.4290 -0.8313
  636MOL0     H87714  12.381   1.548   5.464 -0.0036  0.0263 -0.5480
  636MOL0     H87715  12.490   1.344   5.658  0.9124  0.3303  0.2377
  636MOL0     H87716  12.579   1.441   5.533 -0.8397 -1.0280 -2.2035
  636MOL0     H87717  12.578   1.701   5.564 -2.5086 -0.1343 -0.1567
  636MOL0     H87718  12.625   1.908   5.907  2.1981 -0.8627  1.2427
  636MOL0     H87719  12.622   1.928   5.731  2.5996  0.2343 -0.8824
  636MOL0     H87720  12.857   1.907   5.884  0.5064 -1.1281  0.2090
  636MOL0     H87721  12.839   1.741   5.825  1.8842  1.0899 -0.3349
  636MOL0     H87722  12.820   1.829   5.584 -0.1881  1.5084 -0.9344
  636MOL0     H87723  12.836   1.988   5.645 -1.2663 -0.5895  1.4770
  636MOL0     H87724  13.065   1.904   5.570  0.7507  0.1609  0.0449
  636MOL0     H87725  13.058   1.947   5.742  0.3904 -0.1032 -0.9570
  636MOL0     H87726  13.140   1.510   5.655  0.0496 -1.2425  1.4059
  636MOL0     H87727  13.440   1.368   5.590 -1.4756 -1.0594 -1.2296
  636MOL0     H87728  13.267   1.328   5.639 -0.0954 -0.4026  0.8295
  636MOL0     H87729  13.407   1.332   5.755  0.6085  2.0237  0.6967
  636MOL0     H87730  13.844   1.552   5.868 -0.1093 -0.3646  0.6790
  636MOL0     H87731  14.077   1.553   5.871 -0.9118 -0.0161  0.4276
  636MOL0     H87732  14.273   1.740   5.878 -0.1629 -0.6958  1.4718
  636MOL0     H87733  14.296   1.561   5.862  1.4279  0.3099  1.0519
  636MOL0     H87734  14.492   1.566   5.766 -2.7260 -0.0387  0.4175
  636MOL0     H87735  14.489   1.733   5.714  3.1256 -1.4123 -1.2667
  636MOL0     H87736  14.545   1.617   5.991  0.5859  0.1208 -0.8129
  636MOL0     H87737  14.501   1.788   5.963  0.1277 -0.8656  0.8650
  636MOL0     H87738  14.685   1.809   5.819  0.8177 -0.0654 -0.8148
  636MOL0     H87739  14.754   1.645   5.860  2.0553  1.2069  0.8089
  636MOL0     H87740  14.791   1.708   6.092 -0.2345  2.2814  1.9319
  636MOL0     H87741  14.874   1.810   5.975  0.8167 -3.4245  0.0974
  636MOL0     H87742  14.766   1.945   6.181 -1.1723  1.2131  1.4106
  636MOL0     H87743  14.616   1.892   6.124  0.3295 -2.2956  0.3777
  636MOL0     H87744  14.654   2.109   6.041 -0.8440 -1.4983  2.6267
  636MOL0     H87745  14.664   1.994   5.905  0.7863 -2.0976  0.2049
  636MOL0     H87746  14.846   2.173   5.902  0.1687 -0.3500 -0.1359
  636MOL0     H87747  14.908   2.012   5.894  0.4794 -0.0406 -0.6830
  636MOL0     H87748  14.095   1.735   5.485  0.8412 -0.3738  0.8337
  636MOL0     H87749  13.837   1.691   5.465  0.7945  0.2588  0.0325
  636MOL0     H87750  13.508   1.811   5.735  1.2568  0.3114 -3.8968
  636MOL0     H87751  13.275   1.899   5.710 -3.3005 -1.1963  1.0946
  636MOL0     H87752  11.679   1.250   5.547 -2.1365  0.2667  1.7800
  636MOL0     H87753  11.441   1.322   5.506 -0.7976  0.2728 -1.4296
  636MOL0     H87754  11.081   1.320   5.230  1.1697  0.0864  0.5777
  636MOL0     H87755  10.834   1.403   5.224  1.3819  1.7697  0.8733
  636MOL0     H87756  10.517   1.355   5.199  0.0361 -0.0405 -1.2152
  636MOL0     H87757  10.655   1.273   5.151  0.5286 -3.6808 -0.1389
  636MOL0     H87758  10.563   1.082   5.300 -0.3805  1.4926  0.7237
  636MOL0     H87759  10.513   1.103   5.136  1.0949  0.4004 -0.1806
  636MOL0     H87760  10.379   1.211   5.394  0.1960  0.2134 -0.0342
  636MOL0     H87761  10.318   1.252   5.236 -0.6526 -0.5666 -0.1821
  636MOL0     H87762  10.355   0.972   5.366  0.1076  0.5176 -0.0662
  636MOL0     H87763  10.290   0.994   5.203  0.0146  1.0578 -0.9086
  636MOL0     H87764   9.959   1.106   5.458  0.8615  0.6571  0.0365
  636MOL0     H87765  10.739   1.088   5.497 -0.0021  0.5842 -1.7308
  636MOL0     H87766  10.885   0.949   5.591 -0.8196 -1.5224 -2.9974
  636MOL0     H87767  11.006   0.892   5.472 -2.2308 -0.7925 -0.0783
  636MOL0     H87768  11.054   1.006   5.607 -0.8446  1.2756  0.9931
  637MOL0     O87769   6.286   8.281   6.453  0.3347  0.9159 -0.2791
  637MOL0     C87770   6.372   8.343   6.516  0.2208  0.1738  0.3002
  637MOL0     O87771   6.506   8.338   6.504  0.3064  0.3992  0.3489
  637MOL0     C87772   6.573   8.275   6.402  0.1000 -0.9658 -0.8842
  637MOL0     C87773   6.516   8.257   6.273 -0.2824 -0.6697  0.0219
  637MOL0     C87774   6.588   8.214   6.165  0.4448  0.5889  0.4312
  637MOL0     C87775   6.726   8.189   6.187  1.2146 -0.7997 -0.5942
  637MOL0     O87776   6.802   8.141   6.088  0.0217  0.0351  0.3858
  637MOL0     C87777   6.846   8.254   6.002  0.0694 -0.1949 -0.0962
  637MOL0     C87778   6.957   8.200   5.909 -1.0500  0.2882  0.5699
  637MOL0     C87779   7.036   8.306   5.848 -0.2867  0.6136  0.5468
  637MOL0     C87780   7.145   8.245   5.768 -1.0158 -0.1336  0.3199
  637MOL0     C87781   7.241   8.342   5.693 -0.9506  0.3756 -0.5524
  637MOL0     C87782   7.188   8.414   5.575 -1.1294  0.5779  0.1020
  637MOL0     C87783   7.127   8.326   5.466  0.2987  0.1829 -0.1029
  637MOL0     C87784   7.226   8.229   5.397 -0.0160  0.6658  0.3630
  637MOL0     N87785   7.273   8.284   5.271  0.1776 -0.0616  0.2763
  637MOL0     C87786   7.329   8.407   5.257 -0.1081 -0.5089 -0.8634
  637MOL0     C87787   7.347   8.424   5.122  0.2254  0.3220 -0.1281
  637MOL0     C87788   7.425   8.532   5.059 -0.3116  0.1246  0.4507
  637MOL0     C87789   7.344   8.631   4.966  0.8139 -0.3377  0.1971
  637MOL0     C87790   7.442   8.742   4.912 -0.4739 -0.1444  0.0605
  637MOL0     C87791   7.363   8.845   4.832 -0.1276 -0.0202  0.0439
  637MOL0     O87792   7.432   8.928   4.742  0.7344  0.5127  0.0293
  637MOL0     C87793   7.555   8.969   4.786  0.3726 -0.1969 -0.0206
  637MOL0     C87794   7.560   9.058   4.889  0.5827  0.2602 -0.3281
  637MOL0     C87795   7.689   9.093   4.938  0.2605 -0.2936 -0.0461
  637MOL0     C87796   7.684   9.193   5.054  0.0587  0.0117 -0.7611
  637MOL0     C87797   7.812   9.046   4.877  0.3876 -0.5580 -0.1815
  637MOL0     C87798   7.948   9.085   4.916 -0.0373 -0.1717 -1.1879
  637MOL0     O87799   8.040   9.115   4.819  0.3407 -0.1396  0.4920
  637MOL0     C87800   8.161   9.170   4.864 -0.7720 -0.5636 -0.5959
  637MOL0     C87801   8.261   9.096   4.938  0.3318  0.5287  0.6839
  637MOL0     C87802   8.387   9.145   4.965  0.3587  0.0976 -1.0812
  637MOL0     C87803   8.410   9.281   4.936  0.1000 -0.7584 -1.2266
  637MOL0     O87804   8.533   9.344   4.966 -0.5670  0.4127 -0.1344
  637MOL0     C87805   8.641   9.263   5.007 -0.3931 -0.1325  0.8293
  637MOL0     C87806   8.759   9.358   5.041  0.2329 -0.0025  0.6650
  637MOL0     C87807   8.774   9.405   5.186  0.0468  0.4472  0.0891
  637MOL0     C87808   8.889   9.516   5.204 -0.0907 -0.5184  0.5455
  637MOL0     C87809   8.917   9.547   5.346  0.8038  0.6769 -0.3667
  637MOL0     C87810   9.069   9.580   5.372  0.7159  0.2116  0.9282
  637MOL0     C87811   9.104   9.567   5.521  0.0862 -0.1957  0.4910
  637MOL0     C87812   9.247   9.602   5.548  0.4672  0.5159  0.2440
  637MOL0    Cl87813   9.275   9.590   5.721  0.3569  0.1641 -0.1345
  637MOL0     C87814   8.313   9.365   4.865  0.3798  0.0787 -0.1979
  637MOL0     C87815   8.195   9.310   4.823  1.0487 -0.5432  1.1172
  637MOL0     O87816   7.968   9.097   5.039 -0.2611 -0.2697  0.3587
  637MOL0     C87817   7.801   8.965   4.764 -0.3840  0.0841 -0.0233
  637MOL0     C87818   7.669   8.921   4.723  0.0878  0.5120 -0.0618
  637MOL0     N87819   7.299   8.310   5.058 -0.7260 -0.9349  0.0057
  637MOL0     N87820   7.244   8.230   5.148 -0.4520 -0.6499  1.2774
  637MOL0     C87821   6.786   8.233   6.308  0.2280  0.4856 -0.2568
  637MOL0     C87822   6.707   8.273   6.417 -0.6317  0.5441  0.0646
  637MOL0     C87823   6.322   8.437   6.623 -0.2828  0.0274 -0.1291
  637MOL0     C87824   6.405   8.550   6.647  0.1060 -0.6653  0.3946
  637MOL0     C87825   6.372   8.647   6.749 -0.1269 -0.1225  0.4072
  637MOL0     C87826   6.262   8.629   6.823  0.0574 -0.3956 -0.5067
  637MOL0     O87827   6.241   8.719   6.923  0.4132  0.1482  0.2778
  637MOL0     C87828   6.113   8.725   6.985 -0.2860 -0.0543 -0.2235
  637MOL0     C87829   6.016   8.793   6.892 -0.1582  0.1936  0.3119
  637MOL0     C87830   5.879   8.806   6.957 -0.5367 -0.0332 -0.3605
  637MOL0     C87831   5.798   8.675   6.983  0.3725  0.2429 -0.3473
  637MOL0     C87832   5.662   8.693   6.941  0.3393 -0.3613 -0.1555
  637MOL0     C87833   5.554   8.718   6.894  0.4615  0.0256  0.3926
  637MOL0     C87834   6.181   8.515   6.797 -0.8987  0.0410 -0.4534
  637MOL0     C87835   6.202   8.421   6.698 -0.5139  0.1585 -0.6499
  637MOL0     C87836   6.107   8.306   6.681  0.0242 -0.1326  0.8251
  637MOL0     H87837   6.412   8.272   6.248  0.3579  1.8727 -1.4527
  637MOL0     H87838   6.541   8.187   6.071  1.5548 -1.8376  0.4885
  637MOL0     H87839   6.885   8.344   6.050 -1.0235  0.6660 -0.8032
  637MOL0     H87840   6.761   8.281   5.940  0.0792 -2.3836 -1.1754
  637MOL0     H87841   7.031   8.139   5.963 -2.0054  0.3245  1.9622
  637MOL0     H87842   6.901   8.142   5.835 -1.4192  1.3418  0.0099
  637MOL0     H87843   6.969   8.363   5.781 -2.5505 -0.7177  1.5549
  637MOL0     H87844   7.073   8.385   5.914  1.9761  1.0823 -1.1790
  637MOL0     H87845   7.197   8.176   5.836 -0.0863 -0.6335 -0.8664
  637MOL0     H87846   7.111   8.170   5.697  0.6936 -0.3918 -0.2830
  637MOL0     H87847   7.337   8.294   5.670 -1.0825  1.2809 -3.3231
  637MOL0     H87848   7.269   8.415   5.770  0.8799 -1.3276  0.4948
  637MOL0     H87849   7.118   8.489   5.616 -0.8260  0.7628  0.2871
  637MOL0     H87850   7.266   8.473   5.526 -0.9116 -1.8207 -2.7370
  637MOL0     H87851   7.088   8.400   5.395 -1.2561  0.3290  0.8610
  637MOL0     H87852   7.041   8.264   5.495 -1.1841  0.9498 -2.5122
  637MOL0     H87853   7.315   8.215   5.460  0.1086  1.5398  0.3968
  637MOL0     H87854   7.192   8.126   5.384 -0.6140  0.7956  0.8500
  637MOL0     H87855   7.361   8.478   5.332 -0.9220  0.4443 -1.4019
  637MOL0     H87856   7.496   8.475   4.998 -0.6425 -0.7866  0.9024
  637MOL0     H87857   7.469   8.586   5.143 -0.4907  0.7062  0.1828
  637MOL0     H87858   7.297   8.571   4.887 -1.0435 -0.3014  1.2125
  637MOL0     H87859   7.268   8.675   5.031  0.3229 -0.7395 -0.0967
  637MOL0     H87860   7.496   8.793   4.992  0.3773  0.3645 -0.8182
  637MOL0     H87861   7.510   8.688   4.845 -1.6637  0.2051 -1.4850
  637MOL0     H87862   7.279   8.797   4.782  0.9170 -0.8120 -1.0159
  637MOL0     H87863   7.316   8.904   4.911 -0.0921  2.0810 -1.4078
  637MOL0     H87864   7.476   9.118   4.922 -0.6326 -0.2083 -2.3854
  637MOL0     H87865   7.604   9.267   5.042 -0.1475 -0.0822  0.0066
  637MOL0     H87866   7.780   9.239   5.079  1.9512 -4.1441  0.6220
  637MOL0     H87867   7.662   9.131   5.142  1.9682 -2.0853 -1.6393
  637MOL0     H87868   8.240   8.998   4.978  0.6155  0.9197  1.8359
  637MOL0     H87869   8.451   9.085   5.029 -1.2143 -1.2807 -0.7416
  637MOL0     H87870   8.621   9.203   5.096 -0.3999 -1.8237 -0.2491
  637MOL0     H87871   8.674   9.201   4.923  0.8736 -1.0627  1.9704
  637MOL0     H87872   8.853   9.312   5.009  1.1851  2.3820 -0.2025
  637MOL0     H87873   8.751   9.450   4.982  1.5159 -0.0295  0.4255
  637MOL0     H87874   8.802   9.318   5.246  1.3861  0.9054  0.1527
  637MOL0     H87875   8.679   9.447   5.220  0.7399  1.2233  1.1510
  637MOL0     H87876   8.862   9.613   5.161  0.9198 -0.6135 -0.3327
  637MOL0     H87877   8.976   9.475   5.151  0.2181 -0.8272  1.2651
  637MOL0     H87878   8.854   9.621   5.396 -0.8770 -1.6606  1.1776
  637MOL0     H87879   8.899   9.460   5.410  1.7777  0.8814  0.2071
  637MOL0     H87880   9.083   9.681   5.333  2.7869  0.6369  2.5939
  637MOL0     H87881   9.129   9.508   5.316  2.2299  0.6053  1.9938
  637MOL0     H87882   9.085   9.466   5.557  1.6150 -1.4229 -1.8856
  637MOL0     H87883   9.037   9.639   5.570  0.1800  1.7862 -2.0464
  637MOL0     H87884   9.273   9.704   5.519 -0.0197  0.5298 -0.1421
  637MOL0     H87885   9.314   9.527   5.505  0.5490  1.2181 -0.8780
  637MOL0     H87886   8.331   9.471   4.858  2.3347 -0.1798  0.1862
  637MOL0     H87887   8.120   9.375   4.779  1.4832  0.5439  1.9345
  637MOL0     H87888   7.894   8.925   4.725 -0.1494  2.5812 -2.2562
  637MOL0     H87889   7.654   8.853   4.640  0.7816 -0.6800  0.7576
  637MOL0     H87890   6.894   8.244   6.315  0.0949  0.7749  2.1448
  637MOL0     H87891   6.743   8.299   6.516 -2.6233  1.2939  0.6411
  637MOL0     H87892   6.499   8.566   6.595 -2.0045  0.0373 -3.6180
  637MOL0     H87893   6.429   8.738   6.768  2.1031 -1.4663  0.5018
  637MOL0     H87894   6.064   8.630   7.008 -0.0065 -0.1777 -0.1342
  637MOL0     H87895   6.126   8.785   7.075 -3.0589 -1.0163  0.9368
  637MOL0     H87896   6.004   8.743   6.796  1.5134 -0.5453  0.4454
  637MOL0     H87897   6.051   8.896   6.880 -0.8183  0.5802  1.4832
  637MOL0     H87898   5.910   8.848   7.053 -0.3519  2.1084 -1.3001
  637MOL0     H87899   5.813   8.876   6.905  0.1769  0.9978  0.1039
  637MOL0     H87900   5.801   8.657   7.091 -0.0579  1.2458 -0.1584
  637MOL0     H87901   5.837   8.589   6.927  2.5087 -0.7485  2.3938
  637MOL0     H87902   5.462   8.746   6.848  1.0426  2.8070  0.7765
  637MOL0     H87903   6.082   8.507   6.841 -1.0186  1.2809 -0.4567
  637MOL0     H87904   6.014   8.334   6.630  0.9682 -0.1732 -0.9979
  637MOL0     H87905   6.145   8.218   6.629  0.0016  0.4316 -0.1615
  637MOL0     H87906   6.083   8.275   6.783  0.1826  0.7410  1.1395
  638MOL0     O87907   1.782   7.757   3.160 -0.2925  0.2636 -1.3398
  638MOL0     C87908   1.824   7.870   3.132  0.5056  1.0422  0.7134
  638MOL0     O87909   1.956   7.908   3.128 -0.4448 -0.1544  0.4930
  638MOL0     C87910   2.040   7.821   3.193 -0.1820 -0.2774 -0.1209
  638MOL0     C87911   2.140   7.750   3.134  0.0567 -0.1970  0.1569
  638MOL0     C87912   2.244   7.682   3.207  0.3569  0.6383 -0.0574
  638MOL0     C87913   2.243   7.683   3.349  0.1523  0.2175 -0.6418
  638MOL0     O87914   2.338   7.626   3.428 -0.5612  0.6627  0.9075
  638MOL0     C87915   2.411   7.519   3.366  0.0182  0.2344  0.5074
  638MOL0     C87916   2.498   7.435   3.463  0.9354  1.2376  0.7361
  638MOL0     C87917   2.565   7.330   3.379 -0.4609 -0.3677  0.2529
  638MOL0     C87918   2.602   7.209   3.472  0.4409 -1.0217  0.6013
  638MOL0     C87919   2.707   7.113   3.411 -0.0876  0.2753 -0.5530
  638MOL0     C87920   2.772   7.028   3.525  0.5272 -0.3720  0.9753
  638MOL0     C87921   2.866   6.918   3.467 -0.0331 -0.7199  0.3633
  638MOL0     C87922   2.968   6.965   3.372 -0.0248 -0.2350  0.3325
  638MOL0     N87923   3.050   6.847   3.337  0.4140 -0.0206  0.0094
  638MOL0     C87924   3.045   6.770   3.227  0.0211  1.5034  0.8337
  638MOL0     C87925   3.144   6.672   3.244 -0.4071  0.9766 -0.2802
  638MOL0     C87926   3.194   6.570   3.142 -0.0659  0.1849 -0.4517
  638MOL0     C87927   3.265   6.449   3.203  0.4275 -0.4536 -0.1857
  638MOL0     C87928   3.355   6.386   3.105 -0.7961  0.3131 -0.1483
  638MOL0     C87929   3.426   6.257   3.172  0.2849  0.1712  0.5205
  638MOL0     O87930   3.506   6.185   3.074 -0.7406 -0.1017 -0.5822
  638MOL0     C87931   3.640   6.195   3.087 -0.2520 -0.4161  0.1102
  638MOL0     C87932   3.725   6.083   3.053  0.6698 -0.3398  0.8010
  638MOL0     C87933   3.856   6.086   3.065 -0.0438 -0.0185  0.8035
  638MOL0     C87934   3.924   5.958   3.034 -0.0293 -0.6192 -0.3816
  638MOL0     C87935   3.916   6.208   3.110  0.4955  0.1201 -0.2206
  638MOL0     C87936   4.069   6.228   3.113  0.7548 -0.0974 -0.1878
  638MOL0     O87937   4.112   6.331   3.200 -0.1817 -0.0578  0.5242
  638MOL0     C87938   4.246   6.340   3.237  0.5774 -0.3897 -0.2402
  638MOL0     C87939   4.283   6.294   3.364  0.0660 -0.0685 -0.2565
  638MOL0     C87940   4.416   6.317   3.407  0.4806 -0.2660  0.4456
  638MOL0     C87941   4.509   6.389   3.331  1.5848  0.5527  0.7547
  638MOL0     O87942   4.637   6.420   3.365  0.0981 -0.2053 -0.9252
  638MOL0     C87943   4.667   6.555   3.398  0.4382  0.8811 -0.1807
  638MOL0     C87944   4.694   6.579   3.547  0.2613  0.2351  0.1560
  638MOL0     C87945   4.694   6.723   3.581 -0.2404 -0.0485 -0.0708
  638MOL0     C87946   4.730   6.743   3.735  0.3795 -0.6007 -0.7098
  638MOL0     C87947   4.722   6.895   3.762 -0.2254  0.1445  0.0113
  638MOL0     C87948   4.759   6.918   3.913  0.2863 -0.6381  0.2104
  638MOL0     C87949   4.777   7.068   3.949  0.2247 -0.8511  0.1401
  638MOL0     C87950   4.646   7.132   3.994 -0.1687  0.5698 -0.7393
  638MOL0    Cl87951   4.600   7.114   4.175 -0.0983 -0.2080  0.1947
  638MOL0     C87952   4.465   6.426   3.213 -0.1100  0.0533  0.7442
  638MOL0     C87953   4.333   6.412   3.162  0.2982 -0.3122  0.6475
  638MOL0     O87954   4.147   6.147   3.065  0.0683 -0.3258  0.3562
  638MOL0     C87955   3.837   6.314   3.161 -0.5797  0.0106  0.3125
  638MOL0     C87956   3.704   6.308   3.133 -0.1355  0.2798  0.3331
  638MOL0     N87957   3.207   6.707   3.364 -0.4242  0.0638 -0.3768
  638MOL0     N87958   3.144   6.806   3.425 -0.6950  0.3804 -0.0685
  638MOL0     C87959   2.138   7.755   3.408 -0.1523 -0.7596  0.0381
  638MOL0     C87960   2.040   7.826   3.334  0.5618 -0.4268 -0.2539
  638MOL0     C87961   1.729   7.985   3.110 -0.5534 -0.5623  0.3667
  638MOL0     C87962   1.777   8.117   3.113 -0.6416 -0.5521  1.4999
  638MOL0     C87963   1.693   8.226   3.088 -0.5490 -0.0261 -1.3522
  638MOL0     C87964   1.551   8.210   3.079 -0.3478 -0.3227  0.6436
  638MOL0     O87965   1.455   8.312   3.080 -0.9544  0.6138  0.0246
  638MOL0     C87966   1.465   8.407   3.189 -0.4234  0.2792  0.1518
  638MOL0     C87967   1.322   8.447   3.224 -0.5911 -1.4727 -0.8044
  638MOL0     C87968   1.329   8.530   3.360  0.0331 -0.0066 -0.2639
  638MOL0     C87969   1.186   8.538   3.423 -0.4946 -0.1187 -0.6757
  638MOL0     C87970   1.187   8.619   3.545  0.5338 -0.2401 -0.2295
  638MOL0     C87971   1.189   8.683   3.652 -0.0769  0.7016  0.8341
  638MOL0     C87972   1.502   8.078   3.066  0.1449  0.1516 -0.4479
  638MOL0     C87973   1.594   7.969   3.080  0.2845 -0.0613  0.2549
  638MOL0     C87974   1.537   7.838   3.034  0.1534  0.0013  0.0024
  638MOL0     H87975   2.155   7.764   3.027 -0.7163  0.5170  0.1308
  638MOL0     H87976   2.324   7.636   3.150 -0.5951  1.8281 -2.4841
  638MOL0     H87977   2.481   7.559   3.293 -1.7118  2.3753 -0.0709
  638MOL0     H87978   2.342   7.447   3.321 -0.9942  0.7604  1.1903
  638MOL0     H87979   2.574   7.493   3.515  0.1642  1.5110  1.5954
  638MOL0     H87980   2.433   7.378   3.529  0.4078 -0.5034 -1.1764
  638MOL0     H87981   2.502   7.292   3.298 -1.3418  0.0870  0.7023
  638MOL0     H87982   2.653   7.380   3.338 -1.0934 -0.3789 -1.1733
  638MOL0     H87983   2.636   7.248   3.568 -2.8277  2.1997  0.6633
  638MOL0     H87984   2.510   7.155   3.495 -0.5755  0.7041  0.8354
  638MOL0     H87985   2.779   7.171   3.352  0.6261 -1.7422 -1.7710
  638MOL0     H87986   2.653   7.042   3.348 -0.1440 -2.0795  1.9863
  638MOL0     H87987   2.827   7.087   3.599  1.7450 -1.6041  1.0818
  638MOL0     H87988   2.691   6.986   3.584  1.2343  2.1221  3.9810
  638MOL0     H87989   2.810   6.837   3.420  0.5678 -0.5639 -0.6394
  638MOL0     H87990   2.921   6.866   3.546  0.6311 -0.8120 -0.1564
  638MOL0     H87991   2.916   7.005   3.284 -1.3157  0.0460  1.1919
  638MOL0     H87992   3.036   7.043   3.404  0.9223 -0.1817 -1.6520
  638MOL0     H87993   2.972   6.784   3.148  0.7760 -0.5444 -0.3029
  638MOL0     H87994   3.263   6.609   3.067 -1.5560 -1.3917 -2.7875
  638MOL0     H87995   3.115   6.543   3.071 -0.1936  0.7787 -0.5420
  638MOL0     H87996   3.309   6.472   3.300  0.2579 -0.0814 -0.1931
  638MOL0     H87997   3.186   6.373   3.211  0.6294 -0.7577 -0.9664
  638MOL0     H87998   3.296   6.349   3.021  1.4107 -0.1275 -1.5967
  638MOL0     H87999   3.431   6.459   3.078 -0.3054 -0.7344 -1.7069
  638MOL0     H88000   3.485   6.295   3.257 -3.3414  1.4448  2.6829
  638MOL0     H88001   3.352   6.185   3.205 -0.2747  0.8715  0.8173
  638MOL0     H88002   3.675   5.993   3.017  1.4941 -0.4321 -0.1615
  638MOL0     H88003   3.869   5.874   3.077  1.2819 -1.7006 -0.7512
  638MOL0     H88004   4.021   5.960   3.084 -0.4784 -0.1512  0.5022
  638MOL0     H88005   3.938   5.946   2.926 -0.9956 -2.1863 -0.3579
  638MOL0     H88006   4.206   6.249   3.426  2.4886 -0.8661  2.3356
  638MOL0     H88007   4.453   6.274   3.500  2.3052  0.7939  0.2627
  638MOL0     H88008   4.763   6.581   3.354  1.0703 -3.2520 -1.7297
  638MOL0     H88009   4.590   6.624   3.362 -2.6386 -0.7688  2.6647
  638MOL0     H88010   4.614   6.534   3.607 -0.1956 -1.3175 -1.5204
  638MOL0     H88011   4.790   6.533   3.574  0.5100 -0.4914 -1.7963
  638MOL0     H88012   4.595   6.766   3.565  0.0361  0.8535  0.5219
  638MOL0     H88013   4.757   6.770   3.504  0.4789  1.2178  1.2275
  638MOL0     H88014   4.831   6.704   3.749 -0.2274 -1.4828  1.6409
  638MOL0     H88015   4.664   6.681   3.796 -0.0435  1.0764  0.6317
  638MOL0     H88016   4.804   6.941   3.708  0.6469 -0.2020  1.0117
  638MOL0     H88017   4.626   6.935   3.727 -1.1428 -1.6129  0.3901
  638MOL0     H88018   4.851   6.862   3.934  0.4496 -1.4342 -2.2208
  638MOL0     H88019   4.684   6.882   3.984  3.3059 -3.2438  2.3115
  638MOL0     H88020   4.811   7.117   3.857 -2.1603  0.5837 -0.0682
  638MOL0     H88021   4.854   7.072   4.026 -0.4034 -0.6324  0.7588
  638MOL0     H88022   4.555   7.113   3.936 -0.7844  1.6007 -0.1397
  638MOL0     H88023   4.659   7.240   3.990  3.5724  0.4283  2.3525
  638MOL0     H88024   4.531   6.486   3.152  0.5042 -1.1930  0.1384
  638MOL0     H88025   4.295   6.458   3.071 -3.6005  0.9082  2.6631
  638MOL0     H88026   3.876   6.410   3.193 -1.1134  0.5526 -0.5920
  638MOL0     H88027   3.652   6.401   3.154 -3.9626 -1.6388  0.1808
  638MOL0     H88028   2.139   7.765   3.516  2.7258 -0.9509  0.0882
  638MOL0     H88029   1.964   7.884   3.386  1.1111  0.3142 -0.2603
  638MOL0     H88030   1.883   8.133   3.128 -0.3028 -0.9781 -0.2523
  638MOL0     H88031   1.733   8.326   3.084  2.7266 -1.1956 -0.8370
  638MOL0     H88032   1.500   8.366   3.284 -3.6180 -0.3199  1.2219
  638MOL0     H88033   1.524   8.492   3.156  0.5306 -0.1711  0.6430
  638MOL0     H88034   1.259   8.359   3.241 -1.9317 -1.0514 -3.2204
  638MOL0     H88035   1.281   8.505   3.141  1.8545  0.2513 -0.8995
  638MOL0     H88036   1.400   8.491   3.433 -2.5057 -0.7676  1.9594
  638MOL0     H88037   1.359   8.632   3.332  0.7601  0.4658  2.0128
  638MOL0     H88038   1.149   8.437   3.444  1.1684 -0.4791  0.7817
  638MOL0     H88039   1.117   8.567   3.344  0.2506 -1.0062 -1.6757
  638MOL0     H88040   1.192   8.738   3.743 -0.4311  0.3291  1.0795
  638MOL0     H88041   1.402   8.059   3.027  1.3809  0.0809 -3.9128
  638MOL0     H88042   1.617   7.793   2.976  0.3290  0.9690 -0.5305
  638MOL0     H88043   1.512   7.773   3.119 -1.2613 -0.6191 -0.8539
  638MOL0     H88044   1.443   7.844   2.977 -0.5376  0.4803  1.1489
  639MOL0     O88045   1.678   3.030   2.294 -0.2070  0.4077  0.0238
  639MOL0     C88046   1.614   2.932   2.261 -0.7174 -0.1846 -0.2704
  639MOL0     O88047   1.654   2.836   2.169 -0.0496 -0.0521  0.0487
  639MOL0     C88048   1.774   2.857   2.099 -0.0857  0.7921 -0.7752
  639MOL0     C88049   1.761   2.874   1.970 -1.0325 -0.0151 -0.0529
  639MOL0     C88050   1.884   2.887   1.893  0.7969  1.1939 -0.0581
  639MOL0     C88051   2.015   2.875   1.950  0.4196 -0.7066  0.4603
  639MOL0     O88052   2.116   2.903   1.865 -0.3550 -0.1050  0.0381
  639MOL0     C88053   2.237   2.930   1.939  0.4418 -0.2255 -0.8057
  639MOL0     C88054   2.337   2.995   1.853 -0.6472 -1.2868  1.2654
  639MOL0     C88055   2.478   2.977   1.918  0.5033  0.2735  0.9600
  639MOL0     C88056   2.584   3.008   1.809 -0.5526 -0.3165 -1.0529
  639MOL0     C88057   2.724   2.986   1.877  0.0012  0.5510 -0.3059
  639MOL0     C88058   2.837   3.011   1.777  1.1125 -0.1764 -0.4653
  639MOL0     C88059   2.969   3.019   1.845 -0.2739 -0.2837 -0.2085
  639MOL0     C88060   3.073   2.995   1.733  0.4805 -0.9989 -0.7149
  639MOL0     N88061   3.196   3.055   1.773  1.4203 -0.3883 -0.5349
  639MOL0     C88062   3.315   2.995   1.823 -0.5141 -0.7466 -1.2272
  639MOL0     C88063   3.400   3.101   1.855  0.3796 -0.5512  0.2504
  639MOL0     C88064   3.532   3.097   1.920 -0.0854 -0.3862  0.5060
  639MOL0     C88065   3.646   3.093   1.815 -0.2377  0.2994  0.4696
  639MOL0     C88066   3.775   3.041   1.880 -0.1342 -0.5087 -0.4776
  639MOL0     C88067   3.879   2.992   1.775  0.1882 -0.7354 -0.6145
  639MOL0     O88068   3.930   3.109   1.713 -0.3453  0.2292 -0.0139
  639MOL0     C88069   4.068   3.123   1.715  0.3493  0.3259 -0.3078
  639MOL0     C88070   4.122   3.249   1.735  0.8032  0.3685  0.2779
  639MOL0     C88071   4.259   3.283   1.746  0.6868  0.0429 -0.0970
  639MOL0     C88072   4.281   3.432   1.759  0.5308 -0.1839 -0.2446
  639MOL0     C88073   4.357   3.186   1.725  0.2848  1.1066 -0.9467
  639MOL0     C88074   4.508   3.206   1.727 -0.8829 -0.0968  0.0616
  639MOL0     O88075   4.584   3.093   1.727  0.7376 -0.2537 -0.0534
  639MOL0     C88076   4.720   3.100   1.724  0.2210  0.1333  0.2314
  639MOL0     C88077   4.783   3.010   1.633  0.0073 -0.4471 -0.3046
  639MOL0     C88078   4.919   3.012   1.613  0.7775 -0.4101 -0.5634
  639MOL0     C88079   5.003   3.095   1.683  0.3411 -0.1578 -0.7852
  639MOL0     O88080   5.134   3.087   1.669 -0.0135 -0.2445  0.9127
  639MOL0     C88081   5.184   3.141   1.544  0.7184  0.3519  0.2179
  639MOL0     C88082   5.163   3.293   1.543  0.1121  0.0430 -0.6301
  639MOL0     C88083   5.214   3.350   1.410 -0.2516  0.1752 -0.4008
  639MOL0     C88084   5.365   3.308   1.382 -0.1765 -0.6463 -1.1267
  639MOL0     C88085   5.408   3.357   1.250  0.6055  0.0053 -0.5076
  639MOL0     C88086   5.353   3.289   1.126  0.2228 -0.1287  0.0851
  639MOL0     C88087   5.440   3.296   0.998  0.2071 -0.3874  0.0551
  639MOL0     C88088   5.429   3.434   0.939  0.1102  0.1821 -0.2414
  639MOL0    Cl88089   5.270   3.464   0.867  0.1376 -0.2113 -0.3346
  639MOL0     C88090   4.937   3.191   1.772  0.1784  0.3167 -0.2751
  639MOL0     C88091   4.802   3.189   1.798  0.3392  0.6557  1.2804
  639MOL0     O88092   4.552   3.316   1.726  0.6572  0.4784  0.6615
  639MOL0     C88093   4.304   3.056   1.697  0.3339  0.7476 -0.6627
  639MOL0     C88094   4.168   3.026   1.695  0.5357  0.2695 -0.1253
  639MOL0     N88095   3.332   3.213   1.819  0.7780  0.2934 -0.2830
  639MOL0     N88096   3.224   3.193   1.759  0.1406  0.0228 -0.9566
  639MOL0     C88097   2.016   2.853   2.089  0.4252 -0.6721 -0.1153
  639MOL0     C88098   1.899   2.835   2.163  0.5413 -0.2741  0.5967
  639MOL0     C88099   1.475   2.935   2.296  0.3189 -0.2240  0.1920
  639MOL0     C88100   1.382   2.921   2.189  0.0351  0.5590 -0.2754
  639MOL0     C88101   1.247   2.925   2.221  0.2473 -0.2959 -0.4961
  639MOL0     C88102   1.194   2.949   2.347 -0.9249  0.0201 -0.2770
  639MOL0     O88103   1.060   2.941   2.385  0.1571  0.6007  0.2193
  639MOL0     C88104   0.965   2.898   2.285  0.0518 -0.1354  0.5424
  639MOL0     C88105   0.917   3.017   2.201 -1.4376 -0.7777 -0.4335
  639MOL0     C88106   0.870   2.973   2.065  0.1663  0.6318 -0.1643
  639MOL0     C88107   0.908   3.074   1.954  0.4970 -0.4061 -0.0697
  639MOL0     C88108   1.054   3.081   1.926  0.4157  0.2870  0.4200
  639MOL0     C88109   1.173   3.091   1.895  0.3925 -0.0723  0.9210
  639MOL0     C88110   1.282   2.969   2.449 -0.6941  0.4615 -0.0360
  639MOL0     C88111   1.420   2.966   2.426  0.0951 -0.4155  0.0648
  639MOL0     C88112   1.506   3.003   2.545  0.6954  0.5006 -0.1844
  639MOL0     H88113   1.658   2.886   1.937 -0.6941  0.9336 -0.8389
  639MOL0     H88114   1.881   2.890   1.785 -0.4124 -1.1429 -0.1460
  639MOL0     H88115   2.276   2.840   1.988  2.0670  0.5867 -0.5092
  639MOL0     H88116   2.216   2.994   2.025  2.0684 -0.0504 -0.5060
  639MOL0     H88117   2.338   2.959   1.750  1.6165 -1.4088  1.2812
  639MOL0     H88118   2.324   3.103   1.856 -0.5987 -1.2994  2.3071
  639MOL0     H88119   2.493   3.049   1.998  1.2901  0.8420  0.3152
  639MOL0     H88120   2.490   2.876   1.959  1.1939  0.4880  1.2809
  639MOL0     H88121   2.571   2.949   1.718  1.0141 -1.1835 -0.7627
  639MOL0     H88122   2.570   3.111   1.775 -1.3178  0.0371  0.2642
  639MOL0     H88123   2.730   2.883   1.914 -2.5347  0.2041 -0.6974
  639MOL0     H88124   2.724   3.049   1.967 -1.3519  2.0426 -1.2903
  639MOL0     H88125   2.839   2.931   1.702  0.7152 -2.1886  1.5278
  639MOL0     H88126   2.815   3.105   1.727  0.6365 -0.7972 -1.4650
  639MOL0     H88127   2.982   2.949   1.927  0.1709  1.9336  1.7311
  639MOL0     H88128   2.976   3.118   1.890 -1.4717  0.0768 -0.7688
  639MOL0     H88129   3.080   2.889   1.710 -1.9119 -1.1934 -0.7953
  639MOL0     H88130   3.043   3.039   1.637 -0.8017 -1.3529 -0.4857
  639MOL0     H88131   3.330   2.890   1.841 -0.5628 -0.4258  0.9180
  639MOL0     H88132   3.538   3.012   1.989  2.5446 -0.9630 -0.3476
  639MOL0     H88133   3.543   3.185   1.985 -1.3071  1.4849 -1.6574
  639MOL0     H88134   3.620   3.011   1.747 -2.6281  0.0491  1.5949
  639MOL0     H88135   3.666   3.190   1.768  4.7671 -0.1529  1.1275
  639MOL0     H88136   3.821   3.118   1.943 -0.4912 -0.2086 -0.5752
  639MOL0     H88137   3.751   2.951   1.936 -1.5846 -2.0712 -3.3618
  639MOL0     H88138   3.957   2.926   1.814 -0.9441  0.1272  3.6923
  639MOL0     H88139   3.834   2.937   1.692  0.7781 -2.6003  0.2554
  639MOL0     H88140   4.052   3.332   1.744  0.6036  0.3453 -0.8386
  639MOL0     H88141   4.183   3.478   1.775  1.0612  1.3506 -1.2508
  639MOL0     H88142   4.325   3.468   1.666 -1.5459 -0.1708 -1.2942
  639MOL0     H88143   4.354   3.451   1.838  0.7202  1.8707 -0.8471
  639MOL0     H88144   4.725   2.956   1.559 -0.0323  3.3099 -3.2978
  639MOL0     H88145   4.968   2.948   1.540 -0.5653  0.5497 -2.3845
  639MOL0     H88146   5.290   3.114   1.535 -0.2569 -3.9051 -0.6646
  639MOL0     H88147   5.132   3.093   1.460 -1.3820 -0.1653  1.7501
  639MOL0     H88148   5.058   3.324   1.556  0.5007  1.5020 -0.7124
  639MOL0     H88149   5.221   3.341   1.622  0.2404  1.5130 -1.5577
  639MOL0     H88150   5.203   3.458   1.418 -0.3979  0.0057  3.7587
  639MOL0     H88151   5.145   3.317   1.332  0.3238  0.2505 -0.9524
  639MOL0     H88152   5.368   3.199   1.379 -0.8809 -0.7255  0.2788
  639MOL0     H88153   5.437   3.346   1.456  0.5482 -0.4881 -1.8919
  639MOL0     H88154   5.395   3.466   1.251 -0.6737 -0.1206 -1.1203
  639MOL0     H88155   5.516   3.339   1.247  0.5204 -0.5405 -2.8078
  639MOL0     H88156   5.253   3.331   1.113  1.0222  1.7214 -0.5935
  639MOL0     H88157   5.343   3.183   1.148  0.2701 -0.1295  0.1027
  639MOL0     H88158   5.395   3.237   0.918  0.2915 -0.2920 -0.0626
  639MOL0     H88159   5.546   3.282   1.021  0.1902  1.2138  1.2942
  639MOL0     H88160   5.508   3.436   0.864  0.9240  1.9188  0.5937
  639MOL0     H88161   5.462   3.503   1.018  1.6593  0.7747 -1.3493
  639MOL0     H88162   5.005   3.257   1.823 -0.6723  0.8100  0.2415
  639MOL0     H88163   4.756   3.261   1.865 -1.9727 -0.0937  0.5854
  639MOL0     H88164   4.366   2.970   1.674 -0.3962 -0.1273  0.5090
  639MOL0     H88165   4.143   2.926   1.661 -0.7011  1.3867 -2.8313
  639MOL0     H88166   2.104   2.854   2.151  0.6373  1.4623 -0.3968
  639MOL0     H88167   1.900   2.815   2.269 -1.3164 -1.0346  0.5103
  639MOL0     H88168   1.403   2.909   2.083 -1.3628 -2.9151 -0.2971
  639MOL0     H88169   1.170   2.910   2.146 -0.2208 -1.3748  0.1744
  639MOL0     H88170   1.008   2.816   2.227  0.6932  0.4143  0.2393
  639MOL0     H88171   0.880   2.850   2.335 -0.5183  1.5221  1.2283
  639MOL0     H88172   0.998   3.089   2.187 -0.4873 -1.9011 -0.9441
  639MOL0     H88173   0.843   3.069   2.261  1.1466  1.7625  0.8026
  639MOL0     H88174   0.917   2.878   2.040  5.2142  1.9642  2.6690
  639MOL0     H88175   0.762   2.970   2.076  0.0429  0.9125 -1.2257
  639MOL0     H88176   0.875   3.176   1.977 -0.3190 -0.2163 -1.9605
  639MOL0     H88177   0.852   3.059   1.862 -2.1194 -0.5795  1.4622
  639MOL0     H88178   1.278   3.103   1.877  0.7642 -2.9175  0.8343
  639MOL0     H88179   1.242   2.996   2.546  2.2329 -0.0981  1.4446
  639MOL0     H88180   1.446   2.967   2.630  0.9307  0.6952  0.0667
  639MOL0     H88181   1.608   2.963   2.549 -0.2007 -1.9242  0.4288
  639MOL0     H88182   1.513   3.112   2.545 -1.0782  0.6460 -0.3983
  640MOL0     O88183   5.322   3.110  11.095 -1.0140 -0.3149 -0.1463
  640MOL0     C88184   5.394   3.086  11.194 -0.5575  0.3523 -0.1779
  640MOL0     O88185   5.523   3.046  11.188  0.0631  0.5070 -0.7007
  640MOL0     C88186   5.600   3.069  11.081  0.4573 -1.0056  0.5251
  640MOL0     C88187   5.633   2.972  10.984  0.6864 -0.1007  0.3617
  640MOL0     C88188   5.721   3.012  10.875 -0.2634  0.2601  0.1880
  640MOL0     C88189   5.780   3.139  10.861  0.8577 -0.6105  0.5121
  640MOL0     O88190   5.867   3.166  10.757  0.2775  0.2758 -0.2585
  640MOL0     C88191   5.852   3.285  10.685 -0.0400  0.2055 -0.2222
  640MOL0     C88192   5.918   3.284  10.553 -0.4517  0.5833 -0.3459
  640MOL0     C88193   6.075   3.278  10.564 -0.3411  0.2167  0.8005
  640MOL0     C88194   6.145   3.270  10.432 -0.0942  0.0242 -0.6829
  640MOL0     C88195   6.300   3.300  10.462  0.4477 -0.3971 -0.1951
  640MOL0     C88196   6.325   3.451  10.489  0.2155  0.2439  0.3334
  640MOL0     C88197   6.479   3.472  10.519  0.0484  1.2402 -0.5055
  640MOL0     C88198   6.525   3.406  10.658  0.1621  0.1595  0.0639
  640MOL0     N88199   6.654   3.459  10.708  0.4674 -0.1050 -0.0443
  640MOL0     C88200   6.781   3.409  10.693 -0.2170  0.1329  0.2746
  640MOL0     C88201   6.850   3.509  10.758 -0.3922 -0.6406 -0.1175
  640MOL0     C88202   7.003   3.510  10.767 -0.3540  0.4707 -0.5411
  640MOL0     C88203   7.079   3.617  10.677  0.3442  0.7581 -0.5623
  640MOL0     C88204   7.096   3.757  10.727  0.0288 -0.1478  0.3193
  640MOL0     C88205   7.195   3.823  10.644  0.2434 -0.5565 -0.1916
  640MOL0     O88206   7.324   3.793  10.690 -0.6750  0.0244 -0.7658
  640MOL0     C88207   7.426   3.858  10.623 -0.8110  0.1369  0.6786
  640MOL0     C88208   7.407   3.954  10.520  1.2577  0.5064 -0.4370
  640MOL0     C88209   7.510   4.015  10.449 -0.7593 -0.3113  0.7981
  640MOL0     C88210   7.483   4.107  10.336 -0.0062 -0.1396 -0.5866
  640MOL0     C88211   7.646   3.994  10.490  0.0855 -0.7319 -0.2092
  640MOL0     C88212   7.773   4.058  10.433  0.1217  0.2414 -0.5493
  640MOL0     O88213   7.891   3.999  10.466 -0.5114  0.3484  0.3442
  640MOL0     C88214   8.002   4.067  10.430  0.1176  0.6652  0.7513
  640MOL0     C88215   8.067   4.154  10.523 -0.0331 -0.3778  0.4520
  640MOL0     C88216   8.163   4.241  10.471 -0.8203 -0.0091 -0.1018
  640MOL0     C88217   8.205   4.236  10.336 -0.6368 -0.5421  0.5314
  640MOL0     O88218   8.298   4.329  10.293  0.9458 -0.6393 -0.1975
  640MOL0     C88219   8.360   4.420  10.381 -0.2329 -0.0139 -0.1959
  640MOL0     C88220   8.461   4.495  10.293  0.0297 -0.2016 -0.6258
  640MOL0     C88221   8.394   4.599  10.191  0.4470  0.6771 -0.3148
  640MOL0     C88222   8.299   4.697  10.267  0.1657  0.7910  0.1885
  640MOL0     C88223   8.227   4.781  10.162  0.4183  0.4180 -0.3285
  640MOL0     C88224   8.131   4.884  10.228  0.0259  0.1723  0.0723
  640MOL0     C88225   8.026   4.958  10.120 -0.9813 -0.4356 -0.0539
  640MOL0     C88226   7.924   5.046  10.193 -0.0193  0.1722 -0.4834
  640MOL0    Cl88227   7.811   5.122  10.074  0.1842 -0.2693 -0.0248
  640MOL0     C88228   8.146   4.151  10.249  0.0977  0.0867  0.2796
  640MOL0     C88229   8.036   4.073  10.300 -0.3728  0.4484  0.1735
  640MOL0     O88230   7.766   4.168  10.370  0.3251  0.2082  0.3114
  640MOL0     C88231   7.671   3.899  10.594 -0.4401  0.5254 -0.2011
  640MOL0     C88232   7.561   3.830  10.659  1.1677  0.3289 -1.1897
  640MOL0     N88233   6.767   3.608  10.815  0.0464  0.0879 -0.0163
  640MOL0     N88234   6.649   3.575  10.781  0.5770  0.6633 -0.1128
  640MOL0     C88235   5.739   3.233  10.949  0.3008  0.3530 -0.5579
  640MOL0     C88236   5.655   3.199  11.056 -0.1535  0.8347  0.2664
  640MOL0     C88237   5.342   3.102  11.332  0.4203  0.6789  0.1486
  640MOL0     C88238   5.213   3.152  11.349  0.8191 -0.1909  0.5231
  640MOL0     C88239   5.159   3.186  11.474 -0.6726 -0.6621 -0.0237
  640MOL0     C88240   5.240   3.163  11.590 -0.0319 -0.7054  0.3785
  640MOL0     O88241   5.198   3.204  11.715  0.3730  0.3047  0.8355
  640MOL0     C88242   5.279   3.187  11.831 -0.7457 -0.5062 -0.4737
  640MOL0     C88243   5.214   3.243  11.957 -0.0310 -0.9001  0.3087
  640MOL0     C88244   5.079   3.177  11.993  0.1451 -0.2089 -1.1460
  640MOL0     C88245   5.054   3.198  12.150 -0.2892  0.2345  0.3817
  640MOL0     C88246   4.917   3.150  12.176 -0.6860 -0.3145  1.3298
  640MOL0     C88247   4.814   3.109  12.221 -0.5798  0.2888 -0.0193
  640MOL0     C88248   5.367   3.104  11.567  0.7695 -0.1500 -0.6029
  640MOL0     C88249   5.415   3.062  11.445 -0.9761  1.2679 -0.1635
  640MOL0     C88250   5.549   2.984  11.464 -0.3238  0.2924  0.2046
  640MOL0     H88251   5.585   2.876  10.994  0.2128  0.1172  0.2049
  640MOL0     H88252   5.742   2.934  10.802  1.0569 -0.5385  1.3722
  640MOL0     H88253   5.905   3.361  10.744 -0.0247 -2.2296  3.2494
  640MOL0     H88254   5.747   3.313  10.675 -0.4745 -0.8652  0.9600
  640MOL0     H88255   5.879   3.197  10.500 -1.4552  1.1915 -0.6176
  640MOL0     H88256   5.894   3.371  10.492  1.3574 -0.1107 -2.1525
  640MOL0     H88257   6.105   3.365  10.623 -1.0115  0.1325  1.2799
  640MOL0     H88258   6.091   3.189  10.625 -1.0332  0.9877  2.1480
  640MOL0     H88259   6.144   3.171  10.385 -2.4238  1.2989 -3.6870
  640MOL0     H88260   6.093   3.334  10.360  0.0291  0.5029 -0.3543
  640MOL0     H88261   6.349   3.269  10.369 -0.3237 -1.0907 -0.3809
  640MOL0     H88262   6.346   3.232  10.534  1.8339  0.9856  0.2739
  640MOL0     H88263   6.296   3.513  10.404  1.6829 -0.0739 -0.4385
  640MOL0     H88264   6.274   3.488  10.578 -0.8531  1.2472 -0.6690
  640MOL0     H88265   6.511   3.577  10.524  2.8734  0.6079 -2.7692
  640MOL0     H88266   6.528   3.432  10.430 -0.6637  0.4947 -0.5673
  640MOL0     H88267   6.443   3.408  10.731 -0.1506 -0.6408 -0.2497
  640MOL0     H88268   6.537   3.298  10.641  1.0388 -0.0637  1.8629
  640MOL0     H88269   6.818   3.324  10.637  1.8754  0.0768  1.6201
  640MOL0     H88270   7.026   3.406  10.743 -0.2450  0.3660 -0.0099
  640MOL0     H88271   7.035   3.518  10.871 -2.6724 -3.4196  0.6802
  640MOL0     H88272   7.175   3.570  10.655 -0.1798  0.7216 -3.1668
  640MOL0     H88273   7.031   3.616  10.579 -0.8090  0.5267 -0.0131
  640MOL0     H88274   6.997   3.799  10.704  1.2017  2.8084  0.2493
  640MOL0     H88275   7.121   3.765  10.833  2.7647  0.5953 -0.3096
  640MOL0     H88276   7.176   3.793  10.540 -1.5120 -0.6849  0.1346
  640MOL0     H88277   7.176   3.930  10.656  0.2340 -0.7114  1.4402
  640MOL0     H88278   7.307   3.978  10.484  0.6179 -0.4607  0.5910
  640MOL0     H88279   7.489   4.212  10.364  0.2360 -0.8431  2.2745
  640MOL0     H88280   7.384   4.090  10.292  0.9338  1.1232 -3.4438
  640MOL0     H88281   7.556   4.091  10.256 -1.2599  1.2779 -2.0874
  640MOL0     H88282   8.018   4.167  10.619 -1.0145  0.2287 -0.1098
  640MOL0     H88283   8.215   4.301  10.545  0.2271  0.3460 -1.0965
  640MOL0     H88284   8.284   4.482  10.429 -0.3304  0.0655 -0.4519
  640MOL0     H88285   8.419   4.372  10.459  0.6859  1.4869  0.0746
  640MOL0     H88286   8.541   4.538  10.353 -0.7721  0.0474  0.2804
  640MOL0     H88287   8.521   4.427  10.231  0.3938 -1.0065  0.5843
  640MOL0     H88288   8.335   4.544  10.117  1.2051  1.2673 -1.3882
  640MOL0     H88289   8.470   4.654  10.135  1.3411  0.3816  0.5704
  640MOL0     H88290   8.361   4.761  10.331  2.3677 -0.7323 -0.3144
  640MOL0     H88291   8.221   4.638  10.316  1.7868 -0.6362  1.1443
  640MOL0     H88292   8.298   4.834  10.098 -0.3345  0.2553 -1.3035
  640MOL0     H88293   8.179   4.712  10.093  1.9633 -4.4705  2.9349
  640MOL0     H88294   8.185   4.961  10.284  0.5801 -1.3645  1.7550
  640MOL0     H88295   8.079   4.827  10.304  2.0702 -1.5458  0.2821
  640MOL0     H88296   7.962   4.880  10.079 -2.8583 -0.2248  2.2284
  640MOL0     H88297   8.077   5.015  10.042  0.3884 -0.3550  0.8634
  640MOL0     H88298   7.966   5.135  10.242 -1.8138 -0.1910  1.8825
  640MOL0     H88299   7.868   4.985  10.264  0.6075  0.5438  0.3464
  640MOL0     H88300   8.176   4.143  10.145  2.0547 -0.3121  0.8395
  640MOL0     H88301   7.982   3.996  10.246  0.6229 -1.7577  2.1290
  640MOL0     H88302   7.768   3.877  10.637 -0.3851  1.4970  0.2000
  640MOL0     H88303   7.589   3.764  10.741 -1.0272  0.2113 -0.4776
  640MOL0     H88304   5.767   3.337  10.953  2.1645 -0.0999 -0.8901
  640MOL0     H88305   5.634   3.270  11.136 -1.5807 -3.1896  3.8299
  640MOL0     H88306   5.157   3.167  11.257  1.6460  1.3935  0.2414
  640MOL0     H88307   5.059   3.224  11.489 -0.3271 -0.2768  1.4948
  640MOL0     H88308   5.287   3.078  11.837  2.4365 -0.4180 -1.2293
  640MOL0     H88309   5.374   3.242  11.824 -1.8969  1.5649 -0.6153
  640MOL0     H88310   5.206   3.352  11.955  1.6545 -0.6395  2.7214
  640MOL0     H88311   5.284   3.226  12.040 -1.3196 -0.1560  1.5962
  640MOL0     H88312   5.008   3.237  11.936  1.5411  2.5214 -0.1941
  640MOL0     H88313   5.081   3.071  11.967 -1.7520 -0.8285  0.9467
  640MOL0     H88314   5.062   3.304  12.178  0.4760  0.1558  0.4936
  640MOL0     H88315   5.130   3.141  12.204 -0.8214 -1.0359 -0.1835
  640MOL0     H88316   4.715   3.082  12.249 -1.4180  3.1079  0.0491
  640MOL0     H88317   5.424   3.083  11.657  3.3153  0.1517 -2.0750
  640MOL0     H88318   5.630   3.029  11.407 -1.0017  1.5733  0.2297
  640MOL0     H88319   5.593   2.981  11.564 -0.3844 -0.1364  0.2212
  640MOL0     H88320   5.538   2.881  11.427  1.4338  0.9551 -2.4429
  641MOL0     O88321   2.159   0.260   4.367 -0.1999 -1.3772  0.8461
  641MOL0     C88322   2.139   0.217   4.485  0.5201  0.1812 -0.2752
  641MOL0     O88323   2.210   0.112   4.543 -0.2096 -0.0134  0.1663
  641MOL0     C88324   2.323   0.076   4.470 -0.4771 -0.2188 -0.2738
  641MOL0     C88325   2.448   0.111   4.534  0.8034  0.3586  0.1101
  641MOL0     C88326   2.568   0.069   4.474  0.0350 -1.2094  0.5924
  641MOL0     C88327   2.569  -0.001   4.352  0.0616  0.1630 -0.1602
  641MOL0     O88328   2.687  -0.003   4.296 -0.7767 -1.1500  0.2637
  641MOL0     C88329   2.729  -0.105   4.208 -0.4004 -0.3105  0.2001
  641MOL0     C88330   2.865  -0.092   4.158  0.1825 -0.0433  0.3281
  641MOL0     C88331   2.965  -0.128   4.261  0.8773  0.0233 -0.4879
  641MOL0     C88332   3.098  -0.056   4.254  0.3672  0.8030  0.5781
  641MOL0     C88333   3.173  -0.081   4.123 -0.4217  0.2123  0.9767
  641MOL0     C88334   3.310  -0.022   4.140 -0.7280 -0.3997  0.4584
  641MOL0     C88335   3.382  -0.035   4.010 -0.0316  0.3672 -0.1714
  641MOL0     C88336   3.531  -0.036   4.038  1.1869  0.3468 -0.7428
  641MOL0     N88337   3.620  -0.046   3.921 -0.3545 -0.8517 -0.4993
  641MOL0     C88338   3.599  -0.118   3.811 -0.1802 -0.2156  0.1247
  641MOL0     C88339   3.719  -0.123   3.747  0.2872 -1.3984 -0.4112
  641MOL0     C88340   3.740  -0.198   3.615  0.8628 -0.8553  0.6149
  641MOL0     C88341   3.881  -0.225   3.580  0.8311  0.4359  0.8118
  641MOL0     C88342   3.956  -0.306   3.678 -0.0164  0.1198 -0.9737
  641MOL0     C88343   4.101  -0.345   3.632 -0.1959 -0.2870  0.1410
  641MOL0     O88344   4.177  -0.224   3.622 -0.3149 -0.1329  0.5167
  641MOL0     C88345   4.312  -0.234   3.642  0.2400  0.0056  0.1827
  641MOL0     C88346   4.388  -0.352   3.644 -1.1236 -0.1922 -0.9782
  641MOL0     C88347   4.527  -0.360   3.664  0.6090 -0.3450  0.2151
  641MOL0     C88348   4.599  -0.496   3.667 -0.0141  0.2091 -0.1305
  641MOL0     C88349   4.597  -0.235   3.674  0.2717  0.0558 -0.3269
  641MOL0     C88350   4.743  -0.222   3.661  0.4697 -0.4417  0.1198
  641MOL0     O88351   4.803  -0.109   3.715 -0.3763  0.1658  0.5696
  641MOL0     C88352   4.940  -0.080   3.740 -0.6762  0.2912 -0.8569
  641MOL0     C88353   4.984   0.049   3.778 -0.1606 -0.4980 -0.1193
  641MOL0     C88354   5.110   0.094   3.806  0.7761 -0.5276  0.1894
  641MOL0     C88355   5.209   0.005   3.792  0.0943 -0.0876 -0.6703
  641MOL0     O88356   5.340   0.022   3.823  0.0491  0.4234  0.1364
  641MOL0     C88357   5.364   0.117   3.925 -0.4320 -0.3162 -0.0082
  641MOL0     C88358   5.501   0.085   3.983  0.2604  0.7287  0.1661
  641MOL0     C88359   5.615   0.149   3.895 -0.2719  0.3757 -0.2222
  641MOL0     C88360   5.756   0.118   3.942  0.2113 -0.6598  0.6156
  641MOL0     C88361   5.797  -0.035   3.928  0.0937 -0.3116 -0.4491
  641MOL0     C88362   5.944  -0.054   3.979 -0.1374  0.6661  0.8241
  641MOL0     C88363   5.967  -0.206   4.001  0.2767  0.8673 -0.2987
  641MOL0     C88364   6.113  -0.231   4.045  0.6975 -0.3320  0.6629
  641MOL0    Cl88365   6.160  -0.404   4.029  0.3280  0.4184  0.1146
  641MOL0     C88366   5.172  -0.123   3.753  0.3996  0.4903  0.6345
  641MOL0     C88367   5.044  -0.169   3.730 -0.0316  0.4355 -0.4962
  641MOL0     O88368   4.797  -0.306   3.590 -0.4421  0.8351 -0.0328
  641MOL0     C88369   4.519  -0.118   3.675  0.6118 -0.3621 -0.5720
  641MOL0     C88370   4.383  -0.116   3.655  0.4377  0.8945 -0.3944
  641MOL0     N88371   3.810  -0.048   3.819  0.0598 -0.1819  0.1523
  641MOL0     N88372   3.745  -0.000   3.918 -0.3860 -0.3154  0.2883
  641MOL0     C88373   2.451  -0.048   4.290  0.1740 -0.2002 -0.5155
  641MOL0     C88374   2.327  -0.003   4.354  0.3374 -0.4112 -0.5777
  641MOL0     C88375   2.019   0.254   4.565  0.9369 -0.0715  0.7065
  641MOL0     C88376   2.013   0.209   4.700  0.6752 -0.0143 -0.1821
  641MOL0     C88377   1.905   0.245   4.780 -0.5163  1.1584 -0.1292
  641MOL0     C88378   1.798   0.326   4.731 -0.3165 -0.3954  0.3631
  641MOL0     O88379   1.693   0.349   4.817 -0.6124 -0.6388  0.1497
  641MOL0     C88380   1.593   0.451   4.790  0.1503  0.2731  0.0885
  641MOL0     C88381   1.499   0.460   4.914  0.3874 -0.3321 -0.1970
  641MOL0     C88382   1.397   0.572   4.880  0.3394 -0.1857 -1.1676
  641MOL0     C88383   1.322   0.619   5.005 -0.0321 -0.1447 -0.4853
  641MOL0     C88384   1.225   0.522   5.054  0.1182 -0.1640  0.3075
  641MOL0     C88385   1.156   0.445   5.122  0.2934  0.1506 -0.2694
  641MOL0     C88386   1.805   0.377   4.602  0.5932  0.1184  0.3900
  641MOL0     C88387   1.916   0.344   4.521 -0.3769  0.6391  0.2570
  641MOL0     C88388   1.907   0.411   4.381  0.1371  0.2173 -0.4272
  641MOL0     H88389   2.444   0.178   4.619 -2.6081 -1.3150  1.4483
  641MOL0     H88390   2.661   0.108   4.515 -0.7141 -0.4281  1.5830
  641MOL0     H88391   2.653  -0.094   4.130 -0.9537  2.5128  1.0422
  641MOL0     H88392   2.711  -0.200   4.259 -1.8657  0.5402  1.3739
  641MOL0     H88393   2.882  -0.162   4.075 -0.4272  0.4685 -0.2422
  641MOL0     H88394   2.884   0.008   4.118 -0.0631 -0.1824 -0.1424
  641MOL0     H88395   2.924  -0.113   4.362  0.4888  0.1230 -0.6583
  641MOL0     H88396   2.981  -0.236   4.249  1.2509  0.2605 -2.4286
  641MOL0     H88397   3.074   0.051   4.258 -0.9462  0.6386 -1.3997
  641MOL0     H88398   3.153  -0.096   4.340 -1.5988 -0.7828  1.1642
  641MOL0     H88399   3.123  -0.018   4.049  2.3918  4.6048  2.4034
  641MOL0     H88400   3.171  -0.184   4.087 -0.4857  0.3732  0.5061
  641MOL0     H88401   3.296   0.082   4.171 -0.3604  0.8698 -3.1555
  641MOL0     H88402   3.357  -0.077   4.222 -1.2759  1.3632  2.0318
  641MOL0     H88403   3.359   0.049   3.945 -0.9266 -1.2585 -2.0799
  641MOL0     H88404   3.350  -0.134   3.974  1.1430 -0.3219  0.6089
  641MOL0     H88405   3.547   0.056   4.094  0.6559 -1.0192  1.8170
  641MOL0     H88406   3.558  -0.122   4.099 -3.5804 -0.9616 -0.0589
  641MOL0     H88407   3.507  -0.163   3.775  0.9738 -1.0675 -1.8960
  641MOL0     H88408   3.695  -0.138   3.535 -2.5716  0.0167  2.9966
  641MOL0     H88409   3.677  -0.288   3.616 -1.5549  0.6868 -0.8910
  641MOL0     H88410   3.883  -0.267   3.479  3.1998  0.7465  0.6843
  641MOL0     H88411   3.928  -0.126   3.571  1.0180  0.3642  1.0086
  641MOL0     H88412   3.968  -0.251   3.771  0.3593 -0.1754 -0.8461
  641MOL0     H88413   3.909  -0.404   3.688 -3.5953  1.8357  0.7096
  641MOL0     H88414   4.140  -0.417   3.705 -3.1829 -2.1812  0.0296
  641MOL0     H88415   4.097  -0.401   3.538 -2.1913 -0.0378  0.0305
  641MOL0     H88416   4.346  -0.452   3.637 -3.8208  0.8379 -0.7260
  641MOL0     H88417   4.633  -0.527   3.568 -2.0981  0.9632 -1.1484
  641MOL0     H88418   4.528  -0.566   3.712 -1.4710  2.0800  0.6509
  641MOL0     H88419   4.681  -0.507   3.739 -0.5698 -0.7051  0.3824
  641MOL0     H88420   4.907   0.125   3.766  2.3125  1.7701 -3.2683
  641MOL0     H88421   5.130   0.193   3.846  0.8730  0.1090 -1.3550
  641MOL0     H88422   5.361   0.219   3.886 -1.5908  0.9694  3.1338
  641MOL0     H88423   5.291   0.104   4.006  0.4390 -2.9813  0.4731
  641MOL0     H88424   5.513   0.130   4.082 -2.7196 -1.7962  1.8469
  641MOL0     H88425   5.529  -0.020   3.987  3.7415  1.3369 -2.4388
  641MOL0     H88426   5.598   0.256   3.908 -3.7158 -0.3307  3.0499
  641MOL0     H88427   5.598   0.124   3.790 -2.7892  2.7508 -0.5015
  641MOL0     H88428   5.761   0.151   4.046 -0.7075 -2.1086  1.1663
  641MOL0     H88429   5.817   0.186   3.883 -2.2843  1.1718  0.0007
  641MOL0     H88430   5.724  -0.091   3.986  1.6769  2.0170  4.3065
  641MOL0     H88431   5.788  -0.058   3.821 -0.7137  2.2688 -1.0083
  641MOL0     H88432   5.968  -0.009   4.076  3.2618  1.1842 -0.1016
  641MOL0     H88433   6.012  -0.022   3.898 -2.5710 -0.9801 -2.0714
  641MOL0     H88434   5.939  -0.253   3.906  0.3170 -3.2415  1.5134
  641MOL0     H88435   5.893  -0.238   4.075 -0.0444 -1.0470 -1.3699
  641MOL0     H88436   6.133  -0.200   4.148  0.5349  1.7005  0.1115
  641MOL0     H88437   6.183  -0.181   3.978 -0.6237  0.7157  0.0263
  641MOL0     H88438   5.253  -0.195   3.754  0.0420  0.0642 -0.0765
  641MOL0     H88439   5.016  -0.268   3.694  2.6401  0.7270 -3.7889
  641MOL0     H88440   4.561  -0.019   3.660 -0.0891 -0.3279 -2.6712
  641MOL0     H88441   4.330  -0.021   3.653 -1.2697 -0.0082 -0.5602
  641MOL0     H88442   2.456  -0.100   4.195  2.1257 -1.5271  0.2627
  641MOL0     H88443   2.241  -0.036   4.298  0.2117  1.4571 -1.5650
  641MOL0     H88444   2.076   0.128   4.734 -0.5646 -1.0238 -0.1880
  641MOL0     H88445   1.909   0.225   4.886 -0.5367  2.8330  0.2119
  641MOL0     H88446   1.649   0.545   4.789 -0.6143  0.7340  0.6174
  641MOL0     H88447   1.539   0.445   4.695  3.1052 -1.9530 -1.6779
  641MOL0     H88448   1.554   0.484   5.006  0.5490  0.8080 -0.5784
  641MOL0     H88449   1.441   0.368   4.925  1.8660 -1.3237 -0.4508
  641MOL0     H88450   1.457   0.655   4.841  0.8034  0.4007  0.6882
  641MOL0     H88451   1.320   0.533   4.813  1.6954 -0.6571 -2.5139
  641MOL0     H88452   1.267   0.710   4.978  2.7528  0.7349 -4.0095
  641MOL0     H88453   1.389   0.652   5.085  1.3064  1.0838 -2.0487
  641MOL0     H88454   1.097   0.370   5.170  1.7852 -1.1754 -0.4310
  641MOL0     H88455   1.724   0.429   4.553 -0.3912 -3.5980 -2.3462
  641MOL0     H88456   1.890   0.335   4.303  0.2908 -0.0267 -0.2242
  641MOL0     H88457   1.840   0.497   4.378  0.0317  0.1412 -0.2520
  641MOL0     H88458   2.006   0.455   4.360  0.2043  1.1712  1.6907
  642MOL0     O88459   3.865   5.546   4.998 -0.6281  0.3511 -0.4494
  642MOL0     C88460   3.863   5.564   4.878 -0.1828 -0.0951  0.3013
  642MOL0     O88461   3.940   5.500   4.784  0.3105  0.3377 -0.0719
  642MOL0     C88462   4.044   5.427   4.831  1.0987 -0.4321  1.0145
  642MOL0     C88463   4.010   5.306   4.881  1.4056 -0.5410 -0.6262
  642MOL0     C88464   4.100   5.205   4.915 -0.1282  0.3216  1.4353
  642MOL0     C88465   4.234   5.235   4.899 -0.0061  0.8813 -0.8741
  642MOL0     O88466   4.325   5.133   4.928  0.2584  0.0748 -0.4196
  642MOL0     C88467   4.468   5.135   4.892  0.2304  0.5726  0.1656
  642MOL0     C88468   4.482   5.163   4.744  1.3604 -0.2592 -0.9373
  642MOL0     C88469   4.624   5.160   4.698 -0.4321 -0.1956 -0.1814
  642MOL0     C88470   4.721   5.270   4.761 -1.0905  0.0126 -0.3073
  642MOL0     C88471   4.861   5.284   4.690 -0.4949  0.9410 -0.2840
  642MOL0     C88472   4.972   5.347   4.777  0.3924  0.1820  0.6421
  642MOL0     C88473   5.100   5.395   4.693 -0.2149 -0.3121 -0.5074
  642MOL0     C88474   5.208   5.476   4.781  0.2730 -0.1269  0.2834
  642MOL0     N88475   5.315   5.523   4.691  0.1355  0.2074  0.8590
  642MOL0     C88476   5.316   5.638   4.626  0.5427 -0.3997  1.2943
  642MOL0     C88477   5.434   5.638   4.551 -0.3393  0.1025  0.4411
  642MOL0     C88478   5.469   5.745   4.452 -0.2235 -0.3710 -0.0569
  642MOL0     C88479   5.615   5.749   4.413  0.0359  0.3265 -0.4224
  642MOL0     C88480   5.651   5.830   4.296  0.1766 -0.5760  0.1976
  642MOL0     C88481   5.802   5.837   4.288 -0.3400 -0.3756 -0.1134
  642MOL0     O88482   5.845   5.950   4.361  0.4334  0.2622  0.0902
  642MOL0     C88483   5.966   5.997   4.326  0.0754 -0.8102  0.2819
  642MOL0     C88484   5.979   6.126   4.276 -0.2854  0.3675 -0.1571
  642MOL0     C88485   6.105   6.184   4.232 -0.7021 -0.5270  0.6901
  642MOL0     C88486   6.111   6.327   4.185 -0.4927 -0.3838  0.7556
  642MOL0     C88487   6.219   6.096   4.244 -0.1396 -0.6999  0.3376
  642MOL0     C88488   6.353   6.138   4.206 -0.6524 -0.0424  0.0230
  642MOL0     O88489   6.460   6.106   4.291 -0.0773  0.6649  0.4537
  642MOL0     C88490   6.590   6.096   4.247  0.1766 -0.3328  0.2065
  642MOL0     C88491   6.633   6.106   4.116 -0.6972 -0.2177 -0.3009
  642MOL0     C88492   6.767   6.114   4.090  0.3572 -1.0796 -0.1271
  642MOL0     C88493   6.857   6.113   4.190  0.8675  0.2344  0.3984
  642MOL0     O88494   6.988   6.123   4.140  0.0136 -0.5387  0.6481
  642MOL0     C88495   7.098   6.147   4.226  0.4086 -0.1616  0.0053
  642MOL0     C88496   7.095   6.282   4.299  0.5937  0.1350  0.7073
  642MOL0     C88497   7.062   6.397   4.211 -0.3285  0.1560  0.3324
  642MOL0     C88498   7.069   6.529   4.288 -0.5960 -0.2820 -0.1844
  642MOL0     C88499   6.998   6.639   4.212  0.7667  0.1864  0.5470
  642MOL0     C88500   6.978   6.774   4.289  0.4260 -0.5726  0.2493
  642MOL0     C88501   7.127   6.830   4.309 -0.1751  0.5409 -0.6076
  642MOL0     C88502   7.143   6.978   4.364 -0.4085  0.3347  0.3005
  642MOL0    Cl88503   7.314   7.023   4.345  0.3611  0.1779 -0.0137
  642MOL0     C88504   6.821   6.106   4.322  0.4189  0.4911  0.6342
  642MOL0     C88505   6.683   6.087   4.351 -0.6590  0.2709  0.0965
  642MOL0     O88506   6.356   6.186   4.095 -0.4855  0.5938 -0.1440
  642MOL0     C88507   6.204   5.970   4.309 -0.2209  0.5291  1.1875
  642MOL0     C88508   6.075   5.920   4.343  0.2873  0.6939  0.7536
  642MOL0     N88509   5.498   5.516   4.574 -0.3402 -0.2201  0.3916
  642MOL0     N88510   5.425   5.449   4.659 -0.4085 -0.1946 -0.3298
  642MOL0     C88511   4.271   5.365   4.870  0.4515  0.5211 -0.8407
  642MOL0     C88512   4.183   5.464   4.839  0.4640  0.1425  0.1395
  642MOL0     C88513   3.763   5.659   4.824  0.2683  0.4115  0.0760
  642MOL0     C88514   3.793   5.709   4.700 -0.0998  0.1393 -0.1241
  642MOL0     C88515   3.702   5.795   4.631  0.5784  0.2630  1.0989
  642MOL0     C88516   3.585   5.843   4.687  0.2956 -0.3615 -0.0112
  642MOL0     O88517   3.492   5.937   4.627  0.0647 -0.5529 -0.8799
  642MOL0     C88518   3.498   5.981   4.489 -0.7620  0.7434  0.1709
  642MOL0     C88519   3.453   6.119   4.490 -0.3127 -0.1929  0.1008
  642MOL0     C88520   3.559   6.217   4.559  0.2346 -0.7951  0.2826
  642MOL0     C88521   3.550   6.362   4.510  0.9074  0.5935 -0.1676
  642MOL0     C88522   3.599   6.382   4.373  0.4326 -0.2552  0.1160
  642MOL0     C88523   3.648   6.398   4.271 -0.2818 -0.2220  0.0722
  642MOL0     C88524   3.557   5.788   4.815  0.6133 -0.0666 -0.4399
  642MOL0     C88525   3.645   5.706   4.888 -0.0175  0.3122 -0.4365
  642MOL0     C88526   3.609   5.665   5.025 -0.2146 -0.2623  0.2281
  642MOL0     H88527   3.907   5.273   4.892  1.4636 -0.3262  0.7439
  642MOL0     H88528   4.046   5.119   4.954 -3.6547  0.7064 -2.0366
  642MOL0     H88529   4.509   5.039   4.927  0.7539 -0.1561 -2.2975
  642MOL0     H88530   4.525   5.201   4.958 -1.1619  2.3822 -0.3745
  642MOL0     H88531   4.434   5.079   4.691  1.3983  1.2391 -3.5181
  642MOL0     H88532   4.441   5.260   4.715  1.5185  0.4447  1.0681
  642MOL0     H88533   4.669   5.062   4.712  3.1826  1.4641  0.9722
  642MOL0     H88534   4.628   5.178   4.590  0.2679 -0.1980 -0.1609
  642MOL0     H88535   4.676   5.369   4.767 -0.5022  0.4423 -2.3954
  642MOL0     H88536   4.746   5.243   4.864  1.8546 -2.1366 -1.4509
  642MOL0     H88537   4.836   5.340   4.600 -0.3926 -1.3803 -1.8207
  642MOL0     H88538   4.894   5.186   4.654  1.6124  1.2485  0.6371
  642MOL0     H88539   4.931   5.438   4.822 -0.0177  0.8524 -1.0130
  642MOL0     H88540   4.992   5.286   4.866 -2.9980 -0.7620  0.8864
  642MOL0     H88541   5.058   5.463   4.618 -1.7164 -0.7094 -0.0437
  642MOL0     H88542   5.153   5.322   4.631  1.5850  0.7395 -0.2858
  642MOL0     H88543   5.159   5.559   4.833 -1.1002 -1.8219  1.7958
  642MOL0     H88544   5.253   5.413   4.858  0.4168 -1.4328 -0.8353
  642MOL0     H88545   5.246   5.720   4.639  1.7949  1.7512 -3.3213
  642MOL0     H88546   5.437   5.843   4.489  0.3225  0.3858 -1.4906
  642MOL0     H88547   5.409   5.728   4.361  0.6904  1.3060 -1.0246
  642MOL0     H88548   5.675   5.775   4.501 -0.4857 -0.6802  0.2442
  642MOL0     H88549   5.636   5.645   4.386 -0.8048 -0.6263  2.2987
  642MOL0     H88550   5.630   5.779   4.202  3.0248 -0.9168 -0.3620
  642MOL0     H88551   5.611   5.932   4.291  0.3599 -0.5210 -0.2188
  642MOL0     H88552   5.852   5.748   4.327 -0.8940 -0.1450  1.1916
  642MOL0     H88553   5.831   5.851   4.183 -3.3703 -2.0538 -1.2821
  642MOL0     H88554   5.890   6.184   4.255 -1.6079 -1.8582 -1.0521
  642MOL0     H88555   6.153   6.333   4.084  2.3298  1.6419  1.9244
  642MOL0     H88556   6.178   6.385   4.250 -1.5421 -1.1582  2.5891
  642MOL0     H88557   6.010   6.368   4.188 -1.4916 -2.7486  2.1716
  642MOL0     H88558   6.563   6.117   4.033 -1.2711  1.1182  0.3397
  642MOL0     H88559   6.800   6.119   3.987  0.1039  1.7860 -0.1292
  642MOL0     H88560   7.096   6.065   4.298 -0.2446 -1.5189 -1.4830
  642MOL0     H88561   7.189   6.136   4.166  1.1272  1.3433  0.7716
  642MOL0     H88562   7.016   6.293   4.374 -0.0145 -1.7217  0.3850
  642MOL0     H88563   7.197   6.296   4.335  0.7088  0.5914  0.2117
  642MOL0     H88564   6.966   6.375   4.165 -0.3566  0.4762  0.2347
  642MOL0     H88565   7.133   6.399   4.128  1.0164  0.4057  1.4494
  642MOL0     H88566   7.173   6.561   4.296 -0.1575 -0.9600 -2.6141
  642MOL0     H88567   7.020   6.514   4.385 -1.4955  0.1883 -0.5469
  642MOL0     H88568   7.049   6.661   4.118  2.0023 -0.5284  1.0271
  642MOL0     H88569   6.900   6.597   4.185  0.9028 -0.6846  1.3367
  642MOL0     H88570   6.927   6.765   4.385 -1.1846  2.4463 -0.2185
  642MOL0     H88571   6.911   6.833   4.227 -0.4747 -0.7950  0.9934
  642MOL0     H88572   7.173   6.828   4.210 -1.6300  1.5392 -1.3424
  642MOL0     H88573   7.188   6.769   4.377  0.0371  1.5965  0.1700
  642MOL0     H88574   7.115   6.996   4.469 -1.3877  1.3140 -0.1111
  642MOL0     H88575   7.083   7.043   4.300 -0.5680 -1.7665 -1.7868
  642MOL0     H88576   6.898   6.104   4.398  0.5974 -1.2360  0.4644
  642MOL0     H88577   6.643   6.087   4.452 -1.6848  0.1428 -0.2968
  642MOL0     H88578   6.293   5.910   4.322  2.3264  3.6103 -0.6852
  642MOL0     H88579   6.068   5.817   4.377 -0.9575  0.6599  0.4353
  642MOL0     H88580   4.375   5.395   4.879 -0.3019  2.6560  5.1398
  642MOL0     H88581   4.210   5.565   4.810 -4.3528  1.3117 -1.2379
  642MOL0     H88582   3.887   5.671   4.660 -0.3433  0.8681 -1.4722
  642MOL0     H88583   3.724   5.825   4.530 -2.6738  0.8361  0.4591
  642MOL0     H88584   3.598   5.975   4.445 -1.0154 -1.5422 -0.2035
  642MOL0     H88585   3.434   5.904   4.447 -2.2073  0.8141  2.1006
  642MOL0     H88586   3.358   6.123   4.545 -1.5754 -4.0201 -1.4694
  642MOL0     H88587   3.435   6.168   4.394 -2.1071 -2.6096 -0.9181
  642MOL0     H88588   3.545   6.217   4.668  4.7978  0.1123  1.0478
  642MOL0     H88589   3.661   6.183   4.539  1.4426  2.0557  1.1974
  642MOL0     H88590   3.595   6.431   4.582  1.1800 -0.5124  0.7450
  642MOL0     H88591   3.443   6.386   4.508 -0.1041 -3.2833 -0.8579
  642MOL0     H88592   3.678   6.419   4.170 -1.6786 -0.7045 -0.4632
  642MOL0     H88593   3.468   5.826   4.864  1.5061  1.4652  0.0413
  642MOL0     H88594   3.634   5.561   5.048  0.3710  0.3307  2.4956
  642MOL0     H88595   3.650   5.731   5.102 -1.6797  0.8067  0.1407
  642MOL0     H88596   3.500   5.671   5.027 -0.2812 -1.1780 -0.2529
  643MOL0     O88597   6.942   4.859   3.190  0.5794  0.1583 -0.0306
  643MOL0     C88598   6.958   4.970   3.231 -0.4277 -0.3533 -0.1338
  643MOL0     O88599   6.877   5.030   3.323 -0.3150 -0.3502 -0.2429
  643MOL0     C88600   6.770   4.963   3.383  0.6856 -0.0160  0.7244
  643MOL0     C88601   6.790   4.853   3.460 -0.6010  0.2779 -0.3997
  643MOL0     C88602   6.687   4.779   3.520 -0.0305 -0.7928 -0.5521
  643MOL0     C88603   6.560   4.830   3.516 -0.0792  0.3600  0.0631
  643MOL0     O88604   6.450   4.757   3.554 -0.3949 -0.1234  0.4969
  643MOL0     C88605   6.466   4.644   3.637  0.1155  0.4251 -0.4974
  643MOL0     C88606   6.325   4.595   3.681  0.5490 -0.4458 -0.5593
  643MOL0     C88607   6.262   4.685   3.781 -0.5812  0.2550  0.0388
  643MOL0     C88608   6.329   4.687   3.918  0.3970 -0.2449 -0.5486
  643MOL0     C88609   6.265   4.772   4.016  0.5685 -0.1632 -0.4311
  643MOL0     C88610   6.317   4.762   4.162 -0.0289  0.2000  0.1816
  643MOL0     C88611   6.453   4.825   4.166  0.5643  0.0604 -0.4080
  643MOL0     C88612   6.514   4.824   4.313  0.1936 -0.3167  0.7604
  643MOL0     N88613   6.627   4.914   4.324 -0.2188 -0.3698 -0.5101
  643MOL0     C88614   6.673   5.002   4.231  0.1128  0.0133 -0.5877
  643MOL0     C88615   6.757   5.082   4.302 -0.3117  0.9820  0.2737
  643MOL0     C88616   6.826   5.198   4.240 -0.0456 -0.1442 -0.2619
  643MOL0     C88617   6.928   5.148   4.146  0.2986 -0.1818  0.5661
  643MOL0     C88618   7.023   5.265   4.111 -0.0614  0.1372 -0.1075
  643MOL0     C88619   7.124   5.223   4.000 -0.3289  0.0050  0.6917
  643MOL0     O88620   7.232   5.162   4.066  0.6658  0.0595 -0.5725
  643MOL0     C88621   7.346   5.240   4.078 -0.5956 -0.1838 -0.4115
  643MOL0     C88622   7.350   5.384   4.064 -0.0273  0.8729  0.1071
  643MOL0     C88623   7.476   5.447   4.066  1.0284 -0.2009 -1.0614
  643MOL0     C88624   7.460   5.598   4.074 -0.4601 -0.0792 -0.1820
  643MOL0     C88625   7.596   5.375   4.085 -0.8767  0.1479 -0.2934
  643MOL0     C88626   7.729   5.439   4.078  0.2581 -0.3730  0.3931
  643MOL0     O88627   7.813   5.367   4.154 -0.4277  0.6415  1.0252
  643MOL0     C88628   7.951   5.381   4.149 -0.6113  0.6605  0.1201
  643MOL0     C88629   8.028   5.431   4.037 -0.1273  0.0693 -0.9496
  643MOL0     C88630   8.161   5.442   4.049 -0.0109  0.3792  0.4564
  643MOL0     C88631   8.238   5.411   4.162  0.8598 -0.4199  0.0310
  643MOL0     O88632   8.378   5.415   4.171 -0.7544 -0.1056  0.4782
  643MOL0     C88633   8.452   5.411   4.045 -0.6906  0.0917 -0.6235
  643MOL0     C88634   8.602   5.424   4.063 -0.0989  0.0451  1.0582
  643MOL0     C88635   8.636   5.548   4.144 -0.2119  0.0311  0.1391
  643MOL0     C88636   8.790   5.579   4.138  0.2114 -0.6550  0.3967
  643MOL0     C88637   8.824   5.699   4.226 -0.7399 -0.2238  0.0707
  643MOL0     C88638   8.978   5.725   4.220 -0.2606  0.9320 -0.3741
  643MOL0     C88639   9.057   5.602   4.251  0.1193 -0.2259 -0.2894
  643MOL0     C88640   9.184   5.642   4.315 -0.2013  0.0281  0.3612
  643MOL0    Cl88641   9.282   5.759   4.225 -0.3388 -0.4872  0.2610
  643MOL0     C88642   8.166   5.363   4.270 -0.7241 -0.3408  0.0189
  643MOL0     C88643   8.024   5.339   4.264  0.6607  0.1744  0.2326
  643MOL0     O88644   7.750   5.537   4.006 -0.3693  0.2662 -0.1073
  643MOL0     C88645   7.577   5.231   4.110  0.1629 -0.0862 -1.1325
  643MOL0     C88646   7.457   5.167   4.092 -0.3538 -0.2665  1.1407
  643MOL0     N88647   6.775   5.029   4.427 -0.7112  0.0045  0.6633
  643MOL0     N88648   6.695   4.926   4.437 -0.2023 -0.1296 -0.2407
  643MOL0     C88649   6.538   4.950   3.448  0.1563 -0.1415 -0.1514
  643MOL0     C88650   6.637   5.019   3.375 -1.0984 -0.2831  0.2595
  643MOL0     C88651   7.076   5.049   3.177  1.4115  0.3209  1.0279
  643MOL0     C88652   7.146   5.136   3.262 -0.2699 -0.0832 -1.1209
  643MOL0     C88653   7.254   5.214   3.229 -0.6694 -0.1819  1.1125
  643MOL0     C88654   7.312   5.193   3.102 -0.3667  0.6514 -0.5088
  643MOL0     O88655   7.431   5.258   3.061 -0.1023 -0.3669 -0.3690
  643MOL0     C88656   7.534   5.239   3.157 -0.1377 -0.4705  0.0151
  643MOL0     C88657   7.560   5.390   3.204  0.6798  0.7495 -0.0855
  643MOL0     C88658   7.706   5.431   3.245 -0.1054 -0.0386  0.0980
  643MOL0     C88659   7.742   5.574   3.228  0.3718 -0.5680 -0.5016
  643MOL0     C88660   7.649   5.666   3.302  0.2196  0.5571 -0.4995
  643MOL0     C88661   7.574   5.723   3.381  0.0215 -0.2208 -0.6011
  643MOL0     C88662   7.245   5.110   3.014  0.2362 -0.3284  0.3333
  643MOL0     C88663   7.130   5.040   3.045  0.5151  1.1073  0.1952
  643MOL0     C88664   7.063   4.962   2.936  0.0261 -1.0873 -1.3720
  643MOL0     H88665   6.894   4.825   3.474  0.1739  2.5924 -1.1173
  643MOL0     H88666   6.708   4.693   3.582 -1.3575  0.6757  2.0943
  643MOL0     H88667   6.522   4.663   3.729  3.0738  0.0567 -2.0992
  643MOL0     H88668   6.518   4.577   3.567  0.9685  0.5872 -0.0303
  643MOL0     H88669   6.268   4.603   3.588  0.9479  1.6854 -0.6572
  643MOL0     H88670   6.328   4.492   3.718  3.2389 -0.5225 -0.8011
  643MOL0     H88671   6.264   4.788   3.747  1.9571  0.8120  1.5810
  643MOL0     H88672   6.158   4.656   3.800 -0.7361  0.7564 -0.0450
  643MOL0     H88673   6.334   4.584   3.955  0.9588  0.6521  2.0975
  643MOL0     H88674   6.434   4.715   3.920  0.2903  0.1237  0.5534
  643MOL0     H88675   6.163   4.734   4.022 -0.8707  3.3013 -0.3114
  643MOL0     H88676   6.254   4.877   3.986  0.0987 -0.2195 -0.4555
  643MOL0     H88677   6.240   4.814   4.221  0.0292  0.7269 -0.1971
  643MOL0     H88678   6.322   4.656   4.189  0.4462  0.2315  0.2238
  643MOL0     H88679   6.441   4.929   4.138 -0.3276  0.1253  0.1910
  643MOL0     H88680   6.517   4.778   4.090 -0.2986 -2.5071  0.3477
  643MOL0     H88681   6.432   4.855   4.378 -1.9656  1.6886 -2.5700
  643MOL0     H88682   6.543   4.721   4.337  1.3462  0.3280  2.2565
  643MOL0     H88683   6.624   5.011   4.135 -0.5306 -1.0971 -0.3856
  643MOL0     H88684   6.869   5.239   4.332 -1.5364 -1.8418  1.2701
  643MOL0     H88685   6.750   5.264   4.197 -2.2233 -2.2712  0.1120
  643MOL0     H88686   6.995   5.074   4.192  2.5738  1.2199 -0.3174
  643MOL0     H88687   6.876   5.103   4.061  0.2649  1.2493 -0.1918
  643MOL0     H88688   6.972   5.350   4.065 -3.2276 -1.9778 -0.7750
  643MOL0     H88689   7.082   5.308   4.193 -0.2025  1.1623 -0.5221
  643MOL0     H88690   7.076   5.148   3.936  0.7685  0.7283 -1.0476
  643MOL0     H88691   7.148   5.307   3.934  0.8418 -0.5551  0.3689
  643MOL0     H88692   7.255   5.437   4.063  0.9015  2.7018  1.6666
  643MOL0     H88693   7.366   5.621   4.023 -1.4776 -0.6103  1.3891
  643MOL0     H88694   7.543   5.641   4.017  0.4230 -0.5810  0.6935
  643MOL0     H88695   7.462   5.627   4.180 -1.2747 -2.2807  0.5055
  643MOL0     H88696   7.975   5.451   3.944  1.2330  4.1110 -1.0214
  643MOL0     H88697   8.210   5.488   3.963  2.2538  0.3357  1.6402
  643MOL0     H88698   8.425   5.315   4.000 -3.9726 -0.0562  1.3198
  643MOL0     H88699   8.434   5.493   3.974 -1.1629 -0.2327 -0.8880
  643MOL0     H88700   8.648   5.339   4.114  0.5809 -0.2061  0.0476
  643MOL0     H88701   8.640   5.424   3.961 -0.9848  1.7288  0.6908
  643MOL0     H88702   8.611   5.533   4.250  0.8590 -3.9463  0.0129
  643MOL0     H88703   8.577   5.632   4.108 -0.2116  0.3829  0.9304
  643MOL0     H88704   8.814   5.605   4.034  1.4864  0.8008  1.0382
  643MOL0     H88705   8.851   5.489   4.150  0.9306  0.0706  2.5747
  643MOL0     H88706   8.765   5.783   4.190 -1.1095 -0.7766 -0.6441
  643MOL0     H88707   8.799   5.684   4.331 -0.1182  1.1323  0.4429
  643MOL0     H88708   9.003   5.798   4.299  0.9492  0.2285 -0.0742
  643MOL0     H88709   9.000   5.763   4.120  1.0198 -0.1818 -0.5382
  643MOL0     H88710   9.082   5.554   4.156  0.0162  0.4179 -0.6531
  643MOL0     H88711   9.003   5.527   4.309 -3.2897  0.5143 -2.2145
  643MOL0     H88712   9.244   5.551   4.326 -2.5739 -1.9489 -1.8535
  643MOL0     H88713   9.164   5.677   4.417 -0.1484  1.1259  0.0138
  643MOL0     H88714   8.234   5.324   4.346  2.3358  0.2452 -2.2434
  643MOL0     H88715   7.968   5.302   4.349 -1.0537  1.5694 -0.2283
  643MOL0     H88716   7.661   5.166   4.134  2.2599  1.6056 -3.3491
  643MOL0     H88717   7.446   5.059   4.100  1.8423 -0.6469 -0.0772
  643MOL0     H88718   6.437   4.989   3.435  0.0301 -1.0364 -2.2874
  643MOL0     H88719   6.606   5.108   3.320 -2.1862  0.6480  2.2829
  643MOL0     H88720   7.111   5.155   3.363  0.4417  1.6353 -1.1545
  643MOL0     H88721   7.304   5.279   3.299 -1.9106  1.4480  0.5482
  643MOL0     H88722   7.510   5.181   3.246  0.2597 -0.0862  0.3805
  643MOL0     H88723   7.623   5.188   3.118  0.0320 -0.4820  0.4172
  643MOL0     H88724   7.491   5.432   3.277 -0.9302  0.4156 -1.3412
  643MOL0     H88725   7.538   5.455   3.119  2.2540 -0.2067 -1.2799
  643MOL0     H88726   7.722   5.397   3.348  0.4276  2.4235  0.9021
  643MOL0     H88727   7.780   5.378   3.184  0.7135  2.4129 -1.1650
  643MOL0     H88728   7.747   5.589   3.120  0.7787  0.2852 -0.3716
  643MOL0     H88729   7.848   5.595   3.243  0.4070 -0.8349 -0.3781
  643MOL0     H88730   7.502   5.769   3.446 -0.9256 -2.7342  0.2542
  643MOL0     H88731   7.289   5.115   2.915 -0.1883  1.4510  0.2096
  643MOL0     H88732   7.113   4.979   2.840  0.0260 -3.0837 -1.7593
  643MOL0     H88733   7.050   4.855   2.953 -0.8586 -0.7230  0.5870
  643MOL0     H88734   6.961   5.003   2.932  0.6151  0.9898  1.4883
  644MOL0     O88735   8.651   1.258   9.093 -0.7910  0.0601  0.1886
  644MOL0     C88736   8.696   1.367   9.113 -0.6067  0.2450  0.0781
  644MOL0     O88737   8.821   1.416   9.099  0.1899 -0.3822 -0.0563
  644MOL0     C88738   8.912   1.334   9.037 -0.2588  0.7465 -0.2703
  644MOL0     C88739   8.972   1.232   9.114 -0.4289 -0.5714  0.2182
  644MOL0     C88740   9.059   1.144   9.051 -0.1883 -0.0210  0.6234
  644MOL0     C88741   9.099   1.147   8.914  0.7023 -0.2077 -0.3754
  644MOL0     O88742   9.197   1.066   8.873 -0.0450 -0.3155  0.2161
  644MOL0     C88743   9.221   1.049   8.733  0.4105  0.2731  0.4659
  644MOL0     C88744   9.338   0.942   8.722  0.6152  0.4865  0.2531
  644MOL0     C88745   9.469   1.002   8.783 -0.2505  0.6132 -0.5964
  644MOL0     C88746   9.577   0.895   8.799 -1.0447  0.2999  0.6994
  644MOL0     C88747   9.713   0.955   8.822 -0.1602 -0.0191  0.2527
  644MOL0     C88748   9.744   1.009   8.963  0.1868 -0.4833  0.4967
  644MOL0     C88749   9.889   1.025   8.986  0.4057 -0.0738  0.3009
  644MOL0     C88750   9.938   1.010   9.137 -0.4517 -1.0275  0.7200
  644MOL0     N88751   9.883   1.115   9.227 -0.3845 -1.1352 -0.5052
  644MOL0     C88752   9.964   1.201   9.293  0.4517 -0.0632  0.5124
  644MOL0     C88753   9.885   1.265   9.379  0.8202 -0.6383  0.7718
  644MOL0     C88754   9.927   1.386   9.464  1.1663  0.3595  0.0376
  644MOL0     C88755  10.059   1.363   9.521  0.0749  0.5923  0.2842
  644MOL0     C88756  10.165   1.441   9.446  0.1083  0.3407  0.3955
  644MOL0     C88757  10.299   1.431   9.533  0.2716 -0.7530 -0.5895
  644MOL0     O88758  10.402   1.484   9.455 -0.4919 -0.8963 -0.9587
  644MOL0     C88759  10.530   1.465   9.496 -0.0464 -0.7454  0.9464
  644MOL0     C88760  10.628   1.497   9.397 -0.0069 -0.4358 -0.4879
  644MOL0     C88761  10.760   1.483   9.438 -1.0030  0.7767 -0.1160
  644MOL0     C88762  10.872   1.495   9.327  0.1697 -0.1918 -0.0946
  644MOL0     C88763  10.802   1.453   9.571 -0.1586  0.0214  0.7534
  644MOL0     C88764  10.941   1.453   9.612 -0.2787 -0.5838 -0.1481
  644MOL0     O88765  10.978   1.373   9.720 -0.0430  0.6113  0.2877
  644MOL0     C88766  11.104   1.321   9.738 -0.0613  0.7253 -0.0199
  644MOL0     C88767  11.200   1.299   9.640 -0.0046  0.0174  0.4120
  644MOL0     C88768  11.317   1.241   9.665 -0.2381 -0.5461  0.3381
  644MOL0     C88769  11.347   1.191   9.790 -0.2790 -0.5138 -0.1273
  644MOL0     O88770  11.467   1.130   9.799  0.1600 -0.1241 -0.5116
  644MOL0     C88771  11.549   1.158   9.914  1.1820  0.6879  0.3959
  644MOL0     C88772  11.693   1.118   9.869  0.0278  1.2563  0.0030
  644MOL0     C88773  11.750   1.216   9.770 -0.9441  0.0776  0.6032
  644MOL0     C88774  11.894   1.185   9.731 -1.0006 -0.4553  0.2354
  644MOL0     C88775  11.958   1.313   9.673 -0.4273 -0.5906 -0.0444
  644MOL0     C88776  12.082   1.287   9.590 -0.2589  1.0022 -0.1068
  644MOL0     C88777  12.153   1.411   9.539  0.6399  0.6852 -0.5031
  644MOL0     C88778  12.244   1.378   9.419 -1.0256  0.5728 -0.5432
  644MOL0    Cl88779  12.351   1.231   9.444  0.3120 -0.1060  0.4757
  644MOL0     C88780  11.270   1.225   9.901  0.1366  0.4055  0.6338
  644MOL0     C88781  11.151   1.293   9.875  0.0995 -0.0660 -0.1007
  644MOL0     O88782  11.012   1.545   9.562  0.8034  0.8380 -0.1886
  644MOL0     C88783  10.700   1.430   9.665 -0.6920  0.2787 -0.5396
  644MOL0     C88784  10.572   1.431   9.621 -0.1439  0.6403 -0.4754
  644MOL0     N88785   9.757   1.211   9.376  0.8489 -0.1564 -0.0437
  644MOL0     N88786   9.760   1.124   9.280  0.4212 -0.2642 -0.1662
  644MOL0     C88787   9.036   1.244   8.841  0.2336  0.1124  0.5119
  644MOL0     C88788   8.943   1.330   8.902 -0.7552  0.2357  0.6408
  644MOL0     C88789   8.580   1.456   9.156 -0.3490  0.8098  0.1505
  644MOL0     C88790   8.471   1.413   9.230  0.2708 -0.7308 -0.0359
  644MOL0     C88791   8.370   1.501   9.277  0.2692  0.3343  0.1691
  644MOL0     C88792   8.369   1.633   9.236  0.3354  0.3513 -0.8247
  644MOL0     O88793   8.261   1.717   9.254 -0.0138  0.4516 -0.6436
  644MOL0     C88794   8.140   1.659   9.305  0.0970  0.6677  0.1132
  644MOL0     C88795   8.039   1.780   9.313 -0.1624  0.5506 -0.1733
  644MOL0     C88796   7.932   1.769   9.415 -0.3771 -0.8484  0.2017
  644MOL0     C88797   7.856   1.897   9.442 -0.6054 -0.4035  0.0132
  644MOL0     C88798   7.772   1.879   9.555 -0.5529  0.1775  1.1070
  644MOL0     C88799   7.684   1.861   9.639 -0.1360 -0.0996  0.8604
  644MOL0     C88800   8.486   1.684   9.173 -0.7959  0.2753 -0.0478
  644MOL0     C88801   8.587   1.598   9.119  0.4488  0.1055  0.8114
  644MOL0     C88802   8.698   1.659   9.026  0.4794 -0.6061 -0.1733
  644MOL0     H88803   8.942   1.217   9.217 -1.9935  0.8222  0.0095
  644MOL0     H88804   9.109   1.072   9.116  0.1153  0.1362  0.5658
  644MOL0     H88805   9.265   1.142   8.698  0.6825 -0.6701 -1.8492
  644MOL0     H88806   9.133   1.036   8.670  1.7430  0.7431 -1.5620
  644MOL0     H88807   9.302   0.854   8.777 -2.6325  0.3343 -1.8490
  644MOL0     H88808   9.356   0.914   8.618 -0.7567 -2.2357  0.6556
  644MOL0     H88809   9.504   1.079   8.713 -0.2479 -1.7369 -3.3974
  644MOL0     H88810   9.448   1.042   8.882 -0.7986 -0.4706 -0.2582
  644MOL0     H88811   9.550   0.831   8.884 -0.5652 -1.4010 -0.3608
  644MOL0     H88812   9.573   0.832   8.709 -0.1168  0.4204  0.5662
  644MOL0     H88813   9.729   1.032   8.746  1.7281 -1.2017 -0.6355
  644MOL0     H88814   9.776   0.868   8.801  1.0728  0.7517  0.6398
  644MOL0     H88815   9.693   1.104   8.982  0.5828 -0.1428 -0.1273
  644MOL0     H88816   9.701   0.947   9.042 -0.9611 -1.0185 -0.5133
  644MOL0     H88817   9.907   1.129   8.957  0.2244  0.5620  2.3716
  644MOL0     H88818   9.947   0.970   8.911 -0.2878  2.2970 -2.1345
  644MOL0     H88819   9.913   0.909   9.171 -2.7840 -1.0106 -0.7786
  644MOL0     H88820  10.047   1.018   9.132 -0.5275 -0.7331 -1.8590
  644MOL0     H88821  10.066   1.230   9.267  0.1069 -0.6634 -1.6818
  644MOL0     H88822   9.860   1.388   9.551  1.4884  1.6465  0.2821
  644MOL0     H88823   9.913   1.486   9.422 -2.2138  1.5237  3.2900
  644MOL0     H88824  10.058   1.395   9.625 -0.2215 -0.3516  0.5887
  644MOL0     H88825  10.095   1.260   9.525 -0.2388  0.5216  3.0057
  644MOL0     H88826  10.180   1.393   9.349 -2.3260  1.2545 -0.5134
  644MOL0     H88827  10.131   1.540   9.416 -1.8760 -0.0319  1.2543
  644MOL0     H88828  10.290   1.486   9.628 -1.0386 -1.5187 -0.2534
  644MOL0     H88829  10.318   1.326   9.554 -0.1649 -0.6208  0.5256
  644MOL0     H88830  10.606   1.535   9.298  1.1673  0.2506 -0.5020
  644MOL0     H88831  10.964   1.437   9.341  0.6710  0.3150 -1.1932
  644MOL0     H88832  10.890   1.602   9.314  0.9105 -0.1853  0.8618
  644MOL0     H88833  10.832   1.464   9.230  1.2289 -4.3861  0.5787
  644MOL0     H88834  11.179   1.328   9.538  0.0309  1.2845  0.7560
  644MOL0     H88835  11.396   1.251   9.592 -1.5773  1.3362 -0.9573
  644MOL0     H88836  11.548   1.266   9.930  1.0234  1.2207 -2.5854
  644MOL0     H88837  11.523   1.086   9.993  0.4620 -2.3531 -2.3746
  644MOL0     H88838  11.754   1.103   9.959 -1.6381 -1.5894  0.7757
  644MOL0     H88839  11.691   1.016   9.830  1.8251  0.9087  0.7026
  644MOL0     H88840  11.749   1.317   9.811  1.4301  1.0309 -1.4692
  644MOL0     H88841  11.683   1.213   9.683  0.5839 -3.7084 -0.6611
  644MOL0     H88842  11.892   1.116   9.645 -0.6470 -0.2394  0.0547
  644MOL0     H88843  11.959   1.147   9.810  0.4895  0.8215 -0.3221
  644MOL0     H88844  11.883   1.370   9.618 -1.5073 -0.5883  1.4007
  644MOL0     H88845  11.984   1.367   9.765 -0.1169 -1.0299  0.1320
  644MOL0     H88846  12.063   1.223   9.503 -3.0605 -1.9225  2.3425
  644MOL0     H88847  12.148   1.232   9.659 -1.3995 -0.0257  0.2138
  644MOL0     H88848  12.216   1.459   9.614  1.1667  0.8054 -1.0169
  644MOL0     H88849  12.065   1.473   9.515 -1.0126 -1.2815  0.1727
  644MOL0     H88850  12.312   1.462   9.407  2.2331 -1.6216  0.8910
  644MOL0     H88851  12.187   1.371   9.326 -0.8999  2.4208 -0.7792
  644MOL0     H88852  11.302   1.194  10.000  0.5045 -1.0645  0.0786
  644MOL0     H88853  11.086   1.321   9.958 -0.3722 -0.8251 -0.2032
  644MOL0     H88854  10.715   1.412   9.771  1.7158 -1.1941 -1.0570
  644MOL0     H88855  10.495   1.419   9.696 -0.1149 -0.5719 -0.6314
  644MOL0     H88856   9.071   1.268   8.741  1.7800 -3.3927  0.0620
  644MOL0     H88857   8.887   1.399   8.839 -0.5616 -0.7470 -0.6211
  644MOL0     H88858   8.446   1.310   9.251  0.1099 -0.7282 -0.2159
  644MOL0     H88859   8.288   1.449   9.326 -0.2797  0.8721 -0.1576
  644MOL0     H88860   8.096   1.586   9.236 -1.0479 -0.1129  1.6142
  644MOL0     H88861   8.152   1.621   9.407 -0.6477  1.1832  0.3990
  644MOL0     H88862   7.995   1.798   9.214 -0.2274 -1.0415 -0.4593
  644MOL0     H88863   8.095   1.865   9.354 -0.3158 -1.0587  3.7266
  644MOL0     H88864   7.859   1.703   9.366  0.2972  0.2969 -2.5019
  644MOL0     H88865   7.976   1.743   9.512 -0.8316  0.2188  0.7171
  644MOL0     H88866   7.798   1.916   9.352  0.2084 -0.9983 -0.6590
  644MOL0     H88867   7.915   1.989   9.453 -1.1241 -0.1310  0.5708
  644MOL0     H88868   7.620   1.855   9.725 -3.1323 -1.0007 -1.2850
  644MOL0     H88869   8.485   1.786   9.138  1.5273 -0.4231 -2.5229
  644MOL0     H88870   8.798   1.647   9.071  1.7737  0.1097 -2.6602
  644MOL0     H88871   8.703   1.619   8.924  1.5947  0.0576 -0.4103
  644MOL0     H88872   8.679   1.766   9.009  2.5191 -0.3847 -1.4831
  645MOL0     O88873   0.701   4.636  10.622 -0.8734  0.5062  0.0120
  645MOL0     C88874   0.792   4.612  10.704  0.9497 -0.8459 -0.1513
  645MOL0     O88875   0.785   4.652  10.834  0.2933  0.1145 -0.4457
  645MOL0     C88876   0.681   4.748  10.870  0.4417  0.7635  0.1003
  645MOL0     C88877   0.698   4.879  10.834 -0.2577 -0.0132 -0.3242
  645MOL0     C88878   0.599   4.970  10.881 -0.4022  0.4925 -0.9260
  645MOL0     C88879   0.490   4.923  10.957 -0.0376  1.4007 -1.2612
  645MOL0     O88880   0.386   4.993  11.007 -1.2244 -0.2620  0.1211
  645MOL0     C88881   0.353   5.115  10.938  0.4118  0.8412 -0.5725
  645MOL0     C88882   0.218   5.169  10.970  0.5142 -0.0031 -0.0786
  645MOL0     C88883   0.114   5.062  11.007 -0.1189  0.3922  0.2379
  645MOL0     C88884  -0.023   5.126  11.041  0.2136  0.3198 -0.5892
  645MOL0     C88885  -0.134   5.033  11.082 -0.6287  0.6028 -0.2292
  645MOL0     C88886  -0.192   4.938  10.978  0.5684  0.4787 -0.1591
  645MOL0     C88887  -0.255   4.808  11.029 -0.3692  0.0482 -0.3039
  645MOL0     C88888  -0.372   4.843  11.114  0.5320  0.6249 -0.5190
  645MOL0     N88889  -0.467   4.733  11.109 -0.2029 -0.4219  0.4747
  645MOL0     C88890  -0.437   4.607  11.143 -0.0395 -0.4273 -0.7929
  645MOL0     C88891  -0.554   4.539  11.111 -0.1838  0.1366  0.3665
  645MOL0     C88892  -0.564   4.390  11.125 -0.0097 -0.4500 -0.0685
  645MOL0     C88893  -0.583   4.326  10.984 -0.6411 -0.0983  0.1048
  645MOL0     C88894  -0.468   4.317  10.882 -0.4265 -0.4598  0.3529
  645MOL0     C88895  -0.372   4.204  10.905  0.2751  0.4267  0.2860
  645MOL0     O88896  -0.305   4.174  10.781 -0.3627  0.5730 -0.4727
  645MOL0     C88897  -0.177   4.124  10.794  0.0447  0.5941  1.1628
  645MOL0     C88898  -0.093   4.187  10.705  0.9944 -0.0405 -0.1765
  645MOL0     C88899   0.046   4.163  10.710  0.3923  0.0755  1.0418
  645MOL0     C88900   0.140   4.240  10.615 -0.0817  0.5320 -0.2149
  645MOL0     C88901   0.096   4.076  10.809 -0.3031  0.2459 -0.0440
  645MOL0     C88902   0.248   4.053  10.832 -0.3430  0.0308  0.8573
  645MOL0     O88903   0.284   3.948  10.906  0.1562  0.0719  0.0406
  645MOL0     C88904   0.415   3.914  10.910 -0.1439  0.9753  0.3490
  645MOL0     C88905   0.494   3.921  10.798 -0.1778 -0.2965 -0.6972
  645MOL0     C88906   0.622   3.872  10.807  0.8766  0.1398 -0.4068
  645MOL0     C88907   0.667   3.804  10.925  0.3813  0.2607 -0.3911
  645MOL0     O88908   0.790   3.747  10.915  0.2932  0.0724  0.1172
  645MOL0     C88909   0.866   3.738  11.035 -0.6888  0.6527  0.7237
  645MOL0     C88910   0.863   3.599  11.097  0.1893  0.2011  0.2800
  645MOL0     C88911   0.981   3.509  11.067  0.8170  0.0461  0.2869
  645MOL0     C88912   0.956   3.363  11.130  0.0385  0.0856  0.2592
  645MOL0     C88913   1.085   3.276  11.149 -0.1416 -0.1719 -0.1555
  645MOL0     C88914   1.138   3.224  11.014  0.0213  0.2870 -0.1664
  645MOL0     C88915   1.246   3.120  11.027  0.3453 -0.6468 -0.7731
  645MOL0     C88916   1.287   3.047  10.899 -0.5165 -0.3898  0.7583
  645MOL0    Cl88917   1.431   2.951  10.947 -0.4551 -0.3405  0.0114
  645MOL0     C88918   0.578   3.798  11.033 -0.6765  0.8169 -0.0553
  645MOL0     C88919   0.455   3.848  11.026 -0.1868  0.0523  1.1809
  645MOL0     O88920   0.325   4.147  10.801 -0.0783  0.4323 -0.1181
  645MOL0     C88921   0.004   3.992  10.887 -0.0925 -0.0143  0.3813
  645MOL0     C88922  -0.133   4.025  10.884  0.1376  0.1471 -0.4518
  645MOL0     N88923  -0.644   4.621  11.049  0.2969 -0.1413 -0.2662
  645MOL0     N88924  -0.591   4.743  11.042  0.9712  0.2059  0.2608
  645MOL0     C88925   0.486   4.791  10.997  0.4403  0.1553  0.3616
  645MOL0     C88926   0.578   4.699  10.941  0.6429  0.5658 -0.0998
  645MOL0     C88927   0.908   4.545  10.657 -0.7466  0.2430 -0.5983
  645MOL0     C88928   1.012   4.512  10.750 -0.1278  0.1209 -0.4526
  645MOL0     C88929   1.131   4.454  10.706 -1.0666  0.6418 -0.2177
  645MOL0     C88930   1.146   4.406  10.576  0.5934 -0.2337 -0.6125
  645MOL0     O88931   1.252   4.339  10.516 -0.3021  0.6859  0.5365
  645MOL0     C88932   1.358   4.300  10.603 -0.3149  0.2813 -0.9785
  645MOL0     C88933   1.476   4.247  10.522 -0.8728  0.4925  0.5132
  645MOL0     C88934   1.519   4.372  10.429 -0.0709  0.0134 -0.5382
  645MOL0     C88935   1.659   4.351  10.402  0.7630  0.0687  0.3741
  645MOL0     C88936   1.716   4.450  10.310 -1.0623 -0.6055 -0.2742
  645MOL0     C88937   1.766   4.533  10.242  0.7439  0.0039  0.0247
  645MOL0     C88938   1.039   4.425  10.489  0.4605 -0.6676 -0.3050
  645MOL0     C88939   0.925   4.500  10.520 -0.9229  0.6259  0.4924
  645MOL0     C88940   0.831   4.513  10.409 -0.6231 -0.5111  0.0968
  645MOL0     H88941   0.770   4.926  10.768  0.8660  1.3126  1.7206
  645MOL0     H88942   0.592   5.075  10.855 -0.5860  0.1755 -2.2592
  645MOL0     H88943   0.368   5.103  10.830  1.1048  0.2960 -0.4245
  645MOL0     H88944   0.424   5.190  10.971  2.6705 -0.7409 -1.5806
  645MOL0     H88945   0.230   5.233  11.058  1.5044  0.0220 -0.2163
  645MOL0     H88946   0.179   5.219  10.881  3.3169  0.3408 -1.2492
  645MOL0     H88947   0.107   4.986  10.929 -2.9156 -0.4088  1.1476
  645MOL0     H88948   0.147   5.009  11.096 -1.1337  0.8834  0.9245
  645MOL0     H88949   0.003   5.189  11.127  1.8137 -1.2562  0.1415
  645MOL0     H88950  -0.050   5.187  10.955  0.3901 -3.7473 -3.8364
  645MOL0     H88951  -0.219   5.091  11.118 -0.2057  0.6625  0.6970
  645MOL0     H88952  -0.094   4.967  11.160 -2.2914 -1.8188 -1.2783
  645MOL0     H88953  -0.266   4.991  10.918 -0.0063  0.3801  0.4610
  645MOL0     H88954  -0.115   4.900  10.910  0.6837  0.2311  0.1058
  645MOL0     H88955  -0.179   4.746  11.076 -2.1163 -4.0440 -2.3261
  645MOL0     H88956  -0.301   4.755  10.944  0.1481  0.7731 -1.0438
  645MOL0     H88957  -0.346   4.862  11.218  2.6089  2.1583 -1.2478
  645MOL0     H88958  -0.416   4.935  11.073 -0.1021  0.0513 -1.1583
  645MOL0     H88959  -0.346   4.558  11.175 -0.7898 -0.9168  0.6895
  645MOL0     H88960  -0.643   4.365  11.196  0.0533 -2.5752 -0.6483
  645MOL0     H88961  -0.467   4.354  11.162 -0.0883 -0.2364  0.3429
  645MOL0     H88962  -0.613   4.221  10.989  2.0090 -1.1344 -2.4818
  645MOL0     H88963  -0.667   4.379  10.936 -1.1812 -0.7307  0.3274
  645MOL0     H88964  -0.512   4.314  10.782  2.9093  2.3405 -1.4300
  645MOL0     H88965  -0.403   4.404  10.886 -0.4280 -0.4889  1.6996
  645MOL0     H88966  -0.309   4.229  10.991  2.5267 -0.7673 -0.9106
  645MOL0     H88967  -0.434   4.115  10.921 -1.2402  1.5934  1.0512
  645MOL0     H88968  -0.137   4.265  10.644 -0.2210  0.0780  0.8251
  645MOL0     H88969   0.193   4.328  10.651 -1.1864  1.8784 -1.7515
  645MOL0     H88970   0.079   4.262  10.527  0.5575  0.1738 -0.7625
  645MOL0     H88971   0.219   4.167  10.590  0.7464  0.8539  1.3414
  645MOL0     H88972   0.462   3.972  10.708  3.1995  2.1438 -0.6977
  645MOL0     H88973   0.686   3.878  10.719  1.6910  0.1721  0.1709
  645MOL0     H88974   0.970   3.767  11.017 -0.5806 -1.2263 -2.4908
  645MOL0     H88975   0.820   3.807  11.106 -2.8032 -2.0391  2.1588
  645MOL0     H88976   0.873   3.631  11.202  1.2758  2.5431 -0.4605
  645MOL0     H88977   0.768   3.549  11.079  0.5471 -0.4744  0.2351
  645MOL0     H88978   1.061   3.559  11.122 -0.5191  2.4296  0.1623
  645MOL0     H88979   1.006   3.494  10.961 -1.0671  0.0550 -0.1895
  645MOL0     H88980   0.884   3.311  11.067 -1.1363 -0.8037  2.2161
  645MOL0     H88981   0.903   3.369  11.225 -1.5331  2.0174 -0.6892
  645MOL0     H88982   1.163   3.331  11.203 -2.9078  3.7614  0.2573
  645MOL0     H88983   1.057   3.190  11.210 -6.0239  0.1142 -1.8934
  645MOL0     H88984   1.180   3.309  10.958  1.1228 -0.1956 -0.0975
  645MOL0     H88985   1.062   3.185  10.945  0.2220  1.1624 -0.9004
  645MOL0     H88986   1.219   3.043  11.100  4.1670 -3.2043 -1.7759
  645MOL0     H88987   1.339   3.166  11.061 -1.1301  0.8212  1.5431
  645MOL0     H88988   1.316   3.119  10.823 -1.7564  0.6283  1.2165
  645MOL0     H88989   1.202   2.988  10.863  0.3991 -0.9090 -0.6426
  645MOL0     H88990   0.606   3.745  11.124  0.8632 -2.7317 -2.3606
  645MOL0     H88991   0.389   3.811  11.104  0.8988 -2.0154  1.1788
  645MOL0     H88992   0.044   3.911  10.947  0.1109  1.5739  2.4828
  645MOL0     H88993  -0.203   3.970  10.947 -0.6509  0.3880 -1.1001
  645MOL0     H88994   0.406   4.756  11.063  1.2448 -1.9106  0.3294
  645MOL0     H88995   0.586   4.592  10.958  0.0199  0.5082 -0.1328
  645MOL0     H88996   1.027   4.541  10.853  0.0349  0.4848 -0.5752
  645MOL0     H88997   1.211   4.433  10.776  1.5835 -0.2222 -3.3105
  645MOL0     H88998   1.385   4.390  10.661 -1.3885 -1.5470  2.6648
  645MOL0     H88999   1.325   4.216  10.665  1.5224  1.4671  1.8042
  645MOL0     H89000   1.446   4.162  10.459 -3.0627  2.6555 -1.5754
  645MOL0     H89001   1.547   4.210  10.596  1.0471 -2.4667 -2.4719
  645MOL0     H89002   1.462   4.374  10.335  0.5443  3.0989 -0.9417
  645MOL0     H89003   1.505   4.469  10.477 -2.7738  0.4841 -2.0564
  645MOL0     H89004   1.665   4.253  10.353 -4.2731 -1.6239  2.3946
  645MOL0     H89005   1.718   4.359  10.494  0.7951  1.5638  0.2466
  645MOL0     H89006   1.800   4.615  10.181 -0.1822  3.0723  3.2933
  645MOL0     H89007   1.058   4.390  10.388  1.3074  0.7293 -0.6545
  645MOL0     H89008   0.743   4.451  10.426 -0.8068  0.2005  1.9695
  645MOL0     H89009   0.789   4.612  10.386 -0.7815 -0.8781 -1.2971
  645MOL0     H89010   0.880   4.489  10.315 -4.1480  1.3388 -2.4770
  646MOL0     O89011  10.703   2.276   8.828 -0.2902 -0.5926 -0.5358
  646MOL0     C89012  10.743   2.217   8.724  0.0253 -0.0500  0.0017
  646MOL0     O89013  10.860   2.166   8.711 -0.5064  0.2830  0.0302
  646MOL0     C89014  10.964   2.212   8.789  0.0936 -0.0536  0.2943
  646MOL0     C89015  10.985   2.341   8.847  0.2818  0.6124 -0.3880
  646MOL0     C89016  11.103   2.376   8.913 -0.0097 -0.3931  1.2386
  646MOL0     C89017  11.202   2.281   8.929 -0.2990  0.3067  0.6949
  646MOL0     O89018  11.314   2.333   8.999  0.6541  0.0608 -0.3827
  646MOL0     C89019  11.411   2.236   9.035 -0.7487  0.5829  0.1861
  646MOL0     C89020  11.516   2.212   8.927  0.4362 -0.1240 -0.3245
  646MOL0     C89021  11.625   2.121   8.985 -0.2716  0.4986 -0.9024
  646MOL0     C89022  11.756   2.144   8.906 -0.7519 -0.7684  0.4193
  646MOL0     C89023  11.743   2.117   8.756 -0.8409  0.0980  0.2959
  646MOL0     C89024  11.868   2.125   8.675 -1.0113  0.2995 -0.0318
  646MOL0     C89025  11.829   2.125   8.525  0.3654  0.1645 -0.8797
  646MOL0     C89026  11.938   2.090   8.427 -0.1939 -0.5916 -0.0787
  646MOL0     N89027  12.052   2.173   8.428  0.1247 -0.1010 -0.0146
  646MOL0     C89028  12.048   2.295   8.380  0.2909 -0.5160  0.7284
  646MOL0     C89029  12.166   2.354   8.409  0.8823  0.4055  0.5818
  646MOL0     C89030  12.230   2.486   8.374 -0.0045 -0.0449 -0.6221
  646MOL0     C89031  12.355   2.459   8.292  0.0130  0.6123  0.1631
  646MOL0     C89032  12.396   2.577   8.220  0.4541  0.1962  0.2155
  646MOL0     C89033  12.506   2.540   8.125 -0.2521 -0.0513 -0.1401
  646MOL0     O89034  12.549   2.660   8.053 -0.4138 -0.0224 -0.2627
  646MOL0     C89035  12.682   2.687   8.025 -0.2825  0.6236 -0.3619
  646MOL0     C89036  12.753   2.612   7.929  0.0921 -0.4108 -0.2149
  646MOL0     C89037  12.881   2.657   7.881  0.3512  0.0293  0.0776
  646MOL0     C89038  12.941   2.574   7.768 -0.4505  0.1858 -0.3649
  646MOL0     C89039  12.943   2.767   7.945  0.4829 -0.4633  0.0784
  646MOL0     C89040  13.079   2.816   7.917 -0.5016 -0.3295 -0.6252
  646MOL0     O89041  13.134   2.899   8.002  0.3587 -0.1749  0.2562
  646MOL0     C89042  13.255   2.965   7.974  0.0718  0.2970 -0.5188
  646MOL0     C89043  13.251   3.101   7.987  0.5658 -0.1140  0.0652
  646MOL0     C89044  13.350   3.184   7.933 -0.3559 -0.0110 -0.0507
  646MOL0     C89045  13.476   3.123   7.898  0.6681 -0.2500  0.0690
  646MOL0     O89046  13.585   3.208   7.887  0.5624  0.2441  0.3976
  646MOL0     C89047  13.705   3.144   7.827  1.1767  0.1342  0.1859
  646MOL0     C89048  13.804   3.252   7.795  0.2060  0.0308 -0.2313
  646MOL0     C89049  13.796   3.303   7.649 -0.1303  0.4379 -0.0953
  646MOL0     C89050  13.662   3.316   7.565  0.2027  0.3984  0.3654
  646MOL0     C89051  13.685   3.416   7.456  0.0280 -0.2527  0.3434
  646MOL0     C89052  13.563   3.419   7.361 -0.8064 -0.0006  0.0771
  646MOL0     C89053  13.581   3.514   7.235  0.0679 -0.2035  0.6584
  646MOL0     C89054  13.455   3.536   7.149 -0.1072  0.0663 -0.3695
  646MOL0    Cl89055  13.310   3.580   7.244 -0.4850  0.3589  0.1617
  646MOL0     C89056  13.482   2.984   7.904 -0.0147 -0.2550  0.2263
  646MOL0     C89057  13.364   2.905   7.924  0.1299 -0.3933 -0.0038
  646MOL0     O89058  13.137   2.774   7.822  0.2297  1.0165 -0.0397
  646MOL0     C89059  12.873   2.836   8.051  0.7083  0.0063 -0.2413
  646MOL0     C89060  12.745   2.798   8.081  0.0958  0.6209  0.4175
  646MOL0     N89061  12.240   2.249   8.467 -0.2620 -0.7203 -0.1524
  646MOL0     N89062  12.175   2.147   8.475  0.6295 -0.1492 -0.3081
  646MOL0     C89063  11.189   2.151   8.869 -0.3720  0.2347 -0.1055
  646MOL0     C89064  11.065   2.116   8.809 -0.5792 -0.6784 -0.4529
  646MOL0     C89065  10.634   2.200   8.621  0.2995  0.0545  0.5131
  646MOL0     C89066  10.521   2.283   8.642  0.0915  0.2151 -0.6918
  646MOL0     C89067  10.423   2.287   8.545 -0.4200  0.6727 -0.2062
  646MOL0     C89068  10.424   2.195   8.439 -0.2579  0.6794 -0.0738
  646MOL0     O89069  10.311   2.174   8.361  0.1759  0.0206 -0.3017
  646MOL0     C89070  10.191   2.259   8.366  0.5639 -0.0885  0.0247
  646MOL0     C89071  10.096   2.218   8.250 -0.4583  0.9274 -0.0573
  646MOL0     C89072   9.956   2.279   8.263 -0.2524  0.6470 -0.4383
  646MOL0     C89073   9.846   2.200   8.184 -0.0945 -0.2195 -1.1002
  646MOL0     C89074   9.717   2.273   8.195  0.5940 -0.2295  0.1534
  646MOL0     C89075   9.614   2.336   8.212  0.0602  1.3586 -0.5119
  646MOL0     C89076  10.530   2.102   8.428 -0.6789 -0.3920  0.2800
  646MOL0     C89077  10.637   2.107   8.513  0.0745 -0.6849  0.7660
  646MOL0     C89078  10.761   2.028   8.481  0.5977  0.6335  0.3290
  646MOL0     H89079  10.915   2.421   8.822 -1.3701 -0.9298 -0.9403
  646MOL0     H89080  11.123   2.479   8.937 -3.1135  0.7576 -0.5897
  646MOL0     H89081  11.380   2.143   9.084  1.6221  0.8338  2.3577
  646MOL0     H89082  11.462   2.289   9.116 -0.6557 -0.8316  1.0959
  646MOL0     H89083  11.475   2.173   8.834 -0.6011  0.9518 -0.3325
  646MOL0     H89084  11.562   2.309   8.907  0.4806 -0.5519 -2.4525
  646MOL0     H89085  11.651   2.135   9.090  1.7006 -0.4781 -1.2067
  646MOL0     H89086  11.607   2.013   8.974  1.9334  0.1968 -2.4474
  646MOL0     H89087  11.789   2.246   8.928  0.5627  0.2097 -4.7473
  646MOL0     H89088  11.839   2.080   8.940  1.4711  1.5816 -0.2703
  646MOL0     H89089  11.679   2.192   8.709  0.9189  1.0218 -0.7547
  646MOL0     H89090  11.683   2.028   8.737  1.0774 -1.0612 -0.6084
  646MOL0     H89091  11.929   2.214   8.695  1.3662 -0.6598 -2.3573
  646MOL0     H89092  11.930   2.038   8.698  0.9536  1.7339  0.4315
  646MOL0     H89093  11.789   2.225   8.504 -2.1318 -0.4911  0.3600
  646MOL0     H89094  11.753   2.048   8.509  0.6139 -0.6954  1.6083
  646MOL0     H89095  11.970   1.985   8.427 -0.8428 -0.8425 -2.5253
  646MOL0     H89096  11.886   2.097   8.331  0.8700  0.2131 -0.6095
  646MOL0     H89097  11.955   2.342   8.351  1.0454  0.1233 -0.7159
  646MOL0     H89098  12.272   2.534   8.463  0.4537 -1.2818 -0.1460
  646MOL0     H89099  12.154   2.544   8.320 -1.0492 -1.5346 -0.7849
  646MOL0     H89100  12.432   2.421   8.359  2.5101 -0.9432 -3.2582
  646MOL0     H89101  12.321   2.381   8.224 -1.4348 -1.4536  3.0658
  646MOL0     H89102  12.309   2.600   8.159 -0.4031 -0.4729  1.1506
  646MOL0     H89103  12.422   2.656   8.291 -0.4619 -0.5046  1.3632
  646MOL0     H89104  12.584   2.507   8.194 -1.8173  1.3473  2.4539
  646MOL0     H89105  12.484   2.465   8.049  0.8039  0.4080 -0.9209
  646MOL0     H89106  12.698   2.533   7.879 -3.0207  1.2160  0.3967
  646MOL0     H89107  12.889   2.480   7.745 -1.8493  1.2961 -2.0194
  646MOL0     H89108  13.042   2.542   7.795 -1.3344 -1.5971  1.0568
  646MOL0     H89109  12.935   2.629   7.674 -3.4477  0.8302  0.0941
  646MOL0     H89110  13.159   3.147   8.023  0.4958  2.1323 -2.6076
  646MOL0     H89111  13.343   3.291   7.948 -0.4021 -0.3467  3.0567
  646MOL0     H89112  13.745   3.071   7.898 -2.8261 -0.1412  2.4448
  646MOL0     H89113  13.680   3.095   7.732 -0.9466  1.8677 -0.2214
  646MOL0     H89114  13.799   3.327   7.874  2.3547 -0.4277  0.3958
  646MOL0     H89115  13.897   3.196   7.805  0.0101 -0.1671  0.5602
  646MOL0     H89116  13.881   3.258   7.596  0.5558  1.1027  0.4125
  646MOL0     H89117  13.834   3.405   7.663  3.1216 -0.9120  2.1613
  646MOL0     H89118  13.575   3.335   7.629  0.1648 -3.4982  1.6921
  646MOL0     H89119  13.653   3.217   7.520  1.8989  1.3821 -2.4189
  646MOL0     H89120  13.704   3.511   7.507  0.8120 -0.7182  0.9514
  646MOL0     H89121  13.777   3.396   7.400  0.7508  1.6140  0.7826
  646MOL0     H89122  13.481   3.458   7.423  0.0974 -0.4217  1.5731
  646MOL0     H89123  13.539   3.317   7.329  1.3161 -0.2343 -0.9155
  646MOL0     H89124  13.667   3.470   7.183 -1.1801 -3.8689  1.3769
  646MOL0     H89125  13.607   3.617   7.261  2.0143  0.2045 -2.3876
  646MOL0     H89126  13.435   3.441   7.099  0.4454  0.8611 -2.1804
  646MOL0     H89127  13.470   3.611   7.071  0.1432 -1.3324 -1.7270
  646MOL0     H89128  13.569   2.932   7.866  0.4042  0.3887  0.2900
  646MOL0     H89129  13.371   2.802   7.892  2.0061 -0.1751 -0.4454
  646MOL0     H89130  12.926   2.912   8.108  2.8287 -1.4834 -0.0840
  646MOL0     H89131  12.692   2.861   8.152 -0.0751 -0.8188  1.6138
  646MOL0     H89132  11.264   2.074   8.861 -0.6142  0.0627 -0.8893
  646MOL0     H89133  11.048   2.015   8.774  1.7615 -0.2001 -3.3389
  646MOL0     H89134  10.506   2.350   8.726 -1.4978 -2.4593  1.3309
  646MOL0     H89135  10.351   2.367   8.556  0.0791  1.1574 -0.4359
  646MOL0     H89136  10.140   2.223   8.456  1.6596 -4.4092 -0.8598
  646MOL0     H89137  10.211   2.366   8.371 -0.0975  0.3461 -3.5445
  646MOL0     H89138  10.084   2.110   8.235 -0.5915  1.1417 -1.6790
  646MOL0     H89139  10.143   2.246   8.155  0.7300  2.5909  0.9515
  646MOL0     H89140   9.933   2.287   8.370  0.3477  3.2368 -0.4474
  646MOL0     H89141   9.962   2.381   8.224  0.7446 -0.4090 -3.3141
  646MOL0     H89142   9.834   2.099   8.223 -1.0535 -0.0052 -0.8116
  646MOL0     H89143   9.879   2.196   8.080  0.9043 -0.5039 -0.7818
  646MOL0     H89144   9.534   2.404   8.232 -0.7158  0.6248 -1.0620
  646MOL0     H89145  10.525   2.020   8.358  0.1801 -0.9228  0.8219
  646MOL0     H89146  10.786   1.969   8.570 -0.2230  0.3995  0.4177
  646MOL0     H89147  10.744   1.948   8.409 -0.3933  2.4895 -1.5964
  646MOL0     H89148  10.848   2.082   8.445  0.4466 -0.5365 -1.9424
  647MOL0     O89149   4.009   1.477   2.443 -0.3542 -0.6280  0.0803
  647MOL0     C89150   3.959   1.396   2.372 -0.2199 -0.9593  0.6304
  647MOL0     O89151   4.019   1.331   2.265  0.0340 -0.2480 -0.0279
  647MOL0     C89152   4.154   1.333   2.254  0.5531 -0.2635  0.6546
  647MOL0     C89153   4.217   1.382   2.144 -0.2217  0.7392  0.6522
  647MOL0     C89154   4.353   1.391   2.131  0.5788 -0.3211  0.0900
  647MOL0     C89155   4.430   1.335   2.237  0.4141 -0.4606 -0.5234
  647MOL0     O89156   4.566   1.329   2.232 -0.5412 -0.4070 -0.0750
  647MOL0     C89157   4.633   1.438   2.156 -0.6424  0.4870  0.0232
  647MOL0     C89158   4.782   1.449   2.210 -0.1035 -0.6017 -0.4780
  647MOL0     C89159   4.840   1.588   2.189 -0.7599 -0.2873 -0.9843
  647MOL0     C89160   4.765   1.698   2.270 -0.0954 -0.5599  0.5451
  647MOL0     C89161   4.849   1.831   2.299  0.3253  0.4753 -0.7591
  647MOL0     C89162   4.897   1.895   2.164  0.3186  1.0294 -0.7087
  647MOL0     C89163   4.981   2.024   2.187 -0.8614  0.0871 -0.3981
  647MOL0     C89164   5.066   2.057   2.062  0.2180 -0.4379 -0.4754
  647MOL0     N89165   5.153   2.176   2.089 -0.4663  0.2632  0.7977
  647MOL0     C89166   5.130   2.304   2.080  0.3952 -0.0590  0.5700
  647MOL0     C89167   5.231   2.377   2.130 -0.5154  0.2470 -0.1316
  647MOL0     C89168   5.227   2.530   2.117 -0.6179  0.2816  0.1061
  647MOL0     C89169   5.293   2.592   1.991 -0.3854 -0.5730  0.2090
  647MOL0     C89170   5.319   2.498   1.870  0.5214  0.0191 -0.0270
  647MOL0     C89171   5.411   2.566   1.766 -1.0535 -0.7748  0.1666
  647MOL0     O89172   5.547   2.578   1.807 -0.3273  0.2155  0.1453
  647MOL0     C89173   5.639   2.637   1.717  0.0979 -0.2001  0.3457
  647MOL0     C89174   5.768   2.665   1.767  0.0628  0.0767  0.4645
  647MOL0     C89175   5.869   2.728   1.689 -0.0057  0.3380 -0.0541
  647MOL0     C89176   6.006   2.724   1.761  0.7931  0.5350 -0.0309
  647MOL0     C89177   5.840   2.778   1.557  0.6552  0.0061 -0.6813
  647MOL0     C89178   5.937   2.871   1.502 -0.9039  0.2111  0.5685
  647MOL0     O89179   6.067   2.828   1.495 -0.5538 -0.0677  0.1649
  647MOL0     C89180   6.162   2.898   1.424  0.5609  0.1679  0.0475
  647MOL0     C89181   6.279   2.912   1.492 -0.1801 -0.8691 -0.4909
  647MOL0     C89182   6.375   2.991   1.441 -0.1298  0.2339 -0.0079
  647MOL0     C89183   6.358   3.047   1.313  0.0608 -0.2469 -0.0520
  647MOL0     O89184   6.464   3.133   1.286 -0.3837  0.5056 -0.4332
  647MOL0     C89185   6.519   3.125   1.156 -0.2095  0.6325 -0.7786
  647MOL0     C89186   6.661   3.198   1.146 -1.2586 -0.1320  0.3290
  647MOL0     C89187   6.718   3.161   1.005  0.0994 -0.1646 -0.3933
  647MOL0     C89188   6.780   3.277   0.926  0.1923  0.1480 -0.3472
  647MOL0     C89189   6.846   3.233   0.788  0.0766 -0.4546  0.6487
  647MOL0     C89190   6.875   3.344   0.696 -0.6666  0.1658 -0.4131
  647MOL0     C89191   6.992   3.441   0.740  0.7814 -0.3246  0.4989
  647MOL0     C89192   7.131   3.380   0.728 -0.5081  0.0673  0.0308
  647MOL0    Cl89193   7.255   3.498   0.763 -0.1606 -0.3570 -0.0354
  647MOL0     C89194   6.255   3.013   1.234 -0.0326 -0.6821  0.5261
  647MOL0     C89195   6.148   2.942   1.289  0.5497  0.3853  0.0590
  647MOL0     O89196   5.893   2.979   1.465 -0.6872 -0.3497 -0.0613
  647MOL0     C89197   5.710   2.754   1.510 -0.4633  0.9506 -0.1640
  647MOL0     C89198   5.615   2.686   1.591  0.2248  0.1398 -0.0724
  647MOL0     N89199   5.323   2.278   2.173 -0.2856 -0.0573  0.6412
  647MOL0     N89200   5.275   2.165   2.149  0.2505 -0.4142  0.2061
  647MOL0     C89201   4.371   1.275   2.351  0.0616 -1.4586  0.0679
  647MOL0     C89202   4.229   1.284   2.358 -0.1922 -1.0737  0.1160
  647MOL0     C89203   3.814   1.377   2.388  0.2911 -0.2820  0.5676
  647MOL0     C89204   3.739   1.327   2.273 -0.0939  0.3106 -0.0452
  647MOL0     C89205   3.596   1.317   2.279 -1.0723  0.0572 -0.0740
  647MOL0     C89206   3.523   1.363   2.382  0.3091  0.1879  0.1560
  647MOL0     O89207   3.388   1.354   2.398 -0.5775  0.2139 -0.3209
  647MOL0     C89208   3.307   1.340   2.277  0.7458 -0.3762 -0.5815
  647MOL0     C89209   3.180   1.426   2.295 -0.2010  0.2564  1.0914
  647MOL0     C89210   3.076   1.335   2.354  0.4647  0.0532 -0.9464
  647MOL0     C89211   2.963   1.422   2.421 -0.6638 -0.6147 -0.2600
  647MOL0     C89212   2.854   1.334   2.456  0.4132  0.1956  0.5022
  647MOL0     C89213   2.757   1.259   2.459 -0.1552 -0.1722  0.5231
  647MOL0     C89214   3.591   1.399   2.501 -0.6684  0.1590  0.7490
  647MOL0     C89215   3.733   1.417   2.505 -0.3488  0.0957  0.9697
  647MOL0     C89216   3.800   1.468   2.626 -0.0762  0.0130 -0.8639
  647MOL0     H89217   4.160   1.422   2.061  1.8642  1.4784 -0.4806
  647MOL0     H89218   4.403   1.432   2.044 -0.9596 -2.3857 -1.8779
  647MOL0     H89219   4.580   1.532   2.171 -1.2976  0.0520  0.4628
  647MOL0     H89220   4.641   1.423   2.048 -1.1910  1.2175 -0.1278
  647MOL0     H89221   4.799   1.423   2.314  4.6056 -0.3250 -0.9538
  647MOL0     H89222   4.836   1.373   2.153 -1.0615  0.2320 -2.6607
  647MOL0     H89223   4.945   1.590   2.220 -0.7769  1.6971 -0.8958
  647MOL0     H89224   4.822   1.610   2.084 -0.4182  2.3665 -0.5518
  647MOL0     H89225   4.671   1.724   2.221 -0.3997 -1.9859  0.3233
  647MOL0     H89226   4.748   1.661   2.371 -0.3487  2.2289  1.6054
  647MOL0     H89227   4.931   1.810   2.368  0.0593 -0.7391 -0.8034
  647MOL0     H89228   4.774   1.893   2.349 -0.0262 -0.8121  0.3565
  647MOL0     H89229   4.954   1.819   2.109  1.3927 -0.3442  2.1291
  647MOL0     H89230   4.804   1.922   2.112  0.8240  5.4195  0.2864
  647MOL0     H89231   5.038   2.010   2.279 -0.3313  2.6868 -0.2496
  647MOL0     H89232   4.919   2.108   2.219 -0.5965 -0.6749  2.3254
  647MOL0     H89233   5.138   1.977   2.040  3.1766  2.3317 -1.5516
  647MOL0     H89234   5.006   2.073   1.972  1.1205 -0.6492 -1.1404
  647MOL0     H89235   5.039   2.341   2.033  1.0281  0.6213 -0.1467
  647MOL0     H89236   5.269   2.585   2.202 -0.3872  0.9526 -0.4373
  647MOL0     H89237   5.120   2.552   2.105 -0.4918  0.2025 -1.3780
  647MOL0     H89238   5.220   2.663   1.949 -1.8482 -3.7632 -3.2411
  647MOL0     H89239   5.388   2.641   2.014 -0.6167  0.7810 -1.4685
  647MOL0     H89240   5.359   2.400   1.896  0.6731 -0.7800 -3.0280
  647MOL0     H89241   5.224   2.478   1.821  0.0124 -1.2207  1.3800
  647MOL0     H89242   5.413   2.511   1.672 -0.2383  1.9637 -1.5415
  647MOL0     H89243   5.368   2.665   1.746  0.7562  0.4099  1.7378
  647MOL0     H89244   5.790   2.648   1.871  1.0843  0.6420  0.3531
  647MOL0     H89245   6.056   2.819   1.742  0.9360  0.4089 -0.2859
  647MOL0     H89246   6.051   2.632   1.723  0.0761  0.4611 -0.7188
  647MOL0     H89247   5.994   2.716   1.869 -1.6388 -1.4027 -0.3444
  647MOL0     H89248   6.293   2.865   1.588  0.5101 -2.2277 -1.2213
  647MOL0     H89249   6.462   3.021   1.498  0.8654 -1.9133 -0.2917
  647MOL0     H89250   6.528   3.023   1.115  1.6018 -0.0806  1.2101
  647MOL0     H89251   6.447   3.169   1.086 -4.2775 -3.0331  0.6139
  647MOL0     H89252   6.648   3.306   1.154 -1.2318 -0.2013  1.3407
  647MOL0     H89253   6.737   3.166   1.218  0.5860 -0.5929 -1.7031
  647MOL0     H89254   6.642   3.106   0.948  1.0543 -1.6405 -0.3117
  647MOL0     H89255   6.790   3.084   1.034 -1.8369 -1.3078  1.7227
  647MOL0     H89256   6.855   3.320   0.993  0.0793 -2.3326  1.5034
  647MOL0     H89257   6.704   3.354   0.915 -0.2085 -0.2705 -0.5558
  647MOL0     H89258   6.934   3.180   0.824 -0.3775 -0.4996  1.7125
  647MOL0     H89259   6.790   3.158   0.731 -0.0182  0.2115 -0.1509
  647MOL0     H89260   6.781   3.396   0.676  0.2109  1.4794 -1.3131
  647MOL0     H89261   6.911   3.299   0.603  2.7012 -1.8279  1.6391
  647MOL0     H89262   6.967   3.478   0.840 -1.6245 -0.9940  0.2248
  647MOL0     H89263   6.992   3.534   0.682  1.1219  0.0832  1.1342
  647MOL0     H89264   7.166   3.344   0.631  3.0439  0.5444  0.9679
  647MOL0     H89265   7.133   3.288   0.787 -2.2807 -1.5612 -2.2856
  647MOL0     H89266   6.268   3.034   1.128  0.8391 -0.8479  0.5956
  647MOL0     H89267   6.057   2.915   1.237  2.0200 -3.5903 -0.8188
  647MOL0     H89268   5.674   2.789   1.414 -2.5902  0.5595  0.4515
  647MOL0     H89269   5.517   2.678   1.546  1.4891  0.5762 -3.1441
  647MOL0     H89270   4.428   1.253   2.441  0.6967  2.5756  0.8499
  647MOL0     H89271   4.190   1.239   2.448  1.2403 -0.5512  1.0449
  647MOL0     H89272   3.787   1.305   2.178 -1.3303  0.7901 -0.8119
  647MOL0     H89273   3.547   1.295   2.184 -2.4324  1.0781  0.3622
  647MOL0     H89274   3.349   1.377   2.183  1.5071 -2.1220 -0.9641
  647MOL0     H89275   3.284   1.235   2.255 -0.2987 -0.0604 -1.0376
  647MOL0     H89276   3.144   1.468   2.201 -1.4910 -1.8083  0.6043
  647MOL0     H89277   3.215   1.510   2.356  0.4717 -0.5199  1.8076
  647MOL0     H89278   3.047   1.257   2.283  3.2676 -2.0606  0.0750
  647MOL0     H89279   3.132   1.280   2.430 -1.2996 -1.8229 -0.9044
  647MOL0     H89280   2.916   1.495   2.354 -0.3625 -3.2421 -3.6062
  647MOL0     H89281   3.008   1.469   2.508 -0.9643 -2.4107  0.9104
  647MOL0     H89282   2.670   1.196   2.450  0.8869 -1.4974 -0.8175
  647MOL0     H89283   3.541   1.418   2.595  0.4048 -0.3433  1.4415
  647MOL0     H89284   3.730   1.458   2.709 -0.5096 -3.8020 -1.4945
  647MOL0     H89285   3.878   1.397   2.654  0.2781  1.0485  0.8912
  647MOL0     H89286   3.826   1.574   2.621 -2.3667  0.8756  2.1647
  648MOL0     O89287   5.947   7.169  11.276  0.7632  0.3787 -0.7693
  648MOL0     C89288   5.937   7.291  11.285  0.0944 -0.4941 -0.0711
  648MOL0     O89289   5.849   7.373  11.223 -0.0340 -0.2458  0.6802
  648MOL0     C89290   5.747   7.323  11.145 -0.0159 -0.1382  0.2108
  648MOL0     C89291   5.689   7.418  11.057 -0.0905 -0.0329  0.4979
  648MOL0     C89292   5.584   7.375  10.978 -0.5456 -0.5807  0.2687
  648MOL0     C89293   5.532   7.248  10.982  1.4506 -0.3463 -0.1457
  648MOL0     O89294   5.415   7.232  10.909 -0.1904  0.2584  0.0670
  648MOL0     C89295   5.387   7.096  10.862 -0.4558  0.2641  0.1054
  648MOL0     C89296   5.280   7.110  10.749  0.0408  0.1670 -0.1892
  648MOL0     C89297   5.331   7.161  10.616 -0.3817 -0.0047  1.0901
  648MOL0     C89298   5.378   7.042  10.525  0.0802 -0.6609  0.0483
  648MOL0     C89299   5.416   7.066  10.376 -0.2781 -0.3727 -0.0518
  648MOL0     C89300   5.288   7.110  10.302 -0.7448 -0.2981 -0.6664
  648MOL0     C89301   5.318   7.152  10.152  0.5598  0.2332 -0.1927
  648MOL0     C89302   5.206   7.116  10.064  0.3355  0.2176  0.4621
  648MOL0     N89303   5.240   7.119   9.920  0.4923  0.1836 -0.4179
  648MOL0     C89304   5.281   7.235   9.854  0.7389 -0.5147  0.4245
  648MOL0     C89305   5.315   7.194   9.729 -0.7714 -0.0714 -0.5641
  648MOL0     C89306   5.387   7.263   9.619  0.5969 -0.5963  0.7866
  648MOL0     C89307   5.533   7.251   9.644 -0.5781  0.2099 -0.7903
  648MOL0     C89308   5.626   7.311   9.536  0.9414  0.8146  0.6744
  648MOL0     C89309   5.769   7.342   9.587  0.3793  0.5610 -0.0959
  648MOL0     O89310   5.832   7.218   9.637  0.0834 -0.4682  0.2351
  648MOL0     C89311   5.967   7.231   9.660  0.3866 -0.3479 -1.0582
  648MOL0     C89312   6.027   7.145   9.758  0.2285 -0.6954  1.1120
  648MOL0     C89313   6.164   7.151   9.785  0.1997  0.2125 -0.4505
  648MOL0     C89314   6.218   7.064   9.895 -0.5891  0.0055  0.3736
  648MOL0     C89315   6.249   7.239   9.714 -0.2220 -0.1877  0.2663
  648MOL0     C89316   6.392   7.257   9.749 -0.0701  0.0589 -0.6450
  648MOL0     O89317   6.420   7.304   9.873 -0.7685  0.8019 -0.7229
  648MOL0     C89318   6.545   7.343   9.908 -0.1595  0.1989  0.1523
  648MOL0     C89319   6.615   7.448   9.843  0.3064  1.0346  0.1868
  648MOL0     C89320   6.742   7.485   9.887  0.0162  0.5909  0.0702
  648MOL0     C89321   6.799   7.425   9.997  0.5438  0.7847 -0.8159
  648MOL0     O89322   6.921   7.474  10.022  0.3635  0.1018 -0.1462
  648MOL0     C89323   7.011   7.412  10.116 -0.4740 -0.1788  0.4129
  648MOL0     C89324   6.968   7.448  10.262  0.1908 -0.3149  0.2675
  648MOL0     C89325   7.055   7.385  10.365 -0.0206  0.2762 -0.8052
  648MOL0     C89326   7.037   7.229  10.392  1.1211 -0.2632 -0.2641
  648MOL0     C89327   7.158   7.161  10.457 -0.7765  0.0287  0.0371
  648MOL0     C89328   7.267   7.115  10.352 -0.6835 -0.4331 -0.6445
  648MOL0     C89329   7.364   7.003  10.387 -0.1579 -0.3807 -1.2005
  648MOL0     C89330   7.420   6.998  10.532  0.3940  0.3617 -0.3383
  648MOL0    Cl89331   7.538   7.137  10.579 -0.1507  0.2411  0.0188
  648MOL0     C89332   6.731   7.324  10.064  0.4770 -0.1935 -0.4007
  648MOL0     C89333   6.607   7.277  10.010 -0.0691 -0.1617  0.2607
  648MOL0     O89334   6.473   7.243   9.662  0.7822  0.0440 -0.5336
  648MOL0     C89335   6.193   7.316   9.617  0.4553  0.0602 -0.6965
  648MOL0     C89336   6.052   7.318   9.599  0.5553  0.2524  0.4562
  648MOL0     N89337   5.287   7.059   9.719  0.1754  0.2465  0.2807
  648MOL0     N89338   5.235   7.015   9.833 -0.1639 -0.5497 -0.4410
  648MOL0     C89339   5.589   7.151  11.057 -0.3413  0.8561  0.0098
  648MOL0     C89340   5.702   7.188  11.142  0.1531  0.2569 -0.6891
  648MOL0     C89341   6.024   7.340  11.389 -0.6233  0.3052 -0.0455
  648MOL0     C89342   6.154   7.288  11.404  0.2802  0.2382  0.0444
  648MOL0     C89343   6.245   7.349  11.495  0.2418  0.4064  0.4186
  648MOL0     C89344   6.210   7.453  11.578 -0.2478  0.7542  1.5034
  648MOL0     O89345   6.290   7.523  11.665  0.6055  0.1765  0.0344
  648MOL0     C89346   6.426   7.488  11.689  0.3890 -0.0299  0.2307
  648MOL0     C89347   6.463   7.549  11.824 -0.1042 -0.0184  0.0741
  648MOL0     C89348   6.460   7.696  11.833 -0.1522 -0.6458 -0.5515
  648MOL0     C89349   6.474   7.750  11.982  0.0598 -0.1328  0.2994
  648MOL0     C89350   6.372   7.705  12.079 -0.2066 -0.3272 -0.2454
  648MOL0     C89351   6.298   7.650  12.158 -0.4844  0.8380 -0.9522
  648MOL0     C89352   6.073   7.485  11.584 -0.3243  0.2005  0.4460
  648MOL0     C89353   5.981   7.433  11.495 -0.1073  0.2808  0.8938
  648MOL0     C89354   5.838   7.490  11.504  0.1726 -0.2972 -0.5905
  648MOL0     H89355   5.729   7.518  11.045 -0.8915  0.3745  1.1822
  648MOL0     H89356   5.543   7.446  10.907  0.0255 -1.6833 -1.2194
  648MOL0     H89357   5.345   7.036  10.944  2.0926 -0.9399  0.6393
  648MOL0     H89358   5.478   7.048  10.824  0.1306  1.1910  0.2989
  648MOL0     H89359   5.245   7.009  10.725  1.2501 -0.2851 -0.1069
  648MOL0     H89360   5.202   7.174  10.793 -2.1849 -3.5085  1.7730
  648MOL0     H89361   5.243   7.210  10.572 -0.9182 -2.4481 -0.7968
  648MOL0     H89362   5.405   7.242  10.615  1.7012 -1.7929 -0.6096
  648MOL0     H89363   5.472   7.011  10.574  0.4221  1.3604  0.7698
  648MOL0     H89364   5.319   6.950  10.528  3.4230 -2.9898  0.3572
  648MOL0     H89365   5.463   6.974  10.339  1.8287  0.8560 -0.6439
  648MOL0     H89366   5.500   7.136  10.370 -0.8332  0.4445  1.4261
  648MOL0     H89367   5.220   7.025  10.311 -1.6067  0.2749 -1.5913
  648MOL0     H89368   5.253   7.204  10.346 -0.7263  0.1383 -1.5625
  648MOL0     H89369   5.405   7.094  10.120 -1.1211 -0.8195 -3.2882
  648MOL0     H89370   5.336   7.260  10.138 -0.7749  0.5639  0.4906
  648MOL0     H89371   5.158   7.020  10.087 -3.3240  1.8565  0.4488
  648MOL0     H89372   5.135   7.198  10.078  0.1921  0.7557 -2.6745
  648MOL0     H89373   5.284   7.339   9.888  3.2249  0.1980 -1.6675
  648MOL0     H89374   5.350   7.366   9.609 -0.1822 -0.9053  0.4273
  648MOL0     H89375   5.353   7.214   9.527 -2.0153  0.4188  1.1084
  648MOL0     H89376   5.544   7.316   9.732 -1.4933  0.6832 -1.0185
  648MOL0     H89377   5.573   7.151   9.663  1.8298  1.3847  0.8908
  648MOL0     H89378   5.626   7.232   9.460  1.1813  1.8141 -0.3858
  648MOL0     H89379   5.582   7.395   9.482 -0.8250 -1.0390 -0.9401
  648MOL0     H89380   5.829   7.380   9.503  2.0491 -2.1106 -0.2147
  648MOL0     H89381   5.771   7.422   9.661  0.6825 -1.2251  1.9064
  648MOL0     H89382   5.959   7.086   9.819  1.0861 -0.7626  2.0413
  648MOL0     H89383   6.179   6.963   9.878 -1.2052  0.4017 -0.7168
  648MOL0     H89384   6.166   7.090   9.988 -2.5849 -0.5983 -0.5114
  648MOL0     H89385   6.325   7.061   9.915 -0.0249  0.3865 -2.2189
  648MOL0     H89386   6.577   7.503   9.757  2.7625  3.4645  0.4880
  648MOL0     H89387   6.804   7.557   9.835  0.8680 -0.2942 -0.1581
  648MOL0     H89388   7.018   7.304  10.103  4.0104 -0.0146 -0.2423
  648MOL0     H89389   7.109   7.453  10.086  0.6575 -2.4303  0.8277
  648MOL0     H89390   6.971   7.557  10.275  3.5275  0.0128 -1.8992
  648MOL0     H89391   6.863   7.422  10.278  0.0985  0.1720  0.4679
  648MOL0     H89392   7.049   7.448  10.454  1.9155 -0.4917 -0.0558
  648MOL0     H89393   7.161   7.393  10.340 -0.5287  0.6575 -3.0400
  648MOL0     H89394   7.011   7.178  10.299 -2.2774  0.3511  0.2060
  648MOL0     H89395   6.954   7.221  10.463  1.6672  0.5065  0.4806
  648MOL0     H89396   7.201   7.228  10.533 -1.5654  1.1904 -0.5096
  648MOL0     H89397   7.103   7.077  10.500 -2.4625  0.2502 -1.5934
  648MOL0     H89398   7.326   7.204  10.327 -1.1369 -0.2180 -0.9602
  648MOL0     H89399   7.217   7.070  10.266  2.0864 -3.0414 -1.0700
  648MOL0     H89400   7.437   6.999  10.306  0.9749  2.2317 -0.4059
  648MOL0     H89401   7.305   6.911  10.384 -2.7020  1.1249 -0.4307
  648MOL0     H89402   7.489   6.913  10.532 -0.1817 -0.1136 -0.6092
  648MOL0     H89403   7.334   6.997  10.600  0.8261  0.2794  0.2128
  648MOL0     H89404   6.779   7.265  10.141  2.8050  0.8703 -0.9313
  648MOL0     H89405   6.548   7.191  10.039  0.7683 -0.8602 -0.0802
  648MOL0     H89406   6.252   7.381   9.552  1.0655 -1.0528 -1.2844
  648MOL0     H89407   6.017   7.384   9.520  0.0183  0.9456  1.2591
  648MOL0     H89408   5.558   7.048  11.049 -0.1032  0.8421 -0.9693
  648MOL0     H89409   5.739   7.096  11.185 -3.2019  0.0565  2.2096
  648MOL0     H89410   6.206   7.227  11.331  0.3644 -1.6257  1.5715
  648MOL0     H89411   6.344   7.306  11.487 -0.9104 -2.8868  2.2084
  648MOL0     H89412   6.439   7.380  11.701 -0.0421 -0.0735  0.3263
  648MOL0     H89413   6.491   7.515  11.605 -0.8571 -0.0364 -0.7765
  648MOL0     H89414   6.565   7.516  11.848 -0.1107 -0.8062 -0.8825
  648MOL0     H89415   6.408   7.504  11.908 -3.0456  1.1441 -1.0874
  648MOL0     H89416   6.537   7.749  11.777 -1.3032  2.3753  0.5630
  648MOL0     H89417   6.363   7.735  11.801 -1.5547 -2.3333  1.3805
  648MOL0     H89418   6.467   7.859  11.976 -0.9423 -0.2150 -0.5315
  648MOL0     H89419   6.577   7.724  12.005  1.1357  2.0255 -1.6651
  648MOL0     H89420   6.217   7.611  12.216 -1.1650  0.1035 -2.3487
  648MOL0     H89421   6.040   7.554  11.662 -0.4101 -3.2672  3.7599
  648MOL0     H89422   5.821   7.509  11.610  0.2177 -0.7058 -0.5068
  648MOL0     H89423   5.830   7.582  11.446 -0.3516 -0.7962 -1.3277
  648MOL0     H89424   5.760   7.420  11.474 -2.7111  1.1389  2.8008
  649MOL0     O89425   4.550   8.295   8.356  0.4158 -0.0087  0.2232
  649MOL0     C89426   4.509   8.403   8.320 -0.1649 -0.8346  0.1936
  649MOL0     O89427   4.586   8.504   8.263 -0.1847  0.0097 -0.0949
  649MOL0     C89428   4.718   8.475   8.282 -0.1721 -0.2056  0.0879
  649MOL0     C89429   4.793   8.540   8.387  1.0620  0.4602 -0.1499
  649MOL0     C89430   4.925   8.518   8.413 -0.0319 -0.0587 -0.4272
  649MOL0     C89431   4.992   8.419   8.334 -0.9601  0.3075 -0.0020
  649MOL0     O89432   5.125   8.394   8.370 -0.0236 -0.1038 -0.2318
  649MOL0     C89433   5.192   8.275   8.329  0.2413  0.2775  0.4580
  649MOL0     C89434   5.339   8.275   8.359 -0.2344 -0.6995  0.2822
  649MOL0     C89435   5.416   8.368   8.266  0.6876 -0.1131  0.1271
  649MOL0     C89436   5.554   8.390   8.316 -0.1786  0.5419  0.0522
  649MOL0     C89437   5.640   8.474   8.226 -0.4370 -0.2136 -0.5886
  649MOL0     C89438   5.774   8.507   8.296 -0.5032  0.1255  0.4143
  649MOL0     C89439   5.776   8.609   8.405  0.8919  0.7255  0.0662
  649MOL0     C89440   5.782   8.751   8.358  0.5491  0.9098  0.2839
  649MOL0     N89441   5.917   8.791   8.317 -0.2306  0.1191 -0.2863
  649MOL0     C89442   5.968   8.812   8.193 -0.2822 -0.2595  0.8463
  649MOL0     C89443   6.080   8.889   8.209  0.8598  0.0121 -0.0668
  649MOL0     C89444   6.154   8.946   8.090  0.0630 -0.0675  0.0322
  649MOL0     C89445   6.300   8.888   8.079  0.6545 -0.1088  0.5221
  649MOL0     C89446   6.402   8.946   8.176 -0.3122  0.7771 -0.8397
  649MOL0     C89447   6.536   8.903   8.125 -0.6407  0.4311  0.2258
  649MOL0     O89448   6.635   9.001   8.167 -0.0089 -0.6673 -0.9263
  649MOL0     C89449   6.751   8.997   8.105  0.0829 -0.3983  0.6128
  649MOL0     C89450   6.801   8.917   8.001 -0.7589 -0.1621 -0.0175
  649MOL0     C89451   6.929   8.941   7.943 -0.6932 -0.8944 -0.1353
  649MOL0     C89452   6.962   8.860   7.832 -0.1471 -0.2463  0.2704
  649MOL0     C89453   7.013   9.029   7.998  0.3798 -0.4675 -0.7653
  649MOL0     C89454   7.143   9.063   7.950 -0.5319 -0.7150 -0.6127
  649MOL0     O89455   7.159   9.194   7.928  0.0407 -0.2975  0.1553
  649MOL0     C89456   7.281   9.243   7.892 -0.4672 -1.3263  0.4858
  649MOL0     C89457   7.346   9.330   7.974  0.0631  0.1200 -0.4742
  649MOL0     C89458   7.469   9.381   7.935  0.2937 -0.7902  1.5134
  649MOL0     C89459   7.519   9.360   7.808 -0.1485  0.1317  0.2537
  649MOL0     O89460   7.635   9.417   7.759  0.4282 -0.0765  0.2143
  649MOL0     C89461   7.700   9.531   7.825 -0.4326  0.0134  0.0634
  649MOL0     C89462   7.792   9.499   7.945  0.0834 -0.5043  0.4373
  649MOL0     C89463   7.932   9.463   7.891  0.1551  0.3986  0.5697
  649MOL0     C89464   8.029   9.428   8.014  0.4268 -0.5782 -0.3381
  649MOL0     C89465   8.166   9.368   7.977  0.1476  0.3061 -0.5138
  649MOL0     C89466   8.236   9.333   8.101 -0.1197 -0.0958 -0.1151
  649MOL0     C89467   8.386   9.295   8.069  0.3072 -0.6974  0.1715
  649MOL0     C89468   8.471   9.265   8.195 -0.4943 -0.2738 -0.2249
  649MOL0    Cl89469   8.519   9.093   8.197  0.2829  0.9295  0.2782
  649MOL0     C89470   7.448   9.280   7.722 -0.6127 -0.5173  0.2034
  649MOL0     C89471   7.331   9.219   7.765  0.7630 -0.0295 -0.7348
  649MOL0     O89472   7.232   8.979   7.937  0.0770  0.4695 -0.1185
  649MOL0     C89473   6.968   9.109   8.108 -0.1883 -0.1281 -0.8031
  649MOL0     C89474   6.835   9.097   8.158 -0.1245  0.0481 -0.4984
  649MOL0     N89475   6.092   8.908   8.350  0.4036  0.6153  0.2699
  649MOL0     N89476   5.997   8.847   8.410  0.3320 -1.0332 -0.1789
  649MOL0     C89477   4.921   8.353   8.236 -1.1030  0.0125 -0.2885
  649MOL0     C89478   4.788   8.383   8.207 -0.3824 -0.2799 -0.0408
  649MOL0     C89479   4.372   8.443   8.353 -0.5163  0.2326  0.4073
  649MOL0     C89480   4.347   8.576   8.352  0.6193 -0.6265 -0.0261
  649MOL0     C89481   4.221   8.626   8.381  0.2744  0.5063  0.8470
  649MOL0     C89482   4.113   8.544   8.413 -0.5911 -0.1783  0.4645
  649MOL0     O89483   3.988   8.592   8.444 -0.7938 -0.2245 -0.0695
  649MOL0     C89484   3.969   8.729   8.474  0.6313 -0.3655  0.0974
  649MOL0     C89485   3.822   8.746   8.498 -0.4153 -0.4038 -0.6430
  649MOL0     C89486   3.725   8.752   8.380  0.3173  0.1509  0.3058
  649MOL0     C89487   3.579   8.777   8.429  0.7829  0.1747  0.5006
  649MOL0     C89488   3.568   8.884   8.522 -0.0807  0.1090 -0.2890
  649MOL0     C89489   3.564   8.976   8.597  0.4943 -0.0685  0.3079
  649MOL0     C89490   4.141   8.412   8.406 -0.8294  0.0100  0.7281
  649MOL0     C89491   4.264   8.359   8.365 -0.0863  0.2862  0.9317
  649MOL0     C89492   4.277   8.204   8.345  0.9719  0.1736 -0.4849
  649MOL0     H89493   4.730   8.609   8.442 -0.3388 -0.1303 -0.9521
  649MOL0     H89494   4.986   8.573   8.484 -1.1368  0.4494  0.1388
  649MOL0     H89495   5.172   8.249   8.225 -0.3413  1.1447  0.3360
  649MOL0     H89496   5.140   8.195   8.381 -1.1108  0.8053 -0.0386
  649MOL0     H89497   5.361   8.294   8.464  0.4380  0.1928 -0.0038
  649MOL0     H89498   5.371   8.174   8.334 -0.1942 -0.7618  0.5842
  649MOL0     H89499   5.427   8.308   8.175 -0.6064  0.6435 -0.5645
  649MOL0     H89500   5.359   8.461   8.255 -1.5365 -1.2110  1.5594
  649MOL0     H89501   5.533   8.441   8.410  0.8579  2.6765 -0.8020
  649MOL0     H89502   5.604   8.294   8.334 -1.8329 -0.3181  0.2204
  649MOL0     H89503   5.590   8.566   8.194  1.5392  1.4818  0.9117
  649MOL0     H89504   5.645   8.418   8.132  1.6755  2.1296 -2.0205
  649MOL0     H89505   5.802   8.410   8.339 -2.0669 -0.7548 -0.4467
  649MOL0     H89506   5.845   8.521   8.215 -1.7443 -0.5161 -0.8263
  649MOL0     H89507   5.861   8.599   8.472  0.9319  1.6541  0.1638
  649MOL0     H89508   5.688   8.588   8.467  1.6033 -2.6788  0.1423
  649MOL0     H89509   5.710   8.762   8.276 -1.3818 -1.5595  1.5057
  649MOL0     H89510   5.750   8.820   8.437 -0.2770  3.8246 -2.4136
  649MOL0     H89511   5.935   8.768   8.100  1.9961  1.2591 -0.7796
  649MOL0     H89512   6.145   9.055   8.080 -0.8010 -0.1038  0.3594
  649MOL0     H89513   6.100   8.913   8.001  0.9805 -1.1752 -0.1281
  649MOL0     H89514   6.296   8.780   8.092 -1.6076 -0.1732 -0.2828
  649MOL0     H89515   6.320   8.917   7.975 -3.3140  2.4636  0.2752
  649MOL0     H89516   6.397   9.055   8.183  0.2865  0.7217  1.1246
  649MOL0     H89517   6.392   8.918   8.281  0.0138  1.1339 -0.7081
  649MOL0     H89518   6.568   8.807   8.165 -2.2738 -0.0572  0.4356
  649MOL0     H89519   6.549   8.903   8.016  2.1903 -0.4977  0.4862
  649MOL0     H89520   6.737   8.839   7.960 -1.3350 -0.5777  1.5915
  649MOL0     H89521   7.006   8.916   7.749 -0.1894 -2.3835 -1.2847
  649MOL0     H89522   6.870   8.816   7.792 -0.1876  1.0722 -1.1714
  649MOL0     H89523   7.028   8.778   7.860  0.1327  0.0743  0.5509
  649MOL0     H89524   7.292   9.345   8.067 -1.3524  1.3474 -1.4456
  649MOL0     H89525   7.534   9.433   8.005  0.8581  0.7361 -0.0796
  649MOL0     H89526   7.760   9.585   7.751  1.3095  0.1988  1.5539
  649MOL0     H89527   7.625   9.600   7.864  0.4739  0.9447  0.1943
  649MOL0     H89528   7.803   9.595   7.996 -0.5570  0.4500 -1.1200
  649MOL0     H89529   7.753   9.415   8.002  1.1982 -1.1699  0.2548
  649MOL0     H89530   7.974   9.540   7.825  1.2230 -1.4782 -1.0746
  649MOL0     H89531   7.923   9.371   7.832 -1.8373  0.2302  1.0657
  649MOL0     H89532   7.972   9.364   8.081  1.1782 -1.0357 -0.1241
  649MOL0     H89533   8.039   9.515   8.079 -1.4736  0.1746 -0.9903
  649MOL0     H89534   8.167   9.282   7.910  3.7917 -0.8640  0.7933
  649MOL0     H89535   8.226   9.443   7.926 -1.6548  0.0999 -3.1259
  649MOL0     H89536   8.187   9.248   8.150 -0.1841  0.0854  0.1400
  649MOL0     H89537   8.231   9.419   8.169 -0.1750  0.3004 -0.6166
  649MOL0     H89538   8.423   9.380   8.011 -2.3793 -1.5625 -3.1500
  649MOL0     H89539   8.385   9.210   8.000 -0.7062 -0.3451 -0.2610
  649MOL0     H89540   8.410   9.284   8.285 -0.6593  2.0910 -0.7669
  649MOL0     H89541   8.557   9.331   8.183 -0.4000 -0.6242 -1.6520
  649MOL0     H89542   7.480   9.271   7.618  1.4308 -0.1029  0.7496
  649MOL0     H89543   7.272   9.148   7.707 -2.3219  0.6573  1.3012
  649MOL0     H89544   7.040   9.178   8.151 -2.1584  1.3774  0.2188
  649MOL0     H89545   6.807   9.166   8.237  1.5101 -2.0094  2.0767
  649MOL0     H89546   4.955   8.266   8.181 -0.2234 -0.3683  0.8241
  649MOL0     H89547   4.745   8.326   8.125  0.1088  0.7008 -0.9999
  649MOL0     H89548   4.415   8.658   8.329 -1.3626  0.6050 -1.9934
  649MOL0     H89549   4.218   8.734   8.386  0.3009  0.6166 -0.9146
  649MOL0     H89550   4.021   8.765   8.564 -2.6498  3.8883  0.6259
  649MOL0     H89551   4.003   8.786   8.387 -0.9193 -1.7123 -1.4634
  649MOL0     H89552   3.820   8.849   8.535 -2.0747 -1.0729  1.2657
  649MOL0     H89553   3.787   8.676   8.573 -1.2896 -0.5182 -1.1433
  649MOL0     H89554   3.758   8.831   8.312 -0.7985 -2.1515 -3.1208
  649MOL0     H89555   3.736   8.660   8.323  0.1803  0.6134 -0.4804
  649MOL0     H89556   3.536   8.683   8.462  2.9038 -1.3746 -0.8331
  649MOL0     H89557   3.509   8.800   8.348  0.5908  0.0576  0.6344
  649MOL0     H89558   3.561   9.067   8.654 -0.2115  0.4814 -0.5639
  649MOL0     H89559   4.054   8.349   8.423 -1.5859  0.4266 -1.3023
  649MOL0     H89560   4.175   8.163   8.340 -0.1742  2.8874 -4.3840
  649MOL0     H89561   4.332   8.177   8.254  1.0746 -0.0538 -0.3573
  649MOL0     H89562   4.338   8.160   8.424 -0.4372 -0.7891  0.1033
  650MOL0     O89563   7.565   4.886   4.291 -0.0950 -0.0757 -0.2882
  650MOL0     C89564   7.541   4.830   4.187  0.2231 -0.2664 -0.2076
  650MOL0     O89565   7.416   4.805   4.141  0.6304  0.4560 -0.2030
  650MOL0     C89566   7.316   4.781   4.231 -0.8484  0.0166 -0.0502
  650MOL0     C89567   7.183   4.836   4.213 -0.0302  0.2188  0.3777
  650MOL0     C89568   7.083   4.810   4.306 -0.1694 -0.3246 -0.1238
  650MOL0     C89569   7.111   4.731   4.422  0.6956  0.1903  0.5827
  650MOL0     O89570   7.015   4.699   4.510  0.7710  0.1126 -0.4514
  650MOL0     C89571   6.920   4.607   4.462  0.0539 -0.0395  0.4258
  650MOL0     C89572   6.817   4.571   4.574  0.2459  0.5412 -0.3335
  650MOL0     C89573   6.865   4.559   4.724 -0.5061  0.2990  1.1217
  650MOL0     C89574   6.971   4.445   4.721  0.2669 -0.3655 -0.3997
  650MOL0     C89575   7.005   4.395   4.859 -0.2456 -0.3288  0.6528
  650MOL0     C89576   7.088   4.487   4.945 -0.2450 -0.4096  0.1462
  650MOL0     C89577   7.209   4.550   4.876  0.1004 -0.2884 -0.2738
  650MOL0     C89578   7.288   4.627   4.975  0.0725  0.1157  0.1011
  650MOL0     N89579   7.417   4.673   4.929  0.6902  0.2491  0.6736
  650MOL0     C89580   7.480   4.664   4.805 -0.9445 -1.5400 -0.4077
  650MOL0     C89581   7.607   4.706   4.822  0.1905 -0.3589 -0.7268
  650MOL0     C89582   7.698   4.709   4.707 -0.0360 -0.6335  0.5863
  650MOL0     C89583   7.707   4.845   4.638 -0.6705 -0.6482  0.1861
  650MOL0     C89584   7.566   4.911   4.621  0.4712 -0.5768  0.2373
  650MOL0     C89585   7.587   5.053   4.550 -0.0569 -1.0897 -0.5493
  650MOL0     O89586   7.621   5.167   4.630 -0.3273 -0.4036  0.0149
  650MOL0     C89587   7.751   5.202   4.661 -0.3232  1.3846  0.2604
  650MOL0     C89588   7.864   5.138   4.595  0.4191  0.1090 -0.3181
  650MOL0     C89589   7.995   5.172   4.637 -0.0150 -0.3953  0.1567
  650MOL0     C89590   8.103   5.078   4.576 -0.0766  0.4368  0.0537
  650MOL0     C89591   8.012   5.261   4.749 -0.0487 -0.2271 -0.4936
  650MOL0     C89592   8.148   5.318   4.790 -0.8821  0.1110  0.7763
  650MOL0     O89593   8.250   5.302   4.692 -0.7461 -0.2752 -0.6859
  650MOL0     C89594   8.378   5.351   4.714  0.2662  0.6492  0.4070
  650MOL0     C89595   8.453   5.290   4.823  0.0097 -0.8545 -0.7689
  650MOL0     C89596   8.585   5.338   4.851  0.2759 -0.5254 -0.1089
  650MOL0     C89597   8.649   5.434   4.763 -0.2323 -0.1989 -0.2508
  650MOL0     O89598   8.779   5.459   4.786  0.0824  0.4859  0.2817
  650MOL0     C89599   8.818   5.596   4.770 -0.0504 -0.4165 -1.1819
  650MOL0     C89600   8.964   5.621   4.822 -0.5100  0.1501  1.0818
  650MOL0     C89601   9.063   5.530   4.743  0.5249  0.3842 -0.8446
  650MOL0     C89602   9.209   5.549   4.753 -0.2954 -0.5571 -0.2819
  650MOL0     C89603   9.281   5.452   4.660 -0.1762 -0.3848 -0.8298
  650MOL0     C89604   9.429   5.431   4.689 -0.2909 -1.0510  0.3302
  650MOL0     C89605   9.472   5.330   4.580  0.1042 -0.0052  0.2666
  650MOL0     C89606   9.617   5.303   4.586 -0.8222 -0.5670  0.3273
  650MOL0    Cl89607   9.659   5.182   4.462  0.2782  0.1811 -0.2642
  650MOL0     C89608   8.578   5.479   4.649  0.6048 -0.5118  0.3839
  650MOL0     C89609   8.435   5.443   4.628 -0.4434 -0.8392 -0.7016
  650MOL0     O89610   8.161   5.368   4.900 -0.1918  0.0107 -0.5691
  650MOL0     C89611   7.897   5.309   4.812 -0.8381  0.0161  0.1346
  650MOL0     C89612   7.770   5.283   4.761  0.6016 -0.4502 -0.2752
  650MOL0     N89613   7.630   4.741   4.953  0.2684  0.4952  0.0476
  650MOL0     N89614   7.512   4.719   5.017 -0.9048 -0.1990 -0.7884
  650MOL0     C89615   7.237   4.669   4.439  0.4879 -0.4513 -0.5800
  650MOL0     C89616   7.340   4.700   4.350 -0.2344  0.2039 -0.1319
  650MOL0     C89617   7.650   4.813   4.097  0.1869 -0.0842  0.6835
  650MOL0     C89618   7.618   4.789   3.955  0.4385  0.5357 -1.4496
  650MOL0     C89619   7.719   4.763   3.859  0.3915  0.0763 -0.5616
  650MOL0     C89620   7.851   4.762   3.895  0.7670  0.2200 -0.1012
  650MOL0     O89621   7.950   4.735   3.804  0.4435  0.0745 -0.1469
  650MOL0     C89622   8.055   4.642   3.853 -0.2350  0.0245  0.3999
  650MOL0     C89623   8.076   4.538   3.739 -0.4133 -0.7043  0.0896
  650MOL0     C89624   8.197   4.446   3.764 -0.0385  0.3502 -0.5759
  650MOL0     C89625   8.239   4.388   3.630 -0.0140  0.0567  0.5944
  650MOL0     C89626   8.358   4.297   3.650 -0.0930  0.1088  0.3395
  650MOL0     C89627   8.459   4.229   3.664  0.4388 -0.4949  0.2305
  650MOL0     C89628   7.891   4.797   4.022  0.1342  0.1669 -0.2139
  650MOL0     C89629   7.794   4.830   4.117  0.1953 -0.2254  0.2820
  650MOL0     C89630   7.838   4.877   4.250 -0.7301  0.2758  0.3953
  650MOL0     H89631   7.162   4.898   4.126  2.4532  0.8537  0.1471
  650MOL0     H89632   6.983   4.847   4.285  0.8197  2.2721 -0.5985
  650MOL0     H89633   6.973   4.519   4.426  1.1180  0.7996 -0.1185
  650MOL0     H89634   6.874   4.655   4.375 -2.1102  0.1328  1.5986
  650MOL0     H89635   6.740   4.648   4.582 -0.4699 -0.2886  1.2007
  650MOL0     H89636   6.768   4.477   4.548 -0.5986  0.8133  0.2378
  650MOL0     H89637   6.914   4.652   4.753  0.4995  1.0200 -2.4448
  650MOL0     H89638   6.775   4.541   4.784 -1.7659  1.0519 -0.4658
  650MOL0     H89639   6.935   4.356   4.667  0.7887 -1.5894  1.1804
  650MOL0     H89640   7.058   4.485   4.668 -0.2625  0.5560 -0.5783
  650MOL0     H89641   7.082   4.319   4.842  1.4621  0.9446  2.2889
  650MOL0     H89642   6.918   4.352   4.909 -1.3449  1.0480  0.0075
  650MOL0     H89643   7.025   4.568   4.984  1.6493  1.0644  0.2728
  650MOL0     H89644   7.121   4.425   5.028 -1.6069  0.0050  1.0455
  650MOL0     H89645   7.166   4.618   4.802 -2.2785 -1.9958 -0.5745
  650MOL0     H89646   7.261   4.473   4.818 -0.9955 -0.0436 -1.6324
  650MOL0     H89647   7.238   4.712   5.022  0.5314  1.7786 -2.2193
  650MOL0     H89648   7.324   4.558   5.052  1.8205  2.0294  1.0935
  650MOL0     H89649   7.447   4.644   4.704 -2.5381  2.3252 -0.8147
  650MOL0     H89650   7.669   4.629   4.638  2.3103 -1.0362 -0.0330
  650MOL0     H89651   7.803   4.688   4.730  0.3710 -0.7766 -1.2140
  650MOL0     H89652   7.764   4.908   4.707 -2.5622 -0.9314  2.0937
  650MOL0     H89653   7.751   4.824   4.540 -2.3803 -0.2523 -0.7075
  650MOL0     H89654   7.501   4.852   4.556  2.3790 -0.4443 -1.9156
  650MOL0     H89655   7.514   4.932   4.714 -0.3181 -2.1797  0.1902
  650MOL0     H89656   7.665   5.040   4.475  2.4463  0.4989  1.6146
  650MOL0     H89657   7.495   5.076   4.495 -2.6019  1.0132  4.0395
  650MOL0     H89658   7.847   5.068   4.514 -1.4609  0.4674 -0.2812
  650MOL0     H89659   8.068   4.975   4.566 -1.5814  1.1060 -2.5694
  650MOL0     H89660   8.191   5.072   4.640  0.7571  1.1776 -0.9752
  650MOL0     H89661   8.125   5.115   4.475  0.6785  0.8802  0.3705
  650MOL0     H89662   8.407   5.216   4.887 -0.9309  0.9298  0.7469
  650MOL0     H89663   8.645   5.291   4.928 -0.9314 -0.6908  0.7643
  650MOL0     H89664   8.808   5.620   4.663  0.8591  1.5138 -0.8789
  650MOL0     H89665   8.748   5.665   4.818  1.8523  0.4519  0.4480
  650MOL0     H89666   8.984   5.729   4.817 -1.6379  0.3305 -1.0106
  650MOL0     H89667   8.970   5.592   4.927 -0.6915 -1.5382  0.6498
  650MOL0     H89668   9.032   5.555   4.641 -0.7184  1.6222 -0.1998
  650MOL0     H89669   9.043   5.425   4.766  0.3902  0.7250  0.6558
  650MOL0     H89670   9.234   5.514   4.853  0.2270  0.1662 -0.1520
  650MOL0     H89671   9.247   5.650   4.737 -0.7582 -0.2745  0.3760
  650MOL0     H89672   9.236   5.352   4.661 -0.8687 -0.0897 -1.3431
  650MOL0     H89673   9.262   5.496   4.562  1.0472 -0.4724 -1.1150
  650MOL0     H89674   9.451   5.392   4.789 -0.0943 -1.1069  0.2642
  650MOL0     H89675   9.482   5.526   4.690 -0.5225 -0.8936  2.2510
  650MOL0     H89676   9.429   5.372   4.488 -4.0542 -0.5508  1.7445
  650MOL0     H89677   9.409   5.242   4.596 -1.1756  1.0538  1.2559
  650MOL0     H89678   9.636   5.280   4.691  0.5321  2.9015  0.9706
  650MOL0     H89679   9.675   5.391   4.559 -3.7620  0.9111 -1.7782
  650MOL0     H89680   8.618   5.552   4.579  1.3247 -0.0862  1.2059
  650MOL0     H89681   8.375   5.490   4.551 -0.3187 -1.8191 -1.4156
  650MOL0     H89682   7.909   5.375   4.897 -0.6780 -2.0684  1.8074
  650MOL0     H89683   7.692   5.317   4.828  1.2734 -0.4895  0.5397
  650MOL0     H89684   7.248   4.594   4.516  2.2816  0.8685  0.5125
  650MOL0     H89685   7.438   4.654   4.361  1.0340  2.6645 -0.4651
  650MOL0     H89686   7.514   4.785   3.925  0.7878 -1.9529 -2.6099
  650MOL0     H89687   7.685   4.730   3.762 -4.2637  0.8773  0.5339
  650MOL0     H89688   8.145   4.702   3.872 -0.0327 -0.9445  2.8713
  650MOL0     H89689   8.035   4.587   3.945  1.1370  0.2091  0.8329
  650MOL0     H89690   8.085   4.586   3.641  0.3351 -0.8511  0.0830
  650MOL0     H89691   7.986   4.476   3.745 -0.0268 -1.2693  0.0646
  650MOL0     H89692   8.284   4.502   3.800 -0.2427  0.6863 -0.6120
  650MOL0     H89693   8.167   4.366   3.833 -1.0167  0.9183 -0.3292
  650MOL0     H89694   8.264   4.470   3.561  0.5501  0.0158  0.7463
  650MOL0     H89695   8.159   4.324   3.592  1.2283 -0.5099 -1.2584
  650MOL0     H89696   8.552   4.178   3.681  0.1946 -2.1133 -2.5643
  650MOL0     H89697   7.995   4.786   4.051  0.3812  0.0465 -1.0983
  650MOL0     H89698   7.845   4.786   4.311 -2.1706  0.4939  0.9182
  650MOL0     H89699   7.940   4.916   4.242  0.5122 -2.7055  0.2108
  650MOL0     H89700   7.769   4.950   4.292 -2.6265 -1.3845  0.3401
  651MOL0     O89701   0.425   2.988   7.415  0.5860  0.4094  0.0014
  651MOL0     C89702   0.508   2.905   7.373  0.4534  0.1562 -0.0503
  651MOL0     O89703   0.616   2.938   7.299 -0.7775 -0.3860 -0.6196
  651MOL0     C89704   0.635   3.072   7.254 -0.3602  0.5774  0.2312
  651MOL0     C89705   0.568   3.112   7.134 -0.0911  0.2917 -0.9476
  651MOL0     C89706   0.598   3.241   7.081  0.2032  0.8192 -0.1132
  651MOL0     C89707   0.705   3.322   7.130 -0.0386 -0.2997  0.4385
  651MOL0     O89708   0.749   3.446   7.075 -0.2536 -0.0354  0.0756
  651MOL0     C89709   0.639   3.533   7.025 -0.2294  1.0701  0.1376
  651MOL0     C89710   0.676   3.669   7.089 -0.1597  0.1472 -0.3132
  651MOL0     C89711   0.691   3.661   7.245  0.0147  0.0571  0.0847
  651MOL0     C89712   0.689   3.785   7.320 -0.3991  0.0534 -0.3621
  651MOL0     C89713   0.684   3.760   7.470  0.5419 -0.0948  0.7439
  651MOL0     C89714   0.679   3.884   7.552  0.4244 -0.3311 -0.1406
  651MOL0     C89715   0.688   3.866   7.699  0.5752  0.1060  0.3383
  651MOL0     C89716   0.562   3.783   7.752 -0.0002 -0.0654  0.0722
  651MOL0     N89717   0.569   3.780   7.900  0.5004  0.4456 -0.4803
  651MOL0     C89718   0.515   3.885   7.979  0.2700 -1.0553  0.3756
  651MOL0     C89719   0.530   3.833   8.104  0.7471 -0.5112  0.6508
  651MOL0     C89720   0.489   3.900   8.236 -0.0850 -0.0461 -0.3671
  651MOL0     C89721   0.581   4.023   8.268  0.3758 -0.2731 -0.1261
  651MOL0     C89722   0.732   3.988   8.271  0.3728  0.4652 -0.9993
  651MOL0     C89723   0.798   4.056   8.148 -0.2645  0.4719 -0.5704
  651MOL0     O89724   0.849   4.188   8.174  0.1914 -0.9149  0.0255
  651MOL0     C89725   0.941   4.239   8.083 -0.0402 -0.1699 -0.3738
  651MOL0     C89726   1.007   4.353   8.125 -0.1740 -0.5193 -0.3769
  651MOL0     C89727   1.115   4.419   8.054  0.7048  0.2778  0.7113
  651MOL0     C89728   1.191   4.523   8.120  0.1625 -0.2904 -0.6587
  651MOL0     C89729   1.170   4.356   7.943 -0.5530 -0.4094 -0.8068
  651MOL0     C89730   1.278   4.409   7.861 -0.3422 -0.7177  0.4818
  651MOL0     O89731   1.351   4.320   7.784  0.3255  0.4474 -0.5309
  651MOL0     C89732   1.466   4.368   7.727  0.0493  0.6804 -0.9957
  651MOL0     C89733   1.587   4.354   7.799 -0.5697 -0.2215 -0.5853
  651MOL0     C89734   1.701   4.414   7.751  0.7940 -0.1903  0.9182
  651MOL0     C89735   1.704   4.487   7.630  0.6711  0.0978  0.0022
  651MOL0     O89736   1.810   4.552   7.574  0.6465  0.4624 -0.1752
  651MOL0     C89737   1.934   4.556   7.653  0.2262 -0.8092 -0.0207
  651MOL0     C89738   2.027   4.636   7.553 -0.2114 -0.4061  1.1498
  651MOL0     C89739   2.151   4.663   7.624 -0.7801 -0.5539  0.0343
  651MOL0     C89740   2.253   4.745   7.529 -0.0658 -0.3349 -0.8694
  651MOL0     C89741   2.372   4.771   7.617 -0.1122 -0.0704  0.0284
  651MOL0     C89742   2.489   4.821   7.538  0.1492  0.2599  0.3272
  651MOL0     C89743   2.616   4.846   7.615  0.5797  0.6469 -0.3425
  651MOL0     C89744   2.734   4.878   7.524  0.8585  0.4802  0.5789
  651MOL0    Cl89745   2.881   4.852   7.621 -0.0243  0.2625 -0.2729
  651MOL0     C89746   1.587   4.497   7.556  1.0856  0.0007  0.8047
  651MOL0     C89747   1.463   4.442   7.604  0.3122  0.3162  0.3066
  651MOL0     O89748   1.303   4.528   7.856  0.8109 -0.5800  0.5582
  651MOL0     C89749   1.102   4.243   7.899 -0.3150 -0.3451  1.1551
  651MOL0     C89750   0.993   4.186   7.964  1.0218  0.4982 -0.3625
  651MOL0     N89751   0.564   3.697   8.089  0.0363 -0.1264 -0.4065
  651MOL0     N89752   0.583   3.666   7.963  0.1236  0.8846 -0.2607
  651MOL0     C89753   0.771   3.276   7.246 -1.0294 -0.1714 -0.4789
  651MOL0     C89754   0.730   3.159   7.313  0.4942  0.8068  0.4017
  651MOL0     C89755   0.483   2.765   7.421  0.6591  0.7046  0.1310
  651MOL0     C89756   0.351   2.736   7.477 -0.6115 -0.2986 -0.0275
  651MOL0     C89757   0.324   2.607   7.523 -0.0130  0.1534 -0.2917
  651MOL0     C89758   0.409   2.500   7.506 -0.5182  0.2506  0.2673
  651MOL0     O89759   0.371   2.373   7.546  0.3400  0.0512 -0.0025
  651MOL0     C89760   0.439   2.333   7.665 -0.6558 -0.5475 -0.0344
  651MOL0     C89761   0.416   2.190   7.711 -0.7328 -0.4230 -0.2507
  651MOL0     C89762   0.256   2.176   7.710 -0.8785  0.2528  0.5172
  651MOL0     C89763   0.214   2.039   7.764  0.4664 -0.5608 -0.1085
  651MOL0     C89764   0.070   2.024   7.740 -1.0192 -0.3846 -0.4403
  651MOL0     C89765  -0.041   1.992   7.705 -0.3830 -0.1817 -0.0208
  651MOL0     C89766   0.534   2.532   7.456 -0.9013 -0.1829 -0.0742
  651MOL0     C89767   0.572   2.653   7.404  0.6198 -0.6190 -0.2432
  651MOL0     C89768   0.712   2.658   7.343 -0.2139 -0.3457  0.1245
  651MOL0     H89769   0.511   3.043   7.074 -0.0559 -0.4550 -0.1402
  651MOL0     H89770   0.558   3.277   6.987 -2.8434 -2.1467 -0.1404
  651MOL0     H89771   0.546   3.494   7.066  1.7932 -0.4100  3.7446
  651MOL0     H89772   0.627   3.533   6.916 -3.3129 -2.7483  0.2570
  651MOL0     H89773   0.758   3.715   7.033 -0.6923  1.1626 -0.2949
  651MOL0     H89774   0.590   3.736   7.079  0.3557  0.7787 -0.6600
  651MOL0     H89775   0.606   3.599   7.273  0.0242 -0.0159 -0.0473
  651MOL0     H89776   0.781   3.601   7.263  1.1376  0.9887 -1.9464
  651MOL0     H89777   0.770   3.853   7.295 -1.5578  2.2865  1.5941
  651MOL0     H89778   0.597   3.838   7.295 -0.4624 -0.6424 -1.7003
  651MOL0     H89779   0.774   3.706   7.500  1.8376  0.9830 -1.0133
  651MOL0     H89780   0.600   3.692   7.491  0.1170  0.0839 -0.3142
  651MOL0     H89781   0.769   3.945   7.544 -0.8787  1.3948 -3.1003
  651MOL0     H89782   0.590   3.943   7.529 -1.3745 -1.1017  3.9622
  651MOL0     H89783   0.678   3.965   7.746  0.9276  0.2236  0.1686
  651MOL0     H89784   0.787   3.823   7.717  1.2139  0.6234 -1.6666
  651MOL0     H89785   0.474   3.836   7.715  1.3215  2.4879  0.3361
  651MOL0     H89786   0.556   3.685   7.704  1.2387  1.1194 -2.7227
  651MOL0     H89787   0.473   3.983   7.958 -0.0293 -0.8491  1.8360
  651MOL0     H89788   0.490   3.824   8.314  0.9601  2.7213  2.5412
  651MOL0     H89789   0.382   3.921   8.219 -0.9136 -3.9524 -0.9120
  651MOL0     H89790   0.561   4.113   8.208 -0.5862  1.3930  2.5270
  651MOL0     H89791   0.555   4.059   8.368  2.1123 -1.0993  0.6602
  651MOL0     H89792   0.789   4.019   8.359  0.3046  1.2972 -1.2394
  651MOL0     H89793   0.738   3.880   8.255 -1.1068  0.6340 -3.2476
  651MOL0     H89794   0.887   3.996   8.127 -0.1053  0.6259 -0.3340
  651MOL0     H89795   0.739   4.056   8.055 -0.1666  1.1209 -0.6378
  651MOL0     H89796   0.965   4.401   8.213 -0.5942 -0.7489 -0.4496
  651MOL0     H89797   1.179   4.614   8.060 -0.3053  0.3279  0.3564
  651MOL0     H89798   1.296   4.490   8.123 -0.1381 -1.3671  3.8653
  651MOL0     H89799   1.148   4.553   8.216  0.1314 -1.2361 -0.3681
  651MOL0     H89800   1.586   4.296   7.890 -0.1426 -1.2533 -1.2174
  651MOL0     H89801   1.788   4.387   7.810  1.2002 -0.8661  0.0358
  651MOL0     H89802   1.914   4.612   7.745 -1.4340  0.8170 -1.2908
  651MOL0     H89803   1.972   4.454   7.665  0.6937 -0.8141 -1.3088
  651MOL0     H89804   2.045   4.581   7.461 -1.1916 -0.2797  0.8690
  651MOL0     H89805   1.975   4.728   7.527 -1.9957 -1.9656 -1.2495
  651MOL0     H89806   2.196   4.567   7.651 -1.6776 -1.7711 -2.4955
  651MOL0     H89807   2.135   4.709   7.722 -1.0763  0.4562 -0.4715
  651MOL0     H89808   2.216   4.845   7.504  0.3332  0.6989  2.2771
  651MOL0     H89809   2.278   4.689   7.438  0.4147 -1.2572 -0.1836
  651MOL0     H89810   2.348   4.839   7.699  3.1426  1.2357  0.0561
  651MOL0     H89811   2.391   4.678   7.671 -2.6119 -0.8432 -0.2883
  651MOL0     H89812   2.453   4.905   7.477 -1.6926  1.8123  3.2689
  651MOL0     H89813   2.505   4.744   7.462  1.6448  0.8219  0.0394
  651MOL0     H89814   2.645   4.750   7.657  2.2854  0.5306 -1.6360
  651MOL0     H89815   2.608   4.926   7.689  4.4233  2.3045 -1.4642
  651MOL0     H89816   2.730   4.979   7.482  0.3407 -0.3321 -1.4571
  651MOL0     H89817   2.728   4.819   7.432 -0.7607  1.8668 -0.2774
  651MOL0     H89818   1.596   4.553   7.464 -5.1330  2.2781  1.1066
  651MOL0     H89819   1.367   4.445   7.552 -0.2247 -0.9912  1.1788
  651MOL0     H89820   1.138   4.204   7.804  1.7940  1.3294  1.1916
  651MOL0     H89821   0.947   4.098   7.920 -1.4653  1.9872 -0.9066
  651MOL0     H89822   0.846   3.338   7.294 -1.8465 -0.7865  1.7123
  651MOL0     H89823   0.768   3.132   7.411  0.7803 -0.0530  0.0684
  651MOL0     H89824   0.268   2.804   7.496 -1.1017 -1.4416  2.2235
  651MOL0     H89825   0.229   2.574   7.564 -1.0208  2.7856 -0.2891
  651MOL0     H89826   0.545   2.348   7.646 -0.9630 -0.1934 -1.6773
  651MOL0     H89827   0.417   2.408   7.741  0.2028 -0.6954  0.3634
  651MOL0     H89828   0.456   2.186   7.813 -1.1578 -0.0577 -0.0679
  651MOL0     H89829   0.463   2.110   7.653 -1.2834 -2.3343  1.7972
  651MOL0     H89830   0.216   2.258   7.769 -0.4004 -0.7119  2.2426
  651MOL0     H89831   0.209   2.169   7.611 -3.8393  0.9866  1.7509
  651MOL0     H89832   0.228   2.038   7.873 -2.1720  0.6573  0.3187
  651MOL0     H89833   0.270   1.958   7.717 -1.7031 -1.0376 -2.0550
  651MOL0     H89834  -0.142   1.969   7.680 -0.7327  2.8182 -1.8931
  651MOL0     H89835   0.597   2.445   7.440 -0.7166  0.1575 -1.2806
  651MOL0     H89836   0.747   2.555   7.333 -4.1632 -1.8944  0.4947
  651MOL0     H89837   0.699   2.697   7.242 -1.7667 -2.0969 -0.4090
  651MOL0     H89838   0.783   2.722   7.397 -0.6612  2.7236 -2.6439
  652MOL0     O89839   9.463   5.978   9.851 -0.0244 -0.0576  0.2666
  652MOL0     C89840   9.472   6.093   9.880  0.2405  0.1946  0.0783
  652MOL0     O89841   9.369   6.179   9.896 -0.0467 -0.4453  0.3998
  652MOL0     C89842   9.233   6.154   9.902 -0.6047  0.6477 -0.0561
  652MOL0     C89843   9.176   6.029   9.887 -0.2957  0.2639  0.1130
  652MOL0     C89844   9.032   6.019   9.879 -0.1029 -0.4711  0.4181
  652MOL0     C89845   8.957   6.138   9.909  0.1110  0.4585  0.5256
  652MOL0     O89846   8.826   6.109   9.921 -0.5353  0.0215  0.0683
  652MOL0     C89847   8.740   6.210   9.865 -0.0691 -0.7095 -0.4223
  652MOL0     C89848   8.595   6.167   9.879  0.8405  0.3409  0.1921
  652MOL0     C89849   8.501   6.281   9.837  0.3600  0.5275 -0.1041
  652MOL0     C89850   8.365   6.241   9.871  0.2802 -1.0755 -1.1350
  652MOL0     C89851   8.272   6.363   9.837  0.0112  0.0431 -0.4519
  652MOL0     C89852   8.131   6.309   9.869  0.0506 -0.2300 -0.2654
  652MOL0     C89853   8.027   6.415   9.838  0.6976  0.2545 -0.1036
  652MOL0     C89854   7.885   6.345   9.848  0.9836 -1.0228 -0.8638
  652MOL0     N89855   7.849   6.250   9.751  0.6805 -0.4125  0.8817
  652MOL0     C89856   7.825   6.276   9.618  0.2459 -0.0391  0.3625
  652MOL0     C89857   7.797   6.161   9.550  0.0777  0.7560  0.2373
  652MOL0     C89858   7.757   6.122   9.411  0.6941  1.1695  0.2085
  652MOL0     C89859   7.878   6.125   9.311 -0.3734 -0.6340 -0.6077
  652MOL0     C89860   7.980   6.005   9.330 -0.0508 -0.2886  0.2827
  652MOL0     C89861   7.907   5.873   9.349  0.3742 -0.2944 -0.2695
  652MOL0     O89862   8.004   5.770   9.340  0.1549 -0.2505 -0.1183
  652MOL0     C89863   8.093   5.751   9.442 -0.3676 -0.2249 -1.1534
  652MOL0     C89864   8.088   5.819   9.566 -0.6687 -0.4005  0.6547
  652MOL0     C89865   8.181   5.797   9.666 -0.4236 -0.1453  0.4100
  652MOL0     C89866   8.165   5.888   9.785 -0.2939  0.0926  0.4346
  652MOL0     C89867   8.293   5.708   9.646  0.4503 -0.0864  0.1494
  652MOL0     C89868   8.404   5.684   9.749 -0.6151 -0.1681  0.2513
  652MOL0     O89869   8.506   5.594   9.713  0.8608  0.1750 -0.1298
  652MOL0     C89870   8.619   5.573   9.786 -0.2804  0.5874 -0.5893
  652MOL0     C89871   8.680   5.673   9.860 -0.0365  0.4117 -1.0511
  652MOL0     C89872   8.804   5.635   9.924  0.6704  0.0240 -0.5632
  652MOL0     C89873   8.868   5.510   9.929 -0.4056 -0.1739  0.1859
  652MOL0     O89874   8.990   5.476  10.000  0.9364  0.4827  0.2167
  652MOL0     C89875   9.085   5.580  10.009 -0.4916  0.3070 -0.1087
  652MOL0     C89876   9.222   5.521   9.978 -0.2421 -0.0664  0.4578
  652MOL0     C89877   9.315   5.631  10.012  0.2516 -0.7256 -0.3426
  652MOL0     C89878   9.465   5.590  10.008  0.4928 -0.6169  0.5857
  652MOL0     C89879   9.552   5.711  10.051  0.1016 -0.0533 -0.6899
  652MOL0     C89880   9.689   5.671  10.093 -0.2580 -0.1953 -0.2511
  652MOL0     C89881   9.772   5.600   9.990 -0.2406  0.5942  0.2890
  652MOL0     C89882   9.916   5.577  10.033  0.6431  0.5078 -0.1981
  652MOL0    Cl89883  10.021   5.715  10.052 -0.0281 -0.5925 -0.0509
  652MOL0     C89884   8.805   5.418   9.845  0.0001 -0.0350  0.0210
  652MOL0     C89885   8.683   5.445   9.771 -0.8981  0.2498  0.5802
  652MOL0     O89886   8.387   5.733   9.862 -0.2624  0.0593 -0.2533
  652MOL0     C89887   8.294   5.636   9.523 -0.0132  0.4021  0.5736
  652MOL0     C89888   8.197   5.664   9.422  0.2444  0.4237 -0.1951
  652MOL0     N89889   7.802   6.070   9.654 -0.2831 -0.1556 -0.2533
  652MOL0     N89890   7.837   6.118   9.766  0.2146 -0.1879 -0.3360
  652MOL0     C89891   9.024   6.263   9.925 -0.3187  0.5723 -0.6268
  652MOL0     C89892   9.162   6.271   9.912  1.0018 -0.3609  0.6451
  652MOL0     C89893   9.613   6.138   9.900 -0.0420 -0.5096  0.4273
  652MOL0     C89894   9.717   6.053   9.930  0.0749 -0.0740  0.7354
  652MOL0     C89895   9.851   6.097   9.937  0.5594 -0.3247 -0.4472
  652MOL0     C89896   9.888   6.229   9.912  0.5516  0.8304 -0.0835
  652MOL0     O89897  10.015   6.265   9.921  0.5354  0.2219 -0.5215
  652MOL0     C89898  10.063   6.396   9.883  0.0856 -0.1592  0.2184
  652MOL0     C89899  10.223   6.414   9.874  0.4660  0.0255  0.1790
  652MOL0     C89900  10.282   6.404  10.016  0.7764 -0.7674 -0.0325
  652MOL0     C89901  10.432   6.438  10.032 -0.8257  0.4337 -0.0651
  652MOL0     C89902  10.467   6.573   9.995 -0.7262 -0.5137  0.8015
  652MOL0     C89903  10.510   6.684   9.966  0.0224  0.1820  0.4909
  652MOL0     C89904   9.784   6.311   9.888  0.9512 -0.1232  0.4740
  652MOL0     C89905   9.645   6.272   9.876  0.0482  0.1111 -0.8975
  652MOL0     C89906   9.547   6.396   9.855 -0.7722 -0.4674 -0.2756
  652MOL0     H89907   9.231   5.938   9.869 -1.6264 -1.1167  2.4553
  652MOL0     H89908   8.971   5.931   9.863  1.1483 -1.2808 -0.0059
  652MOL0     H89909   8.751   6.235   9.759 -0.5675 -3.4881 -1.1959
  652MOL0     H89910   8.753   6.305   9.919  2.9023  0.2101 -2.5271
  652MOL0     H89911   8.570   6.081   9.816 -2.1507 -0.1629  1.8857
  652MOL0     H89912   8.566   6.145   9.982 -3.5604  0.2805 -0.8629
  652MOL0     H89913   8.522   6.378   9.882  1.5902 -0.7309  2.1905
  652MOL0     H89914   8.495   6.294   9.728 -2.2066  0.9590  0.0170
  652MOL0     H89915   8.340   6.154   9.810 -0.5320 -1.3142 -0.4752
  652MOL0     H89916   8.351   6.212   9.975  4.1847 -2.2579 -0.7778
  652MOL0     H89917   8.291   6.390   9.733 -0.8624  1.9564 -0.1535
  652MOL0     H89918   8.286   6.456   9.892 -1.4344 -0.6464  1.1943
  652MOL0     H89919   8.112   6.221   9.806  1.0694  1.1222 -2.5926
  652MOL0     H89920   8.130   6.284   9.975  0.2734  0.5194 -0.0876
  652MOL0     H89921   8.024   6.449   9.734 -0.2245 -2.4527 -1.0613
  652MOL0     H89922   8.032   6.504   9.902  1.8777  0.3919 -0.3741
  652MOL0     H89923   7.868   6.301   9.947  0.8238  2.2168  0.6784
  652MOL0     H89924   7.819   6.432   9.848  1.7462 -0.0078  5.3447
  652MOL0     H89925   7.837   6.376   9.577  0.7436 -0.1653  0.1927
  652MOL0     H89926   7.678   6.193   9.385 -3.2920 -2.2920  1.7809
  652MOL0     H89927   7.700   6.031   9.428  0.8720  0.9036 -0.5917
  652MOL0     H89928   7.849   6.142   9.207  0.2939 -0.5013 -0.7712
  652MOL0     H89929   7.931   6.215   9.341 -0.5187 -0.7189 -0.0801
  652MOL0     H89930   8.037   5.989   9.238  2.1859 -3.4491  2.0183
  652MOL0     H89931   8.032   6.024   9.425 -0.1862 -2.3925  0.8347
  652MOL0     H89932   7.849   5.848   9.438 -0.5449 -1.2610 -1.1123
  652MOL0     H89933   7.831   5.865   9.271  0.5546 -1.3464 -0.3564
  652MOL0     H89934   8.013   5.895   9.585  0.8905  2.1130 -2.3306
  652MOL0     H89935   8.130   5.823   9.865  1.2734  0.5048  1.5124
  652MOL0     H89936   8.087   5.965   9.782 -0.8954 -0.5366 -0.0216
  652MOL0     H89937   8.257   5.939   9.818 -1.3291  1.4902  1.2454
  652MOL0     H89938   8.643   5.775   9.853  1.8114  1.3525  1.6281
  652MOL0     H89939   8.858   5.704   9.988  3.3453 -0.5868 -2.0272
  652MOL0     H89940   9.071   5.665   9.942 -1.0778  1.6799  1.6775
  652MOL0     H89941   9.077   5.604  10.116 -2.3684 -0.2301 -0.0992
  652MOL0     H89942   9.237   5.434  10.042  1.7549  0.9807  1.5116
  652MOL0     H89943   9.231   5.510   9.870 -2.5573  0.8761  0.1124
  652MOL0     H89944   9.296   5.657  10.116  0.1521 -2.2520  0.0552
  652MOL0     H89945   9.303   5.714   9.943 -3.6032 -0.7480  0.0840
  652MOL0     H89946   9.502   5.571   9.907  1.9715  2.6005  0.3921
  652MOL0     H89947   9.476   5.500  10.070 -1.2735 -1.7363 -0.6638
  652MOL0     H89948   9.546   5.785   9.971  0.3264 -1.3810 -1.9578
  652MOL0     H89949   9.502   5.742  10.144 -0.7146 -4.4435  0.5669
  652MOL0     H89950   9.677   5.604  10.178 -0.3641 -1.3241 -1.1341
  652MOL0     H89951   9.734   5.766  10.125 -0.3309 -0.7825  1.7317
  652MOL0     H89952   9.768   5.664   9.902  3.9924  1.2516  0.3844
  652MOL0     H89953   9.727   5.509   9.950  1.0755 -0.5318  1.2726
  652MOL0     H89954   9.960   5.521   9.950  0.7428 -1.5470  1.1775
  652MOL0     H89955   9.924   5.504  10.114  0.0809  2.0398  1.3034
  652MOL0     H89956   8.861   5.326   9.828  1.2448  0.8379 -0.8937
  652MOL0     H89957   8.646   5.364   9.709  1.2690 -1.4527  1.4003
  652MOL0     H89958   8.379   5.569   9.513 -0.1984 -0.0721  1.9643
  652MOL0     H89959   8.202   5.621   9.322  0.5476 -2.0941  0.8182
  652MOL0     H89960   8.965   6.352   9.944 -0.9950  0.2851 -1.3248
  652MOL0     H89961   9.204   6.369   9.927  0.4662 -0.3121  1.8830
  652MOL0     H89962   9.708   5.946   9.948  0.5254 -0.2625 -0.1069
  652MOL0     H89963   9.925   6.021   9.961 -2.0815 -2.9744 -0.0447
  652MOL0     H89964  10.013   6.418   9.788  1.4046  0.8558 -0.2703
  652MOL0     H89965  10.022   6.463   9.959  0.7552  1.6625 -0.9626
  652MOL0     H89966  10.247   6.514   9.837  2.6201  0.9431  3.6139
  652MOL0     H89967  10.261   6.339   9.804 -1.9874  0.1968 -1.4489
  652MOL0     H89968  10.228   6.478  10.077  2.0862 -0.2804  0.5719
  652MOL0     H89969  10.260   6.306  10.060 -2.7251 -0.0728  0.0641
  652MOL0     H89970  10.492   6.372   9.969  1.1634  2.2157 -0.1274
  652MOL0     H89971  10.465   6.424  10.135 -0.2233 -0.9255 -0.4124
  652MOL0     H89972  10.555   6.778   9.940  0.0967 -0.3453 -1.4430
  652MOL0     H89973   9.788   6.419   9.875 -2.8520  0.2162  0.8528
  652MOL0     H89974   9.467   6.373   9.784 -0.0294  1.0903 -1.6662
  652MOL0     H89975   9.506   6.439   9.946 -1.3627  0.3248 -0.9112
  652MOL0     H89976   9.608   6.470   9.803 -3.4456  0.9026 -1.6634
  653MOL0     O89977   6.267  10.986   1.561  0.0154  0.0393  0.0932
  653MOL0     C89978   6.144  10.971   1.577 -0.4531 -0.4164 -0.2866
  653MOL0     O89979   6.054  10.947   1.476  0.5490 -0.1025  0.2853
  653MOL0     C89980   6.073  10.867   1.366 -0.1042  0.9856 -0.2545
  653MOL0     C89981   6.165  10.769   1.362 -0.5510 -0.1502  0.4351
  653MOL0     C89982   6.179  10.698   1.241  0.7955  0.6318 -0.0390
  653MOL0     C89983   6.103  10.732   1.128  0.5590 -0.2829  0.4323
  653MOL0     O89984   6.110  10.641   1.017  0.4610  0.5310 -0.0496
  653MOL0     C89985   6.077  10.502   1.035 -0.2630  0.4140  0.2570
  653MOL0     C89986   6.142  10.420   0.922 -0.4837  0.4391 -0.2309
  653MOL0     C89987   6.293  10.408   0.952  0.3197  0.5176 -0.0199
  653MOL0     C89988   6.368  10.401   0.819  0.1706 -1.1985  0.7891
  653MOL0     C89989   6.503  10.340   0.831 -0.0872 -0.3045 -0.0570
  653MOL0     C89990   6.577  10.337   0.693  0.4991  1.4792 -0.1089
  653MOL0     C89991   6.712  10.271   0.708 -0.1507 -0.2235 -0.7157
  653MOL0     C89992   6.807  10.290   0.589  0.3705  0.8222 -0.5711
  653MOL0     N89993   6.931  10.199   0.599 -0.7429 -0.6485 -0.2415
  653MOL0     C89994   7.055  10.240   0.642  1.0997 -0.0415  0.3799
  653MOL0     C89995   7.130  10.129   0.630  0.1685  0.1139 -1.4990
  653MOL0     C89996   7.280  10.114   0.660  0.7837  0.1432  0.2724
  653MOL0     C89997   7.349  10.105   0.536  0.6504 -0.6108  0.9845
  653MOL0     C89998   7.353  10.239   0.462 -0.2138 -0.1196 -0.4637
  653MOL0     C89999   7.435  10.234   0.331  0.3027  0.5464  0.7012
  653MOL0     O90000   7.571  10.210   0.359 -0.8200 -0.1153  0.2118
  653MOL0     C90001   7.660  10.315   0.348 -0.9389  0.6871  0.4174
  653MOL0     C90002   7.782  10.284   0.277  0.2889  0.4493 -0.2547
  653MOL0     C90003   7.881  10.378   0.264  0.7920 -0.2483  0.0663
  653MOL0     C90004   8.007  10.343   0.187  0.5041 -0.2927 -0.6889
  653MOL0     C90005   7.869  10.506   0.322  0.4323  0.7703 -0.6419
  653MOL0     C90006   7.981  10.606   0.322 -1.0708 -0.2934 -0.8755
  653MOL0     O90007   8.048  10.637   0.205 -0.5439  0.0747  0.2998
  653MOL0     C90008   8.141  10.745   0.211  0.4755  0.3649  0.1516
  653MOL0     C90009   8.280  10.725   0.232 -0.1103  0.1725  0.7057
  653MOL0     C90010   8.370  10.830   0.237 -0.2036 -0.5708  0.2909
  653MOL0     C90011   8.325  10.958   0.207 -0.2601 -0.3604 -0.1097
  653MOL0     O90012   8.403  11.073   0.202  0.2675  0.2362 -0.2684
  653MOL0     C90013   8.431  11.119   0.345  1.1231 -0.8058  0.1104
  653MOL0     C90014   8.517  11.246   0.347  0.3091  0.4596  0.5424
  653MOL0     C90015   8.563  11.272   0.493 -0.5674 -0.8624 -0.2986
  653MOL0     C90016   8.642  11.404   0.479  0.1808 -0.1454 -0.1171
  653MOL0     C90017   8.722  11.414   0.614 -0.1282 -0.3669  0.1700
  653MOL0     C90018   8.788  11.556   0.635 -0.7835  1.1063  0.0089
  653MOL0     C90019   8.882  11.610   0.522 -0.8007 -0.2544  0.4502
  653MOL0     C90020   9.012  11.526   0.514 -0.0597  0.0159  0.2891
  653MOL0    Cl90021   9.111  11.592   0.376 -0.3721 -0.0263 -0.0502
  653MOL0     C90022   8.191  10.975   0.181 -0.9314  0.4925 -0.3872
  653MOL0     C90023   8.103  10.868   0.178  0.1763 -0.1029 -0.4769
  653MOL0     O90024   8.002  10.664   0.430  0.6353 -0.5747 -0.1980
  653MOL0     C90025   7.741  10.544   0.372  0.0068  0.3487  1.0417
  653MOL0     C90026   7.639  10.449   0.382  0.6762  0.9807 -0.7033
  653MOL0     N90027   7.049  10.021   0.606 -0.0342 -1.0661 -0.6950
  653MOL0     N90028   6.928  10.068   0.582 -0.4799 -0.0278  0.0258
  653MOL0     C90029   6.007  10.836   1.131 -0.7071  0.1080 -0.4380
  653MOL0     C90030   5.999  10.912   1.255  0.2110 -0.3796 -0.9049
  653MOL0     C90031   6.079  10.992   1.704  0.1440 -0.3412 -1.3484
  653MOL0     C90032   5.939  11.040   1.694 -0.6169  0.3272  0.2164
  653MOL0     C90033   5.860  11.049   1.816 -0.1953  0.8506 -0.0173
  653MOL0     C90034   5.921  11.020   1.940 -0.0931  0.3703 -0.2827
  653MOL0     O90035   5.846  11.018   2.061  0.0045 -0.3028  0.7064
  653MOL0     C90036   5.698  11.036   2.066 -0.4069  1.3368  0.4605
  653MOL0     C90037   5.671  11.059   2.212 -0.3182 -0.0820 -0.5549
  653MOL0     C90038   5.521  11.063   2.231 -0.7381  0.8619 -0.6357
  653MOL0     C90039   5.473  11.040   2.376 -0.2420 -0.0305 -0.3604
  653MOL0     C90040   5.501  11.154   2.469 -0.2369  0.4623 -0.2299
  653MOL0     C90041   5.539  11.235   2.550  0.4170  0.4382  0.0914
  653MOL0     C90042   6.048  10.977   1.950 -0.1336 -0.4617  0.4195
  653MOL0     C90043   6.139  10.970   1.832  0.2764  0.4314 -0.4107
  653MOL0     C90044   6.289  10.934   1.855  0.6397 -0.0604  0.3310
  653MOL0     H90045   6.231  10.734   1.441  1.6163  1.9068 -0.3423
  653MOL0     H90046   6.253  10.619   1.240 -0.6875 -0.9354  2.6353
  653MOL0     H90047   5.970  10.481   1.042  0.4230 -3.1469  2.0247
  653MOL0     H90048   6.121  10.467   1.128  1.9424  0.0029 -0.8596
  653MOL0     H90049   6.092  10.325   0.905 -0.9113  0.8895 -1.6428
  653MOL0     H90050   6.123  10.467   0.825 -0.5311 -0.5642 -0.7112
  653MOL0     H90051   6.344  10.483   1.012  2.0429  0.2394 -1.0672
  653MOL0     H90052   6.316  10.308   0.991  3.1983  1.2204  0.2777
  653MOL0     H90053   6.310  10.347   0.744  0.1942 -0.7132  0.4137
  653MOL0     H90054   6.378  10.503   0.782 -0.7874 -1.8342 -1.3741
  653MOL0     H90055   6.494  10.235   0.860 -2.4811  0.1038  0.9436
  653MOL0     H90056   6.564  10.397   0.900  0.5202  1.2613 -1.8013
  653MOL0     H90057   6.524  10.273   0.622  3.5915 -0.7491 -0.6455
  653MOL0     H90058   6.591  10.437   0.651  0.3400  1.5744  0.0642
  653MOL0     H90059   6.701  10.164   0.728  1.8321 -0.9801 -3.0965
  653MOL0     H90060   6.761  10.312   0.797 -0.1987 -2.9883  0.6834
  653MOL0     H90061   6.760  10.245   0.502  1.8836  0.6347 -1.3039
  653MOL0     H90062   6.842  10.394   0.588  3.7975 -0.1004  2.5644
  653MOL0     H90063   7.094  10.338   0.667  2.0100 -0.5147  0.8701
  653MOL0     H90064   7.299  10.018   0.707 -1.2077  0.1269  1.1282
  653MOL0     H90065   7.325  10.190   0.724  1.8138  0.7939 -1.1699
  653MOL0     H90066   7.453  10.074   0.551  1.5080  1.7869  0.3757
  653MOL0     H90067   7.300  10.034   0.469 -1.4921  3.0341 -1.6322
  653MOL0     H90068   7.259  10.286   0.430  0.6398  2.3304  0.4038
  653MOL0     H90069   7.384  10.313   0.536  1.5457 -0.8574 -0.4349
  653MOL0     H90070   7.393  10.159   0.264 -0.7746  1.7518 -0.0421
  653MOL0     H90071   7.433  10.331   0.279  0.3464 -1.0680 -2.5909
  653MOL0     H90072   7.786  10.180   0.247  0.9316 -0.0824  1.5469
  653MOL0     H90073   8.096  10.366   0.246 -0.2481  1.6760 -0.2446
  653MOL0     H90074   8.008  10.414   0.104 -2.5077  2.3939  1.3320
  653MOL0     H90075   8.016  10.248   0.134 -1.1801 -0.4414 -0.7636
  653MOL0     H90076   8.311  10.622   0.247  2.5342  0.5560 -1.3851
  653MOL0     H90077   8.471  10.800   0.266  0.9159 -0.3677 -2.9706
  653MOL0     H90078   8.334  11.148   0.386  2.3053  3.6105  0.2561
  653MOL0     H90079   8.460  11.034   0.407 -1.6048 -1.0988  1.1433
  653MOL0     H90080   8.599  11.241   0.275  0.9310  0.7320  1.2110
  653MOL0     H90081   8.452  11.322   0.304  0.1701  0.0510  0.0291
  653MOL0     H90082   8.626  11.192   0.533 -0.3630 -0.2081  0.7356
  653MOL0     H90083   8.484  11.285   0.567 -2.0164  2.0969 -2.1539
  653MOL0     H90084   8.573  11.485   0.452 -1.7795 -1.8684 -0.5127
  653MOL0     H90085   8.710  11.387   0.396  1.4035 -1.4308  1.0861
  653MOL0     H90086   8.656  11.398   0.699  1.5280 -3.6117  1.0081
  653MOL0     H90087   8.799  11.337   0.603  1.2782  1.2567 -2.7082
  653MOL0     H90088   8.849  11.540   0.724  0.0258 -2.6894 -1.0303
  653MOL0     H90089   8.706  11.627   0.648 -1.4575  0.5026 -0.8338
  653MOL0     H90090   8.914  11.714   0.532  4.0692 -1.6375  2.4702
  653MOL0     H90091   8.833  11.597   0.426  1.6320 -1.4631 -0.7079
  653MOL0     H90092   8.999  11.418   0.499  1.9479 -0.4471  1.5641
  653MOL0     H90093   9.064  11.541   0.609  2.1360 -0.1682 -0.8441
  653MOL0     H90094   8.144  11.067   0.149  0.6189  0.8597 -1.7081
  653MOL0     H90095   8.001  10.890   0.147 -0.4100 -2.1689 -0.1510
  653MOL0     H90096   7.724  10.643   0.411 -0.7092  1.3731 -1.6397
  653MOL0     H90097   7.542  10.473   0.422  0.3330  0.7773 -1.3849
  653MOL0     H90098   5.941  10.868   1.051 -1.7239  0.2289  0.4302
  653MOL0     H90099   5.929  10.994   1.264  1.3475  0.5565 -0.3427
  653MOL0     H90100   5.893  11.070   1.601 -2.3944 -0.0399  0.9333
  653MOL0     H90101   5.753  11.067   1.812 -0.2985  0.2980  0.1298
  653MOL0     H90102   5.663  11.123   2.010 -3.4760 -0.3411 -0.4661
  653MOL0     H90103   5.661  10.941   2.026  0.2736 -0.2266  3.3008
  653MOL0     H90104   5.723  11.151   2.242  1.2382 -0.4596 -1.9246
  653MOL0     H90105   5.718  10.977   2.267  1.5370  0.3825 -1.3573
  653MOL0     H90106   5.470  11.156   2.203 -2.5234 -0.1075 -0.7497
  653MOL0     H90107   5.485  10.981   2.169  1.4528 -0.8281  0.2107
  653MOL0     H90108   5.512  10.947   2.419 -0.5503 -0.3733 -0.8096
  653MOL0     H90109   5.364  11.032   2.363 -0.2834  2.4846 -2.3010
  653MOL0     H90110   5.582  11.311   2.614 -1.2779  1.2499  0.3268
  653MOL0     H90111   6.083  10.951   2.050  2.5835 -0.0654 -0.3637
  653MOL0     H90112   6.355  10.984   1.784  1.3687 -0.2495  0.8656
  653MOL0     H90113   6.323  10.967   1.953 -0.2426 -0.6668  0.8552
  653MOL0     H90114   6.300  10.826   1.840 -0.9517 -0.4177  1.4340
  654MOL0     O90115   4.083   7.672   2.274 -0.2245 -0.9530 -0.0245
  654MOL0     C90116   4.065   7.553   2.250 -0.0809 -0.7308  0.1999
  654MOL0     O90117   4.164   7.466   2.215 -0.9744 -0.2006  0.3776
  654MOL0     C90118   4.279   7.530   2.164  0.5370 -0.3061  0.0156
  654MOL0     C90119   4.387   7.571   2.239 -0.4264 -0.4946 -0.3199
  654MOL0     C90120   4.500   7.635   2.180 -0.1173 -0.3737 -0.0675
  654MOL0     C90121   4.497   7.663   2.047 -0.5942  0.1307  0.3026
  654MOL0     O90122   4.602   7.722   1.985 -0.0941 -0.6267  0.0934
  654MOL0     C90123   4.733   7.692   2.025 -0.4450  0.0864  0.4832
  654MOL0     C90124   4.815   7.664   1.892 -0.5411  0.4367  0.4588
  654MOL0     C90125   4.964   7.670   1.927 -0.1701  0.2545 -0.2189
  654MOL0     C90126   5.049   7.705   1.803  0.5107  0.5306 -0.1253
  654MOL0     C90127   5.201   7.679   1.821  0.3006 -0.6422  0.3256
  654MOL0     C90128   5.240   7.543   1.890  0.3372 -0.3145 -0.3044
  654MOL0     C90129   5.392   7.550   1.880  0.1724  0.0794  0.6161
  654MOL0     C90130   5.456   7.436   1.961  0.4687 -0.1795  0.0858
  654MOL0     N90131   5.413   7.301   1.925  0.2675  0.1821  0.3528
  654MOL0     C90132   5.304   7.231   1.980 -1.0803 -0.3716 -0.3855
  654MOL0     C90133   5.317   7.105   1.930  0.0538 -0.2766 -0.1438
  654MOL0     C90134   5.228   6.998   2.010 -0.3733 -0.8553  0.5087
  654MOL0     C90135   5.099   6.966   1.947  0.3681 -1.1030  0.4927
  654MOL0     C90136   4.994   7.071   1.961  0.4089 -0.7225 -0.3585
  654MOL0     C90137   4.949   7.127   1.824  0.2814 -0.4580  1.1786
  654MOL0     O90138   5.061   7.190   1.766  0.1210  0.7451 -0.5451
  654MOL0     C90139   5.062   7.235   1.635 -0.5744  0.9739 -0.4024
  654MOL0     C90140   4.951   7.231   1.546  0.6597  0.7314  0.3611
  654MOL0     C90141   4.959   7.273   1.404 -0.3214  0.8419 -0.7617
  654MOL0     C90142   4.835   7.270   1.321  0.2493  0.4184  0.7973
  654MOL0     C90143   5.087   7.320   1.366  0.5322  0.4850  0.1975
  654MOL0     C90144   5.105   7.372   1.227  0.1995 -0.6261  0.4385
  654MOL0     O90145   5.189   7.480   1.218  0.2429 -0.1076 -0.2923
  654MOL0     C90146   5.242   7.533   1.104 -0.0486 -0.1604 -0.2384
  654MOL0     C90147   5.269   7.450   0.994 -0.6586  0.5705  0.5318
  654MOL0     C90148   5.339   7.499   0.885 -0.5499  0.0333  0.0839
  654MOL0     C90149   5.375   7.637   0.876 -0.3484  0.1744 -0.0333
  654MOL0     O90150   5.446   7.701   0.775 -0.3590  0.8490  0.0148
  654MOL0     C90151   5.476   7.638   0.648 -0.4223  0.0640  0.1559
  654MOL0     C90152   5.504   7.736   0.539  1.1032  0.1008 -0.6126
  654MOL0     C90153   5.604   7.843   0.560 -1.1180 -0.8730 -0.3116
  654MOL0     C90154   5.742   7.773   0.557  0.1793 -0.2508 -0.3408
  654MOL0     C90155   5.854   7.871   0.586  0.2968 -0.0220  0.0370
  654MOL0     C90156   5.984   7.803   0.562  0.2775  0.3171 -0.4852
  654MOL0     C90157   6.094   7.908   0.599  0.8686 -0.0711 -0.3198
  654MOL0     C90158   6.115   8.014   0.487  0.3015  0.2010 -0.0231
  654MOL0    Cl90159   6.243   8.119   0.512 -0.3496 -0.3694 -0.0184
  654MOL0     C90160   5.337   7.717   0.986  0.3975 -0.1368  0.7160
  654MOL0     C90161   5.266   7.662   1.091  0.4457  0.5549  0.8403
  654MOL0     O90162   5.055   7.309   1.133  0.3348  0.0285  0.4500
  654MOL0     C90163   5.198   7.317   1.457  0.2237 -0.5893 -0.5743
  654MOL0     C90164   5.190   7.268   1.588  0.6357 -0.4332  0.5466
  654MOL0     N90165   5.424   7.099   1.838  0.1493  0.4985 -0.4382
  654MOL0     N90166   5.482   7.218   1.849  0.2095  0.1259 -0.0515
  654MOL0     C90167   4.381   7.633   1.975 -0.1444 -0.2841  0.0421
  654MOL0     C90168   4.273   7.561   2.031  0.0353 -0.3044  0.1903
  654MOL0     C90169   3.937   7.484   2.275  0.0179 -0.3266 -0.2271
  654MOL0     C90170   3.935   7.346   2.242  0.8349  0.9699  0.4285
  654MOL0     C90171   3.824   7.271   2.264  0.2317 -0.1051  0.0516
  654MOL0     C90172   3.709   7.324   2.324  0.0915 -0.2879 -0.1711
  654MOL0     O90173   3.603   7.238   2.334 -0.7762  0.3066  0.0787
  654MOL0     C90174   3.476   7.270   2.404 -0.0034  0.6745  0.0689
  654MOL0     C90175   3.359   7.184   2.361  0.3385 -0.4208 -0.1839
  654MOL0     C90176   3.219   7.212   2.429 -0.1275 -0.6073 -0.3962
  654MOL0     C90177   3.228   7.204   2.584 -0.9989 -0.6975 -0.4850
  654MOL0     C90178   3.097   7.195   2.645 -0.2680 -0.4311 -0.4792
  654MOL0     C90179   2.979   7.205   2.687 -0.1768  0.8167 -0.0535
  654MOL0     C90180   3.708   7.462   2.352 -0.4758 -0.1219  0.4588
  654MOL0     C90181   3.826   7.538   2.340 -0.2191  0.6947 -0.1889
  654MOL0     C90182   3.826   7.683   2.402 -0.2324 -0.3000 -0.7254
  654MOL0     H90183   4.383   7.565   2.347  1.3586  0.5745 -0.1526
  654MOL0     H90184   4.571   7.676   2.251 -1.3761 -0.4087  1.2671
  654MOL0     H90185   4.743   7.605   2.091 -1.1978 -0.6284 -0.3244
  654MOL0     H90186   4.772   7.778   2.081  0.4051  0.7864 -1.1174
  654MOL0     H90187   4.788   7.563   1.856  0.1007  0.5690 -0.4373
  654MOL0     H90188   4.806   7.741   1.814 -0.3575  0.4288  0.4295
  654MOL0     H90189   4.990   7.737   2.009 -2.5362 -1.7472  2.3366
  654MOL0     H90190   4.997   7.569   1.954  0.5251 -0.3365 -2.9778
  654MOL0     H90191   5.014   7.635   1.726 -1.1469 -1.8824  2.5915
  654MOL0     H90192   5.037   7.800   1.752  1.6907 -0.3402 -2.1517
  654MOL0     H90193   5.229   7.751   1.899  0.5390 -0.5559  0.1593
  654MOL0     H90194   5.259   7.702   1.732 -0.3938  2.5188  0.5532
  654MOL0     H90195   5.216   7.536   1.996  0.4737 -0.5219 -0.2856
  654MOL0     H90196   5.198   7.449   1.852 -0.7681  0.2088 -0.4221
  654MOL0     H90197   5.442   7.644   1.905 -0.4231  0.4645  0.3662
  654MOL0     H90198   5.418   7.525   1.777  0.8741 -0.5443  0.9352
  654MOL0     H90199   5.564   7.449   1.947  0.2961  0.8469 -0.3829
  654MOL0     H90200   5.435   7.455   2.067  1.6631  0.4093  0.2302
  654MOL0     H90201   5.231   7.267   2.052 -1.2872 -0.1925 -0.6805
  654MOL0     H90202   5.208   7.033   2.112  2.2070 -0.3165  0.8990
  654MOL0     H90203   5.288   6.907   2.012  2.3547  0.8234  0.4303
  654MOL0     H90204   5.119   6.946   1.841 -0.4045  0.9327 -0.0933
  654MOL0     H90205   5.062   6.873   1.992 -0.7945 -1.3016 -0.7752
  654MOL0     H90206   4.903   7.023   1.997 -1.2257  0.8046 -2.1717
  654MOL0     H90207   5.021   7.150   2.033  3.0399  0.7578 -2.7234
  654MOL0     H90208   4.928   7.055   1.744 -0.7513  0.6300  0.4286
  654MOL0     H90209   4.868   7.199   1.835  0.0866 -0.2563 -1.0088
  654MOL0     H90210   4.851   7.213   1.584  0.6716 -0.9872 -0.3437
  654MOL0     H90211   4.832   7.364   1.264  3.4731 -0.6569 -1.4094
  654MOL0     H90212   4.745   7.261   1.383 -0.1931 -1.6028 -0.0490
  654MOL0     H90213   4.841   7.192   1.245  0.0940  3.0841 -2.1955
  654MOL0     H90214   5.249   7.343   0.991 -1.2657  0.7004 -1.6846
  654MOL0     H90215   5.363   7.439   0.797  2.5200 -0.4950  1.1380
  654MOL0     H90216   5.562   7.572   0.655  0.5185  1.2373  0.0482
  654MOL0     H90217   5.386   7.584   0.618 -0.4387 -0.1321  0.5570
  654MOL0     H90218   5.513   7.679   0.446  0.7367 -3.4669  1.3430
  654MOL0     H90219   5.410   7.791   0.536 -0.0663 -1.8261 -2.1414
  654MOL0     H90220   5.581   7.888   0.657 -0.7957 -1.0836 -0.1328
  654MOL0     H90221   5.595   7.923   0.486  0.9268 -1.5691 -1.3869
  654MOL0     H90222   5.763   7.728   0.460  1.0428 -1.9139  0.5804
  654MOL0     H90223   5.750   7.692   0.630  1.1878 -1.7976 -2.1071
  654MOL0     H90224   5.852   7.953   0.514  0.1012 -0.3334 -0.3108
  654MOL0     H90225   5.848   7.910   0.688  0.5464 -1.1450  0.4936
  654MOL0     H90226   5.999   7.769   0.459 -0.1614  0.8454 -0.7237
  654MOL0     H90227   5.989   7.723   0.637 -1.2779  1.3200  0.7704
  654MOL0     H90228   6.187   7.852   0.609 -1.3941 -4.0602  0.4884
  654MOL0     H90229   6.069   7.943   0.700  1.0826 -3.4477  1.0327
  654MOL0     H90230   6.026   8.071   0.460  0.6248 -0.4060 -2.7164
  654MOL0     H90231   6.147   7.947   0.406 -2.1457 -0.2505 -0.7144
  654MOL0     H90232   5.361   7.822   0.993 -1.7340  0.6007 -1.5432
  654MOL0     H90233   5.242   7.728   1.174 -3.0389 -0.5636  0.8893
  654MOL0     H90234   5.295   7.347   1.417 -0.4942 -0.8676 -2.6273
  654MOL0     H90235   5.282   7.258   1.645  1.1943 -1.0211 -0.4357
  654MOL0     H90236   4.377   7.674   1.874  0.2681 -2.5715 -0.9775
  654MOL0     H90237   4.186   7.533   1.971 -0.8219  0.0328  1.2445
  654MOL0     H90238   4.019   7.297   2.193  0.6638  0.3320  0.7533
  654MOL0     H90239   3.822   7.164   2.246  0.5565 -0.2756  0.9492
  654MOL0     H90240   3.487   7.264   2.512 -1.8447  0.9991  0.3079
  654MOL0     H90241   3.457   7.377   2.389  2.5899  1.5653  2.4412
  654MOL0     H90242   3.388   7.082   2.387  0.1090 -0.6735 -0.9050
  654MOL0     H90243   3.340   7.202   2.255 -0.1001 -0.0600 -0.0470
  654MOL0     H90244   3.180   7.312   2.409 -0.0502 -0.1529  1.4809
  654MOL0     H90245   3.148   7.140   2.388 -1.0270  0.4554 -0.7225
  654MOL0     H90246   3.286   7.289   2.622 -2.4289 -0.2030  0.6519
  654MOL0     H90247   3.286   7.119   2.621  0.6913  0.7932  0.5184
  654MOL0     H90248   2.880   7.222   2.726 -0.2541 -2.3758  1.4910
  654MOL0     H90249   3.616   7.502   2.394 -0.6163 -1.7492  1.7947
  654MOL0     H90250   3.832   7.760   2.325  1.8985 -0.2120 -0.5529
  654MOL0     H90251   3.737   7.700   2.462 -0.6555 -1.2675 -1.0622
  654MOL0     H90252   3.920   7.695   2.458 -0.2500  1.9234 -1.0710
  655MOL0     O90253   1.077   2.887  10.659  0.5624  0.1957  0.0840
  655MOL0     C90254   1.031   2.773  10.641 -0.0008 -0.2873 -0.1826
  655MOL0     O90255   1.097   2.660  10.619  0.2180 -0.6893 -0.0921
  655MOL0     C90256   1.232   2.669  10.605 -0.1673  0.4174  0.2289
  655MOL0     C90257   1.281   2.665  10.476 -0.6451  0.1888  0.2652
  655MOL0     C90258   1.420   2.686  10.456 -0.3471  0.8845 -0.2094
  655MOL0     C90259   1.511   2.713  10.558 -0.4089 -0.4111 -0.3155
  655MOL0     O90260   1.643   2.750  10.531  0.9861 -0.1999 -0.0567
  655MOL0     C90261   1.699   2.723  10.402  0.2142  0.1383  0.2166
  655MOL0     C90262   1.855   2.739  10.395 -0.4699 -0.0320 -0.7825
  655MOL0     C90263   1.937   2.653  10.488 -0.5685 -0.1065  0.6566
  655MOL0     C90264   1.932   2.690  10.638  0.4619  0.3208  0.4993
  655MOL0     C90265   2.025   2.597  10.711  0.0568  0.5333  0.4736
  655MOL0     C90266   2.002   2.612  10.858  0.5359  0.4318  0.0528
  655MOL0     C90267   2.097   2.522  10.935  0.0005 -0.3184  0.6683
  655MOL0     C90268   2.207   2.615  11.004  0.2760  0.0147  1.3743
  655MOL0     N90269   2.303   2.537  11.079  0.0882  0.2350  1.2297
  655MOL0     C90270   2.407   2.602  11.149  0.4200  0.2151 -0.0856
  655MOL0     C90271   2.487   2.502  11.186  0.5355 -0.2388  0.0617
  655MOL0     C90272   2.610   2.514  11.269 -0.1226 -0.4169  0.4423
  655MOL0     C90273   2.574   2.548  11.412 -0.0511  0.7369  0.2661
  655MOL0     C90274   2.531   2.427  11.502  0.6199 -0.5583  0.0719
  655MOL0     C90275   2.637   2.313  11.522  0.1523  0.0554 -0.2797
  655MOL0     O90276   2.773   2.363  11.544  0.2137  0.5932 -0.0272
  655MOL0     C90277   2.882   2.283  11.507  0.3905  0.2604  0.5785
  655MOL0     C90278   2.876   2.155  11.454 -0.0015 -0.4983 -0.4057
  655MOL0     C90279   2.996   2.083  11.418 -0.0794 -0.3482 -0.0020
  655MOL0     C90280   2.966   1.962  11.341  0.3539 -0.3871  0.4542
  655MOL0     C90281   3.120   2.129  11.462 -0.2999 -0.3868 -0.3553
  655MOL0     C90282   3.242   2.048  11.438 -0.1802 -0.3523 -0.5516
  655MOL0     O90283   3.348   2.072  11.517 -0.2686 -0.2919 -0.3199
  655MOL0     C90284   3.478   2.054  11.473  0.1609 -0.1918 -0.5677
  655MOL0     C90285   3.570   2.064  11.575  0.3020 -0.3700  0.6124
  655MOL0     C90286   3.703   2.058  11.551 -0.7929 -0.0591  0.3083
  655MOL0     C90287   3.761   2.027  11.432  0.2909 -0.2922  0.7224
  655MOL0     O90288   3.890   2.015  11.426 -0.5486  0.1626 -0.3887
  655MOL0     C90289   3.961   1.994  11.307 -0.0738  0.7837 -0.3168
  655MOL0     C90290   4.100   1.941  11.335 -0.3309 -0.1164  0.1774
  655MOL0     C90291   4.089   1.802  11.404 -0.4754  0.4730 -0.0071
  655MOL0     C90292   4.038   1.692  11.303 -0.2955 -0.5823  0.2793
  655MOL0     C90293   4.035   1.552  11.360 -0.4039  0.0528  0.3219
  655MOL0     C90294   3.933   1.460  11.288  0.2703 -0.5645  0.1215
  655MOL0     C90295   3.906   1.334  11.365  0.9542  0.0596 -0.0992
  655MOL0     C90296   4.023   1.240  11.374 -0.4012 -0.4589  0.5514
  655MOL0    Cl90297   4.080   1.189  11.217  0.3838 -0.3238  0.1867
  655MOL0     C90298   3.666   2.001  11.332  0.2236  0.0516 -0.2073
  655MOL0     C90299   3.523   2.023  11.345 -0.3835  0.6430  0.7251
  655MOL0     O90300   3.243   1.965  11.352 -0.0911  0.4579 -0.1161
  655MOL0     C90301   3.123   2.248  11.545 -0.3168 -0.7706 -0.2387
  655MOL0     C90302   3.010   2.327  11.552 -0.2975 -0.9144  1.3724
  655MOL0     N90303   2.448   2.388  11.120  0.1796  1.0935  0.5880
  655MOL0     N90304   2.341   2.409  11.052 -0.7981  0.3704  0.2051
  655MOL0     C90305   1.455   2.716  10.682  0.9415  0.3684  0.0771
  655MOL0     C90306   1.323   2.695  10.716  0.1258 -0.3836  0.1060
  655MOL0     C90307   0.888   2.751  10.637  0.6101  0.0464  0.1827
  655MOL0     C90308   0.831   2.634  10.693  0.9308  0.1389  0.3429
  655MOL0     C90309   0.694   2.610  10.700 -0.5722 -0.3227  0.0292
  655MOL0     C90310   0.601   2.699  10.658  0.0956  0.5402  0.1399
  655MOL0     O90311   0.468   2.679  10.679  0.0390  0.3233  0.1551
  655MOL0     C90312   0.410   2.598  10.786  0.0574 -0.2698 -0.6519
  655MOL0     C90313   0.252   2.577  10.760  0.2795 -0.2742  0.7317
  655MOL0     C90314   0.228   2.451  10.685  0.0288 -0.3309  1.1803
  655MOL0     C90315   0.256   2.472  10.535  0.2987 -0.0987 -0.2345
  655MOL0     C90316   0.249   2.342  10.463 -0.3438 -0.4288  0.2210
  655MOL0     C90317   0.245   2.244  10.388  0.5819 -0.4812 -0.4479
  655MOL0     C90318   0.653   2.822  10.605  0.0040 -0.1722  0.1181
  655MOL0     C90319   0.794   2.850  10.609 -0.2418 -0.5128  0.3147
  655MOL0     C90320   0.834   2.993  10.561  0.3141 -0.5419  0.9132
  655MOL0     H90321   1.224   2.668  10.384  2.1412 -0.6363 -1.6099
  655MOL0     H90322   1.454   2.680  10.353  2.0704  1.5013  0.4783
  655MOL0     H90323   1.653   2.783  10.323 -0.0765 -0.9365 -0.4526
  655MOL0     H90324   1.675   2.617  10.388  0.4178 -0.7799  5.0814
  655MOL0     H90325   1.882   2.702  10.296 -0.0911 -0.7355 -0.4207
  655MOL0     H90326   1.874   2.846  10.408 -0.7429 -0.0679 -0.0498
  655MOL0     H90327   1.905   2.549  10.481 -0.8551  0.0948 -1.3853
  655MOL0     H90328   2.040   2.649  10.453 -1.1723 -2.9044 -1.1423
  655MOL0     H90329   1.966   2.793  10.653 -1.3351  0.8777  0.9149
  655MOL0     H90330   1.834   2.670  10.680  0.9502 -1.1844  0.9693
  655MOL0     H90331   2.128   2.621  10.683  0.4607 -0.6482  0.8745
  655MOL0     H90332   2.021   2.494  10.673 -3.1678  1.7719 -3.2301
  655MOL0     H90333   2.005   2.716  10.890 -1.6027  0.3092  0.8137
  655MOL0     H90334   1.903   2.583  10.893  0.5646  2.5011  2.0847
  655MOL0     H90335   2.142   2.449  10.867 -0.0584 -0.8835  1.2286
  655MOL0     H90336   2.037   2.478  11.015 -3.6472  0.3693 -1.4591
  655MOL0     H90337   2.261   2.684  10.940  0.1507  0.9275  2.2158
  655MOL0     H90338   2.153   2.689  11.065 -2.5328  1.8075 -2.8286
  655MOL0     H90339   2.426   2.704  11.180 -0.7077  0.2185  0.6797
  655MOL0     H90340   2.676   2.580  11.213  1.2233 -2.4244 -0.4696
  655MOL0     H90341   2.670   2.423  11.274  0.1740 -0.2071  0.7491
  655MOL0     H90342   2.654   2.599  11.466  0.5569  0.4833 -0.3746
  655MOL0     H90343   2.492   2.619  11.405 -1.4294 -0.9377 -1.8999
  655MOL0     H90344   2.513   2.472  11.600 -1.9203 -1.0294 -0.1314
  655MOL0     H90345   2.444   2.371  11.469 -0.2249  0.5046  0.4399
  655MOL0     H90346   2.615   2.250  11.609 -0.6770  0.5441 -0.1202
  655MOL0     H90347   2.625   2.254  11.430 -2.2160  0.1820 -0.1167
  655MOL0     H90348   2.779   2.116  11.424  0.9609  0.0493 -4.8207
  655MOL0     H90349   2.861   1.961  11.310  0.8917  3.0413 -2.0490
  655MOL0     H90350   2.973   1.873  11.405  1.7932 -0.3300  0.4050
  655MOL0     H90351   3.023   1.943  11.250  0.0645 -1.0298  0.3977
  655MOL0     H90352   3.546   2.075  11.680  2.4017  3.5647  0.8726
  655MOL0     H90353   3.768   2.086  11.634  1.0220  0.6649 -1.2657
  655MOL0     H90354   3.910   1.924  11.240 -0.0411 -0.4851  0.9265
  655MOL0     H90355   3.963   2.087  11.250  1.1443  1.3276  0.5694
  655MOL0     H90356   4.147   1.928  11.237 -2.4906 -1.3480 -0.7455
  655MOL0     H90357   4.162   2.009  11.394 -0.1462  1.4590 -1.7512
  655MOL0     H90358   4.032   1.799  11.498  0.5867 -0.8489  0.6239
  655MOL0     H90359   4.187   1.766  11.435  1.2237  1.5272 -3.6932
  655MOL0     H90360   4.115   1.691  11.226 -1.6154 -1.2833 -1.0897
  655MOL0     H90361   3.940   1.712  11.258 -0.9212 -2.7087  0.6253
  655MOL0     H90362   4.133   1.503  11.361 -1.0535 -1.4215 -1.5583
  655MOL0     H90363   4.005   1.562  11.465  2.9282  1.1441  1.2839
  655MOL0     H90364   3.964   1.447  11.184 -2.5177 -2.0996 -0.5906
  655MOL0     H90365   3.838   1.510  11.268 -1.5931 -3.6089  0.8649
  655MOL0     H90366   3.816   1.288  11.324 -0.1022  2.4341 -0.6336
  655MOL0     H90367   3.871   1.365  11.464 -1.5646 -0.2778 -0.8182
  655MOL0     H90368   3.978   1.156  11.428 -1.0722  1.5820  3.4002
  655MOL0     H90369   4.112   1.277  11.425  2.6213 -2.4917 -2.7256
  655MOL0     H90370   3.693   1.969  11.232  0.0725 -2.5560  0.5045
  655MOL0     H90371   3.453   2.003  11.264  1.2451 -1.0244 -0.3469
  655MOL0     H90372   3.210   2.285  11.599 -0.5894  1.5051 -1.2483
  655MOL0     H90373   3.016   2.421  11.606  0.7897 -0.2787  0.1812
  655MOL0     H90374   1.516   2.740  10.769  1.0774  0.6890 -0.1063
  655MOL0     H90375   1.303   2.692  10.822  1.5774  0.0732  0.4209
  655MOL0     H90376   0.890   2.552  10.732  0.2449 -0.9939 -0.9269
  655MOL0     H90377   0.663   2.524  10.759 -1.0271 -0.7246 -0.7823
  655MOL0     H90378   0.459   2.502  10.802  3.1680  1.0879 -1.2075
  655MOL0     H90379   0.417   2.651  10.882 -2.3310  0.7486 -0.9828
  655MOL0     H90380   0.221   2.668  10.709 -1.2897 -0.3193  1.5572
  655MOL0     H90381   0.193   2.562  10.850  0.9949 -3.5311  0.7861
  655MOL0     H90382   0.301   2.377  10.720  0.3338 -1.1046 -0.9386
  655MOL0     H90383   0.123   2.426  10.698 -0.3979 -0.0061 -1.1740
  655MOL0     H90384   0.358   2.511  10.523  1.5157 -2.1422  2.3244
  655MOL0     H90385   0.182   2.540  10.493  1.6158 -0.1822 -2.9147
  655MOL0     H90386   0.220   2.153  10.338 -0.6017 -1.7890  2.3064
  655MOL0     H90387   0.583   2.902  10.583  1.0342  0.6101 -0.4159
  655MOL0     H90388   0.918   2.990  10.491  0.1584 -1.8471  0.7524
  655MOL0     H90389   0.749   3.039  10.510 -0.3132 -1.2465  1.3029
  655MOL0     H90390   0.851   3.046  10.655 -2.0459  1.4873  0.2849
  656MOL0     O90391   2.511  10.973   2.011  0.7373 -0.2006 -0.1293
  656MOL0     C90392   2.467  11.036   2.108 -0.5979 -0.4853  0.1393
  656MOL0     O90393   2.541  11.057   2.223 -0.4946  0.0464  0.5137
  656MOL0     C90394   2.664  10.993   2.232  0.0320  0.1153  0.2342
  656MOL0     C90395   2.775  11.019   2.148  0.5506 -0.5177  0.0479
  656MOL0     C90396   2.901  10.961   2.166 -0.0679 -0.0217  0.1001
  656MOL0     C90397   2.925  10.861   2.256 -0.7998  0.2403  0.0224
  656MOL0     O90398   3.053  10.814   2.262 -0.1421  1.2544 -0.1127
  656MOL0     C90399   3.106  10.759   2.384 -0.1392  0.0985 -0.4792
  656MOL0     C90400   3.259  10.767   2.349 -0.3189  0.3764 -0.0068
  656MOL0     C90401   3.289  10.660   2.237  0.3989  0.1899 -0.2678
  656MOL0     C90402   3.434  10.692   2.183 -0.7146  0.6548  0.3350
  656MOL0     C90403   3.465  10.574   2.085 -0.0267  0.2309  0.0865
  656MOL0     C90404   3.601  10.593   2.015 -0.1758 -0.5313  0.7605
  656MOL0     C90405   3.649  10.471   1.926  0.5358 -0.1779 -0.2789
  656MOL0     C90406   3.555  10.440   1.810  0.7479  0.6847 -0.3021
  656MOL0     N90407   3.615  10.326   1.739 -0.0356  0.8491 -0.3155
  656MOL0     C90408   3.724  10.346   1.653 -0.5046 -0.2468 -0.4885
  656MOL0     C90409   3.712  10.260   1.547  0.1931  0.6433 -1.2697
  656MOL0     C90410   3.809  10.247   1.435 -0.7626  0.5111  0.4617
  656MOL0     C90411   3.736  10.191   1.308 -0.5216 -0.1525  0.2213
  656MOL0     C90412   3.817  10.147   1.185  0.0588 -0.5499 -0.2097
  656MOL0     C90413   3.916  10.035   1.203  0.3224  0.0655  0.6000
  656MOL0     O90414   3.973  10.006   1.074  0.1288 -0.0663 -0.0175
  656MOL0     C90415   4.096  10.058   1.050  0.5215 -0.8678 -0.9007
  656MOL0     C90416   4.144  10.175   1.117 -0.3566  0.3512  1.0928
  656MOL0     C90417   4.272  10.227   1.085  0.5644 -0.2057  0.7166
  656MOL0     C90418   4.331  10.347   1.161  0.3052  0.4278 -0.2731
  656MOL0     C90419   4.354  10.167   0.984 -0.1351 -0.6875 -0.2050
  656MOL0     C90420   4.497  10.198   0.954  0.2746 -0.3711 -0.0042
  656MOL0     O90421   4.576  10.114   0.887  0.0959  0.2457 -0.4336
  656MOL0     C90422   4.708  10.123   0.911 -0.1731 -0.2632 -0.3137
  656MOL0     C90423   4.799  10.111   0.806  0.7115  0.0708 -0.7751
  656MOL0     C90424   4.936  10.121   0.815 -0.5024 -0.6439 -0.4428
  656MOL0     C90425   4.993  10.141   0.943  0.2524 -0.4642 -0.6435
  656MOL0     O90426   5.127  10.146   0.956 -0.0560 -0.0318  0.0142
  656MOL0     C90427   5.176  10.278   0.978 -0.5755  0.2714  0.5954
  656MOL0     C90428   5.319  10.295   0.923 -0.6426 -0.3224  0.5591
  656MOL0     C90429   5.359  10.434   0.965 -0.1814  0.1611 -0.0450
  656MOL0     C90430   5.489  10.482   0.907  0.7110 -0.9409  0.0301
  656MOL0     C90431   5.519  10.616   0.976  0.2914 -0.0769 -0.5229
  656MOL0     C90432   5.604  10.590   1.103  0.3276 -0.5160 -0.9442
  656MOL0     C90433   5.617  10.717   1.195 -0.3790  0.2389  0.2398
  656MOL0     C90434   5.674  10.679   1.336  0.1343  0.0460 -0.2984
  656MOL0    Cl90435   5.703  10.832   1.434 -0.0403  0.0196 -0.3250
  656MOL0     C90436   4.905  10.152   1.054  0.3685 -0.1100  0.0734
  656MOL0     C90437   4.763  10.144   1.041 -0.6399  0.6024 -0.3480
  656MOL0     O90438   4.520  10.321   0.971 -0.1362  0.3944 -0.0759
  656MOL0     C90439   4.292  10.057   0.914  0.1532  0.2263  0.4937
  656MOL0     C90440   4.169  10.006   0.943  0.4702 -0.2952  0.6581
  656MOL0     N90441   3.593  10.193   1.568  0.5626  0.0192  0.3242
  656MOL0     N90442   3.539  10.232   1.680 -0.3284  0.3112  0.8426
  656MOL0     C90443   2.816  10.829   2.336 -0.7773  0.1819  0.0266
  656MOL0     C90444   2.690  10.891   2.325  1.0360 -0.4006  0.2171
  656MOL0     C90445   2.325  11.093   2.110 -0.9652  0.2896 -0.6002
  656MOL0     C90446   2.280  11.149   2.229  0.1669 -0.2720 -0.1603
  656MOL0     C90447   2.148  11.191   2.233 -0.6207 -0.1160 -0.0806
  656MOL0     C90448   2.054  11.180   2.124 -0.5659 -0.2128 -0.4248
  656MOL0     O90449   1.924  11.231   2.132 -0.1119 -0.2641  0.6891
  656MOL0     C90450   1.851  11.214   2.252 -1.1460 -0.4430 -0.2654
  656MOL0     C90451   1.709  11.285   2.252 -0.1995  0.1289 -0.0526
  656MOL0     C90452   1.629  11.296   2.386  1.4294  0.1774  0.3883
  656MOL0     C90453   1.477  11.327   2.359  1.0043 -0.5142 -0.2639
  656MOL0     C90454   1.404  11.228   2.286 -0.2901 -0.7095  0.0852
  656MOL0     C90455   1.343  11.147   2.222  0.2639  0.4845 -0.3783
  656MOL0     C90456   2.104  11.115   2.014 -0.1577  0.0833  0.4131
  656MOL0     C90457   2.240  11.082   1.996 -0.0715  0.5651 -0.1987
  656MOL0     C90458   2.276  11.023   1.861 -0.7330  0.5549 -0.6685
  656MOL0     H90459   2.765  11.090   2.066  1.2671 -1.1275 -0.5795
  656MOL0     H90460   2.978  11.003   2.102 -2.0524  4.1300  0.0755
  656MOL0     H90461   3.073  10.662   2.422  2.1062 -0.0952  1.1800
  656MOL0     H90462   3.090  10.823   2.471  2.1628  0.9299 -0.6038
  656MOL0     H90463   3.300  10.864   2.319 -0.2082  0.1674 -0.5350
  656MOL0     H90464   3.319  10.740   2.437 -0.5228  3.0035  1.0314
  656MOL0     H90465   3.282  10.560   2.280  0.9908 -0.2230 -1.1130
  656MOL0     H90466   3.229  10.673   2.147  0.3333  1.0998 -0.1047
  656MOL0     H90467   3.427  10.783   2.123 -0.3430  0.5210  0.0896
  656MOL0     H90468   3.509  10.697   2.263 -2.4302 -1.0726  2.1652
  656MOL0     H90469   3.381  10.559   2.017  0.6814 -2.1117 -0.3450
  656MOL0     H90470   3.476  10.487   2.150  3.9684 -2.6297 -3.8087
  656MOL0     H90471   3.598  10.678   1.946  1.8166 -2.1574 -1.5052
  656MOL0     H90472   3.663  10.617   2.102 -2.2049 -0.3554  2.2278
  656MOL0     H90473   3.652  10.382   1.990 -1.5019 -1.7995 -2.2944
  656MOL0     H90474   3.747  10.486   1.881  0.4348 -0.9519 -0.7711
  656MOL0     H90475   3.450  10.426   1.836  0.3106  0.9765 -1.8319
  656MOL0     H90476   3.544  10.515   1.730 -3.2720  1.7290  0.9916
  656MOL0     H90477   3.798  10.425   1.663 -0.6189  0.0698 -1.8514
  656MOL0     H90478   3.886  10.175   1.462 -0.0264  0.4451 -1.6107
  656MOL0     H90479   3.854  10.345   1.416  0.2586  0.1596  1.0102
  656MOL0     H90480   3.674  10.108   1.343 -0.5113  0.0396  0.7061
  656MOL0     H90481   3.667  10.270   1.278 -0.2583 -0.1288 -0.3440
  656MOL0     H90482   3.753  10.132   1.097  1.5148 -2.0469 -1.0473
  656MOL0     H90483   3.890  10.224   1.157  2.2724 -2.4220  0.1347
  656MOL0     H90484   3.991  10.040   1.283 -0.4870  0.2923  1.3616
  656MOL0     H90485   3.858   9.950   1.242 -2.1959  0.6889 -1.5428
  656MOL0     H90486   4.079  10.235   1.180 -0.3032  2.5227 -0.8153
  656MOL0     H90487   4.247  10.376   1.225 -0.4370  0.3441 -1.2035
  656MOL0     H90488   4.360  10.429   1.095  0.1081  3.4606  3.0597
  656MOL0     H90489   4.406  10.317   1.235  0.9249  1.4144 -0.4834
  656MOL0     H90490   4.753  10.098   0.709 -0.9446  0.1183 -0.0316
  656MOL0     H90491   5.001  10.118   0.728 -0.0761 -0.0510 -0.1582
  656MOL0     H90492   5.114  10.337   0.910 -0.4562 -1.3974 -1.0654
  656MOL0     H90493   5.168  10.309   1.082 -3.1820  0.9045  0.2547
  656MOL0     H90494   5.389  10.216   0.952  0.1726 -0.5177 -1.6951
  656MOL0     H90495   5.322  10.288   0.814  1.4759  2.1284  0.3604
  656MOL0     H90496   5.356  10.435   1.075 -3.5407  0.2547 -0.0114
  656MOL0     H90497   5.273  10.493   0.932 -1.4410 -2.1365 -1.0701
  656MOL0     H90498   5.478  10.509   0.802 -1.7860 -0.5888  0.3052
  656MOL0     H90499   5.573  10.413   0.918  1.5665  0.0932  0.0757
  656MOL0     H90500   5.572  10.687   0.912 -0.5484 -0.2249 -1.4074
  656MOL0     H90501   5.429  10.673   1.003 -0.6565 -2.2824  1.3462
  656MOL0     H90502   5.704  10.550   1.085  0.5395 -0.3021 -0.2684
  656MOL0     H90503   5.541  10.532   1.171 -0.4929  1.2488 -0.1235
  656MOL0     H90504   5.522  10.772   1.201 -0.4439  0.1315  0.1989
  656MOL0     H90505   5.695  10.782   1.154 -1.0355  2.4250  2.2294
  656MOL0     H90506   5.772  10.633   1.321  0.6589  1.3358 -1.0297
  656MOL0     H90507   5.602  10.612   1.381 -0.3470  0.2075 -0.8148
  656MOL0     H90508   4.945  10.173   1.153  0.2306 -0.3535  0.1815
  656MOL0     H90509   4.699  10.143   1.128  1.6987  1.6407  1.4946
  656MOL0     H90510   4.351  10.018   0.832 -2.1817  0.5709 -1.4520
  656MOL0     H90511   4.134   9.932   0.872  0.8689 -0.0526  0.1971
  656MOL0     H90512   2.816  10.740   2.399  0.7638 -0.7802 -1.2503
  656MOL0     H90513   2.613  10.858   2.395  0.7178  1.3112  0.7367
  656MOL0     H90514   2.351  11.164   2.309  1.8901 -0.0896 -1.6648
  656MOL0     H90515   2.108  11.241   2.320 -3.3843  4.2991 -3.4098
  656MOL0     H90516   1.830  11.108   2.268 -0.6802 -0.7926 -1.8218
  656MOL0     H90517   1.913  11.256   2.332  1.1067 -2.5456 -0.7912
  656MOL0     H90518   1.643  11.239   2.178  1.5841 -3.0642  0.1435
  656MOL0     H90519   1.733  11.386   2.218  1.8458 -0.1964  0.3217
  656MOL0     H90520   1.643  11.195   2.424  4.1370 -0.2137 -1.3956
  656MOL0     H90521   1.670  11.370   2.455 -1.4213 -0.4686  3.0444
  656MOL0     H90522   1.466  11.426   2.313 -3.9072 -0.6485  0.0915
  656MOL0     H90523   1.425  11.344   2.454  0.3911  0.9642 -0.8373
  656MOL0     H90524   1.307  11.083   2.144  0.4557  1.7413 -1.5366
  656MOL0     H90525   2.039  11.086   1.932  0.7349  0.1741 -0.3461
  656MOL0     H90526   2.299  10.919   1.887  1.2424  0.8845 -0.9327
  656MOL0     H90527   2.194  11.022   1.789 -0.0685  2.3723 -1.4878
  656MOL0     H90528   2.357  11.073   1.808 -0.9692  2.1419  0.4018
  657MOL0     O90529  10.895   9.906  10.248  0.6001  0.3091 -0.0873
  657MOL0     C90530  10.843   9.962  10.153 -0.3983 -0.3933  0.8145
  657MOL0     O90531  10.870  10.086  10.118 -0.6544  0.3217 -0.7816
  657MOL0     C90532  10.939  10.164  10.209 -0.0268 -0.1400 -0.4940
  657MOL0     C90533  10.878  10.278  10.255 -0.4057  0.4979  0.1027
  657MOL0     C90534  10.958  10.374  10.320  0.7979  0.0899  0.3687
  657MOL0     C90535  11.090  10.356  10.355  0.4149 -0.4321 -0.3969
  657MOL0     O90536  11.139  10.460  10.430 -0.1299 -0.3946  0.0500
  657MOL0     C90537  11.256  10.444  10.507 -0.2214 -0.1673 -0.0329
  657MOL0     C90538  11.280  10.580  10.564  0.7693  0.8758 -0.5124
  657MOL0     C90539  11.402  10.599  10.651  0.3020 -0.0736 -0.7638
  657MOL0     C90540  11.423  10.741  10.701 -0.6439 -0.3117  0.5928
  657MOL0     C90541  11.569  10.768  10.748  0.7928  0.6188 -0.3364
  657MOL0     C90542  11.585  10.913  10.775 -0.3014 -0.4616  0.2624
  657MOL0     C90543  11.716  10.924  10.842 -0.7324 -0.3372  0.8705
  657MOL0     C90544  11.732  11.068  10.904 -0.3723  0.0517  0.7363
  657MOL0     N90545  11.878  11.093  10.923 -0.3203  0.4413  0.8835
  657MOL0     C90546  11.957  11.168  10.831  0.7303 -0.4427 -0.0392
  657MOL0     C90547  12.077  11.188  10.895  0.3289  0.2124  0.3616
  657MOL0     C90548  12.193  11.249  10.836  0.0460 -0.2091  0.2437
  657MOL0     C90549  12.170  11.396  10.782 -0.3089  0.0483  0.1098
  657MOL0     C90550  12.288  11.481  10.839 -0.0116 -0.5364 -0.6312
  657MOL0     C90551  12.277  11.635  10.826  0.2820  0.4040  0.0508
  657MOL0     O90552  12.288  11.681  10.691 -0.5373  0.6030  0.4820
  657MOL0     C90553  12.418  11.689  10.648  0.3668  0.2587  1.0671
  657MOL0     C90554  12.439  11.755  10.527  0.4838 -0.3432  0.7529
  657MOL0     C90555  12.557  11.762  10.456 -0.1629  0.2851  0.0130
  657MOL0     C90556  12.549  11.812  10.310 -0.0756 -0.5193  0.8726
  657MOL0     C90557  12.679  11.715  10.515  0.3710 -0.3949 -0.2330
  657MOL0     C90558  12.797  11.699  10.440  0.1886  0.3985  0.6163
  657MOL0     O90559  12.902  11.683  10.527 -0.1846  0.0800 -0.3421
  657MOL0     C90560  13.022  11.648  10.481  1.0006  0.4766  0.3582
  657MOL0     C90561  13.132  11.735  10.471  0.4311  0.5379 -0.5688
  657MOL0     C90562  13.257  11.695  10.415  0.6647 -0.0430 -0.2737
  657MOL0     C90563  13.275  11.573  10.356  0.0192  0.6359  0.3575
  657MOL0     O90564  13.399  11.551  10.294 -0.1468 -0.3042  0.7577
  657MOL0     C90565  13.438  11.417  10.286 -0.3624  0.9458 -0.1846
  657MOL0     C90566  13.587  11.413  10.249 -0.1663  0.5704  0.6108
  657MOL0     C90567  13.636  11.265  10.249 -0.2292  0.5394 -0.6779
  657MOL0     C90568  13.785  11.245  10.277 -0.5510 -0.1654 -0.2197
  657MOL0     C90569  13.872  11.336  10.191  0.0047 -0.2346  0.3963
  657MOL0     C90570  14.016  11.291  10.190  0.3282  0.0110 -0.8804
  657MOL0     C90571  14.107  11.396  10.120  0.6390  0.5026  0.2245
  657MOL0     C90572  14.242  11.336  10.118  0.1805 -0.1010 -0.5383
  657MOL0    Cl90573  14.354  11.452  10.041 -0.3138 -0.2957 -0.0424
  657MOL0     C90574  13.166  11.485  10.357 -0.3485  0.0250  0.0231
  657MOL0     C90575  13.041  11.524  10.422  0.0699  0.3922 -0.1184
  657MOL0     O90576  12.802  11.697  10.317  0.4611  0.1003 -0.0573
  657MOL0     C90577  12.668  11.661  10.644  0.5172 -0.3143  0.2243
  657MOL0     C90578  12.541  11.648  10.710 -0.7549  0.4488  0.2488
  657MOL0     N90579  12.064  11.127  11.023 -0.6781  0.2282  0.9187
  657MOL0     N90580  11.948  11.068  11.038  0.0452  0.7799  0.2545
  657MOL0     C90581  11.152  10.238  10.318 -0.0654  0.1650 -0.3982
  657MOL0     C90582  11.077  10.137  10.251 -0.2065 -1.0846 -0.3766
  657MOL0     C90583  10.721   9.907  10.098 -0.3487  1.5221 -1.0703
  657MOL0     C90584  10.649   9.986  10.024  0.9821 -0.7096 -0.0045
  657MOL0     C90585  10.519   9.950   9.969 -0.7113  0.1667 -0.0257
  657MOL0     C90586  10.462   9.823   9.989 -0.9278 -0.5709 -0.7979
  657MOL0     O90587  10.340   9.781   9.948  0.5980  0.4264 -0.9883
  657MOL0     C90588  10.247   9.866   9.885  0.1717 -0.4196  0.4104
  657MOL0     C90589  10.135   9.793   9.816 -0.0049 -0.5330 -0.2632
  657MOL0     C90590  10.039   9.875   9.733  0.4081  0.0066 -0.8563
  657MOL0     C90591   9.964   9.777   9.647 -0.7124 -0.2164  0.2919
  657MOL0     C90592   9.890   9.679   9.728  0.3816 -0.8068  0.2876
  657MOL0     C90593   9.836   9.601   9.799 -0.3198 -0.4878 -0.0683
  657MOL0     C90594  10.535   9.743  10.084 -0.2285  0.2027 -0.1369
  657MOL0     C90595  10.660   9.778  10.137  0.2575  0.4855  0.8408
  657MOL0     C90596  10.734   9.670  10.212  0.1141 -1.0835 -0.6162
  657MOL0     H90597  10.774  10.299  10.232 -0.2622  1.7764  0.5430
  657MOL0     H90598  10.927  10.467  10.366  3.7858  1.0783  0.5709
  657MOL0     H90599  11.342  10.416  10.446  0.0383 -0.1549  0.3276
  657MOL0     H90600  11.240  10.373  10.588  3.8198  0.3448  1.3911
  657MOL0     H90601  11.291  10.639  10.472  2.0390 -1.5888 -2.0468
  657MOL0     H90602  11.191  10.607  10.622 -1.3460 -2.2016 -2.0219
  657MOL0     H90603  11.404  10.518  10.724  5.2367 -1.7168 -2.3061
  657MOL0     H90604  11.487  10.577  10.585 -0.1309  1.9051 -2.0513
  657MOL0     H90605  11.401  10.806  10.616  0.6647  2.4676  2.2467
  657MOL0     H90606  11.351  10.761  10.780 -1.0939 -3.4436  1.1043
  657MOL0     H90607  11.637  10.724  10.674  0.2743 -1.5473  0.4049
  657MOL0     H90608  11.572  10.715  10.844 -0.4975 -1.3460 -1.3059
  657MOL0     H90609  11.593  10.973  10.684  1.9765 -0.7239  0.2189
  657MOL0     H90610  11.510  10.956  10.841 -0.0660  1.5617 -0.6874
  657MOL0     H90611  11.792  10.897  10.768 -0.1177 -1.2623  1.8180
  657MOL0     H90612  11.718  10.850  10.923 -1.7374 -2.1973 -0.7147
  657MOL0     H90613  11.702  11.145  10.832  2.4869 -1.3572 -2.1927
  657MOL0     H90614  11.667  11.081  10.991  0.4544  2.6021  1.0809
  657MOL0     H90615  11.926  11.199  10.731  2.8404 -3.4769 -1.7782
  657MOL0     H90616  12.234  11.190  10.753 -1.8117 -1.0462 -0.1403
  657MOL0     H90617  12.269  11.260  10.914  0.6454  0.7610 -0.4409
  657MOL0     H90618  12.166  11.399  10.672 -1.6686  2.5871  0.1592
  657MOL0     H90619  12.074  11.426  10.823  0.1261  0.0738  1.1278
  657MOL0     H90620  12.293  11.457  10.945 -3.6648 -0.8735 -0.4109
  657MOL0     H90621  12.379  11.446  10.789 -0.4201  0.8849 -2.5274
  657MOL0     H90622  12.176  11.671  10.845 -0.3099  0.1887 -2.3804
  657MOL0     H90623  12.348  11.670  10.901  0.9873 -2.8198  1.0683
  657MOL0     H90624  12.350  11.800  10.484  1.4993  1.9174  0.8783
  657MOL0     H90625  12.534  11.729  10.239  3.2402 -1.3017  0.8892
  657MOL0     H90626  12.639  11.868  10.282  0.6445 -1.7390  0.6600
  657MOL0     H90627  12.468  11.885  10.307  2.3167  2.3083  0.0504
  657MOL0     H90628  13.124  11.825  10.530  1.3350  0.3967 -0.2244
  657MOL0     H90629  13.340  11.764  10.414  1.3143 -0.8120 -0.7747
  657MOL0     H90630  13.420  11.375  10.386  1.7632  0.7186  0.1367
  657MOL0     H90631  13.377  11.371  10.208  0.3218  0.7974 -0.6379
  657MOL0     H90632  13.600  11.473  10.158  0.0722  1.4242  1.1955
  657MOL0     H90633  13.651  11.463  10.322  1.1785  0.1395 -0.2378
  657MOL0     H90634  13.625  11.230  10.146 -0.7338 -0.9902 -0.1356
  657MOL0     H90635  13.582  11.197  10.316 -1.9789  2.3124 -0.1809
  657MOL0     H90636  13.812  11.146  10.238  1.5120  0.1513  0.2901
  657MOL0     H90637  13.816  11.260  10.381  2.9267 -1.4207 -0.9558
  657MOL0     H90638  13.824  11.357  10.095 -2.1504 -1.7896  1.0654
  657MOL0     H90639  13.863  11.429  10.249  0.9681 -1.4221  2.5846
  657MOL0     H90640  14.014  11.198  10.132  3.3901  0.3377 -1.7023
  657MOL0     H90641  14.060  11.273  10.289 -0.3507  1.4317 -0.2906
  657MOL0     H90642  14.104  11.494  10.168 -0.7277  0.7081 -0.2160
  657MOL0     H90643  14.073  11.406  10.016  0.3009 -1.1105  0.1561
  657MOL0     H90644  14.232  11.243  10.062  0.6194 -0.9317  0.7137
  657MOL0     H90645  14.274  11.308  10.219 -2.8939 -1.7384  0.0723
  657MOL0     H90646  13.181  11.388  10.311  2.5927 -0.0224  0.9104
  657MOL0     H90647  12.965  11.447  10.413  3.4403 -3.2095 -0.8236
  657MOL0     H90648  12.760  11.622  10.687 -0.2616 -2.8610 -0.2318
  657MOL0     H90649  12.545  11.605  10.809  1.6317 -1.3828 -0.5570
  657MOL0     H90650  11.252  10.204  10.345 -0.4511  0.1422  1.0246
  657MOL0     H90651  11.113  10.035  10.246 -0.3458 -1.4239  3.1867
  657MOL0     H90652  10.688  10.083   9.995  1.5513 -0.5545  1.2142
  657MOL0     H90653  10.472  10.032   9.916 -0.7228  0.9143  1.0926
  657MOL0     H90654  10.199   9.939   9.950 -1.8286 -0.5250 -0.8624
  657MOL0     H90655  10.296   9.915   9.800  0.9929  2.4851  2.4065
  657MOL0     H90656  10.078   9.750   9.899 -0.9519  3.0928  1.1401
  657MOL0     H90657  10.194   9.720   9.760  2.3688  1.1692 -0.1455
  657MOL0     H90658   9.974   9.923   9.807  1.9425 -0.5119  0.9172
  657MOL0     H90659  10.075   9.955   9.668 -1.7776 -0.4252 -2.7333
  657MOL0     H90660  10.026   9.719   9.577 -1.0653 -2.3036  1.6041
  657MOL0     H90661   9.901   9.836   9.581 -1.7434 -1.6372 -0.0479
  657MOL0     H90662   9.788   9.529   9.863 -0.2507  1.2682  2.1047
  657MOL0     H90663  10.489   9.647  10.102 -1.5107  0.9322  0.5980
  657MOL0     H90664  10.730   9.684  10.321  1.2124 -0.2287 -0.6605
  657MOL0     H90665  10.698   9.572  10.180  0.5692 -2.2082  2.0897
  657MOL0     H90666  10.840   9.661  10.184  0.0507 -1.0371 -0.8695
  658MOL0     O90667   4.683   8.891  10.576  0.3256 -0.2411 -0.5318
  658MOL0     C90668   4.625   8.997  10.598 -0.7281  0.9202  0.0218
  658MOL0     O90669   4.689   9.110  10.638  0.5797 -0.7960  0.0305
  658MOL0     C90670   4.828   9.131  10.637  0.5830 -0.6068  0.0789
  658MOL0     C90671   4.898   9.123  10.519 -0.0581 -0.0276 -1.2353
  658MOL0     C90672   5.035   9.134  10.524  0.1706  1.0006  0.3732
  658MOL0     C90673   5.099   9.156  10.648 -0.4594  0.4483  0.2308
  658MOL0     O90674   5.234   9.167  10.661  0.3838  0.0755  0.9890
  658MOL0     C90675   5.318   9.236  10.560  0.3658 -0.3079 -0.9869
  658MOL0     C90676   5.453   9.199  10.591 -0.2344 -0.6768  1.3042
  658MOL0     C90677   5.489   9.048  10.568  0.0748 -0.1057 -0.3692
  658MOL0     C90678   5.637   9.022  10.586  0.3090  0.1605 -1.2151
  658MOL0     C90679   5.671   8.900  10.672  0.3341  0.4123 -0.2270
  658MOL0     C90680   5.807   8.906  10.742 -0.0877  0.2173  0.2272
  658MOL0     C90681   5.840   8.779  10.823  0.2754  0.2487  0.1343
  658MOL0     C90682   5.968   8.781  10.883 -1.3412 -0.2959 -0.6455
  658MOL0     N90683   5.993   8.668  10.979  0.6822 -0.0500  0.2218
  658MOL0     C90684   5.956   8.654  11.108  0.4730 -0.0393  0.2380
  658MOL0     C90685   6.001   8.532  11.141 -0.6092 -0.7352 -0.2093
  658MOL0     C90686   5.979   8.459  11.272 -0.0795 -0.1195  0.2420
  658MOL0     C90687   5.835   8.396  11.284 -0.0994  0.7209  0.8816
  658MOL0     C90688   5.828   8.259  11.221  0.8244  0.7862 -0.7225
  658MOL0     C90689   5.689   8.201  11.213  0.5964 -0.5258  0.4750
  658MOL0     O90690   5.618   8.203  11.343 -0.1115  0.1077  0.4214
  658MOL0     C90691   5.486   8.166  11.356  0.1949  0.1614 -0.3083
  658MOL0     C90692   5.435   8.145  11.479 -0.2591  0.1484  0.3874
  658MOL0     C90693   5.310   8.096  11.505 -1.0285  1.0295 -0.8158
  658MOL0     C90694   5.284   8.049  11.652  0.4543  0.2530 -0.0725
  658MOL0     C90695   5.225   8.086  11.397 -0.0707  0.7958 -0.2113
  658MOL0     C90696   5.085   8.025  11.419 -1.0057 -0.2724  0.4542
  658MOL0     O90697   5.064   7.934  11.522  1.1711 -0.0731 -0.9183
  658MOL0     C90698   4.946   7.864  11.515 -0.2831  0.4570 -0.3727
  658MOL0     C90699   4.908   7.785  11.402 -0.3178 -0.6668  0.3561
  658MOL0     C90700   4.796   7.703  11.416  0.1600  0.6739 -0.1355
  658MOL0     C90701   4.711   7.703  11.531 -1.2063 -0.0783 -0.1294
  658MOL0     O90702   4.599   7.617  11.522 -1.2676 -0.0114  0.8183
  658MOL0     C90703   4.516   7.621  11.635  0.0639 -0.2285  0.8213
  658MOL0     C90704   4.413   7.517  11.632  0.2471  0.3164 -0.2795
  658MOL0     C90705   4.477   7.376  11.606  0.3106  0.0272 -0.5268
  658MOL0     C90706   4.548   7.329  11.734 -0.0346  0.0813 -0.2338
  658MOL0     C90707   4.591   7.175  11.736 -0.5135 -0.8428  0.1511
  658MOL0     C90708   4.463   7.083  11.724 -0.5109 -0.1472  0.3431
  658MOL0     C90709   4.367   7.084  11.851  0.4017  0.5120 -0.1054
  658MOL0     C90710   4.221   7.018  11.827 -0.0179 -0.0966 -0.2349
  658MOL0    Cl90711   4.127   7.113  11.711 -0.2360 -0.7489  0.2204
  658MOL0     C90712   4.760   7.775  11.642  0.2553 -1.7281 -0.3635
  658MOL0     C90713   4.874   7.850  11.634  0.3046  0.4307  0.7621
  658MOL0     O90714   5.009   8.050  11.327  0.2545  0.1762 -0.3092
  658MOL0     C90715   5.264   8.136  11.277  0.6979 -0.5698 -0.1200
  658MOL0     C90716   5.395   8.173  11.246  0.5056 -0.3602 -0.2141
  658MOL0     N90717   6.060   8.473  11.031 -1.4078  0.0288  0.0204
  658MOL0     N90718   6.042   8.554  10.932 -0.1332  0.2017  0.4718
  658MOL0     C90719   5.026   9.175  10.764 -0.0888 -0.3923  0.3103
  658MOL0     C90720   4.884   9.162  10.764 -0.2291  0.6692  0.3829
  658MOL0     C90721   4.476   8.995  10.593 -0.4505 -0.6786  0.2825
  658MOL0     C90722   4.401   9.098  10.648  0.3166 -0.2304 -0.5282
  658MOL0     C90723   4.263   9.109  10.651 -0.6202 -0.3696  0.2897
  658MOL0     C90724   4.188   9.008  10.587 -0.8013 -0.0074 -0.8851
  658MOL0     O90725   4.057   9.025  10.580  0.0550  0.2653 -0.3187
  658MOL0     C90726   3.989   9.002  10.455 -0.6192  0.1025  0.2618
  658MOL0     C90727   3.868   9.097  10.444 -0.3995 -0.5722  0.7906
  658MOL0     C90728   3.916   9.234  10.393 -0.4450 -0.5326 -0.3395
  658MOL0     C90729   3.789   9.322  10.357 -0.6553 -1.0635 -0.0809
  658MOL0     C90730   3.820   9.441  10.275  0.7631  0.4318 -1.1037
  658MOL0     C90731   3.841   9.538  10.202 -0.1247  0.0318  0.5384
  658MOL0     C90732   4.253   8.905  10.521 -0.2699  0.2669 -0.1233
  658MOL0     C90733   4.391   8.895  10.523  0.1867  0.8544  0.3020
  658MOL0     C90734   4.459   8.781  10.445 -0.4741 -0.1618  0.1867
  658MOL0     H90735   4.840   9.110  10.428  0.4830  1.7457 -1.8805
  658MOL0     H90736   5.079   9.117  10.426 -0.6160 -1.3534  0.3501
  658MOL0     H90737   5.308   9.344  10.574  0.3404 -0.1249 -2.2941
  658MOL0     H90738   5.286   9.203  10.461 -3.0289  0.2110 -0.1833
  658MOL0     H90739   5.514   9.256  10.521  0.9940  0.1761  2.9847
  658MOL0     H90740   5.484   9.218  10.694  2.7837 -0.0572  0.3790
  658MOL0     H90741   5.439   8.989  10.645  0.8785  0.3287  0.5038
  658MOL0     H90742   5.458   9.023  10.466  1.7905 -1.8947 -0.5298
  658MOL0     H90743   5.703   9.018  10.499 -1.5626 -0.8041 -2.6696
  658MOL0     H90744   5.669   9.109  10.644 -0.6725 -0.7500  0.7981
  658MOL0     H90745   5.650   8.812  10.610  2.4833 -0.5889  0.3513
  658MOL0     H90746   5.598   8.895  10.754 -2.7936  0.3066 -2.8221
  658MOL0     H90747   5.890   8.920  10.673 -0.0795 -1.1685 -0.0840
  658MOL0     H90748   5.810   8.998  10.801 -0.4904  1.7745 -2.0225
  658MOL0     H90749   5.832   8.690  10.760  1.2911  0.5272 -0.4245
  658MOL0     H90750   5.775   8.774  10.910  1.5667 -2.1569  1.0619
  658MOL0     H90751   6.041   8.776  10.801  0.6012  0.7333  0.9353
  658MOL0     H90752   5.992   8.874  10.935 -2.0637 -0.2359 -0.4061
  658MOL0     H90753   5.911   8.729  11.173  1.2398 -0.3991  1.2105
  658MOL0     H90754   5.997   8.532  11.352 -3.5538 -0.5455  1.6050
  658MOL0     H90755   6.052   8.378  11.270  1.7033  1.4462 -1.1333
  658MOL0     H90756   5.807   8.401  11.390  0.3277  1.3996  0.9733
  658MOL0     H90757   5.760   8.460  11.237  0.7611  0.7232 -0.5471
  658MOL0     H90758   5.878   8.256  11.124  0.5157 -1.8263 -0.8882
  658MOL0     H90759   5.893   8.188  11.274 -0.5658  0.4061  0.5237
  658MOL0     H90760   5.632   8.257  11.139  0.3476 -1.2914  0.0709
  658MOL0     H90761   5.701   8.102  11.168  1.8116 -1.4940  2.7773
  658MOL0     H90762   5.510   8.153  11.557  1.5421  0.4566 -1.3020
  658MOL0     H90763   5.177   8.058  11.674  0.4412 -2.3332  1.2959
  658MOL0     H90764   5.343   8.094  11.732  0.4272 -2.1326  1.3868
  658MOL0     H90765   5.308   7.943  11.662 -0.0766  0.2678  1.6992
  658MOL0     H90766   4.967   7.788  11.310  0.4737 -4.3991  0.6070
  658MOL0     H90767   4.764   7.631  11.341 -2.0270  0.6323  0.7723
  658MOL0     H90768   4.562   7.613  11.734 -0.3226 -2.3332  0.8615
  658MOL0     H90769   4.455   7.712  11.635  1.3217  0.7327 -1.6795
  658MOL0     H90770   4.361   7.519  11.728  2.1564  1.1909  0.7895
  658MOL0     H90771   4.339   7.538  11.554 -0.7039 -1.2661  0.1445
  658MOL0     H90772   4.542   7.384  11.519  1.9333  1.6992  0.7676
  658MOL0     H90773   4.386   7.316  11.596  0.9089 -1.5582  2.3922
  658MOL0     H90774   4.499   7.358  11.827 -1.2573  2.6439 -1.5653
  658MOL0     H90775   4.644   7.381  11.730  1.1908 -2.0645 -0.8679
  658MOL0     H90776   4.663   7.155  11.656 -1.1337  1.3217 -1.0165
  658MOL0     H90777   4.651   7.159  11.826  0.2072 -2.1868 -0.5363
  658MOL0     H90778   4.500   6.981  11.709  1.0403  0.6921 -1.9861
  658MOL0     H90779   4.413   7.115  11.632 -1.0872 -0.2774  0.6034
  658MOL0     H90780   4.350   7.186  11.885 -1.5199 -0.2178  1.2659
  658MOL0     H90781   4.419   7.029  11.930  0.9705 -3.1949 -2.7987
  658MOL0     H90782   4.180   7.030  11.928  0.5207  1.1960 -0.1547
  658MOL0     H90783   4.221   6.916  11.787 -0.2096 -0.1883 -0.0066
  658MOL0     H90784   4.719   7.769  11.743 -1.2107 -2.8313 -0.9975
  658MOL0     H90785   4.899   7.894  11.730 -1.1429  0.0119  1.3627
  658MOL0     H90786   5.189   8.138  11.198  1.5303 -2.9267 -1.0568
  658MOL0     H90787   5.430   8.201  11.148  0.2168  2.1232  0.3404
  658MOL0     H90788   5.073   9.184  10.861  0.0691 -0.3053  0.2267
  658MOL0     H90789   4.836   9.173  10.861  1.0575 -1.9216  1.4145
  658MOL0     H90790   4.459   9.179  10.690  0.3514 -0.1351 -0.7585
  658MOL0     H90791   4.224   9.205  10.683  1.4005  0.7718 -0.5485
  658MOL0     H90792   4.056   9.013  10.369 -1.1395 -2.4493 -0.5673
  658MOL0     H90793   3.958   8.897  10.455 -0.4046  0.0359  0.9474
  658MOL0     H90794   3.804   9.105  10.532 -3.0713 -4.0567 -0.5707
  658MOL0     H90795   3.802   9.063  10.363  0.2562 -1.7843  0.7466
  658MOL0     H90796   3.967   9.284  10.475  0.5790 -0.7526 -0.8304
  658MOL0     H90797   3.974   9.238  10.301 -1.7696  3.0649 -1.1887
  658MOL0     H90798   3.738   9.352  10.449  0.5277 -0.7875  0.5110
  658MOL0     H90799   3.724   9.262  10.293 -2.0721 -0.7564  1.0134
  658MOL0     H90800   3.860   9.606  10.123 -1.1621 -0.4697 -0.1711
  658MOL0     H90801   4.202   8.829  10.462  1.0745  0.2737 -1.3449
  658MOL0     H90802   4.497   8.707  10.516 -2.0900 -1.2950 -0.0883
  658MOL0     H90803   4.389   8.742  10.371 -1.8670  4.7128 -1.4918
  658MOL0     H90804   4.543   8.822  10.388 -1.3423  0.9137 -0.3610
  659MOL0     O90805  10.077   7.947   0.743 -0.3957  0.0859  0.0609
  659MOL0     C90806  10.036   8.052   0.788  0.2128 -0.9092 -1.0365
  659MOL0     O90807  10.096   8.177   0.766 -0.2310 -0.0844  0.1411
  659MOL0     C90808  10.180   8.192   0.661 -0.3770 -0.3363 -1.5187
  659MOL0     C90809  10.306   8.250   0.683 -0.7148  0.3564 -0.2561
  659MOL0     C90810  10.391   8.283   0.577  0.4231 -0.6741 -0.5334
  659MOL0     C90811  10.342   8.269   0.446 -0.1669 -0.5913  0.5068
  659MOL0     O90812  10.438   8.292   0.345  0.1134 -0.0082  0.4670
  659MOL0     C90813  10.405   8.314   0.205  0.6980 -0.8319  0.3126
  659MOL0     C90814  10.501   8.400   0.119  0.2922 -0.0445 -0.3219
  659MOL0     C90815  10.639   8.325   0.118 -0.4518  0.5220 -0.0115
  659MOL0     C90816  10.718   8.361  -0.008 -0.2542 -0.4046  0.1016
  659MOL0     C90817  10.841   8.440   0.014 -0.3870 -0.5542  0.4788
  659MOL0     C90818  10.894   8.501  -0.115  1.0533 -0.3945  0.7230
  659MOL0     C90819  11.017   8.584  -0.095  0.2879 -0.2312 -0.0951
  659MOL0     C90820  11.058   8.665  -0.224  0.1695 -0.4786  0.6872
  659MOL0     N90821  11.131   8.574  -0.315  0.2437  0.1142 -0.3996
  659MOL0     C90822  11.263   8.549  -0.324 -0.2204 -0.0248 -0.4384
  659MOL0     C90823  11.275   8.449  -0.415  0.3076  0.0846  0.1414
  659MOL0     C90824  11.383   8.363  -0.480  0.5416  0.1694  0.3629
  659MOL0     C90825  11.446   8.257  -0.393 -0.3143 -0.6012 -0.9124
  659MOL0     C90826  11.549   8.189  -0.487 -0.6091  0.5100 -0.5731
  659MOL0     C90827  11.639   8.096  -0.407 -0.0897  0.1491  0.2073
  659MOL0     O90828  11.745   8.166  -0.342  0.0064  0.7222  1.0052
  659MOL0     C90829  11.873   8.114  -0.341  0.3054 -0.1746 -0.3591
  659MOL0     C90830  11.970   8.199  -0.290 -0.0151  0.0322  0.2224
  659MOL0     C90831  12.107   8.164  -0.288  0.3212 -0.1356 -0.4273
  659MOL0     C90832  12.203   8.267  -0.243 -0.2848  1.0724 -0.8702
  659MOL0     C90833  12.154   8.035  -0.337 -1.2859 -0.6904 -0.5496
  659MOL0     C90834  12.303   7.995  -0.345  0.6055  0.8287  0.0544
  659MOL0     O90835  12.332   7.874  -0.404  0.0971 -0.1816  0.5644
  659MOL0     C90836  12.465   7.838  -0.405 -1.4781 -0.3451 -0.2036
  659MOL0     C90837  12.505   7.714  -0.336  0.2288  0.1060  0.7573
  659MOL0     C90838  12.637   7.672  -0.344 -0.1582  0.3547 -0.8818
  659MOL0     C90839  12.735   7.749  -0.408 -0.2529  0.7588 -0.1052
  659MOL0     O90840  12.872   7.705  -0.422 -0.2763  0.3187  0.5709
  659MOL0     C90841  12.967   7.811  -0.429 -0.5917 -0.5676 -0.0308
  659MOL0     C90842  13.092   7.770  -0.351 -0.4460 -0.2107  0.2461
  659MOL0     C90843  13.198   7.888  -0.364 -0.4282 -0.1431  0.9337
  659MOL0     C90844  13.318   7.857  -0.274 -0.0045 -0.3744  0.2292
  659MOL0     C90845  13.445   7.938  -0.318  0.6308 -0.1660 -0.0447
  659MOL0     C90846  13.454   8.081  -0.273  0.0536  0.1880 -0.0745
  659MOL0     C90847  13.570   8.155  -0.328  0.3437  0.2262  0.5105
  659MOL0     C90848  13.702   8.097  -0.280  0.6272 -0.4976  1.0510
  659MOL0    Cl90849  13.712   8.101  -0.102 -0.4021 -0.3101 -0.0552
  659MOL0     C90850  12.686   7.850  -0.491  0.2644 -1.0566  0.1230
  659MOL0     C90851  12.556   7.898  -0.488 -0.0436 -0.7957 -0.1256
  659MOL0     O90852  12.392   8.069  -0.297  0.3972  0.0208 -0.5022
  659MOL0     C90853  12.053   7.948  -0.370  0.1383  1.1099 -0.1104
  659MOL0     C90854  11.914   7.984  -0.375  0.5231 -0.6249  0.1817
  659MOL0     N90855  11.148   8.432  -0.464 -0.4381  0.6781  0.3729
  659MOL0     N90856  11.066   8.501  -0.403 -1.3599 -0.0878  0.8536
  659MOL0     C90857  10.213   8.228   0.419 -0.2887  0.1842 -0.5200
  659MOL0     C90858  10.135   8.188   0.531  0.5626  0.0844 -0.0051
  659MOL0     C90859   9.915   8.048   0.879 -0.4929 -0.7656 -0.3114
  659MOL0     C90860   9.892   8.163   0.956 -1.2128  0.4017 -0.5287
  659MOL0     C90861   9.784   8.158   1.048 -0.3117  0.4635 -0.1505
  659MOL0     C90862   9.698   8.039   1.057  0.4628  0.1225  0.4307
  659MOL0     O90863   9.608   8.052   1.162  0.1405  0.3903  1.3144
  659MOL0     C90864   9.553   7.929   1.207 -0.5024 -0.3749  0.1441
  659MOL0     C90865   9.444   7.969   1.306  0.5655 -0.0709 -0.3190
  659MOL0     C90866   9.415   7.833   1.367  0.4440  0.1717 -0.0743
  659MOL0     C90867   9.309   7.853   1.480 -1.0747  0.2601  0.4885
  659MOL0     C90868   9.182   7.906   1.415 -0.8756 -0.0268 -0.6587
  659MOL0     C90869   9.067   7.929   1.385 -0.0451  0.6920  0.3973
  659MOL0     C90870   9.722   7.930   0.981 -0.5352 -0.1018 -0.0492
  659MOL0     C90871   9.827   7.931   0.891 -0.7940 -0.0499 -0.3789
  659MOL0     C90872   9.838   7.800   0.813  0.3291  0.2138  0.4968
  659MOL0     H90873  10.336   8.263   0.786 -0.5204 -0.0663 -0.2560
  659MOL0     H90874  10.488   8.330   0.590  0.5777 -0.1687 -3.0195
  659MOL0     H90875  10.306   8.357   0.191  1.6342  0.6451 -2.9564
  659MOL0     H90876  10.412   8.218   0.153  0.2712 -1.4214  1.3266
  659MOL0     H90877  10.455   8.399   0.020  0.6465 -1.5600 -0.4866
  659MOL0     H90878  10.503   8.503   0.157 -1.3330 -0.0044 -0.2599
  659MOL0     H90879  10.701   8.350   0.204  0.4374  0.8649 -0.7406
  659MOL0     H90880  10.614   8.218   0.112 -0.9395  0.6787 -0.9986
  659MOL0     H90881  10.741   8.277  -0.074  1.3625  0.0237  0.0665
  659MOL0     H90882  10.655   8.425  -0.070  0.8238  0.7105  0.1034
  659MOL0     H90883  10.921   8.383   0.063  2.0586  0.9850 -1.4675
  659MOL0     H90884  10.809   8.523   0.078 -1.4857 -1.0048  0.5345
  659MOL0     H90885  10.908   8.424  -0.192  0.7048 -2.1041  2.2937
  659MOL0     H90886  10.819   8.567  -0.159  2.8366  0.2183 -1.6574
  659MOL0     H90887  11.099   8.520  -0.062  1.7395  0.9274 -1.2658
  659MOL0     H90888  11.003   8.661  -0.019  0.1052 -0.2796 -0.0799
  659MOL0     H90889  10.966   8.707  -0.266 -0.0930 -1.6967  0.0010
  659MOL0     H90890  11.128   8.742  -0.190  0.3639 -0.8220  1.0715
  659MOL0     H90891  11.337   8.613  -0.276  0.4556  2.2093 -4.0619
  659MOL0     H90892  11.457   8.436  -0.516  0.1058  1.1847  1.4505
  659MOL0     H90893  11.341   8.309  -0.565  0.2541 -0.8882  1.1514
  659MOL0     H90894  11.495   8.307  -0.309 -1.7628 -2.2160  1.0182
  659MOL0     H90895  11.371   8.182  -0.364 -0.8744  0.0770 -0.5672
  659MOL0     H90896  11.496   8.125  -0.558 -0.5176  1.5608 -1.6154
  659MOL0     H90897  11.612   8.264  -0.537 -1.3174  1.6419  0.1959
  659MOL0     H90898  11.581   8.026  -0.346 -2.2514  1.4269 -0.2754
  659MOL0     H90899  11.675   8.024  -0.481 -1.3675 -0.1411 -0.1545
  659MOL0     H90900  11.947   8.298  -0.251  0.8100  1.1681 -1.9750
  659MOL0     H90901  12.281   8.291  -0.316  2.6205  0.0836  1.7183
  659MOL0     H90902  12.260   8.235  -0.156 -0.0132 -1.2366 -1.8375
  659MOL0     H90903  12.151   8.362  -0.225 -3.0913 -0.1542 -1.9885
  659MOL0     H90904  12.426   7.661  -0.285 -0.8791  1.3865  0.4406
  659MOL0     H90905  12.665   7.582  -0.290  0.0355 -0.7980 -2.8023
  659MOL0     H90906  12.999   7.828  -0.532 -2.8340  0.9117 -0.5426
  659MOL0     H90907  12.933   7.903  -0.381  0.0546 -0.0424 -0.5683
  659MOL0     H90908  13.066   7.746  -0.247 -1.3234  0.1844  0.1251
  659MOL0     H90909  13.131   7.682  -0.403 -1.0739  0.6094 -1.6968
  659MOL0     H90910  13.151   7.986  -0.349  0.8275  0.4543  1.1199
  659MOL0     H90911  13.227   7.897  -0.469 -0.3267  0.3282  1.0006
  659MOL0     H90912  13.346   7.752  -0.291  0.9264  0.0208 -0.7551
  659MOL0     H90913  13.291   7.882  -0.171 -1.4040  0.3050 -0.2801
  659MOL0     H90914  13.530   7.886  -0.272 -1.9225 -2.6388  2.2330
  659MOL0     H90915  13.456   7.923  -0.426  0.6049  0.2927 -0.1149
  659MOL0     H90916  13.461   8.079  -0.164  1.6899  0.1136 -0.1424
  659MOL0     H90917  13.361   8.132  -0.300 -1.2829 -1.8335  0.5085
  659MOL0     H90918  13.553   8.262  -0.310 -1.3568 -0.0593  0.8056
  659MOL0     H90919  13.568   8.131  -0.435 -1.4429 -4.4976  1.3616
  659MOL0     H90920  13.783   8.150  -0.332  0.3808 -2.5828 -1.7275
  659MOL0     H90921  13.716   7.996  -0.321  0.3134 -0.8718  1.8530
  659MOL0     H90922  12.750   7.897  -0.565  1.3126 -0.6755  1.2183
  659MOL0     H90923  12.525   7.987  -0.542  0.6657 -1.5032 -1.7798
  659MOL0     H90924  12.068   7.848  -0.408  1.9165  0.9585  0.9119
  659MOL0     H90925  11.833   7.912  -0.384  0.6709 -0.9740  1.4641
  659MOL0     H90926  10.164   8.221   0.322 -2.3797 -3.3058  0.5973
  659MOL0     H90927  10.030   8.162   0.524 -0.3732  2.2095  3.4371
  659MOL0     H90928   9.947   8.255   0.943 -0.7823  0.6908  2.5161
  659MOL0     H90929   9.759   8.239   1.116 -2.0025  0.1417 -0.3484
  659MOL0     H90930   9.509   7.879   1.120  1.8669 -1.1943 -0.6417
  659MOL0     H90931   9.637   7.875   1.251  1.0818  1.8868  0.0557
  659MOL0     H90932   9.354   8.016   1.266  0.0272 -1.4395 -0.7675
  659MOL0     H90933   9.476   8.042   1.381 -2.7527  3.2609 -1.8490
  659MOL0     H90934   9.369   7.767   1.293 -2.0273  2.6534 -0.9278
  659MOL0     H90935   9.508   7.787   1.402  2.8789  1.6503 -3.9510
  659MOL0     H90936   9.349   7.927   1.549 -1.7775  0.8313  0.2951
  659MOL0     H90937   9.279   7.759   1.528 -0.1024  0.4242  1.4597
  659MOL0     H90938   8.967   7.962   1.365 -0.4013  0.5550  1.8534
  659MOL0     H90939   9.657   7.843   0.984 -2.3571  1.2057  1.1039
  659MOL0     H90940   9.928   7.743   0.837 -0.4654 -1.3125 -0.0686
  659MOL0     H90941   9.753   7.735   0.834 -1.6299  2.6294  0.5351
  659MOL0     H90942   9.844   7.831   0.709 -1.3023  0.6843  0.5086
  660MOL0     O90943   6.014   9.035   9.305  0.3008  0.2837 -0.4603
  660MOL0     C90944   5.958   9.008   9.199 -0.0827  1.0729  0.2151
  660MOL0     O90945   6.024   8.968   9.083 -0.0829 -0.6305  0.2572
  660MOL0     C90946   6.158   8.976   9.078 -0.3344  0.2418  0.4571
  660MOL0     C90947   6.240   8.909   9.173 -0.1614 -0.3472 -1.1618
  660MOL0     C90948   6.378   8.901   9.157  0.4190 -0.3400 -0.0733
  660MOL0     C90949   6.447   8.971   9.054 -0.3215  0.0214 -0.5787
  660MOL0     O90950   6.584   8.977   9.039 -0.8008 -0.2364 -0.1075
  660MOL0     C90951   6.668   8.914   9.138 -0.4219 -0.1824 -0.1555
  660MOL0     C90952   6.813   8.947   9.121  0.9003  0.0174 -0.6161
  660MOL0     C90953   6.877   8.912   8.986  0.0261 -0.4075  1.2013
  660MOL0     C90954   7.037   8.918   9.000  1.4363 -0.2517  0.3024
  660MOL0     C90955   7.099   8.862   8.879 -0.6597  0.5644  0.6057
  660MOL0     C90956   7.251   8.866   8.909  0.2721  0.4731 -0.1151
  660MOL0     C90957   7.350   8.812   8.798 -0.1880 -0.5248 -0.3802
  660MOL0     C90958   7.499   8.805   8.847 -0.3359  0.1757 -0.2614
  660MOL0     N90959   7.549   8.941   8.885  0.5214  0.1581  0.6461
  660MOL0     C90960   7.569   9.051   8.811  0.1264  0.1766  0.5279
  660MOL0     C90961   7.623   9.148   8.890  0.5280  0.1992  0.5809
  660MOL0     C90962   7.673   9.273   8.825 -0.3147  0.3685  0.6013
  660MOL0     C90963   7.815   9.245   8.771  0.3924 -0.1061  0.3248
  660MOL0     C90964   7.932   9.229   8.865  0.3844 -0.4014  0.2504
  660MOL0     C90965   7.990   9.358   8.920 -0.4624  0.5875  0.6055
  660MOL0     O90966   8.085   9.336   9.024 -0.6234  0.6992 -0.1860
  660MOL0     C90967   8.224   9.327   8.990  0.7016  0.7341  0.6736
  660MOL0     C90968   8.297   9.303   9.098 -0.4271 -0.2163  0.0538
  660MOL0     C90969   8.437   9.277   9.091  0.0701  0.1116 -0.3934
  660MOL0     C90970   8.512   9.237   9.223  0.8859  0.1246  0.2691
  660MOL0     C90971   8.501   9.285   8.966 -0.2794  0.4844  0.2695
  660MOL0     C90972   8.644   9.277   8.934  0.4607  0.3297 -0.4505
  660MOL0     O90973   8.696   9.321   8.812 -0.8882 -0.2201 -0.2363
  660MOL0     C90974   8.835   9.339   8.792  0.2957 -0.5045 -0.9592
  660MOL0     C90975   8.936   9.258   8.843  0.3384  0.2357  1.1683
  660MOL0     C90976   9.075   9.293   8.816 -0.7403 -0.6778  0.6012
  660MOL0     C90977   9.102   9.402   8.722  0.6110  0.0079 -0.1376
  660MOL0     O90978   9.226   9.448   8.694 -0.1572  0.1260 -0.7492
  660MOL0     C90979   9.312   9.355   8.623  0.2818 -0.1717 -1.1908
  660MOL0     C90980   9.407   9.438   8.536  0.3142  0.1595  0.0044
  660MOL0     C90981   9.494   9.343   8.453 -1.1963 -0.2757  0.2514
  660MOL0     C90982   9.612   9.422   8.388 -0.3781 -0.3460 -0.6554
  660MOL0     C90983   9.714   9.344   8.313 -0.3349 -0.2701  0.3310
  660MOL0     C90984   9.827   9.424   8.253 -0.0325  0.9655  0.0321
  660MOL0     C90985   9.930   9.476   8.349  0.1389  0.0111  0.4196
  660MOL0     C90986   9.921   9.621   8.363 -0.5405 -1.0565  1.0196
  660MOL0    Cl90987  10.097   9.674   8.399 -0.3179 -0.0275  0.2872
  660MOL0     C90988   8.995   9.472   8.667 -0.5849  0.4650  0.1024
  660MOL0     C90989   8.868   9.441   8.707  0.4870 -0.3737  0.3998
  660MOL0     O90990   8.710   9.235   9.020 -0.3270  0.7523 -0.3599
  660MOL0     C90991   8.430   9.329   8.852 -0.8140  1.0133  0.4110
  660MOL0     C90992   8.291   9.343   8.872 -0.0225  0.3281  0.1708
  660MOL0     N90993   7.646   9.090   9.014  0.1982 -0.0327  0.4035
  660MOL0     N90994   7.590   8.973   9.009  0.6852 -0.0364  0.0108
  660MOL0     C90995   6.365   9.034   8.959 -0.3559 -0.5631 -0.9966
  660MOL0     C90996   6.222   9.029   8.966 -0.0649 -0.3337 -1.3098
  660MOL0     C90997   5.809   9.006   9.208  0.3542 -0.2473 -0.1450
  660MOL0     C90998   5.738   9.041   9.090  0.6775 -0.4745 -0.7257
  660MOL0     C90999   5.606   9.017   9.077 -0.5767  0.1255 -0.5639
  660MOL0     C91000   5.534   8.979   9.185 -0.5518  0.5751 -0.4919
  660MOL0     O91001   5.399   8.974   9.146 -0.0243 -0.0669 -0.3979
  660MOL0     C91002   5.296   8.939   9.244 -1.1466  0.1190 -0.5291
  660MOL0     C91003   5.265   8.792   9.239  0.3118 -0.3674  0.5280
  660MOL0     C91004   5.144   8.742   9.308 -0.2851  0.8344  0.3999
  660MOL0     C91005   5.111   8.592   9.274  1.2678  0.6630 -0.7073
  660MOL0     C91006   4.966   8.560   9.282  0.2974 -0.8364 -0.0580
  660MOL0     C91007   4.847   8.524   9.292 -0.0768 -1.0062  0.0347
  660MOL0     C91008   5.597   8.957   9.310  0.0863 -0.4744 -0.2352
  660MOL0     C91009   5.735   8.968   9.318  0.5878 -0.0111 -1.0370
  660MOL0     C91010   5.785   8.937   9.464  0.3130  0.3603 -0.5061
  660MOL0     H91011   6.197   8.859   9.260  3.2000  1.7671  1.9880
  660MOL0     H91012   6.437   8.843   9.227  2.1420 -0.0783 -1.2696
  660MOL0     H91013   6.666   8.808   9.110  2.4825 -0.0517 -1.1221
  660MOL0     H91014   6.630   8.929   9.240  1.5254  0.6809  0.4818
  660MOL0     H91015   6.833   9.051   9.149  2.7759 -0.4804  0.0456
  660MOL0     H91016   6.858   8.888   9.202  1.3197  0.9930 -0.1188
  660MOL0     H91017   6.845   8.815   8.948 -0.3864 -0.7706  2.4155
  660MOL0     H91018   6.833   8.987   8.919  2.0542  1.1063  1.4621
  660MOL0     H91019   7.062   9.025   9.008  1.0472 -0.2895  2.5870
  660MOL0     H91020   7.058   8.874   9.098 -0.1792 -0.5511  0.5475
  660MOL0     H91021   7.066   8.921   8.793 -1.9448 -1.1195 -0.1147
  660MOL0     H91022   7.065   8.760   8.858  2.0482  0.2369 -3.1270
  660MOL0     H91023   7.271   8.972   8.927 -0.7836  0.5266  0.8026
  660MOL0     H91024   7.261   8.809   9.002 -1.2600 -0.5379 -0.5330
  660MOL0     H91025   7.362   8.869   8.705  2.2571 -0.7595 -0.2604
  660MOL0     H91026   7.317   8.710   8.774  1.5793 -0.9165 -1.3521
  660MOL0     H91027   7.511   8.736   8.930 -1.4879  1.0271  0.6483
  660MOL0     H91028   7.548   8.757   8.762  0.2427  3.5382 -1.9768
  660MOL0     H91029   7.554   9.059   8.704 -0.6875 -2.0075  0.4189
  660MOL0     H91030   7.677   9.355   8.896 -0.0488  1.8823 -1.0844
  660MOL0     H91031   7.611   9.302   8.739  0.7799  0.2629 -0.2538
  660MOL0     H91032   7.800   9.158   8.706  0.7030  1.4521 -1.9248
  660MOL0     H91033   7.839   9.323   8.699  0.7196 -2.0294 -1.7723
  660MOL0     H91034   7.914   9.162   8.950  2.9946 -0.9928  0.4229
  660MOL0     H91035   8.016   9.182   8.812  0.9070 -1.6944  2.1045
  660MOL0     H91036   8.035   9.410   8.835 -0.7184 -0.0519  0.0708
  660MOL0     H91037   7.914   9.420   8.969 -0.7379 -1.9214  3.7344
  660MOL0     H91038   8.247   9.307   9.194 -0.2573  0.4096  0.1221
  660MOL0     H91039   8.445   9.268   9.304 -1.1819 -1.4326 -0.7540
  660MOL0     H91040   8.610   9.285   9.237 -0.1179  1.9909  1.3157
  660MOL0     H91041   8.521   9.128   9.220  0.8948  0.1548 -1.0067
  660MOL0     H91042   8.918   9.182   8.919  0.0927  1.6483  2.5899
  660MOL0     H91043   9.150   9.237   8.871  0.4166  1.1930  1.0208
  660MOL0     H91044   9.375   9.298   8.692  1.4308  2.2569 -0.1083
  660MOL0     H91045   9.262   9.285   8.556 -2.5488 -0.5561  1.1737
  660MOL0     H91046   9.354   9.502   8.466 -1.2304 -1.9390 -0.8640
  660MOL0     H91047   9.475   9.499   8.595 -0.1059  0.5953  0.0418
  660MOL0     H91048   9.429   9.300   8.376 -1.6485 -2.3057  1.7069
  660MOL0     H91049   9.535   9.257   8.507  0.6748  0.7915  0.6254
  660MOL0     H91050   9.670   9.470   8.468  1.0693 -2.6689 -0.2176
  660MOL0     H91051   9.574   9.496   8.317 -0.5419 -3.0746 -3.5980
  660MOL0     H91052   9.750   9.275   8.390  1.7402 -1.3838 -1.5031
  660MOL0     H91053   9.667   9.285   8.234 -1.5082  2.0583 -0.8196
  660MOL0     H91054   9.792   9.499   8.182  0.8938  0.7879 -0.6234
  660MOL0     H91055   9.888   9.356   8.193 -0.2346 -0.1848  1.0842
  660MOL0     H91056  10.032   9.452   8.316  1.5389  4.7378  0.5058
  660MOL0     H91057   9.912   9.430   8.446 -0.7625  1.4404  0.9577
  660MOL0     H91058   9.852   9.653   8.442 -2.1172  1.0240 -1.0778
  660MOL0     H91059   9.886   9.683   8.280 -0.3842  1.2096  2.5582
  660MOL0     H91060   9.019   9.564   8.615  0.2548  0.4266  0.4058
  660MOL0     H91061   8.786   9.502   8.669  0.8892 -0.6104 -0.9079
  660MOL0     H91062   8.464   9.340   8.750 -1.9143 -0.7777 -0.1950
  660MOL0     H91063   8.225   9.372   8.790 -2.1504  0.4529  1.8343
  660MOL0     H91064   6.412   9.097   8.884 -0.4927  4.0655  2.3643
  660MOL0     H91065   6.165   9.086   8.894  1.1846  0.8843 -1.3915
  660MOL0     H91066   5.795   9.082   9.007  0.2748  0.7530 -0.4153
  660MOL0     H91067   5.554   9.032   8.983 -1.8129  3.4535  0.4843
  660MOL0     H91068   5.315   8.976   9.345  1.0333 -0.5028 -0.6565
  660MOL0     H91069   5.207   8.996   9.216 -1.7997 -0.0068  1.2156
  660MOL0     H91070   5.344   8.730   9.284  1.0675  0.0354 -0.2250
  660MOL0     H91071   5.262   8.776   9.131  0.7354 -0.3974  0.5164
  660MOL0     H91072   5.170   8.741   9.415 -0.9459 -2.4448  0.6385
  660MOL0     H91073   5.057   8.806   9.293 -0.2671  0.9347  0.7154
  660MOL0     H91074   5.167   8.525   9.340 -0.7183  0.6315  1.0503
  660MOL0     H91075   5.139   8.567   9.171  0.8204  0.3836 -0.7670
  660MOL0     H91076   4.750   8.486   9.315  0.0746 -2.0997 -1.0449
  660MOL0     H91077   5.540   8.920   9.395  3.1852 -0.1812  2.1615
  660MOL0     H91078   5.890   8.909   9.477  0.1018 -0.7938 -1.1298
  660MOL0     H91079   5.769   9.030   9.519 -2.1324 -1.0212  1.3075
  660MOL0     H91080   5.727   8.858   9.511  0.5083  0.4424 -0.1277
  661MOL0     O91081  10.525   3.159   4.026 -0.1130 -0.4494 -0.4445
  661MOL0     C91082  10.451   3.264   4.030  0.5106  1.1749 -0.1085
  661MOL0     O91083  10.494   3.391   4.053  0.3894 -0.1745 -0.3374
  661MOL0     C91084  10.632   3.416   4.072  0.7491 -0.1435 -0.2022
  661MOL0     C91085  10.700   3.501   3.988  0.2503 -0.4065 -0.2310
  661MOL0     C91086  10.840   3.525   3.998  1.2103 -0.5153  0.5718
  661MOL0     C91087  10.909   3.456   4.098 -0.0765  0.0139 -0.4644
  661MOL0     O91088  11.042   3.473   4.130  0.4099  1.0219  0.3847
  661MOL0     C91089  11.141   3.480   4.024  0.0384  0.3134 -0.3744
  661MOL0     C91090  11.277   3.476   4.098 -0.2773  0.9749 -0.2191
  661MOL0     C91091  11.300   3.333   4.150  0.1834  0.2570 -0.7838
  661MOL0     C91092  11.442   3.321   4.201  0.3938  0.4700  0.0044
  661MOL0     C91093  11.497   3.178   4.231 -0.2071  0.4787  0.2711
  661MOL0     C91094  11.649   3.180   4.251 -0.1445 -0.3735  0.9861
  661MOL0     C91095  11.702   3.037   4.262 -0.4245  0.0741 -0.1244
  661MOL0     C91096  11.843   3.053   4.319 -0.2209  0.0694 -0.2386
  661MOL0     N91097  11.928   2.935   4.304 -0.5255 -0.2189 -0.9967
  661MOL0     C91098  11.892   2.807   4.343  0.0427  0.3138  0.2915
  661MOL0     C91099  12.010   2.745   4.360  0.5699  0.3339  0.3268
  661MOL0     C91100  12.022   2.603   4.421 -0.0058  0.0872  0.1079
  661MOL0     C91101  12.129   2.585   4.520 -0.2580  0.2417  0.6953
  661MOL0     C91102  12.095   2.464   4.603  0.7857 -0.1111  0.3736
  661MOL0     C91103  12.211   2.433   4.703  0.2412 -0.4577  0.7812
  661MOL0     O91104  12.343   2.438   4.641 -0.3299  0.0490  0.1639
  661MOL0     C91105  12.453   2.409   4.719  0.1632 -0.6399 -0.5380
  661MOL0     C91106  12.454   2.368   4.853 -0.1574  0.2326 -0.7677
  661MOL0     C91107  12.578   2.327   4.912  0.5506 -0.0999  0.1303
  661MOL0     C91108  12.552   2.260   5.046  0.6310 -0.2770 -0.5310
  661MOL0     C91109  12.701   2.330   4.839  0.3109  0.4748 -0.3128
  661MOL0     C91110  12.833   2.303   4.904  0.3646  0.3775 -0.4902
  661MOL0     O91111  12.936   2.293   4.820  0.0007 -0.1658  0.1294
  661MOL0     C91112  13.059   2.263   4.876 -0.0145  0.8545 -0.4408
  661MOL0     C91113  13.070   2.149   4.952 -0.5873  0.5322 -0.0127
  661MOL0     C91114  13.201   2.106   4.984  0.5310  0.4245 -1.0194
  661MOL0     C91115  13.316   2.162   4.919 -0.3005 -0.3072  0.5574
  661MOL0     O91116  13.430   2.088   4.932  0.3968  0.6687 -0.6009
  661MOL0     C91117  13.554   2.141   4.881  0.0660 -0.1872 -0.9438
  661MOL0     C91118  13.668   2.054   4.931  0.1252  0.6474  0.2691
  661MOL0     C91119  13.803   2.111   4.895 -0.2328  0.1740  0.0306
  661MOL0     C91120  13.926   2.028   4.941  0.7435 -0.5389  0.9191
  661MOL0     C91121  13.970   1.918   4.827  0.6069 -0.0518 -0.3147
  661MOL0     C91122  14.060   1.988   4.724 -0.3998  0.6237  0.7182
  661MOL0     C91123  14.106   1.875   4.623  0.0405  0.0316 -0.3321
  661MOL0     C91124  14.204   1.926   4.514 -0.0810  0.4129  0.0521
  661MOL0    Cl91125  14.225   1.801   4.393 -0.1705 -0.1086  0.2007
  661MOL0     C91126  13.295   2.283   4.860 -0.6872 -0.1776 -0.0402
  661MOL0     C91127  13.171   2.332   4.847 -0.8422 -0.4371  0.8956
  661MOL0     O91128  12.844   2.305   5.028 -0.3317 -0.3153  0.3386
  661MOL0     C91129  12.695   2.375   4.706 -0.6054  0.2475  0.4040
  661MOL0     C91130  12.576   2.418   4.652  0.2430  0.4120  0.0441
  661MOL0     N91131  12.115   2.835   4.330 -0.0516  0.1304  0.4616
  661MOL0     N91132  12.064   2.952   4.300  0.1403  0.2844  0.4754
  661MOL0     C91133  10.835   3.382   4.189 -0.6996  0.8813 -1.1309
  661MOL0     C91134  10.697   3.354   4.172 -0.5849  0.0701  0.1502
  661MOL0     C91135  10.302   3.243   4.014  0.8597 -0.1447  0.3426
  661MOL0     C91136  10.246   3.118   4.056 -0.5682 -0.3198 -0.2638
  661MOL0     C91137  10.113   3.090   4.018 -0.8515  0.3830  0.1330
  661MOL0     C91138  10.035   3.175   3.947  0.4574  0.7622 -0.5208
  661MOL0     O91139   9.901   3.138   3.922 -0.2557  0.7018 -0.2594
  661MOL0     C91140   9.814   3.229   3.855  0.3962  0.1547  0.8134
  661MOL0     C91141   9.671   3.154   3.859 -0.3527  0.0347 -0.2452
  661MOL0     C91142   9.607   3.126   4.003  0.3211 -0.2789  0.0197
  661MOL0     C91143   9.684   3.025   4.087  0.9116 -0.9674 -0.7129
  661MOL0     C91144   9.617   2.999   4.216  0.4252 -0.3807 -0.1928
  661MOL0     C91145   9.566   2.979   4.326 -0.2382  0.0312  0.4105
  661MOL0     C91146  10.090   3.297   3.913 -0.0494 -0.2112  0.6967
  661MOL0     C91147  10.218   3.339   3.937  0.6890  0.5304 -0.3624
  661MOL0     C91148  10.270   3.477   3.886  0.1123 -0.0592 -0.5174
  661MOL0     H91149  10.652   3.549   3.903  1.8996  0.5917 -0.6413
  661MOL0     H91150  10.885   3.587   3.921  1.5133 -1.4990 -0.0575
  661MOL0     H91151  11.122   3.575   3.974  1.8850  0.6878 -0.4526
  661MOL0     H91152  11.125   3.396   3.955 -0.0153  1.1004 -1.3441
  661MOL0     H91153  11.357   3.504   4.029  0.2126 -0.1752 -0.1444
  661MOL0     H91154  11.288   3.544   4.183  0.9821  1.4350 -0.7248
  661MOL0     H91155  11.225   3.296   4.220 -0.4242 -1.6376 -2.3319
  661MOL0     H91156  11.298   3.265   4.064 -2.2463  1.7293 -2.0021
  661MOL0     H91157  11.517   3.355   4.129 -1.5507 -1.1116 -3.0147
  661MOL0     H91158  11.453   3.377   4.294  2.3860 -0.3683  0.3180
  661MOL0     H91159  11.474   3.112   4.147  1.0220 -3.1805  2.6111
  661MOL0     H91160  11.441   3.149   4.320 -0.3304  0.7525  0.2831
  661MOL0     H91161  11.706   3.237   4.176 -2.1114 -1.3254 -1.3725
  661MOL0     H91162  11.658   3.233   4.346  1.6269  0.7903  0.2251
  661MOL0     H91163  11.702   2.976   4.172 -2.0508  2.0975 -1.5828
  661MOL0     H91164  11.630   2.983   4.325  0.8491 -1.1020  0.3829
  661MOL0     H91165  11.898   3.134   4.270  2.0674  0.7164  3.0727
  661MOL0     H91166  11.833   3.073   4.426  0.9096 -3.9065  0.7863
  661MOL0     H91167  11.798   2.758   4.366  0.8422 -0.5595  1.8228
  661MOL0     H91168  12.034   2.530   4.341 -1.8346 -2.2595  1.8271
  661MOL0     H91169  11.930   2.575   4.473  0.1817 -1.3899 -0.3168
  661MOL0     H91170  12.222   2.558   4.470 -0.2750  0.0355  0.7745
  661MOL0     H91171  12.142   2.673   4.583 -0.6882  0.4212  0.5366
  661MOL0     H91172  12.004   2.481   4.660  0.3215 -0.7374 -0.1688
  661MOL0     H91173  12.086   2.377   4.538  1.0886 -0.8554  1.3149
  661MOL0     H91174  12.210   2.498   4.791  0.0627 -1.4191  1.5086
  661MOL0     H91175  12.202   2.332   4.744  0.9899 -1.4031 -1.2621
  661MOL0     H91176  12.362   2.367   4.911  0.7055  1.5834  0.7023
  661MOL0     H91177  12.514   2.159   5.025 -1.5338  0.0833  1.2430
  661MOL0     H91178  12.480   2.322   5.101  2.0048  0.3507  0.5975
  661MOL0     H91179  12.634   2.252   5.117  1.7072  1.7624 -1.4493
  661MOL0     H91180  12.985   2.090   4.983 -1.6562  3.8756  4.3150
  661MOL0     H91181  13.204   2.027   5.059 -0.2969  1.1831 -0.1685
  661MOL0     H91182  13.554   2.146   4.772 -0.5210 -1.3043 -1.0127
  661MOL0     H91183  13.564   2.245   4.914 -1.4494  0.1848 -1.5662
  661MOL0     H91184  13.662   2.050   5.041  4.4052  0.6291  0.6743
  661MOL0     H91185  13.654   1.949   4.902  1.9109  0.2585  0.7145
  661MOL0     H91186  13.806   2.208   4.945 -0.0714  1.2269 -1.9272
  661MOL0     H91187  13.808   2.107   4.786  0.5941 -0.5961  0.0788
  661MOL0     H91188  13.895   1.965   5.024 -2.7739  2.3342  2.0271
  661MOL0     H91189  14.009   2.086   4.982 -0.1823 -0.1687  2.3445
  661MOL0     H91190  14.023   1.835   4.874 -2.5422  1.1564  6.6378
  661MOL0     H91191  13.881   1.883   4.773 -0.9107  0.4885  1.7284
  661MOL0     H91192  14.154   2.021   4.769  2.3050 -0.5150 -3.4890
  661MOL0     H91193  14.009   2.067   4.669  0.7045  0.7039 -0.2385
  661MOL0     H91194  14.017   1.836   4.572  0.4520  1.1228 -1.9911
  661MOL0     H91195  14.159   1.796   4.678  2.9933  1.4618 -0.9173
  661MOL0     H91196  14.291   1.953   4.575 -0.5655 -0.4211  1.1323
  661MOL0     H91197  14.171   2.015   4.459 -0.6308  0.1106 -0.1055
  661MOL0     H91198  13.375   2.349   4.826 -0.0419  0.1679  1.9944
  661MOL0     H91199  13.155   2.412   4.776 -1.5949 -1.4865 -0.1532
  661MOL0     H91200  12.779   2.365   4.639 -1.7021  0.0875 -1.0078
  661MOL0     H91201  12.566   2.457   4.551  0.6364 -0.1656 -0.2255
  661MOL0     H91202  10.886   3.339   4.275 -0.5708  2.1584 -0.5373
  661MOL0     H91203  10.656   3.290   4.250  2.5750 -0.4287  1.5467
  661MOL0     H91204  10.310   3.038   4.092 -2.4736 -3.0499 -2.4482
  661MOL0     H91205  10.066   2.996   4.044 -3.9709  1.2173 -1.9325
  661MOL0     H91206   9.803   3.325   3.906 -2.5422  0.9354 -1.0086
  661MOL0     H91207   9.851   3.251   3.754 -1.4713 -2.2715 -0.5313
  661MOL0     H91208   9.683   3.058   3.807 -2.4818  0.9787 -2.7306
  661MOL0     H91209   9.608   3.217   3.796  0.5675  0.4721 -0.7465
  661MOL0     H91210   9.593   3.216   4.064  3.5771  0.9415 -0.7843
  661MOL0     H91211   9.507   3.088   3.981  0.2428 -1.0716  1.6083
  661MOL0     H91212   9.786   3.054   4.114  0.9731 -0.4226 -1.5032
  661MOL0     H91213   9.694   2.928   4.037  1.9159  0.4528 -3.5019
  661MOL0     H91214   9.516   2.945   4.414 -0.7205  0.9710  0.5096
  661MOL0     H91215  10.028   3.375   3.870 -1.1201 -1.3610  0.1007
  661MOL0     H91216  10.261   3.555   3.961  1.7276  0.9806 -1.3617
  661MOL0     H91217  10.375   3.470   3.855  0.1114 -3.0222 -0.1332
  661MOL0     H91218  10.202   3.506   3.805 -0.3268 -0.1724 -0.1920
  662MOL0     O91219   6.145  10.228   1.213 -0.3024 -0.0117  0.1919
  662MOL0     C91220   6.245  10.241   1.288 -0.1674  0.0361  0.1849
  662MOL0     O91221   6.244  10.277   1.418 -0.0139  0.1294 -0.3543
  662MOL0     C91222   6.127  10.316   1.475 -0.3694  0.9373  0.2249
  662MOL0     C91223   6.069  10.443   1.446 -0.4359  0.4404  0.7433
  662MOL0     C91224   5.971  10.493   1.523  0.3144 -0.2294  0.4680
  662MOL0     C91225   5.934  10.424   1.639  0.5197 -0.0961 -0.5581
  662MOL0     O91226   5.845  10.482   1.734 -0.0716  0.2298 -0.2703
  662MOL0     C91227   5.862  10.619   1.770 -0.4983 -0.1465 -0.2493
  662MOL0     C91228   5.781  10.644   1.896  0.0094  0.7775  0.0095
  662MOL0     C91229   5.812  10.553   2.011  0.1943  0.2937 -0.4182
  662MOL0     C91230   5.822  10.624   2.154  0.1959 -0.4831 -0.8758
  662MOL0     C91231   5.887  10.522   2.251  0.0657  0.1039 -0.4291
  662MOL0     C91232   5.902  10.566   2.393 -0.4482 -0.2112  0.0303
  662MOL0     C91233   6.022  10.663   2.411  0.0965 -0.6179  0.5462
  662MOL0     C91234   6.146  10.591   2.409  0.1327  0.8890  1.0131
  662MOL0     N91235   6.260  10.667   2.383 -0.1440 -0.9490 -0.5316
  662MOL0     C91236   6.388  10.627   2.345 -0.5029  0.2584  0.0334
  662MOL0     C91237   6.445  10.744   2.299 -0.3090  1.0768 -0.7179
  662MOL0     C91238   6.577  10.727   2.226 -0.0213  0.0581  0.2320
  662MOL0     C91239   6.574  10.767   2.077  0.6947  0.0609  0.4830
  662MOL0     C91240   6.673  10.872   2.030 -0.1574  0.5711 -0.2622
  662MOL0     C91241   6.813  10.824   2.018 -0.1914 -0.5474  0.0479
  662MOL0     O91242   6.895  10.937   1.995 -0.4619 -0.0138  0.6212
  662MOL0     C91243   7.010  10.926   1.921 -0.0373 -0.0791 -0.1555
  662MOL0     C91244   7.081  10.814   1.895  0.6947 -0.2383 -0.3829
  662MOL0     C91245   7.182  10.814   1.796  0.2742 -0.4664 -0.3266
  662MOL0     C91246   7.252  10.688   1.776  0.0487 -0.4029 -0.2261
  662MOL0     C91247   7.208  10.931   1.726 -0.1282 -0.4128  0.4645
  662MOL0     C91248   7.317  10.951   1.622 -0.3329  0.4525  0.1556
  662MOL0     O91249   7.330  11.078   1.579 -0.4481 -0.3403  0.5066
  662MOL0     C91250   7.420  11.100   1.480  0.3766 -0.4197 -0.9360
  662MOL0     C91251   7.371  11.119   1.350 -0.3510 -0.2367 -0.2396
  662MOL0     C91252   7.456  11.166   1.252  0.0734 -0.5831  0.1925
  662MOL0     C91253   7.584  11.189   1.274 -0.3071  0.9342 -0.4483
  662MOL0     O91254   7.665  11.229   1.174  0.7993  0.5096 -0.2717
  662MOL0     C91255   7.810  11.239   1.182  0.2699 -0.5819 -0.0130
  662MOL0     C91256   7.861  11.372   1.248  0.9697  0.0935  0.2412
  662MOL0     C91257   8.008  11.366   1.275  0.4270  0.3730  0.6885
  662MOL0     C91258   8.069  11.507   1.269 -0.5305 -0.2568  0.1729
  662MOL0     C91259   8.218  11.507   1.302  0.1652  0.5584  0.1055
  662MOL0     C91260   8.309  11.433   1.206  0.0464 -0.2996 -1.2001
  662MOL0     C91261   8.459  11.416   1.241  0.1000 -0.2910  0.2067
  662MOL0     C91262   8.544  11.340   1.137  0.8825  0.0683 -0.6229
  662MOL0    Cl91263   8.557  11.160   1.175  0.3410 -0.4433  0.0944
  662MOL0     C91264   7.644  11.149   1.398  0.2884 -0.1563 -0.0115
  662MOL0     C91265   7.558  11.110   1.505  0.4015 -0.3197  0.2721
  662MOL0     O91266   7.390  10.855   1.589  0.1380  0.0055 -0.4117
  662MOL0     C91267   7.136  11.050   1.760 -0.1738  0.2165 -0.5271
  662MOL0     C91268   7.037  11.051   1.861 -0.6483 -0.3013  0.4851
  662MOL0     N91269   6.361  10.854   2.319  0.5612 -0.5915  0.2383
  662MOL0     N91270   6.247  10.804   2.361  0.7171  0.2199 -0.1296
  662MOL0     C91271   5.980  10.295   1.669  0.4652 -0.6790  0.0002
  662MOL0     C91272   6.068  10.238   1.578 -0.2241 -0.4615 -0.2750
  662MOL0     C91273   6.370  10.191   1.237  0.1239 -0.1877  0.1311
  662MOL0     C91274   6.372  10.083   1.147 -0.0565  0.2241  0.8193
  662MOL0     C91275   6.488  10.038   1.088  0.1329  0.2687  0.0003
  662MOL0     C91276   6.607  10.107   1.122 -0.0649 -0.4705  0.2031
  662MOL0     O91277   6.725  10.073   1.059  0.7009 -0.3986 -0.9448
  662MOL0     C91278   6.843  10.157   1.064 -0.2473  0.1726  0.1946
  662MOL0     C91279   6.969  10.082   1.006  0.1490 -0.3247  0.4675
  662MOL0     C91280   7.012   9.975   1.100  0.1254 -0.0536  0.8893
  662MOL0     C91281   7.116   9.884   1.047  0.5650  0.2593 -0.2945
  662MOL0     C91282   7.251   9.952   1.039  0.4447  0.6259 -0.3104
  662MOL0     C91283   7.368  10.000   1.048  0.2831 -0.7497  0.0705
  662MOL0     C91284   6.603  10.226   1.200 -0.0248 -0.2685 -0.1285
  662MOL0     C91285   6.489  10.260   1.263  0.3003 -0.1754 -1.1526
  662MOL0     C91286   6.498  10.383   1.354 -0.4021 -0.1761  0.3305
  662MOL0     H91287   6.113  10.495   1.362  1.5535 -2.9089 -0.4911
  662MOL0     H91288   5.919  10.581   1.488  0.3687 -0.9315 -1.5205
  662MOL0     H91289   5.812  10.684   1.697  0.9325 -1.3563 -2.4369
  662MOL0     H91290   5.968  10.644   1.780 -1.2162  2.9094  0.6893
  662MOL0     H91291   5.802  10.748   1.921  0.9979  0.8316 -0.9548
  662MOL0     H91292   5.676  10.633   1.868  0.1145  0.6960 -0.3568
  662MOL0     H91293   5.750  10.464   2.024  1.2735 -0.8260 -2.3740
  662MOL0     H91294   5.913  10.511   2.000  1.2707  0.9281  4.7048
  662MOL0     H91295   5.873  10.720   2.151 -2.1986  0.8622 -0.9486
  662MOL0     H91296   5.719  10.641   2.187 -0.0302 -3.2029  0.0766
  662MOL0     H91297   5.982  10.485   2.212  0.2080 -2.3131  1.8992
  662MOL0     H91298   5.814  10.440   2.257 -0.7664  0.5899 -2.7940
  662MOL0     H91299   5.819  10.623   2.436 -1.9967 -2.4669  0.2314
  662MOL0     H91300   5.921  10.487   2.467  3.2530 -0.8812 -1.4266
  662MOL0     H91301   6.005  10.716   2.505  1.3002 -2.2140  1.7379
  662MOL0     H91302   6.019  10.736   2.330  0.7707 -2.0586 -0.8503
  662MOL0     H91303   6.173  10.531   2.497  1.1893 -2.6228 -1.4713
  662MOL0     H91304   6.153  10.515   2.330  5.0516 -0.1047  2.0531
  662MOL0     H91305   6.420  10.524   2.357 -1.8506 -0.0956  0.8012
  662MOL0     H91306   6.604  10.622   2.243  3.6258  0.4546 -2.0889
  662MOL0     H91307   6.654  10.788   2.275 -0.8860 -0.3206  2.1609
  662MOL0     H91308   6.591  10.681   2.011 -2.8168 -0.4645  0.0981
  662MOL0     H91309   6.474  10.810   2.067 -0.1908 -1.6752  1.3720
  662MOL0     H91310   6.650  10.928   1.939  0.7087  2.1440  0.4511
  662MOL0     H91311   6.660  10.948   2.108 -1.5783 -1.5512  1.6852
  662MOL0     H91312   6.845  10.789   2.116 -0.2116 -0.1119  0.2099
  662MOL0     H91313   6.825  10.742   1.946 -1.4870  1.1415 -2.2318
  662MOL0     H91314   7.051  10.729   1.954  2.6647  0.7798  2.2855
  662MOL0     H91315   7.198  10.604   1.822  2.5078 -0.9895  1.8122
  662MOL0     H91316   7.348  10.697   1.827 -0.0736  1.9766 -0.3363
  662MOL0     H91317   7.262  10.655   1.672 -0.5628 -2.6291  0.3612
  662MOL0     H91318   7.264  11.103   1.336 -0.0502 -0.4206 -2.7675
  662MOL0     H91319   7.409  11.181   1.155 -2.7385  0.2643  1.5612
  662MOL0     H91320   7.851  11.160   1.246  1.7626 -0.0491 -0.2560
  662MOL0     H91321   7.854  11.229   1.082  0.4046 -0.0591 -0.0123
  662MOL0     H91322   7.834  11.449   1.175  1.0035  0.7394  0.8955
  662MOL0     H91323   7.797  11.382   1.336 -0.9558  0.0102 -1.0754
  662MOL0     H91324   8.054  11.297   1.203  1.0093 -0.7564  2.0609
  662MOL0     H91325   8.019  11.313   1.371  0.9072 -1.1021 -0.1344
  662MOL0     H91326   8.016  11.559   1.350 -0.1740 -0.2519  0.4043
  662MOL0     H91327   8.056  11.562   1.176  1.5133 -1.0441 -0.6250
  662MOL0     H91328   8.264  11.606   1.313  1.5367  0.0416 -0.6919
  662MOL0     H91329   8.229  11.459   1.400 -1.8349  2.2422  1.2462
  662MOL0     H91330   8.294  11.482   1.109  0.5222  0.6041 -0.8299
  662MOL0     H91331   8.268  11.332   1.205 -1.5185  0.3149 -0.9338
  662MOL0     H91332   8.464  11.358   1.334  1.0174 -1.2660 -0.4268
  662MOL0     H91333   8.509  11.512   1.253  1.6817 -1.1695  1.1053
  662MOL0     H91334   8.645  11.382   1.134 -0.1396  2.7277 -0.3406
  662MOL0     H91335   8.502  11.343   1.037 -1.7224  0.8546  0.4200
  662MOL0     H91336   7.750  11.158   1.421  0.2586 -2.9610  1.6805
  662MOL0     H91337   7.592  11.101   1.608 -1.2162  2.0931  1.0925
  662MOL0     H91338   7.156  11.150   1.721 -1.4293 -0.2723 -2.5741
  662MOL0     H91339   6.984  11.141   1.889  0.9503  0.7627  0.2312
  662MOL0     H91340   5.945  10.246   1.760  2.3651 -1.2158  0.4752
  662MOL0     H91341   6.125  10.147   1.597  2.2564  0.5154 -2.4168
  662MOL0     H91342   6.284  10.022   1.130  1.7714 -2.0836 -1.0250
  662MOL0     H91343   6.488   9.962   1.011  3.6845 -0.5530  0.6707
  662MOL0     H91344   6.824  10.249   1.008 -1.6357 -0.4642 -0.4541
  662MOL0     H91345   6.865  10.189   1.166 -3.3710 -0.3090  1.1350
  662MOL0     H91346   7.052  10.148   0.979 -0.8155  0.5753 -0.3987
  662MOL0     H91347   6.946  10.033   0.911 -1.5385 -0.5818  0.9814
  662MOL0     H91348   7.053  10.028   1.187 -0.5984  0.0727  1.1605
  662MOL0     H91349   6.927   9.917   1.137  0.2233  0.2735  1.6533
  662MOL0     H91350   7.092   9.850   0.946  0.9230 -0.5705 -0.1072
  662MOL0     H91351   7.124   9.796   1.111  2.0062  0.0808 -0.6793
  662MOL0     H91352   7.466  10.041   1.062 -0.3166  0.7057  0.1923
  662MOL0     H91353   6.693  10.284   1.221  0.2496  0.0066 -1.9374
  662MOL0     H91354   6.429  10.460   1.319  0.6490  0.3476 -0.6315
  662MOL0     H91355   6.474  10.353   1.457  0.3671  1.7452  1.1179
  662MOL0     H91356   6.596  10.431   1.354 -0.9561  0.9950 -1.3358
  663MOL0     O91357   4.950   0.525   0.770  0.0196 -0.8260 -0.0060
  663MOL0     C91358   4.936   0.436   0.858  0.0208  0.3247  0.4217
  663MOL0     O91359   5.031   0.395   0.936 -0.2755 -1.0629 -0.7790
  663MOL0     C91360   5.156   0.454   0.923  0.4826 -0.0892  0.4649
  663MOL0     C91361   5.261   0.365   0.888 -0.6824 -0.1470  0.8416
  663MOL0     C91362   5.390   0.414   0.883  0.1755 -0.6965  0.0973
  663MOL0     C91363   5.411   0.547   0.919  0.1475  0.4708 -0.0670
  663MOL0     O91364   5.535   0.607   0.902  0.5717 -0.1092 -0.1248
  663MOL0     C91365   5.657   0.525   0.900  0.3438  0.3502  0.3549
  663MOL0     C91366   5.670   0.454   1.035  0.6033 -0.0304  0.1080
  663MOL0     C91367   5.780   0.344   1.056  0.4642 -0.1964  0.6143
  663MOL0     C91368   5.906   0.432   1.075 -0.4668 -0.6963  0.0597
  663MOL0     C91369   6.025   0.344   1.083  0.0578 -0.2424  0.1729
  663MOL0     C91370   6.066   0.314   0.933 -0.5483 -0.1660 -0.1872
  663MOL0     C91371   6.207   0.252   0.926  0.8649 -0.2469 -0.2319
  663MOL0     C91372   6.267   0.268   0.787 -0.0167 -0.1860 -0.9419
  663MOL0     N91373   6.404   0.233   0.778 -0.1782 -0.0434 -0.2887
  663MOL0     C91374   6.498   0.223   0.881 -0.4343  0.0597  0.2548
  663MOL0     C91375   6.608   0.184   0.816 -0.0768  0.4375 -0.0577
  663MOL0     C91376   6.750   0.174   0.870 -0.4150  0.2664 -0.1492
  663MOL0     C91377   6.764   0.064   0.972 -0.0495 -0.2950 -0.3770
  663MOL0     C91378   6.742  -0.076   0.922  0.2020  0.2836  0.1196
  663MOL0     C91379   6.833  -0.120   0.808 -0.2965 -0.3037  0.9745
  663MOL0     O91380   6.958  -0.160   0.866  0.0766 -0.1461 -0.0063
  663MOL0     C91381   7.041  -0.062   0.905 -0.2576 -0.3844  0.0380
  663MOL0     C91382   7.091   0.038   0.819  0.8088 -0.4271  0.4961
  663MOL0     C91383   7.182   0.139   0.862  0.3181  0.4347 -0.2291
  663MOL0     C91384   7.226   0.237   0.753  0.8609  0.2108 -0.2670
  663MOL0     C91385   7.220   0.137   0.999  0.3926  0.6762 -0.3898
  663MOL0     C91386   7.324   0.221   1.066 -0.2800 -0.7420  0.6715
  663MOL0     O91387   7.368   0.330   0.996 -0.2918 -0.1205 -0.0489
  663MOL0     C91388   7.500   0.374   1.005  0.2633 -0.4634 -0.2076
  663MOL0     C91389   7.611   0.283   1.015  1.3730 -0.1319  1.2707
  663MOL0     C91390   7.742   0.341   1.004  0.2494  0.0941  0.0058
  663MOL0     C91391   7.762   0.474   0.991 -0.7801 -0.1345  0.2770
  663MOL0     O91392   7.881   0.549   0.971 -0.4470  1.1126 -0.2464
  663MOL0     C91393   8.006   0.476   0.990 -0.2146 -0.7421  0.0613
  663MOL0     C91394   8.127   0.572   1.008 -0.8495  0.1525  0.5404
  663MOL0     C91395   8.253   0.481   1.017 -0.9227 -0.8398 -0.4034
  663MOL0     C91396   8.376   0.576   1.043  0.2740  0.6868  0.6085
  663MOL0     C91397   8.499   0.489   1.048 -1.4029  0.7140 -0.2545
  663MOL0     C91398   8.626   0.569   1.088 -0.0540 -0.8196 -0.0758
  663MOL0     C91399   8.672   0.690   1.003  0.4568 -0.2872  0.2712
  663MOL0     C91400   8.801   0.751   1.053  0.5572  0.1136  0.1096
  663MOL0    Cl91401   8.826   0.898   0.956  0.7127 -0.2360 -0.1397
  663MOL0     C91402   7.656   0.567   0.989  0.2120 -0.3649 -0.5161
  663MOL0     C91403   7.527   0.513   0.994 -0.5622  0.1286  0.4726
  663MOL0     O91404   7.369   0.191   1.178 -0.0363 -0.1623 -0.1325
  663MOL0     C91405   7.175   0.029   1.085 -0.3072 -0.2060  0.2957
  663MOL0     C91406   7.081  -0.061   1.041 -0.3890 -0.6855  0.4435
  663MOL0     N91407   6.579   0.164   0.682  0.0750  0.1832  0.1198
  663MOL0     N91408   6.453   0.186   0.663 -0.0938 -0.0473  0.3346
  663MOL0     C91409   5.299   0.635   0.956 -1.2345 -0.1543 -0.0991
  663MOL0     C91410   5.171   0.586   0.951 -1.5041 -1.0940 -0.0682
  663MOL0     C91411   4.801   0.366   0.864  0.1370  0.3144  0.0830
  663MOL0     C91412   4.793   0.246   0.926  0.8929  0.3498 -0.4980
  663MOL0     C91413   4.674   0.184   0.946  0.3606  0.3437 -0.6636
  663MOL0     C91414   4.546   0.233   0.897  0.4576 -0.6957 -0.3753
  663MOL0     O91415   4.422   0.163   0.906 -0.1308 -0.1592  0.4690
  663MOL0     C91416   4.424   0.018   0.914  0.3174  0.1157  0.0096
  663MOL0     C91417   4.287  -0.047   0.880  0.1635 -0.7177  0.4076
  663MOL0     C91418   4.277  -0.193   0.933  0.6298 -0.3288  0.5949
  663MOL0     C91419   4.143  -0.249   0.868 -0.0851 -0.2134  0.1467
  663MOL0     C91420   4.178  -0.273   0.725 -1.0907 -0.1364 -0.0636
  663MOL0     C91421   4.210  -0.295   0.610  0.1422  0.3933 -0.0113
  663MOL0     C91422   4.560   0.358   0.840  0.4945 -0.7755  0.6270
  663MOL0     C91423   4.683   0.431   0.824 -0.0876 -0.4064  0.0555
  663MOL0     C91424   4.663   0.572   0.773 -0.9440  0.2778  0.4340
  663MOL0     H91425   5.235   0.264   0.857 -0.8245  0.2246 -0.3121
  663MOL0     H91426   5.471   0.346   0.859 -0.4153 -0.6105 -2.3299
  663MOL0     H91427   5.735   0.598   0.878  0.7758 -0.9031 -2.7973
  663MOL0     H91428   5.654   0.455   0.816 -2.5933 -0.1073  0.7567
  663MOL0     H91429   5.665   0.526   1.117 -2.2020  0.4235 -0.3892
  663MOL0     H91430   5.588   0.384   1.052  0.8094  0.0353  1.4804
  663MOL0     H91431   5.761   0.281   1.143 -2.8797  1.2979  1.1483
  663MOL0     H91432   5.777   0.274   0.972 -0.5783 -2.6505  2.5642
  663MOL0     H91433   5.909   0.507   0.995  4.8113  0.1620  0.6808
  663MOL0     H91434   5.892   0.489   1.167  0.6668  0.0573 -0.2132
  663MOL0     H91435   5.999   0.247   1.125  1.6214 -1.3447 -1.3000
  663MOL0     H91436   6.105   0.387   1.144 -0.5494 -0.5679  1.2352
  663MOL0     H91437   5.992   0.249   0.886 -2.2502 -0.3571  2.5402
  663MOL0     H91438   6.061   0.405   0.874 -3.2081 -1.2319 -1.7630
  663MOL0     H91439   6.207   0.149   0.964 -0.0996 -0.5686 -1.0703
  663MOL0     H91440   6.265   0.308   1.000  0.4674  0.7312 -0.6577
  663MOL0     H91441   6.196   0.227   0.716 -0.1169 -2.1589  0.2246
  663MOL0     H91442   6.277   0.376   0.772  2.1536 -0.1379  0.3105
  663MOL0     H91443   6.492   0.241   0.988  0.5938  1.5944  0.0847
  663MOL0     H91444   6.774   0.270   0.914  1.1522 -0.6395  1.0442
  663MOL0     H91445   6.825   0.159   0.792 -1.5321  1.3493 -1.4818
  663MOL0     H91446   6.845   0.084   1.043 -0.2419 -0.3245 -0.1432
  663MOL0     H91447   6.676   0.078   1.037 -0.9403 -1.7172 -1.2269
  663MOL0     H91448   6.756  -0.143   1.008  3.7802  2.2501  1.2668
  663MOL0     H91449   6.638  -0.077   0.887  0.3212  2.2672 -0.3914
  663MOL0     H91450   6.783  -0.196   0.748 -1.2104 -0.5910  2.0601
  663MOL0     H91451   6.841  -0.043   0.730  0.4923 -1.7019 -0.3801
  663MOL0     H91452   7.083   0.023   0.711  0.9021  0.9332  0.2740
  663MOL0     H91453   7.333   0.257   0.767  0.0078  4.2686  2.1959
  663MOL0     H91454   7.171   0.328   0.779 -0.4834 -0.5024 -0.5268
  663MOL0     H91455   7.196   0.214   0.650 -2.3867 -2.2937  1.0782
  663MOL0     H91456   7.595   0.176   1.012  1.0911 -0.0891 -2.1524
  663MOL0     H91457   7.828   0.275   1.013  1.0381  1.2649  1.8748
  663MOL0     H91458   7.991   0.410   1.077 -0.6167 -1.2329 -0.3704
  663MOL0     H91459   8.024   0.426   0.895  3.4364  3.0120 -1.5236
  663MOL0     H91460   8.136   0.640   0.923  1.0385  0.1949  0.7281
  663MOL0     H91461   8.109   0.628   1.100 -0.3985 -0.0093  0.7310
  663MOL0     H91462   8.272   0.417   0.930 -1.6503 -0.8680 -0.5476
  663MOL0     H91463   8.254   0.421   1.109 -0.4312  1.8375  1.4615
  663MOL0     H91464   8.363   0.617   1.143 -2.7029  0.4222  0.4238
  663MOL0     H91465   8.391   0.645   0.960  0.3680  0.4366  0.4152
  663MOL0     H91466   8.479   0.392   1.095 -1.0938 -0.2378 -1.9936
  663MOL0     H91467   8.525   0.449   0.949 -1.5808  0.0461 -0.0397
  663MOL0     H91468   8.712   0.501   1.097  0.3768 -0.2186  0.3745
  663MOL0     H91469   8.604   0.614   1.185  3.0989  1.5694 -0.3185
  663MOL0     H91470   8.591   0.762   1.016  0.3486  0.4333 -3.3199
  663MOL0     H91471   8.679   0.676   0.895  2.6889  1.9142  0.0547
  663MOL0     H91472   8.884   0.686   1.025  0.2615  0.4477 -1.6408
  663MOL0     H91473   8.784   0.780   1.157  0.8646  1.6957 -0.2427
  663MOL0     H91474   7.665   0.674   0.998  1.6081 -0.5590  0.6359
  663MOL0     H91475   7.445   0.583   0.988  0.0164  0.8303  0.6285
  663MOL0     H91476   7.201   0.019   1.190  1.7230 -2.1576 -0.3335
  663MOL0     H91477   7.025  -0.133   1.100 -1.0503 -0.3405  0.2509
  663MOL0     H91478   5.336   0.735   0.974  1.6683 -0.5610 -2.9261
  663MOL0     H91479   5.086   0.653   0.965  0.7260  2.1561 -0.8329
  663MOL0     H91480   4.878   0.196   0.972  0.3786 -0.5265 -0.4783
  663MOL0     H91481   4.690   0.085   0.987 -1.3342  0.9092  1.5620
  663MOL0     H91482   4.496  -0.029   0.847 -3.2415 -3.6980 -1.5872
  663MOL0     H91483   4.441  -0.013   1.017 -1.6426 -1.7499 -0.1479
  663MOL0     H91484   4.273  -0.052   0.772  1.3347 -1.0365  0.2516
  663MOL0     H91485   4.209   0.018   0.920  1.4845  0.3976  1.2756
  663MOL0     H91486   4.364  -0.247   0.894  0.7175  0.7372 -0.7695
  663MOL0     H91487   4.272  -0.198   1.042 -0.6968 -2.5523  0.5126
  663MOL0     H91488   4.064  -0.173   0.864 -1.4542 -1.6008  0.0467
  663MOL0     H91489   4.106  -0.336   0.924  1.0535 -0.8570 -0.0642
  663MOL0     H91490   4.249  -0.308   0.511  0.2324 -0.6730  0.1523
  663MOL0     H91491   4.472   0.403   0.795  1.0651  0.6316  0.8587
  663MOL0     H91492   4.560   0.603   0.796 -1.4998 -0.8213 -0.4435
  663MOL0     H91493   4.729   0.632   0.836 -0.4983  1.9863 -1.5697
  663MOL0     H91494   4.686   0.598   0.670  0.8661  0.4819  0.8553
  664MOL0     O91495   3.151   5.187   8.883  0.5628  0.1649 -0.4935
  664MOL0     C91496   3.117   5.077   8.922  0.5702 -0.7554  0.9352
  664MOL0     O91497   3.186   4.991   9.004 -0.7487  0.1867  0.7247
  664MOL0     C91498   3.310   5.027   9.046 -0.1127 -0.1172 -0.4417
  664MOL0     C91499   3.421   5.060   8.958 -0.2646 -0.2100 -0.2784
  664MOL0     C91500   3.539   5.106   9.015 -0.0702 -0.4668 -0.5798
  664MOL0     C91501   3.553   5.127   9.157  0.1572  0.4552 -0.4171
  664MOL0     O91502   3.676   5.180   9.195  0.3799 -0.3645  0.6859
  664MOL0     C91503   3.687   5.236   9.328 -0.1209  0.5299  0.3722
  664MOL0     C91504   3.606   5.367   9.339 -0.2660  0.5034 -0.4539
  664MOL0     C91505   3.637   5.453   9.463 -0.3412 -0.3536  0.2547
  664MOL0     C91506   3.769   5.535   9.470 -0.1591  0.0412  0.5938
  664MOL0     C91507   3.812   5.564   9.618 -0.0914  0.5009 -0.8945
  664MOL0     C91508   3.722   5.652   9.690 -0.4348 -0.8627 -1.5302
  664MOL0     C91509   3.746   5.801   9.650 -0.2571 -0.1099  0.3018
  664MOL0     C91510   3.676   5.904   9.740  0.0616 -0.8729 -0.1208
  664MOL0     N91511   3.539   5.864   9.780  0.2578 -0.0431 -0.1106
  664MOL0     C91512   3.512   5.795   9.893 -0.9070  0.4933  0.4406
  664MOL0     C91513   3.386   5.758   9.881  0.9040 -0.5811  0.5938
  664MOL0     C91514   3.320   5.687   9.995 -0.2706 -0.2927 -0.1876
  664MOL0     C91515   3.237   5.567   9.936  0.7238  0.6592 -1.1488
  664MOL0     C91516   3.155   5.493  10.042 -0.6622  0.1505  0.2625
  664MOL0     C91517   3.243   5.406  10.133 -0.4150  0.8587 -0.3070
  664MOL0     O91518   3.301   5.298  10.053 -0.0411  0.0352 -0.1253
  664MOL0     C91519   3.373   5.204  10.113 -0.5769  0.4742 -0.2187
  664MOL0     C91520   3.448   5.225  10.227 -0.9027 -0.1447  0.2447
  664MOL0     C91521   3.534   5.135  10.283 -0.0128  1.0755  0.4923
  664MOL0     C91522   3.633   5.182  10.390  0.2928  0.2358  0.0435
  664MOL0     C91523   3.546   5.006  10.230 -0.0659 -0.7414  1.2858
  664MOL0     C91524   3.645   4.915  10.281 -0.2948 -0.5629 -0.3909
  664MOL0     O91525   3.722   4.837  10.195 -0.1756 -0.9075 -0.5445
  664MOL0     C91526   3.781   4.727  10.255  0.1215  0.2319  0.4257
  664MOL0     C91527   3.916   4.734  10.291 -0.6767  0.1977 -0.3867
  664MOL0     C91528   3.978   4.635  10.367 -0.5238 -0.5970  0.5443
  664MOL0     C91529   3.910   4.518  10.390 -0.1878  0.5297 -0.1223
  664MOL0     O91530   3.973   4.422  10.468 -0.9143 -0.1890 -0.5527
  664MOL0     C91531   3.908   4.298  10.503  0.2911  1.0699  0.0824
  664MOL0     C91532   3.977   4.258  10.626  1.1302 -0.0106  0.4113
  664MOL0     C91533   3.936   4.113  10.656 -0.6439 -0.7181 -0.0356
  664MOL0     C91534   4.012   4.070  10.779  1.3930 -0.6533  0.7015
  664MOL0     C91535   3.954   3.942  10.824  0.2676  0.5913 -0.3166
  664MOL0     C91536   4.047   3.893  10.926  0.3850 -0.5840 -0.1732
  664MOL0     C91537   4.011   3.752  10.983  0.3488 -0.3789  0.4485
  664MOL0     C91538   4.109   3.706  11.093  0.3075 -0.5218 -0.0190
  664MOL0    Cl91539   4.266   3.664  11.013  0.1536  0.4118  0.5284
  664MOL0     C91540   3.779   4.506  10.345  0.8177 -0.2915  0.7757
  664MOL0     C91541   3.705   4.613  10.285  0.3853 -0.1726 -0.4203
  664MOL0     O91542   3.642   4.897  10.405  0.0957 -0.0569 -0.4756
  664MOL0     C91543   3.474   4.984  10.110  0.1471  0.4605  0.2796
  664MOL0     C91544   3.396   5.081  10.048  0.0358 -0.4281  0.6434
  664MOL0     N91545   3.335   5.817   9.764  0.1259  1.1163 -0.2248
  664MOL0     N91546   3.429   5.880   9.705  0.6873 -0.1563 -0.3220
  664MOL0     C91547   3.449   5.086   9.240  0.1147  0.6056 -0.1905
  664MOL0     C91548   3.333   5.035   9.187 -0.2319 -0.0260  0.7238
  664MOL0     C91549   2.996   5.026   8.855  0.5032  0.1662 -0.1164
  664MOL0     C91550   2.901   4.961   8.937 -0.9207 -0.0229 -0.3582
  664MOL0     C91551   2.778   4.917   8.878  0.2600  0.7375  0.2136
  664MOL0     C91552   2.747   4.947   8.743  0.1160  0.1290 -1.3426
  664MOL0     O91553   2.627   4.902   8.694 -0.3224  0.1374  0.4290
  664MOL0     C91554   2.595   4.905   8.555  0.4461 -0.7056 -0.1983
  664MOL0     C91555   2.533   5.044   8.509 -0.3330  0.2071  0.1358
  664MOL0     C91556   2.461   5.116   8.623 -0.1765  0.4866  1.1516
  664MOL0     C91557   2.322   5.055   8.654 -0.0743  0.4392  1.0112
  664MOL0     C91558   2.233   5.107   8.544 -1.1980 -0.2241 -0.2919
  664MOL0     C91559   2.173   5.134   8.444  0.3268  0.2342 -0.3565
  664MOL0     C91560   2.849   4.992   8.662  0.2158 -0.2078  0.0697
  664MOL0     C91561   2.966   5.030   8.717  0.3284 -0.3477 -0.6281
  664MOL0     C91562   3.080   5.073   8.622  0.2544 -0.0623 -0.5898
  664MOL0     H91563   3.404   5.055   8.851 -0.1985  3.6886 -0.5911
  664MOL0     H91564   3.619   5.136   8.948 -3.1156 -0.2217 -4.4903
  664MOL0     H91565   3.789   5.273   9.342 -0.8671  2.5577  0.8309
  664MOL0     H91566   3.647   5.166   9.402 -1.4015 -0.9339 -1.5787
  664MOL0     H91567   3.616   5.414   9.241 -1.3647 -1.1171 -1.3926
  664MOL0     H91568   3.500   5.343   9.338  0.1809 -1.8816  0.8746
  664MOL0     H91569   3.551   5.521   9.464  1.6527  2.2981  0.9951
  664MOL0     H91570   3.621   5.395   9.555 -1.1062 -0.3587  0.1230
  664MOL0     H91571   3.854   5.480   9.430 -1.1742 -0.0950 -1.4961
  664MOL0     H91572   3.755   5.623   9.406  0.2772  0.1875  0.6998
  664MOL0     H91573   3.911   5.611   9.611 -1.2788  3.1424 -1.1922
  664MOL0     H91574   3.830   5.468   9.667 -0.2234 -1.0239 -3.6378
  664MOL0     H91575   3.615   5.637   9.673  0.0155 -1.3201 -4.3631
  664MOL0     H91576   3.740   5.637   9.797  3.0457  0.7231 -1.7509
  664MOL0     H91577   3.696   5.805   9.553 -3.5262  1.5616  1.8579
  664MOL0     H91578   3.853   5.817   9.632  0.6239 -2.6030  2.6271
  664MOL0     H91579   3.739   5.922   9.828  0.7731 -1.0724 -0.5826
  664MOL0     H91580   3.670   5.998   9.685 -1.3014 -1.7058 -1.4856
  664MOL0     H91581   3.590   5.770   9.964  0.4576 -2.4019 -1.8403
  664MOL0     H91582   3.251   5.756  10.045 -2.0988 -3.3970  1.8567
  664MOL0     H91583   3.399   5.651  10.061  0.0087 -1.0138 -0.8925
  664MOL0     H91584   3.163   5.599   9.862 -0.9298 -0.2822  0.0310
  664MOL0     H91585   3.305   5.496   9.888  0.2482 -2.2262  2.0233
  664MOL0     H91586   3.102   5.569  10.100  0.4445  1.2185 -0.0730
  664MOL0     H91587   3.077   5.422  10.014 -2.3646  1.4087  1.6215
  664MOL0     H91588   3.325   5.468  10.168  0.1484 -0.3555  0.6004
  664MOL0     H91589   3.174   5.369  10.210 -1.8694  1.5517 -1.2462
  664MOL0     H91590   3.459   5.322  10.274 -1.1906  0.4556 -0.8745
  664MOL0     H91591   3.593   5.131  10.479 -0.1568 -0.4113 -0.5131
  664MOL0     H91592   3.645   5.288  10.414  1.3770  0.5096 -1.6041
  664MOL0     H91593   3.735   5.143  10.386  0.0647 -0.4313  0.4414
  664MOL0     H91594   3.962   4.831  10.275 -1.6531  1.0634  1.6548
  664MOL0     H91595   4.078   4.629  10.406 -1.2992 -2.1950  2.4244
  664MOL0     H91596   3.799   4.304  10.515  0.4637  1.1217  1.9662
  664MOL0     H91597   3.920   4.223  10.425  0.3669  3.5166 -2.4316
  664MOL0     H91598   4.081   4.257  10.595  1.0508 -2.7251  0.0141
  664MOL0     H91599   3.970   4.329  10.709  1.2457  0.9300 -0.3566
  664MOL0     H91600   3.951   4.048  10.569 -0.7222  0.2828 -0.8079
  664MOL0     H91601   3.830   4.100  10.682 -0.8724  0.6026 -0.2325
  664MOL0     H91602   4.003   4.151  10.852 -0.6516 -0.4531  0.2848
  664MOL0     H91603   4.120   4.070  10.762  1.2630  1.2202 -0.4046
  664MOL0     H91604   3.854   3.951  10.868 -0.1404  0.1225 -1.1259
  664MOL0     H91605   3.948   3.870  10.743  0.1465  0.0996  0.1258
  664MOL0     H91606   4.062   3.976  10.996 -1.4864  0.8993 -1.4374
  664MOL0     H91607   4.138   3.886  10.866 -0.5704  1.6459 -2.0070
  664MOL0     H91608   4.007   3.687  10.895  0.5492  1.7323 -1.2345
  664MOL0     H91609   3.912   3.768  11.027  0.5497  1.6091  0.2623
  664MOL0     H91610   4.066   3.622  11.148  1.7600  0.7013  3.2006
  664MOL0     H91611   4.118   3.789  11.163 -5.4162 -1.2447  2.1440
  664MOL0     H91612   3.745   4.405  10.327  1.1240  0.1846 -3.5309
  664MOL0     H91613   3.602   4.608  10.249 -0.1042  1.7235  0.5586
  664MOL0     H91614   3.483   4.884  10.070 -1.0850  0.3357  0.2892
  664MOL0     H91615   3.341   5.068   9.955 -2.1425  1.7756  1.5498
  664MOL0     H91616   3.451   5.096   9.348 -0.0952 -0.5710 -0.0628
  664MOL0     H91617   3.254   5.010   9.256  0.2558  2.3180  2.2349
  664MOL0     H91618   2.929   4.942   9.040  0.9755 -0.0868 -0.8549
  664MOL0     H91619   2.702   4.859   8.931  2.5610 -4.1011 -1.1465
  664MOL0     H91620   2.676   4.873   8.489  0.4925 -0.4765 -0.2550
  664MOL0     H91621   2.518   4.828   8.550 -0.5510  0.3548 -2.1852
  664MOL0     H91622   2.469   5.045   8.421  0.6484 -0.5401 -0.6135
  664MOL0     H91623   2.617   5.110   8.484  0.7209 -0.7898  0.9624
  664MOL0     H91624   2.514   5.110   8.718 -0.2293 -0.5719  1.1181
  664MOL0     H91625   2.448   5.221   8.593  1.0651 -0.1825 -2.2809
  664MOL0     H91626   2.267   5.084   8.744 -1.1715 -0.2608  0.5791
  664MOL0     H91627   2.332   4.947   8.647  1.2379  0.5902  0.2484
  664MOL0     H91628   2.129   5.156   8.349 -0.2338  0.7642  0.0168
  664MOL0     H91629   2.834   5.001   8.555 -0.2847  2.2372  0.2884
  664MOL0     H91630   3.179   5.040   8.654  0.0939 -1.2243 -1.2426
  664MOL0     H91631   3.064   5.030   8.523 -2.1207 -0.0188 -0.2989
  664MOL0     H91632   3.082   5.182   8.611  0.3835 -0.0693 -0.6342
  665MOL0     O91633   8.594   9.399   3.979 -0.4634  0.0815 -0.3379
  665MOL0     C91634   8.549   9.514   3.975  0.7851  0.1969 -0.3733
  665MOL0     O91635   8.624   9.627   3.961 -0.1805  0.0225 -0.2908
  665MOL0     C91636   8.755   9.633   4.004  0.4892  0.9553 -1.1659
  665MOL0     C91637   8.790   9.650   4.139 -0.3968 -0.0276 -0.2719
  665MOL0     C91638   8.925   9.659   4.173 -1.0422  0.3813 -0.5322
  665MOL0     C91639   9.026   9.648   4.076 -0.4038  0.5389  1.0420
  665MOL0     O91640   9.157   9.636   4.121  0.9670  0.3206  0.5105
  665MOL0     C91641   9.256   9.622   4.024 -0.3787 -0.5126 -0.7046
  665MOL0     C91642   9.382   9.566   4.093  0.5101 -0.1013 -0.5044
  665MOL0     C91643   9.453   9.670   4.174 -0.4675 -0.1132 -0.2059
  665MOL0     C91644   9.605   9.649   4.166 -0.4473  0.1604 -0.5201
  665MOL0     C91645   9.661   9.757   4.260 -0.2075 -0.8421  0.2914
  665MOL0     C91646   9.817   9.733   4.277  0.7894 -0.3685  0.0813
  665MOL0     C91647   9.884   9.805   4.397 -0.7034 -1.0328 -0.2942
  665MOL0     C91648   9.866   9.955   4.390 -0.1818  0.3087  0.3778
  665MOL0     N91649   9.940  10.043   4.486 -0.3319 -0.2005 -0.1393
  665MOL0     C91650   9.908  10.049   4.622 -0.3767  1.2642  0.3179
  665MOL0     C91651  10.007  10.139   4.674 -0.1241 -0.1663 -0.4416
  665MOL0     C91652  10.024  10.166   4.827 -0.1873  0.0427  0.2088
  665MOL0     C91653  10.108  10.053   4.889 -0.0546 -0.6853  0.0191
  665MOL0     C91654  10.120  10.072   5.036  0.0750  0.9988 -0.2467
  665MOL0     C91655  10.202   9.962   5.105 -0.3318  0.4487 -0.3038
  665MOL0     O91656  10.316   9.924   5.036  0.1234  0.5017  0.2673
  665MOL0     C91657  10.390   9.822   5.088  0.1239  0.3705  0.4547
  665MOL0     C91658  10.345   9.714   5.162 -0.3168  0.6941  0.7809
  665MOL0     C91659  10.438   9.611   5.194 -1.0283  0.5485  0.9728
  665MOL0     C91660  10.387   9.488   5.265 -0.1062  0.1908 -0.0815
  665MOL0     C91661  10.575   9.620   5.154  0.4001  0.1844  0.0708
  665MOL0     C91662  10.675   9.535   5.196 -0.0850  0.6925  0.1846
  665MOL0     O91663  10.774   9.500   5.102 -0.6452 -0.1341  0.2819
  665MOL0     C91664  10.863   9.403   5.143  0.5939 -0.2451  0.9300
  665MOL0     C91665  10.996   9.435   5.139 -0.3651  0.0547  0.3600
  665MOL0     C91666  11.096   9.342   5.169  0.6015  0.3891 -0.2450
  665MOL0     C91667  11.060   9.219   5.223  0.3380 -0.3546  0.4217
  665MOL0     O91668  11.164   9.137   5.265  0.4157 -0.2354 -0.5197
  665MOL0     C91669  11.152   9.111   5.411 -0.4011  0.1511 -0.2733
  665MOL0     C91670  11.212   9.232   5.491  0.1237  0.2683  0.1230
  665MOL0     C91671  11.362   9.271   5.443 -0.2656  0.3336 -0.9300
  665MOL0     C91672  11.430   9.362   5.550 -0.1754 -0.1472  0.5584
  665MOL0     C91673  11.559   9.423   5.487  0.1915 -0.7945  0.3574
  665MOL0     C91674  11.530   9.571   5.468 -1.0719 -0.3296 -1.2174
  665MOL0     C91675  11.657   9.649   5.415  0.0516  0.5457  0.0619
  665MOL0     C91676  11.632   9.802   5.387 -0.2052 -0.6005  0.7304
  665MOL0    Cl91677  11.579   9.880   5.544  0.3411 -0.3244  0.1194
  665MOL0     C91678  10.925   9.181   5.224 -0.0247  0.3663  0.1495
  665MOL0     C91679  10.827   9.269   5.181  0.4642 -0.3783  0.5994
  665MOL0     O91680  10.666   9.486   5.309 -0.4838  0.2565  0.0811
  665MOL0     C91681  10.616   9.732   5.080 -0.2091  0.0189 -0.0059
  665MOL0     C91682  10.522   9.829   5.047 -0.1159  0.5245 -0.2652
  665MOL0     N91683  10.073  10.196   4.571  0.1503 -0.0117 -0.4003
  665MOL0     N91684  10.032  10.141   4.463  0.7948 -0.0699 -0.4710
  665MOL0     C91685   8.983   9.616   3.946  0.0283  0.3689  0.3806
  665MOL0     C91686   8.849   9.606   3.909  0.4954  0.3311 -0.1949
  665MOL0     C91687   8.399   9.523   3.969 -0.2191  0.0404  0.4482
  665MOL0     C91688   8.348   9.638   3.917  0.4772 -0.0897 -0.3461
  665MOL0     C91689   8.210   9.660   3.908 -0.2459 -0.6259  0.2126
  665MOL0     C91690   8.112   9.556   3.928 -0.5378  0.2078 -0.3000
  665MOL0     O91691   7.986   9.585   3.890  0.7012  0.1158  0.3841
  665MOL0     C91692   7.909   9.482   3.832 -1.3261  0.7896 -0.3454
  665MOL0     C91693   7.943   9.429   3.695 -0.1298 -0.1698  0.0808
  665MOL0     C91694   7.968   9.534   3.594  0.0850  0.2481  0.1049
  665MOL0     C91695   8.005   9.479   3.458  1.1338  0.4564  1.4374
  665MOL0     C91696   7.909   9.382   3.403  0.3995  0.9000 -0.1006
  665MOL0     C91697   7.827   9.306   3.350  0.6513  0.6781  0.0166
  665MOL0     C91698   8.161   9.440   3.997 -0.1126 -0.1092  0.3202
  665MOL0     C91699   8.306   9.422   4.012  0.9467  0.2823  0.2894
  665MOL0     C91700   8.346   9.297   4.082 -0.4927  0.4882 -0.3301
  665MOL0     H91701   8.713   9.661   4.215 -0.8251  0.3831 -0.7603
  665MOL0     H91702   8.972   9.671   4.270  3.3898 -0.1862 -2.3762
  665MOL0     H91703   9.277   9.718   3.976  1.1422 -1.8646 -2.9827
  665MOL0     H91704   9.229   9.549   3.947  0.2777 -0.5037 -0.9564
  665MOL0     H91705   9.359   9.476   4.151 -2.3776 -0.1927 -1.6327
  665MOL0     H91706   9.439   9.539   4.004 -2.2377 -2.0536 -1.7932
  665MOL0     H91707   9.432   9.775   4.149  1.6080  0.5495  0.6194
  665MOL0     H91708   9.406   9.649   4.270 -0.6175  2.0436  0.2445
  665MOL0     H91709   9.642   9.551   4.199  1.8767  1.6463  1.5925
  665MOL0     H91710   9.640   9.669   4.065 -0.2487  1.0979 -0.2670
  665MOL0     H91711   9.621   9.735   4.360 -0.7498 -1.8357 -0.1220
  665MOL0     H91712   9.640   9.861   4.232 -0.9682 -0.7994  0.9800
  665MOL0     H91713   9.846   9.628   4.286 -0.8010 -0.9374 -1.1489
  665MOL0     H91714   9.854   9.762   4.178 -0.7918 -0.7795 -0.6583
  665MOL0     H91715   9.992   9.784   4.396 -0.7508 -1.3046 -1.2230
  665MOL0     H91716   9.841   9.774   4.492 -1.6051 -2.9621 -1.2708
  665MOL0     H91717   9.898   9.997   4.294  1.3676 -0.6220  0.4633
  665MOL0     H91718   9.760   9.975   4.408 -0.5849 -1.0340 -0.2950
  665MOL0     H91719   9.850   9.985   4.688  1.1843 -0.3806  0.1637
  665MOL0     H91720   9.927  10.164   4.877  0.2758  1.0835  1.1933
  665MOL0     H91721  10.071  10.264   4.842 -1.1025  0.8855 -1.9062
  665MOL0     H91722  10.058   9.957   4.873 -0.9564 -0.6621  2.2573
  665MOL0     H91723  10.205  10.057   4.838 -2.3541 -0.9879 -4.9824
  665MOL0     H91724  10.158  10.174   5.049  1.1967  0.4596  0.9370
  665MOL0     H91725  10.020  10.073   5.080  0.2539 -0.7637  0.3063
  665MOL0     H91726  10.234   9.992   5.206  0.2941 -3.0788  0.6973
  665MOL0     H91727  10.148   9.867   5.106  4.0112 -2.3111  0.2644
  665MOL0     H91728  10.242   9.716   5.195 -1.0894  1.0479 -1.4482
  665MOL0     H91729  10.379   9.501   5.373 -1.3965 -3.7686  0.4474
  665MOL0     H91730  10.449   9.399   5.250  1.0500  0.6119  1.8668
  665MOL0     H91731  10.284   9.467   5.234  0.3116 -1.4492 -0.4298
  665MOL0     H91732  11.030   9.530   5.099  0.4928 -0.1377  0.6059
  665MOL0     H91733  11.203   9.360   5.163  0.6320  0.2792 -0.0402
  665MOL0     H91734  11.051   9.079   5.436  0.3454 -2.0191  0.1973
  665MOL0     H91735  11.227   9.032   5.425 -1.7785 -1.1000  0.2633
  665MOL0     H91736  11.145   9.318   5.484  1.0702  0.8941 -2.3896
  665MOL0     H91737  11.215   9.195   5.594 -0.2977  0.8245  0.3436
  665MOL0     H91738  11.347   9.330   5.352 -3.1759  0.3275 -0.5535
  665MOL0     H91739  11.425   9.183   5.428 -0.3292  0.3184 -1.1131
  665MOL0     H91740  11.453   9.306   5.641 -0.0028 -0.6547  0.2076
  665MOL0     H91741  11.363   9.442   5.583 -2.2651 -1.7280  0.3618
  665MOL0     H91742  11.638   9.409   5.562  1.2226  2.3261 -0.0141
  665MOL0     H91743  11.600   9.382   5.395  1.6851  1.8317 -0.2561
  665MOL0     H91744  11.490   9.612   5.560 -0.9289 -4.6654  1.0323
  665MOL0     H91745  11.456   9.577   5.388  0.0473  0.9779 -2.2022
  665MOL0     H91746  11.692   9.599   5.324  0.2735 -1.2844  1.1020
  665MOL0     H91747  11.741   9.627   5.482 -0.6840  0.0548  0.8607
  665MOL0     H91748  11.553   9.802   5.312 -1.0996 -2.3528  1.6031
  665MOL0     H91749  11.721   9.848   5.344 -1.5432  2.3011  0.8192
  665MOL0     H91750  10.898   9.080   5.253  1.3153 -0.5582 -1.6205
  665MOL0     H91751  10.720   9.250   5.186  0.6689 -1.2471  1.8417
  665MOL0     H91752  10.718   9.750   5.050  0.2145  1.4551  2.0800
  665MOL0     H91753  10.534   9.917   4.984 -2.0376  1.1997  0.2345
  665MOL0     H91754   9.051   9.607   3.863 -1.3289 -3.3129 -0.5236
  665MOL0     H91755   8.813   9.605   3.807  0.2206  0.9248 -0.1094
  665MOL0     H91756   8.411   9.721   3.887  1.2435 -0.9219 -1.0985
  665MOL0     H91757   8.184   9.749   3.853 -0.3406  1.1243  2.8948
  665MOL0     H91758   7.911   9.399   3.902 -0.1450  0.9115 -0.2200
  665MOL0     H91759   7.809   9.528   3.833 -2.0707 -0.7583 -0.9661
  665MOL0     H91760   7.862   9.370   3.650  0.1538 -1.7338  1.5371
  665MOL0     H91761   8.030   9.364   3.703  1.4599  1.8931  0.2485
  665MOL0     H91762   7.885   9.605   3.586  2.3911  3.3062  1.4398
  665MOL0     H91763   8.048   9.605   3.614 -1.0571  1.1194  1.7435
  665MOL0     H91764   8.104   9.433   3.468  0.0896 -1.4921  3.8352
  665MOL0     H91765   8.010   9.567   3.393 -0.0051  0.6039  1.5296
  665MOL0     H91766   7.762   9.235   3.302  3.4323 -1.6094 -0.6282
  665MOL0     H91767   8.099   9.362   4.038 -0.8434  0.2107 -0.1459
  665MOL0     H91768   8.395   9.228   4.014 -0.9977 -1.4775  1.2211
  665MOL0     H91769   8.412   9.322   4.166 -2.1374 -2.0278  1.8926
  665MOL0     H91770   8.261   9.240   4.122 -0.3697  1.0833  0.8529
  666MOL0     O91771  10.293   8.459  10.794  0.1546 -0.1293 -0.8589
  666MOL0     C91772  10.267   8.488  10.912  0.3670  0.7844 -1.2032
  666MOL0     O91773  10.350   8.490  11.019 -0.3778 -0.6205  0.6546
  666MOL0     C91774  10.476   8.438  11.009  0.3694 -0.4702 -0.4209
  666MOL0     C91775  10.505   8.315  11.069 -0.0741  0.4490 -0.5472
  666MOL0     C91776  10.632   8.262  11.058 -0.0725 -0.0327 -0.2731
  666MOL0     C91777  10.734   8.326  10.983 -0.6071 -0.2626 -0.5113
  666MOL0     O91778  10.861   8.279  10.951  0.2335  0.2259 -0.3601
  666MOL0     C91779  10.903   8.157  11.013  0.5493  0.7894 -0.0697
  666MOL0     C91780  11.038   8.108  10.954  0.4453 -0.1134  0.6049
  666MOL0     C91781  11.051   8.130  10.802  0.0430 -0.2687 -0.1943
  666MOL0     C91782  11.110   8.003  10.729 -0.4859 -0.4921  0.1935
  666MOL0     C91783  11.051   7.973  10.594 -0.1982 -1.0032 -0.1062
  666MOL0     C91784  11.151   7.869  10.537 -1.0238  0.6262 -0.6798
  666MOL0     C91785  11.095   7.803  10.416 -0.4114 -0.0149 -0.0212
  666MOL0     C91786  11.125   7.867  10.289  0.1267 -0.8945 -0.2337
  666MOL0     N91787  11.263   7.875  10.236 -0.4623 -0.7133  1.1378
  666MOL0     C91788  11.338   7.992  10.214  0.1943 -0.0433 -0.1709
  666MOL0     C91789  11.461   7.938  10.200 -0.4569 -0.2799  0.3349
  666MOL0     C91790  11.588   8.010  10.174 -0.4487  0.4778  0.0141
  666MOL0     C91791  11.630   8.011  10.026  0.6435  0.1346 -0.1121
  666MOL0     C91792  11.780   7.974   9.999 -0.1211 -0.1398  0.9439
  666MOL0     C91793  11.850   7.996   9.861 -0.0205 -0.0711  0.9414
  666MOL0     O91794  11.987   7.974   9.876  0.4584 -0.5919  0.2399
  666MOL0     C91795  12.086   8.062   9.829 -0.4277 -0.0070 -0.3081
  666MOL0     C91796  12.066   8.186   9.767 -0.0832 -0.1540  0.4709
  666MOL0     C91797  12.166   8.252   9.701 -0.6205  0.1904 -0.5930
  666MOL0     C91798  12.130   8.379   9.632  0.9047  0.5712 -0.3640
  666MOL0     C91799  12.300   8.198   9.699  0.7468 -1.0327 -0.3195
  666MOL0     C91800  12.413   8.262   9.628 -0.0619  0.6749  0.0153
  666MOL0     O91801  12.386   8.366   9.555 -0.2705 -0.4651  0.8517
  666MOL0     C91802  12.497   8.451   9.515 -0.4555 -0.7912  0.1969
  666MOL0     C91803  12.579   8.411   9.413 -0.0058  0.0214 -0.7253
  666MOL0     C91804  12.691   8.486   9.376 -0.2150  0.3776  0.0894
  666MOL0     C91805  12.721   8.600   9.454 -0.0651 -0.0567 -0.1906
  666MOL0     O91806  12.841   8.659   9.425 -0.4065 -0.2279 -0.1519
  666MOL0     C91807  12.901   8.738   9.529  0.1383  0.7181 -0.5122
  666MOL0     C91808  13.047   8.770   9.509  0.3821 -0.2600  0.3765
  666MOL0     C91809  13.126   8.645   9.528 -0.0636  0.5981  0.5048
  666MOL0     C91810  13.272   8.661   9.491  0.5141 -0.2674 -0.4612
  666MOL0     C91811  13.324   8.533   9.426 -0.0792  0.2241 -0.4347
  666MOL0     C91812  13.480   8.535   9.421  0.5322  0.5511  0.4547
  666MOL0     C91813  13.545   8.444   9.326  0.7812 -0.4122 -0.5057
  666MOL0     C91814  13.696   8.449   9.336 -0.1528  0.1442  0.7720
  666MOL0    Cl91815  13.776   8.589   9.264 -0.1795 -0.2046 -0.1801
  666MOL0     C91816  12.632   8.651   9.554 -0.1898 -0.1665  0.6752
  666MOL0     C91817  12.523   8.574   9.585 -0.8226  0.3459 -0.4148
  666MOL0     O91818  12.533   8.219   9.661  0.3977  0.8950 -0.6854
  666MOL0     C91819  12.320   8.069   9.761  0.5910 -0.7813 -0.3312
  666MOL0     C91820  12.220   8.009   9.831 -0.6229  0.7611 -0.0160
  666MOL0     N91821  11.458   7.800  10.197  1.0067  0.1223  0.5133
  666MOL0     N91822  11.334   7.760  10.213 -0.6211 -0.6515  0.3533
  666MOL0     C91823  10.697   8.452  10.932  0.4114  0.3836 -0.9331
  666MOL0     C91824  10.584   8.512  10.949  0.9543 -0.5745  0.3362
  666MOL0     C91825  10.120   8.514  10.944  0.2136  0.3698  0.9672
  666MOL0     C91826  10.095   8.520  11.084  0.0894 -0.6328 -0.5793
  666MOL0     C91827   9.969   8.542  11.137 -1.0063 -0.3726 -0.3892
  666MOL0     C91828   9.853   8.547  11.060  0.5633 -1.1040  0.2806
  666MOL0     O91829   9.735   8.594  11.121  0.6101 -0.3144  0.8239
  666MOL0     C91830   9.636   8.493  11.142  0.1715 -0.0086 -0.2012
  666MOL0     C91831   9.505   8.545  11.198 -0.0693 -0.1553 -0.8965
  666MOL0     C91832   9.420   8.630  11.109 -0.2323 -0.0290 -0.3301
  666MOL0     C91833   9.407   8.576  10.964  0.3574  0.0761  0.3813
  666MOL0     C91834   9.274   8.609  10.907  0.7868  0.9285  0.2480
  666MOL0     C91835   9.163   8.632  10.866  0.3150  0.2251 -0.6603
  666MOL0     C91836   9.870   8.545  10.916 -0.0298 -0.0588  0.1267
  666MOL0     C91837  10.003   8.539  10.860  0.7424 -0.1180 -0.2177
  666MOL0     C91838  10.013   8.546  10.716  0.4554  0.2410 -0.7133
  666MOL0     H91839  10.429   8.253  11.114  0.8741  0.7719  1.6033
  666MOL0     H91840  10.661   8.173  11.114  1.5446  0.5756 -0.0872
  666MOL0     H91841  10.820   8.088  10.994 -0.1452  1.4810  0.4141
  666MOL0     H91842  10.916   8.151  11.121 -1.8582 -0.8134  0.2094
  666MOL0     H91843  11.127   8.142  11.007  0.4560  0.3552  0.2906
  666MOL0     H91844  11.023   7.999  10.960  0.2827 -0.0333  1.9327
  666MOL0     H91845  10.952   8.152  10.761  0.3917  1.7765 -0.0507
  666MOL0     H91846  11.104   8.225  10.792 -1.0888  0.1746 -2.7687
  666MOL0     H91847  11.218   8.022  10.720 -0.3386 -0.6163  1.5211
  666MOL0     H91848  11.097   7.917  10.795 -0.3898 -1.5507 -1.1107
  666MOL0     H91849  11.053   8.061  10.528  0.3409 -2.0812 -1.5724
  666MOL0     H91850  10.951   7.931  10.607  0.8018 -2.7148  3.1792
  666MOL0     H91851  11.251   7.903  10.508 -0.6256 -0.0956 -0.1671
  666MOL0     H91852  11.181   7.795  10.612  1.8459  0.5332 -1.7620
  666MOL0     H91853  10.986   7.807  10.422 -0.5531  1.5418 -2.4530
  666MOL0     H91854  11.120   7.699  10.392 -1.6309 -0.1070 -1.0194
  666MOL0     H91855  11.059   7.818  10.216 -1.6296 -0.7651  1.1971
  666MOL0     H91856  11.094   7.972  10.287  1.9617 -0.2907  0.5781
  666MOL0     H91857  11.294   8.091  10.218 -0.8358 -0.3646 -2.1113
  666MOL0     H91858  11.660   7.960  10.239 -0.2200  1.4200  0.5104
  666MOL0     H91859  11.580   8.115  10.204  2.6915  0.6330  0.6728
  666MOL0     H91860  11.575   7.936   9.969  1.1675  0.9794 -1.7862
  666MOL0     H91861  11.603   8.109   9.985  2.7976  0.3284 -1.1972
  666MOL0     H91862  11.841   8.023  10.075  2.6206 -2.1299  0.1721
  666MOL0     H91863  11.796   7.869  10.020  1.3125 -0.5165 -1.5868
  666MOL0     H91864  11.811   7.921   9.791  0.6354 -2.1958  2.7117
  666MOL0     H91865  11.821   8.095   9.825 -0.6781 -0.0768  1.4362
  666MOL0     H91866  11.967   8.230   9.772 -0.3039 -0.7852  2.5793
  666MOL0     H91867  12.024   8.397   9.649  0.7990 -1.2002  1.2014
  666MOL0     H91868  12.138   8.365   9.524 -2.6733 -0.3380 -0.6186
  666MOL0     H91869  12.180   8.464   9.679 -0.1042 -0.7003  3.3746
  666MOL0     H91870  12.555   8.318   9.363 -1.0069 -0.3866  0.4619
  666MOL0     H91871  12.756   8.451   9.295  0.1014  0.0064  0.5018
  666MOL0     H91872  12.841   8.829   9.540 -1.0001 -0.1651  0.7915
  666MOL0     H91873  12.886   8.680   9.621 -0.3537  0.3482 -0.8219
  666MOL0     H91874  13.060   8.809   9.408 -2.5935  3.3091  1.1825
  666MOL0     H91875  13.090   8.852   9.568  0.8673  2.5913 -3.5516
  666MOL0     H91876  13.078   8.563   9.473  1.9158  0.2775 -0.8478
  666MOL0     H91877  13.115   8.625   9.635 -0.6519  1.1726  0.5596
  666MOL0     H91878  13.330   8.681   9.581  0.3805  1.3268 -0.7135
  666MOL0     H91879  13.287   8.734   9.412  1.7326  0.5540  0.4939
  666MOL0     H91880  13.296   8.451   9.492  1.1806  0.3749  0.3270
  666MOL0     H91881  13.276   8.524   9.328 -0.4645  0.7309 -0.2971
  666MOL0     H91882  13.514   8.504   9.520  1.0285 -2.2404 -0.5185
  666MOL0     H91883  13.519   8.634   9.396  5.9336 -1.2906  0.4131
  666MOL0     H91884  13.520   8.471   9.223  2.8832  2.9470 -0.2707
  666MOL0     H91885  13.505   8.348   9.361 -2.3862  1.2134  0.7193
  666MOL0     H91886  13.738   8.360   9.287  2.0368 -0.3451  3.3066
  666MOL0     H91887  13.733   8.446   9.439 -1.6832 -0.6210  1.3308
  666MOL0     H91888  12.655   8.744   9.605  3.1966  1.1970 -2.8293
  666MOL0     H91889  12.449   8.597   9.661  0.0059  0.7523  0.2923
  666MOL0     H91890  12.413   8.014   9.751  1.6549  0.9461 -0.3110
  666MOL0     H91891  12.236   7.908   9.869 -3.6689 -0.5346 -1.7356
  666MOL0     H91892  10.770   8.502  10.870  0.5764  0.4858 -0.6598
  666MOL0     H91893  10.569   8.613  10.913 -3.2326 -0.6713  1.3933
  666MOL0     H91894  10.171   8.521  11.161  1.9101 -2.1943 -2.2650
  666MOL0     H91895   9.959   8.561  11.243  2.4649 -1.0724  0.1702
  666MOL0     H91896   9.624   8.424  11.057 -2.8402 -1.8022  1.5097
  666MOL0     H91897   9.683   8.430  11.218  0.6407 -0.5349 -0.9125
  666MOL0     H91898   9.530   8.608  11.284 -2.3050  0.7657 -0.8318
  666MOL0     H91899   9.446   8.459  11.231  0.3961  0.4218  1.6858
  666MOL0     H91900   9.322   8.649  11.154  0.2870  1.9788  0.0735
  666MOL0     H91901   9.474   8.725  11.103  1.3683 -0.9742 -1.5578
  666MOL0     H91902   9.429   8.469  10.965  0.2559 -0.0063  3.5521
  666MOL0     H91903   9.485   8.623  10.903  3.1794  1.4140  4.5482
  666MOL0     H91904   9.066   8.646  10.825  0.2951 -3.8324 -2.5129
  666MOL0     H91905   9.779   8.561  10.859  0.0310  3.8321  0.8917
  666MOL0     H91906  10.069   8.639  10.702 -0.4080  0.4258 -3.8250
  666MOL0     H91907  10.065   8.466  10.662  1.4114  1.7143 -2.0775
  666MOL0     H91908   9.909   8.554  10.682  1.4088  0.7899 -3.8370
  667MOL0     O91909   2.431   7.024  11.280  0.9301  1.1978 -0.6296
  667MOL0     C91910   2.370   7.104  11.215 -0.3666  0.1716 -0.0621
  667MOL0     O91911   2.408   7.231  11.197 -0.3113  0.5103 -0.0308
  667MOL0     C91912   2.522   7.278  11.260  0.0705  0.6662  0.0929
  667MOL0     C91913   2.624   7.320  11.183 -0.7794 -0.6694  0.5286
  667MOL0     C91914   2.737   7.381  11.233 -0.5135  0.2030 -0.6770
  667MOL0     C91915   2.749   7.404  11.372 -0.1952  0.4295  0.2612
  667MOL0     O91916   2.869   7.446  11.412  0.2520 -0.3595  0.4576
  667MOL0     C91917   2.880   7.545  11.512 -0.3885  0.2491 -0.0030
  667MOL0     C91918   2.912   7.681  11.455  0.6528  0.0993  0.4590
  667MOL0     C91919   2.770   7.749  11.404  1.3060 -0.1794 -0.5446
  667MOL0     C91920   2.782   7.855  11.298  0.2430 -0.1292 -0.3316
  667MOL0     C91921   2.643   7.896  11.245 -0.1174 -0.2182 -0.0536
  667MOL0     C91922   2.655   8.002  11.136  0.3065 -0.3619  0.0865
  667MOL0     C91923   2.742   8.124  11.186 -0.3842 -0.3299  0.9007
  667MOL0     C91924   2.721   8.255  11.118 -0.3889 -1.2684  1.1655
  667MOL0     N91925   2.841   8.339  11.136  0.9043 -0.3634  0.4429
  667MOL0     C91926   2.897   8.403  11.022  0.2230  0.2457 -0.2511
  667MOL0     C91927   3.020   8.432  11.059 -0.4724 -0.2469 -1.0803
  667MOL0     C91928   3.143   8.487  10.996 -1.0769  0.2627 -0.2047
  667MOL0     C91929   3.227   8.378  10.931 -0.9477 -0.2461  0.1507
  667MOL0     C91930   3.366   8.440  10.900  0.2353  0.4256  0.8192
  667MOL0     C91931   3.459   8.333  10.835  0.3909  0.3378  0.2594
  667MOL0     O91932   3.595   8.375  10.819  0.0285 -0.3248 -0.1431
  667MOL0     C91933   3.671   8.292  10.901 -0.4609 -0.4732 -0.1469
  667MOL0     C91934   3.742   8.186  10.849 -0.0507 -0.2227  0.7856
  667MOL0     C91935   3.802   8.086  10.927 -0.2459 -0.4612  0.4938
  667MOL0     C91936   3.898   7.998  10.848 -0.3427  0.6659  0.1422
  667MOL0     C91937   3.791   8.086  11.066 -0.2944  1.0545  0.3028
  667MOL0     C91938   3.849   7.976  11.156 -0.4842  0.3522 -0.4104
  667MOL0     O91939   3.803   7.986  11.289 -0.2638 -0.0862  1.0002
  667MOL0     C91940   3.849   7.896  11.385  0.3073  0.0083  0.8711
  667MOL0     C91941   3.794   7.764  11.388 -0.0530 -0.1543 -0.1427
  667MOL0     C91942   3.844   7.677  11.478  0.2489  0.0787  0.5973
  667MOL0     C91943   3.945   7.713  11.561  0.4703  0.3630  0.6352
  667MOL0     O91944   3.986   7.611  11.644  0.1315 -0.7925 -0.3891
  667MOL0     C91945   4.013   7.658  11.778  0.4293  0.3013 -0.3779
  667MOL0     C91946   4.035   7.530  11.864 -0.3824 -0.2352  0.2572
  667MOL0     C91947   3.915   7.432  11.857  0.8286 -0.5214  0.0897
  667MOL0     C91948   3.883   7.362  11.994  0.0159 -1.2070 -0.2395
  667MOL0     C91949   3.796   7.238  11.995 -0.0654 -0.4918 -0.1061
  667MOL0     C91950   3.864   7.130  11.917  0.1919  0.3462 -0.3935
  667MOL0     C91951   3.791   6.993  11.918 -0.1974  0.8911  0.4270
  667MOL0     C91952   3.842   6.882  11.826 -0.3699  0.5215  0.2062
  667MOL0    Cl91953   3.810   6.944  11.658  0.1316 -0.0076 -0.2290
  667MOL0     C91954   4.004   7.839  11.559  0.0602  1.2289 -0.2074
  667MOL0     C91955   3.947   7.925  11.473 -1.2299 -1.0189 -0.0092
  667MOL0     O91956   3.927   7.891  11.116  0.9464 -0.2740 -0.2492
  667MOL0     C91957   3.725   8.194  11.120  0.2086 -1.1705 -0.3844
  667MOL0     C91958   3.661   8.297  11.041  0.8347  0.7609 -0.6833
  667MOL0     N91959   3.038   8.386  11.188  0.8763 -0.4396 -0.1674
  667MOL0     N91960   2.939   8.314  11.228 -0.3891 -0.9836  0.0839
  667MOL0     C91961   2.654   7.352  11.454  0.0536 -0.3734 -0.1323
  667MOL0     C91962   2.538   7.286  11.402  0.0430 -0.3956 -0.4518
  667MOL0     C91963   2.237   7.071  11.157 -0.4027 -0.3788  0.5331
  667MOL0     C91964   2.160   7.171  11.092  0.4741  0.4986 -0.4420
  667MOL0     C91965   2.033   7.153  11.038  0.5985 -0.0077  0.2167
  667MOL0     C91966   1.985   7.021  11.033  0.6418  0.5214 -0.1267
  667MOL0     O91967   1.867   7.008  10.975  0.0138  0.1242  0.1295
  667MOL0     C91968   1.793   6.889  10.997  0.0425  0.3791 -0.4766
  667MOL0     C91969   1.646   6.896  10.960  1.2758 -0.0551  0.1217
  667MOL0     C91970   1.624   6.884  10.807  0.9253 -0.0009  0.2302
  667MOL0     C91971   1.503   6.969  10.755 -0.1966 -0.4805 -0.4716
  667MOL0     C91972   1.408   6.894  10.680 -0.3682 -0.4372 -0.2964
  667MOL0     C91973   1.323   6.848  10.612  0.2637 -0.5092  0.3836
  667MOL0     C91974   2.059   6.920  11.087  0.4945 -0.4022 -0.2716
  667MOL0     C91975   2.180   6.943  11.155  1.0024 -0.2959 -0.2892
  667MOL0     C91976   2.244   6.824  11.210 -0.9103 -0.0746  0.1466
  667MOL0     H91977   2.617   7.296  11.078 -1.2250 -3.2075  1.0629
  667MOL0     H91978   2.818   7.402  11.164 -0.3589  2.1822  0.0333
  667MOL0     H91979   2.966   7.527  11.577 -0.9515  1.2141  1.0297
  667MOL0     H91980   2.791   7.546  11.575 -0.5947 -0.5769 -0.2706
  667MOL0     H91981   2.950   7.755  11.526  2.2255  1.4055 -1.6204
  667MOL0     H91982   2.985   7.665  11.375 -0.9722  1.3479 -1.4014
  667MOL0     H91983   2.695   7.671  11.387 -0.5333  1.0513  1.3798
  667MOL0     H91984   2.734   7.813  11.485  1.1930  1.1284 -1.6129
  667MOL0     H91985   2.833   7.944  11.333 -0.2102  0.7656 -1.8506
  667MOL0     H91986   2.840   7.813  11.215 -0.5571 -5.5822  1.4135
  667MOL0     H91987   2.581   7.941  11.323 -2.1255 -0.9004 -1.1787
  667MOL0     H91988   2.593   7.807  11.207  3.3871 -2.2631 -0.3372
  667MOL0     H91989   2.710   7.960  11.052  0.5432  1.9380 -1.0074
  667MOL0     H91990   2.555   8.037  11.106 -1.0820 -2.8522  1.5052
  667MOL0     H91991   2.841   8.080  11.174 -0.7084 -0.6927 -0.6946
  667MOL0     H91992   2.731   8.144  11.293  1.6527  0.9942  0.9207
  667MOL0     H91993   2.701   8.241  11.011 -0.9336 -0.7565  1.1953
  667MOL0     H91994   2.629   8.301  11.154 -0.4010 -0.4437  0.1379
  667MOL0     H91995   2.848   8.421  10.927 -0.9482 -2.7824 -0.3089
  667MOL0     H91996   3.187   8.546  11.077 -2.5484 -0.6659  1.3285
  667MOL0     H91997   3.108   8.556  10.919 -2.7674 -1.0255 -0.6383
  667MOL0     H91998   3.245   8.299  11.006  2.8082  1.1449  0.9145
  667MOL0     H91999   3.179   8.347  10.838 -0.5124  0.0239 -0.1669
  667MOL0     H92000   3.370   8.536  10.848  1.9841 -0.2602 -0.4073
  667MOL0     H92001   3.405   8.459  11.001  1.5509  3.2773 -0.1434
  667MOL0     H92002   3.458   8.235  10.883  1.1051 -0.3945 -1.1716
  667MOL0     H92003   3.416   8.308  10.738  0.8860 -2.7562  0.7496
  667MOL0     H92004   3.755   8.174  10.742  0.8345 -1.9428  1.0527
  667MOL0     H92005   3.910   8.032  10.745 -0.2222 -0.5252 -0.2584
  667MOL0     H92006   3.864   7.894  10.839 -1.7665  1.2993 -5.2427
  667MOL0     H92007   3.994   8.012  10.899 -1.1503  2.9378  1.1697
  667MOL0     H92008   3.710   7.736  11.325 -0.2469  1.8331 -0.8311
  667MOL0     H92009   3.794   7.583  11.502  2.1352 -1.0625  0.2616
  667MOL0     H92010   4.097   7.726  11.797 -1.0032  1.3692  2.8669
  667MOL0     H92011   3.930   7.719  11.813  1.2606  1.6037 -0.5876
  667MOL0     H92012   4.124   7.478  11.827  1.3523  3.2176 -0.9158
  667MOL0     H92013   4.055   7.560  11.968 -0.6665 -0.2628  0.3206
  667MOL0     H92014   3.920   7.364  11.772 -1.6080 -1.7897  0.8536
  667MOL0     H92015   3.820   7.483  11.835  0.1170 -2.4089 -1.5588
  667MOL0     H92016   3.829   7.435  12.054  0.3520 -0.4441 -0.8537
  667MOL0     H92017   3.972   7.338  12.052  0.3031  2.7823  1.2900
  667MOL0     H92018   3.794   7.191  12.093  0.4617  0.8060  0.5429
  667MOL0     H92019   3.692   7.252  11.963  0.0621  3.8022  0.7678
  667MOL0     H92020   3.970   7.116  11.938  2.0693  2.9255 -6.1190
  667MOL0     H92021   3.861   7.155  11.810  0.4404 -0.4813 -0.5957
  667MOL0     H92022   3.696   7.014  11.869 -1.4744 -2.2217  1.3141
  667MOL0     H92023   3.768   6.955  12.018 -1.4468  0.0422 -0.1527
  667MOL0     H92024   3.786   6.788  11.833  1.7429 -0.8729 -0.3311
  667MOL0     H92025   3.947   6.857  11.842 -0.8669  0.6121  4.9881
  667MOL0     H92026   4.093   7.857  11.618 -0.0844  1.2641  0.0028
  667MOL0     H92027   3.974   8.030  11.475 -0.0792 -1.1383 -3.1974
  667MOL0     H92028   3.702   8.202  11.226 -0.9300 -0.2008 -0.6834
  667MOL0     H92029   3.603   8.372  11.093  1.0682 -0.4449  1.4379
  667MOL0     H92030   2.653   7.368  11.561 -1.7271 -2.3685  0.2071
  667MOL0     H92031   2.466   7.247  11.473  2.7796 -0.8713  2.2917
  667MOL0     H92032   2.189   7.273  11.113 -0.8958  0.8717 -0.2741
  667MOL0     H92033   1.983   7.239  10.996  0.5159  0.9316  2.1580
  667MOL0     H92034   1.849   6.804  10.958  1.5136  1.3719 -0.6112
  667MOL0     H92035   1.798   6.876  11.105  2.7086 -0.1219 -0.5942
  667MOL0     H92036   1.603   6.992  10.990  0.6503  0.7578 -3.0227
  667MOL0     H92037   1.592   6.816  11.012 -0.3179  0.4025 -0.7668
  667MOL0     H92038   1.712   6.920  10.754 -0.2610  0.1476 -1.7167
  667MOL0     H92039   1.613   6.775  10.796 -0.5185 -0.0481  1.6459
  667MOL0     H92040   1.528   7.044  10.681 -2.1251 -0.7360 -1.4491
  667MOL0     H92041   1.449   7.026  10.831  2.1934 -1.9157  2.5486
  667MOL0     H92042   1.239   6.816  10.554  1.4301 -1.8099 -0.6737
  667MOL0     H92043   2.023   6.818  11.084  0.4641 -0.4615  1.2898
  667MOL0     H92044   2.338   6.825  11.154 -0.6780 -2.9528  0.3586
  667MOL0     H92045   2.269   6.817  11.316 -2.8217  2.1717  0.8293
  667MOL0     H92046   2.197   6.730  11.181  0.4795 -0.5688 -0.6400
  668MOL0     O92047   2.017   7.597   5.947 -0.7127  0.2659 -0.0811
  668MOL0     C92048   1.970   7.530   6.044  0.2991 -0.1631 -0.6370
  668MOL0     O92049   2.049   7.501   6.163 -0.0370  0.4650 -0.3672
  668MOL0     C92050   2.186   7.512   6.145 -0.4637 -0.3485 -0.0789
  668MOL0     C92051   2.241   7.637   6.145  0.6525 -0.0831  0.2740
  668MOL0     C92052   2.380   7.650   6.146 -0.3261  0.5089  1.3119
  668MOL0     C92053   2.465   7.536   6.149 -0.4857  1.1236  1.4938
  668MOL0     O92054   2.605   7.530   6.155 -0.3627 -0.0992 -0.2951
  668MOL0     C92055   2.682   7.651   6.161 -0.1500  0.3870 -0.1174
  668MOL0     C92056   2.830   7.624   6.115  0.2286 -0.5611  0.0645
  668MOL0     C92057   2.909   7.495   6.143  0.0148  0.2046 -0.3977
  668MOL0     C92058   2.934   7.475   6.294 -0.2930  0.5121 -0.7725
  668MOL0     C92059   2.989   7.341   6.335 -0.1184 -0.4831 -0.3800
  668MOL0     C92060   3.126   7.322   6.273  0.0483  1.4928  0.3224
  668MOL0     C92061   3.200   7.197   6.324 -0.6430  0.0342 -0.7599
  668MOL0     C92062   3.287   7.248   6.448 -1.3996 -0.2633 -0.3090
  668MOL0     N92063   3.422   7.294   6.402 -0.0830  0.4352 -0.0585
  668MOL0     C92064   3.537   7.227   6.443 -0.5348 -0.5272  0.1055
  668MOL0     C92065   3.634   7.307   6.393  0.1795 -0.6969  0.4580
  668MOL0     C92066   3.784   7.275   6.417 -0.0699  0.6722 -0.4215
  668MOL0     C92067   3.848   7.345   6.530 -0.3208 -0.0832 -0.1920
  668MOL0     C92068   3.991   7.297   6.567 -0.3399 -0.0960 -0.4863
  668MOL0     C92069   4.061   7.413   6.636  0.5179 -0.4275 -0.3402
  668MOL0     O92070   4.204   7.388   6.633 -0.5228 -0.2037  0.3941
  668MOL0     C92071   4.273   7.411   6.515 -0.4443  0.1226  0.2219
  668MOL0     C92072   4.388   7.346   6.510 -0.1330 -0.5047  0.2118
  668MOL0     C92073   4.470   7.342   6.396 -1.3921 -0.9663 -0.1323
  668MOL0     C92074   4.606   7.274   6.413  0.8482 -0.9486  0.0842
  668MOL0     C92075   4.443   7.423   6.286  0.0144 -0.2508  0.5748
  668MOL0     C92076   4.533   7.462   6.179  0.0170 -0.5393  0.3513
  668MOL0     O92077   4.471   7.497   6.059  0.5433 -0.5499  0.3764
  668MOL0     C92078   4.547   7.542   5.953 -0.4933  0.8682  0.5947
  668MOL0     C92079   4.586   7.669   5.954  0.8909 -0.6066  0.9077
  668MOL0     C92080   4.654   7.726   5.849  0.3382  0.0992  0.6114
  668MOL0     C92081   4.694   7.656   5.733  0.4280  0.3718  0.0676
  668MOL0     O92082   4.790   7.716   5.652  0.6436 -0.4999 -0.1050
  668MOL0     C92083   4.847   7.637   5.550 -0.0886 -1.0208  0.3496
  668MOL0     C92084   4.972   7.703   5.491 -0.6488  0.6054  0.2080
  668MOL0     C92085   5.078   7.742   5.594  0.5698  0.5273 -0.6301
  668MOL0     C92086   5.201   7.811   5.539 -0.4843  0.8817  0.7978
  668MOL0     C92087   5.322   7.810   5.637 -0.0470  0.1310  0.0023
  668MOL0     C92088   5.453   7.837   5.558  0.4122  0.6652 -0.5631
  668MOL0     C92089   5.474   7.990   5.515  0.3389 -0.6813  0.3708
  668MOL0     C92090   5.560   8.061   5.618 -0.0089  0.2258  0.0813
  668MOL0    Cl92091   5.730   7.997   5.592 -0.2337 -0.5600 -0.4370
  668MOL0     C92092   4.652   7.525   5.731  0.3750  0.2200 -0.5675
  668MOL0     C92093   4.577   7.469   5.839  0.1980  0.5054 -0.0802
  668MOL0     O92094   4.653   7.474   6.203  0.2767 -0.7942 -0.0098
  668MOL0     C92095   4.317   7.484   6.286 -0.2198  0.5106  0.2584
  668MOL0     C92096   4.236   7.476   6.400 -0.2654  0.8762  0.4443
  668MOL0     N92097   3.585   7.422   6.321  1.2273  0.0454  0.3219
  668MOL0     N92098   3.455   7.402   6.325 -0.4351  0.2766  0.1434
  668MOL0     C92099   2.401   7.408   6.153  0.0415 -0.1720 -0.1881
  668MOL0     C92100   2.263   7.397   6.151  0.6409  0.1761  0.1498
  668MOL0     C92101   1.830   7.477   6.026 -0.8927  0.2654 -0.0390
  668MOL0     C92102   1.774   7.450   5.896 -0.0641  0.4331 -0.0285
  668MOL0     C92103   1.644   7.403   5.869 -0.2185 -0.0600  0.1385
  668MOL0     C92104   1.569   7.368   5.980  0.0853  0.6380  0.1542
  668MOL0     O92105   1.449   7.314   5.940  0.0250  0.1234 -0.6764
  668MOL0     C92106   1.348   7.306   6.039  0.6297 -1.0568 -0.3101
  668MOL0     C92107   1.224   7.244   5.976 -0.2326 -1.4451 -0.0305
  668MOL0     C92108   1.233   7.157   5.844 -0.9218  0.9603 -0.2842
  668MOL0     C92109   1.120   7.047   5.841 -0.4318 -0.7904 -0.0191
  668MOL0     C92110   1.130   6.951   5.721 -0.3665 -1.0526  0.4386
  668MOL0     C92111   1.131   6.873   5.623 -0.5857  0.4946 -0.5003
  668MOL0     C92112   1.610   7.394   6.110  0.1552  0.1044  0.2317
  668MOL0     C92113   1.735   7.456   6.139  0.3834 -0.0726  0.0819
  668MOL0     C92114   1.772   7.478   6.281 -0.5254 -0.2659  0.3498
  668MOL0     H92115   2.173   7.722   6.140  1.3637  0.5266  0.7563
  668MOL0     H92116   2.417   7.752   6.142 -1.4429  0.8984  0.5582
  668MOL0     H92117   2.687   7.694   6.262 -1.8221  1.1385 -0.3281
  668MOL0     H92118   2.638   7.723   6.091 -0.2406 -0.5848 -1.0860
  668MOL0     H92119   2.841   7.634   6.007  0.8171  2.1917  0.3130
  668MOL0     H92120   2.886   7.711   6.148  0.0474 -1.1661  2.0784
  668MOL0     H92121   2.852   7.410   6.104  1.6073 -0.1297 -2.1636
  668MOL0     H92122   2.998   7.501   6.079 -1.0490 -0.3828 -1.9691
  668MOL0     H92123   3.007   7.554   6.311  0.3170  0.2464 -2.0306
  668MOL0     H92124   2.839   7.479   6.349 -1.5294  0.1741 -2.7755
  668MOL0     H92125   2.930   7.254   6.302  0.9481 -1.0066 -0.9719
  668MOL0     H92126   3.009   7.342   6.442  2.2002  0.6358 -0.7534
  668MOL0     H92127   3.105   7.307   6.167  0.9950 -2.2361  0.5100
  668MOL0     H92128   3.180   7.415   6.293  1.5631  0.6455  0.3992
  668MOL0     H92129   3.269   7.154   6.251  0.6819  1.3108 -0.3264
  668MOL0     H92130   3.132   7.116   6.353 -2.2674  1.5457 -0.1716
  668MOL0     H92131   3.240   7.335   6.495 -0.8795 -1.1580  2.0210
  668MOL0     H92132   3.294   7.172   6.526  0.4874  1.3752  1.2514
  668MOL0     H92133   3.542   7.135   6.501 -5.0131 -0.3993  1.0551
  668MOL0     H92134   3.837   7.302   6.324  1.7937 -1.2593 -0.0050
  668MOL0     H92135   3.814   7.170   6.414  0.5775  0.8631 -1.4566
  668MOL0     H92136   3.847   7.448   6.495 -2.3868  0.0900  0.2434
  668MOL0     H92137   3.770   7.335   6.606 -0.4449 -4.0753 -0.6206
  668MOL0     H92138   3.990   7.213   6.637 -0.5396 -1.2019 -1.7654
  668MOL0     H92139   4.045   7.270   6.476  0.6862 -1.0600  0.3863
  668MOL0     H92140   4.046   7.510   6.588  0.6108  0.4248  1.2819
  668MOL0     H92141   4.024   7.422   6.739 -0.7027  1.2543 -0.8804
  668MOL0     H92142   4.423   7.292   6.598  0.8065  3.3159  2.4425
  668MOL0     H92143   4.578   7.202   6.490 -1.4463 -0.2579 -0.0412
  668MOL0     H92144   4.688   7.342   6.441  0.3404  0.0754 -0.8564
  668MOL0     H92145   4.649   7.227   6.324  0.4471 -2.6524  0.7490
  668MOL0     H92146   4.554   7.740   6.029 -0.7725  0.3227 -0.5921
  668MOL0     H92147   4.687   7.830   5.842  0.9466 -0.1135  0.1873
  668MOL0     H92148   4.877   7.536   5.579 -1.1093 -1.1603  0.9361
  668MOL0     H92149   4.775   7.622   5.469  0.3323  0.0110 -0.2409
  668MOL0     H92150   5.001   7.633   5.412 -1.2672 -1.1420  1.4568
  668MOL0     H92151   4.953   7.797   5.439  0.5573  1.2113  0.8227
  668MOL0     H92152   5.111   7.652   5.646 -0.0735  0.7945  0.2579
  668MOL0     H92153   5.023   7.809   5.661 -1.3386  1.0786 -2.6195
  668MOL0     H92154   5.179   7.913   5.505  0.0493  0.9812  0.7332
  668MOL0     H92155   5.219   7.753   5.448  0.8586  0.9047  1.0232
  668MOL0     H92156   5.314   7.886   5.716  1.8548  1.4031 -0.9667
  668MOL0     H92157   5.333   7.718   5.695  1.4640 -0.7361 -1.5889
  668MOL0     H92158   5.462   7.772   5.471 -0.6829 -1.9406  1.1468
  668MOL0     H92159   5.536   7.808   5.623  1.1243  1.8118 -0.9370
  668MOL0     H92160   5.375   8.036   5.520  1.3920  1.6634  1.0470
  668MOL0     H92161   5.513   8.001   5.414 -1.1045  2.1233 -0.0003
  668MOL0     H92162   5.530   8.032   5.719  2.3411  1.1534  1.1247
  668MOL0     H92163   5.565   8.168   5.597 -1.6407  0.0697 -1.3120
  668MOL0     H92164   4.681   7.463   5.646  0.7144 -1.4394  0.7137
  668MOL0     H92165   4.546   7.369   5.812  1.8442  0.1607 -0.8451
  668MOL0     H92166   4.270   7.536   6.204  0.9643  1.6425  0.2812
  668MOL0     H92167   4.137   7.521   6.401 -0.1414  1.1544  1.4125
  668MOL0     H92168   2.473   7.327   6.145  1.2992  0.9509 -0.7259
  668MOL0     H92169   2.206   7.304   6.157  0.2130  0.3624 -0.7628
  668MOL0     H92170   1.828   7.467   5.803  1.2666 -1.1279  0.3975
  668MOL0     H92171   1.602   7.386   5.771 -2.0937  0.6423  0.7664
  668MOL0     H92172   1.383   7.243   6.122 -1.5834 -0.4851  1.1316
  668MOL0     H92173   1.309   7.396   6.087  1.2589 -0.8944 -0.0868
  668MOL0     H92174   1.160   7.329   5.954 -0.1630 -1.6286 -0.9956
  668MOL0     H92175   1.174   7.185   6.053  2.1241  0.0049  2.7879
  668MOL0     H92176   1.230   7.227   5.759 -1.2699  0.9699 -0.2623
  668MOL0     H92177   1.327   7.101   5.844 -1.2923  0.2733  1.6064
  668MOL0     H92178   1.017   7.085   5.847  0.1108  0.4787  3.7230
  668MOL0     H92179   1.125   6.982   5.929  0.6060  1.8880  2.0376
  668MOL0     H92180   1.134   6.816   5.533 -0.9904 -0.5053  0.1089
  668MOL0     H92181   1.531   7.393   6.185  0.4102 -0.5206  0.5019
  668MOL0     H92182   1.819   7.573   6.310 -1.2632 -0.7022  3.2702
  668MOL0     H92183   1.682   7.490   6.341 -0.4220  1.7766  0.1646
  668MOL0     H92184   1.839   7.402   6.321 -0.2175 -0.6795 -0.8850
  669MOL0     O92185   5.317   0.935   6.092  0.2124  0.4974  0.6962
  669MOL0     C92186   5.283   0.825   6.137  0.1710 -0.5751 -0.5055
  669MOL0     O92187   5.376   0.727   6.170 -0.4391 -0.0572 -0.0828
  669MOL0     C92188   5.509   0.760   6.157  0.0174  0.8070  0.5072
  669MOL0     C92189   5.597   0.734   6.264 -0.4999  0.3392 -0.3169
  669MOL0     C92190   5.733   0.744   6.251 -0.0943  0.6620  0.2022
  669MOL0     C92191   5.791   0.773   6.122  0.3895 -0.6348  0.4486
  669MOL0     O92192   5.929   0.769   6.115  0.0472 -0.9197  0.2879
  669MOL0     C92193   5.992   0.684   6.027  0.5566  0.1263  0.8858
  669MOL0     C92194   6.139   0.674   6.056 -0.5992  0.3777  0.5967
  669MOL0     C92195   6.205   0.558   5.967  0.5229  0.3854 -0.2230
  669MOL0     C92196   6.310   0.475   6.040 -0.7456  0.0156 -0.2321
  669MOL0     C92197   6.424   0.437   5.942 -0.0320  0.2711  0.3745
  669MOL0     C92198   6.542   0.368   6.014 -0.6749 -0.0615 -0.6864
  669MOL0     C92199   6.651   0.316   5.921 -0.1801  0.1222  0.6117
  669MOL0     C92200   6.727   0.199   5.973  0.1525 -0.0615 -0.0534
  669MOL0     N92201   6.818   0.141   5.875 -0.1604  0.9279  0.4348
  669MOL0     C92202   6.945   0.097   5.901 -0.7911 -0.0296  0.0278
  669MOL0     C92203   6.979   0.027   5.789  0.2334 -0.7353  0.4932
  669MOL0     C92204   7.115  -0.034   5.779 -0.4619  0.2375  0.1395
  669MOL0     C92205   7.201   0.054   5.702  0.6944 -0.7134 -0.5185
  669MOL0     C92206   7.231   0.181   5.776  0.0618 -0.4456 -0.0036
  669MOL0     C92207   7.353   0.254   5.719  0.4489  0.2897 -0.7881
  669MOL0     O92208   7.478   0.176   5.721 -0.2484 -0.8241 -0.2796
  669MOL0     C92209   7.578   0.245   5.649  0.7008 -0.7137 -0.8139
  669MOL0     C92210   7.572   0.374   5.595 -0.1598  0.4542  0.8486
  669MOL0     C92211   7.674   0.433   5.513  1.3492 -0.1890 -0.4664
  669MOL0     C92212   7.652   0.567   5.468 -0.3865 -0.1476  0.3819
  669MOL0     C92213   7.793   0.356   5.508  0.0850 -0.7935 -0.4257
  669MOL0     C92214   7.905   0.413   5.428  0.5791  0.0681 -0.1138
  669MOL0     O92215   8.030   0.398   5.492 -0.5818  0.4733  0.8007
  669MOL0     C92216   8.146   0.429   5.431 -0.2902  0.2316  0.1645
  669MOL0     C92217   8.169   0.530   5.344 -0.1514 -0.9150 -0.0645
  669MOL0     C92218   8.301   0.547   5.297  0.2549  0.2884 -0.1037
  669MOL0     C92219   8.404   0.475   5.345  0.6028 -0.2489  0.7250
  669MOL0     O92220   8.525   0.504   5.300 -0.0646 -0.6679 -0.6269
  669MOL0     C92221   8.644   0.446   5.357  0.4701 -0.0626  0.1366
  669MOL0     C92222   8.762   0.534   5.316 -0.6433 -0.5692 -0.4694
  669MOL0     C92223   8.893   0.463   5.330  1.0143 -0.2229 -0.4216
  669MOL0     C92224   9.025   0.542   5.320  0.1717  0.0506  0.2540
  669MOL0     C92225   9.138   0.449   5.286  1.0472  0.1362 -0.4970
  669MOL0     C92226   9.270   0.521   5.294  1.2517 -0.1380  0.1700
  669MOL0     C92227   9.387   0.428   5.274 -0.6053  0.1672  0.5239
  669MOL0     C92228   9.526   0.490   5.288  0.6213 -0.2092 -0.8214
  669MOL0    Cl92229   9.547   0.626   5.177 -0.2789  0.1192  0.3992
  669MOL0     C92230   8.383   0.374   5.437  0.7985  0.3160 -0.4212
  669MOL0     C92231   8.250   0.355   5.474  0.5414  1.2661 -0.0483
  669MOL0     O92232   7.890   0.463   5.317  0.3687 -0.2654  0.5165
  669MOL0     C92233   7.803   0.238   5.577  0.4450 -0.5049  0.4887
  669MOL0     C92234   7.699   0.186   5.640 -0.0824  0.7123 -0.1023
  669MOL0     N92235   6.872   0.018   5.703  0.5478  0.1407  0.0094
  669MOL0     N92236   6.771   0.068   5.768 -0.0913  0.8093  0.4362
  669MOL0     C92237   5.707   0.793   6.008  0.0229 -0.0227  0.1062
  669MOL0     C92238   5.564   0.791   6.028 -0.1763  0.8872 -0.1856
  669MOL0     C92239   5.140   0.780   6.143 -0.5130 -0.1708 -0.4360
  669MOL0     C92240   5.103   0.669   6.217 -0.1772  0.3830  0.5518
  669MOL0     C92241   4.968   0.631   6.224  0.9422 -0.2779 -0.4747
  669MOL0     C92242   4.870   0.707   6.166  0.2566 -0.6194  0.4438
  669MOL0     O92243   4.742   0.673   6.168  0.0275  0.4374 -0.0976
  669MOL0     C92244   4.653   0.783   6.193  0.7428  0.2610  1.0986
  669MOL0     C92245   4.577   0.768   6.324  0.4054 -0.2137 -0.0383
  669MOL0     C92246   4.493   0.893   6.347  0.1835  0.3519 -0.4783
  669MOL0     C92247   4.429   0.892   6.486 -0.3082  0.1293  0.6644
  669MOL0     C92248   4.538   0.901   6.591  1.1211  1.0694 -0.2143
  669MOL0     C92249   4.635   0.899   6.665  0.2642 -0.7500 -0.1420
  669MOL0     C92250   4.909   0.812   6.089 -0.0449 -0.6612 -0.1030
  669MOL0     C92251   5.044   0.853   6.074  0.4697  0.1021  0.1388
  669MOL0     C92252   5.067   0.956   5.968  0.3333 -0.6556  0.3270
  669MOL0     H92253   5.562   0.714   6.365 -0.3179 -1.6730 -0.6118
  669MOL0     H92254   5.809   0.725   6.326  3.6267 -1.1336 -3.6055
  669MOL0     H92255   5.973   0.725   5.927 -0.1173  1.1043  1.3944
  669MOL0     H92256   5.945   0.587   6.044  0.8738 -0.1203  0.3652
  669MOL0     H92257   6.197   0.764   6.034 -0.6264  1.9829  5.8191
  669MOL0     H92258   6.148   0.651   6.162 -0.2500  1.5424  0.8286
  669MOL0     H92259   6.120   0.497   5.935  0.4504  1.0210 -1.3113
  669MOL0     H92260   6.251   0.604   5.879 -4.4885  1.4283 -2.7111
  669MOL0     H92261   6.356   0.527   6.124  0.6199  1.7913 -1.9752
  669MOL0     H92262   6.262   0.381   6.072  0.7601  0.0725  2.4422
  669MOL0     H92263   6.462   0.528   5.895 -1.2327  0.9163  0.6242
  669MOL0     H92264   6.392   0.358   5.873  2.4610  0.5799 -1.2895
  669MOL0     H92265   6.584   0.432   6.092 -0.7751  2.3863 -2.5326
  669MOL0     H92266   6.499   0.285   6.071  2.2312 -0.6299  0.8627
  669MOL0     H92267   6.727   0.391   5.894 -0.7828  0.4945 -0.0967
  669MOL0     H92268   6.601   0.287   5.827  2.3959  1.9969 -1.5050
  669MOL0     H92269   6.781   0.223   6.066 -0.1346  0.6744 -0.0684
  669MOL0     H92270   6.650   0.126   6.000  0.9443  0.1734  3.4243
  669MOL0     H92271   7.009   0.128   5.983  0.1974 -0.0269 -0.7189
  669MOL0     H92272   7.125  -0.132   5.732  1.2242 -0.0196  0.9592
  669MOL0     H92273   7.163  -0.038   5.877 -0.4280  0.4427  0.1328
  669MOL0     H92274   7.293  -0.002   5.683 -0.0437 -1.5113 -1.8423
  669MOL0     H92275   7.151   0.080   5.608  0.0677  0.6852  0.1645
  669MOL0     H92276   7.143   0.243   5.757 -1.7526 -2.5163  1.2559
  669MOL0     H92277   7.254   0.165   5.882 -1.4605 -1.8132  0.1555
  669MOL0     H92278   7.333   0.289   5.618 -2.1633 -1.3475 -0.9272
  669MOL0     H92279   7.359   0.341   5.785 -1.4536  0.2071 -0.4677
  669MOL0     H92280   7.477   0.425   5.597 -0.6035 -0.3854  2.4910
  669MOL0     H92281   7.747   0.621   5.463 -1.3363  1.5819  0.0403
  669MOL0     H92282   7.598   0.631   5.538  0.5546  0.9716  0.1082
  669MOL0     H92283   7.598   0.578   5.373  1.7486  0.5698 -0.8183
  669MOL0     H92284   8.091   0.602   5.323  0.3659  1.1447  3.9912
  669MOL0     H92285   8.324   0.632   5.234 -2.4960  1.5770  0.4736
  669MOL0     H92286   8.643   0.452   5.466  3.1684 -2.0185  0.3607
  669MOL0     H92287   8.650   0.341   5.328  1.7348  0.2805 -0.9415
  669MOL0     H92288   8.745   0.570   5.215 -1.5242 -1.6134 -0.7118
  669MOL0     H92289   8.762   0.620   5.384  2.8036 -0.9632  0.2198
  669MOL0     H92290   8.900   0.389   5.251  0.8687 -0.4390 -0.2333
  669MOL0     H92291   8.882   0.403   5.421  0.1916  0.7176  0.1245
  669MOL0     H92292   9.054   0.587   5.415  3.0973 -2.0873  0.5170
  669MOL0     H92293   9.022   0.615   5.239  1.2228 -1.6275 -1.4062
  669MOL0     H92294   9.138   0.364   5.355  0.4782 -0.6922 -1.4845
  669MOL0     H92295   9.131   0.404   5.187  1.3469 -2.2702  0.4895
  669MOL0     H92296   9.279   0.573   5.390  0.9517  0.3513 -0.0611
  669MOL0     H92297   9.277   0.601   5.219  0.9364 -1.1913 -1.0159
  669MOL0     H92298   9.383   0.392   5.171  3.0535 -0.1634  0.3705
  669MOL0     H92299   9.384   0.339   5.336 -0.5543  0.7505  1.3812
  669MOL0     H92300   9.609   0.421   5.271 -0.1881 -1.7747  1.1302
  669MOL0     H92301   9.537   0.523   5.392  2.7266 -1.9401 -0.4237
  669MOL0     H92302   8.459   0.318   5.490  0.1472 -0.9753 -0.8014
  669MOL0     H92303   8.217   0.280   5.545  0.9995 -1.7811 -2.8180
  669MOL0     H92304   7.895   0.181   5.567 -0.8682 -2.6361 -0.0569
  669MOL0     H92305   7.708   0.095   5.698 -3.3404 -0.3451 -1.0305
  669MOL0     H92306   5.748   0.811   5.908 -1.1217  3.3428  0.1168
  669MOL0     H92307   5.502   0.821   5.945  0.3598  3.0296  0.1274
  669MOL0     H92308   5.170   0.592   6.256 -0.8848 -0.8079 -0.4975
  669MOL0     H92309   4.925   0.545   6.276  0.5397  0.1506 -0.0817
  669MOL0     H92310   4.708   0.878   6.195  4.5101 -1.6904  0.0164
  669MOL0     H92311   4.586   0.790   6.107 -0.1535 -1.1294  1.6589
  669MOL0     H92312   4.650   0.751   6.403  1.8655 -2.0416 -1.6724
  669MOL0     H92313   4.519   0.676   6.318  1.9511 -1.3102  1.1920
  669MOL0     H92314   4.556   0.982   6.331 -0.7241  0.8154 -1.5661
  669MOL0     H92315   4.412   0.893   6.274  1.0901 -3.9527 -1.7228
  669MOL0     H92316   4.371   0.799   6.489 -1.4484  0.5854 -2.7813
  669MOL0     H92317   4.357   0.972   6.504  0.0348  0.3406  1.1219
  669MOL0     H92318   4.722   0.896   6.728  0.8560  0.7046 -0.8365
  669MOL0     H92319   4.836   0.865   6.030  1.6381 -0.3437 -2.0241
  669MOL0     H92320   4.985   0.979   5.899  0.3960  0.2458  0.5474
  669MOL0     H92321   5.108   1.048   6.009  1.5587 -0.2913 -1.5576
  669MOL0     H92322   5.145   0.909   5.907  0.4074 -2.6175  1.8259
  670MOL0     O92323   4.103   4.434   4.634  0.4444  0.2970 -0.0276
  670MOL0     C92324   4.101   4.312   4.637  0.7676  0.2991  0.4481
  670MOL0     O92325   4.191   4.237   4.577  0.2013 -0.1072  0.1678
  670MOL0     C92326   4.292   4.307   4.517 -0.1542  0.4414 -0.0721
  670MOL0     C92327   4.399   4.362   4.591  0.3401  0.6326  0.1345
  670MOL0     C92328   4.500   4.434   4.532  0.4475 -0.9535  0.7620
  670MOL0     C92329   4.503   4.458   4.394  0.6136 -0.1105  0.0940
  670MOL0     O92330   4.596   4.533   4.325 -0.2559 -1.1534 -0.8481
  670MOL0     C92331   4.704   4.581   4.410  0.5176  0.3508 -0.3299
  670MOL0     C92332   4.810   4.637   4.311  0.6587 -0.4127 -0.5518
  670MOL0     C92333   4.778   4.792   4.287  0.6386  0.7868  0.1273
  670MOL0     C92334   4.896   4.843   4.199 -0.1461  0.7331 -0.0002
  670MOL0     C92335   5.021   4.857   4.283  0.0338 -0.7602  0.3812
  670MOL0     C92336   5.126   4.952   4.228  0.0262  0.7397 -0.2831
  670MOL0     C92337   5.199   4.882   4.117  0.0050  0.5978  0.1068
  670MOL0     C92338   5.308   4.972   4.050  0.1700  0.4321 -0.1411
  670MOL0     N92339   5.416   5.022   4.136 -0.4177  0.2071 -0.0956
  670MOL0     C92340   5.512   5.108   4.083 -0.6698  0.1030 -0.3905
  670MOL0     C92341   5.622   5.082   4.150  0.3666  0.6168 -0.5533
  670MOL0     C92342   5.761   5.141   4.134  0.3643  0.2602  0.2051
  670MOL0     C92343   5.848   5.025   4.090 -0.3749  0.0301  0.3320
  670MOL0     C92344   5.992   5.053   4.066  0.3268 -0.1505 -0.5078
  670MOL0     C92345   6.071   5.077   4.190  0.6399  0.6628 -0.2873
  670MOL0     O92346   6.201   5.116   4.147  0.4679  0.5632  0.0331
  670MOL0     C92347   6.282   5.168   4.244  0.0920  0.1440 -0.0794
  670MOL0     C92348   6.307   5.092   4.355 -0.4527 -0.4531  0.3625
  670MOL0     C92349   6.392   5.141   4.463 -0.1168  0.2908  0.4467
  670MOL0     C92350   6.412   5.054   4.577  0.3329  0.2020 -0.0833
  670MOL0     C92351   6.454   5.268   4.442  0.0763 -1.0077 -0.6239
  670MOL0     C92352   6.538   5.332   4.548  0.3829  0.4415 -0.2147
  670MOL0     O92353   6.640   5.412   4.507  0.2867  0.1231  0.5079
  670MOL0     C92354   6.724   5.444   4.606 -0.3791  0.5134 -0.0297
  670MOL0     C92355   6.842   5.371   4.605 -0.4748 -0.1910 -1.1047
  670MOL0     C92356   6.947   5.408   4.692  0.8620 -0.9498  0.4791
  670MOL0     C92357   6.929   5.518   4.779 -0.0500  0.1950 -0.5740
  670MOL0     O92358   7.024   5.566   4.867  0.0875  0.3398 -0.4742
  670MOL0     C92359   7.166   5.540   4.853  0.1712 -0.0312 -0.3553
  670MOL0     C92360   7.255   5.638   4.942 -0.3723 -0.7583  0.6635
  670MOL0     C92361   7.410   5.595   4.938  0.8298  0.4622  0.3113
  670MOL0     C92362   7.505   5.705   5.002  0.3020  0.8120 -0.0786
  670MOL0     C92363   7.655   5.677   4.974  0.1103 -0.4208  0.6009
  670MOL0     C92364   7.711   5.727   4.845 -0.3935  0.4809  0.7567
  670MOL0     C92365   7.731   5.877   4.851 -0.1391 -0.0403 -0.6695
  670MOL0     C92366   7.766   5.940   4.718 -0.7175  0.4321  0.0276
  670MOL0    Cl92367   7.713   6.106   4.707 -0.8260  0.1363  0.4432
  670MOL0     C92368   6.809   5.587   4.784 -0.1366 -0.5843  0.0416
  670MOL0     C92369   6.705   5.546   4.698  0.7201 -0.4550 -0.8708
  670MOL0     O92370   6.497   5.316   4.667  0.0557 -0.4514  0.5505
  670MOL0     C92371   6.434   5.340   4.326 -0.6589  0.3627 -0.6735
  670MOL0     C92372   6.353   5.282   4.218 -0.7928  0.4051  0.2565
  670MOL0     N92373   5.595   4.992   4.255  0.1676 -0.5393 -0.6138
  670MOL0     N92374   5.475   4.948   4.246 -0.4423  0.5222 -0.2552
  670MOL0     C92375   4.401   4.398   4.319 -0.0489  0.6753  0.6462
  670MOL0     C92376   4.294   4.325   4.380 -0.7187  0.8389  0.4805
  670MOL0     C92377   3.972   4.245   4.689 -0.3751  0.4397  0.5609
  670MOL0     C92378   3.953   4.108   4.649 -0.2489  0.6080 -0.3316
  670MOL0     C92379   3.842   4.028   4.682 -1.3605 -0.2752 -0.5196
  670MOL0     C92380   3.752   4.077   4.776  0.3934 -0.1606 -0.2104
  670MOL0     O92381   3.648   3.998   4.812  0.6018  0.2433  0.5133
  670MOL0     C92382   3.519   4.060   4.850 -1.0094  0.7865  1.1242
  670MOL0     C92383   3.406   3.978   4.781  0.7573  0.3120  0.6075
  670MOL0     C92384   3.418   3.819   4.806  0.8943 -0.3307 -0.6114
  670MOL0     C92385   3.291   3.736   4.782  0.0719 -0.7500  0.1374
  670MOL0     C92386   3.218   3.790   4.670  0.3538  0.3876  0.7693
  670MOL0     C92387   3.166   3.818   4.561  0.3286  0.3641  0.0702
  670MOL0     C92388   3.768   4.214   4.807  0.6022 -0.4814  0.0703
  670MOL0     C92389   3.871   4.307   4.757  0.3051 -0.3022 -0.0624
  670MOL0     C92390   3.876   4.451   4.815  0.0007  0.7365  0.4216
  670MOL0     H92391   4.400   4.341   4.697  5.6321 -0.9371  0.0932
  670MOL0     H92392   4.581   4.464   4.598  1.1390  1.7532 -1.1728
  670MOL0     H92393   4.750   4.492   4.454 -1.2395 -1.2682 -1.6057
  670MOL0     H92394   4.671   4.648   4.490 -0.5354  0.2430 -0.6543
  670MOL0     H92395   4.909   4.612   4.351  0.1334  1.8026  2.4796
  670MOL0     H92396   4.795   4.588   4.215  2.3362  0.3986 -1.2768
  670MOL0     H92397   4.690   4.819   4.228  1.7744 -0.4697 -2.2938
  670MOL0     H92398   4.778   4.838   4.387  1.7903 -1.2700  1.1295
  670MOL0     H92399   4.916   4.768   4.122  1.8436 -1.9978  2.9257
  670MOL0     H92400   4.873   4.939   4.152 -1.9967 -0.2083 -1.1054
  670MOL0     H92401   5.066   4.759   4.304  1.2032 -1.0995 -3.0066
  670MOL0     H92402   4.987   4.902   4.376 -0.2053  0.5070 -0.3067
  670MOL0     H92403   5.075   5.046   4.205  1.6494  2.6810  3.2182
  670MOL0     H92404   5.198   4.969   4.309  1.4998 -0.9971 -1.1540
  670MOL0     H92405   5.125   4.851   4.042 -3.2232  2.1499  2.3968
  670MOL0     H92406   5.251   4.794   4.157 -0.7170 -0.4277 -1.1418
  670MOL0     H92407   5.353   4.919   3.966  0.2121  0.8045 -0.3516
  670MOL0     H92408   5.252   5.060   4.017 -0.5306 -0.0851 -0.3797
  670MOL0     H92409   5.502   5.175   3.998 -0.6513  1.7297  0.8470
  670MOL0     H92410   5.803   5.169   4.231 -0.8876  0.0151  0.8322
  670MOL0     H92411   5.769   5.216   4.055 -0.2802  0.2537  0.1257
  670MOL0     H92412   5.837   4.943   4.163 -2.1024  1.5751  1.9125
  670MOL0     H92413   5.810   4.984   3.996  0.8084 -1.0459  0.2929
  670MOL0     H92414   6.036   4.968   4.012  1.4105 -1.0043  1.6217
  670MOL0     H92415   5.992   5.137   3.996  1.4207 -0.1656 -0.5404
  670MOL0     H92416   6.024   5.153   4.252 -0.8941 -0.5574  0.0981
  670MOL0     H92417   6.081   4.983   4.245  5.1963  1.0346 -0.0521
  670MOL0     H92418   6.245   5.004   4.364  1.3137 -1.9301 -1.0634
  670MOL0     H92419   6.352   4.964   4.562 -0.6547  0.7808  0.3478
  670MOL0     H92420   6.376   5.114   4.661  0.8422 -0.6456  0.7587
  670MOL0     H92421   6.515   5.033   4.606 -0.3174  1.0453  3.2060
  670MOL0     H92422   6.848   5.283   4.541  2.2126 -0.0355 -1.1754
  670MOL0     H92423   7.040   5.354   4.678  0.8501 -0.4277 -2.0172
  670MOL0     H92424   7.183   5.434   4.876 -1.1765 -0.7179 -2.2615
  670MOL0     H92425   7.203   5.557   4.752  1.0736  3.2169  0.4030
  670MOL0     H92426   7.234   5.739   4.907 -0.2017 -1.5166 -1.7649
  670MOL0     H92427   7.224   5.625   5.047  0.4539 -2.4398  0.7340
  670MOL0     H92428   7.430   5.587   4.831 -1.7332  1.5865 -0.3356
  670MOL0     H92429   7.424   5.495   4.980  3.9983 -0.1853 -1.9608
  670MOL0     H92430   7.489   5.722   5.109  0.9416 -1.7382  0.4912
  670MOL0     H92431   7.467   5.795   4.953 -0.7790  0.1965 -0.4070
  670MOL0     H92432   7.718   5.715   5.055 -1.3739  2.8602  0.4068
  670MOL0     H92433   7.655   5.569   4.961 -1.7662 -0.2524 -1.3001
  670MOL0     H92434   7.651   5.713   4.755 -1.8217  1.3455  1.5442
  670MOL0     H92435   7.807   5.677   4.826 -0.8778 -2.4631  4.7462
  670MOL0     H92436   7.811   5.895   4.924 -2.6808  1.1378  2.0341
  670MOL0     H92437   7.637   5.923   4.882  0.0883  0.1646 -0.2584
  670MOL0     H92438   7.703   5.886   4.647 -0.2795 -0.4286  0.2768
  670MOL0     H92439   7.867   5.922   4.681  0.1383  1.0654  1.9384
  670MOL0     H92440   6.793   5.672   4.850  1.5312  1.0995 -1.6127
  670MOL0     H92441   6.606   5.591   4.704  1.3811  0.8147  2.2660
  670MOL0     H92442   6.473   5.439   4.309  1.0579 -0.1149  0.2699
  670MOL0     H92443   6.335   5.343   4.130  2.0518  0.1533 -0.6049
  670MOL0     H92444   4.413   4.421   4.213  1.1325 -0.0155  0.6126
  670MOL0     H92445   4.211   4.289   4.320 -0.3213 -1.6198  1.2619
  670MOL0     H92446   4.025   4.053   4.589 -1.9996  1.5025 -3.4705
  670MOL0     H92447   3.851   3.925   4.647  2.7453 -0.2232 -0.1811
  670MOL0     H92448   3.511   4.045   4.958 -2.3792 -1.2073  0.7987
  670MOL0     H92449   3.512   4.169   4.835  0.3685  0.6601 -0.7977
  670MOL0     H92450   3.393   4.010   4.677  0.1497  1.0123  0.8888
  670MOL0     H92451   3.318   4.023   4.827 -0.3262  0.8391 -1.8060
  670MOL0     H92452   3.502   3.787   4.744  1.1321 -0.7238 -0.0897
  670MOL0     H92453   3.448   3.820   4.912  3.0785  0.1425 -1.1739
  670MOL0     H92454   3.230   3.746   4.873  1.5934 -1.4357  1.2774
  670MOL0     H92455   3.325   3.635   4.762  0.2530 -0.9302  1.2802
  670MOL0     H92456   3.128   3.847   4.465 -1.8888 -0.8277  0.5115
  670MOL0     H92457   3.694   4.247   4.880  0.7721  0.7175 -0.2901
  670MOL0     H92458   3.862   4.530   4.741 -1.1574  0.3886  0.2585
  670MOL0     H92459   3.787   4.461   4.877 -0.3043  2.3334 -0.2210
  670MOL0     H92460   3.965   4.464   4.879  1.3108 -0.2729 -1.1139
  671MOL0     O92461   1.442   6.622   5.674 -0.3153 -0.2725 -0.2793
  671MOL0     C92462   1.435   6.596   5.553 -0.4556 -0.0867  0.6685
  671MOL0     O92463   1.535   6.535   5.474 -0.1557  0.2356  0.7368
  671MOL0     C92464   1.664   6.524   5.525  0.2729 -0.2020  0.0914
  671MOL0     C92465   1.697   6.392   5.573 -0.1860 -1.2137 -0.3723
  671MOL0     C92466   1.820   6.384   5.638 -0.0182 -0.5305 -0.7835
  671MOL0     C92467   1.910   6.492   5.659  0.0860  0.3314  0.1101
  671MOL0     O92468   2.024   6.483   5.733 -0.7662  0.4967  0.5514
  671MOL0     C92469   2.096   6.361   5.755  0.0778 -0.4086  0.7282
  671MOL0     C92470   2.241   6.393   5.792  0.2287  0.4322 -0.6682
  671MOL0     C92471   2.316   6.267   5.817 -0.3955 -1.0295 -0.4936
  671MOL0     C92472   2.465   6.279   5.852  0.7445  0.7051  0.0130
  671MOL0     C92473   2.541   6.153   5.801  0.1626  0.2963  0.4949
  671MOL0     C92474   2.690   6.169   5.838 -0.2909 -0.4097 -0.1805
  671MOL0     C92475   2.770   6.251   5.734  1.2400  0.2758  1.1319
  671MOL0     C92476   2.822   6.171   5.619 -0.4332  1.0267  0.2266
  671MOL0     N92477   2.943   6.081   5.640 -0.1459  0.0271  0.1967
  671MOL0     C92478   2.953   5.943   5.633  0.2312  0.5961 -0.7620
  671MOL0     C92479   3.090   5.915   5.632  1.0681  0.3311  0.4076
  671MOL0     C92480   3.157   5.784   5.606 -0.0684 -0.4663 -0.4605
  671MOL0     C92481   3.305   5.807   5.571  0.0796 -0.4366 -0.6662
  671MOL0     C92482   3.365   5.678   5.529  0.3731 -0.6624 -0.4078
  671MOL0     C92483   3.516   5.685   5.524 -0.3778  1.2498 -0.6589
  671MOL0     O92484   3.568   5.723   5.649  0.2597 -0.0672 -0.1434
  671MOL0     C92485   3.704   5.719   5.663 -0.8096 -0.2793 -0.1449
  671MOL0     C92486   3.760   5.768   5.790  0.2217  0.3863 -0.5851
  671MOL0     C92487   3.894   5.771   5.814 -0.9526  0.1501 -0.1011
  671MOL0     C92488   3.934   5.832   5.948  0.4260 -0.0740  0.1999
  671MOL0     C92489   3.993   5.720   5.723  0.0043 -0.7713 -0.0029
  671MOL0     C92490   4.146   5.712   5.745  0.0951  0.5895 -0.3279
  671MOL0     O92491   4.217   5.646   5.646 -0.4197 -0.1731  0.5515
  671MOL0     C92492   4.355   5.640   5.663  0.2862 -0.0659 -0.5078
  671MOL0     C92493   4.407   5.600   5.794 -0.6418  0.3211 -0.6373
  671MOL0     C92494   4.550   5.588   5.808  0.6235 -0.0462  0.6188
  671MOL0     C92495   4.637   5.628   5.705  0.6842  0.4614  0.2512
  671MOL0     O92496   4.773   5.650   5.718  0.3302 -0.3042  0.7060
  671MOL0     C92497   4.828   5.690   5.843 -0.1527 -0.1639  0.5046
  671MOL0     C92498   4.971   5.695   5.844 -0.0562 -0.1269  0.6704
  671MOL0     C92499   5.018   5.802   5.745 -0.0046  0.2624 -1.0421
  671MOL0     C92500   5.172   5.814   5.737 -0.2101  0.2708  0.4411
  671MOL0     C92501   5.219   5.944   5.667  0.4408  0.3616 -0.0532
  671MOL0     C92502   5.349   5.930   5.591 -0.2452 -0.4419 -0.1869
  671MOL0     C92503   5.334   5.894   5.447 -0.0444 -0.7339 -0.1430
  671MOL0     C92504   5.448   5.811   5.397 -0.6066 -0.1974  0.7441
  671MOL0    Cl92505   5.581   5.933   5.389 -0.1412  0.3022  0.5206
  671MOL0     C92506   4.581   5.646   5.576  0.3426  0.0176 -0.1780
  671MOL0     C92507   4.443   5.644   5.560  0.0165  0.0959  0.0109
  671MOL0     O92508   4.192   5.762   5.844  0.4866  0.0631  0.0781
  671MOL0     C92509   3.933   5.670   5.606  0.0689 -0.2425  0.3054
  671MOL0     C92510   3.799   5.665   5.580  0.6021 -0.5372  0.3028
  671MOL0     N92511   3.149   6.040   5.640 -0.2181  0.3967 -0.3393
  671MOL0     N92512   3.066   6.137   5.647  0.2681 -0.6476 -0.3737
  671MOL0     C92513   1.867   6.618   5.612 -0.3462 -0.6599  0.1480
  671MOL0     C92514   1.742   6.637   5.551 -0.2053 -0.2420  0.4253
  671MOL0     C92515   1.302   6.600   5.487 -0.6305  0.3022  1.0751
  671MOL0     C92516   1.297   6.644   5.353  0.1669 -1.0632 -0.1818
  671MOL0     C92517   1.182   6.637   5.280 -0.0513 -0.2348  0.0158
  671MOL0     C92518   1.070   6.576   5.339  0.8408 -0.2295  0.1291
  671MOL0     O92519   0.951   6.555   5.271  0.7313 -0.3962  0.1637
  671MOL0     C92520   0.937   6.616   5.142 -0.5559 -1.1308  0.5742
  671MOL0     C92521   0.790   6.643   5.108  0.9902  0.1128  0.6039
  671MOL0     C92522   0.685   6.544   5.147 -0.5240 -0.1574 -0.1550
  671MOL0     C92523   0.540   6.590   5.106  1.4659 -0.0861 -0.6706
  671MOL0     C92524   0.450   6.470   5.116 -0.3294 -0.3909 -0.1268
  671MOL0     C92525   0.379   6.373   5.122 -0.3009  0.0351 -0.9140
  671MOL0     C92526   1.066   6.540   5.470  0.3106 -0.2194  0.2603
  671MOL0     C92527   1.187   6.549   5.545 -0.1411  0.1301  0.0082
  671MOL0     C92528   1.176   6.490   5.685 -0.0146  0.5539 -0.2295
  671MOL0     H92529   1.625   6.312   5.582 -0.9569 -0.7968 -2.2337
  671MOL0     H92530   1.851   6.293   5.689  2.9784  0.4360 -0.6467
  671MOL0     H92531   2.084   6.292   5.671 -1.0038  1.6038 -0.8755
  671MOL0     H92532   2.051   6.317   5.844 -2.2873  1.9059  0.8111
  671MOL0     H92533   2.292   6.450   5.713  0.5407 -0.1803 -0.9155
  671MOL0     H92534   2.245   6.462   5.876  1.4127  0.8583 -1.0517
  671MOL0     H92535   2.265   6.202   5.889 -0.0435 -1.2004 -0.3984
  671MOL0     H92536   2.316   6.216   5.721  2.6766 -1.1405 -0.5098
  671MOL0     H92537   2.504   6.373   5.811  0.3294  0.2666 -1.4591
  671MOL0     H92538   2.479   6.289   5.960  1.0729 -4.5648  0.7280
  671MOL0     H92539   2.525   6.160   5.693 -1.1760  3.5495  0.7853
  671MOL0     H92540   2.501   6.057   5.837  1.0538 -0.0247  0.6678
  671MOL0     H92541   2.707   6.210   5.938 -1.2411 -1.1929  0.3171
  671MOL0     H92542   2.739   6.071   5.839 -1.7067 -1.1620 -1.7482
  671MOL0     H92543   2.863   6.284   5.780  1.5127 -0.7371  1.3301
  671MOL0     H92544   2.713   6.335   5.694  2.1998  0.7157  0.6486
  671MOL0     H92545   2.749   6.109   5.566 -0.4805  1.0593  0.2529
  671MOL0     H92546   2.841   6.240   5.537 -0.0902  1.1786  0.4313
  671MOL0     H92547   2.880   5.864   5.643  0.0382  0.7322 -1.0668
  671MOL0     H92548   3.095   5.741   5.526 -2.6708  0.3824  0.9645
  671MOL0     H92549   3.139   5.722   5.693  1.6265 -1.5369 -0.8301
  671MOL0     H92550   3.325   5.883   5.494  0.0965 -0.7023 -0.9247
  671MOL0     H92551   3.344   5.848   5.665  1.4360 -1.7810 -0.6058
  671MOL0     H92552   3.329   5.605   5.602 -0.5716  1.6885  1.6413
  671MOL0     H92553   3.327   5.637   5.436  0.9240  0.7796 -1.2971
  671MOL0     H92554   3.553   5.584   5.508  2.0690  1.6970  1.5350
  671MOL0     H92555   3.556   5.753   5.449  1.1314  1.0439 -0.0728
  671MOL0     H92556   3.694   5.797   5.871  1.8673 -0.1949  1.0455
  671MOL0     H92557   3.852   5.875   6.007  0.1325 -2.0791  1.3603
  671MOL0     H92558   3.997   5.921   5.935 -0.1547  0.2806 -0.2146
  671MOL0     H92559   3.989   5.760   6.009 -0.4609 -1.7042 -0.8642
  671MOL0     H92560   4.346   5.586   5.882 -1.2832  1.9793 -0.7796
  671MOL0     H92561   4.582   5.546   5.903 -0.7018  0.1892  1.2034
  671MOL0     H92562   4.787   5.789   5.865 -0.2281 -0.1199  0.1808
  671MOL0     H92563   4.800   5.626   5.927  0.6132  1.9593  2.4740
  671MOL0     H92564   5.017   5.702   5.943  1.7700 -1.3472 -0.0612
  671MOL0     H92565   5.004   5.603   5.796 -2.2959 -0.3197 -0.6767
  671MOL0     H92566   4.970   5.894   5.778  0.2925  0.3909 -0.9683
  671MOL0     H92567   4.982   5.765   5.648 -0.9703 -1.4087 -0.0885
  671MOL0     H92568   5.212   5.725   5.687  2.9542  0.9657  1.5342
  671MOL0     H92569   5.219   5.811   5.836  0.4752 -0.0272  0.1112
  671MOL0     H92570   5.138   5.976   5.600  0.5489 -1.9893 -1.4363
  671MOL0     H92571   5.226   6.017   5.748 -0.5885  0.0381  0.3521
  671MOL0     H92572   5.432   5.875   5.638  0.0543 -0.8690 -1.1891
  671MOL0     H92573   5.388   6.032   5.600 -0.5821 -0.2276 -1.1006
  671MOL0     H92574   5.312   5.981   5.385  0.2472 -2.2426 -2.4605
  671MOL0     H92575   5.244   5.833   5.456 -1.1216  1.0194  1.9906
  671MOL0     H92576   5.417   5.761   5.304 -2.5674  1.8095  0.2566
  671MOL0     H92577   5.469   5.729   5.467  0.7305 -1.8493 -1.4190
  671MOL0     H92578   4.644   5.679   5.494  1.8375  3.1374  1.9998
  671MOL0     H92579   4.399   5.651   5.461 -2.7399  0.2294  1.1404
  671MOL0     H92580   4.005   5.624   5.540  0.6479 -1.5709  1.7924
  671MOL0     H92581   3.767   5.617   5.487  0.5377  0.8221 -0.4007
  671MOL0     H92582   1.932   6.704   5.625 -2.1987  0.8587 -0.1261
  671MOL0     H92583   1.706   6.732   5.512  1.0197  0.0498 -0.0196
  671MOL0     H92584   1.380   6.691   5.303 -0.9583 -0.8054 -1.8867
  671MOL0     H92585   1.182   6.661   5.175 -2.7655 -2.5166 -0.6341
  671MOL0     H92586   0.988   6.713   5.133 -2.6205 -0.0146  0.3663
  671MOL0     H92587   0.981   6.546   5.069 -1.1695 -0.4674 -0.4567
  671MOL0     H92588   0.783   6.669   5.002 -0.1164  0.0888  0.6619
  671MOL0     H92589   0.751   6.730   5.160 -0.1739 -0.4113  0.6268
  671MOL0     H92590   0.715   6.444   5.116  2.1920 -0.6550  3.3924
  671MOL0     H92591   0.681   6.534   5.256 -0.6569  4.4176  0.4319
  671MOL0     H92592   0.536   6.631   5.004 -2.0291 -2.8200 -1.8269
  671MOL0     H92593   0.506   6.671   5.172  1.2069  1.1412 -2.2507
  671MOL0     H92594   0.325   6.281   5.129  0.4647 -0.5332 -2.0418
  671MOL0     H92595   0.976   6.491   5.506  1.1150 -0.0602  2.7132
  671MOL0     H92596   1.073   6.457   5.701 -0.9860  2.0101 -2.8938
  671MOL0     H92597   1.249   6.409   5.698  0.9025  1.1286 -1.5267
  671MOL0     H92598   1.191   6.563   5.765 -1.1974 -3.0781  3.7015
  672MOL0     O92599   0.625  10.448   3.062  0.5750  0.0138 -0.1338
  672MOL0     C92600   0.619  10.470   3.176  0.0340  0.7038  0.1637
  672MOL0     O92601   0.543  10.566   3.231 -0.6080 -0.0954 -0.1794
  672MOL0     C92602   0.464  10.644   3.152  0.2370 -0.2168 -0.0521
  672MOL0     C92603   0.511  10.763   3.091 -0.1372  0.4275 -0.0459
  672MOL0     C92604   0.427  10.851   3.020 -1.1418  0.5157 -1.3761
  672MOL0     C92605   0.292  10.825   3.024 -0.1968 -0.0100  0.1693
  672MOL0     O92606   0.206  10.927   2.992 -0.4577  0.1935 -0.0545
  672MOL0     C92607   0.117  10.897   2.887 -0.2335 -0.1676  0.3844
  672MOL0     C92608  -0.005  10.982   2.898  0.5484  0.6814 -0.9062
  672MOL0     C92609   0.011  11.119   2.817 -0.2150  0.3132 -0.3463
  672MOL0     C92610   0.125  11.205   2.855 -0.5246  0.3329  0.3421
  672MOL0     C92611   0.100  11.353   2.810 -0.4003  0.3980 -1.2855
  672MOL0     C92612   0.221  11.442   2.832 -0.2999  0.8214 -0.2076
  672MOL0     C92613   0.276  11.445   2.971 -0.7971  1.0552  0.0811
  672MOL0     C92614   0.382  11.561   2.974 -0.2082  0.0311  0.2438
  672MOL0     N92615   0.466  11.538   3.094  0.4983 -0.2411  0.3400
  672MOL0     C92616   0.432  11.573   3.222 -0.4861  0.6887 -0.1911
  672MOL0     C92617   0.534  11.525   3.296  0.0276 -0.2693 -0.4653
  672MOL0     C92618   0.569  11.540   3.453 -0.7431  0.4759  0.2559
  672MOL0     C92619   0.573  11.681   3.520  0.8401  0.6267  0.6017
  672MOL0     C92620   0.471  11.780   3.472 -0.5638 -0.5333 -0.1392
  672MOL0     C92621   0.448  11.892   3.577  0.9738 -0.8681  0.1745
  672MOL0     O92622   0.540  12.004   3.565  0.6977 -0.0723  0.2494
  672MOL0     C92623   0.668  12.010   3.618  0.4585  0.8496  0.6179
  672MOL0     C92624   0.718  11.912   3.704  0.5660  0.2054  0.9105
  672MOL0     C92625   0.847  11.914   3.754  0.1005  0.6231 -0.4993
  672MOL0     C92626   0.887  11.797   3.841 -0.0593  0.7145  0.2063
  672MOL0     C92627   0.925  12.036   3.731 -0.4223 -0.4363  0.1407
  672MOL0     C92628   1.069  12.065   3.785  0.6378 -0.1649  0.2029
  672MOL0     O92629   1.114  12.187   3.751 -0.0037 -0.4657 -0.3275
  672MOL0     C92630   1.241  12.215   3.792  0.2480 -0.0310 -0.7899
  672MOL0     C92631   1.270  12.286   3.908  0.3100 -0.9665 -0.4062
  672MOL0     C92632   1.401  12.324   3.943 -0.0045  0.3582  0.7273
  672MOL0     C92633   1.511  12.289   3.859 -0.9255 -0.3097 -0.0658
  672MOL0     O92634   1.639  12.334   3.883 -0.8268  0.1760 -0.6376
  672MOL0     C92635   1.680  12.455   3.957  0.4624  0.0468  0.3179
  672MOL0     C92636   1.808  12.508   3.893 -0.2092 -0.8711 -0.2855
  672MOL0     C92637   1.789  12.567   3.758 -0.0957  0.2139  0.0336
  672MOL0     C92638   1.914  12.649   3.720 -0.1596  0.3202  0.2260
  672MOL0     C92639   1.920  12.697   3.570 -0.3656  0.0068  1.1432
  672MOL0     C92640   2.050  12.784   3.558 -0.0414  0.0014 -0.8697
  672MOL0     C92641   2.078  12.837   3.421  0.2660 -0.4012 -0.2721
  672MOL0     C92642   2.228  12.863   3.396 -0.6898  0.7655 -0.6306
  672MOL0    Cl92643   2.280  13.013   3.452  0.0670 -0.1064 -0.0237
  672MOL0     C92644   1.484  12.217   3.742  0.5197 -1.0789  0.2813
  672MOL0     C92645   1.346  12.180   3.715 -0.1890  1.1581  0.8689
  672MOL0     O92646   1.132  11.971   3.826 -0.5670  0.0239 -0.0672
  672MOL0     C92647   0.874  12.142   3.645  0.3076 -0.1040 -0.5866
  672MOL0     C92648   0.745  12.121   3.592  0.2704 -0.4102 -0.0647
  672MOL0     N92649   0.629  11.476   3.207  0.1755 -0.0171 -0.2478
  672MOL0     N92650   0.582  11.476   3.091 -0.3168 -1.0414  0.6476
  672MOL0     C92651   0.242  10.714   3.083 -0.5114 -0.2263 -0.2528
  672MOL0     C92652   0.328  10.622   3.156  0.9556 -0.2445  0.6964
  672MOL0     C92653   0.710  10.388   3.274  1.5116  0.3746  0.1026
  672MOL0     C92654   0.701  10.417   3.415  0.6208 -0.0612  0.0530
  672MOL0     C92655   0.782  10.357   3.506  0.0594  0.0310 -0.2725
  672MOL0     C92656   0.888  10.272   3.466  0.4854  0.8273  0.0865
  672MOL0     O92657   0.979  10.228   3.556 -0.0508 -0.2766 -0.0242
  672MOL0     C92658   1.022  10.305   3.678  0.4398  0.3730 -0.1538
  672MOL0     C92659   1.172  10.272   3.701  0.0142 -0.9407 -0.0232
  672MOL0     C92660   1.193  10.114   3.706  0.6602  0.1405  0.9748
  672MOL0     C92661   1.325  10.080   3.650 -0.7941  0.5399  0.0532
  672MOL0     C92662   1.444  10.160   3.685 -0.6518 -0.5139 -0.6572
  672MOL0     C92663   1.542  10.220   3.717 -0.1984 -0.2823 -0.1859
  672MOL0     C92664   0.898  10.236   3.330 -0.1135  0.8754  0.1352
  672MOL0     C92665   0.799  10.282   3.235 -0.1983  1.0945  0.1332
  672MOL0     C92666   0.823  10.241   3.087 -1.6813 -0.0025  0.6955
  672MOL0     H92667   0.616  10.790   3.096  0.2823 -1.2272  0.6749
  672MOL0     H92668   0.457  10.946   2.976  0.9510  0.3901 -0.3322
  672MOL0     H92669   0.090  10.791   2.891  0.8830 -0.4513  0.6866
  672MOL0     H92670   0.178  10.923   2.800  1.9735 -1.5274  1.4338
  672MOL0     H92671  -0.076  10.914   2.851  2.0530 -0.2754 -1.8587
  672MOL0     H92672  -0.045  11.001   2.998  1.2524  1.2632 -0.7214
  672MOL0     H92673   0.013  11.100   2.709 -0.1750 -0.7950 -0.1636
  672MOL0     H92674  -0.078  11.181   2.830 -0.1844  0.2568  0.1628
  672MOL0     H92675   0.133  11.200   2.964  2.4950  1.2125  0.2441
  672MOL0     H92676   0.218  11.172   2.808 -0.1679 -2.4076  2.6709
  672MOL0     H92677   0.011  11.394   2.859 -0.3493 -0.1543 -0.7021
  672MOL0     H92678   0.078  11.348   2.703  0.7321  0.1886 -1.5163
  672MOL0     H92679   0.301  11.412   2.764  1.0223  1.0060  1.2071
  672MOL0     H92680   0.208  11.546   2.801  1.3372  1.6533  1.6833
  672MOL0     H92681   0.326  11.352   3.001 -1.1633  1.0785  0.7812
  672MOL0     H92682   0.195  11.466   3.042 -4.4618 -1.8748 -2.7986
  672MOL0     H92683   0.442  11.553   2.882  3.6484 -1.3887  2.6522
  672MOL0     H92684   0.337  11.660   2.966 -3.8521 -1.5730 -1.3485
  672MOL0     H92685   0.337  11.610   3.260 -0.1073 -0.2825  1.8148
  672MOL0     H92686   0.667  11.493   3.467 -0.9773 -0.3403 -0.7447
  672MOL0     H92687   0.503  11.477   3.513  1.8960 -1.2256  1.5453
  672MOL0     H92688   0.564  11.660   3.627 -2.1884  0.4928  0.3982
  672MOL0     H92689   0.677  11.711   3.505  1.5654 -0.5091  2.8490
  672MOL0     H92690   0.517  11.831   3.387  0.4189 -0.1311  0.6134
  672MOL0     H92691   0.378  11.731   3.442 -0.0520 -1.5513 -0.0984
  672MOL0     H92692   0.348  11.933   3.562  1.2056  0.5627  2.1879
  672MOL0     H92693   0.448  11.845   3.676 -1.4911 -1.3867 -0.0181
  672MOL0     H92694   0.650  11.830   3.729 -1.1692  0.9639 -0.9893
  672MOL0     H92695   0.993  11.775   3.824 -0.7297 -1.3378 -1.7975
  672MOL0     H92696   0.837  11.710   3.798  3.2487 -0.8094 -0.9196
  672MOL0     H92697   0.854  11.817   3.943 -1.5508 -2.5368  0.4544
  672MOL0     H92698   1.196  12.333   3.973 -0.1908  0.7863 -2.1437
  672MOL0     H92699   1.421  12.377   4.036  3.8884 -0.5888  0.6000
  672MOL0     H92700   1.594  12.523   3.956  0.7157  0.4716  2.7414
  672MOL0     H92701   1.710  12.414   4.053 -0.2626 -2.0650 -0.3182
  672MOL0     H92702   1.852  12.583   3.960  1.6544 -1.2369 -1.0622
  672MOL0     H92703   1.887  12.435   3.877  1.5925  0.7839  0.6785
  672MOL0     H92704   1.703  12.635   3.761  0.4090  0.8487  1.2304
  672MOL0     H92705   1.781  12.491   3.681 -1.9441  1.4940 -1.1256
  672MOL0     H92706   2.002  12.587   3.743 -1.3551 -1.1168  1.1640
  672MOL0     H92707   1.914  12.743   3.776  0.8475  1.4874 -1.6203
  672MOL0     H92708   1.931  12.610   3.504  0.8405  0.6829  0.4042
  672MOL0     H92709   1.828  12.753   3.555  0.1570  0.9677  1.4667
  672MOL0     H92710   2.129  12.715   3.590 -0.1588 -0.4224 -1.4678
  672MOL0     H92711   2.034  12.865   3.630  0.8578 -1.3591  0.9536
  672MOL0     H92712   2.023  12.930   3.404 -0.3372 -1.0096 -1.8155
  672MOL0     H92713   2.036  12.763   3.352  1.5313  1.0105 -2.6846
  672MOL0     H92714   2.253  12.873   3.290  0.5190  1.8240 -0.2664
  672MOL0     H92715   2.293  12.789   3.445 -1.4963  0.3451 -0.1577
  672MOL0     H92716   1.566  12.202   3.673  1.1824  3.2634 -0.1618
  672MOL0     H92717   1.319  12.129   3.624 -1.2062  0.5847  1.4726
  672MOL0     H92718   0.933  12.231   3.624  0.4089 -0.1678 -0.5776
  672MOL0     H92719   0.706  12.195   3.523  1.1399  0.7463  0.6496
  672MOL0     H92720   0.135  10.701   3.072 -0.3302 -0.7949 -1.4750
  672MOL0     H92721   0.299  10.544   3.225 -0.9771  1.4816  1.9832
  672MOL0     H92722   0.624  10.485   3.451 -0.4203 -0.5229 -1.1931
  672MOL0     H92723   0.770  10.383   3.611 -2.6732 -1.9030  0.0002
  672MOL0     H92724   1.003  10.412   3.664  0.0120  0.2110 -0.8634
  672MOL0     H92725   0.962  10.278   3.765 -0.4214  2.7342  0.0679
  672MOL0     H92726   1.191  10.315   3.800 -2.6627 -0.6114  0.4315
  672MOL0     H92727   1.236  10.328   3.632  0.1053 -1.5155 -0.4147
  672MOL0     H92728   1.183  10.086   3.811 -1.6475 -0.4417  0.6544
  672MOL0     H92729   1.123  10.051   3.649  0.0494  0.7444  1.0390
  672MOL0     H92730   1.317  10.087   3.541  1.5010  2.0646 -0.0775
  672MOL0     H92731   1.348   9.977   3.676 -1.6850 -0.0931 -1.5346
  672MOL0     H92732   1.642  10.256   3.727 -0.9220  2.3203 -1.4641
  672MOL0     H92733   0.981  10.178   3.291 -2.2105 -1.8018 -0.6674
  672MOL0     H92734   0.731  10.200   3.044 -1.6516  0.5058  0.1309
  672MOL0     H92735   0.847  10.330   3.029 -0.0030 -1.1648 -0.5065
  672MOL0     H92736   0.909  10.173   3.083  0.0900  2.1721 -0.2450
  673MOL0     O92737   3.418   9.214   3.365 -0.0249  0.3650 -0.3403
  673MOL0     C92738   3.313   9.164   3.404  0.5207 -0.4461 -0.6556
  673MOL0     O92739   3.301   9.060   3.497  0.3938 -0.2339 -0.4557
  673MOL0     C92740   3.391   8.963   3.508  0.2591 -0.4026  0.3389
  673MOL0     C92741   3.494   8.936   3.415  0.0386 -0.0017  0.6557
  673MOL0     C92742   3.581   8.831   3.436 -0.4478  0.2056 -0.1689
  673MOL0     C92743   3.566   8.740   3.548  0.0229 -0.8490  0.1427
  673MOL0     O92744   3.653   8.640   3.559 -0.2202 -0.6412  0.3135
  673MOL0     C92745   3.644   8.555   3.666  0.2968  0.2904  0.0446
  673MOL0     C92746   3.763   8.460   3.659 -0.5053  0.4932 -0.6100
  673MOL0     C92747   3.896   8.530   3.633 -0.2289 -0.6871  0.4363
  673MOL0     C92748   3.930   8.640   3.738 -0.1408 -0.3854  0.3386
  673MOL0     C92749   3.934   8.600   3.885  0.2320  0.5722  0.5494
  673MOL0     C92750   4.051   8.649   3.960  0.4781 -0.0281 -0.3601
  673MOL0     C92751   4.176   8.580   3.914  0.2171 -0.4636  0.3510
  673MOL0     C92752   4.285   8.577   4.025  0.4669 -0.4945 -0.1638
  673MOL0     N92753   4.419   8.543   3.976 -0.0828  0.6830  0.1012
  673MOL0     C92754   4.497   8.640   3.927 -0.4088  0.3154  0.1777
  673MOL0     C92755   4.600   8.580   3.873 -0.4865  0.5111  0.2271
  673MOL0     C92756   4.719   8.640   3.811  0.4887 -0.0392 -0.4809
  673MOL0     C92757   4.789   8.758   3.881 -0.1382  0.6153  0.1597
  673MOL0     C92758   4.819   8.716   4.028 -0.3580  0.1844 -0.1960
  673MOL0     C92759   4.959   8.752   4.067  0.6468  0.7628 -0.2702
  673MOL0     O92760   4.970   8.898   4.041  0.6767  0.1096  0.2576
  673MOL0     C92761   5.101   8.939   4.028  0.0436  0.8126 -0.7343
  673MOL0     C92762   5.195   8.969   4.134 -0.0228  0.2548 -0.0302
  673MOL0     C92763   5.326   9.005   4.107  0.0944  0.8268 -0.3222
  673MOL0     C92764   5.421   9.028   4.224 -0.3280 -0.5770  0.3373
  673MOL0     C92765   5.364   9.015   3.963 -0.2628  0.1200  0.1498
  673MOL0     C92766   5.504   9.057   3.919 -0.5555 -0.7948  0.0177
  673MOL0     O92767   5.551   9.014   3.794  0.2073 -0.5834 -0.6743
  673MOL0     C92768   5.671   9.048   3.737 -0.0604  0.1312  0.1784
  673MOL0     C92769   5.710   9.182   3.730 -0.1009  0.6206  0.2033
  673MOL0     C92770   5.837   9.218   3.693 -0.6496  0.6300 -1.5960
  673MOL0     C92771   5.921   9.120   3.637 -0.1693 -0.6198  0.3422
  673MOL0     O92772   6.035   9.167   3.578 -0.2789  0.3660  0.0175
  673MOL0     C92773   6.153   9.085   3.596 -0.2508  1.2804  0.9223
  673MOL0     C92774   6.279   9.152   3.542 -0.6167  0.1659 -0.6228
  673MOL0     C92775   6.336   9.074   3.421 -0.7062  0.0968 -0.2189
  673MOL0     C92776   6.476   9.119   3.397 -0.9396 -0.6049 -0.3092
  673MOL0     C92777   6.564   9.007   3.335 -0.4659  0.0545 -0.4482
  673MOL0     C92778   6.704   9.056   3.283 -0.1809  0.0061  0.0182
  673MOL0     C92779   6.808   9.064   3.392  0.1255 -0.4022 -0.3358
  673MOL0     C92780   6.948   9.117   3.342 -0.1718  0.4102  0.0639
  673MOL0    Cl92781   7.047   9.151   3.482  0.3059  0.5435  0.5631
  673MOL0     C92782   5.877   8.985   3.623  1.1366  0.3134  0.6927
  673MOL0     C92783   5.753   8.952   3.675 -0.0132 -0.2744  0.1134
  673MOL0     O92784   5.566   9.126   3.996  0.1152 -1.0040  0.2901
  673MOL0     C92785   5.270   8.978   3.865 -0.5849 -0.2478  0.4684
  673MOL0     C92786   5.145   8.947   3.903  0.7215 -0.1409 -0.5419
  673MOL0     N92787   4.584   8.449   3.885 -0.3738 -0.3889 -0.9865
  673MOL0     N92788   4.473   8.423   3.935 -0.7418  0.1500  0.0818
  673MOL0     C92789   3.459   8.769   3.636 -0.2269 -0.0888 -0.3259
  673MOL0     C92790   3.372   8.878   3.613  0.4110  0.1178  0.5665
  673MOL0     C92791   3.185   9.219   3.339 -0.2017  0.2600 -0.2763
  673MOL0     C92792   3.069   9.156   3.380  0.6526 -0.6486 -0.2611
  673MOL0     C92793   2.942   9.198   3.343  0.3033  0.8057 -0.5831
  673MOL0     C92794   2.931   9.300   3.255  0.6052  0.7445  0.0093
  673MOL0     O92795   2.805   9.349   3.219  0.5912  0.8844  0.4755
  673MOL0     C92796   2.789   9.489   3.232  0.2100 -0.3880 -0.0309
  673MOL0     C92797   2.663   9.520   3.313 -1.0863 -0.2699  0.0207
  673MOL0     C92798   2.629   9.666   3.301  0.1789 -0.9181  0.3902
  673MOL0     C92799   2.480   9.700   3.297 -0.2045 -0.1716  0.1753
  673MOL0     C92800   2.411   9.638   3.180 -0.0290  0.2913  0.4718
  673MOL0     C92801   2.368   9.575   3.085 -0.8204 -0.2092  0.4217
  673MOL0     C92802   3.045   9.350   3.195  1.0035  0.4948  1.1941
  673MOL0     C92803   3.170   9.312   3.243  0.2730  0.7040  0.0774
  673MOL0     C92804   3.288   9.370   3.186 -0.1099 -0.4440  0.2027
  673MOL0     H92805   3.511   8.999   3.328  4.0267 -0.5673  0.8500
  673MOL0     H92806   3.663   8.805   3.370 -1.3946 -0.5173 -1.0964
  673MOL0     H92807   3.552   8.496   3.658 -1.1786  2.3086  1.0438
  673MOL0     H92808   3.641   8.607   3.762  2.7237 -0.2699  0.4786
  673MOL0     H92809   3.763   8.411   3.756  0.5199  2.7590  0.6140
  673MOL0     H92810   3.744   8.389   3.578  2.5173 -1.5815  0.3603
  673MOL0     H92811   3.981   8.462   3.634 -0.0641 -0.4880  1.7420
  673MOL0     H92812   3.896   8.575   3.533 -2.7625 -0.8301  0.2929
  673MOL0     H92813   4.022   8.690   3.706  1.0615 -0.7298  3.0034
  673MOL0     H92814   3.859   8.722   3.729  0.9804  0.5371 -0.4027
  673MOL0     H92815   3.936   8.491   3.893  0.0576  0.2014 -2.9408
  673MOL0     H92816   3.842   8.636   3.932  0.7381 -2.4186  4.3111
  673MOL0     H92817   4.061   8.757   3.943 -4.6785  0.9985  1.4290
  673MOL0     H92818   4.030   8.644   4.067 -2.6876 -1.0088 -0.9356
  673MOL0     H92819   4.229   8.625   3.830  1.0972 -0.0631  1.1009
  673MOL0     H92820   4.158   8.477   3.879  0.4593 -0.4505  0.1849
  673MOL0     H92821   4.286   8.674   4.075 -0.2695 -0.6624  0.1971
  673MOL0     H92822   4.243   8.515   4.105  2.2497  0.8060  1.8842
  673MOL0     H92823   4.477   8.746   3.940  2.8460  0.9280  1.1111
  673MOL0     H92824   4.690   8.679   3.713 -1.0779  2.2994  0.8172
  673MOL0     H92825   4.793   8.562   3.792  1.2717  0.5939 -0.1064
  673MOL0     H92826   4.883   8.784   3.831  0.3223 -1.2339  0.0266
  673MOL0     H92827   4.737   8.854   3.875  0.5951  1.0689  0.7616
  673MOL0     H92828   4.757   8.779   4.092 -0.0343 -0.4327  0.7380
  673MOL0     H92829   4.810   8.609   4.046  0.5295  0.2754  0.8372
  673MOL0     H92830   4.965   8.729   4.173  0.9079 -0.9294 -0.6277
  673MOL0     H92831   5.032   8.692   4.012  0.5181  0.1490  0.2197
  673MOL0     H92832   5.161   8.952   4.236  0.1050 -3.3302 -0.4765
  673MOL0     H92833   5.447   9.133   4.245 -0.5580 -0.2422 -0.9955
  673MOL0     H92834   5.515   8.976   4.204  1.7246  2.7058  0.6584
  673MOL0     H92835   5.370   8.995   4.315 -2.4023  0.1612 -0.5162
  673MOL0     H92836   5.638   9.253   3.769 -0.4252 -0.2611  1.2567
  673MOL0     H92837   5.870   9.321   3.690  1.0598  0.0884 -2.1522
  673MOL0     H92838   6.166   9.067   3.703  2.1180  0.5631  0.5685
  673MOL0     H92839   6.133   8.984   3.558 -2.2668  0.6760  3.3299
  673MOL0     H92840   6.246   9.253   3.516 -3.0368 -0.8787 -1.9054
  673MOL0     H92841   6.344   9.163   3.630 -2.1737  0.0046  0.5903
  673MOL0     H92842   6.277   9.102   3.333 -0.4694  1.5315  0.0486
  673MOL0     H92843   6.316   8.967   3.434 -0.3015  0.0524  0.0533
  673MOL0     H92844   6.520   9.139   3.495 -1.2292 -2.2865  0.1982
  673MOL0     H92845   6.473   9.202   3.327 -5.6805 -1.1943 -1.1311
  673MOL0     H92846   6.586   8.934   3.413  0.9921  0.0011 -0.8878
  673MOL0     H92847   6.514   8.961   3.249  0.4470 -0.2294 -0.8317
  673MOL0     H92848   6.688   9.148   3.226 -2.8029 -1.0388 -1.1354
  673MOL0     H92849   6.736   8.980   3.211 -1.7541  0.7758 -1.5626
  673MOL0     H92850   6.823   8.970   3.445 -0.0398  0.4123  1.2174
  673MOL0     H92851   6.767   9.142   3.458 -1.3674 -1.3784 -0.0535
  673MOL0     H92852   6.938   9.210   3.287  0.9037 -0.2798 -1.3796
  673MOL0     H92853   6.989   9.035   3.283 -2.7443  0.2251 -1.6259
  673MOL0     H92854   5.938   8.904   3.583  3.8404  1.7111  1.7474
  673MOL0     H92855   5.717   8.851   3.659  1.5584 -1.1006  1.5358
  673MOL0     H92856   5.302   8.979   3.761 -0.5996  2.5053  0.4276
  673MOL0     H92857   5.072   8.925   3.826  0.5134  0.3424 -0.4877
  673MOL0     H92858   3.441   8.705   3.722 -1.7647  0.1062 -0.4811
  673MOL0     H92859   3.293   8.903   3.683  0.7887  1.5314  0.5280
  673MOL0     H92860   3.063   9.078   3.456 -1.9982  0.9859  1.3919
  673MOL0     H92861   2.854   9.142   3.374  1.4015 -1.1636 -0.8033
  673MOL0     H92862   2.878   9.527   3.283  0.7802 -1.7220  0.0053
  673MOL0     H92863   2.789   9.534   3.132 -0.4418 -2.1229 -0.8451
  673MOL0     H92864   2.688   9.491   3.415 -1.6084  0.2328  0.3008
  673MOL0     H92865   2.580   9.468   3.264 -2.3405  0.2502  1.5230
  673MOL0     H92866   2.672   9.728   3.380 -0.5208  0.4093 -0.2303
  673MOL0     H92867   2.680   9.702   3.211 -2.7246  0.5685 -0.8186
  673MOL0     H92868   2.461   9.807   3.284 -1.1709 -0.2823  0.5321
  673MOL0     H92869   2.439   9.680   3.397  2.5354 -3.3541  0.8425
  673MOL0     H92870   2.324   9.528   3.000 -0.5613 -0.6690  0.5387
  673MOL0     H92871   3.040   9.425   3.117 -1.4041 -0.7425  0.0467
  673MOL0     H92872   3.274   9.446   3.109  0.7278  2.1237  2.4124
  673MOL0     H92873   3.336   9.421   3.271 -0.1906 -0.7081  0.4093
  673MOL0     H92874   3.361   9.301   3.143 -0.5137 -1.0516  0.4798
  674MOL0     O92875   6.446   2.204   0.787 -0.1929  0.1030  0.2233
  674MOL0     C92876   6.430   2.278   0.881 -0.5314 -0.1719  0.2955
  674MOL0     O92877   6.521   2.371   0.927  0.4378 -0.5906  0.2758
  674MOL0     C92878   6.630   2.395   0.851 -0.2397 -0.4511  0.6826
  674MOL0     C92879   6.765   2.372   0.897  0.2674  0.4043 -0.1674
  674MOL0     C92880   6.867   2.395   0.814  0.7039  0.5747  0.2063
  674MOL0     C92881   6.857   2.442   0.683 -0.3388  0.5877  0.3106
  674MOL0     O92882   6.962   2.465   0.610 -0.4702  0.6186 -0.6406
  674MOL0     C92883   6.969   2.411   0.475 -0.5940 -0.1808 -0.5717
  674MOL0     C92884   6.969   2.521   0.370 -1.0385  0.3344 -1.2042
  674MOL0     C92885   6.974   2.458   0.225  0.3644 -0.5942  0.5104
  674MOL0     C92886   7.112   2.400   0.200  0.6753 -0.0684  0.9833
  674MOL0     C92887   7.134   2.359   0.059 -0.7292  0.0062 -0.1785
  674MOL0     C92888   7.284   2.305   0.046  0.2805  0.3750  0.3560
  674MOL0     C92889   7.299   2.227  -0.079 -0.5754  0.5178  0.9467
  674MOL0     C92890   7.313   2.303  -0.204 -0.1080 -0.2394  0.8328
  674MOL0     N92891   7.447   2.368  -0.200 -0.1779  0.1032 -0.6314
  674MOL0     C92892   7.469   2.498  -0.155  0.0551 -0.0469 -0.7272
  674MOL0     C92893   7.605   2.504  -0.134 -0.4083  0.5899 -0.1578
  674MOL0     C92894   7.673   2.637  -0.096 -0.6653  0.0473 -0.3927
  674MOL0     C92895   7.818   2.666  -0.115  0.0041  0.0105  0.0884
  674MOL0     C92896   7.909   2.578  -0.032  0.2531  0.0873 -0.7077
  674MOL0     C92897   8.048   2.641  -0.008 -0.0078  0.1720  0.6669
  674MOL0     O92898   8.046   2.754   0.073  0.2517 -0.0180 -0.5463
  674MOL0     C92899   8.166   2.791   0.124 -0.2149 -0.8724 -0.3252
  674MOL0     C92900   8.155   2.887   0.215  0.0713  0.8111  0.4297
  674MOL0     C92901   8.261   2.938   0.287 -0.0716  0.1461 -0.2538
  674MOL0     C92902   8.240   3.063   0.372 -0.6431 -0.5798  0.6130
  674MOL0     C92903   8.391   2.873   0.269  0.4367  1.0691  0.8298
  674MOL0     C92904   8.513   2.903   0.350  0.0954  0.0148 -0.1620
  674MOL0     O92905   8.629   2.845   0.311  0.3765 -0.2248 -0.1913
  674MOL0     C92906   8.743   2.833   0.382 -0.5389  0.6223 -0.4366
  674MOL0     C92907   8.754   2.845   0.525 -0.0421  0.0355 -0.1125
  674MOL0     C92908   8.878   2.815   0.593 -0.7253 -0.4755 -0.5655
  674MOL0     C92909   8.993   2.775   0.515 -0.3066  0.1250 -0.2801
  674MOL0     O92910   9.114   2.726   0.574 -0.0149 -0.5268 -0.1155
  674MOL0     C92911   9.181   2.824   0.666 -0.9231 -0.1708  0.5366
  674MOL0     C92912   9.268   2.924   0.582 -0.0383 -0.5225  0.5514
  674MOL0     C92913   9.193   3.041   0.533 -0.3105  0.2007 -0.4403
  674MOL0     C92914   9.272   3.135   0.436 -0.6620 -0.3887 -0.6888
  674MOL0     C92915   9.335   3.074   0.308  0.1661 -0.6333 -0.4243
  674MOL0     C92916   9.227   3.007   0.226  0.2654 -0.1907 -0.6552
  674MOL0     C92917   9.257   2.998   0.079 -0.2715  0.2292  0.5600
  674MOL0     C92918   9.165   2.897   0.002  0.0861 -0.9498 -0.6278
  674MOL0    Cl92919   9.009   2.964  -0.013 -0.6396  0.1146 -0.0446
  674MOL0     C92920   8.975   2.768   0.372 -0.0193 -0.0146 -0.6684
  674MOL0     C92921   8.853   2.802   0.307  1.2486  0.4427 -0.2189
  674MOL0     O92922   8.508   2.989   0.439  0.3774  0.1841 -0.1758
  674MOL0     C92923   8.404   2.772   0.171 -0.3882  0.1409  0.9274
  674MOL0     C92924   8.297   2.740   0.089 -0.3805  0.7122  0.0572
  674MOL0     N92925   7.653   2.377  -0.156 -0.3421  0.1331 -0.1223
  674MOL0     N92926   7.566   2.299  -0.198  0.3728  0.0204  0.3296
  674MOL0     C92927   6.725   2.455   0.632  0.2315 -0.8064  0.2455
  674MOL0     C92928   6.617   2.437   0.716 -0.5071  0.1726 -0.2786
  674MOL0     C92929   6.314   2.250   0.968 -0.3240 -0.0057  0.6622
  674MOL0     C92930   6.350   2.194   1.092  0.0700 -0.1935 -0.3444
  674MOL0     C92931   6.249   2.158   1.184 -0.8432  0.1276  0.5050
  674MOL0     C92932   6.122   2.150   1.150  0.0047 -0.4894 -0.8870
  674MOL0     O92933   6.028   2.095   1.240 -0.3455 -0.3164  0.3710
  674MOL0     C92934   5.892   2.093   1.206  0.1167  0.4922  0.9133
  674MOL0     C92935   5.813   2.021   1.315 -0.6683 -0.2909  0.2860
  674MOL0     C92936   5.657   1.991   1.278  0.0281 -0.3646 -0.2526
  674MOL0     C92937   5.595   1.906   1.384 -0.9774 -0.7667  1.0653
  674MOL0     C92938   5.453   1.897   1.384 -0.7238 -0.1659  0.7946
  674MOL0     C92939   5.336   1.879   1.368 -0.0590  0.1903 -0.3933
  674MOL0     C92940   6.087   2.210   1.023  0.0345  0.2013  0.1849
  674MOL0     C92941   6.179   2.261   0.927 -0.3109 -0.0231 -0.0218
  674MOL0     C92942   6.132   2.332   0.809  0.8155 -0.1478  0.2195
  674MOL0     H92943   6.789   2.329   0.994  1.2370  2.1974  0.4404
  674MOL0     H92944   6.963   2.356   0.846  2.9972  1.9453 -4.1297
  674MOL0     H92945   6.885   2.342   0.462 -1.0850 -0.4180  2.8679
  674MOL0     H92946   7.062   2.356   0.455  0.1024  0.7687 -0.0033
  674MOL0     H92947   6.874   2.572   0.390 -0.6002  0.4869  0.7103
  674MOL0     H92948   7.046   2.598   0.382 -0.3790  0.0593 -3.2531
  674MOL0     H92949   6.905   2.373   0.220  0.9428 -1.0298 -2.8227
  674MOL0     H92950   6.940   2.534   0.154 -0.2548 -2.1179 -0.8688
  674MOL0     H92951   7.188   2.469   0.239  0.3206  1.7659 -1.3239
  674MOL0     H92952   7.122   2.312   0.264  0.1820 -0.0842  1.0433
  674MOL0     H92953   7.123   2.448  -0.003  1.1345  0.6476  0.3347
  674MOL0     H92954   7.060   2.284   0.030  1.1460 -1.0594 -2.4903
  674MOL0     H92955   7.354   2.387   0.055  1.7523 -0.8548  0.4664
  674MOL0     H92956   7.311   2.241   0.131  0.1717  3.0964  2.5957
  674MOL0     H92957   7.208   2.166  -0.085 -0.3434  0.0647  1.7551
  674MOL0     H92958   7.387   2.163  -0.071 -1.3293 -0.6941 -0.0541
  674MOL0     H92959   7.308   2.243  -0.295  2.7726  0.7572 -0.0876
  674MOL0     H92960   7.226   2.369  -0.210 -2.4486 -3.2390 -1.4503
  674MOL0     H92961   7.392   2.570  -0.130 -1.1908 -1.1844 -1.1511
  674MOL0     H92962   7.658   2.663   0.009  1.9502 -1.3304  0.4072
  674MOL0     H92963   7.619   2.715  -0.151 -0.0867 -0.2477 -1.4047
  674MOL0     H92964   7.837   2.637  -0.219 -3.2929 -0.0620 -0.6222
  674MOL0     H92965   7.831   2.774  -0.099 -2.6414  0.4359 -0.1372
  674MOL0     H92966   7.867   2.569   0.068 -0.9517  2.6611 -0.9125
  674MOL0     H92967   7.922   2.483  -0.086  3.4299 -0.3574  0.6142
  674MOL0     H92968   8.116   2.563   0.029 -0.4568 -0.4678  0.1645
  674MOL0     H92969   8.088   2.668  -0.106  4.4010  1.1141  2.4823
  674MOL0     H92970   8.061   2.940   0.234  0.9721  2.8625 -0.5397
  674MOL0     H92971   8.137   3.099   0.358  0.4866  1.6746 -3.6680
  674MOL0     H92972   8.299   3.143   0.326 -1.3120 -1.7811 -2.6029
  674MOL0     H92973   8.264   3.038   0.476 -0.2843 -2.4965  0.1175
  674MOL0     H92974   8.667   2.869   0.584 -1.5735 -2.7739 -1.0300
  674MOL0     H92975   8.888   2.832   0.700 -0.6241 -0.1005 -0.6327
  674MOL0     H92976   9.119   2.879   0.737  1.2509 -0.0642  2.4643
  674MOL0     H92977   9.244   2.768   0.735  1.9500  1.4031 -0.6225
  674MOL0     H92978   9.356   2.959   0.636 -2.1869  1.2174  3.1953
  674MOL0     H92979   9.301   2.872   0.492 -1.6579  1.7992 -1.5295
  674MOL0     H92980   9.160   3.094   0.622 -0.5204  1.5215 -1.2789
  674MOL0     H92981   9.100   3.016   0.481  0.0609 -0.3530 -0.8526
  674MOL0     H92982   9.364   3.162   0.488 -0.4564 -1.3295 -0.5578
  674MOL0     H92983   9.218   3.225   0.404 -3.1781 -2.0059 -1.2571
  674MOL0     H92984   9.387   3.147   0.246  1.0687 -0.1911  0.8357
  674MOL0     H92985   9.408   2.993   0.312  1.8225  0.8347  0.2566
  674MOL0     H92986   9.139   3.071   0.241  0.7364  0.7042 -1.5985
  674MOL0     H92987   9.212   2.906   0.267  1.1234 -0.5958 -1.3155
  674MOL0     H92988   9.357   2.955   0.078 -0.7736 -0.9807 -0.6307
  674MOL0     H92989   9.264   3.095   0.028  3.8713 -0.2682 -0.1887
  674MOL0     H92990   9.146   2.805   0.059 -0.2811 -0.7786 -0.4721
  674MOL0     H92991   9.206   2.886  -0.099 -2.9357 -0.1887 -2.0768
  674MOL0     H92992   9.061   2.747   0.309  0.0621  0.0539 -0.5807
  674MOL0     H92993   8.830   2.802   0.201 -1.9161 -0.3768  0.3619
  674MOL0     H92994   8.503   2.728   0.162 -1.3909 -1.9172 -1.2180
  674MOL0     H92995   8.306   2.660   0.015  1.1464  0.9803 -0.0933
  674MOL0     H92996   6.706   2.481   0.528 -1.7028  0.4050  0.8621
  674MOL0     H92997   6.521   2.433   0.667  0.0437 -2.0670 -1.2781
  674MOL0     H92998   6.453   2.179   1.124  0.0379  0.0902 -0.1026
  674MOL0     H92999   6.278   2.111   1.277  1.6523  0.8456  0.1499
  674MOL0     H93000   5.859   2.196   1.192 -0.2447  0.3820  0.9660
  674MOL0     H93001   5.885   2.035   1.113 -1.7628  2.3512 -0.1858
  674MOL0     H93002   5.823   2.075   1.410 -0.1364 -0.4596  0.3274
  674MOL0     H93003   5.862   1.923   1.321 -2.1654 -1.0689  0.3714
  674MOL0     H93004   5.608   2.087   1.260  0.8303  0.1638  0.2893
  674MOL0     H93005   5.643   1.939   1.183 -0.8238 -0.8005  0.1029
  674MOL0     H93006   5.637   1.943   1.478 -2.3519 -1.1555  1.8573
  674MOL0     H93007   5.639   1.807   1.375  3.3339  0.9930  0.2844
  674MOL0     H93008   5.229   1.875   1.359 -0.0543 -0.7996 -0.1228
  674MOL0     H93009   5.983   2.207   0.991  0.4301  1.1047 -1.2927
  674MOL0     H93010   6.083   2.423   0.847  1.7221 -0.9961  3.7117
  674MOL0     H93011   6.216   2.378   0.756 -0.4309 -0.5981 -2.3154
  674MOL0     H93012   6.079   2.269   0.737 -0.6281 -0.4476  1.4996
  675MOL0     O93013   6.414   5.033   5.971 -0.2118 -0.1523  0.0898
  675MOL0     C93014   6.338   4.985   6.058 -0.1930 -0.0281  0.8311
  675MOL0     O93015   6.379   4.926   6.176  0.5616 -0.5331 -0.6608
  675MOL0     C93016   6.510   4.880   6.185 -0.0815 -1.0176 -0.1465
  675MOL0     C93017   6.505   4.740   6.191  0.5683 -0.4733 -0.1808
  675MOL0     C93018   6.631   4.665   6.210  0.1591  0.0287  0.0694
  675MOL0     C93019   6.752   4.735   6.212 -0.1850 -0.1925  0.0026
  675MOL0     O93020   6.880   4.686   6.251  0.5747 -0.0031  0.2962
  675MOL0     C93021   6.882   4.553   6.303 -0.2614 -0.7895  0.1896
  675MOL0     C93022   7.023   4.536   6.351  0.8501 -0.4950  0.2074
  675MOL0     C93023   7.059   4.624   6.474  0.5957 -0.5669  0.8860
  675MOL0     C93024   7.215   4.640   6.477 -0.0462  0.0704 -0.2048
  675MOL0     C93025   7.273   4.745   6.579 -0.4619  0.4696  0.5690
  675MOL0     C93026   7.252   4.882   6.535  0.4758 -0.4205  0.2710
  675MOL0     C93027   7.332   4.966   6.631 -0.1676 -0.4786  0.1344
  675MOL0     C93028   7.366   5.100   6.575  0.2763  0.7940 -0.5874
  675MOL0     N93029   7.497   5.142   6.626 -0.3501 -0.4163 -0.8637
  675MOL0     C93030   7.623   5.120   6.562  0.4399 -0.4462  0.2578
  675MOL0     C93031   7.714   5.176   6.654 -0.3554  0.6573  0.9254
  675MOL0     C93032   7.864   5.172   6.621 -0.1551 -0.6150  0.2435
  675MOL0     C93033   7.939   5.039   6.634 -0.7130 -0.5851  0.4317
  675MOL0     C93034   7.875   4.922   6.548 -0.2077 -0.0600  0.3865
  675MOL0     C93035   7.965   4.800   6.540 -0.1748 -0.5617 -0.2927
  675MOL0     O93036   8.095   4.831   6.488  0.1023 -0.3885 -0.3012
  675MOL0     C93037   8.187   4.721   6.484 -0.3367  0.7451  0.3313
  675MOL0     C93038   8.325   4.741   6.466  0.2800 -0.3050  0.1289
  675MOL0     C93039   8.422   4.640   6.460  0.3743 -0.0144 -0.0534
  675MOL0     C93040   8.562   4.690   6.433 -0.1709 -0.4663  0.5513
  675MOL0     C93041   8.388   4.510   6.486  0.6841  0.2304 -0.1933
  675MOL0     C93042   8.483   4.397   6.504 -0.1183  0.0673 -0.6790
  675MOL0     O93043   8.447   4.279   6.449 -0.3887  0.9219 -0.4662
  675MOL0     C93044   8.541   4.176   6.430  0.1262 -0.4927 -0.1885
  675MOL0     C93045   8.573   4.134   6.306  0.5696 -0.0340 -0.1278
  675MOL0     C93046   8.672   4.045   6.275 -0.3519 -0.1148  0.3501
  675MOL0     C93047   8.736   3.979   6.385 -0.8274 -0.0988  0.6613
  675MOL0     O93048   8.839   3.889   6.359  0.0423 -0.0305 -1.2294
  675MOL0     C93049   8.813   3.754   6.405  0.0141 -0.6772  0.2955
  675MOL0     C93050   8.876   3.726   6.540  0.1768 -0.2537 -0.5518
  675MOL0     C93051   8.821   3.592   6.599  0.6850 -0.5335 -0.0897
  675MOL0     C93052   8.840   3.460   6.517  0.3141 -0.8679  0.3660
  675MOL0     C93053   8.987   3.404   6.509 -1.0174 -0.3788  0.1459
  675MOL0     C93054   9.009   3.304   6.624 -0.6456  0.0656  0.8464
  675MOL0     C93055   9.128   3.215   6.604 -0.8316  1.1536  0.6014
  675MOL0     C93056   9.148   3.125   6.730 -0.3334  0.4755 -0.0740
  675MOL0    Cl93057   9.297   3.017   6.715  0.1183 -0.4200 -0.1767
  675MOL0     C93058   8.707   4.018   6.516 -0.2013 -0.1216 -0.1636
  675MOL0     C93059   8.611   4.115   6.536  0.1145  0.1975 -0.5101
  675MOL0     O93060   8.592   4.425   6.552  0.8467  0.0713  0.3536
  675MOL0     C93061   8.245   4.484   6.512  0.0835 -0.3031 -0.1802
  675MOL0     C93062   8.147   4.589   6.502  0.8891 -0.5396 -0.4684
  675MOL0     N93063   7.647   5.231   6.762 -0.0021 -0.6424 -0.4043
  675MOL0     N93064   7.522   5.207   6.746  0.6713  0.3694 -0.0866
  675MOL0     C93065   6.747   4.873   6.190  0.0335  0.5359  0.2815
  675MOL0     C93066   6.635   4.944   6.181 -0.6230 -0.2114  0.4682
  675MOL0     C93067   6.201   5.027   6.044 -0.0047 -0.2742  0.1560
  675MOL0     C93068   6.118   5.036   6.159 -0.1058  0.2500 -0.4089
  675MOL0     C93069   5.987   5.074   6.149  0.0726 -0.2056  0.5136
  675MOL0     C93070   5.918   5.078   6.023 -0.5694 -0.3677 -0.2330
  675MOL0     O93071   5.786   5.112   6.036  0.0493 -0.5856  0.2853
  675MOL0     C93072   5.724   5.143   5.914  0.3445  0.1062 -0.8277
  675MOL0     C93073   5.577   5.172   5.960 -0.1047  0.6531  0.6555
  675MOL0     C93074   5.502   5.051   6.000  0.6055  1.1729 -0.2324
  675MOL0     C93075   5.351   5.053   5.951  0.9478 -0.3230  0.4277
  675MOL0     C93076   5.335   5.014   5.812  0.1493 -0.2343 -0.3908
  675MOL0     C93077   5.328   5.012   5.689 -0.1039  0.9171 -0.0689
  675MOL0     C93078   5.993   5.064   5.906 -0.4832  0.0866  0.1117
  675MOL0     C93079   6.133   5.040   5.916 -0.8171  0.6989 -0.4620
  675MOL0     C93080   6.203   5.025   5.776 -0.5488  1.1288 -0.2382
  675MOL0     H93081   6.417   4.682   6.166  0.8919  0.4653 -4.2115
  675MOL0     H93082   6.615   4.558   6.216  0.7311 -0.2466 -2.3853
  675MOL0     H93083   6.863   4.494   6.213 -0.1762 -0.2933 -0.1554
  675MOL0     H93084   6.801   4.526   6.372 -0.9122 -0.1235 -0.3050
  675MOL0     H93085   7.046   4.432   6.378 -0.1048 -0.4300  1.3267
  675MOL0     H93086   7.090   4.569   6.271 -2.6873 -0.8473 -3.1766
  675MOL0     H93087   7.006   4.719   6.480  0.8825 -0.3475  0.0228
  675MOL0     H93088   7.029   4.578   6.569 -1.2189  0.3834  0.8080
  675MOL0     H93089   7.253   4.543   6.510 -0.8524  0.0458  0.7015
  675MOL0     H93090   7.249   4.667   6.376 -2.3750 -3.9047 -2.3111
  675MOL0     H93091   7.381   4.723   6.582 -0.0850  1.9599 -0.6376
  675MOL0     H93092   7.232   4.731   6.680 -0.8392  1.0454  0.4956
  675MOL0     H93093   7.287   4.896   6.432  2.7122 -0.2486  1.0092
  675MOL0     H93094   7.147   4.914   6.542  0.1293 -1.0155 -1.5720
  675MOL0     H93095   7.430   4.920   6.645  0.3925  0.5502 -0.3285
  675MOL0     H93096   7.283   4.989   6.726  0.4875  0.9126  0.1584
  675MOL0     H93097   7.369   5.114   6.466  0.3215  1.8308 -0.4668
  675MOL0     H93098   7.291   5.174   6.605 -0.7728 -0.1164 -0.9040
  675MOL0     H93099   7.648   5.066   6.472  0.5328 -1.5600  0.9402
  675MOL0     H93100   7.919   5.239   6.688  2.0697 -0.1319 -1.9311
  675MOL0     H93101   7.860   5.228   6.527 -1.3083 -0.8967  0.1028
  675MOL0     H93102   8.045   5.051   6.610 -0.9474  0.6909 -0.0532
  675MOL0     H93103   7.944   5.003   6.737  0.4435 -0.0247  0.5966
  675MOL0     H93104   7.777   4.886   6.579 -0.5650 -0.5096 -1.1732
  675MOL0     H93105   7.857   4.949   6.444 -3.1502  0.6326  0.9982
  675MOL0     H93106   7.987   4.761   6.640  3.7727 -2.0807 -1.5502
  675MOL0     H93107   7.916   4.724   6.478 -0.5532 -0.8024  0.2988
  675MOL0     H93108   8.348   4.842   6.435  0.3711 -0.5511 -0.6186
  675MOL0     H93109   8.598   4.628   6.351  0.9040  0.7555  0.0639
  675MOL0     H93110   8.627   4.680   6.520 -1.4739 -1.3913  1.4604
  675MOL0     H93111   8.557   4.795   6.401  0.6054 -0.6375 -0.1711
  675MOL0     H93112   8.519   4.179   6.223 -0.7026 -1.2280  0.0126
  675MOL0     H93113   8.714   4.030   6.177 -0.1658 -1.0056  0.5545
  675MOL0     H93114   8.704   3.741   6.405  0.0731 -1.2301 -0.2276
  675MOL0     H93115   8.848   3.682   6.331 -0.8059 -0.0009 -0.7776
  675MOL0     H93116   8.983   3.723   6.518  0.1379  0.9017 -0.9767
  675MOL0     H93117   8.845   3.797   6.617 -0.1052  1.5515 -2.2580
  675MOL0     H93118   8.713   3.600   6.616  0.6378 -0.7350 -0.3040
  675MOL0     H93119   8.876   3.585   6.693  0.2445  0.3474  0.2531
  675MOL0     H93120   8.814   3.480   6.412  1.2075  2.1209  0.6146
  675MOL0     H93121   8.767   3.382   6.538 -2.2568  0.5053 -2.6184
  675MOL0     H93122   9.004   3.351   6.415  1.8396 -0.3959  0.5825
  675MOL0     H93123   9.061   3.484   6.511 -1.5701  0.1799 -0.7759
  675MOL0     H93124   8.920   3.240   6.624 -0.3904 -0.3282 -0.3807
  675MOL0     H93125   9.021   3.346   6.724  1.1213 -0.5206  0.9203
  675MOL0     H93126   9.216   3.279   6.603  1.4467 -1.7719  0.2830
  675MOL0     H93127   9.121   3.150   6.516 -1.2046  1.2258  0.5735
  675MOL0     H93128   9.059   3.067   6.758 -1.4600  0.1681 -3.7271
  675MOL0     H93129   9.157   3.187   6.820 -2.0912  0.6351  0.0306
  675MOL0     H93130   8.762   3.987   6.604  1.0635  0.5405 -0.6952
  675MOL0     H93131   8.579   4.148   6.634 -1.2214  0.1908 -0.9300
  675MOL0     H93132   8.206   4.384   6.529 -0.2929 -0.1291 -0.0178
  675MOL0     H93133   8.044   4.580   6.533  0.8518  5.9637  3.1565
  675MOL0     H93134   6.844   4.923   6.190  1.1451 -1.5133  0.1365
  675MOL0     H93135   6.642   5.053   6.183 -1.5639 -0.1104  3.6761
  675MOL0     H93136   6.152   4.999   6.255  0.1556 -0.1032 -0.6327
  675MOL0     H93137   5.924   5.077   6.237 -0.1234  1.7758  0.3533
  675MOL0     H93138   5.757   5.235   5.865  0.4800  0.3264 -0.3297
  675MOL0     H93139   5.720   5.061   5.841 -1.0646  1.0419 -1.8439
  675MOL0     H93140   5.531   5.222   5.873  2.4106 -0.8651 -1.7035
  675MOL0     H93141   5.592   5.247   6.038  2.4813 -1.1776  2.0432
  675MOL0     H93142   5.536   4.966   5.940  0.7444  1.5811 -0.7474
  675MOL0     H93143   5.506   5.025   6.106 -2.0743 -0.4762 -0.4564
  675MOL0     H93144   5.318   5.157   5.956  1.9268  0.0456 -0.4083
  675MOL0     H93145   5.288   4.990   6.015  0.1060 -0.9329 -0.9652
  675MOL0     H93146   5.334   5.024   5.583 -4.2470 -0.4629 -0.6382
  675MOL0     H93147   5.952   5.059   5.805 -1.2384  0.5263  0.3890
  675MOL0     H93148   6.228   5.118   5.724 -1.1246  0.2459 -2.1560
  675MOL0     H93149   6.287   4.956   5.791 -2.4128 -0.9897  1.0241
  675MOL0     H93150   6.142   4.970   5.704  1.0924 -0.0385 -0.8217
  676MOL0     O93151   3.010   5.632   2.335  0.6414  0.7520  0.2613
  676MOL0     C93152   3.009   5.719   2.249 -0.8885 -0.2217  0.0193
  676MOL0     O93153   3.128   5.780   2.199 -0.7810  0.2897  0.2833
  676MOL0     C93154   3.256   5.755   2.246  0.2652  0.6622 -0.4864
  676MOL0     C93155   3.369   5.759   2.162 -0.5390 -0.0443  0.5266
  676MOL0     C93156   3.495   5.744   2.218 -0.0106 -1.4185  0.2065
  676MOL0     C93157   3.505   5.704   2.355 -0.0668  1.2996  0.0724
  676MOL0     O93158   3.636   5.683   2.400 -0.0004  0.5631  0.9771
  676MOL0     C93159   3.666   5.691   2.544  0.9277  0.3183 -0.0171
  676MOL0     C93160   3.821   5.667   2.580 -0.0342  0.0249  0.3999
  676MOL0     C93161   3.908   5.790   2.549  0.1798 -1.0260 -0.1147
  676MOL0     C93162   3.906   5.861   2.408  0.1143 -0.3886  0.2636
  676MOL0     C93163   3.950   5.763   2.299 -1.0428 -0.2673  0.7744
  676MOL0     C93164   3.956   5.831   2.164  0.4140  0.6073  0.0962
  676MOL0     C93165   4.016   5.736   2.064 -0.4943  0.3582  1.0045
  676MOL0     C93166   4.081   5.797   1.938 -0.4947  0.1308 -1.0748
  676MOL0     N93167   3.998   5.882   1.861 -0.2628 -0.6186 -0.3078
  676MOL0     C93168   3.985   6.014   1.880 -0.8925 -0.4204  0.3961
  676MOL0     C93169   3.891   6.052   1.791 -0.4945 -0.2408  0.4628
  676MOL0     C93170   3.829   6.187   1.766 -0.2743  0.5082 -0.1756
  676MOL0     C93171   3.934   6.274   1.704 -0.3412 -0.7287  0.8171
  676MOL0     C93172   3.980   6.212   1.563  0.2162  0.3578  0.1597
  676MOL0     C93173   4.092   6.296   1.496  0.7791  0.3409 -0.5250
  676MOL0     O93174   4.054   6.435   1.495  0.5537 -0.6403  0.5567
  676MOL0     C93175   4.129   6.523   1.423  0.3839  0.1380 -0.0246
  676MOL0     C93176   4.109   6.658   1.438  0.6987 -0.6879 -0.5629
  676MOL0     C93177   4.183   6.761   1.379  0.2887  0.1202 -0.9817
  676MOL0     C93178   4.158   6.906   1.436 -0.3302 -0.0596  0.5205
  676MOL0     C93179   4.298   6.724   1.298  0.0982  0.6512  0.0909
  676MOL0     C93180   4.393   6.822   1.235 -0.9572 -0.9173 -0.0230
  676MOL0     O93181   4.357   6.952   1.211  0.5578 -0.6506  1.0837
  676MOL0     C93182   4.448   7.044   1.161  0.1917 -0.6954  0.0287
  676MOL0     C93183   4.471   7.161   1.226 -0.0208  0.0047 -0.4399
  676MOL0     C93184   4.553   7.262   1.170  1.0526  0.3170 -0.4566
  676MOL0     C93185   4.615   7.248   1.047  0.5353 -0.1146 -0.3203
  676MOL0     O93186   4.700   7.349   1.008  0.5012 -0.0255 -0.9774
  676MOL0     C93187   4.787   7.330   0.899  0.0750 -0.2939 -0.0334
  676MOL0     C93188   4.861   7.459   0.885  0.7544  1.0822  0.2503
  676MOL0     C93189   4.979   7.446   0.787 -0.7021 -0.6586 -0.4361
  676MOL0     C93190   4.952   7.404   0.645  0.2939 -0.0379  0.3417
  676MOL0     C93191   5.075   7.393   0.556 -0.5072 -0.6830 -0.2390
  676MOL0     C93192   5.132   7.521   0.496  0.5778 -0.1537  0.2053
  676MOL0     C93193   5.222   7.504   0.370  0.3243  0.2934 -0.1263
  676MOL0     C93194   5.219   7.642   0.294  0.1010  0.2262 -0.2284
  676MOL0    Cl93195   5.330   7.630   0.152  0.6205  0.3759 -0.1995
  676MOL0     C93196   4.603   7.124   0.984 -0.6790 -0.4637  0.3736
  676MOL0     C93197   4.516   7.023   1.037  0.6034  0.8881  0.6228
  676MOL0     O93198   4.503   6.779   1.206 -0.2250 -0.1508 -0.7112
  676MOL0     C93199   4.324   6.587   1.278  0.8420 -0.5756 -0.0739
  676MOL0     C93200   4.238   6.490   1.336 -0.6136 -0.3287  0.2062
  676MOL0     N93201   3.858   5.939   1.711  0.0595  0.2262  0.7632
  676MOL0     N93202   3.917   5.839   1.758  0.0091  0.3730  0.3872
  676MOL0     C93203   3.398   5.677   2.433 -0.0659 -0.1691 -0.1832
  676MOL0     C93204   3.276   5.712   2.381 -0.5359  0.1483  0.0065
  676MOL0     C93205   2.877   5.769   2.197 -0.8245 -0.1138  0.6234
  676MOL0     C93206   2.882   5.828   2.068  0.5594 -0.8790  0.2813
  676MOL0     C93207   2.763   5.859   1.994  0.0378 -0.6440 -0.7148
  676MOL0     C93208   2.643   5.839   2.053 -0.5736  0.3782 -0.0995
  676MOL0     O93209   2.536   5.894   1.977 -0.2511  0.3502  0.0510
  676MOL0     C93210   2.412   5.920   2.043  0.7413  0.0761  0.5017
  676MOL0     C93211   2.312   5.957   1.937  0.0590  0.0040 -0.1274
  676MOL0     C93212   2.206   6.044   2.010 -0.0139 -0.2972  0.3333
  676MOL0     C93213   2.091   6.057   1.912 -0.6269  0.1087  0.7492
  676MOL0     C93214   1.989   6.126   1.989  0.1179  0.4574 -0.0532
  676MOL0     C93215   1.909   6.190   2.055 -0.2937  0.2443  0.1021
  676MOL0     C93216   2.637   5.794   2.183 -0.5351  0.6449 -0.1888
  676MOL0     C93217   2.750   5.761   2.257  0.2696 -0.0483 -0.3997
  676MOL0     C93218   2.729   5.702   2.399 -0.5487 -0.2775  0.3169
  676MOL0     H93219   3.370   5.792   2.059  3.1958 -0.9667  0.1300
  676MOL0     H93220   3.578   5.768   2.153 -0.6568 -1.5789 -0.6952
  676MOL0     H93221   3.609   5.609   2.589 -2.4637  2.9346  0.8025
  676MOL0     H93222   3.644   5.783   2.600  2.6828 -0.0930  1.4952
  676MOL0     H93223   3.822   5.656   2.688  0.8294  1.6772  0.5944
  676MOL0     H93224   3.857   5.573   2.537  0.4246  0.5616 -0.4371
  676MOL0     H93225   3.870   5.874   2.607 -0.8430 -1.3728 -0.2590
  676MOL0     H93226   4.012   5.766   2.573  0.0798 -0.4337  0.9669
  676MOL0     H93227   3.801   5.889   2.394 -0.6750 -2.0868  2.1951
  676MOL0     H93228   3.968   5.951   2.407  0.7282 -0.7032  2.8194
  676MOL0     H93229   3.880   5.683   2.274  3.1776 -4.1416  0.1225
  676MOL0     H93230   4.049   5.725   2.327 -0.7020 -0.3496 -0.4747
  676MOL0     H93231   3.853   5.849   2.133  0.4929 -1.0327 -1.2740
  676MOL0     H93232   4.020   5.919   2.175  2.2899 -0.5512 -0.9316
  676MOL0     H93233   3.932   5.675   2.031  1.6621 -1.1961 -2.1220
  676MOL0     H93234   4.088   5.669   2.111 -0.9709 -0.5103  0.5292
  676MOL0     H93235   4.177   5.843   1.961 -0.7933  0.1112  0.2790
  676MOL0     H93236   4.107   5.708   1.880  0.5996  0.8229 -1.6722
  676MOL0     H93237   4.037   6.079   1.949 -1.4379  0.1887  0.2487
  676MOL0     H93238   3.792   6.216   1.865 -1.1130 -2.3549  0.4549
  676MOL0     H93239   3.745   6.163   1.701  1.7468  1.4715 -3.3631
  676MOL0     H93240   3.893   6.375   1.694 -0.3210 -0.5977  1.8986
  676MOL0     H93241   4.026   6.281   1.764  0.9572 -1.2624 -1.0335
  676MOL0     H93242   4.023   6.112   1.570 -0.5905 -0.1015 -1.1216
  676MOL0     H93243   3.892   6.203   1.499  2.0863 -1.4763 -2.3652
  676MOL0     H93244   4.188   6.285   1.548  0.7567  1.2084 -0.2928
  676MOL0     H93245   4.105   6.251   1.397 -3.0885 -0.6338 -0.7174
  676MOL0     H93246   4.036   6.694   1.510 -0.8594 -0.7592 -2.0432
  676MOL0     H93247   4.223   6.945   1.515 -2.5330  2.7738  1.1066
  676MOL0     H93248   4.059   6.896   1.479 -1.6441  2.1762 -1.7125
  676MOL0     H93249   4.166   6.992   1.368 -0.9666 -0.0930  0.4001
  676MOL0     H93250   4.428   7.179   1.324  1.4671 -1.8797  0.6333
  676MOL0     H93251   4.565   7.356   1.224 -0.4580  0.2143  0.1098
  676MOL0     H93252   4.860   7.252   0.920  0.1001 -1.0075 -2.4565
  676MOL0     H93253   4.752   7.315   0.796  2.8106  0.2993 -1.1335
  676MOL0     H93254   4.787   7.526   0.840  0.4372 -0.9854 -2.5834
  676MOL0     H93255   4.901   7.490   0.982 -1.3461  5.1328  0.0434
  676MOL0     H93256   5.037   7.366   0.833 -3.0088 -2.9408 -1.2235
  676MOL0     H93257   5.030   7.542   0.781  0.3821 -1.2123 -0.2364
  676MOL0     H93258   4.873   7.466   0.601  0.0299  1.4075  2.6799
  676MOL0     H93259   4.915   7.302   0.642 -0.8829  0.3747 -2.0113
  676MOL0     H93260   5.146   7.329   0.608 -0.3554 -0.6539 -0.4090
  676MOL0     H93261   5.057   7.332   0.467  0.5669  0.1867 -1.0893
  676MOL0     H93262   5.191   7.583   0.565  2.3675 -1.6423  0.0914
  676MOL0     H93263   5.046   7.577   0.458 -1.7287 -2.8842  1.1402
  676MOL0     H93264   5.188   7.418   0.312  2.5338 -1.2645  0.7405
  676MOL0     H93265   5.326   7.493   0.402 -0.1385 -0.2151  1.2686
  676MOL0     H93266   5.254   7.720   0.362  1.3471 -2.9709  3.1532
  676MOL0     H93267   5.117   7.672   0.269 -0.3170  0.1042  1.2185
  676MOL0     H93268   4.660   7.110   0.893  0.0106  0.2597  0.6838
  676MOL0     H93269   4.496   6.927   0.990  1.5389  0.6685  0.6654
  676MOL0     H93270   4.412   6.559   1.222  0.5555 -2.0063  0.1556
  676MOL0     H93271   4.258   6.384   1.329  0.4129 -0.1251 -0.2444
  676MOL0     H93272   3.409   5.645   2.536  0.2692  0.3589 -0.0533
  676MOL0     H93273   3.195   5.710   2.453  0.7001 -1.9569  1.4650
  676MOL0     H93274   2.974   5.844   2.013 -0.4707  0.4140 -1.1752
  676MOL0     H93275   2.762   5.892   1.891 -0.9135 -0.8796 -0.7903
  676MOL0     H93276   2.380   5.824   2.086  0.3870  0.7655  1.8550
  676MOL0     H93277   2.419   6.000   2.118 -2.7684  0.9340  0.0943
  676MOL0     H93278   2.272   5.873   1.881  0.6187 -0.6371  0.4217
  676MOL0     H93279   2.356   6.021   1.859  0.5929  0.6668  0.6862
  676MOL0     H93280   2.171   5.983   2.094  1.0512  0.5895  1.4717
  676MOL0     H93281   2.238   6.137   2.058  0.5533 -0.0229 -0.5503
  676MOL0     H93282   2.045   5.963   1.878 -0.3688 -0.4681  1.9306
  676MOL0     H93283   2.113   6.115   1.822 -1.8723 -2.3471 -1.2809
  676MOL0     H93284   1.844   6.258   2.107 -1.7875  0.6715 -2.1500
  676MOL0     H93285   2.541   5.759   2.219  1.4319 -2.1777  2.8666
  676MOL0     H93286   2.760   5.597   2.405 -1.8270 -0.9068 -2.5878
  676MOL0     H93287   2.784   5.755   2.477 -0.1135  0.5713 -0.5498
  676MOL0     H93288   2.623   5.708   2.424 -1.0933 -0.3383 -1.7677
  677MOL0     O93289  10.884   5.290   0.938  0.1852 -0.2292  0.2263
  677MOL0     C93290  10.911   5.277   1.059  0.6438  0.1787 -0.5417
  677MOL0     O93291  11.016   5.207   1.111 -0.1352  0.0019 -0.2559
  677MOL0     C93292  11.136   5.187   1.053  0.1466 -0.4884  0.3253
  677MOL0     C93293  11.225   5.107   1.121 -0.1876 -0.0280  0.1884
  677MOL0     C93294  11.359   5.082   1.087 -0.1369 -0.3379 -0.0982
  677MOL0     C93295  11.410   5.152   0.979 -0.0453 -0.9358  0.2279
  677MOL0     O93296  11.545   5.143   0.949  0.4956  0.1572 -0.0733
  677MOL0     C93297  11.595   5.007   0.943 -0.1625  0.5683  0.0292
  677MOL0     C93298  11.741   5.000   0.872  0.7096  1.0931 -0.5513
  677MOL0     C93299  11.732   5.035   0.724 -0.5658 -0.0195 -0.1676
  677MOL0     C93300  11.845   5.003   0.631 -0.4497 -0.1882 -0.1295
  677MOL0     C93301  11.836   5.092   0.505 -0.4499 -1.0795 -0.2929
  677MOL0     C93302  11.896   5.029   0.383  0.5782 -0.1769  1.0149
  677MOL0     C93303  12.048   4.996   0.391 -0.5484  0.4149 -0.0490
  677MOL0     C93304  12.139   5.127   0.393 -0.6894 -0.0152  0.1765
  677MOL0     N93305  12.286   5.095   0.417  0.3666 -0.3054  0.2342
  677MOL0     C93306  12.345   5.071   0.536 -0.0734 -0.5805 -0.5542
  677MOL0     C93307  12.465   5.020   0.506 -1.0096 -0.3533 -0.2090
  677MOL0     C93308  12.564   4.990   0.611  0.0725  0.4597 -1.2030
  677MOL0     C93309  12.678   5.087   0.630  0.4327 -0.5886  0.1288
  677MOL0     C93310  12.775   5.029   0.731  0.3294  0.2276  0.0658
  677MOL0     C93311  12.908   5.105   0.733 -0.2415 -0.3360 -0.2216
  677MOL0     O93312  12.974   5.068   0.855 -0.3741  0.2875 -0.6919
  677MOL0     C93313  13.106   5.094   0.879 -0.0183 -0.2150 -1.2658
  677MOL0     C93314  13.196   5.143   0.782 -0.1180 -0.3179 -0.1418
  677MOL0     C93315  13.331   5.168   0.807  0.3710  0.7082  0.0121
  677MOL0     C93316  13.429   5.192   0.693  0.4053  0.7407 -0.9209
  677MOL0     C93317  13.375   5.139   0.938 -0.3441 -0.0045  0.2598
  677MOL0     C93318  13.518   5.160   0.980  0.1655  0.5123  0.0341
  677MOL0     O93319  13.584   5.262   0.917 -0.1672  0.4208 -0.2360
  677MOL0     C93320  13.692   5.326   0.976 -0.6224 -0.8517  0.0315
  677MOL0     C93321  13.708   5.355   1.115  0.9185 -0.4994  0.7091
  677MOL0     C93322  13.813   5.440   1.159 -0.0745  0.0836  0.3035
  677MOL0     C93323  13.920   5.480   1.090  0.4273 -0.1627  0.4461
  677MOL0     O93324  14.033   5.521   1.153  0.3931  0.2575  0.0678
  677MOL0     C93325  14.146   5.459   1.112 -0.8000  0.7550  0.7137
  677MOL0     C93326  14.272   5.493   1.204  0.7553  0.8781 -0.0810
  677MOL0     C93327  14.396   5.420   1.151 -0.0099  1.0681 -0.5375
  677MOL0     C93328  14.507   5.436   1.262  0.0003  0.1787  0.1219
  677MOL0     C93329  14.618   5.343   1.216  0.6575 -0.4353 -0.1798
  677MOL0     C93330  14.758   5.393   1.271  0.2940 -0.2173 -0.0848
  677MOL0     C93331  14.874   5.295   1.262 -0.4331 -0.0181 -0.0806
  677MOL0     C93332  14.959   5.308   1.134 -0.0891  0.2512 -0.6842
  677MOL0    Cl93333  15.044   5.466   1.134 -0.2460 -0.1012 -0.3039
  677MOL0     C93334  13.907   5.446   0.948  0.5518  1.0029 -0.3024
  677MOL0     C93335  13.799   5.369   0.900 -0.4202 -0.0573  0.0236
  677MOL0     O93336  13.573   5.086   1.066 -0.1664  0.5485 -0.0395
  677MOL0     C93337  13.289   5.089   1.036 -0.6146 -0.3446  0.1641
  677MOL0     C93338  13.161   5.061   1.003  0.2540 -0.1053  0.0966
  677MOL0     N93339  12.476   5.015   0.368  0.5150  0.1383 -0.1470
  677MOL0     N93340  12.364   5.059   0.314 -0.1054  0.2904 -0.5016
  677MOL0     C93341  11.326   5.239   0.906  0.1966 -0.3558 -0.6713
  677MOL0     C93342  11.191   5.254   0.945  0.0362 -0.4241 -0.3276
  677MOL0     C93343  10.803   5.312   1.149 -0.0904  0.1549 -0.1641
  677MOL0     C93344  10.743   5.435   1.135 -0.2598 -0.6110  0.4961
  677MOL0     C93345  10.631   5.484   1.205  0.3175  0.2303 -0.4395
  677MOL0     C93346  10.578   5.400   1.302 -0.4289 -0.6281  0.4042
  677MOL0     O93347  10.470   5.430   1.378  0.0647 -0.0336  0.0005
  677MOL0     C93348  10.425   5.568   1.389  0.2788  0.3971 -0.1857
  677MOL0     C93349  10.310   5.577   1.497 -1.0063 -0.2308 -0.3429
  677MOL0     C93350  10.177   5.516   1.443  0.7167 -0.1655  0.7171
  677MOL0     C93351  10.103   5.620   1.357  0.4856  0.5157 -0.3776
  677MOL0     C93352   9.965   5.581   1.335 -0.4072  0.2727 -0.0621
  677MOL0     C93353   9.860   5.524   1.315  0.2917 -0.6317 -0.3478
  677MOL0     C93354  10.640   5.273   1.320  0.8206 -0.2757  0.0452
  677MOL0     C93355  10.751   5.227   1.255 -0.2293 -0.0571  0.3990
  677MOL0     C93356  10.812   5.097   1.293  0.1578 -0.3973 -0.0783
  677MOL0     H93357  11.184   5.055   1.207  0.1786  0.3914  0.6184
  677MOL0     H93358  11.411   5.036   1.171  2.0505 -0.1111 -1.2673
  677MOL0     H93359  11.524   4.956   0.877  0.2305  2.7364 -2.2200
  677MOL0     H93360  11.597   4.966   1.044 -0.9621  3.4376  1.3069
  677MOL0     H93361  11.809   5.072   0.918 -0.6970  3.6166 -2.1752
  677MOL0     H93362  11.774   4.896   0.888 -2.0452  0.4386  1.7688
  677MOL0     H93363  11.638   4.990   0.693 -1.3340 -1.0410  3.2326
  677MOL0     H93364  11.712   5.142   0.715 -0.3939  0.0517  0.2871
  677MOL0     H93365  11.938   5.014   0.688 -0.8045 -0.0135  0.4244
  677MOL0     H93366  11.837   4.899   0.600  0.1773  0.0747 -1.2149
  677MOL0     H93367  11.874   5.193   0.523  1.5663 -1.9668  0.8151
  677MOL0     H93368  11.732   5.122   0.493 -0.2538  0.3313  1.1163
  677MOL0     H93369  11.851   4.931   0.368  3.0569 -1.5766  2.1887
  677MOL0     H93370  11.877   5.087   0.292 -0.6376 -1.8233  0.1712
  677MOL0     H93371  12.081   4.944   0.301  3.5084 -0.9273  1.9616
  677MOL0     H93372  12.068   4.931   0.477  1.7303  0.8108 -0.2370
  677MOL0     H93373  12.133   5.187   0.301 -0.4966  0.8173  0.6883
  677MOL0     H93374  12.099   5.192   0.472  0.4855  0.4428  0.4166
  677MOL0     H93375  12.294   5.080   0.631 -0.5268  3.7269 -0.9958
  677MOL0     H93376  12.613   4.899   0.574  0.7261  0.4488 -0.3453
  677MOL0     H93377  12.519   4.957   0.706  1.6434 -2.1519 -1.2536
  677MOL0     H93378  12.719   5.109   0.531 -0.1003 -1.1856 -0.2374
  677MOL0     H93379  12.649   5.183   0.673  3.7705  1.4931 -1.7961
  677MOL0     H93380  12.730   5.029   0.830 -1.6210  0.7148 -0.7724
  677MOL0     H93381  12.805   4.927   0.708  1.5510  0.0816  2.0429
  677MOL0     H93382  12.958   5.072   0.641 -2.1262 -1.2956 -0.9419
  677MOL0     H93383  12.894   5.213   0.746 -0.5833 -0.4970  0.8219
  677MOL0     H93384  13.150   5.157   0.685 -1.2409 -0.7546  0.3066
  677MOL0     H93385  13.533   5.179   0.725 -0.6933 -1.5205  2.1813
  677MOL0     H93386  13.417   5.295   0.656 -1.0186  1.6488  1.7811
  677MOL0     H93387  13.409   5.115   0.618 -2.2990 -0.1918  0.6374
  677MOL0     H93388  13.634   5.325   1.188  1.0165 -3.7706 -0.3705
  677MOL0     H93389  13.816   5.450   1.267 -1.8703  2.0929  0.2238
  677MOL0     H93390  14.141   5.350   1.120 -0.3644  0.6986  0.3003
  677MOL0     H93391  14.166   5.484   1.007  1.0636  1.7968  1.2757
  677MOL0     H93392  14.293   5.599   1.190 -2.3837  1.5528 -0.3829
  677MOL0     H93393  14.248   5.466   1.307  1.6272 -1.5566 -0.4351
  677MOL0     H93394  14.431   5.453   1.052  0.4990 -2.8105 -1.8355
  677MOL0     H93395  14.357   5.318   1.148  0.1320  0.9728  0.6920
  677MOL0     H93396  14.463   5.411   1.360  0.2612 -1.2211 -0.1141
  677MOL0     H93397  14.531   5.543   1.261 -4.2966  1.3515  0.9066
  677MOL0     H93398  14.582   5.244   1.246  2.8886 -0.1130  4.4184
  677MOL0     H93399  14.634   5.344   1.108  1.3243  3.8413 -0.2134
  677MOL0     H93400  14.736   5.423   1.374 -1.7049 -0.8300 -0.2903
  677MOL0     H93401  14.795   5.482   1.220 -1.6837  1.0664  0.6038
  677MOL0     H93402  14.828   5.196   1.272 -0.5430  0.0239 -0.1725
  677MOL0     H93403  14.939   5.297   1.350  0.7029  0.6825 -0.9172
  677MOL0     H93404  14.913   5.289   1.037 -1.5064  1.6296 -0.3260
  677MOL0     H93405  15.034   5.229   1.137 -0.7928 -0.4474 -1.3321
  677MOL0     H93406  13.986   5.455   0.874  0.6859 -3.4849 -0.9882
  677MOL0     H93407  13.791   5.335   0.797  1.9983  1.8113 -0.8659
  677MOL0     H93408  13.326   5.076   1.137 -0.3754  0.6695  0.2215
  677MOL0     H93409  13.084   5.017   1.066 -0.8816 -1.6853 -2.2856
  677MOL0     H93410  11.372   5.280   0.816 -2.1873 -1.8184 -2.6771
  677MOL0     H93411  11.135   5.321   0.881  0.9282  2.2155  1.5119
  677MOL0     H93412  10.772   5.502   1.055 -0.3452 -2.2563 -0.9564
  677MOL0     H93413  10.584   5.576   1.173  1.8660  0.6427 -1.6918
  677MOL0     H93414  10.514   5.626   1.415  1.0837 -0.9268  0.0939
  677MOL0     H93415  10.393   5.622   1.300  2.4230 -0.3279 -1.4504
  677MOL0     H93416  10.300   5.678   1.538  0.6021 -1.0380  2.2928
  677MOL0     H93417  10.335   5.516   1.584 -3.9827  0.4593  1.1541
  677MOL0     H93418  10.210   5.429   1.386  1.1434  1.4766 -1.6645
  677MOL0     H93419  10.119   5.492   1.533  1.0221  0.1894  1.0177
  677MOL0     H93420  10.160   5.632   1.264  0.1446  0.4221 -0.6006
  677MOL0     H93421  10.105   5.721   1.399 -0.6892  1.0564 -1.5073
  677MOL0     H93422   9.763   5.479   1.310  0.2988 -0.5735 -1.0307
  677MOL0     H93423  10.587   5.208   1.388  2.8458 -0.3827  1.6006
  677MOL0     H93424  10.809   5.023   1.213  2.3532 -1.4429  0.7251
  677MOL0     H93425  10.918   5.112   1.315  0.6037 -2.7621 -0.3429
  677MOL0     H93426  10.767   5.051   1.381  0.3887  0.6738  0.6278
  678MOL0     O93427  11.161   7.966   3.867  0.1930  0.0495  0.1958
  678MOL0     C93428  11.106   8.010   3.965  0.8346  0.5643 -0.4057
  678MOL0     O93429  11.160   8.047   4.082 -0.4474 -0.2174 -0.1711
  678MOL0     C93430  11.294   8.042   4.114  0.5892  0.3278 -0.1563
  678MOL0     C93431  11.323   8.035   4.245 -0.1371 -0.0311 -0.6761
  678MOL0     C93432  11.452   8.033   4.290 -0.0635 -0.4434 -0.0312
  678MOL0     C93433  11.563   8.023   4.198 -1.0012 -0.2682  0.6618
  678MOL0     O93434  11.690   8.012   4.254  0.0506 -0.0347  0.3953
  678MOL0     C93435  11.803   8.006   4.158  0.2566  0.1747  0.1234
  678MOL0     C93436  11.934   7.966   4.232 -0.5902  0.2108 -0.4917
  678MOL0     C93437  11.988   8.071   4.331  0.0890 -0.0234  0.3667
  678MOL0     C93438  12.132   8.017   4.370  0.2220 -0.1983  0.8471
  678MOL0     C93439  12.186   8.106   4.488 -0.3169  0.3228 -0.9776
  678MOL0     C93440  12.222   8.252   4.445 -0.2392  0.7219  0.5859
  678MOL0     C93441  12.345   8.314   4.512 -0.1696  0.5481 -0.1234
  678MOL0     C93442  12.359   8.452   4.447 -1.1894  0.2750 -0.0772
  678MOL0     N93443  12.496   8.507   4.482  0.0976 -0.8376 -0.0741
  678MOL0     C93444  12.527   8.556   4.607  0.1355  0.4034  0.7346
  678MOL0     C93445  12.661   8.551   4.611  0.0378  0.3695  0.8801
  678MOL0     C93446  12.759   8.581   4.725 -0.1749 -0.6523 -0.5708
  678MOL0     C93447  12.740   8.470   4.833 -0.6753  0.4916  0.4056
  678MOL0     C93448  12.733   8.320   4.785  0.3454 -0.6412  0.0560
  678MOL0     C93449  12.837   8.284   4.681 -0.6348 -0.7688 -0.2726
  678MOL0     O93450  12.831   8.142   4.640  0.4139 -0.2922  0.2107
  678MOL0     C93451  12.732   8.105   4.546 -1.2775 -1.1318 -0.0581
  678MOL0     C93452  12.677   7.978   4.561  0.8524 -0.1824 -0.1874
  678MOL0     C93453  12.589   7.925   4.465  0.2899  0.1713 -0.0748
  678MOL0     C93454  12.524   7.796   4.500 -0.2201  0.6558  0.7024
  678MOL0     C93455  12.552   7.999   4.351 -0.2280 -0.3385 -0.5128
  678MOL0     C93456  12.481   7.954   4.229  0.6157 -0.8389  1.0059
  678MOL0     O93457  12.478   8.039   4.118  0.0828 -0.0051  0.1114
  678MOL0     C93458  12.419   7.981   4.006 -0.1079 -0.1259  0.3768
  678MOL0     C93459  12.289   8.008   3.969 -0.6351 -0.2885 -0.3049
  678MOL0     C93460  12.232   7.975   3.851 -0.7826  0.5325  1.4756
  678MOL0     C93461  12.318   7.911   3.756  0.2055  0.6713 -0.7916
  678MOL0     O93462  12.278   7.870   3.629 -0.1637 -0.1197 -0.3547
  678MOL0     C93463  12.166   7.789   3.616  0.1923  0.8418 -0.7051
  678MOL0     C93464  12.035   7.875   3.572 -0.0268  0.2992 -0.3338
  678MOL0     C93465  12.053   7.951   3.443  0.6564 -1.2284  0.1113
  678MOL0     C93466  11.928   8.028   3.395  0.1504  0.2982 -0.0070
  678MOL0     C93467  11.920   8.037   3.247  0.4328 -0.0458  0.4933
  678MOL0     C93468  12.035   8.123   3.182 -0.8198 -0.7525 -0.7344
  678MOL0     C93469  12.050   8.114   3.031  0.4050  0.2214 -0.7662
  678MOL0     C93470  12.123   7.992   3.004 -0.0347  0.0697  0.6433
  678MOL0    Cl93471  12.186   7.993   2.830 -0.0657  0.6522 -0.1006
  678MOL0     C93472  12.447   7.877   3.789 -0.7416  0.4240 -0.4230
  678MOL0     C93473  12.501   7.903   3.923  0.1191  0.2543 -0.0653
  678MOL0     O93474  12.422   7.844   4.227  0.0354 -0.3804 -0.4385
  678MOL0     C93475  12.631   8.115   4.331 -0.0301 -0.0186 -0.1893
  678MOL0     C93476  12.710   8.182   4.425  0.4955  0.4678 -0.2895
  678MOL0     N93477  12.702   8.518   4.480  0.2901  0.3149  0.1156
  678MOL0     N93478  12.609   8.488   4.409  0.9095 -0.1573  0.8589
  678MOL0     C93479  11.524   8.024   4.062 -0.3530  0.6370 -0.7056
  678MOL0     C93480  11.397   8.035   4.017 -0.5195  0.0203  0.2762
  678MOL0     C93481  10.965   8.050   3.953 -1.1941  1.1817 -0.0171
  678MOL0     C93482  10.925   8.162   4.016 -0.3633  0.4126  0.0526
  678MOL0     C93483  10.796   8.221   4.007 -0.0448 -0.1446 -0.1366
  678MOL0     C93484  10.711   8.168   3.909  0.0812 -0.1934 -0.0885
  678MOL0     O93485  10.586   8.208   3.867 -0.3977  0.1421 -0.0115
  678MOL0     C93486  10.522   8.306   3.951  0.2318  0.4256  0.0857
  678MOL0     C93487  10.379   8.277   3.901 -0.3737  0.1977 -0.6662
  678MOL0     C93488  10.277   8.386   3.938 -0.7767 -0.0868 -0.2940
  678MOL0     C93489  10.274   8.501   3.844  0.4602 -0.5147 -0.1604
  678MOL0     C93490  10.206   8.470   3.714  0.7207 -0.1739 -0.7220
  678MOL0     C93491  10.131   8.442   3.627  0.0845 -0.1997  0.0345
  678MOL0     C93492  10.747   8.052   3.843  0.7177  0.3183 -0.0191
  678MOL0     C93493  10.871   7.986   3.867 -0.2381 -0.3099  0.3306
  678MOL0     C93494  10.905   7.856   3.808 -0.8373 -0.0061  0.8112
  678MOL0     H93495  11.241   8.017   4.313 -2.2729 -0.2200 -3.1546
  678MOL0     H93496  11.475   8.021   4.395  0.2182  2.3169  0.3012
  678MOL0     H93497  11.816   8.102   4.107  0.7506 -0.4375 -0.9361
  678MOL0     H93498  11.780   7.927   4.086 -0.5412 -0.6547  1.2453
  678MOL0     H93499  11.934   7.866   4.277  1.0152  0.1509 -0.5832
  678MOL0     H93500  12.009   7.962   4.152 -1.9769  1.7287 -1.9704
  678MOL0     H93501  11.992   8.169   4.284 -0.4869 -0.2370 -0.1390
  678MOL0     H93502  11.929   8.080   4.423  0.0237  0.6414  0.2644
  678MOL0     H93503  12.134   7.908   4.381  1.3448 -0.3858 -0.8121
  678MOL0     H93504  12.187   8.032   4.277  1.9739 -1.9983  1.5016
  678MOL0     H93505  12.273   8.059   4.536 -3.5827 -2.5793  2.7842
  678MOL0     H93506  12.115   8.095   4.570 -1.4052  1.4579 -1.7258
  678MOL0     H93507  12.217   8.270   4.337  0.0875  1.3716  0.6773
  678MOL0     H93508  12.134   8.312   4.471  1.0075  1.5642  3.1428
  678MOL0     H93509  12.438   8.257   4.507  0.1800  0.8593  1.9599
  678MOL0     H93510  12.326   8.331   4.618  0.5040  1.5208 -0.1428
  678MOL0     H93511  12.356   8.448   4.337 -1.7571  1.5731 -0.1324
  678MOL0     H93512  12.289   8.529   4.482 -1.7769  0.5793 -1.8240
  678MOL0     H93513  12.464   8.580   4.692  0.1912  1.6608  0.4328
  678MOL0     H93514  12.740   8.679   4.771 -1.0452 -1.5923  1.1623
  678MOL0     H93515  12.861   8.561   4.690  0.7372 -0.3860  1.6884
  678MOL0     H93516  12.813   8.468   4.914  0.2168 -0.6925 -0.3977
  678MOL0     H93517  12.650   8.500   4.887  0.4531  3.1169  0.9775
  678MOL0     H93518  12.736   8.246   4.865  3.2453  1.1515  1.8062
  678MOL0     H93519  12.635   8.318   4.736  0.3066  1.5019 -0.0377
  678MOL0     H93520  12.830   8.342   4.588 -0.5857  0.7009  0.6099
  678MOL0     H93521  12.933   8.305   4.728 -1.2918  0.2284  0.6670
  678MOL0     H93522  12.711   7.926   4.650  0.3407 -0.0751  0.0697
  678MOL0     H93523  12.524   7.719   4.423  0.8055 -0.0430  1.3764
  678MOL0     H93524  12.420   7.809   4.533  0.6087 -0.0955  4.0590
  678MOL0     H93525  12.581   7.748   4.580  1.0422 -2.2421 -1.7631
  678MOL0     H93526  12.222   8.050   4.044  1.1754 -1.0837  1.8902
  678MOL0     H93527  12.135   8.011   3.818 -0.6310  0.1076  0.5290
  678MOL0     H93528  12.195   7.707   3.549 -2.4699 -0.0310 -0.9412
  678MOL0     H93529  12.142   7.750   3.716 -0.8853  1.2306 -0.7956
  678MOL0     H93530  11.954   7.801   3.564 -0.1576  0.3716  0.2466
  678MOL0     H93531  12.006   7.941   3.654 -1.2308 -0.0432 -0.4589
  678MOL0     H93532  12.078   7.883   3.361 -2.0196 -0.4022 -1.5397
  678MOL0     H93533  12.130   8.025   3.463 -1.6810  1.1510  0.9631
  678MOL0     H93534  11.918   8.129   3.436 -2.1280  0.9429 -1.8843
  678MOL0     H93535  11.839   7.972   3.428  0.2068  0.4598  0.4306
  678MOL0     H93536  11.935   7.936   3.206  2.0998  0.5446 -0.4510
  678MOL0     H93537  11.820   8.081   3.238  1.2889  1.5502 -2.8300
  678MOL0     H93538  12.125   8.100   3.240 -0.3399  0.9744 -0.7210
  678MOL0     H93539  12.017   8.229   3.206  2.9622 -0.6645  2.8362
  678MOL0     H93540  12.099   8.206   3.000 -0.0852  1.0982  0.9416
  678MOL0     H93541  11.957   8.101   2.974  2.9625 -0.6226 -5.2130
  678MOL0     H93542  12.063   7.904   3.027 -0.0835  0.0668  0.5095
  678MOL0     H93543  12.209   7.997   3.072 -0.5285  1.7588  1.2049
  678MOL0     H93544  12.496   7.831   3.705 -0.8691  0.3270 -0.4438
  678MOL0     H93545  12.601   7.873   3.951 -0.1759 -1.6565 -0.8546
  678MOL0     H93546  12.623   8.169   4.237  2.0025 -0.6544 -0.7894
  678MOL0     H93547  12.745   8.284   4.411  2.0631  0.0601  0.3766
  678MOL0     H93548  11.601   8.017   3.985 -0.8197  0.8708 -1.2069
  678MOL0     H93549  11.380   8.051   3.911  2.4352  3.6199  0.1208
  678MOL0     H93550  10.994   8.232   4.061 -0.1836  0.7529 -0.7367
  678MOL0     H93551  10.773   8.304   4.072 -0.5727 -1.1532  0.9963
  678MOL0     H93552  10.541   8.274   4.054 -0.4630 -3.4894 -0.8273
  678MOL0     H93553  10.562   8.405   3.929 -0.8981  0.5840 -1.4276
  678MOL0     H93554  10.351   8.179   3.938 -1.9536  0.5369 -0.8873
  678MOL0     H93555  10.373   8.258   3.793 -2.1236 -2.8440 -0.1358
  678MOL0     H93556  10.177   8.343   3.951 -0.0553 -1.1661  2.4730
  678MOL0     H93557  10.304   8.434   4.032  0.8946 -0.0475 -0.7632
  678MOL0     H93558  10.374   8.543   3.828  0.2250  0.1654  0.1335
  678MOL0     H93559  10.210   8.571   3.898  2.0758  0.9686 -0.0583
  678MOL0     H93560  10.081   8.410   3.538  1.1324 -0.3060 -0.5383
  678MOL0     H93561  10.680   8.004   3.772  0.4811 -0.2690  0.5975
  678MOL0     H93562  10.957   7.869   3.713  0.3981 -0.4842  1.3991
  678MOL0     H93563  10.961   7.795   3.880 -4.0210  0.5167  4.0065
  678MOL0     H93564  10.810   7.807   3.784 -0.4965 -2.5787  3.9694
  679MOL0     O93565   5.927   7.091   2.679 -0.4908  0.1151 -0.6100
  679MOL0     C93566   5.839   7.165   2.727 -0.0289  0.1436 -0.1235
  679MOL0     O93567   5.858   7.287   2.791 -0.9053 -0.2984  0.2525
  679MOL0     C93568   5.984   7.347   2.786  0.0743  0.6241 -0.0309
  679MOL0     C93569   6.046   7.403   2.670  0.2255 -0.5423 -0.3284
  679MOL0     C93570   6.163   7.471   2.674  0.3030 -0.6100 -0.5026
  679MOL0     C93571   6.226   7.496   2.794  0.9664  0.6545 -0.2215
  679MOL0     O93572   6.342   7.568   2.815 -0.4508 -0.6459 -0.6267
  679MOL0     C93573   6.380   7.672   2.728 -0.1309 -0.0992  0.6963
  679MOL0     C93574   6.485   7.767   2.789  0.4224  0.2259  0.3332
  679MOL0     C93575   6.602   7.702   2.868  0.0590 -0.0446  0.0748
  679MOL0     C93576   6.737   7.671   2.793  0.1524 -0.0646 -0.6370
  679MOL0     C93577   6.739   7.572   2.674 -0.3711  0.3941  0.3459
  679MOL0     C93578   6.887   7.542   2.640 -0.4195  0.2801  0.4747
  679MOL0     C93579   6.901   7.459   2.511 -0.1566  0.5784 -0.5924
  679MOL0     C93580   7.047   7.433   2.470  0.4872 -0.9604  0.0193
  679MOL0     N93581   7.087   7.562   2.412  0.0391  0.6042 -0.0701
  679MOL0     C93582   7.073   7.602   2.285  0.7885  0.0485 -0.5849
  679MOL0     C93583   7.141   7.713   2.279  0.8114 -0.1910 -0.1778
  679MOL0     C93584   7.157   7.788   2.140 -0.4867 -0.2683 -0.6965
  679MOL0     C93585   7.261   7.727   2.050 -0.9203 -0.1548  0.3034
  679MOL0     C93586   7.391   7.724   2.125 -1.0323 -0.1389 -0.1030
  679MOL0     C93587   7.520   7.715   2.041 -0.6556 -0.1873 -0.2209
  679MOL0     O93588   7.536   7.831   1.951 -0.1486  0.0475 -0.5196
  679MOL0     C93589   7.656   7.828   1.884  1.1239  1.3044  0.4273
  679MOL0     C93590   7.747   7.722   1.877  0.2178  0.9145 -0.3940
  679MOL0     C93591   7.863   7.711   1.795 -0.1128  0.1175 -0.2626
  679MOL0     C93592   7.931   7.575   1.815  0.1990  0.9666 -0.0294
  679MOL0     C93593   7.893   7.829   1.723 -0.2307  0.7395  0.2149
  679MOL0     C93594   8.016   7.843   1.654 -0.7860 -0.3546  0.0282
  679MOL0     O93595   8.098   7.735   1.654 -0.4594 -1.0519 -0.3574
  679MOL0     C93596   8.213   7.746   1.584 -0.2692  0.3887 -0.5491
  679MOL0     C93597   8.339   7.757   1.652 -0.4146 -0.2571  0.4586
  679MOL0     C93598   8.459   7.762   1.583 -0.1319 -0.0630 -0.3845
  679MOL0     C93599   8.466   7.751   1.446  0.0085  0.5554 -0.5152
  679MOL0     O93600   8.585   7.745   1.379 -0.0507 -0.7718  0.0418
  679MOL0     C93601   8.627   7.612   1.334 -0.1055 -0.1063 -0.3304
  679MOL0     C93602   8.716   7.639   1.212  0.0362  0.3080 -0.3121
  679MOL0     C93603   8.825   7.521   1.198 -0.2282 -0.0997 -0.0815
  679MOL0     C93604   8.955   7.564   1.277 -0.2173  0.5885  0.9569
  679MOL0     C93605   9.051   7.444   1.283  0.3347 -0.7889  0.7090
  679MOL0     C93606   9.181   7.493   1.352 -0.5874  0.0698  0.1321
  679MOL0     C93607   9.295   7.385   1.343  0.0626 -0.8303 -0.1940
  679MOL0     C93608   9.398   7.436   1.436 -0.3903  0.0996 -0.4110
  679MOL0    Cl93609   9.354   7.413   1.600  0.1857 -0.1809 -0.2637
  679MOL0     C93610   8.341   7.742   1.375 -0.3720  0.1582 -0.0914
  679MOL0     C93611   8.220   7.744   1.445 -0.5388 -1.0669  0.6037
  679MOL0     O93612   8.049   7.964   1.622 -0.0198  0.3091  0.2249
  679MOL0     C93613   7.797   7.937   1.715  0.4226  0.4425 -0.4304
  679MOL0     C93614   7.683   7.936   1.793 -1.0867  0.3731 -0.1634
  679MOL0     N93615   7.187   7.751   2.407  0.8692  0.3279 -0.1283
  679MOL0     N93616   7.156   7.650   2.477 -0.1454 -0.0663 -0.6079
  679MOL0     C93617   6.165   7.444   2.911  0.3513 -0.2520 -0.0361
  679MOL0     C93618   6.045   7.369   2.905  0.0896  0.0177 -0.1737
  679MOL0     C93619   5.713   7.101   2.753  0.0813 -0.2253 -0.0639
  679MOL0     C93620   5.620   7.078   2.656  0.2537 -0.0708  0.0211
  679MOL0     C93621   5.493   7.027   2.680  0.1106  0.6361  0.7833
  679MOL0     C93622   5.453   7.000   2.803  0.2293  0.0177 -0.1602
  679MOL0     O93623   5.324   6.952   2.834  0.2913  0.4539  0.5299
  679MOL0     C93624   5.257   6.878   2.726 -0.8874  0.6529  0.2586
  679MOL0     C93625   5.136   6.818   2.804  0.0789  0.0060  0.5959
  679MOL0     C93626   5.043   6.750   2.703 -0.0292  0.4949  0.6803
  679MOL0     C93627   4.902   6.735   2.762  0.1478 -0.1784  0.8394
  679MOL0     C93628   4.898   6.662   2.888  0.6690 -0.0621  0.4110
  679MOL0     C93629   4.869   6.588   2.975  0.2543 -0.7377  0.0512
  679MOL0     C93630   5.540   7.023   2.911 -0.8339  0.2300 -0.4642
  679MOL0     C93631   5.677   7.059   2.885  0.7655  0.9094  0.3569
  679MOL0     C93632   5.768   7.076   3.013  0.1753 -0.5767  0.5184
  679MOL0     H93633   5.990   7.384   2.579 -2.0620 -1.7745  1.2237
  679MOL0     H93634   6.189   7.521   2.581  0.1024  0.8284  0.1882
  679MOL0     H93635   6.283   7.711   2.697 -1.7069 -3.7447  0.5417
  679MOL0     H93636   6.418   7.634   2.633 -2.2242  2.4653 -1.3131
  679MOL0     H93637   6.519   7.843   2.717  1.0788  0.2967  0.7154
  679MOL0     H93638   6.433   7.818   2.871  2.5369  1.2846  1.1012
  679MOL0     H93639   6.633   7.779   2.939 -0.7923  1.8308 -1.4710
  679MOL0     H93640   6.564   7.613   2.918 -0.7146  0.2990  0.1181
  679MOL0     H93641   6.788   7.763   2.763  0.9764 -1.2820 -3.2464
  679MOL0     H93642   6.808   7.638   2.869 -1.6975  2.3759  2.4442
  679MOL0     H93643   6.676   7.614   2.595  1.2783  2.9775  0.2770
  679MOL0     H93644   6.687   7.479   2.699 -1.9873  1.7590  2.5848
  679MOL0     H93645   6.946   7.633   2.632 -1.6810  1.0202 -1.1531
  679MOL0     H93646   6.927   7.482   2.722  1.6573 -1.8752 -1.9198
  679MOL0     H93647   6.856   7.513   2.426  0.7598 -2.1965 -2.9881
  679MOL0     H93648   6.850   7.364   2.525  2.0735 -0.4206  1.2375
  679MOL0     H93649   7.118   7.416   2.552 -0.6899  1.7784  1.7492
  679MOL0     H93650   7.053   7.357   2.392 -1.1257  0.7091 -1.8346
  679MOL0     H93651   7.010   7.562   2.206 -0.0686  2.5131 -1.2359
  679MOL0     H93652   7.185   7.893   2.156  2.4000 -0.8791 -1.0560
  679MOL0     H93653   7.060   7.796   2.091 -1.1359  1.0423  0.7070
  679MOL0     H93654   7.242   7.623   2.021 -0.5563 -0.4131  0.9785
  679MOL0     H93655   7.276   7.788   1.961 -1.5303 -0.2232  0.1505
  679MOL0     H93656   7.397   7.811   2.191 -2.1002 -1.9621  2.5294
  679MOL0     H93657   7.391   7.637   2.191 -0.3622 -1.0410 -1.2570
  679MOL0     H93658   7.606   7.716   2.109 -2.1143  1.2514  1.7268
  679MOL0     H93659   7.527   7.621   1.985 -0.5103  0.4265 -1.2567
  679MOL0     H93660   7.711   7.634   1.929 -0.0548  0.6537 -1.0058
  679MOL0     H93661   7.968   7.540   1.717  1.0844 -1.4698  1.0934
  679MOL0     H93662   7.864   7.497   1.852  0.4434  1.1408  0.7926
  679MOL0     H93663   8.021   7.586   1.876 -1.0496 -1.1556  2.3563
  679MOL0     H93664   8.328   7.753   1.759 -3.3956 -1.3348  0.2114
  679MOL0     H93665   8.549   7.776   1.643  0.3133 -1.0437 -0.7919
  679MOL0     H93666   8.688   7.553   1.403  1.1767  1.2105 -0.2731
  679MOL0     H93667   8.542   7.555   1.294 -0.0684  0.3964 -1.1568
  679MOL0     H93668   8.655   7.651   1.122 -0.7389 -1.1005 -0.0047
  679MOL0     H93669   8.773   7.729   1.237 -1.0853  1.2506 -1.0288
  679MOL0     H93670   8.836   7.499   1.092 -1.3786 -0.1301 -0.2092
  679MOL0     H93671   8.787   7.431   1.248  0.4460 -0.0398  0.5649
  679MOL0     H93672   8.917   7.596   1.374 -1.0558 -1.9822  1.5512
  679MOL0     H93673   9.005   7.647   1.226 -1.3348  0.2665 -0.7250
  679MOL0     H93674   9.002   7.359   1.330 -1.2567 -2.1050 -2.9668
  679MOL0     H93675   9.083   7.414   1.183  1.3794 -3.7408  1.8029
  679MOL0     H93676   9.168   7.526   1.455 -1.1299 -0.1856  0.1480
  679MOL0     H93677   9.215   7.581   1.297  0.8753 -0.7487 -0.3474
  679MOL0     H93678   9.337   7.376   1.242  1.2499 -1.3425  0.3251
  679MOL0     H93679   9.252   7.290   1.372  0.6012 -0.7872  0.7672
  679MOL0     H93680   9.427   7.540   1.421  0.5816  0.4356  2.9549
  679MOL0     H93681   9.491   7.385   1.408  0.8442  0.1122  3.1844
  679MOL0     H93682   8.329   7.719   1.269 -2.6958 -0.8783  0.3167
  679MOL0     H93683   8.131   7.750   1.383 -0.5738  0.2308  0.7363
  679MOL0     H93684   7.825   8.026   1.660  0.9408  2.0619  2.3008
  679MOL0     H93685   7.617   8.022   1.796 -0.8439  0.6074 -1.2135
  679MOL0     H93686   6.221   7.450   3.004  0.2027  1.6879 -0.0386
  679MOL0     H93687   5.982   7.346   2.991 -1.3985  1.3894 -0.8363
  679MOL0     H93688   5.645   7.097   2.553  0.1377 -0.6027 -0.1069
  679MOL0     H93689   5.427   7.016   2.596  0.2191  0.3242  0.7353
  679MOL0     H93690   5.235   6.950   2.647  1.6429  2.9831  1.4835
  679MOL0     H93691   5.322   6.800   2.684  2.6815  3.0821  0.8569
  679MOL0     H93692   5.076   6.895   2.853 -0.5682  1.0539 -1.6872
  679MOL0     H93693   5.184   6.743   2.867  0.4722 -1.9429 -1.8818
  679MOL0     H93694   5.032   6.815   2.616  1.2725  1.4484  1.1926
  679MOL0     H93695   5.091   6.654   2.683 -0.2535  0.4852  0.1695
  679MOL0     H93696   4.829   6.698   2.690 -2.3323  4.3148  0.6607
  679MOL0     H93697   4.863   6.836   2.774 -0.8890 -0.3573 -0.7734
  679MOL0     H93698   4.838   6.528   3.058 -2.3254 -2.3894 -1.9354
  679MOL0     H93699   5.496   7.008   3.009 -2.9883  0.3739 -1.3388
  679MOL0     H93700   5.795   7.179   3.036  2.6110 -1.4426  1.8356
  679MOL0     H93701   5.708   7.044   3.099  1.6516  0.8576  2.1663
  679MOL0     H93702   5.859   7.015   3.021  1.0236  0.4824 -0.6927
  680MOL0     O93703   8.239   7.571   7.722  0.4161 -0.4415  0.2355
  680MOL0     C93704   8.123   7.615   7.746  0.1193  0.8825 -0.0146
  680MOL0     O93705   8.071   7.623   7.872 -0.4152 -0.4481  0.2984
  680MOL0     C93706   8.125   7.558   7.977 -0.4675  0.5149 -0.2044
  680MOL0     C93707   8.208   7.623   8.068  0.0009 -0.0732  0.0788
  680MOL0     C93708   8.263   7.561   8.182 -1.1735  0.1085  0.6954
  680MOL0     C93709   8.237   7.430   8.210  0.0427  0.6287 -0.7756
  680MOL0     O93710   8.287   7.358   8.318  0.5970 -0.6864 -0.0939
  680MOL0     C93711   8.391   7.405   8.406 -0.0672  0.0601  0.2587
  680MOL0     C93712   8.422   7.294   8.502 -0.0522 -0.7764  0.1672
  680MOL0     C93713   8.523   7.200   8.446 -0.8724  0.7192  0.8837
  680MOL0     C93714   8.553   7.075   8.529 -0.7452 -0.5458  0.3564
  680MOL0     C93715   8.664   6.981   8.476 -0.7576 -0.2709  0.0333
  680MOL0     C93716   8.658   6.948   8.329 -0.5442 -0.7564  0.3994
  680MOL0     C93717   8.771   6.859   8.279  0.5382  0.9119  0.1365
  680MOL0     C93718   8.789   6.728   8.357 -0.5081 -0.6301  0.6184
  680MOL0     N93719   8.917   6.650   8.321 -1.3113  0.2816  0.3732
  680MOL0     C93720   8.926   6.562   8.215  0.8103 -0.8652  0.5833
  680MOL0     C93721   9.045   6.495   8.232  0.6447 -0.9535  0.5583
  680MOL0     C93722   9.090   6.397   8.130 -0.2188  0.2704  0.0891
  680MOL0     C93723   9.222   6.417   8.064 -0.8993  0.1726 -0.5171
  680MOL0     C93724   9.255   6.301   7.957 -0.1977  0.2422 -0.8925
  680MOL0     C93725   9.399   6.275   7.933 -0.3509  0.1564 -0.0655
  680MOL0     O93726   9.458   6.408   7.894 -0.3285  0.1841  0.0522
  680MOL0     C93727   9.597   6.400   7.863  0.4262 -0.5868 -0.7106
  680MOL0     C93728   9.659   6.513   7.810 -0.0792 -0.0378  0.8203
  680MOL0     C93729   9.795   6.511   7.767 -0.6441  0.2550  0.1966
  680MOL0     C93730   9.842   6.641   7.701 -0.3729 -1.0198 -0.2134
  680MOL0     C93731   9.874   6.392   7.778 -0.3647  0.0478 -0.4064
  680MOL0     C93732  10.017   6.388   7.755 -0.3150  0.4824 -0.3921
  680MOL0     O93733  10.060   6.262   7.750  0.5452  0.1766  0.4817
  680MOL0     C93734  10.191   6.227   7.730 -0.4616 -0.3914  0.4266
  680MOL0     C93735  10.292   6.271   7.820  0.6843  0.8477  0.2540
  680MOL0     C93736  10.432   6.247   7.794  0.1023  0.4320 -0.6221
  680MOL0     C93737  10.468   6.180   7.673  0.3548 -0.6264 -0.6583
  680MOL0     O93738  10.597   6.171   7.635  0.1415  0.0148 -0.1797
  680MOL0     C93739  10.636   6.183   7.495  0.4263 -0.2665 -0.1156
  680MOL0     C93740  10.770   6.244   7.493 -0.3363  0.5263  0.8527
  680MOL0     C93741  10.814   6.247   7.344 -1.3128  0.5743  0.0948
  680MOL0     C93742  10.967   6.253   7.332 -0.0646  0.3498  0.6856
  680MOL0     C93743  11.047   6.124   7.346 -0.5019 -0.4498  0.7451
  680MOL0     C93744  11.200   6.165   7.356  0.1186 -0.7449  0.3423
  680MOL0     C93745  11.301   6.055   7.385 -0.3961 -0.0971  0.1979
  680MOL0     C93746  11.304   5.973   7.258 -0.4991 -0.0889 -0.2481
  680MOL0    Cl93747  11.357   6.067   7.122  0.0458  0.4989  0.0361
  680MOL0     C93748  10.369   6.144   7.583  0.7471 -0.8229 -0.3111
  680MOL0     C93749  10.230   6.164   7.615  0.0191 -0.5553  0.8931
  680MOL0     O93750  10.085   6.487   7.751 -0.0766  0.3148  0.0482
  680MOL0     C93751   9.805   6.282   7.827 -0.0627  0.1072  0.3351
  680MOL0     C93752   9.676   6.273   7.857  1.2448 -0.6300 -0.3126
  680MOL0     N93753   9.103   6.533   8.349  0.5636 -0.7801  0.0247
  680MOL0     N93754   9.023   6.626   8.400 -0.4630  0.5187  0.5415
  680MOL0     C93755   8.154   7.360   8.125 -0.5293 -0.2290 -0.6191
  680MOL0     C93756   8.095   7.425   8.021  0.5609 -0.0557 -0.2229
  680MOL0     C93757   8.038   7.661   7.629  0.5943 -0.1326  0.0478
  680MOL0     C93758   8.084   7.633   7.500 -0.8819  0.4450 -0.7121
  680MOL0     C93759   8.014   7.672   7.387 -0.0740 -0.1751 -0.1849
  680MOL0     C93760   7.883   7.731   7.400  0.1106  0.2194 -0.1035
  680MOL0     O93761   7.802   7.749   7.293 -0.1049 -0.7225 -0.2115
  680MOL0     C93762   7.807   7.659   7.179 -0.3308 -0.9152 -0.0728
  680MOL0     C93763   7.750   7.513   7.201 -0.4342  0.4188 -1.0728
  680MOL0     C93764   7.756   7.429   7.073  0.0900  0.5882  0.9408
  680MOL0     C93765   7.651   7.476   6.977  0.5443  0.6197 -0.7325
  680MOL0     C93766   7.508   7.449   7.019 -0.8765  0.6091 -0.0783
  680MOL0     C93767   7.400   7.438   7.059  0.7343 -0.6350  0.2820
  680MOL0     C93768   7.848   7.764   7.525  0.2797 -0.8580  0.7632
  680MOL0     C93769   7.912   7.734   7.640  0.3379  0.1186 -0.8624
  680MOL0     C93770   7.832   7.760   7.769  0.5439 -0.4968 -0.0648
  680MOL0     H93771   8.223   7.722   8.026 -3.3556  1.6077  2.3821
  680MOL0     H93772   8.336   7.612   8.243 -0.6004 -2.5053  2.3474
  680MOL0     H93773   8.361   7.499   8.453 -1.8823 -0.1513 -0.4273
  680MOL0     H93774   8.480   7.435   8.349 -0.1142  0.3894  0.3576
  680MOL0     H93775   8.449   7.336   8.599 -1.7227 -1.8775  1.1669
  680MOL0     H93776   8.333   7.232   8.518  1.4426 -2.9467  0.5166
  680MOL0     H93777   8.499   7.162   8.347  2.5871 -3.1692  1.2591
  680MOL0     H93778   8.620   7.251   8.443 -2.0076  2.9668 -0.5023
  680MOL0     H93779   8.582   7.102   8.631 -1.3805 -2.2022  1.0088
  680MOL0     H93780   8.465   7.011   8.544 -1.1238  0.2762  1.8759
  680MOL0     H93781   8.647   6.887   8.528  2.1047 -0.2660  1.1531
  680MOL0     H93782   8.764   7.023   8.493 -0.7256 -0.3142 -0.0480
  680MOL0     H93783   8.565   6.895   8.310 -1.6714  0.4450  2.2403
  680MOL0     H93784   8.664   7.030   8.257 -0.9326 -2.4918 -1.7012
  680MOL0     H93785   8.862   6.917   8.292  0.5392  0.9156  0.1170
  680MOL0     H93786   8.759   6.832   8.174  0.0680 -0.0970  0.4330
  680MOL0     H93787   8.807   6.748   8.463  2.6522 -1.2931  0.3179
  680MOL0     H93788   8.703   6.662   8.343 -1.3719  0.5039  0.4632
  680MOL0     H93789   8.859   6.557   8.130  0.5559 -1.4817  0.8202
  680MOL0     H93790   9.021   6.395   8.045  0.0610  1.6656 -0.2026
  680MOL0     H93791   9.093   6.300   8.178 -2.3257  0.2873  0.3660
  680MOL0     H93792   9.216   6.512   8.010 -0.0711  0.5679  0.0568
  680MOL0     H93793   9.303   6.435   8.136 -0.6959  0.5371 -0.8293
  680MOL0     H93794   9.199   6.211   7.982 -3.4672  1.4805 -3.1099
  680MOL0     H93795   9.217   6.333   7.860  0.8413  0.1195 -1.3609
  680MOL0     H93796   9.438   6.239   8.029 -3.0987 -1.3830  0.5786
  680MOL0     H93797   9.410   6.190   7.866  0.2928 -0.2144  0.4924
  680MOL0     H93798   9.610   6.609   7.798 -0.7549 -0.4743 -0.0056
  680MOL0     H93799   9.925   6.681   7.759  0.1378 -2.5963  0.1771
  680MOL0     H93800   9.763   6.717   7.699  2.6977  2.5343  1.3475
  680MOL0     H93801   9.882   6.614   7.603  2.1411 -1.3036  0.8181
  680MOL0     H93802  10.269   6.316   7.916 -0.5161 -1.6738  1.2467
  680MOL0     H93803  10.515   6.279   7.856 -0.9188 -1.8684  2.1415
  680MOL0     H93804  10.639   6.083   7.451  1.0859  0.9792 -3.1353
  680MOL0     H93805  10.563   6.244   7.441  4.2512  1.3603 -4.0164
  680MOL0     H93806  10.770   6.345   7.536  0.3098  0.4726  0.9814
  680MOL0     H93807  10.841   6.182   7.549 -0.1653 -4.0045 -3.7076
  680MOL0     H93808  10.765   6.324   7.285 -1.4685  1.8717  1.8239
  680MOL0     H93809  10.783   6.154   7.295 -1.5036  1.1583 -0.8984
  680MOL0     H93810  11.000   6.325   7.408  0.5504  0.6799  0.1183
  680MOL0     H93811  10.989   6.278   7.228  0.7115  0.0158  0.7624
  680MOL0     H93812  11.033   6.073   7.442 -1.5826 -1.0837  0.2666
  680MOL0     H93813  11.019   6.048   7.273  3.6487  0.5880 -2.3037
  680MOL0     H93814  11.208   6.230   7.443  2.4174 -1.0271  0.4069
  680MOL0     H93815  11.223   6.227   7.269 -1.3595 -1.5935 -0.6911
  680MOL0     H93816  11.272   6.003   7.477 -3.6281 -1.5139 -1.4949
  680MOL0     H93817  11.399   6.099   7.406 -0.4516  1.3152 -2.1153
  680MOL0     H93818  11.199   5.947   7.243  0.0408 -1.5734 -1.7872
  680MOL0     H93819  11.359   5.879   7.273 -1.4865 -0.6320  0.0929
  680MOL0     H93820  10.394   6.099   7.487 -2.3234  0.5169 -1.8766
  680MOL0     H93821  10.153   6.132   7.545 -1.0628 -0.1924  1.8705
  680MOL0     H93822   9.853   6.185   7.822  0.6823  0.4084  1.3512
  680MOL0     H93823   9.638   6.176   7.889 -0.4141  0.6978  2.0300
  680MOL0     H93824   8.140   7.253   8.142  0.8387 -0.2270  0.6682
  680MOL0     H93825   8.024   7.367   7.964  1.7173 -1.8757  0.1003
  680MOL0     H93826   8.183   7.591   7.483  0.1925  2.0506  1.2145
  680MOL0     H93827   8.052   7.663   7.285 -0.4487  4.1266 -0.9072
  680MOL0     H93828   7.745   7.713   7.107  1.6362  0.1142 -1.0492
  680MOL0     H93829   7.901   7.661   7.123 -0.6692 -0.7808 -0.6416
  680MOL0     H93830   7.651   7.521   7.245  0.3557 -1.0143  1.1673
  680MOL0     H93831   7.811   7.466   7.279 -1.4171  2.1623  0.8454
  680MOL0     H93832   7.849   7.433   7.017  1.4741 -1.4812  2.8977
  680MOL0     H93833   7.741   7.322   7.094  1.7397 -0.1799 -1.4547
  680MOL0     H93834   7.678   7.417   6.889  0.7735  0.5318 -0.6049
  680MOL0     H93835   7.663   7.582   6.952  0.7210 -0.1034 -4.1992
  680MOL0     H93836   7.303   7.444   7.104  0.8110  2.6544  0.2518
  680MOL0     H93837   7.750   7.807   7.537 -0.2761 -1.0442 -2.1705
  680MOL0     H93838   7.819   7.665   7.822 -2.5822 -0.7809 -1.1281
  680MOL0     H93839   7.888   7.837   7.822 -0.1446  1.2027 -1.6952
  680MOL0     H93840   7.732   7.801   7.750  0.5143  0.4843  1.9836
  681MOL0     O93841   8.200   0.735   3.157  0.2198 -0.3183  0.1410
  681MOL0     C93842   8.230   0.727   3.280  0.2684 -0.0005  0.4158
  681MOL0     O93843   8.274   0.825   3.356 -0.4321 -0.4086  0.7343
  681MOL0     C93844   8.294   0.951   3.301  0.0622  0.1216 -0.0676
  681MOL0     C93845   8.194   1.023   3.233 -0.6769 -0.7046  0.0387
  681MOL0     C93846   8.217   1.151   3.181 -0.0322  0.3976  0.2696
  681MOL0     C93847   8.342   1.210   3.185 -0.3038 -0.2663 -0.3222
  681MOL0     O93848   8.368   1.343   3.137  0.5693 -0.2692  0.6296
  681MOL0     C93849   8.459   1.421   3.206  0.1991 -0.7389  0.3455
  681MOL0     C93850   8.590   1.441   3.118  0.2161  0.0033  0.2321
  681MOL0     C93851   8.563   1.496   2.973 -0.3755 -0.4685 -1.0059
  681MOL0     C93852   8.687   1.519   2.892 -1.7172  0.1982 -0.3753
  681MOL0     C93853   8.745   1.384   2.831 -0.4403  0.6200  0.1745
  681MOL0     C93854   8.835   1.425   2.711  0.2379 -0.2619 -0.3228
  681MOL0     C93855   8.987   1.448   2.748  0.0278  0.5936  0.6684
  681MOL0     C93856   9.059   1.489   2.623 -0.9855 -0.5999 -0.7872
  681MOL0     N93857   9.198   1.516   2.645 -0.2339  0.1491  0.2707
  681MOL0     C93858   9.297   1.424   2.649 -0.9025  1.0043 -0.2261
  681MOL0     C93859   9.410   1.489   2.633 -1.0870  0.3546 -0.4875
  681MOL0     C93860   9.552   1.422   2.631  0.5814 -0.6899  0.4053
  681MOL0     C93861   9.597   1.445   2.491 -0.0306 -0.2985  0.3946
  681MOL0     C93862   9.736   1.387   2.463  0.7561  0.6808  0.1533
  681MOL0     C93863   9.835   1.496   2.496 -0.5276  0.3867  0.0823
  681MOL0     O93864   9.958   1.438   2.458 -0.1727 -0.1269 -0.1125
  681MOL0     C93865  10.074   1.497   2.498 -0.1011  0.2500  0.0475
  681MOL0     C93866  10.096   1.623   2.550  0.0109 -0.7778  0.4633
  681MOL0     C93867  10.222   1.681   2.563 -1.0804  0.1444 -0.4476
  681MOL0     C93868  10.225   1.814   2.636  0.4772 -0.4750  0.2624
  681MOL0     C93869  10.341   1.605   2.523  0.0427 -0.4487 -0.7867
  681MOL0     C93870  10.477   1.658   2.531  0.1384  0.3603  0.1631
  681MOL0     O93871  10.492   1.791   2.565 -0.3174  0.1709  0.3932
  681MOL0     C93872  10.614   1.843   2.535 -0.5194 -0.4306  0.4551
  681MOL0     C93873  10.657   1.943   2.624  0.0088 -0.2269 -0.4313
  681MOL0     C93874  10.774   2.016   2.603  0.9833 -0.1034  0.4411
  681MOL0     C93875  10.848   1.999   2.484  0.3129  0.1281 -0.3496
  681MOL0     O93876  10.959   2.063   2.459 -0.3605 -0.1897  0.3382
  681MOL0     C93877  10.970   2.204   2.497  0.2562  0.4685 -0.4106
  681MOL0     C93878  11.114   2.237   2.536 -0.5197  0.0317 -0.1162
  681MOL0     C93879  11.164   2.140   2.645  0.8457 -0.3294  1.0082
  681MOL0     C93880  11.291   2.207   2.712 -0.8728 -0.1254  0.9944
  681MOL0     C93881  11.352   2.102   2.799 -0.0994  0.3447 -1.2196
  681MOL0     C93882  11.296   2.120   2.935  0.1643 -0.7900 -0.1875
  681MOL0     C93883  11.343   2.017   3.040 -0.0961 -0.9065 -0.0770
  681MOL0     C93884  11.253   1.900   3.059 -0.0260  0.1462 -0.7098
  681MOL0    Cl93885  11.248   1.816   2.903 -0.0204 -0.2900 -0.1730
  681MOL0     C93886  10.815   1.898   2.401 -0.2222 -0.9967  0.8363
  681MOL0     C93887  10.703   1.824   2.421 -0.7983  1.5924 -0.5544
  681MOL0     O93888  10.571   1.578   2.524 -1.0271  0.2244 -0.1303
  681MOL0     C93889  10.316   1.475   2.474  0.1092  0.8419 -0.4364
  681MOL0     C93890  10.188   1.424   2.456  0.2890 -0.3018 -0.1386
  681MOL0     N93891   9.386   1.629   2.623 -0.1883 -0.3725  0.3533
  681MOL0     N93892   9.256   1.636   2.620 -0.4301 -0.9787 -0.4329
  681MOL0     C93893   8.445   1.130   3.240  0.0219  0.6945 -0.8267
  681MOL0     C93894   8.423   1.008   3.309  0.2391 -1.1076 -0.8412
  681MOL0     C93895   8.207   0.602   3.347 -0.6387  1.3242 -0.2817
  681MOL0     C93896   8.163   0.603   3.478 -0.2824 -0.6083  0.4170
  681MOL0     C93897   8.145   0.483   3.543  0.2019  1.0162 -0.4348
  681MOL0     C93898   8.161   0.361   3.488 -0.9824 -0.1171  0.8412
  681MOL0     O93899   8.121   0.262   3.560 -0.3474  0.7446  0.3070
  681MOL0     C93900   8.106   0.136   3.501 -0.6963  0.7238  0.2271
  681MOL0     C93901   8.034   0.030   3.586 -0.1176 -0.5332  0.2433
  681MOL0     C93902   8.120  -0.015   3.702 -0.0741 -0.2071  0.3851
  681MOL0     C93903   8.127   0.091   3.815 -0.3769  0.3197 -0.3422
  681MOL0     C93904   8.037   0.065   3.932  0.1439 -1.3639  0.0174
  681MOL0     C93905   7.964   0.033   4.030 -0.2745  0.1511  0.7549
  681MOL0     C93906   8.226   0.358   3.363  0.9216  1.0335 -0.5346
  681MOL0     C93907   8.244   0.479   3.288  0.3886  0.2070 -0.3381
  681MOL0     C93908   8.311   0.470   3.155 -0.2042  0.7357  0.6509
  681MOL0     H93909   8.094   0.981   3.221 -0.5240 -1.1068  0.1448
  681MOL0     H93910   8.141   1.204   3.125 -1.9220 -4.6899 -2.5139
  681MOL0     H93911   8.486   1.369   3.298  0.5217 -0.8488  0.1903
  681MOL0     H93912   8.407   1.512   3.239  1.0066  0.0542 -0.4947
  681MOL0     H93913   8.655   1.516   3.163 -0.5134  1.2803 -0.7727
  681MOL0     H93914   8.649   1.349   3.109 -0.9174 -0.8116  0.9476
  681MOL0     H93915   8.501   1.422   2.923 -2.0866  0.2313 -0.0094
  681MOL0     H93916   8.499   1.584   2.965 -1.1120 -1.1380 -3.5534
  681MOL0     H93917   8.668   1.597   2.819  0.1357  1.6735  0.6404
  681MOL0     H93918   8.766   1.554   2.959  0.0238 -2.8754 -0.6118
  681MOL0     H93919   8.652   1.337   2.797 -2.3518  2.6481  2.1398
  681MOL0     H93920   8.786   1.319   2.908  0.4026  2.6049  1.4726
  681MOL0     H93921   8.836   1.348   2.633 -2.9017  1.3446 -2.1141
  681MOL0     H93922   8.804   1.519   2.663  1.3680  1.7118  2.5508
  681MOL0     H93923   9.030   1.353   2.779  2.0910  0.4114 -2.3381
  681MOL0     H93924   8.999   1.531   2.819  2.0300  0.1459  0.9307
  681MOL0     H93925   9.058   1.410   2.548  0.5766 -1.6579  0.2460
  681MOL0     H93926   9.011   1.578   2.581  2.1006  0.6599 -1.9794
  681MOL0     H93927   9.292   1.323   2.688 -0.8557  1.1519  0.1593
  681MOL0     H93928   9.563   1.315   2.654 -0.1998 -0.9868 -0.5461
  681MOL0     H93929   9.629   1.475   2.689 -0.0111  2.2428 -1.3322
  681MOL0     H93930   9.521   1.400   2.427 -2.1843  2.3321  0.8975
  681MOL0     H93931   9.604   1.553   2.477  2.8152 -0.4260  0.2601
  681MOL0     H93932   9.764   1.290   2.506  0.2321  0.5078  0.1040
  681MOL0     H93933   9.728   1.361   2.357 -1.8114  0.5044  0.3448
  681MOL0     H93934   9.826   1.591   2.443 -3.1772  0.7715  1.0649
  681MOL0     H93935   9.831   1.520   2.603  0.4811  1.6139 -0.1356
  681MOL0     H93936  10.009   1.685   2.571 -0.3015 -0.5078 -1.4978
  681MOL0     H93937  10.241   1.894   2.563 -0.6109 -0.5788 -0.0953
  681MOL0     H93938  10.303   1.819   2.713  0.5706  0.2423  0.1263
  681MOL0     H93939  10.139   1.844   2.697  1.4773  1.2892  0.8940
  681MOL0     H93940  10.597   1.965   2.711  0.0473 -0.4445 -0.3487
  681MOL0     H93941  10.794   2.097   2.673 -1.9523  1.3227 -0.1931
  681MOL0     H93942  10.941   2.271   2.416 -2.6854 -1.0316 -0.7270
  681MOL0     H93943  10.903   2.232   2.578  0.0466 -1.2992  0.0655
  681MOL0     H93944  11.182   2.235   2.451  0.7074 -0.0947  0.8399
  681MOL0     H93945  11.123   2.339   2.577 -0.7960 -0.8773  2.4019
  681MOL0     H93946  11.190   2.046   2.597  1.5322 -0.4107  1.5245
  681MOL0     H93947  11.080   2.113   2.710  1.5068 -2.3595  1.0751
  681MOL0     H93948  11.262   2.303   2.756  0.6461  1.0810 -0.5085
  681MOL0     H93949  11.364   2.237   2.636 -2.6250  1.5905 -0.1092
  681MOL0     H93950  11.326   2.005   2.755  0.0815  0.1961 -0.9972
  681MOL0     H93951  11.460   2.102   2.814 -0.4392 -2.1092  2.1577
  681MOL0     H93952  11.186   2.124   2.932  0.1794  1.1595  0.5543
  681MOL0     H93953  11.343   2.207   2.982 -1.3888 -0.8117  1.5304
  681MOL0     H93954  11.348   2.068   3.137 -0.8565 -1.6459  0.3688
  681MOL0     H93955  11.443   1.983   3.012  0.2459 -0.5189  0.6359
  681MOL0     H93956  11.152   1.931   3.086 -1.1930 -2.3820 -1.7807
  681MOL0     H93957  11.289   1.830   3.135  0.3001 -1.2138 -2.0652
  681MOL0     H93958  10.887   1.880   2.322  0.8026 -1.2701  1.8088
  681MOL0     H93959  10.695   1.740   2.353  0.3029  0.1882  0.9425
  681MOL0     H93960  10.402   1.420   2.436 -1.7245  1.0302 -5.5725
  681MOL0     H93961  10.171   1.329   2.406  0.6137  0.4646 -1.7577
  681MOL0     H93962   8.545   1.161   3.210  0.3129  1.3167  0.7018
  681MOL0     H93963   8.509   0.971   3.363  0.4912  2.3752  1.4521
  681MOL0     H93964   8.144   0.703   3.515  1.8378  0.6312 -1.6253
  681MOL0     H93965   8.101   0.485   3.642  1.3753 -2.6976  0.3219
  681MOL0     H93966   8.048   0.140   3.409 -1.4408 -1.6842  0.5181
  681MOL0     H93967   8.208   0.107   3.475 -0.3460  3.1119 -1.3038
  681MOL0     H93968   7.997  -0.058   3.534 -3.6178 -0.5894  2.4521
  681MOL0     H93969   7.950   0.085   3.630  0.5958 -1.4093  2.9346
  681MOL0     H93970   8.081  -0.106   3.747  2.3346 -0.2425  2.6792
  681MOL0     H93971   8.222  -0.039   3.669 -0.7657 -3.3714  0.2657
  681MOL0     H93972   8.111   0.195   3.784  0.7905  0.7511  0.4165
  681MOL0     H93973   8.230   0.076   3.848  0.0376 -0.0629 -1.7574
  681MOL0     H93974   7.896  -0.010   4.100  1.6452 -0.1297  2.5596
  681MOL0     H93975   8.245   0.264   3.312  0.2912  1.1106 -0.9220
  681MOL0     H93976   8.378   0.554   3.136  2.7257 -1.1873  1.7636
  681MOL0     H93977   8.380   0.386   3.144 -0.0745  0.9796 -0.4831
  681MOL0     H93978   8.236   0.460   3.076  1.0756  1.1923 -0.6674
  682MOL0     O93979   5.677   8.583   4.948 -0.7535  0.0380  0.0299
  682MOL0     C93980   5.769   8.665   4.929  0.1526  0.1038  0.2568
  682MOL0     O93981   5.882   8.643   4.856  0.5661 -0.8687 -1.0064
  682MOL0     C93982   5.905   8.537   4.769  0.5624 -0.1394  0.2050
  682MOL0     C93983   6.026   8.469   4.768 -0.5050 -0.2255  0.0800
  682MOL0     C93984   6.043   8.368   4.669  0.5757  1.1782  0.2256
  682MOL0     C93985   5.945   8.348   4.566 -0.3305  0.5596  0.2301
  682MOL0     O93986   5.956   8.256   4.467  0.0879  0.2720  0.0232
  682MOL0     C93987   6.029   8.131   4.506 -0.0910  0.4592 -0.1218
  682MOL0     C93988   5.980   8.016   4.421  0.5853 -0.4314  0.0128
  682MOL0     C93989   6.000   8.035   4.271  0.0277  0.2737 -0.0036
  682MOL0     C93990   5.906   7.938   4.205  0.4329 -0.4209  0.1337
  682MOL0     C93991   5.892   7.977   4.059 -0.3520  0.2441 -0.5150
  682MOL0     C93992   5.795   7.881   3.997  0.2978  0.0603  0.1559
  682MOL0     C93993   5.758   7.924   3.853 -0.0710 -0.1255  0.3554
  682MOL0     C93994   5.664   7.822   3.785 -0.1306 -0.1361 -0.4924
  682MOL0     N93995   5.668   7.842   3.641 -0.2676 -0.1102  0.6897
  682MOL0     C93996   5.621   7.955   3.580  0.2440  0.1843  0.2556
  682MOL0     C93997   5.651   7.933   3.448 -0.4157  0.2469 -0.5069
  682MOL0     C93998   5.612   7.988   3.317 -0.4693  0.1666  0.3363
  682MOL0     C93999   5.533   8.120   3.311 -1.0583  0.1740  0.0226
  682MOL0     C94000   5.390   8.095   3.364  0.2680 -0.4788 -1.2913
  682MOL0     C94001   5.312   7.999   3.280 -0.6804  0.7674  0.0268
  682MOL0     O94002   5.174   8.007   3.318  0.2855 -0.9596 -0.2069
  682MOL0     C94003   5.092   7.907   3.282 -1.1942  0.2314  0.7719
  682MOL0     C94004   5.120   7.813   3.178  0.7356  0.6912 -0.1482
  682MOL0     C94005   5.025   7.712   3.140  0.6768 -0.0146 -0.1218
  682MOL0     C94006   5.084   7.610   3.047  0.3488 -0.6195 -0.5554
  682MOL0     C94007   4.898   7.710   3.203 -0.4679 -0.7405  0.1592
  682MOL0     C94008   4.786   7.618   3.160 -0.1448 -0.1961  0.5769
  682MOL0     O94009   4.709   7.561   3.259 -0.2763  0.0148  0.4802
  682MOL0     C94010   4.598   7.485   3.210 -0.4557 -0.6680 -0.5287
  682MOL0     C94011   4.475   7.541   3.229  0.3473  0.3193  0.1132
  682MOL0     C94012   4.354   7.472   3.194 -0.6664 -0.0116  0.3273
  682MOL0     C94013   4.360   7.339   3.135  0.8992  0.1278  0.0809
  682MOL0     O94014   4.239   7.276   3.113 -0.1405  0.2903  0.1319
  682MOL0     C94015   4.237   7.138   3.079 -0.3751 -0.1681  0.3818
  682MOL0     C94016   4.092   7.088   3.077  0.2134 -0.6658  0.3658
  682MOL0     C94017   4.032   7.101   3.222 -0.5035 -0.2118  1.0283
  682MOL0     C94018   3.877   7.118   3.215 -0.4920  0.3135  0.1814
  682MOL0     C94019   3.827   7.152   3.353  0.8562  0.4520  0.9025
  682MOL0     C94020   3.689   7.211   3.357  0.6763  0.1817  0.1558
  682MOL0     C94021   3.636   7.249   3.498 -0.0253 -0.5298 -0.3851
  682MOL0     C94022   3.475   7.248   3.498 -0.1740  0.1060  0.1194
  682MOL0    Cl94023   3.421   7.075   3.503 -0.0229  0.2566 -0.2619
  682MOL0     C94024   4.485   7.283   3.112 -0.0012  0.3751  1.0525
  682MOL0     C94025   4.607   7.356   3.149 -0.4451 -0.2608 -0.0758
  682MOL0     O94026   4.769   7.602   3.038  0.2757 -0.5630 -0.6520
  682MOL0     C94027   4.876   7.803   3.303 -0.9713  0.8995  0.3668
  682MOL0     C94028   4.966   7.904   3.337 -0.1106  0.1946 -0.0670
  682MOL0     N94029   5.718   7.809   3.441 -0.1904 -0.0074 -0.5882
  682MOL0     N94030   5.726   7.755   3.558  0.6508 -0.2092  1.0093
  682MOL0     C94031   5.834   8.430   4.563  0.3296 -0.6996  0.3450
  682MOL0     C94032   5.807   8.518   4.665 -0.1199  0.4626  1.4300
  682MOL0     C94033   5.738   8.811   4.959 -0.6640 -0.4781  0.1520
  682MOL0     C94034   5.770   8.907   4.858  0.5402  0.7077  0.3319
  682MOL0     C94035   5.736   9.047   4.881  0.2844  0.3278  0.0065
  682MOL0     C94036   5.684   9.092   5.002 -0.6138  0.4863 -0.6805
  682MOL0     O94037   5.671   9.228   5.010  0.5771 -0.1730 -0.6720
  682MOL0     C94038   5.702   9.300   5.132  1.1681 -0.0464  0.2442
  682MOL0     C94039   5.679   9.446   5.121 -0.7965  0.6727  0.0415
  682MOL0     C94040   5.536   9.492   5.072  0.5301  0.6573 -0.2392
  682MOL0     C94041   5.527   9.632   5.011  0.9183  0.4586 -0.3128
  682MOL0     C94042   5.389   9.652   4.975  0.2110  0.0681 -0.2389
  682MOL0     C94043   5.269   9.685   4.961  0.7540  0.0307  1.8007
  682MOL0     C94044   5.659   8.992   5.096  0.1589  0.3061  0.9917
  682MOL0     C94045   5.684   8.855   5.081  0.2173  0.4695 -0.0180
  682MOL0     C94046   5.656   8.763   5.204  0.1982 -0.2933 -0.3138
  682MOL0     H94047   6.103   8.499   4.839 -0.7533  0.6683 -0.0184
  682MOL0     H94048   6.132   8.306   4.666  1.8868  2.9559  0.6666
  682MOL0     H94049   6.009   8.103   4.610  3.1240 -1.5042  0.0879
  682MOL0     H94050   6.138   8.135   4.511  0.1651 -0.7382 -2.7780
  682MOL0     H94051   6.019   7.917   4.446  0.8244 -0.6066 -1.0025
  682MOL0     H94052   5.873   8.016   4.443  0.6135 -1.5529  0.2458
  682MOL0     H94053   5.991   8.141   4.248  0.4728  0.5711  1.0984
  682MOL0     H94054   6.105   8.011   4.251 -0.2628 -0.4903 -0.6855
  682MOL0     H94055   5.931   7.834   4.227 -3.3623 -1.2761  1.1544
  682MOL0     H94056   5.805   7.952   4.245 -0.0773 -0.1811 -1.1952
  682MOL0     H94057   5.991   7.966   4.014 -0.6281  1.5423 -1.4932
  682MOL0     H94058   5.848   8.076   4.042  0.4933  0.3366 -2.3079
  682MOL0     H94059   5.838   7.780   4.002  2.7047  0.9249 -1.3706
  682MOL0     H94060   5.700   7.883   4.051 -0.0927  0.2675 -0.5239
  682MOL0     H94061   5.851   7.924   3.797  1.2049  0.1329  2.3600
  682MOL0     H94062   5.716   8.025   3.849  1.8804  0.6941 -0.6581
  682MOL0     H94063   5.703   7.722   3.807  0.2069  0.5917  2.6532
  682MOL0     H94064   5.562   7.831   3.822 -0.1583  2.1110 -0.9543
  682MOL0     H94065   5.561   8.027   3.635 -0.0371  0.6060 -0.5866
  682MOL0     H94066   5.560   7.904   3.268 -0.6552  0.4676  0.0133
  682MOL0     H94067   5.703   8.005   3.258 -1.0965 -0.3917 -0.8263
  682MOL0     H94068   5.573   8.202   3.372 -1.0374  0.4581 -0.3682
  682MOL0     H94069   5.529   8.146   3.205  0.5696 -1.7347 -0.5735
  682MOL0     H94070   5.393   8.045   3.462  0.7510 -3.3127 -2.6607
  682MOL0     H94071   5.344   8.194   3.369 -0.0321 -0.6802  1.0756
  682MOL0     H94072   5.321   8.021   3.173  0.5276  3.6517  0.6267
  682MOL0     H94073   5.348   7.898   3.301 -2.0996  0.8285  3.4697
  682MOL0     H94074   5.214   7.807   3.123  1.3250 -3.7702  0.9527
  682MOL0     H94075   5.012   7.531   3.025 -0.6193  0.5266 -1.6970
  682MOL0     H94076   5.183   7.583   3.084  0.1007 -0.6337  0.1165
  682MOL0     H94077   5.106   7.664   2.955  0.5162  0.3368  0.0221
  682MOL0     H94078   4.459   7.639   3.273  1.6587 -0.2423  1.9710
  682MOL0     H94079   4.253   7.509   3.209 -0.4355  0.2796  1.1976
  682MOL0     H94080   4.292   7.125   2.985 -0.9106 -0.7451  0.1341
  682MOL0     H94081   4.297   7.093   3.159  0.0583 -0.6843 -0.2226
  682MOL0     H94082   4.036   7.141   3.000  2.0734  2.0632  0.7578
  682MOL0     H94083   4.079   6.981   3.059  0.3127 -0.5719 -0.2811
  682MOL0     H94084   4.079   7.181   3.279 -0.1172 -0.3437  0.8994
  682MOL0     H94085   4.053   7.012   3.282 -0.1405  0.7950  2.4406
  682MOL0     H94086   3.828   7.025   3.185  1.8221 -1.1007  0.5579
  682MOL0     H94087   3.841   7.199   3.150 -2.3934  0.9640  1.9491
  682MOL0     H94088   3.821   7.069   3.424 -2.0122  0.2461  0.5167
  682MOL0     H94089   3.896   7.226   3.395  0.5902 -0.6917  3.5842
  682MOL0     H94090   3.630   7.124   3.326 -1.9491  1.7450  0.5026
  682MOL0     H94091   3.672   7.287   3.281  0.5055  0.4308  0.4436
  682MOL0     H94092   3.677   7.344   3.531  1.5990 -0.9625 -1.0466
  682MOL0     H94093   3.674   7.179   3.574  3.4463  0.8195 -0.7245
  682MOL0     H94094   3.434   7.304   3.413 -2.2589  0.7407  1.4770
  682MOL0     H94095   3.437   7.295   3.589  1.3518 -0.3079  1.0005
  682MOL0     H94096   4.491   7.187   3.060 -3.9004  0.4989  0.1166
  682MOL0     H94097   4.705   7.311   3.137 -1.0669 -1.1698 -2.2719
  682MOL0     H94098   4.776   7.802   3.347 -0.4821  2.0056  1.5694
  682MOL0     H94099   4.939   7.973   3.417 -0.2245  0.3338 -0.2272
  682MOL0     H94100   5.761   8.423   4.482 -0.7496  1.7281  1.0167
  682MOL0     H94101   5.717   8.577   4.661 -0.8784 -0.7049  0.8261
  682MOL0     H94102   5.809   8.864   4.766 -1.5827 -1.0935  0.2007
  682MOL0     H94103   5.746   9.127   4.808 -2.5972 -0.1289 -1.0191
  682MOL0     H94104   5.665   9.265   5.229  0.5627  0.4285  0.1938
  682MOL0     H94105   5.811   9.288   5.132  0.9793 -2.4566 -0.9628
  682MOL0     H94106   5.755   9.484   5.052 -1.4281 -0.2491 -1.2066
  682MOL0     H94107   5.706   9.494   5.215  2.1820 -0.8822  0.1034
  682MOL0     H94108   5.505   9.422   4.994  1.1371  1.2498 -1.0142
  682MOL0     H94109   5.468   9.493   5.158 -1.0859 -3.8008 -1.1580
  682MOL0     H94110   5.584   9.647   4.918  2.0843  1.4862  0.5364
  682MOL0     H94111   5.566   9.708   5.078  1.1336  0.5963 -0.5898
  682MOL0     H94112   5.170   9.725   4.947  0.9296  0.0000  0.2412
  682MOL0     H94113   5.597   9.020   5.180  2.1443  0.4145  2.4812
  682MOL0     H94114   5.709   8.794   5.294  0.0996  1.2483 -0.7603
  682MOL0     H94115   5.552   8.766   5.238 -0.3378 -2.6170 -1.4918
  682MOL0     H94116   5.667   8.660   5.170 -2.6524 -0.5144 -0.8359
  683MOL0     O94117   4.822   1.585   3.499 -0.2181  0.2746 -0.2700
  683MOL0     C94118   4.764   1.472   3.507  0.0977 -0.1852 -0.3438
  683MOL0     O94119   4.745   1.402   3.624  0.1211 -0.1637  0.3718
  683MOL0     C94120   4.794   1.454   3.738  0.2264 -0.3205 -0.0538
  683MOL0     C94121   4.928   1.435   3.775 -0.4837 -0.4595 -0.5571
  683MOL0     C94122   4.978   1.482   3.895 -0.8714 -0.1510  0.6512
  683MOL0     C94123   4.898   1.560   3.979  0.2129  0.6622 -0.0102
  683MOL0     O94124   4.951   1.600   4.094 -0.3597  0.4035  0.3211
  683MOL0     C94125   4.993   1.740   4.092  0.6676  0.5247 -0.6500
  683MOL0     C94126   4.881   1.837   4.128 -0.2610  0.5086  0.0381
  683MOL0     C94127   4.818   1.797   4.267 -0.0440  0.0817  0.3486
  683MOL0     C94128   4.679   1.857   4.271 -0.3036  0.1275 -0.2849
  683MOL0     C94129   4.631   1.853   4.415  0.4426  0.3532  0.6492
  683MOL0     C94130   4.643   1.717   4.490  0.1872 -0.7124  0.9530
  683MOL0     C94131   4.569   1.737   4.622 -0.7080  0.9473 -0.8747
  683MOL0     C94132   4.630   1.641   4.729  0.0072  0.2707  0.5614
  683MOL0     N94133   4.776   1.658   4.751  0.0288 -0.2442  0.3055
  683MOL0     C94134   4.837   1.754   4.822  0.4279  0.6953  0.1314
  683MOL0     C94135   4.969   1.720   4.809  0.1648 -0.1714  0.5747
  683MOL0     C94136   5.074   1.795   4.889 -0.6099 -0.1563 -0.1495
  683MOL0     C94137   5.183   1.847   4.801  0.3148  0.0586  0.2810
  683MOL0     C94138   5.277   1.926   4.886 -0.0803 -0.1924 -0.4014
  683MOL0     C94139   5.406   1.961   4.820  0.2418  0.1786  1.0796
  683MOL0     O94140   5.482   1.843   4.792  0.2874  0.0219 -0.3893
  683MOL0     C94141   5.606   1.849   4.737  0.8499 -0.9290  0.0135
  683MOL0     C94142   5.662   1.974   4.702 -0.4926  0.4082  0.6174
  683MOL0     C94143   5.774   1.977   4.608  0.2515 -1.0702 -0.0854
  683MOL0     C94144   5.812   2.114   4.558  0.4825  0.1325 -0.0556
  683MOL0     C94145   5.845   1.860   4.581 -0.4344  0.6512  0.1595
  683MOL0     C94146   5.971   1.856   4.497  0.3261  0.0497  0.1393
  683MOL0     O94147   6.026   1.972   4.460  0.5666  0.4670  0.3678
  683MOL0     C94148   6.143   1.988   4.397 -0.6863 -0.1876 -0.5328
  683MOL0     C94149   6.208   2.114   4.397  1.0566 -0.7259 -0.1310
  683MOL0     C94150   6.322   2.135   4.335  0.5792 -0.4445  0.7456
  683MOL0     C94151   6.389   2.031   4.267 -0.1128 -0.3275  0.4214
  683MOL0     O94152   6.496   2.042   4.190 -0.3137  0.1614  0.0752
  683MOL0     C94153   6.551   2.178   4.184 -0.4499 -0.6180  0.2462
  683MOL0     C94154   6.674   2.183   4.096 -0.0296 -0.8356  0.1951
  683MOL0     C94155   6.810   2.143   4.164  0.1200 -0.1840 -0.2534
  683MOL0     C94156   6.804   1.998   4.223  0.3259  0.2139  0.1423
  683MOL0     C94157   6.919   1.967   4.316 -0.6706  0.5040 -0.3497
  683MOL0     C94158   7.048   1.968   4.237 -0.1421  0.4869 -0.3234
  683MOL0     C94159   7.164   1.907   4.315 -0.2618  0.1788 -0.5852
  683MOL0     C94160   7.285   1.940   4.225  0.2294 -0.2183 -0.0109
  683MOL0    Cl94161   7.438   1.887   4.309 -0.1474 -0.2515  0.0515
  683MOL0     C94162   6.328   1.907   4.263 -0.0190 -0.1326 -0.5566
  683MOL0     C94163   6.202   1.890   4.322 -0.1323  0.0901 -1.1903
  683MOL0     O94164   6.021   1.748   4.473  1.0927 -0.4645 -0.2499
  683MOL0     C94165   5.798   1.735   4.630  0.6684 -0.7061 -0.1566
  683MOL0     C94166   5.673   1.739   4.700 -0.5312 -0.2132 -0.9805
  683MOL0     N94167   4.979   1.617   4.714 -0.2212 -0.6419 -0.8434
  683MOL0     N94168   4.863   1.576   4.693  0.2124  0.6583  0.2691
  683MOL0     C94169   4.761   1.576   3.948 -0.9052 -0.2158  0.5158
  683MOL0     C94170   4.716   1.531   3.824 -0.0200  0.0681 -0.1483
  683MOL0     C94171   4.705   1.411   3.388 -0.4427 -0.5487 -0.0499
  683MOL0     C94172   4.572   1.374   3.391 -0.0909  0.7506  0.5078
  683MOL0     C94173   4.511   1.328   3.277 -0.0861 -0.3082 -0.4392
  683MOL0     C94174   4.577   1.317   3.155  0.3618 -0.3884 -0.1065
  683MOL0     O94175   4.510   1.289   3.042 -0.1878  0.2667  0.5960
  683MOL0     C94176   4.409   1.382   3.009  0.0375 -0.0728 -0.5478
  683MOL0     C94177   4.279   1.309   2.967  0.5022  0.0525  0.1448
  683MOL0     C94178   4.148   1.392   2.980 -0.5979 -0.4449 -0.0242
  683MOL0     C94179   4.147   1.519   2.902 -0.0739 -0.3252 -0.1497
  683MOL0     C94180   4.013   1.587   2.911 -1.0205 -0.8242  0.1076
  683MOL0     C94181   3.900   1.633   2.911  0.3800 -0.6109 -0.3359
  683MOL0     C94182   4.706   1.357   3.149  0.3045  0.4251  0.2871
  683MOL0     C94183   4.776   1.400   3.261  0.2022 -1.1345 -0.1678
  683MOL0     C94184   4.930   1.420   3.253 -0.4206  0.2636  0.5644
  683MOL0     H94185   4.989   1.385   3.701  0.6081  1.3407 -0.9199
  683MOL0     H94186   5.086   1.477   3.895 -0.9131 -3.0081 -0.7603
  683MOL0     H94187   5.027   1.769   3.993 -0.4784 -1.2842 -1.6347
  683MOL0     H94188   5.070   1.751   4.169 -0.0634 -1.0270  0.3662
  683MOL0     H94189   4.938   1.930   4.125 -0.1551  0.4634 -3.2706
  683MOL0     H94190   4.800   1.846   4.055  0.8867  1.0055 -1.2160
  683MOL0     H94191   4.813   1.688   4.271  0.2939 -0.0745 -1.8373
  683MOL0     H94192   4.884   1.823   4.350  1.8021 -1.5801 -0.5143
  683MOL0     H94193   4.683   1.961   4.239 -2.2165  0.6663  1.1111
  683MOL0     H94194   4.622   1.796   4.200 -0.8202 -2.5925  2.2772
  683MOL0     H94195   4.525   1.877   4.424  0.2478  0.1297 -0.8429
  683MOL0     H94196   4.683   1.930   4.473  4.0184 -0.6754 -0.8930
  683MOL0     H94197   4.608   1.629   4.436  0.9210 -1.0254  0.9741
  683MOL0     H94198   4.752   1.714   4.502  0.5124 -1.0119 -1.4414
  683MOL0     H94199   4.463   1.723   4.598 -0.8025  3.3742 -2.1606
  683MOL0     H94200   4.592   1.837   4.658 -1.0306  0.7975 -0.2462
  683MOL0     H94201   4.580   1.650   4.826  1.7371  2.6985  1.3046
  683MOL0     H94202   4.619   1.537   4.696 -0.6722 -0.2377  2.2693
  683MOL0     H94203   4.792   1.828   4.887 -2.5844 -2.0871  1.4994
  683MOL0     H94204   5.098   1.720   4.965 -2.1607 -1.3737 -0.8039
  683MOL0     H94205   5.040   1.884   4.943 -1.8344  0.5408 -2.0021
  683MOL0     H94206   5.238   1.760   4.764  1.3969  0.2931  1.2495
  683MOL0     H94207   5.143   1.888   4.709  1.4660 -1.0683 -0.7728
  683MOL0     H94208   5.230   2.019   4.920 -4.2840 -2.4786  0.8134
  683MOL0     H94209   5.310   1.865   4.971  2.0552  0.9653 -0.3408
  683MOL0     H94210   5.395   2.009   4.722  1.6273 -4.5920 -1.7271
  683MOL0     H94211   5.458   2.035   4.881  0.0653  1.3908 -0.1702
  683MOL0     H94212   5.621   2.073   4.725  1.0652  1.4117 -0.7099
  683MOL0     H94213   5.825   2.114   4.450  2.8871 -1.5932  0.1468
  683MOL0     H94214   5.912   2.138   4.597  0.1651 -0.1439  0.9571
  683MOL0     H94215   5.743   2.191   4.594 -0.2743 -0.4934 -0.1584
  683MOL0     H94216   6.168   2.190   4.464 -0.1904 -1.2703 -0.2347
  683MOL0     H94217   6.361   2.236   4.343  0.9454 -0.6665  1.9342
  683MOL0     H94218   6.470   2.239   4.143  0.4585  0.8813  0.6046
  683MOL0     H94219   6.569   2.232   4.278 -3.2276  1.9443 -0.5491
  683MOL0     H94220   6.653   2.121   4.009  2.2590  1.6504 -2.3075
  683MOL0     H94221   6.690   2.287   4.066 -0.1813 -0.9509 -0.2830
  683MOL0     H94222   6.822   2.207   4.252  2.3960  0.8398 -1.2400
  683MOL0     H94223   6.893   2.153   4.094 -0.0376  1.4966 -0.2506
  683MOL0     H94224   6.796   1.923   4.144 -1.3977 -0.4764  0.9234
  683MOL0     H94225   6.715   1.979   4.284  0.7560 -2.5378  0.0472
  683MOL0     H94226   6.920   2.038   4.399 -0.7091  1.2901 -0.9960
  683MOL0     H94227   6.901   1.865   4.349  1.8937 -0.6202 -2.0850
  683MOL0     H94228   7.068   2.072   4.209  3.5759  0.4052  1.5370
  683MOL0     H94229   7.034   1.909   4.145  0.0789 -0.7953  0.4395
  683MOL0     H94230   7.142   1.799   4.315 -1.0485  0.2955 -2.5677
  683MOL0     H94231   7.173   1.953   4.413 -1.1835 -1.4431  0.3105
  683MOL0     H94232   7.295   2.044   4.195  0.0339 -0.1119  0.2875
  683MOL0     H94233   7.271   1.878   4.136 -0.9166  0.1403 -0.0958
  683MOL0     H94234   6.375   1.822   4.216 -0.0569 -1.0575  1.0004
  683MOL0     H94235   6.153   1.794   4.303  1.1835 -0.7825 -0.3054
  683MOL0     H94236   5.825   1.633   4.606  0.3850 -1.0267  0.8248
  683MOL0     H94237   5.623   1.646   4.722 -0.4816 -0.1047 -0.3924
  683MOL0     H94238   4.689   1.626   4.012 -1.4383  0.5693 -0.6488
  683MOL0     H94239   4.609   1.546   3.810 -0.2699 -2.3261 -1.3105
  683MOL0     H94240   4.528   1.371   3.490 -0.2818 -2.6398  0.4627
  683MOL0     H94241   4.416   1.281   3.296 -0.4542  1.0231  1.3243
  683MOL0     H94242   4.387   1.443   3.097 -0.9617  1.2968 -1.6982
  683MOL0     H94243   4.434   1.461   2.939  1.2646  0.9355  0.9635
  683MOL0     H94244   4.271   1.213   3.020 -0.5933 -0.1802 -0.4160
  683MOL0     H94245   4.290   1.277   2.863  1.1252  1.1586 -0.1412
  683MOL0     H94246   4.063   1.326   2.961 -0.7679 -1.1966  2.8758
  683MOL0     H94247   4.140   1.428   3.083 -4.0179  1.3107 -0.7779
  683MOL0     H94248   4.166   1.498   2.796  0.4927 -1.6886  0.2082
  683MOL0     H94249   4.226   1.585   2.938  0.1428 -0.8805  0.4175
  683MOL0     H94250   3.804   1.677   2.925  0.1809 -0.7625 -1.1922
  683MOL0     H94251   4.759   1.355   3.054 -1.7485 -4.3546 -1.0336
  683MOL0     H94252   4.977   1.324   3.275 -0.5747 -0.3075 -1.3783
  683MOL0     H94253   4.972   1.450   3.156 -0.3374 -2.7846 -0.4294
  683MOL0     H94254   4.966   1.498   3.321  2.7108  1.0685 -1.7743
  684MOL0     O94255   8.188   2.729   1.537  0.1083  0.2938 -0.8680
  684MOL0     C94256   8.186   2.777   1.424 -0.5163 -0.1731  0.1479
  684MOL0     O94257   8.301   2.837   1.369 -0.2612 -0.0167  0.2998
  684MOL0     C94258   8.430   2.816   1.406 -0.2812  1.1741 -0.2512
  684MOL0     C94259   8.526   2.878   1.325 -0.1381  0.6336  0.2603
  684MOL0     C94260   8.662   2.876   1.355  0.2052 -0.3012 -0.6998
  684MOL0     C94261   8.703   2.824   1.474  0.6695  0.3629  0.1449
  684MOL0     O94262   8.839   2.836   1.500 -0.1281 -0.0622 -0.4290
  684MOL0     C94263   8.859   2.915   1.621 -0.1514 -0.3737  0.0935
  684MOL0     C94264   9.007   2.932   1.637 -0.1009  0.1062 -0.0856
  684MOL0     C94265   9.082   2.801   1.656 -0.2263  0.1427 -0.2061
  684MOL0     C94266   9.235   2.813   1.673 -0.2736 -0.3424 -1.3168
  684MOL0     C94267   9.289   2.834   1.816  0.0719  0.7304 -0.2647
  684MOL0     C94268   9.434   2.879   1.813  0.1118 -0.3621 -0.6464
  684MOL0     C94269   9.496   2.910   1.958  0.1033  0.2181 -0.3551
  684MOL0     C94270   9.518   2.783   2.046 -0.1400 -0.4899  1.1228
  684MOL0     N94271   9.608   2.805   2.156 -0.2966 -0.0240 -0.3071
  684MOL0     C94272   9.659   2.924   2.203  0.1359 -0.1888  0.9645
  684MOL0     C94273   9.738   2.888   2.306 -0.1419 -0.2452  0.9081
  684MOL0     C94274   9.816   2.987   2.395 -0.1957 -0.4154  0.4152
  684MOL0     C94275   9.913   2.923   2.500  0.5261 -0.4685  0.2197
  684MOL0     C94276   9.996   3.037   2.571 -0.3666  0.1107  0.6833
  684MOL0     C94277  10.067   2.980   2.694 -0.2201  0.1367  0.0721
  684MOL0     O94278  10.162   3.075   2.750 -1.0761  0.1816  0.2704
  684MOL0     C94279  10.286   3.086   2.704  0.5466  0.5139  0.4823
  684MOL0     C94280  10.365   3.187   2.752  0.3234  0.3234  0.2493
  684MOL0     C94281  10.503   3.190   2.734  0.7206 -0.0028  0.1113
  684MOL0     C94282  10.581   3.294   2.812 -0.3962 -0.2006  0.4478
  684MOL0     C94283  10.566   3.092   2.646  0.3403  0.2216 -0.8108
  684MOL0     C94284  10.726   3.091   2.619 -0.0468 -0.2429 -0.5481
  684MOL0     O94285  10.765   2.999   2.529  0.0515  0.1315 -0.5541
  684MOL0     C94286  10.888   3.015   2.470 -0.8746 -0.4845  0.3592
  684MOL0     C94287  10.889   3.091   2.356 -0.0974 -0.4362 -0.0893
  684MOL0     C94288  11.008   3.124   2.300 -0.0466  0.0390  0.7587
  684MOL0     C94289  11.127   3.084   2.339 -0.4856  0.6427 -0.5766
  684MOL0     O94290  11.240   3.114   2.272 -0.4950  0.3713  0.0910
  684MOL0     C94291  11.363   3.059   2.312  1.1537 -0.0816  0.2914
  684MOL0     C94292  11.463   3.085   2.203  0.3001 -0.0181  0.5634
  684MOL0     C94293  11.597   3.029   2.254  0.6302  0.2920  0.2835
  684MOL0     C94294  11.712   3.072   2.171  0.4455 -0.6171 -0.8177
  684MOL0     C94295  11.849   3.014   2.212  0.1516  0.6129  0.9453
  684MOL0     C94296  11.904   3.033   2.357  0.1180  0.4372  0.7474
  684MOL0     C94297  11.941   3.176   2.386 -0.3205  0.1780 -0.4047
  684MOL0     C94298  12.049   3.184   2.496  0.2711 -1.0491  0.0742
  684MOL0    Cl94299  11.993   3.127   2.658 -0.3544 -0.1555  0.2852
  684MOL0     C94300  11.119   3.008   2.461 -0.8075 -0.6257  0.2384
  684MOL0     C94301  11.006   2.976   2.530  0.0923 -0.1110  0.4950
  684MOL0     O94302  10.804   3.154   2.690 -0.3080  0.2023 -0.3304
  684MOL0     C94303  10.482   3.011   2.574  0.0979 -0.2003 -0.0700
  684MOL0     C94304  10.347   3.010   2.600 -0.1619  0.0746 -0.5420
  684MOL0     N94305   9.742   2.751   2.312 -0.3284  0.2523 -0.1219
  684MOL0     N94306   9.669   2.702   2.223 -0.2246 -0.6727 -0.1873
  684MOL0     C94307   8.608   2.755   1.550 -0.1286  0.0242  0.3334
  684MOL0     C94308   8.476   2.744   1.514  0.1205  0.4867  1.3340
  684MOL0     C94309   8.055   2.789   1.355 -0.8665 -0.2726 -0.6166
  684MOL0     C94310   8.066   2.822   1.214  0.9812  0.5972 -0.1026
  684MOL0     C94311   7.955   2.820   1.134  0.3432 -0.4066 -0.4101
  684MOL0     C94312   7.832   2.779   1.180 -0.0942  0.8650  1.0532
  684MOL0     O94313   7.735   2.779   1.084  0.0155  0.0930  0.2517
  684MOL0     C94314   7.602   2.742   1.115 -0.3949  0.2468 -0.1060
  684MOL0     C94315   7.597   2.588   1.101 -0.0041  0.1956  0.0183
  684MOL0     C94316   7.464   2.531   1.128 -0.3316 -0.1696 -0.5982
  684MOL0     C94317   7.458   2.379   1.096 -0.2495  0.5401  0.6415
  684MOL0     C94318   7.539   2.299   1.197  0.4174 -0.1472 -0.0744
  684MOL0     C94319   7.595   2.233   1.283 -0.6546 -0.9108  0.0338
  684MOL0     C94320   7.823   2.737   1.315  0.2845  0.2143  0.8591
  684MOL0     C94321   7.928   2.756   1.404 -0.7626  0.2304  1.1250
  684MOL0     C94322   7.900   2.735   1.548  0.6406 -0.1959 -0.8653
  684MOL0     H94323   8.488   2.914   1.230  1.1138  2.6577  0.4795
  684MOL0     H94324   8.734   2.933   1.295  2.3039  0.1040  2.0241
  684MOL0     H94325   8.828   2.860   1.711 -0.1880 -0.2657  0.1475
  684MOL0     H94326   8.807   3.011   1.626 -2.0561 -1.1378 -2.6637
  684MOL0     H94327   9.042   2.986   1.549  0.3223 -0.5391 -0.3176
  684MOL0     H94328   9.019   2.997   1.724  1.5215 -1.4611  0.9348
  684MOL0     H94329   9.054   2.761   1.754  1.8409 -0.2427  0.2782
  684MOL0     H94330   9.062   2.729   1.576 -0.7754 -1.9991  1.7395
  684MOL0     H94331   9.290   2.726   1.634  1.4769 -0.6491  1.5486
  684MOL0     H94332   9.252   2.904   1.615 -4.5707  2.9197  1.8281
  684MOL0     H94333   9.283   2.753   1.889  5.1690  0.2793  0.0287
  684MOL0     H94334   9.229   2.910   1.867  0.4138  0.7990  0.0412
  684MOL0     H94335   9.494   2.809   1.754 -0.6094 -0.6188 -1.0884
  684MOL0     H94336   9.445   2.975   1.762  3.8044 -0.8148 -0.9623
  684MOL0     H94337   9.421   2.967   2.014 -1.4139 -1.9279 -0.0495
  684MOL0     H94338   9.585   2.969   1.934 -1.2766  2.4313 -0.3680
  684MOL0     H94339   9.419   2.757   2.086 -1.1075  1.5107  0.1995
  684MOL0     H94340   9.551   2.702   1.981 -0.8517 -1.3306  1.7881
  684MOL0     H94341   9.620   3.023   2.180 -2.9139 -1.6934 -1.0058
  684MOL0     H94342   9.742   3.042   2.454  0.8806  2.5080 -0.7602
  684MOL0     H94343   9.871   3.062   2.337 -0.5617 -0.0855  0.4905
  684MOL0     H94344   9.854   2.868   2.574 -1.1667  0.1730 -0.5965
  684MOL0     H94345   9.980   2.848   2.459  0.9980 -1.5294  2.7271
  684MOL0     H94346  10.069   3.070   2.496 -0.0533 -1.5707  0.1902
  684MOL0     H94347   9.933   3.122   2.597 -0.8083  0.6551 -1.8467
  684MOL0     H94348   9.997   2.949   2.773 -0.4202  1.7878  0.5690
  684MOL0     H94349  10.111   2.887   2.656 -0.7412 -0.2898  0.4798
  684MOL0     H94350  10.316   3.241   2.832 -0.7891 -3.4503  2.3813
  684MOL0     H94351  10.624   3.366   2.741  0.2069  1.0560  2.0406
  684MOL0     H94352  10.653   3.245   2.878 -2.4536 -1.8468  1.5869
  684MOL0     H94353  10.519   3.344   2.887  1.5742  1.3317  1.1190
  684MOL0     H94354  10.793   3.127   2.318  1.3480  2.5826 -1.2347
  684MOL0     H94355  10.993   3.185   2.211 -0.1671  2.0172  2.0789
  684MOL0     H94356  11.396   3.108   2.404  0.4244 -0.8556  0.9907
  684MOL0     H94357  11.348   2.952   2.333  6.1951 -1.2291 -0.5204
  684MOL0     H94358  11.435   3.034   2.110 -2.7687  0.0254  1.3441
  684MOL0     H94359  11.470   3.192   2.182  1.5608 -0.7391 -3.6893
  684MOL0     H94360  11.583   2.920   2.257 -1.7203  0.5693  1.2114
  684MOL0     H94361  11.617   3.063   2.356 -0.0525  0.5801  0.3211
  684MOL0     H94362  11.714   3.181   2.175 -0.6212 -0.6172  0.6567
  684MOL0     H94363  11.692   3.049   2.066 -1.3273 -2.1002 -0.2092
  684MOL0     H94364  11.844   2.905   2.206  1.1818  0.2079  4.8645
  684MOL0     H94365  11.920   3.054   2.138 -1.1324 -3.8171 -3.2539
  684MOL0     H94366  11.997   2.975   2.365  0.1318  0.1527 -1.0864
  684MOL0     H94367  11.827   2.995   2.425 -0.2853 -3.2398 -1.4977
  684MOL0     H94368  11.857   3.243   2.408 -0.9063 -0.6607 -0.0292
  684MOL0     H94369  11.994   3.217   2.299 -0.6899  0.4540 -0.5035
  684MOL0     H94370  12.070   3.291   2.509 -3.4595 -0.2725  0.9748
  684MOL0     H94371  12.139   3.136   2.457 -0.8094 -0.6893 -3.1607
  684MOL0     H94372  11.211   2.980   2.512 -0.8389 -2.0740 -0.4572
  684MOL0     H94373  11.012   2.930   2.628  3.1839 -2.3576 -0.5813
  684MOL0     H94374  10.533   2.951   2.500  3.2873  2.2258 -0.0493
  684MOL0     H94375  10.294   2.933   2.544 -0.6842  0.2949 -0.3609
  684MOL0     H94376   8.635   2.709   1.645 -0.6033  0.1723  0.5409
  684MOL0     H94377   8.413   2.683   1.579  0.2177  0.8908  1.8103
  684MOL0     H94378   8.155   2.846   1.156  1.3042 -0.1716  0.0634
  684MOL0     H94379   7.948   2.858   1.033 -0.2971 -0.5821 -0.4310
  684MOL0     H94380   7.566   2.764   1.217 -0.3891 -3.5669  0.8772
  684MOL0     H94381   7.532   2.794   1.049 -1.4635  0.2977  1.0158
  684MOL0     H94382   7.668   2.544   1.172  0.7225  1.9106  0.3964
  684MOL0     H94383   7.618   2.561   0.997  2.5641 -0.3679  0.6120
  684MOL0     H94384   7.446   2.552   1.234  1.5331  2.8023 -0.7645
  684MOL0     H94385   7.391   2.574   1.059 -0.0586 -0.5680 -1.1464
  684MOL0     H94386   7.490   2.367   0.992 -0.4041  1.6658  0.4593
  684MOL0     H94387   7.355   2.346   1.108  0.4346 -1.1676  2.4722
  684MOL0     H94388   7.656   2.175   1.349  0.0048  0.3110  0.5276
  684MOL0     H94389   7.738   2.694   1.367  1.0264 -2.5028  0.0175
  684MOL0     H94390   7.969   2.656   1.580  2.3032  1.0488 -1.2310
  684MOL0     H94391   7.913   2.822   1.613 -2.5910 -0.8769  0.8744
  684MOL0     H94392   7.798   2.711   1.576  1.2798 -1.5836  0.3837
  685MOL0     O94393   0.085   6.382   6.551  0.5424  0.3444 -0.8758
  685MOL0     C94394   0.007   6.300   6.596 -0.6005 -0.3481 -0.3264
  685MOL0     O94395   0.030   6.191   6.671  0.3137  0.2899 -0.1106
  685MOL0     C94396   0.164   6.174   6.700  0.1436 -0.2601  0.2958
  685MOL0     C94397   0.268   6.185   6.601 -0.7079 -0.1755  0.0830
  685MOL0     C94398   0.403   6.174   6.642  0.3283 -0.4847 -0.7263
  685MOL0     C94399   0.436   6.161   6.779 -0.2268  0.1848  0.5130
  685MOL0     O94400   0.561   6.149   6.832 -0.2902  0.1338 -0.0207
  685MOL0     C94401   0.679   6.214   6.775  0.8490 -0.0411  0.3792
  685MOL0     C94402   0.795   6.116   6.780  0.8189  0.1570 -0.3153
  685MOL0     C94403   0.928   6.189   6.777 -0.1854 -0.2866  0.6874
  685MOL0     C94404   1.048   6.096   6.791 -0.1865  1.0526  0.2690
  685MOL0     C94405   1.188   6.173   6.803 -0.2128  0.3357  0.6680
  685MOL0     C94406   1.302   6.100   6.743 -0.0963 -0.0054 -0.0208
  685MOL0     C94407   1.436   6.161   6.766 -0.5225 -0.2759  0.5668
  685MOL0     C94408   1.538   6.156   6.655  0.7509 -0.5341  0.2911
  685MOL0     N94409   1.673   6.181   6.699 -0.3973 -0.2042 -0.5433
  685MOL0     C94410   1.779   6.098   6.665 -0.1691  0.6824 -0.4198
  685MOL0     C94411   1.890   6.172   6.673  0.0689 -0.1673 -0.0264
  685MOL0     C94412   2.029   6.119   6.637  0.5256  0.8817 -0.1277
  685MOL0     C94413   2.136   6.195   6.706  0.1538 -0.5182 -0.2564
  685MOL0     C94414   2.277   6.154   6.682  0.3409 -0.5759 -0.4700
  685MOL0     C94415   2.372   6.260   6.744  0.0696  0.1823  0.2974
  685MOL0     O94416   2.488   6.181   6.791  0.9165  0.6174  0.0065
  685MOL0     C94417   2.615   6.241   6.783 -0.3143 -0.7579  0.8588
  685MOL0     C94418   2.637   6.382   6.789 -0.3021  0.0559 -0.1039
  685MOL0     C94419   2.770   6.435   6.784  0.9148 -0.7766 -0.1566
  685MOL0     C94420   2.785   6.580   6.775 -0.0900  0.3993  0.7905
  685MOL0     C94421   2.880   6.351   6.776  0.6872  1.7180  0.0327
  685MOL0     C94422   3.023   6.400   6.777 -0.4052  0.3311 -0.5191
  685MOL0     O94423   3.121   6.322   6.720  0.4350 -0.4340  0.3608
  685MOL0     C94424   3.255   6.354   6.722 -0.6339 -0.3257 -1.1560
  685MOL0     C94425   3.317   6.345   6.848 -0.0059 -0.0093 -0.4752
  685MOL0     C94426   3.456   6.345   6.868  0.4358  0.2510  0.1234
  685MOL0     C94427   3.542   6.376   6.760  0.6135  0.5493 -0.3595
  685MOL0     O94428   3.678   6.378   6.785  0.2110 -0.3127  0.6865
  685MOL0     C94429   3.763   6.340   6.676 -0.4335  0.4764  0.6100
  685MOL0     C94430   3.915   6.315   6.721  0.4565 -0.3702 -0.7009
  685MOL0     C94431   3.997   6.446   6.730  0.1633 -0.3435 -0.4412
  685MOL0     C94432   4.126   6.432   6.811 -0.1496  0.1765  0.5833
  685MOL0     C94433   4.199   6.569   6.814 -0.3273  0.0139 -0.0625
  685MOL0     C94434   4.342   6.556   6.861 -0.3450 -0.2467  0.3199
  685MOL0     C94435   4.404   6.697   6.860  1.1645 -0.4050  0.5493
  685MOL0     C94436   4.547   6.691   6.885 -0.2394  0.0541 -0.7621
  685MOL0    Cl94437   4.647   6.612   6.756  0.0546  0.0493  0.6167
  685MOL0     C94438   3.487   6.379   6.636  0.7103 -1.2808 -0.4354
  685MOL0     C94439   3.345   6.363   6.617 -0.4186  0.4483  0.9626
  685MOL0     O94440   3.052   6.496   6.852 -0.2492 -0.1477  0.5763
  685MOL0     C94441   2.853   6.208   6.760 -0.3620 -0.6209 -0.0751
  685MOL0     C94442   2.725   6.157   6.771 -0.2213 -0.1234  0.2773
  685MOL0     N94443   1.854   6.304   6.710 -0.1173 -0.3468 -0.6024
  685MOL0     N94444   1.728   6.307   6.720  0.1589  0.0268  0.2779
  685MOL0     C94445   0.327   6.153   6.878  0.7052  0.7160  0.7770
  685MOL0     C94446   0.197   6.151   6.829 -0.1545 -0.2712 -0.2936
  685MOL0     C94447  -0.139   6.325   6.589  0.2956 -0.4968 -0.0352
  685MOL0     C94448  -0.213   6.305   6.706 -1.0563  0.5135 -0.0888
  685MOL0     C94449  -0.357   6.305   6.709 -0.0614 -0.1331  0.1933
  685MOL0     C94450  -0.432   6.327   6.596  0.9537  0.2891  0.4797
  685MOL0     O94451  -0.570   6.309   6.605 -0.3384 -0.2004 -0.1667
  685MOL0     C94452  -0.651   6.311   6.489 -0.5332  0.9696  0.5489
  685MOL0     C94453  -0.651   6.176   6.418  0.2497 -0.1056  0.2922
  685MOL0     C94454  -0.748   6.080   6.460 -0.2396  0.2453  0.4615
  685MOL0     C94455  -0.758   5.964   6.362 -0.9114  0.0439  0.0586
  685MOL0     C94456  -0.853   5.863   6.415 -0.8748 -0.5440 -0.5761
  685MOL0     C94457  -0.940   5.788   6.460  0.2189  0.4217 -0.0411
  685MOL0     C94458  -0.359   6.343   6.473  0.1143 -0.3095  0.6700
  685MOL0     C94459  -0.215   6.351   6.472  0.1899  0.3451  0.0610
  685MOL0     C94460  -0.136   6.360   6.338 -0.3478  0.4267 -0.0050
  685MOL0     H94461   0.239   6.210   6.499 -4.8380 -0.1431  1.0869
  685MOL0     H94462   0.469   6.174   6.556  0.2645  0.5084 -0.7904
  685MOL0     H94463   0.699   6.297   6.842  0.1092  0.7397 -0.3369
  685MOL0     H94464   0.676   6.249   6.671  1.0219 -0.1019  0.3552
  685MOL0     H94465   0.791   6.057   6.872  0.8549  0.2416 -0.2587
  685MOL0     H94466   0.783   6.042   6.700  0.9990 -1.6331  1.2302
  685MOL0     H94467   0.939   6.244   6.683 -2.4788  0.5222  0.8167
  685MOL0     H94468   0.937   6.264   6.857  1.0141  0.2512  0.0668
  685MOL0     H94469   1.039   6.040   6.885  0.6467 -0.4206 -0.4935
  685MOL0     H94470   1.046   6.026   6.707 -0.6686 -0.1737  1.2698
  685MOL0     H94471   1.212   6.211   6.903  1.9586  0.0784  0.2958
  685MOL0     H94472   1.179   6.263   6.741 -0.3671 -0.9894 -1.3250
  685MOL0     H94473   1.295   5.999   6.783 -0.9100 -1.3238 -3.2005
  685MOL0     H94474   1.294   6.081   6.636  2.1504 -1.1216 -0.0577
  685MOL0     H94475   1.486   6.144   6.862 -0.2673  4.0213  1.4113
  685MOL0     H94476   1.410   6.267   6.776 -0.3457 -0.3864  2.8225
  685MOL0     H94477   1.524   6.056   6.613  5.4740 -1.6649  0.8577
  685MOL0     H94478   1.518   6.223   6.571 -0.9044 -0.3004  0.8268
  685MOL0     H94479   1.779   5.993   6.640 -4.0876  0.3749  0.2149
  685MOL0     H94480   2.048   6.134   6.530 -0.8823  0.5501 -0.4483
  685MOL0     H94481   2.051   6.017   6.667  0.8710  1.8314  3.2399
  685MOL0     H94482   2.135   6.294   6.659  0.9750 -0.3663  0.0223
  685MOL0     H94483   2.112   6.186   6.812 -0.9797 -2.8734 -0.6580
  685MOL0     H94484   2.290   6.056   6.728 -1.5254 -0.3395  0.6806
  685MOL0     H94485   2.295   6.138   6.575  4.1057 -0.9318  0.0826
  685MOL0     H94486   2.401   6.329   6.665 -1.7338 -2.2675 -2.7579
  685MOL0     H94487   2.327   6.308   6.831  1.5177 -0.7120  1.5965
  685MOL0     H94488   2.548   6.443   6.799 -1.0338 -1.2344  1.9906
  685MOL0     H94489   2.795   6.630   6.871 -2.1042  5.3648 -1.2404
  685MOL0     H94490   2.692   6.620   6.732 -1.1783 -0.8719  1.8629
  685MOL0     H94491   2.869   6.614   6.714  0.8689  1.6508  2.7127
  685MOL0     H94492   3.251   6.320   6.931  1.4556 -2.0571  0.1690
  685MOL0     H94493   3.494   6.323   6.967  0.3089 -0.4827  0.0205
  685MOL0     H94494   3.730   6.254   6.616  1.9395  0.9729 -1.6110
  685MOL0     H94495   3.757   6.426   6.609 -2.4770  1.6394  2.1882
  685MOL0     H94496   3.912   6.250   6.809 -0.1515 -2.7569 -2.3853
  685MOL0     H94497   3.963   6.262   6.639  2.2191 -0.9606  0.6702
  685MOL0     H94498   3.931   6.517   6.781  1.4571 -1.1313  2.5823
  685MOL0     H94499   4.017   6.492   6.633  0.9163  1.4520  0.5152
  685MOL0     H94500   4.192   6.354   6.773 -0.4876 -0.8108  1.9434
  685MOL0     H94501   4.110   6.395   6.913 -1.6626 -2.9554 -0.6640
  685MOL0     H94502   4.203   6.608   6.712 -1.3517 -0.0753 -0.1461
  685MOL0     H94503   4.146   6.638   6.881  1.2773  2.8526 -1.5398
  685MOL0     H94504   4.385   6.492   6.785 -0.0660 -1.1230  1.1928
  685MOL0     H94505   4.359   6.502   6.955  0.4209 -0.6066 -0.0243
  685MOL0     H94506   4.355   6.750   6.943 -0.6869  1.4069 -1.5609
  685MOL0     H94507   4.386   6.745   6.764  0.1753 -4.8672 -1.7740
  685MOL0     H94508   4.567   6.631   6.975 -1.0017  2.4254  1.1197
  685MOL0     H94509   4.580   6.794   6.899 -0.5573  0.0015  0.6170
  685MOL0     H94510   3.546   6.385   6.545 -2.0280 -2.1656 -2.4241
  685MOL0     H94511   3.309   6.369   6.515  3.1829 -3.2221 -0.7980
  685MOL0     H94512   2.941   6.145   6.744  0.2772 -0.1031  1.2923
  685MOL0     H94513   2.725   6.048   6.771 -1.1767 -0.1455 -0.7156
  685MOL0     H94514   0.360   6.131   6.979 -0.3915 -0.9074  0.8210
  685MOL0     H94515   0.120   6.132   6.904  0.4689  0.8909  0.6881
  685MOL0     H94516  -0.164   6.270   6.796 -1.1838 -1.6192 -0.8109
  685MOL0     H94517  -0.414   6.281   6.798  1.7639  0.2258  1.5220
  685MOL0     H94518  -0.752   6.344   6.516 -0.9275 -0.0255  0.3070
  685MOL0     H94519  -0.629   6.384   6.410  0.3970 -0.2510 -0.3514
  685MOL0     H94520  -0.552   6.130   6.424  0.6942  0.7861  0.0649
  685MOL0     H94521  -0.663   6.196   6.311  1.0031  1.9368  0.5390
  685MOL0     H94522  -0.715   6.058   6.562 -0.2021  1.1207  0.6492
  685MOL0     H94523  -0.853   6.108   6.475  0.1538  1.0657  1.9348
  685MOL0     H94524  -0.657   5.924   6.351  0.1288  1.6120  2.9649
  685MOL0     H94525  -0.796   6.007   6.268 -3.4691 -0.8506  0.5888
  685MOL0     H94526  -1.018   5.726   6.499  0.6078 -0.4714 -0.6357
  685MOL0     H94527  -0.403   6.356   6.375  0.5219 -0.5430  0.4543
  685MOL0     H94528  -0.191   6.409   6.258 -2.3994 -3.3553 -1.1463
  685MOL0     H94529  -0.037   6.406   6.343  0.3887 -1.1971  2.0675
  685MOL0     H94530  -0.129   6.258   6.298  1.4580  0.6414 -0.3353
  686MOL0     O94531   6.779   7.577   9.243  0.0070 -0.4609  0.0334
  686MOL0     C94532   6.792   7.485   9.168  0.0140  0.3401 -0.2212
  686MOL0     O94533   6.865   7.493   9.055 -0.6839 -0.1127 -0.0747
  686MOL0     C94534   6.951   7.608   9.037 -0.2650  0.1455 -0.4064
  686MOL0     C94535   6.952   7.687   8.929 -0.2771 -0.9628  0.2302
  686MOL0     C94536   7.054   7.788   8.918  0.4761 -0.7301 -0.2890
  686MOL0     C94537   7.160   7.805   9.018  0.2826 -0.0104  0.4556
  686MOL0     O94538   7.266   7.880   8.983  0.0112 -0.5035 -0.3836
  686MOL0     C94539   7.348   7.920   9.092 -0.6854  0.9467 -0.5385
  686MOL0     C94540   7.444   8.044   9.065 -0.2442  0.3949  0.8070
  686MOL0     C94541   7.547   8.083   9.172 -0.0289  0.2037  0.5302
  686MOL0     C94542   7.658   7.979   9.193  0.0557 -0.1324  0.1242
  686MOL0     C94543   7.764   8.023   9.299  0.4636 -0.3861  0.9647
  686MOL0     C94544   7.857   8.144   9.269 -0.8388 -0.6642 -0.3129
  686MOL0     C94545   7.967   8.168   9.377  0.6229 -0.3232 -0.8579
  686MOL0     C94546   7.901   8.243   9.495 -0.1725 -0.5365 -0.3618
  686MOL0     N94547   7.993   8.228   9.605  0.4171 -0.2343 -0.1203
  686MOL0     C94548   8.001   8.113   9.674  0.5122 -0.2634 -0.8463
  686MOL0     C94549   8.119   8.131   9.737  0.1239  0.2159  0.2359
  686MOL0     C94550   8.191   8.028   9.826 -0.7839 -0.1653  0.8517
  686MOL0     C94551   8.289   7.937   9.745  0.4513  0.1839  1.1721
  686MOL0     C94552   8.382   7.848   9.823  0.5542 -0.1241  0.7061
  686MOL0     C94553   8.505   7.913   9.885  1.0190 -0.3237  0.4206
  686MOL0     O94554   8.599   7.811   9.905 -0.4448 -0.0612  0.2191
  686MOL0     C94555   8.720   7.850   9.949  0.2183  0.2590  0.5489
  686MOL0     C94556   8.836   7.793   9.888  0.8055 -0.2447  0.3024
  686MOL0     C94557   8.965   7.843   9.910  0.0938  0.1030 -0.7054
  686MOL0     C94558   9.076   7.776   9.837 -0.4467 -0.4524 -0.2806
  686MOL0     C94559   8.979   7.952  10.004 -0.4841  0.0193  0.1926
  686MOL0     C94560   9.103   8.005  10.058 -0.6734 -0.0736  0.1595
  686MOL0     O94561   9.200   7.910  10.081  0.1408  0.1275 -0.2305
  686MOL0     C94562   9.317   7.955  10.142  1.3424 -0.3016  0.1352
  686MOL0     C94563   9.446   7.904  10.095  0.5238 -0.4739 -0.1965
  686MOL0     C94564   9.561   7.926  10.170  0.3216  0.0332  0.1170
  686MOL0     C94565   9.556   8.012  10.280 -0.3728 -0.1511 -0.2143
  686MOL0     O94566   9.667   8.049  10.357  0.7696 -0.5991 -0.3094
  686MOL0     C94567   9.715   7.945  10.444 -0.0267  0.5860  0.4186
  686MOL0     C94568   9.862   7.941  10.468 -0.6537  0.2538  0.0797
  686MOL0     C94569   9.939   7.960  10.339  0.1380 -0.1799  0.3959
  686MOL0     C94570  10.089   7.950  10.369 -0.5329  0.3573 -0.6239
  686MOL0     C94571  10.151   7.945  10.236  0.0534  0.8472  0.0067
  686MOL0     C94572  10.299   7.980  10.256  0.1323  0.5538 -0.4516
  686MOL0     C94573  10.386   7.936  10.148 -0.6185 -0.2696  0.2266
  686MOL0     C94574  10.532   7.947  10.197  0.2711 -0.1355  0.3950
  686MOL0    Cl94575  10.574   8.117  10.229 -0.1127 -0.1013  0.1309
  686MOL0     C94576   9.438   8.070  10.327 -0.8473 -0.2781  0.0902
  686MOL0     C94577   9.321   8.044  10.259  0.3098 -0.8665  0.2731
  686MOL0     O94578   9.111   8.125  10.074 -0.0352  0.7327  0.1175
  686MOL0     C94579   8.863   8.008  10.060 -0.9518 -0.2230 -0.1808
  686MOL0     C94580   8.741   7.957  10.039  0.1423 -0.2297 -0.0529
  686MOL0     N94581   8.178   8.252   9.708  0.2646  0.9223  0.2019
  686MOL0     N94582   8.101   8.308   9.621 -0.7208  0.1412 -0.0732
  686MOL0     C94583   7.160   7.710   9.122  0.9203  0.3205  0.6677
  686MOL0     C94584   7.055   7.616   9.131 -0.7040  0.2090 -0.2329
  686MOL0     C94585   6.708   7.370   9.189  0.7933  0.1268 -0.4714
  686MOL0     C94586   6.692   7.280   9.086  1.0729 -0.2040  0.1299
  686MOL0     C94587   6.620   7.158   9.096  0.2629 -0.7550  0.1691
  686MOL0     C94588   6.556   7.128   9.215  0.0668  0.8155  0.8892
  686MOL0     O94589   6.488   7.011   9.225 -0.6119  0.0589  0.1085
  686MOL0     C94590   6.410   6.981   9.341 -0.2233  0.5029 -0.3463
  686MOL0     C94591   6.499   6.948   9.459  0.1722  0.4373  0.1993
  686MOL0     C94592   6.419   6.897   9.572  0.6408  0.3321  0.0735
  686MOL0     C94593   6.497   6.891   9.706  0.6228  0.8218  0.5603
  686MOL0     C94594   6.587   6.769   9.714 -0.5958 -0.3667 -0.5666
  686MOL0     C94595   6.662   6.678   9.730 -0.1116  0.8920  0.5577
  686MOL0     C94596   6.565   7.219   9.323  0.7109 -0.3884  0.2112
  686MOL0     C94597   6.624   7.341   9.306 -0.2069 -0.0938 -0.0228
  686MOL0     C94598   6.609   7.444   9.419 -0.3550  0.5455 -0.1005
  686MOL0     H94599   6.871   7.677   8.857 -0.0808 -0.3282 -0.0876
  686MOL0     H94600   7.060   7.854   8.832  0.8054 -1.1047 -0.5579
  686MOL0     H94601   7.411   7.835   9.118 -1.2990  0.7961  0.5286
  686MOL0     H94602   7.286   7.938   9.181 -0.8751 -2.3039  0.1319
  686MOL0     H94603   7.491   8.023   8.969  0.6002  1.1093  1.0542
  686MOL0     H94604   7.378   8.131   9.053  1.9022  2.0618  0.5947
  686MOL0     H94605   7.582   8.183   9.149 -1.9855  0.7720 -0.1590
  686MOL0     H94606   7.504   8.086   9.273  0.7099  1.3629  0.8231
  686MOL0     H94607   7.624   7.884   9.235 -0.0915  0.0567  0.4359
  686MOL0     H94608   7.711   7.952   9.101  1.7972 -0.1208  1.0818
  686MOL0     H94609   7.822   7.932   9.320 -2.0981 -2.3146  0.1658
  686MOL0     H94610   7.705   8.044   9.389  0.3382  0.2329  0.7435
  686MOL0     H94611   7.906   8.133   9.172  0.1778  1.0861 -0.0403
  686MOL0     H94612   7.803   8.238   9.252  1.0378  0.3338 -1.1320
  686MOL0     H94613   8.050   8.229   9.338 -2.7998  4.7478 -1.1623
  686MOL0     H94614   8.006   8.070   9.406 -1.2834 -0.9071 -0.1817
  686MOL0     H94615   7.877   8.345   9.463 -1.0486 -1.5229 -3.1300
  686MOL0     H94616   7.800   8.203   9.508 -2.1255  3.5123 -1.4572
  686MOL0     H94617   7.943   8.022   9.667  0.1017 -0.1574  0.8339
  686MOL0     H94618   8.123   7.963   9.881 -0.0515  0.1058  2.1207
  686MOL0     H94619   8.248   8.084   9.900  0.5981 -0.2740 -0.0945
  686MOL0     H94620   8.229   7.880   9.674  0.4387  1.3096  0.2467
  686MOL0     H94621   8.348   8.003   9.681  1.6122 -3.1697 -1.5400
  686MOL0     H94622   8.326   7.789   9.895  0.8836 -0.1394  0.9522
  686MOL0     H94623   8.435   7.783   9.753  0.0683  1.0316 -0.7871
  686MOL0     H94624   8.548   7.999   9.833 -1.0065  1.2024  1.1358
  686MOL0     H94625   8.478   7.946   9.986 -0.5059  1.0057 -0.3779
  686MOL0     H94626   8.823   7.707   9.823 -2.4833  0.5612 -0.3237
  686MOL0     H94627   9.107   7.692   9.899 -0.9210 -0.8997 -0.6516
  686MOL0     H94628   9.165   7.835   9.809 -1.3492  1.9050  1.4734
  686MOL0     H94629   9.036   7.739   9.743 -2.5540  1.5639 -0.2801
  686MOL0     H94630   9.446   7.848  10.002  2.3131  1.8157 -1.6880
  686MOL0     H94631   9.651   7.886  10.126 -1.2921 -2.1369 -1.4387
  686MOL0     H94632   9.663   7.956  10.539  2.6002  2.5687  1.7259
  686MOL0     H94633   9.692   7.847  10.402  0.2062  0.8760 -0.4089
  686MOL0     H94634   9.897   8.024  10.529  1.6248  0.4510 -1.3796
  686MOL0     H94635   9.907   7.851  10.511  3.5157  1.5804 -1.0545
  686MOL0     H94636   9.935   8.064  10.305  0.7629 -1.0384 -2.5847
  686MOL0     H94637   9.901   7.889  10.266 -1.4846  0.3206  0.7007
  686MOL0     H94638  10.106   7.859  10.427 -2.9579 -1.4031 -2.4367
  686MOL0     H94639  10.132   8.031  10.429 -3.2131  1.8931 -0.6057
  686MOL0     H94640  10.143   7.851  10.180  1.7781  1.8135 -2.0257
  686MOL0     H94641  10.107   8.025  10.176  1.2789  1.7615  0.3054
  686MOL0     H94642  10.330   7.931  10.348 -2.1687  0.5056  0.3576
  686MOL0     H94643  10.306   8.089  10.254  0.5891  0.5398  0.1676
  686MOL0     H94644  10.373   7.992  10.055  1.0675 -1.8143 -1.0357
  686MOL0     H94645  10.362   7.830  10.134 -1.7569 -0.0974  0.7620
  686MOL0     H94646  10.605   7.913  10.123  2.2955 -1.1709  2.7338
  686MOL0     H94647  10.548   7.874  10.277  1.3604  0.5805  0.8562
  686MOL0     H94648   9.435   8.139  10.411 -3.1726  0.7027 -0.7204
  686MOL0     H94649   9.223   8.081  10.287 -1.2456 -2.1410 -2.9032
  686MOL0     H94650   8.882   8.085  10.133 -1.4055  0.0175 -0.3166
  686MOL0     H94651   8.657   8.005  10.088  0.5918 -0.6988  1.1970
  686MOL0     H94652   7.230   7.723   9.204 -1.1118  4.7606  1.9951
  686MOL0     H94653   7.069   7.537   9.205 -0.6350 -0.1651 -0.6424
  686MOL0     H94654   6.755   7.292   8.998 -0.4961 -0.7514 -1.1057
  686MOL0     H94655   6.607   7.098   9.006 -0.4342  0.9007 -0.8699
  686MOL0     H94656   6.336   7.057   9.367  1.0745  1.0749  1.9258
  686MOL0     H94657   6.354   6.889   9.321 -0.4805  0.0294  2.2191
  686MOL0     H94658   6.556   7.038   9.484 -0.6421  1.6907 -2.1518
  686MOL0     H94659   6.582   6.884   9.427 -1.0953  0.1088 -2.7905
  686MOL0     H94660   6.327   6.955   9.581  0.1664 -0.4815  0.6122
  686MOL0     H94661   6.377   6.800   9.544 -2.0416  1.5957 -0.5770
  686MOL0     H94662   6.429   6.883   9.790  0.1264  2.3590  0.3445
  686MOL0     H94663   6.551   6.986   9.717 -1.7584  2.3620 -0.1126
  686MOL0     H94664   6.712   6.583   9.735 -2.5533 -0.4405  0.9666
  686MOL0     H94665   6.508   7.215   9.415  2.0493  0.0623  1.1051
  686MOL0     H94666   6.560   7.409   9.510  1.9910  2.4349  2.0283
  686MOL0     H94667   6.705   7.489   9.447 -1.5778  4.7670 -1.8630
  686MOL0     H94668   6.552   7.533   9.390  1.6066  2.2458  0.9895
  687MOL0     O94669   4.075  10.308   8.362 -0.3937  0.1309  0.0837
  687MOL0     C94670   3.986  10.307   8.450 -0.4544 -0.6111 -0.2269
  687MOL0     O94671   3.981  10.381   8.564 -0.2879 -0.0848 -0.0433
  687MOL0     C94672   4.105  10.414   8.614  0.1537 -0.2693  0.6548
  687MOL0     C94673   4.154  10.322   8.705  0.3610  0.3102  0.3262
  687MOL0     C94674   4.289  10.341   8.750  0.1511  0.1845  0.0923
  687MOL0     C94675   4.368  10.446   8.702 -0.5472 -0.0520 -0.2846
  687MOL0     O94676   4.490  10.471   8.747 -0.4197 -0.5235  0.2524
  687MOL0     C94677   4.504  10.521   8.879  0.7095  0.1704  0.3321
  687MOL0     C94678   4.645  10.587   8.900  1.3890 -0.0516  1.1325
  687MOL0     C94679   4.766  10.485   8.883  1.2435 -0.6074  0.3841
  687MOL0     C94680   4.903  10.542   8.865  0.8572  0.3609  0.5255
  687MOL0     C94681   5.002  10.443   8.797  0.0684 -0.7928 -0.1347
  687MOL0     C94682   5.147  10.501   8.774  0.0788  0.4148  0.2080
  687MOL0     C94683   5.233  10.386   8.712  0.1746  0.4272  0.2432
  687MOL0     C94684   5.368  10.429   8.658  0.3508  0.3485  0.7029
  687MOL0     N94685   5.459  10.489   8.752  0.3609 -0.0724 -0.2118
  687MOL0     C94686   5.483  10.628   8.758 -0.2478  0.1433 -0.0134
  687MOL0     C94687   5.572  10.640   8.856  0.0222  0.0385 -0.6030
  687MOL0     C94688   5.627  10.774   8.903  0.0081  1.0623 -0.0330
  687MOL0     C94689   5.587  10.813   9.048 -0.2512  0.2962  0.1122
  687MOL0     C94690   5.620  10.958   9.077 -0.6893  0.1548 -0.0496
  687MOL0     C94691   5.764  10.988   9.114  0.1654 -0.6515 -1.4691
  687MOL0     O94692   5.790  11.129   9.104  0.1348 -0.0833  0.1312
  687MOL0     C94693   5.917  11.162   9.128  0.3934  0.1514 -0.2560
  687MOL0     C94694   5.991  11.223   9.027  0.0191  0.3036 -0.2334
  687MOL0     C94695   6.120  11.270   9.046 -0.6891 -0.6404  0.3768
  687MOL0     C94696   6.185  11.331   8.922  0.1197  0.3053 -0.5348
  687MOL0     C94697   6.179  11.254   9.173  0.0766 -0.8510 -0.6772
  687MOL0     C94698   6.312  11.304   9.216 -0.1356  0.8519  0.5016
  687MOL0     O94699   6.341  11.303   9.348  0.1194 -0.0324 -0.3288
  687MOL0     C94700   6.469  11.288   9.391 -0.8836  0.5831  0.5854
  687MOL0     C94701   6.566  11.394   9.397 -0.4261 -0.4470 -0.9351
  687MOL0     C94702   6.698  11.372   9.449 -0.8301 -0.1847 -0.4644
  687MOL0     C94703   6.734  11.238   9.482 -0.1528 -0.5071 -0.1900
  687MOL0     O94704   6.867  11.204   9.517  0.1469 -0.3477  0.0207
  687MOL0     C94705   6.973  11.303   9.525  0.3541  0.6887  0.1489
  687MOL0     C94706   7.107  11.230   9.549 -0.4792 -0.1747  0.3773
  687MOL0     C94707   7.156  11.170   9.422 -0.0674  0.1156  0.4483
  687MOL0     C94708   7.306  11.125   9.420  0.7332 -0.7160 -0.0476
  687MOL0     C94709   7.351  11.047   9.543  0.7224  1.7149 -0.8540
  687MOL0     C94710   7.494  10.989   9.534 -0.7734 -0.0419 -0.0683
  687MOL0     C94711   7.601  11.094   9.510 -0.3133 -0.1217 -0.3690
  687MOL0     C94712   7.734  11.030   9.545 -0.3835 -0.0135 -0.2444
  687MOL0    Cl94713   7.863  11.141   9.491  0.2068  0.0117 -0.0196
  687MOL0     C94714   6.642  11.133   9.469 -0.1860 -0.4499 -0.7937
  687MOL0     C94715   6.513  11.158   9.431  0.5270 -0.6418 -0.2066
  687MOL0     O94716   6.392  11.326   9.126  0.6460  0.2158 -0.8833
  687MOL0     C94717   6.112  11.183   9.275 -0.5078 -0.1200  0.4849
  687MOL0     C94718   5.981  11.132   9.251 -0.1326  0.1007 -0.1873
  687MOL0     N94719   5.603  10.522   8.917  0.6275  0.1578  0.1359
  687MOL0     N94720   5.540  10.433   8.846  0.1253  0.5448 -0.2149
  687MOL0     C94721   4.320  10.537   8.602 -0.0701  0.2783  0.1107
  687MOL0     C94722   4.186  10.518   8.561 -0.6571 -0.4043  0.1619
  687MOL0     C94723   3.866  10.225   8.446  0.5008  0.4815 -0.3520
  687MOL0     C94724   3.794  10.192   8.567 -0.7738  1.0122  0.9085
  687MOL0     C94725   3.701  10.089   8.562  0.4286 -0.6275 -0.5807
  687MOL0     C94726   3.680  10.005   8.456 -0.1261  0.6720  0.0649
  687MOL0     O94727   3.602   9.896   8.470  0.6864  0.1133 -0.4540
  687MOL0     C94728   3.577   9.804   8.362  0.9032 -0.2968 -0.8509
  687MOL0     C94729   3.510   9.681   8.427  1.2202  0.2474 -1.5338
  687MOL0     C94730   3.375   9.727   8.486 -0.3720  0.4599 -0.7593
  687MOL0     C94731   3.312   9.611   8.564 -0.1078  0.0286 -0.0240
  687MOL0     C94732   3.179   9.636   8.623  0.6273  0.0706 -0.0904
  687MOL0     C94733   3.063   9.655   8.657 -0.6531 -0.6119  0.2995
  687MOL0     C94734   3.747  10.033   8.340  1.0822  0.8884 -0.3936
  687MOL0     C94735   3.823  10.151   8.332  0.3925 -0.3498  0.1247
  687MOL0     C94736   3.867  10.190   8.198 -0.2466  0.0884  0.9214
  687MOL0     H94737   4.087  10.248   8.747  1.1667 -0.9634 -0.5433
  687MOL0     H94738   4.325  10.265   8.819 -1.4592  0.5049  1.3448
  687MOL0     H94739   4.489  10.445   8.956  0.7839  0.7479  0.9255
  687MOL0     H94740   4.419  10.587   8.900 -0.2710 -0.4762 -1.3839
  687MOL0     H94741   4.663  10.670   8.831 -0.1441  0.6518  1.5385
  687MOL0     H94742   4.646  10.635   8.997 -0.6696  2.0129  0.2248
  687MOL0     H94743   4.756  10.415   8.967 -0.5340  2.0327  2.5601
  687MOL0     H94744   4.746  10.424   8.794 -0.1002  0.4481 -0.0732
  687MOL0     H94745   4.898  10.628   8.799  2.5464 -0.3273 -0.5858
  687MOL0     H94746   4.947  10.593   8.952 -1.3149  4.1498 -0.3889
  687MOL0     H94747   4.949  10.407   8.709  1.6716 -0.9183 -1.0811
  687MOL0     H94748   5.020  10.353   8.856  1.1514  0.5483  1.7214
  687MOL0     H94749   5.144  10.590   8.710 -0.7784  1.8640  2.1587
  687MOL0     H94750   5.192  10.533   8.868 -0.6940  1.1395  0.3433
  687MOL0     H94751   5.169  10.347   8.632  1.3406  2.4733 -1.8433
  687MOL0     H94752   5.252  10.311   8.788  1.2534 -0.9414 -1.3213
  687MOL0     H94753   5.414  10.337   8.621  0.1182 -0.3183  2.0169
  687MOL0     H94754   5.355  10.493   8.569  2.9187  1.4349  1.0170
  687MOL0     H94755   5.435  10.707   8.700 -0.1816  0.7250  0.7148
  687MOL0     H94756   5.594  10.851   8.832  1.8323 -0.2818 -2.4970
  687MOL0     H94757   5.736  10.777   8.897  0.1999  0.6023  2.2782
  687MOL0     H94758   5.479  10.803   9.053 -0.3369  1.4325  1.1331
  687MOL0     H94759   5.634  10.747   9.122 -0.5636  0.1978  0.2227
  687MOL0     H94760   5.594  11.010   8.984  1.8491 -0.2909 -1.0876
  687MOL0     H94761   5.545  11.002   9.143 -0.7740 -0.3450  0.1850
  687MOL0     H94762   5.773  10.958   9.219 -1.0889 -0.4320 -1.2942
  687MOL0     H94763   5.842  10.942   9.052  3.6035  2.6890 -0.0226
  687MOL0     H94764   5.938  11.234   8.933  2.7886 -0.2255 -1.9680
  687MOL0     H94765   6.286  11.291   8.910 -0.5188 -1.0774 -1.5445
  687MOL0     H94766   6.206  11.436   8.942  0.0408  0.0659  0.9571
  687MOL0     H94767   6.121  11.319   8.835 -2.7712  0.9865  1.3679
  687MOL0     H94768   6.544  11.494   9.359  1.7311  0.2800 -0.4517
  687MOL0     H94769   6.756  11.463   9.451 -1.6878  0.4074 -1.4516
  687MOL0     H94770   6.982  11.370   9.439 -1.1597  0.0403 -0.5422
  687MOL0     H94771   6.959  11.370   9.611  1.6907 -0.3047  1.1875
  687MOL0     H94772   7.176  11.306   9.587 -0.2528 -0.3592  0.3366
  687MOL0     H94773   7.099  11.152   9.624 -2.9169 -0.1489  0.2118
  687MOL0     H94774   7.146  11.244   9.342  3.6389 -1.0828 -1.3375
  687MOL0     H94775   7.093  11.082   9.407  0.6657 -0.4796  0.8581
  687MOL0     H94776   7.371  11.213   9.411 -0.0986  0.2522  2.5095
  687MOL0     H94777   7.328  11.066   9.331  0.7063 -2.8938  1.3387
  687MOL0     H94778   7.348  11.107   9.634 -0.1695 -1.9348  1.7771
  687MOL0     H94779   7.290  10.960   9.570  1.9045  1.4455  1.1724
  687MOL0     H94780   7.508  10.902   9.468  1.8944 -0.0337  0.3390
  687MOL0     H94781   7.522  10.943   9.630 -0.6405 -2.0393 -1.0199
  687MOL0     H94782   7.583  11.183   9.571  0.4676 -0.2169  0.0171
  687MOL0     H94783   7.590  11.119   9.404 -1.4822  1.7497  0.1517
  687MOL0     H94784   7.747  10.932   9.499 -1.7072 -0.7159  0.8121
  687MOL0     H94785   7.736  11.025   9.655 -3.2135  3.4117  0.1382
  687MOL0     H94786   6.675  11.031   9.479 -0.5414 -0.7101 -2.0325
  687MOL0     H94787   6.444  11.075   9.437  1.3036 -1.3827 -1.1596
  687MOL0     H94788   6.157  11.165   9.372 -0.4892  0.6674  0.6285
  687MOL0     H94789   5.926  11.082   9.330 -1.3871  2.6290  0.6542
  687MOL0     H94790   4.378  10.617   8.556  0.3700  0.1100  0.3615
  687MOL0     H94791   4.148  10.581   8.482  2.3659 -0.4827 -1.5000
  687MOL0     H94792   3.818  10.230   8.666 -0.4147  2.4482  0.2947
  687MOL0     H94793   3.649  10.066   8.655 -0.6737  1.6883 -0.5711
  687MOL0     H94794   3.507   9.853   8.293  1.0246  4.3951  1.9154
  687MOL0     H94795   3.672   9.768   8.322  0.9126 -2.0307  0.6068
  687MOL0     H94796   3.582   9.654   8.505 -2.0189 -0.5176  1.4593
  687MOL0     H94797   3.501   9.589   8.369 -0.0042 -1.4293  1.1109
  687MOL0     H94798   3.380   9.809   8.559  0.3367 -0.4336  0.2175
  687MOL0     H94799   3.308   9.763   8.408  0.6302  1.7224 -1.0930
  687MOL0     H94800   3.384   9.591   8.644  1.7648  3.6430 -0.5711
  687MOL0     H94801   3.304   9.528   8.494 -0.1146  0.5885 -0.6995
  687MOL0     H94802   2.969   9.670   8.705 -0.1350 -0.4279  1.2985
  687MOL0     H94803   3.732   9.975   8.249 -2.0320 -1.2948  1.3281
  687MOL0     H94804   3.854  10.297   8.181  1.3964 -0.0662 -2.0395
  687MOL0     H94805   3.975  10.174   8.196 -0.0794  0.9346 -1.9930
  687MOL0     H94806   3.821  10.132   8.117  0.3873  2.2795 -1.1370
  688MOL0     O94807   3.245   3.017   3.974 -0.3342  0.2074 -0.3656
  688MOL0     C94808   3.219   3.005   3.855  0.5575  1.0827 -0.3405
  688MOL0     O94809   3.289   2.928   3.762 -0.0239 -0.0407 -0.2904
  688MOL0     C94810   3.411   2.888   3.810  0.5401 -0.2277  0.1483
  688MOL0     C94811   3.421   2.778   3.894 -0.2470 -0.4338 -0.0437
  688MOL0     C94812   3.543   2.749   3.961 -0.6889  0.4004 -0.5109
  688MOL0     C94813   3.658   2.823   3.927  0.3337 -0.3594 -0.8227
  688MOL0     O94814   3.781   2.777   3.975 -0.0096 -0.0941  0.3619
  688MOL0     C94815   3.880   2.874   3.983 -0.6677  0.1077  0.0142
  688MOL0     C94816   3.998   2.807   4.058 -0.9963 -0.7151  0.0941
  688MOL0     C94817   4.103   2.915   4.056  0.1258 -0.1065 -0.8839
  688MOL0     C94818   4.238   2.856   4.116  0.2482  0.2156  0.6604
  688MOL0     C94819   4.338   2.957   4.153 -0.4196 -0.1575 -0.8933
  688MOL0     C94820   4.300   3.052   4.273 -0.6355 -0.4672 -0.6746
  688MOL0     C94821   4.410   3.159   4.290  0.0068  0.9145  0.8120
  688MOL0     C94822   4.416   3.221   4.434 -0.4223  0.4742  0.3184
  688MOL0     N94823   4.506   3.339   4.447 -0.2946  0.4827  0.2006
  688MOL0     C94824   4.637   3.334   4.494 -1.0866  0.7895  0.5008
  688MOL0     C94825   4.687   3.459   4.496  0.3085  0.0021  0.5927
  688MOL0     C94826   4.829   3.513   4.534 -0.0016 -0.2204  1.0683
  688MOL0     C94827   4.920   3.517   4.411 -0.1645  0.5364  0.4800
  688MOL0     C94828   4.945   3.391   4.336 -0.0419  0.0759 -0.8498
  688MOL0     C94829   5.060   3.401   4.228  0.8223 -0.4721  0.2940
  688MOL0     O94830   5.036   3.492   4.121  0.4642  0.3171  0.7527
  688MOL0     C94831   5.135   3.516   4.029 -0.0574  0.5939  0.0406
  688MOL0     C94832   5.231   3.418   4.001  0.1868  0.3756 -0.6211
  688MOL0     C94833   5.336   3.445   3.903  0.9990  0.9187  0.0466
  688MOL0     C94834   5.434   3.325   3.897  0.2502 -0.0811  0.8309
  688MOL0     C94835   5.324   3.563   3.819  0.2546 -0.3616 -0.4085
  688MOL0     C94836   5.413   3.593   3.711  0.0744 -0.1910  0.3185
  688MOL0     O94837   5.434   3.722   3.679 -0.2947  0.6531 -0.0109
  688MOL0     C94838   5.523   3.755   3.576 -0.1963  0.5937 -0.3310
  688MOL0     C94839   5.485   3.866   3.500  0.2296  0.4883  1.3409
  688MOL0     C94840   5.564   3.925   3.407  0.1487 -0.1586  0.3621
  688MOL0     C94841   5.692   3.873   3.388  0.6185  0.8134  0.1698
  688MOL0     O94842   5.765   3.936   3.291 -0.1763  0.0329 -0.5532
  688MOL0     C94843   5.890   3.892   3.249 -0.7419 -0.5913 -0.6237
  688MOL0     C94844   5.932   3.962   3.121 -0.4266 -0.2948  0.3729
  688MOL0     C94845   6.081   3.941   3.093  0.1901 -0.0849  0.2490
  688MOL0     C94846   6.133   4.021   2.973  0.3358  0.0099 -0.0050
  688MOL0     C94847   6.231   3.956   2.878 -0.9590  0.6481 -0.0619
  688MOL0     C94848   6.363   3.912   2.952  0.5236 -0.2503  0.2031
  688MOL0     C94849   6.445   4.033   2.986 -0.9595 -0.1760 -0.3691
  688MOL0     C94850   6.591   4.009   2.995 -0.6524 -0.0381  0.2437
  688MOL0    Cl94851   6.619   3.889   3.117  0.0677 -0.1737  0.0904
  688MOL0     C94852   5.736   3.756   3.456  0.7434 -0.2275  0.3292
  688MOL0     C94853   5.651   3.693   3.551  0.0773 -0.8016 -0.0929
  688MOL0     O94854   5.457   3.494   3.653 -0.6419  0.4929 -0.4532
  688MOL0     C94855   5.223   3.660   3.855  0.2946  0.1301  0.2217
  688MOL0     C94856   5.130   3.635   3.954  1.1401  0.9166  0.0550
  688MOL0     N94857   4.576   3.541   4.461 -0.2670  0.2766  0.7399
  688MOL0     N94858   4.471   3.473   4.430 -0.7054  0.0569 -0.2913
  688MOL0     C94859   3.649   2.931   3.833 -0.2410  0.2244 -0.2653
  688MOL0     C94860   3.525   2.961   3.788 -1.1173 -0.1545 -0.5466
  688MOL0     C94861   3.095   3.074   3.802 -0.0888  0.2412  0.0648
  688MOL0     C94862   3.080   3.070   3.663  0.1969  0.1978  0.4169
  688MOL0     C94863   2.971   3.127   3.603  0.1135  0.0469 -0.5185
  688MOL0     C94864   2.878   3.203   3.678 -0.5460 -0.2262  0.3512
  688MOL0     O94865   2.772   3.262   3.624 -0.0205  0.9762 -0.2146
  688MOL0     C94866   2.779   3.404   3.595  1.1494  0.1181 -1.0210
  688MOL0     C94867   2.638   3.463   3.632 -0.9720  0.1433 -0.0723
  688MOL0     C94868   2.536   3.440   3.521 -0.9304  0.5415 -0.2364
  688MOL0     C94869   2.392   3.471   3.560 -0.6181  0.1236  0.2284
  688MOL0     C94870   2.372   3.613   3.597  0.5954  0.7121  0.7605
  688MOL0     C94871   2.341   3.724   3.614  0.3764 -0.2514 -0.0631
  688MOL0     C94872   2.884   3.210   3.811  0.5301  0.1496 -0.3106
  688MOL0     C94873   3.002   3.157   3.879 -0.1319  0.1729 -0.6136
  688MOL0     C94874   3.021   3.184   4.035  0.3782  0.3488 -0.7664
  688MOL0     H94875   3.334   2.714   3.909 -0.3074  0.2665  3.3671
  688MOL0     H94876   3.545   2.650   4.007  1.1403 -0.9595 -3.2489
  688MOL0     H94877   3.846   2.951   4.052 -0.1001  0.8216 -0.4928
  688MOL0     H94878   3.919   2.914   3.889 -1.5939 -1.3314 -1.0408
  688MOL0     H94879   3.969   2.773   4.157  1.6712 -3.3169  0.1042
  688MOL0     H94880   4.031   2.724   3.995  0.8817 -0.4883  0.7195
  688MOL0     H94881   4.123   2.963   3.960  1.5824 -1.0548 -1.0819
  688MOL0     H94882   4.073   2.990   4.131  0.4780 -0.5013 -0.3432
  688MOL0     H94883   4.211   2.790   4.199 -3.3398 -1.3722 -1.4997
  688MOL0     H94884   4.282   2.790   4.040  2.6307  2.0459  0.3434
  688MOL0     H94885   4.345   3.017   4.062 -0.7848  0.8653 -0.2675
  688MOL0     H94886   4.431   2.911   4.186 -1.0132 -0.8630 -0.1540
  688MOL0     H94887   4.196   3.086   4.267 -0.6171 -0.5243 -1.4014
  688MOL0     H94888   4.309   2.995   4.366  0.3811 -1.2968 -1.2556
  688MOL0     H94889   4.391   3.232   4.211 -1.9948  0.2367  0.6117
  688MOL0     H94890   4.506   3.113   4.266 -1.3402 -1.7428  0.0514
  688MOL0     H94891   4.321   3.250   4.480 -0.0653 -2.8366  3.5872
  688MOL0     H94892   4.460   3.139   4.491 -0.6597 -2.1551 -2.9493
  688MOL0     H94893   4.706   3.253   4.517  0.4661  2.2477  1.1773
  688MOL0     H94894   4.884   3.441   4.595 -0.8807 -1.3055  0.6081
  688MOL0     H94895   4.821   3.604   4.594 -1.6934 -1.3293  2.6602
  688MOL0     H94896   4.892   3.600   4.345 -1.8871 -1.7566 -1.8724
  688MOL0     H94897   5.019   3.548   4.446 -0.4430  0.2652  1.5412
  688MOL0     H94898   4.973   3.322   4.416  0.2462 -0.2218 -1.2034
  688MOL0     H94899   4.851   3.360   4.290 -1.4466  1.1236  1.1852
  688MOL0     H94900   5.159   3.411   4.275 -0.0959 -0.9107  2.4691
  688MOL0     H94901   5.054   3.304   4.177 -0.7148 -0.6389  0.7336
  688MOL0     H94902   5.226   3.325   4.057  2.4863 -0.2677 -1.3744
  688MOL0     H94903   5.392   3.260   3.820  1.5357  1.3128 -1.1475
  688MOL0     H94904   5.427   3.273   3.993 -1.3925 -1.5839 -0.0390
  688MOL0     H94905   5.542   3.339   3.885  0.6984 -2.5035  1.6628
  688MOL0     H94906   5.384   3.904   3.514 -1.3111 -1.2060 -3.1160
  688MOL0     H94907   5.544   4.018   3.354  2.0222  0.7781  1.1992
  688MOL0     H94908   5.963   3.919   3.325 -1.4587 -1.9530  0.5852
  688MOL0     H94909   5.889   3.785   3.226 -2.5248 -0.2931 -2.2858
  688MOL0     H94910   5.873   3.925   3.037 -1.5198  0.0163  0.9837
  688MOL0     H94911   5.918   4.070   3.131  1.7601  0.0286  0.4770
  688MOL0     H94912   6.088   3.835   3.069 -0.3036  0.2512 -1.5271
  688MOL0     H94913   6.137   3.961   3.185  1.2644  0.0235 -0.4128
  688MOL0     H94914   6.175   4.111   3.019 -0.1171 -0.3085  1.0482
  688MOL0     H94915   6.049   4.043   2.907 -1.0162 -4.3042 -0.0606
  688MOL0     H94916   6.184   3.865   2.840 -0.7469  0.8318 -0.7858
  688MOL0     H94917   6.256   4.034   2.805  0.5489 -0.5602 -0.8877
  688MOL0     H94918   6.415   3.838   2.891 -1.0007 -1.4606  0.2951
  688MOL0     H94919   6.340   3.859   3.045 -2.0172 -0.3046 -0.3910
  688MOL0     H94920   6.408   4.086   3.074  1.8184  1.0059  0.1937
  688MOL0     H94921   6.436   4.110   2.909  2.1271  1.4057  0.6671
  688MOL0     H94922   6.650   4.097   3.024  2.2074 -1.3877 -1.0359
  688MOL0     H94923   6.630   3.975   2.899  0.6239  0.4592  0.5576
  688MOL0     H94924   5.837   3.720   3.437  0.2456  0.0926 -3.5577
  688MOL0     H94925   5.675   3.603   3.607 -1.0049 -1.2328 -0.2938
  688MOL0     H94926   5.203   3.745   3.791  0.2479 -0.7524 -0.9775
  688MOL0     H94927   5.047   3.703   3.965  1.0048  0.6883  0.4651
  688MOL0     H94928   3.730   3.000   3.810 -2.2903  2.2869 -1.7894
  688MOL0     H94929   3.514   3.045   3.719 -2.5668 -1.8177 -2.4447
  688MOL0     H94930   3.147   3.017   3.595 -1.6802 -1.4106 -0.2699
  688MOL0     H94931   2.949   3.140   3.497  2.1677 -0.1259 -1.0201
  688MOL0     H94932   2.854   3.442   3.666  1.5435  2.1412 -2.4252
  688MOL0     H94933   2.804   3.433   3.493 -4.0978  1.3786 -2.2344
  688MOL0     H94934   2.643   3.571   3.650 -2.6985 -0.0804  2.0859
  688MOL0     H94935   2.602   3.408   3.718 -2.0955 -2.1529 -1.9133
  688MOL0     H94936   2.565   3.501   3.435  0.3026  1.6913  0.9552
  688MOL0     H94937   2.532   3.331   3.512  3.1314  0.2428 -0.1576
  688MOL0     H94938   2.362   3.405   3.642 -2.5343  0.2921 -0.2811
  688MOL0     H94939   2.323   3.436   3.482 -0.7952 -2.4110  1.4360
  688MOL0     H94940   2.307   3.826   3.620 -0.4349 -0.3975 -1.6207
  688MOL0     H94941   2.811   3.262   3.871  0.2787 -1.1157  0.5246
  688MOL0     H94942   3.107   3.251   4.049 -1.3524  2.8624 -1.3597
  688MOL0     H94943   2.929   3.221   4.082  0.9536  1.2337 -0.2927
  688MOL0     H94944   3.045   3.098   4.097  2.1817  0.4428 -1.2892
  689MOL0     O94945   9.261   4.136   7.520  0.2700 -0.1880  0.1132
  689MOL0     C94946   9.221   4.246   7.476  0.0982 -0.9602  0.1661
  689MOL0     O94947   9.298   4.362   7.472 -0.0295  0.2798  0.1690
  689MOL0     C94948   9.413   4.364   7.530  0.5930 -0.0746  0.6046
  689MOL0     C94949   9.519   4.425   7.459 -0.2656 -1.0553 -0.3805
  689MOL0     C94950   9.641   4.432   7.527 -0.3392  0.2586  0.3495
  689MOL0     C94951   9.666   4.379   7.655  0.3668 -0.4368 -0.4274
  689MOL0     O94952   9.781   4.370   7.724  0.1873  0.6331  0.7308
  689MOL0     C94953   9.907   4.380   7.657  0.9670  1.1155  0.1203
  689MOL0     C94954  10.009   4.347   7.764  0.3977 -0.1138 -0.3091
  689MOL0     C94955  10.152   4.354   7.704  0.0820  1.0650 -0.5162
  689MOL0     C94956  10.264   4.336   7.810  1.0579  0.3101  0.6969
  689MOL0     C94957  10.387   4.420   7.791  0.7791 -0.4957  0.8007
  689MOL0     C94958  10.484   4.387   7.905 -1.2986 -1.0445 -0.4919
  689MOL0     C94959  10.586   4.501   7.912  0.8642 -0.4539 -0.4087
  689MOL0     C94960  10.665   4.510   8.045  0.1552 -0.1604  0.5283
  689MOL0     N94961  10.792   4.448   8.028 -0.0333 -0.9048 -0.5907
  689MOL0     C94962  10.815   4.315   8.019  0.5383  0.2897  0.3193
  689MOL0     C94963  10.944   4.301   8.016 -0.2533 -0.4596  0.0153
  689MOL0     C94964  11.014   4.171   8.004  1.2289 -0.2519 -1.0010
  689MOL0     C94965  10.961   4.077   8.121 -0.8513 -0.5292 -0.1443
  689MOL0     C94966  11.021   4.118   8.262  0.4640 -0.2178  0.4586
  689MOL0     C94967  10.966   4.031   8.372 -0.0766 -0.5756 -0.8829
  689MOL0     O94968  11.002   4.104   8.487 -0.2734  0.0224 -0.3642
  689MOL0     C94969  11.130   4.081   8.526 -0.4504 -0.4243 -0.8858
  689MOL0     C94970  11.168   3.955   8.556  0.4559  0.4225  0.2127
  689MOL0     C94971  11.292   3.927   8.610 -0.1304 -0.6828  0.3028
  689MOL0     C94972  11.317   3.794   8.675  0.3128 -0.0191  0.1347
  689MOL0     C94973  11.390   4.034   8.619 -0.6183 -0.5222  0.6230
  689MOL0     C94974  11.538   4.017   8.653 -0.6509  0.3946 -0.8531
  689MOL0     O94975  11.613   4.126   8.691 -0.7334  0.4242  0.4765
  689MOL0     C94976  11.746   4.132   8.728 -0.4198  0.8505  0.0463
  689MOL0     C94977  11.787   4.252   8.786  0.6757 -0.0900  0.0081
  689MOL0     C94978  11.923   4.267   8.815 -0.1407 -0.0246 -0.0895
  689MOL0     C94979  12.021   4.171   8.788 -0.1248 -0.1826  0.5737
  689MOL0     O94980  12.155   4.201   8.811  0.0789 -0.5063  0.5120
  689MOL0     C94981  12.262   4.119   8.771  0.6817  0.1849  0.2014
  689MOL0     C94982  12.400   4.170   8.835  0.2504  0.6738 -0.1656
  689MOL0     C94983  12.520   4.159   8.740  0.1770  0.1148  0.4393
  689MOL0     C94984  12.652   4.194   8.796  0.1816 -1.1441 -0.6299
  689MOL0     C94985  12.769   4.162   8.702 -0.6429  0.2862 -0.7601
  689MOL0     C94986  12.902   4.202   8.768  0.9382 -0.1225  0.8081
  689MOL0     C94987  12.980   4.087   8.825  0.6913 -0.3258 -0.0735
  689MOL0     C94988  13.123   4.113   8.861 -0.4331  0.2445 -0.4750
  689MOL0    Cl94989  13.200   3.971   8.930 -0.1541  0.0833 -0.3049
  689MOL0     C94990  11.975   4.052   8.735  0.7741  0.3049 -0.0436
  689MOL0     C94991  11.846   4.027   8.710  0.1339  0.2188  0.3033
  689MOL0     O94992  11.584   3.903   8.637  0.0570 -0.1157  0.6878
  689MOL0     C94993  11.353   4.159   8.576  1.2472 -0.1961 -0.5249
  689MOL0     C94994  11.226   4.182   8.535  0.1728  0.8881 -0.5935
  689MOL0     N94995  11.004   4.428   8.009 -0.1646 -0.8515  0.4342
  689MOL0     N94996  10.911   4.520   8.024 -0.3973  0.0702  0.3246
  689MOL0     C94997   9.558   4.338   7.731 -0.2611  0.2668 -0.1624
  689MOL0     C94998   9.434   4.330   7.669  0.6849 -0.4000 -0.2457
  689MOL0     C94999   9.075   4.258   7.430 -0.3525  0.2833 -0.3362
  689MOL0     C95000   8.997   4.368   7.467  0.3501 -0.5653  0.6473
  689MOL0     C95001   8.865   4.366   7.421  0.9483  0.3664 -0.1005
  689MOL0     C95002   8.812   4.258   7.348  0.3965 -0.3948  0.2264
  689MOL0     O95003   8.676   4.252   7.314  0.6106 -0.1354  0.4907
  689MOL0     C95004   8.587   4.336   7.392 -0.1430  0.1332  0.7497
  689MOL0     C95005   8.449   4.296   7.332  0.5423  0.9451 -0.7029
  689MOL0     C95006   8.332   4.381   7.383 -0.2921  1.0362 -0.7994
  689MOL0     C95007   8.204   4.343   7.307  0.6456 -0.1253  0.6933
  689MOL0     C95008   8.086   4.421   7.355  0.6785 -0.4689  0.8477
  689MOL0     C95009   7.988   4.494   7.387 -0.2010 -0.0868 -0.7286
  689MOL0     C95010   8.891   4.155   7.314 -0.7054 -0.5408 -0.9719
  689MOL0     C95011   9.028   4.153   7.348 -0.0474  0.1547 -0.2995
  689MOL0     C95012   9.093   4.021   7.312 -0.7308  0.8733  0.3272
  689MOL0     H95013   9.521   4.465   7.359 -1.1184 -2.2167 -0.8967
  689MOL0     H95014   9.728   4.473   7.476 -1.4590  1.7938 -0.4316
  689MOL0     H95015   9.927   4.480   7.618 -0.1166  2.1442  2.0562
  689MOL0     H95016   9.912   4.300   7.583 -2.4597 -0.7547  1.6690
  689MOL0     H95017   9.987   4.425   7.837 -0.5024 -0.7616  0.1423
  689MOL0     H95018   9.994   4.249   7.812 -0.3320 -0.6347 -1.5512
  689MOL0     H95019  10.153   4.281   7.622 -1.1085  1.0373 -0.5223
  689MOL0     H95020  10.169   4.458   7.674  0.3517  1.0598 -0.3824
  689MOL0     H95021  10.204   4.349   7.901 -1.9141  1.1730 -1.2303
  689MOL0     H95022  10.290   4.230   7.801  0.6187  0.3931 -3.2084
  689MOL0     H95023  10.357   4.525   7.795  1.3923 -0.2303 -0.7534
  689MOL0     H95024  10.439   4.408   7.696 -0.2972  1.0077 -0.0184
  689MOL0     H95025  10.425   4.381   7.996  0.1166 -1.9964  0.3936
  689MOL0     H95026  10.537   4.292   7.892 -2.3825 -1.9249  1.2400
  689MOL0     H95027  10.536   4.598   7.901 -0.1035 -0.8981  0.0202
  689MOL0     H95028  10.664   4.495   7.836  1.6877 -0.5722  0.4290
  689MOL0     H95029  10.671   4.615   8.074  0.6298  0.2642 -1.0089
  689MOL0     H95030  10.607   4.454   8.120 -0.7760 -0.4218 -0.3661
  689MOL0     H95031  10.738   4.239   8.032  0.1571  0.9739  2.5282
  689MOL0     H95032  11.124   4.176   8.004  1.3268 -1.8261 -0.3403
  689MOL0     H95033  10.982   4.115   7.915  1.1487 -2.8956  0.5613
  689MOL0     H95034  10.852   4.081   8.126 -0.8340 -0.2343  0.0067
  689MOL0     H95035  10.983   3.971   8.105  0.7185 -0.3484  0.6223
  689MOL0     H95036  11.130   4.127   8.266  0.3828  0.1563  2.7077
  689MOL0     H95037  10.986   4.220   8.278 -2.1228 -0.6852 -1.5061
  689MOL0     H95038  10.858   4.016   8.368  0.1709 -2.1889 -2.0031
  689MOL0     H95039  11.004   3.929   8.369  0.1590 -0.6522  1.7670
  689MOL0     H95040  11.099   3.870   8.558 -0.7460  1.3502 -0.3070
  689MOL0     H95041  11.394   3.803   8.752  1.4147  1.1584 -1.0441
  689MOL0     H95042  11.342   3.728   8.591  2.6626  2.3759 -1.2327
  689MOL0     H95043  11.234   3.756   8.735 -0.2246  0.7272 -0.1183
  689MOL0     H95044  11.714   4.332   8.796  0.2202 -0.7146  2.2042
  689MOL0     H95045  11.959   4.363   8.851  4.6177 -3.0705  4.6834
  689MOL0     H95046  12.237   4.017   8.799  0.1178 -0.3713 -2.1190
  689MOL0     H95047  12.270   4.129   8.662  0.4767  1.3307  0.2735
  689MOL0     H95048  12.399   4.273   8.871  0.4676  0.0138  1.8261
  689MOL0     H95049  12.417   4.116   8.928  1.5080  1.8195  0.3113
  689MOL0     H95050  12.508   4.226   8.655  0.0301 -1.0898 -0.5181
  689MOL0     H95051  12.529   4.053   8.715 -1.8436 -0.2303  1.0702
  689MOL0     H95052  12.665   4.153   8.896  1.9133 -1.3456 -0.8908
  689MOL0     H95053  12.651   4.302   8.815  3.3725 -0.7138 -2.0760
  689MOL0     H95054  12.765   4.055   8.677  2.5437 -0.6867  2.1005
  689MOL0     H95055  12.765   4.216   8.607 -0.3827 -0.2799 -1.0989
  689MOL0     H95056  12.874   4.276   8.842 -1.1123  0.3513 -0.3700
  689MOL0     H95057  12.961   4.248   8.688 -1.1958  1.1007 -0.1563
  689MOL0     H95058  12.958   4.004   8.756 -0.1484 -1.6797  1.7330
  689MOL0     H95059  12.935   4.065   8.922 -1.6060  4.0672  0.1084
  689MOL0     H95060  13.136   4.203   8.921  1.1590  0.3416 -0.9034
  689MOL0     H95061  13.176   4.141   8.769  2.0782 -0.2817  0.7204
  689MOL0     H95062  12.044   3.969   8.721 -0.5943 -0.8297 -0.2884
  689MOL0     H95063  11.809   3.937   8.662 -0.2773  0.7421 -0.3719
  689MOL0     H95064  11.416   4.245   8.596 -0.0368  0.0787  3.0641
  689MOL0     H95065  11.188   4.281   8.515 -0.8456  0.6865  0.2741
  689MOL0     H95066   9.576   4.312   7.835  1.2134 -1.1674 -0.7243
  689MOL0     H95067   9.340   4.311   7.720  0.4027 -1.9877 -1.2762
  689MOL0     H95068   9.034   4.446   7.533 -1.5644  0.7030  0.2754
  689MOL0     H95069   8.811   4.449   7.465 -3.1958 -0.1223 -3.6260
  689MOL0     H95070   8.605   4.307   7.496  2.3908 -3.2087 -0.4398
  689MOL0     H95071   8.605   4.441   7.369  0.8810 -0.6925 -2.8173
  689MOL0     H95072   8.430   4.191   7.356 -1.3238  0.9177 -2.0995
  689MOL0     H95073   8.450   4.301   7.222 -3.4102  1.8784 -0.8410
  689MOL0     H95074   8.327   4.364   7.490 -0.2635 -2.4697 -1.2372
  689MOL0     H95075   8.348   4.486   7.357 -3.4137  1.4141 -1.6636
  689MOL0     H95076   8.183   4.236   7.315 -3.3536  0.3562 -1.1058
  689MOL0     H95077   8.220   4.364   7.201  0.1404 -0.6411  0.5117
  689MOL0     H95078   7.904   4.548   7.424 -1.5385 -2.2516 -0.4429
  689MOL0     H95079   8.849   4.071   7.260 -3.0065  0.2021 -0.4703
  689MOL0     H95080   9.127   3.951   7.389  1.2660 -2.5595 -3.2743
  689MOL0     H95081   9.017   3.961   7.260  1.5443  0.3426 -2.6957
  689MOL0     H95082   9.178   4.040   7.246 -1.8512  0.1637 -1.4176
  690MOL0     O95083  10.996   0.081  10.574 -0.0388  0.0826 -0.4066
  690MOL0     C95084  10.987   0.094  10.451  0.0148 -0.5859  0.0564
  690MOL0     O95085  11.090   0.066  10.367  0.1609 -0.0024  0.0241
  690MOL0     C95086  11.211   0.036  10.428  0.2103  0.6715  1.2135
  690MOL0     C95087  11.291   0.126  10.489  0.2681  0.7477  0.0295
  690MOL0     C95088  11.415   0.084  10.532 -0.3469  0.2588 -0.2057
  690MOL0     C95089  11.455  -0.050  10.529  0.1204  0.0949  0.0782
  690MOL0     O95090  11.569  -0.097  10.592 -0.0184 -0.1969  0.1504
  690MOL0     C95091  11.688  -0.021  10.560  1.3589  0.1403  0.4602
  690MOL0     C95092  11.782  -0.105  10.462 -0.1422  0.0454 -1.0243
  690MOL0     C95093  11.924  -0.050  10.450  0.7470 -0.4304 -0.5639
  690MOL0     C95094  11.930   0.102  10.447 -0.8076  0.3341  0.5371
  690MOL0     C95095  12.068   0.166  10.404  0.0691  0.2612  0.3925
  690MOL0     C95096  12.120   0.123  10.266  0.4948  0.4772 -0.1076
  690MOL0     C95097  12.258   0.194  10.242  0.2908  0.5490  0.1041
  690MOL0     C95098  12.324   0.161  10.109  0.6625 -0.0612  0.6843
  690MOL0     N95099  12.246   0.206   9.990  0.1383 -0.0396  0.0209
  690MOL0     C95100  12.143   0.140   9.920 -0.9401 -0.0812 -0.3468
  690MOL0     C95101  12.076   0.242   9.856 -0.7607  0.3152 -0.0548
  690MOL0     C95102  11.964   0.211   9.754 -0.7424  0.5067  0.2091
  690MOL0     C95103  11.841   0.171   9.818  0.3184  0.1910 -0.3854
  690MOL0     C95104  11.768   0.283   9.892  0.9519 -0.6088 -0.8990
  690MOL0     C95105  11.836   0.335  10.025 -0.0928 -1.0573  0.1410
  690MOL0     O95106  11.734   0.407  10.100  0.3645 -1.1130  0.5561
  690MOL0     C95107  11.755   0.435  10.235 -0.5617 -0.3128  0.0268
  690MOL0     C95108  11.646   0.458  10.319 -0.0485  0.0069 -0.4069
  690MOL0     C95109  11.659   0.481  10.455 -0.3850 -0.2131  0.3745
  690MOL0     C95110  11.539   0.481  10.543 -0.6146 -0.8474  0.3137
  690MOL0     C95111  11.784   0.508  10.515  0.4154  1.0043 -0.2173
  690MOL0     C95112  11.807   0.555  10.656 -0.7364 -0.3787 -0.2752
  690MOL0     O95113  11.715   0.629  10.723 -0.2854  0.0164 -0.3762
  690MOL0     C95114  11.755   0.656  10.855  0.3953 -0.9332  0.9725
  690MOL0     C95115  11.858   0.752  10.871 -0.1106  0.1443 -0.1080
  690MOL0     C95116  11.892   0.798  11.002 -0.5353 -0.3951 -0.5591
  690MOL0     C95117  11.836   0.741  11.114 -0.3678 -0.4616  0.5598
  690MOL0     O95118  11.871   0.810  11.225 -0.1590  0.1736 -0.4374
  690MOL0     C95119  11.806   0.778  11.350  0.3360 -0.3169  0.4426
  690MOL0     C95120  11.896   0.827  11.470 -0.3768 -0.0832 -0.1480
  690MOL0     C95121  12.034   0.762  11.460  0.3183  0.1493 -0.2031
  690MOL0     C95122  12.129   0.816  11.572 -0.6767 -0.1611  0.2858
  690MOL0     C95123  12.179   0.962  11.549 -1.1833  0.2307  0.0708
  690MOL0     C95124  12.275   0.965  11.440  0.1317 -0.3095  0.8024
  690MOL0     C95125  12.415   0.918  11.474 -0.2451 -0.4910 -0.1124
  690MOL0     C95126  12.505   0.920  11.348 -0.4200  0.2221  0.2193
  690MOL0    Cl95127  12.435   0.821  11.204 -0.3040 -0.1663  0.0173
  690MOL0     C95128  11.743   0.640  11.098 -0.5023  0.4418  0.3379
  690MOL0     C95129  11.700   0.597  10.970  0.3070 -0.3348  0.0818
  690MOL0     O95130  11.916   0.521  10.700  0.1562 -0.0173 -0.3529
  690MOL0     C95131  11.902   0.481  10.433  0.0129  0.8201  0.9985
  690MOL0     C95132  11.879   0.438  10.300  0.3732 -0.0712  0.2368
  690MOL0     N95133  12.151   0.361   9.868  0.5424 -0.4876  0.1231
  690MOL0     N95134  12.247   0.339   9.950 -0.2348  0.1238 -0.4149
  690MOL0     C95135  11.379  -0.140  10.460  0.4092 -0.4506 -0.1096
  690MOL0     C95136  11.250  -0.096  10.410 -0.0396  0.5327  0.6934
  690MOL0     C95137  10.860   0.142  10.390 -0.0278 -0.1750 -0.7490
  690MOL0     C95138  10.865   0.201  10.261 -0.1533  0.2273 -0.9156
  690MOL0     C95139  10.744   0.243  10.206  0.2841 -0.5593 -0.3605
  690MOL0     C95140  10.623   0.221  10.271  0.6824  0.0755  0.7947
  690MOL0     O95141  10.500   0.259  10.207 -0.0536  0.1737  0.0752
  690MOL0     C95142  10.389   0.168  10.227 -0.5618 -0.4050 -0.1104
  690MOL0     C95143  10.303   0.159  10.101 -0.0424  0.2447 -1.2270
  690MOL0     C95144  10.373   0.116   9.967  0.8158  0.0483 -0.9371
  690MOL0     C95145  10.476   0.007   9.994  0.0671 -0.6670 -0.5679
  690MOL0     C95146  10.560  -0.018   9.878  0.1743  0.1708 -0.8419
  690MOL0     C95147  10.639  -0.026   9.776  0.1823  0.3383  0.0147
  690MOL0     C95148  10.615   0.161  10.397 -0.4555 -0.3656  0.3707
  690MOL0     C95149  10.733   0.114  10.454  0.0319  0.2814  0.1303
  690MOL0     C95150  10.720   0.029  10.576  0.5637 -0.0088  0.2182
  690MOL0     H95151  11.251   0.225  10.508 -0.4920  0.3108  0.7586
  690MOL0     H95152  11.471   0.152  10.595 -1.9178  1.3016  0.1316
  690MOL0     H95153  11.741   0.006  10.652  1.5944  0.5425  0.2071
  690MOL0     H95154  11.666   0.074  10.510 -2.0457 -1.1658 -0.8016
  690MOL0     H95155  11.798  -0.200  10.514  0.7986  1.8952  2.4304
  690MOL0     H95156  11.732  -0.129  10.368  0.1684 -4.3140 -0.2835
  690MOL0     H95157  11.982  -0.081  10.538  0.5901  1.1922  0.1511
  690MOL0     H95158  11.963  -0.087  10.354 -3.4610  0.7847 -2.9786
  690MOL0     H95159  11.847   0.132  10.381 -3.4081 -4.5706  1.1602
  690MOL0     H95160  11.911   0.138  10.548 -0.9441 -1.4894  1.1815
  690MOL0     H95161  12.150   0.139  10.471  0.9052 -2.5851 -1.5916
  690MOL0     H95162  12.059   0.275  10.405  1.7687  0.4442  1.9949
  690MOL0     H95163  12.134   0.017  10.244 -2.8575 -0.1298  0.1645
  690MOL0     H95164  12.051   0.155  10.189 -0.7825  0.0218  0.8101
  690MOL0     H95165  12.330   0.161  10.317 -1.2915  0.2376  1.5498
  690MOL0     H95166  12.243   0.301  10.259 -1.1791  0.3319  0.3196
  690MOL0     H95167  12.425   0.199  10.096  0.6088 -0.1776 -0.0948
  690MOL0     H95168  12.330   0.052  10.115  1.7042 -0.0098  0.7254
  690MOL0     H95169  12.121   0.033   9.923 -1.0682 -0.0618 -0.5305
  690MOL0     H95170  12.002   0.140   9.680 -1.1073  1.3985 -0.8640
  690MOL0     H95171  11.940   0.301   9.695  2.6511  0.5237 -1.3915
  690MOL0     H95172  11.777   0.134   9.737  0.7980  0.5770 -0.9477
  690MOL0     H95173  11.861   0.082   9.879 -1.5706  0.5158  0.7792
  690MOL0     H95174  11.751   0.361   9.817  1.6862  1.2703  0.7876
  690MOL0     H95175  11.666   0.254   9.920  0.9901  0.6042  0.6186
  690MOL0     H95176  11.877   0.251  10.081  4.1618 -0.0787 -1.1019
  690MOL0     H95177  11.919   0.398   9.990 -0.8695 -1.1143 -1.9663
  690MOL0     H95178  11.548   0.451  10.275  0.0034 -1.0835 -0.3610
  690MOL0     H95179  11.551   0.432  10.641 -0.3744 -0.3516  0.5359
  690MOL0     H95180  11.448   0.436  10.502 -0.3634 -1.7576  0.7139
  690MOL0     H95181  11.508   0.581  10.572 -0.1761 -0.4416 -0.6008
  690MOL0     H95182  11.891   0.792  10.775 -2.4849 -4.0892 -3.0169
  690MOL0     H95183  11.959   0.884  11.001  0.0955 -0.7962 -3.4430
  690MOL0     H95184  11.707   0.824  11.354 -0.5557 -2.0111 -1.0511
  690MOL0     H95185  11.799   0.670  11.363  1.2848 -0.4985 -0.3736
  690MOL0     H95186  11.907   0.935  11.463 -2.2559  0.2713  1.3020
  690MOL0     H95187  11.856   0.798  11.568  0.6629  1.6405  0.8194
  690MOL0     H95188  12.067   0.771  11.356 -0.2153  1.0950 -0.3064
  690MOL0     H95189  12.015   0.656  11.480 -0.6715  0.7435  2.4508
  690MOL0     H95190  12.217   0.752  11.584 -0.9480 -0.8382 -1.1284
  690MOL0     H95191  12.077   0.808  11.668  2.1186 -0.1237  1.9237
  690MOL0     H95192  12.097   1.030  11.522 -0.2570  1.8807  1.1817
  690MOL0     H95193  12.228   0.992  11.642 -1.3780 -2.5012  1.1325
  690MOL0     H95194  12.294   1.070  11.414 -2.3539  0.4498  1.7858
  690MOL0     H95195  12.232   0.925  11.347 -0.4293 -0.2913  1.0520
  690MOL0     H95196  12.412   0.814  11.510 -2.4654 -0.3628  0.1637
  690MOL0     H95197  12.451   0.984  11.554 -0.1266  1.6260 -1.8307
  690MOL0     H95198  12.606   0.885  11.372  0.0840  1.0014 -0.6910
  690MOL0     H95199  12.524   1.022  11.314 -0.0362  0.4792  1.1659
  690MOL0     H95200  11.711   0.580  11.183  0.6851 -0.8423 -0.0859
  690MOL0     H95201  11.625   0.520  10.960  0.3792 -0.3494 -0.4021
  690MOL0     H95202  12.003   0.496  10.470  0.1743 -2.4377  2.2153
  690MOL0     H95203  11.972   0.408  10.253 -0.3968 -3.0453  0.4401
  690MOL0     H95204  11.414  -0.243  10.458  1.9363  0.0285  0.3561
  690MOL0     H95205  11.193  -0.158  10.341  0.7035 -0.0088  0.5598
  690MOL0     H95206  10.952   0.220  10.198  0.4600 -2.3311 -0.9872
  690MOL0     H95207  10.742   0.288  10.108  0.5291 -0.0899 -0.1485
  690MOL0     H95208  10.419   0.069  10.264 -1.0152 -0.4317  0.1908
  690MOL0     H95209  10.330   0.205  10.311 -1.7983  0.5899 -1.3775
  690MOL0     H95210  10.268   0.256  10.064  1.1964  0.4330 -1.9437
  690MOL0     H95211  10.226   0.085  10.126  0.3049 -0.1350 -1.2726
  690MOL0     H95212  10.307   0.083   9.887  1.0533 -2.1511 -0.2803
  690MOL0     H95213  10.422   0.206   9.927  0.6859  0.4424 -0.2316
  690MOL0     H95214  10.418  -0.078  10.033 -0.4741 -0.6782 -1.3716
  690MOL0     H95215  10.544   0.036  10.074  0.5607 -0.4209 -1.0761
  690MOL0     H95216  10.688  -0.026   9.680 -2.4109  2.7724 -1.4644
  690MOL0     H95217  10.523   0.142  10.453  0.0069 -1.0599  0.9169
  690MOL0     H95218  10.717  -0.077  10.549 -1.3948  0.2160 -0.6610
  690MOL0     H95219  10.791   0.048  10.656  1.2027  2.1251 -0.7873
  690MOL0     H95220  10.621   0.053  10.616  0.5308  0.3103 -0.0496
  691MOL0     O95221   0.154   3.317   2.865  0.7747 -1.3411 -0.0466
  691MOL0     C95222   0.047   3.261   2.855 -0.3582  0.7302  0.2808
  691MOL0     O95223   0.034   3.131   2.822 -0.4226 -0.7565  0.2250
  691MOL0     C95224   0.147   3.052   2.798  0.8180 -0.1396 -0.1050
  691MOL0     C95225   0.135   2.971   2.688 -0.1747 -0.6140 -0.3283
  691MOL0     C95226   0.237   2.875   2.672  1.3606  0.0636  0.2924
  691MOL0     C95227   0.347   2.863   2.758  0.3063 -0.0595 -0.3158
  691MOL0     O95228   0.431   2.753   2.726  0.1734  0.2413 -0.3361
  691MOL0     C95229   0.555   2.741   2.790  0.1977  0.2558  0.2524
  691MOL0     C95230   0.636   2.644   2.715 -0.1043 -0.5135  0.0609
  691MOL0     C95231   0.776   2.635   2.775  0.6504  0.1098 -0.2431
  691MOL0     C95232   0.892   2.602   2.681 -1.0966  0.5482  0.5522
  691MOL0     C95233   1.028   2.608   2.745 -0.3146  0.7142  0.1463
  691MOL0     C95234   1.136   2.553   2.655  0.1982  0.3857  0.5110
  691MOL0     C95235   1.206   2.656   2.565 -0.8394  0.4879  0.0410
  691MOL0     C95236   1.278   2.607   2.439  0.2868 -0.7741 -0.0325
  691MOL0     N95237   1.398   2.526   2.477  0.8644 -0.2602 -0.2610
  691MOL0     C95238   1.515   2.587   2.510  0.0829 -0.7511  0.8602
  691MOL0     C95239   1.597   2.487   2.553  0.6198  0.4221  0.1105
  691MOL0     C95240   1.717   2.510   2.620 -0.1803 -0.0488 -0.7436
  691MOL0     C95241   1.827   2.549   2.519 -0.2321  1.1403  0.2696
  691MOL0     C95242   1.958   2.585   2.604  0.8208  0.2643 -0.1819
  691MOL0     C95243   1.943   2.709   2.687 -0.5132 -0.3166 -0.0232
  691MOL0     O95244   1.902   2.820   2.611 -0.5741 -0.4975  1.2706
  691MOL0     C95245   1.998   2.895   2.544  0.1123 -0.1931  0.6223
  691MOL0     C95246   1.958   3.001   2.472 -0.3473 -0.1702  0.1398
  691MOL0     C95247   2.042   3.074   2.391  0.4827 -0.0599 -0.3037
  691MOL0     C95248   1.972   3.177   2.311  1.0496  0.5057  0.2917
  691MOL0     C95249   2.176   3.043   2.383 -1.0193 -0.2996 -0.5097
  691MOL0     C95250   2.288   3.111   2.296 -0.0735  0.5048  0.8971
  691MOL0     O95251   2.416   3.062   2.307 -0.0153 -0.0612 -0.5978
  691MOL0     C95252   2.531   3.117   2.272 -0.7718 -0.1915  0.6960
  691MOL0     C95253   2.642   3.046   2.314  0.7520  0.5505 -0.4534
  691MOL0     C95254   2.769   3.091   2.280  0.4973  0.1377  0.7158
  691MOL0     C95255   2.792   3.207   2.195  0.3322  0.6363  1.5653
  691MOL0     O95256   2.920   3.246   2.155  0.3310 -0.1282 -0.2283
  691MOL0     C95257   2.933   3.369   2.078 -0.5245  0.3648 -0.4480
  691MOL0     C95258   3.080   3.406   2.054  0.2700  0.7205 -0.5495
  691MOL0     C95259   3.152   3.468   2.173 -0.8341 -0.4132  0.3562
  691MOL0     C95260   3.301   3.490   2.148  0.2590 -0.1613  0.3763
  691MOL0     C95261   3.386   3.520   2.267 -0.5850 -0.1462  0.1400
  691MOL0     C95262   3.526   3.518   2.237  0.7330  0.4431 -0.0842
  691MOL0     C95263   3.618   3.565   2.358 -0.0317 -0.6350 -0.4611
  691MOL0     C95264   3.656   3.447   2.439  0.0366  1.5665  0.1184
  691MOL0    Cl95265   3.758   3.497   2.575  0.0573  0.1745  0.1649
  691MOL0     C95266   2.668   3.276   2.151  0.4538  0.8008  0.7413
  691MOL0     C95267   2.544   3.229   2.190 -0.1043  0.3236 -0.2063
  691MOL0     O95268   2.250   3.184   2.204  0.5500 -0.1973  0.0638
  691MOL0     C95269   2.231   2.940   2.465  0.0549  0.2929  0.0186
  691MOL0     C95270   2.142   2.867   2.549 -0.8275  0.1039  0.2038
  691MOL0     N95271   1.519   2.367   2.546 -0.8909  0.1725  0.5559
  691MOL0     N95272   1.408   2.393   2.500 -0.0042  0.4363 -0.0346
  691MOL0     C95273   0.358   2.956   2.864  0.2531  0.4219 -0.2407
  691MOL0     C95274   0.258   3.047   2.884  0.2679 -0.3815  0.6966
  691MOL0     C95275  -0.084   3.325   2.868 -0.7102 -0.8962 -0.4564
  691MOL0     C95276  -0.200   3.257   2.819  0.1801 -0.2606 -0.2465
  691MOL0     C95277  -0.321   3.324   2.825 -0.1266  0.5077  0.6792
  691MOL0     C95278  -0.337   3.436   2.896 -0.2089 -0.2697 -0.2992
  691MOL0     O95279  -0.464   3.484   2.900 -0.4296 -0.1767  0.4644
  691MOL0     C95280  -0.491   3.581   3.005  0.0120 -0.0068 -0.4159
  691MOL0     C95281  -0.636   3.620   2.978  0.3635  0.3504  0.4966
  691MOL0     C95282  -0.650   3.708   2.860 -1.0271  1.0876 -0.2309
  691MOL0     C95283  -0.793   3.745   2.844 -0.1680 -0.1138  0.0221
  691MOL0     C95284  -0.814   3.863   2.749 -0.2211  0.0422 -0.2453
  691MOL0     C95285  -0.834   3.960   2.676 -0.2767 -0.0050 -0.4079
  691MOL0     C95286  -0.219   3.506   2.948  0.0410 -0.2141 -0.4885
  691MOL0     C95287  -0.097   3.452   2.938  0.1855  0.8708  0.9201
  691MOL0     C95288   0.014   3.507   3.014  0.7381 -0.3756 -0.1216
  691MOL0     H95289   0.041   2.975   2.633 -1.7058  0.8850  2.1915
  691MOL0     H95290   0.224   2.809   2.586  3.3969  1.3887 -1.0991
  691MOL0     H95291   0.541   2.703   2.891  1.0225 -2.0074 -0.4283
  691MOL0     H95292   0.612   2.834   2.787  0.2612  0.2350  0.8417
  691MOL0     H95293   0.591   2.545   2.719 -2.1729  0.3466 -0.7169
  691MOL0     H95294   0.644   2.688   2.615 -3.4075  0.3138  0.0561
  691MOL0     H95295   0.795   2.729   2.826 -1.8604 -0.1510  1.3006
  691MOL0     H95296   0.779   2.564   2.858  0.2274 -0.7133 -0.9136
  691MOL0     H95297   0.872   2.500   2.646  1.0508  0.0084  0.7473
  691MOL0     H95298   0.889   2.659   2.588  0.3196 -0.6397 -0.2652
  691MOL0     H95299   1.027   2.543   2.833 -2.1931  0.3551 -0.1125
  691MOL0     H95300   1.059   2.707   2.781  0.9329  1.2409 -2.1818
  691MOL0     H95301   1.211   2.493   2.707 -0.5039 -1.6254 -0.6829
  691MOL0     H95302   1.089   2.485   2.583  1.6225 -1.1278  0.9432
  691MOL0     H95303   1.284   2.708   2.620  0.6541 -1.1171 -0.4788
  691MOL0     H95304   1.137   2.739   2.544 -0.0960  0.9322 -0.7166
  691MOL0     H95305   1.204   2.556   2.376 -1.6374  2.7928 -0.9546
  691MOL0     H95306   1.306   2.695   2.379 -1.7867  0.3301  0.5281
  691MOL0     H95307   1.534   2.694   2.505  0.0769 -0.7880 -2.6933
  691MOL0     H95308   1.745   2.419   2.674 -0.1809 -1.2500 -2.6749
  691MOL0     H95309   1.688   2.586   2.693  1.2856  0.1423 -0.3360
  691MOL0     H95310   1.859   2.468   2.453  3.8365  1.6171  1.3780
  691MOL0     H95311   1.809   2.636   2.457  1.1050  1.0510 -0.2875
  691MOL0     H95312   2.004   2.502   2.660  4.3213  1.2947 -1.3159
  691MOL0     H95313   2.040   2.609   2.536  1.0363  0.1130  0.0222
  691MOL0     H95314   1.871   2.699   2.769  0.1503  1.7923  0.8915
  691MOL0     H95315   2.031   2.721   2.751 -2.1169 -2.5645  2.8843
  691MOL0     H95316   1.852   3.023   2.480 -0.5500 -0.2070 -2.0317
  691MOL0     H95317   2.037   3.260   2.282  0.1531  0.4848 -2.0655
  691MOL0     H95318   1.888   3.221   2.364  1.1246  0.1231  0.7364
  691MOL0     H95319   1.937   3.127   2.220  2.6928 -1.2686  0.5579
  691MOL0     H95320   2.624   2.954   2.369 -1.0091  0.6223 -0.8482
  691MOL0     H95321   2.851   3.024   2.304  0.4918  0.6002  2.1345
  691MOL0     H95322   2.883   3.357   1.982 -0.3336  0.0930 -0.5134
  691MOL0     H95323   2.884   3.448   2.136 -1.5765  0.3069 -1.2401
  691MOL0     H95324   3.137   3.319   2.019  2.7297  1.7398  0.6249
  691MOL0     H95325   3.064   3.465   1.963 -0.4908 -0.1303 -0.9884
  691MOL0     H95326   3.150   3.390   2.251  1.4590 -2.6595 -1.6708
  691MOL0     H95327   3.107   3.564   2.200  0.4734  0.3970 -0.2563
  691MOL0     H95328   3.308   3.570   2.074  1.2610  0.3752  1.0411
  691MOL0     H95329   3.339   3.398   2.103  1.5096  1.8140 -2.9666
  691MOL0     H95330   3.358   3.620   2.302 -2.6374 -0.0164 -1.6241
  691MOL0     H95331   3.375   3.447   2.347  0.2198  2.4691  2.8181
  691MOL0     H95332   3.550   3.583   2.152  2.1275 -0.0496 -0.0958
  691MOL0     H95333   3.553   3.417   2.204 -0.2754 -0.8407  2.6585
  691MOL0     H95334   3.573   3.650   2.409  0.9588  0.6262 -1.5951
  691MOL0     H95335   3.712   3.599   2.313  0.5742 -3.4695 -1.5427
  691MOL0     H95336   3.715   3.378   2.378  0.5352  1.6891  0.4554
  691MOL0     H95337   3.569   3.393   2.478  0.9377  0.8352  1.1895
  691MOL0     H95338   2.670   3.373   2.103  0.6335  1.0246  1.1888
  691MOL0     H95339   2.454   3.290   2.183 -0.3406 -0.0171 -0.1646
  691MOL0     H95340   2.335   2.913   2.481 -0.6390 -1.5945  1.6987
  691MOL0     H95341   2.186   2.784   2.603  0.2974  1.0706  0.8211
  691MOL0     H95342   0.454   2.962   2.915  1.1798  0.4954 -1.9383
  691MOL0     H95343   0.265   3.115   2.969  0.4125 -1.5816  1.6593
  691MOL0     H95344  -0.193   3.159   2.774 -0.1571 -1.4913  2.2652
  691MOL0     H95345  -0.402   3.277   2.771  1.6725  0.2271 -2.0014
  691MOL0     H95346  -0.477   3.545   3.107  0.2127  1.0136 -0.0792
  691MOL0     H95347  -0.433   3.674   3.003  0.0446 -0.0237 -0.2751
  691MOL0     H95348  -0.682   3.670   3.063 -1.6494 -0.1172 -0.2510
  691MOL0     H95349  -0.695   3.531   2.954  1.9992 -0.7211  0.2878
  691MOL0     H95350  -0.594   3.800   2.877  2.0029 -0.4716 -1.1312
  691MOL0     H95351  -0.604   3.668   2.769  0.4205  0.2364  0.8187
  691MOL0     H95352  -0.832   3.763   2.944  1.7244 -0.9638  0.9660
  691MOL0     H95353  -0.839   3.655   2.803  2.6456 -1.8433  0.4385
  691MOL0     H95354  -0.857   4.049   2.620  1.2196  2.5479  2.7260
  691MOL0     H95355  -0.223   3.603   2.997  6.2433  0.3264 -0.2710
  691MOL0     H95356  -0.015   3.599   3.064  2.5185 -0.9344  2.1098
  691MOL0     H95357   0.060   3.435   3.082 -1.4464 -0.0719  1.7689
  691MOL0     H95358   0.086   3.547   2.941  0.7908  0.4179  0.3554
  692MOL0     O95359   2.784   3.309   4.429 -0.2660 -0.6136 -0.6507
  692MOL0     C95360   2.688   3.240   4.443  0.0286  0.2132  0.5489
  692MOL0     O95361   2.697   3.102   4.467  0.5060  0.2625  0.5003
  692MOL0     C95362   2.826   3.055   4.494  0.0936 -0.0556 -0.2578
  692MOL0     C95363   2.916   3.020   4.395  0.0384  0.2284  0.1597
  692MOL0     C95364   3.048   2.990   4.426 -0.0052  0.2396 -0.1671
  692MOL0     C95365   3.097   2.992   4.558  0.1464  0.2591  0.1354
  692MOL0     O95366   3.228   2.951   4.586  0.5844 -0.1859  0.3542
  692MOL0     C95367   3.240   2.867   4.698 -0.1789 -0.2668 -0.4067
  692MOL0     C95368   3.358   2.773   4.683  0.4959 -0.3849 -0.0407
  692MOL0     C95369   3.426   2.752   4.813  0.3393 -0.5248  0.6329
  692MOL0     C95370   3.529   2.639   4.793  0.0623  0.4373  0.0583
  692MOL0     C95371   3.569   2.575   4.932  0.0956 -0.0011 -0.1026
  692MOL0     C95372   3.669   2.463   4.924  0.0409 -0.1094 -0.3090
  692MOL0     C95373   3.717   2.414   5.064  0.1544  0.1176 -0.2799
  692MOL0     C95374   3.832   2.310   5.048 -0.4424 -0.1354 -0.7342
  692MOL0     N95375   3.958   2.346   4.984 -0.1077 -0.6044 -0.0645
  692MOL0     C95376   4.028   2.468   5.017  0.5481  0.6211 -0.2937
  692MOL0     C95377   4.161   2.449   4.970  0.6362 -0.4905 -0.1656
  692MOL0     C95378   4.268   2.560   4.989 -0.7850  0.3625 -0.2822
  692MOL0     C95379   4.414   2.516   4.933  0.5819 -0.0640  0.6138
  692MOL0     C95380   4.523   2.583   5.011  0.2897 -0.1716 -0.0659
  692MOL0     C95381   4.590   2.701   4.931  0.6393  0.7103  0.9410
  692MOL0     O95382   4.711   2.720   5.003 -0.3256  0.3158  0.5331
  692MOL0     C95383   4.784   2.821   4.942  0.1197 -0.4533 -0.3755
  692MOL0     C95384   4.887   2.779   4.861  0.2816 -0.1069  0.3955
  692MOL0     C95385   4.960   2.878   4.798 -0.4365  0.5586 -1.0733
  692MOL0     C95386   5.070   2.823   4.706  0.4235  0.1480 -0.3722
  692MOL0     C95387   4.945   3.016   4.817  0.3386  0.1995 -0.7364
  692MOL0     C95388   5.026   3.123   4.751  0.1347 -0.0114 -0.2095
  692MOL0     O95389   5.148   3.093   4.698 -0.5821 -0.3228  0.1691
  692MOL0     C95390   5.224   3.192   4.631  0.3488 -0.0818 -0.4502
  692MOL0     C95391   5.229   3.331   4.663 -0.4962 -0.6411 -0.0183
  692MOL0     C95392   5.282   3.421   4.568 -0.0125 -0.5597  0.5011
  692MOL0     C95393   5.342   3.375   4.452  0.1277  0.8072 -0.2694
  692MOL0     O95394   5.402   3.455   4.357  0.7163  0.2894  1.0562
  692MOL0     C95395   5.411   3.595   4.361  0.2737  0.5764 -0.3892
  692MOL0     C95396   5.473   3.645   4.227  0.2718  0.1239 -0.1246
  692MOL0     C95397   5.620   3.626   4.211  0.2072  0.4939  0.3227
  692MOL0     C95398   5.658   3.642   4.063  0.8400  0.6582  0.1699
  692MOL0     C95399   5.783   3.566   4.023 -0.6466  0.2673 -0.6010
  692MOL0     C95400   5.800   3.582   3.872 -0.3448 -0.7181 -0.6531
  692MOL0     C95401   5.930   3.506   3.827 -0.1558 -0.3932 -0.0795
  692MOL0     C95402   6.041   3.587   3.768 -0.1862 -0.3076 -0.2431
  692MOL0    Cl95403   6.015   3.648   3.601 -0.0349  0.4656  0.0713
  692MOL0     C95404   5.351   3.235   4.432 -0.0413  0.0224  0.3562
  692MOL0     C95405   5.298   3.145   4.522 -0.3232  0.4106  1.0343
  692MOL0     O95406   4.970   3.230   4.740 -0.0116 -0.4099 -0.0459
  692MOL0     C95407   4.824   3.053   4.885  0.2303  0.3242 -0.9722
  692MOL0     C95408   4.753   2.956   4.957 -0.0143  0.0289  0.1846
  692MOL0     N95409   4.162   2.324   4.918  0.8569  0.5475 -0.5734
  692MOL0     N95410   4.047   2.265   4.925  0.8705  0.3345  0.2901
  692MOL0     C95411   3.006   3.038   4.659  0.5322  0.6016 -0.5585
  692MOL0     C95412   2.876   3.065   4.627 -0.2798 -0.4360 -0.3461
  692MOL0     C95413   2.555   3.298   4.425 -0.0616  0.7313  0.3363
  692MOL0     C95414   2.451   3.212   4.373 -0.1328 -0.1603 -0.1513
  692MOL0     C95415   2.316   3.263   4.345  0.3292 -0.6193 -0.0983
  692MOL0     C95416   2.284   3.392   4.379  0.1197  0.3956  0.3354
  692MOL0     O95417   2.171   3.464   4.362  0.4733  0.4331 -0.0840
  692MOL0     C95418   2.055   3.394   4.323 -0.0048 -0.6842  0.6671
  692MOL0     C95419   1.932   3.486   4.283  1.4945 -0.8142 -0.1439
  692MOL0     C95420   1.867   3.549   4.408  0.9578  0.2944  0.4657
  692MOL0     C95421   1.756   3.657   4.384 -0.0678  0.5171 -0.0582
  692MOL0     C95422   1.645   3.590   4.310  0.2510 -0.3032  0.6000
  692MOL0     C95423   1.564   3.536   4.247  0.3912  0.0524  0.4986
  692MOL0     C95424   2.389   3.478   4.428 -0.3332  0.1293  0.2392
  692MOL0     C95425   2.523   3.430   4.459 -0.4054  0.1066 -0.2068
  692MOL0     C95426   2.619   3.517   4.542  0.1847  0.3967  0.6150
  692MOL0     H95427   2.900   3.018   4.288  1.4657  0.5965 -0.0825
  692MOL0     H95428   3.105   2.961   4.338  0.3419  0.9918 -0.1913
  692MOL0     H95429   3.148   2.814   4.724 -0.8934  0.7941 -0.7156
  692MOL0     H95430   3.257   2.928   4.787  0.2433 -2.7174  1.2858
  692MOL0     H95431   3.323   2.678   4.640  0.1049  0.1469 -0.9105
  692MOL0     H95432   3.432   2.812   4.612 -0.7199  0.1477 -1.0506
  692MOL0     H95433   3.468   2.844   4.855  1.9228  0.5537 -2.8757
  692MOL0     H95434   3.350   2.719   4.884 -0.9422  0.0099 -0.4436
  692MOL0     H95435   3.489   2.555   4.736 -0.8188  1.6073 -1.1341
  692MOL0     H95436   3.608   2.684   4.731 -3.2288 -0.1485 -5.2696
  692MOL0     H95437   3.472   2.543   4.973  0.0587 -0.4915 -0.5529
  692MOL0     H95438   3.609   2.652   4.998 -1.8555 -0.5664  1.8635
  692MOL0     H95439   3.632   2.382   4.861  2.2909 -0.4819 -1.2492
  692MOL0     H95440   3.760   2.508   4.883 -1.4780  3.3239 -0.2829
  692MOL0     H95441   3.632   2.361   5.108  1.4193 -2.1874 -0.4420
  692MOL0     H95442   3.746   2.491   5.135  1.4056 -1.1643  0.6674
  692MOL0     H95443   3.841   2.275   5.151  0.0183 -1.4699 -1.2139
  692MOL0     H95444   3.788   2.225   4.994 -0.2472 -1.7454  1.5143
  692MOL0     H95445   3.986   2.551   5.073  0.5689  0.0903  0.5261
  692MOL0     H95446   4.272   2.592   5.094  1.7177  2.8300 -1.0026
  692MOL0     H95447   4.246   2.647   4.926 -0.5241 -0.9405 -2.2596
  692MOL0     H95448   4.434   2.410   4.947  1.5591  0.0639  0.2059
  692MOL0     H95449   4.418   2.541   4.827  1.5543 -0.7788  0.4746
  692MOL0     H95450   4.483   2.624   5.104 -2.6897  1.0139 -1.7488
  692MOL0     H95451   4.594   2.503   5.036 -1.9461 -1.7506  1.5709
  692MOL0     H95452   4.608   2.668   4.828 -1.6159  2.8380 -0.2491
  692MOL0     H95453   4.527   2.791   4.922 -1.7444 -1.0075 -1.4402
  692MOL0     H95454   4.914   2.675   4.843  0.7157  0.0044  0.4108
  692MOL0     H95455   5.060   2.882   4.614 -0.5639 -1.4505 -1.3460
  692MOL0     H95456   5.042   2.721   4.678 -1.8374  0.6124 -0.0556
  692MOL0     H95457   5.171   2.833   4.746 -0.2731 -0.2680  1.6319
  692MOL0     H95458   5.194   3.369   4.758 -0.8293 -1.4771  0.1928
  692MOL0     H95459   5.299   3.522   4.606 -2.0983 -0.4944  1.3944
  692MOL0     H95460   5.320   3.646   4.395 -0.5970 -2.2740  1.9762
  692MOL0     H95461   5.485   3.613   4.439  2.5861 -1.9304 -1.8244
  692MOL0     H95462   5.410   3.627   4.140 -0.2193 -1.2587  0.4781
  692MOL0     H95463   5.465   3.753   4.244 -2.4899 -0.3025  1.9208
  692MOL0     H95464   5.644   3.528   4.254  1.3319  0.5647 -0.1063
  692MOL0     H95465   5.671   3.700   4.274  0.2523  0.0748  0.7930
  692MOL0     H95466   5.662   3.748   4.040  0.1857  0.2482 -2.1139
  692MOL0     H95467   5.574   3.598   4.007  0.0158  0.9332  1.1537
  692MOL0     H95468   5.865   3.600   4.087 -0.9677  1.1737 -0.6516
  692MOL0     H95469   5.753   3.462   4.040  0.7978  0.1553  1.6387
  692MOL0     H95470   5.806   3.687   3.840 -2.9484 -0.4883 -0.5601
  692MOL0     H95471   5.710   3.544   3.824 -1.2569 -1.9789  1.9036
  692MOL0     H95472   5.884   3.438   3.754  0.3915 -1.9867  1.0003
  692MOL0     H95473   5.970   3.443   3.907 -1.9901  0.1292  1.3024
  692MOL0     H95474   6.126   3.518   3.770 -1.4339 -2.0746 -2.8649
  692MOL0     H95475   6.060   3.678   3.827 -0.2445  0.3828 -1.2683
  692MOL0     H95476   5.404   3.196   4.346 -1.5567 -2.1127  0.3112
  692MOL0     H95477   5.315   3.037   4.523 -0.0126  0.4634  2.1136
  692MOL0     H95478   4.797   3.158   4.889  0.9450  0.4725  0.6333
  692MOL0     H95479   4.668   2.992   5.013  0.6418  1.4939  0.2877
  692MOL0     H95480   3.036   3.032   4.763  0.2220 -1.2579 -0.5400
  692MOL0     H95481   2.817   3.104   4.710  0.9992 -1.4823  1.0940
  692MOL0     H95482   2.472   3.107   4.355  0.5770 -0.1145  0.3670
  692MOL0     H95483   2.237   3.200   4.305 -2.3145  2.3160  0.0624
  692MOL0     H95484   2.076   3.339   4.231 -3.1874  1.5711 -1.6572
  692MOL0     H95485   2.020   3.323   4.399 -1.6755  0.9943  1.5755
  692MOL0     H95486   1.856   3.428   4.229 -1.4184  0.4768  2.3001
  692MOL0     H95487   1.964   3.573   4.223 -0.6944 -0.6050 -1.1013
  692MOL0     H95488   1.817   3.475   4.471 -0.6499  1.5455  0.7545
  692MOL0     H95489   1.939   3.599   4.473  2.5135 -1.8297  0.4752
  692MOL0     H95490   1.787   3.738   4.317 -0.1916 -0.9354 -1.9900
  692MOL0     H95491   1.730   3.709   4.476  0.1322 -1.1373  0.9659
  692MOL0     H95492   1.484   3.483   4.198  2.2581 -0.4970 -2.1536
  692MOL0     H95493   2.379   3.585   4.443  5.1297  1.1792 -1.2216
  692MOL0     H95494   2.720   3.536   4.504  0.3655  0.3825  1.0887
  692MOL0     H95495   2.572   3.615   4.545 -1.0598  0.2092 -4.1628
  692MOL0     H95496   2.638   3.479   4.642  0.9005 -0.7015  0.0895
  693MOL0     O95497   5.665   6.270   7.319  0.2518 -0.3699  0.2111
  693MOL0     C95498   5.602   6.218   7.231  1.0064 -0.0315  0.1399
  693MOL0     O95499   5.643   6.187   7.105 -0.6617  0.4060 -0.6939
  693MOL0     C95500   5.772   6.174   7.067  0.1050  0.6289 -0.0530
  693MOL0     C95501   5.884   6.156   7.153  0.2310  0.6089 -0.3225
  693MOL0     C95502   6.015   6.146   7.105  0.8352 -0.0635 -0.4479
  693MOL0     C95503   6.038   6.160   6.969 -0.1241  0.0780  0.0210
  693MOL0     O95504   6.167   6.144   6.915 -0.0325 -0.1644  0.0482
  693MOL0     C95505   6.270   6.073   6.990  0.2383  0.1358 -0.0724
  693MOL0     C95506   6.372   6.017   6.895  0.0086 -0.1056 -0.5489
  693MOL0     C95507   6.302   5.929   6.792  0.7622  0.5012  0.4418
  693MOL0     C95508   6.405   5.848   6.712  0.1270 -0.4884 -0.5712
  693MOL0     C95509   6.489   5.757   6.804  0.3937  0.3284 -0.0899
  693MOL0     C95510   6.562   5.650   6.719 -0.2708 -0.0945 -0.2416
  693MOL0     C95511   6.641   5.545   6.805 -0.4430 -0.7086  0.6084
  693MOL0     C95512   6.553   5.422   6.832  0.3844  0.5485 -1.3786
  693MOL0     N95513   6.464   5.437   6.952 -0.0511  0.6942 -0.7095
  693MOL0     C95514   6.324   5.439   6.940  0.3199 -0.1490 -0.2037
  693MOL0     C95515   6.279   5.499   7.055 -0.3248  0.4157  0.4443
  693MOL0     C95516   6.144   5.549   7.088 -0.1117  0.3676  0.0290
  693MOL0     C95517   6.118   5.682   7.013  0.1367  0.5965  0.0319
  693MOL0     C95518   6.029   5.772   7.100 -0.6716 -0.3134 -0.2117
  693MOL0     C95519   5.893   5.798   7.035  0.4346 -0.4144  0.0622
  693MOL0     O95520   5.826   5.671   7.007  0.0501  0.5311 -0.2576
  693MOL0     C95521   5.709   5.672   6.938 -0.2473  0.2808  0.0599
  693MOL0     C95522   5.666   5.771   6.852  0.0572 -0.1081 -0.6125
  693MOL0     C95523   5.542   5.756   6.782 -0.3625  0.2069  0.6403
  693MOL0     C95524   5.514   5.867   6.684  0.6077  0.2041 -0.0594
  693MOL0     C95525   5.469   5.636   6.789  0.4032 -0.0057 -0.0831
  693MOL0     C95526   5.331   5.615   6.731  0.0609 -0.6105 -0.4312
  693MOL0     O95527   5.260   5.507   6.780  0.8287 -0.0670  0.4175
  693MOL0     C95528   5.133   5.473   6.735 -0.0086 -0.5480 -0.1594
  693MOL0     C95529   5.023   5.563   6.698 -0.0941 -0.2209  0.1987
  693MOL0     C95530   4.898   5.516   6.655  0.3103  0.3366  0.8838
  693MOL0     C95531   4.868   5.379   6.671 -0.0651  0.6576 -1.0923
  693MOL0     O95532   4.743   5.332   6.641 -0.2986  0.5144 -0.0263
  693MOL0     C95533   4.651   5.366   6.746 -0.1387  0.3494 -0.0255
  693MOL0     C95534   4.518   5.387   6.688 -0.2303 -0.3255  0.1817
  693MOL0     C95535   4.409   5.394   6.798  0.1034 -0.5340  0.4883
  693MOL0     C95536   4.273   5.410   6.725  0.5465  0.8978  0.0275
  693MOL0     C95537   4.155   5.366   6.815 -0.4997 -0.2850 -0.9448
  693MOL0     C95538   4.026   5.346   6.731 -0.3246 -0.3818 -0.3762
  693MOL0     C95539   3.907   5.315   6.829 -0.3466 -0.5382  0.2761
  693MOL0     C95540   3.786   5.284   6.744  0.2414 -0.3081 -0.3434
  693MOL0    Cl95541   3.749   5.431   6.661  0.1851 -0.4037  0.4111
  693MOL0     C95542   4.966   5.287   6.719 -0.3568 -0.1953 -0.4055
  693MOL0     C95543   5.101   5.329   6.740 -0.4301 -0.3521  0.2202
  693MOL0     O95544   5.292   5.694   6.639  0.5283  0.3634 -0.4179
  693MOL0     C95545   5.514   5.536   6.870 -0.5660  0.5177 -0.2600
  693MOL0     C95546   5.635   5.550   6.942 -0.3946 -0.5705  0.3161
  693MOL0     N95547   6.388   5.522   7.137  0.2911 -0.1181 -0.6176
  693MOL0     N95548   6.496   5.493   7.072  0.4309  0.0777 -0.2692
  693MOL0     C95549   5.930   6.169   6.884  0.9827  0.2730 -0.2597
  693MOL0     C95550   5.794   6.173   6.931 -0.5668  0.0061  0.3212
  693MOL0     C95551   5.455   6.199   7.250  0.1506 -0.4880  0.4107
  693MOL0     C95552   5.373   6.206   7.136  0.7574 -0.0491 -0.3439
  693MOL0     C95553   5.236   6.184   7.142  0.1992  0.2408  0.3243
  693MOL0     C95554   5.173   6.154   7.264  0.2111 -0.0105 -0.2710
  693MOL0     O95555   5.038   6.127   7.270  0.6162 -0.0050  0.0794
  693MOL0     C95556   4.977   6.088   7.391  0.8221  0.4137 -0.9858
  693MOL0     C95557   4.876   5.976   7.369  0.1060 -0.0758  0.0456
  693MOL0     C95558   4.746   6.014   7.284 -0.3461 -0.4669 -0.2234
  693MOL0     C95559   4.662   5.889   7.243  0.6730  0.3641 -0.2118
  693MOL0     C95560   4.544   5.879   7.334  0.1249 -0.6226  0.5329
  693MOL0     C95561   4.467   5.847   7.420 -0.1359  0.8106  0.4147
  693MOL0     C95562   5.265   6.153   7.379  0.6187  0.0879 -0.7173
  693MOL0     C95563   5.396   6.184   7.375  0.4470 -0.0478 -0.4261
  693MOL0     C95564   5.464   6.193   7.514 -0.6667 -0.0586  0.1245
  693MOL0     H95565   5.856   6.144   7.257 -2.0255 -1.5916 -1.0870
  693MOL0     H95566   6.092   6.129   7.180  0.2826  0.7999  0.3461
  693MOL0     H95567   6.224   5.992   7.048  0.2510 -1.3968 -2.0940
  693MOL0     H95568   6.314   6.148   7.056 -1.4725  1.0338  0.1051
  693MOL0     H95569   6.422   6.099   6.843 -0.9486  0.1913 -1.0399
  693MOL0     H95570   6.451   5.968   6.953 -1.6990 -1.4667  0.7556
  693MOL0     H95571   6.236   5.854   6.837  0.3695  1.0662  0.8294
  693MOL0     H95572   6.231   5.990   6.735  1.1638  0.5420 -0.0184
  693MOL0     H95573   6.353   5.781   6.642 -1.5307 -3.0680  2.8513
  693MOL0     H95574   6.480   5.907   6.659 -0.7520  0.4262 -0.8391
  693MOL0     H95575   6.427   5.693   6.867  4.1923 -2.5181  1.1035
  693MOL0     H95576   6.559   5.808   6.871  0.0033 -0.0882  0.6464
  693MOL0     H95577   6.495   5.597   6.651 -1.1743 -0.3277  0.7887
  693MOL0     H95578   6.639   5.708   6.669  1.7088 -2.6306 -0.3165
  693MOL0     H95579   6.698   5.591   6.888  1.6230  0.2047 -1.2088
  693MOL0     H95580   6.711   5.499   6.735 -1.7543  0.2191 -1.3747
  693MOL0     H95581   6.492   5.396   6.745 -0.0459 -0.1602 -0.8847
  693MOL0     H95582   6.618   5.337   6.855 -1.4641  0.0825  3.2381
  693MOL0     H95583   6.261   5.396   6.863 -2.2976  1.7629  0.7137
  693MOL0     H95584   6.153   5.565   7.196  0.3604  1.1960 -0.1244
  693MOL0     H95585   6.057   5.489   7.059 -1.1202  2.4616 -1.5565
  693MOL0     H95586   6.218   5.724   6.997  0.9902 -0.9768  0.9371
  693MOL0     H95587   6.089   5.660   6.910  3.1523  0.5666 -0.9035
  693MOL0     H95588   6.016   5.726   7.198 -1.4094  0.0526 -0.1296
  693MOL0     H95589   6.079   5.867   7.120 -0.8177 -0.2217 -0.2804
  693MOL0     H95590   5.828   5.865   7.093  2.2019  1.2904  0.1983
  693MOL0     H95591   5.915   5.850   6.941  0.8469 -2.1433 -0.8264
  693MOL0     H95592   5.723   5.860   6.827 -1.6304  1.1456 -0.1821
  693MOL0     H95593   5.603   5.929   6.671 -0.8836  1.8549 -3.8575
  693MOL0     H95594   5.419   5.916   6.707 -1.0647 -1.4935 -2.7043
  693MOL0     H95595   5.496   5.843   6.578 -0.8665  0.3217  0.1427
  693MOL0     H95596   5.038   5.671   6.695 -2.3576  0.1569  0.4854
  693MOL0     H95597   4.832   5.591   6.614  0.5901  0.7715  1.2180
  693MOL0     H95598   4.656   5.290   6.824  4.5958 -0.3097 -0.6526
  693MOL0     H95599   4.681   5.456   6.801 -0.2982  0.7188 -0.5245
  693MOL0     H95600   4.513   5.478   6.627  1.4099 -1.6020 -2.0170
  693MOL0     H95601   4.497   5.297   6.629  0.0889 -0.2589 -0.0383
  693MOL0     H95602   4.427   5.482   6.860 -3.0911  1.5112 -1.2077
  693MOL0     H95603   4.399   5.304   6.858  0.5752 -1.0626 -0.2120
  693MOL0     H95604   4.272   5.347   6.635 -0.7721  0.5916  0.2256
  693MOL0     H95605   4.252   5.515   6.706 -2.9544  0.7647  2.2119
  693MOL0     H95606   4.184   5.271   6.860  0.6237  1.1833  1.7097
  693MOL0     H95607   4.143   5.441   6.894  5.0676 -0.4387  0.4762
  693MOL0     H95608   4.047   5.269   6.657 -0.3564 -0.5996 -0.1585
  693MOL0     H95609   3.998   5.439   6.680  0.0714  0.5541  1.0498
  693MOL0     H95610   3.886   5.404   6.889  0.2366 -0.2030 -0.0164
  693MOL0     H95611   3.929   5.236   6.902 -2.4399 -0.1782  1.3735
  693MOL0     H95612   3.694   5.268   6.802 -0.8498  0.6864 -1.7274
  693MOL0     H95613   3.797   5.195   6.681 -1.6543 -1.2164  0.5109
  693MOL0     H95614   4.933   5.187   6.743 -0.4072  0.0942  0.8335
  693MOL0     H95615   5.180   5.258   6.764 -0.7503 -1.6110 -2.1898
  693MOL0     H95616   5.458   5.448   6.899  0.9324 -0.6773 -0.8751
  693MOL0     H95617   5.667   5.480   7.018  0.2462  0.2099  0.7834
  693MOL0     H95618   5.955   6.186   6.780  0.0080 -0.1835 -0.5816
  693MOL0     H95619   5.709   6.180   6.864  0.2184  2.1235 -0.5585
  693MOL0     H95620   5.414   6.221   7.037  0.4821 -3.3553 -1.0768
  693MOL0     H95621   5.181   6.188   7.048  2.4444 -1.1094 -1.1489
  693MOL0     H95622   5.051   6.049   7.461  0.8137 -1.3081 -1.8913
  693MOL0     H95623   4.927   6.177   7.431  1.0027  1.8125 -3.6535
  693MOL0     H95624   4.844   5.933   7.465  0.5345 -0.6491 -0.0683
  693MOL0     H95625   4.910   5.885   7.319 -0.4956 -0.7128  0.7663
  693MOL0     H95626   4.689   6.084   7.346 -0.2977 -0.5937 -0.0330
  693MOL0     H95627   4.784   6.052   7.189  2.5309 -0.0360  1.0056
  693MOL0     H95628   4.726   5.801   7.255  1.8705  0.8720 -2.1927
  693MOL0     H95629   4.623   5.906   7.142 -0.0202 -0.1909 -0.0409
  693MOL0     H95630   4.388   5.841   7.492  0.1891  0.8115  0.7724
  693MOL0     H95631   5.228   6.132   7.479 -1.9393 -0.0276 -1.6208
  693MOL0     H95632   5.417   6.126   7.587 -0.2655  0.9946  1.3856
  693MOL0     H95633   5.571   6.173   7.511  0.0886  2.9808  2.0019
  693MOL0     H95634   5.463   6.298   7.545 -1.5010  0.2044 -0.7256
  694MOL0     O95635   5.551   9.067   4.598 -0.7109  0.5421  0.1587
  694MOL0     C95636   5.597   9.160   4.535  0.4497  0.1271 -0.4596
  694MOL0     O95637   5.711   9.168   4.465 -0.1089 -0.0858 -0.6886
  694MOL0     C95638   5.793   9.065   4.487 -0.3512 -0.4135  0.1011
  694MOL0     C95639   5.901   9.099   4.567  0.1021  0.3734 -0.3068
  694MOL0     C95640   6.016   9.019   4.574  0.5165 -0.0055 -0.8351
  694MOL0     C95641   6.007   8.894   4.510 -1.1898 -0.0818  1.2113
  694MOL0     O95642   6.128   8.827   4.507  0.3084  0.2589 -0.9472
  694MOL0     C95643   6.131   8.686   4.522  0.9860 -0.2071 -0.3763
  694MOL0     C95644   6.275   8.634   4.507 -0.4216 -0.2499 -0.0953
  694MOL0     C95645   6.321   8.655   4.366  0.1248  0.2734  0.0091
  694MOL0     C95646   6.440   8.580   4.315 -0.4122  0.1104  0.6716
  694MOL0     C95647   6.476   8.636   4.176 -0.3514 -0.1262  0.2111
  694MOL0     C95648   6.586   8.560   4.101  0.0053 -0.0232 -0.1442
  694MOL0     C95649   6.720   8.588   4.171 -0.1129 -0.1079  0.9074
  694MOL0     C95650   6.825   8.514   4.085  0.2514 -0.9673 -0.1584
  694MOL0     N95651   6.959   8.558   4.123  0.3832  0.0561  0.5790
  694MOL0     C95652   7.032   8.663   4.072  0.1041  0.0010  0.2143
  694MOL0     C95653   7.165   8.637   4.105 -0.1103  0.0950  0.1503
  694MOL0     C95654   7.279   8.706   4.057 -0.2942 -0.3354 -0.1439
  694MOL0     C95655   7.317   8.830   4.138  0.6719  0.3599 -1.3066
  694MOL0     C95656   7.425   8.900   4.064  0.3652 -0.4360 -0.4737
  694MOL0     C95657   7.512   8.987   4.153 -0.0768 -0.2078  0.0796
  694MOL0     O95658   7.574   8.905   4.256 -0.6181  0.0632  0.1058
  694MOL0     C95659   7.711   8.913   4.290  1.4907  0.1785  0.3678
  694MOL0     C95660   7.805   8.994   4.223 -0.0703 -0.0426 -0.2217
  694MOL0     C95661   7.939   9.004   4.278 -0.1293  0.6802 -0.0425
  694MOL0     C95662   8.035   9.082   4.198  0.2858  0.0960 -0.0363
  694MOL0     C95663   7.965   8.923   4.394 -0.5658 -0.4963  0.0554
  694MOL0     C95664   8.106   8.917   4.448 -1.0316  0.8924  0.3351
  694MOL0     O95665   8.215   8.980   4.376 -0.0835 -0.9237  0.2770
  694MOL0     C95666   8.333   9.015   4.439  0.2588  0.2761  0.3157
  694MOL0     C95667   8.445   9.044   4.352  0.8455 -0.3501  0.0419
  694MOL0     C95668   8.562   9.083   4.414 -0.9615  0.3491  1.0725
  694MOL0     C95669   8.583   9.095   4.548  0.1171  0.3547  0.2424
  694MOL0     O95670   8.707   9.122   4.612  0.0841 -0.1274  0.2062
  694MOL0     C95671   8.776   9.238   4.562  0.0456 -0.0519  0.0659
  694MOL0     C95672   8.928   9.230   4.598 -0.0932 -0.0244 -0.0782
  694MOL0     C95673   8.955   9.238   4.746  0.2588  0.0948  1.5366
  694MOL0     C95674   9.109   9.260   4.765 -1.1737  0.1004 -0.4876
  694MOL0     C95675   9.140   9.284   4.911 -0.5489 -0.0987 -1.1065
  694MOL0     C95676   9.288   9.322   4.937  0.0872 -0.2039 -0.0885
  694MOL0     C95677   9.398   9.235   4.883 -0.3006 -0.0181  0.2947
  694MOL0     C95678   9.531   9.310   4.860  0.0237  0.0796 -0.4031
  694MOL0    Cl95679   9.576   9.391   5.011  0.4348  0.4440  0.5710
  694MOL0     C95680   8.475   9.076   4.628 -0.5510 -0.3618  0.6898
  694MOL0     C95681   8.348   9.039   4.573 -0.0178  0.2325 -0.0861
  694MOL0     O95682   8.124   8.843   4.551  0.7385 -0.2825  0.2743
  694MOL0     C95683   7.867   8.840   4.457 -0.8578 -0.4721  0.9988
  694MOL0     C95684   7.741   8.835   4.399  0.1632 -0.0822  0.0232
  694MOL0     N95685   7.168   8.504   4.158 -0.6864  0.3307 -0.3714
  694MOL0     N95686   7.046   8.467   4.170 -0.7997  0.6741 -0.4847
  694MOL0     C95687   5.889   8.852   4.441 -1.3474  0.2805 -1.2002
  694MOL0     C95688   5.789   8.943   4.428  1.4301 -0.4328  0.8878
  694MOL0     C95689   5.525   9.290   4.524 -0.4186 -0.7031  0.9883
  694MOL0     C95690   5.533   9.364   4.402  0.8285  0.1306 -0.0457
  694MOL0     C95691   5.465   9.482   4.384  0.5842  0.1297  0.5854
  694MOL0     C95692   5.388   9.539   4.480  0.0994  0.3747 -0.0311
  694MOL0     O95693   5.326   9.656   4.467  0.6222 -0.4808  0.1473
  694MOL0     C95694   5.405   9.773   4.473  0.0225  0.2150 -0.5995
  694MOL0     C95695   5.464   9.799   4.614  0.7989  0.5950 -0.3012
  694MOL0     C95696   5.566   9.908   4.588 -0.9101 -0.5467  0.6587
  694MOL0     C95697   5.651   9.935   4.717  0.6719 -0.4400  0.7497
  694MOL0     C95698   5.577   9.995   4.826  0.5498  0.3218  0.2962
  694MOL0     C95699   5.500  10.061   4.901  0.5957 -1.0518 -0.4755
  694MOL0     C95700   5.371   9.463   4.601  0.8736  0.0833  0.1405
  694MOL0     C95701   5.440   9.337   4.624  0.7544 -0.3027  0.6522
  694MOL0     C95702   5.434   9.290   4.766 -0.1288 -0.2502 -0.3133
  694MOL0     H95703   5.902   9.203   4.597 -0.8486 -0.0010  1.0767
  694MOL0     H95704   6.105   9.047   4.629 -1.1005  2.0231  0.9112
  694MOL0     H95705   6.064   8.657   4.440 -0.2282 -0.4649  0.6708
  694MOL0     H95706   6.097   8.662   4.623  1.4521 -0.7750 -0.3478
  694MOL0     H95707   6.343   8.688   4.573  1.1199 -1.8322 -0.3402
  694MOL0     H95708   6.267   8.530   4.538 -1.2984 -1.2719 -3.4004
  694MOL0     H95709   6.237   8.641   4.297  0.1675 -3.1480  0.5035
  694MOL0     H95710   6.357   8.757   4.351  2.3216 -0.8135 -3.4724
  694MOL0     H95711   6.525   8.581   4.384  2.1722 -1.2141 -2.2311
  694MOL0     H95712   6.406   8.476   4.304  0.0933 -0.0090  0.1229
  694MOL0     H95713   6.497   8.744   4.176 -0.6833 -0.0462  1.1662
  694MOL0     H95714   6.387   8.621   4.115  1.4931  0.2948 -2.8201
  694MOL0     H95715   6.574   8.452   4.092 -0.1192  0.1156 -1.9185
  694MOL0     H95716   6.593   8.604   4.001 -0.9116  0.6574  0.0731
  694MOL0     H95717   6.716   8.546   4.272  1.6067  2.4600  2.1380
  694MOL0     H95718   6.741   8.694   4.185 -0.2378  0.1428 -0.5969
  694MOL0     H95719   6.810   8.407   4.103  0.4058 -1.2834 -1.7805
  694MOL0     H95720   6.814   8.538   3.979 -0.0038  0.1741  0.1198
  694MOL0     H95721   6.994   8.746   4.013 -0.6437  0.8794  1.8462
  694MOL0     H95722   7.264   8.736   3.953  1.6084 -2.6735 -1.2004
  694MOL0     H95723   7.360   8.632   4.060 -1.8789 -2.3250 -2.6699
  694MOL0     H95724   7.236   8.903   4.151  1.7027  1.1774  1.2169
  694MOL0     H95725   7.351   8.807   4.240 -2.0316  1.0426 -0.1506
  694MOL0     H95726   7.497   8.833   4.016 -0.0330 -0.9187 -0.4051
  694MOL0     H95727   7.380   8.976   3.999 -1.2657 -0.0550  1.0201
  694MOL0     H95728   7.589   9.027   4.087 -0.5770  0.8932  0.1358
  694MOL0     H95729   7.466   9.068   4.211 -2.2874 -1.1715 -0.2063
  694MOL0     H95730   7.781   9.069   4.148 -1.0693  2.0193  2.0027
  694MOL0     H95731   8.093   9.150   4.260  0.1792 -0.3534  0.5658
  694MOL0     H95732   7.981   9.140   4.122  0.6227  0.3816 -0.0585
  694MOL0     H95733   8.105   9.014   4.149  2.1208  1.7673  0.1274
  694MOL0     H95734   8.438   9.025   4.245 -0.8388 -1.5165  0.3292
  694MOL0     H95735   8.652   9.096   4.355  0.4217  1.4455  3.3126
  694MOL0     H95736   8.762   9.258   4.455 -2.2847 -0.6888  0.2010
  694MOL0     H95737   8.734   9.313   4.630 -2.1620  0.3861 -1.6623
  694MOL0     H95738   8.971   9.141   4.551 -1.1657 -0.1917 -0.7768
  694MOL0     H95739   8.975   9.313   4.545 -1.8526  1.1151  0.0641
  694MOL0     H95740   8.919   9.149   4.799  1.1021 -2.0903 -1.3442
  694MOL0     H95741   8.909   9.328   4.789 -0.3959  0.5315 -0.0113
  694MOL0     H95742   9.150   9.341   4.705 -1.7821  0.6506 -0.1730
  694MOL0     H95743   9.162   9.171   4.730 -2.2052 -2.7434  4.2481
  694MOL0     H95744   9.069   9.360   4.944 -2.5730 -1.1115 -2.8634
  694MOL0     H95745   9.122   9.193   4.969 -0.4141  1.5739  1.7290
  694MOL0     H95746   9.301   9.320   5.046  1.7522  0.6131 -0.2458
  694MOL0     H95747   9.305   9.425   4.905 -1.6071 -0.3870 -1.7270
  694MOL0     H95748   9.371   9.192   4.786  1.4090 -1.0052  0.2165
  694MOL0     H95749   9.416   9.145   4.943  4.0673 -1.2811 -2.4631
  694MOL0     H95750   9.509   9.381   4.779  1.1454 -1.0145 -1.7213
  694MOL0     H95751   9.611   9.246   4.823  0.2598  0.9996 -1.5593
  694MOL0     H95752   8.474   9.093   4.735 -0.3122 -1.9083  0.9710
  694MOL0     H95753   8.267   9.012   4.640  2.0013 -2.7781  1.3733
  694MOL0     H95754   7.891   8.776   4.542 -0.1930 -0.1515  1.0619
  694MOL0     H95755   7.674   8.763   4.445  0.5966 -0.1313  0.5840
  694MOL0     H95756   5.882   8.757   4.389  3.6455 -2.9653  3.0624
  694MOL0     H95757   5.698   8.926   4.371 -0.1391  2.9407  2.0989
  694MOL0     H95758   5.581   9.314   4.318  0.6627 -2.5109  1.3435
  694MOL0     H95759   5.483   9.527   4.287  1.1738  0.0601  0.6559
  694MOL0     H95760   5.494   9.775   4.408 -0.5401  0.2927 -1.3772
  694MOL0     H95761   5.342   9.858   4.450  2.3926  1.8579 -1.4130
  694MOL0     H95762   5.510   9.708   4.653 -0.5384  0.3709  0.8173
  694MOL0     H95763   5.381   9.824   4.681 -1.2713 -1.6459 -1.8547
  694MOL0     H95764   5.640   9.882   4.511 -2.3828 -0.5323 -0.8195
  694MOL0     H95765   5.509   9.992   4.548  2.7220  0.7091 -2.5360
  694MOL0     H95766   5.736  10.002   4.698  0.5541  0.0068  1.7522
  694MOL0     H95767   5.706   9.845   4.744  0.8041 -0.1893  1.3147
  694MOL0     H95768   5.436  10.112   4.970  2.8069  0.1567  0.7562
  694MOL0     H95769   5.315   9.506   4.683 -0.9812  1.9553 -1.9553
  694MOL0     H95770   5.413   9.183   4.771 -1.8869  0.1278  1.9135
  694MOL0     H95771   5.532   9.302   4.813 -0.7208  2.1159  0.4936
  694MOL0     H95772   5.358   9.331   4.834 -0.0240 -0.7979  0.1399
  695MOL0     O95773  10.184   9.313   2.205 -0.2562 -0.1470  0.5512
  695MOL0     C95774  10.093   9.239   2.252 -0.3524  0.3566  0.4718
  695MOL0     O95775  10.100   9.106   2.285 -0.3668 -0.0507 -0.3654
  695MOL0     C95776  10.224   9.055   2.282 -0.3281  0.3558  0.3856
  695MOL0     C95777  10.253   8.966   2.180  0.1193  0.8244  0.1005
  695MOL0     C95778  10.388   8.940   2.149 -0.7022 -0.8130  0.6297
  695MOL0     C95779  10.495   8.988   2.229  0.1904 -0.4681  0.0479
  695MOL0     O95780  10.625   8.966   2.204 -0.0144 -0.1429  0.1224
  695MOL0     C95781  10.664   8.864   2.108  0.2903 -0.6096 -0.1182
  695MOL0     C95782  10.814   8.873   2.079  0.0300 -0.6847  0.4065
  695MOL0     C95783  10.859   9.004   2.024  0.3066 -0.6612  0.0626
  695MOL0     C95784  11.014   8.989   1.985  0.0345  0.1216 -0.0870
  695MOL0     C95785  11.056   9.111   1.907  0.2177  0.1667 -0.0010
  695MOL0     C95786  11.205   9.081   1.851 -0.4555 -0.5865  0.4009
  695MOL0     C95787  11.253   9.173   1.734 -0.6321  1.2499  0.0098
  695MOL0     C95788  11.271   9.325   1.778 -1.0796 -0.1112  0.9740
  695MOL0     N95789  11.357   9.329   1.889 -0.5888  0.4788  0.0646
  695MOL0     C95790  11.490   9.297   1.895 -0.1010 -0.1015  0.3609
  695MOL0     C95791  11.525   9.335   2.016  0.0085  0.5283 -0.1524
  695MOL0     C95792  11.663   9.352   2.068 -0.1771 -0.0821 -0.4613
  695MOL0     C95793  11.738   9.477   2.016 -0.5680 -0.2264  0.4501
  695MOL0     C95794  11.873   9.503   2.092 -0.8036  0.1048  0.2861
  695MOL0     C95795  11.966   9.605   2.027 -0.0501  0.2163 -0.1458
  695MOL0     O95796  12.104   9.582   2.050  0.6698 -0.3791 -0.4516
  695MOL0     C95797  12.194   9.653   1.972  0.4260  0.7129 -0.2541
  695MOL0     C95798  12.158   9.754   1.878 -0.3838 -0.4256  0.4027
  695MOL0     C95799  12.253   9.811   1.795 -0.0037  0.6661 -0.1768
  695MOL0     C95800  12.204   9.913   1.699 -0.5664  0.0215  0.5819
  695MOL0     C95801  12.388   9.765   1.791 -0.7053  0.7520 -0.3961
  695MOL0     C95802  12.510   9.818   1.720 -1.0663  0.2127 -0.8476
  695MOL0     O95803  12.501   9.943   1.678  0.5704  0.3187  0.0921
  695MOL0     C95804  12.614   9.992   1.628  0.1535  0.5507 -0.1119
  695MOL0     C95805  12.713  10.038   1.714  0.2573  0.0042 -0.2537
  695MOL0     C95806  12.829  10.098   1.664 -0.4799 -0.5015  0.0638
  695MOL0     C95807  12.850  10.112   1.523 -0.1001 -0.4866  0.3587
  695MOL0     O95808  12.970  10.170   1.486 -0.7248  0.3723 -0.2444
  695MOL0     C95809  12.970  10.215   1.352 -0.4764  0.2087  0.3749
  695MOL0     C95810  13.120  10.252   1.322  0.7912 -0.3299 -0.2060
  695MOL0     C95811  13.128  10.345   1.200  0.1778 -0.0240 -0.3566
  695MOL0     C95812  13.274  10.367   1.167 -0.4035 -0.1375  0.5806
  695MOL0     C95813  13.288  10.463   1.058  0.4611  0.8563 -0.1359
  695MOL0     C95814  13.442  10.506   1.043  0.3303 -1.2910 -0.1294
  695MOL0     C95815  13.490  10.600   1.166  0.8947  0.4639  0.3306
  695MOL0     C95816  13.636  10.631   1.149  0.2807  0.0713  0.2437
  695MOL0    Cl95817  13.731  10.472   1.171 -0.1907  0.3268 -0.2933
  695MOL0     C95818  12.748  10.065   1.439  0.3623  1.3230  0.1955
  695MOL0     C95819  12.637  10.007   1.485  0.2743  0.8713 -0.2588
  695MOL0     O95820  12.603   9.739   1.698 -0.5752 -0.2138 -0.0420
  695MOL0     C95821  12.427   9.668   1.891 -0.7121 -0.1605  0.3469
  695MOL0     C95822  12.328   9.619   1.981 -0.5794 -0.1979  0.0697
  695MOL0     N95823  11.414   9.370   2.090 -0.3678  0.2095  0.0650
  695MOL0     N95824  11.311   9.360   2.010 -0.4889 -1.0293 -0.3219
  695MOL0     C95825  10.462   9.060   2.342 -0.5836  0.1952 -0.7598
  695MOL0     C95826  10.335   9.101   2.367 -0.4830 -0.3175  0.0342
  695MOL0     C95827   9.960   9.299   2.261 -0.4824 -0.8537 -0.5413
  695MOL0     C95828   9.917   9.380   2.154 -1.0855  0.5625 -0.7939
  695MOL0     C95829   9.786   9.427   2.151 -0.2184 -0.0477  0.2607
  695MOL0     C95830   9.694   9.394   2.242  1.0759  0.2857 -0.5516
  695MOL0     O95831   9.563   9.439   2.233 -1.3236 -0.4493 -0.3165
  695MOL0     C95832   9.474   9.391   2.333 -1.2944  0.4570  0.0059
  695MOL0     C95833   9.334   9.434   2.291 -0.0742  0.1048 -0.7891
  695MOL0     C95834   9.320   9.589   2.274 -0.2558 -0.3778 -0.7469
  695MOL0     C95835   9.177   9.633   2.260 -0.2700  0.3288  0.6437
  695MOL0     C95836   9.100   9.628   2.381  0.3679  0.1377 -1.0744
  695MOL0     C95837   9.035   9.634   2.486 -0.0064 -0.1543  1.4796
  695MOL0     C95838   9.736   9.306   2.354 -0.1096  0.5138  1.5227
  695MOL0     C95839   9.868   9.265   2.363  0.3385  0.0416  0.0676
  695MOL0     C95840   9.901   9.178   2.485 -0.4853  0.1686 -0.7083
  695MOL0     H95841  10.169   8.930   2.122  0.1452  1.7424 -0.5499
  695MOL0     H95842  10.404   8.876   2.063 -1.0289  0.6584 -0.5791
  695MOL0     H95843  10.611   8.885   2.014 -1.7952  0.4766  1.2304
  695MOL0     H95844  10.624   8.768   2.143  2.2496 -1.4585 -0.0905
  695MOL0     H95845  10.866   8.866   2.175 -1.2336 -0.4856  1.1277
  695MOL0     H95846  10.833   8.797   2.002 -0.5267  3.6830 -4.5938
  695MOL0     H95847  10.797   9.032   1.938  0.7455  0.4137  0.0837
  695MOL0     H95848  10.844   9.083   2.098  1.1894 -0.9019  0.5112
  695MOL0     H95849  11.072   8.989   2.078 -0.2034  1.0154  0.0711
  695MOL0     H95850  11.025   8.897   1.927 -4.6075 -1.4379  1.0322
  695MOL0     H95851  11.056   9.204   1.963 -1.8616  0.2666 -0.0642
  695MOL0     H95852  10.979   9.130   1.831 -0.2856 -1.4771  0.0475
  695MOL0     H95853  11.283   9.055   1.923 -0.8506 -0.5954  0.8321
  695MOL0     H95854  11.209   8.984   1.800 -1.3267  0.3609 -1.5574
  695MOL0     H95855  11.181   9.167   1.652  0.2848  0.0129 -0.7390
  695MOL0     H95856  11.341   9.124   1.692 -0.9279  0.3300  0.4215
  695MOL0     H95857  11.306   9.386   1.695 -0.7674 -2.5405 -0.7793
  695MOL0     H95858  11.174   9.369   1.800 -0.0787  0.8401  4.0022
  695MOL0     H95859  11.547   9.266   1.808 -0.8626  1.5559 -0.7838
  695MOL0     H95860  11.722   9.263   2.044 -0.0078 -0.2683  0.5885
  695MOL0     H95861  11.659   9.347   2.177  0.2617  1.7035 -0.3390
  695MOL0     H95862  11.761   9.461   1.911  0.8892 -2.0052  0.9805
  695MOL0     H95863  11.664   9.557   2.025 -1.1840 -0.4957 -1.7283
  695MOL0     H95864  11.845   9.539   2.191 -1.9275 -2.9997  1.1957
  695MOL0     H95865  11.919   9.408   2.118 -1.7287 -0.7043 -0.9505
  695MOL0     H95866  11.953   9.609   1.918 -3.6791 -1.0044  0.0998
  695MOL0     H95867  11.933   9.704   2.059  1.9560  0.9949 -0.3361
  695MOL0     H95868  12.057   9.794   1.873 -0.1946 -0.0981 -2.8026
  695MOL0     H95869  12.106   9.952   1.729  0.3135  2.5664  0.4521
  695MOL0     H95870  12.192   9.874   1.598 -2.7676  0.9777  0.4132
  695MOL0     H95871  12.257  10.009   1.700 -1.4012  0.5137 -0.0506
  695MOL0     H95872  12.707  10.021   1.822 -1.6010 -2.3155 -0.6394
  695MOL0     H95873  12.908  10.131   1.731  0.9042  0.4489 -1.8889
  695MOL0     H95874  12.947  10.142   1.274  3.2214 -2.3276  1.4175
  695MOL0     H95875  12.903  10.300   1.333  0.0614  0.1974 -1.8316
  695MOL0     H95876  13.158  10.309   1.407  1.3944  0.9457 -1.2955
  695MOL0     H95877  13.173  10.156   1.319  1.1773 -0.1113 -0.5215
  695MOL0     H95878  13.086  10.444   1.220  1.3355  0.9746 -2.4378
  695MOL0     H95879  13.071  10.310   1.113  0.2844 -0.9392 -0.0731
  695MOL0     H95880  13.327  10.277   1.134  1.5066  1.2688 -0.3325
  695MOL0     H95881  13.324  10.398   1.259  1.8108  1.4098 -1.0628
  695MOL0     H95882  13.256  10.416   0.964 -3.5876  2.1219  0.4518
  695MOL0     H95883  13.242  10.560   1.079  0.2010  0.3446  1.7799
  695MOL0     H95884  13.433  10.580   0.962 -0.7865  1.5094  2.3378
  695MOL0     H95885  13.508  10.423   1.019 -0.6591 -2.4784  1.0769
  695MOL0     H95886  13.478  10.550   1.263  1.3771  0.6755  0.5017
  695MOL0     H95887  13.433  10.693   1.156 -0.1816 -0.3742 -1.9518
  695MOL0     H95888  13.660  10.707   1.223 -0.2010 -1.3644  1.9424
  695MOL0     H95889  13.659  10.683   1.055  0.5103 -1.1914 -0.4279
  695MOL0     H95890  12.768  10.066   1.333  2.0057  1.9156  0.4750
  695MOL0     H95891  12.559   9.968   1.421  0.6728 -2.6356  1.1693
  695MOL0     H95892  12.534   9.655   1.904  0.0783  2.1398 -2.5570
  695MOL0     H95893  12.355   9.554   2.063 -1.8609 -0.5304  0.2492
  695MOL0     H95894  10.536   9.100   2.411 -0.8353  1.4821 -1.1990
  695MOL0     H95895  10.316   9.153   2.461  0.7317  0.3985 -0.0925
  695MOL0     H95896   9.991   9.403   2.077 -2.5313  0.4606 -2.2690
  695MOL0     H95897   9.743   9.492   2.075 -1.3174 -1.7551 -0.6455
  695MOL0     H95898   9.473   9.284   2.357 -2.1469  0.4673  0.0557
  695MOL0     H95899   9.493   9.435   2.432  0.0631 -1.6699  0.7842
  695MOL0     H95900   9.250   9.400   2.353  0.7073 -1.9784 -0.8160
  695MOL0     H95901   9.311   9.386   2.196 -0.5545  0.5843 -0.9274
  695MOL0     H95902   9.366   9.641   2.359 -0.2796  0.4306 -1.2137
  695MOL0     H95903   9.374   9.616   2.182  0.3277 -2.5377 -1.1003
  695MOL0     H95904   9.140   9.577   2.174 -0.0755 -3.0734  2.6066
  695MOL0     H95905   9.169   9.736   2.224  2.0787  0.1288 -0.6937
  695MOL0     H95906   8.970   9.631   2.571 -1.0752  3.2508  0.9152
  695MOL0     H95907   9.669   9.279   2.434 -2.1167 -0.1180 -0.2707
  695MOL0     H95908   9.850   9.218   2.573  0.6152 -1.2180  0.6434
  695MOL0     H95909   9.865   9.075   2.472 -3.0375  1.2858 -3.5436
  695MOL0     H95910  10.007   9.191   2.512 -1.4113  2.7728  2.2480
  696MOL0     O95911   7.009   4.365   6.795 -0.2519 -0.2670  0.6247
  696MOL0     C95912   6.964   4.483   6.819 -0.4594  0.5694  0.1705
  696MOL0     O95913   7.023   4.567   6.903 -0.5355 -0.6845  0.5461
  696MOL0     C95914   7.137   4.548   6.972 -0.1617 -0.3651  0.3616
  696MOL0     C95915   7.265   4.524   6.915 -0.0656 -0.6764  0.5143
  696MOL0     C95916   7.378   4.504   7.000 -0.2417  0.6427 -0.2032
  696MOL0     C95917   7.368   4.495   7.139  0.6656 -0.1868  0.5599
  696MOL0     O95918   7.486   4.482   7.211  0.1922 -0.0424 -0.6453
  696MOL0     C95919   7.470   4.513   7.347  0.7257  0.5391  0.2920
  696MOL0     C95920   7.606   4.512   7.412  0.0286 -0.0436  0.2771
  696MOL0     C95921   7.608   4.460   7.561 -0.5516  0.4584  1.0858
  696MOL0     C95922   7.600   4.570   7.657  0.4731 -0.7865  0.0627
  696MOL0     C95923   7.564   4.513   7.794  0.3747  0.2448 -0.8077
  696MOL0     C95924   7.590   4.613   7.900 -1.5933  0.3201 -0.4364
  696MOL0     C95925   7.561   4.538   8.024  0.3880  0.0635  0.7604
  696MOL0     C95926   7.551   4.646   8.145  0.5544 -0.3385  0.1072
  696MOL0     N95927   7.669   4.734   8.152  0.2481 -0.0009  0.0008
  696MOL0     C95928   7.782   4.691   8.214  0.9158 -0.1382  0.7667
  696MOL0     C95929   7.876   4.789   8.198  0.0994  1.0484  0.2244
  696MOL0     C95930   8.012   4.809   8.262  0.1106  0.1033  0.0997
  696MOL0     C95931   8.111   4.698   8.221  0.1104 -0.1850 -0.2276
  696MOL0     C95932   8.103   4.574   8.319  0.8520 -0.6536  0.2218
  696MOL0     C95933   8.174   4.452   8.265  0.5047  0.1722  0.6919
  696MOL0     O95934   8.155   4.351   8.366 -0.1842 -0.2156 -0.0528
  696MOL0     C95935   8.254   4.358   8.465  0.1140  0.5163  0.0850
  696MOL0     C95936   8.381   4.309   8.453  0.7184 -0.3220  0.0230
  696MOL0     C95937   8.479   4.326   8.552 -0.0415  0.5076 -0.7202
  696MOL0     C95938   8.608   4.259   8.515  0.3902  0.1254 -0.8008
  696MOL0     C95939   8.441   4.380   8.680 -0.9285 -0.3901 -0.3205
  696MOL0     C95940   8.525   4.386   8.798 -0.0608  0.1170 -0.6592
  696MOL0     O95941   8.652   4.333   8.786 -0.2489 -0.2993 -0.9585
  696MOL0     C95942   8.722   4.310   8.898  1.0645  0.4879 -0.1941
  696MOL0     C95943   8.680   4.251   9.016  0.2461 -0.5845  0.1151
  696MOL0     C95944   8.778   4.230   9.117  0.3698 -0.1721 -0.0180
  696MOL0     C95945   8.910   4.268   9.106 -0.4664  0.2306 -0.4513
  696MOL0     O95946   8.994   4.266   9.212 -0.6491 -0.8986 -0.6552
  696MOL0     C95947   9.126   4.315   9.199 -0.0436  0.2258 -0.1158
  696MOL0     C95948   9.197   4.349   9.334  0.3972 -0.2375  0.4328
  696MOL0     C95949   9.340   4.374   9.315  0.1849  0.3150 -0.9330
  696MOL0     C95950   9.419   4.361   9.449  0.3661  0.3622  1.2475
  696MOL0     C95951   9.568   4.379   9.411 -0.3823 -0.2774  0.1830
  696MOL0     C95952   9.638   4.411   9.543  0.0429 -0.0833  0.1130
  696MOL0     C95953   9.780   4.465   9.534 -0.3915 -0.5450  0.2878
  696MOL0     C95954   9.863   4.453   9.665  0.5408 -0.3411  0.1339
  696MOL0    Cl95955   9.939   4.287   9.681 -0.3439 -0.2458  0.0182
  696MOL0     C95956   8.948   4.318   8.981 -0.6087 -0.8695 -1.4197
  696MOL0     C95957   8.854   4.341   8.885  0.0889 -0.5740  0.2905
  696MOL0     O95958   8.477   4.436   8.904 -0.2998  0.2962  0.2571
  696MOL0     C95959   8.313   4.426   8.689  0.6259 -0.0780 -0.0945
  696MOL0     C95960   8.220   4.414   8.588  0.5818 -0.4948 -1.4906
  696MOL0     N95961   7.811   4.891   8.118  0.2138 -0.5111  0.2116
  696MOL0     N95962   7.691   4.851   8.085 -0.5995  0.2753 -0.2788
  696MOL0     C95963   7.239   4.520   7.195 -0.1713 -0.9230 -1.0582
  696MOL0     C95964   7.126   4.546   7.111 -0.4560  0.2102 -0.2427
  696MOL0     C95965   6.827   4.520   6.766  0.8518 -0.0496  0.8764
  696MOL0     C95966   6.771   4.648   6.796 -1.0161  0.9556  0.1372
  696MOL0     C95967   6.665   4.696   6.722  0.6384 -0.5243 -0.5241
  696MOL0     C95968   6.591   4.611   6.643  0.0919 -0.2689 -0.0887
  696MOL0     O95969   6.479   4.663   6.587 -0.7818  0.6932 -0.4461
  696MOL0     C95970   6.399   4.593   6.492  0.0478 -0.1376  0.2391
  696MOL0     C95971   6.300   4.693   6.440  0.7913  0.0379 -0.4372
  696MOL0     C95972   6.179   4.711   6.531  0.4210 -0.4369  0.6625
  696MOL0     C95973   6.211   4.781   6.662  0.0629  0.6021 -0.2116
  696MOL0     C95974   6.084   4.821   6.731  0.1426  0.2307  0.1464
  696MOL0     C95975   5.982   4.859   6.782  1.0183  0.3361 -0.6805
  696MOL0     C95976   6.633   4.480   6.621  0.3036 -0.7718  0.0720
  696MOL0     C95977   6.750   4.429   6.677 -0.1239 -0.4316  0.2501
  696MOL0     C95978   6.806   4.307   6.615  0.3651  0.0059 -0.2300
  696MOL0     H95979   7.271   4.536   6.808 -0.7988 -0.7589  0.4548
  696MOL0     H95980   7.479   4.495   6.960  0.4061  0.8195  1.3075
  696MOL0     H95981   7.418   4.429   7.394  1.7073 -0.5311 -0.4810
  696MOL0     H95982   7.414   4.605   7.367  2.4950  1.1506  2.9395
  696MOL0     H95983   7.664   4.437   7.356 -1.8433 -1.2822 -0.0925
  696MOL0     H95984   7.646   4.613   7.401 -1.0994  1.4715  6.4313
  696MOL0     H95985   7.528   4.387   7.576 -0.4540 -0.2469 -1.2971
  696MOL0     H95986   7.706   4.413   7.572 -0.4453  0.8851  2.0630
  696MOL0     H95987   7.695   4.624   7.653 -0.6965  1.3913  0.0558
  696MOL0     H95988   7.521   4.646   7.646  0.2157 -1.0301  0.2148
  696MOL0     H95989   7.620   4.419   7.800 -1.0811 -0.8232 -2.6888
  696MOL0     H95990   7.459   4.481   7.792  0.8193 -1.3567 -0.0017
  696MOL0     H95991   7.694   4.645   7.886 -1.6114  0.4872 -0.1980
  696MOL0     H95992   7.530   4.705   7.905  0.7619  1.8892  1.2087
  696MOL0     H95993   7.632   4.457   8.046 -1.3217 -1.5910  0.4475
  696MOL0     H95994   7.465   4.486   8.024 -0.3913  1.4476  0.0677
  696MOL0     H95995   7.465   4.712   8.134  2.0187  2.2381  2.6182
  696MOL0     H95996   7.536   4.599   8.243 -3.0997 -0.6155 -0.4589
  696MOL0     H95997   7.785   4.597   8.269  0.0743  0.4733  1.9013
  696MOL0     H95998   7.990   4.812   8.370 -1.7262  0.7093 -0.2504
  696MOL0     H95999   8.056   4.903   8.228 -2.7181 -0.0880 -4.9941
  696MOL0     H96000   8.095   4.664   8.118  1.2204  1.7574 -1.0921
  696MOL0     H96001   8.213   4.734   8.215 -0.4723  1.6188  0.1844
  696MOL0     H96002   8.152   4.616   8.407  0.4102  0.0665  0.1330
  696MOL0     H96003   8.003   4.538   8.344  0.3142 -0.0739 -1.0372
  696MOL0     H96004   8.130   4.429   8.167  1.3550 -0.2722  0.4106
  696MOL0     H96005   8.276   4.489   8.251  1.2680 -2.2882 -0.8000
  696MOL0     H96006   8.393   4.255   8.359  2.7313  1.5776 -0.9033
  696MOL0     H96007   8.689   4.333   8.514  0.6407 -0.1513 -1.0638
  696MOL0     H96008   8.601   4.212   8.417  0.8043  1.6284 -1.5926
  696MOL0     H96009   8.634   4.184   8.590 -0.0005 -0.5776 -1.3626
  696MOL0     H96010   8.575   4.236   9.037  0.0188  1.1849  0.4480
  696MOL0     H96011   8.740   4.194   9.212  0.4055  1.2091  0.5457
  696MOL0     H96012   9.196   4.247   9.149 -0.0291  1.7812 -2.3575
  696MOL0     H96013   9.128   4.410   9.146 -2.8771 -0.5519 -1.8040
  696MOL0     H96014   9.143   4.429   9.387 -0.3029 -0.8446  0.6608
  696MOL0     H96015   9.186   4.264   9.402 -1.2317 -0.0204  0.4939
  696MOL0     H96016   9.352   4.474   9.274  1.4285  0.3707 -0.4914
  696MOL0     H96017   9.385   4.302   9.246 -1.6784  0.2156 -2.1037
  696MOL0     H96018   9.408   4.259   9.486  0.0834 -0.5576 -1.1486
  696MOL0     H96019   9.386   4.440   9.518 -0.4385  2.1855 -1.0574
  696MOL0     H96020   9.612   4.291   9.363 -0.8694 -0.8400  0.7527
  696MOL0     H96021   9.579   4.468   9.348 -0.9407  1.3899  2.3335
  696MOL0     H96022   9.643   4.317   9.599 -0.2147 -0.5826 -0.6944
  696MOL0     H96023   9.575   4.484   9.596 -0.8808  0.3460 -1.5186
  696MOL0     H96024   9.760   4.572   9.519 -4.3549 -1.0333  0.9689
  696MOL0     H96025   9.830   4.425   9.446  0.5477  2.0125 -0.4330
  696MOL0     H96026   9.804   4.476   9.755 -0.5101 -0.2763 -0.5538
  696MOL0     H96027   9.941   4.529   9.658  0.5400 -0.4870 -1.9250
  696MOL0     H96028   9.054   4.333   8.964  0.0602 -2.6003  0.8193
  696MOL0     H96029   8.882   4.391   8.793 -0.3312  0.1745  0.5627
  696MOL0     H96030   8.278   4.466   8.783  3.1335 -0.7946  1.2389
  696MOL0     H96031   8.117   4.442   8.607  0.7223 -1.4634  1.0108
  696MOL0     H96032   7.216   4.521   7.301 -0.1133 -1.1614 -1.0419
  696MOL0     H96033   7.031   4.568   7.158  0.4766  2.6823  0.6357
  696MOL0     H96034   6.837   4.714   6.852  2.8876 -3.1518  0.9765
  696MOL0     H96035   6.638   4.800   6.734  0.2365 -0.7825  1.0971
  696MOL0     H96036   6.467   4.550   6.418 -1.7420 -0.5646 -1.2239
  696MOL0     H96037   6.347   4.508   6.537 -3.1003  1.6102  0.1801
  696MOL0     H96038   6.257   4.649   6.350 -1.7007  3.2960 -1.0467
  696MOL0     H96039   6.359   4.783   6.421 -0.4099  0.9646  0.0933
  696MOL0     H96040   6.099   4.775   6.494  0.4996 -0.6165  0.1694
  696MOL0     H96041   6.122   4.622   6.558 -0.5927  0.5067  1.7412
  696MOL0     H96042   6.286   4.859   6.646  1.3544 -0.7783 -1.0445
  696MOL0     H96043   6.260   4.701   6.718  1.8761 -1.8760 -4.7853
  696MOL0     H96044   5.889   4.906   6.806  1.6848  1.7608 -0.7667
  696MOL0     H96045   6.566   4.422   6.558  0.0214 -1.6297  1.1325
  696MOL0     H96046   6.893   4.347   6.562 -1.4856  2.5208 -1.5985
  696MOL0     H96047   6.822   4.236   6.696 -1.4045  1.1585  1.2027
  696MOL0     H96048   6.735   4.271   6.539 -0.5077 -1.0195  1.0178
  697MOL0     O96049   4.068   3.754   6.002  0.0570 -0.5393 -0.5272
  697MOL0     C96050   4.115   3.657   6.055  0.2331  0.6445  0.6487
  697MOL0     O96051   4.042   3.550   6.107 -0.4271 -0.4972  0.3840
  697MOL0     C96052   3.910   3.565   6.108  0.1029 -1.2834  0.6633
  697MOL0     C96053   3.840   3.535   5.991 -1.0539  1.1314  0.3484
  697MOL0     C96054   3.696   3.533   5.994  0.0135 -0.6278 -1.0580
  697MOL0     C96055   3.628   3.575   6.112  0.2893 -0.2600  0.7500
  697MOL0     O96056   3.494   3.597   6.124  0.1012  0.1776 -1.1379
  697MOL0     C96057   3.395   3.538   6.032  0.0164 -0.5501 -0.3170
  697MOL0     C96058   3.286   3.636   6.009  0.3512 -0.0317 -0.7383
  697MOL0     C96059   3.188   3.569   5.922 -0.5040  0.2354 -0.2850
  697MOL0     C96060   3.063   3.647   5.878  0.3684 -0.6073 -0.0616
  697MOL0     C96061   2.977   3.565   5.780 -0.8101  0.1674 -0.8909
  697MOL0     C96062   2.859   3.650   5.746  0.6179  0.5664 -0.0354
  697MOL0     C96063   2.758   3.582   5.664  0.0351 -0.4158 -0.9363
  697MOL0     C96064   2.642   3.675   5.638 -0.6310  0.2410  0.1832
  697MOL0     N96065   2.546   3.626   5.739  0.0105 -0.0708 -0.7306
  697MOL0     C96066   2.443   3.533   5.722  0.4074 -0.5207 -0.4149
  697MOL0     C96067   2.386   3.518   5.844  0.1869 -0.0626 -0.0360
  697MOL0     C96068   2.271   3.423   5.879  0.1090 -0.3864  0.2410
  697MOL0     C96069   2.321   3.292   5.923 -0.2793  0.7725 -0.5368
  697MOL0     C96070   2.417   3.223   5.822  1.2007 -0.1650  0.4011
  697MOL0     C96071   2.557   3.204   5.872 -0.2810  0.4293 -0.0781
  697MOL0     O96072   2.627   3.323   5.900  0.1643  0.4435  0.7384
  697MOL0     C96073   2.738   3.326   5.978  0.1131 -0.4153  0.7929
  697MOL0     C96074   2.777   3.447   6.028 -0.2708 -0.1453 -0.9202
  697MOL0     C96075   2.881   3.448   6.129 -0.3048 -0.4437  0.1584
  697MOL0     C96076   2.919   3.576   6.190 -0.3343  0.0797 -0.8157
  697MOL0     C96077   2.942   3.329   6.168 -0.4080 -0.4664  0.1355
  697MOL0     C96078   3.046   3.325   6.272 -0.3364  0.5329  0.3893
  697MOL0     O96079   3.168   3.342   6.220 -0.1933  0.0723 -0.1530
  697MOL0     C96080   3.280   3.341   6.291 -0.9530 -0.2502  0.0029
  697MOL0     C96081   3.315   3.416   6.409  0.9652  0.1512  0.2529
  697MOL0     C96082   3.432   3.392   6.484 -0.0379  0.5377  0.9285
  697MOL0     C96083   3.531   3.309   6.435 -0.3136 -0.6698  0.4404
  697MOL0     O96084   3.646   3.287   6.501  0.4276 -0.4932  0.0874
  697MOL0     C96085   3.742   3.398   6.518  0.7506  0.7431  0.4498
  697MOL0     C96086   3.781   3.389   6.660 -0.4607  0.3864 -0.4248
  697MOL0     C96087   3.913   3.448   6.686 -0.9375 -0.0881 -0.0783
  697MOL0     C96088   3.969   3.415   6.826  0.2517 -0.0279  0.0019
  697MOL0     C96089   4.101   3.474   6.864  0.1482  0.0522  0.2991
  697MOL0     C96090   4.215   3.411   6.787 -0.1406  0.2465 -0.1265
  697MOL0     C96091   4.356   3.425   6.850 -0.1625 -0.3174 -0.6172
  697MOL0     C96092   4.358   3.390   6.999 -0.2841 -0.3129 -0.4971
  697MOL0    Cl96093   4.520   3.382   7.072 -0.5477 -0.0455  0.1043
  697MOL0     C96094   3.496   3.232   6.318 -0.2944  0.4265 -0.9687
  697MOL0     C96095   3.378   3.249   6.243 -0.1306  0.0566  0.0744
  697MOL0     O96096   3.014   3.288   6.383  0.2471  0.3738 -0.1191
  697MOL0     C96097   2.913   3.210   6.096 -0.0350  0.3012 -0.4029
  697MOL0     C96098   2.807   3.212   6.009 -0.0898 -0.1517 -0.5808
  697MOL0     N96099   2.455   3.598   5.929 -0.6432 -0.4915 -0.6167
  697MOL0     N96100   2.542   3.673   5.865  0.1313  0.0564 -0.2824
  697MOL0     C96101   3.699   3.616   6.220 -0.0078 -0.8352 -0.1447
  697MOL0     C96102   3.840   3.606   6.221  0.3872 -1.1653 -0.8873
  697MOL0     C96103   4.256   3.634   6.039  0.1769 -0.3991  0.0364
  697MOL0     C96104   4.341   3.746   6.056 -0.0576 -0.5347  0.3728
  697MOL0     C96105   4.476   3.735   6.052 -0.4402 -0.5386 -0.3658
  697MOL0     C96106   4.530   3.609   6.034 -0.4101 -0.1895 -0.1395
  697MOL0     O96107   4.666   3.610   6.031 -0.1980  0.7336  0.0844
  697MOL0     C96108   4.736   3.499   6.071 -0.4199  0.1525 -0.1924
  697MOL0     C96109   4.882   3.516   6.036 -0.0912 -1.0616  0.1780
  697MOL0     C96110   4.953   3.380   6.043 -0.4102 -0.3878  0.1085
  697MOL0     C96111   5.109   3.390   6.019  0.6775  0.1315  0.5630
  697MOL0     C96112   5.179   3.485   6.102 -0.6134  0.1519 -0.0213
  697MOL0     C96113   5.253   3.559   6.167  0.0072 -0.2439 -0.6670
  697MOL0     C96114   4.449   3.497   6.002  0.6859 -0.3650 -0.2698
  697MOL0     C96115   4.312   3.510   6.008 -0.9819  0.8917  0.1727
  697MOL0     C96116   4.226   3.383   5.986 -0.2189  0.6537  0.1253
  697MOL0     H96117   3.897   3.511   5.902  1.5006 -1.1560  2.4045
  697MOL0     H96118   3.649   3.507   5.900 -0.8035 -0.5593 -0.6794
  697MOL0     H96119   3.358   3.445   6.074  1.3404 -0.7475  0.4677
  697MOL0     H96120   3.446   3.516   5.937  1.7515  0.4385  0.3413
  697MOL0     H96121   3.226   3.652   6.098  0.3273 -3.8917  0.1425
  697MOL0     H96122   3.330   3.729   5.971 -0.4415  1.1076  1.0398
  697MOL0     H96123   3.232   3.542   5.826 -1.7315  0.0374 -0.8173
  697MOL0     H96124   3.160   3.477   5.974  1.2149  0.6689  1.4933
  697MOL0     H96125   3.004   3.674   5.966  0.6552  1.3610 -0.4223
  697MOL0     H96126   3.091   3.739   5.826  1.4350  0.5787  2.4566
  697MOL0     H96127   2.943   3.468   5.819 -0.6428  0.4437 -0.0302
  697MOL0     H96128   3.035   3.549   5.689 -2.0390  0.5816 -1.7584
  697MOL0     H96129   2.812   3.668   5.843 -2.4431  0.0327 -1.2789
  697MOL0     H96130   2.882   3.742   5.691 -3.0386  0.0319 -2.8662
  697MOL0     H96131   2.722   3.495   5.719  1.1459  1.1294  2.5256
  697MOL0     H96132   2.798   3.559   5.565  0.9218 -1.3980 -0.3674
  697MOL0     H96133   2.667   3.781   5.645  1.1081  0.1912 -3.0646
  697MOL0     H96134   2.598   3.647   5.542 -2.3751 -1.4365  1.3932
  697MOL0     H96135   2.400   3.491   5.631 -0.5715 -1.2175  0.3349
  697MOL0     H96136   2.213   3.408   5.788 -0.8864  2.1510  0.3898
  697MOL0     H96137   2.204   3.478   5.945  1.1287  4.6371 -2.3467
  697MOL0     H96138   2.368   3.313   6.019 -3.2130 -0.2365  1.2688
  697MOL0     H96139   2.242   3.218   5.939  1.3129 -1.6803 -3.1114
  697MOL0     H96140   2.377   3.123   5.807 -0.8453  1.0267 -3.1363
  697MOL0     H96141   2.419   3.266   5.722 -0.6148  0.0848  0.4412
  697MOL0     H96142   2.554   3.139   5.959 -3.1259  0.3151 -0.1918
  697MOL0     H96143   2.609   3.150   5.792  0.5821 -1.2074  1.5162
  697MOL0     H96144   2.736   3.540   5.989  0.6055  0.6764  0.0430
  697MOL0     H96145   3.028   3.584   6.177  0.1010 -1.9587  0.9760
  697MOL0     H96146   2.902   3.572   6.298 -3.0746 -0.5644 -1.2075
  697MOL0     H96147   2.868   3.667   6.155 -2.9895 -1.4494 -1.1360
  697MOL0     H96148   3.243   3.491   6.441  0.6979 -1.2210  3.2248
  697MOL0     H96149   3.456   3.434   6.581 -0.8942  1.0369  0.9370
  697MOL0     H96150   3.827   3.372   6.455 -0.0105  2.0374 -1.1761
  697MOL0     H96151   3.715   3.499   6.486 -2.6664  1.6062  4.9411
  697MOL0     H96152   3.715   3.454   6.719 -0.6923 -0.4766  0.2906
  697MOL0     H96153   3.786   3.290   6.706 -0.0245  0.4422 -0.3451
  697MOL0     H96154   3.911   3.554   6.660 -2.5000 -0.4184 -1.4347
  697MOL0     H96155   3.990   3.417   6.614  0.0047 -1.8021  1.5757
  697MOL0     H96156   3.958   3.307   6.837 -1.5781 -0.0553 -1.6312
  697MOL0     H96157   3.902   3.455   6.903  1.7014 -0.5331  1.5837
  697MOL0     H96158   4.113   3.581   6.844  2.5282 -0.5106 -1.8230
  697MOL0     H96159   4.114   3.451   6.970 -0.7672 -0.6272  0.2779
  697MOL0     H96160   4.224   3.457   6.688  0.3751 -0.4525 -0.4168
  697MOL0     H96161   4.193   3.304   6.780 -0.9231  0.3962  0.0090
  697MOL0     H96162   4.402   3.524   6.841  2.7034 -1.0522  3.3257
  697MOL0     H96163   4.417   3.350   6.798 -2.6017 -2.9887  0.1456
  697MOL0     H96164   4.307   3.295   7.020  1.1278 -0.8904  0.4600
  697MOL0     H96165   4.303   3.466   7.054  1.0349  0.3827 -0.0870
  697MOL0     H96166   3.568   3.159   6.282  1.4653  2.0804 -1.0338
  697MOL0     H96167   3.346   3.200   6.152  0.8805 -1.3934  0.4622
  697MOL0     H96168   2.971   3.120   6.116  0.3734  0.6432  0.0026
  697MOL0     H96169   2.788   3.121   5.952  1.7233 -0.4427 -0.7637
  697MOL0     H96170   3.652   3.670   6.301 -2.3149 -0.7853 -1.4236
  697MOL0     H96171   3.904   3.646   6.299 -0.7027 -2.0636  0.5219
  697MOL0     H96172   4.300   3.844   6.078 -2.3165 -2.2918  5.5734
  697MOL0     H96173   4.539   3.820   6.079 -1.2898  0.3712 -1.1796
  697MOL0     H96174   4.717   3.472   6.176  1.1384 -3.1789 -0.6467
  697MOL0     H96175   4.697   3.411   6.020 -0.6258  0.8931 -1.3539
  697MOL0     H96176   4.925   3.581   6.113 -1.1074 -2.3639  1.9266
  697MOL0     H96177   4.903   3.561   5.939  0.7343  2.1854  1.6993
  697MOL0     H96178   4.932   3.334   6.141  2.3000 -4.8579 -1.1421
  697MOL0     H96179   4.918   3.309   5.967 -3.2240  0.4517  0.4888
  697MOL0     H96180   5.127   3.416   5.914 -1.6122  0.0569  0.0959
  697MOL0     H96181   5.148   3.291   6.041 -0.3946 -0.0703  1.6201
  697MOL0     H96182   5.302   3.635   6.225 -2.4505  0.1367  1.0314
  697MOL0     H96183   4.485   3.396   5.986 -0.9886 -1.0552  0.0934
  697MOL0     H96184   4.180   3.336   6.074 -2.2294 -1.7434 -2.0335
  697MOL0     H96185   4.141   3.415   5.925 -0.7260  0.9915  0.9855
  697MOL0     H96186   4.286   3.305   5.939 -1.6289  0.7127 -1.9265
  698MOL0     O96187   3.858   4.855   3.646 -0.0847  0.0241  0.4510
  698MOL0     C96188   3.831   4.827   3.530  0.1384 -0.2055  0.4551
  698MOL0     O96189   3.926   4.814   3.432 -0.5628 -0.2929  0.0473
  698MOL0     C96190   4.054   4.849   3.451 -0.7396 -0.2695 -0.7464
  698MOL0     C96191   4.151   4.755   3.408  0.9641 -0.4753 -0.1497
  698MOL0     C96192   4.284   4.786   3.416  0.1060  0.7396  0.1792
  698MOL0     C96193   4.328   4.906   3.464 -0.9763  0.5489 -0.5949
  698MOL0     O96194   4.463   4.920   3.467  0.0141  0.1145  0.1260
  698MOL0     C96195   4.524   5.047   3.453  0.6168  0.8440 -0.2160
  698MOL0     C96196   4.676   5.031   3.437  1.2861  0.4007  0.0313
  698MOL0     C96197   4.757   5.162   3.443  0.0609  0.0486 -0.6920
  698MOL0     C96198   4.902   5.130   3.394  0.0352  1.0564 -0.0100
  698MOL0     C96199   4.992   5.256   3.397  0.4416  0.2350  0.4521
  698MOL0     C96200   5.145   5.240   3.409 -0.2594  0.0528  0.4596
  698MOL0     C96201   5.220   5.369   3.434 -0.4148 -0.3366 -0.4760
  698MOL0     C96202   5.252   5.403   3.586 -0.0065  0.4241 -0.3288
  698MOL0     N96203   5.341   5.306   3.647  0.6063 -0.2380  0.4753
  698MOL0     C96204   5.477   5.283   3.617 -0.5695 -0.3667  0.5153
  698MOL0     C96205   5.513   5.186   3.704 -0.5146  0.1801 -0.4880
  698MOL0     C96206   5.630   5.093   3.715 -0.3941  0.1096 -0.4952
  698MOL0     C96207   5.756   5.172   3.763 -0.1080 -0.0872 -0.4039
  698MOL0     C96208   5.810   5.265   3.650 -0.1228  0.5933  0.7335
  698MOL0     C96209   5.948   5.325   3.687 -0.2141 -0.2932  0.3676
  698MOL0     O96210   6.043   5.231   3.725 -0.2905  0.7147  0.4867
  698MOL0     C96211   6.171   5.252   3.767  0.3049 -0.5009  0.5053
  698MOL0     C96212   6.257   5.140   3.790  1.5057  1.4393  0.1294
  698MOL0     C96213   6.387   5.151   3.825  0.1191 -1.5575  0.8446
  698MOL0     C96214   6.463   5.035   3.839 -0.3585  1.1882  0.0150
  698MOL0     C96215   6.442   5.281   3.840 -0.1358 -0.1394  0.2794
  698MOL0     C96216   6.580   5.298   3.876  0.4574  0.2137 -0.3376
  698MOL0     O96217   6.652   5.313   3.762 -0.4378 -0.5775 -0.1901
  698MOL0     C96218   6.788   5.351   3.775 -0.0150 -1.4366  0.5957
  698MOL0     C96219   6.894   5.265   3.731 -0.7778  0.2031  0.6161
  698MOL0     C96220   7.026   5.310   3.711 -0.5975 -0.0932 -0.1719
  698MOL0     C96221   7.057   5.444   3.758 -0.3999  0.6846  1.2224
  698MOL0     O96222   7.178   5.504   3.745 -0.4456 -0.1224  0.4165
  698MOL0     C96223   7.287   5.461   3.667 -1.0457  0.2776 -0.3141
  698MOL0     C96224   7.428   5.523   3.678  0.6545  0.9639  0.2264
  698MOL0     C96225   7.551   5.445   3.617 -0.2753 -0.2697 -0.1149
  698MOL0     C96226   7.611   5.349   3.718  0.7160  0.1238 -0.0497
  698MOL0     C96227   7.728   5.279   3.651  0.4004 -1.1698  0.6577
  698MOL0     C96228   7.808   5.202   3.761  0.3022 -0.0817  0.5118
  698MOL0     C96229   7.952   5.171   3.725 -0.6254  0.3071 -0.1070
  698MOL0     C96230   8.023   5.104   3.837 -0.2779  0.4879 -0.6987
  698MOL0    Cl96231   8.188   5.058   3.794  0.0347  0.2499 -0.3237
  698MOL0     C96232   6.954   5.517   3.823 -0.0921  0.2832 -0.1072
  698MOL0     C96233   6.820   5.472   3.831 -1.2082  0.2200  0.7745
  698MOL0     O96234   6.618   5.297   3.990  0.8097  0.5860 -0.0892
  698MOL0     C96235   6.355   5.392   3.827  0.7158 -0.7695  0.7072
  698MOL0     C96236   6.219   5.382   3.789  0.3774  0.4800 -0.4475
  698MOL0     N96237   5.402   5.150   3.773  0.8565 -0.1046  0.2870
  698MOL0     N96238   5.299   5.208   3.735  0.1471  0.0446  1.0057
  698MOL0     C96239   4.236   5.005   3.499 -0.1204  0.4876 -0.6633
  698MOL0     C96240   4.098   4.973   3.508 -0.2224  0.6462  0.2765
  698MOL0     C96241   3.691   4.775   3.508 -0.1787 -0.3234 -0.1722
  698MOL0     C96242   3.680   4.683   3.403  0.8673  0.8029 -0.0653
  698MOL0     C96243   3.553   4.632   3.376  0.9531 -0.0748  0.5431
  698MOL0     C96244   3.439   4.657   3.453 -0.8740  0.3192 -0.2337
  698MOL0     O96245   3.323   4.586   3.429 -0.6162  0.0619 -0.4086
  698MOL0     C96246   3.289   4.490   3.533 -0.0775 -0.5213 -1.1708
  698MOL0     C96247   3.147   4.428   3.513 -0.7964  0.1008 -0.2769
  698MOL0     C96248   3.036   4.535   3.519  0.6528  0.5558  0.3757
  698MOL0     C96249   2.978   4.558   3.657  0.4384  0.2519 -0.6298
  698MOL0     C96250   2.850   4.639   3.646 -0.3435  0.4158 -0.0872
  698MOL0     C96251   2.740   4.690   3.639 -1.0085 -0.3411  0.0280
  698MOL0     C96252   3.448   4.744   3.560 -0.5333 -0.4440 -0.0233
  698MOL0     C96253   3.576   4.807   3.590 -0.7815  0.2607  0.4474
  698MOL0     C96254   3.586   4.919   3.693  1.0517  0.7208  0.1217
  698MOL0     H96255   4.118   4.663   3.361 -2.2775 -1.9341  4.3349
  698MOL0     H96256   4.347   4.711   3.369 -3.2021 -0.6362 -2.5083
  698MOL0     H96257   4.501   5.108   3.541 -0.8169  1.8575 -1.2319
  698MOL0     H96258   4.482   5.100   3.366  0.8260  0.5417 -0.4981
  698MOL0     H96259   4.714   4.976   3.523  0.0942  0.8768  0.8907
  698MOL0     H96260   4.682   4.990   3.336  0.1535 -0.6206  0.3666
  698MOL0     H96261   4.713   5.240   3.381 -1.1799 -0.9167 -1.0617
  698MOL0     H96262   4.760   5.207   3.542 -0.6222 -0.8984 -0.2285
  698MOL0     H96263   4.946   5.058   3.463 -2.8022  0.8922  1.7540
  698MOL0     H96264   4.912   5.094   3.291  0.8622  0.6879  0.1897
  698MOL0     H96265   4.965   5.315   3.484  1.7330  2.8078 -0.7760
  698MOL0     H96266   4.968   5.314   3.307 -2.4371 -0.8574  0.3987
  698MOL0     H96267   5.186   5.169   3.481 -1.2361 -1.1786 -0.1679
  698MOL0     H96268   5.155   5.194   3.311 -4.7027 -1.8131  0.6673
  698MOL0     H96269   5.157   5.453   3.401 -0.5371  0.1415  0.9190
  698MOL0     H96270   5.311   5.365   3.373 -0.7423 -1.3304 -0.9204
  698MOL0     H96271   5.299   5.502   3.586 -0.8981  0.8777  0.8673
  698MOL0     H96272   5.156   5.401   3.639 -1.0239 -1.4688 -2.1027
  698MOL0     H96273   5.548   5.331   3.551 -0.9792  0.8561  0.9382
  698MOL0     H96274   5.661   5.050   3.619  3.0922 -1.1395  0.9926
  698MOL0     H96275   5.605   5.009   3.781 -0.8559 -0.0800 -0.9101
  698MOL0     H96276   5.708   5.235   3.838 -1.5295 -1.1256 -0.3996
  698MOL0     H96277   5.833   5.106   3.804 -0.6253  0.0566  0.8302
  698MOL0     H96278   5.814   5.211   3.555  0.3431 -1.1482  1.6787
  698MOL0     H96279   5.740   5.348   3.638 -1.1091 -0.1713  1.0179
  698MOL0     H96280   5.990   5.376   3.600  0.8460 -0.6122  0.6722
  698MOL0     H96281   5.934   5.406   3.759  2.4124  1.1306 -0.5843
  698MOL0     H96282   6.223   5.045   3.753 -2.7353  2.9832 -0.4363
  698MOL0     H96283   6.554   5.048   3.780 -0.0324  2.9718  0.8225
  698MOL0     H96284   6.412   4.945   3.805 -1.2111  1.8896 -0.6111
  698MOL0     H96285   6.487   5.018   3.944  2.5315  0.5826 -0.6581
  698MOL0     H96286   6.864   5.167   3.695  0.2738 -0.6889  1.9957
  698MOL0     H96287   7.105   5.250   3.667  0.3766 -0.7284  2.2450
  698MOL0     H96288   7.311   5.355   3.676  3.4497  1.0028 -1.4567
  698MOL0     H96289   7.256   5.473   3.562 -3.4824 -1.2845  0.1362
  698MOL0     H96290   7.431   5.621   3.629 -0.7411  0.8826 -0.0448
  698MOL0     H96291   7.440   5.543   3.785 -3.3914  2.0326  0.6500
  698MOL0     H96292   7.625   5.518   3.585  0.4083  0.4189  2.7838
  698MOL0     H96293   7.519   5.383   3.532 -1.2424 -3.2055  2.1898
  698MOL0     H96294   7.530   5.278   3.736 -1.9320  2.4469 -2.1007
  698MOL0     H96295   7.642   5.401   3.809 -0.4695 -3.3210  2.5526
  698MOL0     H96296   7.691   5.221   3.565  2.1559 -1.9687  0.3798
  698MOL0     H96297   7.786   5.358   3.603 -1.7536  0.4423  0.5543
  698MOL0     H96298   7.754   5.114   3.796 -1.7823  2.2303  3.5479
  698MOL0     H96299   7.814   5.257   3.855  1.2069 -2.6723  2.0744
  698MOL0     H96300   8.006   5.263   3.700  1.7103  0.0178  3.2198
  698MOL0     H96301   7.962   5.114   3.632  2.6468 -0.1551  0.4004
  698MOL0     H96302   7.966   5.012   3.852  0.3848 -0.2134 -2.2600
  698MOL0     H96303   8.026   5.168   3.925  1.1394  1.2739 -1.2876
  698MOL0     H96304   6.972   5.620   3.855  1.6299  0.8150 -2.5534
  698MOL0     H96305   6.742   5.531   3.877 -0.0588  2.0337  0.5006
  698MOL0     H96306   6.401   5.490   3.837  0.1346 -0.2994 -0.9747
  698MOL0     H96307   6.168   5.476   3.771  0.4299  0.9166  1.4727
  698MOL0     H96308   4.264   5.104   3.532 -0.1127 -0.3865  2.1848
  698MOL0     H96309   4.027   5.053   3.525 -1.5381 -0.2540 -0.7637
  698MOL0     H96310   3.765   4.645   3.348  0.8096  0.4017  0.1160
  698MOL0     H96311   3.541   4.556   3.299 -2.5870  3.6196 -3.0244
  698MOL0     H96312   3.370   4.416   3.527  1.2691  0.8550 -0.6487
  698MOL0     H96313   3.298   4.546   3.627  0.0286  2.0673 -2.6134
  698MOL0     H96314   3.137   4.354   3.593  1.1698 -1.5118 -1.4271
  698MOL0     H96315   3.135   4.357   3.430 -1.6321 -1.3863  1.0523
  698MOL0     H96316   3.059   4.630   3.471 -2.7076  1.7212  0.7853
  698MOL0     H96317   2.960   4.489   3.455  3.4473 -2.2402 -1.2241
  698MOL0     H96318   3.054   4.604   3.720 -1.4542  1.1011  1.1343
  698MOL0     H96319   2.955   4.456   3.691  1.5094 -1.4990 -4.5692
  698MOL0     H96320   2.643   4.736   3.631 -0.2448  1.5418  0.9657
  698MOL0     H96321   3.366   4.762   3.629 -0.9292  0.9100 -0.8046
  698MOL0     H96322   3.629   4.877   3.785  0.4968 -1.7449 -0.6567
  698MOL0     H96323   3.653   5.001   3.668 -1.2757  2.3792 -0.9858
  698MOL0     H96324   3.491   4.964   3.722 -0.2125 -0.9435 -1.2013
  699MOL0     O96325   9.523   7.681  11.262  0.5849  0.8187  0.6982
  699MOL0     C96326   9.510   7.807  11.262 -0.8613  1.4865  0.1032
  699MOL0     O96327   9.610   7.889  11.241  1.2705 -0.0437  0.0283
  699MOL0     C96328   9.736   7.848  11.206  0.4132 -0.8446  0.0693
  699MOL0     C96329   9.829   7.936  11.247  0.0111 -0.5401 -0.1423
  699MOL0     C96330   9.960   7.914  11.219  0.6820 -0.4171 -0.0276
  699MOL0     C96331  10.007   7.807  11.139  1.0755  0.0221  0.9296
  699MOL0     O96332  10.145   7.801  11.105 -0.2691  0.5634  0.6685
  699MOL0     C96333  10.176   7.718  10.996 -0.1375 -0.5870  0.3514
  699MOL0     C96334  10.219   7.574  11.045  0.2152  0.0258  0.2240
  699MOL0     C96335  10.343   7.589  11.127  0.0511 -0.4733  0.9509
  699MOL0     C96336  10.422   7.456  11.147 -0.5727 -0.1886  0.6986
  699MOL0     C96337  10.568   7.473  11.196  0.2954 -0.4172  0.3276
  699MOL0     C96338  10.669   7.504  11.083  0.0794 -0.1410  0.6794
  699MOL0     C96339  10.807   7.538  11.136  0.5738  0.5001 -0.1331
  699MOL0     C96340  10.885   7.608  11.028 -0.0549 -0.1491  0.7625
  699MOL0     N96341  11.017   7.644  11.063 -0.9454  0.7514  0.3644
  699MOL0     C96342  11.122   7.682  10.979  0.4283 -0.3333 -0.3060
  699MOL0     C96343  11.223   7.735  11.064  0.0749 -0.4996 -0.8721
  699MOL0     C96344  11.349   7.800  11.018  0.5001 -0.6980  0.5689
  699MOL0     C96345  11.464   7.771  11.122 -0.0416 -0.5376 -0.9642
  699MOL0     C96346  11.490   7.620  11.144 -0.5913 -0.2832 -0.4031
  699MOL0     C96347  11.603   7.589  11.242 -0.0194 -0.3288  0.1109
  699MOL0     O96348  11.725   7.641  11.186  0.4503 -0.0439  0.6243
  699MOL0     C96349  11.845   7.573  11.189  0.1469  0.4124 -0.3073
  699MOL0     C96350  11.944   7.604  11.091 -0.0594 -0.0446 -0.1816
  699MOL0     C96351  12.062   7.530  11.093 -0.1396  0.0224  0.1234
  699MOL0     C96352  12.158   7.534  10.970  0.1398 -0.2614 -0.5907
  699MOL0     C96353  12.091   7.438  11.187  0.2602  0.2938 -0.6792
  699MOL0     C96354  12.225   7.370  11.211 -0.0487 -0.7380  0.1079
  699MOL0     O96355  12.335   7.447  11.192  1.3690 -0.0177 -0.0791
  699MOL0     C96356  12.458   7.397  11.208 -0.2301  0.1582  0.4506
  699MOL0     C96357  12.536   7.457  11.318  0.6918 -0.8408 -0.4951
  699MOL0     C96358  12.679   7.431  11.329  0.5545 -0.7632 -0.3439
  699MOL0     C96359  12.745   7.371  11.221  0.9375 -0.0729 -0.0772
  699MOL0     O96360  12.879   7.368  11.234  0.0888 -0.6577  0.2781
  699MOL0     C96361  12.957   7.329  11.125  0.3194 -0.3649 -0.1610
  699MOL0     C96362  13.093   7.402  11.109 -0.0336 -0.3281 -0.1446
  699MOL0     C96363  13.192   7.395  11.231  0.3224  0.6700  0.3634
  699MOL0     C96364  13.307   7.493  11.212 -0.4893  0.3327  0.3168
  699MOL0     C96365  13.392   7.493  11.338 -0.4353  0.7357 -0.4593
  699MOL0     C96366  13.509   7.585  11.346 -0.0450  0.7159 -0.9430
  699MOL0     C96367  13.610   7.585  11.233  0.2712 -0.4158 -0.4851
  699MOL0     C96368  13.725   7.672  11.278 -0.2665  0.2497  0.0110
  699MOL0    Cl96369  13.816   7.601  11.417 -0.1588 -0.2452 -0.7600
  699MOL0     C96370  12.667   7.320  11.115  0.2651 -0.1348  0.8547
  699MOL0     C96371  12.523   7.328  11.105 -0.3392  0.4162 -0.7288
  699MOL0     O96372  12.221   7.249  11.245  0.0284 -0.3078  0.0095
  699MOL0     C96373  11.988   7.405  11.283 -0.3981  0.3050 -0.2504
  699MOL0     C96374  11.870   7.467  11.282 -0.3463 -0.4764 -0.9116
  699MOL0     N96375  11.173   7.736  11.195  0.6263  0.2806 -0.6856
  699MOL0     N96376  11.055   7.679  11.192 -0.0096 -0.2577  0.5997
  699MOL0     C96377   9.909   7.715  11.098 -0.6311 -0.6234  0.1597
  699MOL0     C96378   9.774   7.744  11.118  0.3429 -0.1009 -0.2007
  699MOL0     C96379   9.382   7.854  11.293  1.2523 -0.0705 -0.5244
  699MOL0     C96380   9.226   7.717  11.348  0.4263  0.5772 -0.2582
  699MOL0     C96381   9.036   7.785  11.407  0.4470 -0.7775  0.0697
  699MOL0     C96382   8.997   7.995  11.414  0.8755  0.4122 -0.7297
  699MOL0     O96383   8.865   8.029  11.461  0.7009 -0.2136  0.0304
  699MOL0     C96384   8.851   8.167  11.480  0.1059 -0.2415 -1.2082
  699MOL0     C96385   8.904   8.207  11.617  0.3132 -0.1782 -0.9385
  699MOL0     C96386   8.925   8.361  11.628  0.1572  0.2424 -1.0867
  699MOL0     C96387   8.801   8.458  11.643  0.8864  0.3263 -0.2762
  699MOL0     C96388   8.708   8.456  11.534  0.0289 -0.2232  1.0501
  699MOL0     C96389   8.624   8.420  11.454  0.2058 -0.1713 -0.1493
  699MOL0     C96390   9.149   8.131  11.368 -0.2566  0.2689  0.8902
  699MOL0     C96391   9.337   8.064  11.304 -1.2793  0.4209  0.2041
  699MOL0     C96392   9.442   8.162  11.262  0.5710  0.4085  0.2092
  699MOL0     H96393   9.791   8.018  11.307 -1.0728 -0.7094 -0.5750
  699MOL0     H96394  10.033   7.972  11.275  0.4418 -1.2391  1.1914
  699MOL0     H96395  10.265   7.766  10.955 -1.4252  0.6570 -1.1368
  699MOL0     H96396  10.101   7.713  10.916  0.5962  0.2285 -0.3990
  699MOL0     H96397  10.142   7.530  11.108 -1.5777  3.6594  0.7592
  699MOL0     H96398  10.243   7.515  10.955  0.9467  1.7906 -0.8055
  699MOL0     H96399  10.409   7.653  11.068  0.1817 -2.8573 -1.7443
  699MOL0     H96400  10.323   7.634  11.224  1.9539  1.1322  0.6724
  699MOL0     H96401  10.374   7.396  11.225  3.6657 -0.8032  3.1197
  699MOL0     H96402  10.420   7.403  11.051 -1.3212  0.4005  0.3722
  699MOL0     H96403  10.603   7.392  11.261 -0.1340  0.7862  2.1311
  699MOL0     H96404  10.565   7.554  11.269  2.0386  0.5864 -0.6512
  699MOL0     H96405  10.678   7.418  11.016 -1.6957 -0.1254  0.3905
  699MOL0     H96406  10.619   7.582  11.026 -2.1889 -0.2062  2.4674
  699MOL0     H96407  10.856   7.443  11.161 -0.0940 -0.7002 -2.9105
  699MOL0     H96408  10.800   7.604  11.222  0.5050 -1.9020  1.8224
  699MOL0     H96409  10.900   7.542  10.943 -0.0006 -0.0259  0.6765
  699MOL0     H96410  10.823   7.693  10.998 -2.6868 -1.8667  0.9852
  699MOL0     H96411  11.125   7.668  10.872  1.6649 -2.3367 -0.0577
  699MOL0     H96412  11.338   7.907  11.000  1.5863 -0.5258  0.8733
  699MOL0     H96413  11.377   7.756  10.922  3.1982 -0.5794  1.2397
  699MOL0     H96414  11.562   7.803  11.086 -0.3884  0.2076 -1.2786
  699MOL0     H96415  11.429   7.822  11.213 -1.2916  0.5059 -1.9891
  699MOL0     H96416  11.401   7.578  11.190  0.9003 -1.2759  1.7569
  699MOL0     H96417  11.516   7.561  11.055 -2.1695  3.4542 -3.6192
  699MOL0     H96418  11.588   7.648  11.333  2.1024 -1.4756  1.3001
  699MOL0     H96419  11.601   7.486  11.280 -1.9657 -0.7446 -0.9475
  699MOL0     H96420  11.911   7.675  11.016 -0.4632 -0.4708 -0.4106
  699MOL0     H96421  12.226   7.450  10.953  0.9595  0.5030 -1.1366
  699MOL0     H96422  12.225   7.619  10.984  0.2635 -0.1934 -1.4927
  699MOL0     H96423  12.106   7.555  10.876 -0.4125 -1.9560 -0.6930
  699MOL0     H96424  12.480   7.502  11.398  0.6641 -2.5373  0.4955
  699MOL0     H96425  12.741   7.462  11.413  0.8768 -1.1490 -0.4337
  699MOL0     H96426  12.971   7.221  11.140 -0.1080 -0.3672  0.2363
  699MOL0     H96427  12.906   7.342  11.030 -1.5515  2.0437  1.0861
  699MOL0     H96428  13.158   7.356  11.034  2.5757 -2.5212  3.1912
  699MOL0     H96429  13.064   7.507  11.096 -0.1268  0.1180  2.9336
  699MOL0     H96430  13.225   7.291  11.240  2.4992  1.0934 -1.7954
  699MOL0     H96431  13.145   7.424  11.326  0.8063  0.0825  0.7960
  699MOL0     H96432  13.269   7.596  11.206 -0.6640  0.3368  1.3330
  699MOL0     H96433  13.366   7.475  11.122 -0.5673  2.8713 -0.3129
  699MOL0     H96434  13.326   7.519  11.422 -0.8812  0.1518 -0.6236
  699MOL0     H96435  13.413   7.391  11.370  1.0808  1.6874  1.8324
  699MOL0     H96436  13.559   7.558  11.440  0.7640  1.5650 -1.1133
  699MOL0     H96437  13.474   7.687  11.361 -1.1166  0.3395 -0.8529
  699MOL0     H96438  13.571   7.628  11.141  1.8403  0.1745 -0.9120
  699MOL0     H96439  13.646   7.484  11.212  0.1119 -0.9086  1.4165
  699MOL0     H96440  13.689   7.773  11.298  0.1319  0.0948  1.6263
  699MOL0     H96441  13.790   7.678  11.190 -0.7499 -0.3982 -0.4007
  699MOL0     H96442  12.709   7.261  11.034 -1.1063  1.6241 -1.2231
  699MOL0     H96443  12.463   7.272  11.034  0.5234 -1.5981  0.0642
  699MOL0     H96444  12.010   7.336  11.364 -3.0256  0.2761  0.5053
  699MOL0     H96445  11.806   7.438  11.365  0.4931 -0.8760 -0.3862
  699MOL0     H96446   9.926   7.628  11.036  4.1616  0.2983 -0.2140
  699MOL0     H96447   9.688   7.684  11.089  0.1491  1.0603 -2.2554
  699MOL0     H96448   9.248   7.611  11.351 -1.3049  0.1936  0.3093
  699MOL0     H96449   8.952   7.718  11.423 -2.8221  2.3948 -2.1571
  699MOL0     H96450   8.900   8.227  11.403  0.4580 -0.4232 -1.1309
  699MOL0     H96451   8.747   8.196  11.466  0.5129  0.4637 -3.0056
  699MOL0     H96452   9.000   8.160  11.637  0.3772  0.0309 -0.7497
  699MOL0     H96453   8.833   8.178  11.696 -0.1187  3.2909  0.1196
  699MOL0     H96454   8.983   8.377  11.719 -1.5591 -0.3746  0.1560
  699MOL0     H96455   8.984   8.389  11.539  2.7660  1.2892  0.8419
  699MOL0     H96456   8.831   8.561  11.665 -0.4084  0.3747  1.5504
  699MOL0     H96457   8.738   8.424  11.726  1.1653  1.3169  0.3663
  699MOL0     H96458   8.545   8.405  11.383 -1.3745  5.1802  0.0285
  699MOL0     H96459   9.134   8.238  11.373  1.3160  0.5534 -0.0700
  699MOL0     H96460   9.394   8.259  11.248  1.3626  0.8051  0.1628
  699MOL0     H96461   9.520   8.158  11.339  0.9936  1.3130 -0.1586
  699MOL0     H96462   9.493   8.123  11.173  0.7770 -1.9552  1.2754
  700MOL0     O96463   9.123   9.260   6.869 -0.1997  0.4059 -0.4906
  700MOL0     C96464   9.128   9.345   6.784 -0.5775 -0.0111 -0.2869
  700MOL0     O96465   9.234   9.439   6.773  0.5262  0.5145 -0.0965
  700MOL0     C96466   9.325   9.433   6.877 -0.3441 -0.1355  0.0085
  700MOL0     C96467   9.332   9.527   6.979 -0.4798 -0.0209  0.1756
  700MOL0     C96468   9.436   9.530   7.068 -0.1524 -0.2817 -0.0609
  700MOL0     C96469   9.544   9.440   7.065  0.6691 -0.0182 -0.5407
  700MOL0     O96470   9.646   9.462   7.153  0.0056 -0.1966 -0.1284
  700MOL0     C96471   9.777   9.424   7.108 -0.2445  0.3849 -0.1063
  700MOL0     C96472   9.842   9.509   6.994  0.4006 -0.1740 -0.4346
  700MOL0     C96473   9.962   9.427   6.932 -0.5184 -0.3780  0.0673
  700MOL0     C96474  10.059   9.382   7.042  0.0128 -0.3508  0.3250
  700MOL0     C96475  10.201   9.333   7.005  1.0114 -0.3874  0.2584
  700MOL0     C96476  10.287   9.464   6.971 -0.4955  0.3731  0.0633
  700MOL0     C96477  10.438   9.423   6.999  0.6838 -0.4775 -0.3841
  700MOL0     C96478  10.520   9.561   6.997  0.2533  0.4706 -0.3442
  700MOL0     N96479  10.665   9.538   7.013  0.2336 -0.1475  0.6530
  700MOL0     C96480  10.759   9.533   6.914  0.5001  0.1117 -0.2721
  700MOL0     C96481  10.881   9.521   6.970 -0.3266  0.4740 -0.1803
  700MOL0     C96482  11.013   9.527   6.909  0.0193 -0.9015  0.9091
  700MOL0     C96483  11.079   9.669   6.920  0.1950  0.3277  0.1296
  700MOL0     C96484  11.159   9.707   6.802 -0.6393  0.7351  1.3076
  700MOL0     C96485  11.082   9.697   6.653  0.3589 -0.0900 -0.1865
  700MOL0     O96486  10.943   9.738   6.658  0.0434  0.4616  0.6722
  700MOL0     C96487  10.860   9.723   6.548  0.2756  0.4130 -0.2544
  700MOL0     C96488  10.721   9.751   6.570 -0.4820  0.3401  0.0200
  700MOL0     C96489  10.625   9.735   6.476  0.0437  0.7430 -0.0947
  700MOL0     C96490  10.482   9.750   6.505  0.5480  0.2352  0.5708
  700MOL0     C96491  10.668   9.686   6.346  0.3648  0.6609  1.1333
  700MOL0     C96492  10.582   9.660   6.222  0.7984  0.1954 -0.6898
  700MOL0     O96493  10.630   9.690   6.103  0.2520  0.2705 -0.2396
  700MOL0     C96494  10.574   9.635   5.988  1.0531 -0.9498 -0.5152
  700MOL0     C96495  10.431   9.616   5.965  0.3614  0.0533 -0.2293
  700MOL0     C96496  10.378   9.554   5.857  0.2958 -0.1145  0.9170
  700MOL0     C96497  10.461   9.491   5.763 -0.5307  0.0279 -0.0482
  700MOL0     O96498  10.401   9.412   5.668 -0.4521 -0.3148 -0.4044
  700MOL0     C96499  10.493   9.317   5.600  0.6734  0.2036 -0.0522
  700MOL0     C96500  10.406   9.228   5.505  0.8394  0.7680  0.4418
  700MOL0     C96501  10.477   9.155   5.391  0.4002  0.1629 -1.2295
  700MOL0     C96502  10.387   9.101   5.289  0.6106 -1.0265 -1.2535
  700MOL0     C96503  10.441   9.017   5.178 -0.1634 -0.0053 -0.4072
  700MOL0     C96504  10.490   8.881   5.229 -0.2707  0.3682 -0.3239
  700MOL0     C96505  10.504   8.783   5.114  0.6063  0.5699  0.8711
  700MOL0     C96506  10.368   8.705   5.083 -0.7664 -0.8348 -0.3553
  700MOL0    Cl96507  10.323   8.610   5.235  0.2979  0.4271 -0.6092
  700MOL0     C96508  10.597   9.505   5.787 -0.0329 -0.1657 -0.1616
  700MOL0     C96509  10.656   9.580   5.891  0.7904 -0.7120  0.1598
  700MOL0     O96510  10.479   9.600   6.249  1.3836  0.1302 -0.0675
  700MOL0     C96511  10.805   9.673   6.320 -0.5009 -0.2440 -0.0468
  700MOL0     C96512  10.898   9.688   6.419  0.0779 -0.4595  0.0599
  700MOL0     N96513  10.863   9.511   7.105  0.6143 -0.1785 -0.2589
  700MOL0     N96514  10.734   9.518   7.127 -0.3399 -0.7226 -0.2133
  700MOL0     C96515   9.531   9.338   6.960  0.6982  0.6415 -0.1942
  700MOL0     C96516   9.419   9.338   6.876 -0.4611 -1.1914  0.0416
  700MOL0     C96517   9.016   9.368   6.697  0.1807 -0.4486 -0.3307
  700MOL0     C96518   8.982   9.505   6.664  0.6772  0.4479 -1.2601
  700MOL0     C96519   8.864   9.531   6.590 -0.0630 -0.1507 -0.9688
  700MOL0     C96520   8.786   9.426   6.540 -0.3352 -0.0007  0.7925
  700MOL0     O96521   8.690   9.456   6.442  0.0936 -0.2234 -0.3656
  700MOL0     C96522   8.585   9.357   6.431 -0.2591  0.4267 -0.7013
  700MOL0     C96523   8.471   9.411   6.345  0.1875 -0.4365  0.1159
  700MOL0     C96524   8.425   9.558   6.392 -0.1265  0.1596 -0.4999
  700MOL0     C96525   8.320   9.612   6.301  0.1445 -0.9300  0.5717
  700MOL0     C96526   8.262   9.737   6.353  0.0689 -0.8257 -0.9168
  700MOL0     C96527   8.219   9.837   6.394  0.2728 -0.3270 -0.3602
  700MOL0     C96528   8.829   9.294   6.560  0.2077 -0.8056 -0.2334
  700MOL0     C96529   8.939   9.261   6.641  0.1908 -0.4330 -0.1303
  700MOL0     C96530   8.959   9.120   6.670  0.0673 -0.3706 -0.5150
  700MOL0     H96531   9.254   9.602   6.970 -0.4075 -0.0901 -1.4216
  700MOL0     H96532   9.437   9.607   7.145  1.0364  1.3230 -1.5920
  700MOL0     H96533   9.773   9.321   7.074  3.3375  0.4608 -1.1143
  700MOL0     H96534   9.841   9.431   7.197  2.8918 -1.2725 -2.0601
  700MOL0     H96535   9.768   9.528   6.915  1.2564  3.5147 -0.5483
  700MOL0     H96536   9.878   9.606   7.029  0.0394 -0.8889  2.1479
  700MOL0     H96537   9.927   9.344   6.871 -0.3729  0.2211 -0.8491
  700MOL0     H96538  10.007   9.500   6.864  0.4501  0.1195  1.1838
  700MOL0     H96539  10.068   9.454   7.124  1.7240  0.5987 -0.6335
  700MOL0     H96540  10.015   9.293   7.088 -0.8731 -0.6343 -1.0307
  700MOL0     H96541  10.205   9.261   6.924  1.1148 -0.1296  0.0314
  700MOL0     H96542  10.229   9.274   7.093 -3.0110 -0.7526  1.5126
  700MOL0     H96543  10.270   9.503   6.870 -0.1650  0.5920  0.0919
  700MOL0     H96544  10.252   9.552   7.026 -1.9045  2.1334 -3.3467
  700MOL0     H96545  10.471   9.371   6.909 -1.8946 -0.5924 -1.3456
  700MOL0     H96546  10.461   9.355   7.082  2.5850 -2.2133 -2.2207
  700MOL0     H96547  10.501   9.600   6.896  2.4515 -2.0686 -1.8429
  700MOL0     H96548  10.474   9.618   7.078 -2.9570 -1.9974 -0.2468
  700MOL0     H96549  10.733   9.553   6.810 -2.3606 -2.5560 -0.2025
  700MOL0     H96550  11.011   9.489   6.807  0.5132  1.1316  0.1039
  700MOL0     H96551  11.079   9.453   6.955  1.0345 -0.9952 -0.6238
  700MOL0     H96552  11.003   9.747   6.934 -1.4125 -1.3693  1.2549
  700MOL0     H96553  11.148   9.667   7.005  1.8269 -1.7222 -1.1562
  700MOL0     H96554  11.193   9.809   6.823  1.6287  0.3355 -0.0624
  700MOL0     H96555  11.249   9.646   6.792 -0.1874  1.4326  1.0392
  700MOL0     H96556  11.132   9.755   6.575  2.5777 -2.2771 -0.5291
  700MOL0     H96557  11.093   9.591   6.631  0.8166 -0.8677  3.2101
  700MOL0     H96558  10.692   9.787   6.668 -4.0251  1.1145 -1.1697
  700MOL0     H96559  10.462   9.790   6.604 -0.2529 -0.9173  0.9061
  700MOL0     H96560  10.426   9.656   6.514 -0.6321  0.9549  1.1007
  700MOL0     H96561  10.423   9.809   6.435 -1.2712  0.0147  1.8491
  700MOL0     H96562  10.367   9.659   6.040  1.0254 -1.3414  1.1985
  700MOL0     H96563  10.270   9.549   5.846  0.1417  0.6325  1.9809
  700MOL0     H96564  10.567   9.373   5.543  1.9693  0.5812  1.9072
  700MOL0     H96565  10.545   9.254   5.673  1.2570 -0.8566 -1.3505
  700MOL0     H96566  10.361   9.155   5.572  0.3107 -0.8803 -1.6273
  700MOL0     H96567  10.329   9.295   5.466  0.2102 -0.3399 -0.2544
  700MOL0     H96568  10.517   9.062   5.433 -3.0862 -0.3581  1.3833
  700MOL0     H96569  10.553   9.208   5.334 -0.4103  0.0801 -2.4247
  700MOL0     H96570  10.332   9.181   5.238  0.1943 -0.3643  0.1796
  700MOL0     H96571  10.316   9.041   5.345 -1.3933 -0.0633 -2.6065
  700MOL0     H96572  10.360   9.002   5.106 -0.3531 -2.9316  0.2636
  700MOL0     H96573  10.525   9.073   5.138 -1.7396  2.7046 -0.1482
  700MOL0     H96574  10.431   8.836   5.310 -1.5290 -1.6275 -2.2413
  700MOL0     H96575  10.590   8.889   5.272 -0.8245  1.5686  0.8355
  700MOL0     H96576  10.572   8.701   5.139 -4.0928 -3.3249  2.3451
  700MOL0     H96577  10.556   8.832   5.031  1.6764 -1.3027  0.3720
  700MOL0     H96578  10.389   8.638   4.999  1.8066 -0.0636 -0.4005
  700MOL0     H96579  10.287   8.777   5.064  0.6149  1.3890  1.6180
  700MOL0     H96580  10.679   9.458   5.734  0.7935 -1.7472  2.3379
  700MOL0     H96581  10.764   9.580   5.897  0.8883  0.6823 -0.9926
  700MOL0     H96582  10.835   9.637   6.222  1.1347  3.0635 -0.9033
  700MOL0     H96583  10.999   9.652   6.400 -0.2279  0.2014 -3.4078
  700MOL0     H96584   9.616   9.271   6.948 -1.0000 -1.4141 -1.4543
  700MOL0     H96585   9.420   9.253   6.809  0.9268 -1.4706  0.3837
  700MOL0     H96586   9.031   9.597   6.696  1.9849 -0.1301 -1.5431
  700MOL0     H96587   8.839   9.635   6.570  1.6948  0.5936  0.3811
  700MOL0     H96588   8.621   9.261   6.392  1.7312 -0.1737  2.2437
  700MOL0     H96589   8.544   9.336   6.530 -0.2066  2.7082 -0.1263
  700MOL0     H96590   8.390   9.337   6.344  1.9413 -2.8433  4.5640
  700MOL0     H96591   8.521   9.420   6.248  0.6072  0.7749  0.4219
  700MOL0     H96592   8.364   9.552   6.482  0.4061 -2.0251 -0.2334
  700MOL0     H96593   8.513   9.622   6.404 -0.9732  1.3676 -0.5652
  700MOL0     H96594   8.242   9.536   6.300 -0.1638 -0.8368  4.1947
  700MOL0     H96595   8.355   9.632   6.199 -1.8285  0.3067  0.0731
  700MOL0     H96596   8.180   9.925   6.441  1.4725  1.8473 -3.1220
  700MOL0     H96597   8.769   9.220   6.509 -1.8637  1.0084 -0.5574
  700MOL0     H96598   8.907   9.057   6.597  0.7563  0.5584 -1.8218
  700MOL0     H96599   9.066   9.105   6.682 -0.0375 -1.5690 -0.9593
  700MOL0     H96600   8.919   9.107   6.771  2.0709  0.0071  0.3654
  701MOL0     O96601   4.336   1.515  10.011  0.4559  0.2525  0.2962
  701MOL0     C96602   4.335   1.421  10.093 -0.3747  0.1132  0.3484
  701MOL0     O96603   4.441   1.332  10.098  0.5503  0.2332 -0.3995
  701MOL0     C96604   4.566   1.374  10.049 -0.0949  0.4281 -0.6488
  701MOL0     C96605   4.593   1.418   9.925  0.2670 -0.5866 -0.1240
  701MOL0     C96606   4.717   1.476   9.890  0.0017  0.8625 -0.1443
  701MOL0     C96607   4.814   1.483   9.984 -0.4201 -0.0784 -0.1686
  701MOL0     O96608   4.931   1.530   9.943 -0.4691 -0.6996 -0.4191
  701MOL0     C96609   5.044   1.536  10.028 -0.2460  0.1242  0.5810
  701MOL0     C96610   5.173   1.603   9.972  0.5669  0.4681 -0.0563
  701MOL0     C96611   5.230   1.527   9.852 -0.3408  0.1370  0.8256
  701MOL0     C96612   5.312   1.403   9.889  0.8670  0.0369  0.4832
  701MOL0     C96613   5.401   1.357   9.776 -0.3210  0.5187  1.2742
  701MOL0     C96614   5.542   1.432   9.756  0.5756  1.1121 -0.7299
  701MOL0     C96615   5.623   1.360   9.648 -0.8621 -0.2212  0.0319
  701MOL0     C96616   5.776   1.405   9.639  0.3606 -0.2539 -0.2658
  701MOL0     N96617   5.790   1.548   9.625 -0.3192 -0.4318 -0.5035
  701MOL0     C96618   5.787   1.618   9.504 -0.4806  0.4024 -0.1293
  701MOL0     C96619   5.806   1.744   9.530 -0.6858 -0.7358 -0.0751
  701MOL0     C96620   5.815   1.855   9.427 -0.7972  0.2462 -0.4726
  701MOL0     C96621   5.924   1.953   9.452  0.2804  1.1364  0.1660
  701MOL0     C96622   6.068   1.903   9.434 -0.2862 -0.3111  1.0036
  701MOL0     C96623   6.168   2.009   9.473 -0.1045  0.6732  0.0429
  701MOL0     O96624   6.288   1.934   9.505  0.5222  0.0432  0.0436
  701MOL0     C96625   6.404   2.001   9.492  0.0185 -0.0210 -0.0278
  701MOL0     C96626   6.409   2.141   9.488 -0.1501  0.4283  0.4128
  701MOL0     C96627   6.534   2.210   9.476  0.9081  0.4809 -0.8140
  701MOL0     C96628   6.531   2.359   9.471  0.4172  0.0174 -0.2825
  701MOL0     C96629   6.648   2.130   9.479  0.5500 -0.4535 -0.1068
  701MOL0     C96630   6.784   2.193   9.464 -0.8914  0.5534 -0.0468
  701MOL0     O96631   6.892   2.101   9.452  0.3327  0.4091  0.2816
  701MOL0     C96632   7.013   2.138   9.407 -0.0584  0.7323 -1.0612
  701MOL0     C96633   7.127   2.097   9.477  0.4343  0.0493 -0.2923
  701MOL0     C96634   7.256   2.119   9.418  0.5342  0.7488 -0.3005
  701MOL0     C96635   7.275   2.198   9.307  0.5087  0.3607 -0.1206
  701MOL0     O96636   7.405   2.205   9.263 -0.1411 -0.1423 -0.1652
  701MOL0     C96637   7.448   2.287   9.152 -0.4272 -0.4005 -0.8461
  701MOL0     C96638   7.594   2.319   9.148  0.0422  0.6139  0.2242
  701MOL0     C96639   7.690   2.201   9.142 -0.1361  0.2710  0.5173
  701MOL0     C96640   7.830   2.243   9.182 -0.0768 -0.4518 -0.5162
  701MOL0     C96641   7.939   2.142   9.139  0.7366  0.1204 -0.1740
  701MOL0     C96642   8.080   2.191   9.176  0.6969  0.4395 -0.6300
  701MOL0     C96643   8.174   2.079   9.118  0.0588  0.6135  0.5805
  701MOL0     C96644   8.303   2.152   9.084 -0.4397  0.1514  0.2209
  701MOL0    Cl96645   8.413   2.038   8.997 -0.0803 -0.4373  0.2326
  701MOL0     C96646   7.158   2.255   9.251 -0.3549  0.2522 -0.6921
  701MOL0     C96647   7.031   2.222   9.304 -0.3847  0.1373  0.1197
  701MOL0     O96648   6.805   2.313   9.473  0.2792  0.6934  0.0317
  701MOL0     C96649   6.643   1.991   9.492 -0.4276 -0.9195 -0.0079
  701MOL0     C96650   6.519   1.930   9.494  0.6150  0.9377  0.0624
  701MOL0     N96651   5.820   1.759   9.670  0.5692  0.0587  0.0687
  701MOL0     N96652   5.813   1.644   9.717  1.2135 -0.5765 -0.0848
  701MOL0     C96653   4.791   1.431  10.106 -0.4334 -0.6870  0.8531
  701MOL0     C96654   4.670   1.376  10.146  0.9989 -0.7194  0.4522
  701MOL0     C96655   4.223   1.391  10.187 -0.3812  0.0358  0.6605
  701MOL0     C96656   4.238   1.278  10.273 -0.4776 -0.2480  0.7001
  701MOL0     C96657   4.137   1.253  10.361 -0.1014 -0.6073 -0.4865
  701MOL0     C96658   4.021   1.332  10.375  0.5233  0.4819 -1.2640
  701MOL0     O96659   3.923   1.293  10.468  0.1278 -0.6938 -0.3127
  701MOL0     C96660   3.808   1.377  10.496 -0.4686  0.3816 -0.1209
  701MOL0     C96661   3.695   1.359  10.395 -0.2533 -0.7187 -0.1704
  701MOL0     C96662   3.634   1.220  10.402 -0.5094  0.5598  0.0590
  701MOL0     C96663   3.570   1.176  10.537 -0.6814 -0.3259  0.0473
  701MOL0     C96664   3.461   1.277  10.563  0.4722 -0.5985  0.6005
  701MOL0     C96665   3.375   1.365  10.579 -0.1621  0.4730  0.7703
  701MOL0     C96666   4.001   1.434  10.283  0.5125 -0.6643 -0.2536
  701MOL0     C96667   4.101   1.460  10.192  0.6512  0.0358  0.6930
  701MOL0     C96668   4.054   1.556  10.091  0.6403  0.2363  0.4009
  701MOL0     H96669   4.511   1.411   9.854 -2.9146  1.2965  3.0534
  701MOL0     H96670   4.736   1.510   9.788  0.0776 -1.2394 -0.8861
  701MOL0     H96671   5.078   1.435  10.056 -0.8836 -0.7968 -1.7538
  701MOL0     H96672   5.021   1.584  10.123 -3.2380 -0.5460  0.3003
  701MOL0     H96673   5.140   1.705   9.951 -1.0034  0.2499  1.2186
  701MOL0     H96674   5.245   1.612  10.053  1.4983  3.2015 -1.0720
  701MOL0     H96675   5.141   1.489   9.800 -0.4495 -0.2541  1.2898
  701MOL0     H96676   5.285   1.596   9.788 -2.5141  0.8811 -0.3291
  701MOL0     H96677   5.379   1.432   9.970  0.7289  0.6062  0.3929
  701MOL0     H96678   5.242   1.321   9.912  2.6196 -1.2345  1.5063
  701MOL0     H96679   5.343   1.360   9.684  0.6794  0.5372  0.6320
  701MOL0     H96680   5.423   1.250   9.787 -1.3413 -0.2148 -2.4440
  701MOL0     H96681   5.526   1.539   9.743  0.9802  1.0985 -1.3733
  701MOL0     H96682   5.594   1.419   9.851 -1.6524 -0.8687  0.3458
  701MOL0     H96683   5.575   1.361   9.550 -1.0954  3.2591  0.0841
  701MOL0     H96684   5.629   1.251   9.663  1.9589 -0.1820 -0.2369
  701MOL0     H96685   5.826   1.362   9.727 -4.6413 -0.7548  2.7389
  701MOL0     H96686   5.814   1.364   9.545  1.2048 -1.6849  0.6563
  701MOL0     H96687   5.789   1.586   9.400  1.1652 -0.1061  0.0367
  701MOL0     H96688   5.727   1.920   9.424  0.5850  2.2753  0.9762
  701MOL0     H96689   5.818   1.810   9.327  0.6157 -1.5838  0.3168
  701MOL0     H96690   5.908   2.032   9.378 -2.1054  0.9760  0.4205
  701MOL0     H96691   5.894   1.987   9.552 -0.7811  0.7376 -0.0024
  701MOL0     H96692   6.092   1.828   9.509  0.8989 -0.8870  0.0948
  701MOL0     H96693   6.092   1.862   9.335  1.9499  0.3282  1.2335
  701MOL0     H96694   6.185   2.081   9.392  0.9500 -0.8293 -1.1515
  701MOL0     H96695   6.141   2.056   9.567 -2.1580  2.9037 -1.5533
  701MOL0     H96696   6.322   2.205   9.500 -0.1363  0.5692 -0.2015
  701MOL0     H96697   6.572   2.382   9.372  1.4031  0.4452  0.2125
  701MOL0     H96698   6.589   2.406   9.551 -0.4910  0.3795  0.1744
  701MOL0     H96699   6.435   2.410   9.482  1.0688  1.1681  0.3607
  701MOL0     H96700   7.114   2.031   9.561  2.3000 -1.0505 -0.7976
  701MOL0     H96701   7.350   2.084   9.461 -0.1738  1.9024  2.4110
  701MOL0     H96702   7.421   2.236   9.059  0.0539  2.0828 -2.4737
  701MOL0     H96703   7.396   2.383   9.154  0.3856  0.0968  2.3830
  701MOL0     H96704   7.612   2.390   9.066 -0.9279  1.5900  0.8233
  701MOL0     H96705   7.608   2.388   9.232 -1.1221  3.0911 -1.4625
  701MOL0     H96706   7.691   2.153   9.044 -0.6014 -0.8567  1.0523
  701MOL0     H96707   7.639   2.127   9.204 -2.3350 -2.1931 -3.7842
  701MOL0     H96708   7.842   2.266   9.288  4.7573 -2.3226 -0.3935
  701MOL0     H96709   7.852   2.337   9.130  0.1276 -0.1519  0.1094
  701MOL0     H96710   7.903   2.044   9.173 -2.0409  0.3169 -2.1884
  701MOL0     H96711   7.944   2.132   9.030  0.5750 -1.6595 -0.0600
  701MOL0     H96712   8.089   2.194   9.285 -1.6383  1.6917 -0.4121
  701MOL0     H96713   8.102   2.290   9.134 -0.1201  0.5101 -0.9134
  701MOL0     H96714   8.132   2.024   9.034 -0.5164  3.1118 -0.8692
  701MOL0     H96715   8.189   2.004   9.197 -1.5036 -1.5850 -1.1048
  701MOL0     H96716   8.348   2.198   9.172 -2.8840  0.4229  1.4070
  701MOL0     H96717   8.294   2.227   9.006 -1.8091 -1.6640 -1.4716
  701MOL0     H96718   7.153   2.325   9.168 -2.7634 -1.3357 -2.0071
  701MOL0     H96719   6.950   2.261   9.243  0.3890  1.0963 -0.3004
  701MOL0     H96720   6.728   1.924   9.490 -0.0522 -0.4313 -1.2710
  701MOL0     H96721   6.515   1.822   9.489  1.4817  0.7970  1.6689
  701MOL0     H96722   4.865   1.429  10.185  1.6432 -1.0470 -1.0132
  701MOL0     H96723   4.642   1.334  10.242 -0.0129 -2.9654 -0.7308
  701MOL0     H96724   4.330   1.223  10.289 -1.0262 -0.4661  3.5778
  701MOL0     H96725   4.164   1.170  10.425 -1.4096 -0.1863  0.6606
  701MOL0     H96726   3.775   1.352  10.597  1.7986  0.2222  0.6541
  701MOL0     H96727   3.839   1.482  10.489  3.8198 -0.8066 -2.4783
  701MOL0     H96728   3.739   1.372  10.296 -0.1842  3.5706  0.2372
  701MOL0     H96729   3.620   1.439  10.395 -0.5464 -0.7848  3.8859
  701MOL0     H96730   3.564   1.206  10.319  1.8277 -0.7282 -1.7900
  701MOL0     H96731   3.714   1.151  10.375  0.6335  0.9812  2.1157
  701MOL0     H96732   3.646   1.169  10.615 -0.5666  0.7628  0.0484
  701MOL0     H96733   3.516   1.081  10.539 -0.3192 -0.5286  0.1098
  701MOL0     H96734   3.305   1.443  10.599  0.4957  0.8783  1.5293
  701MOL0     H96735   3.916   1.500  10.293 -0.9181 -2.3166 -0.9998
  701MOL0     H96736   3.954   1.591  10.119  0.4956 -0.0019  0.1837
  701MOL0     H96737   4.118   1.644  10.077  1.3968 -0.3937 -0.2047
  701MOL0     H96738   4.042   1.502   9.997  0.6914  0.4489  0.2704
  702MOL0     O96739   5.071  10.001   4.504  0.2055 -0.1026 -0.0311
  702MOL0     C96740   5.010  10.065   4.416 -0.6173 -0.6193  0.4649
  702MOL0     O96741   5.065  10.171   4.351 -0.0020 -0.6094 -0.0285
  702MOL0     C96742   5.191  10.207   4.371 -0.4183  0.7337 -0.6820
  702MOL0     C96743   5.284  10.189   4.272 -0.5513  0.4767 -0.1943
  702MOL0     C96744   5.421  10.210   4.303  0.2626  0.2940  0.5799
  702MOL0     C96745   5.464  10.264   4.423  0.0238  0.0059 -0.3243
  702MOL0     O96746   5.598  10.297   4.444  0.1578 -0.5224  0.6439
  702MOL0     C96747   5.640  10.314   4.579  0.0990  0.2673 -0.1010
  702MOL0     C96748   5.798  10.331   4.569  0.7684 -0.9539  0.0543
  702MOL0     C96749   5.857  10.380   4.707 -0.4883  0.6269  0.5206
  702MOL0     C96750   5.880  10.261   4.801  0.5894  0.1420  0.1163
  702MOL0     C96751   5.933  10.310   4.934 -0.0328  0.4164  0.0104
  702MOL0     C96752   5.979  10.194   5.030 -0.2818 -0.2185 -0.2073
  702MOL0     C96753   5.856  10.122   5.084  0.1984 -0.2165  0.8567
  702MOL0     C96754   5.797  10.200   5.199 -0.6825 -0.4059  0.4004
  702MOL0     N96755   5.679  10.125   5.252  0.9857 -1.2358  0.0939
  702MOL0     C96756   5.548  10.152   5.232  0.4424 -0.2034 -0.0980
  702MOL0     C96757   5.475  10.049   5.289 -1.1623  1.4799  0.7795
  702MOL0     C96758   5.330  10.005   5.258 -0.2702  0.0041 -0.4288
  702MOL0     C96759   5.228  10.124   5.276  1.0446 -0.4638 -0.8667
  702MOL0     C96760   5.087  10.075   5.247 -0.4453 -0.5333  0.6963
  702MOL0     C96761   5.030   9.973   5.348 -0.1744  0.2053 -0.2693
  702MOL0     O96762   4.896   9.945   5.304  0.7289  0.2975 -0.0680
  702MOL0     C96763   4.793  10.041   5.324 -0.1152  1.0109 -0.8272
  702MOL0     C96764   4.691  10.038   5.235  0.0908  0.1818  0.0692
  702MOL0     C96765   4.587  10.130   5.239  0.2984  0.2786 -0.7240
  702MOL0     C96766   4.476  10.104   5.140  0.4018  0.0982 -0.0132
  702MOL0     C96767   4.589  10.241   5.324  0.6710  0.9886  0.6134
  702MOL0     C96768   4.494  10.351   5.309 -0.1631  0.4875 -0.5719
  702MOL0     O96769   4.507  10.462   5.390  0.2192  0.0908 -0.2391
  702MOL0     C96770   4.418  10.562   5.370 -0.5717 -0.1325 -0.2255
  702MOL0     C96771   4.464  10.693   5.362 -0.4164  0.4737 -0.6964
  702MOL0     C96772   4.383  10.804   5.354 -0.1608  0.3446 -0.3988
  702MOL0     C96773   4.245  10.781   5.374 -0.6081  0.1796  0.9906
  702MOL0     O96774   4.150  10.876   5.371 -0.5023 -0.1027 -0.2804
  702MOL0     C96775   4.171  11.013   5.333 -0.2483  1.3102  0.8315
  702MOL0     C96776   4.035  11.087   5.328 -0.1663  0.1964  0.3058
  702MOL0     C96777   4.027  11.201   5.421 -0.1439 -0.1688 -1.1496
  702MOL0     C96778   3.898  11.286   5.401  0.4544  0.2385  0.0399
  702MOL0     C96779   3.821  11.325   5.526  0.6010  0.0549 -0.2045
  702MOL0     C96780   3.852  11.451   5.608 -0.6600  0.1437 -0.6402
  702MOL0     C96781   3.762  11.450   5.734  0.0070 -0.3922  0.4396
  702MOL0     C96782   3.748  11.587   5.789 -0.4453 -0.0582  0.8161
  702MOL0    Cl96783   3.894  11.621   5.875 -0.1076  0.7503  0.1585
  702MOL0     C96784   4.197  10.651   5.391  0.6753 -0.5347 -0.0626
  702MOL0     C96785   4.277  10.545   5.379  1.0128 -0.8687 -0.2497
  702MOL0     O96786   4.420  10.348   5.214  0.4650 -0.2678  0.5194
  702MOL0     C96787   4.697  10.242   5.408 -0.9228 -0.4048  0.1415
  702MOL0     C96788   4.796  10.146   5.417 -0.5393  0.3196  1.3702
  702MOL0     N96789   5.568   9.956   5.337  0.2513  0.0303  0.0551
  702MOL0     N96790   5.681  10.005   5.313 -1.2079 -0.9774  0.3108
  702MOL0     C96791   5.371  10.292   4.525  0.8342 -0.4432 -0.2162
  702MOL0     C96792   5.231  10.264   4.494 -0.0409  0.1488 -0.5821
  702MOL0     C96793   4.867  10.033   4.381 -0.3485  0.6802  0.2954
  702MOL0     C96794   4.801   9.937   4.464  0.4032  0.5284 -0.2354
  702MOL0     C96795   4.660   9.908   4.456 -0.8432  0.0966  0.5316
  702MOL0     C96796   4.587   9.978   4.359  0.0297 -0.1583  0.5806
  702MOL0     O96797   4.449   9.956   4.347  0.3079 -0.2585  0.1172
  702MOL0     C96798   4.367  10.013   4.446  0.0736 -0.0785 -0.6058
  702MOL0     C96799   4.246  10.060   4.370  0.3675  0.5314 -0.6673
  702MOL0     C96800   4.151  10.130   4.464  0.2937  0.6954 -0.7602
  702MOL0     C96801   4.046  10.216   4.388  0.2084 -0.1289  0.1891
  702MOL0     C96802   4.101  10.348   4.352  1.2639  0.0618 -0.0003
  702MOL0     C96803   4.138  10.453   4.317  0.6794 -0.2656 -0.8427
  702MOL0     C96804   4.652  10.067   4.274  0.8014  0.1833 -0.0956
  702MOL0     C96805   4.786  10.099   4.282 -0.1542 -0.8530 -0.4466
  702MOL0     C96806   4.833  10.191   4.171 -0.8384 -0.8007 -0.2147
  702MOL0     H96807   5.253  10.165   4.172  1.6201  4.0191 -1.9481
  702MOL0     H96808   5.503  10.187   4.235  0.8754  0.1756  1.3487
  702MOL0     H96809   5.612  10.227   4.640 -1.0253 -0.4552 -1.5823
  702MOL0     H96810   5.588  10.395   4.629 -2.4824 -0.0823 -2.0195
  702MOL0     H96811   5.840  10.239   4.526  0.9334 -1.5690  1.4732
  702MOL0     H96812   5.809  10.413   4.497 -2.1277 -0.8303 -0.3554
  702MOL0     H96813   5.954  10.423   4.686 -0.7292  0.9440  0.0574
  702MOL0     H96814   5.788  10.450   4.755 -5.1960 -2.2192 -1.2680
  702MOL0     H96815   5.783  10.210   4.801  0.1418  0.8741 -1.7836
  702MOL0     H96816   5.953  10.192   4.758  0.5006  0.7683 -1.1128
  702MOL0     H96817   5.872  10.382   4.989  1.2000 -0.1706  2.2397
  702MOL0     H96818   6.024  10.365   4.909  1.1873 -1.7286 -0.4864
  702MOL0     H96819   6.037  10.123   4.971  0.1452  0.0157 -0.0724
  702MOL0     H96820   6.040  10.231   5.113 -0.8411 -2.4343  1.2835
  702MOL0     H96821   5.889  10.022   5.115  0.4030 -0.1442  0.8750
  702MOL0     H96822   5.782  10.097   5.008  1.6287 -4.3354  0.5348
  702MOL0     H96823   5.871  10.216   5.278  0.2408  0.9747 -0.7018
  702MOL0     H96824   5.778  10.304   5.171  1.9090  0.6745  2.3228
  702MOL0     H96825   5.511  10.233   5.170  0.1410 -0.6905 -0.5618
  702MOL0     H96826   5.309   9.933   5.338  0.3916  1.7745  1.4517
  702MOL0     H96827   5.316   9.959   5.160  0.5496  0.5529 -0.8218
  702MOL0     H96828   5.234  10.162   5.378 -4.5056  1.9795 -1.1316
  702MOL0     H96829   5.241  10.211   5.211  0.0977  4.1093  4.3487
  702MOL0     H96830   5.033  10.170   5.243  1.6547  0.6872 -1.2925
  702MOL0     H96831   5.100  10.022   5.152  0.2318  0.1386  0.4111
  702MOL0     H96832   5.083   9.877   5.357  1.8109  1.3783  1.2927
  702MOL0     H96833   5.039  10.013   5.449  0.0481 -1.8514  0.5690
  702MOL0     H96834   4.683   9.953   5.168 -0.4512 -2.9149  3.7304
  702MOL0     H96835   4.486  10.006   5.092  1.8061  0.5617 -0.7053
  702MOL0     H96836   4.495  10.169   5.055 -1.6029  1.5377  0.5708
  702MOL0     H96837   4.373  10.121   5.174  0.1840 -2.0313  0.5813
  702MOL0     H96838   4.569  10.720   5.360 -0.4470  0.5953 -2.6772
  702MOL0     H96839   4.411  10.908   5.340  0.5960  0.6205  2.4662
  702MOL0     H96840   4.252  11.055   5.393  1.1518  0.0583 -0.1205
  702MOL0     H96841   4.213  11.016   5.232  1.3984  0.0774  1.4334
  702MOL0     H96842   4.015  11.129   5.229 -2.0064 -0.7984  0.1992
  702MOL0     H96843   3.950  11.024   5.356 -0.7531  0.2016 -1.3561
  702MOL0     H96844   4.116  11.264   5.413  0.6730 -1.2128 -0.4923
  702MOL0     H96845   4.024  11.146   5.515 -0.6339  1.3707 -0.2297
  702MOL0     H96846   3.833  11.226   5.337  1.5631 -2.0849  0.9876
  702MOL0     H96847   3.925  11.381   5.353  0.3705  0.8997  1.2764
  702MOL0     H96848   3.721  11.339   5.485  0.2670  0.5005  0.7251
  702MOL0     H96849   3.832  11.239   5.593  1.8878 -1.5982 -2.4064
  702MOL0     H96850   3.835  11.548   5.559  0.5637  1.7520  1.8717
  702MOL0     H96851   3.956  11.454   5.642 -1.7296  1.0068  3.0337
  702MOL0     H96852   3.799  11.386   5.814 -1.8905 -0.4233  1.3552
  702MOL0     H96853   3.670  11.408   5.693  1.1354 -0.0308 -2.7375
  702MOL0     H96854   3.659  11.586   5.854 -1.8308 -3.0510 -0.9098
  702MOL0     H96855   3.733  11.664   5.712  1.9652 -0.2235  0.0954
  702MOL0     H96856   4.090  10.656   5.404  0.8156  1.7908  0.7184
  702MOL0     H96857   4.230  10.447   5.384 -1.9957  0.3834 -1.3116
  702MOL0     H96858   4.717  10.334   5.463 -0.3963 -1.0386  1.0287
  702MOL0     H96859   4.874  10.153   5.492 -0.2962  3.2037  0.9677
  702MOL0     H96860   5.392  10.330   4.625  1.9277 -0.1470 -0.5464
  702MOL0     H96861   5.156  10.279   4.571 -0.3571 -1.0734 -0.6406
  702MOL0     H96862   4.843   9.877   4.544  1.7544  1.1997 -0.4118
  702MOL0     H96863   4.622   9.822   4.510  0.1211 -2.9610 -3.1665
  702MOL0     H96864   4.324   9.935   4.509  1.8040 -0.0045  0.7333
  702MOL0     H96865   4.424  10.083   4.507  2.7220 -2.0856 -0.5717
  702MOL0     H96866   4.201   9.975   4.319  2.9180 -1.1041 -0.3788
  702MOL0     H96867   4.269  10.134   4.293 -0.0750  1.6867  0.2756
  702MOL0     H96868   4.097  10.050   4.516  0.3818 -0.0579 -1.7946
  702MOL0     H96869   4.203  10.185   4.543 -0.8644 -1.1983  1.4462
  702MOL0     H96870   3.961  10.226   4.456 -0.7063  1.7734 -1.1255
  702MOL0     H96871   4.008  10.157   4.304 -1.4362 -2.0717  2.1644
  702MOL0     H96872   4.163  10.553   4.286 -1.4857  0.7691  0.5377
  702MOL0     H96873   4.597  10.098   4.186 -0.0768 -1.9159 -0.3566
  702MOL0     H96874   4.836  10.131   4.079 -0.0642  0.7395 -1.2313
  702MOL0     H96875   4.761  10.265   4.135 -0.4753 -2.3005 -4.7259
  702MOL0     H96876   4.925  10.247   4.186 -2.0470  0.2994  4.3361
  703MOL0     O96877   6.529   4.243   4.389  0.4551 -0.0662 -0.4758
  703MOL0     C96878   6.445   4.338   4.392  0.0425 -0.0823  0.0018
  703MOL0     O96879   6.429   4.438   4.294 -0.1729  0.5176  0.8765
  703MOL0     C96880   6.508   4.409   4.184  0.4325 -0.1534 -0.0456
  703MOL0     C96881   6.640   4.447   4.169  0.6606  0.0204 -0.1070
  703MOL0     C96882   6.704   4.427   4.046  0.9834 -0.2231  0.5704
  703MOL0     C96883   6.642   4.370   3.944  0.4656  0.1947 -0.3046
  703MOL0     O96884   6.708   4.375   3.824  0.4318  0.1429  0.1256
  703MOL0     C96885   6.667   4.294   3.717  0.6881 -0.2107 -0.3010
  703MOL0     C96886   6.737   4.346   3.592 -0.9515 -1.1846  0.1116
  703MOL0     C96887   6.891   4.323   3.603  0.5362  0.3833 -0.2653
  703MOL0     C96888   6.964   4.342   3.472  0.3664  1.5938 -0.0670
  703MOL0     C96889   7.111   4.289   3.491 -1.1750 -0.4243  0.1530
  703MOL0     C96890   7.195   4.293   3.360  0.3319  0.0213 -0.6558
  703MOL0     C96891   7.207   4.428   3.298 -0.3686  0.2990 -0.2294
  703MOL0     C96892   7.263   4.538   3.388  0.0941  0.4727  0.2121
  703MOL0     N96893   7.383   4.492   3.455  0.1333  0.2193 -0.3034
  703MOL0     C96894   7.509   4.477   3.393  0.4662 -0.9069  0.0754
  703MOL0     C96895   7.590   4.448   3.502 -0.6677  0.3286  0.5005
  703MOL0     C96896   7.743   4.430   3.501 -0.4759 -0.0756  0.5280
  703MOL0     C96897   7.800   4.327   3.405 -0.5617  0.2500  0.1552
  703MOL0     C96898   7.746   4.180   3.425  0.0462  0.8346  0.3351
  703MOL0     C96899   7.786   4.079   3.318 -0.3437 -0.2679  0.2550
  703MOL0     O96900   7.732   4.115   3.190  0.3832  0.0840 -0.4511
  703MOL0     C96901   7.618   4.061   3.140 -0.1865  0.7683  0.2987
  703MOL0     C96902   7.538   4.145   3.059  0.0658 -0.3298 -0.0382
  703MOL0     C96903   7.415   4.105   3.015 -0.0511  0.9210 -0.2034
  703MOL0     C96904   7.326   4.210   2.960  0.6806 -0.8617  0.2473
  703MOL0     C96905   7.372   3.970   3.033  0.6769 -0.0694 -0.7836
  703MOL0     C96906   7.241   3.916   2.984 -0.4946 -0.1694  0.2061
  703MOL0     O96907   7.173   3.983   2.891 -0.0156  0.0204  0.7473
  703MOL0     C96908   7.067   3.919   2.828 -0.2348  0.5237  0.1190
  703MOL0     C96909   6.957   3.870   2.899  0.2342  0.3228  0.1025
  703MOL0     C96910   6.839   3.824   2.834  0.1616 -0.1812  0.2815
  703MOL0     C96911   6.856   3.812   2.695  0.0039 -1.2603  0.1155
  703MOL0     O96912   6.759   3.752   2.616  0.0138 -0.2183  0.0463
  703MOL0     C96913   6.625   3.737   2.672 -0.1835 -0.4507  0.5447
  703MOL0     C96914   6.535   3.663   2.578  0.2472  0.1738  0.1203
  703MOL0     C96915   6.391   3.678   2.620 -0.7354 -0.3727  0.0917
  703MOL0     C96916   6.362   3.574   2.728 -0.9643 -0.0711 -1.4263
  703MOL0     C96917   6.223   3.564   2.769  0.5015 -0.2167  0.0825
  703MOL0     C96918   6.203   3.448   2.876  0.8395  0.2906  0.4172
  703MOL0     C96919   6.051   3.400   2.872  0.3745 -0.2373  0.1697
  703MOL0     C96920   6.023   3.285   2.962  0.1812  0.3197  0.0742
  703MOL0    Cl96921   5.851   3.247   2.997  0.2719  0.0993  0.0467
  703MOL0     C96922   6.966   3.862   2.620 -0.5438  0.2811 -0.1044
  703MOL0     C96923   7.077   3.919   2.684 -0.0193  0.6640 -0.0859
  703MOL0     O96924   7.220   3.803   3.027 -0.4087  0.5725 -0.8570
  703MOL0     C96925   7.458   3.888   3.102 -0.6960  0.1722  0.3989
  703MOL0     C96926   7.576   3.931   3.167 -1.0334 -0.3159 -0.5424
  703MOL0     N96927   7.518   4.433   3.614 -0.1778 -0.6049  0.0854
  703MOL0     N96928   7.394   4.463   3.589  0.5933  0.5241  0.5675
  703MOL0     C96929   6.508   4.329   3.957 -0.3923 -0.1079  0.0846
  703MOL0     C96930   6.441   4.350   4.079 -0.5486 -0.9088  0.6483
  703MOL0     C96931   6.352   4.353   4.489  0.7109 -0.1933  0.2451
  703MOL0     C96932   6.348   4.472   4.560  0.7072 -0.1699 -1.1006
  703MOL0     C96933   6.265   4.482   4.676  0.0903  0.4074 -0.6136
  703MOL0     C96934   6.168   4.382   4.708 -1.1908  0.4675  0.0154
  703MOL0     O96935   6.094   4.396   4.817  0.5855  0.3780 -0.1287
  703MOL0     C96936   5.976   4.315   4.829 -0.3491  0.1094 -0.3680
  703MOL0     C96937   5.851   4.325   4.726 -0.0034  0.6976 -0.7035
  703MOL0     C96938   5.810   4.466   4.675 -0.5061  0.5237 -0.5590
  703MOL0     C96939   5.660   4.475   4.650  0.8424 -0.2162 -0.3793
  703MOL0     C96940   5.624   4.601   4.579  0.2813 -1.0673  0.0776
  703MOL0     C96941   5.590   4.707   4.517  1.3879 -0.1385 -0.1968
  703MOL0     C96942   6.169   4.267   4.624  0.2335  0.3246  1.0260
  703MOL0     C96943   6.257   4.250   4.525 -0.4578  0.2420 -0.5463
  703MOL0     C96944   6.258   4.128   4.436 -0.3947  0.0638  0.1497
  703MOL0     H96945   6.680   4.506   4.251 -0.6829  0.3512  0.3426
  703MOL0     H96946   6.806   4.464   4.046  0.7760  0.4213 -0.6769
  703MOL0     H96947   6.559   4.307   3.702  0.3208 -1.6398  0.9070
  703MOL0     H96948   6.693   4.191   3.742  1.4151 -0.2706 -1.2633
  703MOL0     H96949   6.703   4.307   3.496 -0.1835 -1.0403 -0.2290
  703MOL0     H96950   6.716   4.453   3.595  4.9455  0.3369  0.9221
  703MOL0     H96951   6.932   4.398   3.670 -2.4826  0.5576  1.5620
  703MOL0     H96952   6.905   4.220   3.638 -1.2083 -0.2156 -1.1941
  703MOL0     H96953   6.918   4.286   3.390 -0.6919  1.8270  0.3521
  703MOL0     H96954   6.962   4.449   3.446  0.1419  1.8988  1.1344
  703MOL0     H96955   7.114   4.187   3.531 -2.0963 -0.8522 -0.8248
  703MOL0     H96956   7.161   4.351   3.566 -2.8334  2.0906 -0.7096
  703MOL0     H96957   7.295   4.255   3.380 -0.1361 -0.1831  1.6353
  703MOL0     H96958   7.156   4.228   3.281 -2.3326  2.2168 -1.3226
  703MOL0     H96959   7.106   4.462   3.270 -0.7010 -0.0545  0.5219
  703MOL0     H96960   7.267   4.418   3.207 -1.5708  0.0553 -1.0312
  703MOL0     H96961   7.281   4.621   3.320 -1.5007 -0.2101 -1.1230
  703MOL0     H96962   7.181   4.553   3.459 -1.9634 -1.3870 -1.6103
  703MOL0     H96963   7.544   4.501   3.293 -0.7517  0.9322  0.0585
  703MOL0     H96964   7.777   4.397   3.600  4.1172  1.5231 -0.2515
  703MOL0     H96965   7.788   4.529   3.485  0.5513 -0.6172 -0.0601
  703MOL0     H96966   7.785   4.359   3.301  0.6315 -1.6938 -0.6730
  703MOL0     H96967   7.908   4.321   3.417 -0.3641 -2.3859 -2.0208
  703MOL0     H96968   7.787   4.146   3.521  1.3702  2.1051  0.2667
  703MOL0     H96969   7.637   4.179   3.434 -0.2482  1.3255 -2.3615
  703MOL0     H96970   7.895   4.072   3.310 -0.2184  0.8531  0.8686
  703MOL0     H96971   7.752   3.982   3.356  2.2351 -1.1314  0.5195
  703MOL0     H96972   7.557   4.250   3.041 -0.9453 -0.1585 -0.1765
  703MOL0     H96973   7.359   4.307   2.999  0.7179  0.2457 -2.3009
  703MOL0     H96974   7.229   4.200   3.009  1.3840 -1.4924  1.5620
  703MOL0     H96975   7.314   4.205   2.851 -2.6763  0.7062  0.4246
  703MOL0     H96976   6.958   3.867   3.007 -1.1193 -0.3972  0.1199
  703MOL0     H96977   6.746   3.805   2.887 -1.6492  0.9253 -2.2783
  703MOL0     H96978   6.635   3.672   2.759 -1.2105  0.9532  1.7640
  703MOL0     H96979   6.577   3.831   2.702  0.5323  0.7672 -1.8529
  703MOL0     H96980   6.550   3.713   2.482 -0.9555 -3.2092 -2.0163
  703MOL0     H96981   6.573   3.561   2.574  1.4284  0.5717  0.7208
  703MOL0     H96982   6.329   3.654   2.534  0.5598 -1.0079 -0.6928
  703MOL0     H96983   6.374   3.783   2.646  0.4343  1.0069 -3.9919
  703MOL0     H96984   6.426   3.595   2.814  0.0757 -0.2599 -2.1298
  703MOL0     H96985   6.402   3.480   2.690  0.9363  0.4432 -0.8023
  703MOL0     H96986   6.187   3.657   2.815  1.7263 -0.0627  0.7630
  703MOL0     H96987   6.163   3.549   2.679  1.5685 -0.5390 -0.5831
  703MOL0     H96988   6.228   3.484   2.976  1.8942 -3.1941  1.5348
  703MOL0     H96989   6.272   3.366   2.854 -0.2638 -1.1727  2.1663
  703MOL0     H96990   6.017   3.359   2.777 -1.8116  1.4592  0.1392
  703MOL0     H96991   5.988   3.488   2.886  1.5742  0.8283 -0.7903
  703MOL0     H96992   6.079   3.296   3.055  1.0310  0.1791 -0.4136
  703MOL0     H96993   6.056   3.193   2.912 -3.2980 -1.0540  0.0409
  703MOL0     H96994   6.963   3.860   2.512  1.5547 -0.1245 -0.1926
  703MOL0     H96995   7.161   3.956   2.626  0.1279 -0.0844 -0.3641
  703MOL0     H96996   7.426   3.787   3.123  1.4331 -0.2784  1.7735
  703MOL0     H96997   7.636   3.865   3.229 -1.1350  2.2465  2.4957
  703MOL0     H96998   6.450   4.283   3.878 -0.8000 -0.6767  0.7107
  703MOL0     H96999   6.338   4.318   4.090 -0.7700 -0.3479  0.2379
  703MOL0     H97000   6.406   4.560   4.532  1.8004 -0.6387 -0.3736
  703MOL0     H97001   6.253   4.575   4.731 -1.9203 -0.3306  0.2747
  703MOL0     H97002   6.003   4.209   4.831 -1.0476 -0.0652  0.3444
  703MOL0     H97003   5.933   4.348   4.924 -0.9675 -0.5312 -0.4256
  703MOL0     H97004   5.770   4.272   4.779  2.7962  0.9277  4.3871
  703MOL0     H97005   5.878   4.274   4.633 -0.0798 -0.3277 -0.1878
  703MOL0     H97006   5.843   4.547   4.741  1.2439 -0.2121 -0.4598
  703MOL0     H97007   5.864   4.486   4.582  1.3527 -0.7434  0.1744
  703MOL0     H97008   5.607   4.472   4.746 -0.0322 -1.2468 -0.8732
  703MOL0     H97009   5.624   4.387   4.595  1.2891 -0.5449 -0.1526
  703MOL0     H97010   5.557   4.795   4.465 -2.0375 -0.5028  1.1115
  703MOL0     H97011   6.091   4.191   4.629  0.2354  0.3068  0.8035
  703MOL0     H97012   6.328   4.051   4.472 -0.2566  1.3096  2.8114
  703MOL0     H97013   6.160   4.080   4.442  0.2536 -1.1509  1.6638
  703MOL0     H97014   6.272   4.150   4.330 -1.6134 -0.5823 -0.1645
  704MOL0     O97015  10.563   0.632   9.128 -0.0333 -0.0885  0.1189
  704MOL0     C97016  10.499   0.550   9.059  0.0031  1.1430 -0.2336
  704MOL0     O97017  10.546   0.498   8.939  0.3684 -0.5357 -0.0651
  704MOL0     C97018  10.664   0.548   8.894  0.4362  0.0729 -0.3423
  704MOL0     C97019  10.663   0.635   8.790  0.3755  0.3414  1.0380
  704MOL0     C97020  10.793   0.685   8.758  0.4447 -0.3692 -0.7297
  704MOL0     C97021  10.913   0.650   8.827 -0.2071  0.4558  0.0450
  704MOL0     O97022  11.032   0.711   8.789  0.1839  0.0623  0.2454
  704MOL0     C97023  11.156   0.667   8.853  0.0575 -0.5887 -0.4343
  704MOL0     C97024  11.263   0.777   8.816  0.7137  0.6367  0.4170
  704MOL0     C97025  11.398   0.753   8.875 -0.1003 -0.4202  0.1204
  704MOL0     C97026  11.409   0.828   9.012  0.1674 -0.1956 -0.6850
  704MOL0     C97027  11.552   0.813   9.066 -0.2138  0.2786  1.1497
  704MOL0     C97028  11.595   0.902   9.177  0.7318  0.6512  0.2184
  704MOL0     C97029  11.744   0.888   9.221  0.3601 -0.5313  0.0705
  704MOL0     C97030  11.762   0.949   9.364  0.7831  0.4401 -0.2927
  704MOL0     N97031  11.731   1.091   9.381 -0.3296 -0.7274  0.4603
  704MOL0     C97032  11.816   1.200   9.341  0.0375 -0.1910 -0.6852
  704MOL0     C97033  11.736   1.306   9.368  0.6657 -0.3770  0.2114
  704MOL0     C97034  11.782   1.450   9.363  0.6537  0.4176  0.6365
  704MOL0     C97035  11.794   1.496   9.219 -0.3635  0.7267 -0.3214
  704MOL0     C97036  11.805   1.644   9.219 -0.0425  0.5306  0.6266
  704MOL0     C97037  11.795   1.694   9.075  0.1528 -0.9950  0.1596
  704MOL0     O97038  11.891   1.631   8.992  0.6352 -0.4759 -0.6054
  704MOL0     C97039  12.015   1.704   8.991 -0.4538  0.2302  0.3521
  704MOL0     C97040  12.111   1.668   9.077 -0.2132  0.0288  0.3601
  704MOL0     C97041  12.242   1.718   9.067  1.4244  0.5827 -0.5039
  704MOL0     C97042  12.341   1.652   9.160  0.2807 -0.7333 -0.0746
  704MOL0     C97043  12.274   1.803   8.952  0.4922  0.5572 -0.7413
  704MOL0     C97044  12.408   1.864   8.941 -0.3321  0.8980 -0.8348
  704MOL0     O97045  12.489   1.878   9.046 -0.3563  0.3831 -0.4344
  704MOL0     C97046  12.615   1.929   9.039 -0.5864 -0.6022  0.2555
  704MOL0     C97047  12.652   2.037   8.956  0.1464  0.9465  0.2541
  704MOL0     C97048  12.789   2.063   8.934  0.0006 -0.8597 -0.0099
  704MOL0     C97049  12.886   2.001   9.012 -0.0537 -0.6832 -0.2553
  704MOL0     O97050  13.019   2.024   8.995  0.1780 -0.3122 -0.6785
  704MOL0     C97051  13.059   2.106   8.885 -0.4224 -0.0156  0.0201
  704MOL0     C97052  13.210   2.132   8.899 -0.0719  0.2812 -0.4094
  704MOL0     C97053  13.262   2.232   8.791  0.2302 -0.1421 -0.5793
  704MOL0     C97054  13.228   2.374   8.823 -0.6377  0.3539 -0.3161
  704MOL0     C97055  13.285   2.478   8.731 -0.2420  0.2495 -0.2214
  704MOL0     C97056  13.443   2.499   8.735 -0.4772  0.4798 -0.4182
  704MOL0     C97057  13.485   2.575   8.616 -0.0141 -0.4546  0.0222
  704MOL0     C97058  13.638   2.607   8.614  0.1605  0.6695  0.4071
  704MOL0    Cl97059  13.686   2.705   8.751  0.2561  0.3033  0.0790
  704MOL0     C97060  12.849   1.903   9.111  0.5003  0.0456  0.6886
  704MOL0     C97061  12.715   1.867   9.115 -0.1648  0.7401  0.0686
  704MOL0     O97062  12.441   1.884   8.821 -0.1510  0.4359  0.0687
  704MOL0     C97063  12.172   1.829   8.856  0.5553  0.2989 -0.3426
  704MOL0     C97064  12.043   1.788   8.887  0.1786 -0.1222  0.5868
  704MOL0     N97065  11.608   1.273   9.416  0.4105  0.0251  1.0178
  704MOL0     N97066  11.609   1.144   9.418 -0.1960 -0.2023  0.4435
  704MOL0     C97067  10.904   0.560   8.932 -0.1921 -0.3086 -1.6964
  704MOL0     C97068  10.781   0.506   8.961 -0.0819 -0.2047  0.0350
  704MOL0     C97069  10.373   0.483   9.117  0.2427 -0.3019  0.6194
  704MOL0     C97070  10.292   0.408   9.028 -0.6883  0.3684 -0.4903
  704MOL0     C97071  10.169   0.361   9.057  0.8006 -0.1928  0.2899
  704MOL0     C97072  10.108   0.373   9.180  0.3111  0.4690 -0.3184
  704MOL0     O97073   9.974   0.334   9.188  0.5983 -0.3000 -0.0831
  704MOL0     C97074   9.929   0.314   9.328  0.4632  1.0498  0.9051
  704MOL0     C97075   9.813   0.224   9.338 -0.9260  0.5883 -0.4477
  704MOL0     C97076   9.771   0.196   9.481 -0.5755 -0.3551  1.5011
  704MOL0     C97077   9.627   0.136   9.460 -0.5955 -0.1718  0.9840
  704MOL0     C97078   9.531   0.250   9.455 -0.3927  0.5541 -0.0008
  704MOL0     C97079   9.475   0.354   9.479  0.1541  0.2710 -0.9873
  704MOL0     C97080  10.181   0.444   9.282 -0.3519 -0.8599  1.5542
  704MOL0     C97081  10.307   0.499   9.244 -0.9026 -0.5496 -0.2324
  704MOL0     C97082  10.369   0.581   9.355 -0.4541  0.2315 -0.1647
  704MOL0     H97083  10.577   0.674   8.735  0.8801  0.1546  0.1026
  704MOL0     H97084  10.811   0.750   8.674 -3.0892  2.8388  0.7202
  704MOL0     H97085  11.185   0.569   8.813 -1.4941 -1.3145  0.1189
  704MOL0     H97086  11.140   0.666   8.961 -1.2356 -1.5229 -0.6122
  704MOL0     H97087  11.273   0.770   8.707 -0.7309 -3.5248  0.3331
  704MOL0     H97088  11.213   0.872   8.837 -2.5788 -1.2344  1.8977
  704MOL0     H97089  11.422   0.648   8.891  2.8078  0.0618 -0.5017
  704MOL0     H97090  11.466   0.791   8.798  1.5765 -0.7346  1.3824
  704MOL0     H97091  11.382   0.933   8.996 -1.5016 -0.0350  2.4296
  704MOL0     H97092  11.338   0.788   9.084  0.9976  1.2670  1.0293
  704MOL0     H97093  11.616   0.844   8.983 -2.6313 -0.3738 -1.1054
  704MOL0     H97094  11.570   0.707   9.086 -1.9951 -0.4680 -0.7858
  704MOL0     H97095  11.581   1.005   9.142 -0.5885  0.5063  0.2776
  704MOL0     H97096  11.536   0.882   9.267  0.1476 -1.1158 -0.5096
  704MOL0     H97097  11.806   0.939   9.146 -0.2917  1.6389  0.9364
  704MOL0     H97098  11.768   0.781   9.229 -1.6545 -0.9705  0.8101
  704MOL0     H97099  11.699   0.884   9.427  1.1888  0.4936  0.1700
  704MOL0     H97100  11.862   0.920   9.398  1.0604 -0.5267 -1.8406
  704MOL0     H97101  11.918   1.194   9.305  1.0226 -2.9938  2.1080
  704MOL0     H97102  11.880   1.463   9.410  1.2084  0.6379 -0.5506
  704MOL0     H97103  11.715   1.521   9.413  0.6046 -0.1146  1.3328
  704MOL0     H97104  11.880   1.445   9.173 -1.0839  0.2002 -1.1100
  704MOL0     H97105  11.707   1.471   9.157 -1.4517 -0.4111  1.5613
  704MOL0     H97106  11.725   1.691   9.277  2.0281  1.7308  2.6901
  704MOL0     H97107  11.896   1.674   9.271  2.1128 -2.3948 -1.1237
  704MOL0     H97108  11.699   1.652   9.043  0.0052 -0.6275  0.1075
  704MOL0     H97109  11.802   1.803   9.069 -3.6827 -0.6417 -0.4178
  704MOL0     H97110  12.091   1.585   9.143  0.6615  0.1124  0.7367
  704MOL0     H97111  12.423   1.612   9.101 -0.9146 -0.0312 -2.3115
  704MOL0     H97112  12.299   1.572   9.222  0.1406 -0.7070 -0.1362
  704MOL0     H97113  12.387   1.727   9.225 -0.1512 -0.9113  0.4532
  704MOL0     H97114  12.582   2.099   8.900 -3.1914 -3.1027 -0.5243
  704MOL0     H97115  12.823   2.129   8.855 -1.1608 -3.3360 -2.7996
  704MOL0     H97116  13.035   2.051   8.793  1.8724  1.5975 -1.6668
  704MOL0     H97117  13.009   2.203   8.891  1.5449  1.0732 -0.3709
  704MOL0     H97118  13.245   2.165   8.997 -0.7375 -3.2805  1.1774
  704MOL0     H97119  13.261   2.040   8.869  2.0577  1.4434 -0.5879
  704MOL0     H97120  13.224   2.200   8.694 -1.2282 -1.7164  0.4619
  704MOL0     H97121  13.370   2.220   8.784  0.1149 -2.0184  0.4201
  704MOL0     H97122  13.259   2.395   8.926  1.6940 -2.4446 -0.3120
  704MOL0     H97123  13.120   2.391   8.812 -0.3254  0.6222 -4.7198
  704MOL0     H97124  13.246   2.452   8.632  3.0756  0.9941 -1.8848
  704MOL0     H97125  13.232   2.568   8.763 -0.3256  0.8822 -2.0270
  704MOL0     H97126  13.499   2.406   8.743  0.7611  1.3647  2.6682
  704MOL0     H97127  13.474   2.564   8.817  0.6302  1.9321 -1.9272
  704MOL0     H97128  13.423   2.665   8.612  0.8087  0.1948  1.2527
  704MOL0     H97129  13.451   2.524   8.525  2.8672  2.5761 -3.0646
  704MOL0     H97130  13.648   2.666   8.522 -0.3140 -0.9581 -0.7467
  704MOL0     H97131  13.695   2.513   8.608  0.0496  0.6614 -0.8658
  704MOL0     H97132  12.927   1.847   9.162  1.4899 -1.7074 -2.4734
  704MOL0     H97133  12.687   1.782   9.176  0.5382  0.7863  0.4719
  704MOL0     H97134  12.174   1.896   8.771 -0.7766  1.1265  0.2461
  704MOL0     H97135  11.968   1.823   8.817 -0.2269 -1.0768  0.5311
  704MOL0     H97136  10.985   0.517   8.990 -2.1552 -2.9236 -0.6677
  704MOL0     H97137  10.768   0.436   9.044 -2.7244 -0.9312 -0.9033
  704MOL0     H97138  10.329   0.375   8.931 -1.3467 -0.7774 -0.3733
  704MOL0     H97139  10.103   0.323   8.980 -1.1298  3.8438 -0.3137
  704MOL0     H97140  10.008   0.277   9.394 -1.1405 -1.4269  1.5738
  704MOL0     H97141   9.892   0.404   9.378 -0.3745  0.5278  1.2492
  704MOL0     H97142   9.856   0.131   9.299 -0.4099  0.4499  0.4370
  704MOL0     H97143   9.729   0.250   9.273 -1.1661 -0.8089 -0.7215
  704MOL0     H97144   9.834   0.126   9.537  0.0344  0.0995  1.3899
  704MOL0     H97145   9.764   0.286   9.543 -2.0490 -0.4121  1.4505
  704MOL0     H97146   9.603   0.077   9.549  0.2577  0.4949  1.6673
  704MOL0     H97147   9.628   0.084   9.363  1.0009 -0.8707  1.3267
  704MOL0     H97148   9.432   0.443   9.520  0.6024  0.0757 -0.0503
  704MOL0     H97149  10.134   0.462   9.378  0.3642  3.7615  1.2543
  704MOL0     H97150  10.296   0.608   9.432 -0.0861  0.1793  0.2024
  704MOL0     H97151  10.457   0.526   9.390  1.8076  2.4417 -2.0665
  704MOL0     H97152  10.398   0.679   9.316 -1.0060  0.1917 -0.6959
  705MOL0     O97153  10.783   1.086   7.322  0.0333 -0.0744 -0.0169
  705MOL0     C97154  10.687   1.145   7.360 -0.0683  1.1569 -0.5147
  705MOL0     O97155  10.682   1.284   7.371 -0.0930 -0.2915 -0.1210
  705MOL0     C97156  10.790   1.369   7.362  0.0470 -0.7718 -0.1408
  705MOL0     C97157  10.751   1.507   7.344  0.0201  0.0211  0.1461
  705MOL0     C97158  10.849   1.604   7.353 -0.9024  0.0655 -0.1109
  705MOL0     C97159  10.989   1.571   7.376  0.2776 -0.6170  0.7958
  705MOL0     O97160  11.083   1.667   7.401  0.1510 -0.5708 -0.6891
  705MOL0     C97161  11.058   1.795   7.334  0.5462  0.8619  0.1503
  705MOL0     C97162  11.196   1.859   7.334 -0.2992  0.1028 -0.6338
  705MOL0     C97163  11.309   1.770   7.281  0.2791  0.0582  0.8940
  705MOL0     C97164  11.449   1.838   7.294  0.2930  0.6802  0.8247
  705MOL0     C97165  11.557   1.752   7.234 -0.5545 -0.7574 -0.4194
  705MOL0     C97166  11.687   1.835   7.236  0.1371  0.6707  0.0766
  705MOL0     C97167  11.745   1.857   7.374  0.4050  0.7993 -0.2074
  705MOL0     C97168  11.884   1.911   7.356 -0.7870 -0.1067 -0.3143
  705MOL0     N97169  11.984   1.879   7.457 -0.5208  0.3572 -0.0780
  705MOL0     C97170  11.986   1.765   7.532  0.5635 -0.5196  0.1001
  705MOL0     C97171  12.093   1.770   7.610 -0.5991  1.0195 -0.6729
  705MOL0     C97172  12.140   1.668   7.716  0.6032  0.4832 -0.2047
  705MOL0     C97173  12.269   1.704   7.787 -0.0263  0.3896  0.0367
  705MOL0     C97174  12.361   1.590   7.813  0.0866  0.1274  0.9943
  705MOL0     C97175  12.468   1.620   7.915 -0.0891 -0.2999 -0.3988
  705MOL0     O97176  12.576   1.525   7.901 -0.6612 -0.0836 -0.9219
  705MOL0     C97177  12.695   1.540   7.976  0.2191 -0.5955  0.4192
  705MOL0     C97178  12.720   1.640   8.069 -0.7692 -0.4607  0.4390
  705MOL0     C97179  12.847   1.653   8.138  0.1561  0.1047 -0.0726
  705MOL0     C97180  12.874   1.757   8.240 -0.3731 -0.4989  0.4100
  705MOL0     C97181  12.956   1.564   8.104 -0.4911  0.2509  0.1769
  705MOL0     C97182  13.098   1.555   8.148 -0.2123 -0.9123  0.0274
  705MOL0     O97183  13.154   1.675   8.193  0.4826 -0.5862  0.0635
  705MOL0     C97184  13.289   1.678   8.226  0.0830  0.5794 -0.0968
  705MOL0     C97185  13.369   1.753   8.147  0.1049  0.2080  0.4481
  705MOL0     C97186  13.503   1.766   8.176  0.8114  0.1954  0.4167
  705MOL0     C97187  13.563   1.698   8.282  0.2780  0.2957  0.4348
  705MOL0     O97188  13.689   1.731   8.305 -0.4001 -0.1320  0.5201
  705MOL0     C97189  13.758   1.697   8.424  0.1406  0.3815  0.4786
  705MOL0     C97190  13.891   1.767   8.425 -0.9702 -0.2065 -0.3410
  705MOL0     C97191  13.972   1.745   8.561 -0.2111  0.3251  0.3299
  705MOL0     C97192  14.124   1.779   8.541  0.0587 -0.6680  0.0677
  705MOL0     C97193  14.207   1.779   8.665  0.6906  1.0456 -0.2637
  705MOL0     C97194  14.193   1.915   8.732 -0.5444 -0.5377 -0.3669
  705MOL0     C97195  14.256   1.918   8.874  0.0943  0.5336 -0.3672
  705MOL0     C97196  14.257   2.057   8.936 -0.5793 -0.3808 -0.0017
  705MOL0    Cl97197  14.377   2.068   9.078  0.0532 -0.3432  0.6801
  705MOL0     C97198  13.484   1.623   8.368 -0.8419 -0.0010  0.0123
  705MOL0     C97199  13.352   1.610   8.338  0.1851 -0.0443  0.4728
  705MOL0     O97200  13.154   1.450   8.137 -0.6728 -0.0540 -0.3875
  705MOL0     C97201  12.917   1.472   8.009 -0.6283  0.7966  0.0394
  705MOL0     C97202  12.788   1.453   7.948 -0.8863 -0.1515 -0.0655
  705MOL0     N97203  12.155   1.886   7.580 -0.3999 -0.4140  0.4756
  705MOL0     N97204  12.091   1.952   7.485 -0.3169 -0.5447 -0.1660
  705MOL0     C97205  11.022   1.435   7.378  0.0292  0.0664 -0.8127
  705MOL0     C97206  10.928   1.340   7.378 -0.1996 -0.6615  0.7455
  705MOL0     C97207  10.559   1.060   7.383 -0.8202  0.4579 -0.1579
  705MOL0     C97208  10.466   1.115   7.468 -0.7098  0.1038 -0.4214
  705MOL0     C97209  10.347   1.049   7.493  0.3360  0.0943  0.6444
  705MOL0     C97210  10.321   0.923   7.429 -0.5484  0.1706 -0.4484
  705MOL0     O97211  10.198   0.876   7.452  0.3906 -0.6072  0.1970
  705MOL0     C97212  10.161   0.741   7.402 -1.2859 -0.0394  0.6296
  705MOL0     C97213  10.025   0.696   7.447  0.7496  0.9204 -0.2189
  705MOL0     C97214   9.918   0.801   7.431 -0.4046 -0.0274  0.5554
  705MOL0     C97215   9.778   0.760   7.470  0.6426  0.2490  0.3099
  705MOL0     C97216   9.672   0.863   7.436  0.1393  1.0889 -0.0549
  705MOL0     C97217   9.586   0.936   7.408  0.7047 -0.6730 -0.3274
  705MOL0     C97218  10.415   0.860   7.350  0.0112  0.9494  0.6991
  705MOL0     C97219  10.535   0.933   7.317 -0.0502  0.9471 -0.1075
  705MOL0     C97220  10.631   0.852   7.229  0.3234  0.1315 -0.3829
  705MOL0     H97221  10.646   1.530   7.337 -0.0068  0.1940  0.9521
  705MOL0     H97222  10.813   1.705   7.362  0.3725  0.4504  1.1376
  705MOL0     H97223  10.979   1.855   7.380  1.2405  3.0468 -1.3244
  705MOL0     H97224  11.023   1.774   7.233 -0.0226 -0.9408  0.6779
  705MOL0     H97225  11.185   1.955   7.282 -0.4927 -0.0066 -0.7958
  705MOL0     H97226  11.226   1.878   7.438 -1.9875 -3.4458  0.6580
  705MOL0     H97227  11.302   1.668   7.319 -1.6098 -0.0442  0.3600
  705MOL0     H97228  11.289   1.767   7.174  1.6999  2.8065  0.4440
  705MOL0     H97229  11.449   1.937   7.248 -1.4488  0.7913  0.9990
  705MOL0     H97230  11.463   1.845   7.403 -1.1944  0.2467  1.0644
  705MOL0     H97231  11.528   1.751   7.129 -1.4548  2.8855 -0.3605
  705MOL0     H97232  11.572   1.648   7.264  0.1129 -0.7586 -0.7360
  705MOL0     H97233  11.745   1.766   7.175  1.7612  1.4435  0.6973
  705MOL0     H97234  11.666   1.924   7.176 -0.2854 -0.0111 -0.8111
  705MOL0     H97235  11.751   1.762   7.428  1.2998 -1.0157 -3.2654
  705MOL0     H97236  11.685   1.927   7.433 -0.3022  1.0487 -1.2012
  705MOL0     H97237  11.923   1.865   7.265  1.5240  1.4084 -0.1720
  705MOL0     H97238  11.877   2.018   7.336 -1.0734  0.2336  1.4650
  705MOL0     H97239  11.910   1.689   7.518 -1.0137  1.4299 -3.0021
  705MOL0     H97240  12.140   1.578   7.654 -3.5592  2.1173 -3.0339
  705MOL0     H97241  12.061   1.649   7.789  1.2023  2.5497  1.0544
  705MOL0     H97242  12.321   1.787   7.738 -0.2986  0.5866  0.0801
  705MOL0     H97243  12.238   1.742   7.885 -2.0624 -0.6596 -0.1321
  705MOL0     H97244  12.302   1.506   7.853  0.1443 -0.8752 -0.9122
  705MOL0     H97245  12.405   1.553   7.720 -0.0551  2.0369  0.1142
  705MOL0     H97246  12.501   1.724   7.908 -0.2104 -0.0631  1.7852
  705MOL0     H97247  12.425   1.603   8.015 -0.5198 -3.1653 -0.9730
  705MOL0     H97248  12.640   1.711   8.090  1.9283  2.5143  1.4615
  705MOL0     H97249  12.905   1.710   8.334  1.5203  0.4545  0.3196
  705MOL0     H97250  12.783   1.812   8.265  1.4185  2.9196  0.0412
  705MOL0     H97251  12.949   1.829   8.205 -1.7115  0.7397  0.0046
  705MOL0     H97252  13.324   1.798   8.059  0.3465  1.8308  1.1323
  705MOL0     H97253  13.576   1.820   8.116  1.8465 -0.8790  0.6447
  705MOL0     H97254  13.706   1.734   8.513 -1.2116 -1.7007  0.6097
  705MOL0     H97255  13.765   1.589   8.436  0.3990  0.4423  0.8880
  705MOL0     H97256  13.945   1.731   8.337 -2.7107  0.6471 -1.8231
  705MOL0     H97257  13.885   1.875   8.411 -0.7340 -0.2701 -0.9767
  705MOL0     H97258  13.955   1.646   8.604  1.8017 -1.3375 -2.3678
  705MOL0     H97259  13.934   1.824   8.628  0.7957  0.3715  0.8681
  705MOL0     H97260  14.144   1.874   8.491  0.3737 -0.7365  0.0565
  705MOL0     H97261  14.166   1.709   8.468  2.4064  1.5788 -0.8737
  705MOL0     H97262  14.182   1.691   8.724 -3.3055  1.3504 -1.1962
  705MOL0     H97263  14.314   1.769   8.647  0.7547 -0.9598  0.9258
  705MOL0     H97264  14.087   1.937   8.748  0.0876  2.0348  0.9605
  705MOL0     H97265  14.238   1.997   8.674 -1.3921  2.0177  2.3696
  705MOL0     H97266  14.362   1.893   8.868  0.4211  1.9735 -0.9765
  705MOL0     H97267  14.207   1.851   8.946 -1.2788  3.3429  1.4903
  705MOL0     H97268  14.154   2.092   8.951 -0.0312  1.0301  0.6217
  705MOL0     H97269  14.294   2.127   8.860  1.3229 -0.6192  0.6508
  705MOL0     H97270  13.530   1.574   8.453  2.4130 -0.8492 -2.0527
  705MOL0     H97271  13.294   1.567   8.419  1.4367  1.5720  2.3149
  705MOL0     H97272  12.989   1.403   7.967  0.4109  2.8193 -1.6885
  705MOL0     H97273  12.775   1.379   7.870 -1.0411 -0.3917  0.1848
  705MOL0     H97274  11.129   1.417   7.380  0.8760  4.1870  0.2666
  705MOL0     H97275  10.949   1.233   7.379 -2.8079 -1.2780  3.7651
  705MOL0     H97276  10.507   1.200   7.522 -0.4366 -0.4778  0.2936
  705MOL0     H97277  10.266   1.077   7.558  0.0752  0.7291  0.0584
  705MOL0     H97278  10.171   0.733   7.294 -4.1244 -1.8635  0.4090
  705MOL0     H97279  10.237   0.675   7.447 -0.4898 -0.3592 -1.0969
  705MOL0     H97280  10.035   0.652   7.547  3.0608 -0.0102 -0.8046
  705MOL0     H97281  10.005   0.617   7.374  0.0174 -0.4502  1.3794
  705MOL0     H97282   9.944   0.878   7.505  0.1587  0.0919  0.2377
  705MOL0     H97283   9.904   0.838   7.329 -2.6808 -1.5265  0.2694
  705MOL0     H97284   9.766   0.744   7.578  0.2665  3.6282  0.8936
  705MOL0     H97285   9.752   0.666   7.420 -3.1972  0.3189  1.8159
  705MOL0     H97286   9.501   0.995   7.377  1.5487  0.8290  0.0970
  705MOL0     H97287  10.384   0.775   7.290  1.0946  1.4980 -0.6839
  705MOL0     H97288  10.658   0.922   7.149  0.1802 -0.5694 -1.0599
  705MOL0     H97289  10.718   0.819   7.286  0.9644 -0.5946 -1.7316
  705MOL0     H97290  10.590   0.762   7.182  0.5466  1.3937 -3.2249
  706MOL0     O97291   5.650   3.210   0.500 -0.1402  0.1211 -0.7186
  706MOL0     C97292   5.723   3.114   0.475 -0.0985  0.1895 -0.2896
  706MOL0     O97293   5.689   2.983   0.489  0.0269 -0.7344 -0.0076
  706MOL0     C97294   5.576   2.931   0.530  1.2514  0.4974  0.6078
  706MOL0     C97295   5.501   2.991   0.635 -0.1096 -0.3221  0.8638
  706MOL0     C97296   5.375   2.943   0.665  0.4146  0.2327 -0.0675
  706MOL0     C97297   5.320   2.838   0.584  0.0859 -0.3295 -0.8689
  706MOL0     O97298   5.200   2.784   0.592  0.7786  0.0082 -0.1016
  706MOL0     C97299   5.186   2.699   0.711  0.0714 -0.2991 -0.6387
  706MOL0     C97300   5.102   2.775   0.812 -1.0629 -0.0475 -0.8025
  706MOL0     C97301   4.953   2.790   0.774  0.1626  0.1837  0.4357
  706MOL0     C97302   4.868   2.659   0.771  0.7465  0.3021  0.4050
  706MOL0     C97303   4.727   2.692   0.735 -0.1869 -0.5633  0.0359
  706MOL0     C97304   4.645   2.779   0.839  0.4099  0.6998  0.7202
  706MOL0     C97305   4.548   2.872   0.769  0.2860 -0.2900 -0.2456
  706MOL0     C97306   4.432   2.919   0.869 -0.1614  0.5665 -0.7348
  706MOL0     N97307   4.472   2.967   1.004  1.3537 -0.0781 -0.4917
  706MOL0     C97308   4.483   3.104   1.030 -0.4434  0.4966 -0.4916
  706MOL0     C97309   4.514   3.103   1.161 -0.0384 -0.2856  0.2535
  706MOL0     C97310   4.528   3.226   1.243 -0.4896 -0.1686 -0.8720
  706MOL0     C97311   4.410   3.249   1.333 -0.4178 -1.4011  0.0303
  706MOL0     C97312   4.411   3.387   1.410 -0.5354 -0.7360 -0.3782
  706MOL0     C97313   4.394   3.507   1.326  0.3871 -0.8877  0.1278
  706MOL0     O97314   4.329   3.613   1.392 -0.2284  0.1014 -0.1244
  706MOL0     C97315   4.402   3.719   1.445 -0.1477  0.0911  0.3242
  706MOL0     C97316   4.342   3.847   1.433 -0.1832  0.4352  0.2687
  706MOL0     C97317   4.405   3.957   1.493  0.3994  0.4795  0.3361
  706MOL0     C97318   4.325   4.076   1.489  0.3591 -1.1796 -0.3845
  706MOL0     C97319   4.531   3.938   1.555  0.3598 -0.2648 -0.4662
  706MOL0     C97320   4.618   4.050   1.601  0.1099 -0.7362  0.6581
  706MOL0     O97321   4.750   4.026   1.625 -0.8844  0.9214 -0.3817
  706MOL0     C97322   4.847   4.119   1.600  0.3532 -0.4759 -0.7656
  706MOL0     C97323   4.968   4.098   1.665 -0.4410  0.1676 -0.1487
  706MOL0     C97324   5.077   4.182   1.648 -0.2770 -0.2507 -0.4062
  706MOL0     C97325   5.065   4.297   1.570 -0.0178 -0.0732  0.4076
  706MOL0     O97326   5.174   4.383   1.556  0.1867 -0.1043  0.8910
  706MOL0     C97327   5.169   4.509   1.491 -0.3303 -1.2091 -0.7827
  706MOL0     C97328   5.316   4.561   1.485  0.2767 -0.2672 -0.3402
  706MOL0     C97329   5.361   4.628   1.619  0.4479  0.9479  0.0150
  706MOL0     C97330   5.518   4.648   1.615 -0.8094 -0.3017 -0.2309
  706MOL0     C97331   5.577   4.719   1.732 -0.3697 -0.4231 -0.5031
  706MOL0     C97332   5.729   4.756   1.724  0.3805  0.1565 -0.2160
  706MOL0     C97333   5.760   4.849   1.609 -1.1628  0.1794  0.6982
  706MOL0     C97334   5.907   4.882   1.603 -0.5646 -0.6055  0.8981
  706MOL0    Cl97335   6.004   4.739   1.599  0.5105 -0.0767  0.1544
  706MOL0     C97336   4.942   4.318   1.495 -0.2407  0.4976  0.0190
  706MOL0     C97337   4.840   4.228   1.513  0.4404  0.5405  0.0647
  706MOL0     O97338   4.572   4.170   1.617  0.4791  0.0245  0.0262
  706MOL0     C97339   4.575   3.810   1.577 -0.1122  0.5220 -0.1396
  706MOL0     C97340   4.521   3.700   1.518  0.8716 -0.1965  0.3043
  706MOL0     N97341   4.498   2.978   1.215 -0.3003 -0.7331 -0.9840
  706MOL0     N97342   4.469   2.896   1.121  0.9756 -0.2045  0.2881
  706MOL0     C97343   5.392   2.796   0.474  0.2322  0.1834 -0.2463
  706MOL0     C97344   5.519   2.835   0.447 -0.3596  0.0372 -0.1372
  706MOL0     C97345   5.858   3.150   0.409  0.0745 -0.0602 -0.5290
  706MOL0     C97346   5.897   3.281   0.431 -0.6316 -0.0583 -0.4277
  706MOL0     C97347   6.003   3.333   0.356 -0.4216  0.2467  0.3651
  706MOL0     C97348   6.082   3.248   0.277 -0.3953 -0.5427 -0.6978
  706MOL0     O97349   6.199   3.289   0.230 -0.6620 -0.3059  0.4172
  706MOL0     C97350   6.196   3.391   0.134 -0.6166 -0.1910 -0.7711
  706MOL0     C97351   6.325   3.458   0.135 -0.7034 -0.0936 -0.8349
  706MOL0     C97352   6.330   3.575   0.025  0.1144 -0.1822 -0.7718
  706MOL0     C97353   6.363   3.722   0.074  0.0214 -0.2838 -0.4000
  706MOL0     C97354   6.249   3.773   0.151  0.4530 -0.2746 -0.1441
  706MOL0     C97355   6.155   3.831   0.202  0.3697 -0.1407  0.2000
  706MOL0     C97356   6.049   3.115   0.270 -0.2883  0.2697 -0.0729
  706MOL0     C97357   5.927   3.068   0.324 -0.3801  0.0950 -0.0112
  706MOL0     C97358   5.904   2.929   0.282  0.2425  0.0624  0.3025
  706MOL0     H97359   5.536   3.078   0.690  1.4689 -0.6498  0.4153
  706MOL0     H97360   5.315   2.992   0.741  0.9883 -1.0312  1.2341
  706MOL0     H97361   5.284   2.664   0.746 -0.1954 -2.5699 -1.9444
  706MOL0     H97362   5.139   2.605   0.682 -0.4843  0.1254 -1.1266
  706MOL0     H97363   5.123   2.726   0.908  3.7993 -0.5799 -1.8815
  706MOL0     H97364   5.145   2.875   0.821  2.7886 -1.6573  0.8235
  706MOL0     H97365   4.912   2.851   0.855 -4.1556  0.9290 -2.0001
  706MOL0     H97366   4.942   2.854   0.686 -1.3199  3.2944  2.6940
  706MOL0     H97367   4.907   2.593   0.693 -0.8628 -1.3335  0.9137
  706MOL0     H97368   4.868   2.605   0.866 -3.8915 -0.8168 -0.0303
  706MOL0     H97369   4.680   2.594   0.726  1.1693 -1.6457  3.0625
  706MOL0     H97370   4.718   2.750   0.643 -2.0472  0.4305  0.7993
  706MOL0     H97371   4.594   2.709   0.907  0.7238 -0.4509 -0.2000
  706MOL0     H97372   4.709   2.837   0.906 -1.2912  3.3633  0.1700
  706MOL0     H97373   4.507   2.817   0.684 -0.0233 -2.8314  1.4370
  706MOL0     H97374   4.606   2.961   0.742  1.2019 -0.6067  0.5952
  706MOL0     H97375   4.392   3.007   0.816 -1.2306  1.6405  1.6896
  706MOL0     H97376   4.350   2.846   0.873 -0.2858  0.7490  2.9213
  706MOL0     H97377   4.473   3.182   0.955  1.1851 -0.7869 -2.1253
  706MOL0     H97378   4.547   3.315   1.182  0.7078  0.7092  0.6880
  706MOL0     H97379   4.614   3.209   1.309  1.3276  3.0194 -2.1623
  706MOL0     H97380   4.323   3.253   1.265  2.6998  0.7104 -4.3503
  706MOL0     H97381   4.406   3.171   1.410 -1.0689 -0.0579  1.3987
  706MOL0     H97382   4.325   3.376   1.476 -0.0075  0.0864  0.4658
  706MOL0     H97383   4.506   3.404   1.461 -1.8154 -0.8877  2.1855
  706MOL0     H97384   4.493   3.533   1.287 -0.1660  0.9769 -0.1468
  706MOL0     H97385   4.323   3.487   1.245 -1.2973 -0.4243  1.4299
  706MOL0     H97386   4.244   3.846   1.389  0.8651 -0.5103 -2.2195
  706MOL0     H97387   4.225   4.058   1.451 -0.3185  2.8781 -0.9702
  706MOL0     H97388   4.371   4.152   1.425  0.3069 -1.1586 -0.3969
  706MOL0     H97389   4.321   4.120   1.589  1.8396 -0.0254 -0.7871
  706MOL0     H97390   4.963   4.019   1.740 -1.5237  0.6652  0.3391
  706MOL0     H97391   5.162   4.162   1.713 -1.4918  0.2175  1.3668
  706MOL0     H97392   5.139   4.490   1.388  0.8124 -1.8224 -1.0163
  706MOL0     H97393   5.100   4.578   1.541  1.0170 -1.6243  1.8210
  706MOL0     H97394   5.391   4.486   1.459  1.3166  0.5840  0.0969
  706MOL0     H97395   5.326   4.635   1.405 -1.5909  0.6636  0.2206
  706MOL0     H97396   5.335   4.565   1.705 -1.0065 -2.1676 -2.5070
  706MOL0     H97397   5.315   4.722   1.648  2.4573  1.1555  3.0179
  706MOL0     H97398   5.542   4.698   1.521 -0.8811  0.3406  0.0936
  706MOL0     H97399   5.560   4.547   1.615 -0.6741 -0.2674  1.2689
  706MOL0     H97400   5.520   4.812   1.745  1.4862  0.6299  0.6365
  706MOL0     H97401   5.564   4.652   1.818 -0.2560  0.3413  0.1198
  706MOL0     H97402   5.784   4.662   1.733  1.5038  0.7396 -0.8352
  706MOL0     H97403   5.761   4.813   1.811  2.1957 -2.2130  0.7896
  706MOL0     H97404   5.715   4.948   1.606 -0.5451  0.4859  1.4082
  706MOL0     H97405   5.735   4.792   1.519  1.8423 -2.1553  1.1824
  706MOL0     H97406   5.935   4.933   1.696  0.6619  1.1808 -0.3768
  706MOL0     H97407   5.938   4.936   1.513  0.4092 -2.0559  0.3236
  706MOL0     H97408   4.940   4.383   1.409 -1.6925 -1.8060 -1.8311
  706MOL0     H97409   4.757   4.247   1.445 -0.2979 -0.4159  0.6783
  706MOL0     H97410   4.664   3.801   1.637  0.9157  1.8280 -1.3967
  706MOL0     H97411   4.568   3.603   1.529  1.9359  0.3649  0.8148
  706MOL0     H97412   5.355   2.735   0.392  2.1556  1.1203 -1.8881
  706MOL0     H97413   5.559   2.802   0.352 -1.1736 -0.6009 -0.2691
  706MOL0     H97414   5.831   3.352   0.480  0.3506  1.4787 -1.2457
  706MOL0     H97415   6.028   3.438   0.363  2.0712 -0.2438 -0.2578
  706MOL0     H97416   6.176   3.342   0.038  0.1981 -3.7769  0.7312
  706MOL0     H97417   6.123   3.469   0.160  0.4026  0.5116  0.0495
  706MOL0     H97418   6.407   3.387   0.120 -0.0464 -0.0662  2.0599
  706MOL0     H97419   6.347   3.492   0.236 -1.6157  0.0336 -0.6689
  706MOL0     H97420   6.406   3.553  -0.051  1.0364  0.5208 -0.0692
  706MOL0     H97421   6.233   3.575  -0.027 -0.4087 -1.8486  0.1315
  706MOL0     H97422   6.382   3.780  -0.017 -2.9252 -1.6677 -2.0321
  706MOL0     H97423   6.450   3.725   0.141 -0.4916 -2.8077  0.4930
  706MOL0     H97424   6.088   3.887   0.264 -1.2192 -1.0172 -0.6643
  706MOL0     H97425   6.119   3.051   0.217  0.6269  2.3109 -1.4194
  706MOL0     H97426   5.980   2.864   0.325  0.2355  0.9808  1.7820
  706MOL0     H97427   5.807   2.887   0.313  0.3994  0.6050  1.5902
  706MOL0     H97428   5.909   2.922   0.173  2.1264 -2.7701  0.4677
  707MOL0     O97429   2.633   9.850   5.802  0.0585  0.3639  0.0805
  707MOL0     C97430   2.543   9.932   5.783 -0.2975  0.3848 -0.3724
  707MOL0     O97431   2.550  10.064   5.837 -0.8935 -0.0295  0.9007
  707MOL0     C97432   2.675  10.092   5.880  0.4636 -0.2002 -0.5663
  707MOL0     C97433   2.721  10.046   6.002  0.1588 -1.2818 -0.8445
  707MOL0     C97434   2.851  10.086   6.051  0.8239  0.0921  0.0573
  707MOL0     C97435   2.933  10.181   5.982  0.3336 -0.2215  0.0396
  707MOL0     O97436   3.065  10.205   6.005 -0.0702 -0.0521 -0.4449
  707MOL0     C97437   3.112  10.198   6.144 -0.3392 -0.4984  0.5851
  707MOL0     C97438   3.265  10.234   6.155  0.0975  1.5228  0.4806
  707MOL0     C97439   3.306  10.272   6.299  0.6258 -0.4043  0.5028
  707MOL0     C97440   3.460  10.270   6.304  0.0848 -0.3372  0.3127
  707MOL0     C97441   3.499  10.278   6.454  0.1117 -0.6709  0.0692
  707MOL0     C97442   3.656  10.297   6.467  0.7734 -0.1707 -0.0679
  707MOL0     C97443   3.710  10.325   6.602 -0.0865  0.2608 -0.0414
  707MOL0     C97444   3.687  10.465   6.641  0.8156  0.0843 -0.8332
  707MOL0     N97445   3.740  10.478   6.782 -0.4202  0.2412 -0.1508
  707MOL0     C97446   3.853  10.551   6.815  0.0716  0.2145  0.1235
  707MOL0     C97447   3.865  10.541   6.948  0.1051 -0.4003 -0.4351
  707MOL0     C97448   3.956  10.619   7.031  0.2909 -0.1598  0.5114
  707MOL0     C97449   4.111  10.586   7.005 -0.2736 -0.9588 -0.2934
  707MOL0     C97450   4.126  10.434   6.996  0.5982  0.8714 -0.2614
  707MOL0     C97451   4.267  10.379   6.998 -0.5637 -0.2421  0.2689
  707MOL0     O97452   4.325  10.432   6.876 -0.6953 -0.2509  0.7099
  707MOL0     C97453   4.457  10.434   6.871 -0.2984 -0.0993  0.1277
  707MOL0     C97454   4.524  10.543   6.828 -0.2828 -0.6315  0.2299
  707MOL0     C97455   4.663  10.544   6.803  0.6991  0.3667  0.6514
  707MOL0     C97456   4.728  10.672   6.754 -0.6723  0.0048  0.1686
  707MOL0     C97457   4.740  10.431   6.818  0.1300  0.1035  0.4377
  707MOL0     C97458   4.884  10.414   6.792  0.8064 -0.4849 -0.9451
  707MOL0     O97459   4.941  10.305   6.857 -0.9667  0.6498  1.1424
  707MOL0     C97460   5.078  10.281   6.883  1.1037 -0.0969 -0.9515
  707MOL0     C97461   5.178  10.376   6.880  0.4326 -0.4967  0.9847
  707MOL0     C97462   5.311  10.352   6.911  0.5727 -0.0208  0.3562
  707MOL0     C97463   5.355  10.222   6.920 -0.3479 -0.2841 -0.5122
  707MOL0     O97464   5.492  10.192   6.919 -0.0623  0.2739  0.3578
  707MOL0     C97465   5.592  10.295   6.948  0.2117  0.7468  0.2101
  707MOL0     C97466   5.727  10.230   7.004  0.1216  0.2238 -1.0461
  707MOL0     C97467   5.715  10.188   7.155  0.3183  0.1764  0.3034
  707MOL0     C97468   5.829  10.114   7.226 -0.6348 -0.0297  0.3805
  707MOL0     C97469   5.879   9.989   7.156 -0.5390 -0.5319 -0.4161
  707MOL0     C97470   6.026   9.959   7.210  0.5670  0.9378  0.1446
  707MOL0     C97471   6.069   9.822   7.166  0.0596  0.5106 -0.8361
  707MOL0     C97472   6.180   9.772   7.262 -0.4317  0.3107  0.2486
  707MOL0    Cl97473   6.191   9.600   7.234  0.0545 -0.1893 -0.0961
  707MOL0     C97474   5.255  10.120   6.912  0.0844  0.2295  0.0577
  707MOL0     C97475   5.114  10.143   6.907 -0.4794  0.1430 -0.0495
  707MOL0     O97476   4.946  10.498   6.722 -0.2959 -0.2176  0.1186
  707MOL0     C97477   4.671  10.318   6.874  0.0274 -0.0146  0.0216
  707MOL0     C97478   4.529  10.318   6.901  0.1207 -0.1742  0.3830
  707MOL0     N97479   3.752  10.480   7.000  0.5775 -0.5710 -0.2824
  707MOL0     N97480   3.686  10.432   6.899  0.7869 -0.0190  0.0159
  707MOL0     C97481   2.885  10.224   5.860  0.8463 -0.7049 -0.8911
  707MOL0     C97482   2.755  10.185   5.811 -0.4874 -0.0007  0.0383
  707MOL0     C97483   2.425   9.910   5.705 -0.2925  0.0156  0.0122
  707MOL0     C97484   2.344  10.017   5.660 -0.1017  0.2076  0.4767
  707MOL0     C97485   2.224   9.996   5.581  0.1299  0.2679  0.5787
  707MOL0     C97486   2.185   9.872   5.539 -0.8452  0.1230 -1.2921
  707MOL0     O97487   2.077   9.839   5.462 -0.0780 -0.9876 -0.5302
  707MOL0     C97488   1.957   9.919   5.460  0.3668  0.2283  0.3500
  707MOL0     C97489   1.855   9.881   5.348  0.4948  0.9876 -0.2032
  707MOL0     C97490   1.723   9.953   5.367  0.4834 -0.5767 -0.2655
  707MOL0     C97491   1.632   9.933   5.251  0.2683 -0.5186  0.2276
  707MOL0     C97492   1.701   9.998   5.135  0.0884 -0.7366  0.5613
  707MOL0     C97493   1.763  10.038   5.041 -0.1245 -0.4405 -0.1431
  707MOL0     C97494   2.268   9.769   5.573  0.1897  0.1863  0.6464
  707MOL0     C97495   2.381   9.786   5.655 -0.0947  0.0617 -0.1637
  707MOL0     C97496   2.444   9.662   5.713 -0.1793  0.5946 -0.2248
  707MOL0     H97497   2.656   9.985   6.064  0.1425 -0.7132 -0.2945
  707MOL0     H97498   2.889  10.038   6.141  0.3873  0.7784  0.6198
  707MOL0     H97499   3.085  10.099   6.182 -1.8176  0.0025  0.9260
  707MOL0     H97500   3.054  10.269   6.205 -1.6595 -1.1175  0.0905
  707MOL0     H97501   3.309  10.142   6.115 -1.1731  1.0524  0.1027
  707MOL0     H97502   3.295  10.314   6.088  0.3768 -0.3414 -1.7320
  707MOL0     H97503   3.271  10.376   6.303 -2.0210 -1.1644 -0.7137
  707MOL0     H97504   3.259  10.210   6.376 -1.8713  1.2100  0.3990
  707MOL0     H97505   3.485  10.168   6.274 -0.1219 -0.6374  1.1117
  707MOL0     H97506   3.510  10.345   6.243 -3.1109  0.7745 -1.1894
  707MOL0     H97507   3.472  10.187   6.508 -0.5032 -2.4874 -3.0971
  707MOL0     H97508   3.449  10.365   6.498  2.8461  0.4747  1.1444
  707MOL0     H97509   3.699  10.202   6.433  1.4933  0.6516 -1.5392
  707MOL0     H97510   3.692  10.373   6.397 -0.9934  2.0929  1.3380
  707MOL0     H97511   3.818  10.310   6.603  0.5871  4.1960  0.1096
  707MOL0     H97512   3.649  10.262   6.668  0.2122 -0.2392 -0.2434
  707MOL0     H97513   3.744  10.536   6.580  0.0298 -1.9814 -4.2327
  707MOL0     H97514   3.583  10.497   6.643  0.4022 -1.1737 -1.2221
  707MOL0     H97515   3.911  10.605   6.740 -1.3830  1.6569 -0.0040
  707MOL0     H97516   3.924  10.584   7.130 -0.9953 -2.9685 -0.7969
  707MOL0     H97517   3.935  10.725   7.018  1.7594  0.2518  1.2089
  707MOL0     H97518   4.152  10.633   6.915 -0.3858 -1.1958 -0.4696
  707MOL0     H97519   4.168  10.619   7.093  0.4677 -1.5003 -0.5589
  707MOL0     H97520   4.071  10.386   7.078 -0.8167 -0.8798 -2.1370
  707MOL0     H97521   4.078  10.403   6.902  0.3091 -0.3891  0.2732
  707MOL0     H97522   4.320  10.419   7.084 -0.9174 -2.4199  1.5680
  707MOL0     H97523   4.265  10.270   6.995  0.4804 -0.2761 -2.2744
  707MOL0     H97524   4.460  10.631   6.825  1.5636  0.7507 -0.4344
  707MOL0     H97525   4.726  10.667   6.645 -2.0866 -1.6130  0.2418
  707MOL0     H97526   4.824  10.680   6.807 -1.8002  0.8957  2.1761
  707MOL0     H97527   4.663  10.757   6.776  1.1042  1.4343  0.1643
  707MOL0     H97528   5.156  10.476   6.845 -0.4267 -1.8132 -2.6060
  707MOL0     H97529   5.384  10.432   6.919  0.1934  0.7013 -2.5239
  707MOL0     H97530   5.619  10.347   6.856  3.1321  0.5777  0.8765
  707MOL0     H97531   5.552  10.363   7.024 -0.5416 -0.0957  0.5818
  707MOL0     H97532   5.746  10.145   6.938 -0.7930 -2.2099  1.6233
  707MOL0     H97533   5.805  10.306   6.993 -0.7992  1.1267 -1.5405
  707MOL0     H97534   5.625  10.126   7.146 -1.7879  3.1842 -1.3278
  707MOL0     H97535   5.691  10.282   7.205 -1.0269 -0.0562  0.1431
  707MOL0     H97536   5.800  10.086   7.328  0.4909 -1.3695  0.3638
  707MOL0     H97537   5.911  10.185   7.232 -0.7682  0.3016 -1.2020
  707MOL0     H97538   5.810   9.910   7.185  0.5311 -0.9796  1.0714
  707MOL0     H97539   5.883  10.001   7.047  2.9009 -3.6859 -0.8408
  707MOL0     H97540   6.024   9.960   7.319  0.1488 -0.1314  0.1535
  707MOL0     H97541   6.102  10.028   7.171  0.6850  2.7973  3.3144
  707MOL0     H97542   6.094   9.829   7.060  0.6953  0.2982 -0.7078
  707MOL0     H97543   5.981   9.760   7.184 -0.9365  2.4047  1.1929
  707MOL0     H97544   6.151   9.794   7.365 -2.0184  1.6488 -0.4277
  707MOL0     H97545   6.278   9.817   7.250  0.0408  0.0869  2.7730
  707MOL0     H97546   5.285  10.016   6.921  2.1341  0.7832  0.1497
  707MOL0     H97547   5.039  10.065   6.909 -0.1942 -0.2492 -2.2399
  707MOL0     H97548   4.723  10.226   6.897  0.5359  0.2669  0.0072
  707MOL0     H97549   4.472  10.235   6.941 -0.5500 -1.3832 -2.7756
  707MOL0     H97550   2.944  10.293   5.801 -1.5882  1.0579 -1.4171
  707MOL0     H97551   2.717  10.225   5.718 -2.0556 -1.3910  0.0254
  707MOL0     H97552   2.362  10.123   5.674 -0.6342  0.6409 -1.7091
  707MOL0     H97553   2.180  10.089   5.548  1.4836  0.4602 -0.8420
  707MOL0     H97554   1.912   9.906   5.559  0.6481  1.8151  0.7175
  707MOL0     H97555   1.973  10.027   5.449  0.0014  0.2615  0.1447
  707MOL0     H97556   1.842   9.773   5.346  1.2922  0.8900 -2.3319
  707MOL0     H97557   1.913   9.908   5.260  1.7884  1.9955  0.9122
  707MOL0     H97558   1.676   9.920   5.460 -1.1460 -0.8854 -1.1581
  707MOL0     H97559   1.749  10.059   5.380  1.4644 -0.3159 -3.3251
  707MOL0     H97560   1.537   9.985   5.265  1.2641  1.8667 -1.2574
  707MOL0     H97561   1.611   9.827   5.235 -1.6988 -0.6697  3.1598
  707MOL0     H97562   1.809  10.087   4.957 -0.0783 -0.3880 -0.0881
  707MOL0     H97563   2.245   9.669   5.540  0.5514  0.4393 -0.4152
  707MOL0     H97564   2.363   9.589   5.715 -1.1262  1.5978 -0.8562
  707MOL0     H97565   2.516   9.627   5.639  0.2241  0.6703  0.1239
  707MOL0     H97566   2.486   9.677   5.814 -0.7783 -1.4252  0.3704
  708MOL0     O97567   5.276   0.795  10.354 -0.0568  0.0942  0.5851
  708MOL0     C97568   5.216   0.902  10.347 -0.2284 -0.4690  0.8041
  708MOL0     O97569   5.250   1.011  10.275 -0.4821  0.1616  0.9725
  708MOL0     C97570   5.371   1.027  10.221 -1.1783 -0.7696  0.1082
  708MOL0     C97571   5.386   1.066  10.088  0.3254  0.1132  0.4724
  708MOL0     C97572   5.511   1.080  10.027 -0.3363  0.5637  0.9834
  708MOL0     C97573   5.627   1.073  10.105  0.8577  0.4182 -0.5987
  708MOL0     O97574   5.749   1.110  10.050 -0.0407  0.2539 -0.6079
  708MOL0     C97575   5.874   1.097  10.122 -0.1447  0.0745 -0.1992
  708MOL0     C97576   5.993   1.123  10.031 -0.1457 -0.0736  0.3564
  708MOL0     C97577   6.009   1.266   9.972 -0.1598  0.3325  0.1806
  708MOL0     C97578   6.055   1.360  10.082 -0.7177 -0.5772 -0.3053
  708MOL0     C97579   6.038   1.510  10.037  0.5765  0.5310  0.8869
  708MOL0     C97580   6.144   1.531   9.923  0.0264 -0.0989  0.1649
  708MOL0     C97581   6.154   1.680   9.886 -0.4076  0.2110  0.4280
  708MOL0     C97582   6.267   1.710   9.783  0.8640  0.6810 -0.1566
  708MOL0     N97583   6.400   1.706   9.840  0.7378 -0.8775 -0.2407
  708MOL0     C97584   6.424   1.787   9.943  0.4526 -0.0271 -0.1085
  708MOL0     C97585   6.560   1.785   9.960  0.4123 -1.1632 -0.2407
  708MOL0     C97586   6.627   1.884  10.056 -0.0264 -0.4665 -0.0890
  708MOL0     C97587   6.701   2.001   9.986 -0.1939 -0.2125 -0.2275
  708MOL0     C97588   6.854   1.967   9.950 -0.4116 -0.6333 -0.5425
  708MOL0     C97589   6.919   2.074   9.864 -0.2744 -0.0190  0.6886
  708MOL0     O97590   6.917   2.177   9.965 -0.4361 -0.3204 -0.0061
  708MOL0     C97591   6.963   2.305   9.935 -0.0214  0.0896 -0.6686
  708MOL0     C97592   6.972   2.357   9.803 -0.5583  0.4271  0.1738
  708MOL0     C97593   7.027   2.482   9.782  0.1884  0.1824 -0.0678
  708MOL0     C97594   7.019   2.534   9.639 -0.3742  0.1757  0.1498
  708MOL0     C97595   7.072   2.563   9.894  0.2205 -0.0823  0.2576
  708MOL0     C97596   7.121   2.700   9.891  0.1888  0.9139  0.1883
  708MOL0     O97597   7.069   2.787   9.978  0.2999 -0.0685  0.6417
  708MOL0     C97598   7.144   2.898   9.994 -0.4232 -0.5759  0.5959
  708MOL0     C97599   7.093   3.026   9.945 -0.5077  1.2615  0.4096
  708MOL0     C97600   7.192   3.130   9.938 -0.1983  0.0520 -0.4025
  708MOL0     C97601   7.328   3.117   9.979  0.9119 -0.3349  0.1741
  708MOL0     O97602   7.412   3.225   9.967 -0.7085  0.2205 -0.4276
  708MOL0     C97603   7.551   3.209   9.955  0.3355 -0.1771 -0.7694
  708MOL0     C97604   7.599   3.317   9.875 -0.2412 -0.8224  0.7879
  708MOL0     C97605   7.753   3.315   9.850  0.4897 -0.4817  0.1567
  708MOL0     C97606   7.800   3.459   9.806 -0.1845  0.3058 -0.3925
  708MOL0     C97607   7.950   3.481   9.809 -0.6828  0.5449 -0.4704
  708MOL0     C97608   8.021   3.388   9.714  0.0463  0.1451 -0.5316
  708MOL0     C97609   8.171   3.403   9.721  0.5941  0.5782  0.6853
  708MOL0     C97610   8.217   3.288   9.620 -0.4438  0.1473 -0.2077
  708MOL0    Cl97611   8.390   3.252   9.648  0.2262 -0.1466  0.6770
  708MOL0     C97612   7.365   3.006  10.040 -0.3336  0.8360 -0.0557
  708MOL0     C97613   7.280   2.895  10.051 -0.4098  0.6250  0.2220
  708MOL0     O97614   7.217   2.716   9.822 -0.9630  0.0162  1.1167
  708MOL0     C97615   7.039   2.509  10.022  0.0014 -1.0957 -0.8461
  708MOL0     C97616   6.986   2.383  10.048  0.2830  0.1416 -0.1628
  708MOL0     N97617   6.615   1.703   9.871 -0.2849  0.2311  0.3054
  708MOL0     N97618   6.517   1.660   9.799 -0.3713 -0.8287 -0.1121
  708MOL0     C97619   5.621   1.037  10.240  0.6528 -0.1657  0.3789
  708MOL0     C97620   5.492   1.000  10.296 -1.0213  0.1518  0.6673
  708MOL0     C97621   5.107   0.898  10.444  1.4003 -0.0270 -0.9394
  708MOL0     C97622   5.050   0.779  10.479 -0.8109  0.5279  0.1116
  708MOL0     C97623   4.960   0.758  10.584 -1.1199 -1.3733  0.1478
  708MOL0     C97624   4.895   0.866  10.640  0.0304 -0.5919  1.3243
  708MOL0     O97625   4.787   0.831  10.715 -0.6313  0.2317 -0.5521
  708MOL0     C97626   4.701   0.934  10.769  0.2440  0.6982  0.1285
  708MOL0     C97627   4.740   0.959  10.915  0.1168 -0.0452 -0.3872
  708MOL0     C97628   4.638   1.061  10.979 -1.0179 -0.1662  0.0393
  708MOL0     C97629   4.501   1.006  10.990 -0.2282  0.5971 -0.4768
  708MOL0     C97630   4.434   1.063  11.114 -0.1731  0.1706  0.6977
  708MOL0     C97631   4.379   1.101  11.215 -0.2784 -0.3641  0.4269
  708MOL0     C97632   4.943   0.994  10.597 -0.0642  0.3145  0.3051
  708MOL0     C97633   5.045   1.013  10.506 -0.4253 -1.5078 -0.6005
  708MOL0     C97634   5.105   1.152  10.508  0.4957  0.0296  0.7584
  708MOL0     H97635   5.300   1.078  10.023 -0.0196 -2.0987  0.4481
  708MOL0     H97636   5.519   1.119   9.926 -0.6773 -1.6158  0.0579
  708MOL0     H97637   5.879   0.995  10.159  0.8022  0.2920  0.2898
  708MOL0     H97638   5.871   1.171  10.203 -2.3399 -1.8207  1.5891
  708MOL0     H97639   6.088   1.094  10.078  0.8623 -2.9414 -3.0158
  708MOL0     H97640   5.987   1.060   9.941 -1.4164  2.6039 -1.5746
  708MOL0     H97641   6.072   1.261   9.882 -0.6685 -0.6172 -0.1365
  708MOL0     H97642   5.914   1.287   9.921  0.2015 -1.1218 -1.2117
  708MOL0     H97643   6.005   1.347  10.178  0.1653 -0.3292  0.1980
  708MOL0     H97644   6.158   1.331  10.106 -0.2474  2.7283  2.3096
  708MOL0     H97645   6.070   1.567  10.125  2.1232 -1.9297  2.0327
  708MOL0     H97646   5.938   1.543  10.010 -0.3899 -2.6347  0.1912
  708MOL0     H97647   6.241   1.487   9.947  0.2425 -0.3271 -1.0278
  708MOL0     H97648   6.116   1.469   9.838 -2.3572 -1.0652  1.5691
  708MOL0     H97649   6.172   1.729   9.983  1.2597 -1.0370  0.8064
  708MOL0     H97650   6.062   1.708   9.834 -0.6298 -1.7256 -0.2723
  708MOL0     H97651   6.265   1.642   9.697  2.6823  1.0371 -0.5252
  708MOL0     H97652   6.255   1.808   9.735 -1.4350 -0.2078 -1.6111
  708MOL0     H97653   6.352   1.853   9.991  0.2653  1.0420 -1.7729
  708MOL0     H97654   6.697   1.832  10.121 -0.3476 -0.6678  0.1001
  708MOL0     H97655   6.554   1.929  10.124 -0.5997  0.5668 -1.3322
  708MOL0     H97656   6.647   2.023   9.893  1.8594  2.7891 -0.8660
  708MOL0     H97657   6.700   2.092  10.047  2.6128 -1.9608  2.7841
  708MOL0     H97658   6.905   1.947  10.045 -2.1794  1.8289  1.0662
  708MOL0     H97659   6.851   1.878   9.886 -1.1449 -1.7046  0.9255
  708MOL0     H97660   7.024   2.055   9.840 -0.9632 -0.6877 -2.2992
  708MOL0     H97661   6.863   2.085   9.770  1.7151 -1.3616 -0.7407
  708MOL0     H97662   6.961   2.293   9.716  1.6342  1.5349 -0.9955
  708MOL0     H97663   6.922   2.583   9.630  0.4933  2.4653  2.2120
  708MOL0     H97664   7.020   2.460   9.558 -1.8426 -0.0200  0.2767
  708MOL0     H97665   7.101   2.603   9.621  0.9297 -0.9096  1.6413
  708MOL0     H97666   6.992   3.035   9.906  0.0326 -0.6030 -1.6583
  708MOL0     H97667   7.157   3.219   9.888 -1.2260 -0.5253 -0.7494
  708MOL0     H97668   7.605   3.206  10.050 -0.1775 -1.6514 -0.4957
  708MOL0     H97669   7.573   3.115   9.903 -2.5390 -1.2638 -0.2567
  708MOL0     H97670   7.544   3.307   9.781 -0.6574  1.8923  0.6506
  708MOL0     H97671   7.564   3.403   9.933  4.6508  1.7593  0.4792
  708MOL0     H97672   7.774   3.233   9.781 -0.6487 -1.1715  0.6055
  708MOL0     H97673   7.807   3.283   9.940  4.4556 -2.6554 -2.6831
  708MOL0     H97674   7.757   3.524   9.883  2.1506 -1.2765  2.4662
  708MOL0     H97675   7.757   3.478   9.707  0.5092 -2.4250 -1.2902
  708MOL0     H97676   7.977   3.584   9.784 -1.3781  0.6402 -0.8412
  708MOL0     H97677   7.995   3.459   9.907  1.0649  1.5433 -0.9916
  708MOL0     H97678   7.994   3.410   9.610  2.4901 -1.4091 -1.5682
  708MOL0     H97679   7.987   3.287   9.736 -0.4477  0.1279 -1.3078
  708MOL0     H97680   8.207   3.384   9.822  0.0984 -2.4173  0.3857
  708MOL0     H97681   8.199   3.500   9.680  0.0439  0.0711 -0.9814
  708MOL0     H97682   8.207   3.327   9.518  2.0629 -1.7485 -1.2739
  708MOL0     H97683   8.155   3.200   9.643  1.9923 -1.3137  1.1584
  708MOL0     H97684   7.468   2.979  10.065 -0.8595 -1.2575  0.0537
  708MOL0     H97685   7.326   2.805  10.090  3.4597  1.8571 -0.9994
  708MOL0     H97686   7.052   2.574  10.108 -1.7911 -0.6339 -0.8836
  708MOL0     H97687   6.992   2.350  10.151  4.2891  2.6444  0.6272
  708MOL0     H97688   5.709   1.036  10.304  0.1323  1.2187  1.1448
  708MOL0     H97689   5.478   0.964  10.398 -0.8299 -1.2837  0.2065
  708MOL0     H97690   5.095   0.692  10.432  2.3778  1.4045  1.2896
  708MOL0     H97691   4.929   0.656  10.601  2.9417 -3.1230 -1.6491
  708MOL0     H97692   4.703   1.031  10.718  3.7577 -0.1245 -1.6530
  708MOL0     H97693   4.600   0.897  10.753  0.4606  0.6396 -1.3289
  708MOL0     H97694   4.845   0.989  10.923  0.6088 -1.8407  0.6013
  708MOL0     H97695   4.748   0.861  10.964  0.4999  0.5508  0.7847
  708MOL0     H97696   4.658   1.088  11.083  1.4910  0.0168 -0.4398
  708MOL0     H97697   4.629   1.158  10.929  1.0332 -0.7125 -1.5086
  708MOL0     H97698   4.508   0.897  11.002  1.2977  0.5768 -1.3091
  708MOL0     H97699   4.445   1.030  10.900 -1.4438 -1.5284 -0.3646
  708MOL0     H97700   4.334   1.136  11.305 -2.1312 -2.6463  0.5020
  708MOL0     H97701   4.908   1.086  10.642  0.9399  0.8904 -0.0583
  708MOL0     H97702   5.100   1.184  10.404 -0.8797 -2.6855 -0.0967
  708MOL0     H97703   5.043   1.222  10.565 -0.5272 -1.0846  1.0497
  708MOL0     H97704   5.208   1.165  10.543  0.0877  0.4535  1.8673
  709MOL0     O97705   6.185   9.039   7.537 -0.1930 -0.5631 -0.4118
  709MOL0     C97706   6.106   9.043   7.636 -1.1138 -0.6050  0.0898
  709MOL0     O97707   6.138   9.099   7.757 -0.2881  0.1129 -0.1040
  709MOL0     C97708   6.270   9.156   7.761  0.3283  0.0672 -0.1489
  709MOL0     C97709   6.378   9.073   7.758 -0.1674  0.2837  0.3909
  709MOL0     C97710   6.508   9.116   7.760 -0.3179 -0.7197 -0.0138
  709MOL0     C97711   6.534   9.255   7.754 -0.8406 -0.0063  0.2475
  709MOL0     O97712   6.663   9.311   7.745  0.8710  0.6807 -0.2336
  709MOL0     C97713   6.768   9.222   7.718  0.3134  0.0256  0.0342
  709MOL0     C97714   6.895   9.304   7.708 -0.3854  0.2809  0.3225
  709MOL0     C97715   6.886   9.388   7.585  0.4588 -0.1564 -0.1753
  709MOL0     C97716   7.026   9.434   7.555  0.0197  0.2699 -0.5878
  709MOL0     C97717   7.026   9.537   7.437 -0.1401  1.4516  0.0126
  709MOL0     C97718   7.160   9.582   7.386  0.1995 -0.3537 -0.7026
  709MOL0     C97719   7.230   9.679   7.486  0.8855  0.5454  0.3259
  709MOL0     C97720   7.328   9.596   7.579  0.9418 -0.0586  0.3261
  709MOL0     N97721   7.380   9.682   7.688 -0.2679  0.3703  0.2243
  709MOL0     C97722   7.433   9.809   7.671  0.0251  0.2162  0.3034
  709MOL0     C97723   7.438   9.872   7.787 -0.3397  0.8007 -0.6295
  709MOL0     C97724   7.486  10.011   7.820  0.8493  0.0064  0.3941
  709MOL0     C97725   7.616  10.016   7.881 -0.3633 -0.6766  0.2480
  709MOL0     C97726   7.730   9.989   7.777 -0.2496  0.5945  0.1951
  709MOL0     C97727   7.862  10.003   7.856 -0.2017 -0.2238 -0.2732
  709MOL0     O97728   7.870   9.894   7.950  0.2543  0.4120 -0.3177
  709MOL0     C97729   7.993   9.852   7.984 -0.7320 -0.3936  0.0312
  709MOL0     C97730   8.091   9.813   7.895  0.1433 -0.6509  0.5874
  709MOL0     C97731   8.227   9.786   7.926  0.1059 -0.1301  0.1487
  709MOL0     C97732   8.333   9.772   7.816 -0.1495  0.6207 -0.5620
  709MOL0     C97733   8.254   9.773   8.067  0.3027 -0.0321  0.4216
  709MOL0     C97734   8.382   9.726   8.123 -0.2253 -0.0776  0.0412
  709MOL0     O97735   8.420   9.797   8.237  0.0056 -0.1861  0.1009
  709MOL0     C97736   8.545   9.798   8.299  1.2165 -1.3603  0.6445
  709MOL0     C97737   8.657   9.729   8.260 -0.1187  0.4600 -0.2140
  709MOL0     C97738   8.786   9.766   8.316 -0.6052  0.3246  0.9016
  709MOL0     C97739   8.794   9.859   8.422 -0.5100  0.8067  0.1216
  709MOL0     O97740   8.911   9.875   8.500 -0.3063  0.4328  0.2710
  709MOL0     C97741   9.044   9.843   8.451 -0.0504 -0.6164 -0.0109
  709MOL0     C97742   9.090   9.945   8.351 -0.1668  0.4470 -0.5287
  709MOL0     C97743   9.219   9.903   8.275 -0.5181  0.5423 -0.6393
  709MOL0     C97744   9.290  10.015   8.215  0.2095 -0.2329 -0.2814
  709MOL0     C97745   9.403   9.968   8.116  0.6995  0.1180  0.5092
  709MOL0     C97746   9.478  10.081   8.051 -0.0361 -0.3189 -1.2961
  709MOL0     C97747   9.558  10.033   7.931  0.3805 -0.4171  0.1199
  709MOL0     C97748   9.614   9.888   7.944 -0.0187 -0.0312  0.7631
  709MOL0    Cl97749   9.734   9.873   7.813  0.2640  0.2514  0.0621
  709MOL0     C97750   8.679   9.930   8.461 -0.0553 -0.6971  0.6338
  709MOL0     C97751   8.555   9.897   8.397  0.3090 -0.2380 -0.2920
  709MOL0     O97752   8.438   9.627   8.077 -1.2665  0.1261 -0.1287
  709MOL0     C97753   8.152   9.800   8.165 -0.9673 -0.2932  0.1915
  709MOL0     C97754   8.022   9.843   8.122  0.1956 -0.4271 -0.3653
  709MOL0     N97755   7.373   9.781   7.870 -0.1728  0.4111 -0.0254
  709MOL0     N97756   7.332   9.673   7.813 -0.5977 -0.4119  0.4451
  709MOL0     C97757   6.430   9.335   7.764  0.1115 -0.1300  0.3812
  709MOL0     C97758   6.298   9.289   7.765  0.2646 -0.1033  0.8547
  709MOL0     C97759   5.969   8.998   7.619  0.0216 -0.0161 -0.2217
  709MOL0     C97760   5.883   8.998   7.735  0.2437  0.3011  0.3870
  709MOL0     C97761   5.746   8.964   7.726 -0.3654  0.1205  0.8552
  709MOL0     C97762   5.690   8.926   7.601 -0.2093 -0.3651  0.2715
  709MOL0     O97763   5.564   8.879   7.587  0.2806  1.1907 -0.6075
  709MOL0     C97764   5.468   8.965   7.644 -0.1350 -0.0054 -0.3713
  709MOL0     C97765   5.332   8.917   7.594  0.4563 -0.5404  0.7301
  709MOL0     C97766   5.299   8.772   7.602 -0.3044  0.6485  0.8353
  709MOL0     C97767   5.172   8.740   7.524 -0.0331 -0.2652  0.1273
  709MOL0     C97768   5.058   8.824   7.565  1.1514 -0.1951  0.3538
  709MOL0     C97769   4.966   8.896   7.601  0.5770  1.0573 -0.7315
  709MOL0     C97770   5.775   8.931   7.496  0.4700 -0.2099 -0.6260
  709MOL0     C97771   5.914   8.952   7.501  1.0021 -0.1237 -0.2287
  709MOL0     C97772   5.992   8.912   7.387 -0.2382 -1.3017 -0.1234
  709MOL0     H97773   6.371   8.965   7.748  1.7068  0.2343 -0.6365
  709MOL0     H97774   6.584   9.044   7.735 -0.6590 -0.9566 -0.3751
  709MOL0     H97775   6.749   9.180   7.619 -0.7045  1.2260 -0.3051
  709MOL0     H97776   6.781   9.151   7.800 -0.3736  0.2388  0.3347
  709MOL0     H97777   6.920   9.364   7.796  4.5908 -0.4133 -0.3628
  709MOL0     H97778   6.973   9.230   7.692 -0.6286  0.2853 -1.0722
  709MOL0     H97779   6.854   9.318   7.508  1.6596 -1.0752  0.1337
  709MOL0     H97780   6.821   9.475   7.597  0.4393 -0.3991  1.7146
  709MOL0     H97781   7.057   9.471   7.653  1.5697  0.1687 -1.0082
  709MOL0     H97782   7.090   9.354   7.516  0.2789  0.0952  0.1784
  709MOL0     H97783   6.985   9.630   7.476  1.1229  1.6410  0.9730
  709MOL0     H97784   6.954   9.505   7.361 -0.0598  1.9449 -0.2725
  709MOL0     H97785   7.232   9.503   7.363 -0.0941 -0.1687 -2.4382
  709MOL0     H97786   7.138   9.629   7.290  2.3467  0.6972 -0.7255
  709MOL0     H97787   7.160   9.745   7.538  0.6092  0.2980  0.2711
  709MOL0     H97788   7.288   9.743   7.419  0.7735  2.4939  1.9975
  709MOL0     H97789   7.277   9.507   7.616  2.1727 -1.4306 -1.1196
  709MOL0     H97790   7.412   9.569   7.514  1.8440  0.6995  1.1504
  709MOL0     H97791   7.467   9.860   7.582 -0.5186 -0.7703 -0.4928
  709MOL0     H97792   7.405  10.053   7.881 -0.8738 -0.7907 -1.2529
  709MOL0     H97793   7.490  10.066   7.726 -2.9084  1.6992  1.0438
  709MOL0     H97794   7.631  10.118   7.916 -0.8435 -0.8029  0.8471
  709MOL0     H97795   7.607   9.945   7.964  1.1724 -2.3301 -0.9207
  709MOL0     H97796   7.731   9.886   7.742  0.5270 -0.2304  2.4469
  709MOL0     H97797   7.731  10.051   7.687  2.4580 -3.0939 -2.6657
  709MOL0     H97798   7.941  10.000   7.780 -0.7699 -2.3407 -0.8586
  709MOL0     H97799   7.864  10.097   7.910 -0.2813  0.3831 -1.3007
  709MOL0     H97800   8.072   9.829   7.789 -0.4975  1.4596  0.9709
  709MOL0     H97801   8.433   9.796   7.852  1.3942 -4.8727 -0.3148
  709MOL0     H97802   8.314   9.831   7.726 -3.3611 -1.1497 -1.2166
  709MOL0     H97803   8.346   9.669   7.782  2.2394  0.9919 -0.9862
  709MOL0     H97804   8.657   9.657   8.179 -1.4265 -0.7878  0.8430
  709MOL0     H97805   8.878   9.723   8.277 -2.1554 -0.7917 -1.7517
  709MOL0     H97806   9.121   9.841   8.529 -0.2014  1.8431  0.3005
  709MOL0     H97807   9.038   9.741   8.414 -2.5659 -0.8164  0.7147
  709MOL0     H97808   9.021   9.985   8.276  0.3329  1.3646 -0.5095
  709MOL0     H97809   9.103  10.040   8.403 -0.8563 -0.8611  2.1880
  709MOL0     H97810   9.194   9.840   8.188  3.9327 -0.0502 -1.7311
  709MOL0     H97811   9.291   9.839   8.327  0.2378  1.5276 -0.4591
  709MOL0     H97812   9.319  10.077   8.301 -1.3778  0.8360 -0.4694
  709MOL0     H97813   9.228  10.078   8.150  2.8486  2.6660 -0.2431
  709MOL0     H97814   9.475   9.909   8.173  2.5880  1.4024 -0.4546
  709MOL0     H97815   9.345   9.908   8.046 -1.6713  1.0987  1.5311
  709MOL0     H97816   9.535  10.117   8.137 -0.0051 -5.8426  1.4298
  709MOL0     H97817   9.412  10.158   8.011  1.4434  0.1665 -2.9436
  709MOL0     H97818   9.643  10.102   7.930 -0.3299  0.6560  3.0455
  709MOL0     H97819   9.491  10.045   7.845  2.1003  1.3184 -1.0840
  709MOL0     H97820   9.535   9.813   7.931 -0.6826  1.0443 -2.0660
  709MOL0     H97821   9.664   9.882   8.041 -0.5539  1.3525  1.1440
  709MOL0     H97822   8.675  10.002   8.542 -0.3840  0.2510 -0.1939
  709MOL0     H97823   8.469   9.941   8.446  0.8237 -1.0326  1.3755
  709MOL0     H97824   8.188   9.802   8.268  2.1226 -0.8342 -0.7830
  709MOL0     H97825   7.948   9.870   8.196  0.7450 -0.8053  0.3398
  709MOL0     H97826   6.454   9.441   7.763  4.7418 -0.9258  1.4555
  709MOL0     H97827   6.212   9.356   7.768 -0.9848 -1.3537 -2.3441
  709MOL0     H97828   5.915   9.034   7.833 -1.8494  0.3594  1.0855
  709MOL0     H97829   5.677   8.970   7.809 -1.1151  2.7931  0.1202
  709MOL0     H97830   5.471   8.964   7.753 -0.7945  2.0551 -0.3016
  709MOL0     H97831   5.496   9.068   7.623  1.7007  0.0115  1.7639
  709MOL0     H97832   5.322   8.949   7.489 -0.3095  1.1263  1.2852
  709MOL0     H97833   5.255   8.969   7.651  1.2992 -0.5150  1.8667
  709MOL0     H97834   5.393   8.733   7.561 -0.2704 -0.1706  1.6425
  709MOL0     H97835   5.289   8.732   7.704  0.9239 -2.8858 -0.2706
  709MOL0     H97836   5.152   8.633   7.525 -1.6856  0.0108 -0.3626
  709MOL0     H97837   5.191   8.766   7.419  1.2759  4.2848  1.2382
  709MOL0     H97838   4.882   8.959   7.619 -3.3496 -2.8430 -3.3304
  709MOL0     H97839   5.727   8.913   7.400 -1.9929  2.0284  0.0766
  709MOL0     H97840   6.024   9.009   7.348 -0.0924  0.7174  4.4424
  709MOL0     H97841   6.079   8.856   7.422  0.8376  0.0365 -0.5984
  709MOL0     H97842   5.935   8.856   7.311  0.2059 -0.1335 -1.3618
  710MOL0     O97843   4.133   4.876   1.528  0.0883  0.0091 -0.3353
  710MOL0     C97844   4.096   4.988   1.491 -0.2838  0.4191  0.9256
  710MOL0     O97845   4.162   5.063   1.395 -0.4421  0.1875 -0.0725
  710MOL0     C97846   4.289   5.045   1.351 -0.1816  0.8631  0.2284
  710MOL0     C97847   4.334   5.148   1.263 -0.5053 -0.5058  0.3054
  710MOL0     C97848   4.463   5.145   1.206 -0.1144 -0.2933  1.0209
  710MOL0     C97849   4.543   5.034   1.229  0.1067  0.0812 -0.3277
  710MOL0     O97850   4.657   5.038   1.157  0.7456  1.3104 -0.1603
  710MOL0     C97851   4.733   4.914   1.137 -0.6947 -0.3073 -0.0552
  710MOL0     C97852   4.851   4.934   1.050  0.2326 -0.3615  0.9660
  710MOL0     C97853   4.956   5.042   1.088 -0.0629  0.0677  0.8679
  710MOL0     C97854   5.089   5.018   1.014 -0.0560 -0.5935  0.2913
  710MOL0     C97855   5.200   5.085   1.088  0.4536  0.2514 -0.4308
  710MOL0     C97856   5.282   5.169   0.990  0.1977 -0.6260  0.2167
  710MOL0     C97857   5.210   5.299   0.947 -0.7219  0.4846  0.1011
  710MOL0     C97858   5.267   5.379   0.823 -0.0651  0.4550 -0.0414
  710MOL0     N97859   5.250   5.302   0.690 -0.7688  0.1183  0.1269
  710MOL0     C97860   5.307   5.342   0.566 -0.0390 -0.1255  0.2038
  710MOL0     C97861   5.231   5.280   0.472 -0.4663  0.2395 -0.1811
  710MOL0     C97862   5.251   5.277   0.326  0.1949 -0.1519  0.6725
  710MOL0     C97863   5.352   5.375   0.270 -0.0383  0.1244  0.3104
  710MOL0     C97864   5.354   5.380   0.113  0.3723  0.6698 -0.2075
  710MOL0     C97865   5.469   5.458   0.060 -0.1796 -0.4085 -0.1459
  710MOL0     O97866   5.514   5.407  -0.067 -0.0938  0.0690  0.3765
  710MOL0     C97867   5.644   5.356  -0.080 -0.1484 -1.1131  0.4148
  710MOL0     C97868   5.678   5.223  -0.045 -0.5164  0.5525  0.2278
  710MOL0     C97869   5.801   5.168  -0.084 -0.2332  0.4814  0.5993
  710MOL0     C97870   5.835   5.036  -0.018  0.4350  0.0180  0.1232
  710MOL0     C97871   5.891   5.246  -0.157  0.6350 -0.1754  0.1093
  710MOL0     C97872   6.030   5.202  -0.182 -0.6044  0.3564 -0.3346
  710MOL0     O97873   6.061   5.061  -0.188  0.1594 -0.2323 -0.1328
  710MOL0     C97874   6.197   5.019  -0.176 -0.0123 -0.3138 -0.2850
  710MOL0     C97875   6.265   4.943  -0.269  0.4921  0.0421 -0.5070
  710MOL0     C97876   6.386   4.880  -0.253 -0.5163 -0.5281 -0.2879
  710MOL0     C97877   6.451   4.896  -0.132 -0.1140 -1.1497  0.4431
  710MOL0     O97878   6.577   4.843  -0.132  0.8921  0.2769 -0.0613
  710MOL0     C97879   6.663   4.864  -0.020  0.5182 -0.4283  0.5953
  710MOL0     C97880   6.811   4.855  -0.062 -0.2188 -0.1785 -0.5721
  710MOL0     C97881   6.858   4.716  -0.120 -0.0949  0.4556 -0.9956
  710MOL0     C97882   6.874   4.617  -0.010  0.8215  1.4015 -0.4901
  710MOL0     C97883   6.914   4.482  -0.066 -0.0391  0.0279 -0.0994
  710MOL0     C97884   6.932   4.377   0.053  0.3336  0.2647  0.3938
  710MOL0     C97885   7.028   4.265   0.032  0.2419 -0.6674  0.5935
  710MOL0     C97886   7.178   4.323   0.031 -0.1973 -0.8324 -0.2359
  710MOL0    Cl97887   7.249   4.386   0.189  0.4924  0.2110 -0.2687
  710MOL0     C97888   6.393   4.979  -0.032  0.5147 -0.3754  0.6488
  710MOL0     C97889   6.261   5.039  -0.048 -0.5266  0.0828 -0.2847
  710MOL0     O97890   6.117   5.290  -0.195  0.3065  0.0766 -1.2029
  710MOL0     C97891   5.850   5.378  -0.203 -0.0391  0.1916  0.0259
  710MOL0     C97892   5.729   5.429  -0.163 -0.0805  0.0968 -0.2359
  710MOL0     N97893   5.135   5.206   0.535  0.4755  0.3195  0.5390
  710MOL0     N97894   5.145   5.223   0.662  0.3722  0.0510 -0.4230
  710MOL0     C97895   4.510   4.938   1.330  0.5631 -0.3363  0.2793
  710MOL0     C97896   4.385   4.949   1.395  1.5398 -0.1149  0.2049
  710MOL0     C97897   3.967   5.038   1.534  0.6565  0.1132 -0.3056
  710MOL0     C97898   3.932   5.169   1.502 -0.0735  0.5307  0.1666
  710MOL0     C97899   3.802   5.221   1.534  0.6244 -0.4317 -0.1052
  710MOL0     C97900   3.716   5.147   1.608 -0.1985 -0.3344 -0.5944
  710MOL0     O97901   3.585   5.181   1.636  0.1698  0.1292  0.7028
  710MOL0     C97902   3.556   5.327   1.646 -0.8509 -0.5287  0.0385
  710MOL0     C97903   3.617   5.411   1.762 -1.0466 -0.3743 -0.1772
  710MOL0     C97904   3.577   5.561   1.742 -0.0199 -0.7839 -0.2861
  710MOL0     C97905   3.637   5.628   1.868 -0.9513 -0.9347 -0.1396
  710MOL0     C97906   3.589   5.765   1.866  0.2582 -0.7549 -0.2750
  710MOL0     C97907   3.544   5.877   1.867 -0.5759  0.9890 -0.0270
  710MOL0     C97908   3.746   5.015   1.651  1.1507 -0.8177  0.1884
  710MOL0     C97909   3.868   4.963   1.614  0.3452  0.0903  0.3671
  710MOL0     C97910   3.900   4.826   1.669 -0.8186  0.6803 -0.1242
  710MOL0     H97911   4.264   5.230   1.247 -0.3593 -0.4417 -0.0161
  710MOL0     H97912   4.511   5.225   1.150  0.6686 -1.8368 -0.6211
  710MOL0     H97913   4.676   4.829   1.098  1.3878 -2.2125  0.7556
  710MOL0     H97914   4.776   4.877   1.231  0.1515  2.5273  0.7728
  710MOL0     H97915   4.894   4.834   1.043  0.1740 -0.2748 -1.8251
  710MOL0     H97916   4.818   4.954   0.947  0.8303 -0.0336  0.8321
  710MOL0     H97917   4.916   5.141   1.065 -2.9412 -0.9426  1.1698
  710MOL0     H97918   4.966   5.032   1.196  1.8603  1.5592  0.8841
  710MOL0     H97919   5.113   4.911   1.016  0.0216 -0.5761  2.7008
  710MOL0     H97920   5.071   5.044   0.909 -0.4810 -0.8617  0.2953
  710MOL0     H97921   5.270   5.008   1.119  1.4051  0.3345 -2.2202
  710MOL0     H97922   5.167   5.152   1.168 -0.2341 -1.2110  0.5487
  710MOL0     H97923   5.372   5.196   1.047  1.7809 -0.4214 -2.2321
  710MOL0     H97924   5.318   5.109   0.906  2.3583  1.2315 -0.2604
  710MOL0     H97925   5.224   5.368   1.031  3.1366  0.3227 -0.2663
  710MOL0     H97926   5.104   5.280   0.928 -0.3497 -3.1383  0.9690
  710MOL0     H97927   5.220   5.477   0.811  0.1988  0.5046 -0.7177
  710MOL0     H97928   5.373   5.383   0.845  0.9228 -0.9891 -3.7309
  710MOL0     H97929   5.380   5.420   0.549  0.3080  0.2113  2.8764
  710MOL0     H97930   5.154   5.304   0.283 -1.3624 -0.8883  3.5055
  710MOL0     H97931   5.283   5.176   0.302 -0.6643 -0.3891  0.4867
  710MOL0     H97932   5.340   5.475   0.313 -0.4014  0.2578 -0.1001
  710MOL0     H97933   5.451   5.336   0.298  0.1113 -0.7246 -1.2624
  710MOL0     H97934   5.366   5.277   0.077  0.9503  0.3404  0.8844
  710MOL0     H97935   5.264   5.425   0.071 -0.2412 -1.4858 -1.3494
  710MOL0     H97936   5.438   5.563   0.056 -0.9276 -0.6641 -2.4930
  710MOL0     H97937   5.546   5.443   0.136  0.2766 -2.2457 -0.9142
  710MOL0     H97938   5.610   5.159   0.009  0.4359 -1.3019 -0.6648
  710MOL0     H97939   5.853   4.956  -0.090 -0.1377  0.5040 -0.5761
  710MOL0     H97940   5.748   5.001   0.038 -1.8523  1.3253 -2.3900
  710MOL0     H97941   5.923   5.061   0.043 -0.0590  0.2090  0.7716
  710MOL0     H97942   6.209   4.932  -0.361  2.3098  1.5661 -1.8754
  710MOL0     H97943   6.422   4.822  -0.337  2.0603  0.5254 -0.0179
  710MOL0     H97944   6.655   4.968   0.014  0.2546  0.4010 -1.7541
  710MOL0     H97945   6.643   4.796   0.062 -1.3030  2.0566  2.3476
  710MOL0     H97946   6.827   4.921  -0.148  0.1957  0.6621  0.1476
  710MOL0     H97947   6.878   4.889   0.018 -1.7153  0.5479  0.4062
  710MOL0     H97948   6.957   4.731  -0.163  1.0475  0.0739  1.3228
  710MOL0     H97949   6.797   4.682  -0.205 -0.5849 -0.9236 -0.1335
  710MOL0     H97950   6.782   4.616   0.049  0.4643 -0.8245 -1.0157
  710MOL0     H97951   6.951   4.651   0.060  1.7883 -2.1637  0.3476
  710MOL0     H97952   6.829   4.444  -0.124 -0.9676 -0.3609  1.4706
  710MOL0     H97953   7.003   4.499  -0.127 -0.1837  0.7687 -0.1058
  710MOL0     H97954   6.833   4.336   0.074  0.6538 -0.6240  0.2165
  710MOL0     H97955   6.958   4.430   0.145 -1.6451 -0.1790  1.2654
  710MOL0     H97956   7.009   4.214  -0.064 -0.3889 -2.1369  1.4685
  710MOL0     H97957   7.009   4.192   0.111  0.1026 -2.6113 -1.1317
  710MOL0     H97958   7.178   4.411  -0.034 -0.0184 -1.5777 -1.2814
  710MOL0     H97959   7.247   4.253  -0.016 -0.7798 -0.3124 -1.9551
  710MOL0     H97960   6.440   5.000   0.063  0.9546 -0.3370  0.4295
  710MOL0     H97961   6.210   5.091   0.032 -3.5268 -1.9270 -0.7292
  710MOL0     H97962   5.917   5.438  -0.263  2.7476 -1.6756  1.0788
  710MOL0     H97963   5.681   5.522  -0.192 -0.3976  0.7504  2.1824
  710MOL0     H97964   4.572   4.854   1.359  3.4116  2.7114  4.1108
  710MOL0     H97965   4.352   4.869   1.459 -2.9315  0.1212 -1.4204
  710MOL0     H97966   4.000   5.238   1.452 -0.5124  0.8963  0.0785
  710MOL0     H97967   3.786   5.326   1.513 -1.9307 -1.0140 -1.5245
  710MOL0     H97968   3.592   5.375   1.554 -0.8385 -3.5940 -1.6818
  710MOL0     H97969   3.447   5.333   1.640 -0.7450  0.1856 -2.4849
  710MOL0     H97970   3.726   5.397   1.769 -1.1351 -0.7974  0.4729
  710MOL0     H97971   3.581   5.371   1.858 -0.3815  2.4800  1.3754
  710MOL0     H97972   3.611   5.609   1.649  0.7288 -0.1344  0.3041
  710MOL0     H97973   3.468   5.567   1.737 -0.0442 -0.7885  0.2168
  710MOL0     H97974   3.746   5.622   1.866 -0.8597  0.5682 -0.6452
  710MOL0     H97975   3.597   5.582   1.959  0.3149  1.4382  1.7261
  710MOL0     H97976   3.484   5.966   1.858 -4.3970 -1.5290 -2.8593
  710MOL0     H97977   3.668   4.958   1.699  0.8278 -0.7499 -0.2457
  710MOL0     H97978   3.998   4.826   1.716 -0.9747 -1.1523  0.2771
  710MOL0     H97979   3.825   4.819   1.748 -1.4766  5.4826  0.0130
  710MOL0     H97980   3.903   4.746   1.595  0.7168  1.0374 -0.4746
  711MOL0     O97981   7.676  10.449   3.599  0.6350  0.1904 -0.3976
  711MOL0     C97982   7.626  10.383   3.508 -0.0621 -0.1704  0.2825
  711MOL0     O97983   7.661  10.407   3.380 -0.3412 -0.0658  0.2979
  711MOL0     C97984   7.782  10.480   3.364  0.1823  0.4161 -0.1740
  711MOL0     C97985   7.774  10.579   3.264 -0.5323 -0.0817  0.3048
  711MOL0     C97986   7.895  10.653   3.235 -0.5609 -0.0172  0.3906
  711MOL0     C97987   8.018  10.611   3.298  0.6482  0.0565  0.2811
  711MOL0     O97988   8.140  10.658   3.243  0.3836  0.6121 -0.1166
  711MOL0     C97989   8.249  10.681   3.330  0.1750 -0.3518 -0.4249
  711MOL0     C97990   8.341  10.569   3.325  0.0539  0.6383  0.7598
  711MOL0     C97991   8.410  10.541   3.186 -0.0830  0.4184  0.4159
  711MOL0     C97992   8.530  10.436   3.192 -0.0075 -0.0750 -0.0779
  711MOL0     C97993   8.589  10.387   3.052 -0.3509 -0.3129  1.2605
  711MOL0     C97994   8.669  10.507   2.975  0.4588  0.5147  0.6029
  711MOL0     C97995   8.652  10.508   2.825 -0.0901  0.5218  0.3570
  711MOL0     C97996   8.721  10.386   2.760 -0.3353 -0.6963 -0.5651
  711MOL0     N97997   8.866  10.416   2.723 -0.0814 -0.2079 -0.0798
  711MOL0     C97998   8.977  10.388   2.801 -0.7040 -0.1487 -0.0696
  711MOL0     C97999   9.090  10.425   2.722  0.1258  0.6448 -1.1242
  711MOL0     C98000   9.242  10.403   2.759  1.0608  0.1702 -0.4657
  711MOL0     C98001   9.311  10.515   2.837 -0.7827 -0.6787  0.6165
  711MOL0     C98002   9.230  10.557   2.961  0.7466 -0.4255  0.1396
  711MOL0     C98003   9.287  10.651   3.059 -0.4506  0.2858 -1.1169
  711MOL0     O98004   9.367  10.749   2.999 -0.3573 -0.3701 -0.0162
  711MOL0     C98005   9.315  10.870   2.967 -0.1086 -0.0047 -0.3432
  711MOL0     C98006   9.405  10.971   2.924 -1.0375 -0.4174 -0.0427
  711MOL0     C98007   9.364  11.096   2.894  1.2385 -0.7230 -0.0096
  711MOL0     C98008   9.468  11.207   2.878 -0.4734 -0.7215 -0.4959
  711MOL0     C98009   9.225  11.135   2.906 -0.2210 -0.3657  1.0287
  711MOL0     C98010   9.171  11.274   2.865 -0.3718  0.5742  0.4226
  711MOL0     O98011   9.233  11.341   2.766  0.3034  0.5273 -0.1001
  711MOL0     C98012   9.157  11.442   2.717 -0.2731 -0.1553  0.3537
  711MOL0     C98013   9.039  11.407   2.654 -0.1973  0.1095  1.2381
  711MOL0     C98014   8.955  11.498   2.592  0.0231 -0.8801 -0.5131
  711MOL0     C98015   8.999  11.631   2.599  0.0273 -0.3731  0.6549
  711MOL0     O98016   8.922  11.723   2.517 -0.4843 -0.2040 -0.3376
  711MOL0     C98017   8.974  11.854   2.498 -0.1874 -0.6617 -0.5192
  711MOL0     C98018   8.902  11.933   2.387  0.3576  0.5796 -0.6012
  711MOL0     C98019   8.762  11.987   2.432 -0.5510  0.4197 -0.3093
  711MOL0     C98020   8.677  12.026   2.310  0.8966  0.4952 -0.5802
  711MOL0     C98021   8.589  11.910   2.256  0.1186  0.6249 -0.4249
  711MOL0     C98022   8.550  11.931   2.111  1.0106  0.2833  0.7920
  711MOL0     C98023   8.485  11.811   2.050  0.4185  0.7808  0.0843
  711MOL0     C98024   8.430  11.831   1.917  0.5429 -0.5376  0.2195
  711MOL0    Cl98025   8.394  11.672   1.856  0.1698 -0.3761  0.0223
  711MOL0     C98026   9.109  11.666   2.676 -0.2444  0.0409 -0.4914
  711MOL0     C98027   9.196  11.571   2.732  0.9342 -0.5358 -0.4896
  711MOL0     O98028   9.066  11.314   2.917  0.2386 -0.7113  0.0819
  711MOL0     C98029   9.134  11.038   2.953 -0.0533  0.1389 -0.0752
  711MOL0     C98030   9.184  10.909   2.982 -0.1661  0.0715  0.3172
  711MOL0     N98031   9.034  10.489   2.614  0.6168  0.2462  0.0241
  711MOL0     N98032   8.910  10.466   2.602  0.6600 -0.5415 -0.6800
  711MOL0     C98033   8.008  10.526   3.405 -0.2043 -0.4123 -0.7049
  711MOL0     C98034   7.896  10.462   3.437  0.2172  0.2286  0.5483
  711MOL0     C98035   7.542  10.263   3.544 -0.0507  0.1237  0.1800
  711MOL0     C98036   7.504  10.183   3.431  0.5368 -0.0034 -0.3446
  711MOL0     C98037   7.403  10.081   3.449 -0.7460  0.0642  0.6754
  711MOL0     C98038   7.360  10.042   3.572 -0.4714 -1.3572 -0.3601
  711MOL0     O98039   7.263   9.946   3.598 -0.1931  0.3027  0.1090
  711MOL0     C98040   7.219   9.866   3.484  0.0741  0.6041 -0.6269
  711MOL0     C98041   7.178   9.728   3.553  0.6104  0.6942 -0.2186
  711MOL0     C98042   7.291   9.639   3.596 -0.3806 -0.0025  0.1590
  711MOL0     C98043   7.324   9.539   3.480  0.3818 -0.1116 -0.3889
  711MOL0     C98044   7.448   9.477   3.516 -0.1000  0.0638  0.0279
  711MOL0     C98045   7.563   9.449   3.538 -0.8026  0.3907  0.2259
  711MOL0     C98046   7.418  10.108   3.684  0.4720 -0.4550  0.4262
  711MOL0     C98047   7.489  10.227   3.677 -0.1754 -0.5177  0.3180
  711MOL0     C98048   7.517  10.303   3.810 -0.1744 -0.2165  0.8725
  711MOL0     H98049   7.684  10.592   3.204  0.4302 -0.2599 -1.2217
  711MOL0     H98050   7.901  10.725   3.154  1.6256 -1.7773 -1.1340
  711MOL0     H98051   8.209  10.699   3.431  0.1064 -1.5503 -0.2158
  711MOL0     H98052   8.314  10.766   3.311  1.5737 -1.1896  0.4466
  711MOL0     H98053   8.427  10.584   3.391 -0.2657  0.8965  1.1203
  711MOL0     H98054   8.282  10.482   3.354 -2.1852  0.5389 -3.3130
  711MOL0     H98055   8.333  10.502   3.119  0.3301  0.0353  0.1629
  711MOL0     H98056   8.448  10.636   3.147 -1.3280  1.0783  0.7376
  711MOL0     H98057   8.611  10.485   3.247 -0.6103 -1.6864  2.4303
  711MOL0     H98058   8.507  10.355   3.261  1.4428 -0.3576  0.1145
  711MOL0     H98059   8.501  10.355   2.995 -1.5623  2.0961  1.6182
  711MOL0     H98060   8.657  10.303   3.069 -1.2625 -2.0070 -2.5634
  711MOL0     H98061   8.619  10.600   3.002 -0.6365  0.3664 -0.8048
  711MOL0     H98062   8.771  10.510   3.015 -0.2772  2.5581  2.5157
  711MOL0     H98063   8.704  10.598   2.792  0.6776 -0.4175 -1.1298
  711MOL0     H98064   8.545  10.522   2.807 -0.0643 -0.4644 -0.6862
  711MOL0     H98065   8.718  10.293   2.817  2.2638 -1.8221 -2.0888
  711MOL0     H98066   8.667  10.366   2.667 -0.9448 -1.8971  0.0234
  711MOL0     H98067   8.983  10.340   2.897  4.6234 -1.8221 -0.8942
  711MOL0     H98068   9.293  10.397   2.662 -0.6614 -0.6045 -1.3651
  711MOL0     H98069   9.260  10.301   2.795  0.1391  0.6116  1.3412
  711MOL0     H98070   9.413  10.477   2.849 -0.7817 -0.6670  0.6424
  711MOL0     H98071   9.324  10.609   2.782  1.3382 -0.9507  0.5496
  711MOL0     H98072   9.138  10.605   2.926  0.7914  0.1465  0.7905
  711MOL0     H98073   9.214  10.459   3.008  0.2897 -0.0860  0.7042
  711MOL0     H98074   9.218  10.694   3.132  0.7883  0.8832 -0.2612
  711MOL0     H98075   9.354  10.600   3.129  0.2163  0.5678 -1.5317
  711MOL0     H98076   9.508  10.940   2.911 -0.6357  0.4796  0.8282
  711MOL0     H98077   9.481  11.267   2.787  1.0042  2.2813  1.5048
  711MOL0     H98078   9.564  11.163   2.905 -0.9867 -1.7921 -0.3687
  711MOL0     H98079   9.443  11.289   2.946  1.9545  3.1778 -3.8015
  711MOL0     H98080   9.016  11.301   2.646  1.3523 -0.0957 -2.9679
  711MOL0     H98081   8.864  11.479   2.535 -0.4950  3.4066 -1.4433
  711MOL0     H98082   8.957  11.898   2.597  3.7868  0.5643 -0.2291
  711MOL0     H98083   9.082  11.848   2.486  0.2326  2.4463  0.7182
  711MOL0     H98084   8.969  12.011   2.350  0.0454 -0.0284 -2.5378
  711MOL0     H98085   8.891  11.863   2.304 -1.2841  2.2406 -1.8628
  711MOL0     H98086   8.764  12.071   2.502 -1.1852 -0.0807  0.3219
  711MOL0     H98087   8.724  11.898   2.483 -0.2761 -0.9157 -2.3019
  711MOL0     H98088   8.747  12.058   2.232  3.3656 -2.5560  0.1867
  711MOL0     H98089   8.613  12.110   2.340  1.3369  0.5172  0.3224
  711MOL0     H98090   8.649  11.820   2.269  1.6906  1.4345 -1.6411
  711MOL0     H98091   8.498  11.909   2.316 -0.3779  2.0432 -1.0893
  711MOL0     H98092   8.639  11.961   2.056  0.0819  1.0491 -0.3569
  711MOL0     H98093   8.479  12.012   2.094  2.4541  1.1478 -1.6403
  711MOL0     H98094   8.413  11.767   2.120  3.9130 -3.5576  1.4425
  711MOL0     H98095   8.562  11.734   2.039  0.1489  0.7722 -2.3405
  711MOL0     H98096   8.493  11.880   1.842 -1.7437  0.3780 -1.1812
  711MOL0     H98097   8.334  11.883   1.918 -0.4606 -2.2282 -1.5734
  711MOL0     H98098   9.129  11.769   2.704 -0.3458  0.2604 -1.1849
  711MOL0     H98099   9.285  11.602   2.785 -0.7696  3.1249  0.5458
  711MOL0     H98100   9.028  11.051   2.972  0.0666  3.3731 -0.9405
  711MOL0     H98101   9.104  10.846   3.019 -2.4471  1.4478 -1.8721
  711MOL0     H98102   8.096  10.500   3.463 -0.0889 -1.1519 -1.1924
  711MOL0     H98103   7.899  10.389   3.518  0.5238 -0.2538  0.1118
  711MOL0     H98104   7.537  10.204   3.330 -1.4709 -1.1915 -1.3184
  711MOL0     H98105   7.357  10.048   3.356 -0.0825  0.2073  0.2932
  711MOL0     H98106   7.126   9.911   3.451  0.3013  2.2747  0.8895
  711MOL0     H98107   7.303   9.845   3.417  0.2203 -0.8256 -0.0322
  711MOL0     H98108   7.108   9.681   3.483  1.5022  1.9613 -2.0316
  711MOL0     H98109   7.117   9.741   3.643 -1.4939 -0.8287 -1.3191
  711MOL0     H98110   7.385   9.690   3.622  0.4006 -0.2667 -1.9402
  711MOL0     H98111   7.261   9.581   3.684 -0.3921 -1.1993 -0.6026
  711MOL0     H98112   7.327   9.593   3.384  3.7189  0.1084 -0.2736
  711MOL0     H98113   7.258   9.452   3.480  2.3882 -1.7439  2.0518
  711MOL0     H98114   7.659   9.407   3.562 -1.3199 -0.2321  1.3147
  711MOL0     H98115   7.383  10.060   3.774  0.7931  0.4351  1.0406
  711MOL0     H98116   7.482  10.407   3.802 -1.1672 -0.6030 -0.1221
  711MOL0     H98117   7.459  10.257   3.891 -0.7329 -1.4601 -0.2014
  711MOL0     H98118   7.623  10.301   3.838  0.6099  2.3677 -1.4779
  712MOL0     O98119   7.234   4.852   1.003  0.1485  0.9040  0.2435
  712MOL0     C98120   7.230   4.745   1.065  1.1831 -0.5222 -0.0539
  712MOL0     O98121   7.335   4.665   1.105 -0.1397  0.2273  0.0860
  712MOL0     C98122   7.456   4.735   1.118 -0.4174 -0.2339 -0.3921
  712MOL0     C98123   7.477   4.819   1.234  0.0911  0.5398  0.1688
  712MOL0     C98124   7.581   4.908   1.246  0.0156  0.0456  0.3536
  712MOL0     C98125   7.677   4.909   1.153 -0.0753  0.0352  0.9576
  712MOL0     O98126   7.792   4.984   1.153  0.0478 -0.3390  0.6606
  712MOL0     C98127   7.826   5.058   1.272  0.7055  0.6496  0.7591
  712MOL0     C98128   7.963   5.129   1.260  0.1679 -0.1235  0.2095
  712MOL0     C98129   7.999   5.201   1.388 -0.4624 -0.8987 -0.9551
  712MOL0     C98130   8.140   5.251   1.377  0.9889 -0.6365  0.5558
  712MOL0     C98131   8.182   5.309   1.516 -0.4799 -0.3763  0.4960
  712MOL0     C98132   8.304   5.408   1.520 -0.0533 -0.3327  0.6839
  712MOL0     C98133   8.359   5.442   1.660  0.3994  0.2285 -0.2925
  712MOL0     C98134   8.478   5.540   1.639 -0.2913  0.2500  0.4350
  712MOL0     N98135   8.547   5.605   1.756 -0.8087 -0.2463 -0.3844
  712MOL0     C98136   8.499   5.714   1.809 -0.2243  0.4011 -0.2709
  712MOL0     C98137   8.600   5.750   1.891 -0.6462  0.0611 -0.9705
  712MOL0     C98138   8.585   5.868   1.986  0.5595  0.8606 -0.0457
  712MOL0     C98139   8.528   5.816   2.122 -0.1879  0.0467 -0.5132
  712MOL0     C98140   8.580   5.883   2.249  1.4587  0.4101  0.2473
  712MOL0     C98141   8.500   6.008   2.281  0.7463 -0.0957 -0.3128
  712MOL0     O98142   8.361   5.992   2.316 -0.0430  0.2368  0.7767
  712MOL0     C98143   8.282   6.096   2.364 -0.2489  0.0465  0.6176
  712MOL0     C98144   8.323   6.226   2.377  0.0771  0.2387 -0.3494
  712MOL0     C98145   8.256   6.322   2.448  0.6240 -0.2436  0.1880
  712MOL0     C98146   8.305   6.463   2.461 -0.0312  0.2431  0.1658
  712MOL0     C98147   8.153   6.278   2.529  0.4052  0.1159 -0.3827
  712MOL0     C98148   8.071   6.369   2.614 -0.6853  0.2408 -0.1159
  712MOL0     O98149   8.055   6.329   2.739 -0.5633 -0.9466 -0.5574
  712MOL0     C98150   7.990   6.399   2.830 -0.0464  0.3571 -1.4068
  712MOL0     C98151   7.978   6.539   2.844 -0.2983 -0.3687 -0.4170
  712MOL0     C98152   7.916   6.588   2.951 -0.3395 -0.1978  0.5631
  712MOL0     C98153   7.865   6.508   3.059 -0.0078 -0.7102  0.1510
  712MOL0     O98154   7.792   6.554   3.159  0.3779 -0.2940 -0.2990
  712MOL0     C98155   7.848   6.665   3.233  0.4669 -0.0125 -0.5336
  712MOL0     C98156   7.755   6.785   3.247  0.3633  0.2067  0.3685
  712MOL0     C98157   7.789   6.854   3.377  0.3787  0.7321 -0.5438
  712MOL0     C98158   7.715   6.986   3.397  0.0971 -1.2405  0.3577
  712MOL0     C98159   7.743   7.072   3.523  0.4035  0.2879  0.4126
  712MOL0     C98160   7.675   6.999   3.640 -0.1443 -0.5040 -0.1830
  712MOL0     C98161   7.748   7.035   3.766  0.1747 -0.7593 -0.0903
  712MOL0     C98162   7.722   7.179   3.814 -0.1164  0.2057  1.0781
  712MOL0    Cl98163   7.801   7.209   3.965 -0.2669  0.0190  0.4826
  712MOL0     C98164   7.869   6.371   3.044 -0.2762  0.3469  0.5005
  712MOL0     C98165   7.936   6.322   2.928 -0.2630 -0.2974 -0.3339
  712MOL0     O98166   8.027   6.466   2.556  0.7024  0.6510  0.8342
  712MOL0     C98167   8.110   6.140   2.512 -0.4874 -1.1281 -0.9349
  712MOL0     C98168   8.176   6.056   2.423  0.3475  0.5118  0.5890
  712MOL0     N98169   8.711   5.662   1.879  0.8690  0.3480 -0.8499
  712MOL0     N98170   8.672   5.573   1.794  0.1451  0.1837  0.1115
  712MOL0     C98171   7.666   4.817   1.046 -0.6963 -0.4487  0.2804
  712MOL0     C98172   7.556   4.735   1.024  0.3491  0.2771 -0.3659
  712MOL0     C98173   7.096   4.713   1.121 -0.2392  0.2602  0.0570
  712MOL0     C98174   7.081   4.648   1.246 -0.1620  0.2028 -0.1805
  712MOL0     C98175   6.955   4.607   1.300  0.0058 -0.3928  0.4034
  712MOL0     C98176   6.839   4.635   1.226  0.4061 -0.8700  0.3811
  712MOL0     O98177   6.710   4.614   1.259  0.7438  0.0942  0.5472
  712MOL0     C98178   6.693   4.495   1.325 -0.4245 -1.3409 -0.8984
  712MOL0     C98179   6.555   4.451   1.376  0.7033 -0.0964 -0.7804
  712MOL0     C98180   6.484   4.412   1.243  0.2779  0.1880 -0.5882
  712MOL0     C98181   6.355   4.324   1.255 -0.0076  0.9370  0.3400
  712MOL0     C98182   6.247   4.408   1.312  0.1790 -0.1673 -0.2670
  712MOL0     C98183   6.168   4.480   1.368  0.0289  0.1318 -0.0976
  712MOL0     C98184   6.852   4.707   1.107  0.2516  0.1673 -0.0457
  712MOL0     C98185   6.974   4.740   1.051  0.4336 -0.1663 -0.2560
  712MOL0     C98186   6.969   4.799   0.909  1.0148  0.2571 -0.7542
  712MOL0     H98187   7.394   4.812   1.304  0.1228 -0.2891  0.1326
  712MOL0     H98188   7.579   4.972   1.333 -0.8498 -0.3819  0.6614
  712MOL0     H98189   7.814   4.995   1.361  0.6187  0.2798  0.4837
  712MOL0     H98190   7.750   5.135   1.285  0.0278 -0.0534  1.0302
  712MOL0     H98191   8.034   5.048   1.239 -1.3046 -0.3864 -5.3448
  712MOL0     H98192   7.976   5.202   1.179  0.1526  0.4699  0.7254
  712MOL0     H98193   7.913   5.268   1.394 -3.3663 -4.1214 -2.6505
  712MOL0     H98194   7.991   5.128   1.469 -1.6258 -1.6082 -1.6803
  712MOL0     H98195   8.209   5.170   1.351  2.5980 -0.2519  3.1935
  712MOL0     H98196   8.158   5.317   1.292  1.2212  1.2880  2.0340
  712MOL0     H98197   8.187   5.228   1.589 -0.8819  0.1037  1.0644
  712MOL0     H98198   8.099   5.368   1.557  1.2384  0.2802  3.2992
  712MOL0     H98199   8.380   5.366   1.453  2.2895  0.1664  2.8554
  712MOL0     H98200   8.266   5.499   1.476 -0.0220 -0.8981 -0.5393
  712MOL0     H98201   8.392   5.353   1.713 -2.1336 -0.0134  1.0156
  712MOL0     H98202   8.291   5.498   1.724 -1.3802 -1.5042 -0.5764
  712MOL0     H98203   8.552   5.487   1.578 -1.0152  0.5131 -0.7198
  712MOL0     H98204   8.444   5.616   1.568 -1.5244 -1.5976 -1.0743
  712MOL0     H98205   8.403   5.765   1.802  0.7485  2.1761 -1.1363
  712MOL0     H98206   8.515   5.941   1.943 -1.0603 -1.3621 -1.4064
  712MOL0     H98207   8.681   5.914   2.013 -1.1564  2.7779  3.5497
  712MOL0     H98208   8.419   5.824   2.119 -0.0649  4.2424 -0.0234
  712MOL0     H98209   8.560   5.713   2.135 -1.2782 -0.0736  1.7455
  712MOL0     H98210   8.560   5.809   2.327  1.9455 -1.1806 -1.0821
  712MOL0     H98211   8.688   5.893   2.244  1.4210  0.2404 -1.3211
  712MOL0     H98212   8.553   6.055   2.364  0.0222  0.9666 -0.4378
  712MOL0     H98213   8.504   6.068   2.190 -2.6619 -2.8548 -2.5649
  712MOL0     H98214   8.417   6.265   2.340  1.7404 -3.1918 -0.1622
  712MOL0     H98215   8.299   6.504   2.562 -0.4074 -1.5952  0.9239
  712MOL0     H98216   8.240   6.525   2.398 -1.0538 -0.5240  0.4452
  712MOL0     H98217   8.408   6.466   2.423 -0.5940  0.2201 -1.4166
  712MOL0     H98218   8.023   6.611   2.776  0.0268  0.7320  0.9188
  712MOL0     H98219   7.907   6.696   2.959 -0.9398 -0.0901 -1.1721
  712MOL0     H98220   7.875   6.624   3.331  0.2710 -1.2261 -0.9716
  712MOL0     H98221   7.945   6.694   3.193  0.0356  2.7892  0.2112
  712MOL0     H98222   7.770   6.850   3.159  1.3683  0.7736  0.9376
  712MOL0     H98223   7.658   6.737   3.256  0.9558 -1.1633 -0.3107
  712MOL0     H98224   7.895   6.881   3.374  1.1588 -2.0757 -1.6384
  712MOL0     H98225   7.763   6.790   3.462 -1.7263  1.0529 -0.9080
  712MOL0     H98226   7.606   6.975   3.387 -0.3954  2.1135  0.8725
  712MOL0     H98227   7.741   7.046   3.309 -0.8918 -1.4619 -0.1015
  712MOL0     H98228   7.851   7.080   3.538  0.4836 -0.4019  0.2221
  712MOL0     H98229   7.698   7.171   3.515  0.4586  0.1589 -2.0886
  712MOL0     H98230   7.691   6.891   3.647  0.1007 -0.3568  2.2152
  712MOL0     H98231   7.571   7.034   3.647  0.0529  0.0912 -0.1673
  712MOL0     H98232   7.854   7.010   3.765  0.2174 -0.5731 -0.7132
  712MOL0     H98233   7.696   6.980   3.846  1.4042 -2.2403 -0.2686
  712MOL0     H98234   7.618   7.210   3.824 -0.2349  0.6816 -1.0910
  712MOL0     H98235   7.763   7.255   3.746 -0.5873  2.6307  3.3643
  712MOL0     H98236   7.822   6.302   3.113  2.9318  1.6192  4.3366
  712MOL0     H98237   7.936   6.215   2.909 -0.9152 -0.4489  0.5221
  712MOL0     H98238   8.024   6.107   2.569 -0.8469  0.7467 -0.3153
  712MOL0     H98239   8.144   5.954   2.407 -1.0667  1.2796 -2.2207
  712MOL0     H98240   7.744   4.803   0.972 -1.9326 -0.3657 -1.0933
  712MOL0     H98241   7.556   4.675   0.934 -2.7523 -0.0079 -0.2593
  712MOL0     H98242   7.172   4.635   1.304 -0.5442 -1.3917  0.1162
  712MOL0     H98243   6.953   4.559   1.398 -0.2901 -1.9737 -0.3332
  712MOL0     H98244   6.735   4.405   1.279  0.7253  0.6729 -4.0414
  712MOL0     H98245   6.742   4.510   1.422 -2.0756 -0.0003 -0.2110
  712MOL0     H98246   6.499   4.529   1.428  0.4411 -1.2040  0.6710
  712MOL0     H98247   6.565   4.362   1.439 -3.1781 -0.5116 -0.4898
  712MOL0     H98248   6.470   4.502   1.183 -0.9227  0.1642 -0.3794
  712MOL0     H98249   6.555   4.350   1.188  1.2526  1.5512 -0.9107
  712MOL0     H98250   6.379   4.232   1.310 -1.4230  0.1893 -0.2276
  712MOL0     H98251   6.318   4.295   1.156 -2.7307 -1.1099  1.8137
  712MOL0     H98252   6.095   4.547   1.409 -1.5770 -1.3733 -0.4002
  712MOL0     H98253   6.757   4.732   1.062 -0.0706  2.0006  1.4984
  712MOL0     H98254   7.057   4.772   0.850  0.5371 -0.0384 -1.3292
  712MOL0     H98255   6.875   4.769   0.862  0.5503  1.3336 -0.5458
  712MOL0     H98256   6.969   4.908   0.917 -1.3557  0.2916 -0.4940
  713MOL0     O98257   2.916   5.923  10.739  0.4511  0.2480  0.1513
  713MOL0     C98258   2.838   5.987  10.812  0.6031 -1.1759 -0.1677
  713MOL0     O98259   2.848   6.120  10.837  0.5251  0.3382 -0.4913
  713MOL0     C98260   2.979   6.168  10.842 -0.7502  0.2377 -0.4474
  713MOL0     C98261   3.071   6.129  10.943  0.2036 -0.4458  0.5282
  713MOL0     C98262   3.199   6.175  10.948 -0.2744 -0.2555 -0.2072
  713MOL0     C98263   3.236   6.282  10.864 -0.6291  0.2867  0.8496
  713MOL0     O98264   3.356   6.352  10.863  0.1127  0.2212  0.1626
  713MOL0     C98265   3.470   6.278  10.912  0.2403  0.6448  0.1055
  713MOL0     C98266   3.588   6.340  10.857  0.5427 -0.1921 -0.3030
  713MOL0     C98267   3.710   6.259  10.909 -0.5318  0.0383 -0.1979
  713MOL0     C98268   3.849   6.310  10.864 -0.2993  0.7757  0.0000
  713MOL0     C98269   3.957   6.196  10.879  0.5776 -0.7202 -0.1569
  713MOL0     C98270   4.092   6.265  10.866  0.8882 -0.0311 -0.1313
  713MOL0     C98271   4.209   6.171  10.819 -0.0188  0.1055 -0.4869
  713MOL0     C98272   4.272   6.099  10.936  0.3761  0.5440 -0.3457
  713MOL0     N98273   4.388   6.036  10.888 -0.7181  0.1275  0.5114
  713MOL0     C98274   4.399   5.936  10.790  0.0404 -1.2802 -0.5085
  713MOL0     C98275   4.525   5.911  10.781 -0.2806  0.0337 -0.4318
  713MOL0     C98276   4.577   5.805  10.689 -0.1412 -0.5797 -0.5949
  713MOL0     C98277   4.727   5.820  10.677  0.2485 -0.0108 -0.8704
  713MOL0     C98278   4.771   5.764  10.539 -0.2773 -0.8778  0.3515
  713MOL0     C98279   4.928   5.770  10.537 -0.1071 -0.7019 -0.3320
  713MOL0     O98280   4.978   5.897  10.563  1.1722  0.1912 -0.6140
  713MOL0     C98281   5.104   5.931  10.516  0.1657  0.3410 -0.5441
  713MOL0     C98282   5.211   5.845  10.483 -0.6093 -0.1284  0.4212
  713MOL0     C98283   5.332   5.902  10.429 -0.3996 -0.5238 -0.4270
  713MOL0     C98284   5.450   5.806  10.399  0.7031 -1.0749  0.4907
  713MOL0     C98285   5.341   6.047  10.416  0.1635 -0.1862  1.0026
  713MOL0     C98286   5.444   6.115  10.343 -0.0499 -0.4648  0.6443
  713MOL0     O98287   5.438   6.251  10.345  0.2319 -0.1268 -0.0476
  713MOL0     C98288   5.564   6.311  10.327 -0.0989  0.1242 -0.8453
  713MOL0     C98289   5.594   6.341  10.201 -0.3007 -0.1421  0.3531
  713MOL0     C98290   5.716   6.412  10.171 -0.7927 -0.2936 -0.1782
  713MOL0     C98291   5.802   6.446  10.288  0.7338 -0.3072  0.4285
  713MOL0     O98292   5.923   6.497  10.259  0.4591 -0.0660  0.0908
  713MOL0     C98293   6.030   6.476  10.352 -0.6885  0.1152 -1.0562
  713MOL0     C98294   6.166   6.485  10.279  0.5662  0.1143 -0.1259
  713MOL0     C98295   6.288   6.480  10.371 -0.0148 -0.0972  0.7212
  713MOL0     C98296   6.381   6.368  10.336  0.3893  0.5234  0.3021
  713MOL0     C98297   6.460   6.401  10.211  0.0406  0.0865  0.3256
  713MOL0     C98298   6.601   6.342  10.217  0.3195 -0.4939  0.3826
  713MOL0     C98299   6.689   6.439  10.284 -0.5101 -0.0717 -0.1363
  713MOL0     C98300   6.807   6.375  10.352 -0.2236  0.3215 -0.5117
  713MOL0    Cl98301   6.911   6.305  10.239  0.6446  0.2906 -0.2561
  713MOL0     C98302   5.753   6.427  10.416 -0.3472  0.7155  0.4204
  713MOL0     C98303   5.638   6.360  10.439  0.0731  0.2809 -0.7440
  713MOL0     O98304   5.528   6.044  10.284  0.1411  0.3095  0.2987
  713MOL0     C98305   5.236   6.125  10.470 -0.7133  0.4982 -0.9835
  713MOL0     C98306   5.128   6.065  10.524  0.0363  0.4159 -0.1773
  713MOL0     N98307   4.593   5.978  10.878  0.4180  0.4750  0.2357
  713MOL0     N98308   4.517   6.055  10.947 -0.1584  0.0034  0.2806
  713MOL0     C98309   3.143   6.336  10.773  0.5548  0.1127 -0.0534
  713MOL0     C98310   3.015   6.283  10.764 -0.3737 -0.2913 -0.2712
  713MOL0     C98311   2.728   5.908  10.865  0.2770  0.7173  0.5275
  713MOL0     C98312   2.743   5.777  10.911 -0.5224  0.0443 -0.0663
  713MOL0     C98313   2.649   5.688  10.953  0.0649 -0.1053 -0.9953
  713MOL0     C98314   2.514   5.721  10.951 -0.1470 -0.2756  0.0404
  713MOL0     O98315   2.423   5.633  10.990  0.6473 -0.0909  0.5885
  713MOL0     C98316   2.282   5.662  10.973 -0.1616 -0.4117 -0.1807
  713MOL0     C98317   2.189   5.547  11.018  0.4341 -0.1824 -0.0829
  713MOL0     C98318   2.195   5.526  11.173  0.2787  0.2893  0.0333
  713MOL0     C98319   2.115   5.407  11.207 -0.0586  0.9068  0.4971
  713MOL0     C98320   1.977   5.445  11.192  0.3181  0.2496  0.3401
  713MOL0     C98321   1.858   5.458  11.178  0.4637 -0.3268  0.7900
  713MOL0     C98322   2.488   5.860  10.920  0.4781  0.5697 -0.1380
  713MOL0     C98323   2.591   5.952  10.875 -0.7367 -0.0485 -0.4262
  713MOL0     C98324   2.551   6.089  10.835 -0.0596  0.1969 -0.2899
  713MOL0     H98325   3.041   6.042  11.001  0.0866 -1.0114 -0.3654
  713MOL0     H98326   3.274   6.125  11.008 -0.5877 -2.3500 -1.4301
  713MOL0     H98327   3.460   6.172  10.887 -2.9456  0.9619 -0.4427
  713MOL0     H98328   3.467   6.297  11.020  6.0697  0.5757  0.5627
  713MOL0     H98329   3.592   6.344  10.748  0.2935  1.0090 -0.2859
  713MOL0     H98330   3.580   6.443  10.893  2.8849 -0.3397  0.8254
  713MOL0     H98331   3.714   6.238  11.016  3.7879  0.5669 -0.0980
  713MOL0     H98332   3.706   6.162  10.858 -3.4858  0.5898 -1.2379
  713MOL0     H98333   3.848   6.335  10.757  1.0271  0.5728 -0.0766
  713MOL0     H98334   3.871   6.396  10.928 -1.8266  2.3977 -1.5499
  713MOL0     H98335   3.945   6.123  10.799 -3.1557  2.1616 -2.5998
  713MOL0     H98336   3.960   6.129  10.965  2.3284 -0.1973  0.2288
  713MOL0     H98337   4.084   6.332  10.780 -1.3470  0.9314  0.7627
  713MOL0     H98338   4.114   6.321  10.957  1.9657  3.0642 -2.1139
  713MOL0     H98339   4.288   6.228  10.770 -0.8453  0.2387 -1.6933
  713MOL0     H98340   4.171   6.091  10.755 -0.1999 -0.5482  0.4101
  713MOL0     H98341   4.291   6.176  11.011 -4.3758  4.3608 -2.4420
  713MOL0     H98342   4.202   6.029  10.982 -0.4819  1.5202 -0.1341
  713MOL0     H98343   4.315   5.898  10.734 -1.0193  2.2562 -1.6091
  713MOL0     H98344   4.511   5.811  10.602 -2.2515 -3.6166  0.6129
  713MOL0     H98345   4.552   5.701  10.714 -3.2818 -0.1461 -1.4548
  713MOL0     H98346   4.741   5.928  10.678 -1.4254  0.2835 -2.4326
  713MOL0     H98347   4.790   5.783  10.759 -1.2793 -1.6707 -0.3739
  713MOL0     H98348   4.727   5.666  10.517 -0.7189 -0.5786 -0.1213
  713MOL0     H98349   4.738   5.838  10.466 -0.9723 -1.1891  0.3444
  713MOL0     H98350   4.966   5.697  10.608 -0.5466 -0.8239 -0.2189
  713MOL0     H98351   4.957   5.743  10.435  2.7555 -0.5212  0.3622
  713MOL0     H98352   5.211   5.736  10.486  0.6310 -0.1607 -0.2040
  713MOL0     H98353   5.548   5.835  10.440  0.4105  4.4389 -1.7405
  713MOL0     H98354   5.466   5.789  10.292 -1.8188  0.5979 -0.2398
  713MOL0     H98355   5.426   5.705  10.432 -2.1524  0.3392  3.3519
  713MOL0     H98356   5.529   6.312  10.119 -2.2344  0.8702  1.4371
  713MOL0     H98357   5.755   6.423  10.070  3.1756 -1.9062  0.9958
  713MOL0     H98358   6.031   6.547  10.435 -0.1494 -2.8135  1.6635
  713MOL0     H98359   6.012   6.381  10.404 -1.3544  0.7641 -0.0802
  713MOL0     H98360   6.172   6.396  10.215 -0.1696  0.2028 -0.3264
  713MOL0     H98361   6.175   6.575  10.217 -1.2296  1.2823  1.2409
  713MOL0     H98362   6.269   6.462  10.477 -0.6034  0.5970  0.7418
  713MOL0     H98363   6.344   6.573  10.355  0.0946 -0.7019 -3.4024
  713MOL0     H98364   6.320   6.279  10.315  1.4237 -0.2641  0.5029
  713MOL0     H98365   6.443   6.334  10.420 -0.2362 -1.5687 -0.0188
  713MOL0     H98366   6.418   6.354  10.122  0.6144 -1.3768  0.7952
  713MOL0     H98367   6.471   6.508  10.189  0.5833 -0.3992 -1.9906
  713MOL0     H98368   6.644   6.330  10.117  2.9009 -0.5972  1.4101
  713MOL0     H98369   6.596   6.248  10.272 -0.1465  1.0105  3.0514
  713MOL0     H98370   6.629   6.498  10.354 -2.4510  2.1333 -3.3913
  713MOL0     H98371   6.726   6.506  10.205 -0.3796 -0.2814 -0.2556
  713MOL0     H98372   6.771   6.291  10.413  0.7072 -1.3366 -2.1389
  713MOL0     H98373   6.866   6.441  10.416  0.7748 -0.4211 -0.6380
  713MOL0     H98374   5.818   6.451  10.500  1.8018 -0.3358 -0.8391
  713MOL0     H98375   5.592   6.344  10.536  1.7037  1.9149  0.3865
  713MOL0     H98376   5.244   6.233  10.458  2.2729  0.8583  2.5440
  713MOL0     H98377   5.046   6.131  10.552  2.1650  2.9248  0.5121
  713MOL0     H98378   3.168   6.420  10.708  0.4672 -1.1283 -1.7708
  713MOL0     H98379   2.943   6.314  10.689  2.0330 -0.3775 -2.7362
  713MOL0     H98380   2.843   5.736  10.918  0.1564  1.6822  6.4895
  713MOL0     H98381   2.667   5.582  10.971 -2.7789 -0.6988 -1.0900
  713MOL0     H98382   2.243   5.748  11.028 -1.5375 -1.0102 -0.1897
  713MOL0     H98383   2.273   5.675  10.865  0.6241 -1.4033 -0.3783
  713MOL0     H98384   2.233   5.454  10.981  1.6365  0.5767 -0.6186
  713MOL0     H98385   2.085   5.562  10.988  0.0698  0.1416  1.2632
  713MOL0     H98386   2.300   5.511  11.196  0.7703 -0.2708 -2.3332
  713MOL0     H98387   2.153   5.610  11.230  0.2686 -0.0785  0.5757
  713MOL0     H98388   2.129   5.374  11.310  1.2104 -3.1341 -0.7775
  713MOL0     H98389   2.149   5.323  11.146  1.4299  1.4760  0.4803
  713MOL0     H98390   1.753   5.477  11.165  0.8147  2.5532  1.3653
  713MOL0     H98391   2.383   5.889  10.919 -0.3749 -2.1383 -1.7218
  713MOL0     H98392   2.442   6.100  10.842 -0.0151  0.1283  0.6961
  713MOL0     H98393   2.587   6.154  10.916 -1.5017 -0.5871  1.0461
  713MOL0     H98394   2.584   6.129  10.739 -0.4830  2.2518  0.3684
  714MOL0     O98395  10.139   8.132   9.138  0.1327 -0.1501 -0.2694
  714MOL0     C98396  10.127   8.246   9.177 -0.7219 -0.6732 -0.0020
  714MOL0     O98397  10.237   8.324   9.218  0.8476 -0.2366  0.1783
  714MOL0     C98398  10.365   8.282   9.193 -0.1202 -0.6956 -0.4902
  714MOL0     C98399  10.420   8.154   9.196  1.4195  0.0788  0.5771
  714MOL0     C98400  10.556   8.133   9.180  0.2185  0.1406  0.4288
  714MOL0     C98401  10.642   8.234   9.149  1.1795 -0.9516 -0.0230
  714MOL0     O98402  10.777   8.209   9.132  0.3541  0.2954 -0.1347
  714MOL0     C98403  10.870   8.303   9.083 -0.6015  0.2277 -0.5972
  714MOL0     C98404  10.991   8.219   9.056  0.0525  0.5279  0.1814
  714MOL0     C98405  11.102   8.321   9.000  1.0489  0.3191  0.3816
  714MOL0     C98406  11.244   8.267   8.988  0.6351 -0.1723 -0.1558
  714MOL0     C98407  11.315   8.254   9.121 -0.1481 -0.2887 -1.3953
  714MOL0     C98408  11.350   8.398   9.171 -0.4293  0.5388  0.9193
  714MOL0     C98409  11.478   8.387   9.263  0.8319 -1.0169  0.5836
  714MOL0     C98410  11.501   8.524   9.321 -0.2497 -0.6047  0.6991
  714MOL0     N98411  11.647   8.538   9.364 -0.2968 -0.8061 -0.0991
  714MOL0     C98412  11.759   8.508   9.298 -1.1664  0.3543 -0.1099
  714MOL0     C98413  11.864   8.545   9.386  0.2147  0.1124 -0.0022
  714MOL0     C98414  12.009   8.542   9.349  0.3779 -0.5506  0.6438
  714MOL0     C98415  12.044   8.623   9.226  0.1813  0.7080  0.1751
  714MOL0     C98416  12.064   8.774   9.259  0.3408  0.0598  0.6870
  714MOL0     C98417  12.168   8.819   9.364 -0.1811 -0.4520 -0.2005
  714MOL0     O98418  12.293   8.762   9.321  0.2103  1.0043  0.5730
  714MOL0     C98419  12.381   8.824   9.238  0.0556  0.6154  0.3046
  714MOL0     C98420  12.355   8.940   9.167  0.3299 -0.0042 -0.1634
  714MOL0     C98421  12.457   9.010   9.103  0.1527 -0.5353  0.4788
  714MOL0     C98422  12.437   9.153   9.060 -0.0950  0.3454 -0.0571
  714MOL0     C98423  12.586   8.946   9.093 -0.3278 -1.0017  0.2529
  714MOL0     C98424  12.706   9.005   9.034  0.0961 -0.3010 -0.5162
  714MOL0     O98425  12.817   8.986   9.104 -0.1947  0.1539  0.0369
  714MOL0     C98426  12.929   9.045   9.057  0.6379  0.2415 -1.1806
  714MOL0     C98427  13.001   8.978   8.969 -0.5250  0.2589  0.2505
  714MOL0     C98428  13.123   9.027   8.922 -0.4538 -0.5759 -0.6705
  714MOL0     C98429  13.174   9.145   8.979 -0.1876  0.5611  0.0534
  714MOL0     O98430  13.307   9.187   8.960 -0.4997 -0.0722 -1.0579
  714MOL0     C98431  13.378   9.187   8.841  0.0375  0.1793  0.4243
  714MOL0     C98432  13.516   9.120   8.846  1.0404  0.3346 -0.8000
  714MOL0     C98433  13.574   9.083   8.710 -0.2501 -0.2756 -0.3010
  714MOL0     C98434  13.726   9.072   8.714  0.5796  0.1968  0.6393
  714MOL0     C98435  13.766   8.953   8.795 -0.0242  0.6393  0.3949
  714MOL0     C98436  13.921   8.934   8.777 -0.3023  0.3672  0.7283
  714MOL0     C98437  13.982   8.849   8.905 -0.5082  0.5902  0.0001
  714MOL0     C98438  14.136   8.848   8.915  0.0808 -0.2294  0.3742
  714MOL0    Cl98439  14.207   8.757   8.772  0.1186  0.1909  0.5557
  714MOL0     C98440  13.098   9.222   9.070  0.1202  0.3716  0.2175
  714MOL0     C98441  12.976   9.167   9.115 -0.6127  0.4120  0.3297
  714MOL0     O98442  12.696   9.086   8.944  0.0905  0.0047  0.4335
  714MOL0     C98443  12.611   8.813   9.154 -0.2432  0.4202 -0.8355
  714MOL0     C98444  12.505   8.762   9.232  0.0078  0.5257  0.4635
  714MOL0     N98445  11.808   8.583   9.508  0.4890 -0.3648 -0.0497
  714MOL0     N98446  11.677   8.574   9.491 -0.4650 -1.0158  0.2674
  714MOL0     C98447  10.590   8.362   9.137 -0.2508  0.1054  0.1902
  714MOL0     C98448  10.458   8.389   9.169 -0.2853 -0.4660  0.1474
  714MOL0     C98449   9.984   8.292   9.194  0.6851 -0.2099  1.0149
  714MOL0     C98450   9.887   8.212   9.250 -0.1216  0.3572 -0.2788
  714MOL0     C98451   9.755   8.251   9.259 -0.4297  0.4077 -0.2735
  714MOL0     C98452   9.709   8.381   9.221  0.0531  0.0732 -0.0000
  714MOL0     O98453   9.579   8.430   9.209 -0.0620  0.5389 -0.7893
  714MOL0     C98454   9.471   8.333   9.239 -0.7588 -0.6713 -0.3336
  714MOL0     C98455   9.340   8.414   9.255 -0.4587  0.0621 -0.5587
  714MOL0     C98456   9.370   8.529   9.344 -0.5783  0.3544 -0.4865
  714MOL0     C98457   9.239   8.584   9.414  0.1435 -0.7701 -0.1499
  714MOL0     C98458   9.178   8.703   9.352  0.4922 -0.1645 -0.1265
  714MOL0     C98459   9.140   8.796   9.284 -0.9872 -0.6873  0.0762
  714MOL0     C98460   9.803   8.471   9.191 -0.6461 -1.0533 -0.0333
  714MOL0     C98461   9.938   8.430   9.169 -0.5602 -0.0634  0.8638
  714MOL0     C98462  10.033   8.543   9.123 -0.5519  0.1141  1.2099
  714MOL0     H98463  10.359   8.075   9.239  1.2127  0.6792  1.4040
  714MOL0     H98464  10.583   8.028   9.181  2.0363  0.4118 -3.2205
  714MOL0     H98465  10.886   8.391   9.147  1.0271  1.8062 -2.9903
  714MOL0     H98466  10.834   8.345   8.989  3.5634 -1.8965 -3.4482
  714MOL0     H98467  11.020   8.170   9.150 -0.7108 -1.9833 -0.8233
  714MOL0     H98468  10.966   8.148   8.978 -0.3034  0.7065  0.1296
  714MOL0     H98469  11.063   8.342   8.900 -0.6539 -2.0137  0.4896
  714MOL0     H98470  11.093   8.416   9.053 -2.1753  0.8187 -0.8264
  714MOL0     H98471  11.230   8.167   8.946  1.0187 -0.5605  0.6189
  714MOL0     H98472  11.311   8.321   8.921 -0.1415 -0.8310 -1.4898
  714MOL0     H98473  11.410   8.202   9.100  0.2846  0.0259 -0.2788
  714MOL0     H98474  11.248   8.202   9.190 -0.2712 -0.7411 -1.8495
  714MOL0     H98475  11.366   8.464   9.085 -2.4819  1.8836  1.4760
  714MOL0     H98476  11.271   8.449   9.227 -0.2631  0.5361  1.1565
  714MOL0     H98477  11.564   8.352   9.204  1.1052 -2.4251  1.7529
  714MOL0     H98478  11.455   8.314   9.341  0.7719 -2.6321 -0.8779
  714MOL0     H98479  11.492   8.604   9.247 -1.4869 -0.4661  0.9816
  714MOL0     H98480  11.432   8.550   9.402 -2.8829 -0.1967 -1.5122
  714MOL0     H98481  11.778   8.490   9.192 -0.4287  0.4855 -0.0062
  714MOL0     H98482  12.039   8.437   9.340  1.7125 -0.0048 -2.6025
  714MOL0     H98483  12.067   8.579   9.434 -0.1054 -2.5855  1.9516
  714MOL0     H98484  12.140   8.584   9.190 -0.2918 -0.6433  0.3163
  714MOL0     H98485  11.979   8.601   9.141 -0.1151 -0.4671  0.6782
  714MOL0     H98486  12.094   8.811   9.160  1.0384  1.3088  1.3344
  714MOL0     H98487  11.966   8.815   9.288  0.7752  2.4724 -0.9276
  714MOL0     H98488  12.177   8.928   9.376  0.4703 -0.4713 -0.4410
  714MOL0     H98489  12.150   8.780   9.464 -0.6687 -0.1014 -0.1470
  714MOL0     H98490  12.253   8.978   9.163  1.3083  2.8504 -0.2549
  714MOL0     H98491  12.429   9.154   8.950  0.4797 -1.4167 -0.1542
  714MOL0     H98492  12.521   9.218   9.084  1.4164 -0.9496 -1.4884
  714MOL0     H98493  12.349   9.204   9.102  0.3868  1.3417 -0.2348
  714MOL0     H98494  12.963   8.883   8.934 -1.1091 -0.5541  2.8353
  714MOL0     H98495  13.189   8.979   8.850 -0.8408 -0.2575 -1.2460
  714MOL0     H98496  13.319   9.147   8.758  0.5728  0.9942 -0.3624
  714MOL0     H98497  13.386   9.295   8.825 -1.5111  0.1372 -0.8050
  714MOL0     H98498  13.573   9.196   8.902  0.0815  3.2233 -3.4781
  714MOL0     H98499  13.506   9.031   8.908 -2.2940  0.8050 -0.5093
  714MOL0     H98500  13.549   9.165   8.641  1.5697 -0.2963 -1.0344
  714MOL0     H98501  13.532   8.996   8.658  1.0918  0.2420 -2.3675
  714MOL0     H98502  13.776   9.159   8.758 -1.1280  0.7149  1.6640
  714MOL0     H98503  13.759   9.071   8.610  1.8814  0.6875  1.0258
  714MOL0     H98504  13.743   8.977   8.899 -2.2861  2.4167 -0.4191
  714MOL0     H98505  13.708   8.862   8.773 -1.2718  0.8198  2.6233
  714MOL0     H98506  13.970   9.031   8.764  0.2159 -0.2157 -2.5451
  714MOL0     H98507  13.932   8.898   8.674 -0.8805  1.7639  0.1541
  714MOL0     H98508  13.941   8.748   8.911  0.2053  0.2890 -0.1049
  714MOL0     H98509  13.953   8.907   8.994 -2.3693  1.4264 -1.0814
  714MOL0     H98510  14.157   8.807   9.014 -0.1979 -0.7556  0.2227
  714MOL0     H98511  14.176   8.950   8.910 -0.5494 -0.0088 -2.8822
  714MOL0     H98512  13.137   9.315   9.111  1.0567  0.2539 -0.3850
  714MOL0     H98513  12.913   9.206   9.193  0.1633 -0.5957  1.5024
  714MOL0     H98514  12.706   8.761   9.147  0.7863  1.0225  4.3688
  714MOL0     H98515  12.520   8.666   9.282  1.5650  1.3191  1.6053
  714MOL0     H98516  10.646   8.449   9.105 -2.1483  1.4504  0.3763
  714MOL0     H98517  10.423   8.491   9.170 -2.7602 -1.1334  4.1237
  714MOL0     H98518   9.918   8.110   9.273 -0.5522 -0.4579 -2.9336
  714MOL0     H98519   9.686   8.175   9.293 -0.9317  0.8833 -0.2132
  714MOL0     H98520   9.469   8.254   9.163  0.8370 -0.7173 -0.3714
  714MOL0     H98521   9.494   8.281   9.333  0.8659  0.5471 -0.0088
  714MOL0     H98522   9.259   8.352   9.294 -0.3894  0.0243 -0.4753
  714MOL0     H98523   9.305   8.445   9.156 -0.0346 -1.1562 -1.1069
  714MOL0     H98524   9.423   8.491   9.431  1.4382  2.5746 -0.6405
  714MOL0     H98525   9.432   8.613   9.310 -0.5237 -0.0945 -1.5326
  714MOL0     H98526   9.266   8.605   9.518  2.6902 -1.8273 -0.5330
  714MOL0     H98527   9.152   8.520   9.434 -3.3139  3.6004  0.3301
  714MOL0     H98528   9.099   8.878   9.229 -0.9142  0.3819  1.5579
  714MOL0     H98529   9.773   8.571   9.161  0.8350  0.5243  3.2269
  714MOL0     H98530   9.967   8.615   9.074  1.4185  0.3832 -1.2306
  714MOL0     H98531  10.087   8.586   9.208 -1.0685 -1.1466  2.2089
  714MOL0     H98532  10.107   8.506   9.051  0.7690 -1.0592  3.0767
  715MOL0     O98533   6.687   3.171   1.646  0.9936 -0.1371  0.0016
  715MOL0     C98534   6.690   3.279   1.582 -1.1914  0.0569  0.1924
  715MOL0     O98535   6.619   3.385   1.613 -0.2162  0.4198  0.1912
  715MOL0     C98536   6.499   3.356   1.665 -0.3553 -0.1353 -0.4646
  715MOL0     C98537   6.399   3.297   1.587 -0.0656  0.6836 -0.7652
  715MOL0     C98538   6.277   3.252   1.648  0.4523 -0.5556  0.6034
  715MOL0     C98539   6.254   3.262   1.781  0.1581  0.1973  0.1161
  715MOL0     O98540   6.142   3.226   1.845  0.4048  0.2082  0.0449
  715MOL0     C98541   6.047   3.141   1.773  0.0635  0.6272  0.1113
  715MOL0     C98542   5.931   3.091   1.865  0.7447 -1.1496 -0.6751
  715MOL0     C98543   5.980   3.036   1.995 -0.3456  0.3027 -0.1333
  715MOL0     C98544   5.874   2.952   2.062  0.6853  0.0065 -0.9905
  715MOL0     C98545   5.898   2.931   2.209 -0.0203 -0.8378  0.6204
  715MOL0     C98546   6.029   2.870   2.250 -0.1288  0.6143  0.0979
  715MOL0     C98547   6.028   2.833   2.401 -0.2150  0.3734 -0.6420
  715MOL0     C98548   6.151   2.755   2.427  0.0190 -0.7940  0.2989
  715MOL0     N98549   6.274   2.827   2.393  0.0249  0.5993  0.0859
  715MOL0     C98550   6.313   2.949   2.436  0.3912  0.1300 -0.6770
  715MOL0     C98551   6.446   2.958   2.432 -0.1225 -0.4027  0.1311
  715MOL0     C98552   6.539   3.071   2.451 -0.1973 -0.0590 -0.6676
  715MOL0     C98553   6.661   3.045   2.546  0.7595 -0.3453 -1.4502
  715MOL0     C98554   6.715   3.181   2.601  0.1465  0.2481  0.2090
  715MOL0     C98555   6.830   3.174   2.702  0.2447 -0.5836  0.2177
  715MOL0     O98556   6.840   3.306   2.765 -0.0370  0.0509  0.3159
  715MOL0     C98557   6.966   3.337   2.820  0.3490 -0.3516 -0.7017
  715MOL0     C98558   7.034   3.441   2.769  0.3983 -0.0994  0.6397
  715MOL0     C98559   7.157   3.475   2.830 -0.3858 -1.1374 -0.2002
  715MOL0     C98560   7.236   3.591   2.766 -0.2947 -0.7000  0.3360
  715MOL0     C98561   7.213   3.396   2.939  0.1084 -0.7166  0.3368
  715MOL0     C98562   7.335   3.427   3.017  0.2205  0.1050  0.1053
  715MOL0     O98563   7.413   3.533   2.967 -0.3156 -0.1258 -0.7350
  715MOL0     C98564   7.533   3.551   3.032 -0.4033 -0.2894 -0.7806
  715MOL0     C98565   7.558   3.563   3.173  0.2399 -1.1450  0.0925
  715MOL0     C98566   7.680   3.593   3.228 -0.4309  0.1629 -0.0582
  715MOL0     C98567   7.795   3.603   3.141  0.1705  0.0247 -0.6082
  715MOL0     O98568   7.922   3.624   3.192 -0.0167  0.7103  0.7852
  715MOL0     C98569   8.030   3.634   3.094  0.8123  0.7218  0.2222
  715MOL0     C98570   8.088   3.503   3.037 -0.4502  0.4210  0.3126
  715MOL0     C98571   8.169   3.419   3.135  0.4445 -0.2305  0.1724
  715MOL0     C98572   8.212   3.291   3.075 -0.0440 -0.4610  0.5557
  715MOL0     C98573   8.101   3.192   3.085 -0.6502 -0.1583  0.6185
  715MOL0     C98574   8.157   3.057   3.037 -0.8277 -0.4053  0.0715
  715MOL0     C98575   8.059   2.965   2.959  0.0304  0.1334  0.1325
  715MOL0     C98576   8.111   2.819   2.946  0.1035 -0.5480 -0.1327
  715MOL0    Cl98577   8.253   2.793   2.840 -0.3542  0.3270 -0.1653
  715MOL0     C98578   7.767   3.584   2.996 -0.0880 -0.1650  0.4929
  715MOL0     C98579   7.644   3.569   2.944  0.3856 -0.0987 -0.4914
  715MOL0     O98580   7.366   3.356   3.111 -0.1889 -0.0456  0.4417
  715MOL0     C98581   7.141   3.286   2.980  0.3829  0.0040 -0.2133
  715MOL0     C98582   7.010   3.264   2.927  0.3487 -0.0693  0.1871
  715MOL0     N98583   6.487   2.844   2.368  0.0340 -0.3989 -0.0178
  715MOL0     N98584   6.389   2.763   2.351 -0.0147  0.3201 -0.0964
  715MOL0     C98585   6.352   3.311   1.854  0.0282  0.2677 -0.5959
  715MOL0     C98586   6.477   3.359   1.797  0.4926 -0.5746 -0.5539
  715MOL0     C98587   6.799   3.287   1.471 -0.2997 -0.1928 -0.6453
  715MOL0     C98588   6.893   3.188   1.458 -0.1569  0.1245  0.4406
  715MOL0     C98589   6.997   3.192   1.369  0.5048 -0.1776  0.3009
  715MOL0     C98590   7.013   3.300   1.290  0.2195  0.1143  0.2919
  715MOL0     O98591   7.117   3.280   1.199 -0.6988  0.3458  0.2053
  715MOL0     C98592   7.183   3.386   1.138 -0.1805 -0.2407  0.0139
  715MOL0     C98593   7.309   3.335   1.063 -0.8127  0.1069  0.6597
  715MOL0     C98594   7.399   3.277   1.175 -0.5372  0.3715 -0.9692
  715MOL0     C98595   7.529   3.217   1.111  0.1932 -0.4045 -0.4645
  715MOL0     C98596   7.602   3.309   1.027 -0.0483  0.5360  0.0624
  715MOL0     C98597   7.664   3.376   0.951  0.0642  0.2255  0.0412
  715MOL0     C98598   6.931   3.414   1.305 -0.6276 -0.4317  0.5155
  715MOL0     C98599   6.825   3.409   1.395  0.1046  0.4252 -0.3948
  715MOL0     C98600   6.745   3.533   1.419 -0.9205 -0.0590 -0.4921
  715MOL0     H98601   6.415   3.290   1.480  1.9320 -0.0628 -0.4529
  715MOL0     H98602   6.199   3.206   1.587 -1.4211 -1.6411  3.6032
  715MOL0     H98603   6.098   3.058   1.723  0.1909  1.8015 -1.8274
  715MOL0     H98604   5.992   3.200   1.699 -0.5799 -0.2351 -0.1127
  715MOL0     H98605   5.871   3.180   1.885  2.0920 -0.6827  1.6030
  715MOL0     H98606   5.862   3.023   1.813  0.0007 -1.5232  0.7507
  715MOL0     H98607   6.075   2.983   1.983  1.5389  3.7002 -1.8027
  715MOL0     H98608   6.006   3.116   2.065 -3.3670  2.5223 -1.3280
  715MOL0     H98609   5.772   2.990   2.053 -0.5314 -1.7793  2.9105
  715MOL0     H98610   5.871   2.851   2.021 -0.2618  0.3122 -1.6969
  715MOL0     H98611   5.812   2.870   2.237 -1.5942  0.8061 -0.4105
  715MOL0     H98612   5.905   3.022   2.270  1.9653 -0.4041 -0.1938
  715MOL0     H98613   6.038   2.779   2.190 -1.6100  0.3741  0.1988
  715MOL0     H98614   6.108   2.942   2.231 -0.8641  1.7652  1.2568
  715MOL0     H98615   5.941   2.770   2.420  1.2237 -3.3893 -4.7814
  715MOL0     H98616   6.030   2.916   2.472  0.4985 -0.8504  0.8276
  715MOL0     H98617   6.152   2.715   2.529  1.4175 -1.3234  0.0973
  715MOL0     H98618   6.143   2.664   2.367 -1.6553 -0.0641 -0.6637
  715MOL0     H98619   6.244   3.021   2.479 -0.0819 -0.6397 -0.0979
  715MOL0     H98620   6.488   3.148   2.509  0.7202 -0.2190  0.3976
  715MOL0     H98621   6.582   3.107   2.357  0.8331  1.9106  0.4899
  715MOL0     H98622   6.631   2.975   2.624 -0.6591 -0.9910 -2.5381
  715MOL0     H98623   6.743   2.999   2.489  1.6455 -0.1310 -0.3731
  715MOL0     H98624   6.748   3.256   2.528  2.8962 -0.3738  0.7210
  715MOL0     H98625   6.629   3.227   2.652 -0.6185 -1.0814  0.1469
  715MOL0     H98626   6.806   3.098   2.777  1.3358  0.0250  1.2098
  715MOL0     H98627   6.918   3.147   2.642  0.3326 -0.9716  0.5142
  715MOL0     H98628   6.994   3.506   2.691 -2.5187 -0.8756  1.3558
  715MOL0     H98629   7.213   3.683   2.819  1.0453  0.3554 -0.8232
  715MOL0     H98630   7.213   3.595   2.659 -1.9617 -3.7920  0.4631
  715MOL0     H98631   7.344   3.572   2.769 -0.0022  1.0336  2.3739
  715MOL0     H98632   7.468   3.556   3.232 -0.4935 -1.5426 -1.0464
  715MOL0     H98633   7.688   3.606   3.335 -0.8300  1.4904 -0.1810
  715MOL0     H98634   7.994   3.703   3.017  1.0091 -0.6916 -1.1872
  715MOL0     H98635   8.107   3.691   3.146 -0.7403  1.0638  2.2676
  715MOL0     H98636   8.011   3.440   2.990  1.6986 -0.7671 -1.8189
  715MOL0     H98637   8.159   3.528   2.958  2.7530  2.1071  3.4463
  715MOL0     H98638   8.106   3.401   3.223  0.2571  0.6521  0.2251
  715MOL0     H98639   8.260   3.477   3.154 -0.4802  1.3913 -0.1737
  715MOL0     H98640   8.296   3.256   3.136 -0.6297 -0.2441  1.5134
  715MOL0     H98641   8.233   3.307   2.969 -1.7193  2.7691  0.5882
  715MOL0     H98642   8.063   3.176   3.187 -0.9995  2.9122  1.0718
  715MOL0     H98643   8.021   3.221   3.017  0.7922  0.1234 -1.0348
  715MOL0     H98644   8.178   3.005   3.131  0.7046  0.8266  0.4401
  715MOL0     H98645   8.242   3.068   2.969 -0.7040 -1.0566  0.1186
  715MOL0     H98646   8.029   3.001   2.860 -2.0011  1.0400  1.0108
  715MOL0     H98647   7.963   2.948   3.009 -0.0848 -2.1001 -0.7252
  715MOL0     H98648   8.024   2.765   2.906 -1.9963  3.1499 -1.0215
  715MOL0     H98649   8.129   2.784   3.048 -0.1197  3.4348  1.4517
  715MOL0     H98650   7.846   3.593   2.921 -1.5860 -0.0152 -1.1255
  715MOL0     H98651   7.641   3.551   2.837  1.4227 -3.9422 -0.0264
  715MOL0     H98652   7.168   3.215   3.058 -0.7913  0.1957  0.3902
  715MOL0     H98653   6.951   3.176   2.948 -0.8683  0.0467 -2.3229
  715MOL0     H98654   6.359   3.311   1.962 -0.6906  3.4442 -0.4637
  715MOL0     H98655   6.561   3.397   1.853  1.1279  0.4109 -2.1099
  715MOL0     H98656   6.889   3.088   1.499  3.0083 -0.7292 -1.0724
  715MOL0     H98657   7.059   3.102   1.365 -0.1925 -0.6971  0.8476
  715MOL0     H98658   7.114   3.442   1.073 -1.6048 -0.2996  1.4295
  715MOL0     H98659   7.219   3.450   1.218  2.4135 -0.3648 -0.9428
  715MOL0     H98660   7.354   3.423   1.015 -1.6354 -0.3776 -1.0787
  715MOL0     H98661   7.284   3.260   0.988 -0.2304  0.4261  0.1310
  715MOL0     H98662   7.420   3.346   1.257  4.6170 -1.4360 -0.3652
  715MOL0     H98663   7.345   3.192   1.217  0.6214 -1.5380 -3.0914
  715MOL0     H98664   7.503   3.125   1.059 -1.0398  0.1912 -0.9449
  715MOL0     H98665   7.605   3.181   1.182  1.0490 -2.2838 -2.2449
  715MOL0     H98666   7.713   3.431   0.873 -1.2823 -2.0656 -2.6028
  715MOL0     H98667   6.937   3.509   1.252  1.5421 -0.6695  0.2383
  715MOL0     H98668   6.762   3.579   1.517 -0.5192 -0.4422 -0.3797
  715MOL0     H98669   6.754   3.609   1.341 -4.3800  1.2636  0.2033
  715MOL0     H98670   6.639   3.508   1.409 -0.7265 -0.2937 -2.3536
  716MOL0     O98671   3.417   0.395   8.350  0.6120 -0.3213  0.4847
  716MOL0     C98672   3.490   0.309   8.301  0.1013 -0.5057  0.3723
  716MOL0     O98673   3.631   0.301   8.297 -0.1948  0.1798 -0.1009
  716MOL0     C98674   3.697   0.417   8.321 -0.1737  0.0215  0.3908
  716MOL0     C98675   3.724   0.505   8.213 -0.6384  0.5842  0.5363
  716MOL0     C98676   3.806   0.613   8.231 -0.7041  0.2477 -0.0080
  716MOL0     C98677   3.850   0.655   8.354 -0.3127  0.7932  1.5687
  716MOL0     O98678   3.927   0.770   8.353 -0.0747  0.3537  0.2651
  716MOL0     C98679   4.047   0.752   8.437  0.2644  0.2277  0.4747
  716MOL0     C98680   4.154   0.861   8.402 -0.0325  0.0971 -0.0373
  716MOL0     C98681   4.259   0.887   8.504 -0.6144  0.2006  0.4218
  716MOL0     C98682   4.381   0.784   8.472 -0.0471 -0.3934 -0.1376
  716MOL0     C98683   4.505   0.829   8.547 -0.7385 -0.0375 -0.3296
  716MOL0     C98684   4.587   0.938   8.476  0.1883  1.1095  0.1777
  716MOL0     C98685   4.714   0.960   8.563  0.0477  0.3201 -0.0058
  716MOL0     C98686   4.826   1.025   8.476 -0.2085 -0.3399  0.7149
  716MOL0     N98687   4.929   1.075   8.572 -0.2340 -0.3441  0.3547
  716MOL0     C98688   4.999   0.992   8.648 -0.1627 -0.2238  0.3075
  716MOL0     C98689   5.067   1.076   8.734  1.1347  0.2206  0.4662
  716MOL0     C98690   5.180   1.039   8.824 -1.0343 -1.1867  0.4194
  716MOL0     C98691   5.307   1.101   8.768  0.1325  0.0815 -0.0194
  716MOL0     C98692   5.320   1.248   8.814  0.0047  0.2440  0.3767
  716MOL0     C98693   5.441   1.331   8.767  0.1648  0.3064  0.3577
  716MOL0     O98694   5.571   1.273   8.796 -0.3187 -0.3790  0.1130
  716MOL0     C98695   5.687   1.347   8.770 -0.2351 -0.1042  0.6256
  716MOL0     C98696   5.705   1.483   8.745  0.2714 -0.3217 -0.2372
  716MOL0     C98697   5.833   1.547   8.734  0.3421 -0.0823 -0.3184
  716MOL0     C98698   5.843   1.694   8.707  0.7416 -0.2128  0.0800
  716MOL0     C98699   5.953   1.465   8.735  0.5556 -0.0643 -0.5476
  716MOL0     C98700   6.098   1.506   8.719  0.8542 -0.3768 -0.4774
  716MOL0     O98701   6.121   1.638   8.721 -1.3934 -0.2560  0.0897
  716MOL0     C98702   6.249   1.672   8.679  0.2056  0.8412 -0.9028
  716MOL0     C98703   6.336   1.757   8.749 -0.5238 -1.2545 -0.8395
  716MOL0     C98704   6.466   1.788   8.701  0.0419 -0.3327 -0.8155
  716MOL0     C98705   6.507   1.745   8.579 -0.1523  0.8006  0.3589
  716MOL0     O98706   6.624   1.780   8.519  0.3488  0.8436 -0.3156
  716MOL0     C98707   6.722   1.776   8.621 -0.3496  0.3507  0.2553
  716MOL0     C98708   6.853   1.794   8.547 -0.3693 -0.6339  0.0848
  716MOL0     C98709   6.976   1.794   8.633 -0.2373 -0.3479 -0.6383
  716MOL0     C98710   7.103   1.780   8.548  0.1289  0.3747  0.7777
  716MOL0     C98711   7.232   1.799   8.616 -0.2475 -0.0970  0.1422
  716MOL0     C98712   7.347   1.797   8.517 -0.8618  0.0474 -0.5062
  716MOL0     C98713   7.478   1.806   8.600  0.3124  0.0789 -1.5213
  716MOL0     C98714   7.595   1.855   8.511  0.0396 -0.3684 -0.4417
  716MOL0    Cl98715   7.606   1.752   8.373  0.0084 -0.0482  0.4082
  716MOL0     C98716   6.410   1.691   8.497 -0.5519  0.2665  0.5139
  716MOL0     C98717   6.293   1.643   8.548 -0.6201  0.3142  0.6371
  716MOL0     O98718   6.184   1.417   8.713  0.7505  0.2844  0.7992
  716MOL0     C98719   5.931   1.326   8.756 -0.1092 -0.4754 -0.0093
  716MOL0     C98720   5.801   1.271   8.774 -0.2247 -0.0066 -0.0163
  716MOL0     N98721   5.023   1.202   8.702 -0.8459 -0.0067 -0.1725
  716MOL0     N98722   4.954   1.201   8.598  0.3477 -0.5390  0.4342
  716MOL0     C98723   3.823   0.566   8.460  0.4673  0.1565 -0.1585
  716MOL0     C98724   3.749   0.447   8.444 -0.6556  0.3818 -0.4101
  716MOL0     C98725   3.427   0.194   8.245  0.0121 -0.0316 -0.2289
  716MOL0     C98726   3.472   0.132   8.133 -0.1114  0.2563  0.3350
  716MOL0     C98727   3.435   0.009   8.096  0.5460 -0.8677 -0.4215
  716MOL0     C98728   3.331  -0.059   8.160 -0.1980  1.3067 -0.2609
  716MOL0     O98729   3.290  -0.192   8.125  0.4076  0.1744  0.3542
  716MOL0     C98730   3.210  -0.273   8.219  0.3723  0.1986 -0.2457
  716MOL0     C98731   3.161  -0.390   8.148  0.1039  0.5835  0.4850
  716MOL0     C98732   3.270  -0.486   8.108 -0.9977 -0.0514  0.0902
  716MOL0     C98733   3.188  -0.616   8.063  0.2640 -0.0584  0.7189
  716MOL0     C98734   3.142  -0.694   8.178 -0.7495  0.2898 -0.0620
  716MOL0     C98735   3.103  -0.765   8.263 -0.1365  0.5310 -0.5184
  716MOL0     C98736   3.270   0.011   8.270  0.0126 -0.0193 -0.7827
  716MOL0     C98737   3.321   0.126   8.322 -0.3267  0.5272  0.0060
  716MOL0     C98738   3.278   0.166   8.460  0.0623  0.0054  0.4570
  716MOL0     H98739   3.691   0.478   8.113  2.2296  1.3866 -0.7393
  716MOL0     H98740   3.827   0.675   8.144  0.0729  0.3652  0.2518
  716MOL0     H98741   4.091   0.652   8.428 -3.2341 -1.2469 -2.9432
  716MOL0     H98742   4.008   0.761   8.539 -1.1881  2.0574 -0.1821
  716MOL0     H98743   4.200   0.838   8.306 -1.1123 -1.0226 -0.3076
  716MOL0     H98744   4.105   0.958   8.388  2.3003  1.2340 -0.9312
  716MOL0     H98745   4.291   0.991   8.501 -1.5481  0.5814  2.1865
  716MOL0     H98746   4.225   0.862   8.605 -0.7476 -1.4212  0.0083
  716MOL0     H98747   4.358   0.684   8.511 -0.0144 -0.4546 -0.2747
  716MOL0     H98748   4.403   0.781   8.365  0.0354 -0.2355 -0.1242
  716MOL0     H98749   4.570   0.741   8.554 -0.5595 -0.2070 -3.1496
  716MOL0     H98750   4.478   0.852   8.651  1.5803 -3.0621  1.1030
  716MOL0     H98751   4.613   0.908   8.375 -1.1698  2.0230 -0.4781
  716MOL0     H98752   4.531   1.032   8.467  1.9057  2.0980 -0.6462
  716MOL0     H98753   4.764   0.871   8.603 -0.0267  0.5690  0.6674
  716MOL0     H98754   4.683   1.026   8.645  0.3809 -0.2026  0.5515
  716MOL0     H98755   4.875   0.949   8.414 -0.1750  0.3465 -0.1178
  716MOL0     H98756   4.782   1.108   8.419  0.3289 -1.3534 -1.2815
  716MOL0     H98757   5.007   0.884   8.640  0.6152 -0.1678  0.2383
  716MOL0     H98758   5.201   0.933   8.809 -0.5389 -0.9080 -1.0617
  716MOL0     H98759   5.166   1.062   8.930 -0.6873  1.8755 -0.0980
  716MOL0     H98760   5.382   1.040   8.819  0.2883  1.3847  1.4063
  716MOL0     H98761   5.295   1.094   8.660  2.1834  1.1543 -0.3723
  716MOL0     H98762   5.225   1.297   8.790 -0.0740 -1.5817 -3.8762
  716MOL0     H98763   5.332   1.248   8.923 -0.5951 -0.2329  0.4491
  716MOL0     H98764   5.429   1.339   8.659 -0.5985 -0.0923  0.4103
  716MOL0     H98765   5.427   1.432   8.808 -4.8845 -1.0458  2.8020
  716MOL0     H98766   5.616   1.545   8.734  0.0279 -0.4641  0.8486
  716MOL0     H98767   5.925   1.736   8.649  0.0749  2.1513  0.7598
  716MOL0     H98768   5.846   1.748   8.802 -1.8947 -0.8114  0.5854
  716MOL0     H98769   5.750   1.728   8.660  0.6480 -0.8482 -0.2019
  716MOL0     H98770   6.302   1.794   8.846  1.3663 -1.5890 -0.0047
  716MOL0     H98771   6.524   1.849   8.769  0.4477 -1.5861  0.0074
  716MOL0     H98772   6.719   1.866   8.682  0.1521  2.9146 -3.1771
  716MOL0     H98773   6.730   1.686   8.682 -0.7133  2.1021  3.0513
  716MOL0     H98774   6.870   1.710   8.479  1.0278 -0.8962  0.7131
  716MOL0     H98775   6.839   1.886   8.490  1.9553 -2.3789 -3.6511
  716MOL0     H98776   6.976   1.723   8.716 -0.1465  0.6529  0.2430
  716MOL0     H98777   6.974   1.892   8.682  0.7332  0.5961 -2.3942
  716MOL0     H98778   7.087   1.859   8.475  0.6576  1.2069  1.5312
  716MOL0     H98779   7.104   1.679   8.505  0.5784  0.9340 -0.5564
  716MOL0     H98780   7.238   1.893   8.672 -1.5230 -0.4007  0.8419
  716MOL0     H98781   7.256   1.723   8.690  0.2960  1.0500  1.1791
  716MOL0     H98782   7.355   1.873   8.439  3.3110 -0.7649 -1.1442
  716MOL0     H98783   7.344   1.704   8.459  1.2445 -0.4117  0.0111
  716MOL0     H98784   7.503   1.715   8.654 -2.4514  0.7291  1.1028
  716MOL0     H98785   7.462   1.877   8.681 -3.8934 -3.1678  0.8749
  716MOL0     H98786   7.690   1.848   8.565 -0.2364 -2.1564 -0.1078
  716MOL0     H98787   7.577   1.958   8.482 -2.7019 -0.6428  0.0074
  716MOL0     H98788   6.426   1.692   8.389 -1.4249  0.6286  0.3801
  716MOL0     H98789   6.221   1.596   8.482 -0.7377  2.1179 -0.5659
  716MOL0     H98790   6.018   1.261   8.758  3.5222  3.8076 -1.0737
  716MOL0     H98791   5.786   1.165   8.794  0.4331 -0.0909  0.0481
  716MOL0     H98792   3.862   0.595   8.557 -0.2045  0.0360  0.1576
  716MOL0     H98793   3.735   0.385   8.532  1.4213  0.4943  0.0567
  716MOL0     H98794   3.554   0.177   8.078 -0.1594  0.8773  0.7615
  716MOL0     H98795   3.494  -0.038   8.018  0.7219 -2.5411  0.6827
  716MOL0     H98796   3.283  -0.298   8.296  0.7225  1.2297 -0.2235
  716MOL0     H98797   3.125  -0.216   8.258 -0.0597  0.6094 -1.7205
  716MOL0     H98798   3.103  -0.364   8.060  0.2182 -1.6704 -0.3377
  716MOL0     H98799   3.093  -0.439   8.219 -1.2464  2.6794  0.7061
  716MOL0     H98800   3.340  -0.459   8.029  2.0076  0.2158  2.6289
  716MOL0     H98801   3.330  -0.519   8.193  0.1444 -2.7886 -1.6524
  716MOL0     H98802   3.253  -0.681   8.004 -1.0928 -0.8227  0.0067
  716MOL0     H98803   3.096  -0.596   8.006  0.8389 -0.0134 -0.2049
  716MOL0     H98804   3.071  -0.835   8.338  0.6097 -0.3792 -1.0191
  716MOL0     H98805   3.192  -0.037   8.328  1.1342 -1.9751 -0.8049
  716MOL0     H98806   3.184   0.114   8.482 -0.3675 -0.8584 -2.9223
  716MOL0     H98807   3.362   0.146   8.528  2.9180  0.1070 -2.7691
  716MOL0     H98808   3.257   0.273   8.463  0.3318  0.1053 -0.8814
  717MOL0     O98809   9.284   5.585   8.149 -0.0665 -0.5048  0.5063
  717MOL0     C98810   9.248   5.607   8.032  1.2272  0.5475 -0.9639
  717MOL0     O98811   9.328   5.652   7.931 -0.5659  0.3608 -0.3331
  717MOL0     C98812   9.446   5.706   7.967  0.4174 -0.2459  0.1728
  717MOL0     C98813   9.568   5.653   7.907  0.0688  0.5972 -0.4311
  717MOL0     C98814   9.681   5.728   7.916 -0.4588  0.3405 -0.5797
  717MOL0     C98815   9.690   5.848   7.984  0.9129 -1.1385  0.0954
  717MOL0     O98816   9.809   5.920   7.984 -0.6364  0.9764 -0.5011
  717MOL0     C98817   9.871   5.936   8.117 -0.0396  0.5000  0.0089
  717MOL0     C98818   9.981   6.040   8.104 -0.1146  0.0489 -0.2829
  717MOL0     C98819  10.107   6.010   8.012  0.6909  0.2509  0.3524
  717MOL0     C98820  10.201   5.941   8.104 -0.1953 -0.1304 -0.4539
  717MOL0     C98821  10.296   5.852   8.025  0.2116 -0.0340 -0.8488
  717MOL0     C98822  10.364   5.760   8.124 -0.4248  0.2437  0.4193
  717MOL0     C98823  10.480   5.694   8.055 -0.2296  0.7433  0.0462
  717MOL0     C98824  10.556   5.601   8.146  0.1436 -0.9396  0.3136
  717MOL0     N98825  10.677   5.540   8.087 -0.0357  0.2713  0.1155
  717MOL0     C98826  10.791   5.612   8.056  0.2737 -0.1048 -0.5072
  717MOL0     C98827  10.879   5.521   8.002  0.7993  0.4929  0.1620
  717MOL0     C98828  11.008   5.545   7.935  0.3069 -0.0962 -0.1106
  717MOL0     C98829  11.122   5.540   8.036 -0.4012 -0.3402  0.1680
  717MOL0     C98830  11.139   5.409   8.116 -0.5220  0.3483  0.6433
  717MOL0     C98831  11.230   5.413   8.233 -0.3675  0.5656 -0.0848
  717MOL0     O98832  11.222   5.283   8.295 -0.0863  0.6874 -0.3701
  717MOL0     C98833  11.326   5.235   8.366 -0.2562 -0.1960 -0.3981
  717MOL0     C98834  11.409   5.314   8.444  0.1430 -0.5758 -0.2147
  717MOL0     C98835  11.510   5.262   8.525 -0.6423  0.1034  0.4440
  717MOL0     C98836  11.585   5.357   8.614 -0.1170  0.6979 -0.1391
  717MOL0     C98837  11.520   5.122   8.529 -0.4166 -0.1888  0.1130
  717MOL0     C98838  11.610   5.045   8.627  0.0467  0.8604 -0.0339
  717MOL0     O98839  11.587   4.913   8.645 -0.0343  0.5136 -0.1549
  717MOL0     C98840  11.666   4.841   8.746 -0.8457 -1.1315  0.2021
  717MOL0     C98841  11.812   4.857   8.764 -0.0523  0.1554 -0.8456
  717MOL0     C98842  11.879   4.780   8.863 -0.2617 -0.3822 -0.5286
  717MOL0     C98843  11.807   4.681   8.927  0.5045  0.4317 -0.3632
  717MOL0     O98844  11.863   4.580   9.010 -0.0272 -0.8103 -0.5533
  717MOL0     C98845  11.991   4.611   9.077 -0.1500 -1.0382  0.4083
  717MOL0     C98846  12.118   4.560   9.009 -0.7075  0.4645  0.2525
  717MOL0     C98847  12.248   4.596   9.064 -0.8729 -0.2685 -0.4663
  717MOL0     C98848  12.295   4.735   9.032  0.2332  0.6220  0.4451
  717MOL0     C98849  12.414   4.771   9.113  0.4773  0.4110  0.0239
  717MOL0     C98850  12.473   4.912   9.110  0.2193  0.6037  0.0449
  717MOL0     C98851  12.389   5.016   9.181 -1.4624 -0.6477 -0.2396
  717MOL0     C98852  12.435   5.159   9.158 -0.3061  0.5427  0.3274
  717MOL0    Cl98853  12.606   5.182   9.184 -0.0982 -0.2499 -0.3240
  717MOL0     C98854  11.664   4.668   8.910  0.7336 -0.4691  0.0091
  717MOL0     C98855  11.599   4.751   8.818  0.4238 -0.3191 -0.1082
  717MOL0     O98856  11.696   5.108   8.685 -0.9616  0.6254 -0.4519
  717MOL0     C98857  11.450   5.039   8.439 -0.3389 -0.5050 -0.3104
  717MOL0     C98858  11.349   5.100   8.355 -0.1056  0.6196  0.6452
  717MOL0     N98859  10.819   5.396   8.021 -0.6797  0.2316  1.0015
  717MOL0     N98860  10.702   5.408   8.060  0.4462  0.4094 -1.0264
  717MOL0     C98861   9.572   5.900   8.050 -0.7379  0.0436  0.1479
  717MOL0     C98862   9.450   5.831   8.035 -0.0014  0.2104 -0.1160
  717MOL0     C98863   9.108   5.571   8.001  0.1642 -0.7080  0.2915
  717MOL0     C98864   9.049   5.620   7.883  0.0778  0.2369  0.2221
  717MOL0     C98865   8.924   5.589   7.826  0.3756 -0.0345 -0.6652
  717MOL0     C98866   8.848   5.492   7.886 -0.2998  0.0719 -0.4451
  717MOL0     O98867   8.732   5.447   7.830 -0.2050 -0.0409 -0.6083
  717MOL0     C98868   8.619   5.483   7.910  0.6474 -0.1063 -0.5249
  717MOL0     C98869   8.582   5.622   7.877 -0.0822 -0.5849  0.5310
  717MOL0     C98870   8.463   5.682   7.955 -0.0027  0.5659 -0.3276
  717MOL0     C98871   8.352   5.579   7.980 -1.0508  0.4535 -0.1121
  717MOL0     C98872   8.232   5.636   8.049  0.0271  0.6627  0.4373
  717MOL0     C98873   8.141   5.682   8.114 -0.1270  0.1685 -0.1756
  717MOL0     C98874   8.906   5.428   8.006  0.8922 -0.6599 -0.4397
  717MOL0     C98875   9.032   5.464   8.060 -0.4937  0.3477 -0.1050
  717MOL0     C98876   9.078   5.379   8.176 -0.3360 -0.7406  0.3757
  717MOL0     H98877   9.556   5.567   7.842  1.0870 -0.6753  1.0037
  717MOL0     H98878   9.769   5.694   7.862  1.8624  0.8928  2.5405
  717MOL0     H98879   9.922   5.843   8.143 -1.8742 -0.5643  0.0185
  717MOL0     H98880   9.806   5.968   8.200  0.2646 -0.0413  0.4645
  717MOL0     H98881   9.923   6.127   8.073 -0.3297  0.3171  0.8319
  717MOL0     H98882  10.004   6.065   8.208 -0.0819 -0.4654 -0.1593
  717MOL0     H98883  10.080   5.932   7.941  1.4642  0.4467 -0.1776
  717MOL0     H98884  10.151   6.095   7.958  0.1955  0.6115  0.5086
  717MOL0     H98885  10.255   6.009   8.170  2.3301 -0.1115 -2.3981
  717MOL0     H98886  10.142   5.879   8.172  0.5124  2.3749  2.6649
  717MOL0     H98887  10.368   5.916   7.973  0.3410  0.4764 -0.0712
  717MOL0     H98888  10.244   5.794   7.948  0.6992 -1.4165 -0.1581
  717MOL0     H98889  10.406   5.819   8.206  1.1296 -0.7865  0.3986
  717MOL0     H98890  10.303   5.677   8.160  1.8340 -1.4277  0.6491
  717MOL0     H98891  10.546   5.776   8.025  0.1422  0.8337  1.0655
  717MOL0     H98892  10.448   5.643   7.963 -1.1060 -1.4337  1.4786
  717MOL0     H98893  10.588   5.665   8.229  2.9857 -0.4193 -1.0496
  717MOL0     H98894  10.475   5.531   8.171 -1.0870  1.1240  2.5814
  717MOL0     H98895  10.801   5.719   8.072  1.5129 -0.3587  0.6136
  717MOL0     H98896  11.008   5.646   7.891  1.0206  0.0909  0.2974
  717MOL0     H98897  11.015   5.473   7.854 -0.6365 -2.6221  1.9057
  717MOL0     H98898  11.219   5.559   7.991  0.5149 -0.4093  2.0291
  717MOL0     H98899  11.122   5.631   8.097 -3.1646  1.7616 -2.6221
  717MOL0     H98900  11.040   5.378   8.151 -0.7345  0.6356  0.3047
  717MOL0     H98901  11.183   5.336   8.048  3.1390  0.9487  2.1664
  717MOL0     H98902  11.338   5.427   8.224  1.4559 -5.6488  4.7714
  717MOL0     H98903  11.187   5.487   8.301  0.7740  3.9551 -2.7783
  717MOL0     H98904  11.373   5.415   8.458 -2.5386 -1.5410  0.5003
  717MOL0     H98905  11.557   5.341   8.718 -0.6070  0.4789 -0.3024
  717MOL0     H98906  11.572   5.462   8.586 -0.8873  0.7682  0.4538
  717MOL0     H98907  11.691   5.330   8.610 -0.4823 -1.9825  3.3731
  717MOL0     H98908  11.865   4.920   8.693  1.4603 -1.2318 -1.0088
  717MOL0     H98909  11.983   4.802   8.883 -0.8224  5.1640 -2.0504
  717MOL0     H98910  11.998   4.720   9.082 -2.0110 -0.8244 -0.6723
  717MOL0     H98911  11.978   4.566   9.176 -4.7128  1.2193  1.0885
  717MOL0     H98912  12.112   4.451   9.013 -0.1983  0.4614  1.6097
  717MOL0     H98913  12.122   4.580   8.902 -0.8059  0.5508  0.2646
  717MOL0     H98914  12.314   4.523   9.015 -0.0431 -0.1932  0.4939
  717MOL0     H98915  12.258   4.577   9.171  1.2336  2.6839 -0.0029
  717MOL0     H98916  12.224   4.810   9.071  0.6495  1.1358  0.2278
  717MOL0     H98917  12.310   4.753   8.925  0.3086  2.0939  0.6733
  717MOL0     H98918  12.404   4.746   9.219  0.9567 -0.6611 -0.1691
  717MOL0     H98919  12.493   4.707   9.073  1.0263  1.8418 -1.3164
  717MOL0     H98920  12.483   4.925   9.001 -1.7264 -1.8749 -0.5234
  717MOL0     H98921  12.578   4.924   9.138  1.0930  0.8559 -2.9224
  717MOL0     H98922  12.403   5.001   9.288  1.5627  1.9621 -0.1310
  717MOL0     H98923  12.283   5.020   9.154 -1.6081 -0.3368  0.3669
  717MOL0     H98924  12.380   5.235   9.214 -0.5403  1.4935 -1.1362
  717MOL0     H98925  12.409   5.186   9.055  1.6846 -0.6443 -0.5560
  717MOL0     H98926  11.629   4.588   8.974  1.8087 -1.1762 -0.2642
  717MOL0     H98927  11.492   4.741   8.810  0.1762 -0.5302  2.7060
  717MOL0     H98928  11.455   4.931   8.427  0.3394 -0.2877 -2.4413
  717MOL0     H98929  11.285   5.042   8.290  1.9262  0.0098 -0.9451
  717MOL0     H98930   9.578   6.000   8.092 -1.3607  0.9763 -1.8674
  717MOL0     H98931   9.355   5.877   8.063 -1.7345 -0.7357 -3.7468
  717MOL0     H98932   9.104   5.693   7.825 -1.6978  2.7058  1.4795
  717MOL0     H98933   8.887   5.635   7.735  0.3471  0.5442 -0.3657
  717MOL0     H98934   8.535   5.420   7.881  1.2901 -1.3947  0.2651
  717MOL0     H98935   8.635   5.472   8.018  0.0628 -0.3819 -0.4618
  717MOL0     H98936   8.559   5.618   7.770 -0.5030 -1.3331  0.6438
  717MOL0     H98937   8.667   5.687   7.899  0.0132 -1.2031  2.1010
  717MOL0     H98938   8.501   5.728   8.047 -0.8685  0.0155  0.3228
  717MOL0     H98939   8.421   5.768   7.902 -2.1269  0.1118  0.4981
  717MOL0     H98940   8.395   5.506   8.050 -0.1676 -0.9903 -2.0673
  717MOL0     H98941   8.335   5.542   7.879  1.5261  1.1105 -0.8584
  717MOL0     H98942   8.066   5.724   8.178  1.5438  1.7679  0.7962
  717MOL0     H98943   8.852   5.344   8.049 -0.3221  0.1185 -0.4058
  717MOL0     H98944   9.080   5.453   8.256  1.1083  0.1636 -0.4487
  717MOL0     H98945   9.009   5.298   8.202  1.1831 -1.8517  1.0471
  717MOL0     H98946   9.170   5.325   8.153  0.8949  0.2263  2.6530
  718MOL0     O98947   4.832   2.628   3.681  0.2374  0.5162 -0.3770
  718MOL0     C98948   4.748   2.558   3.618  1.2823 -0.3767  0.2145
  718MOL0     O98949   4.772   2.428   3.564  0.2677  0.6179  0.1945
  718MOL0     C98950   4.902   2.378   3.576  0.6779 -1.2205  0.0676
  718MOL0     C98951   5.015   2.430   3.501  0.2262 -0.0905  0.5319
  718MOL0     C98952   5.144   2.384   3.525 -0.3201  0.9799 -0.5964
  718MOL0     C98953   5.161   2.286   3.621 -0.0869  0.7992 -0.6801
  718MOL0     O98954   5.282   2.232   3.652  0.7192 -0.0382  0.2463
  718MOL0     C98955   5.322   2.122   3.565  0.2252 -0.5499  0.2858
  718MOL0     C98956   5.464   2.084   3.597 -1.0833  0.2893 -0.2212
  718MOL0     C98957   5.539   2.036   3.479 -0.1772 -0.3183  0.2780
  718MOL0     C98958   5.681   2.005   3.530 -0.1265 -0.2368  0.1885
  718MOL0     C98959   5.763   1.962   3.408  0.9368 -0.7561 -0.2510
  718MOL0     C98960   5.780   2.078   3.308  0.3206  0.1105  0.4333
  718MOL0     C98961   5.875   2.040   3.197 -0.3045  0.2611  0.0232
  718MOL0     C98962   5.921   2.165   3.108  0.6502  0.4199 -0.4475
  718MOL0     N98963   6.012   2.257   3.185  0.0396 -0.3108  0.1950
  718MOL0     C98964   5.993   2.338   3.292  0.0351 -0.4418  0.0131
  718MOL0     C98965   6.119   2.390   3.321 -0.4182 -0.5877  0.0713
  718MOL0     C98966   6.146   2.499   3.418  0.1270 -0.0359  0.3153
  718MOL0     C98967   6.046   2.490   3.529  0.4283 -0.0660 -0.5641
  718MOL0     C98968   6.087   2.583   3.636 -0.4304  0.0266  1.0325
  718MOL0     C98969   5.992   2.587   3.748 -0.7063  0.6884 -0.7356
  718MOL0     O98970   6.056   2.660   3.857  0.4442  0.2758 -0.0488
  718MOL0     C98971   5.994   2.633   3.975  0.2886 -0.1109 -0.2614
  718MOL0     C98972   6.050   2.547   4.064 -0.0034 -0.1034  0.2138
  718MOL0     C98973   5.975   2.505   4.179 -1.0252 -0.4636 -0.6455
  718MOL0     C98974   6.028   2.394   4.255 -0.6868  0.2544  0.0199
  718MOL0     C98975   5.857   2.561   4.209  0.6558 -0.7554 -0.0842
  718MOL0     C98976   5.785   2.530   4.331 -0.4848 -0.5629 -0.0617
  718MOL0     O98977   5.650   2.503   4.297  0.1469 -0.0520 -0.0289
  718MOL0     C98978   5.556   2.462   4.392  0.0184 -0.9857 -0.4646
  718MOL0     C98979   5.486   2.345   4.379  0.2171 -0.4626 -0.5620
  718MOL0     C98980   5.390   2.307   4.485 -0.6412  0.3684 -0.3558
  718MOL0     C98981   5.380   2.391   4.602 -0.1591  0.6208  0.3730
  718MOL0     O98982   5.299   2.346   4.707 -0.1188 -0.2725 -0.0720
  718MOL0     C98983   5.277   2.446   4.817 -0.3084 -0.2519  0.8327
  718MOL0     C98984   5.181   2.388   4.924 -0.6136  0.5685  0.0818
  718MOL0     C98985   5.131   2.506   5.006  0.1756  0.4710 -0.5973
  718MOL0     C98986   5.042   2.454   5.127 -0.1078  0.5271 -0.7711
  718MOL0     C98987   4.959   2.566   5.195  0.6959 -0.0342 -0.1791
  718MOL0     C98988   4.873   2.520   5.306  0.0494 -0.5260 -0.7940
  718MOL0     C98989   4.782   2.637   5.340  0.7233  1.0797 -0.0811
  718MOL0     C98990   4.664   2.586   5.441 -0.5198  0.7646  1.2692
  718MOL0    Cl98991   4.538   2.499   5.331  0.3707 -0.0277 -0.4745
  718MOL0     C98992   5.458   2.504   4.604 -0.4194 -0.3784 -0.5184
  718MOL0     C98993   5.545   2.541   4.507 -0.3167 -1.1681  0.1986
  718MOL0     O98994   5.837   2.520   4.444  0.0770 -0.5340 -0.3120
  718MOL0     C98995   5.807   2.664   4.126 -0.2743 -0.5688  0.6038
  718MOL0     C98996   5.878   2.703   4.012  0.7682 -0.1122  0.2502
  718MOL0     N98997   6.211   2.335   3.233 -0.5364  0.8388 -0.3180
  718MOL0     N98998   6.147   2.258   3.161  0.3535 -0.1254 -0.6234
  718MOL0     C98999   5.061   2.233   3.700  1.3223 -0.3148  0.7754
  718MOL0     C99000   4.930   2.288   3.681  0.3972  0.5648 -0.2917
  718MOL0     C99001   4.604   2.596   3.621  0.3147  0.0949  0.3043
  718MOL0     C99002   4.508   2.491   3.617  0.5443 -0.8199  0.6216
  718MOL0     C99003   4.375   2.516   3.648 -1.0594  0.0887  0.0898
  718MOL0     C99004   4.327   2.650   3.664 -0.0326  0.8137 -0.5547
  718MOL0     O99005   4.200   2.680   3.694 -0.5667  0.1354 -0.4291
  718MOL0     C99006   4.096   2.582   3.703  0.1640 -0.2626 -0.0115
  718MOL0     C99007   3.950   2.641   3.706 -0.1489  0.2583  0.6954
  718MOL0     C99008   3.921   2.726   3.584  0.6685 -0.0316  1.2754
  718MOL0     C99009   3.952   2.668   3.444  0.9784 -0.0037 -0.2839
  718MOL0     C99010   3.871   2.546   3.424 -0.3757 -0.0798  0.1486
  718MOL0     C99011   3.818   2.437   3.418  0.2169 -0.4190  0.4150
  718MOL0     C99012   4.419   2.751   3.675  0.0422  0.0577  0.0688
  718MOL0     C99013   4.553   2.728   3.648 -0.0019 -0.2146  0.2674
  718MOL0     C99014   4.628   2.862   3.638  0.2793 -1.3141 -0.2907
  718MOL0     H99015   4.995   2.509   3.429 -2.0741 -1.5322 -0.5362
  718MOL0     H99016   5.235   2.424   3.482 -0.1380  1.1592 -0.0392
  718MOL0     H99017   5.317   2.152   3.460 -1.8761 -1.8211 -0.0444
  718MOL0     H99018   5.257   2.038   3.592  0.3477 -0.5362  0.6280
  718MOL0     H99019   5.509   2.165   3.656  1.6558 -0.6471 -0.8532
  718MOL0     H99020   5.468   2.000   3.667 -1.8140  1.5528  1.3957
  718MOL0     H99021   5.488   1.945   3.448 -1.0883  0.6590 -1.2715
  718MOL0     H99022   5.540   2.109   3.397 -2.7531  1.9587  2.0798
  718MOL0     H99023   5.727   2.096   3.570 -2.8483  0.8068  1.1350
  718MOL0     H99024   5.682   1.933   3.612 -1.9183 -0.7580 -0.2091
  718MOL0     H99025   5.708   1.876   3.366  0.6066 -0.2780 -0.8134
  718MOL0     H99026   5.866   1.933   3.431  0.0221 -3.4888  0.7640
  718MOL0     H99027   5.681   2.109   3.274 -1.2830 -1.4993  3.1968
  718MOL0     H99028   5.819   2.162   3.366  0.9632  1.7666 -2.2437
  718MOL0     H99029   5.832   1.973   3.123 -1.1081  1.3771 -0.5536
  718MOL0     H99030   5.955   1.978   3.238 -5.2588 -3.9995  5.0013
  718MOL0     H99031   5.975   2.126   3.021 -1.3530  0.5013 -1.7959
  718MOL0     H99032   5.839   2.233   3.083  0.1558 -0.1788 -0.4612
  718MOL0     H99033   5.901   2.375   3.336  0.3073 -0.4391  0.5886
  718MOL0     H99034   6.155   2.602   3.381  0.2776  0.6979  2.2394
  718MOL0     H99035   6.247   2.487   3.459  0.2363  0.1465  0.0993
  718MOL0     H99036   5.941   2.506   3.504 -0.1547 -1.2146  0.9618
  718MOL0     H99037   6.054   2.391   3.576 -1.1014  0.2108  0.3538
  718MOL0     H99038   6.187   2.559   3.673  0.6651  3.0918  0.3610
  718MOL0     H99039   6.096   2.683   3.592 -1.7789  0.0124  0.6760
  718MOL0     H99040   5.894   2.623   3.717 -1.1052 -0.8491 -1.3579
  718MOL0     H99041   5.986   2.480   3.770  0.1555  0.1669 -2.8013
  718MOL0     H99042   6.128   2.476   4.039  0.4721 -0.7152  3.1157
  718MOL0     H99043   5.949   2.319   4.263 -1.5243  0.9218 -1.6200
  718MOL0     H99044   6.061   2.436   4.351  0.8474 -0.0536 -0.3425
  718MOL0     H99045   6.117   2.348   4.210  0.0816 -0.5441  2.2190
  718MOL0     H99046   5.490   2.291   4.285 -2.2252 -2.1553  0.2099
  718MOL0     H99047   5.335   2.213   4.487  0.3859 -0.2932 -1.4372
  718MOL0     H99048   5.371   2.471   4.867 -0.0735 -1.4534  1.0332
  718MOL0     H99049   5.241   2.536   4.767 -0.1884  0.2549  1.6475
  718MOL0     H99050   5.098   2.334   4.876 -0.6963 -1.3403  2.2318
  718MOL0     H99051   5.223   2.303   4.978  0.3947 -1.3316 -3.3912
  718MOL0     H99052   5.074   2.576   4.944 -0.0460 -0.2831 -1.2612
  718MOL0     H99053   5.218   2.557   5.049  1.2249  0.8583 -3.0458
  718MOL0     H99054   5.112   2.408   5.197  2.3034 -0.0888 -3.3868
  718MOL0     H99055   4.985   2.368   5.091  0.8504  0.2620 -1.7265
  718MOL0     H99056   5.034   2.636   5.233  1.7785 -1.3225  0.1272
  718MOL0     H99057   4.897   2.614   5.119  1.1635 -0.1284 -0.6250
  718MOL0     H99058   4.943   2.496   5.386 -1.3290 -0.5749  0.4424
  718MOL0     H99059   4.815   2.432   5.281 -1.8991  0.7643 -1.0372
  718MOL0     H99060   4.737   2.686   5.253 -0.5039  0.5218  0.2182
  718MOL0     H99061   4.845   2.709   5.393  0.4904 -0.4409  2.4006
  718MOL0     H99062   4.630   2.682   5.482 -0.2950  1.5666 -0.3294
  718MOL0     H99063   4.704   2.517   5.515 -0.4613 -1.4350 -0.7172
  718MOL0     H99064   5.460   2.574   4.687 -0.7664 -0.2488 -0.6142
  718MOL0     H99065   5.603   2.633   4.502 -1.5529 -0.4098 -2.7625
  718MOL0     H99066   5.704   2.700   4.133 -1.4402 -3.4611 -0.1731
  718MOL0     H99067   5.846   2.778   3.941  1.4027 -0.9266 -0.9344
  718MOL0     H99068   5.081   2.162   3.780  2.5689 -0.7671  0.0812
  718MOL0     H99069   4.842   2.248   3.731  1.5767 -1.1725  0.5209
  718MOL0     H99070   4.535   2.387   3.605  0.6353 -0.8206  0.8227
  718MOL0     H99071   4.313   2.428   3.660 -0.0997 -0.7736 -0.9716
  718MOL0     H99072   4.099   2.511   3.620  1.1897  0.7759 -0.8996
  718MOL0     H99073   4.117   2.531   3.798 -0.4557  0.7590  0.6937
  718MOL0     H99074   3.927   2.693   3.799 -4.2858 -0.9162  0.5393
  718MOL0     H99075   3.882   2.555   3.705 -0.6883  0.6748 -0.8442
  718MOL0     H99076   3.816   2.757   3.584  0.6522  0.0925 -1.1336
  718MOL0     H99077   3.975   2.822   3.587 -1.0711  1.2387 -2.3464
  718MOL0     H99078   4.059   2.649   3.435  1.0022 -0.1123  0.1681
  718MOL0     H99079   3.917   2.734   3.364 -1.0723 -0.2234  0.3592
  718MOL0     H99080   3.768   2.343   3.429 -2.3155  0.9319  1.3566
  718MOL0     H99081   4.397   2.855   3.693 -2.2200 -0.3862  0.1799
  718MOL0     H99082   4.575   2.938   3.579  1.4992 -0.4370 -0.3083
  718MOL0     H99083   4.647   2.897   3.740 -0.4119 -0.5433 -0.4163
  718MOL0     H99084   4.719   2.849   3.579  0.3446  1.0292 -0.8041
  719MOL0     O99085   6.727   3.701   5.594 -0.7156  0.0280 -0.4903
  719MOL0     C99086   6.742   3.736   5.711 -0.6939  0.6762  0.5050
  719MOL0     O99087   6.863   3.772   5.764 -0.0931  0.5570 -0.3924
  719MOL0     C99088   6.967   3.752   5.682  0.6016  0.3128  0.6296
  719MOL0     C99089   7.053   3.645   5.709  0.3365 -0.1409  0.5447
  719MOL0     C99090   7.177   3.639   5.651 -0.3094 -0.1855 -0.1566
  719MOL0     C99091   7.215   3.742   5.558 -0.3450 -0.1057 -0.1872
  719MOL0     O99092   7.338   3.717   5.506 -0.1064  0.1951 -0.1322
  719MOL0     C99093   7.422   3.818   5.460  0.3000 -0.3649  0.4087
  719MOL0     C99094   7.528   3.757   5.380  1.0703  0.2141 -0.0900
  719MOL0     C99095   7.622   3.849   5.300 -0.5669  0.2242  0.2125
  719MOL0     C99096   7.723   3.917   5.395 -0.4365  0.1496  0.9598
  719MOL0     C99097   7.808   4.038   5.339  1.4984  0.2320  0.0397
  719MOL0     C99098   7.882   3.997   5.215 -0.3188  0.2433 -0.4996
  719MOL0     C99099   7.983   4.105   5.165  0.4473  0.4869 -0.7754
  719MOL0     C99100   8.109   4.049   5.097 -0.1017  0.0014 -0.2958
  719MOL0     N99101   8.212   4.007   5.200  0.1478 -0.1187  0.4076
  719MOL0     C99102   8.206   3.934   5.325  0.0219  0.1913 -0.1989
  719MOL0     C99103   8.338   3.934   5.372 -0.0697  0.7773 -0.1174
  719MOL0     C99104   8.383   3.869   5.509  0.1019  0.3636  0.2488
  719MOL0     C99105   8.529   3.810   5.498  0.3693  0.1071 -0.0711
  719MOL0     C99106   8.549   3.685   5.402  0.8346  0.9950 -0.0687
  719MOL0     C99107   8.560   3.564   5.495 -0.2451  0.1368  0.9907
  719MOL0     O99108   8.445   3.538   5.567  0.1171  0.2452 -0.3462
  719MOL0     C99109   8.446   3.444   5.667  0.9751  0.8481  0.1566
  719MOL0     C99110   8.554   3.358   5.697  1.0873 -0.2544  0.6788
  719MOL0     C99111   8.543   3.267   5.805 -0.3420  0.6101 -0.2187
  719MOL0     C99112   8.665   3.183   5.845  0.9204 -0.2899 -0.2466
  719MOL0     C99113   8.425   3.256   5.884 -0.9174 -0.6043 -0.9084
  719MOL0     C99114   8.399   3.149   5.988  0.2200  0.0873  0.1008
  719MOL0     O99115   8.400   3.023   5.943 -0.2444  0.0486  0.6115
  719MOL0     C99116   8.334   2.927   6.022  0.5430 -0.5484 -0.1285
  719MOL0     C99117   8.395   2.846   6.117  0.3203 -0.2032  0.2378
  719MOL0     C99118   8.315   2.787   6.211  1.1247  0.3855 -0.4853
  719MOL0     C99119   8.176   2.789   6.213 -0.1925  0.4243 -0.4093
  719MOL0     O99120   8.115   2.719   6.315  0.3232  0.0038 -0.8856
  719MOL0     C99121   7.994   2.656   6.273  0.5726  0.3834  0.3541
  719MOL0     C99122   7.949   2.567   6.394  0.1676 -0.0884  0.6927
  719MOL0     C99123   8.056   2.487   6.475  0.2174 -1.2284  0.9240
  719MOL0     C99124   8.158   2.409   6.381  0.2413 -0.3460 -0.3093
  719MOL0     C99125   8.265   2.334   6.464 -0.3734  0.6211  0.3183
  719MOL0     C99126   8.409   2.348   6.398  0.1632 -0.1937  0.1747
  719MOL0     C99127   8.525   2.278   6.468 -0.1547 -0.8206  0.4448
  719MOL0     C99128   8.522   2.120   6.442 -0.3911 -0.4291 -0.2966
  719MOL0    Cl99129   8.553   2.090   6.273 -0.1073 -0.3177 -0.1581
  719MOL0     C99130   8.113   2.865   6.117 -0.4000 -0.2210 -0.5164
  719MOL0     C99131   8.193   2.934   6.023  0.3975  0.4005  0.7111
  719MOL0     O99132   8.356   3.184   6.097 -0.0445  0.4417 -0.3413
  719MOL0     C99133   8.324   3.346   5.851 -0.1505 -0.9063  0.3828
  719MOL0     C99134   8.332   3.439   5.750 -0.3451 -0.4756 -0.0117
  719MOL0     N99135   8.416   3.997   5.273 -0.0151  0.5546  0.1805
  719MOL0     N99136   8.344   4.048   5.180  0.3196  0.0511 -0.1177
  719MOL0     C99137   7.128   3.846   5.523 -0.4736 -0.4220 -0.5396
  719MOL0     C99138   7.002   3.847   5.586  0.5885 -0.0471 -0.1610
  719MOL0     C99139   6.621   3.747   5.793 -0.3076  0.1649  0.4178
  719MOL0     C99140   6.540   3.635   5.800 -0.0628 -0.1189  0.1928
  719MOL0     C99141   6.432   3.640   5.889  0.7215  0.1533  0.3935
  719MOL0     C99142   6.384   3.760   5.943 -0.0282 -1.2776 -0.0156
  719MOL0     O99143   6.265   3.754   6.014 -0.5182 -0.3826 -0.5434
  719MOL0     C99144   6.197   3.877   6.043 -0.1625 -0.0060  0.7770
  719MOL0     C99145   6.142   3.932   5.913  0.5328  0.1084 -0.6014
  719MOL0     C99146   6.054   4.060   5.950  0.1002  0.2683  0.3269
  719MOL0     C99147   5.968   4.113   5.839  0.7680  0.3234  0.3548
  719MOL0     C99148   6.050   4.142   5.718  0.3763  0.3591 -1.0648
  719MOL0     C99149   6.117   4.178   5.620 -0.3812  0.6176 -0.1181
  719MOL0     C99150   6.462   3.875   5.932 -0.0870  0.2274 -0.1805
  719MOL0     C99151   6.585   3.873   5.862  0.1231 -0.0500 -0.6335
  719MOL0     C99152   6.669   3.990   5.859 -0.4508 -0.5547 -0.1659
  719MOL0     H99153   7.026   3.580   5.791 -1.3345 -0.7589 -0.4486
  719MOL0     H99154   7.241   3.559   5.687  1.7006  1.7387  0.7591
  719MOL0     H99155   7.455   3.877   5.546  0.4022  1.9804 -1.1492
  719MOL0     H99156   7.365   3.888   5.398  2.5721  0.2268 -1.1374
  719MOL0     H99157   7.585   3.708   5.458 -1.4693  2.7094  3.6856
  719MOL0     H99158   7.484   3.688   5.307  1.9864 -2.9243  2.1238
  719MOL0     H99159   7.678   3.801   5.219 -2.4954  1.4116 -1.9198
  719MOL0     H99160   7.566   3.922   5.242  1.4097  1.0735 -0.7332
  719MOL0     H99161   7.665   3.941   5.485 -1.5366 -2.7481  1.1515
  719MOL0     H99162   7.794   3.847   5.441 -3.7813 -3.0044  1.7984
  719MOL0     H99163   7.865   4.088   5.418  1.8826  0.3598 -0.3118
  719MOL0     H99164   7.726   4.103   5.310 -1.0713 -3.5163 -1.9053
  719MOL0     H99165   7.933   3.903   5.239  0.1736  0.3106 -1.2224
  719MOL0     H99166   7.810   3.981   5.133 -0.0067  1.1994 -0.9762
  719MOL0     H99167   7.998   4.176   5.246  2.0694 -0.8805  0.1869
  719MOL0     H99168   7.921   4.146   5.084  0.0371  1.6188  0.0868
  719MOL0     H99169   8.093   3.965   5.029  2.1007 -0.7408  0.0009
  719MOL0     H99170   8.153   4.133   5.042 -0.9567  0.7086  0.0773
  719MOL0     H99171   8.114   3.896   5.368 -1.2531 -0.3773 -3.1859
  719MOL0     H99172   8.316   3.792   5.548  3.2166 -1.4428  2.5470
  719MOL0     H99173   8.382   3.946   5.587 -0.0208 -0.2755  0.8904
  719MOL0     H99174   8.590   3.893   5.462  1.3381  0.3252  1.9229
  719MOL0     H99175   8.568   3.789   5.598 -1.7572  0.5773  0.9203
  719MOL0     H99176   8.470   3.676   5.328  0.1306  3.2679  0.3277
  719MOL0     H99177   8.643   3.704   5.349  1.5577 -1.0022  0.3895
  719MOL0     H99178   8.600   3.477   5.442 -0.6820 -0.1687  1.1466
  719MOL0     H99179   8.642   3.589   5.563  0.1461  1.9950 -0.1154
  719MOL0     H99180   8.648   3.381   5.646  0.4083  2.9920  0.6917
  719MOL0     H99181   8.684   3.201   5.951  1.3775 -2.0660  0.0074
  719MOL0     H99182   8.763   3.209   5.802 -0.0816  3.9150 -0.4544
  719MOL0     H99183   8.646   3.076   5.839 -1.1662 -0.1023  1.5768
  719MOL0     H99184   8.503   2.852   6.117  0.2790  4.3640 -0.4965
  719MOL0     H99185   8.366   2.728   6.287 -0.2077 -1.2068 -0.7626
  719MOL0     H99186   7.912   2.725   6.253  1.3455  1.0498 -0.6333
  719MOL0     H99187   8.017   2.590   6.189  0.6133 -0.2403  0.8487
  719MOL0     H99188   7.882   2.627   6.457  0.7256  2.7725 -1.2915
  719MOL0     H99189   7.881   2.487   6.361 -0.4587  0.6999  0.0469
  719MOL0     H99190   8.003   2.418   6.540 -1.4542 -0.1217  0.8007
  719MOL0     H99191   8.111   2.560   6.536 -3.2089  0.3801  2.3383
  719MOL0     H99192   8.219   2.479   6.324  2.3076 -1.6985  0.1283
  719MOL0     H99193   8.101   2.351   6.308 -0.3304  0.6129 -0.6549
  719MOL0     H99194   8.271   2.365   6.569  3.7797  2.7496 -0.3331
  719MOL0     H99195   8.252   2.226   6.471 -1.6511  0.7291 -0.0647
  719MOL0     H99196   8.439   2.454   6.400  0.7153 -0.3211 -0.8362
  719MOL0     H99197   8.403   2.319   6.293 -0.4322  2.1764 -0.5276
  719MOL0     H99198   8.526   2.306   6.573 -2.2204  1.1176  0.0216
  719MOL0     H99199   8.618   2.323   6.431  0.8387 -0.3776  3.2693
  719MOL0     H99200   8.423   2.083   6.469 -0.1911  1.3314  3.6284
  719MOL0     H99201   8.599   2.070   6.501 -1.0491  1.0662  1.9990
  719MOL0     H99202   8.005   2.869   6.110 -0.3992 -1.4613 -2.1111
  719MOL0     H99203   8.146   3.007   5.958  2.5843 -0.0267 -1.5077
  719MOL0     H99204   8.222   3.347   5.888 -0.5829 -0.8138 -0.7659
  719MOL0     H99205   8.253   3.509   5.724  1.6166  1.1263 -2.1268
  719MOL0     H99206   7.149   3.913   5.440 -2.1684 -0.8567 -1.3726
  719MOL0     H99207   6.925   3.919   5.559  0.2594 -1.1511 -2.3838
  719MOL0     H99208   6.564   3.548   5.739 -0.0114  1.2300 -1.7715
  719MOL0     H99209   6.368   3.553   5.903  0.1012  0.9204  2.7608
  719MOL0     H99210   6.115   3.861   6.114  1.0925 -1.7488  1.8924
  719MOL0     H99211   6.262   3.949   6.092  0.6072  0.3555 -0.7066
  719MOL0     H99212   6.068   3.863   5.872 -3.1243  3.8421 -0.9616
  719MOL0     H99213   6.219   3.950   5.838  1.1460 -2.0597 -0.5584
  719MOL0     H99214   5.987   4.036   6.032  0.9662  1.0225  1.2900
  719MOL0     H99215   6.129   4.138   5.969 -0.4291  1.1445 -1.0021
  719MOL0     H99216   5.908   4.202   5.859 -1.9246 -0.6029 -2.7965
  719MOL0     H99217   5.891   4.037   5.823 -1.2606  1.9176  2.0287
  719MOL0     H99218   6.195   4.212   5.555 -0.1977  0.4579  0.0159
  719MOL0     H99219   6.438   3.969   5.982  0.0955 -0.5012  1.3335
  719MOL0     H99220   6.605   4.071   5.897  1.5199  1.5188 -1.0139
  719MOL0     H99221   6.756   3.979   5.924  0.8577 -0.6797 -1.8584
  719MOL0     H99222   6.683   4.025   5.756 -0.5419  0.8105  0.2641
  720MOL0     O99223   4.984   6.378   3.670 -0.4143  0.2949  0.5027
  720MOL0     C99224   5.014   6.295   3.755 -0.2978 -0.3754 -0.0085
  720MOL0     O99225   5.150   6.281   3.805  0.2398  0.6274  0.0739
  720MOL0     C99226   5.258   6.331   3.736 -1.1349 -0.5513 -0.0436
  720MOL0     C99227   5.367   6.367   3.818  0.6820 -0.2753  0.1492
  720MOL0     C99228   5.478   6.428   3.768  0.4808 -0.0470 -0.0180
  720MOL0     C99229   5.487   6.458   3.628  0.5610 -0.1652  0.3947
  720MOL0     O99230   5.588   6.521   3.558  0.0465  0.8066 -0.1861
  720MOL0     C99231   5.691   6.567   3.640 -0.5653  0.4556  0.9631
  720MOL0     C99232   5.796   6.626   3.546 -1.0198 -0.7301 -0.8813
  720MOL0     C99233   5.901   6.701   3.631 -0.1898  0.4488  0.4354
  720MOL0     C99234   6.017   6.748   3.536 -0.2214 -0.7710  0.0272
  720MOL0     C99235   6.130   6.816   3.620  0.5620  0.7085 -0.2613
  720MOL0     C99236   6.206   6.919   3.539 -0.4281 -0.7316  0.5307
  720MOL0     C99237   6.359   6.928   3.569 -0.4434 -0.1637  0.4345
  720MOL0     C99238   6.440   6.810   3.512 -0.0051 -0.3960  1.0376
  720MOL0     N99239   6.586   6.834   3.499  0.1103  0.0753 -0.3248
  720MOL0     C99240   6.655   6.824   3.380 -0.2342 -0.4054 -0.0457
  720MOL0     C99241   6.788   6.813   3.416  0.3131 -0.4062 -0.9311
  720MOL0     C99242   6.913   6.801   3.329  0.5465 -0.0517 -1.0317
  720MOL0     C99243   6.934   6.926   3.238 -0.0339  0.5831 -0.5999
  720MOL0     C99244   6.915   7.062   3.310  0.5034 -0.3664  0.4696
  720MOL0     C99245   7.028   7.101   3.417  1.0965 -0.1160  0.7146
  720MOL0     O99246   7.148   7.112   3.344  0.0467  0.4870  0.4944
  720MOL0     C99247   7.250   7.196   3.378  0.7543 -0.5319  0.0048
  720MOL0     C99248   7.354   7.202   3.287  0.5245  0.5533  0.4455
  720MOL0     C99249   7.469   7.273   3.305  0.5048 -0.0581 -0.1250
  720MOL0     C99250   7.583   7.256   3.203  0.6992 -0.3886 -0.4623
  720MOL0     C99251   7.477   7.338   3.428  0.5459 -0.5757 -0.1820
  720MOL0     C99252   7.599   7.424   3.463 -0.2676 -0.5267  0.2263
  720MOL0     O99253   7.637   7.424   3.590 -0.6996 -0.2338 -0.0681
  720MOL0     C99254   7.757   7.476   3.639 -1.2147 -0.4860  0.7771
  720MOL0     C99255   7.749   7.578   3.730  1.1038  0.0229  0.6221
  720MOL0     C99256   7.862   7.626   3.787 -0.4183 -0.2849  0.6568
  720MOL0     C99257   7.987   7.581   3.758 -0.4636 -0.0115 -0.4883
  720MOL0     O99258   8.097   7.632   3.824  0.3953  0.6281  0.8631
  720MOL0     C99259   8.083   7.605   3.961  0.1339  0.4809  0.2200
  720MOL0     C99260   8.213   7.617   4.034  0.6450  0.0951 -0.2141
  720MOL0     C99261   8.246   7.766   4.023 -0.8409 -0.4192 -0.1737
  720MOL0     C99262   8.362   7.780   4.114 -0.6111 -0.3537 -0.5066
  720MOL0     C99263   8.415   7.918   4.108 -0.1024 -0.1345 -0.0923
  720MOL0     C99264   8.565   7.931   4.158 -0.1843  0.7039  0.8141
  720MOL0     C99265   8.601   8.074   4.121  0.1563 -0.7924 -0.0134
  720MOL0     C99266   8.735   8.112   4.189 -0.6323 -0.6717 -0.0983
  720MOL0    Cl99267   8.813   8.255   4.107  0.0641 -0.6566 -0.4718
  720MOL0     C99268   7.996   7.472   3.666 -0.5898 -0.0079 -0.1957
  720MOL0     C99269   7.881   7.426   3.599  0.1458  0.2692  0.0751
  720MOL0     O99270   7.648   7.493   3.369 -0.2823  0.0700 -0.4722
  720MOL0     C99271   7.376   7.334   3.526  0.7162 -1.0309 -0.3736
  720MOL0     C99272   7.258   7.265   3.496  0.7155 -0.3238 -0.6122
  720MOL0     N99273   6.792   6.835   3.557 -0.2744 -0.1042 -0.1705
  720MOL0     N99274   6.673   6.850   3.602 -0.1890 -0.5233 -0.7681
  720MOL0     C99275   5.380   6.427   3.546 -0.2246 -0.2456 -0.0188
  720MOL0     C99276   5.269   6.361   3.598 -0.5302  0.1767 -0.8340
  720MOL0     C99277   4.907   6.205   3.814  0.3321  0.4790 -0.2082
  720MOL0     C99278   4.931   6.143   3.935  0.0523  0.0532  0.3005
  720MOL0     C99279   4.836   6.066   4.003 -0.0218 -0.3489  1.3696
  720MOL0     C99280   4.706   6.042   3.941 -0.2845 -0.3781  0.0646
  720MOL0     O99281   4.607   5.964   3.998  0.6162 -0.0671 -0.8216
  720MOL0     C99282   4.541   6.021   4.118  0.7067 -0.5929  0.0559
  720MOL0     C99283   4.450   6.147   4.100 -0.1133  0.2875  0.3739
  720MOL0     C99284   4.313   6.095   4.046 -0.3008 -0.6120  0.5296
  720MOL0     C99285   4.319   6.079   3.894  0.5406  0.3398 -0.1368
  720MOL0     C99286   4.340   6.204   3.822  0.3169 -0.1862  0.1620
  720MOL0     C99287   4.362   6.303   3.752 -0.5905  0.2389 -0.2106
  720MOL0     C99288   4.683   6.104   3.816 -0.1146 -0.2102  0.5458
  720MOL0     C99289   4.781   6.179   3.755  0.5526 -0.4895  0.4847
  720MOL0     C99290   4.737   6.230   3.619 -0.0748 -0.4844  0.1573
  720MOL0     H99291   5.357   6.345   3.923 -1.5148 -3.3696 -0.5905
  720MOL0     H99292   5.563   6.459   3.829  1.6691  0.2038 -1.7194
  720MOL0     H99293   5.735   6.481   3.691 -1.1421 -2.0868 -2.4817
  720MOL0     H99294   5.647   6.640   3.708 -0.1234  1.1033  0.5691
  720MOL0     H99295   5.835   6.547   3.483 -0.3583 -0.8690 -0.3027
  720MOL0     H99296   5.747   6.694   3.475  2.4695  0.0042 -2.7924
  720MOL0     H99297   5.857   6.777   3.695 -2.4996  2.0434 -2.7396
  720MOL0     H99298   5.946   6.627   3.697 -0.9331 -0.2191  0.2146
  720MOL0     H99299   6.055   6.670   3.470  2.7263  0.7334 -0.2510
  720MOL0     H99300   5.978   6.828   3.472  3.2736 -0.4009 -1.8623
  720MOL0     H99301   6.195   6.734   3.650 -0.1604 -0.2792 -1.3223
  720MOL0     H99302   6.096   6.862   3.713 -2.0140 -1.0880 -0.2180
  720MOL0     H99303   6.192   6.906   3.431  0.2709  2.0254  0.0237
  720MOL0     H99304   6.153   7.008   3.574 -0.3508 -0.7732  0.7545
  720MOL0     H99305   6.367   6.931   3.678  3.9952 -0.6499  0.2998
  720MOL0     H99306   6.403   7.022   3.533 -0.9888  0.1487  0.5868
  720MOL0     H99307   6.420   6.724   3.577  1.7406  0.4692  2.8126
  720MOL0     H99308   6.399   6.783   3.415 -0.7622  0.4569  1.1087
  720MOL0     H99309   6.617   6.810   3.280 -0.1914 -0.8797  0.0021
  720MOL0     H99310   6.898   6.716   3.262 -0.9995 -1.3045  0.7872
  720MOL0     H99311   7.003   6.780   3.388 -0.0038  2.2130  0.7150
  720MOL0     H99312   7.036   6.912   3.202  0.4419 -4.1698  1.8437
  720MOL0     H99313   6.868   6.917   3.151 -0.0657 -0.9283 -0.4539
  720MOL0     H99314   6.911   7.145   3.238  1.4251 -0.6728  0.0378
  720MOL0     H99315   6.824   7.064   3.370  0.4490  0.3643  0.3675
  720MOL0     H99316   6.999   7.200   3.454  1.2314  0.2316 -0.0748
  720MOL0     H99317   7.037   7.037   3.505 -2.1392  0.3127  1.4727
  720MOL0     H99318   7.358   7.138   3.199  0.3643 -0.4126  1.1272
  720MOL0     H99319   7.675   7.233   3.258  1.7347  1.2612 -1.4048
  720MOL0     H99320   7.595   7.347   3.143 -0.7787  0.5238  0.5596
  720MOL0     H99321   7.571   7.171   3.135 -0.2657  0.7289 -1.7455
  720MOL0     H99322   7.663   7.638   3.758  0.8505  0.9935 -1.9341
  720MOL0     H99323   7.849   7.713   3.851  0.6502 -0.9061  1.7427
  720MOL0     H99324   8.009   7.664   4.014 -1.1442  0.8977 -1.8944
  720MOL0     H99325   8.049   7.502   3.971  0.7275  0.4687  2.6307
  720MOL0     H99326   8.193   7.584   4.137  1.3269  0.2913 -0.0156
  720MOL0     H99327   8.285   7.546   3.992 -0.0492 -1.1118  0.5596
  720MOL0     H99328   8.175   7.832   4.075 -0.5018  0.1863 -0.4750
  720MOL0     H99329   8.268   7.803   3.923 -1.2463  2.3383  0.6467
  720MOL0     H99330   8.443   7.715   4.082  0.2264 -0.3598  1.4811
  720MOL0     H99331   8.332   7.744   4.213  1.0162 -0.1951  0.0775
  720MOL0     H99332   8.404   7.959   4.007  0.4916 -0.5722 -0.3340
  720MOL0     H99333   8.358   7.981   4.178  1.0165 -0.3618  1.0600
  720MOL0     H99334   8.633   7.862   4.108 -0.2076  0.3215  1.3030
  720MOL0     H99335   8.573   7.907   4.265  2.1072  0.3191  0.6124
  720MOL0     H99336   8.532   8.153   4.152  0.8754  1.1753 -2.9093
  720MOL0     H99337   8.606   8.082   4.012  0.9699 -0.4721  0.0385
  720MOL0     H99338   8.798   8.023   4.182  0.0662 -0.5047  2.9106
  720MOL0     H99339   8.712   8.141   4.292  1.9490  1.7002 -0.0670
  720MOL0     H99340   8.101   7.449   3.649 -0.6588  0.8759 -2.1578
  720MOL0     H99341   7.897   7.355   3.518  2.7205  2.1234 -1.1829
  720MOL0     H99342   7.398   7.380   3.622  1.6241 -0.6277 -0.7706
  720MOL0     H99343   7.189   7.257   3.580  0.6864 -0.4833 -0.6512
  720MOL0     H99344   5.371   6.458   3.443 -0.2448  0.7113  0.2653
  720MOL0     H99345   5.190   6.333   3.529  2.2062 -2.1590 -3.2260
  720MOL0     H99346   5.018   6.184   3.986 -1.3130  2.0078  1.1863
  720MOL0     H99347   4.857   6.015   4.096 -3.2474 -1.7866  1.4739
  720MOL0     H99348   4.483   5.941   4.165  1.2171 -1.5528 -0.9051
  720MOL0     H99349   4.630   6.040   4.180  0.9037 -1.3048  0.0001
  720MOL0     H99350   4.505   6.216   4.035  0.5410 -1.4798 -1.0599
  720MOL0     H99351   4.426   6.188   4.198 -0.5089 -1.5327  1.0784
  720MOL0     H99352   4.297   6.003   4.103 -0.8622 -1.2507 -0.6211
  720MOL0     H99353   4.236   6.169   4.067 -0.4321 -0.7527  0.5404
  720MOL0     H99354   4.230   6.023   3.862  0.6611 -0.5620  1.0329
  720MOL0     H99355   4.400   6.012   3.864 -2.3714 -2.0948 -3.5751
  720MOL0     H99356   4.386   6.391   3.697  1.7418  3.1540  4.8364
  720MOL0     H99357   4.592   6.098   3.757  0.9233  1.9721 -1.4183
  720MOL0     H99358   4.658   6.173   3.569 -0.8411  0.1099  0.6500
  720MOL0     H99359   4.725   6.339   3.625 -0.1172 -0.3324 -2.0426
  720MOL0     H99360   4.818   6.219   3.547 -0.7308 -0.5661 -0.5900
  721MOL0     O99361   2.409   3.749   0.244 -0.5194 -0.5089  0.6141
  721MOL0     C99362   2.342   3.851   0.229 -0.2354 -0.4894  0.0690
  721MOL0     O99363   2.377   3.972   0.238  0.5245 -0.3283 -0.3871
  721MOL0     C99364   2.507   4.010   0.245 -0.3406  0.6044 -0.0043
  721MOL0     C99365   2.549   4.108   0.339  0.2791  0.2874  0.6941
  721MOL0     C99366   2.684   4.152   0.347 -0.6912  0.0887  0.0382
  721MOL0     C99367   2.781   4.108   0.260  0.8372  0.9541 -0.3245
  721MOL0     O99368   2.908   4.152   0.255 -0.2995 -0.2824 -0.1457
  721MOL0     C99369   2.988   4.167   0.373  0.5385  0.3645  0.3956
  721MOL0     C99370   3.120   4.234   0.329  0.4195  0.4216  0.7263
  721MOL0     C99371   3.215   4.254   0.447  0.4435  0.2104 -0.4326
  721MOL0     C99372   3.357   4.273   0.400  0.4988  0.0564 -0.7011
  721MOL0     C99373   3.448   4.276   0.534 -0.0627  0.0740  0.3817
  721MOL0     C99374   3.599   4.274   0.512  0.9604 -0.2448 -0.0734
  721MOL0     C99375   3.649   4.348   0.380  0.0752 -0.7913 -0.7243
  721MOL0     C99376   3.787   4.304   0.331  0.1394 -0.3101 -0.4882
  721MOL0     N99377   3.849   4.406   0.249 -0.4242 -0.1440 -0.2952
  721MOL0     C99378   3.894   4.529   0.286  0.3666 -0.3844  0.6437
  721MOL0     C99379   3.969   4.572   0.178  1.1011  0.8018 -0.1649
  721MOL0     C99380   4.049   4.694   0.172 -0.1330 -0.7099  1.0612
  721MOL0     C99381   4.015   4.803   0.270 -0.1779  0.4393  0.0489
  721MOL0     C99382   4.104   4.923   0.261  0.1652  0.0380 -0.5133
  721MOL0     C99383   4.118   4.992   0.398  0.1618 -0.5927 -0.3202
  721MOL0     O99384   3.991   5.044   0.448 -0.3137 -0.0875 -0.0237
  721MOL0     C99385   3.935   5.143   0.375  0.1637 -0.0751 -0.1311
  721MOL0     C99386   4.001   5.266   0.352 -0.9225 -0.3422  0.4191
  721MOL0     C99387   3.938   5.367   0.278  0.8542  0.4720 -0.0949
  721MOL0     C99388   4.020   5.490   0.243  0.1035 -0.4483 -0.2394
  721MOL0     C99389   3.802   5.355   0.234 -1.0740 -0.2148 -0.2051
  721MOL0     C99390   3.705   5.466   0.175 -0.0642  0.6071 -0.1164
  721MOL0     O99391   3.574   5.435   0.161 -0.9618 -0.3198  0.4740
  721MOL0     C99392   3.476   5.530   0.158  0.1747  0.0366  0.7535
  721MOL0     C99393   3.477   5.641   0.076 -0.3281 -0.0228  0.3505
  721MOL0     C99394   3.373   5.736   0.083 -0.0483  0.2998  0.2072
  721MOL0     C99395   3.259   5.711   0.163 -0.3248  0.0305  0.2290
  721MOL0     O99396   3.161   5.802   0.162  0.5763  0.4816 -0.0250
  721MOL0     C99397   3.075   5.813   0.276  0.5272 -0.9215  0.0331
  721MOL0     C99398   2.990   5.944   0.267 -0.4752  0.0048 -0.6388
  721MOL0     C99399   2.850   5.934   0.343  0.3297 -0.1817 -0.0099
  721MOL0     C99400   2.786   6.069   0.360  0.3637 -0.3497  0.9459
  721MOL0     C99401   2.656   6.066   0.449 -0.9516  0.0858 -0.4956
  721MOL0     C99402   2.593   6.203   0.449  0.1643  0.1067  0.2889
  721MOL0     C99403   2.457   6.194   0.517 -0.3094 -0.3911  0.3900
  721MOL0     C99404   2.393   6.332   0.525  0.7517  0.7686  0.4457
  721MOL0    Cl99405   2.213   6.319   0.579 -0.0198 -0.4587  0.1626
  721MOL0     C99406   3.253   5.596   0.238 -0.1361 -0.5661  0.1331
  721MOL0     C99407   3.359   5.502   0.230  0.3781 -0.0921  0.3414
  721MOL0     O99408   3.750   5.578   0.170 -0.4070 -0.0952 -0.0691
  721MOL0     C99409   3.743   5.224   0.259 -0.3608 -0.5651  0.2802
  721MOL0     C99410   3.806   5.123   0.330  0.3212 -0.7699 -1.0892
  721MOL0     N99411   3.952   4.473   0.074  0.2916  0.2547  0.1030
  721MOL0     N99412   3.870   4.381   0.120 -0.7917  0.0641  0.1372
  721MOL0     C99413   2.743   4.010   0.168 -0.1099 -0.7402  0.5793
  721MOL0     C99414   2.608   3.959   0.156  0.0873 -0.0940  0.0949
  721MOL0     C99415   2.205   3.831   0.171 -0.8280  0.4901  0.2629
  721MOL0     C99416   2.134   3.734   0.233 -0.3700 -0.4055  0.9589
  721MOL0     C99417   2.003   3.693   0.188  0.6423  0.0725 -0.1902
  721MOL0     C99418   1.938   3.758   0.081  0.1468  0.5642  0.5514
  721MOL0     O99419   1.803   3.731   0.051 -0.4476  0.3385 -0.4025
  721MOL0     C99420   1.717   3.849   0.058 -1.1674  0.0729  0.1902
  721MOL0     C99421   1.580   3.823   0.117 -0.3103  0.3015 -0.1801
  721MOL0     C99422   1.578   3.752   0.252  0.1910 -0.1146 -0.4563
  721MOL0     C99423   1.438   3.715   0.298  1.8453 -0.5130  0.7635
  721MOL0     C99424   1.349   3.828   0.328 -0.4620 -0.0044  0.6459
  721MOL0     C99425   1.262   3.910   0.351  0.5195  0.2738 -0.6434
  721MOL0     C99426   2.011   3.855   0.018 -0.5294  0.8871  0.0836
  721MOL0     C99427   2.150   3.886   0.061  0.4871 -0.2891  0.2644
  721MOL0     C99428   2.224   3.985  -0.030 -0.5738  0.1586 -0.1378
  721MOL0     H99429   2.470   4.157   0.394 -1.1566  0.7881 -1.6754
  721MOL0     H99430   2.715   4.234   0.410 -1.0906  0.4124 -0.1782
  721MOL0     H99431   2.999   4.071   0.424 -0.6663  0.3470  0.6569
  721MOL0     H99432   2.932   4.224   0.447 -1.8452 -3.8231  2.1745
  721MOL0     H99433   3.159   4.165   0.254 -1.3194  1.3498 -1.1328
  721MOL0     H99434   3.103   4.330   0.280  0.5967  0.8611  1.5072
  721MOL0     H99435   3.182   4.351   0.486  2.5805  0.3880  1.1378
  721MOL0     H99436   3.211   4.175   0.523 -0.8111  1.4545  0.8786
  721MOL0     H99437   3.392   4.195   0.331  0.6783 -1.0419  0.5817
  721MOL0     H99438   3.369   4.369   0.351  0.2014  0.5285  0.1246
  721MOL0     H99439   3.407   4.202   0.605  0.2362  2.2968  3.0352
  721MOL0     H99440   3.417   4.373   0.574  3.0598  0.4116  2.2748
  721MOL0     H99441   3.639   4.334   0.594 -3.2478  3.4264 -0.3087
  721MOL0     H99442   3.630   4.169   0.517 -1.4252 -1.0537 -0.8606
  721MOL0     H99443   3.653   4.454   0.403 -0.9802 -1.2387  1.8398
  721MOL0     H99444   3.585   4.341   0.292  0.7502  0.0514 -1.2996
  721MOL0     H99445   3.856   4.289   0.414 -0.5853 -0.0560  0.1686
  721MOL0     H99446   3.778   4.208   0.278  0.1180  0.3043 -1.6239
  721MOL0     H99447   3.883   4.577   0.383 -1.1089 -0.8585  0.7288
  721MOL0     H99448   4.022   4.741   0.077 -4.5749 -3.3556  0.7428
  721MOL0     H99449   4.154   4.663   0.165 -0.2913 -0.9740 -0.3409
  721MOL0     H99450   3.912   4.836   0.255  0.1505  1.5103  0.0484
  721MOL0     H99451   4.020   4.778   0.376  0.9243  1.4564  0.2586
  721MOL0     H99452   4.209   4.905   0.236  1.1329  3.5930  0.3745
  721MOL0     H99453   4.061   4.987   0.183 -0.0380  3.2933  2.0405
  721MOL0     H99454   4.148   4.918   0.473 -0.1166  1.4117  1.8753
  721MOL0     H99455   4.198   5.066   0.393 -1.7626  1.5362 -1.9413
  721MOL0     H99456   4.106   5.276   0.378 -1.0529 -1.6010  1.5824
  721MOL0     H99457   3.987   5.527   0.145  1.2095 -4.2359 -2.2601
  721MOL0     H99458   4.121   5.453   0.223  0.6239  0.4303  0.6750
  721MOL0     H99459   4.004   5.565   0.321  2.0325  2.1453 -2.1690
  721MOL0     H99460   3.561   5.676   0.016 -0.3865  2.4358  1.5538
  721MOL0     H99461   3.382   5.825   0.021 -0.7844 -0.5948 -1.2197
  721MOL0     H99462   3.003   5.731   0.279  2.4904 -2.9752 -3.2217
  721MOL0     H99463   3.125   5.807   0.373  2.2757  0.6732 -0.7117
  721MOL0     H99464   3.049   6.029   0.302 -0.1484  0.6251 -2.5798
  721MOL0     H99465   2.958   5.977   0.168  0.3932 -1.0639 -1.2999
  721MOL0     H99466   2.856   5.873   0.434 -0.5002 -0.1697  0.0651
  721MOL0     H99467   2.776   5.876   0.287  0.7826 -2.8055  1.9042
  721MOL0     H99468   2.753   6.113   0.265  0.8426  1.0513  1.4059
  721MOL0     H99469   2.863   6.136   0.399  1.4597  0.9324 -2.9400
  721MOL0     H99470   2.594   5.982   0.416 -1.1968  0.7173 -1.6963
  721MOL0     H99471   2.676   6.047   0.555  0.1257 -0.9511 -0.8679
  721MOL0     H99472   2.584   6.249   0.351 -2.3479  3.5877  1.9717
  721MOL0     H99473   2.665   6.271   0.496  1.0304  0.0279 -0.8798
  721MOL0     H99474   2.479   6.167   0.621  0.4638 -0.7609  0.1400
  721MOL0     H99475   2.390   6.123   0.468  0.0282 -0.6219  0.2580
  721MOL0     H99476   2.393   6.382   0.428  0.0058  0.3088  0.1968
  721MOL0     H99477   2.436   6.398   0.600 -2.5945  0.8797  2.4801
  721MOL0     H99478   3.166   5.569   0.298 -0.6874 -2.4111 -1.3795
  721MOL0     H99479   3.355   5.413   0.292 -0.5510  1.5927  2.8531
  721MOL0     H99480   3.643   5.209   0.221 -0.1790  1.0025 -0.9522
  721MOL0     H99481   3.757   5.030   0.358  0.1613  0.3103  2.8589
  721MOL0     H99482   2.807   3.979   0.087 -5.6209  0.5594 -5.0714
  721MOL0     H99483   2.583   3.898   0.070 -0.9932  0.6134 -0.1143
  721MOL0     H99484   2.181   3.680   0.314  0.2331 -0.4920  0.5594
  721MOL0     H99485   1.959   3.618   0.252 -1.2566  0.4545 -0.9949
  721MOL0     H99486   1.746   3.928   0.128 -2.3805 -0.2211  1.0505
  721MOL0     H99487   1.709   3.894  -0.042  0.0055  1.0092  0.4995
  721MOL0     H99488   1.520   3.762   0.049  0.6516 -1.3155  0.3628
  721MOL0     H99489   1.548   3.927   0.125  2.9032  1.5090 -1.4048
  721MOL0     H99490   1.634   3.660   0.234 -0.7468 -0.7117 -0.4179
  721MOL0     H99491   1.624   3.812   0.331 -0.5420 -2.0877  1.5746
  721MOL0     H99492   1.445   3.646   0.383  4.9725 -1.8897 -0.4406
  721MOL0     H99493   1.394   3.652   0.220 -0.3449 -1.1840  2.4514
  721MOL0     H99494   1.177   3.975   0.354 -0.1187 -0.5794  1.4366
  721MOL0     H99495   1.978   3.900  -0.075 -3.4137 -0.3739  0.3854
  721MOL0     H99496   2.184   4.087  -0.029 -0.3297  0.2570  0.4257
  721MOL0     H99497   2.325   3.994   0.011 -1.2922  1.2508  1.5230
  721MOL0     H99498   2.225   3.946  -0.132 -0.1784 -2.3952  0.7758
  722MOL0     O99499  10.205   9.750   1.181  0.3128  0.4535  0.4301
  722MOL0     C99500  10.152   9.825   1.260 -0.7623  0.1186 -1.0404
  722MOL0     O99501  10.190   9.827   1.397  0.2908  0.0816 -0.2029
  722MOL0     C99502  10.263   9.725   1.446 -1.0130 -0.2859 -0.3910
  722MOL0     C99503  10.218   9.592   1.452 -0.9960 -0.1127 -0.1282
  722MOL0     C99504  10.299   9.488   1.498 -0.1385 -0.1706 -0.4797
  722MOL0     C99505  10.420   9.522   1.561 -0.3555 -0.3777 -0.9458
  722MOL0     O99506  10.496   9.434   1.626 -0.1435  0.3916  0.1235
  722MOL0     C99507  10.487   9.296   1.571  0.0085  0.0555  0.3363
  722MOL0     C99508  10.606   9.219   1.606 -0.4103 -0.9097 -0.2730
  722MOL0     C99509  10.614   9.087   1.534 -0.4910  0.3365  0.5398
  722MOL0     C99510  10.756   9.036   1.566 -0.6889  0.1356 -0.1938
  722MOL0     C99511  10.796   8.915   1.490  0.1159  0.1021 -0.8441
  722MOL0     C99512  10.944   8.871   1.508 -0.1692 -0.3023  0.1355
  722MOL0     C99513  10.945   8.720   1.485  1.2214 -0.5847 -0.5153
  722MOL0     C99514  11.081   8.650   1.511  0.3831  0.7827 -0.8720
  722MOL0     N99515  11.207   8.726   1.479  0.2900  0.1031  0.4086
  722MOL0     C99516  11.271   8.711   1.361  0.1371 -1.1026  0.1455
  722MOL0     C99517  11.398   8.782   1.376  0.8985  0.4398  0.1729
  722MOL0     C99518  11.519   8.779   1.287 -0.8277 -0.4707 -0.2459
  722MOL0     C99519  11.548   8.650   1.205 -0.4886  0.2285  0.6766
  722MOL0     C99520  11.566   8.532   1.303 -0.1223  1.3140 -0.7629
  722MOL0     C99521  11.674   8.548   1.417  0.5144  0.1579 -0.4627
  722MOL0     O99522  11.809   8.572   1.375  1.0216 -0.2569 -0.1548
  722MOL0     C99523  11.904   8.633   1.451  0.6604  0.0202 -1.1062
  722MOL0     C99524  11.921   8.771   1.432  0.0871  0.4425  0.1302
  722MOL0     C99525  12.014   8.851   1.503 -0.2826 -0.5063  0.1135
  722MOL0     C99526  12.044   8.991   1.465  0.1798  0.8875  0.3447
  722MOL0     C99527  12.100   8.788   1.604 -0.5884  0.4625  0.5827
  722MOL0     C99528  12.233   8.834   1.655 -0.6115 -0.1104  0.3033
  722MOL0     O99529  12.302   8.755   1.750  0.1362 -0.0148  0.1194
  722MOL0     C99530  12.440   8.780   1.770  0.1899 -0.0218  0.1100
  722MOL0     C99531  12.535   8.793   1.673  0.6406 -0.3706 -1.1088
  722MOL0     C99532  12.667   8.803   1.695 -0.2599  0.1969 -0.1526
  722MOL0     C99533  12.708   8.804   1.825 -0.0665  1.0197 -0.7434
  722MOL0     O99534  12.835   8.796   1.868 -0.2417  0.5305 -0.9074
  722MOL0     C99535  12.942   8.800   1.776 -0.5891 -0.8853  0.1453
  722MOL0     C99536  13.084   8.804   1.836  1.3128 -0.6638 -0.1465
  722MOL0     C99537  13.121   8.664   1.883 -0.2150 -0.2476 -0.4534
  722MOL0     C99538  13.269   8.661   1.927  1.2027 -1.8644  1.1404
  722MOL0     C99539  13.330   8.522   1.920 -0.5260  0.1665  0.6762
  722MOL0     C99540  13.479   8.521   1.953 -0.9549 -1.1728 -0.1794
  722MOL0     C99541  13.520   8.522   2.095  0.6296 -0.2805 -0.2209
  722MOL0     C99542  13.668   8.531   2.109  0.5891 -0.2498  0.2548
  722MOL0    Cl99543  13.736   8.691   2.081  0.4672 -0.1703  0.1344
  722MOL0     C99544  12.615   8.784   1.930 -0.7094 -0.2154 -0.3147
  722MOL0     C99545  12.477   8.778   1.906  0.2603 -0.2951 -0.5798
  722MOL0     O99546  12.277   8.935   1.608 -0.5155 -0.8525 -0.3870
  722MOL0     C99547  12.067   8.652   1.635  0.3956  0.2775  0.0184
  722MOL0     C99548  11.981   8.570   1.558 -0.0199  0.0301  0.1073
  722MOL0     N99549  11.392   8.834   1.504 -0.4771  0.3017 -0.0100
  722MOL0     N99550  11.278   8.808   1.562 -0.0342  0.3055  0.4838
  722MOL0     C99551  10.466   9.657   1.563 -0.4486  0.4675 -0.1361
  722MOL0     C99552  10.389   9.758   1.511  0.5095  0.8739 -0.0472
  722MOL0     C99553  10.068   9.943   1.217 -0.9464 -0.4346  0.5610
  722MOL0     C99554  10.044  10.046   1.311 -0.8728 -0.4674 -0.2609
  722MOL0     C99555   9.961  10.164   1.274 -0.2441  0.6294  0.5685
  722MOL0     C99556   9.901  10.172   1.150 -0.9481  0.4491  0.7138
  722MOL0     O99557   9.830  10.274   1.095  0.4386 -0.2537  0.1170
  722MOL0     C99558   9.786  10.370   1.191  0.3379 -0.6088  0.1158
  722MOL0     C99559   9.712  10.478   1.122  0.5257 -0.2050 -0.1035
  722MOL0     C99560   9.780  10.519   0.990 -0.3554  0.0282 -0.5386
  722MOL0     C99561   9.724  10.651   0.938 -0.4757 -0.5494  0.6803
  722MOL0     C99562   9.572  10.629   0.906  0.0041  0.7943 -0.0470
  722MOL0     C99563   9.454  10.613   0.869 -0.7444  0.2767 -0.1846
  722MOL0     C99564   9.928  10.067   1.065 -0.0770 -0.0373 -0.6402
  722MOL0     C99565  10.015   9.963   1.086 -0.7135 -1.0346 -0.3214
  722MOL0     C99566  10.041   9.874   0.971 -0.2485 -0.3055  0.1466
  722MOL0     H99567  10.129   9.562   1.398 -1.2693  0.9144 -0.2710
  722MOL0     H99568  10.257   9.389   1.492 -4.5835  1.5142 -1.2306
  722MOL0     H99569  10.467   9.295   1.464 -4.5509  3.4622  0.8257
  722MOL0     H99570  10.401   9.242   1.611 -0.8650  0.2186 -1.2644
  722MOL0     H99571  10.680   9.297   1.585  0.4456 -1.3373  1.0437
  722MOL0     H99572  10.601   9.200   1.714  0.0577 -1.2977 -0.3131
  722MOL0     H99573  10.533   9.018   1.559  2.0628 -3.5628 -1.0714
  722MOL0     H99574  10.603   9.099   1.426  1.3033 -0.9453  0.1607
  722MOL0     H99575  10.829   9.113   1.541 -1.4226  0.9320  0.0715
  722MOL0     H99576  10.770   9.026   1.674  1.1826  2.8267 -0.0831
  722MOL0     H99577  10.774   8.930   1.383 -0.3612 -3.4297 -1.3685
  722MOL0     H99578  10.733   8.836   1.532 -0.1766  0.0586 -1.3573
  722MOL0     H99579  11.017   8.920   1.443  1.2448 -1.0874  1.0654
  722MOL0     H99580  10.973   8.890   1.612  0.3115 -0.7462  0.0890
  722MOL0     H99581  10.926   8.709   1.378 -2.4324 -0.2715 -0.0303
  722MOL0     H99582  10.869   8.663   1.539 -0.8135  1.9773 -0.4201
  722MOL0     H99583  11.076   8.632   1.619 -1.7563  1.5688 -0.7816
  722MOL0     H99584  11.078   8.554   1.460 -1.9017  0.0575  0.4797
  722MOL0     H99585  11.231   8.660   1.274 -1.2389  1.0396 -0.5571
  722MOL0     H99586  11.605   8.798   1.352  1.6000 -1.4601 -2.9518
  722MOL0     H99587  11.516   8.857   1.210 -1.0528  0.1606  0.3912
  722MOL0     H99588  11.470   8.642   1.130 -0.4778  2.2041  0.4008
  722MOL0     H99589  11.640   8.651   1.146 -2.5176 -0.5183 -2.7732
  722MOL0     H99590  11.466   8.515   1.343  1.1397  0.7748  2.4775
  722MOL0     H99591  11.592   8.439   1.252 -1.8078  1.9545 -2.9225
  722MOL0     H99592  11.647   8.627   1.488  1.0412 -0.0106 -0.0715
  722MOL0     H99593  11.675   8.454   1.473  1.0414 -0.2517 -1.1498
  722MOL0     H99594  11.880   8.828   1.350  1.7162  2.4152  0.6190
  722MOL0     H99595  12.131   8.991   1.399  0.3573  0.2824  0.5663
  722MOL0     H99596  12.064   9.051   1.554  1.2418 -0.6236  1.1733
  722MOL0     H99597  11.965   9.040   1.408 -0.0049  2.8513  2.1692
  722MOL0     H99598  12.503   8.808   1.570  0.3703 -0.5433 -1.0497
  722MOL0     H99599  12.741   8.827   1.620 -0.1538 -0.8694 -0.4041
  722MOL0     H99600  12.935   8.715   1.708 -0.6550 -0.6267 -0.1717
  722MOL0     H99601  12.927   8.890   1.715 -0.0683  0.0627  1.3702
  722MOL0     H99602  13.163   8.830   1.765 -0.0703  0.3851 -1.3656
  722MOL0     H99603  13.072   8.875   1.918 -1.9204 -2.3950  1.0681
  722MOL0     H99604  13.111   8.595   1.799 -0.9091 -1.2943  0.4600
  722MOL0     H99605  13.055   8.622   1.959 -0.4645  0.8443 -0.0503
  722MOL0     H99606  13.272   8.713   2.023  0.4135 -1.5983  1.0306
  722MOL0     H99607  13.318   8.734   1.862  0.7661 -0.6630  2.1299
  722MOL0     H99608  13.278   8.464   1.997  0.1394 -2.3641 -0.6569
  722MOL0     H99609  13.309   8.479   1.821 -1.6834 -0.0967  1.0197
  722MOL0     H99610  13.538   8.598   1.902  0.4209 -2.6716 -0.9382
  722MOL0     H99611  13.515   8.429   1.906  0.8419 -0.1912 -0.8071
  722MOL0     H99612  13.491   8.425   2.136  1.3882  0.2205  1.5685
  722MOL0     H99613  13.468   8.597   2.156 -1.5546 -1.2518 -0.7989
  722MOL0     H99614  13.727   8.451   2.064 -1.1203 -1.1732 -0.4504
  722MOL0     H99615  13.693   8.508   2.213  2.0029 -2.0949 -0.4326
  722MOL0     H99616  12.649   8.770   2.032  2.4214 -1.7289 -1.4390
  722MOL0     H99617  12.403   8.773   1.985 -0.0240 -1.4498 -0.9069
  722MOL0     H99618  12.117   8.597   1.714 -3.5198 -2.2214  1.0837
  722MOL0     H99619  11.965   8.466   1.588 -1.1518 -0.0902 -0.8273
  722MOL0     H99620  10.559   9.692   1.607 -1.8645  3.3051  0.8145
  722MOL0     H99621  10.432   9.856   1.526  1.0268  0.7666 -0.8068
  722MOL0     H99622  10.096  10.058   1.405 -1.9438  1.1015  0.1768
  722MOL0     H99623   9.947  10.237   1.353  1.8034  0.4085  1.1961
  722MOL0     H99624   9.719  10.326   1.265 -1.3708  0.1261 -0.9106
  722MOL0     H99625   9.857  10.423   1.255  0.0263  0.2380 -0.2214
  722MOL0     H99626   9.716  10.562   1.192 -0.5500  1.2948 -1.7269
  722MOL0     H99627   9.611  10.441   1.103  0.8982 -0.2358 -2.3745
  722MOL0     H99628   9.887  10.530   1.011 -0.7496  2.8685  0.4795
  722MOL0     H99629   9.761  10.441   0.916  0.0518 -0.4709 -0.1250
  722MOL0     H99630   9.761  10.670   0.836  0.6945 -0.6220  1.0767
  722MOL0     H99631   9.749  10.731   1.008 -0.0287 -0.7798  0.7860
  722MOL0     H99632   9.355  10.586   0.838 -0.4592  0.8764 -1.7197
  722MOL0     H99633   9.870  10.074   0.973  0.2831 -1.7468 -1.0350
  722MOL0     H99634  10.147   9.850   0.959 -0.9581 -3.0742 -1.5444
  722MOL0     H99635   9.985   9.780   0.972 -1.8951  0.6367  1.0517
  722MOL0     H99636  10.023   9.930   0.879 -1.4662 -0.5760  0.2128
  723MOL0     O99637   2.447   2.118   9.788  0.1353  0.0851 -0.1546
  723MOL0     C99638   2.333   2.099   9.830  0.0003 -0.7011  0.8447
  723MOL0     O99639   2.293   2.074   9.961  0.3849 -0.4009  0.4158
  723MOL0     C99640   2.387   2.080  10.064 -0.5105  0.2214 -0.2911
  723MOL0     C99641   2.481   2.183  10.074 -0.9936 -0.0901 -0.3142
  723MOL0     C99642   2.581   2.187  10.175 -0.1325  0.5123  0.1243
  723MOL0     C99643   2.582   2.079  10.273  0.2530 -1.0971 -0.0209
  723MOL0     O99644   2.682   2.080  10.372  0.1207 -0.6752  0.0535
  723MOL0     C99645   2.649   2.013  10.492  0.6468  0.7276 -0.4921
  723MOL0     C99646   2.742   2.057  10.608 -0.4908  0.0463  0.5168
  723MOL0     C99647   2.884   2.016  10.578 -0.2698  0.8237 -0.1241
  723MOL0     C99648   2.982   2.050  10.702  0.7190 -0.4630  0.0184
  723MOL0     C99649   3.125   2.015  10.665  0.0374 -0.0399  0.1355
  723MOL0     C99650   3.199   2.022  10.802  0.0759  0.9654  0.3378
  723MOL0     C99651   3.344   2.005  10.783 -0.2795 -0.0395  0.5718
  723MOL0     C99652   3.406   1.993  10.914  0.9073  0.3479  0.3962
  723MOL0     N99653   3.554   1.983  10.925 -0.3032  0.0013  0.3629
  723MOL0     C99654   3.633   1.881  10.874  0.4845 -0.0911 -0.2640
  723MOL0     C99655   3.761   1.906  10.909  0.7265 -0.5724 -0.0885
  723MOL0     C99656   3.875   1.809  10.868 -0.2988 -0.0423  0.3739
  723MOL0     C99657   3.850   1.681  10.942 -0.2561 -0.2171  0.1655
  723MOL0     C99658   3.937   1.569  10.873 -0.5888  0.5917 -0.2780
  723MOL0     C99659   4.088   1.571  10.917  0.5195 -0.3271 -0.1525
  723MOL0     O99660   4.171   1.572  10.797 -0.2889 -0.1574 -0.9045
  723MOL0     C99661   4.295   1.522  10.818 -1.2004 -0.3398  0.3591
  723MOL0     C99662   4.359   1.493  10.941  0.4091  0.6589 -0.5619
  723MOL0     C99663   4.488   1.438  10.950 -0.1782 -0.1687  1.1367
  723MOL0     C99664   4.549   1.398  11.083 -1.0343  0.0713  0.0134
  723MOL0     C99665   4.558   1.426  10.820 -0.5144 -0.5027 -0.5015
  723MOL0     C99666   4.702   1.384  10.801  1.2316 -0.7382  0.0176
  723MOL0     O99667   4.790   1.403  10.900  0.1473 -0.5902  0.0517
  723MOL0     C99668   4.922   1.388  10.877  0.0859  0.0697  0.1665
  723MOL0     C99669   4.994   1.483  10.802 -0.0773  0.1160  0.0548
  723MOL0     C99670   5.133   1.480  10.805 -0.5131  0.0394 -0.7315
  723MOL0     C99671   5.202   1.376  10.861 -0.3230 -0.5428 -0.1404
  723MOL0     O99672   5.343   1.381  10.869  0.4153  0.6760  0.1952
  723MOL0     C99673   5.416   1.410  10.754 -0.0310 -0.8092  0.4362
  723MOL0     C99674   5.549   1.343  10.738 -1.2317  0.1707  0.3256
  723MOL0     C99675   5.532   1.198  10.695  1.1845 -0.1610  0.7611
  723MOL0     C99676   5.497   1.106  10.808 -0.1890  0.0629  0.3742
  723MOL0     C99677   5.416   0.989  10.760 -0.9882  0.3823  0.7083
  723MOL0     C99678   5.504   0.879  10.685 -0.1761  0.1706 -0.6357
  723MOL0     C99679   5.426   0.754  10.661  0.6803  0.3513  0.3675
  723MOL0     C99680   5.501   0.660  10.553 -0.4035 -0.1983 -0.0807
  723MOL0    Cl99681   5.424   0.490  10.564 -0.1048  0.0386  0.3156
  723MOL0     C99682   5.137   1.283  10.932 -0.3550 -0.1754  0.6075
  723MOL0     C99683   4.999   1.277  10.932 -0.0036  0.1998 -0.6639
  723MOL0     O99684   4.721   1.318  10.699  0.3406 -0.0617 -0.3395
  723MOL0     C99685   4.494   1.456  10.701  0.6209  0.8163  0.0951
  723MOL0     C99686   4.362   1.499  10.695 -0.1443 -0.9412  1.0038
  723MOL0     N99687   3.758   2.022  10.984  0.2777  0.2094 -0.1278
  723MOL0     N99688   3.637   2.075  10.982  0.3646  0.2863 -0.3742
  723MOL0     C99689   2.482   1.981  10.263  0.4420 -0.7793 -0.2803
  723MOL0     C99690   2.391   1.974  10.159  1.0795 -0.2893 -0.6064
  723MOL0     C99691   2.232   2.120   9.718 -0.0490  0.4095 -1.1016
  723MOL0     C99692   2.279   2.179   9.596  0.4950  1.2458  0.1151
  723MOL0     C99693   2.194   2.201   9.495 -0.6120  0.3476 -0.6793
  723MOL0     C99694   2.056   2.170   9.494 -0.8711 -0.2599 -1.1197
  723MOL0     O99695   1.987   2.207   9.383 -0.0290  0.0044 -0.2962
  723MOL0     C99696   1.858   2.154   9.360  0.9501  0.1180  0.6345
  723MOL0     C99697   1.785   2.267   9.287  0.0694  0.4528 -0.2362
  723MOL0     C99698   1.642   2.247   9.260 -0.0043  0.2451  0.6321
  723MOL0     C99699   1.576   2.366   9.182 -1.0116 -0.3964 -0.2568
  723MOL0     C99700   1.433   2.365   9.189  0.4437 -0.7911  0.2163
  723MOL0     C99701   1.313   2.364   9.187  0.3264 -0.4993 -0.1244
  723MOL0     C99702   2.008   2.115   9.616 -0.1243  0.8211  0.3644
  723MOL0     C99703   2.088   2.092   9.728  0.1176 -0.0269  0.1878
  723MOL0     C99704   2.022   2.039   9.847  0.4722  0.4186  0.0664
  723MOL0     H99705   2.470   2.259   9.997 -1.0541 -0.2766 -0.4886
  723MOL0     H99706   2.659   2.261  10.170 -0.2292  0.5656 -3.9599
  723MOL0     H99707   2.653   1.904  10.476 -0.2492  0.8022 -1.3576
  723MOL0     H99708   2.545   2.032  10.520  1.7247  0.9295  4.3315
  723MOL0     H99709   2.747   2.163  10.633 -0.1695 -0.0172  0.7359
  723MOL0     H99710   2.713   2.015  10.705 -2.3205 -2.0692 -0.8352
  723MOL0     H99711   2.879   1.907  10.571  3.0649  0.2689  2.9104
  723MOL0     H99712   2.915   2.058  10.482 -0.3379 -3.3511 -2.1851
  723MOL0     H99713   2.971   2.158  10.715  1.0048 -0.6765  2.4160
  723MOL0     H99714   2.947   1.997  10.791 -1.5416  0.4890 -0.2447
  723MOL0     H99715   3.167   2.094  10.603  2.0779  0.8936  2.5227
  723MOL0     H99716   3.132   1.911  10.631 -2.0562 -1.0833  2.4724
  723MOL0     H99717   3.170   2.108  10.864  0.3398 -0.6649  2.9015
  723MOL0     H99718   3.163   1.941  10.867 -2.1207  1.8813  0.3385
  723MOL0     H99719   3.385   2.089  10.726 -2.5131  1.0446  0.4800
  723MOL0     H99720   3.354   1.911  10.727  0.2452 -0.3036  1.0901
  723MOL0     H99721   3.379   2.084  10.969 -1.7794  0.8520 -1.5804
  723MOL0     H99722   3.379   1.903  10.971  2.1146  1.2665  2.5458
  723MOL0     H99723   3.594   1.803  10.809 -0.0346 -0.3241  0.3184
  723MOL0     H99724   3.973   1.850  10.895 -0.1992 -0.3580  0.4911
  723MOL0     H99725   3.864   1.794  10.761  1.8340 -1.3952  0.3036
  723MOL0     H99726   3.886   1.698  11.044  2.5600 -0.6671 -0.6843
  723MOL0     H99727   3.744   1.655  10.947  0.0822 -1.4649  2.8082
  723MOL0     H99728   3.906   1.466  10.893  1.2439 -0.0860 -0.7372
  723MOL0     H99729   3.924   1.577  10.765 -3.6084  1.8014  0.0575
  723MOL0     H99730   4.110   1.661  10.976 -1.7183  0.0351  0.2305
  723MOL0     H99731   4.098   1.489  10.990 -2.9865 -0.4485  0.3744
  723MOL0     H99732   4.303   1.501  11.033  0.4121 -1.8128 -0.2861
  723MOL0     H99733   4.592   1.298  11.077  0.3188  0.6214  0.2310
  723MOL0     H99734   4.484   1.409  11.171 -0.7473 -1.5603  0.4666
  723MOL0     H99735   4.627   1.470  11.108 -1.8291 -0.0248  3.2478
  723MOL0     H99736   4.940   1.567  10.760 -0.6006 -1.8311 -3.5201
  723MOL0     H99737   5.183   1.562  10.755  1.3165  0.7901  2.0856
  723MOL0     H99738   5.356   1.383  10.667 -0.7483  0.9389  0.3364
  723MOL0     H99739   5.422   1.519  10.748 -1.4918 -0.7897 -4.5924
  723MOL0     H99740   5.589   1.397  10.652  0.1027 -0.5942  0.4374
  723MOL0     H99741   5.617   1.348  10.824 -0.3865 -2.7039 -0.0777
  723MOL0     H99742   5.621   1.153  10.650  0.5673 -0.1996 -0.4463
  723MOL0     H99743   5.452   1.196  10.621 -0.6551 -1.2880  2.6797
  723MOL0     H99744   5.432   1.148  10.886 -2.0935 -1.9494 -0.0153
  723MOL0     H99745   5.592   1.081  10.856  1.1877  3.1057 -0.5378
  723MOL0     H99746   5.376   0.938  10.848 -0.9315 -1.7345 -0.4244
  723MOL0     H99747   5.334   1.028  10.699 -0.3732  2.7630  1.3210
  723MOL0     H99748   5.593   0.853  10.742 -0.3247 -2.3485 -1.4277
  723MOL0     H99749   5.542   0.906  10.587  2.8833 -2.2521 -0.2566
  723MOL0     H99750   5.328   0.773  10.615  1.5066  0.5535 -1.4133
  723MOL0     H99751   5.414   0.699  10.755  1.0972 -0.0031  0.2161
  723MOL0     H99752   5.605   0.648  10.584 -0.4377 -2.1781 -0.5859
  723MOL0     H99753   5.516   0.699  10.452  0.6982  1.4409  0.6743
  723MOL0     H99754   5.201   1.211  10.981  1.4756 -0.1684 -1.5984
  723MOL0     H99755   4.950   1.203  10.994  1.4520  2.3998  3.5743
  723MOL0     H99756   4.542   1.441  10.604  0.3984 -2.1262  0.3638
  723MOL0     H99757   4.302   1.507  10.605 -0.2609 -2.3394  0.9341
  723MOL0     H99758   2.481   1.909  10.344  0.7675 -2.9489 -2.0924
  723MOL0     H99759   2.315   1.896  10.151  0.3766  0.0829  1.7929
  723MOL0     H99760   2.384   2.200   9.581  0.9758 -1.5833 -1.0200
  723MOL0     H99761   2.234   2.231   9.399  1.6712  0.2664  0.1781
  723MOL0     H99762   1.869   2.071   9.290  1.1604  1.0218 -0.4309
  723MOL0     H99763   1.795   2.116   9.442  0.1785 -2.8782 -1.1945
  723MOL0     H99764   1.834   2.297   9.194 -0.2472  2.0053  0.0795
  723MOL0     H99765   1.790   2.356   9.349 -0.0718  0.4780 -0.2592
  723MOL0     H99766   1.630   2.150   9.211 -0.6011  0.8625 -0.4758
  723MOL0     H99767   1.592   2.238   9.357 -3.1326 -0.0147 -0.8627
  723MOL0     H99768   1.604   2.363   9.076 -2.5867 -1.2202 -0.6747
  723MOL0     H99769   1.611   2.461   9.222  0.5550 -0.3971 -1.4984
  723MOL0     H99770   1.206   2.370   9.188  0.2313 -1.4244 -1.5786
  723MOL0     H99771   1.903   2.088   9.620 -0.3248  1.5902  0.4084
  723MOL0     H99772   2.087   1.975   9.907  2.2278 -0.5768 -2.6789
  723MOL0     H99773   2.005   2.130   9.906  2.2440  1.2891 -0.6565
  723MOL0     H99774   1.931   1.985   9.819 -0.2376  2.1464 -1.1159
  724MOL0     O99775   1.577   7.284  10.055 -0.4760 -0.0237 -0.0634
  724MOL0     C99776   1.542   7.277  10.173  0.8207  0.4181  0.2540
  724MOL0     O99777   1.617   7.305  10.281  0.3388 -0.3506  0.1489
  724MOL0     C99778   1.732   7.385  10.271  0.1321  0.6844  0.4959
  724MOL0     C99779   1.832   7.365  10.374 -0.1641 -0.8239 -1.2661
  724MOL0     C99780   1.940   7.452  10.373 -0.1610 -1.0266 -0.6567
  724MOL0     C99781   1.965   7.542  10.266 -1.1600 -0.8922  0.5234
  724MOL0     O99782   2.088   7.611  10.251 -0.5878  0.4180  0.3288
  724MOL0     C99783   2.199   7.562  10.333 -0.4168 -0.3470 -0.2337
  724MOL0     C99784   2.334   7.611  10.263  0.5140  0.0912  0.0036
  724MOL0     C99785   2.346   7.762  10.282  0.8692  0.3274 -0.5996
  724MOL0     C99786   2.392   7.801  10.424 -0.2078 -0.0298 -0.4743
  724MOL0     C99787   2.364   7.959  10.442 -0.1564  0.4321 -0.5674
  724MOL0     C99788   2.443   8.053  10.347  0.4852 -0.3924  0.0425
  724MOL0     C99789   2.406   8.196  10.392 -0.7730  0.6222  0.2484
  724MOL0     C99790   2.439   8.302  10.291 -0.3569 -0.1599  0.6624
  724MOL0     N99791   2.584   8.324  10.271  0.5414 -0.0059 -0.0433
  724MOL0     C99792   2.668   8.255  10.184  0.1782 -0.9807 -0.4058
  724MOL0     C99793   2.794   8.295  10.207  0.8022 -1.0438  0.2146
  724MOL0     C99794   2.909   8.240  10.118  0.0093 -0.2850 -0.2958
  724MOL0     C99795   3.061   8.275  10.164 -0.5767 -0.5665 -0.5862
  724MOL0     C99796   3.163   8.209  10.071  0.5068 -0.3427 -0.4927
  724MOL0     C99797   3.303   8.272  10.077 -0.2288 -0.4976 -0.5324
  724MOL0     O99798   3.386   8.172  10.010 -0.0156 -0.1775  0.4399
  724MOL0     C99799   3.520   8.198   9.996 -0.2617 -0.3725  0.5842
  724MOL0     C99800   3.588   8.099   9.918 -0.2669 -0.1699  0.5204
  724MOL0     C99801   3.725   8.105   9.904 -0.8101 -0.5356 -0.0646
  724MOL0     C99802   3.792   7.993   9.820 -0.3813  0.1474  0.1416
  724MOL0     C99803   3.797   8.206   9.964 -0.1593 -0.3020 -0.3494
  724MOL0     C99804   3.943   8.228   9.939 -0.1856 -0.0180  0.1264
  724MOL0     O99805   3.982   8.355   9.933  0.1578 -0.5097 -0.8245
  724MOL0     C99806   4.114   8.383   9.904  0.0978 -0.2891 -0.9964
  724MOL0     C99807   4.136   8.480   9.805  0.1076 -0.8250  0.9808
  724MOL0     C99808   4.270   8.513   9.760 -1.1043  0.2568  0.1798
  724MOL0     C99809   4.379   8.463   9.829  0.0003 -0.7661 -0.4436
  724MOL0     O99810   4.507   8.487   9.794 -0.4571 -0.4810  0.3480
  724MOL0     C99811   4.538   8.568   9.673 -0.2291 -0.5263  0.0721
  724MOL0     C99812   4.690   8.563   9.650  0.2110  0.4250 -0.1056
  724MOL0     C99813   4.796   8.606   9.760 -0.2488  0.9505 -0.4983
  724MOL0     C99814   4.921   8.672   9.691 -0.1912 -0.5884 -0.1478
  724MOL0     C99815   5.039   8.666   9.796  0.4575 -0.1888  0.1624
  724MOL0     C99816   5.164   8.740   9.762 -0.4260  0.8031 -0.5735
  724MOL0     C99817   5.141   8.884   9.712  0.0932 -0.2139 -0.1975
  724MOL0     C99818   5.265   8.968   9.726 -0.3601 -0.2501 -0.7769
  724MOL0    Cl99819   5.378   8.914   9.596 -0.1486  0.2107 -0.4702
  724MOL0     C99820   4.359   8.368   9.926 -0.4369 -0.0404 -0.0207
  724MOL0     C99821   4.234   8.320   9.964  0.1853  0.1029 -0.4800
  724MOL0     O99822   4.019   8.130   9.927 -1.1389 -0.9139  0.4830
  724MOL0     C99823   3.727   8.304  10.038  0.1239 -0.5154 -0.2522
  724MOL0     C99824   3.586   8.305  10.050  0.0737  0.0727 -0.7044
  724MOL0     N99825   2.777   8.411  10.288  0.1249  1.0881  0.5831
  724MOL0     N99826   2.658   8.420  10.334 -0.2899 -0.3613  0.7557
  724MOL0     C99827   1.877   7.543  10.160  0.9438  0.7483 -0.3900
  724MOL0     C99828   1.756   7.469  10.162 -0.0840 -0.2905 -0.4247
  724MOL0     C99829   1.405   7.213  10.185 -0.3548  0.2573  0.1700
  724MOL0     C99830   1.360   7.209  10.314  0.0523  0.8074 -0.0785
  724MOL0     C99831   1.235   7.156  10.350 -0.2953 -0.8065  0.0794
  724MOL0     C99832   1.156   7.098  10.253  0.1014 -0.4229  0.5312
  724MOL0     O99833   1.026   7.057  10.280  0.0460 -0.0524 -1.0383
  724MOL0     C99834   0.984   6.930  10.225  0.0341 -0.4757  0.2793
  724MOL0     C99835   1.031   6.828  10.332 -0.1126  0.9931 -0.4429
  724MOL0     C99836   0.971   6.867  10.475 -0.2696  0.1826  0.2409
  724MOL0     C99837   0.812   6.854  10.476  0.3003  0.1799  0.2167
  724MOL0     C99838   0.754   6.723  10.474 -0.1742 -0.3466 -0.5606
  724MOL0     C99839   0.689   6.615  10.478 -0.3853  0.3278 -0.6288
  724MOL0     C99840   1.197   7.107  10.118 -0.7354 -0.0461  0.3637
  724MOL0     C99841   1.322   7.165  10.087  0.3991 -0.1187 -0.4229
  724MOL0     C99842   1.362   7.150   9.937 -0.8325 -0.3774 -0.0240
  724MOL0     H99843   1.806   7.297  10.455 -2.2487 -1.2559 -2.2134
  724MOL0     H99844   2.009   7.443  10.456 -0.5272  0.6324 -0.1493
  724MOL0     H99845   2.205   7.454  10.347 -1.0364 -0.5957 -1.6811
  724MOL0     H99846   2.179   7.598  10.435  1.3336 -3.6491  1.4246
  724MOL0     H99847   2.416   7.560  10.315  0.1595  0.8865  1.3713
  724MOL0     H99848   2.350   7.570  10.162  0.8401 -3.5987  1.4018
  724MOL0     H99849   2.412   7.803  10.206  3.5770  1.5931  2.2269
  724MOL0     H99850   2.253   7.817  10.267  1.3910  0.9249 -1.7370
  724MOL0     H99851   2.335   7.748  10.502  2.0933 -4.3534 -1.4438
  724MOL0     H99852   2.493   7.764  10.443 -0.2536  0.1531  0.1769
  724MOL0     H99853   2.380   7.995  10.545 -0.1677  1.3347 -0.8721
  724MOL0     H99854   2.259   7.983  10.424  0.6165  3.6839 -1.4693
  724MOL0     H99855   2.551   8.043  10.362  0.3526 -2.8844 -0.1988
  724MOL0     H99856   2.436   8.023  10.242 -0.0824 -1.2753  0.3213
  724MOL0     H99857   2.454   8.207  10.489 -2.1275 -1.6096  1.2365
  724MOL0     H99858   2.298   8.203  10.407 -0.7450 -2.4844  3.0175
  724MOL0     H99859   2.392   8.262  10.200  2.6009 -0.7006 -0.7372
  724MOL0     H99860   2.392   8.395  10.325 -0.1273  0.3156 -0.2914
  724MOL0     H99861   2.638   8.173  10.120 -1.8617 -1.4263  1.0016
  724MOL0     H99862   2.896   8.274  10.015  3.3850 -1.1027 -1.1064
  724MOL0     H99863   2.912   8.131  10.115 -1.5488 -0.3479 -0.2485
  724MOL0     H99864   3.071   8.384  10.163  0.9426 -0.6776 -0.5916
  724MOL0     H99865   3.074   8.244  10.268  0.3256  0.7645 -0.2761
  724MOL0     H99866   3.171   8.103  10.095 -0.1715  0.0757  1.8096
  724MOL0     H99867   3.134   8.224   9.967  1.0871  1.4277 -0.4388
  724MOL0     H99868   3.309   8.372  10.034 -0.6871  0.0009  0.5281
  724MOL0     H99869   3.324   8.284  10.183  0.3769 -2.0650 -0.4583
  724MOL0     H99870   3.531   8.020   9.870  0.7098  0.1631 -1.2600
  724MOL0     H99871   3.718   7.925   9.777 -0.5114  0.9657 -0.9511
  724MOL0     H99872   3.865   7.941   9.883 -3.1641 -1.4941  2.2962
  724MOL0     H99873   3.836   8.037   9.731  0.1636  2.4149  1.4659
  724MOL0     H99874   4.050   8.519   9.751  1.0946 -0.2355 -0.2209
  724MOL0     H99875   4.280   8.557   9.661  2.5528 -1.8020 -0.5788
  724MOL0     H99876   4.489   8.527   9.584  0.9807  0.5955 -1.1665
  724MOL0     H99877   4.510   8.673   9.684 -0.8571 -0.7061  0.2165
  724MOL0     H99878   4.719   8.462   9.622 -1.0039  0.3164 -1.0804
  724MOL0     H99879   4.699   8.635   9.567 -0.6364  0.7126  0.0417
  724MOL0     H99880   4.834   8.516   9.808  2.9650  1.3233 -2.0547
  724MOL0     H99881   4.763   8.688   9.825  2.8698  1.7545  0.2301
  724MOL0     H99882   4.896   8.776   9.672 -0.4037 -0.1998  1.9890
  724MOL0     H99883   4.955   8.619   9.601  0.2924 -3.1900  1.4325
  724MOL0     H99884   4.991   8.698   9.889 -0.0975 -1.5645  0.3678
  724MOL0     H99885   5.083   8.566   9.807  2.0860  0.3399 -1.0670
  724MOL0     H99886   5.227   8.693   9.686  1.3679  1.5809  0.3544
  724MOL0     H99887   5.219   8.747   9.856  1.7609 -1.1981 -1.5989
  724MOL0     H99888   5.063   8.933   9.770 -1.5105 -2.7505 -0.0636
  724MOL0     H99889   5.115   8.878   9.606  1.6347  0.9450 -0.6910
  724MOL0     H99890   5.309   8.950   9.824  1.7711 -0.4255 -1.7085
  724MOL0     H99891   5.241   9.073   9.709 -2.4453 -0.6411 -0.5598
  724MOL0     H99892   4.441   8.314   9.973 -0.0508  1.7637  1.5112
  724MOL0     H99893   4.212   8.246  10.040 -2.2141 -0.4371 -1.6168
  724MOL0     H99894   3.756   8.405  10.062 -4.8842  0.6049  2.6596
  724MOL0     H99895   3.539   8.386  10.106  1.6160 -0.3592  1.3455
  724MOL0     H99896   1.896   7.617  10.083 -0.5163 -0.4655 -2.0070
  724MOL0     H99897   1.685   7.493  10.084 -0.0765  3.8000  0.5960
  724MOL0     H99898   1.419   7.248  10.396  1.6118  0.2327 -0.8670
  724MOL0     H99899   1.191   7.183  10.445 -1.4191  1.1251 -0.9155
  724MOL0     H99900   0.875   6.936  10.220  0.0617 -0.5830 -0.8544
  724MOL0     H99901   1.022   6.901  10.126  2.5097 -1.9060  1.5656
  724MOL0     H99902   1.141   6.828  10.340  0.1429  5.4190 -1.2887
  724MOL0     H99903   0.992   6.730  10.305 -1.0653  1.4103 -0.6325
  724MOL0     H99904   0.995   6.795  10.554 -2.0723  0.3619  1.0110
  724MOL0     H99905   1.004   6.969  10.498 -0.6434  0.3031  0.2508
  724MOL0     H99906   0.762   6.930  10.416  0.3170  0.2490  0.2902
  724MOL0     H99907   0.798   6.893  10.577  1.8832  2.7943 -0.4864
  724MOL0     H99908   0.628   6.529  10.494  1.4574 -1.2458 -1.6543
  724MOL0     H99909   1.131   7.073  10.039  2.4333 -1.2453 -1.9865
  724MOL0     H99910   1.379   7.248   9.893 -0.0861 -0.4899  0.0139
  724MOL0     H99911   1.459   7.101   9.927 -1.1356 -0.7584 -1.2423
  724MOL0     H99912   1.285   7.101   9.876  0.2790 -0.4001 -1.4534
  725MOL0     O99913   2.888   6.538   9.415 -0.1580 -0.1704 -0.1816
  725MOL0     C99914   2.929   6.453   9.492  0.3760 -0.4808 -0.1219
  725MOL0     O99915   2.885   6.435   9.624  0.1217  0.6937 -0.4482
  725MOL0     C99916   2.798   6.520   9.678  0.1079 -0.4247  0.3236
  725MOL0     C99917   2.706   6.450   9.752 -0.3571 -0.8999 -0.6165
  725MOL0     C99918   2.595   6.524   9.795 -0.4031  0.6071  0.6801
  725MOL0     C99919   2.588   6.663   9.783  0.5418 -0.2845  0.0204
  725MOL0     O99920   2.482   6.731   9.832 -0.0100  0.2622 -0.0916
  725MOL0     C99921   2.433   6.849   9.763  0.5448  0.0312 -0.5792
  725MOL0     C99922   2.286   6.869   9.800  1.0435  0.6639 -0.0193
  725MOL0     C99923   2.204   6.755   9.741 -0.2934  0.5342  0.0405
  725MOL0     C99924   2.120   6.778   9.611 -0.8201 -0.4126 -0.1294
  725MOL0     C99925   2.095   6.645   9.541 -0.9430  0.9130  0.4202
  725MOL0     C99926   1.996   6.682   9.419  0.3535  0.0484 -0.8520
  725MOL0     C99927   1.969   6.561   9.330 -0.1656 -0.1360 -0.1968
  725MOL0     C99928   1.822   6.509   9.344  0.3377  1.4605 -0.4754
  725MOL0     N99929   1.808   6.444   9.477 -0.4424  0.2004 -0.4953
  725MOL0     C99930   1.892   6.336   9.525  0.7026 -0.3377  0.3811
  725MOL0     C99931   1.846   6.304   9.645  0.7750  0.5339  0.0990
  725MOL0     C99932   1.891   6.199   9.732 -0.0799  0.4215  0.2985
  725MOL0     C99933   1.968   6.252   9.859 -0.2385  0.6642 -0.2509
  725MOL0     C99934   2.077   6.355   9.834  0.3585 -0.6861 -0.1383
  725MOL0     C99935   2.150   6.385   9.967  0.1378  0.3463  0.7987
  725MOL0     O99936   2.232   6.275  10.006  0.0873  0.3499 -0.2289
  725MOL0     C99937   2.341   6.307  10.088 -0.1579 -0.1212 -0.8870
  725MOL0     C99938   2.456   6.222  10.072 -0.2743 -0.1232 -0.5780
  725MOL0     C99939   2.574   6.249  10.144 -0.1188  0.1647  0.3297
  725MOL0     C99940   2.681   6.155  10.118 -0.2981  0.0022 -0.2119
  725MOL0     C99941   2.582   6.358  10.233 -0.4343  0.2292  0.1250
  725MOL0     C99942   2.715   6.398  10.292  0.5280  0.9941  0.7502
  725MOL0     O99943   2.826   6.392  10.212  0.0585 -0.1530 -0.0791
  725MOL0     C99944   2.951   6.440  10.253 -0.0475  0.0627 -0.4384
  725MOL0     C99945   2.975   6.546  10.351  0.2798 -0.1446  0.4760
  725MOL0     C99946   3.101   6.569  10.407  0.2198 -0.0926  0.4760
  725MOL0     C99947   3.217   6.513  10.353 -0.0708 -0.4406  0.4113
  725MOL0     O99948   3.342   6.547  10.396 -0.3048 -0.0109 -0.1350
  725MOL0     C99949   3.365   6.631  10.515  0.0995 -0.4156 -0.4969
  725MOL0     C99950   3.508   6.620  10.547  0.4814  0.6970  0.3667
  725MOL0     C99951   3.557   6.710  10.661 -0.0217  0.2665 -0.1647
  725MOL0     C99952   3.705   6.696  10.678 -0.5308  0.3970 -0.5922
  725MOL0     C99953   3.744   6.767  10.804 -0.3497  0.2928  0.1805
  725MOL0     C99954   3.886   6.731  10.849 -0.2073 -0.1487 -0.6170
  725MOL0     C99955   3.913   6.786  10.996 -0.6713 -0.3574  0.0549
  725MOL0     C99956   4.043   6.733  11.063  0.6864 -0.1041  0.2704
  725MOL0    Cl99957   4.189   6.815  10.990  0.0687 -0.1745 -0.3911
  725MOL0     C99958   3.195   6.427  10.245  0.9336 -0.2638  0.1596
  725MOL0     C99959   3.073   6.381  10.207 -0.1102  0.5940  0.3860
  725MOL0     O99960   2.711   6.440  10.405 -0.2611  0.5065 -0.1537
  725MOL0     C99961   2.464   6.440  10.254 -0.2800  0.1454 -0.1515
  725MOL0     C99962   2.344   6.415  10.181  0.6679  0.4182 -1.1866
  725MOL0     N99963   1.735   6.385   9.669  0.0885  0.4523  0.3532
  725MOL0     N99964   1.717   6.464   9.566  0.4386  0.5759  0.3554
  725MOL0     C99965   2.695   6.732   9.725  0.5605 -0.5416 -0.1264
  725MOL0     C99966   2.793   6.663   9.668  0.2494 -0.9240  0.5905
  725MOL0     C99967   3.027   6.351   9.454 -0.9752 -0.8697  0.1564
  725MOL0     C99968   2.980   6.218   9.433  0.5035  0.6177  0.4534
  725MOL0     C99969   3.070   6.119   9.388  0.7775  0.0079  0.1050
  725MOL0     C99970   3.205   6.147   9.367 -0.2570 -0.1225  0.5081
  725MOL0     O99971   3.289   6.048   9.324 -0.3815 -0.1691  0.6234
  725MOL0     C99972   3.337   5.964   9.427 -0.6103  0.8720 -1.1752
  725MOL0     C99973   3.263   5.823   9.420  0.4438  0.1723  0.2031
  725MOL0     C99974   3.316   5.729   9.317 -0.2412 -0.2240  0.0797
  725MOL0     C99975   3.241   5.601   9.300  0.5057  0.1978 -0.1034
  725MOL0     C99976   3.301   5.513   9.189 -0.0668 -0.9407 -0.6639
  725MOL0     C99977   3.342   5.434   9.105 -0.2783  0.2715 -1.1168
  725MOL0     C99978   3.250   6.275   9.389 -0.1768  0.4891  0.0351
  725MOL0     C99979   3.164   6.377   9.433 -0.6096  0.2303 -1.5379
  725MOL0     C99980   3.227   6.520   9.447 -0.3872  0.4995 -0.4229
  725MOL0     H99981   2.723   6.345   9.775 -0.7448 -0.8200  0.0763
  725MOL0     H99982   2.508   6.477   9.840 -0.7453  0.6959  0.1230
  725MOL0     H99983   2.444   6.851   9.654 -3.0482  0.1717 -1.0715
  725MOL0     H99984   2.486   6.931   9.811 -1.1837  0.1425  1.2657
  725MOL0     H99985   2.279   6.853   9.909  1.3308  0.3163 -0.0492
  725MOL0     H99986   2.247   6.969   9.783  0.0240  0.4951  1.1421
  725MOL0     H99987   2.271   6.675   9.708 -0.3226  1.3275 -2.0762
  725MOL0     H99988   2.144   6.706   9.818 -1.3791  1.0283 -0.4679
  725MOL0     H99989   2.026   6.829   9.635 -0.3344  0.0639  0.8368
  725MOL0     H99990   2.179   6.842   9.544 -4.3492  1.2455 -1.9583
  725MOL0     H99991   2.042   6.571   9.601 -0.3213  0.1450  0.0414
  725MOL0     H99992   2.188   6.601   9.503 -0.2916  4.4664 -2.6492
  725MOL0     H99993   1.905   6.730   9.458  0.0692  0.2510 -1.7223
  725MOL0     H99994   2.049   6.764   9.369  1.4419  0.7649  1.3536
  725MOL0     H99995   2.046   6.484   9.345 -0.0377 -0.0698 -0.4962
  725MOL0     H99996   1.974   6.592   9.225 -1.8796  0.0153 -0.2648
  725MOL0     H99997   1.751   6.586   9.314 -1.1390  0.2460 -0.2245
  725MOL0     H99998   1.807   6.427   9.273  0.5850  0.6194  0.4119
  725MOL0     H99999   1.971   6.283   9.473  1.3583 -2.6264  3.4164
  725MOL0     H    0   1.941   6.110   9.693  2.7781  1.5698  1.0980
  725MOL0     H    1   1.800   6.145   9.761  1.3860 -1.7357  1.1674
  725MOL0     H    2   1.892   6.297   9.923 -1.1926 -1.4148  0.1495
  725MOL0     H    3   2.022   6.176   9.916 -0.8488 -0.6551 -1.3672
  725MOL0     H    4   2.150   6.322   9.760 -0.5728 -0.6126 -1.1223
  725MOL0     H    5   2.040   6.451   9.795  1.1000  0.8100  2.6114
  725MOL0     H    6   2.215   6.472   9.956  2.4485 -1.1435  1.8904
  725MOL0     H    7   2.070   6.418  10.034  0.1306  1.6312  0.1952
  725MOL0     H    8   2.453   6.129  10.016 -0.1498 -2.5782  3.2017
  725MOL0     H    9   2.731   6.186  10.025  0.1185  2.4636  0.7571
  725MOL0     H   10   2.646   6.053  10.102  0.2738 -0.1279 -0.6698
  725MOL0     H   11   2.756   6.157  10.197 -0.2284  3.2999 -0.2186
  725MOL0     H   12   2.890   6.611  10.368 -0.0368  0.3191 -2.2822
  725MOL0     H   13   3.103   6.655  10.473  1.2579 -0.1273  0.4957
  725MOL0     H   14   3.340   6.733  10.484 -1.1354 -0.5827 -0.1004
  725MOL0     H   15   3.306   6.598  10.601  0.6438  1.2673  0.5572
  725MOL0     H   16   3.529   6.515  10.566  1.2158  0.6555 -0.6181
  725MOL0     H   17   3.558   6.654  10.456  0.0792  0.7895  0.1777
  725MOL0     H   18   3.511   6.662  10.748 -0.4133 -4.9509 -2.8182
  725MOL0     H   19   3.537   6.817  10.658  3.0921  1.0828  2.3938
  725MOL0     H   20   3.762   6.736  10.594  2.8624  1.2531  1.8825
  725MOL0     H   21   3.739   6.592  10.692  0.3766  0.8505  0.7778
  725MOL0     H   22   3.735   6.873  10.776 -2.1147 -0.3755 -2.0335
  725MOL0     H   23   3.672   6.741  10.883  0.8600  0.8310  1.5226
  725MOL0     H   24   3.962   6.776  10.785 -0.7479  2.4587  0.4544
  725MOL0     H   25   3.895   6.622  10.851  0.5225 -0.0954  0.5037
  725MOL0     H   26   3.825   6.763  11.057  0.1988 -0.0014  1.5094
  725MOL0     H   27   3.913   6.894  11.013 -0.9517 -0.5310  1.3314
  725MOL0     H   28   4.041   6.624  11.062 -3.0211 -0.1919  2.2977
  725MOL0     H   29   4.034   6.754  11.170  3.6614 -1.8421  0.9837
  725MOL0     H   30   3.280   6.372  10.205 -1.1475 -3.4343 -0.2847
  725MOL0     H   31   3.065   6.291  10.147  1.0511 -0.5240  1.8353
  725MOL0     H   32   2.480   6.532  10.309 -2.4528  0.2627  0.3579
  725MOL0     H   33   2.255   6.477  10.193  0.6553 -0.1490  3.5137
  725MOL0     H   34   2.695   6.838   9.701  2.1735 -0.3423  0.6057
  725MOL0     H   35   2.876   6.718   9.625  0.6781 -0.2959  2.1200
  725MOL0     H   36   2.876   6.191   9.449  0.6423 -1.7882 -1.9649
  725MOL0     H   37   3.025   6.023   9.365  0.6316 -0.4029  1.9247
  725MOL0     H   38   3.446   5.954   9.420 -0.3053 -2.2426  3.5196
  725MOL0     H   39   3.321   6.020   9.520  0.3343  0.7103 -0.8977
  725MOL0     H   40   3.157   5.841   9.401 -0.1337  1.5038  3.8097
  725MOL0     H   41   3.272   5.777   9.519 -0.1078  1.4785  0.8866
  725MOL0     H   42   3.319   5.777   9.219 -0.9707 -1.9037 -0.8054
  725MOL0     H   43   3.414   5.696   9.354 -1.2620 -0.4477  2.8853
  725MOL0     H   44   3.142   5.639   9.274  1.1603  0.8760 -1.7506
  725MOL0     H   45   3.239   5.550   9.397  0.0878 -1.7328 -1.0868
  725MOL0     H   46   3.387   5.364   9.038 -0.8268 -2.4260  1.1404
  725MOL0     H   47   3.355   6.298   9.378 -0.0407 -0.0620  0.1796
  725MOL0     H   48   3.175   6.594   9.385  1.5036  1.5165 -0.8453
  725MOL0     H   49   3.212   6.557   9.548  0.6552  1.6135 -0.6640
  725MOL0     H   50   3.334   6.514   9.427 -0.7063 -1.7325 -1.8065
  726MOL0     O   51  10.632  11.103   6.062  0.2845 -0.0828  0.1952
  726MOL0     C   52  10.612  10.996   6.006  0.2213  0.0061  1.0420
  726MOL0     O   53  10.708  10.914   5.953 -0.0491  0.6494  0.0580
  726MOL0     C   54  10.841  10.955   5.943 -0.0595 -1.3763 -0.5182
  726MOL0     C   55  10.906  10.996   5.818  0.3746  0.3061  0.2673
  726MOL0     C   56  11.035  11.038   5.817 -0.2799 -0.4318  0.0362
  726MOL0     C   57  11.106  11.038   5.935 -0.9436  0.5151  0.1736
  726MOL0     O   58  11.236  11.083   5.927  0.2694  0.0859  0.1351
  726MOL0     C   59  11.297  11.139   6.037  0.4557 -0.3395 -0.8145
  726MOL0     C   60  11.436  11.178   5.994 -1.1187  0.0075 -0.2248
  726MOL0     C   61  11.531  11.205   6.114  0.2932 -0.0826  0.2316
  726MOL0     C   62  11.658  11.277   6.059 -0.2470 -0.0417 -0.9899
  726MOL0     C   63  11.747  11.299   6.189 -0.3254 -0.0456 -0.1080
  726MOL0     C   64  11.870  11.381   6.136  0.6019  0.6618 -0.3643
  726MOL0     C   65  11.987  11.389   6.232 -0.9854 -0.3897  0.3042
  726MOL0     C   66  12.074  11.507   6.184 -0.0682  0.4559 -0.4322
  726MOL0     N   67  12.211  11.488   6.245  0.3307  0.6188  0.5671
  726MOL0     C   68  12.246  11.476   6.379 -0.2453  0.2330  0.7372
  726MOL0     C   69  12.381  11.462   6.385  0.5466 -0.3794 -0.2797
  726MOL0     C   70  12.452  11.451   6.522  0.4944 -0.1573  0.4996
  726MOL0     C   71  12.579  11.533   6.526 -0.3620 -0.2822  0.6569
  726MOL0     C   72  12.647  11.529   6.659  0.5244 -0.3947 -0.2677
  726MOL0     C   73  12.772  11.625   6.666 -0.6412  0.0191 -0.1517
  726MOL0     O   74  12.830  11.634   6.799 -0.8370 -0.4339  0.3817
  726MOL0     C   75  12.941  11.712   6.827  1.2107 -0.0061 -0.3422
  726MOL0     C   76  12.991  11.718   6.957  0.1179 -0.6369 -0.2372
  726MOL0     C   77  13.098  11.798   6.998 -0.3918 -0.6382  0.5592
  726MOL0     C   78  13.112  11.798   7.148 -0.7530  0.4226  0.0251
  726MOL0     C   79  13.167  11.876   6.906 -0.2723 -1.0892 -0.0362
  726MOL0     C   80  13.280  11.969   6.946 -0.3582  0.1020  0.0052
  726MOL0     O   81  13.344  12.050   6.847  0.2502 -0.5479 -0.6775
  726MOL0     C   82  13.466  12.112   6.862  0.0547  0.4803  0.3180
  726MOL0     C   83  13.545  12.111   6.971  0.0025 -0.1693  0.1577
  726MOL0     C   84  13.667  12.178   6.973  0.2815 -0.1240  0.5811
  726MOL0     C   85  13.716  12.253   6.862 -0.1929  0.0817 -0.2185
  726MOL0     O   86  13.849  12.296   6.876  0.5299  0.3662 -0.0681
  726MOL0     C   87  13.923  12.314   6.755  0.2689 -0.1220  0.3739
  726MOL0     C   88  14.070  12.336   6.788  0.8495  0.3189 -0.2696
  726MOL0     C   89  14.087  12.479   6.860 -0.7418  0.2666 -0.0163
  726MOL0     C   90  14.237  12.521   6.879 -0.4288  0.4095 -0.3357
  726MOL0     C   91  14.309  12.441   6.983 -0.1391  0.6149  0.0353
  726MOL0     C   92  14.455  12.476   7.022 -0.0647 -0.1595  0.9297
  726MOL0     C   93  14.505  12.445   7.168 -0.9614 -0.2086  0.1197
  726MOL0     C   94  14.658  12.476   7.186 -0.1738  0.6885 -0.4045
  726MOL0    Cl   95  14.688  12.660   7.184 -0.3329  0.0298 -0.7922
  726MOL0     C   96  13.638  12.246   6.746  0.4544  0.3207  0.7922
  726MOL0     C   97  13.507  12.187   6.749 -0.3793  0.0570  0.3253
  726MOL0     O   98  13.321  11.952   7.060 -0.1127  0.3487  0.4156
  726MOL0     C   99  13.110  11.880   6.775 -0.4977 -0.9200 -0.0097
  726MOL0     C  100  12.991  11.806   6.738 -1.0600  0.4114  0.5075
  726MOL0     N  101  12.426  11.486   6.256  0.1938  0.1283  0.8028
  726MOL0     N  102  12.325  11.502   6.167  0.6024  0.6815 -0.0419
  726MOL0     C  103  11.044  11.003   6.057 -0.3742  0.1057 -0.1016
  726MOL0     C  104  10.918  10.952   6.057 -0.1922  0.4427  0.1130
  726MOL0     C  105  10.471  10.950   5.981  0.2374  0.7603 -1.7754
  726MOL0     C  106  10.444  10.813   5.989  0.4530 -0.1884 -0.2267
  726MOL0     C  107  10.310  10.768   5.965  0.0695  0.6163 -0.2304
  726MOL0     C  108  10.207  10.850   5.936 -0.2482  0.2546  0.1719
  726MOL0     O  109  10.083  10.805   5.911  0.6236 -0.4606 -0.2161
  726MOL0     C  110  10.040  10.696   5.986 -0.4926 -0.5112 -0.8864
  726MOL0     C  111   9.890  10.660   5.978  0.1421  0.4856  0.4909
  726MOL0     C  112   9.794  10.770   6.038 -0.6028 -0.3851  0.0063
  726MOL0     C  113   9.661  10.702   6.074  0.0881 -0.0728 -0.2118
  726MOL0     C  114   9.604  10.624   5.966 -1.0384 -0.1076  0.2885
  726MOL0     C  115   9.554  10.579   5.865  0.0716 -0.5181 -0.1090
  726MOL0     C  116  10.237  10.984   5.924  0.3040  0.4215 -0.4437
  726MOL0     C  117  10.367  11.037   5.947  0.5419 -0.2888 -0.4390
  726MOL0     C  118  10.379  11.187   5.930 -0.2462 -0.4824 -0.8183
  726MOL0     H  119  10.849  10.998   5.725  2.1118 -0.4292 -0.8533
  726MOL0     H  120  11.084  11.064   5.724  0.8662 -1.3344  0.3687
  726MOL0     H  121  11.309  11.060   6.111 -0.9318  0.8455  0.7558
  726MOL0     H  122  11.240  11.226   6.071  1.1918 -0.6925  1.4610
  726MOL0     H  123  11.483  11.088   5.952  0.2135 -0.2845  1.7428
  726MOL0     H  124  11.414  11.256   5.921  0.4391  0.6355 -0.0706
  726MOL0     H  125  11.475  11.268   6.183 -0.1565  0.6674 -0.7846
  726MOL0     H  126  11.563  11.117   6.170 -2.1225  0.9120  3.4991
  726MOL0     H  127  11.700  11.211   5.982  1.9091  1.4187 -1.1431
  726MOL0     H  128  11.636  11.375   6.016  1.2937  1.2699  1.0021
  726MOL0     H  129  11.781  11.201   6.227  0.5556  0.1071 -0.4809
  726MOL0     H  130  11.684  11.342   6.268  0.0081 -1.8978  1.2457
  726MOL0     H  131  11.903  11.332   6.044 -3.4202  2.0084 -2.7940
  726MOL0     H  132  11.835  11.483   6.116  0.9185  1.0709  1.0593
  726MOL0     H  133  12.032  11.289   6.227  1.7409  0.7815 -0.1585
  726MOL0     H  134  11.966  11.410   6.337 -0.5872 -0.5367  0.4165
  726MOL0     H  135  12.085  11.502   6.075 -2.6879  1.0488 -0.7966
  726MOL0     H  136  12.027  11.605   6.195 -2.9375 -0.8412 -0.2328
  726MOL0     H  137  12.168  11.468   6.455 -0.4933 -2.7060  0.3082
  726MOL0     H  138  12.482  11.347   6.542  1.6223  0.0093 -0.2041
  726MOL0     H  139  12.382  11.489   6.597 -0.7709  0.6195 -1.0325
  726MOL0     H  140  12.639  11.495   6.442 -0.1905  3.0310 -0.8658
  726MOL0     H  141  12.553  11.634   6.494  0.5683 -1.1964 -3.6025
  726MOL0     H  142  12.573  11.553   6.737  0.8203  2.4288 -0.7319
  726MOL0     H  143  12.697  11.434   6.677  0.3073 -0.5971 -0.7378
  726MOL0     H  144  12.854  11.585   6.604  4.1924  1.5256  4.4831
  726MOL0     H  145  12.746  11.727   6.637  3.4032  2.1593  2.7222
  726MOL0     H  146  12.944  11.669   7.041 -1.1183  3.1325  1.4784
  726MOL0     H  147  13.120  11.903   7.179  0.6817  0.4972 -0.5183
  726MOL0     H  148  13.206  11.749   7.174 -0.1505  1.3888 -0.3034
  726MOL0     H  149  13.035  11.742   7.202 -1.0864  1.7204  0.9519
  726MOL0     H  150  13.516  12.051   7.057 -0.1005 -0.5800 -0.1603
  726MOL0     H  151  13.735  12.185   7.057 -0.7339 -1.1769  1.5193
  726MOL0     H  152  13.908  12.236   6.680 -0.9757  1.2516 -0.8612
  726MOL0     H  153  13.886  12.403   6.704  0.8039  0.2680  0.6478
  726MOL0     H  154  14.114  12.261   6.854 -3.1244  0.4566  2.8818
  726MOL0     H  155  14.129  12.330   6.696  0.0144 -1.9000 -0.7030
  726MOL0     H  156  14.047  12.475   6.962  0.6284  0.2723  0.5413
  726MOL0     H  157  14.033  12.549   6.795  0.2977  0.3062 -0.8590
  726MOL0     H  158  14.248  12.625   6.912 -2.7163  0.7549 -0.5448
  726MOL0     H  159  14.286  12.506   6.782 -0.1329 -0.5560 -0.0458
  726MOL0     H  160  14.261  12.438   7.081  0.6518 -0.6750  0.4096
  726MOL0     H  161  14.308  12.337   6.947 -1.9298  1.2154 -1.8114
  726MOL0     H  162  14.471  12.583   7.007  0.3042 -0.2281  0.8217
  726MOL0     H  163  14.523  12.424   6.953 -1.0802 -0.2284 -0.0562
  726MOL0     H  164  14.498  12.337   7.183  0.8230 -0.4204 -0.2781
  726MOL0     H  165  14.443  12.499   7.241 -0.1766 -1.4854  1.7931
  726MOL0     H  166  14.709  12.426   7.103  1.0681  0.8717  0.2167
  726MOL0     H  167  14.702  12.422   7.270  1.8150  0.6616 -1.4028
  726MOL0     H  168  13.665  12.296   6.654 -0.7440  1.1947  0.8858
  726MOL0     H  169  13.441  12.193   6.663  0.4209  0.0118 -0.2942
  726MOL0     H  170  13.160  11.956   6.715 -2.3388  0.2806 -0.0872
  726MOL0     H  171  12.951  11.819   6.638 -1.2307  1.8525  0.7416
  726MOL0     H  172  11.097  11.022   6.150  1.0404  2.9078 -1.3738
  726MOL0     H  173  10.865  10.931   6.149  0.1464  0.6675  0.3594
  726MOL0     H  174  10.509  10.728   6.000 -0.5563 -1.1532 -1.3292
  726MOL0     H  175  10.298  10.661   5.966 -2.4598  0.8584 -0.0911
  726MOL0     H  176  10.100  10.607   5.964  0.6924  0.0102  0.0920
  726MOL0     H  177  10.066  10.723   6.089 -1.0041  1.6169 -1.2636
  726MOL0     H  178   9.870  10.575   6.043 -0.1762  1.6073  1.9193
  726MOL0     H  179   9.855  10.626   5.880  1.7000  1.1063 -0.3145
  726MOL0     H  180   9.843  10.821   6.121  1.0874 -0.1707 -1.0566
  726MOL0     H  181   9.769  10.839   5.956  1.2181  0.3676  0.0324
  726MOL0     H  182   9.594  10.786   6.094  1.4077  0.5982  1.6493
  726MOL0     H  183   9.668  10.649   6.170 -1.5695 -0.7213 -0.4069
  726MOL0     H  184   9.494  10.542   5.784 -1.3359 -0.9147  1.0616
  726MOL0     H  185  10.160  11.058   5.904 -0.9209 -0.4428  0.8489
  726MOL0     H  186  10.282  11.229   5.903 -1.9755 -3.0762  0.8055
  726MOL0     H  187  10.404  11.226   6.029 -0.4160  1.9338 -1.6731
  726MOL0     H  188  10.449  11.219   5.853 -2.4905 -1.0614 -3.2518
  727MOL0     O  189   6.271   0.427   9.099  0.2973  0.3438  0.7000
  727MOL0     C  190   6.246   0.341   9.176 -0.0698 -0.5985 -0.1507
  727MOL0     O  191   6.344   0.279   9.245 -0.1977  0.1791  0.7013
  727MOL0     C  192   6.478   0.316   9.236  1.1907 -0.0298  0.8632
  727MOL0     C  193   6.562   0.244   9.149 -0.1673 -0.2589 -1.0289
  727MOL0     C  194   6.702   0.269   9.140 -0.0528  0.5239 -0.2873
  727MOL0     C  195   6.759   0.366   9.232  0.8127  0.1257 -0.0282
  727MOL0     O  196   6.899   0.381   9.228 -0.2344 -0.1572  0.0381
  727MOL0     C  197   6.968   0.486   9.297  0.1787  0.5625  0.2898
  727MOL0     C  198   7.117   0.467   9.266  0.1760  0.8721 -0.5327
  727MOL0     C  199   7.170   0.338   9.337  0.0988 -0.0737  0.3666
  727MOL0     C  200   7.323   0.317   9.307 -0.3735  0.1228 -0.7331
  727MOL0     C  201   7.381   0.214   9.403  0.3996 -0.2994  0.3677
  727MOL0     C  202   7.538   0.219   9.399 -0.0993 -0.3922  0.7023
  727MOL0     C  203   7.610   0.122   9.492  0.5846  0.0051 -0.3126
  727MOL0     C  204   7.727   0.187   9.563 -0.4420  0.0821 -0.2050
  727MOL0     N  205   7.791   0.095   9.654  0.2708  0.0757  0.4559
  727MOL0     C  206   7.899   0.015   9.633 -0.8017 -0.6758  0.6621
  727MOL0     C  207   7.919  -0.044   9.749 -0.4676  0.7156  0.3741
  727MOL0     C  208   8.040  -0.128   9.769 -0.0365 -0.5577  0.7253
  727MOL0     C  209   8.161  -0.023   9.786 -1.2650 -0.7966 -0.6018
  727MOL0     C  210   8.140   0.073   9.904 -0.3588 -0.0935  0.2529
  727MOL0     C  211   8.256   0.166   9.927  0.5385  0.6209 -0.2847
  727MOL0     O  212   8.285   0.260   9.835 -0.3152 -0.3484  0.0741
  727MOL0     C  213   8.397   0.336   9.859 -0.8741  0.1683 -0.0308
  727MOL0     C  214   8.414   0.447   9.777  0.2399 -0.2843  0.2750
  727MOL0     C  215   8.509   0.548   9.800 -0.1165  0.5178 -0.1137
  727MOL0     C  216   8.514   0.673   9.711 -0.3384 -0.6127  0.3699
  727MOL0     C  217   8.597   0.537   9.903 -0.2579 -0.3666  0.4137
  727MOL0     C  218   8.708   0.629   9.924 -1.0687  0.7681 -0.2801
  727MOL0     O  219   8.713   0.687  10.052  0.6338  0.2227 -0.2714
  727MOL0     C  220   8.832   0.750  10.070 -0.4079  0.3549 -0.4515
  727MOL0     C  221   8.838   0.889  10.062  0.4188 -0.0914  0.2224
  727MOL0     C  222   8.957   0.950  10.085  0.0143  0.0846 -0.2201
  727MOL0     C  223   9.071   0.878  10.117  0.0457 -0.1427 -0.2953
  727MOL0     O  224   9.183   0.955  10.140 -0.1529  0.0997 -0.7089
  727MOL0     C  225   9.317   0.894  10.135 -0.5802 -0.5131 -0.1349
  727MOL0     C  226   9.425   0.992  10.173 -0.2717  0.5446  0.0521
  727MOL0     C  227   9.567   0.943  10.155  0.0833 -0.2505  0.8516
  727MOL0     C  228   9.670   1.054  10.190  0.0423 -0.2833  0.0427
  727MOL0     C  229   9.815   1.032  10.169  1.1249 -0.6230 -0.4725
  727MOL0     C  230   9.866   0.928  10.269 -0.0183  0.1363  0.0694
  727MOL0     C  231   9.827   0.942  10.423  0.4883 -0.0459  0.0961
  727MOL0     C  232   9.923   0.861  10.507  0.9134  0.4741  0.6463
  727MOL0    Cl  233  10.040   0.986  10.548 -0.1906 -0.4006  0.2168
  727MOL0     C  234   9.073   0.733  10.111  0.8704 -1.2664 -0.9486
  727MOL0     C  235   8.947   0.675  10.097  0.0637  1.2203 -0.2342
  727MOL0     O  236   8.789   0.650   9.831  0.8157 -0.6050 -0.5304
  727MOL0     C  237   8.589   0.419   9.981 -0.2942  0.1192  1.0111
  727MOL0     C  238   8.492   0.320   9.956  0.2801 -0.4711 -0.0958
  727MOL0     N  239   7.827  -0.012   9.842  0.9992 -0.2238  0.5238
  727MOL0     N  240   7.747   0.073   9.778 -0.1385  0.2374 -0.8109
  727MOL0     C  241   6.672   0.436   9.313 -0.2943 -0.4321  0.4737
  727MOL0     C  242   6.531   0.417   9.311 -0.8687 -0.2075  0.1370
  727MOL0     C  243   6.107   0.291   9.171  0.4695 -0.5936 -0.2306
  727MOL0     C  244   6.026   0.300   9.059  0.7196  1.0135  0.2374
  727MOL0     C  245   5.893   0.258   9.060 -0.1174 -0.4053  0.5753
  727MOL0     C  246   5.833   0.198   9.171 -0.2691  0.3084 -0.4400
  727MOL0     O  247   5.708   0.134   9.175 -0.4922  0.3624 -0.4958
  727MOL0     C  248   5.634   0.122   9.056  0.3409 -0.9828  0.6789
  727MOL0     C  249   5.496   0.063   9.076 -0.0434 -0.4788 -0.5528
  727MOL0     C  250   5.415   0.129   9.195 -0.0045  0.0267  0.0483
  727MOL0     C  251   5.266   0.100   9.163 -0.2790  0.1250  0.2884
  727MOL0     C  252   5.201   0.191   9.248  0.2142 -1.1458 -0.5240
  727MOL0     C  253   5.166   0.277   9.333  0.7924  1.3388  0.6551
  727MOL0     C  254   5.903   0.193   9.284 -0.1352  0.2364 -0.0996
  727MOL0     C  255   6.039   0.239   9.288 -0.2877 -0.1079 -0.3965
  727MOL0     C  256   6.121   0.215   9.409 -0.4037  0.6530  0.2119
  727MOL0     H  257   6.508   0.170   9.091  0.4395 -0.3264 -1.5190
  727MOL0     H  258   6.752   0.215   9.060 -1.7166 -0.1425 -0.9215
  727MOL0     H  259   6.943   0.483   9.404  0.4603  2.8477  0.4693
  727MOL0     H  260   6.933   0.581   9.257  0.8016 -0.3368 -2.5813
  727MOL0     H  261   7.119   0.452   9.158  0.1308 -1.7683 -0.2396
  727MOL0     H  262   7.184   0.544   9.303  2.0075 -1.9735  2.6387
  727MOL0     H  263   7.156   0.341   9.446 -1.8757 -0.1212  0.1543
  727MOL0     H  264   7.115   0.252   9.298  0.4314  1.3133 -3.6013
  727MOL0     H  265   7.338   0.285   9.204 -0.0354 -1.1682 -0.3003
  727MOL0     H  266   7.374   0.413   9.320 -0.5664  0.2532 -0.9216
  727MOL0     H  267   7.346   0.111   9.387  0.7798 -0.4843  0.6854
  727MOL0     H  268   7.347   0.249   9.501  0.8401  3.1971 -0.6213
  727MOL0     H  269   7.560   0.197   9.294 -1.9896  1.0538 -0.0472
  727MOL0     H  270   7.570   0.323   9.412 -0.1902 -0.2025 -0.4992
  727MOL0     H  271   7.647   0.034   9.439 -1.5470 -0.5008 -1.0760
  727MOL0     H  272   7.531   0.082   9.556 -0.4805 -0.0773 -1.6331
  727MOL0     H  273   7.804   0.222   9.493  0.7504  0.8074  1.4115
  727MOL0     H  274   7.686   0.276   9.612  0.8998 -0.2027  1.5496
  727MOL0     H  275   7.948   0.003   9.537  1.1206 -0.9069  1.6260
  727MOL0     H  276   8.061  -0.195   9.686  0.3294 -0.9624  1.1377
  727MOL0     H  277   8.022  -0.191   9.856 -0.8684 -2.7277 -0.9525
  727MOL0     H  278   8.255  -0.077   9.799 -0.9674 -0.5262 -1.5435
  727MOL0     H  279   8.167   0.048   9.703 -1.7276  1.9110  1.5236
  727MOL0     H  280   8.041   0.119   9.896 -0.0390  0.2291 -2.5912
  727MOL0     H  281   8.135   0.000   9.986 -0.8232 -0.3771 -0.0220
  727MOL0     H  282   8.228   0.212  10.022 -0.5324  1.2170 -0.8698
  727MOL0     H  283   8.345   0.103   9.938  0.2248  0.5428  2.6835
  727MOL0     H  284   8.351   0.454   9.689  0.9087  2.4632 -0.0968
  727MOL0     H  285   8.415   0.694   9.671 -0.1107 -0.5478 -0.1666
  727MOL0     H  286   8.591   0.675   9.633  0.5218  1.0752  1.1942
  727MOL0     H  287   8.547   0.759   9.770  1.4806  0.2525 -1.7512
  727MOL0     H  288   8.753   0.953  10.039  0.3976  0.8606  2.6712
  727MOL0     H  289   8.960   1.058  10.084  1.5471  0.0801  0.6317
  727MOL0     H  290   9.328   0.820  10.215  1.8656 -1.1313 -0.9537
  727MOL0     H  291   9.328   0.849  10.036 -3.8549 -2.4017  0.1951
  727MOL0     H  292   9.418   1.082  10.111 -0.1511  0.9300  0.5922
  727MOL0     H  293   9.407   1.028  10.275 -0.8443 -1.9046  0.8852
  727MOL0     H  294   9.579   0.920  10.049  1.2785 -0.3265  0.9915
  727MOL0     H  295   9.587   0.861  10.223  0.5650 -2.3776 -1.6900
  727MOL0     H  296   9.651   1.084  10.293  2.2830  2.8804 -0.3299
  727MOL0     H  297   9.651   1.147  10.137 -1.9347  1.8132  3.9874
  727MOL0     H  298   9.834   0.994  10.068  0.9464 -1.0715 -0.3354
  727MOL0     H  299   9.870   1.126  10.185  0.3314 -0.1923 -0.2072
  727MOL0     H  300   9.975   0.921  10.263  0.0494  0.7357  0.6115
  727MOL0     H  301   9.822   0.831  10.245 -1.6712  0.8285  0.1718
  727MOL0     H  302   9.725   0.906  10.442 -0.3145  2.1754  0.2708
  727MOL0     H  303   9.825   1.049  10.446  0.4979 -0.5018  2.5458
  727MOL0     H  304   9.952   0.770  10.454 -1.4693  0.7250 -1.2460
  727MOL0     H  305   9.873   0.827  10.598  0.9774 -1.9686 -0.1672
  727MOL0     H  306   9.155   0.669  10.139  2.8145  1.5248  0.1783
  727MOL0     H  307   8.938   0.570  10.122 -0.5194  1.5852  1.1930
  727MOL0     H  308   8.663   0.395  10.056 -1.5330  1.5446  2.7821
  727MOL0     H  309   8.479   0.235  10.023 -0.2203 -0.5378 -0.2690
  727MOL0     H  310   6.710   0.517   9.375  2.5443 -1.3757  0.1139
  727MOL0     H  311   6.470   0.470   9.384  2.2552  0.7294  2.2726
  727MOL0     H  312   6.067   0.355   8.975 -1.3200  2.8561  0.3430
  727MOL0     H  313   5.832   0.266   8.970 -1.7818 -0.1736  1.6735
  727MOL0     H  314   5.616   0.219   9.009  1.9898 -0.8873  0.1923
  727MOL0     H  315   5.689   0.065   8.981 -0.2557  0.7350 -1.1409
  727MOL0     H  316   5.492  -0.045   9.093 -0.2243 -0.4113 -0.1574
  727MOL0     H  317   5.448   0.072   8.979  1.7394  0.5383 -1.3836
  727MOL0     H  318   5.444   0.081   9.289  1.2451  1.2961  0.3372
  727MOL0     H  319   5.440   0.235   9.206  2.6427 -0.7199  2.5824
  727MOL0     H  320   5.249  -0.005   9.193  0.1246  0.0126  0.1240
  727MOL0     H  321   5.235   0.106   9.059  1.2350 -0.1005 -0.1915
  727MOL0     H  322   5.113   0.344   9.397 -1.1828  0.8268 -0.3788
  727MOL0     H  323   5.846   0.158   9.369 -0.3565 -0.7488 -0.6424
  727MOL0     H  324   6.201   0.140   9.401 -0.6505  0.4507 -0.3992
  727MOL0     H  325   6.174   0.307   9.436  2.9656 -1.5317  1.7830
  727MOL0     H  326   6.053   0.176   9.485  1.3179 -1.5036  0.7580
  728MOL0     O  327   5.672   3.436   5.312 -0.2561 -0.4973  0.2224
  728MOL0     C  328   5.588   3.495   5.242  0.6378  0.6611  0.9161
  728MOL0     O  329   5.548   3.454   5.117 -0.1199  0.4408  0.0270
  728MOL0     C  330   5.592   3.344   5.036 -0.1283  0.3817 -0.3112
  728MOL0     C  331   5.675   3.237   5.083  0.2894  0.0939 -0.7572
  728MOL0     C  332   5.708   3.123   5.000  0.4150 -1.3947  0.6189
  728MOL0     C  333   5.655   3.120   4.873 -0.0861 -0.7577  0.8651
  728MOL0     O  334   5.680   3.021   4.783 -0.1694 -0.0818 -0.2482
  728MOL0     C  335   5.747   2.894   4.815 -0.6141 -0.5181 -0.2680
  728MOL0     C  336   5.801   2.836   4.680 -0.5428  0.1902  0.2156
  728MOL0     C  337   5.922   2.918   4.620 -0.3293 -1.1530 -0.8103
  728MOL0     C  338   5.995   2.824   4.523  0.4746 -0.4107 -0.4250
  728MOL0     C  339   6.087   2.900   4.440  0.3372 -0.4452  0.1383
  728MOL0     C  340   6.162   2.801   4.345 -0.1837  0.4129 -0.1683
  728MOL0     C  341   6.272   2.866   4.268  0.3656 -0.6095 -0.0951
  728MOL0     C  342   6.331   2.777   4.161 -0.1704  0.8727  0.8976
  728MOL0     N  343   6.396   2.659   4.213 -0.1961 -0.7933 -1.0263
  728MOL0     C  344   6.502   2.670   4.301 -0.1204  0.4951  0.0303
  728MOL0     C  345   6.514   2.540   4.353  0.3927 -0.8784  0.8374
  728MOL0     C  346   6.601   2.487   4.459 -0.2491  0.6671 -0.2016
  728MOL0     C  347   6.748   2.472   4.409  0.5555 -0.1212 -0.1211
  728MOL0     C  348   6.833   2.421   4.528 -0.2783 -0.0602 -0.2768
  728MOL0     C  349   6.976   2.391   4.494  0.2191  0.0709  0.6183
  728MOL0     O  350   7.037   2.335   4.611  0.3082  0.8634 -0.2836
  728MOL0     C  351   7.173   2.312   4.590  0.0517  0.4160  0.4123
  728MOL0     C  352   7.243   2.265   4.700 -0.3971 -0.0666 -0.0246
  728MOL0     C  353   7.372   2.222   4.698 -1.0510  0.3967  0.1496
  728MOL0     C  354   7.421   2.167   4.826  0.2472 -0.3063  0.6684
  728MOL0     C  355   7.451   2.210   4.581  0.8069  0.5604 -0.0276
  728MOL0     C  356   7.598   2.170   4.570 -0.5213 -1.2814 -0.2595
  728MOL0     O  357   7.664   2.189   4.453 -1.2099  0.4140  0.4494
  728MOL0     C  358   7.795   2.163   4.447 -0.1880 -1.1889  0.4562
  728MOL0     C  359   7.881   2.269   4.433 -0.0907  0.3508  0.1970
  728MOL0     C  360   8.019   2.245   4.426 -0.0970 -0.6965  0.5992
  728MOL0     C  361   8.064   2.113   4.428 -0.5701  1.1217  0.1081
  728MOL0     O  362   8.203   2.107   4.413  0.1173  0.1737  0.1367
  728MOL0     C  363   8.251   1.971   4.395  0.4303 -0.2159 -0.1739
  728MOL0     C  364   8.399   1.984   4.379  0.6119 -0.1947  0.9804
  728MOL0     C  365   8.475   2.038   4.499  0.2336  0.7213  0.6135
  728MOL0     C  366   8.614   2.073   4.444 -0.8495  0.0529 -0.6265
  728MOL0     C  367   8.701   2.143   4.551 -0.0741  0.2830 -0.2901
  728MOL0     C  368   8.816   2.228   4.490  0.7090 -0.2635 -0.1533
  728MOL0     C  369   8.938   2.147   4.493 -0.0733  0.2023  0.5903
  728MOL0     C  370   9.064   2.218   4.453 -0.9063  0.4334 -0.3689
  728MOL0    Cl  371   9.121   2.288   4.607  0.3102 -0.1210 -0.2186
  728MOL0     C  372   7.975   2.000   4.434  0.2040 -0.9650 -1.2775
  728MOL0     C  373   7.838   2.030   4.437 -0.4372  0.0405 -0.0592
  728MOL0     O  374   7.651   2.106   4.663 -0.6284 -0.6553 -0.1394
  728MOL0     C  375   7.385   2.256   4.465  0.4383 -0.5048 -0.4798
  728MOL0     C  376   7.252   2.313   4.475 -0.1970  0.1656  0.3615
  728MOL0     N  377   6.419   2.457   4.293 -0.3966  0.3062 -0.5837
  728MOL0     N  378   6.347   2.534   4.219  0.3409 -0.0459  0.9617
  728MOL0     C  379   5.583   3.222   4.827  0.1688 -0.1440 -0.3907
  728MOL0     C  380   5.545   3.336   4.905 -0.2610  0.0655 -0.0067
  728MOL0     C  381   5.512   3.611   5.295 -0.2161 -0.6747 -0.5241
  728MOL0     C  382   5.576   3.732   5.303 -0.2708  0.4951  0.8342
  728MOL0     C  383   5.512   3.846   5.345 -0.7128 -0.4142 -0.1455
  728MOL0     C  384   5.371   3.839   5.373 -0.6429  0.7429 -0.9553
  728MOL0     O  385   5.300   3.927   5.435  0.8985  0.3014 -0.7951
  728MOL0     C  386   5.361   4.066   5.437  1.5264  0.3018 -0.0733
  728MOL0     C  387   5.246   4.164   5.468  0.4734  0.1000  0.7335
  728MOL0     C  388   5.119   4.156   5.380 -0.6490 -0.7102  0.7570
  728MOL0     C  389   5.006   4.252   5.428 -0.4387 -0.1488  0.4450
  728MOL0     C  390   5.022   4.379   5.355 -0.6188 -0.4778  0.0123
  728MOL0     C  391   5.025   4.494   5.319 -0.2515  0.2812  0.3774
  728MOL0     C  392   5.305   3.725   5.339  0.2281  0.7482  0.0179
  728MOL0     C  393   5.372   3.602   5.317  0.3007 -0.7550  0.8577
  728MOL0     C  394   5.294   3.465   5.324 -0.0386 -0.0925 -1.1902
  728MOL0     H  395   5.714   3.239   5.184  0.6123  0.9121 -0.8876
  728MOL0     H  396   5.778   3.049   5.037  1.9952 -0.8818 -1.1661
  728MOL0     H  397   5.673   2.829   4.862  0.3403 -0.5568  1.2146
  728MOL0     H  398   5.817   2.921   4.893 -2.6869  0.7703  1.2552
  728MOL0     H  399   5.829   2.735   4.708 -0.0785  0.5739  1.1816
  728MOL0     H  400   5.716   2.829   4.612 -1.5055 -2.8040  1.5816
  728MOL0     H  401   5.888   3.009   4.571  1.8920 -0.6137 -1.4745
  728MOL0     H  402   5.993   2.955   4.695  0.4854 -2.0509 -1.1142
  728MOL0     H  403   6.054   2.744   4.569  0.9812  1.0280  1.5406
  728MOL0     H  404   5.921   2.767   4.466 -0.5352 -0.3278  0.7656
  728MOL0     H  405   6.158   2.953   4.503  0.7108 -1.6911  0.7871
  728MOL0     H  406   6.037   2.969   4.372  2.2222 -0.1641 -1.0448
  728MOL0     H  407   6.206   2.723   4.408 -1.0172  2.1129  2.7275
  728MOL0     H  408   6.091   2.746   4.282 -1.5967 -0.9565  2.4192
  728MOL0     H  409   6.350   2.905   4.334  1.3198 -0.5461 -1.2348
  728MOL0     H  410   6.222   2.947   4.214  2.1400 -0.5737 -1.7976
  728MOL0     H  411   6.251   2.754   4.090 -0.4074  0.4890  1.2888
  728MOL0     H  412   6.406   2.835   4.105  0.7451 -2.2464 -1.3866
  728MOL0     H  413   6.556   2.763   4.308  2.4568 -0.7390 -1.6734
  728MOL0     H  414   6.562   2.390   4.492  0.2525  0.8438  0.9582
  728MOL0     H  415   6.599   2.569   4.532 -0.4427  0.5173 -0.0380
  728MOL0     H  416   6.754   2.403   4.324 -1.1867  0.9827 -1.2185
  728MOL0     H  417   6.779   2.569   4.367 -1.5126  1.1496  1.1329
  728MOL0     H  418   6.824   2.502   4.602 -0.6750  1.3416 -1.8147
  728MOL0     H  419   6.773   2.339   4.567 -1.8393  2.1016  2.2464
  728MOL0     H  420   6.978   2.324   4.408  0.9258  0.6127  0.2083
  728MOL0     H  421   7.029   2.481   4.462 -1.4541  1.1305  0.6509
  728MOL0     H  422   7.185   2.251   4.790  0.0013 -1.3171  0.0619
  728MOL0     H  423   7.467   2.069   4.811 -1.7494 -1.2688  0.6433
  728MOL0     H  424   7.347   2.168   4.907 -0.9147  1.1291 -0.3613
  728MOL0     H  425   7.501   2.232   4.863 -1.1792  1.5003  0.7124
  728MOL0     H  426   7.854   2.374   4.443 -0.4679  0.0321  3.6989
  728MOL0     H  427   8.100   2.316   4.412  0.2524 -0.6006  2.6922
  728MOL0     H  428   8.227   1.899   4.474  0.1666  0.9909  0.8663
  728MOL0     H  429   8.209   1.940   4.299  2.6234 -0.0849 -1.2406
  728MOL0     H  430   8.442   1.890   4.342 -1.6030 -1.3452  1.1481
  728MOL0     H  431   8.418   2.052   4.295  1.1395 -1.4112  0.0856
  728MOL0     H  432   8.480   1.959   4.574 -1.7005  0.1178  0.1591
  728MOL0     H  433   8.428   2.124   4.547  2.2701  1.3458  1.5900
  728MOL0     H  434   8.616   2.141   4.359 -0.5717  2.4200  1.1794
  728MOL0     H  435   8.665   1.981   4.411  0.0482  0.3270 -0.0517
  728MOL0     H  436   8.637   2.214   4.605  1.2848  0.4850  1.1392
  728MOL0     H  437   8.731   2.076   4.632 -1.3823  2.2712  1.9980
  728MOL0     H  438   8.831   2.323   4.542  1.5577 -0.4740  0.0102
  728MOL0     H  439   8.793   2.251   4.385 -1.4554  3.2733  0.8937
  728MOL0     H  440   8.921   2.072   4.416 -3.5250  2.2731 -0.8936
  728MOL0     H  441   8.940   2.090   4.587 -1.3197  1.0193  1.1418
  728MOL0     H  442   9.051   2.297   4.379  0.1903  0.1243 -0.9196
  728MOL0     H  443   9.131   2.139   4.417 -1.8477  0.7397 -2.9532
  728MOL0     H  444   8.013   1.899   4.449 -1.8739 -1.5250  0.9837
  728MOL0     H  445   7.764   1.952   4.441 -0.4921  0.0825 -0.2660
  728MOL0     H  446   7.442   2.259   4.373  1.4238 -2.3580  0.0333
  728MOL0     H  447   7.205   2.345   4.383 -0.8024 -0.1473  0.5574
  728MOL0     H  448   5.548   3.218   4.724 -0.8060  0.1618 -0.0803
  728MOL0     H  449   5.484   3.418   4.867  0.7701  2.2540  2.7675
  728MOL0     H  450   5.680   3.727   5.273 -0.5753 -2.3015  0.0066
  728MOL0     H  451   5.577   3.932   5.360  1.1523 -1.2515 -2.8087
  728MOL0     H  452   5.435   4.064   5.517  0.1415 -2.6840  1.3065
  728MOL0     H  453   5.412   4.100   5.347 -2.4796  4.1125 -1.2706
  728MOL0     H  454   5.291   4.263   5.460  0.0076  0.1433 -2.3629
  728MOL0     H  455   5.218   4.143   5.572 -0.9416  1.2020  0.6062
  728MOL0     H  456   5.139   4.156   5.272 -0.5867 -0.1789  0.7644
  728MOL0     H  457   5.080   4.056   5.403  1.7862 -1.0854  3.7485
  728MOL0     H  458   5.006   4.272   5.535 -3.3471  1.4101  0.2882
  728MOL0     H  459   4.912   4.201   5.403 -2.9556  3.4685  1.5582
  728MOL0     H  460   5.012   4.585   5.264 -1.4015 -0.5904 -0.8553
  728MOL0     H  461   5.200   3.727   5.366  0.0508 -1.2415 -0.3213
  728MOL0     H  462   5.360   3.406   5.388 -1.7191  2.2848  3.1405
  728MOL0     H  463   5.196   3.467   5.371  0.5099  1.0212 -0.0308
  728MOL0     H  464   5.273   3.413   5.230  0.1502 -1.3336 -0.5652
  729MOL0     O  465   7.076   3.734   1.325 -0.0701 -0.1517 -0.2354
  729MOL0     C  466   7.198   3.731   1.342 -0.6174 -0.6878 -0.5968
  729MOL0     O  467   7.262   3.742   1.464 -0.6368 -0.1712  0.2957
  729MOL0     C  468   7.180   3.725   1.570  0.4622 -0.2285  0.2827
  729MOL0     C  469   7.190   3.816   1.672 -0.0932  0.4745  0.1324
  729MOL0     C  470   7.105   3.807   1.785  0.1715 -0.3568  0.2039
  729MOL0     C  471   7.007   3.708   1.790  0.4730  1.0650  0.3707
  729MOL0     O  472   6.902   3.694   1.881 -0.2155 -0.4198 -0.3392
  729MOL0     C  473   6.898   3.777   1.999 -0.2122  0.0029  0.0617
  729MOL0     C  474   6.786   3.715   2.086 -0.0716 -0.3762 -0.5237
  729MOL0     C  475   6.655   3.776   2.036 -1.0083 -0.1230 -0.2531
  729MOL0     C  476   6.538   3.693   2.091 -0.6690 -0.5229  0.2496
  729MOL0     C  477   6.402   3.758   2.044 -0.7127  0.3102  0.0040
  729MOL0     C  478   6.283   3.688   2.113 -0.1688  0.1276  0.5633
  729MOL0     C  479   6.161   3.778   2.108 -0.2666  0.8028  0.3043
  729MOL0     C  480   6.042   3.706   2.162 -0.4963 -0.0529 -0.4699
  729MOL0     N  481   6.031   3.733   2.302  0.3366 -0.0172 -0.0887
  729MOL0     C  482   5.920   3.788   2.366  0.3493 -0.2371  0.5705
  729MOL0     C  483   5.960   3.794   2.494 -0.0612  0.1545 -0.2170
  729MOL0     C  484   5.871   3.847   2.601 -0.2940 -0.1080  0.1824
  729MOL0     C  485   5.795   3.984   2.571 -0.4531 -0.2151 -0.7777
  729MOL0     C  486   5.881   4.103   2.525 -0.5109  0.2582  0.4598
  729MOL0     C  487   5.999   4.122   2.619 -0.2024  0.4333  0.1051
  729MOL0     O  488   6.071   4.244   2.590  0.0574 -0.0649 -0.2767
  729MOL0     C  489   6.180   4.252   2.501 -1.1837 -0.0062 -0.1395
  729MOL0     C  490   6.246   4.136   2.464  0.0995  0.3573  0.0311
  729MOL0     C  491   6.376   4.140   2.406  1.1645  0.2501 -0.6643
  729MOL0     C  492   6.425   4.009   2.376  0.2769 -0.4342  0.0116
  729MOL0     C  493   6.439   4.256   2.374 -0.4469 -0.1134 -0.7718
  729MOL0     C  494   6.572   4.276   2.302  0.5016  0.0490 -0.7195
  729MOL0     O  495   6.665   4.178   2.320 -0.1667  0.6824 -0.2532
  729MOL0     C  496   6.780   4.157   2.254 -0.8999 -0.4261  0.0414
  729MOL0     C  497   6.843   4.246   2.157  0.3863  0.5839  0.3679
  729MOL0     C  498   6.960   4.202   2.094  0.5774 -0.2800 -0.2252
  729MOL0     C  499   7.026   4.087   2.138 -0.1164  0.1987  0.4899
  729MOL0     O  500   7.140   4.060   2.062  0.7090 -0.0798 -0.1220
  729MOL0     C  501   7.248   3.988   2.135  0.1369  0.0673  0.8898
  729MOL0     C  502   7.384   4.027   2.081  0.9257 -0.3708  0.3215
  729MOL0     C  503   7.431   4.175   2.070 -0.1245  0.1730 -0.3410
  729MOL0     C  504   7.418   4.247   2.205  0.7282  0.0896  0.1565
  729MOL0     C  505   7.468   4.390   2.205  0.2026 -0.2625 -0.2616
  729MOL0     C  506   7.373   4.473   2.118  0.9533  0.0528  0.5627
  729MOL0     C  507   7.376   4.623   2.133  0.4815  0.6000 -0.1232
  729MOL0     C  508   7.511   4.681   2.090 -0.5459 -0.6685  0.3431
  729MOL0    Cl  509   7.504   4.860   2.094  0.2278 -0.3885 -0.0014
  729MOL0     C  510   6.967   4.006   2.239 -0.4429 -0.6276 -0.0179
  729MOL0     C  511   6.847   4.046   2.298 -0.8546  0.1870  0.6804
  729MOL0     O  512   6.586   4.372   2.228  0.0971 -0.0207 -0.4124
  729MOL0     C  513   6.371   4.371   2.415  0.3509  0.3122  0.1390
  729MOL0     C  514   6.243   4.374   2.477 -0.3425  0.1864 -0.6113
  729MOL0     N  515   6.084   3.737   2.507 -0.5375 -0.0521 -0.5075
  729MOL0     N  516   6.134   3.707   2.393 -0.2497  0.0318 -0.3662
  729MOL0     C  517   7.016   3.602   1.696 -0.2650 -0.3375  0.7050
  729MOL0     C  518   7.102   3.614   1.583 -0.2424 -0.0426  0.5295
  729MOL0     C  519   7.276   3.731   1.215  0.4109  0.5198  0.2569
  729MOL0     C  520   7.409   3.725   1.230 -0.0253  0.5694  0.0147
  729MOL0     C  521   7.495   3.727   1.123  0.5140  0.1928  0.5372
  729MOL0     C  522   7.447   3.742   0.993  0.1150 -0.1615  0.5294
  729MOL0     O  523   7.531   3.744   0.883 -1.6067 -1.1987 -0.5861
  729MOL0     C  524   7.634   3.839   0.893 -0.1574 -0.1735 -0.3110
  729MOL0     C  525   7.680   3.881   0.748 -0.4935 -1.1298 -0.5987
  729MOL0     C  526   7.735   3.762   0.670 -0.3357  0.2400  0.1271
  729MOL0     C  527   7.784   3.797   0.526 -0.0817 -0.7314  0.1964
  729MOL0     C  528   7.894   3.892   0.532 -0.7261  0.5314 -0.3752
  729MOL0     C  529   7.985   3.973   0.528 -0.2561  0.1649 -0.0113
  729MOL0     C  530   7.315   3.754   0.972  0.1616  0.6709  0.5729
  729MOL0     C  531   7.219   3.737   1.078 -0.0158 -0.9091 -0.2063
  729MOL0     C  532   7.073   3.751   1.045 -0.3868 -0.1171  0.5230
  729MOL0     H  533   7.265   3.895   1.664  1.6096 -1.0307  0.6392
  729MOL0     H  534   7.112   3.879   1.866 -1.4061  0.6346 -0.4944
  729MOL0     H  535   6.872   3.882   1.985  1.5364  0.6303  1.1921
  729MOL0     H  536   6.993   3.774   2.053  0.3663  0.2583 -0.9279
  729MOL0     H  537   6.787   3.607   2.073  1.4186 -0.2169 -2.1067
  729MOL0     H  538   6.806   3.744   2.189 -1.2969  0.0417 -0.3838
  729MOL0     H  539   6.647   3.880   2.069  0.0798 -0.2793  0.5355
  729MOL0     H  540   6.656   3.778   1.926 -2.2301 -0.1030 -0.2761
  729MOL0     H  541   6.538   3.595   2.044 -1.6429  0.4420 -1.9064
  729MOL0     H  542   6.527   3.691   2.200 -0.8886 -1.3174  0.2128
  729MOL0     H  543   6.399   3.764   1.935  4.5965 -0.1410 -0.4063
  729MOL0     H  544   6.409   3.860   2.085  1.0554 -0.1105  0.8509
  729MOL0     H  545   6.263   3.595   2.060 -1.8751  0.3480  0.7384
  729MOL0     H  546   6.306   3.671   2.219  0.2755 -0.2850  0.4014
  729MOL0     H  547   6.149   3.800   2.001  1.9040  1.2036  0.0911
  729MOL0     H  548   6.166   3.871   2.165 -2.3192  0.6741  0.7855
  729MOL0     H  549   5.951   3.747   2.118 -0.3041 -0.6090 -1.4198
  729MOL0     H  550   6.056   3.598   2.151  3.3096 -0.1517  2.8376
  729MOL0     H  551   5.834   3.837   2.321 -1.0597 -1.0999  2.1907
  729MOL0     H  552   5.921   3.846   2.698 -3.1494 -0.9988  1.7547
  729MOL0     H  553   5.792   3.774   2.620  0.3737 -0.8757  0.0824
  729MOL0     H  554   5.730   3.959   2.487 -1.6360 -1.3962  0.4480
  729MOL0     H  555   5.732   4.025   2.650  0.1551  0.2450 -0.5213
  729MOL0     H  556   5.919   4.080   2.425 -0.7095  1.3745  0.1125
  729MOL0     H  557   5.828   4.198   2.511 -1.7111 -0.3381  0.7760
  729MOL0     H  558   5.963   4.143   2.720 -1.2714  0.2568 -0.2237
  729MOL0     H  559   6.063   4.034   2.621 -1.1997 -0.4955 -3.0702
  729MOL0     H  560   6.197   4.041   2.478 -0.6155  0.8390  0.9068
  729MOL0     H  561   6.345   3.936   2.392  0.5489 -1.3145 -2.1869
  729MOL0     H  562   6.503   3.988   2.450  0.8290  2.2368  0.2618
  729MOL0     H  563   6.463   4.001   2.274 -0.4694  0.5609 -0.3594
  729MOL0     H  564   6.805   4.339   2.116  0.6375 -1.0107 -3.9667
  729MOL0     H  565   7.000   4.267   2.017  1.2784 -0.8870 -0.3907
  729MOL0     H  566   7.243   4.017   2.240 -0.0621 -2.2425  1.5741
  729MOL0     H  567   7.228   3.881   2.124  0.7018  0.2217 -2.6339
  729MOL0     H  568   7.468   3.982   2.133  1.4711  1.8122  1.4613
  729MOL0     H  569   7.387   3.983   1.980 -1.1183 -1.2571  0.5868
  729MOL0     H  570   7.374   4.230   1.995 -0.0151 -1.1671 -1.4404
  729MOL0     H  571   7.538   4.174   2.046 -0.4521 -2.5084 -2.0576
  729MOL0     H  572   7.477   4.192   2.279 -1.1146 -1.2359  0.7266
  729MOL0     H  573   7.310   4.247   2.227  1.0953 -2.4599  2.5023
  729MOL0     H  574   7.460   4.412   2.312 -0.7683  0.4359 -0.4582
  729MOL0     H  575   7.572   4.398   2.172  0.6164 -4.3930 -0.4575
  729MOL0     H  576   7.269   4.450   2.140  0.6907  0.0624 -0.6146
  729MOL0     H  577   7.391   4.448   2.013 -0.9084  0.7220  0.0527
  729MOL0     H  578   7.362   4.648   2.239  0.7934  0.9452 -0.1610
  729MOL0     H  579   7.298   4.670   2.073 -0.0067  0.1630  0.1642
  729MOL0     H  580   7.547   4.648   1.992  0.4190 -2.7183  1.3120
  729MOL0     H  581   7.597   4.647   2.149  2.7465  3.9575 -1.2373
  729MOL0     H  582   7.012   3.911   2.266 -0.1766 -0.6227 -0.4316
  729MOL0     H  583   6.789   3.968   2.347 -0.4940 -0.1363  0.6052
  729MOL0     H  584   6.417   4.469   2.411 -1.6481  1.3778  1.7897
  729MOL0     H  585   6.207   4.470   2.514  2.3152  1.4253 -1.0556
  729MOL0     H  586   6.968   3.505   1.705  2.3451 -1.5483  3.3504
  729MOL0     H  587   7.107   3.529   1.515  0.7732  0.0471  0.4904
  729MOL0     H  588   7.460   3.725   1.326  0.1977 -0.6166 -0.0827
  729MOL0     H  589   7.603   3.727   1.126  0.7076 -3.5350 -0.9385
  729MOL0     H  590   7.597   3.924   0.950  2.9630  1.8069 -0.9682
  729MOL0     H  591   7.725   3.792   0.932 -0.2844  0.7290  1.0993
  729MOL0     H  592   7.761   3.954   0.757 -0.3673 -1.2053 -1.0966
  729MOL0     H  593   7.600   3.930   0.692  0.0782 -0.0597 -0.5053
  729MOL0     H  594   7.815   3.710   0.724  1.3951  0.5652 -1.9940
  729MOL0     H  595   7.654   3.689   0.656  0.9569 -2.0342  3.2860
  729MOL0     H  596   7.701   3.819   0.458 -1.4327 -3.4579  0.8050
  729MOL0     H  597   7.834   3.705   0.496  3.7518  0.6570  1.6884
  729MOL0     H  598   8.062   4.047   0.526 -0.9723  0.9772  0.8574
  729MOL0     H  599   7.289   3.775   0.869 -0.1291  1.8882  0.8733
  729MOL0     H  600   7.026   3.659   1.082  0.6155 -1.0900 -0.5439
  729MOL0     H  601   7.028   3.839   1.092 -1.4705 -2.0897  3.5013
  729MOL0     H  602   7.065   3.746   0.936  0.0253  2.0190  0.3580
  730MOL0     O  603   3.751   6.673   5.992  0.1753  0.2605  0.3268
  730MOL0     C  604   3.724   6.761   6.071  0.7999 -0.7895 -0.3469
  730MOL0     O  605   3.799   6.795   6.175  0.7258  0.2691 -0.7282
  730MOL0     C  606   3.911   6.714   6.208  0.0812 -0.0987 -0.8170
  730MOL0     C  607   4.037   6.738   6.144 -0.9261  0.0111 -0.1566
  730MOL0     C  608   4.159   6.666   6.183  0.6999 -0.0041 -0.9483
  730MOL0     C  609   4.154   6.556   6.266  0.6919 -0.4843 -1.0967
  730MOL0     O  610   4.264   6.492   6.322 -0.8468 -0.9230  0.5563
  730MOL0     C  611   4.262   6.350   6.331  0.6902  0.0198  0.8944
  730MOL0     C  612   4.353   6.310   6.447  0.6559 -0.2375 -0.1226
  730MOL0     C  613   4.504   6.333   6.414 -0.2865  0.0102 -0.2191
  730MOL0     C  614   4.601   6.266   6.519  0.7948 -0.9151  0.2836
  730MOL0     C  615   4.747   6.297   6.468 -0.4049  0.8888  0.2399
  730MOL0     C  616   4.860   6.197   6.514  0.2673 -0.8144  0.1065
  730MOL0     C  617   4.904   6.219   6.662  0.2034 -0.2133  0.2376
  730MOL0     C  618   5.029   6.136   6.706  0.7808 -0.3600  0.2733
  730MOL0     N  619   5.149   6.213   6.693  0.0152 -0.5985 -0.2239
  730MOL0     C  620   5.191   6.257   6.569  0.1578 -0.8520  0.6960
  730MOL0     C  621   5.325   6.281   6.593  0.2020 -0.4970  0.8908
  730MOL0     C  622   5.425   6.332   6.487  0.3426  0.2701  0.4194
  730MOL0     C  623   5.503   6.221   6.419 -0.5718  0.7294  0.3061
  730MOL0     C  624   5.601   6.267   6.313  0.2914 -0.0805  0.4681
  730MOL0     C  625   5.700   6.164   6.258 -0.3094 -0.2866 -0.7302
  730MOL0     O  626   5.788   6.105   6.359  0.4094 -0.3022  0.1717
  730MOL0     C  627   5.907   6.061   6.331 -0.2761  0.7960  0.0642
  730MOL0     C  628   5.921   5.975   6.219 -0.4593 -0.8841 -0.3479
  730MOL0     C  629   6.051   5.924   6.182 -0.2657 -0.2808 -0.2103
  730MOL0     C  630   6.053   5.832   6.065  0.1112 -0.7794 -0.8083
  730MOL0     C  631   6.165   5.952   6.268  0.2861 -0.5904  0.3715
  730MOL0     C  632   6.301   5.898   6.253  0.5664 -0.7046  0.5018
  730MOL0     O  633   6.386   5.913   6.361  0.4951  1.1007 -0.3443
  730MOL0     C  634   6.488   5.829   6.360 -1.1367 -1.0664  0.0086
  730MOL0     C  635   6.615   5.893   6.372 -0.2240  0.2073  0.9805
  730MOL0     C  636   6.737   5.824   6.380 -0.2180 -0.5611 -0.0606
  730MOL0     C  637   6.742   5.689   6.390  0.7947 -0.0725 -0.2618
  730MOL0     O  638   6.843   5.605   6.394 -0.4466 -0.0470 -0.3443
  730MOL0     C  639   6.967   5.660   6.456  0.4614 -0.6049 -0.5436
  730MOL0     C  640   7.081   5.562   6.435  0.7253  0.4591 -0.4664
  730MOL0     C  641   7.213   5.624   6.493 -0.2719  0.3726  0.4869
  730MOL0     C  642   7.333   5.526   6.495 -0.5443  0.1540 -0.0525
  730MOL0     C  643   7.403   5.499   6.363 -0.8027  0.4818  0.1247
  730MOL0     C  644   7.529   5.414   6.371  1.2625  0.1583  0.0780
  730MOL0     C  645   7.589   5.418   6.234  1.3961  0.4360  0.1262
  730MOL0     C  646   7.726   5.346   6.228  0.1705 -0.1238 -0.7460
  730MOL0    Cl  647   7.709   5.168   6.226 -0.0405  0.2586 -0.1347
  730MOL0     C  648   6.613   5.621   6.380 -0.1013  0.5169  0.1601
  730MOL0     C  649   6.487   5.691   6.357 -0.0596  0.6817 -0.2541
  730MOL0     O  650   6.327   5.850   6.144 -0.2246  0.4323 -0.4705
  730MOL0     C  651   6.141   6.035   6.382 -0.2805  1.3044 -0.7024
  730MOL0     C  652   6.016   6.098   6.411 -0.4548  0.3001 -0.3749
  730MOL0     N  653   5.365   6.248   6.725 -0.0981 -0.0465  0.0279
  730MOL0     N  654   5.259   6.208   6.786  0.1258  0.1787 -0.0015
  730MOL0     C  655   4.023   6.540   6.325 -0.8591 -0.2016 -1.0219
  730MOL0     C  656   3.906   6.623   6.314  0.1545  0.5847  0.9808
  730MOL0     C  657   3.598   6.838   6.048 -0.2708  0.8322 -0.3654
  730MOL0     C  658   3.487   6.767   5.999  0.2786 -0.4710 -0.5669
  730MOL0     C  659   3.360   6.825   5.997  0.2612 -0.3232 -0.3276
  730MOL0     C  660   3.342   6.960   6.030 -0.4338  0.3890  0.7106
  730MOL0     O  661   3.230   7.041   6.018 -0.1344  0.0132 -0.1194
  730MOL0     C  662   3.105   6.998   5.973 -0.2004  0.8280  0.2862
  730MOL0     C  663   2.999   7.106   5.986  0.5252  0.0095 -0.2499
  730MOL0     C  664   2.852   7.062   5.951  0.3595  0.7245 -0.3171
  730MOL0     C  665   2.758   7.165   6.008  0.1802 -0.0932 -0.6514
  730MOL0     C  666   2.624   7.128   5.978  0.5254 -0.3662  0.2571
  730MOL0     C  667   2.506   7.097   5.963  0.1136  0.1798 -0.4233
  730MOL0     C  668   3.451   7.028   6.085 -0.3488  0.0530  0.5308
  730MOL0     C  669   3.580   6.974   6.095  0.5274  0.1672  0.1278
  730MOL0     C  670   3.685   7.057   6.161 -0.4109  0.0429 -0.2265
  730MOL0     H  671   4.054   6.827   6.083  1.0687  0.5154  1.0349
  730MOL0     H  672   4.249   6.697   6.130  0.1610  0.2656 -1.7245
  730MOL0     H  673   4.289   6.304   6.236 -1.6126 -0.2322  0.3136
  730MOL0     H  674   4.164   6.320   6.370 -1.2342  3.0099 -1.1946
  730MOL0     H  675   4.337   6.362   6.542 -0.0615 -3.1144  1.4374
  730MOL0     H  676   4.332   6.204   6.467 -2.6942  0.2404 -0.5309
  730MOL0     H  677   4.528   6.293   6.315  0.4038  0.9730 -0.4510
  730MOL0     H  678   4.519   6.441   6.412 -1.0224  0.1085 -0.5706
  730MOL0     H  679   4.583   6.320   6.612 -2.1188  0.4522 -0.9445
  730MOL0     H  680   4.578   6.160   6.535 -2.5574 -0.4849 -0.9432
  730MOL0     H  681   4.771   6.393   6.513 -1.9814  2.1778 -1.5270
  730MOL0     H  682   4.744   6.302   6.359 -2.0897  3.0831  0.3149
  730MOL0     H  683   4.826   6.094   6.497 -0.1851 -0.2477 -2.9372
  730MOL0     H  684   4.944   6.207   6.446  0.6614 -1.0732  0.5498
  730MOL0     H  685   4.820   6.199   6.729  0.6230 -0.1355  0.7931
  730MOL0     H  686   4.931   6.322   6.684 -0.1490 -0.5198  2.2962
  730MOL0     H  687   5.017   6.104   6.809  0.8381 -0.6561  0.1874
  730MOL0     H  688   5.038   6.045   6.646 -0.5037 -1.4999  1.7278
  730MOL0     H  689   5.135   6.268   6.477  3.7968  0.5258 -1.5726
  730MOL0     H  690   5.497   6.397   6.537  0.3336  1.4620 -1.0370
  730MOL0     H  691   5.361   6.396   6.425 -1.6963 -0.4731  1.6369
  730MOL0     H  692   5.566   6.173   6.496 -1.2535 -0.7395 -0.0209
  730MOL0     H  693   5.424   6.156   6.380  0.1956  1.2240 -2.2383
  730MOL0     H  694   5.548   6.317   6.231  0.5854 -0.6697 -0.0961
  730MOL0     H  695   5.659   6.345   6.361 -1.4005 -0.2593  2.9687
  730MOL0     H  696   5.652   6.079   6.209 -0.4415  1.3508 -3.6840
  730MOL0     H  697   5.757   6.214   6.179 -0.0547  0.4679 -0.0970
  730MOL0     H  698   5.840   5.939   6.157  0.6911 -0.8624 -1.9112
  730MOL0     H  699   5.953   5.815   6.026 -0.9287  1.0867  0.8488
  730MOL0     H  700   6.111   5.741   6.084 -1.6992 -1.5029  1.9266
  730MOL0     H  701   6.103   5.892   5.989  0.2658 -1.0056 -0.8870
  730MOL0     H  702   6.614   6.002   6.377 -1.6160  0.1887  1.3507
  730MOL0     H  703   6.828   5.883   6.379  0.0904 -1.0009 -1.7027
  730MOL0     H  704   6.993   5.744   6.391  1.1626 -1.6634 -1.6709
  730MOL0     H  705   6.960   5.678   6.564  1.5005 -1.1280 -0.3811
  730MOL0     H  706   7.048   5.470   6.483 -0.1234  0.1296 -1.6509
  730MOL0     H  707   7.096   5.554   6.327 -1.1119  2.4280 -0.9606
  730MOL0     H  708   7.197   5.644   6.600 -1.1929  0.3571  0.3608
  730MOL0     H  709   7.246   5.716   6.444  1.4555  0.6940  2.1303
  730MOL0     H  710   7.306   5.431   6.541  0.9615 -0.2687  0.0131
  730MOL0     H  711   7.412   5.565   6.561 -1.1345 -2.8778  2.6750
  730MOL0     H  712   7.334   5.452   6.292 -2.4151  2.4205  0.3005
  730MOL0     H  713   7.427   5.594   6.313  0.5480 -0.7936 -1.7896
  730MOL0     H  714   7.496   5.315   6.403 -2.0059  1.2969  0.6417
  730MOL0     H  715   7.608   5.453   6.437  1.3113  0.0735  0.0683
  730MOL0     H  716   7.619   5.519   6.206 -0.3422  0.8248 -0.4337
  730MOL0     H  717   7.516   5.382   6.161  2.0970 -0.0892 -0.3223
  730MOL0     H  718   7.784   5.383   6.313 -0.2587  2.1749 -1.3997
  730MOL0     H  719   7.787   5.377   6.142  0.0990 -2.1947 -1.5986
  730MOL0     H  720   6.620   5.513   6.383 -0.6827  0.4765  0.2155
  730MOL0     H  721   6.393   5.638   6.359 -0.4002  1.2068 -1.5778
  730MOL0     H  722   6.220   6.052   6.455 -0.6735 -2.1938  0.7416
  730MOL0     H  723   6.006   6.160   6.499  2.2485 -1.2159  1.1017
  730MOL0     H  724   4.020   6.462   6.401  2.4341  1.3364  0.8991
  730MOL0     H  725   3.812   6.595   6.360  0.0280 -1.2351 -0.2427
  730MOL0     H  726   3.510   6.667   5.962  1.7631 -0.1263 -0.6376
  730MOL0     H  727   3.275   6.769   5.959 -1.5604  2.4115 -0.5375
  730MOL0     H  728   3.116   6.974   5.866  2.8627  0.4010  0.5949
  730MOL0     H  729   3.070   6.911   6.029  0.9977 -0.8981 -1.4882
  730MOL0     H  730   3.032   7.188   5.921 -2.2505  0.1212 -1.6706
  730MOL0     H  731   3.009   7.143   6.088  1.1846 -2.1082  0.4933
  730MOL0     H  732   2.835   7.051   5.843 -0.4324 -3.1110  0.0907
  730MOL0     H  733   2.821   6.965   5.990  1.3295  1.2159  1.8270
  730MOL0     H  734   2.773   7.268   5.972 -1.1425  0.6492  0.8180
  730MOL0     H  735   2.784   7.165   6.114  0.1341 -2.2238 -0.5950
  730MOL0     H  736   2.410   7.062   5.932  1.3224 -0.3755 -4.1028
  730MOL0     H  737   3.445   7.134   6.108  0.5795  1.0069 -2.9352
  730MOL0     H  738   3.659   7.054   6.267 -4.2109  1.1326 -0.9825
  730MOL0     H  739   3.791   7.029   6.149 -0.3628 -0.2662  0.8343
  730MOL0     H  740   3.683   7.154   6.110  0.3883  0.0349 -0.2892
  731MOL0     O  741   1.720   3.395   8.880 -0.6349 -0.0888  0.1093
  731MOL0     C  742   1.692   3.512   8.915  0.0730  0.1067  0.3190
  731MOL0     O  743   1.786   3.606   8.958  0.0102 -0.2918  0.0450
  731MOL0     C  744   1.920   3.598   8.929  0.7499  0.9690 -0.3071
  731MOL0     C  745   1.976   3.568   8.809  0.2195  0.9384 -0.1475
  731MOL0     C  746   2.116   3.563   8.785  0.4178  0.2959  0.3423
  731MOL0     C  747   2.207   3.594   8.887  0.7981 -0.1817 -0.1273
  731MOL0     O  748   2.337   3.610   8.873 -0.3273  0.9428  0.0978
  731MOL0     C  749   2.418   3.496   8.830  0.0942  0.0808  0.1837
  731MOL0     C  750   2.560   3.532   8.792  0.3903 -0.2800  0.1788
  731MOL0     C  751   2.571   3.626   8.669  0.1255  0.1352 -0.4227
  731MOL0     C  752   2.713   3.671   8.639  0.0973  0.3222  0.3411
  731MOL0     C  753   2.701   3.761   8.511  0.3052 -0.6277 -0.8399
  731MOL0     C  754   2.835   3.829   8.484  0.3051  0.0365 -0.7037
  731MOL0     C  755   2.816   3.903   8.356 -0.1564 -1.3490  0.1075
  731MOL0     C  756   2.941   3.966   8.289  0.0443  0.2301  0.4479
  731MOL0     N  757   3.050   3.867   8.269  0.1066  0.0663 -0.6189
  731MOL0     C  758   3.164   3.856   8.335 -0.4332 -0.3902 -0.5451
  731MOL0     C  759   3.243   3.783   8.252  0.4127  0.0316  0.0934
  731MOL0     C  760   3.387   3.741   8.286 -0.7609  0.2967 -0.1961
  731MOL0     C  761   3.488   3.851   8.258  0.1446 -0.6801  0.0908
  731MOL0     C  762   3.497   3.900   8.104 -0.4819 -0.2496  0.2719
  731MOL0     C  763   3.402   4.019   8.069  0.4915 -0.2962  1.1798
  731MOL0     O  764   3.452   4.096   7.954 -0.5641  0.1781  0.7245
  731MOL0     C  765   3.545   4.191   7.972  0.1708  0.2090 -0.4918
  731MOL0     C  766   3.554   4.280   7.866  1.1809  0.7707 -0.7400
  731MOL0     C  767   3.652   4.377   7.849 -0.7207 -0.1604  0.2161
  731MOL0     C  768   3.656   4.449   7.713 -0.5060 -0.1997 -0.3107
  731MOL0     C  769   3.753   4.376   7.951  0.2216 -0.2583 -0.0564
  731MOL0     C  770   3.863   4.481   7.953  0.1145 -0.2232 -0.0274
  731MOL0     O  771   3.958   4.472   8.052 -0.0836 -0.2538 -0.7631
  731MOL0     C  772   4.065   4.555   8.057 -0.1685 -0.6346  0.6565
  731MOL0     C  773   4.117   4.578   8.179 -0.5363 -0.3764 -0.0773
  731MOL0     C  774   4.241   4.650   8.192  0.6361  0.1450 -0.7381
  731MOL0     C  775   4.310   4.701   8.086 -0.1892 -0.5761  0.4892
  731MOL0     O  776   4.424   4.792   8.114 -0.1101 -0.3013 -0.1414
  731MOL0     C  777   4.517   4.841   8.014 -0.1894 -0.3807 -0.4996
  731MOL0     C  778   4.659   4.868   8.074 -0.1434  0.3155 -0.6533
  731MOL0     C  779   4.775   4.822   7.978 -0.3736 -0.2846  0.7038
  731MOL0     C  780   4.913   4.882   8.019  0.4978 -0.3479 -0.3525
  731MOL0     C  781   5.032   4.843   7.932 -0.5607  0.6793 -0.8870
  731MOL0     C  782   5.149   4.930   7.960 -0.1354  0.7459 -1.0198
  731MOL0     C  783   5.278   4.897   7.892  0.0480 -0.7867  0.7123
  731MOL0     C  784   5.381   5.016   7.865  0.8436 -0.5173  0.1455
  731MOL0    Cl  785   5.503   4.974   7.746 -0.0969  0.0269  0.0661
  731MOL0     C  786   4.261   4.679   7.961 -0.2821 -0.0921  0.2173
  731MOL0     C  787   4.140   4.606   7.946  0.6038 -0.4857  0.1634
  731MOL0     O  788   3.867   4.560   7.861 -0.2504  0.0690 -0.1464
  731MOL0     C  789   3.742   4.291   8.071  0.4252  0.0026 -0.3620
  731MOL0     C  790   3.639   4.198   8.070 -0.1251  0.0893 -1.0280
  731MOL0     N  791   3.177   3.762   8.133 -0.2448  1.0718  0.1841
  731MOL0     N  792   3.061   3.813   8.146 -0.4695 -0.0929  0.6993
  731MOL0     C  793   2.147   3.648   9.008 -0.3801  0.1980 -0.5344
  731MOL0     C  794   2.009   3.639   9.027  0.6058 -0.5213  0.3262
  731MOL0     C  795   1.556   3.554   8.899 -0.1703  0.4946  1.0363
  731MOL0     C  796   1.505   3.751   8.923  0.0166  0.8470 -0.1806
  731MOL0     C  797   1.308   3.815   8.896  0.7168  0.4432 -0.1008
  731MOL0     C  798   1.157   3.675   8.843 -0.3750 -0.7681  0.3911
  731MOL0     O  799   1.027   3.724   8.828 -0.0667 -0.1998 -0.1673
  731MOL0     C  800   0.935   3.622   8.781 -0.6634  0.1045  0.2870
  731MOL0     C  801   0.952   3.593   8.628  0.0326  0.2290  0.1836
  731MOL0     C  802   0.963   3.725   8.548  0.6573 -0.1337 -0.3711
  731MOL0     C  803   0.847   3.824   8.571  0.9989  0.6691 -0.5547
  731MOL0     C  804   0.721   3.763   8.534  0.1485 -0.5460 -1.0407
  731MOL0     C  805   0.616   3.703   8.508  0.2399  0.6190  0.2241
  731MOL0     C  806   1.208   3.469   8.822  0.2896 -0.6466  0.2638
  731MOL0     C  807   1.408   3.409   8.846  0.8538  0.9222  0.5477
  731MOL0     C  808   1.447   3.260   8.821  0.4089 -0.8130 -0.5967
  731MOL0     H  809   1.904   3.537   8.734 -1.1813  2.8628  0.3185
  731MOL0     H  810   2.153   3.534   8.688 -3.3168 -1.9243 -0.6185
  731MOL0     H  811   2.366   3.451   8.745  2.7845 -1.0690 -0.9670
  731MOL0     H  812   2.424   3.420   8.908 -1.2035  1.2458  1.4727
  731MOL0     H  813   2.615   3.578   8.875 -1.6678  0.3238  1.3075
  731MOL0     H  814   2.616   3.441   8.773 -1.6786 -1.7137  0.6142
  731MOL0     H  815   2.542   3.575   8.576  0.9837  1.5134 -1.4709
  731MOL0     H  816   2.513   3.716   8.693 -0.5412 -0.3750 -0.0654
  731MOL0     H  817   2.748   3.729   8.725 -1.3682  1.2036  0.3613
  731MOL0     H  818   2.777   3.586   8.611  1.6846  1.5489  0.1412
  731MOL0     H  819   2.625   3.835   8.539  2.5742  2.0121 -1.2010
  731MOL0     H  820   2.656   3.700   8.431 -0.6210  1.2310 -1.8132
  731MOL0     H  821   2.864   3.894   8.567  0.0087 -0.5138 -0.1581
  731MOL0     H  822   2.910   3.749   8.485  0.4172  0.1251  1.5554
  731MOL0     H  823   2.745   3.983   8.381 -1.8013 -2.6260 -0.2794
  731MOL0     H  824   2.765   3.845   8.278 -0.0858 -0.3202 -0.7263
  731MOL0     H  825   2.910   4.009   8.193 -0.9153 -2.0620 -0.3526
  731MOL0     H  826   2.971   4.052   8.348  0.3378 -0.1082  0.8001
  731MOL0     H  827   3.185   3.879   8.439  2.8789 -2.0498 -0.7243
  731MOL0     H  828   3.433   3.655   8.237 -0.2683 -0.6754  1.8563
  731MOL0     H  829   3.389   3.725   8.394  0.1927 -0.6625 -0.3395
  731MOL0     H  830   3.463   3.940   8.316  2.0592 -0.5104  0.7314
  731MOL0     H  831   3.587   3.824   8.296  0.6302 -2.7317 -2.3455
  731MOL0     H  832   3.603   3.917   8.082 -0.7803  1.1597 -0.1812
  731MOL0     H  833   3.474   3.812   8.043 -0.2741 -1.4428  1.8758
  731MOL0     H  834   3.299   3.990   8.046  0.7767  0.0867 -0.6900
  731MOL0     H  835   3.395   4.087   8.154 -2.1664 -0.2364  1.0090
  731MOL0     H  836   3.481   4.257   7.789  2.6256 -2.1207 -1.4109
  731MOL0     H  837   3.753   4.424   7.669 -0.8820  0.5476 -1.6298
  731MOL0     H  838   3.647   4.558   7.725  0.2471 -0.2603  0.9569
  731MOL0     H  839   3.570   4.435   7.647 -1.6938  0.6074  0.9893
  731MOL0     H  840   4.068   4.542   8.268 -1.5511  1.0560 -0.0149
  731MOL0     H  841   4.284   4.685   8.285  3.7460 -1.9904 -1.2219
  731MOL0     H  842   4.532   4.763   7.938 -1.9834 -1.6809  0.4113
  731MOL0     H  843   4.486   4.935   7.968  1.5292  0.9531  0.9230
  731MOL0     H  844   4.672   4.972   8.103  2.5046 -0.2209  0.4071
  731MOL0     H  845   4.652   4.809   8.166  0.7045  1.2923  0.0616
  731MOL0     H  846   4.754   4.854   7.876  0.7752  3.0190  1.3846
  731MOL0     H  847   4.786   4.714   7.990 -1.5922 -0.4025  0.9082
  731MOL0     H  848   4.941   4.875   8.124  1.2710  0.6427 -0.4692
  731MOL0     H  849   4.896   4.990   8.020 -0.5580 -0.5130  0.4759
  731MOL0     H  850   5.068   4.744   7.959  1.5515  1.4493 -0.6697
  731MOL0     H  851   4.996   4.841   7.829 -0.1942 -1.4497 -1.0056
  731MOL0     H  852   5.158   4.942   8.068 -2.8862 -0.3244 -0.5777
  731MOL0     H  853   5.126   5.034   7.936 -1.3062  1.2355  1.8817
  731MOL0     H  854   5.261   4.836   7.802  1.8312 -1.0527  0.5155
  731MOL0     H  855   5.337   4.830   7.955  1.6036  0.1708  0.3242
  731MOL0     H  856   5.429   5.047   7.959  1.4406 -1.2952  0.1043
  731MOL0     H  857   5.330   5.105   7.826 -0.9732 -1.7962 -0.5455
  731MOL0     H  858   4.315   4.712   7.872 -3.3559 -1.4774 -2.3271
  731MOL0     H  859   4.100   4.578   7.849  1.3119  0.8059 -0.5288
  731MOL0     H  860   3.805   4.296   8.159 -0.7852  1.9394  0.4614
  731MOL0     H  861   3.636   4.134   8.157  1.3436 -0.9695 -1.7084
  731MOL0     H  862   2.209   3.693   9.086  0.1693  2.2637 -2.0692
  731MOL0     H  863   1.964   3.659   9.123 -0.0944 -1.2938  0.1671
  731MOL0     H  864   1.591   3.810   8.952 -0.2584  1.5679 -0.7928
  731MOL0     H  865   1.282   3.916   8.927  0.5438  0.5223 -0.4964
  731MOL0     H  866   0.950   3.528   8.835  2.3166  1.3725  1.9054
  731MOL0     H  867   0.829   3.638   8.802 -0.8879 -0.6699 -0.2336
  731MOL0     H  868   0.870   3.527   8.598  1.4871 -1.3672 -0.4418
  731MOL0     H  869   1.047   3.539   8.616  0.0064  0.1598  0.2930
  731MOL0     H  870   1.060   3.774   8.564 -0.4807  1.2241  3.3064
  731MOL0     H  871   0.951   3.706   8.441 -4.5481  0.9411 -0.2347
  731MOL0     H  872   0.865   3.913   8.510  1.1243 -0.0376 -1.5799
  731MOL0     H  873   0.837   3.860   8.674  0.1966  0.4022 -0.5314
  731MOL0     H  874   0.524   3.673   8.463  1.5424  1.8545 -3.7834
  731MOL0     H  875   1.129   3.400   8.796 -1.7361  2.2718 -1.8545
  731MOL0     H  876   1.469   3.211   8.917  0.6087  2.8081  1.3594
  731MOL0     H  877   1.373   3.203   8.765  0.4368 -0.0908 -1.3793
  731MOL0     H  878   1.538   3.251   8.761 -0.2008 -0.1891 -1.6365
  732MOL0     O  879   0.537   0.247   5.688 -0.6598 -0.1104  0.4097
  732MOL0     C  880   0.545   0.141   5.745 -0.3409  0.1485 -0.6493
  732MOL0     O  881   0.641   0.103   5.838 -0.2999  0.3767 -0.6856
  732MOL0     C  882   0.767   0.157   5.819 -0.5413  0.4667  0.1133
  732MOL0     C  883   0.868   0.063   5.820  0.5150  0.3647 -0.2588
  732MOL0     C  884   1.002   0.097   5.815 -1.0698  0.4095  0.7104
  732MOL0     C  885   1.045   0.228   5.792 -0.2510 -0.3324  0.7353
  732MOL0     O  886   1.177   0.261   5.788  0.0521  0.9298  0.4472
  732MOL0     C  887   1.220   0.399   5.774 -0.4152 -0.3834  0.4561
  732MOL0     C  888   1.370   0.403   5.800  0.0496  0.2757 -0.6294
  732MOL0     C  889   1.402   0.375   5.946 -0.8510  0.6332  0.9024
  732MOL0     C  890   1.548   0.372   5.963 -0.1993  0.6558 -0.2088
  732MOL0     C  891   1.588   0.319   6.106  0.7849  0.3018  1.0429
  732MOL0     C  892   1.723   0.363   6.149 -0.2880  0.0104 -1.0190
  732MOL0     C  893   1.775   0.332   6.284 -0.4062  0.0101  0.0326
  732MOL0     C  894   1.769   0.186   6.309  0.6563  0.0380 -0.4407
  732MOL0     N  895   1.840   0.136   6.427 -0.2112  0.1459 -0.2738
  732MOL0     C  896   1.815   0.183   6.556 -0.2405  0.3369  0.4294
  732MOL0     C  897   1.914   0.118   6.623  0.3497 -0.6364  0.9835
  732MOL0     C  898   1.929   0.125   6.767  0.5384  0.5323 -0.1223
  732MOL0     C  899   2.043   0.212   6.809 -0.1102  0.0355 -0.4201
  732MOL0     C  900   2.075   0.340   6.731 -0.1534  0.7970  0.3620
  732MOL0     C  901   2.197   0.418   6.786 -0.8163  0.2421  0.4731
  732MOL0     O  902   2.313   0.345   6.737 -0.5747  0.1397 -0.0032
  732MOL0     C  903   2.439   0.392   6.775  0.1869 -0.8635 -0.1450
  732MOL0     C  904   2.547   0.323   6.724 -0.4470  1.1674 -0.5691
  732MOL0     C  905   2.685   0.359   6.746  0.7269  0.5724 -0.1751
  732MOL0     C  906   2.788   0.275   6.683  0.6452 -0.2658  0.0889
  732MOL0     C  907   2.718   0.466   6.839  1.0167 -0.3282 -0.2264
  732MOL0     C  908   2.851   0.519   6.859 -0.2932 -0.3714  0.0926
  732MOL0     O  909   2.876   0.653   6.821 -0.2481  0.4047 -0.4461
  732MOL0     C  910   3.000   0.699   6.859  0.0077 -0.1174  0.3673
  732MOL0     C  911   3.060   0.673   6.989 -0.8100  0.1415  0.5878
  732MOL0     C  912   3.187   0.717   7.017 -0.0943  0.9361 -0.1401
  732MOL0     C  913   3.258   0.787   6.921 -0.7026  0.0940 -0.1194
  732MOL0     O  914   3.381   0.834   6.959  0.6573 -0.2315  0.0439
  732MOL0     C  915   3.494   0.807   6.875  1.1929  0.2704 -0.4591
  732MOL0     C  916   3.609   0.893   6.930 -0.0647 -0.1313 -0.1132
  732MOL0     C  917   3.737   0.838   6.866  0.1554  0.0959  0.3005
  732MOL0     C  918   3.860   0.884   6.936 -0.7584 -0.1088 -0.4685
  732MOL0     C  919   3.980   0.862   6.842 -0.3883 -0.3300  0.4784
  732MOL0     C  920   4.108   0.874   6.924 -0.0549  0.0642 -0.3420
  732MOL0     C  921   4.136   1.026   6.964  0.0515  0.3440 -0.1653
  732MOL0     C  922   4.281   1.041   7.015  0.5882 -0.5569  0.0362
  732MOL0    Cl  923   4.395   1.050   6.882  0.0475  0.3394  0.1814
  732MOL0     C  924   3.202   0.816   6.796  0.5967 -0.8161  0.1923
  732MOL0     C  925   3.076   0.771   6.768  0.7148 -0.0982  0.9318
  732MOL0     O  926   2.945   0.434   6.876  0.6429 -0.4763 -0.7361
  732MOL0     C  927   2.604   0.540   6.887  0.1114 -0.2654 -0.8375
  732MOL0     C  928   2.468   0.504   6.852 -0.0071  0.5038 -1.0161
  732MOL0     N  929   2.002   0.056   6.533  0.2738  0.3730  0.1222
  732MOL0     N  930   1.950   0.062   6.421 -0.5706  0.0146  0.3069
  732MOL0     C  931   0.940   0.321   5.766  0.1192 -0.8248 -0.3744
  732MOL0     C  932   0.804   0.284   5.796  0.7966 -0.0015 -0.2768
  732MOL0     C  933   0.428   0.044   5.717 -0.5342  0.1034  0.0868
  732MOL0     C  934   0.292   0.089   5.727  0.2895 -0.0433 -0.8057
  732MOL0     C  935   0.181   0.009   5.717 -0.4721  0.1773  0.1589
  732MOL0     C  936   0.204  -0.125   5.681  0.5756 -0.6318  1.1939
  732MOL0     O  937   0.100  -0.211   5.658  0.4757  0.2547  0.0278
  732MOL0     C  938  -0.021  -0.150   5.591  0.7185 -0.0746 -0.8618
  732MOL0     C  939  -0.095  -0.262   5.514 -0.0326 -0.4584 -0.2522
  732MOL0     C  940  -0.220  -0.194   5.450  0.4731  0.6329  0.7853
  732MOL0     C  941  -0.291  -0.297   5.361  0.2036  0.4535 -0.1545
  732MOL0     C  942  -0.207  -0.327   5.246  0.1028 -0.2622  0.6640
  732MOL0     C  943  -0.148  -0.346   5.137  0.7397 -0.3920 -0.8134
  732MOL0     C  944   0.329  -0.173   5.678 -0.0317  0.2774 -0.2082
  732MOL0     C  945   0.444  -0.093   5.690  0.0009 -0.1846  0.4984
  732MOL0     C  946   0.574  -0.160   5.663 -0.0006 -0.6470  0.0007
  732MOL0     H  947   0.839  -0.039   5.843 -3.2840  1.4302  0.4772
  732MOL0     H  948   1.079   0.029   5.850 -2.0793 -1.0940  0.1176
  732MOL0     H  949   1.170   0.477   5.833  3.6647  2.3936  0.6960
  732MOL0     H  950   1.212   0.422   5.667 -0.3593  1.1963  0.7631
  732MOL0     H  951   1.426   0.345   5.726 -1.0910  1.3345 -2.3768
  732MOL0     H  952   1.399   0.506   5.780  1.5387 -0.1509 -0.8496
  732MOL0     H  953   1.369   0.454   6.015 -0.0083 -0.1976  2.3020
  732MOL0     H  954   1.361   0.280   5.979  0.2236 -0.4933 -0.8286
  732MOL0     H  955   1.590   0.305   5.888 -2.1577  0.7360 -1.4238
  732MOL0     H  956   1.602   0.466   5.950 -1.8579  1.4429 -1.9441
  732MOL0     H  957   1.587   0.209   6.105  1.3501  0.2892 -0.5358
  732MOL0     H  958   1.522   0.354   6.186 -0.5736 -0.5450  0.3269
  732MOL0     H  959   1.792   0.322   6.075 -0.2315 -0.9867 -0.4227
  732MOL0     H  960   1.722   0.471   6.132 -2.1223  0.1672 -0.1734
  732MOL0     H  961   1.729   0.400   6.357  2.1927  1.0467  0.8213
  732MOL0     H  962   1.873   0.377   6.296 -2.0173  3.5941  1.2260
  732MOL0     H  963   1.665   0.151   6.320 -0.1464  1.6074 -2.3612
  732MOL0     H  964   1.815   0.131   6.227  2.0712  0.5504 -0.0183
  732MOL0     H  965   1.734   0.241   6.598 -1.9172 -1.1317 -0.6387
  732MOL0     H  966   1.944   0.021   6.796 -0.8266 -0.3060 -2.2312
  732MOL0     H  967   1.831   0.158   6.804  0.0294 -0.2474 -0.7437
  732MOL0     H  968   2.019   0.238   6.912  2.1294 -1.0115  0.4318
  732MOL0     H  969   2.130   0.146   6.812  1.3092  1.6298 -3.0950
  732MOL0     H  970   2.082   0.325   6.622 -2.4188  1.5498  0.0643
  732MOL0     H  971   1.993   0.411   6.735 -0.1929  0.7753 -0.0168
  732MOL0     H  972   2.196   0.520   6.747  0.1612 -0.3811 -1.3071
  732MOL0     H  973   2.200   0.422   6.895  0.8706  1.7845  0.4279
  732MOL0     H  974   2.527   0.229   6.673  0.3199 -0.4064  1.8721
  732MOL0     H  975   2.834   0.205   6.753 -0.2161 -3.4847 -2.3356
  732MOL0     H  976   2.860   0.336   6.627 -0.0175 -1.6146 -2.3508
  732MOL0     H  977   2.748   0.209   6.605 -2.7734  2.0053 -0.2883
  732MOL0     H  978   3.012   0.607   7.060  1.0996 -0.9604  0.9401
  732MOL0     H  979   3.230   0.689   7.112  0.3198 -0.3172 -0.6742
  732MOL0     H  980   3.514   0.700   6.870 -1.3057 -0.1904 -1.8929
  732MOL0     H  981   3.472   0.837   6.772  3.4100  2.4650 -0.4137
  732MOL0     H  982   3.583   0.997   6.911 -1.1220 -0.2369  0.6433
  732MOL0     H  983   3.621   0.870   7.036  1.2518  0.3388 -0.1551
  732MOL0     H  984   3.736   0.874   6.763 -1.1075  2.9981  1.2208
  732MOL0     H  985   3.728   0.729   6.859  0.7803 -0.0361  1.3461
  732MOL0     H  986   3.885   0.829   7.027  0.0637 -0.7331 -1.0611
  732MOL0     H  987   3.848   0.989   6.967 -0.5058 -0.6491  1.6131
  732MOL0     H  988   3.972   0.764   6.793 -1.4137 -1.3431  2.5321
  732MOL0     H  989   3.989   0.937   6.763  1.3606 -1.8026 -0.8070
  732MOL0     H  990   4.193   0.844   6.861  1.1587 -1.3357  1.8046
  732MOL0     H  991   4.107   0.810   7.013  1.1558  0.0472 -0.3177
  732MOL0     H  992   4.066   1.045   7.046  0.0247  0.9891 -0.3306
  732MOL0     H  993   4.111   1.096   6.883 -2.7113 -1.5840 -1.1518
  732MOL0     H  994   4.317   0.955   7.072  1.2205 -0.6379 -0.4726
  732MOL0     H  995   4.300   1.125   7.083  1.5832 -1.3981  0.8359
  732MOL0     H  996   3.252   0.866   6.714 -2.2528 -0.4068 -1.4491
  732MOL0     H  997   3.042   0.781   6.665 -0.2075  0.5269  1.2927
  732MOL0     H  998   2.617   0.614   6.965 -0.4234 -0.5470 -0.4709
  732MOL0     H  999   2.385   0.547   6.907  0.8022 -0.5627  1.1491
  732MOL0     H 1000   0.950   0.428   5.756  2.3458 -1.0849 -1.6770
  732MOL0     H 1001   0.731   0.363   5.808 -0.1861 -0.7883 -0.9092
  732MOL0     H 1002   0.279   0.194   5.754  0.2918 -0.6569  1.8518
  732MOL0     H 1003   0.080   0.050   5.723 -1.3820 -1.6382 -1.4503
  732MOL0     H 1004  -0.091  -0.117   5.669  0.2898 -0.4252 -1.0978
  732MOL0     H 1005   0.005  -0.067   5.524  3.5029  0.7352  0.9968
  732MOL0     H 1006  -0.133  -0.344   5.577 -2.4403  2.7406  2.8252
  732MOL0     H 1007  -0.029  -0.305   5.438 -1.7689 -0.8891 -1.5849
  732MOL0     H 1008  -0.292  -0.163   5.527 -3.2420 -0.9375 -1.7522
  732MOL0     H 1009  -0.200  -0.097   5.406  1.1615  1.1875  2.2443
  732MOL0     H 1010  -0.385  -0.257   5.321 -0.6828 -3.6871 -2.7426
  732MOL0     H 1011  -0.321  -0.383   5.421 -1.8917  0.9845 -0.3513
  732MOL0     H 1012  -0.104  -0.364   5.041  2.2616 -2.7788  0.2325
  732MOL0     H 1013   0.339  -0.274   5.640  3.0340  0.0479  0.9682
  732MOL0     H 1014   0.638  -0.098   5.601  0.6865  0.9191  2.1649
  732MOL0     H 1015   0.619  -0.192   5.757  2.7750 -1.0693 -1.3749
  732MOL0     H 1016   0.571  -0.257   5.612  3.5994 -1.2381  0.6610
  733MOL0     O 1017   8.923   6.781   6.752 -0.7460  0.7238 -0.7292
  733MOL0     C 1018   8.816   6.724   6.719 -0.0506 -0.4659 -0.4037
  733MOL0     O 1019   8.810   6.595   6.678 -0.4061  0.1544 -0.5985
  733MOL0     C 1020   8.914   6.506   6.704  0.2970 -0.2525  0.7674
  733MOL0     C 1021   8.967   6.429   6.602 -0.0360 -0.1782  0.4377
  733MOL0     C 1022   9.063   6.328   6.640 -0.1996  0.4675  0.3973
  733MOL0     C 1023   9.107   6.306   6.769 -0.0530 -0.2020 -0.1346
  733MOL0     O 1024   9.210   6.224   6.801  0.8296  0.0799  0.5483
  733MOL0     C 1025   9.282   6.149   6.698  0.3972 -0.3472 -0.1787
  733MOL0     C 1026   9.387   6.056   6.772  0.5584  1.1003  0.3996
  733MOL0     C 1027   9.499   6.018   6.677 -0.0089  0.2904 -0.8388
  733MOL0     C 1028   9.613   5.961   6.756 -1.2377 -0.0704  0.2441
  733MOL0     C 1029   9.664   5.841   6.679 -0.3333  0.2939  0.0197
  733MOL0     C 1030   9.774   5.774   6.753 -0.0914  0.6661 -0.4687
  733MOL0     C 1031   9.839   5.666   6.674 -0.4248  0.0134 -0.2727
  733MOL0     C 1032   9.955   5.602   6.769 -0.0689 -0.2968  0.1546
  733MOL0     N 1033  10.015   5.481   6.708  0.7445 -0.4179  0.9205
  733MOL0     C 1034  10.139   5.483   6.652  0.6686 -0.1025  0.3538
  733MOL0     C 1035  10.162   5.353   6.622 -0.3800  0.5918  0.5432
  733MOL0     C 1036  10.284   5.297   6.542  0.2657  0.5312  1.3814
  733MOL0     C 1037  10.418   5.264   6.611  1.0043  0.3961 -0.0135
  733MOL0     C 1038  10.424   5.122   6.662  0.5619  0.0391 -0.7582
  733MOL0     C 1039  10.563   5.093   6.741  0.7371 -0.1764  0.6369
  733MOL0     O 1040  10.664   5.064   6.650 -0.5457 -0.3625 -0.4447
  733MOL0     C 1041  10.759   5.156   6.608 -1.0213 -0.1681  0.9475
  733MOL0     C 1042  10.748   5.298   6.619 -1.3813  0.1396  0.2343
  733MOL0     C 1043  10.848   5.396   6.583  0.2342 -0.1395 -0.2923
  733MOL0     C 1044  10.834   5.541   6.623  0.7805 -0.1825 -0.2182
  733MOL0     C 1045  10.963   5.341   6.521  0.7907  0.2166 -0.4515
  733MOL0     C 1046  11.080   5.424   6.473 -0.2950  1.5894 -0.2168
  733MOL0     O 1047  11.188   5.353   6.438 -0.2640  0.1979 -0.4262
  733MOL0     C 1048  11.305   5.431   6.446 -0.1415 -0.5616 -0.5674
  733MOL0     C 1049  11.380   5.448   6.563 -0.7081 -0.7376  0.1359
  733MOL0     C 1050  11.506   5.510   6.563 -0.2498  0.2459  1.0186
  733MOL0     C 1051  11.567   5.562   6.443 -0.5048 -0.9269 -0.4378
  733MOL0     O 1052  11.681   5.633   6.437  0.5135  0.1543 -0.0099
  733MOL0     C 1053  11.753   5.660   6.560 -0.0565 -0.2559 -0.1965
  733MOL0     C 1054  11.686   5.775   6.643 -0.6897 -0.1181  0.6148
  733MOL0     C 1055  11.738   5.766   6.791 -0.2191  0.2623  0.7509
  733MOL0     C 1056  11.893   5.756   6.791  0.1690 -0.9936 -0.0398
  733MOL0     C 1057  11.929   5.748   6.938 -0.3714  0.2670 -1.2447
  733MOL0     C 1058  12.088   5.748   6.960  0.0289  0.3036 -0.0935
  733MOL0     C 1059  12.106   5.749   7.105  1.0083 -0.6649 -0.1408
  733MOL0     C 1060  12.238   5.818   7.131  0.2412 -0.1713  0.0193
  733MOL0    Cl 1061  12.279   5.765   7.296  0.2796 -0.1792  0.5115
  733MOL0     C 1062  11.501   5.540   6.324 -0.0574  0.6498 -0.4784
  733MOL0     C 1063  11.362   5.483   6.330 -0.3309 -0.3266 -0.5428
  733MOL0     O 1064  11.061   5.540   6.458 -0.4511 -0.3298  0.3043
  733MOL0     C 1065  10.979   5.206   6.515  0.1854  0.3629  0.2078
  733MOL0     C 1066  10.879   5.113   6.557  0.0948 -0.5754  0.2258
  733MOL0     N 1067  10.053   5.278   6.660 -0.3545  0.5060 -0.6644
  733MOL0     N 1068   9.964   5.356   6.714 -0.3771  0.0442 -0.2345
  733MOL0     C 1069   9.055   6.394   6.867  0.3324 -0.9150  0.8643
  733MOL0     C 1070   8.953   6.487   6.837  0.6098  0.6317  0.2087
  733MOL0     C 1071   8.692   6.808   6.712  0.2710 -0.0599 -1.1234
  733MOL0     C 1072   8.570   6.732   6.687  0.3211  0.0116  0.4412
  733MOL0     C 1073   8.445   6.795   6.691 -0.0959 -0.7325 -0.7597
  733MOL0     C 1074   8.435   6.937   6.707  0.2004  0.2394  0.4674
  733MOL0     O 1075   8.312   7.002   6.692 -0.2706 -0.0225  0.1424
  733MOL0     C 1076   8.178   6.936   6.716 -0.5229  0.3141  0.0241
  733MOL0     C 1077   8.146   6.898   6.859 -0.0963 -0.3827  0.4419
  733MOL0     C 1078   8.066   7.001   6.943 -0.2724 -0.2054 -1.0146
  733MOL0     C 1079   8.155   7.128   6.948  0.2026  0.0518 -0.4181
  733MOL0     C 1080   8.097   7.229   7.038 -1.4716  0.5148 -0.0393
  733MOL0     C 1081   8.061   7.308   7.126 -0.5710  0.9020 -0.2545
  733MOL0     C 1082   8.552   7.004   6.726  0.0359 -0.2698  0.5456
  733MOL0     C 1083   8.678   6.946   6.730  0.4798  0.2921 -0.1557
  733MOL0     C 1084   8.788   7.040   6.748 -0.0539  0.3523 -0.0427
  733MOL0     H 1085   8.936   6.445   6.499  0.3509 -2.7440 -0.1543
  733MOL0     H 1086   9.097   6.264   6.558 -1.0237  2.8079 -1.9042
  733MOL0     H 1087   9.347   6.217   6.642  1.0977 -0.5083  0.4401
  733MOL0     H 1088   9.212   6.092   6.635 -1.5428  1.3034  0.3526
  733MOL0     H 1089   9.422   6.109   6.862 -1.5183  1.0290  1.3105
  733MOL0     H 1090   9.340   5.962   6.802  0.4042  0.0323 -2.8562
  733MOL0     H 1091   9.457   5.957   6.596  0.8452  0.2156 -1.2395
  733MOL0     H 1092   9.539   6.109   6.632  1.6858  0.4365  0.8369
  733MOL0     H 1093   9.697   6.027   6.779  0.1280 -1.2184 -1.1958
  733MOL0     H 1094   9.577   5.930   6.854 -2.2131  1.3937  0.3633
  733MOL0     H 1095   9.708   5.883   6.588  2.4823  0.2228  1.2396
  733MOL0     H 1096   9.585   5.775   6.641 -0.1328  1.1186 -1.9334
  733MOL0     H 1097   9.843   5.852   6.787  0.9659 -1.1504  1.8596
  733MOL0     H 1098   9.725   5.737   6.844 -3.0275  1.2459 -1.6980
  733MOL0     H 1099   9.882   5.694   6.577 -0.3705  1.3576  0.1230
  733MOL0     H 1100   9.768   5.590   6.642  0.3148 -0.1345 -1.6823
  733MOL0     H 1101  10.022   5.686   6.787  0.5306 -0.1230 -2.4891
  733MOL0     H 1102   9.909   5.576   6.865  0.3385  0.2772  0.5075
  733MOL0     H 1103  10.199   5.568   6.620 -1.1519  0.1966 -2.7649
  733MOL0     H 1104  10.311   5.366   6.461 -0.7577  2.3495  2.5300
  733MOL0     H 1105  10.253   5.208   6.486 -0.2331  1.7267 -0.3003
  733MOL0     H 1106  10.496   5.283   6.537  2.2925 -0.1173  1.1698
  733MOL0     H 1107  10.430   5.333   6.696 -0.0589  1.9791 -1.0946
  733MOL0     H 1108  10.344   5.106   6.735  1.3868  1.8633  0.6087
  733MOL0     H 1109  10.425   5.064   6.569 -0.5948 -2.4212  0.6425
  733MOL0     H 1110  10.586   5.171   6.814  0.0837  0.2777  0.3732
  733MOL0     H 1111  10.548   5.000   6.797  1.5091  0.0578  1.2427
  733MOL0     H 1112  10.667   5.349   6.671  0.8037  4.3737 -0.0939
  733MOL0     H 1113  10.854   5.606   6.537  0.3427  0.0219 -0.1690
  733MOL0     H 1114  10.908   5.571   6.698  0.0013  2.2354 -0.3217
  733MOL0     H 1115  10.732   5.578   6.639  1.1205  2.1775 -2.7370
  733MOL0     H 1116  11.339   5.410   6.656 -2.3378  3.3369  1.3204
  733MOL0     H 1117  11.553   5.515   6.660  1.3055 -1.5807  0.4279
  733MOL0     H 1118  11.760   5.569   6.621 -1.1378 -0.8495 -0.9121
  733MOL0     H 1119  11.856   5.690   6.536 -0.5731  3.1384  1.3097
  733MOL0     H 1120  11.721   5.871   6.603 -0.8559 -1.1576 -2.3038
  733MOL0     H 1121  11.578   5.757   6.641 -0.8420  0.5649  1.8702
  733MOL0     H 1122  11.703   5.668   6.825 -1.3411 -0.4282 -2.0754
  733MOL0     H 1123  11.702   5.852   6.849 -1.2985  0.2606  0.1099
  733MOL0     H 1124  11.930   5.850   6.750 -2.5635  1.5299  2.6925
  733MOL0     H 1125  11.933   5.666   6.742  2.2891 -0.7173  1.0738
  733MOL0     H 1126  11.876   5.828   6.990  0.8253  1.4510 -1.7826
  733MOL0     H 1127  11.899   5.654   6.985 -0.4170  0.6307 -0.5364
  733MOL0     H 1128  12.135   5.828   6.902  3.5044  0.5367  2.7471
  733MOL0     H 1129  12.138   5.660   6.920  1.5950  0.6330  1.0454
  733MOL0     H 1130  12.111   5.647   7.143  1.2493 -0.8118 -0.5555
  733MOL0     H 1131  12.033   5.806   7.164  1.1483  1.6569 -2.0464
  733MOL0     H 1132  12.225   5.926   7.120  0.8813 -0.0896  0.0382
  733MOL0     H 1133  12.315   5.788   7.059  2.0001 -0.1204  1.7816
  733MOL0     H 1134  11.573   5.561   6.246  0.9172 -2.1102 -0.4266
  733MOL0     H 1135  11.301   5.483   6.240 -0.8301 -0.8569 -0.2140
  733MOL0     H 1136  11.063   5.157   6.467 -1.4816 -2.3559 -0.1308
  733MOL0     H 1137  10.904   5.009   6.541  3.9059 -0.1230  2.0575
  733MOL0     H 1138   9.079   6.374   6.971 -0.6079 -1.5318  0.9849
  733MOL0     H 1139   8.911   6.542   6.920  1.3013 -0.5396  1.3866
  733MOL0     H 1140   8.575   6.624   6.687 -1.2781 -0.1038 -1.2841
  733MOL0     H 1141   8.370   6.717   6.685 -1.4507  0.2687  1.7380
  733MOL0     H 1142   8.099   7.003   6.682 -2.6607 -1.4926  1.2239
  733MOL0     H 1143   8.166   6.840   6.666  0.8280 -0.4668  1.1291
  733MOL0     H 1144   8.237   6.867   6.911 -0.0280  0.1604  0.6541
  733MOL0     H 1145   8.080   6.812   6.860 -0.5717 -0.0360  2.2941
  733MOL0     H 1146   7.969   7.017   6.894 -1.2343 -1.4543  0.3692
  733MOL0     H 1147   8.066   6.966   7.047 -0.3197  0.0585 -0.9227
  733MOL0     H 1148   8.157   7.175   6.849 -3.0201  1.5293  0.0721
  733MOL0     H 1149   8.254   7.090   6.975 -0.6257 -2.4188 -0.6024
  733MOL0     H 1150   8.019   7.365   7.207 -3.1607 -1.4901  0.2542
  733MOL0     H 1151   8.540   7.111   6.744  0.8186 -0.4449  2.3312
  733MOL0     H 1152   8.873   7.017   6.683  0.8189  2.2104  0.3769
  733MOL0     H 1153   8.754   7.143   6.739 -1.5105  0.0712  1.6756
  733MOL0     H 1154   8.819   7.034   6.853  0.1526 -1.5664 -0.1725
  734MOL0     O 1155   3.095   4.992  10.542  0.0339  0.7621 -0.4219
  734MOL0     C 1156   3.068   4.996  10.424  0.1378  0.6091  0.5383
  734MOL0     O 1157   3.116   4.909  10.330 -0.1061  0.0523 -0.1434
  734MOL0     C 1158   3.192   4.808  10.380 -0.2674  0.0920 -1.1780
  734MOL0     C 1159   3.328   4.833  10.418 -0.3085  0.2725 -0.0883
  734MOL0     C 1160   3.403   4.721  10.478  0.3651 -0.4127  0.0783
  734MOL0     C 1161   3.341   4.594  10.472 -0.1814  0.9010 -0.2050
  734MOL0     O 1162   3.389   4.480  10.530  0.1072 -0.2515 -0.6084
  734MOL0     C 1163   3.443   4.489  10.661 -0.6255  0.3601  0.8743
  734MOL0     C 1164   3.591   4.473  10.677  0.0177 -0.2782 -0.2011
  734MOL0     C 1165   3.630   4.475  10.819 -0.2096  0.4902 -0.1961
  734MOL0     C 1166   3.771   4.445  10.839 -0.1602 -0.1157 -0.1627
  734MOL0     C 1167   3.811   4.475  10.982  0.4084  1.1829  0.9146
  734MOL0     C 1168   3.956   4.434  11.008 -1.0584 -0.1179  0.0936
  734MOL0     C 1169   4.052   4.536  10.940  0.1515  0.3109  0.3957
  734MOL0     C 1170   4.202   4.528  10.965  0.0845  0.1309  0.5431
  734MOL0     N 1171   4.276   4.552  10.840  0.7588 -0.2471  0.1120
  734MOL0     C 1172   4.318   4.676  10.780 -0.6776  0.6616 -0.3074
  734MOL0     C 1173   4.352   4.650  10.655 -1.2394  0.4325 -0.0838
  734MOL0     C 1174   4.378   4.751  10.548 -1.1032 -0.5628  0.6252
  734MOL0     C 1175   4.528   4.795  10.535  0.5412 -0.2581  0.1089
  734MOL0     C 1176   4.623   4.794  10.667 -0.2503  0.0896  0.5484
  734MOL0     C 1177   4.770   4.832  10.647 -0.6522  0.3514  0.1607
  734MOL0     O 1178   4.763   4.967  10.619 -0.2618 -0.7426  0.1868
  734MOL0     C 1179   4.873   5.051  10.614 -0.6384  0.8903 -0.4743
  734MOL0     C 1180   4.857   5.180  10.568 -0.2357 -0.3139 -1.0713
  734MOL0     C 1181   4.961   5.273  10.533 -0.2064 -0.6739  1.1634
  734MOL0     C 1182   4.927   5.409  10.490  0.6966 -0.3568  0.1378
  734MOL0     C 1183   5.092   5.232  10.548 -0.3408  0.9603 -0.6370
  734MOL0     C 1184   5.211   5.316  10.532  0.5748 -0.7150  0.8149
  734MOL0     O 1185   5.327   5.243  10.512  0.5457  1.0962 -0.0647
  734MOL0     C 1186   5.446   5.298  10.503 -0.3472 -0.8306 -0.0770
  734MOL0     C 1187   5.476   5.416  10.432  1.0000  0.3567 -0.4337
  734MOL0     C 1188   5.608   5.450  10.392 -0.5544  0.1429  0.0228
  734MOL0     C 1189   5.716   5.386  10.448  0.6237  0.3224 -0.0649
  734MOL0     O 1190   5.854   5.409  10.420  0.4770  0.0624  0.3142
  734MOL0     C 1191   5.894   5.497  10.317 -0.1027  0.2207 -0.6739
  734MOL0     C 1192   6.035   5.462  10.264  0.3771  0.7133  0.7328
  734MOL0     C 1193   6.091   5.557  10.152  0.6547  1.0256 -0.4017
  734MOL0     C 1194   6.242   5.516  10.123  0.3573  0.2646  0.2348
  734MOL0     C 1195   6.305   5.601  10.004 -1.1472 -0.2886 -0.0331
  734MOL0     C 1196   6.449   5.547   9.972  0.4254  0.7157  0.5130
  734MOL0     C 1197   6.509   5.605   9.848  0.7436  0.7180  0.5542
  734MOL0     C 1198   6.651   5.539   9.833  0.8078 -0.6595 -0.3769
  734MOL0    Cl 1199   6.631   5.364   9.798  0.1632 -0.5140 -0.2897
  734MOL0     C 1200   5.691   5.276  10.529 -0.4846 -0.4249 -0.6814
  734MOL0     C 1201   5.556   5.235  10.557  0.8603  0.0251 -0.1412
  734MOL0     O 1202   5.203   5.439  10.550  0.2105  0.2789 -0.4085
  734MOL0     C 1203   5.117   5.098  10.593  0.9405 -0.9313  0.3574
  734MOL0     C 1204   5.008   5.009  10.622  0.1192  0.1010  0.5265
  734MOL0     N 1205   4.345   4.509  10.642  0.2657  0.1219  0.6633
  734MOL0     N 1206   4.287   4.452  10.742  0.3797 -0.7042 -0.2372
  734MOL0     C 1207   3.218   4.578  10.418 -0.2903  1.0763 -0.1921
  734MOL0     C 1208   3.143   4.680  10.377  0.2375 -1.1550  1.0269
  734MOL0     C 1209   2.979   5.094  10.362 -0.1280 -0.2836 -0.2702
  734MOL0     C 1210   2.989   5.134  10.227 -0.1205 -0.0639 -0.4612
  734MOL0     C 1211   2.899   5.230  10.177  0.3874  0.5614 -0.3168
  734MOL0     C 1212   2.808   5.299  10.262  0.4770  0.1000  0.2948
  734MOL0     O 1213   2.708   5.390  10.223 -0.3896  0.3219  0.4820
  734MOL0     C 1214   2.743   5.467  10.105 -0.2348  0.3359 -0.0364
  734MOL0     C 1215   2.630   5.568  10.093  0.8685 -0.0497  0.5610
  734MOL0     C 1216   2.656   5.652   9.970 -0.0384  0.4485  0.3697
  734MOL0     C 1217   2.526   5.717   9.924 -0.2752  0.3389  0.1742
  734MOL0     C 1218   2.550   5.798   9.800 -0.6108  0.4806  0.5800
  734MOL0     C 1219   2.540   5.878   9.704 -0.3800  0.0280  0.2017
  734MOL0     C 1220   2.795   5.256  10.388  0.2478 -0.4612 -0.0549
  734MOL0     C 1221   2.879   5.148  10.444 -0.1518 -0.3728  0.0226
  734MOL0     C 1222   2.845   5.102  10.580 -0.2383  0.1985 -0.4176
  734MOL0     H 1223   3.362   4.936  10.420 -0.7945  0.4564  2.1652
  734MOL0     H 1224   3.503   4.720  10.519 -0.5691 -0.0348  2.5594
  734MOL0     H 1225   3.405   4.408  10.723 -3.4306  2.8824  2.7448
  734MOL0     H 1226   3.412   4.581  10.712 -1.6322 -1.2885  3.4396
  734MOL0     H 1227   3.611   4.379  10.624  0.0525  0.2540 -1.1394
  734MOL0     H 1228   3.645   4.558  10.636  1.6897 -1.6686 -1.0335
  734MOL0     H 1229   3.615   4.579  10.850 -3.9757 -0.4340  1.7372
  734MOL0     H 1230   3.558   4.416  10.876 -1.2529 -0.6044 -2.5012
  734MOL0     H 1231   3.782   4.339  10.819 -0.7031 -0.2888  0.4234
  734MOL0     H 1232   3.828   4.504  10.767 -1.9760 -0.3499 -1.8601
  734MOL0     H 1233   3.746   4.420  11.052  1.4850 -2.3573 -0.6276
  734MOL0     H 1234   3.800   4.584  10.983  1.3833  1.2812  1.6563
  734MOL0     H 1235   3.975   4.420  11.115  0.7204  0.0613 -0.1704
  734MOL0     H 1236   3.970   4.336  10.961  0.2237  1.3067 -2.6832
  734MOL0     H 1237   4.012   4.633  10.970 -1.9113 -0.5004  0.4621
  734MOL0     H 1238   4.039   4.531  10.831 -0.2909  0.3697  0.4427
  734MOL0     H 1239   4.234   4.608  11.033 -0.6601  2.0310 -1.2359
  734MOL0     H 1240   4.237   4.433  11.005 -0.3799  0.4315  1.7047
  734MOL0     H 1241   4.303   4.781  10.804 -2.1310  0.5164 -0.4808
  734MOL0     H 1242   4.324   4.841  10.576 -0.2798  0.6391 -1.4121
  734MOL0     H 1243   4.336   4.714  10.453  1.6381 -0.4205 -0.7393
  734MOL0     H 1244   4.578   4.737  10.458  1.5526  1.8093 -0.8557
  734MOL0     H 1245   4.520   4.898  10.500 -2.2364 -0.1179  0.8660
  734MOL0     H 1246   4.590   4.863  10.745 -2.6643 -0.9886  0.5894
  734MOL0     H 1247   4.631   4.695  10.713  1.9766  0.6243  1.4227
  734MOL0     H 1248   4.819   4.821  10.744  2.0734  0.1587 -1.1289
  734MOL0     H 1249   4.806   4.767  10.566 -1.6153 -1.2469  0.9698
  734MOL0     H 1250   4.759   5.219  10.543 -0.6482 -0.3287  0.4669
  734MOL0     H 1251   4.827   5.405  10.445  0.2692  1.2965  0.8623
  734MOL0     H 1252   4.993   5.456  10.416 -0.7966  0.8073 -0.5002
  734MOL0     H 1253   4.906   5.469  10.579 -2.2959 -2.9951  1.3808
  734MOL0     H 1254   5.391   5.469  10.391  1.0021 -0.4076 -1.4551
  734MOL0     H 1255   5.621   5.536  10.328  1.0932  0.9550  1.3500
  734MOL0     H 1256   5.817   5.500  10.240 -2.3397  0.6390  1.4659
  734MOL0     H 1257   5.895   5.596  10.362 -1.0887 -0.7548  1.6329
  734MOL0     H 1258   6.111   5.467  10.343  1.9174 -0.2116 -0.6112
  734MOL0     H 1259   6.029   5.356  10.239 -0.5831  1.0888 -0.7981
  734MOL0     H 1260   6.085   5.657  10.195 -2.4200  1.4209 -1.5369
  734MOL0     H 1261   6.033   5.543  10.061  1.0661 -3.3665 -0.2169
  734MOL0     H 1262   6.238   5.415  10.081 -0.3310  0.7561 -0.9371
  734MOL0     H 1263   6.307   5.518  10.212  1.0794 -0.9843 -0.2358
  734MOL0     H 1264   6.243   5.595   9.914 -1.2003 -3.2410  0.0902
  734MOL0     H 1265   6.308   5.705  10.037 -1.1538 -0.2132 -0.2690
  734MOL0     H 1266   6.437   5.439   9.959  3.3074  0.4868 -1.0391
  734MOL0     H 1267   6.514   5.571  10.057  1.0717 -0.8480  0.4852
  734MOL0     H 1268   6.528   5.713   9.847  4.7928  0.2368 -2.4183
  734MOL0     H 1269   6.458   5.588   9.753 -0.5437  3.0391  0.7520
  734MOL0     H 1270   6.694   5.557   9.932 -1.8366  0.1375  0.6906
  734MOL0     H 1271   6.717   5.581   9.757 -1.5564  0.0720 -2.1365
  734MOL0     H 1272   5.766   5.229  10.592  0.1356  1.5190  0.1132
  734MOL0     H 1273   5.554   5.146  10.618  0.3394 -0.5515 -0.9840
  734MOL0     H 1274   5.217   5.062  10.610  0.7693 -0.9883  1.2802
  734MOL0     H 1275   5.045   4.911  10.649  0.1896 -0.5194 -1.6228
  734MOL0     H 1276   3.168   4.482  10.408  3.4796 -0.8492 -2.8769
  734MOL0     H 1277   3.047   4.656  10.333  0.8339  2.1292 -2.5982
  734MOL0     H 1278   3.054   5.091  10.152 -3.1371 -2.9215 -1.7122
  734MOL0     H 1279   2.904   5.263  10.073  0.6916  0.1466 -0.4373
  734MOL0     H 1280   2.840   5.518  10.111 -0.5397  1.3785 -2.5240
  734MOL0     H 1281   2.746   5.397  10.020 -1.5602  2.2212 -1.7232
  734MOL0     H 1282   2.620   5.623  10.187 -1.4807  1.0033 -0.2227
  734MOL0     H 1283   2.535   5.516  10.077 -0.8641  3.2535 -1.0167
  734MOL0     H 1284   2.731   5.728   9.994  0.8459 -0.0396 -0.7551
  734MOL0     H 1285   2.696   5.590   9.889 -1.4832 -0.9291  0.6421
  734MOL0     H 1286   2.486   5.790   9.995 -0.4251  0.6875 -0.2618
  734MOL0     H 1287   2.449   5.646   9.892  1.8352 -1.7460 -0.5794
  734MOL0     H 1288   2.527   5.961   9.638  1.3974  0.9500  0.9396
  734MOL0     H 1289   2.719   5.300  10.452 -1.2548 -0.4220 -1.7965
  734MOL0     H 1290   2.925   5.125  10.651  1.6560 -0.3086 -2.3112
  734MOL0     H 1291   2.750   5.150  10.609 -0.9229 -1.6987  0.6300
  734MOL0     H 1292   2.823   4.995  10.574 -0.4805 -0.0705  3.1131
  735MOL0     O 1293   9.218   8.040   8.422 -0.1210 -0.4796 -0.2822
  735MOL0     C 1294   9.155   8.108   8.507 -0.4522  0.1756  0.5212
  735MOL0     O 1295   9.216   8.168   8.618 -0.5668  0.2234  0.1994
  735MOL0     C 1296   9.357   8.159   8.636  0.8973  0.3597 -0.0888
  735MOL0     C 1297   9.399   8.175   8.775  0.2862 -0.3169 -1.2383
  735MOL0     C 1298   9.538   8.181   8.803  0.5091 -0.7448  0.2312
  735MOL0     C 1299   9.627   8.182   8.698  0.7290  0.6359  0.0078
  735MOL0     O 1300   9.763   8.220   8.711  0.0420 -0.0599 -0.2829
  735MOL0     C 1301   9.799   8.291   8.833  0.7434  0.2132  0.1541
  735MOL0     C 1302   9.953   8.319   8.812  1.2717  0.9015  0.5162
  735MOL0     C 1303  10.040   8.196   8.816 -0.5650 -0.5165 -0.6547
  735MOL0     C 1304  10.190   8.248   8.787  0.6200  0.1471  0.1087
  735MOL0     C 1305  10.283   8.127   8.745 -0.1582  0.0240  0.5680
  735MOL0     C 1306  10.421   8.153   8.816  0.3120 -0.6083 -0.0128
  735MOL0     C 1307  10.515   8.025   8.805  0.1318  0.7656 -0.2472
  735MOL0     C 1308  10.460   7.900   8.889  0.3384  0.9768 -0.1227
  735MOL0     N 1309  10.563   7.797   8.885 -0.4242  0.7963 -0.3225
  735MOL0     C 1310  10.643   7.770   8.778 -0.4862  0.4852  0.3979
  735MOL0     C 1311  10.693   7.653   8.811 -0.9106  0.5642  0.4140
  735MOL0     C 1312  10.795   7.586   8.728  0.1363 -0.1199 -0.5125
  735MOL0     C 1313  10.943   7.610   8.772  1.1778  0.4547 -0.5255
  735MOL0     C 1314  11.014   7.480   8.813 -0.0624 -0.0168  0.6349
  735MOL0     C 1315  11.159   7.500   8.819  0.3295 -0.0892  0.6171
  735MOL0     O 1316  11.221   7.555   8.702  0.2225  0.1583 -0.0292
  735MOL0     C 1317  11.354   7.550   8.671 -0.2459 -0.4984 -0.9044
  735MOL0     C 1318  11.452   7.546   8.778  0.2122 -0.1501 -1.0107
  735MOL0     C 1319  11.586   7.518   8.747  0.5361  0.1401  0.0289
  735MOL0     C 1320  11.682   7.522   8.863 -1.2487 -0.2562 -0.4792
  735MOL0     C 1321  11.622   7.511   8.607  0.3593 -0.8257  0.1277
  735MOL0     C 1322  11.760   7.480   8.557 -0.8196  0.8032  0.2660
  735MOL0     O 1323  11.858   7.456   8.650  0.0898 -0.4454  0.0798
  735MOL0     C 1324  11.991   7.456   8.616  0.1000  0.1098  0.1412
  735MOL0     C 1325  12.072   7.343   8.651  0.7881  0.0941  0.0887
  735MOL0     C 1326  12.210   7.345   8.630 -0.2727 -0.9556  0.4594
  735MOL0     C 1327  12.272   7.454   8.565  0.2111 -0.7588 -0.9742
  735MOL0     O 1328  12.408   7.452   8.555 -0.2045 -0.2619 -0.0824
  735MOL0     C 1329  12.483   7.542   8.471  0.2150 -0.5049  0.6300
  735MOL0     C 1330  12.622   7.495   8.469  0.0557 -0.4796  0.0961
  735MOL0     C 1331  12.720   7.593   8.409 -0.9967  0.1925 -0.0220
  735MOL0     C 1332  12.832   7.519   8.346 -0.0229  0.5792  0.5681
  735MOL0     C 1333  12.922   7.613   8.269  0.0842 -0.4781 -0.3480
  735MOL0     C 1334  13.043   7.524   8.204 -0.0363  0.4653 -0.4408
  735MOL0     C 1335  13.126   7.592   8.096  0.5650  0.1456 -0.7511
  735MOL0     C 1336  13.235   7.491   8.038 -0.0533 -0.8216 -0.2411
  735MOL0    Cl 1337  13.356   7.444   8.168  0.0294  0.3863 -0.1466
  735MOL0     C 1338  12.192   7.561   8.525 -0.3926 -0.8008 -0.1630
  735MOL0     C 1339  12.060   7.569   8.550  0.3987  0.8961  0.2508
  735MOL0     O 1340  11.777   7.482   8.434 -0.0756 -0.2360  0.0043
  735MOL0     C 1341  11.523   7.548   8.506  0.2214  0.4850  0.1483
  735MOL0     C 1342  11.391   7.551   8.540  0.0971 -0.1393 -0.2941
  735MOL0     N 1343  10.648   7.609   8.934 -0.3297 -0.5295 -0.4965
  735MOL0     N 1344  10.576   7.704   8.983 -0.1728 -0.0747  0.1805
  735MOL0     C 1345   9.582   8.157   8.565 -0.4966  0.3881  0.6208
  735MOL0     C 1346   9.448   8.153   8.531  0.4867  0.6755 -0.6445
  735MOL0     C 1347   9.014   8.136   8.480 -0.2899  1.0132  0.7458
  735MOL0     C 1348   8.957   8.230   8.576  0.4118  0.2554  0.7697
  735MOL0     C 1349   8.822   8.255   8.566 -0.2651  0.3289  0.2017
  735MOL0     C 1350   8.741   8.197   8.463  0.3324 -0.1245  0.3321
  735MOL0     O 1351   8.605   8.206   8.438 -0.2827 -0.7955 -0.2805
  735MOL0     C 1352   8.539   8.303   8.521  0.2354 -0.0139 -0.0584
  735MOL0     C 1353   8.385   8.290   8.521 -0.7154  0.9479  0.5769
  735MOL0     C 1354   8.317   8.400   8.603 -0.3441 -1.0804  0.1887
  735MOL0     C 1355   8.187   8.359   8.654  0.4955  0.4324  0.1757
  735MOL0     C 1356   8.088   8.311   8.551 -0.4736  0.6321 -0.3625
  735MOL0     C 1357   8.015   8.269   8.464 -0.8629  0.9776 -0.3426
  735MOL0     C 1358   8.798   8.099   8.380 -0.2095  0.8386 -0.8898
  735MOL0     C 1359   8.930   8.068   8.384  0.5996  0.1524 -0.1331
  735MOL0     C 1360   8.986   7.976   8.280  0.1688  0.8301  0.5376
  735MOL0     H 1361   9.322   8.187   8.851  1.5782 -0.5484  0.1458
  735MOL0     H 1362   9.579   8.201   8.902  2.4470  3.2209 -1.1739
  735MOL0     H 1363   9.780   8.237   8.925  0.6953  0.8906  0.5510
  735MOL0     H 1364   9.758   8.393   8.837  2.2767  0.8276  1.1818
  735MOL0     H 1365   9.957   8.361   8.712 -0.8306 -0.5400 -0.2513
  735MOL0     H 1366   9.983   8.397   8.883  2.6579  2.0255 -1.2268
  735MOL0     H 1367  10.035   8.157   8.918  1.4432  2.1230  0.5548
  735MOL0     H 1368  10.008   8.125   8.738 -0.5791  1.1065 -2.1852
  735MOL0     H 1369  10.179   8.327   8.712 -0.0795 -1.5921 -1.7202
  735MOL0     H 1370  10.225   8.292   8.881 -0.5417 -0.5061  0.8726
  735MOL0     H 1371  10.293   8.129   8.636 -1.1584 -2.6134  0.3752
  735MOL0     H 1372  10.225   8.037   8.764 -0.7229  0.5621  1.4902
  735MOL0     H 1373  10.468   8.245   8.779 -0.9558  0.1185  0.1064
  735MOL0     H 1374  10.395   8.174   8.920 -0.2323 -1.6804  0.0806
  735MOL0     H 1375  10.611   8.061   8.843  0.0884  0.8181 -0.1851
  735MOL0     H 1376  10.518   7.997   8.700 -1.5878  0.3512 -0.2125
  735MOL0     H 1377  10.440   7.932   8.991 -1.2699  0.5868 -0.2871
  735MOL0     H 1378  10.373   7.858   8.837  1.0208 -0.8482  0.1316
  735MOL0     H 1379  10.664   7.829   8.689 -0.2312  0.9928  0.7845
  735MOL0     H 1380  10.775   7.617   8.625  3.8031 -2.4991 -2.1138
  735MOL0     H 1381  10.776   7.479   8.726 -0.9546  0.0559 -2.4690
  735MOL0     H 1382  10.989   7.656   8.684 -2.0556  2.3083 -1.4256
  735MOL0     H 1383  10.946   7.684   8.853 -3.9210  0.8945 -0.4452
  735MOL0     H 1384  10.981   7.463   8.916  0.3534 -3.1463  0.3628
  735MOL0     H 1385  10.990   7.404   8.737  1.4580  2.4641 -2.5890
  735MOL0     H 1386  11.178   7.571   8.901  4.7837  0.3499 -0.5623
  735MOL0     H 1387  11.203   7.403   8.846 -2.0456 -1.5110 -0.2653
  735MOL0     H 1388  11.417   7.570   8.878  0.8974  1.8589 -1.1955
  735MOL0     H 1389  11.746   7.435   8.879 -1.7408 -0.1754  2.4180
  735MOL0     H 1390  11.627   7.530   8.957  0.6975  2.2825  0.5650
  735MOL0     H 1391  11.746   7.611   8.861  2.0809 -2.4787 -2.4569
  735MOL0     H 1392  12.015   7.256   8.683 -1.6073 -0.4316 -4.7533
  735MOL0     H 1393  12.272   7.262   8.663  0.7643 -1.0735 -1.6329
  735MOL0     H 1394  12.442   7.540   8.370 -0.7161 -0.3475  0.9880
  735MOL0     H 1395  12.471   7.644   8.509  3.0358 -0.0592  0.5268
  735MOL0     H 1396  12.649   7.479   8.574 -3.2275  0.5560  1.2223
  735MOL0     H 1397  12.625   7.401   8.412  3.3803  0.1208 -0.9421
  735MOL0     H 1398  12.751   7.649   8.497 -0.4030 -1.8450  1.1247
  735MOL0     H 1399  12.672   7.648   8.328 -1.0494 -0.0044 -0.1244
  735MOL0     H 1400  12.789   7.436   8.290  0.3663  0.3994  0.5365
  735MOL0     H 1401  12.894   7.481   8.427  0.6515  1.9639  0.7429
  735MOL0     H 1402  12.870   7.670   8.192 -0.4831  0.5712  0.7684
  735MOL0     H 1403  12.964   7.696   8.327 -0.1448  0.9436 -2.1200
  735MOL0     H 1404  12.999   7.430   8.169  2.1682 -1.8038  2.2979
  735MOL0     H 1405  13.109   7.498   8.287  1.2575  3.2783 -0.4570
  735MOL0     H 1406  13.184   7.667   8.151 -1.3917  0.1406  1.4643
  735MOL0     H 1407  13.059   7.631   8.019 -2.1333 -4.1673 -0.9325
  735MOL0     H 1408  13.293   7.542   7.960  0.8803 -0.6040  0.5714
  735MOL0     H 1409  13.180   7.407   7.996 -1.8599  0.4181 -0.4643
  735MOL0     H 1410  12.229   7.642   8.462 -2.5074  0.0700 -0.3866
  735MOL0     H 1411  12.008   7.658   8.516  1.2500  1.2577 -0.1499
  735MOL0     H 1412  11.555   7.549   8.402 -0.0409  0.0220  0.0580
  735MOL0     H 1413  11.309   7.568   8.471  0.5479  5.0248  0.1135
  735MOL0     H 1414   9.656   8.145   8.487 -0.4039  1.5956  0.4911
  735MOL0     H 1415   9.412   8.152   8.429  0.3494  0.3975 -0.5946
  735MOL0     H 1416   9.007   8.286   8.655  3.1804 -0.2038 -0.5424
  735MOL0     H 1417   8.780   8.316   8.646  0.7583  1.4546 -0.0894
  735MOL0     H 1418   8.572   8.303   8.625  1.4302 -1.2670 -0.4129
  735MOL0     H 1419   8.564   8.402   8.481  1.2471 -0.7991 -1.4961
  735MOL0     H 1420   8.360   8.188   8.553  1.4889  0.1736  0.0508
  735MOL0     H 1421   8.356   8.310   8.417  1.5047  2.1555  0.1178
  735MOL0     H 1422   8.379   8.446   8.681  0.7020 -1.7745 -0.2180
  735MOL0     H 1423   8.317   8.478   8.526  1.7704  0.4374  1.6127
  735MOL0     H 1424   8.129   8.435   8.706 -0.4456 -0.0436 -0.1600
  735MOL0     H 1425   8.211   8.280   8.726  1.9862  0.3060 -0.4219
  735MOL0     H 1426   7.949   8.229   8.390  2.4047 -2.3726 -1.7665
  735MOL0     H 1427   8.733   8.046   8.312 -0.6107 -1.7598  1.3283
  735MOL0     H 1428   9.053   8.030   8.214 -0.0341 -0.5207 -0.8262
  735MOL0     H 1429   9.031   7.900   8.345 -0.8905 -0.4392 -0.1640
  735MOL0     H 1430   8.904   7.937   8.219  0.9634 -0.2485  0.1283
  736MOL0     O 1431   6.701   9.599   5.304  0.0729  0.3191 -0.1572
  736MOL0     C 1432   6.614   9.672   5.252  0.0081  0.1098 -0.4717
  736MOL0     O 1433   6.617   9.721   5.124  0.2786  0.2690  0.3465
  736MOL0     C 1434   6.738   9.771   5.076  0.5731 -0.1069 -0.6807
  736MOL0     C 1435   6.751   9.821   4.948 -0.4461 -0.0197  0.0191
  736MOL0     C 1436   6.864   9.877   4.891 -0.4498  0.0099  0.5092
  736MOL0     C 1437   6.983   9.872   4.956 -0.9910 -0.1965 -0.0687
  736MOL0     O 1438   7.084   9.946   4.891  0.5170  0.2414  0.8512
  736MOL0     C 1439   7.216   9.947   4.949  0.7202 -0.2614 -0.3478
  736MOL0     C 1440   7.319  10.020   4.865 -0.6006 -0.4963  0.2897
  736MOL0     C 1441   7.324   9.962   4.722 -0.6121 -0.8690 -0.1554
  736MOL0     C 1442   7.442  10.022   4.644 -0.5436 -0.9598 -0.0674
  736MOL0     C 1443   7.436   9.992   4.489  0.0865 -0.4898  0.0272
  736MOL0     C 1444   7.545  10.062   4.401 -0.2098  0.6875  0.4789
  736MOL0     C 1445   7.499  10.208   4.361  0.2723  0.6738 -0.5245
  736MOL0     C 1446   7.518  10.236   4.208 -0.1606 -0.2726 -0.7746
  736MOL0     N 1447   7.662  10.236   4.187  1.1318  0.6023  0.2851
  736MOL0     C 1448   7.751  10.327   4.243  0.7441 -0.6954 -0.5364
  736MOL0     C 1449   7.867  10.293   4.183 -1.2994  0.0083  0.1039
  736MOL0     C 1450   7.995  10.373   4.172 -0.4487  0.2759 -0.1004
  736MOL0     C 1451   8.003  10.435   4.040 -0.4144 -0.2638  0.0089
  736MOL0     C 1452   8.107  10.549   4.043  0.1524  0.0708 -0.0447
  736MOL0     C 1453   8.239  10.501   4.081 -0.4120  0.4620 -0.0773
  736MOL0     O 1454   8.341  10.597   4.052  0.3095 -0.7191  0.4053
  736MOL0     C 1455   8.478  10.574   4.082  0.3918  0.2201 -0.0160
  736MOL0     C 1456   8.578  10.637   4.009  0.6018 -1.3095 -0.7381
  736MOL0     C 1457   8.715  10.628   4.034  1.3437  0.3610 -0.6171
  736MOL0     C 1458   8.813  10.700   3.946 -0.2875 -0.5515  0.0356
  736MOL0     C 1459   8.753  10.533   4.142 -0.1108 -0.4903  0.7137
  736MOL0     C 1460   8.891  10.511   4.177  1.2936 -0.4036 -0.4793
  736MOL0     O 1461   8.920  10.505   4.307 -0.4662  0.3806  0.4684
  736MOL0     C 1462   9.052  10.480   4.335 -0.1445 -0.2362 -0.0712
  736MOL0     C 1463   9.113  10.363   4.293  0.3213  0.0311 -0.1114
  736MOL0     C 1464   9.246  10.336   4.334 -0.8859  0.8853 -0.0781
  736MOL0     C 1465   9.326  10.432   4.406 -0.1011 -0.7544 -0.4344
  736MOL0     O 1466   9.464  10.417   4.432 -0.0056  0.0375 -0.0536
  736MOL0     C 1467   9.547  10.536   4.462  0.2954  0.4661 -0.1015
  736MOL0     C 1468   9.679  10.480   4.503  0.6687  0.2900 -0.5876
  736MOL0     C 1469   9.777  10.596   4.533  0.5652  0.0569  0.5142
  736MOL0     C 1470   9.926  10.564   4.550  0.1937 -0.5649 -0.3006
  736MOL0     C 1471  10.003  10.693   4.595  0.0986  0.2083  0.5977
  736MOL0     C 1472  10.153  10.669   4.603  1.1400  0.2574 -0.8086
  736MOL0     C 1473  10.234  10.796   4.591  0.0463  0.2376  0.4514
  736MOL0     C 1474  10.385  10.749   4.599 -0.5643  0.0329  0.4165
  736MOL0    Cl 1475  10.439  10.682   4.754 -0.0602 -0.0167  0.1191
  736MOL0     C 1476   9.260  10.544   4.442 -1.1966 -0.8458  0.5809
  736MOL0     C 1477   9.124  10.567   4.417  0.7556 -0.6398 -0.2461
  736MOL0     O 1478   8.966  10.493   4.084 -0.0545 -0.1735 -0.1001
  736MOL0     C 1479   8.649  10.475   4.217  1.2931 -0.1929 -1.3731
  736MOL0     C 1480   8.514  10.493   4.185 -0.4134  0.4267  0.4677
  736MOL0     N 1481   7.844  10.180   4.108  0.0257  0.4852  0.2045
  736MOL0     N 1482   7.722  10.141   4.118  0.6965  0.8319 -0.4679
  736MOL0     C 1483   6.974   9.838   5.097  0.0575 -0.5237 -0.0938
  736MOL0     C 1484   6.861   9.782   5.147  0.0224  0.1020 -0.2145
  736MOL0     C 1485   6.486   9.674   5.327 -0.2377  0.7763  0.9106
  736MOL0     C 1486   6.386   9.599   5.271 -0.2383  0.5181  0.3687
  736MOL0     C 1487   6.274   9.575   5.346 -0.3115  0.8254 -0.3115
  736MOL0     C 1488   6.250   9.644   5.466 -0.2097 -0.0241 -0.0865
  736MOL0     O 1489   6.135   9.661   5.533 -0.2660  1.0237 -0.3363
  736MOL0     C 1490   6.024   9.703   5.461  0.4227 -0.5178 -0.4346
  736MOL0     C 1491   5.892   9.627   5.498 -0.4992  0.3164 -0.5373
  736MOL0     C 1492   5.889   9.474   5.442 -1.2385 -1.4053 -0.0425
  736MOL0     C 1493   5.774   9.400   5.512 -0.5918  0.2436  0.1231
  736MOL0     C 1494   5.646   9.445   5.480 -0.2813 -0.2641  0.8140
  736MOL0     C 1495   5.540   9.485   5.441  1.1623  0.6713 -0.5831
  736MOL0     C 1496   6.346   9.731   5.518  0.8612  0.3787  0.5664
  736MOL0     C 1497   6.473   9.740   5.452 -0.4676 -0.2928 -0.5102
  736MOL0     C 1498   6.576   9.836   5.505  0.3035  0.4249 -0.2291
  736MOL0     H 1499   6.661   9.823   4.888 -0.2950 -1.8635 -0.3291
  736MOL0     H 1500   6.856   9.917   4.791  0.0362 -4.3507 -1.4700
  736MOL0     H 1501   7.250   9.844   4.966 -0.8019 -1.1091 -2.1294
  736MOL0     H 1502   7.221   9.990   5.050  0.7523 -1.8038  0.3412
  736MOL0     H 1503   7.300  10.128   4.861  1.2216 -0.0996  1.2952
  736MOL0     H 1504   7.413   9.999   4.917  0.1752  0.4963 -0.6493
  736MOL0     H 1505   7.343   9.855   4.719 -2.3266 -1.3552 -6.3822
  736MOL0     H 1506   7.225   9.981   4.678 -0.4421  0.6955  0.0469
  736MOL0     H 1507   7.438  10.131   4.648  1.1708 -0.7156 -2.6144
  736MOL0     H 1508   7.539   9.995   4.687 -0.3595  0.4631  0.4826
  736MOL0     H 1509   7.335  10.022   4.458  0.0730 -1.4396 -0.8905
  736MOL0     H 1510   7.442   9.883   4.478  1.1796 -0.3111 -1.4547
  736MOL0     H 1511   7.644  10.057   4.447  0.8221 -0.5767 -1.7417
  736MOL0     H 1512   7.562  10.006   4.308  0.2968  1.0462  0.3519
  736MOL0     H 1513   7.552  10.276   4.428  1.3427 -1.2975  0.7431
  736MOL0     H 1514   7.394  10.210   4.389  0.5267 -0.1596  0.5588
  736MOL0     H 1515   7.479  10.152   4.149 -0.9436 -2.3034  2.3648
  736MOL0     H 1516   7.470  10.327   4.171 -1.1768 -0.8912 -1.0112
  736MOL0     H 1517   7.730  10.411   4.308  0.6233 -1.3300  0.2747
  736MOL0     H 1518   8.079  10.306   4.193  0.7213  2.3431  2.2882
  736MOL0     H 1519   7.997  10.451   4.249 -3.6188 -1.0618  1.5442
  736MOL0     H 1520   8.019  10.369   3.954  1.1700  1.9233 -1.4891
  736MOL0     H 1521   7.900  10.467   4.029 -0.3926  0.7178  2.2102
  736MOL0     H 1522   8.110  10.591   3.942  0.9003 -0.8143 -0.4067
  736MOL0     H 1523   8.077  10.629   4.111 -0.0666 -0.5403  0.5874
  736MOL0     H 1524   8.240  10.495   4.190 -1.9382  0.4795 -0.0410
  736MOL0     H 1525   8.253  10.398   4.046  2.6400  0.7335  0.0534
  736MOL0     H 1526   8.537  10.695   3.927  1.5623  1.6143  0.7155
  736MOL0     H 1527   8.758  10.771   3.884  2.6949  2.1627  0.2489
  736MOL0     H 1528   8.859  10.626   3.879 -1.0889 -2.7542  1.7679
  736MOL0     H 1529   8.885  10.761   4.001 -0.3495 -1.4421  1.1583
  736MOL0     H 1530   9.061  10.288   4.234 -1.2261  1.5381 -0.7384
  736MOL0     H 1531   9.296  10.253   4.285  1.7649  2.8754 -0.9685
  736MOL0     H 1532   9.555  10.609   4.381 -2.0696 -0.9463 -1.7306
  736MOL0     H 1533   9.504  10.578   4.552  0.2582 -2.1879  1.2091
  736MOL0     H 1534   9.662  10.412   4.587 -2.0798 -0.7520 -1.8606
  736MOL0     H 1535   9.720  10.424   4.419  0.4154  1.7566 -1.7395
  736MOL0     H 1536   9.739  10.654   4.618 -0.3259 -0.0999  0.2328
  736MOL0     H 1537   9.769  10.671   4.454 -2.3359 -0.7597 -0.0768
  736MOL0     H 1538   9.965  10.527   4.455  0.8024 -0.3951 -0.1235
  736MOL0     H 1539   9.931  10.483   4.623 -0.9722 -1.6853 -1.4097
  736MOL0     H 1540   9.970  10.778   4.534 -0.1839  0.0804  0.5745
  736MOL0     H 1541   9.978  10.711   4.700 -1.6732  1.6049 -0.0006
  736MOL0     H 1542  10.180  10.588   4.534 -2.1498 -3.5942  1.9054
  736MOL0     H 1543  10.166  10.616   4.698 -0.0673  0.0915 -0.7137
  736MOL0     H 1544  10.203  10.866   4.669  1.0067  0.3247  0.7629
  736MOL0     H 1545  10.213  10.841   4.494 -1.5776 -1.8552 -0.2362
  736MOL0     H 1546  10.453  10.830   4.571 -1.4578  1.0339  1.0314
  736MOL0     H 1547  10.387  10.667   4.528 -0.9898  0.1399  0.2806
  736MOL0     H 1548   9.316  10.617   4.500 -3.6618 -0.0992  2.1780
  736MOL0     H 1549   9.081  10.667   4.428  3.2616  0.8018 -2.3675
  736MOL0     H 1550   8.661  10.400   4.294  0.3282  0.9845 -0.0218
  736MOL0     H 1551   8.433  10.431   4.222 -1.0983  1.2030  0.2761
  736MOL0     H 1552   7.059   9.855   5.162 -0.1123  0.3934 -0.0998
  736MOL0     H 1553   6.874   9.752   5.250 -1.5160  0.1573  0.0176
  736MOL0     H 1554   6.397   9.560   5.170  0.5525  1.5983  0.0177
  736MOL0     H 1555   6.194   9.515   5.304  0.1974 -1.2289  1.4814
  736MOL0     H 1556   5.997   9.802   5.499 -1.3872 -1.6111  1.3392
  736MOL0     H 1557   6.040   9.714   5.353  2.8077  0.1487 -0.0792
  736MOL0     H 1558   5.807   9.674   5.448 -0.9175 -1.5496 -1.6700
  736MOL0     H 1559   5.870   9.633   5.605  2.9053  2.6176  0.2132
  736MOL0     H 1560   5.879   9.477   5.333 -1.5944  1.7649 -0.0174
  736MOL0     H 1561   5.982   9.423   5.468 -0.2833  0.4636  0.4225
  736MOL0     H 1562   5.779   9.402   5.622  1.0473 -0.5806  0.0966
  736MOL0     H 1563   5.788   9.296   5.482  2.3091 -0.0240  1.9540
  736MOL0     H 1564   5.439   9.515   5.422  0.5476 -2.2257 -2.5662
  736MOL0     H 1565   6.313   9.792   5.601 -1.1655  0.0157  0.0735
  736MOL0     H 1566   6.591   9.831   5.613 -2.5161 -4.3634  0.2090
  736MOL0     H 1567   6.673   9.815   5.460  0.7095  0.3658  0.6468
  736MOL0     H 1568   6.556   9.942   5.484  0.5465  0.9882  2.1038
  737MOL0     O 1569   7.937   7.681   1.295  0.0409  0.5810  0.4935
  737MOL0     C 1570   7.825   7.719   1.317  0.8472  0.0677 -0.5938
  737MOL0     O 1571   7.761   7.819   1.251  0.3000  0.8990 -0.1393
  737MOL0     C 1572   7.824   7.900   1.159 -0.4204  0.3824 -0.2559
  737MOL0     C 1573   7.954   7.958   1.176  0.6813  0.3153 -1.2327
  737MOL0     C 1574   7.996   8.047   1.080  0.0420 -0.3527  0.1480
  737MOL0     C 1575   7.914   8.083   0.975  0.4881 -1.1104 -0.4522
  737MOL0     O 1576   7.971   8.166   0.882  0.2446 -0.8781 -0.0940
  737MOL0     C 1577   7.927   8.298   0.898 -0.4229 -0.4344 -0.5570
  737MOL0     C 1578   8.024   8.385   0.827 -0.9427 -0.1075 -0.0582
  737MOL0     C 1579   8.010   8.535   0.865 -0.4239  0.3340  0.1486
  737MOL0     C 1580   8.120   8.615   0.799  0.8147 -0.0159  0.3572
  737MOL0     C 1581   8.145   8.756   0.863  0.2785  0.6090 -0.3152
  737MOL0     C 1582   8.021   8.844   0.880  0.2481 -0.3643  0.2272
  737MOL0     C 1583   8.048   8.981   0.936 -1.1748  0.2948  0.6075
  737MOL0     C 1584   7.909   9.047   0.942  0.4054 -0.5863 -0.2486
  737MOL0     N 1585   7.917   9.186   0.995  0.3953  0.4948 -0.4516
  737MOL0     C 1586   7.965   9.297   0.928 -1.0157 -0.7793 -0.0617
  737MOL0     C 1587   7.948   9.404   1.006  0.1753  0.3919 -0.6123
  737MOL0     C 1588   7.976   9.540   0.958 -1.1930 -0.4399  1.4404
  737MOL0     C 1589   8.114   9.575   1.015 -0.4445  0.5947 -1.5279
  737MOL0     C 1590   8.184   9.691   0.946  0.1971 -0.9366 -0.0458
  737MOL0     C 1591   8.319   9.731   0.996  0.3505 -0.3788  0.7667
  737MOL0     O 1592   8.299   9.748   1.140 -0.7836  0.2877  0.0651
  737MOL0     C 1593   8.411   9.803   1.216  0.4071 -0.0279  0.6795
  737MOL0     C 1594   8.535   9.805   1.159 -1.4896  0.6086 -0.1312
  737MOL0     C 1595   8.645   9.843   1.228  0.1100 -0.1742 -0.1059
  737MOL0     C 1596   8.773   9.849   1.145  0.5525 -0.4281 -0.6233
  737MOL0     C 1597   8.627   9.887   1.363 -0.3951 -0.3554  0.8219
  737MOL0     C 1598   8.736   9.921   1.455 -0.3802 -1.2745 -0.4001
  737MOL0     O 1599   8.709   9.966   1.585  0.1847  0.1992 -0.3396
  737MOL0     C 1600   8.802  10.022   1.670  0.7429 -0.6031 -0.5029
  737MOL0     C 1601   8.745  10.052   1.799  0.0630 -0.2906 -0.8469
  737MOL0     C 1602   8.827  10.117   1.893 -0.4297  0.1555 -0.6386
  737MOL0     C 1603   8.967  10.144   1.870  1.0144  0.8338  0.0285
  737MOL0     O 1604   9.033  10.204   1.978 -0.1832  0.7722  0.5227
  737MOL0     C 1605   9.147  10.280   1.940  0.6978 -0.2540  0.0723
  737MOL0     C 1606   9.207  10.352   2.059  1.0858 -0.1492 -0.0348
  737MOL0     C 1607   9.350  10.314   2.086 -0.3997  0.8276  0.1904
  737MOL0     C 1608   9.441  10.393   1.993 -0.9813  0.1781 -0.2267
  737MOL0     C 1609   9.587  10.360   2.035  0.6511 -0.8693 -0.2895
  737MOL0     C 1610   9.688  10.453   1.973 -0.0509  0.2905 -0.0394
  737MOL0     C 1611   9.828  10.393   2.007  0.8952  1.2098  0.0126
  737MOL0     C 1612   9.934  10.488   1.975 -0.2923  0.0868  0.5863
  737MOL0    Cl 1613  10.096  10.442   2.036 -0.0770 -0.2233 -0.0050
  737MOL0     C 1614   9.026  10.112   1.749  0.4825 -0.1063 -0.1407
  737MOL0     C 1615   8.939  10.064   1.651  0.1044  0.9022  0.7666
  737MOL0     O 1616   8.852   9.910   1.416 -0.3430  0.5250  0.2095
  737MOL0     C 1617   8.503   9.882   1.423  0.2278 -0.4135  0.4257
  737MOL0     C 1618   8.400   9.840   1.345 -0.1158 -0.4138 -0.3156
  737MOL0     N 1619   7.902   9.361   1.124  0.5852  0.3262 -0.2767
  737MOL0     N 1620   7.879   9.233   1.118  0.3220  0.2280 -0.3803
  737MOL0     C 1621   7.789   8.024   0.957  0.1746 -0.1587  0.2760
  737MOL0     C 1622   7.739   7.939   1.056 -0.8135 -0.4291  0.1807
  737MOL0     C 1623   7.746   7.643   1.417  0.2605  0.4157  0.1788
  737MOL0     C 1624   7.619   7.692   1.448 -0.0040 -0.2492  1.0359
  737MOL0     C 1625   7.544   7.631   1.536 -0.2525 -0.7264 -0.3323
  737MOL0     C 1626   7.581   7.511   1.592 -0.6665  0.0342 -0.0675
  737MOL0     O 1627   7.489   7.451   1.671 -0.4786  0.7690  0.0380
  737MOL0     C 1628   7.481   7.306   1.678  0.0860  0.7725  1.3328
  737MOL0     C 1629   7.475   7.248   1.532 -0.8393  0.6271 -0.9202
  737MOL0     C 1630   7.368   7.324   1.452  0.8571 -0.6464 -0.1254
  737MOL0     C 1631   7.359   7.305   1.310  0.1586 -0.5365 -0.1448
  737MOL0     C 1632   7.490   7.329   1.244  0.3123 -0.3492 -0.3643
  737MOL0     C 1633   7.605   7.360   1.213 -0.6530  0.1924 -0.2990
  737MOL0     C 1634   7.713   7.469   1.578  0.8141  0.3680 -0.0281
  737MOL0     C 1635   7.797   7.528   1.487 -0.5748 -0.4575 -0.4544
  737MOL0     C 1636   7.929   7.468   1.459 -0.1261 -1.1095 -0.2860
  737MOL0     H 1637   8.013   7.927   1.261 -0.0583 -2.1659 -1.5552
  737MOL0     H 1638   8.098   8.084   1.078  1.6550 -4.1881 -3.7734
  737MOL0     H 1639   7.909   8.323   1.003  0.8212 -0.2921 -0.3638
  737MOL0     H 1640   7.836   8.315   0.840 -1.8871 -0.4415  1.6353
  737MOL0     H 1641   8.125   8.352   0.853  0.1841  2.0215 -1.4354
  737MOL0     H 1642   8.014   8.391   0.718 -0.7878  3.3366 -0.0088
  737MOL0     H 1643   7.921   8.581   0.822  0.6736 -0.7040 -3.5894
  737MOL0     H 1644   8.006   8.551   0.973 -2.7506 -3.1154  0.7129
  737MOL0     H 1645   8.218   8.570   0.819  0.7973  0.4864  1.6354
  737MOL0     H 1646   8.094   8.620   0.693 -2.2111  2.9583  1.0671
  737MOL0     H 1647   8.230   8.798   0.807  0.3684  0.5640 -0.2125
  737MOL0     H 1648   8.189   8.744   0.962  0.0739  1.4647 -0.1104
  737MOL0     H 1649   7.965   8.847   0.786  0.2458 -5.2655 -0.1786
  737MOL0     H 1650   7.951   8.802   0.953  0.1437  2.1674  1.7294
  737MOL0     H 1651   8.111   9.039   0.867  0.6386 -1.4891  0.7037
  737MOL0     H 1652   8.087   8.990   1.038  0.0563 -0.9356  0.2748
  737MOL0     H 1653   7.859   9.045   0.845 -0.3652 -0.5355  0.1453
  737MOL0     H 1654   7.846   8.989   1.009  2.1581 -1.8715  0.3445
  737MOL0     H 1655   8.006   9.294   0.828  2.9620 -2.3323  1.4283
  737MOL0     H 1656   7.901   9.611   0.994 -1.5283  0.2620 -0.4986
  737MOL0     H 1657   7.958   9.548   0.851 -0.0831  2.3384  1.3775
  737MOL0     H 1658   8.086   9.598   1.118  0.2341  0.6441 -1.3495
  737MOL0     H 1659   8.181   9.489   1.007 -0.3083  0.6824 -1.3566
  737MOL0     H 1660   8.204   9.654   0.844  2.4693 -1.2344  0.4586
  737MOL0     H 1661   8.117   9.777   0.956 -0.2906 -1.1783 -1.0367
  737MOL0     H 1662   8.388   9.653   0.963  1.3565  1.1134 -0.8193
  737MOL0     H 1663   8.360   9.820   0.949  2.1408 -1.9888 -0.8689
  737MOL0     H 1664   8.553   9.775   1.056  1.5668 -1.1995  0.8082
  737MOL0     H 1665   8.833   9.934   1.179 -1.7773  0.0715  2.8969
  737MOL0     H 1666   8.747   9.857   1.039  0.7469 -1.3802 -0.7520
  737MOL0     H 1667   8.827   9.757   1.168 -0.6232 -0.6102  1.7203
  737MOL0     H 1668   8.641  10.043   1.829  0.7816  0.2990  2.0873
  737MOL0     H 1669   8.778  10.149   1.984  0.8587  2.9123 -0.8274
  737MOL0     H 1670   9.221  10.208   1.904  1.4836  0.5931 -0.0411
  737MOL0     H 1671   9.124  10.348   1.857 -1.3328 -1.2989 -0.2898
  737MOL0     H 1672   9.212  10.457   2.029  3.1889 -0.3917 -0.7170
  737MOL0     H 1673   9.133  10.341   2.139 -1.4158 -0.8923 -2.3062
  737MOL0     H 1674   9.369  10.207   2.070  1.6266  1.5642 -3.5739
  737MOL0     H 1675   9.371  10.344   2.189 -4.2403 -1.8131  1.9887
  737MOL0     H 1676   9.423  10.500   2.008 -1.7968 -0.0924  0.7958
  737MOL0     H 1677   9.421  10.362   1.890 -0.6037  0.3742 -0.3631
  737MOL0     H 1678   9.593  10.378   2.143 -0.7861  2.0135 -0.6023
  737MOL0     H 1679   9.601  10.255   2.008 -1.6139 -1.3665  0.2346
  737MOL0     H 1680   9.684  10.554   2.014 -0.4416  0.4277 -0.4071
  737MOL0     H 1681   9.677  10.460   1.864  0.1350 -2.3102 -0.3034
  737MOL0     H 1682   9.839  10.297   1.955 -3.2134 -1.7858  3.9002
  737MOL0     H 1683   9.822  10.374   2.114 -0.6368  0.4949 -0.1694
  737MOL0     H 1684   9.908  10.577   2.034 -2.6921 -0.0509 -0.1557
  737MOL0     H 1685   9.931  10.515   1.869 -3.0919 -2.8527 -0.2320
  737MOL0     H 1686   9.133  10.118   1.737  0.4495  1.4504  0.0774
  737MOL0     H 1687   8.979  10.034   1.555 -0.7735 -1.3176  1.0479
  737MOL0     H 1688   8.482   9.919   1.523 -0.5955  0.8683 -0.1877
  737MOL0     H 1689   8.304   9.827   1.392  0.6109  0.5579  1.5313
  737MOL0     H 1690   7.731   8.053   0.870  0.7914 -0.0103 -0.0874
  737MOL0     H 1691   7.643   7.892   1.042 -0.6821 -0.2752 -1.5208
  737MOL0     H 1692   7.585   7.783   1.399  0.3613  0.4677  2.0766
  737MOL0     H 1693   7.449   7.681   1.549  0.5232  0.7716 -0.2898
  737MOL0     H 1694   7.571   7.269   1.729 -0.0294 -1.8753 -0.2526
  737MOL0     H 1695   7.401   7.278   1.747 -0.2466  1.1008  1.0856
  737MOL0     H 1696   7.450   7.142   1.545  1.6744  0.2617  2.6624
  737MOL0     H 1697   7.573   7.251   1.484 -0.1527  0.0626  0.3871
  737MOL0     H 1698   7.273   7.297   1.499  0.0377  4.3553  1.7848
  737MOL0     H 1699   7.367   7.433   1.464 -2.2569 -0.6497  0.6370
  737MOL0     H 1700   7.291   7.378   1.265  0.2257 -0.1655  0.3481
  737MOL0     H 1701   7.321   7.203   1.307 -0.5774 -0.4425  2.9020
  737MOL0     H 1702   7.706   7.391   1.196 -0.1724 -0.5426  1.0741
  737MOL0     H 1703   7.746   7.378   1.628 -3.4236 -2.2432 -1.4954
  737MOL0     H 1704   8.013   7.534   1.482 -0.3511 -0.3543 -1.5023
  737MOL0     H 1705   7.933   7.379   1.522  1.4374 -2.1622 -1.7821
  737MOL0     H 1706   7.940   7.438   1.354  2.6872  2.1255 -1.0837
  738MOL0     O 1707  10.835   0.323   7.148  0.2236 -0.3824 -0.3085
  738MOL0     C 1708  10.766   0.418   7.185  0.8500  0.4541 -0.2913
  738MOL0     O 1709  10.811   0.520   7.262 -0.6588  0.4120  0.7718
  738MOL0     C 1710  10.939   0.542   7.297 -0.2111  0.2961  0.2915
  738MOL0     C 1711  11.016   0.450   7.365  0.5245  1.1337 -0.3107
  738MOL0     C 1712  11.144   0.488   7.409  0.3337  0.5419  0.0835
  738MOL0     C 1713  11.188   0.627   7.398  0.3371 -0.7478 -0.1459
  738MOL0     O 1714  11.311   0.645   7.447 -0.0129 -0.3929  0.1846
  738MOL0     C 1715  11.367   0.777   7.437  0.0743  0.3902 -0.2723
  738MOL0     C 1716  11.510   0.775   7.509 -0.0882  0.3582  0.2578
  738MOL0     C 1717  11.613   0.872   7.445 -0.2185 -0.2535  0.0744
  738MOL0     C 1718  11.760   0.829   7.444 -0.1799  0.9116  0.8054
  738MOL0     C 1719  11.823   0.818   7.584  0.4860 -0.4968 -0.1962
  738MOL0     C 1720  11.974   0.793   7.573 -0.6230 -0.2823  0.1121
  738MOL0     C 1721  12.052   0.833   7.693 -0.5194 -0.1017 -0.1963
  738MOL0     C 1722  11.993   0.768   7.822  0.3631 -0.1001  0.1510
  738MOL0     N 1723  12.083   0.794   7.940  0.6853 -0.2825  0.4345
  738MOL0     C 1724  12.174   0.701   7.993 -0.2053  0.0314  0.2991
  738MOL0     C 1725  12.235   0.771   8.093  0.1258  0.0256  0.6381
  738MOL0     C 1726  12.343   0.696   8.182 -0.3348 -0.6916  0.5125
  738MOL0     C 1727  12.390   0.778   8.297 -0.0526 -0.8935 -0.1413
  738MOL0     C 1728  12.519   0.860   8.271 -0.4648 -0.4987  0.1079
  738MOL0     C 1729  12.639   0.770   8.289 -0.0043  0.2803  0.3864
  738MOL0     O 1730  12.759   0.855   8.273  0.6177  0.6828  0.2608
  738MOL0     C 1731  12.873   0.791   8.315 -1.2350  0.2119 -0.1114
  738MOL0     C 1732  12.964   0.863   8.393  0.3196 -0.7443 -0.0742
  738MOL0     C 1733  13.078   0.812   8.449  0.8444  0.4082 -0.0051
  738MOL0     C 1734  13.149   0.906   8.546  0.0657  0.5498 -0.7154
  738MOL0     C 1735  13.103   0.681   8.416 -0.0779  0.0936  0.7322
  738MOL0     C 1736  13.226   0.603   8.473 -0.5114 -0.3437 -1.0667
  738MOL0     O 1737  13.228   0.472   8.462 -0.0922  0.9072 -1.0868
  738MOL0     C 1738  13.333   0.403   8.500  0.0597 -0.2295 -0.0014
  738MOL0     C 1739  13.347   0.350   8.629  0.2105  0.4802 -0.5215
  738MOL0     C 1740  13.459   0.263   8.657 -0.0255  0.1403 -0.0616
  738MOL0     C 1741  13.562   0.231   8.566 -0.3424  0.2751  0.7177
  738MOL0     O 1742  13.668   0.153   8.612  0.6408 -0.3684 -0.4376
  738MOL0     C 1743  13.740   0.073   8.520  0.6169  0.9368 -0.8037
  738MOL0     C 1744  13.641  -0.046   8.487  0.0545 -0.2743  0.4748
  738MOL0     C 1745  13.729  -0.156   8.428 -0.8215 -0.5097  0.8794
  738MOL0     C 1746  13.751  -0.141   8.275  0.0237 -0.9231 -0.1452
  738MOL0     C 1747  13.756  -0.275   8.204 -0.5764  0.8234 -1.3726
  738MOL0     C 1748  13.738  -0.249   8.057  0.2561  0.3706 -0.0073
  738MOL0     C 1749  13.740  -0.381   7.987  1.1658 -0.9367 -0.1666
  738MOL0     C 1750  13.886  -0.417   7.967  0.7188  0.3786 -0.6207
  738MOL0    Cl 1751  13.890  -0.561   7.863 -0.3694 -0.3075  0.3341
  738MOL0     C 1752  13.539   0.285   8.435 -0.3677  0.3464 -0.5650
  738MOL0     C 1753  13.427   0.364   8.400  0.5416 -0.3573  0.5578
  738MOL0     O 1754  13.301   0.668   8.546 -0.6042  0.6097 -0.8592
  738MOL0     C 1755  13.013   0.599   8.337 -0.3961  0.6681  0.3532
  738MOL0     C 1756  12.906   0.660   8.284  0.3442  0.3529  0.5007
  738MOL0     N 1757  12.195   0.897   8.088  0.2532  0.4581 -0.0403
  738MOL0     N 1758  12.099   0.917   7.997 -1.0906 -0.0944 -0.8637
  738MOL0     C 1759  11.106   0.723   7.331 -0.2166 -0.2630  0.2251
  738MOL0     C 1760  10.986   0.676   7.284  1.3841  0.9526 -0.7283
  738MOL0     C 1761  10.625   0.429   7.142 -0.1585  1.0806  0.3007
  738MOL0     C 1762  10.540   0.453   7.249  0.5909 -0.2001 -0.0879
  738MOL0     C 1763  10.400   0.472   7.216  0.9143  0.1805 -0.0345
  738MOL0     C 1764  10.349   0.462   7.086  0.6520 -0.3453 -0.5741
  738MOL0     O 1765  10.210   0.474   7.069 -0.1461 -0.2061 -0.1354
  738MOL0     C 1766  10.159   0.510   6.942  0.4145  0.0007 -0.0740
  738MOL0     C 1767   9.998   0.530   6.940 -0.6980  0.0726  0.4411
  738MOL0     C 1768   9.945   0.636   7.040  0.2073  0.5123 -0.3266
  738MOL0     C 1769   9.796   0.619   7.058  0.3796  0.1661 -0.0481
  738MOL0     C 1770   9.712   0.635   6.937  0.2614  0.1351  0.0236
  738MOL0     C 1771   9.648   0.639   6.837 -0.1522  0.1436 -0.1565
  738MOL0     C 1772  10.440   0.433   6.986  0.7706 -0.6040 -0.7902
  738MOL0     C 1773  10.579   0.411   7.012  0.1522 -0.0636 -0.5073
  738MOL0     C 1774  10.674   0.373   6.896  0.4273 -0.4701 -0.0025
  738MOL0     H 1775  10.987   0.349   7.389  2.0651 -0.0395 -2.9422
  738MOL0     H 1776  11.212   0.420   7.457 -0.5883  0.1790  0.9152
  738MOL0     H 1777  11.300   0.848   7.487  1.5960  1.3542  0.4504
  738MOL0     H 1778  11.372   0.814   7.335  1.1948  0.7208 -0.1136
  738MOL0     H 1779  11.509   0.798   7.616 -1.4144 -1.9047  0.8188
  738MOL0     H 1780  11.550   0.673   7.508 -0.7569  0.0866 -1.3611
  738MOL0     H 1781  11.591   0.888   7.339  1.3910 -0.2453 -0.2853
  738MOL0     H 1782  11.604   0.965   7.502 -2.3894 -0.3299 -0.0590
  738MOL0     H 1783  11.770   0.738   7.384 -0.4870  0.7997  0.9181
  738MOL0     H 1784  11.802   0.911   7.385 -1.0196  0.8789  0.1315
  738MOL0     H 1785  11.770   0.743   7.644 -1.8250  2.7288  2.1631
  738MOL0     H 1786  11.810   0.917   7.629 -1.1678  0.4911 -2.5929
  738MOL0     H 1787  11.988   0.688   7.545  1.7282  0.1113 -0.3313
  738MOL0     H 1788  12.007   0.856   7.490  0.5596  1.3974  1.7814
  738MOL0     H 1789  12.055   0.941   7.705  2.1430 -0.2573  1.2730
  738MOL0     H 1790  12.156   0.801   7.683 -1.3518 -3.2422 -0.0198
  738MOL0     H 1791  11.893   0.810   7.840  0.3778  0.5385 -1.1677
  738MOL0     H 1792  11.970   0.661   7.810 -1.0423  0.0004  1.5420
  738MOL0     H 1793  12.188   0.597   7.966 -2.1226  0.4378 -2.6054
  738MOL0     H 1794  12.423   0.682   8.109 -3.7046 -1.4142 -3.4252
  738MOL0     H 1795  12.299   0.607   8.227  0.3899 -0.9472  0.7175
  738MOL0     H 1796  12.304   0.838   8.330 -0.8552 -1.3120 -1.4129
  738MOL0     H 1797  12.407   0.704   8.376  1.1931 -0.1370  0.3278
  738MOL0     H 1798  12.518   0.914   8.176 -2.6306 -0.8011 -0.0869
  738MOL0     H 1799  12.522   0.936   8.350 -0.5257 -1.2221  0.8147
  738MOL0     H 1800  12.636   0.709   8.379 -2.9523 -0.3016 -0.0008
  738MOL0     H 1801  12.638   0.692   8.212  2.8081 -0.7614  1.2808
  738MOL0     H 1802  12.929   0.960   8.425  0.5776 -0.3426 -0.9771
  738MOL0     H 1803  13.187   0.852   8.633 -1.9108  2.4202  1.4268
  738MOL0     H 1804  13.071   0.972   8.585 -1.1540 -1.5022  0.5081
  738MOL0     H 1805  13.234   0.954   8.498  1.3100 -1.9271 -1.1877
  738MOL0     H 1806  13.267   0.376   8.699 -0.1171  1.5039 -1.2544
  738MOL0     H 1807  13.481   0.227   8.757  2.4644  0.2491 -0.5059
  738MOL0     H 1808  13.772   0.124   8.428  2.4382  2.7037  0.7239
  738MOL0     H 1809  13.825   0.032   8.576  0.6016  1.3602 -0.4713
  738MOL0     H 1810  13.590  -0.095   8.571  0.0357  1.5990  1.6079
  738MOL0     H 1811  13.562  -0.007   8.422 -0.5913 -2.1453  0.0713
  738MOL0     H 1812  13.656  -0.236   8.446 -1.0789 -0.3706  0.4869
  738MOL0     H 1813  13.821  -0.167   8.486  0.7036  0.0581 -1.3237
  738MOL0     H 1814  13.835  -0.073   8.264 -1.1653  0.5239 -0.5609
  738MOL0     H 1815  13.671  -0.082   8.228 -2.9369 -2.1822  2.8847
  738MOL0     H 1816  13.846  -0.332   8.230 -1.4883  0.5769  1.6850
  738MOL0     H 1817  13.673  -0.338   8.237 -0.8329  1.5220 -0.6547
  738MOL0     H 1818  13.829  -0.193   8.032  1.5915 -1.9116 -0.4712
  738MOL0     H 1819  13.644  -0.196   8.041 -0.2012 -0.6302 -0.6777
  738MOL0     H 1820  13.690  -0.375   7.890 -0.9911  3.3453  0.9286
  738MOL0     H 1821  13.682  -0.461   8.034 -0.3280  0.8196  1.1455
  738MOL0     H 1822  13.930  -0.432   8.066  2.3317 -0.3573 -1.4136
  738MOL0     H 1823  13.947  -0.340   7.919 -0.7626  1.3669 -0.9720
  738MOL0     H 1824  13.607   0.260   8.354 -0.0025  2.9134 -1.1216
  738MOL0     H 1825  13.420   0.385   8.294  0.4528  0.6303  0.7535
  738MOL0     H 1826  13.021   0.491   8.338  0.5191  0.6561 -2.1301
  738MOL0     H 1827  12.844   0.597   8.222 -0.7471  0.4605  1.4574
  738MOL0     H 1828  11.133   0.828   7.324  0.8405 -0.5561 -0.2973
  738MOL0     H 1829  10.920   0.744   7.232  0.3699 -0.8011 -1.7979
  738MOL0     H 1830  10.577   0.462   7.350  0.6874  2.2277 -0.2909
  738MOL0     H 1831  10.330   0.502   7.294  2.7126 -0.4109  1.8980
  738MOL0     H 1832  10.205   0.604   6.910 -1.2979  2.2202  3.4557
  738MOL0     H 1833  10.193   0.431   6.873  1.1543 -0.6283  0.9869
  738MOL0     H 1834   9.956   0.435   6.975 -0.5973 -0.4819 -0.8661
  738MOL0     H 1835   9.962   0.556   6.840  0.1729 -0.6479 -0.0858
  738MOL0     H 1836  10.000   0.631   7.134 -0.8821 -1.6558  0.2666
  738MOL0     H 1837   9.983   0.732   7.004 -1.3074  0.2868 -2.8148
  738MOL0     H 1838   9.760   0.699   7.125  0.3444 -0.2993  0.4957
  738MOL0     H 1839   9.780   0.520   7.102 -0.0747  0.3514  0.2147
  738MOL0     H 1840   9.584   0.643   6.751  0.7972 -1.1060 -0.9591
  738MOL0     H 1841  10.396   0.456   6.890 -2.9825  2.9846  1.4843
  738MOL0     H 1842  10.754   0.446   6.881  0.1461 -0.6514 -2.8811
  738MOL0     H 1843  10.728   0.280   6.916  0.4120 -0.1200  1.9562
  738MOL0     H 1844  10.622   0.358   6.801  1.0897 -3.2081 -0.0049
  739MOL0     O 1845   4.809   3.673   3.846 -0.4427  0.3845 -0.2151
  739MOL0     C 1846   4.696   3.675   3.791  0.2943  0.7532  0.4959
  739MOL0     O 1847   4.670   3.699   3.660 -0.4281 -0.4822  0.1216
  739MOL0     C 1848   4.782   3.694   3.580  0.2859 -0.3779 -0.8328
  739MOL0     C 1849   4.868   3.800   3.583 -0.4800 -0.2528  0.2165
  739MOL0     C 1850   4.980   3.796   3.508 -0.2660  0.1217  0.1828
  739MOL0     C 1851   5.017   3.679   3.433  1.0914  0.1441 -0.5028
  739MOL0     O 1852   5.137   3.683   3.366 -0.3603  0.4744  0.5537
  739MOL0     C 1853   5.185   3.563   3.309  0.4940  0.4484 -0.3407
  739MOL0     C 1854   5.336   3.571   3.265 -0.1502 -0.1906 -0.3556
  739MOL0     C 1855   5.389   3.440   3.194 -0.5661  0.8485  0.2333
  739MOL0     C 1856   5.291   3.399   3.086  0.5142 -0.5675  0.0464
  739MOL0     C 1857   5.352   3.293   2.993 -0.5818 -0.3539  0.4350
  739MOL0     C 1858   5.408   3.171   3.065 -0.6234  0.3299 -0.2119
  739MOL0     C 1859   5.312   3.076   3.139  0.2913  0.5598  0.3430
  739MOL0     C 1860   5.206   3.010   3.051 -0.9439  0.4537  0.1007
  739MOL0     N 1861   5.132   2.893   3.111 -0.5455 -0.7394  0.0830
  739MOL0     C 1862   5.014   2.909   3.186 -0.6414  0.1903  1.3755
  739MOL0     C 1863   4.974   2.776   3.203 -0.6428 -0.2657 -0.3823
  739MOL0     C 1864   4.852   2.719   3.264 -1.0172 -0.6169 -0.6083
  739MOL0     C 1865   4.726   2.758   3.178 -0.3021  0.6231  0.6649
  739MOL0     C 1866   4.615   2.685   3.237 -0.1706  0.9816 -0.5582
  739MOL0     C 1867   4.476   2.705   3.178 -0.2577  0.4714  0.8987
  739MOL0     O 1868   4.392   2.604   3.230  0.2433  0.6077 -0.0735
  739MOL0     C 1869   4.273   2.592   3.157  0.6361  0.4828 -0.0045
  739MOL0     C 1870   4.221   2.669   3.054  0.3300 -0.4339 -0.5423
  739MOL0     C 1871   4.097   2.653   2.993  0.4009  0.0643  0.3109
  739MOL0     C 1872   4.058   2.742   2.877 -0.4843  0.3649 -0.2402
  739MOL0     C 1873   4.010   2.557   3.042 -0.4284  0.9596 -0.1629
  739MOL0     C 1874   3.870   2.538   2.998  0.3270  0.0200  0.3578
  739MOL0     O 1875   3.791   2.645   2.968 -0.5851  0.1965  0.3044
  739MOL0     C 1876   3.657   2.627   2.952  0.1344 -0.2942 -0.2063
  739MOL0     C 1877   3.576   2.556   3.044  0.6593  1.0122  0.2884
  739MOL0     C 1878   3.440   2.533   3.021 -0.0437 -0.2649 -0.2683
  739MOL0     C 1879   3.382   2.575   2.904  0.2419  0.0870  0.1316
  739MOL0     O 1880   3.249   2.571   2.876 -0.4480 -0.0227 -0.1374
  739MOL0     C 1881   3.160   2.571   2.982  0.6110  0.7295 -1.1337
  739MOL0     C 1882   3.014   2.588   2.937 -0.3222 -0.5152 -0.1918
  739MOL0     C 1883   2.978   2.485   2.830  0.2922  0.3319 -0.2484
  739MOL0     C 1884   2.824   2.459   2.814 -0.3617 -0.3096  0.4504
  739MOL0     C 1885   2.754   2.358   2.902  0.0344 -0.3950 -0.6549
  739MOL0     C 1886   2.680   2.407   3.027  0.2045 -1.2307 -1.4055
  739MOL0     C 1887   2.627   2.287   3.101 -0.3593 -0.0627  0.2416
  739MOL0     C 1888   2.550   2.326   3.235  0.0782  0.5412 -0.0236
  739MOL0    Cl 1889   2.386   2.373   3.175 -0.4028  0.3457  0.0117
  739MOL0     C 1890   3.462   2.653   2.816  0.6437 -0.0872  0.3288
  739MOL0     C 1891   3.591   2.680   2.834 -0.8497 -0.1381 -0.4430
  739MOL0     O 1892   3.831   2.425   2.998  0.1554  0.6782 -0.4479
  739MOL0     C 1893   4.057   2.473   3.155 -0.1359 -0.4209  0.4004
  739MOL0     C 1894   4.183   2.495   3.212  1.2314  0.7879  0.1451
  739MOL0     N 1895   5.072   2.695   3.144  0.7050  0.6367  0.4538
  739MOL0     N 1896   5.162   2.759   3.089 -0.1932 -0.0753 -0.3257
  739MOL0     C 1897   4.929   3.570   3.428  0.1029 -0.1963  0.0963
  739MOL0     C 1898   4.812   3.573   3.504  0.1679  0.4862 -0.5705
  739MOL0     C 1899   4.579   3.646   3.879  0.5566  0.6460 -0.4165
  739MOL0     C 1900   4.451   3.646   3.829  0.3585  1.0359  0.7340
  739MOL0     C 1901   4.341   3.619   3.901 -0.2047 -0.7825 -0.9198
  739MOL0     C 1902   4.342   3.592   4.038 -0.0291  0.3233  0.4643
  739MOL0     O 1903   4.221   3.554   4.095  0.4005 -0.5758  0.1874
  739MOL0     C 1904   4.214   3.512   4.229  0.4480 -0.2001  0.1206
  739MOL0     C 1905   4.068   3.485   4.269  0.1065  0.1809  0.2607
  739MOL0     C 1906   4.009   3.365   4.192  0.2791  0.0277  0.3207
  739MOL0     C 1907   3.860   3.354   4.223  0.3227 -0.2187  0.0201
  739MOL0     C 1908   3.783   3.462   4.154  0.3928  0.5959  0.2320
  739MOL0     C 1909   3.704   3.537   4.087  1.1830  0.0831  0.2948
  739MOL0     C 1910   4.469   3.582   4.096  0.3519 -0.5881  0.1076
  739MOL0     C 1911   4.589   3.610   4.019 -0.6225  0.0448 -0.0246
  739MOL0     C 1912   4.714   3.603   4.097 -0.1046 -0.4061  0.4676
  739MOL0     H 1913   4.844   3.884   3.647  2.0961  0.2836  0.5940
  739MOL0     H 1914   5.044   3.882   3.490  2.1251 -2.1283 -3.3948
  739MOL0     H 1915   5.125   3.540   3.221  0.2915 -1.0471  0.1422
  739MOL0     H 1916   5.172   3.479   3.378  1.6507  2.2057  2.1947
  739MOL0     H 1917   5.348   3.654   3.194  0.2303  0.6285  0.6508
  739MOL0     H 1918   5.378   3.593   3.363 -1.8632  4.6839 -0.4032
  739MOL0     H 1919   5.486   3.456   3.144 -1.6941  1.6809 -1.7990
  739MOL0     H 1920   5.393   3.361   3.269 -1.2821  0.2770 -0.3161
  739MOL0     H 1921   5.196   3.361   3.122 -0.8242  0.5040 -2.1313
  739MOL0     H 1922   5.258   3.481   3.021 -1.4862 -2.0233 -0.8724
  739MOL0     H 1923   5.439   3.333   2.940 -1.1490 -0.6225 -0.7133
  739MOL0     H 1924   5.280   3.267   2.915  1.9825 -0.3812 -2.0988
  739MOL0     H 1925   5.474   3.122   2.993  0.0290  2.1494 -0.9097
  739MOL0     H 1926   5.477   3.201   3.144  1.5709 -1.8488 -1.1621
  739MOL0     H 1927   5.259   3.121   3.224  2.1627  0.7976  1.4492
  739MOL0     H 1928   5.379   2.996   3.175  0.0594 -0.4835 -1.4464
  739MOL0     H 1929   5.134   3.090   3.032  0.2496  1.2693 -1.1817
  739MOL0     H 1930   5.248   2.979   2.955 -3.3367 -1.1030 -0.5406
  739MOL0     H 1931   4.963   3.000   3.215  0.1006  2.4883 -3.5003
  739MOL0     H 1932   4.835   2.766   3.362 -3.0215  0.0706 -1.2258
  739MOL0     H 1933   4.864   2.610   3.260  0.4246 -0.4558 -4.7334
  739MOL0     H 1934   4.701   2.865   3.175  1.7846  1.2582  2.4746
  739MOL0     H 1935   4.741   2.724   3.075  1.8051  2.4718  0.2773
  739MOL0     H 1936   4.638   2.578   3.231  0.2082  0.9627  0.9285
  739MOL0     H 1937   4.603   2.722   3.339  0.8739  1.4500 -0.5856
  739MOL0     H 1938   4.424   2.799   3.198  1.9094  2.4601 -1.9636
  739MOL0     H 1939   4.481   2.688   3.070  0.1691 -0.0135  0.9906
  739MOL0     H 1940   4.278   2.756   3.023  0.7186 -0.5720 -0.2213
  739MOL0     H 1941   3.965   2.799   2.888  0.5340  1.5869  2.8081
  739MOL0     H 1942   4.053   2.674   2.791  1.1485 -2.2988  1.6235
  739MOL0     H 1943   4.137   2.815   2.859 -0.1724  0.3909  1.1616
  739MOL0     H 1944   3.615   2.518   3.138 -1.3952  2.3976  1.7834
  739MOL0     H 1945   3.379   2.488   3.099  1.0603 -0.8616  0.2643
  739MOL0     H 1946   3.156   2.471   3.026  0.5159  1.2515  0.1083
  739MOL0     H 1947   3.191   2.650   3.051  2.1051 -1.6926  1.1697
  739MOL0     H 1948   2.943   2.575   3.019 -1.7895 -0.5168 -1.3923
  739MOL0     H 1949   3.009   2.689   2.896  0.1330 -1.3605 -2.5078
  739MOL0     H 1950   3.020   2.385   2.838  0.3831  0.0170 -3.3126
  739MOL0     H 1951   3.012   2.524   2.734  2.7223  0.5559  0.6520
  739MOL0     H 1952   2.816   2.423   2.711  1.7089 -1.7410  0.7289
  739MOL0     H 1953   2.771   2.555   2.812 -3.4683 -1.8574 -2.5172
  739MOL0     H 1954   2.680   2.309   2.839  0.9022 -1.6607 -0.7258
  739MOL0     H 1955   2.826   2.283   2.936  0.5092  0.6178  0.6932
  739MOL0     H 1956   2.600   2.474   2.993 -0.2660 -0.6484  0.7299
  739MOL0     H 1957   2.744   2.456   3.100 -2.0990 -2.0399  1.3560
  739MOL0     H 1958   2.702   2.212   3.129 -0.2725  0.9111  2.9352
  739MOL0     H 1959   2.563   2.232   3.031 -2.3982 -1.5763  3.0743
  739MOL0     H 1960   2.610   2.399   3.291  1.0418  2.2824 -3.0846
  739MOL0     H 1961   2.532   2.238   3.297 -1.7414  1.9576  1.5837
  739MOL0     H 1962   3.411   2.687   2.726  0.5813 -0.5831  0.1752
  739MOL0     H 1963   3.647   2.749   2.771 -0.6841  2.0654  1.9399
  739MOL0     H 1964   3.992   2.395   3.191 -0.8385 -0.6370 -1.2505
  739MOL0     H 1965   4.217   2.427   3.290  1.6062  2.5366  1.5873
  739MOL0     H 1966   4.950   3.479   3.371 -1.5442  0.5542 -1.8226
  739MOL0     H 1967   4.740   3.492   3.493 -0.9478  1.3168  0.3263
  739MOL0     H 1968   4.441   3.658   3.721  0.9412  2.0974  0.7847
  739MOL0     H 1969   4.249   3.613   3.843 -2.1288 -2.5156  2.0368
  739MOL0     H 1970   4.270   3.421   4.251 -2.7831 -1.8456  2.3283
  739MOL0     H 1971   4.250   3.598   4.287  0.8002  2.1745 -3.3408
  739MOL0     H 1972   4.000   3.568   4.247  0.0427  0.4630  1.4968
  739MOL0     H 1973   4.070   3.454   4.373 -0.5631  0.1762  0.2794
  739MOL0     H 1974   4.030   3.371   4.084  0.6997  1.2221  0.4575
  739MOL0     H 1975   4.068   3.279   4.226  2.1195  1.3494  0.5909
  739MOL0     H 1976   3.842   3.361   4.331  1.1935  0.6282  0.1240
  739MOL0     H 1977   3.820   3.261   4.181  1.0900  0.1007 -1.5118
  739MOL0     H 1978   3.626   3.595   4.043  0.0102 -2.4287 -1.1566
  739MOL0     H 1979   4.478   3.563   4.202 -1.3215 -0.8859  0.2194
  739MOL0     H 1980   4.783   3.536   4.045 -0.6681  0.5014 -1.5360
  739MOL0     H 1981   4.757   3.704   4.096 -0.2162 -0.3661 -0.1308
  739MOL0     H 1982   4.689   3.557   4.194  2.3147 -1.5048  0.6539
  740MOL0     O 1983   1.714   6.956   8.724 -0.5471 -0.4196 -0.2248
  740MOL0     C 1984   1.662   6.863   8.779  0.6964 -0.7677 -0.1536
  740MOL0     O 1985   1.730   6.752   8.837  0.4466 -0.2254  0.0978
  740MOL0     C 1986   1.866   6.737   8.811 -0.1115  0.4361 -1.0510
  740MOL0     C 1987   1.910   6.754   8.681  0.3168  0.2693 -0.0828
  740MOL0     C 1988   2.044   6.746   8.649 -0.4253 -0.7694 -0.2961
  740MOL0     C 1989   2.133   6.714   8.752  0.2479  0.3898  0.8217
  740MOL0     O 1990   2.263   6.719   8.721 -0.0860  0.1165 -0.2676
  740MOL0     C 1991   2.364   6.692   8.819 -0.3927  0.8013 -0.1583
  740MOL0     C 1992   2.506   6.690   8.766  0.4806 -0.2984 -0.1967
  740MOL0     C 1993   2.525   6.582   8.651  0.2747  0.4261 -0.0102
  740MOL0     C 1994   2.668   6.537   8.622 -0.4263 -0.4355 -0.4700
  740MOL0     C 1995   2.681   6.458   8.497  0.8112 -0.0241  0.3261
  740MOL0     C 1996   2.831   6.449   8.450 -1.0311 -0.7815  0.0629
  740MOL0     C 1997   2.840   6.374   8.314 -0.1433 -0.6370 -0.7205
  740MOL0     C 1998   2.978   6.339   8.277  1.0635 -0.0327 -0.2130
  740MOL0     N 1999   3.059   6.441   8.227 -0.1873 -0.7149 -0.2765
  740MOL0     C 2000   3.141   6.524   8.303 -0.1927 -0.6181  0.9751
  740MOL0     C 2001   3.179   6.620   8.211 -0.3518  0.4098  0.2090
  740MOL0     C 2002   3.260   6.738   8.238 -0.5686  0.6531  0.2929
  740MOL0     C 2003   3.396   6.755   8.152  0.6341 -0.5709  0.5458
  740MOL0     C 2004   3.479   6.617   8.141  0.9755 -0.2094  0.0037
  740MOL0     C 2005   3.511   6.558   8.275 -0.0630 -0.0671  0.2115
  740MOL0     O 2006   3.603   6.644   8.339 -0.0012 -0.1213  0.5578
  740MOL0     C 2007   3.737   6.647   8.317  0.6946  0.5959  0.2633
  740MOL0     C 2008   3.794   6.761   8.375 -0.8013  0.1629 -1.4182
  740MOL0     C 2009   3.935   6.785   8.359  0.5600 -0.4681  0.0672
  740MOL0     C 2010   3.997   6.914   8.409 -0.1275  0.8604  0.3078
  740MOL0     C 2011   4.020   6.684   8.299 -0.1222 -0.7068 -0.5641
  740MOL0     C 2012   4.165   6.703   8.261 -0.4330 -0.2397 -0.5405
  740MOL0     O 2013   4.206   6.828   8.240 -0.3722 -0.2952 -0.9911
  740MOL0     C 2014   4.340   6.844   8.232 -1.0903 -0.1065 -0.0465
  740MOL0     C 2015   4.402   6.839   8.104  0.0818  0.4315  0.2720
  740MOL0     C 2016   4.531   6.886   8.080 -0.4419  0.2734  0.0015
  740MOL0     C 2017   4.602   6.937   8.188 -0.9409 -0.5215  0.4074
  740MOL0     O 2018   4.718   7.010   8.161 -0.4933  0.2389  0.0363
  740MOL0     C 2019   4.832   6.961   8.241  0.0863  0.0608  0.4621
  740MOL0     C 2020   4.954   7.029   8.178  0.1676  0.3227 -0.5216
  740MOL0     C 2021   4.958   7.178   8.209  0.2393  0.0971  0.1305
  740MOL0     C 2022   5.087   7.233   8.145  0.1956  0.0331  0.1426
  740MOL0     C 2023   5.109   7.373   8.212 -0.0039 -0.6519  0.2323
  740MOL0     C 2024   5.237   7.445   8.156  0.5369 -0.0463  0.7885
  740MOL0     C 2025   5.240   7.593   8.203 -0.0345 -0.0580 -1.3257
  740MOL0     C 2026   5.377   7.662   8.178  0.6466  0.0956  0.5233
  740MOL0    Cl 2027   5.489   7.608   8.278  0.4250 -0.3002 -0.1978
  740MOL0     C 2028   4.544   6.946   8.322  0.4731  0.0896 -0.3662
  740MOL0     C 2029   4.417   6.893   8.338  0.3749 -0.9027 -0.1422
  740MOL0     O 2030   4.230   6.596   8.260 -0.0406 -0.7477  0.0326
  740MOL0     C 2031   3.958   6.565   8.253 -0.1142 -0.3334  0.2017
  740MOL0     C 2032   3.818   6.556   8.243 -0.1295 -0.1446  0.2009
  740MOL0     N 2033   3.136   6.589   8.082  0.0748 -0.0877  0.0919
  740MOL0     N 2034   3.066   6.482   8.094 -0.2153 -0.2611 -0.4587
  740MOL0     C 2035   2.085   6.687   8.882 -0.6133 -0.4927 -0.4421
  740MOL0     C 2036   1.949   6.698   8.911  0.0799 -0.2817  0.0684
  740MOL0     C 2037   1.515   6.875   8.794  0.9996 -0.0778 -0.1894
  740MOL0     C 2038   1.431   6.846   8.681  0.2441  0.8352 -0.8390
  740MOL0     C 2039   1.296   6.851   8.684 -0.0758  0.7006  0.5227
  740MOL0     C 2040   1.232   6.884   8.802  0.1340 -0.8713 -0.4172
  740MOL0     O 2041   1.098   6.878   8.812  0.4320  0.2860 -0.5480
  740MOL0     C 2042   1.025   6.973   8.745  0.9440  0.4565  0.3310
  740MOL0     C 2043   0.866   6.955   8.753  0.0632  0.7828 -0.1722
  740MOL0     C 2044   0.814   6.964   8.894 -0.1391  0.8809 -0.0831
  740MOL0     C 2045   0.655   6.954   8.902 -0.1775  1.2353  0.8461
  740MOL0     C 2046   0.598   6.841   8.823 -0.2784 -0.0933  0.1198
  740MOL0     C 2047   0.548   6.757   8.752  0.2014  0.3590  0.2664
  740MOL0     C 2048   1.304   6.905   8.922 -0.3979  0.2266  0.7254
  740MOL0     C 2049   1.448   6.900   8.914  0.5330 -0.4211  1.0871
  740MOL0     C 2050   1.520   6.945   9.031 -0.1271  0.6807 -0.6880
  740MOL0     H 2051   1.845   6.770   8.596  0.1429  0.8055  0.1428
  740MOL0     H 2052   2.077   6.770   8.549  1.5453  1.4613  0.7980
  740MOL0     H 2053   2.341   6.591   8.854  1.9525  1.0141  2.3414
  740MOL0     H 2054   2.362   6.762   8.903  0.1662  0.5152  0.0928
  740MOL0     H 2055   2.522   6.791   8.728 -0.1836  1.4285  3.6285
  740MOL0     H 2056   2.577   6.677   8.848  0.0869 -1.3306 -0.0056
  740MOL0     H 2057   2.474   6.491   8.684 -0.6249  0.8947 -0.0827
  740MOL0     H 2058   2.473   6.612   8.560  0.5492  1.2464  0.0960
  740MOL0     H 2059   2.717   6.634   8.612 -3.2352  1.1837  0.1510
  740MOL0     H 2060   2.715   6.494   8.711 -0.5965 -1.1510 -0.7235
  740MOL0     H 2061   2.619   6.495   8.415  1.3100 -3.4149 -1.7809
  740MOL0     H 2062   2.640   6.357   8.503 -0.4817  0.3155 -1.8059
  740MOL0     H 2063   2.868   6.549   8.427 -2.5902 -0.0048  0.7871
  740MOL0     H 2064   2.893   6.402   8.527  1.2308  1.5972 -0.1759
  740MOL0     H 2065   2.794   6.433   8.234 -1.3128 -1.4497 -0.6585
  740MOL0     H 2066   2.782   6.282   8.321 -0.3480 -0.6152 -1.8942
  740MOL0     H 2067   3.035   6.303   8.363  1.2288 -2.2304 -1.1735
  740MOL0     H 2068   2.981   6.260   8.201 -1.7942 -1.1753  0.7165
  740MOL0     H 2069   3.173   6.505   8.405 -1.1679  0.6957  1.5579
  740MOL0     H 2070   3.273   6.757   8.345 -0.8413 -2.5550  0.9968
  740MOL0     H 2071   3.195   6.822   8.213 -1.0018  0.4093  0.5838
  740MOL0     H 2072   3.364   6.792   8.054  1.6076 -0.1402  0.3827
  740MOL0     H 2073   3.461   6.835   8.189 -2.1449  2.2380 -0.1990
  740MOL0     H 2074   3.426   6.545   8.078 -0.4817  1.2761 -0.5467
  740MOL0     H 2075   3.575   6.632   8.092  0.0445  2.7439 -1.1613
  740MOL0     H 2076   3.423   6.555   8.340  1.5584 -1.4296  2.5167
  740MOL0     H 2077   3.552   6.457   8.270  0.8156  0.2625  0.5942
  740MOL0     H 2078   3.728   6.833   8.422  0.9599  0.6829  0.3532
  740MOL0     H 2079   3.919   6.971   8.461 -1.1046  0.3776 -0.6001
  740MOL0     H 2080   4.030   6.966   8.319  0.2511  0.1296  0.0205
  740MOL0     H 2081   4.084   6.887   8.469 -0.2775  1.6353  0.8941
  740MOL0     H 2082   4.344   6.813   8.016 -0.4385  0.1723  0.6832
  740MOL0     H 2083   4.579   6.894   7.983 -1.3861 -2.7654 -0.8230
  740MOL0     H 2084   4.818   7.000   8.343  1.7722  1.0096  0.3657
  740MOL0     H 2085   4.856   6.855   8.234 -0.2019  0.0423 -0.3553
  740MOL0     H 2086   5.043   6.980   8.219 -0.4628 -0.9010 -0.5809
  740MOL0     H 2087   4.939   7.009   8.072 -1.4804 -1.2432 -0.0541
  740MOL0     H 2088   4.940   7.205   8.313 -2.0778  1.1403 -0.4741
  740MOL0     H 2089   4.878   7.223   8.150  0.3405  0.6453  0.4016
  740MOL0     H 2090   5.077   7.253   8.038 -0.8733  3.4717  0.7763
  740MOL0     H 2091   5.173   7.167   8.162  1.3464  1.7514  1.2463
  740MOL0     H 2092   5.017   7.425   8.184 -0.8547 -1.8090  0.8131
  740MOL0     H 2093   5.106   7.358   8.320 -1.0832  0.7057  0.4164
  740MOL0     H 2094   5.244   7.439   8.047  0.4720  0.3646  0.7583
  740MOL0     H 2095   5.327   7.401   8.202 -0.7564 -2.4063  1.2428
  740MOL0     H 2096   5.214   7.596   8.310  1.2543  1.8014 -1.0248
  740MOL0     H 2097   5.161   7.633   8.139 -0.9473 -0.7577 -0.6670
  740MOL0     H 2098   5.373   7.769   8.197 -1.0944  0.0775  0.4251
  740MOL0     H 2099   5.403   7.651   8.073  1.7513 -1.8218  0.9460
  740MOL0     H 2100   4.594   7.001   8.401  1.5159 -0.5187 -0.5813
  740MOL0     H 2101   4.367   6.907   8.433  0.0692 -1.3095 -0.2388
  740MOL0     H 2102   4.006   6.482   8.202 -1.8452 -3.2628  2.9708
  740MOL0     H 2103   3.785   6.469   8.186  2.4449 -1.5715  0.7172
  740MOL0     H 2104   2.156   6.663   8.961  0.5929  1.7631 -0.7529
  740MOL0     H 2105   1.897   6.695   9.006 -0.2371 -0.0427 -0.0954
  740MOL0     H 2106   1.478   6.806   8.592 -0.8534 -3.0495  0.1360
  740MOL0     H 2107   1.240   6.825   8.594  1.8376 -2.4646  0.1095
  740MOL0     H 2108   1.054   7.073   8.778  2.1231  0.9992 -2.0771
  740MOL0     H 2109   1.052   6.965   8.639 -0.0464 -0.5987  0.1395
  740MOL0     H 2110   0.846   6.850   8.730  0.4250 -0.2005  3.4847
  740MOL0     H 2111   0.814   7.026   8.688 -3.7849  0.4080  2.2037
  740MOL0     H 2112   0.851   6.874   8.944 -1.7381 -1.0188 -2.0913
  740MOL0     H 2113   0.850   7.054   8.943  0.6276  0.4633  0.1334
  740MOL0     H 2114   0.606   7.046   8.869  0.2108  0.5414 -1.9460
  740MOL0     H 2115   0.615   6.949   9.004 -2.0208  0.9280  0.1498
  740MOL0     H 2116   0.487   6.697   8.688  0.6189  1.6060 -1.3793
  740MOL0     H 2117   1.242   6.934   9.006 -4.8793 -1.1138 -1.7719
  740MOL0     H 2118   1.502   7.049   9.056 -3.4099 -0.4769  2.6167
  740MOL0     H 2119   1.487   6.884   9.115  3.8068 -0.9220 -0.0859
  740MOL0     H 2120   1.629   6.932   9.027  0.0386  2.2015 -1.6113
  741MOL0     O 2121  11.117   6.652   7.880 -1.0191 -0.0578  0.6025
  741MOL0     C 2122  11.032   6.629   7.799  0.1767  0.3785  0.7297
  741MOL0     O 2123  11.053   6.625   7.661 -0.5414 -0.8184  0.2288
  741MOL0     C 2124  11.182   6.634   7.616  0.7768  0.1642 -0.0196
  741MOL0     C 2125  11.256   6.520   7.578 -0.2814 -0.5223  0.3176
  741MOL0     C 2126  11.389   6.535   7.544  0.1780  0.6427  0.8602
  741MOL0     C 2127  11.449   6.669   7.538 -0.0972 -0.0323  0.3397
  741MOL0     O 2128  11.579   6.694   7.512  0.7263 -0.0914  0.4757
  741MOL0     C 2129  11.671   6.586   7.523 -0.7270  0.3581 -0.1698
  741MOL0     C 2130  11.804   6.649   7.486 -0.1860  0.2550  0.4878
  741MOL0     C 2131  11.919   6.547   7.465  0.2078  0.4981 -0.0712
  741MOL0     C 2132  12.045   6.625   7.438 -0.7598 -0.0356  0.3785
  741MOL0     C 2133  12.162   6.539   7.393 -0.8363 -0.5464 -0.3059
  741MOL0     C 2134  12.227   6.466   7.506  0.2390  0.0643  0.4973
  741MOL0     C 2135  12.348   6.387   7.479 -1.0912  0.7922  0.4034
  741MOL0     C 2136  12.382   6.293   7.603  0.5561 -0.0711  0.4525
  741MOL0     N 2137  12.493   6.214   7.569  0.6322  0.0548  0.2564
  741MOL0     C 2138  12.484   6.087   7.535 -0.0398  0.0502 -0.1267
  741MOL0     C 2139  12.612   6.047   7.511 -0.3474 -0.2191 -0.7308
  741MOL0     C 2140  12.657   5.907   7.474  0.5225  0.4474  0.3027
  741MOL0     C 2141  12.806   5.886   7.481 -0.0031  0.7823  0.0137
  741MOL0     C 2142  12.853   5.761   7.403 -0.2621  0.1409  0.2887
  741MOL0     C 2143  12.804   5.633   7.468  0.3577  0.2362 -0.0458
  741MOL0     O 2144  12.664   5.613   7.441  0.8424 -0.1826  0.2906
  741MOL0     C 2145  12.611   5.488   7.437  0.6297 -0.6115 -0.6763
  741MOL0     C 2146  12.469   5.480   7.423 -0.4044  0.4166  0.5285
  741MOL0     C 2147  12.403   5.352   7.424  0.4937  0.2630  0.5367
  741MOL0     C 2148  12.254   5.354   7.409  0.7082 -0.5540 -0.9563
  741MOL0     C 2149  12.479   5.232   7.441 -0.0263  0.1284  0.3826
  741MOL0     C 2150  12.424   5.092   7.448 -1.8283 -0.0195 -0.4624
  741MOL0     O 2151  12.509   4.992   7.411 -0.4227  0.3301  0.8138
  741MOL0     C 2152  12.484   4.866   7.459 -0.1909 -0.3648  0.1725
  741MOL0     C 2153  12.541   4.758   7.389 -0.3374 -1.2030 -0.1194
  741MOL0     C 2154  12.532   4.627   7.425 -0.5457  0.0128 -0.3781
  741MOL0     C 2155  12.454   4.590   7.535 -0.1951  1.1101 -0.1498
  741MOL0     O 2156  12.429   4.456   7.551  0.4006  0.6090  0.0277
  741MOL0     C 2157  12.305   4.419   7.611  0.4969 -0.0081  0.7449
  741MOL0     C 2158  12.184   4.450   7.514  0.2765 -0.0829 -0.1705
  741MOL0     C 2159  12.071   4.354   7.539  0.0701  0.2161 -0.6301
  741MOL0     C 2160  12.044   4.337   7.691 -0.1856 -0.5942  0.1578
  741MOL0     C 2161  11.899   4.287   7.697 -1.1549  0.5748  0.3868
  741MOL0     C 2162  11.858   4.247   7.843  0.8094  0.1347  0.0910
  741MOL0     C 2163  11.714   4.245   7.894  0.4274 -0.0447  0.7063
  741MOL0     C 2164  11.609   4.167   7.815 -0.2924 -0.2987 -0.1594
  741MOL0    Cl 2165  11.466   4.146   7.906 -0.0254 -0.3361  0.1264
  741MOL0     C 2166  12.398   4.692   7.617  0.2088  0.0652  0.3911
  741MOL0     C 2167  12.404   4.824   7.571 -0.2578 -0.3464 -0.1935
  741MOL0     O 2168  12.306   5.085   7.474  0.6653 -0.4823  0.4951
  741MOL0     C 2169  12.616   5.245   7.473  0.4332  0.5502 -0.0429
  741MOL0     C 2170  12.679   5.371   7.463  0.1051  0.3844  0.1831
  741MOL0     N 2171  12.692   6.163   7.519 -0.7825 -0.2041 -0.4208
  741MOL0     N 2172  12.615   6.264   7.540  0.6432 -0.3964 -1.1002
  741MOL0     C 2173  11.368   6.782   7.561 -0.3834  0.7799 -0.3443
  741MOL0     C 2174  11.233   6.762   7.600 -0.4749  0.5553  0.0703
  741MOL0     C 2175  10.889   6.619   7.845  0.0229  0.2830  0.0761
  741MOL0     C 2176  10.784   6.637   7.742 -0.3929  0.2265  0.6213
  741MOL0     C 2177  10.646   6.608   7.767 -0.8522 -0.2622  0.1358
  741MOL0     C 2178  10.610   6.583   7.892  0.0063 -0.7322  0.4436
  741MOL0     O 2179  10.478   6.566   7.927 -0.0855  0.3816 -0.6970
  741MOL0     C 2180  10.397   6.680   7.921 -0.2456 -0.3150 -0.6317
  741MOL0     C 2181  10.267   6.674   8.011  0.0640 -0.1987 -0.5575
  741MOL0     C 2182  10.182   6.801   8.003 -0.0563 -0.8838 -0.0645
  741MOL0     C 2183  10.032   6.792   8.048  0.1055  0.8028  0.2135
  741MOL0     C 2184  10.020   6.797   8.196 -0.1645 -0.1469 -0.3854
  741MOL0     C 2185   9.999   6.810   8.313  0.8075 -0.5769 -0.1863
  741MOL0     C 2186  10.707   6.570   7.991 -0.1311 -0.1835  0.4797
  741MOL0     C 2187  10.845   6.583   7.974  0.7345  0.0980  0.5866
  741MOL0     C 2188  10.932   6.559   8.101  0.6639  0.1900  0.5189
  741MOL0     H 2189  11.209   6.422   7.577 -1.6975  0.1250  1.2134
  741MOL0     H 2190  11.446   6.444   7.532 -2.0575 -0.8252  0.8286
  741MOL0     H 2191  11.656   6.502   7.454 -0.5561  0.0979  0.1038
  741MOL0     H 2192  11.678   6.552   7.627 -1.0946  2.3141  0.5291
  741MOL0     H 2193  11.806   6.701   7.389 -0.9550  0.1426  0.4046
  741MOL0     H 2194  11.841   6.712   7.568  1.7847 -1.0914  0.6978
  741MOL0     H 2195  11.925   6.488   7.556 -1.0954  1.6469  0.8162
  741MOL0     H 2196  11.890   6.476   7.388  0.5411  0.4630 -0.1642
  741MOL0     H 2197  12.035   6.708   7.367  2.9699 -0.0850 -0.4225
  741MOL0     H 2198  12.058   6.672   7.537 -1.0442 -2.3101  1.5579
  741MOL0     H 2199  12.245   6.601   7.358 -0.2812 -0.5368  0.9740
  741MOL0     H 2200  12.128   6.469   7.316 -0.3140  0.8761 -1.9122
  741MOL0     H 2201  12.265   6.539   7.577 -1.6471  2.2066 -0.5840
  741MOL0     H 2202  12.145   6.408   7.549 -1.5129  2.5951  0.7806
  741MOL0     H 2203  12.428   6.462   7.471 -0.6419  0.3877  0.9693
  741MOL0     H 2204  12.344   6.321   7.392  0.9335  0.6231  0.3861
  741MOL0     H 2205  12.414   6.366   7.678 -0.9724 -1.0927  2.1863
  741MOL0     H 2206  12.294   6.233   7.629  0.9159 -1.2880 -1.0270
  741MOL0     H 2207  12.403   6.015   7.527  0.3608 -0.3981 -0.1950
  741MOL0     H 2208  12.617   5.887   7.374  0.2999  1.8782  0.0851
  741MOL0     H 2209  12.613   5.832   7.541 -0.9099  2.5120  1.8021
  741MOL0     H 2210  12.854   5.968   7.426 -2.2720  0.4999 -2.5727
  741MOL0     H 2211  12.840   5.888   7.585 -1.4041  4.9731  0.5754
  741MOL0     H 2212  12.827   5.774   7.298  1.2883  0.5110 -0.0647
  741MOL0     H 2213  12.962   5.761   7.409 -0.3019 -0.6832  1.1753
  741MOL0     H 2214  12.878   5.560   7.434  1.2922  1.8265 -1.5618
  741MOL0     H 2215  12.816   5.649   7.576  1.2510 -0.7673  0.0200
  741MOL0     H 2216  12.408   5.568   7.404 -1.8169 -1.1583 -3.4190
  741MOL0     H 2217  12.220   5.275   7.341 -0.8705 -1.7495  1.0807
  741MOL0     H 2218  12.219   5.453   7.381  1.8990  0.1276 -0.1184
  741MOL0     H 2219  12.199   5.328   7.500  2.1982 -2.1981 -0.4537
  741MOL0     H 2220  12.600   4.779   7.300 -1.4115  1.1561 -0.3684
  741MOL0     H 2221  12.579   4.553   7.362  0.2439 -2.5942  2.9570
  741MOL0     H 2222  12.304   4.314   7.642 -0.1048  0.1510  1.2910
  741MOL0     H 2223  12.302   4.475   7.705  0.0058  2.2728 -0.5572
  741MOL0     H 2224  12.158   4.554   7.534  1.7202 -0.3136  3.8180
  741MOL0     H 2225  12.229   4.448   7.414  1.3049  0.9290  0.2520
  741MOL0     H 2226  12.096   4.254   7.502 -1.7725 -0.5795  0.1331
  741MOL0     H 2227  11.982   4.393   7.490 -2.4994 -2.4630  1.5542
  741MOL0     H 2228  12.066   4.425   7.751  0.0922  0.9093 -2.0406
  741MOL0     H 2229  12.115   4.259   7.722 -0.4693 -2.0471 -2.4945
  741MOL0     H 2230  11.836   4.369   7.663  1.9191  1.7121 -3.2150
  741MOL0     H 2231  11.893   4.200   7.631 -0.1338  0.7225  0.0692
  741MOL0     H 2232  11.906   4.326   7.901  0.8037 -0.6950  1.2637
  741MOL0     H 2233  11.912   4.153   7.860 -1.4560 -1.6059 -1.6876
  741MOL0     H 2234  11.688   4.350   7.906 -0.5625 -0.2419  0.3259
  741MOL0     H 2235  11.726   4.198   7.992 -0.1768 -2.4538 -0.3032
  741MOL0     H 2236  11.645   4.067   7.788 -0.3532  0.2213 -2.3468
  741MOL0     H 2237  11.592   4.229   7.726  1.3240 -0.8336 -0.9037
  741MOL0     H 2238  12.347   4.682   7.712 -0.6279 -0.8771 -0.1345
  741MOL0     H 2239  12.346   4.895   7.630  1.1099  1.1254 -0.5356
  741MOL0     H 2240  12.690   5.168   7.489  2.6198  2.3226 -0.9707
  741MOL0     H 2241  12.785   5.363   7.484  0.1208 -1.6447 -0.5074
  741MOL0     H 2242  11.423   6.874   7.547 -0.0598  0.4045 -1.7714
  741MOL0     H 2243  11.173   6.851   7.616 -1.4476  0.0374 -0.5949
  741MOL0     H 2244  10.811   6.651   7.637 -1.1155 -0.7603  0.2898
  741MOL0     H 2245  10.572   6.614   7.688 -1.8108  3.1454  1.1254
  741MOL0     H 2246  10.450   6.774   7.941 -2.9844  0.9991  1.1267
  741MOL0     H 2247  10.364   6.690   7.817  0.0313  1.2630 -0.6023
  741MOL0     H 2248  10.282   6.664   8.119  0.9045 -0.3045 -0.6739
  741MOL0     H 2249  10.205   6.591   7.977  0.0826  0.7967 -3.2421
  741MOL0     H 2250  10.232   6.886   8.050 -2.0788  0.6164 -0.4548
  741MOL0     H 2251  10.181   6.813   7.894 -1.3525  1.1696  0.1282
  741MOL0     H 2252   9.990   6.700   8.008  0.5787 -0.5114  2.5864
  741MOL0     H 2253   9.987   6.886   8.015 -2.5033  0.0689  1.4538
  741MOL0     H 2254   9.980   6.799   8.418  0.0672 -1.3263 -0.3827
  741MOL0     H 2255  10.666   6.542   8.088 -1.0585 -1.8796 -0.3645
  741MOL0     H 2256  11.022   6.512   8.062 -1.6259 -1.8802 -2.7404
  741MOL0     H 2257  10.947   6.656   8.149  0.1627 -0.2259  1.5589
  741MOL0     H 2258  10.878   6.496   8.172  1.1171 -0.1010  0.6056
  742MOL0     O 2259   4.468  10.910   9.401  0.2898  0.1219  0.6140
  742MOL0     C 2260   4.444  11.030   9.385 -0.0435 -0.4036 -0.2217
  742MOL0     O 2261   4.517  11.141   9.416 -0.7743  0.2099  0.0690
  742MOL0     C 2262   4.648  11.136   9.464  0.0534  0.4526  0.0057
  742MOL0     C 2263   4.709  11.033   9.539  0.7824  0.2020  0.4073
  742MOL0     C 2264   4.835  11.039   9.593  0.3159  0.6262  0.3382
  742MOL0     C 2265   4.908  11.156   9.587 -1.0677  0.7523  0.7552
  742MOL0     O 2266   5.042  11.161   9.625 -0.2323 -1.1968  0.0797
  742MOL0     C 2267   5.099  11.292   9.669 -0.0716  0.4848  0.3529
  742MOL0     C 2268   5.228  11.263   9.747  0.5831  0.5798  0.8649
  742MOL0     C 2269   5.298  11.392   9.758  0.3157 -0.3404 -0.3543
  742MOL0     C 2270   5.387  11.410   9.638 -0.2899  0.6292  0.8991
  742MOL0     C 2271   5.457  11.547   9.657  0.4056  0.7380 -0.1318
  742MOL0     C 2272   5.565  11.566   9.548 -0.1642  0.0219  0.1137
  742MOL0     C 2273   5.669  11.683   9.571  0.1993  0.6644 -0.5344
  742MOL0     C 2274   5.608  11.821   9.601 -0.2008  0.8966  0.0625
  742MOL0     N 2275   5.528  11.875   9.484 -0.2326 -0.0189 -0.7841
  742MOL0     C 2276   5.584  11.926   9.373 -0.3925 -0.2005  1.1423
  742MOL0     C 2277   5.480  11.955   9.287 -0.1526  0.1086 -0.0935
  742MOL0     C 2278   5.478  11.985   9.140 -0.0544 -0.8870  0.2085
  742MOL0     C 2279   5.521  12.125   9.121  0.3200 -0.6822  0.4515
  742MOL0     C 2280   5.571  12.142   8.976 -1.8853 -0.3513  0.7204
  742MOL0     C 2281   5.721  12.099   8.968  0.0474 -0.3925  0.2510
  742MOL0     O 2282   5.799  12.217   9.005  0.2725 -0.2832 -0.2718
  742MOL0     C 2283   5.927  12.224   8.971  0.4722 -0.5364  0.4957
  742MOL0     C 2284   5.991  12.350   8.992  0.1261  0.4554 -0.6962
  742MOL0     C 2285   6.129  12.365   8.984  0.3254  0.3481 -0.7410
  742MOL0     C 2286   6.185  12.505   9.030  0.7574  0.3892  0.0677
  742MOL0     C 2287   6.214  12.256   8.953  0.0743  0.0358 -0.5507
  742MOL0     C 2288   6.371  12.258   8.954  1.1007 -0.3366 -0.0133
  742MOL0     O 2289   6.428  12.147   8.907 -0.2403  0.6891 -0.4729
  742MOL0     C 2290   6.562  12.141   8.912 -0.4213 -0.0949  0.2249
  742MOL0     C 2291   6.618  12.018   8.954 -0.7595  0.1107 -0.7066
  742MOL0     C 2292   6.756  12.009   8.979  1.0454  0.5143  0.1348
  742MOL0     C 2293   6.840  12.119   8.949  0.0402  0.4784  0.0412
  742MOL0     O 2294   6.977  12.088   8.962  0.7948  0.0438  0.1120
  742MOL0     C 2295   7.066  12.200   8.955 -0.3510 -0.4888 -0.6858
  742MOL0     C 2296   7.205  12.151   8.997  0.3144 -0.4607 -0.6763
  742MOL0     C 2297   7.262  12.035   8.921  0.8984  0.2779  1.0012
  742MOL0     C 2298   7.403  11.995   8.978  0.4168  0.9346 -0.1696
  742MOL0     C 2299   7.453  11.860   8.926  1.0811  0.1501 -0.2727
  742MOL0     C 2300   7.598  11.828   8.962  0.3165 -0.1596  0.0503
  742MOL0     C 2301   7.649  11.701   8.908 -0.6563 -0.6461 -0.4148
  742MOL0     C 2302   7.796  11.675   8.963 -0.1900  0.4201  0.1771
  742MOL0    Cl 2303   7.930  11.786   8.912  0.0282 -0.2484  0.0369
  742MOL0     C 2304   6.787  12.245   8.900 -0.1407  0.6228 -0.0232
  742MOL0     C 2305   6.645  12.249   8.879  0.2498 -0.7481  0.1141
  742MOL0     O 2306   6.422  12.341   9.023 -0.2227  0.4875  0.4804
  742MOL0     C 2307   6.152  12.132   8.937  0.5205 -0.0442 -0.9094
  742MOL0     C 2308   6.015  12.120   8.939  1.0920 -0.3360 -0.4383
  742MOL0     N 2309   5.360  11.934   9.355 -0.4497  0.8268  0.6588
  742MOL0     N 2310   5.392  11.893   9.474  0.7376  0.2140 -0.0183
  742MOL0     C 2311   4.850  11.262   9.529  0.1406  0.4679 -1.1931
  742MOL0     C 2312   4.724  11.253   9.459  0.6101 -0.6682  0.3591
  742MOL0     C 2313   4.304  11.057   9.332 -0.2126  0.8689 -0.4173
  742MOL0     C 2314   4.197  11.002   9.395  0.5628 -0.2737  0.0663
  742MOL0     C 2315   4.070  11.034   9.365 -0.1017 -0.0025  1.4391
  742MOL0     C 2316   4.041  11.131   9.261  1.1952  1.2484  1.5141
  742MOL0     O 2317   3.911  11.182   9.223 -0.6834 -0.0215  0.1057
  742MOL0     C 2318   3.804  11.183   9.313  0.2345 -0.6018 -0.1187
  742MOL0     C 2319   3.762  11.332   9.327  0.2799  0.3080 -0.6983
  742MOL0     C 2320   3.662  11.382   9.223 -0.4442 -0.2248  0.1844
  742MOL0     C 2321   3.517  11.332   9.224 -0.4940 -0.3078  0.0008
  742MOL0     C 2322   3.439  11.403   9.123  0.5040  0.2310  0.3850
  742MOL0     C 2323   3.387  11.479   9.043 -0.1151  0.3619 -0.1085
  742MOL0     C 2324   4.149  11.184   9.188 -0.7859  0.1644  0.5083
  742MOL0     C 2325   4.278  11.145   9.229  0.0756 -0.0423  0.9217
  742MOL0     C 2326   4.395  11.198   9.145 -0.3153 -0.5865  0.7404
  742MOL0     H 2327   4.657  10.939   9.556 -0.8640  1.4402  2.8025
  742MOL0     H 2328   4.879  10.952   9.641  0.1130  0.6953  0.6446
  742MOL0     H 2329   5.021  11.346   9.723  2.3747  2.0182  2.6053
  742MOL0     H 2330   5.120  11.339   9.572  3.2038  0.5949  1.0082
  742MOL0     H 2331   5.194  11.224   9.843 -0.5579 -3.1493 -0.8641
  742MOL0     H 2332   5.293  11.184   9.709  1.7537  0.8778  2.1954
  742MOL0     H 2333   5.225  11.471   9.776 -1.1424 -2.2546  2.9613
  742MOL0     H 2334   5.355  11.381   9.851  0.2457  2.6316  0.1422
  742MOL0     H 2335   5.471  11.340   9.632  0.8399  2.0668 -1.6052
  742MOL0     H 2336   5.318  11.406   9.553 -2.3840 -3.0791  2.5442
  742MOL0     H 2337   5.500  11.539   9.758 -0.4000 -1.7735  0.1005
  742MOL0     H 2338   5.382  11.626   9.653  0.3816  0.6641 -1.9775
  742MOL0     H 2339   5.617  11.470   9.556 -0.4215  0.0284  3.7485
  742MOL0     H 2340   5.518  11.573   9.450  0.9483  0.4934 -0.4074
  742MOL0     H 2341   5.736  11.683   9.485 -2.9836  3.6545 -3.3077
  742MOL0     H 2342   5.739  11.648   9.648  1.1765 -1.7888 -2.4163
  742MOL0     H 2343   5.536  11.807   9.682  1.1497  0.2524  1.1936
  742MOL0     H 2344   5.691  11.892   9.617  2.4581 -2.0793  0.4343
  742MOL0     H 2345   5.690  11.935   9.351 -0.4208  2.1466  1.7261
  742MOL0     H 2346   5.379  11.955   9.104 -0.0710 -1.1370  0.4603
  742MOL0     H 2347   5.548  11.911   9.101  1.4112  1.2783 -1.5124
  742MOL0     H 2348   5.438  12.191   9.150 -0.6720 -2.1079  0.9689
  742MOL0     H 2349   5.605  12.159   9.182 -2.2656  4.3235  1.8066
  742MOL0     H 2350   5.508  12.088   8.904 -1.8513 -1.8904  1.7965
  742MOL0     H 2351   5.568  12.249   8.952  1.7952 -0.2911 -0.0471
  742MOL0     H 2352   5.764  12.025   9.036  4.5185 -0.1179 -1.9362
  742MOL0     H 2353   5.744  12.056   8.870 -0.2308 -0.7406  0.3386
  742MOL0     H 2354   5.930  12.434   9.025  2.9261  1.3616  2.7352
  742MOL0     H 2355   6.105  12.578   9.042  0.9815  0.9745 -1.7295
  742MOL0     H 2356   6.248  12.541   8.949  0.2919 -0.7749 -0.8339
  742MOL0     H 2357   6.238  12.497   9.126  0.5090 -2.6511  0.0662
  742MOL0     H 2358   6.546  11.938   8.972 -1.4707  0.6935 -0.9082
  742MOL0     H 2359   6.785  11.909   9.009 -1.4240 -0.2391  0.1792
  742MOL0     H 2360   7.081  12.255   8.862  3.1344 -0.2374 -0.1285
  742MOL0     H 2361   7.042  12.278   9.028 -1.2143 -0.7045 -0.7365
  742MOL0     H 2362   7.272  12.237   8.997  0.9059 -0.8839  0.7909
  742MOL0     H 2363   7.182  12.124   9.101 -0.3918  2.4846  0.0321
  742MOL0     H 2364   7.279  12.060   8.816  1.9091  1.3554  1.4048
  742MOL0     H 2365   7.190  11.952   8.925 -0.8656  1.6584 -0.4225
  742MOL0     H 2366   7.401  11.987   9.087  0.7444 -0.0061 -0.2185
  742MOL0     H 2367   7.467  12.075   8.940  0.7703 -0.8080 -3.5755
  742MOL0     H 2368   7.395  11.782   8.976 -2.9889  1.2426 -2.7957
  742MOL0     H 2369   7.437  11.854   8.818 -0.6670 -1.5704  0.0311
  742MOL0     H 2370   7.620  11.833   9.069  0.6869  0.8741 -0.0613
  742MOL0     H 2371   7.659  11.910   8.923 -1.8819  1.0221 -1.0958
  742MOL0     H 2372   7.656  11.705   8.799 -0.8999  1.9823 -0.3784
  742MOL0     H 2373   7.581  11.620   8.938  0.2220 -1.3964 -0.3883
  742MOL0     H 2374   7.823  11.574   8.932 -0.7513 -0.9437  3.6793
  742MOL0     H 2375   7.783  11.671   9.072 -0.9464  0.1330  0.0819
  742MOL0     H 2376   6.849  12.330   8.874 -0.7765  1.1060  0.0054
  742MOL0     H 2377   6.610  12.337   8.828  0.2770  0.2820  1.7976
  742MOL0     H 2378   6.211  12.044   8.916  1.2535  1.0335 -4.0318
  742MOL0     H 2379   5.982  12.018   8.921  0.2707 -0.7037  2.6386
  742MOL0     H 2380   4.904  11.356   9.532  0.2120  0.4429 -1.6546
  742MOL0     H 2381   4.685  11.330   9.393  2.9325  0.5239  0.2363
  742MOL0     H 2382   4.219  10.930   9.473  2.9812  0.3455  0.0594
  742MOL0     H 2383   3.987  10.985   9.414 -1.1751 -1.0660 -1.2487
  742MOL0     H 2384   3.724  11.119   9.273  0.6919 -0.9159 -0.5426
  742MOL0     H 2385   3.837  11.153   9.413  0.3828 -1.4101 -0.3997
  742MOL0     H 2386   3.845  11.401   9.342  0.6577 -0.4061  0.6234
  742MOL0     H 2387   3.710  11.337   9.423  1.0938  2.9470 -0.3016
  742MOL0     H 2388   3.655  11.487   9.255  0.4927 -0.2880  0.6427
  742MOL0     H 2389   3.710  11.377   9.125  1.6470 -2.3729  1.2337
  742MOL0     H 2390   3.471  11.336   9.323  1.5742  2.2210  0.9732
  742MOL0     H 2391   3.519  11.227   9.193 -2.1880 -0.1928 -0.5535
  742MOL0     H 2392   3.342  11.553   8.981 -2.1573 -1.8399 -1.4108
  742MOL0     H 2393   4.137  11.262   9.113  0.3676  2.7867  2.8887
  742MOL0     H 2394   4.439  11.290   9.185 -1.9468 -0.0826  1.4422
  742MOL0     H 2395   4.467  11.116   9.133 -0.3452 -0.3168 -1.6773
  742MOL0     H 2396   4.365  11.221   9.043  1.1290  1.5055  0.7112
  743MOL0     O 2397   1.029   2.913   6.859  0.0545  0.0157 -0.1298
  743MOL0     C 2398   0.920   2.951   6.873  0.2475 -0.4521 -0.3569
  743MOL0     O 2399   0.867   2.984   6.998 -0.5056  0.6968  0.2510
  743MOL0     C 2400   0.947   2.979   7.111 -0.1344 -0.6832 -0.2968
  743MOL0     C 2401   1.013   3.094   7.159 -0.2924 -0.0368 -0.5095
  743MOL0     C 2402   1.093   3.090   7.274  0.4683 -0.1971  0.3907
  743MOL0     C 2403   1.118   2.966   7.335  0.1994  0.5666  0.3481
  743MOL0     O 2404   1.186   2.944   7.448  0.5407 -0.8189  0.2242
  743MOL0     C 2405   1.180   3.054   7.546 -0.2218  0.3860 -0.4085
  743MOL0     C 2406   1.040   3.086   7.597 -0.0761 -0.2533  0.4721
  743MOL0     C 2407   0.958   2.967   7.640  0.2777  0.8984  0.4261
  743MOL0     C 2408   0.836   3.020   7.730  0.4187  1.0172 -0.2278
  743MOL0     C 2409   0.777   2.897   7.798 -0.4996 -0.0736 -0.3135
  743MOL0     C 2410   0.707   2.808   7.698  0.6510  0.2607 -0.4004
  743MOL0     C 2411   0.659   2.675   7.769 -0.0206  0.2091 -0.2566
  743MOL0     C 2412   0.771   2.581   7.821  0.3386 -0.2000  0.6239
  743MOL0     N 2413   0.875   2.559   7.722 -0.0733  0.4065 -0.6074
  743MOL0     C 2414   1.005   2.581   7.753 -0.2227 -0.1964  0.3607
  743MOL0     C 2415   1.066   2.542   7.639  0.3833  0.1532 -0.2126
  743MOL0     C 2416   1.213   2.545   7.618  0.6216  0.4447 -0.2425
  743MOL0     C 2417   1.251   2.502   7.475  0.3377  0.1025 -0.3113
  743MOL0     C 2418   1.235   2.345   7.451  0.0358  0.0185  0.4918
  743MOL0     C 2419   1.336   2.257   7.525  0.1923  0.8000  0.2483
  743MOL0     O 2420   1.470   2.299   7.493 -0.2286 -0.6863 -0.2778
  743MOL0     C 2421   1.571   2.246   7.565  0.2160  0.1009 -1.2940
  743MOL0     C 2422   1.564   2.135   7.647  0.2579  0.1420  0.7524
  743MOL0     C 2423   1.678   2.079   7.711 -0.2918 -0.5455 -0.3808
  743MOL0     C 2424   1.648   1.973   7.807 -0.6196 -0.8453  0.4938
  743MOL0     C 2425   1.806   2.148   7.698  0.4870  0.2310 -0.3824
  743MOL0     C 2426   1.925   2.108   7.777 -0.4152  0.0277 -0.3855
  743MOL0     O 2427   2.049   2.140   7.723 -0.0159 -0.5506 -0.2423
  743MOL0     C 2428   2.151   2.140   7.821  0.3767 -0.0230  0.2701
  743MOL0     C 2429   2.193   2.036   7.894 -0.5757  0.2305 -1.2110
  743MOL0     C 2430   2.295   2.044   7.989 -0.9712  0.0202 -0.0090
  743MOL0     C 2431   2.366   2.161   8.003 -0.2688 -0.2477 -0.0533
  743MOL0     O 2432   2.479   2.168   8.091 -0.1071  0.2269  0.4549
  743MOL0     C 2433   2.567   2.055   8.086 -0.5759  1.2702 -0.2325
  743MOL0     C 2434   2.676   2.063   8.187  0.8509  0.5691  0.2241
  743MOL0     C 2435   2.790   2.151   8.168  0.4434 -0.1096  0.5085
  743MOL0     C 2436   2.908   2.119   8.262  0.0605 -0.0618 -0.2660
  743MOL0     C 2437   3.031   2.203   8.242 -0.6222 -0.9894 -0.4677
  743MOL0     C 2438   3.163   2.139   8.283  0.4506  0.4474 -0.0775
  743MOL0     C 2439   3.280   2.222   8.246  0.6603  0.1795  0.4135
  743MOL0     C 2440   3.415   2.168   8.277  0.3650 -0.2227 -0.9775
  743MOL0    Cl 2441   3.448   2.036   8.164  0.3877 -0.0252  0.3420
  743MOL0     C 2442   2.323   2.273   7.929  0.0840  0.5638  0.3164
  743MOL0     C 2443   2.217   2.267   7.843 -0.6364  0.2888  0.3139
  743MOL0     O 2444   1.903   2.054   7.883 -0.8155 -0.0095 -0.5111
  743MOL0     C 2445   1.815   2.254   7.607 -0.7523 -0.1129 -0.6734
  743MOL0     C 2446   1.695   2.301   7.546  0.2990  0.2299 -0.3002
  743MOL0     N 2447   0.964   2.496   7.552 -0.5778 -0.4549  0.4965
  743MOL0     N 2448   0.850   2.509   7.604 -0.1036 -0.2874 -0.4309
  743MOL0     C 2449   1.058   2.850   7.279  0.9102 -0.2570 -0.4602
  743MOL0     C 2450   0.974   2.854   7.175  0.8785  0.7474  0.2295
  743MOL0     C 2451   0.838   2.975   6.754  0.4513 -0.1614 -0.2316
  743MOL0     C 2452   0.744   3.074   6.762 -0.0118  0.4750 -0.1368
  743MOL0     C 2453   0.660   3.106   6.658 -0.7005 -0.2739  0.1720
  743MOL0     C 2454   0.658   3.030   6.540  0.9324  0.2496 -0.1104
  743MOL0     O 2455   0.563   3.050   6.441  0.2057  0.0848 -0.6718
  743MOL0     C 2456   0.450   2.960   6.430  0.1540  0.4118  0.6662
  743MOL0     C 2457   0.477   2.823   6.374  0.0968 -0.2601  1.0677
  743MOL0     C 2458   0.360   2.740   6.322 -0.0049  0.2084  0.0308
  743MOL0     C 2459   0.294   2.662   6.435  0.2508  0.1284  0.8142
  743MOL0     C 2460   0.392   2.570   6.498  0.2491  0.1968  0.6077
  743MOL0     C 2461   0.491   2.512   6.535 -0.5872  0.2815 -0.0704
  743MOL0     C 2462   0.753   2.933   6.526 -0.2732  0.2891  0.0563
  743MOL0     C 2463   0.842   2.901   6.635  0.4263 -0.0427 -0.3433
  743MOL0     C 2464   0.936   2.796   6.604  0.0309  0.0319  0.0536
  743MOL0     H 2465   0.996   3.187   7.106  0.0120 -0.7426 -1.8760
  743MOL0     H 2466   1.123   3.189   7.308 -1.4348  0.9463 -0.9996
  743MOL0     H 2467   1.218   3.149   7.509 -0.5437  1.7199  2.4076
  743MOL0     H 2468   1.244   3.029   7.632  0.0021  0.5916 -0.5153
  743MOL0     H 2469   1.043   3.162   7.675 -3.2811 -1.2465  1.7178
  743MOL0     H 2470   0.976   3.128   7.519 -1.2086 -0.5598  1.2048
  743MOL0     H 2471   0.919   2.916   7.551 -0.0017  1.9796 -0.0772
  743MOL0     H 2472   1.016   2.885   7.684 -2.5101 -0.5572  1.6484
  743MOL0     H 2473   0.863   3.094   7.805 -2.0154  2.3778 -0.6066
  743MOL0     H 2474   0.761   3.071   7.669 -0.0339  0.2249 -0.3444
  743MOL0     H 2475   0.720   2.936   7.883  2.2437  2.1072  0.7056
  743MOL0     H 2476   0.862   2.846   7.846 -1.9683  0.8601  3.6661
  743MOL0     H 2477   0.616   2.858   7.662  2.5998  4.6023  0.0835
  743MOL0     H 2478   0.781   2.792   7.620  0.1982 -0.7136 -0.6407
  743MOL0     H 2479   0.595   2.619   7.700  1.6591  1.1191 -2.6913
  743MOL0     H 2480   0.601   2.705   7.856  1.9403  0.8613  0.8985
  743MOL0     H 2481   0.827   2.624   7.905  1.4490  1.8175 -1.0552
  743MOL0     H 2482   0.732   2.483   7.848  4.0355 -3.0292 -3.0586
  743MOL0     H 2483   1.031   2.622   7.850 -2.8187  0.3225  0.9028
  743MOL0     H 2484   1.262   2.474   7.685  2.4045  1.0665 -0.8213
  743MOL0     H 2485   1.248   2.644   7.649 -1.1040  0.1468  3.1103
  743MOL0     H 2486   1.188   2.550   7.400 -0.2190 -1.1044 -0.6386
  743MOL0     H 2487   1.354   2.536   7.464  0.5164  0.0142  0.9885
  743MOL0     H 2488   1.135   2.317   7.485 -0.7813  0.3941 -1.4706
  743MOL0     H 2489   1.242   2.331   7.343 -0.6164  0.5344  0.3751
  743MOL0     H 2490   1.310   2.273   7.630 -0.3711 -2.4088  0.6984
  743MOL0     H 2491   1.323   2.154   7.492 -1.9165  0.9330  0.5094
  743MOL0     H 2492   1.463   2.096   7.661 -1.0303  2.6988 -0.6275
  743MOL0     H 2493   1.733   1.905   7.802  2.9253  3.2354 -2.9344
  743MOL0     H 2494   1.553   1.921   7.788 -1.2144  0.2255  0.4381
  743MOL0     H 2495   1.623   1.999   7.911 -0.3498 -1.4011  0.7030
  743MOL0     H 2496   2.142   1.942   7.874 -1.7306  0.2803  1.1715
  743MOL0     H 2497   2.315   1.960   8.055  1.6336  0.1217 -0.5567
  743MOL0     H 2498   2.512   1.973   8.132 -0.2984  2.6873  2.9284
  743MOL0     H 2499   2.616   2.035   7.990  2.6415 -0.9428  1.6763
  743MOL0     H 2500   2.628   2.094   8.281  1.3224 -0.5581  0.8614
  743MOL0     H 2501   2.715   1.962   8.201 -0.5724 -0.0215  0.1585
  743MOL0     H 2502   2.765   2.258   8.166  0.9914  0.0430  1.2515
  743MOL0     H 2503   2.827   2.123   8.069 -1.4068 -1.2107  0.0920
  743MOL0     H 2504   2.944   2.016   8.253  2.1792  0.4412  1.5800
  743MOL0     H 2505   2.870   2.124   8.365  0.1330  0.3443 -0.2579
  743MOL0     H 2506   3.038   2.231   8.137  2.7915  2.3447  0.3935
  743MOL0     H 2507   3.021   2.303   8.286 -3.2143 -1.7920  0.9838
  743MOL0     H 2508   3.169   2.053   8.215  1.4437  0.2748  0.2112
  743MOL0     H 2509   3.162   2.108   8.388 -2.0167 -1.7374 -0.6361
  743MOL0     H 2510   3.268   2.319   8.295 -0.1720 -0.2844  1.1594
  743MOL0     H 2511   3.280   2.238   8.138 -0.5657  0.4059  0.4239
  743MOL0     H 2512   3.405   2.127   8.378  0.2304 -0.4492 -1.0822
  743MOL0     H 2513   3.496   2.241   8.264  1.3076 -0.8068  1.1260
  743MOL0     H 2514   2.380   2.364   7.939  0.4248  0.3391  0.4557
  743MOL0     H 2515   2.183   2.351   7.783  0.7266  1.4570  1.0868
  743MOL0     H 2516   1.908   2.306   7.587 -1.3303  2.4541  2.4427
  743MOL0     H 2517   1.692   2.388   7.481 -0.4360  0.5265  0.1143
  743MOL0     H 2518   1.082   2.755   7.326 -2.8447 -1.5017 -0.7129
  743MOL0     H 2519   0.930   2.766   7.130  1.3439  0.6597 -0.0563
  743MOL0     H 2520   0.724   3.135   6.850  0.7538  0.0763  0.3332
  743MOL0     H 2521   0.581   3.179   6.675 -1.3452 -1.3709  2.3024
  743MOL0     H 2522   0.391   2.954   6.521 -2.4194  1.7834 -0.7881
  743MOL0     H 2523   0.389   3.016   6.358  3.5995  0.3566 -2.6277
  743MOL0     H 2524   0.536   2.780   6.455  3.6561  2.2603  0.0886
  743MOL0     H 2525   0.546   2.824   6.288  0.6924 -1.6620  1.4935
  743MOL0     H 2526   0.276   2.787   6.269  0.2034 -0.5851 -1.0461
  743MOL0     H 2527   0.389   2.667   6.246  0.8146  0.8807 -0.3228
  743MOL0     H 2528   0.210   2.603   6.397 -0.9742  1.6431  1.0491
  743MOL0     H 2529   0.244   2.733   6.502 -3.0612  0.7517 -2.0652
  743MOL0     H 2530   0.585   2.464   6.556  0.9634  2.1335 -2.2287
  743MOL0     H 2531   0.760   2.888   6.427 -0.4475  1.7622 -0.6446
  743MOL0     H 2532   1.020   2.844   6.554 -0.0567 -1.5023 -1.7154
  743MOL0     H 2533   0.983   2.741   6.686 -2.0843  0.6683  1.7774
  743MOL0     H 2534   0.895   2.720   6.536  1.5716 -1.9125  1.2155
  744MOL0     O 2535   6.663   7.248  10.399 -1.0854  0.6306  0.1289
  744MOL0     C 2536   6.579   7.328  10.437 -0.1969 -0.0680  0.0954
  744MOL0     O 2537   6.605   7.414  10.543 -1.0834  0.2815 -0.4175
  744MOL0     C 2538   6.723   7.401  10.614  0.3364 -0.3028 -0.3285
  744MOL0     C 2539   6.754   7.293  10.697 -0.1208  0.4348  0.2514
  744MOL0     C 2540   6.877   7.274  10.753  0.1489 -0.0807 -0.5968
  744MOL0     C 2541   6.961   7.384  10.752 -0.2318 -0.7010  0.7245
  744MOL0     O 2542   7.089   7.374  10.811 -0.4661  0.3453  0.0871
  744MOL0     C 2543   7.192   7.472  10.786  0.2443 -0.2574 -0.3970
  744MOL0     C 2544   7.312   7.447  10.878  0.3004 -0.0111  0.5778
  744MOL0     C 2545   7.422   7.548  10.839  0.3070  0.1729 -0.1509
  744MOL0     C 2546   7.562   7.506  10.877 -0.4799  0.0285  0.7404
  744MOL0     C 2547   7.661   7.624  10.865 -0.2834  0.4132 -0.1057
  744MOL0     C 2548   7.797   7.564  10.867  0.1878 -0.5201 -0.8587
  744MOL0     C 2549   7.905   7.664  10.840 -1.2156 -0.1758  0.2010
  744MOL0     C 2550   7.915   7.716  10.695  0.0280 -0.5059  0.0542
  744MOL0     N 2551   7.995   7.631  10.613  0.6612 -0.0142  0.0104
  744MOL0     C 2552   8.137   7.624  10.616  0.7749  0.3430  0.3012
  744MOL0     C 2553   8.161   7.529  10.516 -0.0438  0.0882 -0.1975
  744MOL0     C 2554   8.290   7.467  10.465  0.0298 -0.6791  0.6529
  744MOL0     C 2555   8.399   7.566  10.426 -0.7553 -0.8566  0.5263
  744MOL0     C 2556   8.351   7.660  10.309 -0.2528 -0.2352 -0.5191
  744MOL0     C 2557   8.405   7.630  10.169  0.8102 -0.2026  0.9309
  744MOL0     O 2558   8.547   7.624  10.188 -0.1366  0.3808  0.0767
  744MOL0     C 2559   8.621   7.557  10.096  0.4156  0.1042  0.3780
  744MOL0     C 2560   8.578   7.514   9.966 -0.4986 -0.0794  0.2222
  744MOL0     C 2561   8.664   7.438   9.874 -0.9560 -0.2754 -0.3429
  744MOL0     C 2562   8.620   7.408   9.733 -0.7041 -0.1609  1.0398
  744MOL0     C 2563   8.785   7.402   9.919 -0.2468  0.0144  0.5523
  744MOL0     C 2564   8.897   7.346   9.835 -0.0811  0.0634 -0.8536
  744MOL0     O 2565   8.985   7.256   9.894 -0.2543  0.9232 -0.0745
  744MOL0     C 2566   9.124   7.264   9.863  0.2288 -0.5385 -0.1149
  744MOL0     C 2567   9.201   7.153   9.889 -0.0269 -0.5995 -0.2618
  744MOL0     C 2568   9.335   7.151   9.880  0.2835 -0.3358  0.2879
  744MOL0     C 2569   9.399   7.270   9.832 -0.7240  0.1966  0.0387
  744MOL0     O 2570   9.532   7.275   9.808  0.5661  0.7035 -0.0707
  744MOL0     C 2571   9.632   7.174   9.838 -0.4614 -0.1853  0.0429
  744MOL0     C 2572   9.772   7.228   9.813 -0.1979  0.9398  0.3759
  744MOL0     C 2573   9.783   7.276   9.669  0.9225  0.5965  0.1203
  744MOL0     C 2574   9.915   7.361   9.640  1.7021 -0.1643 -1.3753
  744MOL0     C 2575  10.036   7.267   9.619 -0.1823 -0.5278  0.4676
  744MOL0     C 2576  10.166   7.342   9.649  0.4863  0.4779  0.4173
  744MOL0     C 2577  10.296   7.252   9.639  0.3936 -1.1892 -0.5263
  744MOL0     C 2578  10.360   7.218   9.774  0.0657  0.6142 -0.3372
  744MOL0    Cl 2579  10.236   7.167   9.900  0.0862 -0.0883  0.3003
  744MOL0     C 2580   9.323   7.383   9.805  0.4851  0.5116 -0.2150
  744MOL0     C 2581   9.185   7.382   9.822  0.7524  0.2798 -0.4215
  744MOL0     O 2582   8.908   7.384   9.719  0.2010  0.0602  0.0804
  744MOL0     C 2583   8.834   7.439  10.049  1.2331 -1.0617  0.5215
  744MOL0     C 2584   8.752   7.518  10.133  0.0986 -0.0857  0.4365
  744MOL0     N 2585   8.044   7.479  10.469  0.1080 -0.5602  0.0195
  744MOL0     N 2586   7.948   7.538  10.530  0.0026  0.3286  0.4313
  744MOL0     C 2587   6.915   7.506  10.694 -0.2311 -0.2812  0.5144
  744MOL0     C 2588   6.793   7.513  10.625 -0.4577  0.0140  0.4802
  744MOL0     C 2589   6.458   7.350  10.368  0.1704  0.5373  0.7150
  744MOL0     C 2590   6.396   7.238  10.313 -0.9621 -0.5966 -0.1263
  744MOL0     C 2591   6.272   7.242  10.261  0.4690 -0.2794  0.1427
  744MOL0     C 2592   6.192   7.360  10.267  0.4909 -0.2401  0.4407
  744MOL0     O 2593   6.066   7.368  10.218 -0.1076 -0.6901  0.4839
  744MOL0     C 2594   5.998   7.244  10.209  0.8301  0.1222  0.2416
  744MOL0     C 2595   5.846   7.267  10.226  0.2302  0.0810 -0.5852
  744MOL0     C 2596   5.774   7.354  10.125 -0.5045  0.0769  0.4742
  744MOL0     C 2597   5.769   7.302   9.977 -0.4388 -0.5584  1.0087
  744MOL0     C 2598   5.693   7.176   9.964  0.4399 -0.3692 -0.3463
  744MOL0     C 2599   5.630   7.076   9.947 -0.0404  0.4219 -0.1367
  744MOL0     C 2600   6.262   7.475  10.315  0.4387 -0.3423 -0.0886
  744MOL0     C 2601   6.390   7.473  10.361  0.7682  0.9092  0.7893
  744MOL0     C 2602   6.458   7.596  10.404  0.0077 -0.3304  0.0965
  744MOL0     H 2603   6.683   7.211  10.697 -0.2001  0.5014 -0.0978
  744MOL0     H 2604   6.901   7.180  10.802  0.4171 -1.5007 -3.2774
  744MOL0     H 2605   7.153   7.563  10.832  3.2531 -0.7397  3.6090
  744MOL0     H 2606   7.214   7.475  10.679  1.7215 -0.4203 -0.1212
  744MOL0     H 2607   7.293   7.461  10.985  1.4833 -0.5699  0.8816
  744MOL0     H 2608   7.353   7.346  10.866  1.2772 -0.1532  3.9192
  744MOL0     H 2609   7.410   7.565  10.732  0.5044 -0.7105 -0.3179
  744MOL0     H 2610   7.398   7.648  10.878 -0.6294 -0.1411  0.0869
  744MOL0     H 2611   7.562   7.467  10.979  0.2002 -0.1054  0.6976
  744MOL0     H 2612   7.581   7.423  10.808  0.0963  0.0330  0.8824
  744MOL0     H 2613   7.634   7.697  10.942 -2.0492 -0.6941  0.3872
  744MOL0     H 2614   7.644   7.675  10.770 -0.4687 -1.3007 -1.0397
  744MOL0     H 2615   7.817   7.519  10.965  1.7831  0.7544 -0.5569
  744MOL0     H 2616   7.814   7.485  10.794 -0.0818 -1.8331  0.4331
  744MOL0     H 2617   8.004   7.642  10.882 -0.6739  1.0857 -0.3724
  744MOL0     H 2618   7.874   7.753  10.896  0.1657  1.2996 -1.2837
  744MOL0     H 2619   7.818   7.740  10.651 -0.9124 -2.6701  0.8130
  744MOL0     H 2620   7.953   7.819  10.702 -0.4863 -0.3934  1.5665
  744MOL0     H 2621   8.200   7.686  10.678  0.1462 -0.3305  1.6560
  744MOL0     H 2622   8.277   7.410  10.373  0.6521  0.4899 -0.1861
  744MOL0     H 2623   8.321   7.405  10.550  2.2302 -2.0490 -1.0307
  744MOL0     H 2624   8.418   7.624  10.517 -0.4706  2.6691 -1.5727
  744MOL0     H 2625   8.493   7.517  10.398 -0.1299  0.7019 -0.2254
  744MOL0     H 2626   8.242   7.666  10.309 -0.2558  0.3071  1.4747
  744MOL0     H 2627   8.389   7.757  10.342 -0.0138  0.0104 -1.4846
  744MOL0     H 2628   8.363   7.532  10.144  1.1203 -0.5457  1.7045
  744MOL0     H 2629   8.376   7.700  10.091 -2.0673 -0.0636  2.0064
  744MOL0     H 2630   8.480   7.536   9.925 -1.1096 -1.5351  0.8349
  744MOL0     H 2631   8.511   7.402   9.724 -0.9416  1.6314  2.2227
  744MOL0     H 2632   8.652   7.317   9.682 -5.1302 -0.6120 -1.4407
  744MOL0     H 2633   8.646   7.499   9.679 -3.0422  1.2396  2.1262
  744MOL0     H 2634   9.161   7.058   9.924  0.7444 -1.7326 -2.3076
  744MOL0     H 2635   9.381   7.056   9.905  1.2059  0.3034  1.1137
  744MOL0     H 2636   9.624   7.129   9.937 -2.3457 -1.3272 -0.5678
  744MOL0     H 2637   9.617   7.083   9.779 -0.6935 -0.1994  0.1213
  744MOL0     H 2638   9.787   7.310   9.884  0.8414  0.2994  0.9276
  744MOL0     H 2639   9.847   7.150   9.828 -1.9400 -1.0230 -0.5806
  744MOL0     H 2640   9.691   7.330   9.645 -0.5880 -1.8365  0.1199
  744MOL0     H 2641   9.776   7.184   9.610 -0.1760  1.6299 -1.4673
  744MOL0     H 2642   9.926   7.420   9.732 -0.1322 -1.4808 -0.2422
  744MOL0     H 2643   9.898   7.431   9.557 -0.5964 -0.2201 -1.0185
  744MOL0     H 2644  10.029   7.185   9.690  1.0172 -1.5941 -0.5867
  744MOL0     H 2645  10.032   7.229   9.516  3.1696  0.2763 -0.0952
  744MOL0     H 2646  10.147   7.394   9.743 -0.7863 -0.5629  0.7705
  744MOL0     H 2647  10.185   7.414   9.568  1.9246 -1.8807 -1.4802
  744MOL0     H 2648  10.368   7.299   9.572 -2.2905  2.0053 -1.4220
  744MOL0     H 2649  10.274   7.161   9.582 -1.7430 -0.4368 -0.9816
  744MOL0     H 2650  10.407   7.312   9.805 -0.3790  0.7798 -0.1464
  744MOL0     H 2651  10.431   7.137   9.757 -1.8708 -0.7333 -2.4801
  744MOL0     H 2652   9.367   7.475   9.768  0.2310  0.6774 -0.1097
  744MOL0     H 2653   9.126   7.468   9.792 -0.6762 -0.1646  1.0145
  744MOL0     H 2654   8.938   7.434  10.078  1.8173 -0.6066 -1.3371
  744MOL0     H 2655   8.789   7.542  10.232 -0.4550 -0.6466  0.7863
  744MOL0     H 2656   6.978   7.594  10.688 -0.5907 -0.0651 -0.2404
  744MOL0     H 2657   6.756   7.603  10.577 -3.1582  0.0370  2.3660
  744MOL0     H 2658   6.450   7.146  10.294 -1.7922 -1.0818 -0.2056
  744MOL0     H 2659   6.234   7.147  10.224 -0.0589 -0.4487  1.0927
  744MOL0     H 2660   6.021   7.215  10.107 -3.1711  2.4516 -1.5716
  744MOL0     H 2661   6.033   7.167  10.279 -1.2875 -0.1132  1.1189
  744MOL0     H 2662   5.823   7.297  10.329 -0.7614 -0.4014 -0.6642
  744MOL0     H 2663   5.787   7.175  10.224  0.2507  0.0617 -0.3292
  744MOL0     H 2664   5.671   7.375  10.155 -0.5487 -1.6667  1.6757
  744MOL0     H 2665   5.828   7.449  10.115 -1.4840  0.5284 -0.7244
  744MOL0     H 2666   5.873   7.289   9.946 -0.4479 -0.3467  0.8905
  744MOL0     H 2667   5.728   7.375   9.907  1.1368  0.0388  0.6707
  744MOL0     H 2668   5.565   6.995   9.921 -0.0386  1.0064 -2.1326
  744MOL0     H 2669   6.211   7.570  10.328 -0.4762 -0.9201  0.7422
  744MOL0     H 2670   6.564   7.590  10.377  0.1778 -0.2651  0.7395
  744MOL0     H 2671   6.418   7.685  10.356 -0.9617 -0.5428  0.4802
  744MOL0     H 2672   6.461   7.606  10.513  0.1955 -2.0339  0.2805
  745MOL0     O 2673   8.425   4.712   2.890  0.4686  0.8687  0.7962
  745MOL0     C 2674   8.401   4.752   2.772 -0.1485 -0.4019 -0.0632
  745MOL0     O 2675   8.495   4.763   2.678  0.5197  0.5889  0.2050
  745MOL0     C 2676   8.617   4.705   2.697  0.5994  0.0796 -0.0594
  745MOL0     C 2677   8.726   4.792   2.726  0.0428 -0.6905 -0.9369
  745MOL0     C 2678   8.852   4.731   2.745 -0.6144 -0.0659  1.0354
  745MOL0     C 2679   8.868   4.580   2.735  0.1361  0.8189 -0.0967
  745MOL0     O 2680   8.989   4.519   2.735  0.2051  0.6567 -0.0539
  745MOL0     C 2681   9.086   4.570   2.633  0.0638  0.5053  0.0362
  745MOL0     C 2682   9.194   4.656   2.689 -0.1654 -0.2483 -0.7074
  745MOL0     C 2683   9.297   4.691   2.581 -0.6025 -0.3767 -0.1922
  745MOL0     C 2684   9.419   4.755   2.644  0.1467  0.4786 -0.0463
  745MOL0     C 2685   9.516   4.825   2.547  0.4684  0.1334 -0.4403
  745MOL0     C 2686   9.623   4.898   2.627  0.5035 -0.0283  0.1289
  745MOL0     C 2687   9.700   5.015   2.565 -0.4233  0.2665  0.4527
  745MOL0     C 2688   9.767   4.968   2.432 -0.2837 -0.1288  0.3926
  745MOL0     N 2689   9.870   5.070   2.406 -0.2153 -0.9709 -0.1951
  745MOL0     C 2690   9.998   5.059   2.453 -0.3133 -0.8017 -1.2414
  745MOL0     C 2691  10.047   5.189   2.435  0.1438  0.3817 -0.3721
  745MOL0     C 2692  10.181   5.245   2.480 -0.3451 -0.2332 -0.2505
  745MOL0     C 2693  10.283   5.129   2.488  0.2054 -0.3640 -0.1900
  745MOL0     C 2694  10.287   5.073   2.634 -0.1847  0.4134  0.0671
  745MOL0     C 2695  10.305   5.164   2.752  0.4713  0.1908  0.1194
  745MOL0     O 2696  10.390   5.283   2.729  0.1581  0.1086 -0.3575
  745MOL0     C 2697  10.520   5.263   2.692  0.7509  0.2467  0.1701
  745MOL0     C 2698  10.606   5.178   2.750  0.2277 -1.0187 -0.5185
  745MOL0     C 2699  10.740   5.174   2.703  0.1893  0.3923 -0.4647
  745MOL0     C 2700  10.839   5.094   2.787  0.1299 -0.1462  0.0983
  745MOL0     C 2701  10.788   5.249   2.594  0.8309 -0.3138 -0.2197
  745MOL0     C 2702  10.931   5.258   2.554  0.3126 -0.9710  0.3496
  745MOL0     O 2703  11.001   5.365   2.603 -0.2720  0.2989  0.1739
  745MOL0     C 2704  11.102   5.430   2.536 -0.1166  0.1863  0.0562
  745MOL0     C 2705  11.109   5.437   2.397  0.1694 -1.0116 -0.0164
  745MOL0     C 2706  11.220   5.503   2.341  0.0518 -0.0221 -0.1537
  745MOL0     C 2707  11.314   5.562   2.423  0.9321  0.3103  0.6273
  745MOL0     O 2708  11.415   5.626   2.355  0.4515 -0.0626  0.0223
  745MOL0     C 2709  11.521   5.541   2.316 -1.5142  0.0894  0.1408
  745MOL0     C 2710  11.654   5.618   2.281 -0.1203  0.1914  0.1387
  745MOL0     C 2711  11.623   5.750   2.192 -0.2274 -0.3656 -0.0752
  745MOL0     C 2712  11.734   5.852   2.212  0.4783  0.1377  0.5268
  745MOL0     C 2713  11.701   5.981   2.145 -0.2692 -0.0830  0.6014
  745MOL0     C 2714  11.712   5.973   1.993  0.7429  1.0306  0.0887
  745MOL0     C 2715  11.672   6.112   1.938 -0.0983  0.7229  0.0879
  745MOL0     C 2716  11.706   6.107   1.791 -0.1430  0.1186  0.2753
  745MOL0    Cl 2717  11.603   5.997   1.691 -0.1454 -0.6431 -0.2145
  745MOL0     C 2718  11.303   5.560   2.560  0.0699  0.0256 -0.7546
  745MOL0     C 2719  11.197   5.488   2.619 -0.0215 -0.2330  0.4053
  745MOL0     O 2720  10.970   5.183   2.467 -0.2389  0.1008 -0.6368
  745MOL0     C 2721  10.697   5.340   2.543  0.0116  0.5081  0.2327
  745MOL0     C 2722  10.563   5.341   2.582  0.1491 -0.1413 -0.6959
  745MOL0     N 2723   9.950   5.259   2.367 -0.0067  0.1484 -0.6939
  745MOL0     N 2724   9.849   5.182   2.340  0.1291 -0.2032 -0.2243
  745MOL0     C 2725   8.755   4.504   2.711  0.6424  0.2580  0.0172
  745MOL0     C 2726   8.636   4.567   2.688  0.8243  0.0982 -0.3782
  745MOL0     C 2727   8.277   4.831   2.760 -0.1995  0.2062 -0.4122
  745MOL0     C 2728   8.224   4.895   2.871 -0.1819 -0.2564 -0.3792
  745MOL0     C 2729   8.093   4.952   2.861 -0.4454 -0.6290  0.9311
  745MOL0     C 2730   8.021   4.949   2.739 -0.0812  0.2003  0.3158
  745MOL0     O 2731   7.893   4.997   2.725 -0.5169 -0.6362 -0.4871
  745MOL0     C 2732   7.841   5.071   2.836 -0.1177 -0.7774  0.6587
  745MOL0     C 2733   7.702   5.124   2.789  0.3548 -0.3969  0.3274
  745MOL0     C 2734   7.608   5.011   2.753  0.4035 -0.3854  0.5954
  745MOL0     C 2735   7.489   5.068   2.686 -0.3607 -0.2119 -0.2160
  745MOL0     C 2736   7.402   4.965   2.629 -1.3943 -0.6727  0.2120
  745MOL0     C 2737   7.330   4.881   2.583  0.1578  0.7121 -0.2033
  745MOL0     C 2738   8.083   4.887   2.629 -0.3386  0.6405 -0.6148
  745MOL0     C 2739   8.200   4.819   2.645  0.1103  0.0853  0.7095
  745MOL0     C 2740   8.242   4.720   2.530  0.6760 -0.8250  0.2084
  745MOL0     H 2741   8.721   4.900   2.722 -2.6278 -0.6355  0.9507
  745MOL0     H 2742   8.936   4.800   2.746 -0.0099 -0.6705 -1.2118
  745MOL0     H 2743   9.036   4.629   2.556 -1.4250  0.9492  1.2963
  745MOL0     H 2744   9.132   4.481   2.590 -2.4939 -1.9186  1.9119
  745MOL0     H 2745   9.143   4.743   2.732  2.9742  1.3131  0.1573
  745MOL0     H 2746   9.248   4.599   2.766 -1.1343 -0.3445 -0.0825
  745MOL0     H 2747   9.322   4.601   2.525 -0.4731 -0.6644  0.3217
  745MOL0     H 2748   9.253   4.752   2.501  0.0722  0.3216 -0.0420
  745MOL0     H 2749   9.395   4.831   2.720 -0.4440  1.0247 -0.7638
  745MOL0     H 2750   9.474   4.673   2.691  1.6711  2.1718  1.2558
  745MOL0     H 2751   9.464   4.895   2.480  1.1137 -1.8237 -3.1552
  745MOL0     H 2752   9.578   4.753   2.493  1.3694 -1.1614  2.1856
  745MOL0     H 2753   9.568   4.931   2.715  0.2233  0.4478 -0.2231
  745MOL0     H 2754   9.701   4.830   2.663  1.9487  1.1112 -0.7637
  745MOL0     H 2755   9.787   5.051   2.621  0.5750 -0.9473 -0.2450
  745MOL0     H 2756   9.625   5.091   2.543  1.0227  1.0652 -2.2407
  745MOL0     H 2757   9.826   4.877   2.444 -0.8297 -0.4849  0.4415
  745MOL0     H 2758   9.695   4.945   2.352 -0.2075 -1.4922  0.6969
  745MOL0     H 2759  10.045   4.967   2.486 -2.0900 -1.0219  0.8659
  745MOL0     H 2760  10.171   5.293   2.578  0.1959 -1.8272  0.6138
  745MOL0     H 2761  10.216   5.320   2.408  1.6397 -1.3350 -0.5202
  745MOL0     H 2762  10.266   5.056   2.407  2.2631  2.1690 -3.1197
  745MOL0     H 2763  10.381   5.164   2.456 -0.0863 -0.1842 -0.9102
  745MOL0     H 2764  10.200   5.007   2.633 -0.6912  1.0556 -1.2937
  745MOL0     H 2765  10.379   5.013   2.631  0.0783  0.8312 -1.7340
  745MOL0     H 2766  10.204   5.199   2.775  0.0881  0.0265 -1.2184
  745MOL0     H 2767  10.344   5.118   2.844  0.1802 -1.0050 -0.3379
  745MOL0     H 2768  10.576   5.113   2.831 -0.7355  1.0947  0.9251
  745MOL0     H 2769  10.886   5.021   2.720  2.9730  1.7941 -0.1936
  745MOL0     H 2770  10.798   5.047   2.877 -0.3010  1.1048  0.5749
  745MOL0     H 2771  10.911   5.168   2.824 -1.3927  1.6665 -0.4439
  745MOL0     H 2772  11.036   5.388   2.333  0.9241 -0.6619 -1.1919
  745MOL0     H 2773  11.218   5.498   2.233  0.5292  2.0489 -0.3028
  745MOL0     H 2774  11.550   5.466   2.389  2.6112  2.1372  0.9670
  745MOL0     H 2775  11.493   5.482   2.228 -1.2376 -1.8306  1.2886
  745MOL0     H 2776  11.713   5.643   2.370  0.4625  1.6202 -0.6016
  745MOL0     H 2777  11.708   5.556   2.209 -0.7110  0.9024 -0.9532
  745MOL0     H 2778  11.534   5.794   2.238  1.3960  3.1699  0.0098
  745MOL0     H 2779  11.615   5.725   2.085  1.3566 -1.7115  0.0779
  745MOL0     H 2780  11.835   5.827   2.178  1.2872  2.9683  0.6256
  745MOL0     H 2781  11.746   5.874   2.318 -0.4815 -2.1986  1.1800
  745MOL0     H 2782  11.598   6.006   2.171 -0.4708 -1.7096  1.5193
  745MOL0     H 2783  11.760   6.066   2.183 -1.7530  1.0844  0.3991
  745MOL0     H 2784  11.639   5.898   1.962  0.3951  1.3384  0.1571
  745MOL0     H 2785  11.816   5.948   1.970  0.6314  0.9187 -0.3003
  745MOL0     H 2786  11.732   6.189   1.987  3.2829  0.0458 -2.6163
  745MOL0     H 2787  11.565   6.132   1.948 -0.2979  0.3625 -1.1192
  745MOL0     H 2788  11.811   6.080   1.779 -0.1522 -2.5455  4.1646
  745MOL0     H 2789  11.695   6.204   1.742 -3.4080  0.6657  1.8418
  745MOL0     H 2790  11.370   5.614   2.626 -0.1010 -1.2002  0.4657
  745MOL0     H 2791  11.187   5.484   2.727  0.8377 -0.1455  0.4960
  745MOL0     H 2792  10.735   5.408   2.467 -2.4788 -2.1357 -3.8043
  745MOL0     H 2793  10.491   5.392   2.519 -0.5105  1.4347  1.2361
  745MOL0     H 2794   8.745   4.398   2.693 -2.9775  0.8061 -2.3062
  745MOL0     H 2795   8.539   4.518   2.685  0.4990  0.5065  1.6866
  745MOL0     H 2796   8.286   4.908   2.959  0.5410  2.6546 -1.1950
  745MOL0     H 2797   8.057   4.996   2.953  0.8025  0.8988  0.7321
  745MOL0     H 2798   7.845   5.002   2.921  1.4865 -2.9569 -1.0696
  745MOL0     H 2799   7.909   5.153   2.859  0.0308 -0.8682  0.5448
  745MOL0     H 2800   7.711   5.183   2.697  0.6929  1.5728  1.5723
  745MOL0     H 2801   7.665   5.196   2.862 -1.4034  2.4598 -3.1218
  745MOL0     H 2802   7.652   4.938   2.685 -0.4946 -1.6434  1.3411
  745MOL0     H 2803   7.569   4.970   2.846  1.4493 -2.5678  0.1341
  745MOL0     H 2804   7.518   5.141   2.610 -0.6474  1.2018  0.9898
  745MOL0     H 2805   7.430   5.112   2.766  0.4331 -0.9302  0.7900
  745MOL0     H 2806   7.255   4.827   2.529 -1.5758  3.3699 -0.6619
  745MOL0     H 2807   8.040   4.880   2.529 -0.3505 -2.2191 -0.4731
  745MOL0     H 2808   8.295   4.779   2.455 -0.4781  0.7521  0.5796
  745MOL0     H 2809   8.305   4.639   2.568  0.8101 -0.8228 -0.0108
  745MOL0     H 2810   8.148   4.689   2.483  0.4265  1.6467 -1.1038
  746MOL0     O 2811  10.336   9.746   9.341  0.3004  0.4128  0.0058
  746MOL0     C 2812  10.255   9.834   9.349  0.4899 -0.0695  0.1026
  746MOL0     O 2813  10.284   9.955   9.411 -0.1793  0.2664  0.2678
  746MOL0     C 2814  10.402   9.985   9.471 -0.0721 -0.1193  1.0603
  746MOL0     C 2815  10.465   9.918   9.575 -0.5430 -0.4051  0.1687
  746MOL0     C 2816  10.600   9.965   9.613  0.3798  0.2991  0.4985
  746MOL0     C 2817  10.661  10.065   9.535  0.3951  0.3936  0.1168
  746MOL0     O 2818  10.792  10.106   9.568  0.2362  0.6852 -0.0871
  746MOL0     C 2819  10.886  10.010   9.616 -0.4053  0.4076  0.2614
  746MOL0     C 2820  11.034  10.072   9.613  0.8475 -0.4459  0.0413
  746MOL0     C 2821  11.041  10.197   9.708  0.1970  0.1358  0.4568
  746MOL0     C 2822  11.038  10.163   9.846  0.1653 -0.2507  0.1663
  746MOL0     C 2823  11.139  10.254   9.925  0.5512  0.6163 -0.3106
  746MOL0     C 2824  11.287  10.202   9.918  0.3853  0.1379 -0.0186
  746MOL0     C 2825  11.369  10.285  10.013  0.2887 -0.8294  0.8849
  746MOL0     C 2826  11.518  10.253  10.016 -0.6271 -0.2077 -0.1797
  746MOL0     N 2827  11.584  10.340  10.113  0.3532  0.8574 -0.9231
  746MOL0     C 2828  11.719  10.365  10.100  0.1378  0.7747 -0.8311
  746MOL0     C 2829  11.751  10.432  10.216  1.0172  0.5995 -0.0508
  746MOL0     C 2830  11.887  10.486  10.232 -0.4558  0.2389 -0.6856
  746MOL0     C 2831  11.995  10.377  10.234 -0.7168  0.8603 -0.1971
  746MOL0     C 2832  12.137  10.442  10.221 -0.0971 -0.2912 -0.2558
  746MOL0     C 2833  12.244  10.360  10.274  0.6214 -0.6314  0.6844
  746MOL0     O 2834  12.242  10.353  10.422 -0.0718  0.2909 -0.5775
  746MOL0     C 2835  12.290  10.462  10.481 -0.0445  0.5620  0.1556
  746MOL0     C 2836  12.196  10.529  10.557 -0.3137  0.5504 -0.0651
  746MOL0     C 2837  12.234  10.630  10.641  0.5238  0.0446 -0.8808
  746MOL0     C 2838  12.135  10.694  10.737  0.3950  0.6571  0.4839
  746MOL0     C 2839  12.373  10.673  10.646  0.8370  0.1256  0.7755
  746MOL0     C 2840  12.420  10.780  10.735 -0.6681  0.2876  0.0431
  746MOL0     O 2841  12.434  10.752  10.860  0.1606  0.5682  0.1046
  746MOL0     C 2842  12.467  10.851  10.947 -0.1448 -0.1371  0.2693
  746MOL0     C 2843  12.603  10.873  10.990  0.6228  0.8401  0.0031
  746MOL0     C 2844  12.629  10.967  11.080  0.3047 -0.1841  0.4671
  746MOL0     C 2845  12.533  11.072  11.103 -0.4436  0.0022  0.0277
  746MOL0     O 2846  12.558  11.191  11.174 -0.2543  0.5146  0.2273
  746MOL0     C 2847  12.693  11.199  11.226 -0.0498 -0.2354  0.4365
  746MOL0     C 2848  12.703  11.335  11.305  0.2895  0.2519 -1.0295
  746MOL0     C 2849  12.731  11.457  11.219 -0.5259  0.2257  0.5404
  746MOL0     C 2850  12.727  11.581  11.311  0.1706 -0.2078 -0.5310
  746MOL0     C 2851  12.783  11.709  11.239 -0.4646  0.1989  0.1559
  746MOL0     C 2852  12.693  11.758  11.126  0.1736  0.4062 -0.7739
  746MOL0     C 2853  12.762  11.880  11.069 -0.5043 -0.3544 -0.1623
  746MOL0     C 2854  12.693  12.012  11.116 -0.1661  0.0717 -0.5375
  746MOL0    Cl 2855  12.790  12.151  11.058  0.0610  0.0889  0.3061
  746MOL0     C 2856  12.404  11.052  11.060 -0.7622  0.2113 -0.9281
  746MOL0     C 2857  12.374  10.945  10.980 -0.0488 -0.2494  0.1783
  746MOL0     O 2858  12.454  10.883  10.675  0.0030 -0.2814 -0.1478
  746MOL0     C 2859  12.459  10.604  10.573 -0.5909 -0.0196 -0.0645
  746MOL0     C 2860  12.421  10.502  10.486  0.7320 -0.3985 -1.0034
  746MOL0     N 2861  11.635  10.455  10.288  0.2446  0.3476  0.5418
  746MOL0     N 2862  11.544  10.388  10.231 -0.3046 -0.1243 -1.1042
  746MOL0     C 2863  10.594  10.132   9.435  0.0077  0.8873  0.9539
  746MOL0     C 2864  10.463  10.093   9.405  0.2944 -0.4682 -0.1258
  746MOL0     C 2865  10.125   9.821   9.275 -0.1123  0.8456  0.3939
  746MOL0     C 2866  10.043   9.941   9.272  0.4231  0.1112 -0.4890
  746MOL0     C 2867   9.922   9.940   9.204  0.2616 -0.0941 -0.5679
  746MOL0     C 2868   9.875   9.821   9.147  0.1807  0.1547  0.1920
  746MOL0     O 2869   9.764   9.811   9.068 -0.0800  0.4931  0.5443
  746MOL0     C 2870   9.694   9.931   9.049  0.6069 -0.1706  0.1321
  746MOL0     C 2871   9.565   9.890   8.966 -0.4401  1.6269 -0.6743
  746MOL0     C 2872   9.463   9.793   9.026  0.0872  0.2798  0.5822
  746MOL0     C 2873   9.382   9.836   9.146 -0.1850  0.6770 -0.7156
  746MOL0     C 2874   9.312   9.725   9.211 -0.0695  0.3146 -0.1820
  746MOL0     C 2875   9.291   9.625   9.278  0.6711  0.8929  0.7116
  746MOL0     C 2876   9.955   9.712   9.151 -0.4225 -0.3645  0.6929
  746MOL0     C 2877  10.086   9.707   9.193  0.2874  0.1363  0.0041
  746MOL0     C 2878  10.151   9.575   9.170  1.3773  0.9058 -0.4125
  746MOL0     H 2879  10.415   9.832   9.618  0.6128 -0.3434  1.7248
  746MOL0     H 2880  10.652   9.925   9.700 -1.9074 -1.6719  1.0705
  746MOL0     H 2881  10.881   9.925   9.548  1.6839  0.7320 -0.3544
  746MOL0     H 2882  10.864   9.981   9.720 -1.2945 -0.5096 -0.1686
  746MOL0     H 2883  11.116  10.003   9.638  0.7216 -0.2527  1.0238
  746MOL0     H 2884  11.049  10.116   9.515 -2.4159 -1.7903 -1.1917
  746MOL0     H 2885  11.138  10.244   9.692 -0.0050  0.8389  1.2494
  746MOL0     H 2886  10.963  10.269   9.680 -1.7963 -1.2880  1.9973
  746MOL0     H 2887  10.934  10.182   9.873 -0.5901 -1.3769 -1.7287
  746MOL0     H 2888  11.054  10.058   9.869  0.2840 -0.0553  0.9992
  746MOL0     H 2889  11.110  10.257  10.031  0.7141  3.4332 -0.2708
  746MOL0     H 2890  11.129  10.359   9.897 -1.5606  0.5919  0.1712
  746MOL0     H 2891  11.300  10.096   9.945  0.7366 -0.4156 -2.1863
  746MOL0     H 2892  11.331  10.221   9.820 -0.9924  2.9980 -0.1684
  746MOL0     H 2893  11.323  10.281  10.112  1.6242  0.1266  1.5913
  746MOL0     H 2894  11.364  10.386   9.970 -0.5373 -2.2703 -2.7370
  746MOL0     H 2895  11.531  10.148  10.044  0.5195 -0.4886 -1.6160
  746MOL0     H 2896  11.547  10.270   9.912 -0.3235  0.7921  0.0543
  746MOL0     H 2897  11.796  10.328  10.033 -1.3887 -2.0855 -1.1336
  746MOL0     H 2898  11.896  10.544  10.324  0.2677  0.0358 -0.6265
  746MOL0     H 2899  11.910  10.560  10.155 -0.4618 -0.2494 -1.1622
  746MOL0     H 2900  11.975  10.327  10.329  0.9893  2.5636  1.1418
  746MOL0     H 2901  11.979  10.301  10.157 -0.9656 -0.5873  1.2247
  746MOL0     H 2902  12.151  10.450  10.112 -1.5913  0.5704 -0.4008
  746MOL0     H 2903  12.144  10.544  10.258 -1.4906  0.8414 -2.8671
  746MOL0     H 2904  12.245  10.263  10.222 -1.7099  0.7690 -2.2927
  746MOL0     H 2905  12.340  10.403  10.244  0.6748  0.9974  2.9851
  746MOL0     H 2906  12.093  10.498  10.569 -1.5133  4.5101  1.2914
  746MOL0     H 2907  12.182  10.708  10.835 -1.5553 -0.9462  1.7337
  746MOL0     H 2908  12.052  10.623  10.749  1.8252 -1.1753 -0.0453
  746MOL0     H 2909  12.090  10.791  10.715 -2.9497 -0.7546  0.3548
  746MOL0     H 2910  12.666  10.792  10.953 -2.4646 -0.7446 -2.1752
  746MOL0     H 2911  12.728  10.968  11.124  0.3270  0.6786  0.4233
  746MOL0     H 2912  12.719  11.126  11.303  2.0643 -0.7691 -0.7236
  746MOL0     H 2913  12.761  11.195  11.141 -0.6310 -2.4569  0.0288
  746MOL0     H 2914  12.609  11.350  11.359  2.0361 -1.2374  2.7859
  746MOL0     H 2915  12.771  11.332  11.391 -0.3109  0.0980 -0.5577
  746MOL0     H 2916  12.648  11.467  11.149 -0.1310  2.8801  0.3778
  746MOL0     H 2917  12.830  11.449  11.173  1.6212 -0.8322  4.8418
  746MOL0     H 2918  12.778  11.564  11.406 -0.7101 -1.3090 -0.2299
  746MOL0     H 2919  12.622  11.599  11.335 -0.0931  0.9325 -2.2928
  746MOL0     H 2920  12.791  11.795  11.306 -1.6114  1.5431 -1.3447
  746MOL0     H 2921  12.877  11.681  11.190 -1.5472  2.3024 -3.4921
  746MOL0     H 2922  12.588  11.778  11.153  0.2780 -1.0350  0.9466
  746MOL0     H 2923  12.685  11.684  11.046  1.1435 -0.5445 -0.0217
  746MOL0     H 2924  12.762  11.878  10.960  1.7778  0.8961 -0.2454
  746MOL0     H 2925  12.867  11.883  11.101  0.2432  0.9279 -2.5248
  746MOL0     H 2926  12.679  12.002  11.224  2.9522 -6.9239 -0.2061
  746MOL0     H 2927  12.593  12.028  11.077 -1.0243 -0.6756  1.2338
  746MOL0     H 2928  12.328  11.130  11.066  0.5296  1.5773 -1.5953
  746MOL0     H 2929  12.276  10.934  10.935  0.2793  0.3387 -0.7157
  746MOL0     H 2930  12.565  10.628  10.578 -0.4228 -0.3669 -1.3870
  746MOL0     H 2931  12.493  10.450  10.423  0.1259 -3.1605  0.4137
  746MOL0     H 2932  10.649  10.211   9.385 -0.7400  0.3092 -0.8893
  746MOL0     H 2933  10.411  10.127   9.316  1.3543 -0.1894 -0.6546
  746MOL0     H 2934  10.077  10.033   9.320 -1.5642  1.2053 -1.0621
  746MOL0     H 2935   9.851  10.023   9.210 -1.9516 -1.9753  1.1222
  746MOL0     H 2936   9.662   9.987   9.137 -0.1503  2.6815 -1.8308
  746MOL0     H 2937   9.756  10.002   8.995 -0.1436  2.2765  2.2781
  746MOL0     H 2938   9.596   9.837   8.876 -2.0502 -2.4504  0.9370
  746MOL0     H 2939   9.519   9.987   8.944 -0.3826  2.1290  1.2494
  746MOL0     H 2940   9.398   9.758   8.945 -0.4989  1.8555  0.3245
  746MOL0     H 2941   9.511   9.697   9.047  2.2550  0.6866 -1.9539
  746MOL0     H 2942   9.318   9.923   9.127 -1.7568  0.2896  2.1529
  746MOL0     H 2943   9.455   9.879   9.216 -0.1289 -0.7224  0.1356
  746MOL0     H 2944   9.268   9.539   9.338 -0.0188  0.5409 -0.0299
  746MOL0     H 2945   9.906   9.632   9.096 -1.2058  0.7904 -0.3395
  746MOL0     H 2946  10.108   9.514   9.090  2.1296 -1.8273  1.1441
  746MOL0     H 2947  10.254   9.587   9.136  1.9707  0.1828  1.0531
  746MOL0     H 2948  10.151   9.520   9.265  0.9013 -1.2777 -1.6139
  747MOL0     O 2949   2.628   8.566   0.982 -0.8003  0.0780 -0.0370
  747MOL0     C 2950   2.611   8.450   1.022  0.4521 -0.1549 -1.3335
  747MOL0     O 2951   2.701   8.388   1.113  0.4946  0.1095  0.1651
  747MOL0     C 2952   2.819   8.444   1.152  0.2495  0.4490 -0.2332
  747MOL0     C 2953   2.864   8.445   1.286  0.2805  0.9944  0.0454
  747MOL0     C 2954   2.977   8.519   1.312  0.3791  0.5952 -0.7725
  747MOL0     C 2955   3.063   8.569   1.210  0.2343 -0.0908  0.2153
  747MOL0     O 2956   3.180   8.651   1.233  0.1228 -0.1057  0.1356
  747MOL0     C 2957   3.224   8.657   1.363  0.3693 -0.4602 -0.3795
  747MOL0     C 2958   3.346   8.738   1.356 -0.7786  0.0422 -0.4793
  747MOL0     C 2959   3.448   8.670   1.256 -0.9545  0.7792  0.3406
  747MOL0     C 2960   3.572   8.754   1.260 -0.1355 -0.3824  0.4781
  747MOL0     C 2961   3.678   8.706   1.156 -0.5399  0.3558 -0.5829
  747MOL0     C 2962   3.750   8.827   1.101 -0.2155 -0.8914 -0.7991
  747MOL0     C 2963   3.857   8.799   0.995 -0.0101  0.1202  0.0708
  747MOL0     C 2964   3.808   8.709   0.878  0.4300  0.6615  0.3218
  747MOL0     N 2965   3.693   8.760   0.794 -0.3385 -0.5162  0.7868
  747MOL0     C 2966   3.701   8.824   0.670  0.2707 -0.1815  0.3435
  747MOL0     C 2967   3.575   8.844   0.624 -0.0253 -1.2748 -0.0833
  747MOL0     C 2968   3.532   8.897   0.488 -1.5228 -0.2831  0.0550
  747MOL0     C 2969   3.425   9.009   0.505 -0.4594  1.1747  0.1935
  747MOL0     C 2970   3.411   9.081   0.373 -0.5480 -0.0013 -0.3229
  747MOL0     C 2971   3.539   9.164   0.335  0.7582 -0.5220 -0.2802
  747MOL0     O 2972   3.574   9.252   0.437 -0.4889 -0.4368 -0.6291
  747MOL0     C 2973   3.681   9.334   0.421  0.5363  0.7113 -0.1124
  747MOL0     C 2974   3.715   9.406   0.539  0.0212  0.1004 -0.0233
  747MOL0     C 2975   3.811   9.507   0.540 -0.2916 -0.5768  0.0842
  747MOL0     C 2976   3.829   9.588   0.671  0.7854  0.5757  0.4581
  747MOL0     C 2977   3.903   9.526   0.436  0.5227  0.6912  0.5793
  747MOL0     C 2978   4.022   9.616   0.426  0.4819  0.6621 -0.4041
  747MOL0     O 2979   4.120   9.578   0.341  0.2950 -0.8691 -0.1663
  747MOL0     C 2980   4.221   9.663   0.318 -0.9125 -0.7007  0.0550
  747MOL0     C 2981   4.350   9.644   0.366  0.5283  0.4563 -0.2362
  747MOL0     C 2982   4.458   9.730   0.334  0.6523  0.4621 -0.0030
  747MOL0     C 2983   4.435   9.835   0.247  0.6421  0.4424  0.1865
  747MOL0     O 2984   4.527   9.934   0.218  0.1354 -0.2785 -0.6031
  747MOL0     C 2985   4.654   9.935   0.298  0.3871 -0.4789  0.7851
  747MOL0     C 2986   4.711  10.072   0.290 -0.4410  0.1971 -0.8249
  747MOL0     C 2987   4.853  10.078   0.344  0.6995  0.3280  0.3280
  747MOL0     C 2988   4.905  10.215   0.312 -0.4303  0.0793  0.2017
  747MOL0     C 2989   5.029  10.242   0.398  0.2398 -0.0011 -0.0222
  747MOL0     C 2990   5.086  10.384   0.379  0.3404  0.4501  0.9336
  747MOL0     C 2991   5.184  10.413   0.491  0.0602 -0.2740 -0.6390
  747MOL0     C 2992   5.238  10.557   0.482 -0.1405  0.0980  0.3648
  747MOL0    Cl 2993   5.347  10.556   0.329 -0.5490  0.3995 -0.0898
  747MOL0     C 2994   4.308   9.856   0.194 -0.0962  0.6227  0.9150
  747MOL0     C 2995   4.200   9.768   0.226 -0.8557  0.5868 -0.2396
  747MOL0     O 2996   4.017   9.721   0.483 -0.2902  0.8207  1.2436
  747MOL0     C 2997   3.867   9.447   0.321 -0.5340 -0.4205 -0.3099
  747MOL0     C 2998   3.763   9.353   0.312  0.6551 -0.3534 -0.2080
  747MOL0     N 2999   3.490   8.803   0.731  0.4087  0.4311  0.1794
  747MOL0     N 3000   3.559   8.734   0.821 -0.3581 -0.3922 -0.3143
  747MOL0     C 3001   3.007   8.574   1.085  0.6466 -0.7093 -0.1856
  747MOL0     C 3002   2.895   8.506   1.050  0.2697 -0.5533 -0.5578
  747MOL0     C 3003   2.477   8.390   1.014  0.4526 -0.2064 -0.5021
  747MOL0     C 3004   2.433   8.302   1.110  0.1960  0.4406 -0.8598
  747MOL0     C 3005   2.304   8.259   1.123 -0.3992 -0.1125  0.4702
  747MOL0     C 3006   2.221   8.291   1.015 -0.3843  0.1308 -1.3019
  747MOL0     O 3007   2.092   8.244   1.029 -0.0348 -0.0701  0.5850
  747MOL0     C 3008   2.016   8.274   1.141  0.8848 -0.3053 -0.2420
  747MOL0     C 3009   1.869   8.300   1.104 -0.0226  0.4655 -0.1473
  747MOL0     C 3010   1.844   8.441   1.081 -0.2635  0.4513  0.5577
  747MOL0     C 3011   1.696   8.486   1.087  0.4107  0.1646 -0.0837
  747MOL0     C 3012   1.636   8.450   0.962  0.1100 -0.1553 -0.8715
  747MOL0     C 3013   1.599   8.414   0.857  0.5189 -0.1482  0.3118
  747MOL0     C 3014   2.264   8.365   0.901  0.1603  0.5831  0.0768
  747MOL0     C 3015   2.391   8.420   0.901  0.3947  0.4476  0.2202
  747MOL0     C 3016   2.431   8.507   0.791  0.4585 -0.0654  0.0537
  747MOL0     H 3017   2.815   8.395   1.369  0.1491  1.7326  0.4175
  747MOL0     H 3018   3.017   8.523   1.413 -1.9620  1.2530  0.1806
  747MOL0     H 3019   3.247   8.562   1.414  0.4602 -0.3373 -0.1906
  747MOL0     H 3020   3.152   8.712   1.424  1.3780  2.1241 -1.3764
  747MOL0     H 3021   3.324   8.842   1.332 -0.8416  0.0242 -0.5031
  747MOL0     H 3022   3.382   8.735   1.459 -0.7893 -0.0872 -0.4789
  747MOL0     H 3023   3.466   8.564   1.279 -2.6092  0.2087 -0.7705
  747MOL0     H 3024   3.418   8.668   1.151  1.9417 -0.0881 -0.5698
  747MOL0     H 3025   3.550   8.857   1.233  2.9018  0.7752  1.9968
  747MOL0     H 3026   3.608   8.755   1.364 -2.9168 -0.9776  1.5493
  747MOL0     H 3027   3.624   8.665   1.070 -4.1479 -1.5465  2.3190
  747MOL0     H 3028   3.743   8.624   1.186  4.3922  4.2135  0.4835
  747MOL0     H 3029   3.674   8.892   1.057  0.4469 -0.0517 -0.7302
  747MOL0     H 3030   3.801   8.872   1.186 -3.0695  0.2011  0.4465
  747MOL0     H 3031   3.952   8.758   1.032  0.3717  0.9517  0.0581
  747MOL0     H 3032   3.881   8.893   0.944  0.8941  0.5055  1.1446
  747MOL0     H 3033   3.891   8.684   0.811  2.7881 -0.3540  3.3908
  747MOL0     H 3034   3.780   8.612   0.919 -0.8056 -0.1889 -2.2696
  747MOL0     H 3035   3.795   8.857   0.626 -0.1325  1.0001  0.3333
  747MOL0     H 3036   3.500   8.814   0.424  1.9537 -1.9186  0.1933
  747MOL0     H 3037   3.622   8.933   0.437 -0.8887 -1.6335  0.1949
  747MOL0     H 3038   3.337   8.955   0.540 -0.2882  2.2986  2.5071
  747MOL0     H 3039   3.450   9.075   0.588 -3.7535  0.5560  1.8383
  747MOL0     H 3040   3.402   9.009   0.292  0.1048  1.4985 -1.8024
  747MOL0     H 3041   3.321   9.143   0.380  1.0522  2.3579  1.3793
  747MOL0     H 3042   3.623   9.099   0.309 -0.0787 -1.6432 -0.2903
  747MOL0     H 3043   3.519   9.213   0.239  0.3894 -1.5448 -0.7395
  747MOL0     H 3044   3.663   9.389   0.633  0.2558  0.5739  0.1931
  747MOL0     H 3045   3.877   9.685   0.655 -0.8111  1.3357  0.0507
  747MOL0     H 3046   3.890   9.533   0.742  1.8715  1.2374  0.0623
  747MOL0     H 3047   3.734   9.613   0.719  1.3791  1.5710  1.1533
  747MOL0     H 3048   4.372   9.561   0.433 -2.5750 -1.0060 -0.8902
  747MOL0     H 3049   4.551   9.710   0.387 -0.9495  1.3310  3.4248
  747MOL0     H 3050   4.625   9.917   0.402 -2.6118 -1.0226 -0.0684
  747MOL0     H 3051   4.723   9.861   0.255 -0.3962 -0.3158 -0.8167
  747MOL0     H 3052   4.705  10.105   0.186  0.5662  1.1435 -0.6059
  747MOL0     H 3053   4.643  10.133   0.351  1.8206 -0.0715  2.2213
  747MOL0     H 3054   4.922   9.999   0.315  0.9547 -0.3867  2.6983
  747MOL0     H 3055   4.841  10.082   0.453 -0.4111  0.4341  0.2193
  747MOL0     H 3056   4.827  10.290   0.322  1.7091  2.4051  0.5047
  747MOL0     H 3057   4.938  10.226   0.209 -0.6308  0.8226  0.2121
  747MOL0     H 3058   5.004  10.244   0.504 -1.1624  0.4703 -0.3504
  747MOL0     H 3059   5.109  10.168   0.383  0.1767  0.2825 -2.1063
  747MOL0     H 3060   5.000  10.452   0.376 -0.4978 -0.5909 -1.8038
  747MOL0     H 3061   5.132  10.393   0.280 -0.4072  0.4446  0.5749
  747MOL0     H 3062   5.262  10.336   0.490 -1.7314 -2.6007  4.2557
  747MOL0     H 3063   5.132  10.416   0.588  1.4228 -0.2196  0.1135
  747MOL0     H 3064   5.299  10.573   0.571  0.4403 -1.8448  0.3546
  747MOL0     H 3065   5.157  10.630   0.476  1.7312  2.5496  2.6244
  747MOL0     H 3066   4.296   9.938   0.123  1.6333  0.5815  0.5201
  747MOL0     H 3067   4.101   9.768   0.180 -1.4465 -2.9784  0.6958
  747MOL0     H 3068   3.932   9.460   0.235  0.2508 -0.5968  0.2450
  747MOL0     H 3069   3.768   9.300   0.217  1.7832 -1.6787  0.5460
  747MOL0     H 3070   3.053   8.628   1.003  0.4653  0.2945  0.3575
  747MOL0     H 3071   2.851   8.522   0.952 -1.3142  1.0897  0.3349
  747MOL0     H 3072   2.486   8.285   1.204 -2.6893  0.0019  0.7949
  747MOL0     H 3073   2.273   8.194   1.204 -3.2837  1.6611  0.9665
  747MOL0     H 3074   2.025   8.186   1.206  1.3242 -0.8292 -0.9993
  747MOL0     H 3075   2.053   8.359   1.200 -2.9283  0.9878  0.5888
  747MOL0     H 3076   1.813   8.261   1.189  0.5653 -0.6244 -0.2375
  747MOL0     H 3077   1.840   8.251   1.010 -3.1148  1.8762 -0.0350
  747MOL0     H 3078   1.900   8.491   1.161  0.0314  0.3338  0.4248
  747MOL0     H 3079   1.886   8.471   0.984 -0.1943 -1.5133 -0.0542
  747MOL0     H 3080   1.696   8.594   1.099 -0.6209  0.4562 -2.3161
  747MOL0     H 3081   1.649   8.443   1.175  1.6828 -0.9400  0.0975
  747MOL0     H 3082   1.574   8.360   0.768  0.1565 -2.6088  1.8115
  747MOL0     H 3083   2.193   8.381   0.821 -1.2489  2.0733  1.5343
  747MOL0     H 3084   2.524   8.467   0.749  0.3927  0.1297 -0.2799
  747MOL0     H 3085   2.359   8.518   0.709 -0.1751  0.4135  0.6676
  747MOL0     H 3086   2.452   8.607   0.828  2.0985 -0.8086  1.2525
  748MOL0     O 3087   7.955   5.234   5.960  0.3136 -0.0474 -0.3055
  748MOL0     C 3088   7.909   5.192   5.854  0.0353  0.2577  1.0270
  748MOL0     O 3089   7.825   5.092   5.838 -0.6209 -0.1531 -0.3833
  748MOL0     C 3090   7.814   4.990   5.935 -0.7475 -0.4830 -0.4207
  748MOL0     C 3091   7.925   4.924   6.004  0.5567  0.0508 -0.5125
  748MOL0     C 3092   7.901   4.833   6.099  0.5164  0.1414 -0.4019
  748MOL0     C 3093   7.775   4.796   6.142  0.4658 -0.6227  0.3293
  748MOL0     O 3094   7.759   4.729   6.263  0.2958 -0.4959 -0.8594
  748MOL0     C 3095   7.622   4.693   6.306 -0.2375  0.0029 -0.1913
  748MOL0     C 3096   7.635   4.616   6.442 -0.6577 -0.1240 -0.3478
  748MOL0     C 3097   7.738   4.505   6.444 -0.3791 -0.0764  0.1834
  748MOL0     C 3098   7.747   4.460   6.593  0.1619 -0.3979  0.6604
  748MOL0     C 3099   7.626   4.364   6.637 -1.7933 -0.7111 -0.4753
  748MOL0     C 3100   7.639   4.310   6.774 -0.8604 -0.6370  0.5872
  748MOL0     C 3101   7.523   4.216   6.813  0.0928  0.8545 -0.2097
  748MOL0     C 3102   7.515   4.168   6.955 -0.7839 -0.1244 -0.9655
  748MOL0     N 3103   7.650   4.120   6.998  0.8037  0.1878 -0.3678
  748MOL0     C 3104   7.712   4.006   6.955  0.3317  0.0342 -0.0811
  748MOL0     C 3105   7.835   4.022   7.006  0.2071  0.2168 -1.1908
  748MOL0     C 3106   7.943   3.921   6.986  0.4488  0.4572 -0.0453
  748MOL0     C 3107   8.080   3.983   6.997 -0.0912 -0.2520 -1.1116
  748MOL0     C 3108   8.201   3.890   6.971  0.2464  0.2842  0.1833
  748MOL0     C 3109   8.216   3.777   7.074  0.3926 -0.6014  0.1834
  748MOL0     O 3110   8.289   3.846   7.181  0.0864 -0.1022 -0.5053
  748MOL0     C 3111   8.387   3.774   7.237 -0.0047 -0.5122  0.7579
  748MOL0     C 3112   8.400   3.637   7.247 -0.3349  0.3704 -0.5201
  748MOL0     C 3113   8.525   3.574   7.283 -0.2973 -0.8909  0.6812
  748MOL0     C 3114   8.529   3.421   7.254  0.5844 -0.3212 -0.1354
  748MOL0     C 3115   8.633   3.657   7.319 -1.3349 -0.7632 -0.5093
  748MOL0     C 3116   8.771   3.607   7.368 -0.2254 -0.4833 -0.1096
  748MOL0     O 3117   8.866   3.701   7.402 -0.8841 -0.1167  0.2242
  748MOL0     C 3118   8.988   3.658   7.449  0.2315 -0.0492  0.5713
  748MOL0     C 3119   9.020   3.673   7.583  0.3840  0.2809  0.4133
  748MOL0     C 3120   9.146   3.637   7.642 -0.2372  0.6901  0.4955
  748MOL0     C 3121   9.244   3.583   7.558 -0.5242  1.3717 -0.2452
  748MOL0     O 3122   9.379   3.573   7.600 -0.0149 -0.1297  0.5931
  748MOL0     C 3123   9.415   3.583   7.736  0.5245  0.6822  0.2805
  748MOL0     C 3124   9.553   3.530   7.720  0.0614  0.4288  0.2543
  748MOL0     C 3125   9.629   3.525   7.844 -0.1628  0.0477 -0.1570
  748MOL0     C 3126   9.784   3.502   7.825 -0.7238  0.3193 -0.5328
  748MOL0     C 3127   9.847   3.529   7.967  0.3212 -0.4984 -0.7009
  748MOL0     C 3128   9.998   3.507   7.981  0.0530 -0.7002  0.7051
  748MOL0     C 3129  10.027   3.465   8.117  0.2046 -0.0402 -0.1859
  748MOL0     C 3130  10.164   3.491   8.172  0.1391 -0.5255 -0.4313
  748MOL0    Cl 3131  10.200   3.653   8.201 -0.3491 -0.4945  0.0972
  748MOL0     C 3132   9.212   3.554   7.426 -0.1370  0.3810  0.4851
  748MOL0     C 3133   9.090   3.595   7.366 -0.0520 -0.0755  0.8619
  748MOL0     O 3134   8.785   3.485   7.366  0.2078 -0.8594 -0.3663
  748MOL0     C 3135   8.614   3.801   7.314 -0.2184 -0.2172 -0.1641
  748MOL0     C 3136   8.493   3.858   7.263 -0.9366 -0.0866 -0.0048
  748MOL0     N 3137   7.846   4.146   7.073  0.4466  0.0467  0.0816
  748MOL0     N 3138   7.728   4.200   7.070 -0.5414 -0.2526 -0.5588
  748MOL0     C 3139   7.670   4.860   6.074  0.6943  0.0689 -0.4274
  748MOL0     C 3140   7.687   4.950   5.974  0.1059 -0.3284  0.7955
  748MOL0     C 3141   7.939   5.264   5.729 -0.7428 -0.5432  0.5060
  748MOL0     C 3142   7.845   5.286   5.623  0.2061 -1.1149 -0.3663
  748MOL0     C 3143   7.875   5.359   5.505 -0.7968 -0.0060 -0.1506
  748MOL0     C 3144   8.004   5.411   5.489  0.1610  1.0750  0.7735
  748MOL0     O 3145   8.056   5.485   5.382  0.6780 -0.0888 -0.0410
  748MOL0     C 3146   7.973   5.500   5.266 -0.4128  0.6106  0.0103
  748MOL0     C 3147   8.037   5.591   5.166  0.1833 -0.1530 -0.0839
  748MOL0     C 3148   8.083   5.719   5.233 -0.1242  0.5261 -0.3198
  748MOL0     C 3149   8.141   5.808   5.125  1.1695  0.0531 -0.0142
  748MOL0     C 3150   8.277   5.762   5.081 -0.1927  0.3007 -0.3603
  748MOL0     C 3151   8.384   5.719   5.051 -0.3436  0.0512 -0.5978
  748MOL0     C 3152   8.098   5.382   5.591  0.1952 -0.8172  0.2890
  748MOL0     C 3153   8.071   5.316   5.707  0.1353 -0.0350 -0.0551
  748MOL0     C 3154   8.187   5.306   5.802  0.0561  0.5492  0.5126
  748MOL0     H 3155   8.027   4.953   5.980  0.9385 -0.7295  0.1139
  748MOL0     H 3156   7.984   4.798   6.159  1.8972  2.7809 -0.6510
  748MOL0     H 3157   7.576   4.627   6.232  1.3946 -0.6061 -0.7111
  748MOL0     H 3158   7.563   4.785   6.322 -0.3659 -0.2935  1.1143
  748MOL0     H 3159   7.655   4.697   6.514 -1.2950 -1.1302  1.0120
  748MOL0     H 3160   7.542   4.564   6.467  0.2043 -0.4615  2.4562
  748MOL0     H 3161   7.724   4.422   6.374 -0.1557  0.2006 -0.1923
  748MOL0     H 3162   7.837   4.537   6.411  0.5345 -2.4669  0.3995
  748MOL0     H 3163   7.842   4.406   6.600 -0.3912 -1.8099 -1.6543
  748MOL0     H 3164   7.768   4.540   6.665  2.2456 -1.1726  0.9906
  748MOL0     H 3165   7.603   4.287   6.562 -0.8867 -1.9469  0.4633
  748MOL0     H 3166   7.536   4.426   6.634  0.1611  2.2679 -1.5808
  748MOL0     H 3167   7.737   4.264   6.789 -0.8049 -0.8102 -0.2537
  748MOL0     H 3168   7.649   4.401   6.835  0.1347 -0.4238  0.1352
  748MOL0     H 3169   7.516   4.135   6.739 -3.2833  0.8245 -0.0200
  748MOL0     H 3170   7.438   4.275   6.777  0.1492 -0.6137 -3.1104
  748MOL0     H 3171   7.495   4.257   7.015 -3.0550 -0.6877 -0.7957
  748MOL0     H 3172   7.442   4.090   6.979  0.3081 -1.1781 -0.9752
  748MOL0     H 3173   7.669   3.924   6.899  0.4078 -1.5718  2.1050
  748MOL0     H 3174   7.933   3.871   6.890 -0.9258  0.4270  0.0892
  748MOL0     H 3175   7.924   3.840   7.057  1.5670  1.4687  1.4778
  748MOL0     H 3176   8.085   4.063   6.923 -0.8717  0.7689 -0.0888
  748MOL0     H 3177   8.092   4.023   7.098 -0.0236 -1.6376 -0.5470
  748MOL0     H 3178   8.195   3.847   6.871  0.7889  1.2690 -0.2829
  748MOL0     H 3179   8.292   3.950   6.965  1.3536 -1.3710 -0.6028
  748MOL0     H 3180   8.121   3.733   7.104 -0.6566  0.6811 -1.1346
  748MOL0     H 3181   8.272   3.692   7.033 -0.5743 -2.2575  2.0834
  748MOL0     H 3182   8.316   3.577   7.212  0.5029 -2.7765  2.3074
  748MOL0     H 3183   8.519   3.362   7.346 -1.0575  0.5614  0.2874
  748MOL0     H 3184   8.615   3.394   7.192  2.0778 -2.3794  2.5856
  748MOL0     H 3185   8.442   3.383   7.200  0.6598 -2.1310  0.9180
  748MOL0     H 3186   8.940   3.714   7.644  0.9950  0.0459  1.3842
  748MOL0     H 3187   9.170   3.658   7.745  0.2080 -0.8603  0.7462
  748MOL0     H 3188   9.408   3.687   7.767  0.2784  0.6734  0.2549
  748MOL0     H 3189   9.340   3.536   7.801 -1.0917  0.7185 -1.4758
  748MOL0     H 3190   9.543   3.427   7.686 -3.3424  1.3755 -2.2809
  748MOL0     H 3191   9.605   3.586   7.642 -1.0183  1.0588 -0.0471
  748MOL0     H 3192   9.594   3.451   7.916  1.7349 -1.2145 -0.4600
  748MOL0     H 3193   9.614   3.628   7.879 -0.2653  0.4929 -1.4871
  748MOL0     H 3194   9.815   3.585   7.760 -2.8159  1.5984 -0.0070
  748MOL0     H 3195   9.819   3.404   7.791  1.7206 -0.0139  2.5564
  748MOL0     H 3196   9.831   3.631   8.002 -2.2872 -1.2474  0.5462
  748MOL0     H 3197   9.795   3.464   8.039  0.6531  1.1296  1.0919
  748MOL0     H 3198  10.050   3.597   7.948 -1.2032 -0.5112 -0.8675
  748MOL0     H 3199  10.030   3.425   7.916  1.7470  0.6978 -0.3172
  748MOL0     H 3200  10.021   3.356   8.113  0.6098 -0.2080  2.3282
  748MOL0     H 3201   9.949   3.502   8.184  1.0164  0.5934  0.4452
  748MOL0     H 3202  10.232   3.450   8.096 -1.0458 -0.0680 -1.7726
  748MOL0     H 3203  10.189   3.426   8.256  0.9344  0.9930  0.5506
  748MOL0     H 3204   9.290   3.509   7.365  0.2383  1.1553  0.3782
  748MOL0     H 3205   9.073   3.581   7.259 -1.6055 -2.4482  1.3398
  748MOL0     H 3206   8.702   3.860   7.336  0.4292  0.7585 -4.4505
  748MOL0     H 3207   8.494   3.966   7.252 -1.7084  0.6853  5.0788
  748MOL0     H 3208   7.569   4.852   6.114  0.9326 -0.3912  0.0956
  748MOL0     H 3209   7.593   4.988   5.935  0.9450  2.3664  1.1812
  748MOL0     H 3210   7.741   5.270   5.650  0.1029 -0.5341 -0.4186
  748MOL0     H 3211   7.794   5.378   5.435 -0.4727 -1.0616 -0.8391
  748MOL0     H 3212   7.966   5.398   5.227  1.2169  0.0450  1.1063
  748MOL0     H 3213   7.875   5.535   5.301 -1.2232 -1.2173 -0.2674
  748MOL0     H 3214   7.967   5.611   5.084 -0.1792 -1.1819 -0.0397
  748MOL0     H 3215   8.126   5.542   5.127  1.0780  0.9728  0.4595
  748MOL0     H 3216   8.000   5.774   5.280 -0.2745  1.3546 -1.4934
  748MOL0     H 3217   8.156   5.698   5.311 -0.9733  0.6245  0.5292
  748MOL0     H 3218   8.132   5.912   5.159 -0.2447 -0.1907  0.4033
  748MOL0     H 3219   8.086   5.817   5.031  1.2789  1.5178  0.0277
  748MOL0     H 3220   8.475   5.677   5.014 -0.4508  1.3132 -2.4123
  748MOL0     H 3221   8.197   5.423   5.577 -0.7169  0.9171 -1.5732
  748MOL0     H 3222   8.264   5.376   5.768  1.3791 -1.3468 -0.5826
  748MOL0     H 3223   8.172   5.312   5.911 -0.9157 -1.8662  0.5802
  748MOL0     H 3224   8.239   5.210   5.794 -0.6138  0.0012  2.2397
  749MOL0     O 3225   2.982   1.595   2.819 -0.5768  0.0521  0.0418
  749MOL0     C 3226   2.953   1.478   2.825 -0.1585  0.3388 -0.5643
  749MOL0     O 3227   3.049   1.378   2.841 -0.3592 -0.2428  0.2566
  749MOL0     C 3228   3.176   1.418   2.869  0.8214 -0.2562 -0.7526
  749MOL0     C 3229   3.222   1.387   2.995  0.1377 -0.2034 -0.3667
  749MOL0     C 3230   3.355   1.414   3.028  0.3455  0.3827 -0.4082
  749MOL0     C 3231   3.447   1.480   2.939  0.3803  0.1642  0.2644
  749MOL0     O 3232   3.576   1.515   2.975 -0.0559  0.1870 -0.3710
  749MOL0     C 3233   3.656   1.407   3.014 -0.1618 -0.8420 -0.4473
  749MOL0     C 3234   3.709   1.434   3.144  0.4089 -1.2580 -1.4425
  749MOL0     C 3235   3.809   1.330   3.195  0.6429 -0.8107  0.7635
  749MOL0     C 3236   3.811   1.344   3.346 -0.1974 -0.6216 -0.0972
  749MOL0     C 3237   3.917   1.256   3.409  0.1238  0.0892 -0.1171
  749MOL0     C 3238   3.916   1.276   3.558  0.3954 -0.6017  0.2411
  749MOL0     C 3239   3.781   1.255   3.626 -0.7596 -0.3853  0.2569
  749MOL0     C 3240   3.802   1.257   3.781 -0.4035  0.0042  0.7032
  749MOL0     N 3241   3.676   1.229   3.839  0.3599 -0.6224 -0.5925
  749MOL0     C 3242   3.674   1.197   3.974  0.5810  0.1485 -0.5955
  749MOL0     C 3243   3.545   1.160   3.993 -0.1406  0.1424  0.5920
  749MOL0     C 3244   3.504   1.116   4.132  0.5557 -0.2047  1.0745
  749MOL0     C 3245   3.349   1.096   4.128  0.4485  0.2617  0.2022
  749MOL0     C 3246   3.294   1.098   4.276  0.2551 -0.5382  0.9902
  749MOL0     C 3247   3.141   1.074   4.273  0.4346 -0.0249 -0.8971
  749MOL0     O 3248   3.073   1.087   4.410 -0.4165 -0.4863  0.5581
  749MOL0     C 3249   2.933   1.085   4.415  0.3274 -0.1989  0.0379
  749MOL0     C 3250   2.874   1.084   4.543 -0.5691  0.1458 -1.2666
  749MOL0     C 3251   2.738   1.065   4.556  0.5470  0.9140  0.3552
  749MOL0     C 3252   2.691   1.075   4.691  0.9167 -0.1186 -0.3448
  749MOL0     C 3253   2.653   1.052   4.438  0.0657 -0.0326 -0.4586
  749MOL0     C 3254   2.505   1.064   4.455 -1.2100  0.0958  0.0954
  749MOL0     O 3255   2.436   1.051   4.343 -0.1408 -0.1295 -0.0605
  749MOL0     C 3256   2.302   1.081   4.351 -0.7860  0.3483 -0.7969
  749MOL0     C 3257   2.209   0.999   4.416 -0.0637 -0.0114  0.5226
  749MOL0     C 3258   2.075   1.028   4.411  0.7311  1.1953  0.1838
  749MOL0     C 3259   2.031   1.150   4.355 -1.1712 -0.1906 -0.0318
  749MOL0     O 3260   1.903   1.186   4.353  0.0693 -0.0301 -0.7494
  749MOL0     C 3261   1.866   1.313   4.409  1.3919  0.0215  0.7204
  749MOL0     C 3262   1.720   1.303   4.474 -0.1569  0.0199  1.3097
  749MOL0     C 3263   1.619   1.341   4.368  0.3046  0.4628 -0.6653
  749MOL0     C 3264   1.462   1.319   4.402 -0.8109  0.4148 -0.3063
  749MOL0     C 3265   1.417   1.388   4.532 -0.3713 -0.1131  0.7310
  749MOL0     C 3266   1.266   1.409   4.540 -0.5303  0.3504 -1.1177
  749MOL0     C 3267   1.191   1.281   4.549 -0.4207  1.3094  0.9638
  749MOL0     C 3268   1.037   1.302   4.561  0.3891  1.0968 -0.3938
  749MOL0    Cl 3269   0.970   1.136   4.594 -0.2018 -0.1081 -0.1267
  749MOL0     C 3270   2.129   1.235   4.296 -0.5994 -0.0135  0.6661
  749MOL0     C 3271   2.259   1.200   4.298 -0.7764 -0.4275  0.1348
  749MOL0     O 3272   2.457   1.060   4.560  0.1955 -0.2319 -0.6811
  749MOL0     C 3273   2.715   1.047   4.312 -0.1596  0.3157 -0.0079
  749MOL0     C 3274   2.858   1.076   4.300  0.5152  0.2341  0.1343
  749MOL0     N 3275   3.477   1.154   3.871 -0.1080  0.0745  0.0672
  749MOL0     N 3276   3.561   1.190   3.779 -0.3650 -0.3736 -0.3629
  749MOL0     C 3277   3.396   1.521   2.815  0.1807 -0.8166  0.1413
  749MOL0     C 3278   3.259   1.488   2.785  0.9281  0.3538 -0.4765
  749MOL0     C 3279   2.812   1.442   2.811 -0.0844  0.2740 -0.7393
  749MOL0     C 3280   2.716   1.549   2.798  0.0953 -0.6018  0.2577
  749MOL0     C 3281   2.583   1.521   2.789  1.0796 -0.1937  0.8700
  749MOL0     C 3282   2.532   1.390   2.774 -0.1223 -0.7785 -0.7018
  749MOL0     O 3283   2.395   1.388   2.755 -0.7186  0.1761  0.2080
  749MOL0     C 3284   2.333   1.261   2.726 -0.2374 -0.1859  0.6850
  749MOL0     C 3285   2.350   1.228   2.578  0.0141  0.0347 -0.3864
  749MOL0     C 3286   2.283   1.329   2.493 -0.3171 -1.2132 -0.0926
  749MOL0     C 3287   2.272   1.296   2.349 -0.0684 -0.5088 -0.5280
  749MOL0     C 3288   2.398   1.297   2.274 -0.3414  0.4133  0.4597
  749MOL0     C 3289   2.500   1.273   2.217  0.3929 -0.1926 -0.3564
  749MOL0     C 3290   2.620   1.286   2.790 -0.5886 -0.1043 -0.5479
  749MOL0     C 3291   2.759   1.307   2.806  0.4466  0.9858 -0.4633
  749MOL0     C 3292   2.847   1.182   2.817 -1.3946  0.1194  0.0963
  749MOL0     H 3293   3.149   1.360   3.072 -0.3811  2.2961  0.0927
  749MOL0     H 3294   3.395   1.395   3.127  1.5444 -2.5370 -1.3541
  749MOL0     H 3295   3.744   1.411   2.949 -0.0557  2.3020 -0.2611
  749MOL0     H 3296   3.602   1.312   3.014 -2.8355  0.5841 -1.5933
  749MOL0     H 3297   3.749   1.535   3.150 -2.1770 -0.1937 -0.7567
  749MOL0     H 3298   3.617   1.437   3.204 -0.0117  0.9736 -2.1246
  749MOL0     H 3299   3.772   1.233   3.161 -0.3158  0.1374 -1.0795
  749MOL0     H 3300   3.909   1.336   3.150 -0.3705 -2.8274 -2.0800
  749MOL0     H 3301   3.825   1.442   3.392 -1.0511 -0.5244 -0.0191
  749MOL0     H 3302   3.713   1.312   3.381 -0.9444  0.2073 -1.3226
  749MOL0     H 3303   4.019   1.285   3.381 -0.2312  0.8571 -0.6803
  749MOL0     H 3304   3.900   1.150   3.389  1.1060 -0.0411 -0.3255
  749MOL0     H 3305   3.985   1.200   3.597  1.6563 -0.1523 -1.0173
  749MOL0     H 3306   3.951   1.374   3.593 -1.8413 -0.1107  1.2765
  749MOL0     H 3307   3.738   1.161   3.591 -0.9224  0.5260 -2.2020
  749MOL0     H 3308   3.720   1.343   3.604 -2.9248 -1.2141  2.3832
  749MOL0     H 3309   3.882   1.193   3.816 -0.2323  0.3589  0.9710
  749MOL0     H 3310   3.834   1.355   3.818  1.3221 -0.3389  0.1799
  749MOL0     H 3311   3.748   1.200   4.053 -0.1980 -1.5161  0.2533
  749MOL0     H 3312   3.533   1.200   4.197 -0.9587  1.8616 -0.7760
  749MOL0     H 3313   3.556   1.030   4.175 -3.3663 -1.2069  4.5488
  749MOL0     H 3314   3.310   1.178   4.067  2.9201  1.0886 -0.3917
  749MOL0     H 3315   3.337   1.002   4.075 -1.0269  1.3978 -1.5851
  749MOL0     H 3316   3.339   1.016   4.332 -0.0891 -0.3013  1.6222
  749MOL0     H 3317   3.320   1.195   4.319  3.8536 -1.1981  0.5450
  749MOL0     H 3318   3.103   1.143   4.196  0.7907 -0.2926 -1.3143
  749MOL0     H 3319   3.113   0.974   4.239 -1.3060  0.2265 -0.3052
  749MOL0     H 3320   2.934   1.082   4.634 -1.5340 -0.4783 -0.6171
  749MOL0     H 3321   2.763   1.104   4.769 -0.8617  0.5754  1.1088
  749MOL0     H 3322   2.654   0.977   4.724  2.6293 -0.6395  0.1402
  749MOL0     H 3323   2.618   1.154   4.709  1.1279 -0.1159  0.5763
  749MOL0     H 3324   2.235   0.909   4.472  2.8124  0.7762  0.5972
  749MOL0     H 3325   2.010   0.958   4.463  0.8300  2.0828  1.5485
  749MOL0     H 3326   1.936   1.334   4.490  0.3447  1.8900  1.1907
  749MOL0     H 3327   1.862   1.394   4.336 -2.7204 -2.0624 -1.7566
  749MOL0     H 3328   1.693   1.210   4.525 -1.3262 -0.7631 -0.6321
  749MOL0     H 3329   1.717   1.384   4.547 -0.2727 -0.5881  1.9912
  749MOL0     H 3330   1.643   1.291   4.273 -0.6878 -0.2118 -0.5672
  749MOL0     H 3331   1.622   1.448   4.347  0.1273  0.5679 -0.1684
  749MOL0     H 3332   1.437   1.213   4.406 -1.5281  0.6040  0.3654
  749MOL0     H 3333   1.399   1.354   4.319 -2.6983 -0.1511  0.8185
  749MOL0     H 3334   1.436   1.322   4.617 -4.9700  0.5388  2.5567
  749MOL0     H 3335   1.468   1.484   4.546 -1.6730  0.5903  0.7654
  749MOL0     H 3336   1.241   1.460   4.446  1.2819  2.0539 -0.7570
  749MOL0     H 3337   1.236   1.465   4.629  0.5443 -0.7443 -0.0393
  749MOL0     H 3338   1.232   1.220   4.630  0.6932 -2.0794 -1.8927
  749MOL0     H 3339   1.215   1.223   4.459 -0.8780  0.4075  1.4019
  749MOL0     H 3340   0.994   1.333   4.465  1.4492 -1.3593 -1.7514
  749MOL0     H 3341   1.014   1.377   4.636 -1.5438  0.5494 -0.3649
  749MOL0     H 3342   2.101   1.333   4.259 -0.2730 -0.7347 -1.6811
  749MOL0     H 3343   2.330   1.265   4.247 -0.9447 -1.5097 -1.5750
  749MOL0     H 3344   2.645   1.034   4.231  2.1585  1.0787 -2.2774
  749MOL0     H 3345   2.899   1.092   4.201  0.9922  2.0170  0.5849
  749MOL0     H 3346   3.449   1.592   2.753  2.1042 -0.8128  1.6870
  749MOL0     H 3347   3.212   1.530   2.697 -1.6020  1.0434  1.0930
  749MOL0     H 3348   2.754   1.651   2.803  1.9574 -1.3027  3.3643
  749MOL0     H 3349   2.508   1.599   2.798  1.0187 -0.3796  2.2063
  749MOL0     H 3350   2.369   1.180   2.790  1.4829 -2.4785 -2.8457
  749MOL0     H 3351   2.224   1.268   2.734 -0.2898  3.9441 -0.9720
  749MOL0     H 3352   2.295   1.136   2.558  1.4638 -1.0574  0.4926
  749MOL0     H 3353   2.455   1.221   2.551 -0.1355 -0.6233 -0.8355
  749MOL0     H 3354   2.185   1.358   2.533  0.7713 -1.0176  2.6515
  749MOL0     H 3355   2.342   1.421   2.500 -0.9646 -0.5747 -2.1204
  749MOL0     H 3356   2.214   1.375   2.301  2.0687  0.1528 -2.2144
  749MOL0     H 3357   2.225   1.198   2.341 -1.7227  0.3183 -1.4976
  749MOL0     H 3358   2.589   1.239   2.167 -1.6400 -2.8536 -2.5341
  749MOL0     H 3359   2.586   1.183   2.794 -0.1243 -0.3079 -1.6048
  749MOL0     H 3360   2.907   1.181   2.909  2.2292  1.3307 -2.0514
  749MOL0     H 3361   2.784   1.092   2.812 -2.2701  0.6734  0.8574
  749MOL0     H 3362   2.915   1.174   2.732 -0.7123  2.1097  0.4169
  750MOL0     O 3363   1.561   3.035   8.399 -0.1180  0.1545 -0.4811
  750MOL0     C 3364   1.477   3.112   8.434  0.3563  0.8041  0.4281
  750MOL0     O 3365   1.499   3.244   8.434  0.4257 -0.6487 -0.6690
  750MOL0     C 3366   1.624   3.293   8.404 -0.0113  0.1458 -0.3496
  750MOL0     C 3367   1.710   3.334   8.504  0.1948  0.6144 -0.6188
  750MOL0     C 3368   1.842   3.362   8.476  0.1611  1.5106 -0.2189
  750MOL0     C 3369   1.890   3.362   8.347 -0.0608 -0.2803 -0.0043
  750MOL0     O 3370   2.024   3.400   8.338  0.7661 -0.5241 -0.6085
  750MOL0     C 3371   2.106   3.347   8.227 -0.3220  0.2177 -0.0037
  750MOL0     C 3372   2.249   3.354   8.280  0.4141 -1.0804 -0.4318
  750MOL0     C 3373   2.347   3.310   8.166  0.6971 -0.0862  0.8006
  750MOL0     C 3374   2.495   3.342   8.217  0.6929 -0.1885 -0.4114
  750MOL0     C 3375   2.601   3.318   8.119  0.0112  0.7854  0.2101
  750MOL0     C 3376   2.747   3.344   8.154  0.0653 -0.2265 -0.3583
  750MOL0     C 3377   2.767   3.492   8.195 -0.4400 -0.3653 -0.0937
  750MOL0     C 3378   2.903   3.531   8.246  0.7835  0.0854 -0.0652
  750MOL0     N 3379   2.950   3.461   8.362 -0.0984 -0.1508  0.9493
  750MOL0     C 3380   2.877   3.401   8.468 -0.4199  0.2421  0.2904
  750MOL0     C 3381   2.974   3.368   8.561 -0.0955 -1.0689 -0.0651
  750MOL0     C 3382   2.952   3.306   8.701 -0.5468 -0.5328  0.9479
  750MOL0     C 3383   2.945   3.159   8.704  0.3535  0.1324  0.5020
  750MOL0     C 3384   2.896   3.113   8.835  0.0115 -1.0471  0.0749
  750MOL0     C 3385   2.898   2.959   8.852 -0.8359 -0.4029  0.7071
  750MOL0     O 3386   3.002   2.886   8.795  0.0434  0.0121  0.1480
  750MOL0     C 3387   3.123   2.893   8.856 -0.0966  0.0793 -0.3629
  750MOL0     C 3388   3.241   2.892   8.776  0.0763 -0.2763  0.4114
  750MOL0     C 3389   3.368   2.884   8.832  0.7011 -0.2875 -0.4796
  750MOL0     C 3390   3.475   2.872   8.727  0.6692  0.2270 -0.6372
  750MOL0     C 3391   3.384   2.880   8.972 -0.0145 -0.8111  0.3124
  750MOL0     C 3392   3.514   2.861   9.039 -0.8793  0.7104  1.0101
  750MOL0     O 3393   3.527   2.912   9.162 -0.6537  0.5500 -0.3196
  750MOL0     C 3394   3.663   2.920   9.205 -0.4047 -0.3893  0.4439
  750MOL0     C 3395   3.699   2.866   9.327  0.2472  0.0059  0.1049
  750MOL0     C 3396   3.832   2.863   9.374 -0.1625 -0.3714  0.4992
  750MOL0     C 3397   3.933   2.932   9.296 -0.4563  0.6265 -0.8136
  750MOL0     O 3398   4.058   2.930   9.348 -1.0608 -0.0686 -0.4373
  750MOL0     C 3399   4.082   3.027   9.455 -0.0367 -0.3690  0.3929
  750MOL0     C 3400   4.208   3.109   9.449  0.5803  0.9676 -0.3209
  750MOL0     C 3401   4.217   3.195   9.320  0.1532  0.6584  0.2282
  750MOL0     C 3402   4.331   3.294   9.317  0.2305  0.5371  1.0935
  750MOL0     C 3403   4.314   3.388   9.193 -0.9378  0.4099 -0.7513
  750MOL0     C 3404   4.317   3.322   9.042  0.6595 -0.5434  1.1868
  750MOL0     C 3405   4.452   3.263   9.006  0.3994  0.1459  0.6307
  750MOL0     C 3406   4.441   3.169   8.880 -0.5864  0.5965  0.6201
  750MOL0    Cl 3407   4.368   3.243   8.731 -0.2590  0.1428 -0.1920
  750MOL0     C 3408   3.897   2.983   9.176 -1.0084  0.8120  0.0087
  750MOL0     C 3409   3.766   2.982   9.135 -0.7257 -0.4610  0.7698
  750MOL0     O 3410   3.600   2.803   8.975 -0.3008  0.2061  0.1956
  750MOL0     C 3411   3.270   2.885   9.052  0.0561 -0.1758 -0.6132
  750MOL0     C 3412   3.138   2.893   8.996 -0.1459  0.1187  1.1610
  750MOL0     N 3413   3.099   3.422   8.515 -0.5345  0.4546 -0.1635
  750MOL0     N 3414   3.082   3.474   8.401 -0.0175 -0.3997  0.4234
  750MOL0     C 3415   1.802   3.317   8.256  0.5427  0.7762 -0.4943
  750MOL0     C 3416   1.677   3.270   8.280 -0.7411 -1.0395 -0.1781
  750MOL0     C 3417   1.337   3.061   8.466  0.0961  0.4564  0.1345
  750MOL0     C 3418   1.328   2.919   8.465 -0.2909 -0.1359  0.9937
  750MOL0     C 3419   1.205   2.864   8.495  0.1275  0.5559 -0.2206
  750MOL0     C 3420   1.098   2.938   8.541  0.7612  0.0006 -0.3288
  750MOL0     O 3421   0.984   2.867   8.584 -0.6867 -0.2312 -0.3777
  750MOL0     C 3422   0.897   2.933   8.675 -0.1505 -0.1397  0.0395
  750MOL0     C 3423   0.823   2.817   8.746  0.2727 -0.4490  0.5345
  750MOL0     C 3424   0.728   2.746   8.658  0.3475 -0.1388  0.8540
  750MOL0     C 3425   0.626   2.648   8.719 -1.2322 -0.8825 -0.3558
  750MOL0     C 3426   0.533   2.601   8.618  0.4873  0.6280 -0.3347
  750MOL0     C 3427   0.449   2.558   8.538 -0.3617 -0.8630 -0.4555
  750MOL0     C 3428   1.100   3.077   8.540 -0.4076 -0.5374  0.0812
  750MOL0     C 3429   1.222   3.136   8.495 -0.7714 -0.7062 -0.8775
  750MOL0     C 3430   1.225   3.288   8.473  0.6554 -0.4876 -0.3581
  750MOL0     H 3431   1.669   3.331   8.604  0.1482  0.0236 -0.6484
  750MOL0     H 3432   1.909   3.385   8.559  0.6320  1.8558 -0.6918
  750MOL0     H 3433   2.098   3.409   8.138  1.9115 -0.2521 -0.5999
  750MOL0     H 3434   2.079   3.244   8.201 -1.8344 -0.3243  3.1256
  750MOL0     H 3435   2.277   3.455   8.312  1.9331 -1.9391  1.1640
  750MOL0     H 3436   2.258   3.290   8.368 -0.2848 -1.6874 -0.7942
  750MOL0     H 3437   2.337   3.203   8.147 -2.7653 -0.2654  2.7550
  750MOL0     H 3438   2.323   3.368   8.076  0.5910  0.8065  1.3844
  750MOL0     H 3439   2.499   3.448   8.241 -1.5618  0.1004 -1.1335
  750MOL0     H 3440   2.522   3.281   8.305  0.5530  0.5053  0.1182
  750MOL0     H 3441   2.580   3.393   8.042  0.7706  1.0517  0.2483
  750MOL0     H 3442   2.589   3.218   8.079 -2.9715  1.0974  0.1280
  750MOL0     H 3443   2.766   3.277   8.239 -1.3490  0.8292  0.8558
  750MOL0     H 3444   2.808   3.322   8.066  0.3530  2.7127 -0.9946
  750MOL0     H 3445   2.688   3.516   8.267  0.4916 -2.5718  1.7854
  750MOL0     H 3446   2.748   3.556   8.108  1.6621  1.1471  0.4796
  750MOL0     H 3447   2.984   3.531   8.172  0.2583 -2.9969 -0.7790
  750MOL0     H 3448   2.889   3.634   8.278 -3.5076 -0.4287  0.1885
  750MOL0     H 3449   2.780   3.353   8.469  0.5133 -1.8034 -0.7424
  750MOL0     H 3450   2.863   3.354   8.744 -0.9610  0.6703 -1.1270
  750MOL0     H 3451   3.042   3.333   8.757  0.8200 -0.1645 -1.2922
  750MOL0     H 3452   2.867   3.122   8.637  0.2542 -1.8690  1.6331
  750MOL0     H 3453   3.043   3.123   8.671  0.5885  1.9823 -0.9884
  750MOL0     H 3454   2.958   3.164   8.909  0.7167  2.4279 -2.6495
  750MOL0     H 3455   2.792   3.149   8.834 -0.5007 -2.4734 -0.2228
  750MOL0     H 3456   2.878   2.938   8.958 -2.8548 -0.5313  0.3418
  750MOL0     H 3457   2.804   2.927   8.808 -1.0564 -0.0378  0.9044
  750MOL0     H 3458   3.231   2.895   8.668  2.1204  1.8047  0.2055
  750MOL0     H 3459   3.559   2.937   8.751  2.6167 -2.0219 -1.0919
  750MOL0     H 3460   3.448   2.896   8.624 -0.4216 -3.6795 -1.4122
  750MOL0     H 3461   3.491   2.764   8.723 -3.1253 -0.4965 -0.7453
  750MOL0     H 3462   3.634   2.810   9.394  0.2642  1.6674  1.5782
  750MOL0     H 3463   3.852   2.828   9.475 -0.1832 -1.1510  0.2359
  750MOL0     H 3464   4.002   3.101   9.452 -0.1960 -0.4179  2.1477
  750MOL0     H 3465   4.076   2.975   9.551 -3.1723 -0.1948  0.3825
  750MOL0     H 3466   4.215   3.183   9.529 -1.6229  1.9465 -0.9674
  750MOL0     H 3467   4.295   3.043   9.459  1.0011  1.7564  1.9462
  750MOL0     H 3468   4.121   3.245   9.308 -0.1646  0.1200  0.4812
  750MOL0     H 3469   4.217   3.127   9.234 -1.3741 -1.2482  1.6250
  750MOL0     H 3470   4.434   3.255   9.312  0.1696  0.1387  2.5078
  750MOL0     H 3471   4.345   3.344   9.413  1.3705 -1.0454  1.8021
  750MOL0     H 3472   4.216   3.435   9.205 -0.6693  0.5058  1.3459
  750MOL0     H 3473   4.393   3.464   9.195  2.5293 -2.9130  1.5366
  750MOL0     H 3474   4.288   3.403   8.974  0.8377 -0.3165  1.3807
  750MOL0     H 3475   4.253   3.236   9.021 -0.7885  0.9995 -1.1732
  750MOL0     H 3476   4.491   3.194   9.082  2.4840 -0.9717 -1.3444
  750MOL0     H 3477   4.524   3.344   8.994 -1.1436  1.2002 -2.3307
  750MOL0     H 3478   4.386   3.076   8.897  1.4641 -0.4167  2.2704
  750MOL0     H 3479   4.549   3.149   8.878 -0.2485  2.3024 -0.8322
  750MOL0     H 3480   3.974   3.021   9.110 -1.7845  0.7642 -0.9349
  750MOL0     H 3481   3.751   3.023   9.035  0.3472 -2.2207 -0.1814
  750MOL0     H 3482   3.285   2.890   9.160 -1.6910  2.1201 -0.4105
  750MOL0     H 3483   3.058   2.888   9.069  1.0239  2.2497  2.6759
  750MOL0     H 3484   1.837   3.324   8.154  0.7489  1.8755 -0.3634
  750MOL0     H 3485   1.597   3.258   8.208 -1.6465  2.7325 -0.0323
  750MOL0     H 3486   1.414   2.857   8.444  0.8896  0.8100  2.7757
  750MOL0     H 3487   1.203   2.758   8.473 -1.4691  0.6552 -0.7004
  750MOL0     H 3488   0.957   2.997   8.740 -0.9902  1.3711 -0.6174
  750MOL0     H 3489   0.828   2.992   8.614  0.2723 -0.7860 -1.0963
  750MOL0     H 3490   0.775   2.853   8.838  1.6631  1.5046  0.5675
  750MOL0     H 3491   0.891   2.743   8.789 -0.7175  0.1934  3.5086
  750MOL0     H 3492   0.675   2.826   8.605  3.0175 -0.2553 -2.3216
  750MOL0     H 3493   0.778   2.688   8.580  2.1582  1.9286  0.3966
  750MOL0     H 3494   0.566   2.691   8.799 -1.2485 -1.3482 -0.1146
  750MOL0     H 3495   0.683   2.563   8.758 -0.4415 -0.6978 -1.0837
  750MOL0     H 3496   0.366   2.532   8.475  0.0059 -3.5204  0.0343
  750MOL0     H 3497   1.015   3.142   8.558  0.9344  1.4709 -0.4936
  750MOL0     H 3498   1.131   3.336   8.500 -0.1824 -0.1869 -3.4587
  750MOL0     H 3499   1.296   3.339   8.540 -1.6357  2.0414  0.3402
  750MOL0     H 3500   1.250   3.322   8.372 -0.2537  1.5204  0.0600
  751MOL0     O 3501   8.445  10.633  10.714 -0.1738  0.0877 -0.1971
  751MOL0     C 3502   8.413  10.737  10.671 -0.0167 -0.4823  0.3044
  751MOL0     O 3503   8.506  10.836  10.641  0.2073  0.0054  0.0163
  751MOL0     C 3504   8.640  10.812  10.652  0.4072  0.8417  0.8758
  751MOL0     C 3505   8.698  10.703  10.581 -0.2463  0.2678 -0.1840
  751MOL0     C 3506   8.840  10.691  10.595 -0.3668 -0.3926 -0.5496
  751MOL0     C 3507   8.924  10.781  10.659 -0.3703 -0.0637 -0.8406
  751MOL0     O 3508   9.057  10.762  10.664 -0.6758  1.0492  0.3725
  751MOL0     C 3509   9.140  10.848  10.740  0.1077 -1.1371 -0.2954
  751MOL0     C 3510   9.273  10.842  10.673  0.1508  0.8758 -0.6935
  751MOL0     C 3511   9.282  10.926  10.554 -0.1661 -0.1968  0.4357
  751MOL0     C 3512   9.437  10.931  10.519  0.1338  0.3267 -0.0962
  751MOL0     C 3513   9.459  10.988  10.383 -0.8918  0.6823  0.1722
  751MOL0     C 3514   9.445  11.140  10.387 -0.8208  0.3970  0.3445
  751MOL0     C 3515   9.473  11.209  10.261  0.2870  0.2918 -0.1098
  751MOL0     C 3516   9.610  11.175  10.200 -0.9401 -0.5869 -0.6927
  751MOL0     N 3517   9.723  11.218  10.276  0.2216  1.2536 -0.2751
  751MOL0     C 3518   9.766  11.347  10.285  0.2309 -0.1319 -0.2941
  751MOL0     C 3519   9.889  11.346  10.332 -0.4506 -0.1263 -0.4220
  751MOL0     C 3520   9.984  11.463  10.358 -0.2457  0.2544  1.1776
  751MOL0     C 3521   9.951  11.525  10.492 -0.2650 -0.0569 -0.0762
  751MOL0     C 3522   9.931  11.438  10.622  0.4736  0.5084  0.1678
  751MOL0     C 3523  10.051  11.353  10.665  0.2352  0.2804 -0.2006
  751MOL0     O 3524  10.160  11.451  10.674 -0.0747  0.3157  0.0618
  751MOL0     C 3525  10.271  11.403  10.737 -0.4612 -0.2531  0.9304
  751MOL0     C 3526  10.336  11.280  10.707  0.5507  0.1419 -0.8127
  751MOL0     C 3527  10.449  11.241  10.778 -0.1598 -0.7728 -0.2014
  751MOL0     C 3528  10.521  11.107  10.745  0.7474 -0.5638  1.1057
  751MOL0     C 3529  10.497  11.327  10.883 -0.0388  0.2264 -0.8407
  751MOL0     C 3530  10.613  11.299  10.963 -0.0390  0.3891  0.3551
  751MOL0     O 3531  10.706  11.395  10.955  1.1468 -0.6894  0.3703
  751MOL0     C 3532  10.806  11.386  11.048 -0.2302 -0.6045  0.5970
  751MOL0     C 3533  10.910  11.296  11.030  0.8596  0.2319  0.5279
  751MOL0     C 3534  11.012  11.276  11.126  0.6248  0.5670  0.1855
  751MOL0     C 3535  11.015  11.358  11.239  0.7788  0.4941  0.8617
  751MOL0     O 3536  11.117  11.361  11.332 -0.4378  0.0542  0.6179
  751MOL0     C 3537  11.243  11.285  11.306 -0.6668 -0.7928  0.3255
  751MOL0     C 3538  11.335  11.309  11.428  0.3303  0.5084 -0.4885
  751MOL0     C 3539  11.268  11.241  11.547  0.3464 -0.3309  0.5763
  751MOL0     C 3540  11.369  11.212  11.668  0.2798  0.3164 -0.0446
  751MOL0     C 3541  11.292  11.173  11.800 -0.2821  0.8026 -0.4008
  751MOL0     C 3542  11.263  11.023  11.802 -0.1131  0.1455  0.1466
  751MOL0     C 3543  11.208  10.987  11.942  0.5333 -0.0292  0.1351
  751MOL0     C 3544  11.184  10.838  11.960  0.3883  0.5578 -0.8702
  751MOL0    Cl 3545  11.052  10.777  11.837  0.2120  0.1556  0.2882
  751MOL0     C 3546  10.905  11.442  11.268  0.3005 -0.6047  0.2875
  751MOL0     C 3547  10.806  11.469  11.170  0.2224  0.1188  0.7444
  751MOL0     O 3548  10.623  11.186  11.021 -0.0132 -0.4935 -0.2549
  751MOL0     C 3549  10.439  11.455  10.904  0.9721  0.6577 -0.2492
  751MOL0     C 3550  10.328  11.487  10.837  0.6972 -0.1847  0.5107
  751MOL0     N 3551   9.926  11.209  10.346  0.8260 -0.3055  0.0130
  751MOL0     N 3552   9.827  11.141  10.295  0.7167  0.4566 -0.2573
  751MOL0     C 3553   8.864  10.885  10.724 -0.2125 -0.7729 -0.4203
  751MOL0     C 3554   8.721  10.904  10.722  0.8369  0.6678  0.0180
  751MOL0     C 3555   8.270  10.758  10.628 -0.6207 -0.0754 -1.1926
  751MOL0     C 3556   8.170  10.712  10.712 -0.9039  0.1249  0.2646
  751MOL0     C 3557   8.041  10.737  10.682  0.9347  0.0754  0.2210
  751MOL0     C 3558   8.001  10.783  10.554  0.2301  0.8206 -0.1091
  751MOL0     O 3559   7.881  10.778  10.491  0.0663  0.1499  0.3258
  751MOL0     C 3560   7.772  10.712  10.561 -0.5113 -0.3942 -0.3062
  751MOL0     C 3561   7.636  10.717  10.495 -0.0941 -0.4935  0.0439
  751MOL0     C 3562   7.617  10.638  10.371 -0.2580  0.3947  0.3035
  751MOL0     C 3563   7.473  10.638  10.327  1.2807  0.6730 -0.9695
  751MOL0     C 3564   7.384  10.576  10.429 -1.4140 -0.2339  0.2366
  751MOL0     C 3565   7.302  10.532  10.500 -0.0060  0.4321 -0.9906
  751MOL0     C 3566   8.100  10.829  10.472 -0.2693 -0.8318 -0.8775
  751MOL0     C 3567   8.237  10.815  10.503  0.0717  0.2584  1.0866
  751MOL0     C 3568   8.349  10.849  10.403  0.1888  0.4825  0.4230
  751MOL0     H 3569   8.647  10.627  10.523  1.2574 -0.6134 -0.4003
  751MOL0     H 3570   8.880  10.599  10.554 -2.1460 -0.6076 -1.9521
  751MOL0     H 3571   9.135  10.804  10.840 -3.5204 -0.7683 -0.1861
  751MOL0     H 3572   9.109  10.953  10.739  0.0625 -1.0943  1.5126
  751MOL0     H 3573   9.349  10.852  10.751 -1.0072 -4.3251  1.5777
  751MOL0     H 3574   9.274  10.735  10.651 -2.3925  0.7181 -0.4200
  751MOL0     H 3575   9.228  10.887  10.468  0.4986  0.2781 -0.2123
  751MOL0     H 3576   9.253  11.031  10.566  4.1268  1.2097  0.5317
  751MOL0     H 3577   9.496  10.997  10.584  0.0340  0.6792 -0.3661
  751MOL0     H 3578   9.475  10.830  10.537 -2.0208 -0.6984 -0.9148
  751MOL0     H 3579   9.387  10.949  10.310  0.4527  0.2464 -0.9534
  751MOL0     H 3580   9.560  10.960  10.351 -1.7843 -1.1809 -1.2376
  751MOL0     H 3581   9.351  11.181  10.426  0.1030  1.3268  1.6640
  751MOL0     H 3582   9.519  11.173  10.460  0.8440  0.1832 -1.1737
  751MOL0     H 3583   9.458  11.314  10.287  1.5102  0.1156  1.4783
  751MOL0     H 3584   9.399  11.181  10.185  0.6540 -1.3525  0.0824
  751MOL0     H 3585   9.622  11.068  10.185 -3.2830 -1.3193  1.9494
  751MOL0     H 3586   9.610  11.223  10.102  0.1167 -0.0923 -0.4683
  751MOL0     H 3587   9.715  11.437  10.251 -3.1881 -1.7367  0.1377
  751MOL0     H 3588   9.961  11.537  10.281  2.4801 -1.0730 -1.0859
  751MOL0     H 3589  10.083  11.418  10.359 -0.9942 -1.5078  0.3269
  751MOL0     H 3590  10.035  11.592  10.513  1.0530 -0.6862 -2.8892
  751MOL0     H 3591   9.869  11.595  10.473  1.5608  2.8250  1.7662
  751MOL0     H 3592   9.902  11.503  10.705  1.5737  2.3696 -0.8533
  751MOL0     H 3593   9.847  11.371  10.601  3.0257 -2.1192 -2.7167
  751MOL0     H 3594  10.017  11.315  10.762 -1.8960 -1.7527 -1.6416
  751MOL0     H 3595  10.057  11.274  10.590 -1.3406 -1.4083  1.3597
  751MOL0     H 3596  10.288  11.221  10.629 -0.9683 -0.3041  0.4190
  751MOL0     H 3597  10.498  11.024  10.812 -0.5959  0.1456  1.5508
  751MOL0     H 3598  10.630  11.120  10.743  0.6212  1.9975  4.1374
  751MOL0     H 3599  10.485  11.082  10.644 -1.2843  0.6208  1.4852
  751MOL0     H 3600  10.897  11.233  10.943 -1.5890 -2.0954  2.4077
  751MOL0     H 3601  11.090  11.202  11.114 -0.0771 -0.2594  0.6660
  751MOL0     H 3602  11.216  11.180  11.298 -0.8968 -0.7240  0.1979
  751MOL0     H 3603  11.297  11.310  11.214  1.0458 -2.6032  0.7853
  751MOL0     H 3604  11.428  11.258  11.400 -0.4583 -2.3576  1.6184
  751MOL0     H 3605  11.364  11.414  11.442 -2.1888  1.4498 -1.5724
  751MOL0     H 3606  11.218  11.150  11.513  1.0009 -0.1444 -0.9684
  751MOL0     H 3607  11.196  11.316  11.582  0.3148 -0.0386 -0.1141
  751MOL0     H 3608  11.424  11.306  11.682 -0.1688  0.8698 -1.7828
  751MOL0     H 3609  11.448  11.142  11.641  0.1744  0.3536 -0.4513
  751MOL0     H 3610  11.353  11.201  11.887  0.3632  0.8029 -0.8482
  751MOL0     H 3611  11.196  11.224  11.809 -0.1772  0.7966  1.0709
  751MOL0     H 3612  11.347  10.963  11.766  0.6533  0.5938  1.1149
  751MOL0     H 3613  11.182  11.001  11.733  1.1882 -1.1829 -1.0211
  751MOL0     H 3614  11.110  11.034  11.953  0.4313 -0.2967  0.3975
  751MOL0     H 3615  11.287  11.023  12.010  0.0074  3.4990 -0.9126
  751MOL0     H 3616  11.164  10.811  12.064 -1.0629  1.2511 -0.9393
  751MOL0     H 3617  11.276  10.781  11.945 -0.4305 -0.8942 -0.6153
  751MOL0     H 3618  10.915  11.502  11.358  1.4956 -1.1324  0.5275
  751MOL0     H 3619  10.728  11.540  11.198 -0.8307 -1.1428  1.1169
  751MOL0     H 3620  10.482  11.528  10.972  1.5620 -1.7529  2.1351
  751MOL0     H 3621  10.287  11.587  10.844 -3.4050 -1.7461  1.5839
  751MOL0     H 3622   8.908  10.954  10.795  0.3141 -0.0224 -1.4494
  751MOL0     H 3623   8.672  10.996  10.751 -2.5722 -1.5395  2.0384
  751MOL0     H 3624   8.183  10.644  10.795  0.1622 -0.5355 -0.4165
  751MOL0     H 3625   7.973  10.699  10.758 -0.4753  2.2907  0.1521
  751MOL0     H 3626   7.793  10.609  10.593 -0.0455 -0.7953 -1.8396
  751MOL0     H 3627   7.757  10.771  10.652 -0.1362  0.5000 -0.8190
  751MOL0     H 3628   7.615  10.823  10.476 -4.3425 -1.2606 -0.3419
  751MOL0     H 3629   7.568  10.678  10.571  0.7340 -1.8970  0.0956
  751MOL0     H 3630   7.661  10.679  10.280  0.6729 -1.3964 -0.0948
  751MOL0     H 3631   7.643  10.533  10.390 -2.0982  0.1780  1.9493
  751MOL0     H 3632   7.458  10.564  10.248  0.0532  0.2442 -0.3485
  751MOL0     H 3633   7.445  10.743  10.314 -0.2456  1.1219  3.8418
  751MOL0     H 3634   7.229  10.483  10.562 -1.9034  1.1456 -2.5613
  751MOL0     H 3635   8.073  10.875  10.377 -1.4777  1.6547  0.5460
  751MOL0     H 3636   8.308  10.886  10.308 -0.8705  2.0816  1.4539
  751MOL0     H 3637   8.410  10.932  10.439  1.5791 -0.6540  0.7538
  751MOL0     H 3638   8.411  10.760  10.392  0.7898  1.0018 -0.4835
  752MOL0     O 3639   0.976  10.824   8.257  0.5294 -1.0657  0.5306
  752MOL0     C 3640   0.915  10.725   8.214  0.0554  0.0078 -1.1425
  752MOL0     O 3641   0.961  10.614   8.137 -0.7497 -0.4057 -0.0264
  752MOL0     C 3642   1.091  10.573   8.155 -0.2814 -0.5491  0.2773
  752MOL0     C 3643   1.135  10.548   8.287  0.8963 -0.1815  0.8236
  752MOL0     C 3644   1.267  10.510   8.310 -0.3728 -0.0305  0.7577
  752MOL0     C 3645   1.351  10.500   8.205 -0.0882  0.2153 -0.2326
  752MOL0     O 3646   1.472  10.450   8.246  0.0276  0.0235  0.5767
  752MOL0     C 3647   1.584  10.439   8.149 -0.4041  0.3965 -0.2231
  752MOL0     C 3648   1.715  10.397   8.222  0.3294 -0.1821 -0.7681
  752MOL0     C 3649   1.828  10.370   8.123 -0.6558 -0.1174  0.4227
  752MOL0     C 3650   1.933  10.320   8.214 -0.0303  0.9956 -0.5629
  752MOL0     C 3651   2.067  10.300   8.130  1.0702  0.2260 -0.4833
  752MOL0     C 3652   2.072  10.162   8.075 -0.0968  0.6433  0.7039
  752MOL0     C 3653   2.211  10.109   8.044 -0.1687 -0.2358 -0.6495
  752MOL0     C 3654   2.207   9.968   8.017 -0.7009 -0.3564 -0.4736
  752MOL0     N 3655   2.327   9.930   7.949 -0.3835  0.4867  0.4510
  752MOL0     C 3656   2.448   9.894   8.005  0.4914 -0.4261 -0.5673
  752MOL0     C 3657   2.538   9.891   7.909 -0.4285  0.6310  0.3410
  752MOL0     C 3658   2.670   9.838   7.924  0.2655  0.3961 -0.3268
  752MOL0     C 3659   2.782   9.941   7.946 -0.2626  0.2595 -0.0338
  752MOL0     C 3660   2.749  10.059   8.039  0.2039 -0.5579 -0.0301
  752MOL0     C 3661   2.873  10.145   8.057  0.9741  0.4071  0.7718
  752MOL0     O 3662   2.980  10.073   8.114 -0.4599  0.0612 -0.6822
  752MOL0     C 3663   3.109  10.133   8.107 -1.0002  0.3839 -0.3091
  752MOL0     C 3664   3.218  10.050   8.073  0.1803 -0.8392  0.2456
  752MOL0     C 3665   3.350  10.096   8.060  0.1144 -0.2702  1.0001
  752MOL0     C 3666   3.456   9.986   8.016 -0.4961 -0.3469  0.2969
  752MOL0     C 3667   3.375  10.234   8.075  0.2346  0.0588  0.4577
  752MOL0     C 3668   3.513  10.288   8.067 -0.6290 -1.0089 -0.4608
  752MOL0     O 3669   3.540  10.399   8.141 -0.0228 -0.0158 -0.2841
  752MOL0     C 3670   3.649  10.476   8.115  0.1032  0.2243  0.0221
  752MOL0     C 3671   3.715  10.537   8.221 -0.6711  0.7998  0.2446
  752MOL0     C 3672   3.818  10.626   8.195  0.0574 -0.6858  0.0031
  752MOL0     C 3673   3.842  10.670   8.058  0.0871 -0.7113 -0.4661
  752MOL0     O 3674   3.959  10.727   8.013 -1.0947 -0.1946 -1.0474
  752MOL0     C 3675   4.043  10.786   8.107  1.1567  0.3101 -0.3410
  752MOL0     C 3676   3.992  10.922   8.155  0.4817 -0.9763  0.1898
  752MOL0     C 3677   4.089  10.999   8.254  0.0677  0.5155  0.1553
  752MOL0     C 3678   4.077  10.930   8.394 -0.0089  0.7900  0.7849
  752MOL0     C 3679   4.107  11.017   8.515 -0.0995  0.2133 -0.4516
  752MOL0     C 3680   4.250  11.058   8.517 -0.7890  0.4019  0.0082
  752MOL0     C 3681   4.281  11.155   8.626 -0.5789 -0.8407 -0.9230
  752MOL0     C 3682   4.429  11.210   8.629  0.1081  0.4473  0.3861
  752MOL0    Cl 3683   4.468  11.285   8.473 -0.0776 -0.0147 -0.2620
  752MOL0     C 3684   3.770  10.621   7.955 -0.2524  1.0054 -0.3207
  752MOL0     C 3685   3.677  10.514   7.980 -0.0578  0.2886 -0.4904
  752MOL0     O 3686   3.588  10.238   7.986  0.4494  0.7150  0.0566
  752MOL0     C 3687   3.268  10.317   8.110  0.3224  0.2282 -0.1715
  752MOL0     C 3688   3.139  10.268   8.128  0.6670 -0.4553  0.4231
  752MOL0     N 3689   2.483   9.928   7.790 -0.3095 -1.6949  0.0316
  752MOL0     N 3690   2.356   9.954   7.821  0.5157  0.5328 -0.3809
  752MOL0     C 3691   1.308  10.530   8.068  0.0130  0.4325 -0.2015
  752MOL0     C 3692   1.175  10.570   8.046  0.2260 -0.4371 -0.3017
  752MOL0     C 3693   0.765  10.744   8.202  0.3595  0.1030 -0.5667
  752MOL0     C 3694   0.701  10.710   8.086  0.8176 -0.1128  0.0208
  752MOL0     C 3695   0.566  10.720   8.067 -0.7393 -0.0152  0.3372
  752MOL0     C 3696   0.496  10.792   8.165  0.6487 -0.5124 -0.3168
  752MOL0     O 3697   0.364  10.838   8.149 -0.3459  0.6706  0.1625
  752MOL0     C 3698   0.264  10.753   8.209  0.5239  0.5247  0.5147
  752MOL0     C 3699   0.126  10.793   8.151  0.4916  0.0761 -0.6463
  752MOL0     C 3700   0.002  10.735   8.217 -0.7939 -0.2053  0.1657
  752MOL0     C 3701  -0.127  10.784   8.141 -0.5682 -0.2949 -0.7307
  752MOL0     C 3702  -0.243  10.709   8.191 -0.0422  0.0124  0.4875
  752MOL0     C 3703  -0.339  10.654   8.241  0.0724 -0.3559  0.5134
  752MOL0     C 3704   0.558  10.824   8.289  0.4683  0.6035 -0.3393
  752MOL0     C 3705   0.692  10.808   8.308  1.1235  0.5657 -0.1358
  752MOL0     C 3706   0.751  10.844   8.437 -1.2505 -0.3988  0.0083
  752MOL0     H 3707   1.065  10.549   8.369 -0.2878 -3.6594 -0.0086
  752MOL0     H 3708   1.295  10.491   8.413 -0.7542  2.2619  1.3462
  752MOL0     H 3709   1.603  10.537   8.106  0.5004 -1.0769 -3.5442
  752MOL0     H 3710   1.563  10.358   8.078 -0.2013  1.5723 -1.6691
  752MOL0     H 3711   1.750  10.473   8.292 -2.3221  2.1411 -1.7437
  752MOL0     H 3712   1.695  10.307   8.282  0.2157  0.0273 -0.4921
  752MOL0     H 3713   1.796  10.294   8.052 -1.3949 -1.2237  1.8855
  752MOL0     H 3714   1.863  10.455   8.064 -2.8387  1.0722  0.7135
  752MOL0     H 3715   1.956  10.394   8.291  1.8812  2.1968 -2.1719
  752MOL0     H 3716   1.902  10.233   8.272  0.5362  0.9187 -0.3703
  752MOL0     H 3717   2.148  10.311   8.203  0.4416  0.3942  0.1967
  752MOL0     H 3718   2.084  10.378   8.055  1.1633 -0.1443 -0.8546
  752MOL0     H 3719   2.027  10.102   8.155 -3.5770  2.3270  0.2198
  752MOL0     H 3720   2.003  10.143   7.992  1.9865 -0.0699 -0.9356
  752MOL0     H 3721   2.268  10.141   8.131 -0.7333  0.9402 -0.6888
  752MOL0     H 3722   2.245  10.156   7.951 -1.0778 -0.5936 -1.1735
  752MOL0     H 3723   2.183   9.920   8.112  1.5124  0.9928  0.8328
  752MOL0     H 3724   2.125   9.938   7.950 -0.4674 -1.8599 -0.1243
  752MOL0     H 3725   2.459   9.869   8.110 -2.1141 -0.8910 -0.3431
  752MOL0     H 3726   2.692   9.793   7.826 -1.4755 -0.7130 -0.2620
  752MOL0     H 3727   2.680   9.762   8.002 -0.1347  0.1059 -0.5485
  752MOL0     H 3728   2.871   9.884   7.975 -0.9294 -1.0391 -0.4534
  752MOL0     H 3729   2.808   9.986   7.850  1.0634  3.9765  1.8810
  752MOL0     H 3730   2.682  10.128   7.988  1.3170  0.8442  0.3266
  752MOL0     H 3731   2.700  10.029   8.132  1.9495 -0.4464  0.9710
  752MOL0     H 3732   2.908  10.190   7.964 -0.3810 -0.5311 -0.2411
  752MOL0     H 3733   2.861  10.224   8.132  1.4740 -1.4621  2.9589
  752MOL0     H 3734   3.197   9.944   8.059  0.4610 -0.6766 -1.8186
  752MOL0     H 3735   3.476   9.996   7.909  1.6789  1.2946  0.8056
  752MOL0     H 3736   3.427   9.883   8.038  1.2785 -0.8434  0.4522
  752MOL0     H 3737   3.550  10.003   8.069  0.0209 -4.3042  0.9563
  752MOL0     H 3738   3.706  10.499   8.323  3.8826 -3.0407 -0.4122
  752MOL0     H 3739   3.874  10.641   8.286  2.4162 -2.2817 -1.0686
  752MOL0     H 3740   4.051  10.721   8.194  0.8607  1.0498  0.2541
  752MOL0     H 3741   4.143  10.805   8.069  0.3267  1.2641 -2.1729
  752MOL0     H 3742   3.974  10.985   8.067 -4.4797 -0.6529  1.1381
  752MOL0     H 3743   3.889  10.924   8.191  0.4951 -0.8827  0.2241
  752MOL0     H 3744   4.062  11.105   8.245 -2.6839 -0.0614  0.6179
  752MOL0     H 3745   4.193  10.998   8.221 -0.2644  0.5960 -0.9485
  752MOL0     H 3746   4.150  10.848   8.394 -1.9159 -1.1273 -2.2746
  752MOL0     H 3747   3.978  10.889   8.414 -1.5340  2.5491 -2.4994
  752MOL0     H 3748   4.040  11.104   8.511  0.5248  0.7211  0.0971
  752MOL0     H 3749   4.084  10.970   8.611  3.3683 -0.6817  0.0474
  752MOL0     H 3750   4.278  11.097   8.418 -2.1665 -0.6629 -0.8464
  752MOL0     H 3751   4.308  10.967   8.534 -0.5635  0.7605  1.2484
  752MOL0     H 3752   4.250  11.112   8.721 -0.7688 -1.1019 -1.1007
  752MOL0     H 3753   4.218  11.243   8.608 -0.0512 -0.0409  0.9417
  752MOL0     H 3754   4.489  11.119   8.634 -1.4635 -0.6401  0.1843
  752MOL0     H 3755   4.446  11.276   8.715  3.3534  2.1502 -1.3779
  752MOL0     H 3756   3.808  10.644   7.856  0.1507  1.3743 -0.0882
  752MOL0     H 3757   3.623  10.472   7.896 -2.3123  0.6108  0.7119
  752MOL0     H 3758   3.283  10.422   8.134  0.7243  0.7351 -2.4854
  752MOL0     H 3759   3.062  10.333   8.169  1.3385 -0.1907  1.3092
  752MOL0     H 3760   1.377  10.520   7.984 -1.1642  2.0049 -1.3975
  752MOL0     H 3761   1.129  10.597   7.952 -2.2958  0.0397  0.9707
  752MOL0     H 3762   0.753  10.660   8.005 -0.7835 -0.0042 -1.1150
  752MOL0     H 3763   0.518  10.690   7.974  1.3606  1.4727 -1.3395
  752MOL0     H 3764   0.288  10.651   8.180 -0.0918  1.1192 -2.4953
  752MOL0     H 3765   0.258  10.749   8.318  1.0907 -0.0500  0.5261
  752MOL0     H 3766   0.139  10.757   8.049 -1.2647  0.1198 -0.9032
  752MOL0     H 3767   0.115  10.901   8.160 -3.2503 -0.3412  2.5303
  752MOL0     H 3768   0.009  10.627   8.205 -1.0834 -0.0233 -2.1834
  752MOL0     H 3769   0.004  10.755   8.324  2.0490 -2.4056  0.6463
  752MOL0     H 3770  -0.130  10.772   8.032  0.5254  0.2981 -0.8358
  752MOL0     H 3771  -0.138  10.890   8.164  2.4479  0.2832 -1.5043
  752MOL0     H 3772  -0.418  10.599   8.287 -1.8326  2.7996  1.3330
  752MOL0     H 3773   0.505  10.871   8.372 -1.0409 -1.7128  0.0819
  752MOL0     H 3774   0.812  10.930   8.408 -0.4066 -0.8197  0.4872
  752MOL0     H 3775   0.669  10.869   8.505 -1.9849 -2.3973 -0.0711
  752MOL0     H 3776   0.809  10.759   8.475  1.4882  0.9822 -0.8633
  753MOL0     O 3777   7.278  10.281   5.104 -0.5007  0.1175 -0.1285
  753MOL0     C 3778   7.220  10.247   5.209 -0.2629 -0.0349 -0.2055
  753MOL0     O 3779   7.283  10.222   5.331  0.1822  0.4404 -0.2632
  753MOL0     C 3780   7.415  10.240   5.332  0.8876 -0.3386  0.3560
  753MOL0     C 3781   7.496  10.139   5.279  0.0246 -0.7648 -0.6195
  753MOL0     C 3782   7.633  10.160   5.264 -0.0862  1.1453 -0.2878
  753MOL0     C 3783   7.696  10.275   5.311 -0.4480  0.8972  0.4160
  753MOL0     O 3784   7.831  10.316   5.293  0.0226 -0.8403  0.3562
  753MOL0     C 3785   7.885  10.234   5.186  0.5882 -0.3557  0.4025
  753MOL0     C 3786   8.026  10.291   5.176  0.2219 -0.2515  0.0221
  753MOL0     C 3787   8.137  10.194   5.225 -0.0958  0.5276  0.4774
  753MOL0     C 3788   8.285  10.231   5.215 -0.1018  0.6453 -0.1405
  753MOL0     C 3789   8.355  10.135   5.301 -0.0130 -0.1625  0.3859
  753MOL0     C 3790   8.507  10.170   5.291 -0.2226  0.0438 -0.1655
  753MOL0     C 3791   8.597  10.106   5.399  0.1574 -0.3096  0.2489
  753MOL0     C 3792   8.743  10.156   5.391  0.3159  0.2496  0.8037
  753MOL0     N 3793   8.831  10.082   5.480 -0.1597 -0.7790 -0.4546
  753MOL0     C 3794   8.852  10.115   5.613  0.5109  0.3903  0.8730
  753MOL0     C 3795   8.925  10.011   5.661 -0.7788 -0.7827  0.8060
  753MOL0     C 3796   8.952   9.976   5.808 -0.8758  0.7046 -0.2916
  753MOL0     C 3797   9.093   9.991   5.854 -0.7776  0.3025 -0.4723
  753MOL0     C 3798   9.191   9.932   5.752  0.1801  0.1473  0.2900
  753MOL0     C 3799   9.335   9.924   5.799 -0.4956 -0.1104  0.0011
  753MOL0     O 3800   9.384  10.062   5.804  0.2891  0.0973  0.9179
  753MOL0     C 3801   9.477  10.087   5.903 -0.4429 -0.1215  0.2160
  753MOL0     C 3802   9.576  10.001   5.954 -0.8089  0.1513 -0.0311
  753MOL0     C 3803   9.666  10.042   6.049 -0.6440  0.9096  0.2619
  753MOL0     C 3804   9.782   9.958   6.081  0.4692  0.0097 -0.4545
  753MOL0     C 3805   9.667  10.168   6.112  1.5312 -0.3270 -0.3542
  753MOL0     C 3806   9.765  10.225   6.205  0.2181  0.3178  0.6791
  753MOL0     O 3807   9.773  10.171   6.325 -0.1373 -0.2246  0.1455
  753MOL0     C 3808   9.872  10.207   6.410  0.3311  0.8554  0.7213
  753MOL0     C 3809   9.847  10.210   6.549  0.4546  0.1951 -0.5916
  753MOL0     C 3810   9.959  10.205   6.637  1.4067  0.2269  0.1055
  753MOL0     C 3811  10.093  10.202   6.595 -0.3346 -0.3114  0.6755
  753MOL0     O 3812  10.198  10.188   6.678  0.3650 -0.5323  0.0268
  753MOL0     C 3813  10.191  10.262   6.793 -0.7947  0.4646 -0.1501
  753MOL0     C 3814  10.207  10.416   6.773  0.7399  0.2087  0.3057
  753MOL0     C 3815  10.333  10.470   6.855 -0.0842  0.8786  0.2757
  753MOL0     C 3816  10.333  10.619   6.846  0.7887 -0.2884  0.0053
  753MOL0     C 3817  10.421  10.671   6.957  0.1732  0.3245  0.2532
  753MOL0     C 3818  10.459  10.821   6.952 -0.0478 -0.4834  0.2771
  753MOL0     C 3819  10.347  10.916   6.907  0.4002  0.1443  0.1605
  753MOL0     C 3820  10.393  11.055   6.919  0.2406 -0.5368  0.2748
  753MOL0    Cl 3821  10.429  11.123   6.749  0.0832  0.7882  0.0737
  753MOL0     C 3822  10.110  10.187   6.456  0.1317  0.2758  0.3139
  753MOL0     C 3823  10.007  10.192   6.364  0.0942  0.3638  0.3134
  753MOL0     O 3824   9.838  10.314   6.160  0.6874 -0.4009  0.4727
  753MOL0     C 3825   9.562  10.252   6.066 -0.1074 -0.5268 -0.0774
  753MOL0     C 3826   9.466  10.211   5.964 -0.1869 -0.4105 -0.1271
  753MOL0     N 3827   8.963   9.925   5.552  0.6066 -0.3427 -0.8982
  753MOL0     N 3828   8.914   9.977   5.446  1.1895 -0.5439  0.4330
  753MOL0     C 3829   7.615  10.357   5.385 -0.4947 -0.8242  0.1234
  753MOL0     C 3830   7.472  10.348   5.387 -0.5835 -0.2013 -0.1844
  753MOL0     C 3831   7.070  10.216   5.204 -0.6756 -1.0492  0.2495
  753MOL0     C 3832   7.009  10.158   5.320  0.1306 -0.0414 -0.2958
  753MOL0     C 3833   6.876  10.110   5.318  0.6959 -0.1021  0.5532
  753MOL0     C 3834   6.794  10.126   5.209 -0.4011 -0.7953 -0.1732
  753MOL0     O 3835   6.665  10.083   5.220  0.2626 -0.6923 -0.7186
  753MOL0     C 3836   6.571  10.100   5.110  0.2979 -0.6055 -0.3339
  753MOL0     C 3837   6.488  10.224   5.119  0.1472 -0.9665 -0.2786
  753MOL0     C 3838   6.346  10.206   5.191 -0.2101  0.8652  1.4708
  753MOL0     C 3839   6.358  10.159   5.331  0.6077 -0.4309 -0.0370
  753MOL0     C 3840   6.216  10.127   5.374  0.5875 -0.0481  0.0632
  753MOL0     C 3841   6.102  10.092   5.404 -0.4737 -0.3327 -1.2522
  753MOL0     C 3842   6.846  10.200   5.095 -0.1157 -0.5924  0.7905
  753MOL0     C 3843   6.977  10.242   5.090  0.3013 -0.3318 -0.0013
  753MOL0     C 3844   7.012  10.336   4.969  0.0314  0.3095  0.1064
  753MOL0     H 3845   7.453  10.043   5.250 -0.6317 -1.6390  2.7971
  753MOL0     H 3846   7.690  10.071   5.242 -2.4371 -0.9566  1.5073
  753MOL0     H 3847   7.835  10.243   5.090 -1.1574  1.4637  1.4161
  753MOL0     H 3848   7.882  10.129   5.217 -2.1254 -0.2705  0.6277
  753MOL0     H 3849   8.059  10.317   5.074  0.7061  1.1670  0.5086
  753MOL0     H 3850   8.043  10.384   5.231  0.2189 -0.0221 -0.3538
  753MOL0     H 3851   8.121  10.178   5.332 -1.8535  2.1613  0.5135
  753MOL0     H 3852   8.130  10.096   5.176  0.2713  0.7124  0.0538
  753MOL0     H 3853   8.318  10.224   5.111  1.6655  2.0932  0.2586
  753MOL0     H 3854   8.293  10.336   5.246 -0.0557  0.3602  0.8353
  753MOL0     H 3855   8.340  10.033   5.266  2.1994 -0.6977  0.8120
  753MOL0     H 3856   8.313  10.145   5.402 -0.6895  2.6122 -0.0855
  753MOL0     H 3857   8.542  10.141   5.192 -2.0393  1.0118 -1.1419
  753MOL0     H 3858   8.518  10.279   5.288  1.0055 -0.0680 -0.0788
  753MOL0     H 3859   8.598   9.999   5.376  2.6967  0.0684 -1.8054
  753MOL0     H 3860   8.560  10.134   5.498  0.0883  2.8564 -0.5414
  753MOL0     H 3861   8.775  10.151   5.287  3.5519  5.1513  1.2358
  753MOL0     H 3862   8.749  10.262   5.418  2.8805 -0.1006  1.9266
  753MOL0     H 3863   8.816  10.203   5.665  1.2017  1.0276  0.2995
  753MOL0     H 3864   8.920   9.873   5.823 -1.4892  0.7523 -1.1669
  753MOL0     H 3865   8.894  10.044   5.870 -1.3563 -0.9810  1.1682
  753MOL0     H 3866   9.107  10.099   5.852 -0.5466  0.2775 -0.2074
  753MOL0     H 3867   9.104   9.945   5.953  0.6785  1.3091 -0.1463
  753MOL0     H 3868   9.172   9.824   5.750  2.9718 -0.6965  4.3098
  753MOL0     H 3869   9.192   9.980   5.654 -1.0117  2.1580  1.2159
  753MOL0     H 3870   9.338   9.881   5.899 -0.5287 -1.7272 -0.6655
  753MOL0     H 3871   9.407   9.865   5.741  3.5245  2.3575  2.0678
  753MOL0     H 3872   9.573   9.898   5.920  0.2687  0.2497 -0.4846
  753MOL0     H 3873   9.807   9.949   6.187  1.0985 -1.6586 -0.7190
  753MOL0     H 3874   9.870   9.998   6.030  0.5444 -1.6993 -1.7498
  753MOL0     H 3875   9.772   9.866   6.022 -1.6136 -0.2411  0.1988
  753MOL0     H 3876   9.746  10.203   6.589  1.3173  1.2276  2.0005
  753MOL0     H 3877   9.929  10.197   6.741 -0.1729 -2.2461 -0.4463
  753MOL0     H 3878  10.099  10.236   6.846 -0.9486  0.2406 -0.5251
  753MOL0     H 3879  10.279  10.230   6.850 -1.1034 -0.0783  0.0317
  753MOL0     H 3880  10.230  10.434   6.667  2.5102  0.5165  0.7125
  753MOL0     H 3881  10.111  10.455   6.807  0.6334 -0.6292  0.9797
  753MOL0     H 3882  10.427  10.438   6.809 -0.2621  1.3272 -0.4085
  753MOL0     H 3883  10.342  10.439   6.960  1.8363 -2.9213 -0.8303
  753MOL0     H 3884  10.232  10.660   6.854  1.0944  0.2207  1.7500
  753MOL0     H 3885  10.377  10.640   6.748  0.5451  2.5681  0.4322
  753MOL0     H 3886  10.358  10.649   7.043 -1.0299 -0.6298 -0.8231
  753MOL0     H 3887  10.512  10.610   6.966  0.6473  0.5444 -2.2810
  753MOL0     H 3888  10.543  10.823   6.881  1.2590 -0.1323  1.7877
  753MOL0     H 3889  10.502  10.840   7.051 -1.0447 -2.0992  1.0607
  753MOL0     H 3890  10.267  10.901   6.979  1.8489 -0.6552  1.6607
  753MOL0     H 3891  10.320  10.888   6.805  1.8463 -0.5833 -0.0567
  753MOL0     H 3892  10.482  11.058   6.982 -0.9776 -1.0810  2.0855
  753MOL0     H 3893  10.321  11.112   6.978  2.1481 -0.1587  2.3696
  753MOL0     H 3894  10.210  10.157   6.429 -0.2074  0.9325 -1.8392
  753MOL0     H 3895  10.027  10.199   6.258  1.8522  1.5114  0.6751
  753MOL0     H 3896   9.556  10.353   6.104  0.8855  0.6906 -2.9275
  753MOL0     H 3897   9.414  10.293   5.914  0.8992  1.6814  1.9881
  753MOL0     H 3898   7.667  10.441   5.431 -2.1859 -0.0719  0.7681
  753MOL0     H 3899   7.408  10.409   5.449 -1.3492 -0.8411 -0.3265
  753MOL0     H 3900   7.067  10.129   5.407 -2.4780  0.5809  1.7966
  753MOL0     H 3901   6.841  10.051   5.402 -2.1762 -0.5081 -0.7903
  753MOL0     H 3902   6.622  10.101   5.013 -1.3943  4.9059 -1.5107
  753MOL0     H 3903   6.506  10.012   5.105  0.0611 -0.5181  1.0351
  753MOL0     H 3904   6.465  10.259   5.018 -3.3067 -2.0590  0.0011
  753MOL0     H 3905   6.544  10.294   5.182 -1.2192 -0.4097  0.3463
  753MOL0     H 3906   6.301  10.306   5.183  0.2623  0.9140 -1.9570
  753MOL0     H 3907   6.286  10.132   5.138  0.9419 -0.0987  1.4649
  753MOL0     H 3908   6.389  10.239   5.400  1.9853  0.8941 -2.0671
  753MOL0     H 3909   6.429  10.075   5.333  0.2941 -0.7553 -1.5857
  753MOL0     H 3910   6.012  10.041   5.433  0.7660 -2.6035 -1.1529
  753MOL0     H 3911   6.793  10.211   5.001 -1.6687  1.2913  1.8356
  753MOL0     H 3912   7.027  10.437   5.009  1.1249  0.6654 -1.1132
  753MOL0     H 3913   7.101  10.300   4.917 -0.0602 -2.6894  1.8476
  753MOL0     H 3914   6.926  10.344   4.901 -0.9973 -0.1161  1.3267
  754MOL0     O 3915   0.019   6.596   9.835  0.2621 -0.7758  0.7114
  754MOL0     C 3916   0.122   6.540   9.792  0.1413 -0.2474  0.6932
  754MOL0     O 3917   0.134   6.421   9.725  0.3079  0.1716  0.4757
  754MOL0     C 3918   0.027   6.340   9.726 -0.1378 -0.4458  0.3906
  754MOL0     C 3919  -0.012   6.282   9.849  0.2636  0.4957 -0.8839
  754MOL0     C 3920  -0.128   6.206   9.845  0.1179  0.3864  1.2067
  754MOL0     C 3921  -0.188   6.178   9.724  0.6537 -0.6956  0.1520
  754MOL0     O 3922  -0.303   6.103   9.743 -0.7515  0.3761  0.5195
  754MOL0     C 3923  -0.381   6.080   9.624 -0.2858 -0.1963 -0.4228
  754MOL0     C 3924  -0.498   5.992   9.668  0.1177  0.9226  0.1255
  754MOL0     C 3925  -0.577   5.926   9.554 -0.2538  0.7901  0.5519
  754MOL0     C 3926  -0.708   5.859   9.612 -0.5080 -0.2421  0.7524
  754MOL0     C 3927  -0.785   5.778   9.507 -0.1922 -1.3746 -0.3585
  754MOL0     C 3928  -0.695   5.690   9.423 -0.3671  0.2268  0.0989
  754MOL0     C 3929  -0.781   5.573   9.367 -0.4488 -0.1321 -0.5609
  754MOL0     C 3930  -0.727   5.522   9.227 -0.4242  0.1211 -0.1289
  754MOL0     N 3931  -0.593   5.463   9.228  0.3610  0.2093  0.0660
  754MOL0     C 3932  -0.566   5.341   9.283 -0.4629  1.4407 -0.1729
  754MOL0     C 3933  -0.446   5.314   9.233 -0.0573 -0.1032 -0.2462
  754MOL0     C 3934  -0.360   5.194   9.262  0.3668  0.4871 -0.2401
  754MOL0     C 3935  -0.216   5.229   9.305 -0.1521  0.0271  0.4663
  754MOL0     C 3936  -0.231   5.248   9.456  0.2752 -0.8528 -1.0824
  754MOL0     C 3937  -0.111   5.286   9.538  0.6124  0.3882  0.3007
  754MOL0     O 3938  -0.039   5.393   9.489  0.0169  0.1743 -0.1210
  754MOL0     C 3939   0.083   5.422   9.544  0.7549 -0.1674  0.5094
  754MOL0     C 3940   0.139   5.543   9.504 -0.2466  0.8966 -0.0779
  754MOL0     C 3941   0.266   5.572   9.554 -0.4829 -0.4382  0.6453
  754MOL0     C 3942   0.329   5.709   9.512  0.4435 -1.1493  0.9618
  754MOL0     C 3943   0.322   5.490   9.659  0.1074 -0.4256  0.7088
  754MOL0     C 3944   0.446   5.524   9.730 -0.6371  0.5863  0.6124
  754MOL0     O 3945   0.545   5.574   9.658  0.2444 -0.3995  0.8508
  754MOL0     C 3946   0.649   5.623   9.726  0.6414 -0.5381 -0.1030
  754MOL0     C 3947   0.756   5.555   9.797  0.4672  0.2673  0.1615
  754MOL0     C 3948   0.854   5.628   9.858 -0.5716 -0.9110  0.1164
  754MOL0     C 3949   0.867   5.766   9.845 -0.2078 -0.0639 -1.0909
  754MOL0     O 3950   0.982   5.835   9.884  0.2239  0.3327  0.4942
  754MOL0     C 3951   1.094   5.765   9.946  0.1276  0.1086 -0.4561
  754MOL0     C 3952   1.181   5.879  10.023  0.1598  0.0018  0.7347
  754MOL0     C 3953   1.248   5.982   9.927  0.4259  0.0270  0.1527
  754MOL0     C 3954   1.308   6.092  10.007 -0.0218 -0.9119  0.5920
  754MOL0     C 3955   1.458   6.067  10.010  0.2026  0.0636 -0.3608
  754MOL0     C 3956   1.538   6.162  10.103 -0.9377 -0.7165 -0.3961
  754MOL0     C 3957   1.689   6.147  10.094 -0.3075  0.3678  0.3455
  754MOL0     C 3958   1.764   6.237  10.191 -0.4062  0.4219 -0.4846
  754MOL0    Cl 3959   1.697   6.405  10.195 -0.1290  0.1874 -0.3252
  754MOL0     C 3960   0.763   5.837   9.777 -0.1754 -0.2556 -0.7707
  754MOL0     C 3961   0.657   5.765   9.723  0.3186 -0.8743 -0.0578
  754MOL0     O 3962   0.451   5.496   9.852  0.2553 -0.3736 -0.1341
  754MOL0     C 3963   0.257   5.374   9.693  0.4762 -0.0818 -0.4720
  754MOL0     C 3964   0.146   5.330   9.630 -0.3232  0.0687  0.3544
  754MOL0     N 3965  -0.398   5.412   9.153 -0.0317 -0.3993  0.0790
  754MOL0     N 3966  -0.483   5.511   9.153  0.6665 -0.4588 -0.4192
  754MOL0     C 3967  -0.144   6.234   9.603 -1.1288 -0.1890 -0.4660
  754MOL0     C 3968  -0.038   6.319   9.605  0.5087 -0.0764  0.7377
  754MOL0     C 3969   0.249   6.612   9.814  0.6558  0.4376  0.5694
  754MOL0     C 3970   0.278   6.726   9.729  0.4538  0.0546  0.4617
  754MOL0     C 3971   0.392   6.808   9.757 -0.7001 -0.6588  1.4377
  754MOL0     C 3972   0.485   6.770   9.849  0.0857 -0.0130 -0.4893
  754MOL0     O 3973   0.598   6.842   9.868  0.0434 -0.3943 -0.5117
  754MOL0     C 3974   0.716   6.763   9.889 -0.7054 -0.1544  0.2202
  754MOL0     C 3975   0.836   6.852   9.854 -0.0721  0.5234 -0.0377
  754MOL0     C 3976   0.882   6.829   9.704 -0.0633 -0.0928 -0.0830
  754MOL0     C 3977   1.001   6.919   9.669 -0.4565  0.3853  0.4118
  754MOL0     C 3978   1.133   6.858   9.712 -0.2578 -1.5982  0.2117
  754MOL0     C 3979   1.237   6.805   9.735 -0.2220 -0.6618  0.5848
  754MOL0     C 3980   0.453   6.658   9.931  0.5346  0.3280  0.5358
  754MOL0     C 3981   0.330   6.590   9.920 -0.6288 -1.0159 -0.2605
  754MOL0     C 3982   0.298   6.487  10.033 -0.7758  0.0650  0.2836
  754MOL0     H 3983   0.042   6.290   9.942  0.0981  0.8438 -0.8144
  754MOL0     H 3984  -0.165   6.153   9.932 -0.0630 -0.1955  0.7787
  754MOL0     H 3985  -0.317   6.025   9.555 -0.3124 -0.0548 -0.5602
  754MOL0     H 3986  -0.415   6.179   9.592  1.2344  1.6282  3.0233
  754MOL0     H 3987  -0.448   5.919   9.734  0.5927  1.6837  0.6329
  754MOL0     H 3988  -0.567   6.043   9.735 -1.3125 -2.8037  1.7735
  754MOL0     H 3989  -0.615   6.007   9.491  3.2514 -0.8680 -4.2036
  754MOL0     H 3990  -0.518   5.850   9.504  0.0016 -0.0054  2.0041
  754MOL0     H 3991  -0.692   5.798   9.702 -1.4723  1.0145  1.8312
  754MOL0     H 3992  -0.771   5.942   9.647  0.0554 -0.8789  3.5559
  754MOL0     H 3993  -0.838   5.851   9.446  1.5805 -0.2567 -0.6565
  754MOL0     H 3994  -0.856   5.722   9.568 -0.0096 -2.7653 -1.3815
  754MOL0     H 3995  -0.640   5.744   9.345 -2.9236  1.7000 -0.8024
  754MOL0     H 3996  -0.620   5.646   9.489  0.9501  0.5797 -1.1089
  754MOL0     H 3997  -0.886   5.602   9.362 -0.4604 -0.0714 -0.0312
  754MOL0     H 3998  -0.772   5.487   9.434 -1.6438 -0.4943 -0.8360
  754MOL0     H 3999  -0.795   5.452   9.176  0.2136 -0.1091 -0.6835
  754MOL0     H 4000  -0.729   5.604   9.155 -0.8414 -2.1582 -2.9107
  754MOL0     H 4001  -0.614   5.285   9.362  0.8333  1.3540  0.5784
  754MOL0     H 4002  -0.350   5.136   9.170 -0.1028 -0.6657  0.4145
  754MOL0     H 4003  -0.412   5.125   9.330 -1.6964  1.2870 -0.9169
  754MOL0     H 4004  -0.141   5.149   9.298  0.3868  0.2662  2.7897
  754MOL0     H 4005  -0.183   5.315   9.246 -1.2210 -0.0953 -0.3467
  754MOL0     H 4006  -0.295   5.332   9.482  1.0995 -0.2986 -0.8186
  754MOL0     H 4007  -0.277   5.162   9.505 -1.0036 -0.7526 -2.0753
  754MOL0     H 4008  -0.141   5.305   9.642 -1.4091  2.5522 -0.5765
  754MOL0     H 4009  -0.063   5.188   9.539 -1.5434 -0.7326  0.4342
  754MOL0     H 4010   0.088   5.602   9.428  0.2376  0.3321 -0.8486
  754MOL0     H 4011   0.302   5.779   9.592 -2.4386 -1.5410  0.4476
  754MOL0     H 4012   0.269   5.743   9.427 -0.3865 -1.2610  1.4882
  754MOL0     H 4013   0.434   5.711   9.484 -0.5615 -1.3315 -3.4548
  754MOL0     H 4014   0.744   5.447   9.793 -1.5047  0.4436  0.0034
  754MOL0     H 4015   0.914   5.570   9.927 -1.3786 -1.4390  0.3778
  754MOL0     H 4016   1.070   5.686  10.018  2.2120 -0.0737  0.1175
  754MOL0     H 4017   1.158   5.723   9.868  1.1735  0.3228  0.2673
  754MOL0     H 4018   1.119   5.937  10.093  0.6814 -0.0827  1.2763
  754MOL0     H 4019   1.256   5.833  10.088  0.7445  1.1241  0.8842
  754MOL0     H 4020   1.179   6.039   9.864 -2.5109 -0.8946  2.3229
  754MOL0     H 4021   1.319   5.924   9.868  0.6541 -1.7005  2.0066
  754MOL0     H 4022   1.269   6.088  10.109 -1.7934  0.0435 -0.0156
  754MOL0     H 4023   1.296   6.190   9.961  1.1839 -1.4703 -1.0075
  754MOL0     H 4024   1.476   5.963  10.038  0.3458  0.4417  1.0736
  754MOL0     H 4025   1.494   6.081   9.908 -3.3479  2.2078 -1.5165
  754MOL0     H 4026   1.509   6.137  10.206  1.0548 -2.5274 -0.1936
  754MOL0     H 4027   1.517   6.264  10.071  3.7700  0.2494 -1.2314
  754MOL0     H 4028   1.723   6.167   9.992  0.9079 -0.4787  0.5608
  754MOL0     H 4029   1.707   6.042  10.121  0.0275  0.5973  1.0389
  754MOL0     H 4030   1.866   6.256  10.154 -0.3458  1.7141  0.2881
  754MOL0     H 4031   1.760   6.198  10.293  1.9513  1.5033  0.1008
  754MOL0     H 4032   0.759   5.943   9.753 -0.6244 -0.0888  0.0185
  754MOL0     H 4033   0.591   5.834   9.671  0.0995  0.4985  1.8961
  754MOL0     H 4034   0.284   5.311   9.777 -1.4228  1.8347  1.6933
  754MOL0     H 4035   0.113   5.232   9.663 -2.2106  0.2971 -0.7193
  754MOL0     H 4036  -0.191   6.221   9.506  0.1651  0.2639 -1.1693
  754MOL0     H 4037  -0.004   6.369   9.514  2.0426 -2.0120  0.1709
  754MOL0     H 4038   0.218   6.754   9.643  0.9917  0.2380  0.1447
  754MOL0     H 4039   0.394   6.884   9.680 -0.3125 -1.0559  1.0430
  754MOL0     H 4040   0.727   6.732   9.993 -2.0209 -2.8109 -0.3289
  754MOL0     H 4041   0.708   6.671   9.830 -0.4894 -0.4107  0.5881
  754MOL0     H 4042   0.920   6.830   9.921 -1.1080  0.4676  1.2954
  754MOL0     H 4043   0.813   6.958   9.867 -0.6937  0.5739 -1.4483
  754MOL0     H 4044   0.909   6.724   9.686  2.7052  0.4658  0.2603
  754MOL0     H 4045   0.802   6.858   9.636 -1.0413 -1.3607  0.4881
  754MOL0     H 4046   0.999   7.021   9.708  1.6527  1.4169 -1.8936
  754MOL0     H 4047   1.020   6.910   9.562  0.0497 -3.1332  0.6867
  754MOL0     H 4048   1.332   6.763   9.761 -0.8731 -0.9279  2.7999
  754MOL0     H 4049   0.526   6.636  10.009  0.6127 -1.4706  0.0116
  754MOL0     H 4050   0.277   6.538  10.127  0.5296  2.7081 -0.7486
  754MOL0     H 4051   0.207   6.430  10.010 -3.0573  2.6719  2.2238
  754MOL0     H 4052   0.386   6.423  10.046 -0.4041 -0.1453 -2.5086
  755MOL0     O 4053   5.362   9.073   8.555  0.1802  0.6225  0.5517
  755MOL0     C 4054   5.352   9.049   8.673  0.2025 -0.3075 -0.1231
  755MOL0     O 4055   5.453   9.077   8.772  0.1733  0.1374 -0.0171
  755MOL0     C 4056   5.565   9.143   8.730 -0.1088 -0.2799 -0.1172
  755MOL0     C 4057   5.564   9.277   8.702 -0.3232  0.4327 -0.2458
  755MOL0     C 4058   5.685   9.338   8.671 -0.3433  0.1444 -0.1507
  755MOL0     C 4059   5.808   9.272   8.667  0.1247 -0.6019  0.1431
  755MOL0     O 4060   5.923   9.350   8.636 -0.2346  0.4792  0.2049
  755MOL0     C 4061   6.051   9.296   8.661  0.0982  0.3446  0.4903
  755MOL0     C 4062   6.115   9.224   8.545  0.0661 -0.3738  0.6530
  755MOL0     C 4063   6.267   9.184   8.561  0.2777 -0.1588 -0.2172
  755MOL0     C 4064   6.363   9.304   8.575  0.0944  0.3186  0.5817
  755MOL0     C 4065   6.514   9.261   8.564  0.3071 -0.2003  0.5349
  755MOL0     C 4066   6.579   9.211   8.696 -0.5456 -0.2208 -0.0593
  755MOL0     C 4067   6.736   9.226   8.698  0.1292  0.1613  0.3987
  755MOL0     C 4068   6.802   9.124   8.606 -0.3691 -0.0527 -0.2671
  755MOL0     N 4069   6.942   9.145   8.599 -0.4846  0.7183  0.2168
  755MOL0     C 4070   7.020   9.055   8.533 -0.3448 -0.8675 -0.2587
  755MOL0     C 4071   7.144   9.102   8.548  0.1121  0.4861 -0.5658
  755MOL0     C 4072   7.273   9.043   8.489  1.4690  0.8401 -1.0354
  755MOL0     C 4073   7.276   9.053   8.340 -0.1922  0.0636 -0.3967
  755MOL0     C 4074   7.416   9.043   8.279 -0.0805 -0.6071 -0.3513
  755MOL0     C 4075   7.468   8.902   8.281  1.0135  0.4557 -0.2586
  755MOL0     O 4076   7.546   8.902   8.398  0.0874  0.5520  0.0046
  755MOL0     C 4077   7.678   8.938   8.393  0.6644 -0.1398 -0.1113
  755MOL0     C 4078   7.758   8.894   8.505 -0.7885 -0.0274  0.8350
  755MOL0     C 4079   7.902   8.919   8.527  1.0296  0.6743 -0.2673
  755MOL0     C 4080   7.963   8.881   8.655 -0.3969  0.3577 -0.2824
  755MOL0     C 4081   7.973   8.978   8.425  0.0805 -0.6515  0.3523
  755MOL0     C 4082   8.123   8.987   8.431  0.1158  0.5226 -0.1068
  755MOL0     O 4083   8.194   8.898   8.503  0.4201 -0.4006 -0.1064
  755MOL0     C 4084   8.331   8.919   8.509  0.0939 -0.4446  0.1641
  755MOL0     C 4085   8.387   9.038   8.559 -0.3606 -0.7339  0.1996
  755MOL0     C 4086   8.521   9.063   8.575  0.4885  0.2687 -0.6046
  755MOL0     C 4087   8.613   8.965   8.544 -0.6594 -0.0768 -0.2393
  755MOL0     O 4088   8.743   8.990   8.581 -0.2507 -0.2592 -0.5908
  755MOL0     C 4089   8.828   8.978   8.467 -0.5636 -0.2964  0.1543
  755MOL0     C 4090   8.880   9.121   8.432  0.2906 -0.4384 -0.0466
  755MOL0     C 4091   9.001   9.102   8.334 -0.3600 -0.2994  0.2290
  755MOL0     C 4092   9.046   9.233   8.269  0.1418 -0.2852 -0.5250
  755MOL0     C 4093   9.162   9.208   8.180 -0.3242  0.7634 -0.2488
  755MOL0     C 4094   9.242   9.332   8.136  0.0460  0.1207 -0.4324
  755MOL0     C 4095   9.387   9.294   8.090 -0.1504  0.0771 -0.3151
  755MOL0     C 4096   9.463   9.398   8.014 -0.1867 -0.2522 -0.9292
  755MOL0    Cl 4097   9.469   9.553   8.095  0.1361  0.0218  0.2946
  755MOL0     C 4098   8.559   8.847   8.498  0.0734 -0.5751 -0.3456
  755MOL0     C 4099   8.421   8.822   8.480 -0.1805 -0.1574  0.8021
  755MOL0     O 4100   8.168   9.071   8.355  0.4219  0.3182  0.5068
  755MOL0     C 4101   7.891   9.020   8.310 -0.1835  0.0933 -0.1280
  755MOL0     C 4102   7.752   9.007   8.295  0.3980  0.8616  0.2228
  755MOL0     N 4103   7.136   9.216   8.623  0.3643  0.3020  0.1241
  755MOL0     N 4104   7.016   9.238   8.668 -0.4703 -0.4430 -0.2055
  755MOL0     C 4105   5.805   9.135   8.698  0.3360 -0.4376 -0.0405
  755MOL0     C 4106   5.685   9.072   8.725 -0.0064  0.2373 -0.3374
  755MOL0     C 4107   5.219   8.993   8.722  0.0363 -0.0310 -0.1537
  755MOL0     C 4108   5.199   8.982   8.864  0.1361 -0.3264 -0.1099
  755MOL0     C 4109   5.083   8.938   8.917  0.1261 -0.3328  0.3034
  755MOL0     C 4110   4.971   8.915   8.840 -0.4346 -0.2447  0.3070
  755MOL0     O 4111   4.855   8.866   8.899 -0.6396 -0.2416  0.0789
  755MOL0     C 4112   4.871   8.731   8.951  0.0966 -0.5526  0.4614
  755MOL0     C 4113   4.737   8.679   8.998 -0.2312  0.2150  0.4156
  755MOL0     C 4114   4.691   8.763   9.116 -0.1333  0.4788 -0.1758
  755MOL0     C 4115   4.540   8.741   9.134 -0.1644  0.1534  0.5016
  755MOL0     C 4116   4.479   8.794   9.256 -0.0211 -0.0106 -0.0632
  755MOL0     C 4117   4.449   8.845   9.366 -0.7463 -0.0969 -0.6961
  755MOL0     C 4118   4.979   8.923   8.703  0.1785  0.8069 -0.2058
  755MOL0     C 4119   5.100   8.957   8.641  0.5968 -0.0605  0.2536
  755MOL0     C 4120   5.103   8.957   8.495  0.2100 -0.4926  0.3486
  755MOL0     H 4121   5.469   9.330   8.710 -0.3587  0.7269 -2.0375
  755MOL0     H 4122   5.682   9.447   8.674 -1.0863  0.1066  1.1153
  755MOL0     H 4123   6.051   9.229   8.747  2.2572  0.2718  0.4934
  755MOL0     H 4124   6.119   9.377   8.692  1.5497 -0.7361  0.2353
  755MOL0     H 4125   6.060   9.137   8.509 -0.8961 -0.1679  1.5951
  755MOL0     H 4126   6.111   9.296   8.463  0.6817 -1.0466  0.0113
  755MOL0     H 4127   6.282   9.113   8.644 -0.9509  0.9363  1.0012
  755MOL0     H 4128   6.302   9.135   8.470 -0.8042  1.8902 -1.7870
  755MOL0     H 4129   6.345   9.373   8.492  0.1096 -1.4630 -0.9743
  755MOL0     H 4130   6.363   9.351   8.673  0.2268 -0.8647  1.1650
  755MOL0     H 4131   6.555   9.357   8.530 -0.2681 -0.0042  0.3830
  755MOL0     H 4132   6.544   9.198   8.480 -1.4564  3.1968 -2.9778
  755MOL0     H 4133   6.548   9.277   8.778  1.8015 -0.1516  0.8562
  755MOL0     H 4134   6.543   9.109   8.710 -1.5194 -0.0527 -1.1368
  755MOL0     H 4135   6.769   9.202   8.800 -2.0065  0.3587  1.1784
  755MOL0     H 4136   6.754   9.332   8.682  0.0008 -0.1323 -2.0423
  755MOL0     H 4137   6.783   9.025   8.649 -1.2749  0.4046  0.4228
  755MOL0     H 4138   6.769   9.132   8.502 -0.2792  0.9874 -0.2252
  755MOL0     H 4139   6.995   8.959   8.491  0.2133 -0.5868 -1.2475
  755MOL0     H 4140   7.275   8.937   8.516  3.3463  1.3460  1.2406
  755MOL0     H 4141   7.357   9.096   8.537 -0.3039  0.7340  2.5018
  755MOL0     H 4142   7.208   8.979   8.296 -1.3691  2.4427 -2.8965
  755MOL0     H 4143   7.233   9.147   8.305  0.6546  0.3103 -0.8148
  755MOL0     H 4144   7.421   9.074   8.174  0.4173  0.1338 -0.1121
  755MOL0     H 4145   7.489   9.108   8.328  1.8370 -2.5469 -0.4792
  755MOL0     H 4146   7.385   8.831   8.283  0.3843  1.1667  1.7737
  755MOL0     H 4147   7.527   8.882   8.191  1.4119  1.3864 -0.2224
  755MOL0     H 4148   7.704   8.836   8.579 -0.9946  0.6354  1.2173
  755MOL0     H 4149   8.018   8.964   8.702  0.4516  0.6175 -1.6738
  755MOL0     H 4150   8.027   8.798   8.625 -0.2811  1.2070 -2.5423
  755MOL0     H 4151   7.885   8.840   8.720 -1.2359  1.4635 -0.5621
  755MOL0     H 4152   8.322   9.114   8.601  0.0159 -1.9174  3.1581
  755MOL0     H 4153   8.544   9.164   8.608 -3.4140  0.4301  2.3169
  755MOL0     H 4154   8.916   8.917   8.489 -0.7142 -0.4403  0.3598
  755MOL0     H 4155   8.774   8.932   8.383 -1.5086 -3.3889  2.2584
  755MOL0     H 4156   8.810   9.194   8.390  0.7741  0.9041  1.4061
  755MOL0     H 4157   8.911   9.175   8.521  0.3139 -2.5221  1.2794
  755MOL0     H 4158   8.966   9.030   8.260 -0.3654 -1.0449  0.9347
  755MOL0     H 4159   9.092   9.066   8.385 -0.2245 -2.8558 -1.5906
  755MOL0     H 4160   9.067   9.309   8.346 -1.2497  0.7047 -1.0660
  755MOL0     H 4161   8.960   9.277   8.218 -1.2021 -1.0159  0.9971
  755MOL0     H 4162   9.233   9.132   8.216 -1.0408 -0.6678 -1.7349
  755MOL0     H 4163   9.127   9.158   8.090  1.3108 -0.7462 -0.1258
  755MOL0     H 4164   9.244   9.399   8.222 -0.7324 -0.1742 -0.1770
  755MOL0     H 4165   9.190   9.384   8.054  0.0585  0.1128 -0.4456
  755MOL0     H 4166   9.365   9.216   8.016 -0.6822  0.9268 -1.0846
  755MOL0     H 4167   9.445   9.254   8.173 -1.1503 -0.2279  0.2521
  755MOL0     H 4168   9.410   9.424   7.921 -1.3786 -2.3072 -0.8839
  755MOL0     H 4169   9.564   9.359   8.000  0.1029  0.2810 -0.3137
  755MOL0     H 4170   8.622   8.759   8.485  1.7980  0.3191  1.3735
  755MOL0     H 4171   8.391   8.725   8.442 -1.6669  1.2303 -1.8687
  755MOL0     H 4172   7.939   9.067   8.225 -1.3670 -0.5686 -1.2093
  755MOL0     H 4173   7.695   9.028   8.205  0.4780  1.2860  0.2697
  755MOL0     H 4174   5.896   9.076   8.692 -1.3116 -2.9638 -1.9635
  755MOL0     H 4175   5.702   8.965   8.733 -1.1068 -0.0343 -1.3549
  755MOL0     H 4176   5.289   8.991   8.924 -0.8336 -0.2858  1.3788
  755MOL0     H 4177   5.077   8.924   9.025 -0.5559 -0.4166  0.2560
  755MOL0     H 4178   4.902   8.675   8.863  0.7065  1.2597 -0.5323
  755MOL0     H 4179   4.947   8.727   9.029 -0.2227  1.7694  0.9943
  755MOL0     H 4180   4.745   8.576   9.035  0.5863 -0.4242 -1.4512
  755MOL0     H 4181   4.656   8.680   8.925  0.2442  0.7004 -0.1065
  755MOL0     H 4182   4.745   8.737   9.207 -1.0665 -0.9421 -0.0026
  755MOL0     H 4183   4.708   8.869   9.094 -0.0297  0.3464 -0.7555
  755MOL0     H 4184   4.517   8.634   9.134  0.1797  0.0494  2.3239
  755MOL0     H 4185   4.484   8.788   9.052 -0.7810 -1.4599 -0.0357
  755MOL0     H 4186   4.433   8.884   9.465 -3.4551 -2.7706  0.0915
  755MOL0     H 4187   4.888   8.888   8.654  1.4441 -0.3168 -1.8744
  755MOL0     H 4188   5.071   9.055   8.458 -0.7969  0.1477  2.7347
  755MOL0     H 4189   5.201   8.923   8.460  0.0917 -1.0335  0.5352
  755MOL0     H 4190   5.042   8.878   8.451  1.4952 -1.4000  0.1378
  756MOL0     O 4191   5.606   6.497   4.318  0.9323  0.7772  0.2125
  756MOL0     C 4192   5.520   6.476   4.233 -0.5032  0.1512  0.4194
  756MOL0     O 4193   5.528   6.486   4.093 -0.8695  1.0422 -0.5401
  756MOL0     C 4194   5.615   6.591   4.064 -0.7132  0.5204  0.3584
  756MOL0     C 4195   5.750   6.566   4.037  0.1566  0.4069  0.1381
  756MOL0     C 4196   5.832   6.677   3.997 -0.2225  0.0559  1.1070
  756MOL0     C 4197   5.778   6.806   3.985  0.2469  0.9761 -0.5038
  756MOL0     O 4198   5.857   6.900   3.929  0.2656  0.5052  1.3468
  756MOL0     C 4199   5.814   7.032   3.904 -0.0024 -0.0142 -0.2840
  756MOL0     C 4200   5.906   7.103   3.807  0.7760  0.1910 -0.4642
  756MOL0     C 4201   6.033   7.148   3.870  0.3815  0.0484 -0.0213
  756MOL0     C 4202   6.114   7.225   3.771  0.4869 -0.8361  0.0950
  756MOL0     C 4203   6.260   7.237   3.801  0.4214 -0.0702 -1.1599
  756MOL0     C 4204   6.337   7.296   3.680  0.3481 -0.3871 -0.1386
  756MOL0     C 4205   6.486   7.320   3.709 -0.2579  0.3958 -0.9761
  756MOL0     C 4206   6.568   7.328   3.579  0.0507  0.3609 -0.8120
  756MOL0     N 4207   6.706   7.380   3.618  0.1964  0.4972  0.3902
  756MOL0     C 4208   6.746   7.508   3.648 -0.1982  0.0173 -0.2426
  756MOL0     C 4209   6.876   7.501   3.681  0.0601  0.2069  0.0647
  756MOL0     C 4210   6.961   7.631   3.702 -0.1204  0.2442 -0.9325
  756MOL0     C 4211   7.089   7.633   3.628  0.3531  1.0389 -0.4390
  756MOL0     C 4212   7.165   7.752   3.678  0.0070 -0.2364 -0.4270
  756MOL0     C 4213   7.295   7.772   3.605  0.3897 -0.2610 -0.0508
  756MOL0     O 4214   7.259   7.839   3.481  0.0166 -0.5499 -0.3386
  756MOL0     C 4215   7.360   7.874   3.389  0.5628  0.9573 -0.2158
  756MOL0     C 4216   7.493   7.835   3.397 -0.5349 -0.4039 -0.6936
  756MOL0     C 4217   7.582   7.867   3.300 -0.9141  0.5008  0.5196
  756MOL0     C 4218   7.722   7.823   3.324  0.2309 -0.6770 -0.0557
  756MOL0     C 4219   7.545   7.954   3.194  0.1498 -0.0936  0.0780
  756MOL0     C 4220   7.641   8.010   3.092 -0.2869 -0.7253  0.5604
  756MOL0     O 4221   7.579   8.098   2.997  0.0175  0.6998 -0.1973
  756MOL0     C 4222   7.647   8.158   2.891 -0.1067 -0.3708  0.2745
  756MOL0     C 4223   7.697   8.074   2.794  0.1334  0.9223 -0.0392
  756MOL0     C 4224   7.734   8.129   2.673  0.6287  0.5978  0.1460
  756MOL0     C 4225   7.735   8.271   2.655 -0.2352 -0.7384 -0.3390
  756MOL0     O 4226   7.799   8.313   2.544  0.9294  0.1406 -0.2321
  756MOL0     C 4227   7.714   8.399   2.468 -0.0285 -0.2613 -0.3338
  756MOL0     C 4228   7.770   8.543   2.468 -0.1850 -0.7065  1.4523
  756MOL0     C 4229   7.914   8.562   2.403 -0.2112  0.2363 -0.9100
  756MOL0     C 4230   7.925   8.568   2.250  0.1163  0.1507  0.1797
  756MOL0     C 4231   8.071   8.583   2.197  0.0506 -0.1062 -0.5706
  756MOL0     C 4232   8.165   8.455   2.227  0.3429 -0.2563  0.4533
  756MOL0     C 4233   8.283   8.482   2.143 -0.3436  0.2701  0.1831
  756MOL0     C 4234   8.421   8.417   2.189  1.2261  0.4519  0.7758
  756MOL0    Cl 4235   8.405   8.240   2.177 -0.2005 -0.2442  0.2138
  756MOL0     C 4236   7.696   8.361   2.758  0.1252  0.1073 -0.1260
  756MOL0     C 4237   7.644   8.300   2.876 -0.9366  0.3304  0.2489
  756MOL0     O 4238   7.765   7.999   3.106  0.4294 -0.0945  0.7241
  756MOL0     C 4239   7.405   7.996   3.184 -0.5663  0.3101 -0.3423
  756MOL0     C 4240   7.316   7.960   3.287 -0.2601  0.7087  0.4555
  756MOL0     N 4241   6.922   7.373   3.661  0.7844 -0.7122 -0.1065
  756MOL0     N 4242   6.823   7.300   3.626  0.3184 -0.2951  0.5957
  756MOL0     C 4243   5.648   6.833   4.023  0.3650 -0.0506 -0.4776
  756MOL0     C 4244   5.566   6.728   4.062  0.1315 -0.0875 -0.4889
  756MOL0     C 4245   5.398   6.405   4.275  1.1674  0.0230  0.0862
  756MOL0     C 4246   5.274   6.447   4.224  0.2208 -1.3589  0.6977
  756MOL0     C 4247   5.160   6.408   4.282  0.7108 -0.0657  0.6449
  756MOL0     C 4248   5.145   6.308   4.380 -0.0924  0.0474  0.3773
  756MOL0     O 4249   5.022   6.258   4.431 -0.4511  1.2048 -0.3627
  756MOL0     C 4250   4.900   6.292   4.371  0.1810 -0.2168  1.1168
  756MOL0     C 4251   4.773   6.265   4.454 -0.3045  0.9214  0.3923
  756MOL0     C 4252   4.753   6.115   4.465 -0.0494 -0.1522  1.1255
  756MOL0     C 4253   4.640   6.068   4.558 -0.6220 -0.7900 -0.4035
  756MOL0     C 4254   4.507   6.121   4.536  0.5004 -0.2622  0.5418
  756MOL0     C 4255   4.386   6.154   4.521 -0.0727  0.0408 -0.3553
  756MOL0     C 4256   5.264   6.259   4.434  0.5288  0.7824 -0.5096
  756MOL0     C 4257   5.391   6.309   4.388 -0.6233  0.2299  0.2428
  756MOL0     C 4258   5.523   6.259   4.455  0.2360  0.2699 -0.7195
  756MOL0     H 4259   5.801   6.471   4.049 -0.8038  0.0460  1.5240
  756MOL0     H 4260   5.935   6.656   3.972 -1.0575 -3.4642  0.0750
  756MOL0     H 4261   5.807   7.087   3.999 -0.1450 -0.6959  0.1070
  756MOL0     H 4262   5.715   7.029   3.858  0.8051 -2.4718 -2.0838
  756MOL0     H 4263   5.926   7.029   3.728  0.1820  0.0774 -0.5140
  756MOL0     H 4264   5.856   7.184   3.753  3.4729  1.4284 -1.3017
  756MOL0     H 4265   6.012   7.195   3.966 -0.3531 -1.3236  0.5187
  756MOL0     H 4266   6.088   7.057   3.895  3.6330  1.5877 -0.9524
  756MOL0     H 4267   6.101   7.196   3.666  0.1086 -0.6340  0.0850
  756MOL0     H 4268   6.062   7.321   3.777  0.2607 -0.9528  0.0154
  756MOL0     H 4269   6.302   7.138   3.820  0.6899  0.5681  2.1135
  756MOL0     H 4270   6.277   7.296   3.892 -0.3829  0.4235 -1.3215
  756MOL0     H 4271   6.324   7.226   3.597 -1.1157 -0.6919  0.3168
  756MOL0     H 4272   6.297   7.394   3.653  1.1525  0.6028  1.9749
  756MOL0     H 4273   6.533   7.243   3.770  2.5058  2.4116 -0.3485
  756MOL0     H 4274   6.490   7.410   3.772  0.7849 -0.6947  0.5885
  756MOL0     H 4275   6.584   7.231   3.531 -0.1386  1.0598 -2.3391
  756MOL0     H 4276   6.528   7.392   3.500 -0.3576 -0.6811 -1.4563
  756MOL0     H 4277   6.680   7.593   3.638 -0.6883 -0.5617 -2.4428
  756MOL0     H 4278   6.971   7.636   3.811  1.4997  1.5676 -1.1149
  756MOL0     H 4279   6.915   7.727   3.679  2.9836  2.1452  0.1560
  756MOL0     H 4280   7.152   7.544   3.635  2.7160  2.6453 -0.0307
  756MOL0     H 4281   7.058   7.646   3.524  1.3034  0.9466 -0.7438
  756MOL0     H 4282   7.111   7.845   3.698  0.0615 -0.4897  0.9864
  756MOL0     H 4283   7.199   7.728   3.779 -0.9133  1.9615  0.4680
  756MOL0     H 4284   7.361   7.822   3.676 -0.5922 -2.0535  2.2597
  756MOL0     H 4285   7.338   7.678   3.570 -0.6543 -0.7207 -0.1206
  756MOL0     H 4286   7.534   7.769   3.473 -1.3973 -2.5283 -1.9838
  756MOL0     H 4287   7.777   7.916   3.340  2.5284 -2.1174  0.8283
  756MOL0     H 4288   7.759   7.786   3.228 -1.3036  1.3907 -1.5265
  756MOL0     H 4289   7.738   7.764   3.415 -1.0974  3.1447  2.9577
  756MOL0     H 4290   7.673   7.969   2.808 -2.0051  1.3636 -0.0109
  756MOL0     H 4291   7.752   8.074   2.581 -2.5710 -1.4297  0.5896
  756MOL0     H 4292   7.724   8.356   2.368 -1.2922 -0.4662 -0.3781
  756MOL0     H 4293   7.609   8.400   2.499  0.0701 -0.7028  0.0242
  756MOL0     H 4294   7.703   8.618   2.426  0.8815 -0.5681 -0.0855
  756MOL0     H 4295   7.792   8.578   2.569  0.8361  0.6993  0.7685
  756MOL0     H 4296   7.965   8.473   2.441  0.8621  2.2926  2.9903
  756MOL0     H 4297   7.955   8.650   2.454 -1.8828 -0.0829  1.1251
  756MOL0     H 4298   7.856   8.650   2.227 -0.8573 -0.5387  0.5741
  756MOL0     H 4299   7.870   8.484   2.206 -3.6850  1.2395  2.4128
  756MOL0     H 4300   8.070   8.593   2.088  0.8840 -0.1688 -0.5928
  756MOL0     H 4301   8.118   8.674   2.236 -0.0279  0.2707 -1.3329
  756MOL0     H 4302   8.123   8.363   2.185  2.5120 -0.7598 -0.7518
  756MOL0     H 4303   8.197   8.438   2.331  1.9498  1.2668  0.2549
  756MOL0     H 4304   8.298   8.590   2.154 -1.6856  0.6108 -1.0181
  756MOL0     H 4305   8.257   8.468   2.038  2.8055 -1.6049 -0.4722
  756MOL0     H 4306   8.458   8.454   2.285 -0.4409  0.2981  1.5057
  756MOL0     H 4307   8.499   8.453   2.121 -0.3417 -0.1092 -1.4227
  756MOL0     H 4308   7.699   8.469   2.749 -2.9313  0.3071  0.3250
  756MOL0     H 4309   7.602   8.364   2.953 -1.2761  1.5921 -0.9402
  756MOL0     H 4310   7.366   8.065   3.110 -0.0434 -0.7658 -1.6635
  756MOL0     H 4311   7.218   8.005   3.299  0.5554  2.1896  2.0980
  756MOL0     H 4312   5.601   6.929   4.039 -0.0803 -0.6051  2.0101
  756MOL0     H 4313   5.466   6.749   4.097 -0.4307 -1.1588 -1.3644
  756MOL0     H 4314   5.274   6.526   4.149 -1.3260 -0.7647  1.2925
  756MOL0     H 4315   5.073   6.459   4.244 -1.7216 -2.2566  2.8254
  756MOL0     H 4316   4.902   6.401   4.360 -1.0060 -0.3493 -1.1499
  756MOL0     H 4317   4.901   6.237   4.276  1.3879  1.0070  0.3895
  756MOL0     H 4318   4.684   6.312   4.412  0.3337  1.5813 -0.2459
  756MOL0     H 4319   4.794   6.317   4.548  1.1771  2.5201 -0.7688
  756MOL0     H 4320   4.737   6.059   4.372 -0.9193 -1.5055  2.0445
  756MOL0     H 4321   4.844   6.070   4.504  0.0053  0.6957  2.0001
  756MOL0     H 4322   4.664   6.085   4.663 -1.2557  0.4143 -0.4342
  756MOL0     H 4323   4.637   5.959   4.552  1.4815 -0.9910  1.1484
  756MOL0     H 4324   4.286   6.183   4.496 -0.7319  0.5452  2.4659
  756MOL0     H 4325   5.266   6.190   4.518  0.8163 -1.4455 -2.2471
  756MOL0     H 4326   5.581   6.342   4.497 -1.5637  0.2144  2.1161
  756MOL0     H 4327   5.501   6.184   4.532 -1.6226 -0.4378 -1.8734
  756MOL0     H 4328   5.580   6.218   4.371 -0.5542 -0.5889 -0.8596
  757MOL0     O 4329   5.512  10.236   2.547 -0.1230 -0.1486  0.3119
  757MOL0     C 4330   5.408  10.238   2.490  0.8017 -0.7047  0.0863
  757MOL0     O 4331   5.309  10.140   2.489  0.1263 -0.8412  0.3050
  757MOL0     C 4332   5.339  10.005   2.493  0.2231 -0.8307 -0.5854
  757MOL0     C 4333   5.457   9.952   2.530  0.6768  0.7380  0.0386
  757MOL0     C 4334   5.479   9.814   2.526 -0.0510 -0.1908  0.1821
  757MOL0     C 4335   5.381   9.735   2.471 -0.0303  0.3379 -0.1203
  757MOL0     O 4336   5.422   9.602   2.443  0.2306 -0.1598 -0.9343
  757MOL0     C 4337   5.314   9.519   2.395 -0.5484 -0.0934 -0.3206
  757MOL0     C 4338   5.342   9.364   2.412 -0.2464 -0.5974  0.2569
  757MOL0     C 4339   5.464   9.316   2.323 -0.0646  0.2386 -0.3678
  757MOL0     C 4340   5.420   9.289   2.185 -0.2949 -0.4541  0.2330
  757MOL0     C 4341   5.534   9.233   2.086 -0.4529 -0.5764  0.9883
  757MOL0     C 4342   5.587   9.096   2.124 -0.0190 -0.1700 -0.4781
  757MOL0     C 4343   5.694   9.049   2.026  0.1559 -0.7331 -0.3342
  757MOL0     C 4344   5.778   8.946   2.089 -0.5545  0.1873  0.6529
  757MOL0     N 4345   5.878   8.895   1.987 -0.5464 -0.7333 -0.2707
  757MOL0     C 4346   5.951   8.970   1.895  0.6321  0.0529 -0.6972
  757MOL0     C 4347   6.036   8.884   1.836  0.5105 -0.2401  0.6942
  757MOL0     C 4348   6.123   8.933   1.719  0.1463 -0.0409 -0.6653
  757MOL0     C 4349   6.260   8.957   1.789 -0.5263 -0.8011 -0.1834
  757MOL0     C 4350   6.355   9.010   1.684  0.6590  0.5463 -0.3620
  757MOL0     C 4351   6.495   9.029   1.741 -0.5198 -0.2194 -0.5741
  757MOL0     O 4352   6.570   8.911   1.762  0.3635  0.1377  0.1282
  757MOL0     C 4353   6.697   8.919   1.827 -0.7389  0.4845  0.4242
  757MOL0     C 4354   6.750   8.791   1.870  0.3906  0.5733  0.2091
  757MOL0     C 4355   6.879   8.772   1.924 -0.6663 -0.2632 -0.2785
  757MOL0     C 4356   6.919   8.632   1.966 -0.4119 -0.1868 -0.1691
  757MOL0     C 4357   6.959   8.891   1.954  0.3809 -0.0783 -0.2118
  757MOL0     C 4358   7.090   8.883   2.029  0.3678  0.2093 -0.1670
  757MOL0     O 4359   7.138   8.996   2.073  0.0686 -0.5955  0.2365
  757MOL0     C 4360   7.274   9.003   2.112  0.7550 -0.6270  0.1075
  757MOL0     C 4361   7.356   9.111   2.062  0.0171 -0.3205  0.3996
  757MOL0     C 4362   7.482   9.132   2.109 -0.2782 -0.5500 -0.2458
  757MOL0     C 4363   7.538   9.042   2.200 -0.3648  0.5627  0.3603
  757MOL0     O 4364   7.669   9.050   2.241  0.2738 -0.7371  0.0665
  757MOL0     C 4365   7.737   9.175   2.231  0.0412  0.0954  0.5507
  757MOL0     C 4366   7.863   9.174   2.316 -0.3322  0.5295  0.6485
  757MOL0     C 4367   7.945   9.049   2.279 -0.7154 -0.4314  0.7592
  757MOL0     C 4368   8.092   9.055   2.335  0.2454  0.6288 -0.2966
  757MOL0     C 4369   8.162   8.920   2.343 -0.6663 -0.1688 -0.1020
  757MOL0     C 4370   8.304   8.942   2.394  0.1507  0.4474 -0.0739
  757MOL0     C 4371   8.399   8.818   2.400 -0.0347  0.0933 -0.1591
  757MOL0     C 4372   8.538   8.855   2.467  0.2066 -1.2945  0.2047
  757MOL0    Cl 4373   8.635   8.899   2.336  0.4343 -0.0675  0.3284
  757MOL0     C 4374   7.460   8.942   2.254 -0.6453 -0.2259 -0.1895
  757MOL0     C 4375   7.327   8.919   2.215 -0.7958 -0.0601  0.5086
  757MOL0     O 4376   7.147   8.775   2.022  0.3503  0.1645  0.5112
  757MOL0     C 4377   6.905   9.021   1.900 -0.3829  0.3912  0.0865
  757MOL0     C 4378   6.781   9.033   1.837 -0.0948  0.6577 -0.1836
  757MOL0     N 4379   6.004   8.762   1.881  0.5852 -0.8406  0.1403
  757MOL0     N 4380   5.913   8.765   1.975  0.3670 -0.4921  0.2426
  757MOL0     C 4381   5.263   9.788   2.437 -0.4630  0.2536  0.8601
  757MOL0     C 4382   5.236   9.922   2.452  0.2911  0.9239 -0.2896
  757MOL0     C 4383   5.380  10.360   2.409  0.1264 -0.4849 -0.1733
  757MOL0     C 4384   5.284  10.352   2.299 -0.7181 -0.0365  0.0156
  757MOL0     C 4385   5.280  10.459   2.203  0.0440  0.8162 -0.9327
  757MOL0     C 4386   5.367  10.572   2.215  0.7108 -0.1212 -1.3611
  757MOL0     O 4387   5.388  10.674   2.131  0.1501  0.5326 -0.3579
  757MOL0     C 4388   5.383  10.642   1.992 -0.1652 -0.5569  0.4522
  757MOL0     C 4389   5.371  10.773   1.912  0.8679  0.0057 -0.3239
  757MOL0     C 4390   5.397  10.739   1.762 -0.0587 -0.2924 -0.0244
  757MOL0     C 4391   5.346  10.850   1.660 -0.6886 -0.2281 -0.3773
  757MOL0     C 4392   5.425  10.978   1.680 -0.3665 -0.7217  0.4809
  757MOL0     C 4393   5.498  11.066   1.704 -1.9026  0.4578  0.4742
  757MOL0     C 4394   5.432  10.588   2.337 -0.3917  0.5319  0.2336
  757MOL0     C 4395   5.443  10.485   2.432  0.5099 -0.3838  0.8515
  757MOL0     C 4396   5.527  10.517   2.551 -0.6123 -0.0951 -0.0227
  757MOL0     H 4397   5.538  10.018   2.562  2.0381 -1.1815  0.7586
  757MOL0     H 4398   5.572   9.771   2.563  0.1585  0.8444  0.8885
  757MOL0     H 4399   5.290   9.545   2.291  2.5111  0.2830 -1.0090
  757MOL0     H 4400   5.236   9.541   2.469 -0.6967 -0.3858 -0.3873
  757MOL0     H 4401   5.363   9.345   2.517 -3.6085 -1.5615  0.8844
  757MOL0     H 4402   5.256   9.303   2.380 -1.2187  1.0500 -0.4165
  757MOL0     H 4403   5.551   9.382   2.323 -0.5818  0.9404 -0.0113
  757MOL0     H 4404   5.490   9.215   2.356 -2.6484  0.1196  1.6070
  757MOL0     H 4405   5.336   9.218   2.185 -1.3030  0.5568  3.3158
  757MOL0     H 4406   5.384   9.386   2.151 -1.3999  0.1199  2.7660
  757MOL0     H 4407   5.612   9.310   2.087 -2.0789  1.1640 -0.1299
  757MOL0     H 4408   5.489   9.227   1.987 -3.6176  0.9180  2.2032
  757MOL0     H 4409   5.623   9.098   2.227  1.3437 -0.9861 -0.9137
  757MOL0     H 4410   5.505   9.025   2.110  0.4386 -0.3076 -3.2262
  757MOL0     H 4411   5.763   9.125   1.988 -0.1369 -0.6410 -0.6900
  757MOL0     H 4412   5.635   8.997   1.950 -2.1021  0.2785  0.6517
  757MOL0     H 4413   5.834   8.991   2.171  0.8201 -1.4752  0.6816
  757MOL0     H 4414   5.713   8.864   2.122  0.4418  0.2333  2.9218
  757MOL0     H 4415   5.938   9.075   1.874 -0.0736  0.4380  1.4833
  757MOL0     H 4416   6.084   9.029   1.684 -1.2236 -0.2651  0.1873
  757MOL0     H 4417   6.133   8.864   1.635 -2.1669 -0.1673 -0.9022
  757MOL0     H 4418   6.239   9.028   1.870 -0.1168 -2.7520  1.7021
  757MOL0     H 4419   6.299   8.863   1.828 -0.4006 -0.9785 -0.7208
  757MOL0     H 4420   6.359   8.956   1.588 -0.5269  1.6352 -1.0472
  757MOL0     H 4421   6.318   9.109   1.655 -1.4865  0.2868  1.2812
  757MOL0     H 4422   6.547   9.093   1.669  1.9452  0.7869  1.9098
  757MOL0     H 4423   6.506   9.075   1.840  1.0752 -1.4864 -0.1143
  757MOL0     H 4424   6.696   8.700   1.847  1.8465 -0.3585  0.3333
  757MOL0     H 4425   6.957   8.622   2.068 -0.6586  1.9210  0.1708
  757MOL0     H 4426   6.991   8.594   1.892 -0.2105  0.7957 -0.4943
  757MOL0     H 4427   6.825   8.575   1.969 -1.4852  1.5349  0.4518
  757MOL0     H 4428   7.314   9.177   1.986 -0.4229 -0.1625  0.7786
  757MOL0     H 4429   7.541   9.207   2.057 -0.9704  0.0411 -0.1881
  757MOL0     H 4430   7.761   9.195   2.126  0.1614 -0.1006  0.5407
  757MOL0     H 4431   7.680   9.257   2.277  2.0464  1.1143  1.3030
  757MOL0     H 4432   7.927   9.258   2.287  1.1247 -1.2452 -1.7015
  757MOL0     H 4433   7.839   9.185   2.422 -0.8706  2.2012  0.3790
  757MOL0     H 4434   7.938   9.022   2.173 -1.8474 -2.5521  1.3065
  757MOL0     H 4435   7.895   8.966   2.330 -0.7597 -0.5157  0.5800
  757MOL0     H 4436   8.086   9.096   2.436  0.1612 -1.4275  0.5940
  757MOL0     H 4437   8.145   9.130   2.276 -0.1096  0.7797 -0.4234
  757MOL0     H 4438   8.115   8.853   2.416 -3.1901  0.7362 -0.7765
  757MOL0     H 4439   8.166   8.876   2.244  1.6740 -1.8183  0.6526
  757MOL0     H 4440   8.305   8.977   2.497  0.5024 -1.8858  0.7816
  757MOL0     H 4441   8.342   9.018   2.326 -3.1807  0.4416 -2.2024
  757MOL0     H 4442   8.413   8.774   2.301  1.9502 -2.3885  1.1122
  757MOL0     H 4443   8.352   8.737   2.457  0.3931 -0.2178 -0.2473
  757MOL0     H 4444   8.588   8.782   2.532 -1.5009 -1.1605  1.7718
  757MOL0     H 4445   8.528   8.942   2.533  0.3536  0.0245 -1.4584
  757MOL0     H 4446   7.503   8.865   2.317 -1.5438 -1.6843 -1.2808
  757MOL0     H 4447   7.279   8.830   2.255  0.5086 -1.6302 -1.2614
  757MOL0     H 4448   6.960   9.114   1.915 -0.7560  1.0746 -2.2555
  757MOL0     H 4449   6.751   9.131   1.801  0.0904  0.4856 -0.8088
  757MOL0     H 4450   5.190   9.739   2.373 -0.1054  2.0031 -1.0140
  757MOL0     H 4451   5.140   9.964   2.425 -0.3956 -1.0698 -1.0500
  757MOL0     H 4452   5.233  10.259   2.276  1.3099 -2.1382  3.1950
  757MOL0     H 4453   5.207  10.457   2.123 -0.5718 -0.8705 -0.3859
  757MOL0     H 4454   5.470  10.592   1.949  0.4214  1.0553 -0.3317
  757MOL0     H 4455   5.304  10.570   1.970 -1.5315  0.7123  1.0671
  757MOL0     H 4456   5.444  10.844   1.950  1.8386 -0.5856 -1.0227
  757MOL0     H 4457   5.272  10.818   1.924  0.7506 -0.4741  0.5725
  757MOL0     H 4458   5.500  10.706   1.743 -0.3378 -0.4445 -1.3820
  757MOL0     H 4459   5.334  10.653   1.735 -0.9310  0.2717  0.1641
  757MOL0     H 4460   5.239  10.863   1.679 -0.0899  0.2241  3.6301
  757MOL0     H 4461   5.337  10.810   1.559 -1.4675  0.1777 -0.4760
  757MOL0     H 4462   5.545  11.159   1.729  2.9149 -1.8275  1.2244
  757MOL0     H 4463   5.489  10.678   2.358  0.6583 -0.4395  1.7648
  757MOL0     H 4464   5.628  10.478   2.535 -1.1959 -1.3993 -0.6804
  757MOL0     H 4465   5.519  10.626   2.557  0.2598  0.1711 -2.7062
  757MOL0     H 4466   5.495  10.478   2.648  1.9262  1.0666  1.3797
  758MOL0     O 4467   8.179   0.637   1.400  0.3765 -0.6103  0.1397
  758MOL0     C 4468   8.167   0.555   1.482 -1.2138 -0.0864  0.1425
  758MOL0     O 4469   8.271   0.491   1.544 -0.4366 -0.3608  0.2995
  758MOL0     C 4470   8.379   0.580   1.562  0.3800 -0.3011  0.1961
  758MOL0     C 4471   8.491   0.556   1.484  0.6399  0.1036  1.0628
  758MOL0     C 4472   8.604   0.625   1.495  0.4626 -0.5590 -0.2176
  758MOL0     C 4473   8.607   0.736   1.587 -0.1000 -0.0411  0.0174
  758MOL0     O 4474   8.730   0.800   1.592 -0.2703 -0.6099 -0.1905
  758MOL0     C 4475   8.765   0.882   1.700  0.3346 -0.6665  0.1063
  758MOL0     C 4476   8.789   0.792   1.818 -0.8237 -0.2962 -0.4719
  758MOL0     C 4477   8.922   0.714   1.801 -0.5201 -0.7189 -0.3810
  758MOL0     C 4478   8.918   0.566   1.859  0.6468 -0.0971  0.1413
  758MOL0     C 4479   9.062   0.510   1.848 -0.2787 -0.3428 -0.1801
  758MOL0     C 4480   9.118   0.486   1.709  0.1168 -0.0172  0.2872
  758MOL0     C 4481   9.276   0.482   1.700 -0.7757 -0.2047  0.8608
  758MOL0     C 4482   9.345   0.377   1.793 -0.1238  0.4434  0.6133
  758MOL0     N 4483   9.495   0.393   1.800 -0.0743  0.4270  0.4448
  758MOL0     C 4484   9.556   0.517   1.822  0.2955 -1.1073 -0.1270
  758MOL0     C 4485   9.684   0.491   1.810  0.1572 -0.8221 -0.4914
  758MOL0     C 4486   9.793   0.594   1.821 -0.1901  0.5930  0.3518
  758MOL0     C 4487   9.933   0.535   1.802 -0.0253  0.7978 -0.1011
  758MOL0     C 4488  10.037   0.642   1.820 -0.7686  0.0952  0.2771
  758MOL0     C 4489  10.193   0.600   1.804  0.4001  0.0749 -0.6535
  758MOL0     O 4490  10.227   0.523   1.924 -0.1543 -0.3616  0.0423
  758MOL0     C 4491  10.345   0.453   1.939 -0.4883  0.2325 -0.0175
  758MOL0     C 4492  10.364   0.386   2.056 -0.2116  0.5764  0.0001
  758MOL0     C 4493  10.487   0.322   2.084 -0.4747  0.4675  0.2329
  758MOL0     C 4494  10.511   0.267   2.219  0.1471 -0.1295 -0.6628
  758MOL0     C 4495  10.600   0.321   1.988  0.3249  0.6066  0.3040
  758MOL0     C 4496  10.732   0.254   2.014 -0.7150 -0.3994 -0.1394
  758MOL0     O 4497  10.813   0.259   1.905 -0.2992 -0.5770  0.2184
  758MOL0     C 4498  10.944   0.216   1.923 -0.6190 -0.0032  0.4824
  758MOL0     C 4499  11.044   0.299   1.969  0.8184 -0.0570 -0.1329
  758MOL0     C 4500  11.175   0.258   1.972  0.3487  0.0774  0.4616
  758MOL0     C 4501  11.213   0.125   1.927 -0.6543 -0.4965  0.7649
  758MOL0     O 4502  11.346   0.087   1.919  0.4817 -0.0627 -0.0371
  758MOL0     C 4503  11.456   0.156   1.983  1.2681  0.0176  0.5142
  758MOL0     C 4504  11.570   0.081   1.933 -0.2687  0.4058  0.5126
  758MOL0     C 4505  11.703   0.155   1.968  0.6823  0.7635 -0.5889
  758MOL0     C 4506  11.812   0.048   1.973  0.2512 -0.4188  0.3819
  758MOL0     C 4507  11.943   0.106   2.024  0.6443 -0.4776 -0.5212
  758MOL0     C 4508  12.022   0.001   2.093  0.1418 -0.0086  0.5309
  758MOL0     C 4509  12.143   0.061   2.166 -0.5913 -0.0378 -0.5567
  758MOL0     C 4510  12.211  -0.044   2.249 -0.4725  0.7866  0.1934
  758MOL0    Cl 4511  12.374   0.009   2.303  0.0476  0.1325  0.0749
  758MOL0     C 4512  11.116   0.042   1.883  0.5521 -1.0205  0.2325
  758MOL0     C 4513  10.986   0.086   1.877  0.1670 -0.1288  0.3832
  758MOL0     O 4514  10.764   0.194   2.114  0.3507  0.7701 -0.0038
  758MOL0     C 4515  10.572   0.387   1.861  0.4310  0.5574 -0.2297
  758MOL0     C 4516  10.448   0.452   1.836 -0.2236 -1.3762 -1.3403
  758MOL0     N 4517   9.703   0.358   1.783 -0.4151  0.0671 -0.1919
  758MOL0     N 4518   9.591   0.303   1.776  0.2519  0.6619 -0.0780
  758MOL0     C 4519   8.501   0.768   1.668 -0.9967  0.2441  1.0442
  758MOL0     C 4520   8.384   0.684   1.650  0.2230  0.1641  0.5173
  758MOL0     C 4521   8.031   0.489   1.497  0.3399  0.8206  0.4230
  758MOL0     C 4522   7.946   0.475   1.388 -0.6411  0.0552  0.7591
  758MOL0     C 4523   7.831   0.405   1.402  0.5309  0.0221 -0.2553
  758MOL0     C 4524   7.796   0.341   1.525  0.4023  1.3865 -0.1508
  758MOL0     O 4525   7.686   0.253   1.553 -0.6690 -0.0045  0.3687
  758MOL0     C 4526   7.609   0.209   1.431 -0.1722 -0.2966  0.1646
  758MOL0     C 4527   7.498   0.108   1.459 -0.1051  0.3065 -0.5994
  758MOL0     C 4528   7.381   0.182   1.517  0.5082 -0.9575 -0.7228
  758MOL0     C 4529   7.291   0.088   1.603  0.0408  0.4164  0.2055
  758MOL0     C 4530   7.207   0.005   1.511  0.3153  0.2857  0.8855
  758MOL0     C 4531   7.130  -0.046   1.432  0.1853 -0.9204  0.1313
  758MOL0     C 4532   7.883   0.354   1.632  0.2838 -0.6268 -0.2048
  758MOL0     C 4533   7.998   0.438   1.626 -0.5870  0.1264  0.6644
  758MOL0     C 4534   8.081   0.442   1.752 -0.0998 -0.0535  0.0878
  758MOL0     H 4535   8.474   0.489   1.400  0.0568  2.0848 -0.4808
  758MOL0     H 4536   8.687   0.619   1.426 -0.5138 -3.0103 -1.2915
  758MOL0     H 4537   8.685   0.955   1.719  2.2893  1.4794  0.5901
  758MOL0     H 4538   8.853   0.941   1.672 -0.6805  2.1133  2.2121
  758MOL0     H 4539   8.804   0.857   1.905 -1.5562  0.3354 -0.8038
  758MOL0     H 4540   8.711   0.718   1.836 -1.8156  1.2305  2.1867
  758MOL0     H 4541   8.966   0.734   1.703  1.7578  0.0390  0.7187
  758MOL0     H 4542   8.987   0.767   1.871 -0.5738 -1.2373  0.0681
  758MOL0     H 4543   8.890   0.566   1.965 -0.4346 -0.7120 -0.1350
  758MOL0     H 4544   8.846   0.507   1.802  0.8236 -1.3434  1.1572
  758MOL0     H 4545   9.050   0.416   1.903 -1.0121 -2.1017 -3.1130
  758MOL0     H 4546   9.135   0.570   1.902 -0.5499 -0.8707  0.7862
  758MOL0     H 4547   9.067   0.395   1.673  0.2248  0.4622 -1.1607
  758MOL0     H 4548   9.080   0.567   1.646 -4.2244  1.0559  3.7609
  758MOL0     H 4549   9.293   0.586   1.727 -2.1158  0.0894  0.6669
  758MOL0     H 4550   9.308   0.470   1.596 -3.1147  2.1924 -0.2423
  758MOL0     H 4551   9.304   0.396   1.893  0.2811  2.7107  0.4158
  758MOL0     H 4552   9.314   0.275   1.769 -2.7244  1.2340  0.1989
  758MOL0     H 4553   9.515   0.617   1.814  0.1411 -1.3319 -2.8812
  758MOL0     H 4554   9.797   0.644   1.918  2.6655 -0.7945  1.0609
  758MOL0     H 4555   9.766   0.662   1.740 -1.0502 -0.4849 -0.2993
  758MOL0     H 4556   9.951   0.457   1.876 -1.5673  0.9387  0.4539
  758MOL0     H 4557   9.950   0.484   1.706 -0.9081 -0.0927  0.1834
  758MOL0     H 4558  10.021   0.731   1.759 -0.6310 -0.5936 -0.7994
  758MOL0     H 4559  10.042   0.675   1.924 -1.6404  0.5239  0.1891
  758MOL0     H 4560  10.220   0.545   1.713 -1.2479  0.7609 -1.6075
  758MOL0     H 4561  10.250   0.693   1.814 -0.9515  0.8640  0.0617
  758MOL0     H 4562  10.277   0.401   2.119 -0.0761  1.1257  0.0559
  758MOL0     H 4563  10.431   0.298   2.287  0.8371  1.2278 -0.4376
  758MOL0     H 4564  10.597   0.321   2.261 -0.5666 -0.4336  1.2692
  758MOL0     H 4565  10.521   0.159   2.211 -5.3218 -0.8537 -1.9353
  758MOL0     H 4566  11.036   0.405   1.992  1.2330 -0.1307  0.3810
  758MOL0     H 4567  11.247   0.333   2.003  1.3866 -0.9694  0.6363
  758MOL0     H 4568  11.463   0.259   1.949 -1.3723 -0.6358 -2.4934
  758MOL0     H 4569  11.457   0.137   2.091  2.7422  0.8962  0.6857
  758MOL0     H 4570  11.563  -0.020   1.974 -3.3810 -0.3645 -1.5633
  758MOL0     H 4571  11.551   0.076   1.825 -3.8546  2.5027  0.8928
  758MOL0     H 4572  11.707   0.206   2.064  0.6714 -0.0381 -0.1511
  758MOL0     H 4573  11.736   0.217   1.884  2.2645 -1.4982 -1.7695
  758MOL0     H 4574  11.840   0.014   1.873  3.7135 -1.1814  1.4582
  758MOL0     H 4575  11.781  -0.044   2.024  0.3101  0.0624  1.3152
  758MOL0     H 4576  11.991   0.165   1.946 -1.3265 -0.5262 -1.8439
  758MOL0     H 4577  11.926   0.188   2.095 -1.4317  1.3457 -2.9160
  758MOL0     H 4578  12.044  -0.072   2.014  0.6734  2.1701 -1.4314
  758MOL0     H 4579  11.969  -0.064   2.163 -0.5678  1.3144  1.2580
  758MOL0     H 4580  12.101   0.139   2.230  0.7987  0.5277 -0.3147
  758MOL0     H 4581  12.226   0.095   2.104  0.4094  0.5572  1.0455
  758MOL0     H 4582  12.223  -0.132   2.185 -0.9006  1.8486 -1.4176
  758MOL0     H 4583  12.147  -0.070   2.333  0.6292 -0.1336  0.7725
  758MOL0     H 4584  11.146  -0.060   1.859 -0.3022 -1.2708  0.1870
  758MOL0     H 4585  10.911   0.029   1.822  2.8294 -0.3221 -3.3807
  758MOL0     H 4586  10.651   0.378   1.787  0.1417 -1.6554 -0.3418
  758MOL0     H 4587  10.429   0.491   1.737 -0.7060  1.9826 -0.0796
  758MOL0     H 4588   8.498   0.861   1.725  0.6016  1.0599 -0.1274
  758MOL0     H 4589   8.302   0.704   1.718 -0.1682  0.4965 -0.0426
  758MOL0     H 4590   7.978   0.517   1.293 -2.6518  0.6230  0.2754
  758MOL0     H 4591   7.759   0.382   1.325  0.2678 -2.2297  0.5896
  758MOL0     H 4592   7.555   0.299   1.401 -0.2926 -0.5306 -0.3285
  758MOL0     H 4593   7.674   0.175   1.350 -1.6165  0.0869 -1.1988
  758MOL0     H 4594   7.535   0.031   1.528  0.3621  0.7696 -0.3299
  758MOL0     H 4595   7.459   0.058   1.370 -2.2629 -0.9984  0.9500
  758MOL0     H 4596   7.421   0.250   1.593 -1.6397  1.3180 -1.5289
  758MOL0     H 4597   7.334   0.254   1.450  3.3380  5.5700  3.2851
  758MOL0     H 4598   7.225   0.144   1.669  0.0189  0.7735 -0.1141
  758MOL0     H 4599   7.358   0.033   1.670 -0.7614 -1.6896 -0.6412
  758MOL0     H 4600   7.050  -0.090   1.377 -0.8355 -0.1842  0.9885
  758MOL0     H 4601   7.850   0.321   1.730 -0.4291  3.5985  1.1800
  758MOL0     H 4602   8.026   0.425   1.846  2.4539 -0.1232  1.6537
  758MOL0     H 4603   8.160   0.367   1.749 -2.3407 -2.6112 -2.7034
  758MOL0     H 4604   8.114   0.546   1.759 -3.2290  1.0218  1.0477
  759MOL0     O 4605   9.424   6.391   2.459  0.3215 -0.2831 -0.0509
  759MOL0     C 4606   9.431   6.496   2.525 -0.3734 -0.5725  0.6205
  759MOL0     O 4607   9.491   6.510   2.646 -0.1017 -0.5761 -0.2103
  759MOL0     C 4608   9.575   6.403   2.675 -0.0496 -0.2798  0.0896
  759MOL0     C 4609   9.707   6.418   2.642 -0.9893  0.7996  0.2206
  759MOL0     C 4610   9.794   6.313   2.685 -0.5173 -0.6267  0.7211
  759MOL0     C 4611   9.748   6.191   2.741  0.6169 -0.3874 -0.6531
  759MOL0     O 4612   9.826   6.085   2.775 -1.0718 -0.2730 -0.1725
  759MOL0     C 4613   9.951   6.123   2.843 -0.0788 -0.3722 -0.8849
  759MOL0     C 4614  10.020   6.004   2.905  0.1924  0.1513 -0.0521
  759MOL0     C 4615  10.146   6.040   2.981 -0.7974  0.3708 -0.4724
  759MOL0     C 4616  10.226   5.911   3.007  0.4800  0.9820  0.0193
  759MOL0     C 4617  10.331   5.922   3.119  0.6260  0.0699  0.6952
  759MOL0     C 4618  10.398   6.063   3.138  0.8195 -0.9075 -0.1351
  759MOL0     C 4619  10.478   6.066   3.267 -0.3280  0.1761 -0.1968
  759MOL0     C 4620  10.542   6.203   3.300  0.4940  0.2305 -0.6574
  759MOL0     N 4621  10.649   6.229   3.204 -0.2788  0.3899 -0.4930
  759MOL0     C 4622  10.771   6.164   3.211  0.4051  0.2592  0.2393
  759MOL0     C 4623  10.843   6.214   3.108 -0.6173  0.3545  0.3549
  759MOL0     C 4624  10.980   6.149   3.053  0.1153  0.5180  1.1416
  759MOL0     C 4625  11.095   6.203   3.135  0.4080  0.4885 -0.0215
  759MOL0     C 4626  11.227   6.138   3.113 -0.3390 -0.0317  0.6421
  759MOL0     C 4627  11.342   6.212   3.185  0.7883 -0.4218 -0.2677
  759MOL0     O 4628  11.320   6.194   3.328 -0.0649  0.1437  0.9987
  759MOL0     C 4629  11.402   6.252   3.423  0.1516  0.1093 -0.3069
  759MOL0     C 4630  11.499   6.351   3.389  0.1401 -0.3956 -0.3473
  759MOL0     C 4631  11.578   6.418   3.488  0.5495 -0.5518 -0.3125
  759MOL0     C 4632  11.660   6.532   3.438 -0.2676  0.0821  0.1613
  759MOL0     C 4633  11.561   6.377   3.624 -0.0541  0.4883  0.1365
  759MOL0     C 4634  11.627   6.450   3.739  0.5531  0.3023 -0.6423
  759MOL0     O 4635  11.662   6.373   3.848  0.5443  0.2794  0.2239
  759MOL0     C 4636  11.763   6.423   3.929  0.1903 -0.7807  0.2307
  759MOL0     C 4637  11.885   6.351   3.920  0.8675  0.8477  0.2452
  759MOL0     C 4638  11.992   6.399   3.994  0.6417  0.4721  0.1284
  759MOL0     C 4639  11.984   6.517   4.071  0.2302  0.2217 -0.1800
  759MOL0     O 4640  12.092   6.572   4.144  0.7740  0.7290 -0.1873
  759MOL0     C 4641  12.221   6.500   4.125  0.1532 -0.3154  0.6746
  759MOL0     C 4642  12.329   6.577   4.200 -0.1802  0.2153 -0.3326
  759MOL0     C 4643  12.466   6.546   4.155 -0.9225  0.2161  0.0753
  759MOL0     C 4644  12.572   6.644   4.211 -0.1454 -1.0649  0.0487
  759MOL0     C 4645  12.688   6.692   4.120 -0.0243 -0.0915 -0.6124
  759MOL0     C 4646  12.781   6.796   4.181 -0.6149  0.0047  0.3899
  759MOL0     C 4647  12.892   6.718   4.264 -0.0518  0.6458 -0.1781
  759MOL0     C 4648  13.010   6.820   4.275 -0.0734  0.1597 -0.0936
  759MOL0    Cl 4649  13.122   6.838   4.126 -0.2375  0.1404  0.1252
  759MOL0     C 4650  11.869   6.601   4.069  0.2052  0.7403 -0.9563
  759MOL0     C 4651  11.753   6.540   4.009 -0.0941 -0.2703  0.5392
  759MOL0     O 4652  11.643   6.571   3.734 -0.2383 -0.6623 -0.1232
  759MOL0     C 4653  11.475   6.270   3.650  0.8966  1.0057  0.0652
  759MOL0     C 4654  11.391   6.216   3.552 -0.0590  0.2277 -0.6887
  759MOL0     N 4655  10.765   6.295   3.029  0.2881 -0.1489 -0.4644
  759MOL0     N 4656  10.649   6.293   3.085  0.8329  0.4204  1.0365
  759MOL0     C 4657   9.614   6.188   2.771 -0.2183 -0.5106 -0.3717
  759MOL0     C 4658   9.529   6.289   2.734 -0.5261 -0.5494  0.2210
  759MOL0     C 4659   9.363   6.624   2.480  0.7513  0.4444  0.1518
  759MOL0     C 4660   9.373   6.647   2.342  0.8022 -0.5626  0.5670
  759MOL0     C 4661   9.322   6.761   2.284 -0.1991  0.2727 -0.4983
  759MOL0     C 4662   9.253   6.853   2.363  0.0021  0.0572 -0.1319
  759MOL0     O 4663   9.204   6.964   2.300  0.0838 -0.0876 -0.3350
  759MOL0     C 4664   9.080   7.018   2.346  0.0498 -0.3735 -1.4676
  759MOL0     C 4665   8.949   6.938   2.352  0.5636  0.4978 -0.2229
  759MOL0     C 4666   8.926   6.874   2.210  0.8557  0.0707 -0.7971
  759MOL0     C 4667   8.774   6.842   2.192  0.0744 -0.7407 -0.3752
  759MOL0     C 4668   8.722   6.726   2.258  0.7031 -0.2164 -0.1669
  759MOL0     C 4669   8.693   6.624   2.319  0.0435 -0.3130 -0.6418
  759MOL0     C 4670   9.241   6.831   2.503 -0.1719  0.3038 -0.1706
  759MOL0     C 4671   9.290   6.712   2.567  0.6091 -0.7625 -0.1138
  759MOL0     C 4672   9.253   6.671   2.707  0.4259 -0.3428 -0.2251
  759MOL0     H 4673   9.753   6.497   2.583  1.0755 -1.5211 -1.5065
  759MOL0     H 4674   9.898   6.329   2.659 -0.7704 -1.5220 -0.9833
  759MOL0     H 4675   9.929   6.202   2.916 -0.8312 -2.2640  1.0554
  759MOL0     H 4676  10.024   6.159   2.771  1.9213 -1.6284  0.4188
  759MOL0     H 4677   9.959   5.951   2.979  0.5647  0.2036  0.2977
  759MOL0     H 4678  10.048   5.937   2.823  0.7155 -4.1381  3.2795
  759MOL0     H 4679  10.206   6.115   2.929 -0.0362  2.4128  3.0099
  759MOL0     H 4680  10.118   6.088   3.076 -0.0591  1.0300 -0.5741
  759MOL0     H 4681  10.159   5.832   3.043 -0.4011  1.7158  0.0289
  759MOL0     H 4682  10.275   5.876   2.916 -0.6011  1.2339 -0.6779
  759MOL0     H 4683  10.408   5.847   3.099 -1.4028 -1.7548 -0.7226
  759MOL0     H 4684  10.283   5.895   3.214 -0.1092  0.4898  0.4486
  759MOL0     H 4685  10.458   6.081   3.049 -0.5631 -1.3927 -1.2089
  759MOL0     H 4686  10.333   6.152   3.140  1.2789 -0.5754  0.7887
  759MOL0     H 4687  10.564   5.999   3.256 -0.9990 -1.4629  3.2016
  759MOL0     H 4688  10.412   6.033   3.347  0.4541 -0.1396  0.3288
  759MOL0     H 4689  10.459   6.274   3.302 -0.0993 -0.3408  3.2195
  759MOL0     H 4690  10.589   6.197   3.398  0.6848  0.5654 -0.7274
  759MOL0     H 4691  10.794   6.078   3.272 -4.4775  0.1392  2.3511
  759MOL0     H 4692  10.992   6.168   2.946  1.7575  1.7804  1.5123
  759MOL0     H 4693  10.969   6.041   3.070 -4.0325  0.1586 -2.1956
  759MOL0     H 4694  11.102   6.309   3.109  2.1012 -0.1165 -2.3943
  759MOL0     H 4695  11.068   6.198   3.241  2.7403 -1.6968  0.5678
  759MOL0     H 4696  11.230   6.037   3.156 -3.0414 -1.0776 -1.3110
  759MOL0     H 4697  11.248   6.144   3.006  3.9441 -0.7269  1.2801
  759MOL0     H 4698  11.435   6.161   3.159  0.7776 -0.2431 -0.6649
  759MOL0     H 4699  11.333   6.316   3.152 -0.4066 -1.1219 -2.3880
  759MOL0     H 4700  11.507   6.384   3.286  5.3754 -0.1430 -0.1180
  759MOL0     H 4701  11.700   6.507   3.339  2.8573  0.0133  1.3078
  759MOL0     H 4702  11.747   6.555   3.501  3.0182 -1.9277 -3.1704
  759MOL0     H 4703  11.603   6.625   3.433 -1.9906 -1.0004 -2.3767
  759MOL0     H 4704  11.887   6.271   3.847 -2.5147  0.5764  0.3311
  759MOL0     H 4705  12.085   6.350   3.968 -1.5471 -3.1236 -1.7265
  759MOL0     H 4706  12.219   6.397   4.160  0.0684 -0.7474 -0.5722
  759MOL0     H 4707  12.245   6.513   4.019  0.0321  2.1782  0.8761
  759MOL0     H 4708  12.306   6.684   4.200  1.6879  0.8741  4.0155
  759MOL0     H 4709  12.321   6.544   4.304 -1.0437 -0.3259 -0.5659
  759MOL0     H 4710  12.472   6.540   4.046  1.9569 -0.5083  0.1825
  759MOL0     H 4711  12.488   6.448   4.198 -0.3639  0.8868  1.3561
  759MOL0     H 4712  12.621   6.612   4.303  0.8496  1.4741  0.4738
  759MOL0     H 4713  12.519   6.735   4.242  0.6771 -0.5603 -0.0075
  759MOL0     H 4714  12.741   6.604   4.081  0.0174  0.5203 -1.9831
  759MOL0     H 4715  12.647   6.729   4.026  2.4821 -0.2928 -1.8748
  759MOL0     H 4716  12.740   6.874   4.246 -2.1698  0.8255 -1.4473
  759MOL0     H 4717  12.823   6.852   4.097  1.7223  0.6753  1.9343
  759MOL0     H 4718  12.931   6.622   4.229  1.9356  0.9218  1.1794
  759MOL0     H 4719  12.844   6.693   4.359 -1.2380  3.2591  0.0196
  759MOL0     H 4720  13.074   6.794   4.360  0.3239  0.7384 -0.2136
  759MOL0     H 4721  12.970   6.919   4.299  0.8431  0.5500 -0.1450
  759MOL0     H 4722  11.869   6.697   4.120 -1.0606 -0.0673  0.6429
  759MOL0     H 4723  11.651   6.576   4.018 -0.5057 -1.1939 -0.2678
  759MOL0     H 4724  11.461   6.224   3.747 -2.2093 -0.8725 -1.1303
  759MOL0     H 4725  11.310   6.147   3.573 -3.6572  3.7952 -1.7587
  759MOL0     H 4726   9.577   6.101   2.824  0.1864  1.2314  3.1082
  759MOL0     H 4727   9.421   6.284   2.744 -0.5179 -2.9930 -0.1703
  759MOL0     H 4728   9.417   6.580   2.269  1.3793 -1.0536  1.3394
  759MOL0     H 4729   9.338   6.782   2.179  1.5847  0.4644 -0.2286
  759MOL0     H 4730   9.100   7.045   2.450  1.3087 -3.1406 -0.9046
  759MOL0     H 4731   9.066   7.115   2.297  1.1757  0.9476  0.6637
  759MOL0     H 4732   8.865   7.001   2.381  0.5019  1.6809 -2.7575
  759MOL0     H 4733   8.972   6.869   2.433  1.4167 -0.2356 -1.0612
  759MOL0     H 4734   8.953   6.956   2.143 -0.8163  1.7092  0.4120
  759MOL0     H 4735   8.995   6.790   2.202  2.0844  0.8396  0.8606
  759MOL0     H 4736   8.746   6.837   2.086 -1.7831  0.9006 -0.0239
  759MOL0     H 4737   8.708   6.914   2.242  1.2260 -1.0455  1.6656
  759MOL0     H 4738   8.674   6.528   2.361 -1.0102 -0.0632 -0.4947
  759MOL0     H 4739   9.178   6.896   2.564 -0.1231 -0.7088  1.0014
  759MOL0     H 4740   9.152   6.703   2.732  0.2041 -2.0636  1.3191
  759MOL0     H 4741   9.247   6.562   2.714  0.0597 -0.2157  3.0474
  759MOL0     H 4742   9.319   6.708   2.786  0.4290 -0.8909  0.0398
  760MOL0     O 4743   1.951   5.411   1.271 -0.3621  0.8766 -0.6357
  760MOL0     C 4744   1.846   5.376   1.222  0.6957 -0.1494  0.2316
  760MOL0     O 4745   1.758   5.287   1.282  0.2956  0.3876  0.2139
  760MOL0     C 4746   1.784   5.203   1.393 -0.6333  0.1397 -0.5805
  760MOL0     C 4747   1.897   5.203   1.471  0.1037  0.1981 -0.4885
  760MOL0     C 4748   1.913   5.115   1.575  0.0271 -0.1398  0.8662
  760MOL0     C 4749   1.818   5.023   1.610  0.2991  0.1158  0.8598
  760MOL0     O 4750   1.840   4.936   1.707 -0.4264 -0.2568  0.1126
  760MOL0     C 4751   1.747   4.833   1.724  0.2714  0.8046 -0.2280
  760MOL0     C 4752   1.823   4.716   1.812  0.9825 -0.7224  0.0787
  760MOL0     C 4753   1.946   4.658   1.740  0.3750 -0.0131  0.7131
  760MOL0     C 4754   2.019   4.564   1.838 -0.5525 -1.4447  0.5095
  760MOL0     C 4755   2.139   4.508   1.752 -0.0587 -0.6130 -0.4839
  760MOL0     C 4756   2.226   4.409   1.838 -0.0080  0.0531  0.6947
  760MOL0     C 4757   2.341   4.349   1.755  0.4872 -0.2794  0.6229
  760MOL0     C 4758   2.429   4.455   1.693 -0.6718 -0.8981 -0.2757
  760MOL0     N 4759   2.564   4.409   1.656  0.7262 -0.1682 -0.7350
  760MOL0     C 4760   2.689   4.459   1.694  0.4209  0.5339 -0.4551
  760MOL0     C 4761   2.777   4.395   1.617 -0.8030  0.5786 -0.0807
  760MOL0     C 4762   2.918   4.428   1.619  0.2279 -1.1805  0.7952
  760MOL0     C 4763   3.006   4.302   1.627 -0.3067 -0.1514 -0.4930
  760MOL0     C 4764   3.150   4.348   1.600  0.1877  0.2104 -0.1459
  760MOL0     C 4765   3.243   4.238   1.556 -0.2358 -0.1522 -0.7086
  760MOL0     O 4766   3.380   4.278   1.561  0.1261  0.3970 -0.3521
  760MOL0     C 4767   3.481   4.195   1.612  0.8473 -0.0056 -0.4396
  760MOL0     C 4768   3.612   4.249   1.622 -0.2698  0.2964 -0.1239
  760MOL0     C 4769   3.720   4.169   1.659 -0.5589  0.3985 -0.3166
  760MOL0     C 4770   3.857   4.231   1.638  0.0301  0.1045 -0.3448
  760MOL0     C 4771   3.704   4.045   1.717  0.7796  0.6613  0.0415
  760MOL0     C 4772   3.817   3.962   1.767 -0.5378 -0.5498  0.3763
  760MOL0     O 4773   3.929   3.941   1.692 -0.3728 -0.4647  0.3216
  760MOL0     C 4774   4.044   3.910   1.755  0.1452 -0.1977 -1.1143
  760MOL0     C 4775   4.144   3.822   1.707 -0.9270  0.2959 -1.4763
  760MOL0     C 4776   4.276   3.804   1.766  0.5486  0.5985 -0.3684
  760MOL0     C 4777   4.313   3.882   1.875  0.1851  1.3284  0.3869
  760MOL0     O 4778   4.438   3.864   1.932 -0.1860 -0.2099  0.0775
  760MOL0     C 4779   4.512   3.971   2.000 -0.0275 -0.1781  0.1702
  760MOL0     C 4780   4.663   3.942   1.991  0.1156 -0.6626 -1.0677
  760MOL0     C 4781   4.751   4.037   2.067  0.9208  0.3850 -0.4098
  760MOL0     C 4782   4.775   4.168   1.997  0.6043  0.6797  0.2136
  760MOL0     C 4783   4.899   4.238   2.029  0.5397 -1.0507  0.2079
  760MOL0     C 4784   4.917   4.358   1.924  0.8965  0.5245  0.1169
  760MOL0     C 4785   5.062   4.411   1.943  0.1152 -0.5399  0.5023
  760MOL0     C 4786   5.082   4.543   1.874  0.1346 -0.8295 -0.0725
  760MOL0    Cl 4787   4.999   4.678   1.970 -0.3825 -0.2287 -0.2177
  760MOL0     C 4788   4.211   3.952   1.931  0.3243 -0.2919  0.1812
  760MOL0     C 4789   4.087   3.981   1.863  0.1658 -0.0232 -0.6278
  760MOL0     O 4790   3.799   3.924   1.885  0.6407 -0.5118  0.3066
  760MOL0     C 4791   3.568   3.996   1.715 -0.0209  0.3038  0.1707
  760MOL0     C 4792   3.458   4.061   1.658 -0.3976 -0.2801 -0.2233
  760MOL0     N 4793   2.708   4.311   1.537 -0.4294  0.9105 -0.6268
  760MOL0     N 4794   2.585   4.322   1.559  0.2417 -0.1937 -0.0182
  760MOL0     C 4795   1.697   5.026   1.542 -0.0175  0.3075 -0.4959
  760MOL0     C 4796   1.679   5.122   1.440  0.3612  0.3470 -0.3374
  760MOL0     C 4797   1.790   5.429   1.096  0.4175 -0.7880  0.2186
  760MOL0     C 4798   1.650   5.424   1.064  0.6341  0.7980 -0.1103
  760MOL0     C 4799   1.602   5.465   0.934  0.3235 -0.3282 -0.6304
  760MOL0     C 4800   1.691   5.520   0.840 -0.6093 -0.1972  0.4790
  760MOL0     O 4801   1.638   5.574   0.724 -0.1188 -0.6363  0.4012
  760MOL0     C 4802   1.728   5.591   0.609 -0.0350 -0.3557  0.2335
  760MOL0     C 4803   1.782   5.459   0.542 -0.3103 -0.3236 -0.0109
  760MOL0     C 4804   1.660   5.390   0.487  0.5096  1.0787  0.2478
  760MOL0     C 4805   1.703   5.274   0.399 -1.5844 -0.2582 -0.5275
  760MOL0     C 4806   1.594   5.181   0.360 -0.5053  0.2125 -0.6915
  760MOL0     C 4807   1.517   5.096   0.320  0.1376  0.0078 -0.8045
  760MOL0     C 4808   1.821   5.519   0.873  0.3760 -0.2477  0.3600
  760MOL0     C 4809   1.876   5.477   0.993 -0.3712  0.3121 -0.5608
  760MOL0     C 4810   2.031   5.513   1.015  0.7770  1.2567  0.4648
  760MOL0     H 4811   1.973   5.278   1.450  0.1911  0.1882 -0.2162
  760MOL0     H 4812   1.995   5.129   1.645  2.5695 -0.9174 -1.7691
  760MOL0     H 4813   1.709   4.785   1.634  1.2392 -0.9826  0.2606
  760MOL0     H 4814   1.669   4.876   1.789  0.4000 -0.9128  1.1500
  760MOL0     H 4815   1.857   4.753   1.909  2.9035  1.4402 -1.2964
  760MOL0     H 4816   1.744   4.643   1.825 -0.8945  0.8253 -1.8744
  760MOL0     H 4817   1.907   4.604   1.653 -2.3847  3.6175 -0.5872
  760MOL0     H 4818   2.014   4.736   1.704 -2.4649  2.7086  0.8314
  760MOL0     H 4819   2.049   4.634   1.917  2.7902  0.9783 -2.5694
  760MOL0     H 4820   1.958   4.480   1.874  1.0090 -2.4543  0.9273
  760MOL0     H 4821   2.204   4.588   1.715  1.1661 -1.8403 -1.0876
  760MOL0     H 4822   2.102   4.445   1.670  1.3872 -1.6693 -0.3718
  760MOL0     H 4823   2.278   4.463   1.918 -1.9370 -0.5751  2.4443
  760MOL0     H 4824   2.163   4.331   1.880 -0.9061  1.6748  2.5016
  760MOL0     H 4825   2.302   4.269   1.691  2.6776  0.4601 -1.8127
  760MOL0     H 4826   2.411   4.299   1.823  2.6933 -0.2948 -1.5181
  760MOL0     H 4827   2.390   4.501   1.602  1.6277  3.5892  0.7340
  760MOL0     H 4828   2.439   4.532   1.770 -1.2570 -0.6378 -0.4570
  760MOL0     H 4829   2.701   4.544   1.760 -1.9141  0.6287 -0.0442
  760MOL0     H 4830   2.943   4.492   1.704  1.0254 -0.8686  0.3339
  760MOL0     H 4831   2.934   4.482   1.526 -0.4180 -0.7872  0.9090
  760MOL0     H 4832   2.991   4.253   1.724 -4.4831 -0.0233 -0.8901
  760MOL0     H 4833   2.963   4.235   1.551 -2.8907  1.8749 -0.9663
  760MOL0     H 4834   3.133   4.429   1.529 -0.7805  1.8482  1.8236
  760MOL0     H 4835   3.185   4.393   1.694  0.7761  0.1830 -0.3490
  760MOL0     H 4836   3.228   4.153   1.623 -0.6124 -0.9939 -1.8295
  760MOL0     H 4837   3.236   4.196   1.455  0.0228 -0.8415 -0.4515
  760MOL0     H 4838   3.636   4.350   1.590 -0.0029 -0.0783 -1.1435
  760MOL0     H 4839   3.932   4.189   1.705  0.0452 -1.3965 -1.2487
  760MOL0     H 4840   3.851   4.340   1.649  0.6588 -0.0037  1.3639
  760MOL0     H 4841   3.887   4.230   1.533 -0.8448  1.0814 -0.6295
  760MOL0     H 4842   4.126   3.764   1.617 -1.2381  0.0916 -1.2842
  760MOL0     H 4843   4.353   3.741   1.724  0.1513 -1.6258  2.0078
  760MOL0     H 4844   4.484   4.066   1.955 -1.6580  0.3005  2.0924
  760MOL0     H 4845   4.479   3.961   2.103 -1.0830  2.0520  0.0985
  760MOL0     H 4846   4.670   3.843   2.037 -1.7852 -0.3197  0.0700
  760MOL0     H 4847   4.684   3.941   1.884 -3.3538 -2.5869 -1.9010
  760MOL0     H 4848   4.843   3.985   2.093  0.9979 -0.2439 -1.8750
  760MOL0     H 4849   4.695   4.057   2.160  1.0943 -0.3434 -0.1477
  760MOL0     H 4850   4.698   4.242   2.022  0.1225  0.5831 -0.9373
  760MOL0     H 4851   4.766   4.153   1.889 -0.5946  0.8220  0.2715
  760MOL0     H 4852   4.883   4.283   2.127  2.7123  0.8171 -0.2224
  760MOL0     H 4853   4.984   4.168   2.031  0.3898 -1.2578 -0.3838
  760MOL0     H 4854   4.841   4.433   1.948 -1.7218 -0.7307 -3.4087
  760MOL0     H 4855   4.901   4.318   1.824  2.2936 -1.8269  0.7531
  760MOL0     H 4856   5.132   4.337   1.901 -0.5025 -1.0006  0.2655
  760MOL0     H 4857   5.096   4.432   2.044  2.2819  1.8229 -0.6042
  760MOL0     H 4858   5.055   4.544   1.768 -0.2025  2.3725 -0.0494
  760MOL0     H 4859   5.190   4.559   1.879  0.3435 -0.8414 -3.0464
  760MOL0     H 4860   4.227   4.012   2.021  1.7808  0.2620 -0.4121
  760MOL0     H 4861   4.015   4.057   1.890 -1.7389 -0.2923 -4.2252
  760MOL0     H 4862   3.550   3.898   1.759  3.9437 -0.0163  1.5777
  760MOL0     H 4863   3.357   4.020   1.660 -2.4121  4.1105  0.5622
  760MOL0     H 4864   1.617   4.954   1.555 -0.4598  0.4404 -2.2621
  760MOL0     H 4865   1.587   5.137   1.385 -0.7990  0.1066  1.4435
  760MOL0     H 4866   1.574   5.401   1.138 -0.9208  1.3060 -1.5021
  760MOL0     H 4867   1.494   5.460   0.921 -0.6401  0.8399  4.7053
  760MOL0     H 4868   1.681   5.652   0.531  2.1430  0.8990 -0.1840
  760MOL0     H 4869   1.821   5.645   0.628 -1.3832  2.0405  0.4863
  760MOL0     H 4870   1.826   5.389   0.613  0.5249 -0.6655 -0.8545
  760MOL0     H 4871   1.862   5.488   0.473  0.5158  1.0176  1.4448
  760MOL0     H 4872   1.611   5.352   0.577 -0.2382 -0.2749 -0.6919
  760MOL0     H 4873   1.589   5.455   0.434  0.6325 -0.2738 -1.6894
  760MOL0     H 4874   1.795   5.223   0.428 -0.6840  1.9249  0.6693
  760MOL0     H 4875   1.731   5.330   0.309  0.2641 -3.5010 -2.1283
  760MOL0     H 4876   1.435   5.047   0.273 -0.1547  1.2628 -1.6518
  760MOL0     H 4877   1.895   5.568   0.810  0.9095 -2.0915 -0.5201
  760MOL0     H 4878   2.039   5.589   1.093  1.3187  1.5307  0.1504
  760MOL0     H 4879   2.081   5.421   1.048  0.5621  0.8060 -0.4373
  760MOL0     H 4880   2.079   5.538   0.920 -0.2248 -0.1291 -0.4584
  761MOL0     O 4881   1.532   7.296   4.989 -0.0972  0.0294  0.0506
  761MOL0     C 4882   1.465   7.396   4.979  0.4307 -0.7902 -0.1483
  761MOL0     O 4883   1.493   7.517   5.045 -1.3272  0.4011 -0.5422
  761MOL0     C 4884   1.599   7.522   5.138  0.3581  0.0544  0.5593
  761MOL0     C 4885   1.715   7.602   5.119  0.0984 -0.5354 -1.1064
  761MOL0     C 4886   1.823   7.605   5.209 -0.8899 -0.1103  0.2295
  761MOL0     C 4887   1.810   7.520   5.327 -1.1861 -0.2514 -0.0860
  761MOL0     O 4888   1.912   7.500   5.419 -0.1140  0.3483  0.4628
  761MOL0     C 4889   2.024   7.586   5.433  0.6146 -0.4748 -0.4408
  761MOL0     C 4890   2.087   7.558   5.568  0.3237 -0.0145  0.3205
  761MOL0     C 4891   2.162   7.421   5.562 -0.5425  0.3100  0.2096
  761MOL0     C 4892   2.241   7.385   5.686 -0.2579 -0.2348  0.0185
  761MOL0     C 4893   2.387   7.435   5.692  0.0741  0.0390  0.0650
  761MOL0     C 4894   2.477   7.331   5.615 -0.3166 -0.0776 -0.4163
  761MOL0     C 4895   2.621   7.377   5.593 -0.1671 -1.1046  0.0742
  761MOL0     C 4896   2.699   7.431   5.713 -0.1565 -0.0223  0.3033
  761MOL0     N 4897   2.842   7.428   5.694  0.1959 -0.4288  0.0455
  761MOL0     C 4898   2.918   7.512   5.617  0.4453  0.2474  0.4789
  761MOL0     C 4899   3.037   7.450   5.622 -0.1373  0.3723 -0.5562
  761MOL0     C 4900   3.140   7.497   5.526  0.5769 -0.3263  0.0099
  761MOL0     C 4901   3.100   7.497   5.376 -0.2601  0.7806 -0.6824
  761MOL0     C 4902   3.217   7.530   5.279 -0.4681 -0.1277  0.2825
  761MOL0     C 4903   3.359   7.474   5.294 -0.5550  0.5072 -1.3217
  761MOL0     O 4904   3.354   7.331   5.308  0.0167  0.2830 -0.2339
  761MOL0     C 4905   3.480   7.271   5.287  0.3048 -0.0542 -0.3958
  761MOL0     C 4906   3.466   7.136   5.283  1.3481  0.0448  0.2874
  761MOL0     C 4907   3.574   7.052   5.258 -0.3341 -0.9252 -0.0324
  761MOL0     C 4908   3.550   6.908   5.255 -0.4710 -0.0223 -0.6067
  761MOL0     C 4909   3.711   7.111   5.233  0.2643 -0.2123 -0.3208
  761MOL0     C 4910   3.836   7.037   5.214  0.5902 -0.2131  0.5875
  761MOL0     O 4911   3.825   6.909   5.171  0.2421 -0.9970 -0.2351
  761MOL0     C 4912   3.935   6.830   5.190  0.1905 -0.2834  0.1362
  761MOL0     C 4913   3.939   6.735   5.305 -0.1511  0.9190  0.1756
  761MOL0     C 4914   4.055   6.662   5.328  0.7282  0.6813 -0.1064
  761MOL0     C 4915   4.166   6.677   5.251  0.6487  0.1594  0.6264
  761MOL0     O 4916   4.277   6.603   5.261 -0.6290  0.7039 -0.2275
  761MOL0     C 4917   4.379   6.671   5.339 -0.3087  0.4167 -0.1003
  761MOL0     C 4918   4.484   6.553   5.367 -0.4138 -0.0939  0.1576
  761MOL0     C 4919   4.587   6.597   5.477  0.3219  0.6386  0.8570
  761MOL0     C 4920   4.706   6.509   5.466 -0.1475  0.6978  0.5197
  761MOL0     C 4921   4.820   6.562   5.546  0.6109 -0.2198  0.1415
  761MOL0     C 4922   4.936   6.631   5.465 -0.0487 -0.5849  0.1644
  761MOL0     C 4923   5.061   6.669   5.550  0.6481 -0.1596  0.6158
  761MOL0     C 4924   5.179   6.693   5.453 -0.7762  0.1236 -0.1794
  761MOL0    Cl 4925   5.153   6.850   5.369  0.1126  0.3917 -0.1917
  761MOL0     C 4926   4.159   6.758   5.133 -0.2647  0.2516 -0.5763
  761MOL0     C 4927   4.038   6.832   5.102 -0.1805 -0.0903  0.2147
  761MOL0     O 4928   3.944   7.098   5.226  0.6291 -0.3834 -0.0858
  761MOL0     C 4929   3.712   7.253   5.232  0.7704 -0.3266  0.2229
  761MOL0     C 4930   3.604   7.341   5.269 -0.5134  0.6400 -0.7495
  761MOL0     N 4931   3.038   7.333   5.699 -0.2692 -0.4244 -0.1432
  761MOL0     N 4932   2.916   7.324   5.743 -0.9344 -0.5691  0.4898
  761MOL0     C 4933   1.697   7.441   5.347 -0.3791 -0.6497 -0.4230
  761MOL0     C 4934   1.595   7.444   5.248  0.5209 -1.0409  0.0373
  761MOL0     C 4935   1.351   7.404   4.895 -0.0880 -0.6110  0.1620
  761MOL0     C 4936   1.278   7.526   4.877 -0.5355 -0.0108 -0.8576
  761MOL0     C 4937   1.167   7.538   4.799  0.1315 -0.4425 -0.4025
  761MOL0     C 4938   1.133   7.444   4.715 -0.5154 -0.1307 -0.5277
  761MOL0     O 4939   1.039   7.476   4.625 -0.0959 -0.2176  0.2677
  761MOL0     C 4940   1.021   7.390   4.516  0.4459  0.7917 -0.4385
  761MOL0     C 4941   0.918   7.449   4.414 -0.6560 -0.9877 -0.8585
  761MOL0     C 4942   0.871   7.360   4.298  0.2865  0.3369  0.0804
  761MOL0     C 4943   0.756   7.425   4.225  0.1958  0.1558 -0.2491
  761MOL0     C 4944   0.787   7.559   4.174  0.6259  0.0710  0.6865
  761MOL0     C 4945   0.791   7.672   4.152 -0.8234  0.7783  0.1983
  761MOL0     C 4946   1.191   7.316   4.733  0.1728  0.1738 -0.2112
  761MOL0     C 4947   1.294   7.290   4.823 -0.1445 -0.3092  0.1399
  761MOL0     C 4948   1.356   7.150   4.823 -0.1237  0.5666 -0.3918
  761MOL0     H 4949   1.718   7.646   5.020 -2.1405 -1.8547 -1.8335
  761MOL0     H 4950   1.912   7.659   5.178  0.5007 -0.1864  3.6272
  761MOL0     H 4951   1.994   7.692   5.429  2.0469 -0.0252 -0.0329
  761MOL0     H 4952   2.092   7.562   5.351  1.7337  0.3856  0.2032
  761MOL0     H 4953   2.148   7.642   5.604  0.9451 -0.5428  0.5203
  761MOL0     H 4954   2.008   7.547   5.643  1.2446 -1.5724  1.1097
  761MOL0     H 4955   2.094   7.343   5.527 -0.9772 -0.4765  2.6210
  761MOL0     H 4956   2.239   7.435   5.485  2.3307 -0.9616  2.6546
  761MOL0     H 4957   2.192   7.440   5.766 -0.2506 -1.0480  0.5917
  761MOL0     H 4958   2.246   7.280   5.717  0.9115 -0.3658 -0.5629
  761MOL0     H 4959   2.416   7.432   5.798  0.7337 -1.1434 -0.1251
  761MOL0     H 4960   2.393   7.533   5.645  0.3310 -0.7723 -1.6900
  761MOL0     H 4961   2.485   7.236   5.669  1.0046  0.7771  0.9539
  761MOL0     H 4962   2.424   7.302   5.524 -1.0182 -0.2330  0.0349
  761MOL0     H 4963   2.610   7.463   5.526  0.5814 -1.3602 -0.3922
  761MOL0     H 4964   2.682   7.307   5.535  2.0087  2.5869 -2.4898
  761MOL0     H 4965   2.657   7.522   5.756  1.2178  0.1742  1.3014
  761MOL0     H 4966   2.692   7.355   5.792 -0.8601 -1.4053 -1.0462
  761MOL0     H 4967   2.883   7.598   5.560 -0.9021 -0.5991 -0.0224
  761MOL0     H 4968   3.233   7.441   5.535  1.0129  0.3601 -0.1733
  761MOL0     H 4969   3.154   7.602   5.552 -4.9929  0.8384 -0.4644
  761MOL0     H 4970   3.061   7.399   5.348  0.5147 -0.3741  2.0216
  761MOL0     H 4971   3.013   7.564   5.369 -0.4094  1.0697  2.4996
  761MOL0     H 4972   3.178   7.506   5.179 -1.1512 -0.7547  0.6900
  761MOL0     H 4973   3.234   7.638   5.286  2.1321 -0.3062 -1.6338
  761MOL0     H 4974   3.413   7.507   5.205 -0.5898  2.1298 -0.7674
  761MOL0     H 4975   3.408   7.519   5.381 -1.3938  0.2715 -0.7177
  761MOL0     H 4976   3.365   7.099   5.293  0.1422  2.4672 -1.9249
  761MOL0     H 4977   3.538   6.883   5.150  0.7696 -0.8287 -0.5764
  761MOL0     H 4978   3.455   6.870   5.295  0.5401 -1.9397  0.1471
  761MOL0     H 4979   3.630   6.861   5.314  0.6290  2.4586  0.0077
  761MOL0     H 4980   3.851   6.726   5.368 -1.4555  2.3063 -1.3530
  761MOL0     H 4981   4.061   6.594   5.413  1.1655  1.0792  0.1830
  761MOL0     H 4982   4.425   6.756   5.288  0.4057 -0.3828 -0.7982
  761MOL0     H 4983   4.330   6.713   5.428  1.5404  1.5271  0.4551
  761MOL0     H 4984   4.433   6.461   5.400 -1.4195  0.4693  0.2112
  761MOL0     H 4985   4.540   6.545   5.273 -1.5334  0.6296 -0.5914
  761MOL0     H 4986   4.541   6.589   5.575 -1.7140  0.0390 -0.1058
  761MOL0     H 4987   4.613   6.701   5.456 -1.3057  0.5281 -2.2370
  761MOL0     H 4988   4.729   6.491   5.361 -0.5805  0.0562  0.5304
  761MOL0     H 4989   4.691   6.408   5.505  1.2697 -1.0558 -3.0512
  761MOL0     H 4990   4.783   6.633   5.620  1.3444  3.2755 -2.5642
  761MOL0     H 4991   4.858   6.486   5.614 -1.5821 -0.7775  0.8507
  761MOL0     H 4992   4.877   6.713   5.425 -1.7579 -3.0487 -2.7162
  761MOL0     H 4993   4.983   6.572   5.386  1.3805  0.1152  0.4592
  761MOL0     H 4994   5.090   6.585   5.613  3.0494  1.6645  2.1623
  761MOL0     H 4995   5.041   6.760   5.608 -2.1157 -0.8244  0.8466
  761MOL0     H 4996   5.181   6.612   5.380 -3.7329 -0.8406  0.6673
  761MOL0     H 4997   5.275   6.692   5.506  0.0075 -0.9145 -1.5574
  761MOL0     H 4998   4.241   6.761   5.062  1.4672  1.1984  1.3752
  761MOL0     H 4999   4.025   6.898   5.017 -3.5313  2.2653  2.3160
  761MOL0     H 5000   3.808   7.301   5.218  0.5208  0.1766  0.2238
  761MOL0     H 5001   3.617   7.448   5.286 -0.5303  0.4341  0.6883
  761MOL0     H 5002   1.700   7.369   5.429 -2.1097  0.7052  0.8899
  761MOL0     H 5003   1.506   7.384   5.262 -0.7635  0.9280  0.7520
  761MOL0     H 5004   1.313   7.614   4.930 -1.0560 -0.6195  0.5551
  761MOL0     H 5005   1.117   7.634   4.797  0.5778 -0.2184 -1.1329
  761MOL0     H 5006   1.122   7.368   4.481  0.1533 -2.9774  0.6759
  761MOL0     H 5007   0.986   7.293   4.551  1.2456  1.2794  1.8926
  761MOL0     H 5008   0.964   7.542   4.381 -3.0003  0.5505 -0.0170
  761MOL0     H 5009   0.836   7.481   4.479 -1.3274 -1.9968 -1.1876
  761MOL0     H 5010   0.953   7.334   4.230  0.3478 -2.3169  1.0506
  761MOL0     H 5011   0.833   7.266   4.341 -0.3741  0.5307 -0.0719
  761MOL0     H 5012   0.674   7.436   4.296 -0.5240 -1.0376 -0.8620
  761MOL0     H 5013   0.714   7.355   4.151  0.2814 -0.2849  0.1169
  761MOL0     H 5014   0.804   7.776   4.129 -1.7843  0.7171 -0.7247
  761MOL0     H 5015   1.146   7.229   4.687 -2.4732  0.7043  1.1948
  761MOL0     H 5016   1.361   7.103   4.921  0.3867 -3.2996 -2.0741
  761MOL0     H 5017   1.300   7.076   4.765  2.4394 -1.5982 -0.2727
  761MOL0     H 5018   1.458   7.166   4.784  0.8081 -2.3334  0.6000
  762MOL0     O 5019   5.486   4.834   7.225 -0.2754 -0.4835 -0.0142
  762MOL0     C 5020   5.421   4.733   7.215 -0.0690 -0.3331  0.3446
  762MOL0     O 5021   5.424   4.646   7.107 -0.2622 -0.5860  0.6487
  762MOL0     C 5022   5.503   4.680   6.997 -0.1529 -0.1340 -0.4958
  762MOL0     C 5023   5.441   4.725   6.881  0.3060 -0.0909 -0.1094
  762MOL0     C 5024   5.523   4.741   6.767  0.3794 -1.0472  0.3061
  762MOL0     C 5025   5.660   4.705   6.759  0.1669  0.3448  0.3587
  762MOL0     O 5026   5.736   4.709   6.643  0.4452  0.1788  0.2959
  762MOL0     C 5027   5.668   4.788   6.533 -0.7513 -0.0145  0.1129
  762MOL0     C 5028   5.771   4.828   6.431  0.3537  0.7910 -0.2880
  762MOL0     C 5029   5.826   4.698   6.367 -0.7608 -0.3562 -0.2858
  762MOL0     C 5030   5.924   4.716   6.252 -0.1953  0.8368 -0.2357
  762MOL0     C 5031   5.969   4.586   6.189 -0.1580 -0.5092 -0.5776
  762MOL0     C 5032   6.053   4.610   6.060 -0.0431 -0.1178 -0.7695
  762MOL0     C 5033   6.060   4.474   5.982  0.1830  0.0981  1.1227
  762MOL0     C 5034   6.147   4.475   5.855 -0.2674  0.6024  0.5300
  762MOL0     N 5035   6.290   4.505   5.882 -0.9093 -0.0858  0.3085
  762MOL0     C 5036   6.364   4.609   5.816  0.6165  0.4972  0.0432
  762MOL0     C 5037   6.488   4.596   5.869 -0.4155 -0.2528 -0.5393
  762MOL0     C 5038   6.597   4.694   5.842 -0.7144 -0.0311 -0.1262
  762MOL0     C 5039   6.707   4.627   5.754 -0.2947 -0.1597 -0.3162
  762MOL0     C 5040   6.793   4.525   5.848  0.3875 -0.8361  0.4330
  762MOL0     C 5041   6.769   4.384   5.786  0.0693  0.5753  0.3541
  762MOL0     O 5042   6.866   4.283   5.822  0.4045 -0.3205 -0.1326
  762MOL0     C 5043   6.993   4.280   5.768  0.0710  1.0776  0.7996
  762MOL0     C 5044   7.082   4.171   5.811  0.0239 -0.6503  0.2524
  762MOL0     C 5045   7.211   4.160   5.763  0.0485 -0.0929  0.9108
  762MOL0     C 5046   7.301   4.057   5.822  0.5517  0.5909  0.2291
  762MOL0     C 5047   7.260   4.259   5.672  0.2447  0.0840  0.5067
  762MOL0     C 5048   7.392   4.248   5.612  0.5542  0.1031  0.1479
  762MOL0     O 5049   7.441   4.361   5.545  0.3893 -0.7737 -0.3486
  762MOL0     C 5050   7.568   4.360   5.492 -0.0428 -0.1987 -0.3480
  762MOL0     C 5051   7.685   4.301   5.555 -0.1090 -1.0276  0.2652
  762MOL0     C 5052   7.806   4.329   5.504 -0.0961 -0.6363 -0.2915
  762MOL0     C 5053   7.821   4.423   5.398 -0.2784 -0.2604 -0.0458
  762MOL0     O 5054   7.943   4.445   5.346 -0.4703  0.5064 -0.4140
  762MOL0     C 5055   7.976   4.585   5.317 -0.8972  0.4027  0.5710
  762MOL0     C 5056   8.124   4.607   5.312 -0.1359 -0.2363 -0.0318
  762MOL0     C 5057   8.193   4.501   5.230 -0.3076  1.1549 -0.0193
  762MOL0     C 5058   8.348   4.511   5.222  0.9119 -0.7964  0.4824
  762MOL0     C 5059   8.414   4.397   5.153  0.3914 -0.4208  0.5760
  762MOL0     C 5060   8.568   4.386   5.163  0.1627 -0.6345 -0.4067
  762MOL0     C 5061   8.651   4.484   5.077 -0.9928 -1.2967  0.0441
  762MOL0     C 5062   8.796   4.443   5.071  0.0102  0.4130 -0.6548
  762MOL0    Cl 5063   8.877   4.531   4.931 -0.4315  0.0588 -0.0461
  762MOL0     C 5064   7.707   4.477   5.336  0.2228  0.3270  1.1149
  762MOL0     C 5065   7.581   4.448   5.389  0.2495 -0.1751 -0.5129
  762MOL0     O 5066   7.431   4.132   5.589  0.5898  0.2808  0.0553
  762MOL0     C 5067   7.172   4.364   5.629  0.1531  0.4786 -0.4644
  762MOL0     C 5068   7.039   4.365   5.673 -1.0817  0.5116  0.1795
  762MOL0     N 5069   6.499   4.476   5.939  0.0719  0.0319  0.3384
  762MOL0     N 5070   6.381   4.428   5.949  0.6631  0.1536  0.0781
  762MOL0     C 5071   5.718   4.673   6.878 -0.3347 -0.3560 -0.3576
  762MOL0     C 5072   5.638   4.665   6.993  0.9770  0.5455 -0.6752
  762MOL0     C 5073   5.336   4.702   7.332 -0.6959  0.2312 -0.3872
  762MOL0     C 5074   5.316   4.564   7.364  0.4798 -0.5833 -0.5423
  762MOL0     C 5075   5.239   4.527   7.464  1.5461 -0.3529  1.0322
  762MOL0     C 5076   5.160   4.621   7.528  0.1556 -0.6253 -0.2573
  762MOL0     O 5077   5.076   4.597   7.640  0.5032  0.0203 -0.0039
  762MOL0     C 5078   4.972   4.504   7.613 -0.5049  0.7077 -0.2185
  762MOL0     C 5079   4.847   4.580   7.630  0.0098 -0.7648 -0.2500
  762MOL0     C 5080   4.733   4.487   7.674  0.5426 -0.2633 -0.2097
  762MOL0     C 5081   4.600   4.571   7.686 -0.6872  0.5939  0.5754
  762MOL0     C 5082   4.483   4.491   7.666  0.1301  0.4050  1.1435
  762MOL0     C 5083   4.379   4.432   7.635 -0.0993 -0.2563  0.0137
  762MOL0     C 5084   5.177   4.760   7.513  0.1015  1.0949 -0.2788
  762MOL0     C 5085   5.268   4.792   7.415  0.0225 -0.4296 -0.2120
  762MOL0     C 5086   5.290   4.942   7.407  0.6493  0.9324 -0.8039
  762MOL0     H 5087   5.335   4.745   6.872  0.5968  0.9478 -1.4799
  762MOL0     H 5088   5.472   4.782   6.680  1.6402 -0.2473 -0.0813
  762MOL0     H 5089   5.638   4.884   6.576 -0.2758  0.6178 -0.9357
  762MOL0     H 5090   5.587   4.729   6.489 -0.7885 -0.0331  0.2039
  762MOL0     H 5091   5.708   4.874   6.354  2.2567  2.7079 -0.7752
  762MOL0     H 5092   5.837   4.907   6.466 -1.0832  2.6270 -1.5214
  762MOL0     H 5093   5.880   4.653   6.451 -1.7061  2.1933  1.8279
  762MOL0     H 5094   5.741   4.631   6.350 -2.4433  1.5706  0.1244
  762MOL0     H 5095   5.871   4.772   6.174 -2.1711 -1.0496 -0.3416
  762MOL0     H 5096   6.009   4.776   6.286 -0.0954 -0.9714  3.0784
  762MOL0     H 5097   5.876   4.529   6.178 -0.7505  0.2389  0.3264
  762MOL0     H 5098   6.028   4.532   6.264  1.4904  0.4076 -1.1701
  762MOL0     H 5099   5.996   4.685   6.005 -0.4191 -0.1858 -0.4779
  762MOL0     H 5100   6.158   4.638   6.076  1.3756 -4.7805 -0.2409
  762MOL0     H 5101   5.956   4.450   5.957  0.2318  2.5034 -1.9771
  762MOL0     H 5102   6.107   4.407   6.055  2.5186  0.9423  0.4730
  762MOL0     H 5103   6.131   4.378   5.808 -0.3907  1.9200 -2.3878
  762MOL0     H 5104   6.102   4.552   5.791  1.3779  0.7361 -0.5326
  762MOL0     H 5105   6.328   4.684   5.747 -0.2327  0.8414  0.8408
  762MOL0     H 5106   6.651   4.729   5.930  0.7738  1.9043 -1.7153
  762MOL0     H 5107   6.557   4.777   5.783 -1.2512  1.7710  2.6246
  762MOL0     H 5108   6.668   4.572   5.668 -0.6922 -1.9199  0.9463
  762MOL0     H 5109   6.768   4.703   5.704  1.0679 -0.6584  0.5382
  762MOL0     H 5110   6.898   4.557   5.850  0.6305 -1.3971  4.3946
  762MOL0     H 5111   6.754   4.530   5.950 -3.0069  0.7157 -0.8226
  762MOL0     H 5112   6.669   4.349   5.810 -0.5852  2.1133 -0.0247
  762MOL0     H 5113   6.778   4.396   5.678  1.4135  0.8924  0.4810
  762MOL0     H 5114   7.065   4.095   5.886 -0.2482  0.1072  0.9691
  762MOL0     H 5115   7.262   4.014   5.915  0.6538 -1.3326 -0.5689
  762MOL0     H 5116   7.402   4.096   5.838  0.7490  0.2771 -0.2069
  762MOL0     H 5117   7.311   3.974   5.751  0.6879 -1.0181  2.0215
  762MOL0     H 5118   7.665   4.229   5.634 -1.2347 -2.2087 -1.0312
  762MOL0     H 5119   7.894   4.272   5.534 -1.1950 -2.2038  0.0844
  762MOL0     H 5120   7.937   4.607   5.217 -1.0154  2.1464  0.9760
  762MOL0     H 5121   7.930   4.654   5.389  0.1346  4.7054 -2.5202
  762MOL0     H 5122   8.143   4.701   5.259 -2.4874 -0.3103 -1.1619
  762MOL0     H 5123   8.164   4.603   5.414 -1.8899 -0.3258  0.7001
  762MOL0     H 5124   8.164   4.508   5.125  0.2425 -3.1433 -0.6447
  762MOL0     H 5125   8.167   4.402   5.270  0.5111 -0.0237 -2.2254
  762MOL0     H 5126   8.390   4.522   5.323  0.6702 -0.2592  0.5260
  762MOL0     H 5127   8.366   4.607   5.173 -3.5168 -0.5990 -1.1780
  762MOL0     H 5128   8.380   4.303   5.197  0.5096 -1.2267 -0.9896
  762MOL0     H 5129   8.390   4.383   5.047  0.4860 -1.4151  0.6723
  762MOL0     H 5130   8.583   4.284   5.126 -3.3823 -0.6163 -2.3297
  762MOL0     H 5131   8.606   4.392   5.265 -0.2569  1.2907 -0.3320
  762MOL0     H 5132   8.640   4.586   5.116  0.0552 -1.4051  0.6469
  762MOL0     H 5133   8.616   4.488   4.973 -0.4041  0.2628 -0.1241
  762MOL0     H 5134   8.801   4.338   5.039  0.8316  0.1509  0.3081
  762MOL0     H 5135   8.848   4.460   5.166 -0.4586 -2.2885  0.1722
  762MOL0     H 5136   7.725   4.537   5.246 -0.7471  1.5713  1.7128
  762MOL0     H 5137   7.500   4.505   5.343  1.1319 -1.2922 -3.7388
  762MOL0     H 5138   7.211   4.436   5.558  0.5975 -0.5338 -1.2719
  762MOL0     H 5139   6.979   4.450   5.641 -0.5643  0.6864 -0.3316
  762MOL0     H 5140   5.824   4.650   6.880  0.0661  1.3871  1.6248
  762MOL0     H 5141   5.684   4.626   7.084 -2.7827 -4.2463 -0.4188
  762MOL0     H 5142   5.365   4.489   7.302  0.4214 -0.7534 -0.3852
  762MOL0     H 5143   5.220   4.423   7.490 -1.3962 -0.9811 -2.7050
  762MOL0     H 5144   4.974   4.458   7.513 -1.3116 -1.1006  0.5453
  762MOL0     H 5145   4.971   4.429   7.693 -1.2695 -0.5900 -1.3938
  762MOL0     H 5146   4.827   4.620   7.530  0.6381 -1.0667 -0.5065
  762MOL0     H 5147   4.855   4.659   7.705  0.7084 -2.1292  1.1724
  762MOL0     H 5148   4.720   4.403   7.605  1.4758  0.7845 -1.7542
  762MOL0     H 5149   4.766   4.442   7.768  1.8981 -0.5201 -0.7823
  762MOL0     H 5150   4.613   4.643   7.605  0.9707 -1.0775 -0.7466
  762MOL0     H 5151   4.585   4.615   7.785 -2.6690 -1.4161  1.2738
  762MOL0     H 5152   4.284   4.385   7.619 -1.8029  2.9593 -0.1960
  762MOL0     H 5153   5.121   4.835   7.569 -0.3272  1.4927 -1.2284
  762MOL0     H 5154   5.297   4.972   7.302 -0.9856 -0.3371 -1.3249
  762MOL0     H 5155   5.208   5.004   7.445  2.6636  3.7380 -0.7388
  762MOL0     H 5156   5.381   4.967   7.461  0.9321 -2.1592  0.3648
  763MOL0     O 5157   0.442   7.516   2.484 -0.0895 -0.6431 -0.0041
  763MOL0     C 5158   0.397   7.401   2.503  0.2178  0.5096  0.0054
  763MOL0     O 5159   0.465   7.286   2.522 -0.0400  0.1011  0.1257
  763MOL0     C 5160   0.595   7.303   2.564 -0.0936  0.2534  0.1904
  763MOL0     C 5161   0.625   7.309   2.693 -0.3492  1.0424  0.0599
  763MOL0     C 5162   0.767   7.297   2.730  0.7170  0.0449 -0.3794
  763MOL0     C 5163   0.869   7.300   2.636 -0.0647 -0.1478  0.9307
  763MOL0     O 5164   0.994   7.304   2.673 -0.6604 -0.6584 -0.4860
  763MOL0     C 5165   1.047   7.414   2.751  0.0220  0.5684  0.1669
  763MOL0     C 5166   1.129   7.357   2.876  0.5187  0.1061  0.0513
  763MOL0     C 5167   1.232   7.455   2.944  0.9611 -0.4940 -0.1842
  763MOL0     C 5168   1.366   7.447   2.868  0.3903 -0.0704  0.2685
  763MOL0     C 5169   1.432   7.315   2.910  0.2589  0.6292  0.0388
  763MOL0     C 5170   1.585   7.308   2.904  0.6952 -0.7923 -0.9469
  763MOL0     C 5171   1.680   7.390   3.002 -0.0760 -0.4945 -0.2755
  763MOL0     C 5172   1.641   7.381   3.151  0.8709 -0.2486 -0.3855
  763MOL0     N 5173   1.647   7.244   3.205  0.2226 -0.2685 -0.5544
  763MOL0     C 5174   1.735   7.144   3.168  0.4067  0.3218 -0.6625
  763MOL0     C 5175   1.705   7.028   3.242  0.6834 -0.0817  0.7018
  763MOL0     C 5176   1.797   6.915   3.228  0.0883 -0.0078  0.2555
  763MOL0     C 5177   1.751   6.791   3.305  0.2079 -0.4009  0.5938
  763MOL0     C 5178   1.843   6.677   3.280 -0.0732 -0.8191 -0.6644
  763MOL0     C 5179   1.871   6.640   3.134 -0.2185 -0.0058  0.3456
  763MOL0     O 5180   1.895   6.500   3.126 -0.1908 -0.3196  0.4027
  763MOL0     C 5181   2.023   6.451   3.157  0.4636 -0.2297  0.3936
  763MOL0     C 5182   2.033   6.322   3.113 -0.5901 -0.3412  0.1813
  763MOL0     C 5183   2.146   6.251   3.146  0.0690 -0.1574  0.8449
  763MOL0     C 5184   2.156   6.111   3.085 -0.2893  0.0378 -0.1550
  763MOL0     C 5185   2.253   6.310   3.216  0.0862 -0.7127 -0.5843
  763MOL0     C 5186   2.375   6.228   3.247 -0.2881  0.0288  0.0131
  763MOL0     O 5187   2.369   6.094   3.267  0.5949  0.2805 -0.4003
  763MOL0     C 5188   2.474   6.016   3.304  0.6081 -0.0420  0.6137
  763MOL0     C 5189   2.502   6.010   3.436  0.4234 -0.4208  0.3306
  763MOL0     C 5190   2.611   5.944   3.491  0.3641  0.2682  0.3757
  763MOL0     C 5191   2.708   5.881   3.409 -0.2420 -0.1120 -0.3260
  763MOL0     O 5192   2.825   5.831   3.453  0.0960  0.9107  0.4341
  763MOL0     C 5193   2.824   5.784   3.583 -0.0400  0.4894  0.0617
  763MOL0     C 5194   2.945   5.694   3.615  0.1897  0.0026  0.5262
  763MOL0     C 5195   2.953   5.561   3.528 -0.1926  0.4938 -0.0893
  763MOL0     C 5196   2.834   5.468   3.522  0.0009 -0.1340  0.7768
  763MOL0     C 5197   2.871   5.335   3.457 -0.5039 -0.3556 -0.6101
  763MOL0     C 5198   2.912   5.353   3.307  0.2343 -0.1035 -0.3622
  763MOL0     C 5199   2.888   5.223   3.230  0.6767 -1.2259 -0.3072
  763MOL0     C 5200   2.937   5.230   3.090 -0.1158 -0.3391 -0.3274
  763MOL0    Cl 5201   3.121   5.267   3.060  0.1555  0.1550 -0.1481
  763MOL0     C 5202   2.683   5.886   3.270  0.3658  0.1543 -0.3030
  763MOL0     C 5203   2.564   5.959   3.219  0.6623  0.0879  0.9736
  763MOL0     O 5204   2.476   6.290   3.263  1.0689  0.2332 -0.7198
  763MOL0     C 5205   2.249   6.449   3.243 -0.5385 -0.0769 -0.8362
  763MOL0     C 5206   2.134   6.517   3.211 -0.0723 -0.5427 -0.2727
  763MOL0     N 5207   1.596   7.062   3.325  0.4536  0.5534 -0.0258
  763MOL0     N 5208   1.566   7.190   3.303  0.3260  0.3031  0.1155
  763MOL0     C 5209   0.829   7.306   2.504 -1.5264  0.2990  0.2471
  763MOL0     C 5210   0.693   7.296   2.466 -0.0055 -0.5904 -0.2862
  763MOL0     C 5211   0.252   7.379   2.481 -0.1430 -0.0492 -0.1143
  763MOL0     C 5212   0.183   7.265   2.540 -1.0830  0.5929 -0.4073
  763MOL0     C 5213   0.042   7.254   2.552 -0.1319  0.4169 -0.5517
  763MOL0     C 5214  -0.035   7.354   2.497  0.9424  0.3105  0.3302
  763MOL0     O 5215  -0.168   7.342   2.520  0.1301  0.6356  0.6888
  763MOL0     C 5216  -0.244   7.322   2.401  0.2317 -0.2407 -0.1716
  763MOL0     C 5217  -0.262   7.178   2.370  1.0472  0.9668  0.0872
  763MOL0     C 5218  -0.350   7.101   2.468 -0.4841  0.0735 -0.8940
  763MOL0     C 5219  -0.494   7.126   2.451  0.5823  0.0296  0.4131
  763MOL0     C 5220  -0.572   7.095   2.571 -1.0816  0.6753 -0.2084
  763MOL0     C 5221  -0.635   7.057   2.665 -0.3603 -0.1856  0.4291
  763MOL0     C 5222   0.020   7.466   2.436  0.3333  0.3110 -0.2999
  763MOL0     C 5223   0.161   7.476   2.423  0.3174  0.2958 -0.7925
  763MOL0     C 5224   0.205   7.612   2.367 -0.1290 -0.8406  0.2912
  763MOL0     H 5225   0.549   7.309   2.770  0.4044  0.3641  0.8166
  763MOL0     H 5226   0.790   7.286   2.836  2.3703  0.4246 -0.6731
  763MOL0     H 5227   0.975   7.489   2.788  0.8124  0.4336  2.1038
  763MOL0     H 5228   1.110   7.455   2.672 -0.1862 -0.0995 -0.3593
  763MOL0     H 5229   1.057   7.340   2.957  0.6200 -1.1318 -0.0899
  763MOL0     H 5230   1.165   7.259   2.844  1.3793  1.1316 -2.3277
  763MOL0     H 5231   1.189   7.555   2.951 -0.1206 -0.9982  0.5865
  763MOL0     H 5232   1.244   7.426   3.049  2.5125 -0.7989 -0.4179
  763MOL0     H 5233   1.346   7.448   2.760  0.5031  3.0145  0.1886
  763MOL0     H 5234   1.424   7.532   2.906 -2.1953  1.8240  0.2871
  763MOL0     H 5235   1.392   7.234   2.848 -0.5058  0.2578  0.9878
  763MOL0     H 5236   1.411   7.298   3.016 -2.8845  1.9850 -0.2599
  763MOL0     H 5237   1.592   7.201   2.922 -0.2058 -0.3331  2.9452
  763MOL0     H 5238   1.625   7.327   2.803 -0.8272  2.7678 -1.0180
  763MOL0     H 5239   1.687   7.492   2.965  0.4440 -1.1166 -1.9852
  763MOL0     H 5240   1.782   7.350   2.992  0.4904 -1.2133  5.3204
  763MOL0     H 5241   1.693   7.460   3.207 -0.3511  2.0270 -2.2949
  763MOL0     H 5242   1.536   7.407   3.160  0.9267 -0.0488 -0.3216
  763MOL0     H 5243   1.827   7.162   3.113  1.7883 -1.2913  0.9727
  763MOL0     H 5244   1.896   6.936   3.269 -0.8858  0.2836  2.6398
  763MOL0     H 5245   1.801   6.897   3.121  2.1177 -0.7445  0.4012
  763MOL0     H 5246   1.740   6.818   3.411 -1.7542  0.1099  0.3093
  763MOL0     H 5247   1.647   6.779   3.271 -0.1152  0.0713  1.3832
  763MOL0     H 5248   1.935   6.694   3.336  0.6789 -2.0975 -1.4760
  763MOL0     H 5249   1.801   6.594   3.337 -0.3534  1.4010  2.6191
  763MOL0     H 5250   1.786   6.661   3.068 -0.1793  1.3434  0.6922
  763MOL0     H 5251   1.956   6.697   3.096 -0.4788  0.0761 -0.1242
  763MOL0     H 5252   1.953   6.268   3.064 -0.0900 -0.3512 -0.6322
  763MOL0     H 5253   2.235   6.096   3.011  0.2687 -0.0504  0.4448
  763MOL0     H 5254   2.067   6.085   3.027 -0.0915 -0.2649 -0.3241
  763MOL0     H 5255   2.166   6.036   3.164  1.1666 -0.0120 -0.3511
  763MOL0     H 5256   2.442   6.061   3.511  1.4525 -1.6649  2.0669
  763MOL0     H 5257   2.623   5.953   3.598  2.1858  1.0028  0.1419
  763MOL0     H 5258   2.822   5.868   3.652 -0.5292  0.2462  0.3485
  763MOL0     H 5259   2.736   5.720   3.596 -0.2066  0.1084 -2.3858
  763MOL0     H 5260   3.037   5.750   3.599 -0.5822  0.6458 -2.2822
  763MOL0     H 5261   2.930   5.676   3.721  3.4276  0.0019  1.0547
  763MOL0     H 5262   3.028   5.500   3.580 -1.4870 -0.5841  0.5763
  763MOL0     H 5263   2.985   5.593   3.429  1.4217  0.0312  0.2470
  763MOL0     H 5264   2.760   5.514   3.456 -1.3883 -1.6171  1.2533
  763MOL0     H 5265   2.803   5.453   3.625  0.1442 -0.4307  0.7778
  763MOL0     H 5266   2.952   5.292   3.518 -1.3299  0.0315  0.8031
  763MOL0     H 5267   2.789   5.263   3.458 -0.7899 -0.1633 -3.1062
  763MOL0     H 5268   3.015   5.386   3.290  0.0600 -0.2487 -1.8244
  763MOL0     H 5269   2.850   5.430   3.259  0.9243  0.5550 -0.2212
  763MOL0     H 5270   2.781   5.203   3.227  0.4138 -0.1210  0.8243
  763MOL0     H 5271   2.940   5.142   3.281 -2.9006 -3.3684  0.2298
  763MOL0     H 5272   2.869   5.298   3.039 -1.9101 -0.3556  1.8913
  763MOL0     H 5273   2.912   5.129   3.055 -0.0601 -0.0399 -1.2501
  763MOL0     H 5274   2.753   5.840   3.202  3.3914  2.1856  1.2052
  763MOL0     H 5275   2.548   5.965   3.112 -0.8711  2.1239  1.2509
  763MOL0     H 5276   2.327   6.501   3.296 -1.6417  1.0686 -0.2973
  763MOL0     H 5277   2.144   6.623   3.233  1.7755 -0.4514 -1.3223
  763MOL0     H 5278   0.892   7.296   2.416 -2.4011 -0.6189 -0.2926
  763MOL0     H 5279   0.653   7.291   2.365 -1.2604  1.1548  0.0841
  763MOL0     H 5280   0.252   7.195   2.586 -0.3040 -1.3757 -4.1805
  763MOL0     H 5281  -0.002   7.164   2.592  0.1958 -0.4054 -1.9751
  763MOL0     H 5282  -0.344   7.362   2.417  0.5071  0.7754 -0.8806
  763MOL0     H 5283  -0.212   7.386   2.318  0.1479 -1.0462 -0.8468
  763MOL0     H 5284  -0.160   7.137   2.373  0.8458  0.5408  1.3981
  763MOL0     H 5285  -0.304   7.164   2.270  1.9324 -0.5799 -0.1043
  763MOL0     H 5286  -0.324   6.994   2.464 -0.8273 -0.0421 -0.1582
  763MOL0     H 5287  -0.325   7.142   2.566  0.4502  0.7128 -1.3809
  763MOL0     H 5288  -0.525   7.074   2.360  1.2032  1.3163 -0.5745
  763MOL0     H 5289  -0.518   7.232   2.436  1.7526  0.4318  1.2699
  763MOL0     H 5290  -0.671   7.020   2.758  1.7297 -2.2844  0.5046
  763MOL0     H 5291  -0.047   7.547   2.408  2.2216  1.6996 -0.9690
  763MOL0     H 5292   0.302   7.590   2.321 -0.7765 -2.6589 -0.3324
  763MOL0     H 5293   0.146   7.656   2.286  1.7322 -1.2637 -1.3767
  763MOL0     H 5294   0.222   7.685   2.446  0.5299 -0.1676 -0.4585
  764MOL0     O 5295   9.778   6.114   0.976 -0.7613  0.3386  0.5197
  764MOL0     C 5296   9.824   6.083   1.087  0.5345 -0.5730 -0.3433
  764MOL0     O 5297   9.950   6.048   1.109  0.0826  0.0749 -1.2598
  764MOL0     C 5298  10.046   6.081   1.018 -0.2682  0.1400 -0.2072
  764MOL0     C 5299  10.055   6.009   0.895  0.2696  0.6971 -0.4632
  764MOL0     C 5300  10.173   6.014   0.821 -0.4431  0.1750  0.0935
  764MOL0     C 5301  10.280   6.093   0.865 -0.5683 -0.2369  0.8418
  764MOL0     O 5302  10.398   6.105   0.800 -0.6233 -0.3224 -1.2591
  764MOL0     C 5303  10.446   6.017   0.704  0.1365  0.0985  0.5898
  764MOL0     C 5304  10.594   6.051   0.657  0.1989 -0.8029 -0.1120
  764MOL0     C 5305  10.591   6.162   0.562 -0.8455 -0.3371 -0.3781
  764MOL0     C 5306  10.730   6.233   0.550  0.1020  0.4236 -0.9718
  764MOL0     C 5307  10.745   6.305   0.417 -0.2140  0.0436 -0.2959
  764MOL0     C 5308  10.859   6.411   0.400 -0.5789  0.5832 -0.3255
  764MOL0     C 5309  10.996   6.360   0.418 -0.2980  0.8187 -0.8241
  764MOL0     C 5310  11.102   6.472   0.413 -0.2548 -0.4667 -0.3751
  764MOL0     N 5311  11.250   6.424   0.433  0.2326 -0.3617 -0.1126
  764MOL0     C 5312  11.330   6.380   0.327 -0.5641  0.0894 -0.8762
  764MOL0     C 5313  11.444   6.341   0.398  0.2317 -0.1178  0.6886
  764MOL0     C 5314  11.574   6.296   0.331  0.2049  0.7270  0.2215
  764MOL0     C 5315  11.691   6.286   0.425 -0.4770  0.6873  0.5463
  764MOL0     C 5316  11.829   6.291   0.360  0.3484  0.8665 -0.3912
  764MOL0     C 5317  11.934   6.300   0.472  0.0472 -0.5048  0.5525
  764MOL0     O 5318  12.061   6.314   0.416  0.2409 -0.2675 -0.1993
  764MOL0     C 5319  12.178   6.315   0.497 -0.9824  0.4772  0.7397
  764MOL0     C 5320  12.197   6.274   0.631 -1.2252 -0.6022 -0.2944
  764MOL0     C 5321  12.320   6.267   0.700  0.1064  0.4555  0.6470
  764MOL0     C 5322  12.313   6.193   0.828  0.4168 -0.5238 -0.4210
  764MOL0     C 5323  12.437   6.310   0.635  0.2656 -0.6697 -0.5377
  764MOL0     C 5324  12.571   6.307   0.704  0.6448 -0.3396 -0.2023
  764MOL0     O 5325  12.671   6.390   0.665 -0.0291 -0.1746 -0.3088
  764MOL0     C 5326  12.780   6.390   0.749  0.0416  0.4873  0.7675
  764MOL0     C 5327  12.773   6.480   0.856  1.4720  0.0561  0.0530
  764MOL0     C 5328  12.878   6.487   0.941 -0.4253 -0.0391  0.3260
  764MOL0     C 5329  12.993   6.398   0.928  0.6939 -0.9705  0.1514
  764MOL0     O 5330  13.089   6.420   1.017  0.0613  0.0451 -0.4682
  764MOL0     C 5331  13.147   6.305   1.072 -0.1517  0.2412  0.0355
  764MOL0     C 5332  13.236   6.370   1.174 -0.2365 -0.0528 -0.6068
  764MOL0     C 5333  13.298   6.265   1.261  1.2552 -0.5156  0.1456
  764MOL0     C 5334  13.392   6.336   1.364 -0.7750  0.2558  0.0560
  764MOL0     C 5335  13.498   6.248   1.428 -0.0046  0.0110  0.1444
  764MOL0     C 5336  13.606   6.332   1.495 -0.6851 -0.2138  0.0508
  764MOL0     C 5337  13.689   6.248   1.591 -0.8287  0.1720 -0.1288
  764MOL0     C 5338  13.818   6.321   1.649  0.3758  0.9096 -0.6638
  764MOL0    Cl 5339  13.941   6.309   1.520  0.0740 -0.1648 -0.1513
  764MOL0     C 5340  12.990   6.307   0.822 -0.0199  0.1983  0.5611
  764MOL0     C 5341  12.884   6.303   0.732 -0.4577  1.3153  0.4162
  764MOL0     O 5342  12.583   6.224   0.795 -0.4469 -0.2724  0.5901
  764MOL0     C 5343  12.421   6.351   0.507  0.4052 -0.3022 -0.0178
  764MOL0     C 5344  12.300   6.347   0.438 -0.0390 -1.1470  0.0257
  764MOL0     N 5345  11.425   6.359   0.535  0.8880  0.1390  0.4968
  764MOL0     N 5346  11.312   6.421   0.551 -0.2472 -0.6056 -1.0641
  764MOL0     C 5347  10.262   6.167   0.983 -0.3308 -0.0752 -0.4522
  764MOL0     C 5348  10.154   6.156   1.067  0.2307 -0.3956  1.1296
  764MOL0     C 5349   9.737   6.100   1.210  0.2783  0.7616 -0.3284
  764MOL0     C 5350   9.653   6.216   1.221 -0.3143 -0.0822  0.0110
  764MOL0     C 5351   9.580   6.235   1.340  0.1639  0.2084 -0.4517
  764MOL0     C 5352   9.595   6.154   1.446 -0.5236  0.0320  0.3707
  764MOL0     O 5353   9.524   6.164   1.566 -0.3771  0.1870 -0.5704
  764MOL0     C 5354   9.412   6.248   1.571  0.1231  0.8240  0.4983
  764MOL0     C 5355   9.337   6.184   1.691  0.1132 -0.7520  0.6549
  764MOL0     C 5356   9.226   6.282   1.754  0.4551  0.1132 -0.1784
  764MOL0     C 5357   9.143   6.217   1.865 -0.7884  0.2187  0.0568
  764MOL0     C 5358   9.229   6.168   1.972  0.0864  0.6149  1.3220
  764MOL0     C 5359   9.298   6.126   2.062  0.8920  0.2330  0.2223
  764MOL0     C 5360   9.679   6.042   1.439  1.1414  0.5923 -0.3978
  764MOL0     C 5361   9.753   6.009   1.325  0.5698 -0.0052  1.1376
  764MOL0     C 5362   9.810   5.865   1.317 -0.1679 -0.4232 -0.6468
  764MOL0     H 5363   9.972   5.943   0.874  0.0345  1.1744 -1.0877
  764MOL0     H 5364  10.188   5.962   0.727  2.7569  1.6316 -0.3625
  764MOL0     H 5365  10.374   6.015   0.622  2.6378 -0.1949 -1.7493
  764MOL0     H 5366  10.439   5.915   0.745 -1.3923 -0.5705 -1.1771
  764MOL0     H 5367  10.668   6.071   0.735  0.1967 -0.2192 -0.2610
  764MOL0     H 5368  10.634   5.962   0.607  1.2528 -2.0122  2.6460
  764MOL0     H 5369  10.560   6.133   0.461 -1.4574  0.9040 -0.5607
  764MOL0     H 5370  10.521   6.243   0.584  0.2259  0.6653 -0.5363
  764MOL0     H 5371  10.737   6.304   0.633  0.3210 -0.8545  0.1437
  764MOL0     H 5372  10.810   6.158   0.552 -1.2111 -1.0490 -1.4782
  764MOL0     H 5373  10.658   6.367   0.393 -0.5660 -0.0995  0.5801
  764MOL0     H 5374  10.749   6.224   0.344 -1.1297  0.2945 -0.6509
  764MOL0     H 5375  10.847   6.460   0.303 -0.8106  0.0567 -0.5706
  764MOL0     H 5376  10.841   6.484   0.478 -0.8079  0.0722  0.1076
  764MOL0     H 5377  11.014   6.298   0.330 -0.7900 -0.2015 -0.2218
  764MOL0     H 5378  11.010   6.304   0.511  1.3090  1.2726 -0.7611
  764MOL0     H 5379  11.104   6.522   0.315  3.5246 -0.9087 -0.6839
  764MOL0     H 5380  11.080   6.550   0.486  0.0065  0.9606 -1.7490
  764MOL0     H 5381  11.326   6.374   0.219 -1.5052  0.6221 -0.8836
  764MOL0     H 5382  11.605   6.360   0.247  1.8991  0.4710  0.6053
  764MOL0     H 5383  11.547   6.198   0.289 -3.5637  1.4024  0.7621
  764MOL0     H 5384  11.688   6.377   0.485 -1.0139 -1.4202  3.9967
  764MOL0     H 5385  11.680   6.194   0.483 -1.8644  1.5212  1.7043
  764MOL0     H 5386  11.844   6.200   0.301  1.4079  0.2654  0.7541
  764MOL0     H 5387  11.839   6.369   0.284  0.5694  0.8229 -0.4089
  764MOL0     H 5388  11.913   6.389   0.532 -0.0228  1.2706 -1.9319
  764MOL0     H 5389  11.923   6.213   0.537  1.0175 -1.3356 -0.3578
  764MOL0     H 5390  12.113   6.232   0.685 -1.4267 -1.2261 -1.0765
  764MOL0     H 5391  12.359   6.095   0.820 -0.9013 -1.0480 -1.9602
  764MOL0     H 5392  12.209   6.172   0.853  0.3256 -0.6309 -0.8868
  764MOL0     H 5393  12.355   6.254   0.910  0.9305 -3.6575  1.8220
  764MOL0     H 5394  12.682   6.538   0.866  0.6014 -0.6082 -2.9874
  764MOL0     H 5395  12.876   6.554   1.026 -2.3217  2.8271 -1.7600
  764MOL0     H 5396  13.069   6.239   1.110 -0.4556  2.0171  2.7531
  764MOL0     H 5397  13.209   6.254   0.998 -2.4296 -1.9182 -0.5218
  764MOL0     H 5398  13.317   6.425   1.124  0.2153 -1.4028 -1.4420
  764MOL0     H 5399  13.179   6.442   1.231  0.7105  1.6290 -1.6921
  764MOL0     H 5400  13.356   6.198   1.196  1.0434  1.2722 -2.0020
  764MOL0     H 5401  13.227   6.202   1.316  0.7499 -0.9063 -0.9287
  764MOL0     H 5402  13.330   6.368   1.448  0.2092 -0.6603  1.1551
  764MOL0     H 5403  13.438   6.422   1.314  0.7337 -0.6076 -0.0995
  764MOL0     H 5404  13.441   6.201   1.509  1.1960  2.7496  2.7640
  764MOL0     H 5405  13.536   6.182   1.350  0.0624  0.0743  0.1239
  764MOL0     H 5406  13.568   6.425   1.537  0.0171 -0.2090  0.6945
  764MOL0     H 5407  13.673   6.348   1.410 -0.2192 -2.7521 -0.1319
  764MOL0     H 5408  13.715   6.156   1.539  0.4186  0.2184  0.3649
  764MOL0     H 5409  13.629   6.223   1.679 -3.4829 -4.3745 -2.8725
  764MOL0     H 5410  13.853   6.278   1.744 -0.7640  0.6642 -0.3391
  764MOL0     H 5411  13.797   6.426   1.667 -3.6331  0.7393 -3.1301
  764MOL0     H 5412  13.073   6.245   0.793 -0.5669  0.8592 -2.8510
  764MOL0     H 5413  12.866   6.231   0.653  0.4268 -0.3884  1.7168
  764MOL0     H 5414  12.506   6.378   0.445  1.8677 -2.3908  0.9403
  764MOL0     H 5415  12.291   6.382   0.336 -1.0526 -1.6028 -0.0508
  764MOL0     H 5416  10.339   6.239   1.012 -1.1955  0.7711 -0.2017
  764MOL0     H 5417  10.152   6.211   1.160  1.7311 -1.1207  1.6249
  764MOL0     H 5418   9.637   6.277   1.133  0.2610 -4.8292 -3.8219
  764MOL0     H 5419   9.527   6.329   1.355  0.8171  0.4524  0.4083
  764MOL0     H 5420   9.444   6.351   1.590  1.9368  0.4206 -0.2049
  764MOL0     H 5421   9.341   6.254   1.488  1.3699  2.5054 -0.5135
  764MOL0     H 5422   9.413   6.159   1.765  1.8537  0.0126 -0.8158
  764MOL0     H 5423   9.286   6.093   1.659  0.0852 -0.5453  0.0864
  764MOL0     H 5424   9.274   6.374   1.787 -1.3443  1.1730 -0.4190
  764MOL0     H 5425   9.167   6.302   1.664 -2.0335 -1.1415  1.0839
  764MOL0     H 5426   9.085   6.136   1.819 -0.3236  0.1442 -0.4074
  764MOL0     H 5427   9.083   6.292   1.917 -0.6050 -0.1560  0.8272
  764MOL0     H 5428   9.365   6.085   2.134  2.1234  0.9618 -0.4793
  764MOL0     H 5429   9.681   5.979   1.527 -2.6756 -0.6154 -0.9992
  764MOL0     H 5430   9.892   5.849   1.246 -0.2001 -0.4844 -0.6700
  764MOL0     H 5431   9.853   5.831   1.411 -0.1936 -1.9530 -1.1610
  764MOL0     H 5432   9.732   5.797   1.283 -1.0587  0.4380 -0.3846
  765MOL0     O 5433   1.455   4.738   1.687  0.2318  0.3285 -0.3067
  765MOL0     C 5434   1.402   4.849   1.696 -0.0317  0.0480 -0.1463
  765MOL0     O 5435   1.382   4.913   1.815 -0.0734  0.3816  0.4283
  765MOL0     C 5436   1.403   4.846   1.931  0.6059 -0.3461  0.3162
  765MOL0     C 5437   1.521   4.878   2.012  0.2665 -0.9437 -0.6104
  765MOL0     C 5438   1.535   4.830   2.149 -0.1290  0.0371 -0.8317
  765MOL0     C 5439   1.438   4.744   2.196  0.8102  0.0539  0.7280
  765MOL0     O 5440   1.452   4.681   2.315  0.3394  0.6303 -0.8299
  765MOL0     C 5441   1.364   4.720   2.419  0.6682 -0.5127  1.1475
  765MOL0     C 5442   1.363   4.870   2.450 -0.5508  0.8050 -0.4256
  765MOL0     C 5443   1.486   4.944   2.512 -0.0190 -0.3554  0.5955
  765MOL0     C 5444   1.462   5.095   2.506  0.0911  0.0928  0.1361
  765MOL0     C 5445   1.577   5.163   2.571 -0.5314 -0.5688  0.4874
  765MOL0     C 5446   1.567   5.318   2.587 -0.0053  1.0451  0.5876
  765MOL0     C 5447   1.691   5.358   2.666  0.0664 -0.1465 -0.2740
  765MOL0     C 5448   1.813   5.376   2.577  0.0160  0.7830  0.3828
  765MOL0     N 5449   1.930   5.404   2.658  0.1262  0.0180 -0.2470
  765MOL0     C 5450   1.985   5.531   2.666  0.5335  0.1136  0.3392
  765MOL0     C 5451   2.101   5.511   2.730  0.3130 -0.0484 -0.2099
  765MOL0     C 5452   2.204   5.618   2.765 -0.5254  0.5124 -0.0653
  765MOL0     C 5453   2.341   5.559   2.800  0.3114 -0.0185 -0.0743
  765MOL0     C 5454   2.426   5.667   2.874  0.1453 -0.8729 -0.0695
  765MOL0     C 5455   2.568   5.609   2.887  0.5985 -0.3247  0.5095
  765MOL0     O 5456   2.652   5.676   2.977  0.8238 -0.2417  0.1959
  765MOL0     C 5457   2.784   5.686   2.947  0.7643  1.5490  0.2533
  765MOL0     C 5458   2.837   5.736   2.828  0.3530 -0.6869 -0.3113
  765MOL0     C 5459   2.978   5.736   2.808 -0.6893 -0.7490  0.0002
  765MOL0     C 5460   3.015   5.796   2.672  0.0091  0.8779 -0.5426
  765MOL0     C 5461   3.065   5.690   2.904  0.7807  0.5311  0.5769
  765MOL0     C 5462   3.207   5.667   2.895 -0.2518  0.2640  0.8395
  765MOL0     O 5463   3.283   5.641   3.005 -0.4309  0.6063  0.5381
  765MOL0     C 5464   3.413   5.623   2.986 -0.3437  0.0123  0.3247
  765MOL0     C 5465   3.503   5.721   2.946 -0.3266 -0.5288 -1.0064
  765MOL0     C 5466   3.640   5.703   2.959 -0.6855  0.0058  0.3706
  765MOL0     C 5467   3.694   5.584   3.016  0.1535  0.1153 -0.0019
  765MOL0     O 5468   3.833   5.580   3.022  0.4720  0.6526 -0.3944
  765MOL0     C 5469   3.904   5.462   3.047 -0.1268  0.0749 -0.0898
  765MOL0     C 5470   4.051   5.484   3.042 -0.1120 -0.8940  0.7105
  765MOL0     C 5471   4.093   5.492   2.896 -0.3760  0.2632  0.1775
  765MOL0     C 5472   4.242   5.492   2.885 -0.4290  0.4542  0.3109
  765MOL0     C 5473   4.289   5.569   2.756  0.1532 -0.2822 -0.2087
  765MOL0     C 5474   4.268   5.725   2.791  0.3154  0.0684 -0.4574
  765MOL0     C 5475   4.337   5.821   2.698  0.3338  0.2061 -0.3750
  765MOL0     C 5476   4.248   5.919   2.616 -0.5258  0.1517 -0.5970
  765MOL0    Cl 5477   4.331   6.066   2.554  0.3974  0.3621  0.1158
  765MOL0     C 5478   3.604   5.477   3.041  0.1799 -0.2568 -0.5151
  765MOL0     C 5479   3.467   5.497   3.024 -0.1356 -0.0069  0.0257
  765MOL0     O 5480   3.246   5.656   2.779  0.1056 -0.4968  0.4319
  765MOL0     C 5481   3.012   5.646   3.027  0.2499  0.4097  0.1869
  765MOL0     C 5482   2.874   5.641   3.048 -1.0090  0.0300  0.4992
  765MOL0     N 5483   2.126   5.376   2.748  0.0108  0.4549  0.2382
  765MOL0     N 5484   2.018   5.312   2.709 -0.1102 -0.1553  0.1140
  765MOL0     C 5485   1.321   4.712   2.111 -1.0720  0.5841 -0.1576
  765MOL0     C 5486   1.307   4.759   1.979 -0.2766 -0.0088 -0.2939
  765MOL0     C 5487   1.363   4.924   1.575 -1.1089  0.0393  0.7480
  765MOL0     C 5488   1.289   5.045   1.591  0.1751  0.0515 -0.1121
  765MOL0     C 5489   1.241   5.114   1.484  0.0687 -0.1353  0.6095
  765MOL0     C 5490   1.272   5.081   1.349  0.7927  0.9914 -0.7253
  765MOL0     O 5491   1.212   5.150   1.244  0.0265 -0.0587 -0.4592
  765MOL0     C 5492   1.258   5.110   1.113  0.1072 -0.3545 -0.4976
  765MOL0     C 5493   1.197   5.215   1.019 -0.6405 -0.3636  0.7373
  765MOL0     C 5494   1.049   5.185   1.006  0.1741  0.4786  0.1208
  765MOL0     C 5495   0.981   5.273   0.897 -1.1252  0.1244  1.2102
  765MOL0     C 5496   0.839   5.241   0.884 -0.2703 -0.4933  0.6236
  765MOL0     C 5497   0.724   5.205   0.864 -0.4040 -1.1579 -0.5921
  765MOL0     C 5498   1.340   4.962   1.330 -0.7405  0.1079 -0.2342
  765MOL0     C 5499   1.387   4.879   1.435 -0.2321 -0.7467  0.1903
  765MOL0     C 5500   1.439   4.751   1.386  0.1619 -1.0031 -0.3283
  765MOL0     H 5501   1.589   4.951   1.968  0.7208 -0.6005  0.6147
  765MOL0     H 5502   1.623   4.859   2.204 -1.2736 -0.9083  1.6232
  765MOL0     H 5503   1.411   4.673   2.506  0.7505  0.1798  1.4770
  765MOL0     H 5504   1.265   4.676   2.401 -0.5139  1.5041  2.3220
  765MOL0     H 5505   1.329   4.927   2.364 -0.0450  2.8752  0.6670
  765MOL0     H 5506   1.281   4.890   2.519 -1.4378 -2.0348 -0.5509
  765MOL0     H 5507   1.506   4.920   2.617 -2.4606 -0.5853  1.0609
  765MOL0     H 5508   1.577   4.930   2.454  0.9436  3.8538  0.7512
  765MOL0     H 5509   1.444   5.133   2.405  1.7379  0.5628 -0.0078
  765MOL0     H 5510   1.365   5.105   2.556  0.8513 -0.1229  1.7334
  765MOL0     H 5511   1.666   5.142   2.510 -0.7349 -2.5303  0.8072
  765MOL0     H 5512   1.592   5.122   2.671  1.1930 -0.2601  0.3883
  765MOL0     H 5513   1.567   5.382   2.498  2.2803  1.8597  1.0919
  765MOL0     H 5514   1.478   5.341   2.646 -2.9822 -1.1583 -2.6499
  765MOL0     H 5515   1.718   5.294   2.750  0.7535  2.8364  1.9302
  765MOL0     H 5516   1.666   5.456   2.708  0.8922  0.6340 -1.5289
  765MOL0     H 5517   1.835   5.286   2.518 -2.0822  1.4470 -1.5257
  765MOL0     H 5518   1.793   5.460   2.511 -1.1787  1.3056  1.3767
  765MOL0     H 5519   1.941   5.628   2.642  0.4021 -0.4481 -1.8547
  765MOL0     H 5520   2.172   5.679   2.850 -1.8973  0.7432 -0.7070
  765MOL0     H 5521   2.208   5.687   2.680  1.0373 -0.2024 -0.6069
  765MOL0     H 5522   2.338   5.471   2.864  1.2683 -0.2608 -0.3506
  765MOL0     H 5523   2.386   5.525   2.707 -0.8353  0.9565 -1.0218
  765MOL0     H 5524   2.429   5.751   2.804 -2.3898 -0.7915 -0.1497
  765MOL0     H 5525   2.378   5.702   2.965 -0.8934 -1.5480 -0.3388
  765MOL0     H 5526   2.558   5.511   2.936 -2.6249 -0.2059  0.3357
  765MOL0     H 5527   2.619   5.590   2.792  1.6688  1.3313  0.7089
  765MOL0     H 5528   2.769   5.781   2.757 -1.3499 -3.6884 -0.7555
  765MOL0     H 5529   2.955   5.886   2.661 -1.9131  0.1330  2.4393
  765MOL0     H 5530   3.004   5.729   2.586 -3.0468 -0.2804  0.6129
  765MOL0     H 5531   3.120   5.826   2.664  0.5418 -0.3456  1.1409
  765MOL0     H 5532   3.468   5.822   2.923 -1.2952 -0.3080  1.1879
  765MOL0     H 5533   3.700   5.791   2.937  0.6100 -0.8798  0.2274
  765MOL0     H 5534   3.865   5.425   3.143 -0.4431 -0.0432 -0.2612
  765MOL0     H 5535   3.871   5.393   2.969 -1.6954 -0.1081  0.6827
  765MOL0     H 5536   4.073   5.581   3.089 -0.8347 -0.7473  0.7615
  765MOL0     H 5537   4.104   5.411   3.103  1.0848  0.7858  1.7868
  765MOL0     H 5538   4.054   5.578   2.841 -1.4271 -0.8739 -0.9266
  765MOL0     H 5539   4.058   5.402   2.844 -1.7414 -0.1888  1.7546
  765MOL0     H 5540   4.285   5.391   2.889 -1.6610 -0.1692 -1.1336
  765MOL0     H 5541   4.283   5.550   2.968 -0.6887  0.8611  0.1591
  765MOL0     H 5542   4.395   5.552   2.736 -0.0273 -0.5633 -0.9541
  765MOL0     H 5543   4.244   5.537   2.661  4.6222 -0.8677 -2.4250
  765MOL0     H 5544   4.318   5.743   2.887  1.3628  0.6905 -1.1061
  765MOL0     H 5545   4.164   5.750   2.814 -0.3506 -3.0034  0.2628
  765MOL0     H 5546   4.405   5.769   2.630  2.2745  1.2947  0.6514
  765MOL0     H 5547   4.406   5.883   2.756  0.8738  0.7215 -1.5483
  765MOL0     H 5548   4.156   5.947   2.668  0.0696  2.5999 -0.7483
  765MOL0     H 5549   4.210   5.855   2.536 -1.7669 -1.1773  0.9903
  765MOL0     H 5550   3.649   5.386   3.079 -2.1328 -0.6201  1.5863
  765MOL0     H 5551   3.398   5.415   3.042 -1.0174  0.6064 -0.4535
  765MOL0     H 5552   3.086   5.608   3.098  0.8101  3.5397  1.4307
  765MOL0     H 5553   2.825   5.604   3.137 -1.8466  1.5810  0.7340
  765MOL0     H 5554   1.247   4.647   2.158  0.3601 -1.8596 -1.0796
  765MOL0     H 5555   1.218   4.734   1.922 -1.0434  1.5205  0.1709
  765MOL0     H 5556   1.264   5.075   1.692 -0.3283  0.4454 -0.3522
  765MOL0     H 5557   1.180   5.203   1.498  1.3472  0.7774  0.5399
  765MOL0     H 5558   1.366   5.118   1.099  0.4495  0.2928  2.0153
  765MOL0     H 5559   1.221   5.010   1.089 -1.0872  0.0605 -0.4778
  765MOL0     H 5560   1.257   5.218   0.928  0.5203  0.2624  1.4799
  765MOL0     H 5561   1.202   5.316   1.062  1.8763 -1.4241  3.3105
  765MOL0     H 5562   1.026   5.081   0.983  0.7099  0.2863  0.4541
  765MOL0     H 5563   1.006   5.207   1.104 -1.0297  0.7255 -0.4436
  765MOL0     H 5564   1.034   5.253   0.804 -0.1045 -0.0962  1.8227
  765MOL0     H 5565   0.982   5.381   0.917 -0.7046  0.4030 -0.2013
  765MOL0     H 5566   0.619   5.194   0.847 -0.8620 -0.7494  1.6365
  765MOL0     H 5567   1.338   4.915   1.233 -2.1087 -1.4450  0.4817
  765MOL0     H 5568   1.535   4.737   1.436  0.0727  4.1840  1.9331
  765MOL0     H 5569   1.377   4.668   1.422  0.3348 -0.8501  0.3440
  765MOL0     H 5570   1.436   4.741   1.277  0.2887  0.5351 -0.4923
  766MOL0     O 5571   7.956   3.269   9.415  0.3809 -0.2835  0.0372
  766MOL0     C 5572   7.930   3.204   9.316  0.3773 -1.4070 -0.2196
  766MOL0     O 5573   8.023   3.148   9.242 -0.1712  0.0052  0.1394
  766MOL0     C 5574   8.159   3.151   9.280 -0.3472 -0.3299  0.4842
  766MOL0     C 5575   8.222   3.044   9.344 -0.8110  0.9604  0.0614
  766MOL0     C 5576   8.364   3.040   9.367  0.5695 -0.1522  0.0766
  766MOL0     C 5577   8.442   3.146   9.324 -0.7961  0.4881  0.3825
  766MOL0     O 5578   8.580   3.137   9.346 -0.5675  0.1037 -0.2514
  766MOL0     C 5579   8.665   3.259   9.349  0.1132  0.4444  0.5568
  766MOL0     C 5580   8.770   3.245   9.467  0.0225  0.9782 -0.1782
  766MOL0     C 5581   8.898   3.180   9.416 -0.2534  0.4692 -0.2062
  766MOL0     C 5582   8.982   3.103   9.521 -0.7220  0.0733 -0.6519
  766MOL0     C 5583   9.039   3.204   9.618 -0.9597  0.1600  0.1243
  766MOL0     C 5584   9.169   3.171   9.692  0.5517  1.2333  0.6421
  766MOL0     C 5585   9.296   3.129   9.599  1.2427 -1.1393 -0.1235
  766MOL0     C 5586   9.329   3.238   9.492 -0.3507 -0.9465 -0.5277
  766MOL0     N 5587   9.387   3.358   9.557 -0.0055  0.2784 -0.1194
  766MOL0     C 5588   9.503   3.359   9.636 -0.7253  0.3401 -0.8911
  766MOL0     C 5589   9.497   3.481   9.699  0.0024  0.1953 -0.0671
  766MOL0     C 5590   9.588   3.530   9.805  0.2706  0.2014  0.4594
  766MOL0     C 5591   9.732   3.565   9.763 -0.0283 -0.9682 -0.5173
  766MOL0     C 5592   9.815   3.583   9.885 -0.2356  0.1538  0.0674
  766MOL0     C 5593   9.951   3.609   9.838 -0.0989 -0.2006  0.5777
  766MOL0     O 5594  10.039   3.638   9.947  0.0612  0.0687 -0.2451
  766MOL0     C 5595  10.179   3.637   9.931  0.8241  0.6120 -0.4543
  766MOL0     C 5596  10.242   3.614   9.803  0.0912  0.1086 -0.3235
  766MOL0     C 5597  10.384   3.612   9.796  0.0318  0.2796  1.2690
  766MOL0     C 5598  10.442   3.584   9.658  0.7478 -0.0734 -0.5118
  766MOL0     C 5599  10.457   3.605   9.918 -0.3012  0.4257 -0.1913
  766MOL0     C 5600  10.596   3.575   9.928 -1.1608 -0.8584  0.3106
  766MOL0     O 5601  10.672   3.646  10.017 -0.1330 -0.4507  0.7810
  766MOL0     C 5602  10.800   3.615  10.038 -0.3679 -0.8465  0.2516
  766MOL0     C 5603  10.896   3.637   9.944  0.7528 -0.1392 -0.6756
  766MOL0     C 5604  11.033   3.632   9.966  0.0878  1.1351 -0.7989
  766MOL0     C 5605  11.072   3.611  10.104 -0.3996  1.5463 -0.0774
  766MOL0     O 5606  11.199   3.625  10.157 -0.0465 -0.1870 -0.1310
  766MOL0     C 5607  11.281   3.724  10.096  0.3667  0.1310 -0.3485
  766MOL0     C 5608  11.435   3.698  10.118  1.2689 -0.1325 -0.0864
  766MOL0     C 5609  11.484   3.550  10.091  0.2635  0.7169  0.4643
  766MOL0     C 5610  11.597   3.508  10.190 -0.4353  0.4412  0.8476
  766MOL0     C 5611  11.643   3.366  10.163  0.1751 -0.1352 -0.3173
  766MOL0     C 5612  11.739   3.325  10.280  0.3445  0.5544  0.0178
  766MOL0     C 5613  11.830   3.218  10.227 -0.0548  0.1167  0.1395
  766MOL0     C 5614  11.942   3.173  10.315 -0.1476 -0.1898 -0.8682
  766MOL0    Cl 5615  11.998   3.021  10.256 -0.1843  0.2066  0.2092
  766MOL0     C 5616  10.977   3.593  10.203 -0.5002 -0.0229  0.4263
  766MOL0     C 5617  10.841   3.591  10.170 -0.3067 -0.5635 -0.6928
  766MOL0     O 5618  10.639   3.485   9.862  0.1903  0.2532  0.8138
  766MOL0     C 5619  10.393   3.632  10.037 -0.1383  0.0312 -0.5443
  766MOL0     C 5620  10.259   3.654  10.048  0.1284  0.1492  0.4679
  766MOL0     N 5621   9.376   3.546   9.680 -0.4881 -0.2187  0.3890
  766MOL0     N 5622   9.316   3.472   9.598  0.8873 -0.1442  0.5153
  766MOL0     C 5623   8.379   3.253   9.259 -0.3360  0.1850 -0.4902
  766MOL0     C 5624   8.241   3.255   9.235 -0.5982  0.5622 -0.0798
  766MOL0     C 5625   7.787   3.183   9.269 -0.1144 -1.3347  0.8140
  766MOL0     C 5626   7.769   3.093   9.163  0.2002  0.2003 -0.2729
  766MOL0     C 5627   7.646   3.070   9.102  0.4696 -1.4299  1.0515
  766MOL0     C 5628   7.523   3.127   9.156 -0.0348  0.1326 -0.0732
  766MOL0     O 5629   7.396   3.095   9.130 -0.0834 -0.1927  0.7589
  766MOL0     C 5630   7.363   3.096   8.987  0.2950  0.1091 -0.1276
  766MOL0     C 5631   7.347   3.241   8.936  0.4366 -0.1973  0.0037
  766MOL0     C 5632   7.384   3.257   8.790  0.2078  0.0503  0.7393
  766MOL0     C 5633   7.317   3.374   8.719  0.0827  0.5279 -0.5450
  766MOL0     C 5634   7.171   3.378   8.721 -0.3975 -0.5080 -0.5193
  766MOL0     C 5635   7.050   3.388   8.714 -0.7326  1.0808  0.2569
  766MOL0     C 5636   7.547   3.209   9.265  0.2547  0.0942  0.2376
  766MOL0     C 5637   7.671   3.248   9.316 -1.0590  0.9681 -0.1360
  766MOL0     C 5638   7.676   3.331   9.431 -0.2239 -0.3675 -1.0497
  766MOL0     H 5639   8.163   2.958   9.373 -0.3176 -0.6331 -3.1790
  766MOL0     H 5640   8.419   2.963   9.421  2.4840  1.0696 -0.0230
  766MOL0     H 5641   8.602   3.345   9.376  0.2987  0.5689  0.5948
  766MOL0     H 5642   8.715   3.277   9.253 -1.2668  2.4964  0.1442
  766MOL0     H 5643   8.797   3.342   9.509  2.3197  0.4874 -0.3653
  766MOL0     H 5644   8.724   3.190   9.550  0.4428 -0.2538 -0.7406
  766MOL0     H 5645   8.857   3.112   9.341 -3.0339  2.7140 -0.9157
  766MOL0     H 5646   8.967   3.251   9.372  2.6331 -1.5995  0.7077
  766MOL0     H 5647   8.915   3.027   9.564  2.0432 -1.2622  1.6044
  766MOL0     H 5648   9.061   3.050   9.466 -0.2319  0.1053  0.0111
  766MOL0     H 5649   8.958   3.225   9.689 -0.2888  1.5354  0.5018
  766MOL0     H 5650   9.076   3.296   9.572  0.9179  0.8581  2.8263
  766MOL0     H 5651   9.196   3.256   9.757 -1.4841  2.6045 -0.1951
  766MOL0     H 5652   9.155   3.096   9.770 -2.5081  0.4684 -0.5010
  766MOL0     H 5653   9.259   3.039   9.549 -0.9950 -0.4104  0.0879
  766MOL0     H 5654   9.381   3.086   9.652  1.3392  0.5473  1.1721
  766MOL0     H 5655   9.406   3.190   9.432  1.4409 -1.2638  1.8876
  766MOL0     H 5656   9.240   3.261   9.431 -1.3079 -1.1980  0.7304
  766MOL0     H 5657   9.585   3.288   9.634 -1.9922 -1.1903 -0.1968
  766MOL0     H 5658   9.583   3.461   9.890 -1.0206  0.1911  0.4018
  766MOL0     H 5659   9.540   3.621   9.844  2.5876  0.7179  2.3091
  766MOL0     H 5660   9.772   3.483   9.702  0.5439  0.3995 -2.0745
  766MOL0     H 5661   9.741   3.653   9.699  2.7116 -0.6767  0.1241
  766MOL0     H 5662   9.772   3.654   9.955 -1.1092 -0.2132 -0.0899
  766MOL0     H 5663   9.831   3.491   9.942  0.3811  2.1832  3.4515
  766MOL0     H 5664   9.993   3.522   9.787  1.5198  0.5751  0.5146
  766MOL0     H 5665   9.954   3.694   9.770 -0.3431 -1.8817 -1.6346
  766MOL0     H 5666  10.182   3.593   9.715 -2.1897  1.1938  0.8859
  766MOL0     H 5667  10.527   3.651   9.640 -0.1440  1.7844  1.8408
  766MOL0     H 5668  10.362   3.590   9.583 -0.3541 -0.4870  0.6023
  766MOL0     H 5669  10.489   3.485   9.660  1.6000  0.3306  1.3338
  766MOL0     H 5670  10.859   3.665   9.846 -3.1114 -1.2609  0.2811
  766MOL0     H 5671  11.106   3.661   9.891 -0.4497  1.7968 -1.0755
  766MOL0     H 5672  11.264   3.742   9.989 -1.3066  0.2872 -0.0767
  766MOL0     H 5673  11.251   3.818  10.143 -0.7627 -0.0767 -0.6141
  766MOL0     H 5674  11.484   3.768  10.050  2.4758 -0.4614  0.4180
  766MOL0     H 5675  11.468   3.729  10.218  2.9128 -0.4268 -0.5109
  766MOL0     H 5676  11.527   3.546   9.990 -0.1665 -0.9471  0.3216
  766MOL0     H 5677  11.400   3.482  10.106 -0.8246  2.0296  0.5352
  766MOL0     H 5678  11.552   3.497  10.289 -0.4587 -1.9945  0.6408
  766MOL0     H 5679  11.683   3.575  10.179 -0.7948  0.6266 -1.2070
  766MOL0     H 5680  11.557   3.299  10.162  2.3555 -3.0923 -0.4000
  766MOL0     H 5681  11.695   3.375  10.067  0.6551  1.2683  0.0425
  766MOL0     H 5682  11.676   3.294  10.364  1.9062  1.7036  1.7162
  766MOL0     H 5683  11.793   3.412  10.320 -2.8771  1.5631  2.6000
  766MOL0     H 5684  11.873   3.248  10.132  3.2207 -1.3086  1.0194
  766MOL0     H 5685  11.760   3.137  10.205 -0.8244  0.8907 -0.3161
  766MOL0     H 5686  11.918   3.163  10.422  2.0208 -0.8578 -0.3960
  766MOL0     H 5687  12.020   3.250  10.310 -1.5515  1.3959  0.2695
  766MOL0     H 5688  10.999   3.582  10.308 -0.2731 -4.2755  0.0985
  766MOL0     H 5689  10.769   3.589  10.251 -0.7306  2.1341 -0.9339
  766MOL0     H 5690  10.443   3.640  10.133  3.3481 -0.9190 -2.1174
  766MOL0     H 5691  10.213   3.665  10.146 -2.6313 -0.6197 -0.6318
  766MOL0     H 5692   8.430   3.345   9.233 -1.0532  0.9826  0.7980
  766MOL0     H 5693   8.214   3.337   9.171  1.6487  0.9661 -0.6073
  766MOL0     H 5694   7.850   3.034   9.124  0.0047 -1.7889  2.1206
  766MOL0     H 5695   7.638   2.997   9.022 -1.5916 -1.5728  1.3118
  766MOL0     H 5696   7.439   3.047   8.926  0.3503  0.1488 -0.0910
  766MOL0     H 5697   7.266   3.048   8.973 -0.0851  0.5171  0.9542
  766MOL0     H 5698   7.415   3.299   8.999  0.0429 -1.3279  1.5182
  766MOL0     H 5699   7.243   3.265   8.962  0.1764 -1.6187  0.3203
  766MOL0     H 5700   7.492   3.265   8.774  0.4907 -1.1355  1.8389
  766MOL0     H 5701   7.344   3.167   8.743  0.9198  0.3545 -0.5002
  766MOL0     H 5702   7.348   3.374   8.614 -0.2189 -0.4663 -0.6445
  766MOL0     H 5703   7.361   3.465   8.760  0.7145  0.2446 -0.5753
  766MOL0     H 5704   6.946   3.400   8.690 -0.0328  0.1568 -4.0556
  766MOL0     H 5705   7.457   3.250   9.311 -1.1060 -0.8572 -1.4290
  766MOL0     H 5706   7.601   3.411   9.430  1.6707  1.4796 -1.5183
  766MOL0     H 5707   7.657   3.271   9.520 -0.6852  1.2525 -0.0090
  766MOL0     H 5708   7.772   3.383   9.437 -1.1322  1.2555  0.0691
  767MOL0     O 5709   3.275   2.200   9.960  0.1947  0.2993 -0.1198
  767MOL0     C 5710   3.278   2.082   9.970  0.8572 -0.0381  0.2285
  767MOL0     O 5711   3.399   2.014   9.986  0.6593 -0.2729 -0.9272
  767MOL0     C 5712   3.518   2.076   9.961  0.1819 -0.1347 -0.4125
  767MOL0     C 5713   3.599   2.068   9.848  0.0811 -0.3481 -0.0408
  767MOL0     C 5714   3.725   2.124   9.839 -0.3765  0.0739  0.5769
  767MOL0     C 5715   3.767   2.205   9.944 -0.4669 -0.3942 -0.8194
  767MOL0     O 5716   3.885   2.275   9.945 -0.4137 -0.0300 -0.0421
  767MOL0     C 5717   3.959   2.310   9.827  0.2025  0.4044  0.2198
  767MOL0     C 5718   4.069   2.211   9.787  0.4766 -0.4970  0.4763
  767MOL0     C 5719   4.161   2.186   9.902  0.0691 -0.8492 -0.3385
  767MOL0     C 5720   4.268   2.073   9.875  1.4209 -0.1300  0.0086
  767MOL0     C 5721   4.356   2.031   9.993  0.4315 -0.2254 -0.3863
  767MOL0     C 5722   4.441   1.903   9.968  0.7005 -0.6982 -0.3925
  767MOL0     C 5723   4.533   1.926   9.852  0.0316  0.6158 -0.4701
  767MOL0     C 5724   4.608   1.785   9.820  0.4301  0.3920  0.5402
  767MOL0     N 5725   4.724   1.798   9.737  0.2730  0.3676 -0.0145
  767MOL0     C 5726   4.853   1.807   9.783  0.0089 -0.0995 -0.0146
  767MOL0     C 5727   4.922   1.854   9.674 -0.7512 -0.1883  0.3482
  767MOL0     C 5728   5.066   1.900   9.680  0.6270 -0.1809 -1.2249
  767MOL0     C 5729   5.098   2.010   9.575 -0.9057 -1.0294 -0.1295
  767MOL0     C 5730   5.250   2.044   9.579 -0.6401 -0.3152  0.3364
  767MOL0     C 5731   5.312   2.066   9.444  0.7281  0.3309 -0.1823
  767MOL0     O 5732   5.313   1.947   9.356  0.2151 -0.3484 -0.7499
  767MOL0     C 5733   5.340   1.989   9.228 -0.8854  0.3092 -0.1926
  767MOL0     C 5734   5.473   1.977   9.177 -0.5205 -0.5212 -0.6310
  767MOL0     C 5735   5.502   2.008   9.042  0.2819  0.5062 -0.9424
  767MOL0     C 5736   5.638   1.974   9.008 -0.0859  0.2931  0.2025
  767MOL0     C 5737   5.406   2.058   8.955 -0.2234  0.5627  0.2207
  767MOL0     C 5738   5.438   2.091   8.809  0.3374 -0.2231 -0.1098
  767MOL0     O 5739   5.337   2.166   8.740 -0.5331  0.7910 -0.5540
  767MOL0     C 5740   5.360   2.175   8.608 -0.8281  0.0441 -0.6511
  767MOL0     C 5741   5.391   2.300   8.554  0.2913  0.2551  0.3494
  767MOL0     C 5742   5.413   2.311   8.418  0.0029 -0.3125 -0.1193
  767MOL0     C 5743   5.387   2.202   8.323 -0.2459 -0.9840 -0.1238
  767MOL0     O 5744   5.406   2.214   8.189 -0.4124  0.0401  0.0776
  767MOL0     C 5745   5.413   2.346   8.132 -0.0741  0.4427 -0.0861
  767MOL0     C 5746   5.288   2.438   8.146 -1.4223 -0.5407  0.0682
  767MOL0     C 5747   5.153   2.375   8.108  0.2834 -0.5877 -0.1778
  767MOL0     C 5748   5.157   2.301   7.975 -0.5561 -1.1437 -0.0204
  767MOL0     C 5749   5.026   2.233   7.941  0.4802  0.4239 -0.5805
  767MOL0     C 5750   4.924   2.331   7.893 -0.6774  0.4387  0.0882
  767MOL0     C 5751   4.808   2.279   7.798 -0.3450  0.8432  0.5502
  767MOL0     C 5752   4.723   2.400   7.744  0.2627 -0.6768 -0.5923
  767MOL0    Cl 5753   4.813   2.503   7.622 -0.0500  0.6559  0.0396
  767MOL0     C 5754   5.337   2.088   8.378  0.3083 -0.6156  0.4011
  767MOL0     C 5755   5.325   2.070   8.517  0.4307  0.4959  0.1951
  767MOL0     O 5756   5.545   2.055   8.763 -0.0190  0.3630  0.6108
  767MOL0     C 5757   5.277   2.076   9.008 -0.1486  0.0198  0.0575
  767MOL0     C 5758   5.244   2.030   9.141  0.9849  0.0003  0.0354
  767MOL0     N 5759   4.839   1.862   9.563 -0.0362 -0.0602 -0.0974
  767MOL0     N 5760   4.725   1.824   9.600  0.1651 -0.7156  0.1106
  767MOL0     C 5761   3.689   2.218  10.066 -0.2551 -1.3571 -0.6055
  767MOL0     C 5762   3.575   2.144  10.074  0.3964 -0.0095  0.6220
  767MOL0     C 5763   3.145   2.011   9.979 -0.3832 -0.1994  0.6053
  767MOL0     C 5764   3.037   2.080  10.034  0.3935  0.3936 -0.5402
  767MOL0     C 5765   2.921   2.016  10.065  0.8578  0.3219  0.9164
  767MOL0     C 5766   2.892   1.886  10.018 -0.7352  0.1662  0.5707
  767MOL0     O 5767   2.774   1.826  10.025  0.1782 -0.0381 -0.4108
  767MOL0     C 5768   2.683   1.881   9.931 -0.4428 -0.7973 -0.8075
  767MOL0     C 5769   2.579   1.775   9.877  0.3352 -0.0991 -0.4856
  767MOL0     C 5770   2.523   1.691   9.999 -0.2957 -0.1781  0.3232
  767MOL0     C 5771   2.381   1.630   9.972  0.5955  0.0319  0.2267
  767MOL0     C 5772   2.377   1.529   9.863 -0.0223  0.2769 -0.1596
  767MOL0     C 5773   2.402   1.448   9.785  1.0124  0.4166  0.5129
  767MOL0     C 5774   2.993   1.817   9.943 -0.2753 -0.2763  0.1345
  767MOL0     C 5775   3.124   1.874   9.937  0.0005 -0.0673 -0.2476
  767MOL0     C 5776   3.235   1.803   9.861  0.2601 -0.6477  0.6093
  767MOL0     H 5777   3.551   2.007   9.772 -2.4764  0.6195  0.6742
  767MOL0     H 5778   3.788   2.107   9.753 -0.6647  2.9871 -0.3310
  767MOL0     H 5779   4.014   2.403   9.846 -1.3249  1.2355  0.8109
  767MOL0     H 5780   3.881   2.318   9.751  1.2683  0.8136 -0.8495
  767MOL0     H 5781   4.015   2.121   9.756 -1.1272  1.4743 -3.0507
  767MOL0     H 5782   4.117   2.252   9.697  1.0570  0.1236  1.0558
  767MOL0     H 5783   4.218   2.278   9.918 -1.9892  0.7847 -1.9793
  767MOL0     H 5784   4.103   2.171   9.994 -1.4557 -0.3793 -1.1878
  767MOL0     H 5785   4.211   1.985   9.845  0.4094 -0.4060  2.5498
  767MOL0     H 5786   4.328   2.106   9.789 -0.3343  0.6227 -0.9865
  767MOL0     H 5787   4.296   2.003  10.080  0.2035 -0.0871 -0.4971
  767MOL0     H 5788   4.416   2.118  10.019 -1.1786  0.3294  1.7696
  767MOL0     H 5789   4.496   1.888  10.061 -1.3094 -1.5518  0.7208
  767MOL0     H 5790   4.376   1.817   9.950 -0.2730 -0.0074 -0.3332
  767MOL0     H 5791   4.614   1.989   9.890  1.6961 -0.6035 -1.8272
  767MOL0     H 5792   4.493   1.963   9.757 -2.3339  1.0449  0.6249
  767MOL0     H 5793   4.640   1.725   9.907  1.0966 -0.5255 -0.3162
  767MOL0     H 5794   4.536   1.723   9.765 -0.6368  0.6467  1.5956
  767MOL0     H 5795   4.892   1.803   9.884  0.9457  0.8806 -0.3177
  767MOL0     H 5796   5.127   1.809   9.683  0.7287 -0.1092 -1.0642
  767MOL0     H 5797   5.077   1.943   9.780 -0.1847  2.2134 -2.0916
  767MOL0     H 5798   5.081   1.962   9.478 -0.1271 -0.9497 -0.3129
  767MOL0     H 5799   5.036   2.100   9.577  1.9531  1.3771 -4.3246
  767MOL0     H 5800   5.259   2.136   9.638  0.3843  0.1224 -0.4646
  767MOL0     H 5801   5.298   1.968   9.641  0.2255  2.0042  2.7248
  767MOL0     H 5802   5.255   2.141   9.388 -1.3903 -2.0715 -1.4210
  767MOL0     H 5803   5.414   2.105   9.451  1.0044 -0.1951 -1.1166
  767MOL0     H 5804   5.544   1.939   9.250 -1.2737 -1.1403 -0.2006
  767MOL0     H 5805   5.623   1.890   8.940  1.0082  2.2201 -2.6114
  767MOL0     H 5806   5.691   1.933   9.095 -1.6055 -2.9232 -0.2410
  767MOL0     H 5807   5.700   2.044   8.951 -1.0903  0.3910 -0.8042
  767MOL0     H 5808   5.405   2.387   8.617 -0.0979  1.7872 -1.5904
  767MOL0     H 5809   5.444   2.406   8.376  1.9487 -0.9524 -0.1892
  767MOL0     H 5810   5.502   2.400   8.165 -0.7148  0.7643  1.1793
  767MOL0     H 5811   5.426   2.326   8.025  2.1195  0.1132  0.1964
  767MOL0     H 5812   5.286   2.478   8.248 -1.2340 -1.5191  0.4777
  767MOL0     H 5813   5.299   2.518   8.074 -0.3531  1.3947  2.2497
  767MOL0     H 5814   5.079   2.454   8.093  0.7717 -0.2424 -0.8303
  767MOL0     H 5815   5.113   2.316   8.191 -0.4872  1.8557  1.3040
  767MOL0     H 5816   5.245   2.236   7.981 -0.0970 -0.5015  0.4230
  767MOL0     H 5817   5.190   2.369   7.895  1.0767 -0.0552  1.5051
  767MOL0     H 5818   5.044   2.160   7.861 -0.1463 -1.3742  0.8493
  767MOL0     H 5819   4.985   2.184   8.030 -1.5124 -1.3685 -2.3534
  767MOL0     H 5820   4.978   2.406   7.835 -1.5656 -0.0612 -1.4461
  767MOL0     H 5821   4.885   2.380   7.983 -0.8793 -1.8494  1.3226
  767MOL0     H 5822   4.745   2.203   7.844  1.7059 -1.2018  0.1428
  767MOL0     H 5823   4.854   2.231   7.712 -2.2851  0.7709 -0.4990
  767MOL0     H 5824   4.686   2.453   7.833  1.4541 -0.9675  0.1029
  767MOL0     H 5825   4.636   2.364   7.689  0.8027 -1.2887 -1.0595
  767MOL0     H 5826   5.310   2.006   8.313 -0.7598 -1.3200  1.6759
  767MOL0     H 5827   5.289   1.975   8.555  1.6027 -0.2233 -0.4590
  767MOL0     H 5828   5.196   2.117   8.949 -1.5585 -0.9373  1.2426
  767MOL0     H 5829   5.149   2.052   9.188  1.0605  0.3218  0.0430
  767MOL0     H 5830   3.725   2.267  10.156 -0.9086  0.8433 -1.4795
  767MOL0     H 5831   3.508   2.153  10.159  0.4312 -1.0974  0.7797
  767MOL0     H 5832   3.039   2.185  10.060  5.2938  0.0666  1.5179
  767MOL0     H 5833   2.844   2.074  10.114 -1.5475 -0.3440 -1.8165
  767MOL0     H 5834   2.633   1.955   9.994  3.7194 -0.2650  2.2892
  767MOL0     H 5835   2.731   1.944   9.856  2.7290  2.1706  3.2746
  767MOL0     H 5836   2.612   1.700   9.805  1.9307  0.8044 -0.7398
  767MOL0     H 5837   2.496   1.831   9.833  1.2194  1.5812 -0.0714
  767MOL0     H 5838   2.588   1.605  10.018  0.3960 -0.2059 -1.9132
  767MOL0     H 5839   2.526   1.761  10.083 -1.3558  0.7121 -0.3489
  767MOL0     H 5840   2.322   1.715   9.936 -1.1400 -2.1230 -2.4310
  767MOL0     H 5841   2.350   1.584  10.066  1.4992  1.8493  1.4949
  767MOL0     H 5842   2.424   1.379   9.706  0.4915  1.2886 -0.4149
  767MOL0     H 5843   2.989   1.713   9.911  1.9826  0.3572 -2.6466
  767MOL0     H 5844   3.253   1.859   9.769  0.4834  0.3300  1.2316
  767MOL0     H 5845   3.330   1.794   9.913  2.1146  1.1462 -2.2345
  767MOL0     H 5846   3.200   1.703   9.831 -1.4652  0.0846  0.0460
  768MOL0     O 5847   3.025   3.981   1.447  0.0341  0.0229 -0.8153
  768MOL0     C 5848   2.978   3.899   1.376 -0.9041 -0.6024  0.4918
  768MOL0     O 5849   3.054   3.813   1.297  1.6284 -0.0228  1.1135
  768MOL0     C 5850   3.186   3.807   1.296 -0.6442  0.1427 -0.2932
  768MOL0     C 5851   3.247   3.684   1.273  0.3252 -0.4517  0.8039
  768MOL0     C 5852   3.386   3.671   1.269  0.5609  0.4705 -0.3549
  768MOL0     C 5853   3.478   3.780   1.279  0.1407  0.1275 -0.4159
  768MOL0     O 5854   3.611   3.747   1.275  0.5037 -0.1257  0.0949
  768MOL0     C 5855   3.701   3.821   1.351  0.1283  0.4671 -0.6136
  768MOL0     C 5856   3.814   3.872   1.272 -0.3117 -0.0910 -0.6024
  768MOL0     C 5857   3.894   3.764   1.190  0.4737 -0.1966  0.1825
  768MOL0     C 5858   4.001   3.835   1.109  0.4126  0.4034  0.7666
  768MOL0     C 5859   4.094   3.726   1.044  0.6479 -0.1468 -0.0364
  768MOL0     C 5860   4.192   3.794   0.946 -0.7700 -0.0263  0.0865
  768MOL0     C 5861   4.282   3.690   0.883 -0.4841  0.4179  0.0980
  768MOL0     C 5862   4.403   3.692   0.966 -0.1341 -0.9354 -0.6436
  768MOL0     N 5863   4.491   3.583   0.921  0.2517  0.5073 -0.2607
  768MOL0     C 5864   4.574   3.601   0.813 -0.2524  0.2007 -0.1488
  768MOL0     C 5865   4.643   3.482   0.796  0.1426  0.4424  0.2027
  768MOL0     C 5866   4.740   3.448   0.682  0.3285  0.7866 -0.5741
  768MOL0     C 5867   4.770   3.557   0.581 -0.1236  0.4243 -1.4886
  768MOL0     C 5868   4.884   3.647   0.627  0.1205 -0.2375  0.0800
  768MOL0     C 5869   5.020   3.597   0.616 -0.3198 -0.3100  1.0922
  768MOL0     O 5870   5.060   3.587   0.473  0.0315 -0.5280  0.1086
  768MOL0     C 5871   5.200   3.584   0.438  0.5967 -0.2233 -0.4117
  768MOL0     C 5872   5.312   3.623   0.513 -0.1102  0.0535 -0.2416
  768MOL0     C 5873   5.442   3.603   0.467 -0.0372 -0.0655 -0.2582
  768MOL0     C 5874   5.544   3.654   0.560  0.0206 -0.3997  0.1208
  768MOL0     C 5875   5.460   3.543   0.334  0.0007  0.3592 -0.3253
  768MOL0     C 5876   5.583   3.509   0.274  0.4977 -0.0556  0.3159
  768MOL0     O 5877   5.582   3.505   0.140 -0.2288  0.2588  0.8626
  768MOL0     C 5878   5.688   3.456   0.077  0.5750 -0.2497  0.5883
  768MOL0     C 5879   5.740   3.325   0.099  0.0890  0.1224 -0.0096
  768MOL0     C 5880   5.843   3.273   0.030  0.0182 -0.0342 -0.2085
  768MOL0     C 5881   5.911   3.353  -0.063  0.0842  0.3097 -0.2482
  768MOL0     O 5882   6.024   3.283  -0.119 -1.1904 -0.7428  0.6908
  768MOL0     C 5883   6.081   3.346  -0.235 -0.1201  0.4835  0.0680
  768MOL0     C 5884   6.164   3.241  -0.311 -0.5845  0.4447 -0.7044
  768MOL0     C 5885   6.210   3.279  -0.450 -0.1094 -0.2491 -0.0194
  768MOL0     C 5886   6.330   3.192  -0.490 -0.6957 -0.0104 -0.9675
  768MOL0     C 5887   6.310   3.039  -0.501 -0.1364  0.0873  0.1544
  768MOL0     C 5888   6.410   2.994  -0.600  0.7759  0.7660  0.4733
  768MOL0     C 5889   6.453   2.857  -0.564  0.7751  0.7808  1.1058
  768MOL0     C 5890   6.533   2.789  -0.691 -0.1002 -0.3924 -0.5280
  768MOL0    Cl 5891   6.634   2.650  -0.624  0.7205 -0.1925  0.0273
  768MOL0     C 5892   5.874   3.488  -0.078 -0.1733  0.5831  0.0941
  768MOL0     C 5893   5.757   3.540  -0.008 -0.0765 -0.5418 -0.2652
  768MOL0     O 5894   5.685   3.485   0.342  0.3770  1.2752 -0.7021
  768MOL0     C 5895   5.341   3.509   0.258  0.7049 -0.2120  0.2520
  768MOL0     C 5896   5.216   3.538   0.302  0.4243 -0.8489  0.0420
  768MOL0     N 5897   4.604   3.409   0.911 -0.3864  0.4334  0.4100
  768MOL0     N 5898   4.510   3.466   0.980 -1.0507  0.4794  0.6084
  768MOL0     C 5899   3.415   3.903   1.289 -0.4035  0.1056 -0.3184
  768MOL0     C 5900   3.275   3.917   1.301 -0.2067  0.0023  0.1474
  768MOL0     C 5901   2.830   3.875   1.374  0.6904 -0.3411 -0.0825
  768MOL0     C 5902   2.748   3.972   1.444 -0.4417 -0.1656 -0.1210
  768MOL0     C 5903   2.611   3.972   1.441 -0.1073  1.3712  0.9869
  768MOL0     C 5904   2.552   3.860   1.388  0.5836 -0.0849 -0.1783
  768MOL0     O 5905   2.417   3.876   1.422  0.0310  0.5058 -0.1036
  768MOL0     C 5906   2.315   3.777   1.402 -0.2540  0.2212  0.3967
  768MOL0     C 5907   2.275   3.759   1.249 -0.1800  0.4162 -0.3152
  768MOL0     C 5908   2.187   3.625   1.225  0.0900  0.0617  0.6755
  768MOL0     C 5909   2.233   3.504   1.280 -0.8634  0.5234  0.3744
  768MOL0     C 5910   2.373   3.466   1.238 -0.0933 -0.7705 -0.0860
  768MOL0     C 5911   2.479   3.449   1.184  0.9599 -0.6139  0.7437
  768MOL0     C 5912   2.618   3.764   1.315  0.1021 -0.0289 -1.0704
  768MOL0     C 5913   2.763   3.773   1.306  0.0032 -0.4750  0.1081
  768MOL0     C 5914   2.819   3.672   1.216 -0.0544  1.0767 -0.3497
  768MOL0     H 5915   3.185   3.595   1.278  2.3830 -1.8807  3.1478
  768MOL0     H 5916   3.415   3.566   1.268  1.1125  0.4927  2.8964
  768MOL0     H 5917   3.749   3.757   1.425 -0.0917 -1.7867 -2.3023
  768MOL0     H 5918   3.651   3.894   1.415 -1.6815 -3.3909  2.8754
  768MOL0     H 5919   3.763   3.929   1.194  0.1332 -0.5095 -1.2032
  768MOL0     H 5920   3.867   3.934   1.346  0.7991 -3.4353  1.6237
  768MOL0     H 5921   3.937   3.685   1.252 -1.3863  0.2752  2.1896
  768MOL0     H 5922   3.826   3.722   1.116 -0.9166 -0.5746  1.6183
  768MOL0     H 5923   3.957   3.900   1.033 -0.6959 -1.1875 -0.0210
  768MOL0     H 5924   4.058   3.896   1.179 -0.4576 -0.6956  2.4819
  768MOL0     H 5925   4.025   3.666   0.984 -0.3086  2.4446 -1.7426
  768MOL0     H 5926   4.135   3.666   1.125 -2.5955  1.3272  3.0173
  768MOL0     H 5927   4.134   3.839   0.865 -0.3568  1.5971  0.6455
  768MOL0     H 5928   4.247   3.870   1.002  0.7858 -0.7725 -0.3744
  768MOL0     H 5929   4.303   3.711   0.777 -0.6420  0.3881  0.0612
  768MOL0     H 5930   4.240   3.590   0.883 -1.6679  0.9018  0.9811
  768MOL0     H 5931   4.459   3.785   0.973 -0.3943 -0.9025  1.6294
  768MOL0     H 5932   4.377   3.668   1.069  1.9762 -1.7525 -0.2516
  768MOL0     H 5933   4.589   3.693   0.757 -0.9997  1.4149  1.5510
  768MOL0     H 5934   4.687   3.372   0.624 -0.6067  1.0210 -0.0393
  768MOL0     H 5935   4.824   3.403   0.737 -1.0126 -0.0214  0.8800
  768MOL0     H 5936   4.796   3.509   0.485  0.8760 -0.0182 -1.0124
  768MOL0     H 5937   4.679   3.617   0.572 -0.7785 -0.0126  1.3669
  768MOL0     H 5938   4.877   3.738   0.568 -0.4389 -0.1672  0.2471
  768MOL0     H 5939   4.869   3.672   0.732 -0.7227  2.6895 -0.6556
  768MOL0     H 5940   5.087   3.662   0.673  2.5288 -1.2103 -0.9901
  768MOL0     H 5941   5.027   3.494   0.652 -1.3063 -0.7651  0.0349
  768MOL0     H 5942   5.304   3.683   0.603  3.4759  3.2601 -1.7921
  768MOL0     H 5943   5.627   3.703   0.510  0.0912  1.3035  1.8061
  768MOL0     H 5944   5.577   3.566   0.617  0.5869  0.2171  0.7627
  768MOL0     H 5945   5.501   3.713   0.641  0.2229 -0.0903  0.0019
  768MOL0     H 5946   5.698   3.256   0.172  0.0472 -0.6988 -0.7848
  768MOL0     H 5947   5.869   3.170   0.052  0.1523  0.0570  0.0558
  768MOL0     H 5948   5.998   3.379  -0.297 -0.4115 -0.1508  0.1143
  768MOL0     H 5949   6.150   3.430  -0.217  0.8857 -0.6003  1.5523
  768MOL0     H 5950   6.242   3.197  -0.248 -2.0640  0.9205  1.5601
  768MOL0     H 5951   6.098   3.154  -0.319 -3.3974  1.7166  4.6197
  768MOL0     H 5952   6.223   3.387  -0.466  2.0961 -0.6502 -1.3471
  768MOL0     H 5953   6.132   3.256  -0.523 -0.0174  2.4180 -1.0781
  768MOL0     H 5954   6.414   3.199  -0.420  1.2764 -3.2753 -2.7580
  768MOL0     H 5955   6.362   3.226  -0.589 -0.1400  1.0998 -0.4273
  768MOL0     H 5956   6.325   2.986  -0.406  1.1478  0.8955  0.4256
  768MOL0     H 5957   6.217   3.017  -0.555 -0.2172  0.4954  0.1275
  768MOL0     H 5958   6.494   3.064  -0.598  0.7018  0.9236 -0.9082
  768MOL0     H 5959   6.365   2.983  -0.699  0.2438 -3.6028  1.0109
  768MOL0     H 5960   6.373   2.787  -0.537  0.2316 -0.0076 -2.0517
  768MOL0     H 5961   6.524   2.842  -0.483  0.0839  1.2896  1.8296
  768MOL0     H 5962   6.603   2.859  -0.737  0.4268 -1.1778 -0.9537
  768MOL0     H 5963   6.461   2.758  -0.767 -0.6191 -0.4735 -0.0113
  768MOL0     H 5964   5.939   3.557  -0.130 -0.5765  1.5289  0.8175
  768MOL0     H 5965   5.726   3.643  -0.026 -3.0457 -0.9237  1.7986
  768MOL0     H 5966   5.350   3.467   0.158  2.6028  1.6564 -0.4359
  768MOL0     H 5967   5.124   3.526   0.247 -0.4936  1.5170  0.9403
  768MOL0     H 5968   3.469   3.997   1.290 -0.0021 -0.1256 -0.0191
  768MOL0     H 5969   3.240   4.018   1.319 -0.3191 -0.0265  0.0937
  768MOL0     H 5970   2.802   4.054   1.491  1.8461 -2.7395  1.9951
  768MOL0     H 5971   2.547   4.046   1.488 -2.8211  0.1364 -0.5320
  768MOL0     H 5972   2.362   3.681   1.425  3.4484  2.1864  2.0784
  768MOL0     H 5973   2.220   3.797   1.451  0.0777  1.4725  0.5649
  768MOL0     H 5974   2.369   3.758   1.194  0.8170 -1.0779  1.3071
  768MOL0     H 5975   2.215   3.842   1.211  0.6783  0.7211 -1.0369
  768MOL0     H 5976   2.084   3.638   1.261 -1.6184 -2.1800 -2.8080
  768MOL0     H 5977   2.171   3.611   1.118 -1.7467  0.0452  0.9100
  768MOL0     H 5978   2.170   3.421   1.249  0.7728 -0.2349 -1.0365
  768MOL0     H 5979   2.226   3.505   1.390 -2.5329 -0.4070  0.3041
  768MOL0     H 5980   2.568   3.423   1.129  0.5050  1.0390 -0.8332
  768MOL0     H 5981   2.563   3.681   1.272  2.5894 -1.9162 -0.7800
  768MOL0     H 5982   2.917   3.636   1.251 -1.0766 -1.9101 -0.2849
  768MOL0     H 5983   2.759   3.581   1.205 -2.3779  2.5448 -0.2763
  768MOL0     H 5984   2.842   3.719   1.120  2.0849  0.2059 -0.3274
  769MOL0     O 5985   2.965   2.958   9.367  0.0745  0.0696  0.1832
  769MOL0     C 5986   3.003   3.001   9.473 -0.0250 -0.3838 -0.4056
  769MOL0     O 5987   3.110   3.089   9.487 -0.8923 -0.1743  0.4891
  769MOL0     C 5988   3.172   3.134   9.365  1.3453  0.2296  0.0592
  769MOL0     C 5989   3.105   3.196   9.264 -0.4452 -0.2770  0.4208
  769MOL0     C 5990   3.172   3.259   9.157  0.2259 -0.5080 -0.7005
  769MOL0     C 5991   3.308   3.257   9.156 -0.0856  0.6063  0.4165
  769MOL0     O 5992   3.389   3.327   9.076  0.0587  0.0488 -0.3839
  769MOL0     C 5993   3.365   3.311   8.935 -0.2362 -0.8662 -0.6664
  769MOL0     C 5994   3.487   3.274   8.859 -0.5780  0.3700 -0.7039
  769MOL0     C 5995   3.461   3.247   8.714 -0.2467 -0.1992  0.9213
  769MOL0     C 5996   3.602   3.231   8.653  0.0024  0.1164  0.0793
  769MOL0     C 5997   3.609   3.186   8.502  0.1680  0.4708  0.1747
  769MOL0     C 5998   3.560   3.296   8.408  0.5239  0.4751  0.2959
  769MOL0     C 5999   3.555   3.244   8.272  0.1333  0.3235  0.5126
  769MOL0     C 6000   3.527   3.353   8.173 -0.6649  0.4160 -0.4895
  769MOL0     N 6001   3.642   3.431   8.144 -0.3632 -0.6898  0.6427
  769MOL0     C 6002   3.762   3.383   8.105 -0.0248 -0.0089 -0.6874
  769MOL0     C 6003   3.846   3.484   8.080  0.3892 -0.3549 -0.7253
  769MOL0     C 6004   3.996   3.479   8.057  0.1237  0.0285  0.1976
  769MOL0     C 6005   4.037   3.499   7.917 -0.0302 -0.1928  0.8566
  769MOL0     C 6006   4.048   3.648   7.863 -0.1505  0.0923 -0.2224
  769MOL0     C 6007   4.031   3.657   7.714 -0.8951  0.8218  0.3266
  769MOL0     O 6008   4.117   3.570   7.631 -0.2581  0.1243  0.0600
  769MOL0     C 6009   4.235   3.619   7.579 -0.1738  0.0041  0.5276
  769MOL0     C 6010   4.298   3.741   7.618 -0.5819  0.2884 -0.3408
  769MOL0     C 6011   4.420   3.779   7.560  0.7414 -0.5180 -0.3922
  769MOL0     C 6012   4.487   3.902   7.620 -0.0297 -0.3640 -0.6075
  769MOL0     C 6013   4.461   3.708   7.446 -0.4226 -0.3938  0.3827
  769MOL0     C 6014   4.581   3.756   7.360  0.1833 -0.2964  0.0016
  769MOL0     O 6015   4.664   3.668   7.295  0.6869  0.9018 -0.2230
  769MOL0     C 6016   4.779   3.711   7.233  0.4207  0.1468 -0.7788
  769MOL0     C 6017   4.814   3.663   7.105 -0.8805 -0.0476  0.4494
  769MOL0     C 6018   4.921   3.722   7.037 -0.8319  0.6053 -0.5708
  769MOL0     C 6019   5.002   3.821   7.102 -0.6554 -1.0967  0.8410
  769MOL0     O 6020   5.111   3.865   7.032 -0.1825  0.1290 -0.2759
  769MOL0     C 6021   5.190   3.971   7.090  0.0938  0.0168  0.1083
  769MOL0     C 6022   5.320   3.968   7.005 -0.5072  0.8163  0.1945
  769MOL0     C 6023   5.310   4.090   6.909 -0.4743  0.2756 -1.1135
  769MOL0     C 6024   5.439   4.115   6.818  0.1800 -0.0763 -0.5137
  769MOL0     C 6025   5.482   3.995   6.739 -0.5109 -0.3008 -0.0298
  769MOL0     C 6026   5.602   4.027   6.645  1.2718  0.1377  0.9072
  769MOL0     C 6027   5.671   3.901   6.601 -0.2509  0.0124  0.3335
  769MOL0     C 6028   5.798   3.925   6.512  0.1266 -0.1860 -0.0128
  769MOL0    Cl 6029   5.846   3.771   6.449 -0.1416 -0.3833 -0.2888
  769MOL0     C 6030   4.976   3.850   7.236  0.6274  0.0942 -0.0539
  769MOL0     C 6031   4.864   3.801   7.296 -0.1563  0.1989  0.4131
  769MOL0     O 6032   4.588   3.880   7.351 -0.3857  0.2773 -0.3496
  769MOL0     C 6033   4.400   3.590   7.405 -0.2742  0.6610 -0.2039
  769MOL0     C 6034   4.299   3.541   7.477  0.1425  0.5664 -0.2148
  769MOL0     N 6035   3.768   3.597   8.099  0.5660 -0.2313  0.2521
  769MOL0     N 6036   3.648   3.563   8.122 -0.2244  0.2205  0.5836
  769MOL0     C 6037   3.376   3.187   9.251  0.4420  0.8219 -0.7213
  769MOL0     C 6038   3.310   3.125   9.360  0.2956 -0.6302  0.4979
  769MOL0     C 6039   2.945   2.951   9.601 -0.0615  0.5287 -0.1994
  769MOL0     C 6040   2.944   3.045   9.709  0.4955  0.4434  1.4658
  769MOL0     C 6041   2.878   3.018   9.823 -0.5697  0.0318  0.3008
  769MOL0     C 6042   2.817   2.898   9.855  0.7324 -1.3984  0.2525
  769MOL0     O 6043   2.744   2.862   9.973 -0.1978 -0.2516  0.1837
  769MOL0     C 6044   2.738   2.955  10.085 -0.5462  0.0552  0.3248
  769MOL0     C 6045   2.864   2.925  10.168  0.2562  0.2143  0.9834
  769MOL0     C 6046   2.865   2.798  10.257  0.1060  0.0653 -0.7769
  769MOL0     C 6047   2.979   2.790  10.356 -1.2050 -0.1590 -0.2455
  769MOL0     C 6048   3.113   2.782  10.303 -0.5033  0.2266  0.2176
  769MOL0     C 6049   3.222   2.762  10.253 -0.0229  0.3619  0.4991
  769MOL0     C 6050   2.815   2.797   9.753  0.0486 -0.4918  0.5989
  769MOL0     C 6051   2.877   2.823   9.622 -0.6014  0.0145  0.4586
  769MOL0     C 6052   2.877   2.725   9.510 -0.3726 -0.6417  0.1448
  769MOL0     H 6053   2.999   3.217   9.278 -0.9489 -0.8393 -2.1126
  769MOL0     H 6054   3.121   3.322   9.085 -0.5996 -0.6942 -0.2851
  769MOL0     H 6055   3.326   3.410   8.909  0.3584 -0.8417 -1.5028
  769MOL0     H 6056   3.294   3.234   8.906 -0.4361 -1.4193  1.1664
  769MOL0     H 6057   3.555   3.359   8.872 -0.6076  0.4526 -1.0600
  769MOL0     H 6058   3.530   3.182   8.900 -1.5821  0.5140  0.7498
  769MOL0     H 6059   3.403   3.156   8.694  0.6967 -1.0016  1.7002
  769MOL0     H 6060   3.408   3.330   8.666  2.1968  0.1047 -1.4763
  769MOL0     H 6061   3.659   3.324   8.656  3.1972 -1.6241 -1.3327
  769MOL0     H 6062   3.657   3.155   8.710  0.0292 -0.3489 -0.5528
  769MOL0     H 6063   3.556   3.093   8.482  0.9757 -0.0905  0.6144
  769MOL0     H 6064   3.714   3.168   8.481  0.0465  0.1892 -0.1926
  769MOL0     H 6065   3.462   3.318   8.451  0.6109 -0.6135  1.0795
  769MOL0     H 6066   3.628   3.382   8.419  0.5861  0.4999 -0.2592
  769MOL0     H 6067   3.478   3.167   8.260  2.4566 -1.9430 -1.1374
  769MOL0     H 6068   3.650   3.193   8.250  0.9929  0.3834  3.6210
  769MOL0     H 6069   3.499   3.304   8.079  0.0386  0.6786 -0.8471
  769MOL0     H 6070   3.446   3.423   8.196  0.5120  1.3433  1.0134
  769MOL0     H 6071   3.791   3.279   8.094 -1.0297 -0.2042 -1.6587
  769MOL0     H 6072   4.036   3.381   8.084 -0.4312 -0.2114  0.1663
  769MOL0     H 6073   4.047   3.552   8.120  1.6063 -1.3060  0.6031
  769MOL0     H 6074   4.133   3.449   7.902  1.4969  2.6009  0.5592
  769MOL0     H 6075   3.959   3.456   7.853 -0.5519  3.2529 -1.0679
  769MOL0     H 6076   3.972   3.714   7.908 -1.3857 -0.5650 -1.2582
  769MOL0     H 6077   4.151   3.673   7.888  0.5739 -2.2803 -0.5821
  769MOL0     H 6078   3.925   3.634   7.700 -1.3474  1.2794  2.5980
  769MOL0     H 6079   4.045   3.760   7.680  1.0225  0.5253  0.1048
  769MOL0     H 6080   4.257   3.800   7.700  0.6120  0.6452  0.0224
  769MOL0     H 6081   4.433   3.994   7.597 -1.2228 -0.5411  1.3568
  769MOL0     H 6082   4.591   3.914   7.587 -0.0234  0.8047 -0.1922
  769MOL0     H 6083   4.480   3.900   7.729  0.2497 -3.0725 -0.5608
  769MOL0     H 6084   4.755   3.588   7.053  0.6391  1.2285 -3.5425
  769MOL0     H 6085   4.953   3.673   6.945  1.1656  0.1781  0.3032
  769MOL0     H 6086   5.131   4.063   7.079 -1.0448 -0.7773 -0.5103
  769MOL0     H 6087   5.230   3.967   7.192  0.2778  1.9080  0.1540
  769MOL0     H 6088   5.404   3.967   7.074 -0.3555  1.4549  0.0261
  769MOL0     H 6089   5.333   3.876   6.947 -1.5705  0.0091  1.1858
  769MOL0     H 6090   5.293   4.176   6.974 -2.6483 -2.4233  2.1861
  769MOL0     H 6091   5.217   4.081   6.851 -0.0079 -1.9268 -1.5945
  769MOL0     H 6092   5.520   4.142   6.886  0.2085 -0.9976 -0.1654
  769MOL0     H 6093   5.427   4.205   6.758 -1.8528  2.9998  4.0222
  769MOL0     H 6094   5.526   3.925   6.810  1.3470  1.3663  0.5391
  769MOL0     H 6095   5.403   3.937   6.690  0.3338 -1.3850 -0.1363
  769MOL0     H 6096   5.667   4.085   6.712  2.3424 -1.8327  1.6888
  769MOL0     H 6097   5.559   4.087   6.565  0.2189  0.6332  1.8234
  769MOL0     H 6098   5.609   3.833   6.541  0.7735 -1.1731  0.5867
  769MOL0     H 6099   5.704   3.845   6.689  0.5270 -1.8714 -1.1049
  769MOL0     H 6100   5.874   3.979   6.568 -1.5967 -1.7078  4.1374
  769MOL0     H 6101   5.768   3.984   6.425  2.2473  0.7848 -0.1433
  769MOL0     H 6102   5.041   3.924   7.283  0.4601 -1.1051  2.1998
  769MOL0     H 6103   4.851   3.832   7.399  0.3669 -2.1714  1.2681
  769MOL0     H 6104   4.443   3.538   7.320  1.9445  4.2900 -1.5726
  769MOL0     H 6105   4.259   3.442   7.457 -0.4298  0.5960  0.7563
  769MOL0     H 6106   3.483   3.173   9.240  0.7674  2.9400 -0.6437
  769MOL0     H 6107   3.368   3.064   9.428 -0.4199 -0.8650  0.9063
  769MOL0     H 6108   2.998   3.138   9.694  1.1292 -0.4691 -3.8475
  769MOL0     H 6109   2.895   3.093   9.900 -2.3436 -0.6618  1.4150
  769MOL0     H 6110   2.742   3.059  10.052  2.4819  0.7762  2.5074
  769MOL0     H 6111   2.647   2.944  10.144 -0.0173  0.3527  1.2238
  769MOL0     H 6112   2.867   3.008  10.239 -1.1607  0.6807  0.5314
  769MOL0     H 6113   2.951   2.927  10.102 -0.0300 -0.3914  0.5844
  769MOL0     H 6114   2.770   2.793  10.310  0.9659  0.3073  0.8261
  769MOL0     H 6115   2.880   2.703  10.203  4.8168 -0.5441  1.1585
  769MOL0     H 6116   2.976   2.703  10.423  2.8561 -0.6617 -0.4663
  769MOL0     H 6117   2.980   2.873  10.427  2.9280 -0.0772 -0.1360
  769MOL0     H 6118   3.313   2.752  10.198 -1.0960  2.5751 -1.9062
  769MOL0     H 6119   2.768   2.701   9.773 -2.6046  0.4299 -0.7889
  769MOL0     H 6120   2.871   2.629   9.561  0.3305  0.9191  3.4169
  769MOL0     H 6121   2.800   2.735   9.433 -0.0591  0.3284 -0.0603
  769MOL0     H 6122   2.977   2.730   9.465 -0.5921  1.3709 -0.2146
  770MOL0     O 6123   6.816  10.112   3.881 -0.1504 -0.8001 -0.3594
  770MOL0     C 6124   6.877  10.031   3.950  1.0064  0.1166 -0.4275
  770MOL0     O 6125   7.012  10.022   3.951  0.5154  0.0536 -0.6112
  770MOL0     C 6126   7.076  10.138   3.987 -0.0828  0.5600 -0.0546
  770MOL0     C 6127   7.114  10.226   3.890  0.0693  0.4823  0.3848
  770MOL0     C 6128   7.161  10.351   3.930  1.4004 -0.2285 -0.0382
  770MOL0     C 6129   7.193  10.388   4.062  0.4058  0.7878  0.1402
  770MOL0     O 6130   7.235  10.503   4.105 -1.0746  0.0291 -0.1739
  770MOL0     C 6131   7.199  10.621   4.031  0.5841  0.2527 -0.1327
  770MOL0     C 6132   7.307  10.661   3.934 -0.1789  0.1239 -0.4120
  770MOL0     C 6133   7.445  10.669   3.994  0.7711  0.1133 -0.4209
  770MOL0     C 6134   7.550  10.695   3.883 -0.3418  0.0038  0.0039
  770MOL0     C 6135   7.690  10.662   3.942 -0.2251  0.1856 -0.1037
  770MOL0     C 6136   7.739  10.733   4.071  0.2238  0.0466  0.2239
  770MOL0     C 6137   7.708  10.884   4.069 -0.4184 -0.7831 -0.6312
  770MOL0     C 6138   7.789  10.972   4.170  0.5424  0.2641 -0.1722
  770MOL0     N 6139   7.929  10.939   4.170 -0.4604 -0.2663 -0.4354
  770MOL0     C 6140   8.019  10.970   4.072  0.5059 -0.3694  0.4692
  770MOL0     C 6141   8.137  10.935   4.125  0.0591  0.0846 -0.3720
  770MOL0     C 6142   8.270  10.945   4.052 -0.0123  0.5201 -0.5384
  770MOL0     C 6143   8.284  11.087   3.994  0.2322 -0.5492 -0.6801
  770MOL0     C 6144   8.320  11.180   4.108 -0.0846 -0.2043 -0.9336
  770MOL0     C 6145   8.340  11.326   4.071 -0.1577 -0.5307 -0.3925
  770MOL0     O 6146   8.402  11.337   3.941  0.0338 -0.2522 -0.2097
  770MOL0     C 6147   8.534  11.307   3.938 -0.1643  0.0608  0.0970
  770MOL0     C 6148   8.570  11.249   3.818 -0.6685  0.1640  0.2014
  770MOL0     C 6149   8.700  11.205   3.793  0.4967 -0.1294 -0.4216
  770MOL0     C 6150   8.722  11.148   3.653  0.0472  0.1791 -0.1757
  770MOL0     C 6151   8.799  11.213   3.894 -0.2665  0.7245  0.3038
  770MOL0     C 6152   8.948  11.179   3.871  0.3834  0.3808  0.2759
  770MOL0     O 6153   9.028  11.216   3.978 -0.5020  0.0134  0.3235
  770MOL0     C 6154   9.159  11.204   3.982 -0.3584 -0.1306  0.5618
  770MOL0     C 6155   9.233  11.109   3.918 -0.2719 -0.0225 -0.1445
  770MOL0     C 6156   9.371  11.093   3.941  0.7269 -0.5318 -0.0908
  770MOL0     C 6157   9.433  11.181   4.037 -0.6641  0.3875 -0.6957
  770MOL0     O 6158   9.566  11.170   4.063 -0.4825  0.5057  0.9076
  770MOL0     C 6159   9.601  11.039   4.128  0.9225 -0.3163  0.1142
  770MOL0     C 6160   9.734  11.051   4.185  0.1952 -0.2384 -0.8867
  770MOL0     C 6161   9.841  11.088   4.085  0.1591  0.1724  0.5912
  770MOL0     C 6162   9.977  11.082   4.157  0.4192  0.7473 -0.5286
  770MOL0     C 6163  10.065  11.184   4.085  0.2954 -0.8403  0.2803
  770MOL0     C 6164  10.214  11.162   4.116 -0.8385  0.0853 -0.8082
  770MOL0     C 6165  10.282  11.299   4.123  0.3561 -0.2480  0.2779
  770MOL0     C 6166  10.431  11.280   4.119 -0.3517 -0.5988  0.1057
  770MOL0    Cl 6167  10.460  11.259   4.295 -0.5439  0.6736  0.3061
  770MOL0     C 6168   9.358  11.273   4.102 -0.9245 -0.2793 -0.3619
  770MOL0     C 6169   9.227  11.296   4.063  0.3891  0.5074 -0.1563
  770MOL0     O 6170   8.990  11.141   3.762 -0.2876  0.4632  0.1616
  770MOL0     C 6171   8.760  11.257   4.019  0.4678  0.3210 -0.8235
  770MOL0     C 6172   8.629  11.306   4.038 -0.1248 -0.6247  0.8281
  770MOL0     N 6173   8.113  10.871   4.246 -0.1920 -0.9157 -0.3370
  770MOL0     N 6174   7.988  10.871   4.269 -0.3532 -0.3509 -0.2548
  770MOL0     C 6175   7.170  10.288   4.161 -0.6814 -0.0088 -0.0541
  770MOL0     C 6176   7.097  10.171   4.126 -0.3070 -0.6399 -0.7718
  770MOL0     C 6177   6.786   9.926   4.010  0.3379  0.2823 -0.6048
  770MOL0     C 6178   6.647   9.945   4.022 -0.6733 -0.1275 -0.0081
  770MOL0     C 6179   6.565   9.843   4.069 -1.0232  0.5523 -0.0330
  770MOL0     C 6180   6.618   9.716   4.101  0.0987  0.0221  0.5140
  770MOL0     O 6181   6.523   9.629   4.146 -0.3901 -0.0948 -0.0618
  770MOL0     C 6182   6.567   9.525   4.232 -0.0513 -1.2527 -0.0147
  770MOL0     C 6183   6.442   9.452   4.277 -0.0039  0.8499 -0.6816
  770MOL0     C 6184   6.343   9.541   4.351  0.5114  0.0290 -0.1251
  770MOL0     C 6185   6.216   9.473   4.375  0.2548  0.1020  0.5400
  770MOL0     C 6186   6.224   9.388   4.496  0.0153  0.1297  0.0382
  770MOL0     C 6187   6.232   9.327   4.599  0.1630 -0.1350 -0.2168
  770MOL0     C 6188   6.751   9.690   4.092  0.2674 -0.3257 -0.2767
  770MOL0     C 6189   6.836   9.801   4.059  0.6236  0.4156  0.8579
  770MOL0     C 6190   6.987   9.755   4.046  0.3073  0.1169  0.1603
  770MOL0     H 6191   7.114  10.203   3.784 -1.8366  2.1437 -0.0386
  770MOL0     H 6192   7.187  10.429   3.859 -0.0578  1.7372  1.4529
  770MOL0     H 6193   7.183  10.700   4.105 -0.3435 -1.3971  1.4773
  770MOL0     H 6194   7.100  10.621   3.984  0.9022  0.1568 -0.8098
  770MOL0     H 6195   7.307  10.581   3.859 -1.5780 -0.7726  0.4861
  770MOL0     H 6196   7.278  10.754   3.885 -2.2271  0.1857  0.8309
  770MOL0     H 6197   7.457  10.745   4.072 -1.7320 -1.2894  1.4819
  770MOL0     H 6198   7.455  10.574   4.048 -3.0969  0.2919  0.9366
  770MOL0     H 6199   7.532  10.623   3.802  0.3659 -2.9949  2.3078
  770MOL0     H 6200   7.542  10.797   3.844  0.6719  0.1177  0.0488
  770MOL0     H 6201   7.776  10.679   3.877 -1.7134  1.8863 -1.7909
  770MOL0     H 6202   7.689  10.555   3.962 -0.4228  0.3194  0.6461
  770MOL0     H 6203   7.699  10.688   4.162  0.8271  0.5594  0.7555
  770MOL0     H 6204   7.847  10.713   4.070  0.1454 -0.3638 -0.2001
  770MOL0     H 6205   7.603  10.905   4.092 -0.3868  0.9666 -1.8545
  770MOL0     H 6206   7.721  10.913   3.965 -1.0266 -0.4870 -0.6308
  770MOL0     H 6207   7.766  11.078   4.157 -1.9700  0.0876  1.9431
  770MOL0     H 6208   7.756  10.949   4.272 -0.3153 -0.6210 -0.6289
  770MOL0     H 6209   7.996  11.011   3.974  0.0764 -2.8528 -0.5656
  770MOL0     H 6210   8.281  10.876   3.968 -0.5279  0.3677 -0.4792
  770MOL0     H 6211   8.353  10.922   4.120  1.8467  1.2895 -2.4323
  770MOL0     H 6212   8.366  11.081   3.921  1.4456 -0.1075  0.6038
  770MOL0     H 6213   8.201  11.113   3.928  0.1561  0.4201 -0.2164
  770MOL0     H 6214   8.236  11.172   4.178  1.6775  0.9232  1.4980
  770MOL0     H 6215   8.403  11.132   4.161 -1.3434  0.4152  1.7716
  770MOL0     H 6216   8.240  11.367   4.058  1.1082  1.9493 -3.7826
  770MOL0     H 6217   8.384  11.392   4.147 -1.8269  0.3521 -0.1376
  770MOL0     H 6218   8.504  11.238   3.732 -0.0420  0.3441 -0.3133
  770MOL0     H 6219   8.794  11.205   3.593 -0.9854  0.8109 -0.8502
  770MOL0     H 6220   8.645  11.140   3.575  2.2296 -1.7137 -2.3297
  770MOL0     H 6221   8.763  11.046   3.655  2.6493  1.1527 -0.6293
  770MOL0     H 6222   9.181  11.032   3.862 -1.8552 -0.0057  1.2091
  770MOL0     H 6223   9.425  11.018   3.884  0.9005  0.0510 -0.7092
  770MOL0     H 6224   9.524  11.011   4.201  0.0135  1.3132 -0.1705
  770MOL0     H 6225   9.606  10.961   4.051 -3.6235  0.3052 -1.0792
  770MOL0     H 6226   9.733  11.128   4.263  0.0369  1.7196 -2.7282
  770MOL0     H 6227   9.752  10.949   4.222  2.9539  0.2152 -0.8319
  770MOL0     H 6228   9.818  11.190   4.052  0.4177  0.0986  0.1794
  770MOL0     H 6229   9.842  11.023   3.997 -0.1504  0.1796  0.5835
  770MOL0     H 6230  10.016  10.980   4.159  1.7973  1.2138 -1.9162
  770MOL0     H 6231   9.968  11.121   4.259  2.0543  0.8789 -0.4060
  770MOL0     H 6232  10.056  11.173   3.976  2.7245 -0.3235 -0.0277
  770MOL0     H 6233  10.032  11.285   4.110  4.3202  0.2626  2.0211
  770MOL0     H 6234  10.262  11.103   4.038 -0.0094 -0.4304  0.0710
  770MOL0     H 6235  10.224  11.124   4.218 -0.9175  3.4600  0.6023
  770MOL0     H 6236  10.256  11.356   4.213 -1.2147 -0.7320  0.1597
  770MOL0     H 6237  10.256  11.366   4.041  1.4574  1.1878  1.0520
  770MOL0     H 6238  10.484  11.371   4.088 -2.2965 -0.3167 -2.7504
  770MOL0     H 6239  10.455  11.197   4.052 -3.2794 -1.3548 -0.1280
  770MOL0     H 6240   9.404  11.339   4.174 -2.2165 -0.7813  0.9733
  770MOL0     H 6241   9.175  11.367   4.127  0.2623 -0.4892  0.8877
  770MOL0     H 6242   8.821  11.255   4.109 -1.1709  0.1249  0.3351
  770MOL0     H 6243   8.604  11.338   4.138 -0.9752  2.3630 -0.2250
  770MOL0     H 6244   7.188  10.308   4.266 -1.8424 -2.6316  0.7251
  770MOL0     H 6245   7.069  10.110   4.210 -2.5473  1.0758 -0.1666
  770MOL0     H 6246   6.596  10.030   3.977  1.0282 -0.4432 -2.7900
  770MOL0     H 6247   6.458   9.862   4.069 -1.5162 -1.6868  1.7815
  770MOL0     H 6248   6.625   9.447   4.182 -1.6493 -2.6943  0.2571
  770MOL0     H 6249   6.632   9.554   4.315  1.0625 -0.0629 -1.2535
  770MOL0     H 6250   6.476   9.368   4.338  0.4908  0.5110 -1.4084
  770MOL0     H 6251   6.401   9.406   4.187  0.4177 -0.4271 -0.2371
  770MOL0     H 6252   6.387   9.571   4.447  2.1245 -1.7068 -0.2601
  770MOL0     H 6253   6.320   9.628   4.289 -2.1745 -0.6183 -0.1244
  770MOL0     H 6254   6.188   9.406   4.293  1.6662 -0.9304  0.8552
  770MOL0     H 6255   6.133   9.542   4.394 -0.4706 -1.2083  2.4577
  770MOL0     H 6256   6.250   9.288   4.697 -0.7825  4.1440  1.9049
  770MOL0     H 6257   6.798   9.599   4.126  2.9731  1.8969  2.5003
  770MOL0     H 6258   7.021   9.752   3.942 -0.7032  1.7128 -0.2539
  770MOL0     H 6259   7.049   9.823   4.106  1.2413  1.9153 -2.6450
  770MOL0     H 6260   7.011   9.654   4.079  1.1999  1.2434  3.3818
  771MOL0     O 6261   4.077   8.170   0.510 -0.2537 -0.1925 -0.3283
  771MOL0     C 6262   4.026   8.122   0.415  0.3494 -0.3043 -0.2695
  771MOL0     O 6263   4.076   8.137   0.292 -0.3111  0.2502 -0.6695
  771MOL0     C 6264   4.202   8.195   0.274  0.1096  0.7036 -0.4184
  771MOL0     C 6265   4.304   8.111   0.226  0.3659  0.2802 -0.6854
  771MOL0     C 6266   4.435   8.158   0.200 -0.0151  0.3741  0.3193
  771MOL0     C 6267   4.461   8.296   0.224 -0.0409  0.1705 -0.1006
  771MOL0     O 6268   4.587   8.339   0.206 -0.3599 -0.2801 -0.6073
  771MOL0     C 6269   4.685   8.261   0.135 -0.5417 -0.8473 -0.7910
  771MOL0     C 6270   4.817   8.341   0.144  0.4785  1.6041  0.3447
  771MOL0     C 6271   4.888   8.300   0.276 -0.4646  0.7626  0.1435
  771MOL0     C 6272   5.027   8.357   0.263  0.7541 -0.2710 -0.2715
  771MOL0     C 6273   5.115   8.345   0.387  0.0802 -0.4359  0.2005
  771MOL0     C 6274   5.254   8.406   0.360  0.7478 -0.5150  0.1459
  771MOL0     C 6275   5.328   8.408   0.494 -0.3486 -0.3505 -0.6587
  771MOL0     C 6276   5.469   8.448   0.479  0.6963 -0.1545  0.7174
  771MOL0     N 6277   5.560   8.342   0.427  0.3695  0.9098  0.5093
  771MOL0     C 6278   5.674   8.365   0.355  0.0307  0.0358 -0.3846
  771MOL0     C 6279   5.739   8.247   0.343 -0.8073 -0.1452 -0.2291
  771MOL0     C 6280   5.862   8.217   0.266  0.7364 -0.8855 -0.1038
  771MOL0     C 6281   5.980   8.304   0.315  0.6024 -0.5065 -0.1211
  771MOL0     C 6282   6.109   8.293   0.235  0.6562  0.3349 -0.1941
  771MOL0     C 6283   6.212   8.391   0.280 -0.9117 -0.1028 -0.3728
  771MOL0     O 6284   6.197   8.519   0.231  0.6364  0.4832  0.4823
  771MOL0     C 6285   6.231   8.557   0.103 -0.2567  0.2256  0.1750
  771MOL0     C 6286   6.282   8.474   0.005 -0.8363 -0.0647  0.0501
  771MOL0     C 6287   6.323   8.523  -0.117 -1.2658 -0.5348 -0.4828
  771MOL0     C 6288   6.363   8.423  -0.219  0.3721  0.1233  0.2994
  771MOL0     C 6289   6.312   8.663  -0.137  0.7080 -0.0170 -0.5640
  771MOL0     C 6290   6.347   8.726  -0.263 -0.1365 -1.0873 -1.3482
  771MOL0     O 6291   6.255   8.804  -0.325  0.2039 -0.0241 -0.3754
  771MOL0     C 6292   6.289   8.850  -0.442  0.3749 -0.2232  0.5371
  771MOL0     C 6293   6.307   8.772  -0.553 -0.1707  0.8182  0.0096
  771MOL0     C 6294   6.323   8.822  -0.682 -0.3989 -0.3838 -0.6078
  771MOL0     C 6295   6.326   8.967  -0.696 -0.4294  1.0016  0.5266
  771MOL0     O 6296   6.337   9.037  -0.816 -0.2478 -0.5487  0.1085
  771MOL0     C 6297   6.282   8.976  -0.931  0.2108 -0.5596  1.2237
  771MOL0     C 6298   6.131   9.002  -0.951 -0.4849 -0.2599  0.6859
  771MOL0     C 6299   6.097   9.153  -0.942  0.7613  0.3929  0.0079
  771MOL0     C 6300   5.950   9.180  -0.983  0.3561  0.4312  0.2683
  771MOL0     C 6301   5.907   9.330  -0.982  0.1540 -0.9644 -0.2421
  771MOL0     C 6302   5.938   9.404  -0.858  0.0021 -0.8947 -0.9539
  771MOL0     C 6303   5.899   9.552  -0.875  0.4245 -0.3095 -0.7407
  771MOL0     C 6304   5.751   9.574  -0.907  0.9357  0.0540  0.0174
  771MOL0    Cl 6305   5.638   9.510  -0.778 -0.0924  0.1795 -0.0451
  771MOL0     C 6306   6.317   9.043  -0.579  0.9999 -0.6454  0.3912
  771MOL0     C 6307   6.304   8.988  -0.456 -0.3939  0.0352  0.8449
  771MOL0     O 6308   6.461   8.712  -0.304  0.5387 -0.4634  0.4231
  771MOL0     C 6309   6.266   8.745  -0.039  0.0901  0.1450 -0.0052
  771MOL0     C 6310   6.229   8.695   0.083  0.0865  0.0061  0.3315
  771MOL0     N 6311   5.671   8.156   0.429  0.7190 -0.0897 -0.1237
  771MOL0     N 6312   5.563   8.213   0.478  0.2595 -0.3897  0.2082
  771MOL0     C 6313   4.365   8.378   0.281 -0.4495 -0.5587 -0.3568
  771MOL0     C 6314   4.231   8.334   0.289  0.1996  0.3066  0.8585
  771MOL0     C 6315   3.899   8.048   0.428  0.0541  0.7711  0.8991
  771MOL0     C 6316   3.810   8.078   0.325  0.4642 -0.0832 -0.3233
  771MOL0     C 6317   3.687   8.006   0.327 -0.0438  0.2107 -0.2711
  771MOL0     C 6318   3.661   7.904   0.418 -0.3851 -0.0737 -0.3347
  771MOL0     O 6319   3.554   7.825   0.387 -0.1336 -0.7864  0.3364
  771MOL0     C 6320   3.504   7.737   0.480 -0.5985 -0.2160 -0.4571
  771MOL0     C 6321   3.407   7.645   0.403 -0.0486  0.8486 -0.0031
  771MOL0     C 6322   3.481   7.528   0.322  0.9074  0.0062 -0.3346
  771MOL0     C 6323   3.541   7.410   0.414  0.5759  0.4060 -0.2879
  771MOL0     C 6324   3.434   7.359   0.504  0.3726  0.2428 -0.2234
  771MOL0     C 6325   3.338   7.340   0.572 -0.2565  0.3996 -0.1839
  771MOL0     C 6326   3.747   7.889   0.528  0.3605  0.0310  0.2910
  771MOL0     C 6327   3.860   7.957   0.531  0.2025  0.4621 -0.5930
  771MOL0     C 6328   3.950   7.925   0.648  0.2029  0.0619 -0.1393
  771MOL0     H 6329   4.277   8.007   0.212  1.8580 -0.6915  2.6173
  771MOL0     H 6330   4.508   8.091   0.155 -0.3035 -1.8451  2.8746
  771MOL0     H 6331   4.654   8.242   0.032 -1.7023 -1.1942 -0.3963
  771MOL0     H 6332   4.692   8.164   0.185 -2.4476  0.4310  2.3171
  771MOL0     H 6333   4.878   8.328   0.054 -0.3394  3.0579 -0.4667
  771MOL0     H 6334   4.799   8.449   0.146  1.6161  2.0124 -3.3370
  771MOL0     H 6335   4.831   8.335   0.362 -0.3551 -2.7982  1.8276
  771MOL0     H 6336   4.890   8.191   0.288 -2.9543  0.6866  0.4335
  771MOL0     H 6337   5.077   8.307   0.180  1.4054 -0.9540  0.5170
  771MOL0     H 6338   5.021   8.461   0.228 -0.3044 -0.8627 -2.0241
  771MOL0     H 6339   5.126   8.238   0.410 -1.0066 -0.0189  3.2300
  771MOL0     H 6340   5.065   8.392   0.473  0.1628 -0.2590  0.1517
  771MOL0     H 6341   5.298   8.350   0.277  0.2418 -2.5763  1.1989
  771MOL0     H 6342   5.240   8.510   0.329 -0.5784 -0.1635  1.8116
  771MOL0     H 6343   5.324   8.310   0.543 -0.2946 -0.1846 -0.3209
  771MOL0     H 6344   5.274   8.477   0.559 -0.7498 -1.2787  0.0027
  771MOL0     H 6345   5.475   8.531   0.407  1.4937 -1.4410 -0.7578
  771MOL0     H 6346   5.510   8.487   0.572 -0.0630 -0.4023  1.1616
  771MOL0     H 6347   5.694   8.459   0.304 -1.2367  1.4783  1.6372
  771MOL0     H 6348   5.844   8.237   0.160 -0.2683  0.2465  0.2620
  771MOL0     H 6349   5.893   8.114   0.285  1.6640 -0.7803 -0.9168
  771MOL0     H 6350   5.951   8.409   0.314  1.5370 -0.2425  0.1169
  771MOL0     H 6351   6.004   8.279   0.419 -0.3554  0.9996  0.4938
  771MOL0     H 6352   6.142   8.189   0.236 -2.6948 -0.8737  1.6289
  771MOL0     H 6353   6.096   8.329   0.132  1.3121  0.6985 -0.1535
  771MOL0     H 6354   6.216   8.402   0.389  0.7645 -1.3254 -0.2611
  771MOL0     H 6355   6.319   8.374   0.260  0.0993  0.4190  3.7034
  771MOL0     H 6356   6.309   8.369   0.013 -0.1780 -0.1243 -2.1056
  771MOL0     H 6357   6.324   8.326  -0.188 -1.8965  0.0143 -2.4466
  771MOL0     H 6358   6.468   8.418  -0.248 -0.4046 -0.2408 -2.8981
  771MOL0     H 6359   6.315   8.447  -0.314  0.7881  0.1107  0.0857
  771MOL0     H 6360   6.315   8.665  -0.540  1.3684  1.2283  3.5143
  771MOL0     H 6361   6.338   8.760  -0.770 -1.9422 -0.0230 -1.1592
  771MOL0     H 6362   6.335   9.012  -1.020 -1.1812  0.4712  0.7789
  771MOL0     H 6363   6.307   8.870  -0.944  2.7414  0.2228 -1.3288
  771MOL0     H 6364   6.106   8.970  -1.052  2.4077  0.5924 -0.3907
  771MOL0     H 6365   6.065   8.952  -0.879 -0.8479  0.1665  0.6587
  771MOL0     H 6366   6.163   9.216  -1.002 -2.1105  3.3822 -0.2852
  771MOL0     H 6367   6.105   9.197  -0.842 -0.2589  2.6717 -0.8369
  771MOL0     H 6368   5.884   9.123  -0.918 -2.2022  1.1583 -1.5108
  771MOL0     H 6369   5.920   9.135  -1.078  1.9002 -0.5372  0.2080
  771MOL0     H 6370   5.963   9.363  -1.070  0.5070  1.0381  0.6750
  771MOL0     H 6371   5.801   9.333  -1.009  1.0825  0.1784 -4.7066
  771MOL0     H 6372   6.045   9.413  -0.836 -0.1347 -1.7599  0.1864
  771MOL0     H 6373   5.893   9.365  -0.766  0.0523  2.3051  0.5500
  771MOL0     H 6374   5.962   9.599  -0.951  0.8541 -4.0153 -2.9268
  771MOL0     H 6375   5.911   9.602  -0.778 -2.0999  1.3818 -1.1993
  771MOL0     H 6376   5.738   9.548  -1.012  0.6380 -1.0379  0.3185
  771MOL0     H 6377   5.723   9.680  -0.905  0.6811 -0.0094  2.0370
  771MOL0     H 6378   6.333   9.151  -0.586 -0.3608 -0.4227  0.5032
  771MOL0     H 6379   6.306   9.045  -0.364 -1.1903 -0.7065  1.3331
  771MOL0     H 6380   6.272   8.851  -0.061 -2.0020 -0.1720 -2.6014
  771MOL0     H 6381   6.199   8.758   0.166  0.5875  0.6436  0.0407
  771MOL0     H 6382   4.395   8.481   0.301 -0.2756 -0.4816 -0.9886
  771MOL0     H 6383   4.149   8.400   0.315  0.9789  2.7020 -2.1487
  771MOL0     H 6384   3.827   8.165   0.262  0.4409 -0.0439 -0.2754
  771MOL0     H 6385   3.620   8.015   0.243  0.1128 -1.7305 -0.6417
  771MOL0     H 6386   3.582   7.671   0.521 -0.4385  0.7054  0.7979
  771MOL0     H 6387   3.448   7.790   0.558  2.1534 -1.1216  2.3767
  771MOL0     H 6388   3.346   7.704   0.334  0.1200  1.6739  0.5477
  771MOL0     H 6389   3.333   7.603   0.472 -0.4277 -0.5291 -1.1928
  771MOL0     H 6390   3.412   7.478   0.253  0.2093 -1.5538  1.4030
  771MOL0     H 6391   3.554   7.572   0.254 -0.9970  0.8415 -1.9462
  771MOL0     H 6392   3.616   7.457   0.479 -1.9492  1.0768  2.3352
  771MOL0     H 6393   3.588   7.320   0.375 -0.7259 -0.6942  0.5885
  771MOL0     H 6394   3.248   7.311   0.621 -0.6985 -0.0760 -1.2363
  771MOL0     H 6395   3.716   7.820   0.606  0.2083  1.9886  2.0458
  771MOL0     H 6396   3.914   7.844   0.711  1.9565 -0.1812  0.6241
  771MOL0     H 6397   4.051   7.899   0.615 -0.3587 -0.5276 -1.4394
  771MOL0     H 6398   3.962   8.016   0.708  2.8946 -0.3196  0.0341
  772MOL0     O 6399   7.518   9.555   1.500 -0.5346  0.1853  0.7011
  772MOL0     C 6400   7.431   9.641   1.479  1.1685  0.4338 -0.5652
  772MOL0     O 6401   7.450   9.773   1.448  0.0222  0.5340  0.5847
  772MOL0     C 6402   7.564   9.823   1.397  0.6709  0.2615  0.2322
  772MOL0     C 6403   7.567   9.959   1.390  0.1920 -0.6421  0.2440
  772MOL0     C 6404   7.666  10.023   1.321 -0.5476 -0.2012  0.0822
  772MOL0     C 6405   7.776   9.960   1.266 -0.1053 -0.0946 -0.4621
  772MOL0     O 6406   7.870  10.038   1.205  0.5478  0.6384 -0.0413
  772MOL0     C 6407   7.995   9.977   1.176 -0.2785 -0.8049 -1.0739
  772MOL0     C 6408   8.113  10.057   1.112  0.5232 -0.1608 -0.1455
  772MOL0     C 6409   8.174  10.145   1.232 -0.0479  0.2736  0.3725
  772MOL0     C 6410   8.315  10.183   1.192 -0.1412 -0.7234  0.7713
  772MOL0     C 6411   8.386  10.255   1.314  0.2704 -0.3168 -0.3237
  772MOL0     C 6412   8.539  10.273   1.298 -0.0430 -0.1038  0.0747
  772MOL0     C 6413   8.593  10.344   1.430 -0.4041 -0.2263  0.1550
  772MOL0     C 6414   8.733  10.387   1.427 -0.6314 -0.1867  0.5846
  772MOL0     N 6415   8.784  10.464   1.543 -0.6680  0.3279  0.5368
  772MOL0     C 6416   8.788  10.429   1.678  0.0110 -0.4033 -0.3538
  772MOL0     C 6417   8.831  10.549   1.742  1.1506 -0.0772  0.5204
  772MOL0     C 6418   8.848  10.560   1.895  0.2767  0.8172  0.0320
  772MOL0     C 6419   8.860  10.709   1.936 -0.6467  0.0659  0.3827
  772MOL0     C 6420   8.890  10.716   2.088  0.2764  0.3661  0.2826
  772MOL0     C 6421   8.951  10.852   2.133  0.1629  0.1202 -0.2321
  772MOL0     O 6422   9.086  10.871   2.096 -0.1960 -0.3781 -0.2909
  772MOL0     C 6423   9.186  10.809   2.164 -0.2428 -0.5875  0.3949
  772MOL0     C 6424   9.178  10.707   2.258 -0.0914  0.7872 -1.0660
  772MOL0     C 6425   9.294  10.642   2.312 -0.2408 -0.2980 -0.0423
  772MOL0     C 6426   9.259  10.535   2.411 -0.1393  0.7095 -0.4171
  772MOL0     C 6427   9.423  10.698   2.282  0.5080  0.6264  0.1679
  772MOL0     C 6428   9.552  10.642   2.332 -0.1764  0.5400 -0.3174
  772MOL0     O 6429   9.659  10.717   2.289  0.0529 -0.5473 -0.6941
  772MOL0     C 6430   9.779  10.688   2.355  1.2022 -0.4872 -0.2983
  772MOL0     C 6431   9.831  10.790   2.438  0.0404 -0.0285 -0.6059
  772MOL0     C 6432   9.955  10.760   2.496  0.0603 -1.0901 -0.0472
  772MOL0     C 6433  10.033  10.644   2.468  1.2440  0.1447 -0.2008
  772MOL0     O 6434  10.152  10.644   2.531 -0.2487  0.0261 -0.6889
  772MOL0     C 6435  10.252  10.584   2.450  0.1333 -0.1697  0.0614
  772MOL0     C 6436  10.367  10.572   2.545 -0.0677 -0.9269  0.5411
  772MOL0     C 6437  10.495  10.503   2.483  0.1936 -0.3951 -0.0430
  772MOL0     C 6438  10.619  10.525   2.576  0.2457  0.1030  0.2139
  772MOL0     C 6439  10.751  10.483   2.521 -0.3555 -0.9521 -0.4897
  772MOL0     C 6440  10.760  10.331   2.489  0.3645 -0.0849  0.3209
  772MOL0     C 6441  10.896  10.294   2.436 -0.2106  1.0306 -0.1965
  772MOL0     C 6442  10.937  10.155   2.478  0.4877 -0.0784 -0.0339
  772MOL0    Cl 6443  10.978  10.160   2.645  0.0574 -0.5941  0.1096
  772MOL0     C 6444   9.980  10.546   2.385  0.4486  0.7127  0.8756
  772MOL0     C 6445   9.855  10.573   2.326 -0.1700  0.8029 -0.5273
  772MOL0     O 6446   9.563  10.537   2.397  0.1540  0.1653 -0.1161
  772MOL0     C 6447   9.426  10.804   2.193  0.1155 -0.2668 -0.3785
  772MOL0     C 6448   9.317  10.857   2.139 -0.2121  0.1436  0.7755
  772MOL0     N 6449   8.848  10.641   1.649 -0.7485 -0.1262 -0.3358
  772MOL0     N 6450   8.816  10.590   1.533 -0.7752 -0.0538  0.0206
  772MOL0     C 6451   7.779   9.823   1.279  1.1474  0.0491 -0.8905
  772MOL0     C 6452   7.673   9.756   1.346  0.0204  0.3427  0.2219
  772MOL0     C 6453   7.298   9.601   1.529  0.8115 -0.0546 -0.8322
  772MOL0     C 6454   7.292   9.495   1.618 -0.0807  0.1298 -0.6205
  772MOL0     C 6455   7.174   9.468   1.693  0.0294 -0.5487 -0.2750
  772MOL0     C 6456   7.062   9.543   1.672  1.2374 -0.0909 -0.6016
  772MOL0     O 6457   6.933   9.521   1.730  0.5951  0.1101  0.3686
  772MOL0     C 6458   6.923   9.425   1.829 -0.3384 -0.0064 -0.5087
  772MOL0     C 6459   6.791   9.416   1.907  0.1755 -0.1947  0.4861
  772MOL0     C 6460   6.674   9.418   1.808 -0.2821  0.7153 -0.1545
  772MOL0     C 6461   6.543   9.388   1.879  0.5862  0.4294 -0.3733
  772MOL0     C 6462   6.435   9.434   1.791 -0.2910 -0.2280 -0.6629
  772MOL0     C 6463   6.348   9.486   1.726 -0.1792 -1.2174  0.5505
  772MOL0     C 6464   7.060   9.644   1.581  0.2107  0.4499  0.0944
  772MOL0     C 6465   7.179   9.684   1.520 -0.2725  0.2044  1.3671
  772MOL0     C 6466   7.166   9.798   1.424  0.1006 -0.2092  0.4721
  772MOL0     H 6467   7.477  10.011   1.423  0.6718 -0.5984  1.5551
  772MOL0     H 6468   7.650  10.130   1.317 -0.3139 -0.1976 -1.1276
  772MOL0     H 6469   7.966   9.902   1.101 -1.6383 -1.5702  0.1809
  772MOL0     H 6470   8.035   9.909   1.252  1.3955 -1.2739 -2.2937
  772MOL0     H 6471   8.198   9.998   1.077  1.0811  1.3349 -1.4793
  772MOL0     H 6472   8.075  10.123   1.032 -0.3341  1.1379  1.2698
  772MOL0     H 6473   8.121  10.238   1.254 -2.3921 -1.6186  3.8004
  772MOL0     H 6474   8.176  10.079   1.320  0.0592  2.2495  1.9246
  772MOL0     H 6475   8.371  10.094   1.165  0.6607  0.5360 -2.1302
  772MOL0     H 6476   8.315  10.232   1.094  2.2005 -2.1697 -0.0379
  772MOL0     H 6477   8.366  10.190   1.399 -0.3882 -0.4788 -0.5999
  772MOL0     H 6478   8.344  10.353   1.340  2.7189 -0.1672  3.9515
  772MOL0     H 6479   8.600  10.183   1.292  0.8442  0.3535  1.7018
  772MOL0     H 6480   8.554  10.331   1.206 -0.3192  0.4711  0.3891
  772MOL0     H 6481   8.589  10.270   1.511 -1.1090 -0.1799  0.1602
  772MOL0     H 6482   8.531  10.432   1.447 -3.0451 -1.8436 -0.6083
  772MOL0     H 6483   8.794  10.296   1.433  0.1797  0.4103  1.9738
  772MOL0     H 6484   8.754  10.438   1.333 -1.1025 -1.1776 -0.0817
  772MOL0     H 6485   8.759  10.336   1.725 -3.7726  1.1732  0.8279
  772MOL0     H 6486   8.933  10.500   1.927 -0.2683 -0.6788 -1.2002
  772MOL0     H 6487   8.765  10.512   1.948 -0.4447 -0.3386 -2.0266
  772MOL0     H 6488   8.936  10.763   1.878  0.4685 -1.2654  0.5618
  772MOL0     H 6489   8.761  10.756   1.932 -0.5697  0.4785  2.2910
  772MOL0     H 6490   8.796  10.700   2.141  0.5425  1.0097  0.9717
  772MOL0     H 6491   8.963  10.638   2.110  0.8334  0.7929 -0.0097
  772MOL0     H 6492   8.883  10.928   2.092 -1.4487 -0.4898  1.1968
  772MOL0     H 6493   8.951  10.861   2.242 -0.3572  0.2265 -0.2401
  772MOL0     H 6494   9.082  10.664   2.284 -0.1148  2.2203  1.5479
  772MOL0     H 6495   9.270  10.571   2.513 -0.6251  1.6307 -0.6744
  772MOL0     H 6496   9.330  10.453   2.402 -0.3046  0.2971  1.6957
  772MOL0     H 6497   9.155  10.502   2.402  0.1391 -0.4901  0.4591
  772MOL0     H 6498   9.779  10.881   2.465 -0.0337 -0.9479  2.8283
  772MOL0     H 6499  10.004  10.830   2.562 -0.1229 -0.0793 -0.9440
  772MOL0     H 6500  10.226  10.484   2.417 -2.1733  0.5440 -0.4844
  772MOL0     H 6501  10.281  10.652   2.369 -2.1845  0.6395 -0.1741
  772MOL0     H 6502  10.402  10.670   2.576 -1.4252 -0.8591  1.9957
  772MOL0     H 6503  10.335  10.514   2.632 -0.8671  0.0498  0.9153
  772MOL0     H 6504  10.516  10.544   2.383 -1.6444 -1.5485 -0.9572
  772MOL0     H 6505  10.464  10.398   2.484 -2.3957  0.3014  0.0805
  772MOL0     H 6506  10.609  10.468   2.669 -2.3003  0.5524  0.2857
  772MOL0     H 6507  10.631  10.630   2.605  2.2778 -0.2501  0.7766
  772MOL0     H 6508  10.771  10.538   2.428  2.1150  0.7180  0.9268
  772MOL0     H 6509  10.830  10.506   2.593 -0.0570 -2.7253 -0.2240
  772MOL0     H 6510  10.679  10.304   2.420  0.2231 -0.7717  0.7451
  772MOL0     H 6511  10.750  10.283   2.587  2.3604  0.3408  0.7660
  772MOL0     H 6512  10.973  10.361   2.475  2.0308 -0.3337 -1.9863
  772MOL0     H 6513  10.886  10.302   2.327  0.1410 -0.4914 -0.3651
  772MOL0     H 6514  11.029  10.135   2.422  1.4195  1.6390  0.8030
  772MOL0     H 6515  10.858  10.085   2.452  2.9311 -3.4477  0.9357
  772MOL0     H 6516  10.036  10.456   2.363 -0.5869  0.4246 -0.8019
  772MOL0     H 6517   9.806  10.496   2.267 -0.5364 -0.1144  0.9254
  772MOL0     H 6518   9.513  10.859   2.160 -1.6543  1.6269 -2.1671
  772MOL0     H 6519   9.338  10.942   2.074  2.3030 -0.5911  0.4879
  772MOL0     H 6520   7.868   9.767   1.255  1.4553 -0.1594  0.6155
  772MOL0     H 6521   7.667   9.648   1.338 -2.5501  0.4635 -0.4462
  772MOL0     H 6522   7.376   9.427   1.631  0.0784  0.2337 -1.0670
  772MOL0     H 6523   7.182   9.390   1.768 -0.1232 -0.0549  0.2691
  772MOL0     H 6524   6.941   9.328   1.782  3.4339  0.9199 -1.2910
  772MOL0     H 6525   7.003   9.443   1.902  0.3842 -0.6780 -1.1174
  772MOL0     H 6526   6.776   9.506   1.967  0.7081  0.9762 -1.0517
  772MOL0     H 6527   6.795   9.327   1.970 -4.4241 -1.4806 -0.6801
  772MOL0     H 6528   6.657   9.522   1.776 -1.7080  0.1040 -1.5104
  772MOL0     H 6529   6.698   9.355   1.723  0.9280  0.1307  0.5998
  772MOL0     H 6530   6.531   9.459   1.961 -1.4955  0.3138 -0.5343
  772MOL0     H 6531   6.543   9.286   1.919 -0.2177  0.7632  0.5262
  772MOL0     H 6532   6.277   9.536   1.663  2.5685 -0.1356 -1.8987
  772MOL0     H 6533   6.970   9.701   1.560  0.4361  0.4064 -1.0387
  772MOL0     H 6534   7.177   9.763   1.321 -1.2279 -2.6417  1.0856
  772MOL0     H 6535   7.063   9.833   1.423 -0.0470 -0.5819 -1.8107
  772MOL0     H 6536   7.226   9.887   1.446  1.3971 -0.9913  0.2131
  773MOL0     O 6537  11.307  10.971   6.843 -0.2107 -0.5665  0.1207
  773MOL0     C 6538  11.204  10.986   6.902 -0.5175 -0.1203 -0.0098
  773MOL0     O 6539  11.200  11.007   7.040 -0.1242 -0.9333  0.8246
  773MOL0     C 6540  11.317  11.047   7.107  0.7186 -0.0380  0.0613
  773MOL0     C 6541  11.293  11.139   7.200  0.1996 -0.8584 -0.0339
  773MOL0     C 6542  11.389  11.182   7.285 -0.7727 -0.8481 -0.6354
  773MOL0     C 6543  11.518  11.134   7.277  0.2301  0.3995  0.1088
  773MOL0     O 6544  11.618  11.172   7.356 -0.3079 -0.3834 -0.7232
  773MOL0     C 6545  11.604  11.196   7.500  0.2958  0.0341  0.3001
  773MOL0     C 6546  11.658  11.090   7.599 -0.0864  0.7801  0.5927
  773MOL0     C 6547  11.811  11.072   7.600  0.5723  0.4618  0.5958
  773MOL0     C 6548  11.860  10.980   7.705  0.1385 -0.4107 -0.1800
  773MOL0     C 6549  12.014  10.962   7.723 -0.5606  0.4479  0.2359
  773MOL0     C 6550  12.097  11.086   7.764 -0.2057  0.4527  0.8108
  773MOL0     C 6551  12.237  11.041   7.802 -0.1443  0.5365  0.1971
  773MOL0     C 6552  12.324  11.158   7.826  0.0328 -0.3437 -0.1172
  773MOL0     N 6553  12.450  11.117   7.888  0.1019 -0.5623  0.2981
  773MOL0     C 6554  12.463  11.075   8.014  0.4464 -0.2382 -0.8240
  773MOL0     C 6555  12.597  11.072   8.032 -0.7616 -0.0303 -0.3920
  773MOL0     C 6556  12.662  11.034   8.157  0.7961  0.7967 -0.7760
  773MOL0     C 6557  12.744  10.900   8.175 -0.3042 -0.3269 -0.0255
  773MOL0     C 6558  12.869  10.923   8.264 -0.0570  0.3449 -0.0794
  773MOL0     C 6559  12.978  10.813   8.263  0.4367 -0.4531 -0.4886
  773MOL0     O 6560  13.089  10.862   8.329  0.1589  0.5383  0.6984
  773MOL0     C 6561  13.199  10.787   8.309  0.5445  0.6557 -0.3169
  773MOL0     C 6562  13.250  10.715   8.415  0.3966  0.1550 -0.5014
  773MOL0     C 6563  13.369  10.641   8.404  0.3521  0.1173 -0.1863
  773MOL0     C 6564  13.416  10.575   8.530  0.6000  0.4081 -0.2148
  773MOL0     C 6565  13.438  10.642   8.289  0.6523  0.0381 -0.0097
  773MOL0     C 6566  13.571  10.580   8.279 -0.4027  0.0070  0.1747
  773MOL0     O 6567  13.600  10.474   8.363  0.0772  0.7338 -0.2160
  773MOL0     C 6568  13.711  10.397   8.363 -0.5753  0.4652 -0.0484
  773MOL0     C 6569  13.752  10.346   8.485  1.1337  0.0697 -1.1584
  773MOL0     C 6570  13.880  10.278   8.501  0.3218  0.2006 -0.0101
  773MOL0     C 6571  13.954  10.237   8.387  0.1035 -0.7088 -0.3343
  773MOL0     O 6572  14.078  10.186   8.391 -0.1135 -0.2031 -0.0930
  773MOL0     C 6573  14.117  10.133   8.520 -0.6034  0.8720 -0.3119
  773MOL0     C 6574  14.257  10.071   8.510  0.6604 -0.0059 -0.1862
  773MOL0     C 6575  14.365  10.173   8.520  0.3316 -0.5905  0.0006
  773MOL0     C 6576  14.504  10.114   8.480 -0.1331 -0.2138  0.5861
  773MOL0     C 6577  14.609  10.224   8.494  0.5415 -0.1005 -0.3502
  773MOL0     C 6578  14.744  10.192   8.443 -0.2837  0.8811 -0.4179
  773MOL0     C 6579  14.847  10.309   8.453 -0.3699 -0.4109 -0.3823
  773MOL0     C 6580  14.882  10.349   8.595  0.0745 -0.0892  0.2322
  773MOL0    Cl 6581  14.994  10.479   8.604 -0.0337  0.2247  0.2224
  773MOL0     C 6582  13.907  10.283   8.265 -0.2610  0.3063 -0.0273
  773MOL0     C 6583  13.793  10.359   8.250  0.0156  0.1656  0.2157
  773MOL0     O 6584  13.650  10.642   8.207  0.0925 -0.1122  0.0661
  773MOL0     C 6585  13.393  10.722   8.185  0.3500  0.3793 -0.2464
  773MOL0     C 6586  13.270  10.785   8.192  0.2498  0.6601 -0.1537
  773MOL0     N 6587  12.666  11.122   7.923  0.0258  0.0850 -0.7395
  773MOL0     N 6588  12.576  11.144   7.835  0.3039 -0.2150 -0.7767
  773MOL0     C 6589  11.547  11.046   7.178 -0.2240  0.9849  0.2782
  773MOL0     C 6590  11.449  10.995   7.091 -0.2821  0.5294 -0.1044
  773MOL0     C 6591  11.086  10.970   6.827  0.1081 -0.2610  0.4483
  773MOL0     C 6592  11.101  10.943   6.691  0.9471 -0.1651  0.2714
  773MOL0     C 6593  10.986  10.916   6.604 -0.0764  0.6968  0.0035
  773MOL0     C 6594  10.859  10.902   6.652  0.1549 -0.0920 -0.2355
  773MOL0     O 6595  10.747  10.875   6.575 -0.5782  0.0148 -0.4996
  773MOL0     C 6596  10.756  10.865   6.426  0.0183  0.5197  0.4078
  773MOL0     C 6597  10.609  10.846   6.379 -0.2637 -0.0954  0.2432
  773MOL0     C 6598  10.544  10.736   6.466  0.3292 -0.4033 -0.4868
  773MOL0     C 6599  10.395  10.701   6.429  0.4781 -0.1562 -0.9100
  773MOL0     C 6600  10.378  10.551   6.426  0.4485 -0.0514  0.3889
  773MOL0     C 6601  10.375  10.435   6.407 -0.1997 -0.3429 -0.1273
  773MOL0     C 6602  10.845  10.932   6.784 -0.3679  0.5719  0.2862
  773MOL0     C 6603  10.954  10.972   6.872  0.2058 -0.3095 -0.3148
  773MOL0     C 6604  10.918  10.995   7.017  0.3082  0.2052 -0.1758
  773MOL0     H 6605  11.195  11.181   7.224  0.6685 -1.4710  3.6522
  773MOL0     H 6606  11.369  11.255   7.363  0.5395  0.3611 -1.3757
  773MOL0     H 6607  11.498  11.203   7.526 -0.5208 -2.0252 -2.0255
  773MOL0     H 6608  11.652  11.293   7.512  0.3111  0.3447 -1.8958
  773MOL0     H 6609  11.629  11.111   7.703  0.0452  4.0025  0.0668
  773MOL0     H 6610  11.623  10.995   7.557  2.6399 -0.2744  0.4868
  773MOL0     H 6611  11.838  11.038   7.500 -2.7084  0.4369 -0.3989
  773MOL0     H 6612  11.844  11.175   7.617 -0.5265  0.9095  0.0746
  773MOL0     H 6613  11.814  11.007   7.800 -0.8938  1.9652 -1.2854
  773MOL0     H 6614  11.810  10.885   7.683 -0.2805 -0.3327  0.4189
  773MOL0     H 6615  12.059  10.909   7.639  0.0283 -0.2997  1.0010
  773MOL0     H 6616  12.014  10.895   7.810 -1.9575  0.5701  0.3530
  773MOL0     H 6617  12.093  11.160   7.684  1.5970 -0.8627 -0.5881
  773MOL0     H 6618  12.051  11.134   7.851 -1.0194  1.8775 -0.3717
  773MOL0     H 6619  12.290  10.976   7.731 -2.4867  1.3796 -2.5282
  773MOL0     H 6620  12.230  10.978   7.891  0.1896  1.6282  1.0074
  773MOL0     H 6621  12.340  11.194   7.724 -1.2011 -2.5151 -1.1375
  773MOL0     H 6622  12.273  11.236   7.883  1.5645  0.5771  0.0557
  773MOL0     H 6623  12.388  11.048   8.087  2.3705 -0.1722  1.2675
  773MOL0     H 6624  12.571  11.023   8.218  0.9996 -0.2259 -0.6415
  773MOL0     H 6625  12.719  11.122   8.188  0.4564  0.7189  0.1064
  773MOL0     H 6626  12.680  10.826   8.225  0.7449 -2.3373 -1.5037
  773MOL0     H 6627  12.776  10.867   8.076 -0.6170 -0.3767 -0.1124
  773MOL0     H 6628  12.905  11.024   8.242 -2.1302  1.4159  1.1468
  773MOL0     H 6629  12.827  10.942   8.363 -0.1880  2.7999 -0.5368
  773MOL0     H 6630  12.944  10.728   8.322 -1.4640 -0.0441 -0.9349
  773MOL0     H 6631  12.986  10.786   8.158  0.6006 -0.1382 -0.5579
  773MOL0     H 6632  13.188  10.718   8.504  1.6240 -0.7627  0.4124
  773MOL0     H 6633  13.400  10.467   8.530  2.6891  0.0536 -0.6066
  773MOL0     H 6634  13.368  10.615   8.620  0.7117  0.8598 -0.3505
  773MOL0     H 6635  13.523  10.596   8.543  0.8719 -1.5639  1.2555
  773MOL0     H 6636  13.693  10.377   8.571 -0.0174  2.2389 -2.6434
  773MOL0     H 6637  13.920  10.271   8.601 -1.5981  4.3142  1.2858
  773MOL0     H 6638  14.126  10.212   8.595  0.8013  1.9997 -1.5985
  773MOL0     H 6639  14.054  10.046   8.541  2.3811 -2.1945 -2.8423
  773MOL0     H 6640  14.275   9.995   8.587  1.1295 -1.0634 -1.3150
  773MOL0     H 6641  14.275  10.029   8.411  2.8676 -0.7817  0.4805
  773MOL0     H 6642  14.365  10.205   8.625 -2.0393 -1.9920  0.5059
  773MOL0     H 6643  14.350  10.260   8.456 -1.8893 -0.3108  0.8070
  773MOL0     H 6644  14.506  10.074   8.378 -0.7141  0.9790  0.0859
  773MOL0     H 6645  14.520  10.033   8.552 -3.6616  0.9613  2.9855
  773MOL0     H 6646  14.562  10.296   8.425  0.6122 -0.0085 -0.3030
  773MOL0     H 6647  14.602  10.266   8.594 -0.7221 -0.9721 -0.0450
  773MOL0     H 6648  14.738  10.148   8.343  0.8402  1.6866 -0.8581
  773MOL0     H 6649  14.778  10.119   8.517  1.8493  0.5342 -1.6512
  773MOL0     H 6650  14.807  10.399   8.406  2.5151  0.7062 -0.9211
  773MOL0     H 6651  14.934  10.285   8.392 -2.2293 -0.2752 -3.2823
  773MOL0     H 6652  14.924  10.265   8.651  0.4771 -1.5201 -2.1229
  773MOL0     H 6653  14.785  10.376   8.639 -0.4594 -1.6216  0.0319
  773MOL0     H 6654  13.970  10.261   8.179 -0.6646 -0.8121 -0.0550
  773MOL0     H 6655  13.763  10.382   8.148 -1.2392 -2.2632 -0.0472
  773MOL0     H 6656  13.452  10.715   8.094 -0.5515 -0.4509 -0.7876
  773MOL0     H 6657  13.249  10.844   8.104  1.7748  1.2884 -0.1325
  773MOL0     H 6658  11.646  11.002   7.171 -0.5822  0.1594  0.2348
  773MOL0     H 6659  11.465  10.928   7.007 -1.8291  0.2485 -0.1977
  773MOL0     H 6660  11.193  10.955   6.634  1.5574  0.0789  1.2879
  773MOL0     H 6661  11.020  10.884   6.506  0.4638  1.4198 -0.0540
  773MOL0     H 6662  10.794  10.960   6.388  1.7798  0.6862  2.3923
  773MOL0     H 6663  10.817  10.784   6.387  0.0810  0.7894 -0.0648
  773MOL0     H 6664  10.608  10.812   6.275 -1.5195  0.8625 -0.0851
  773MOL0     H 6665  10.553  10.939   6.389  0.5856  0.5621 -0.8165
  773MOL0     H 6666  10.607  10.647   6.474 -0.9186 -1.6017 -2.8594
  773MOL0     H 6667  10.526  10.772   6.568 -0.0787 -0.3474 -0.5739
  773MOL0     H 6668  10.396  10.743   6.327  1.9219  1.7818 -0.1628
  773MOL0     H 6669  10.313  10.749   6.483 -0.5147 -2.4184 -0.2857
  773MOL0     H 6670  10.376  10.328   6.399  1.4391 -0.2568 -1.6755
  773MOL0     H 6671  10.743  10.924   6.818 -1.5809 -0.4636 -3.1844
  773MOL0     H 6672  10.938  10.905   7.076 -1.3860 -0.4839 -0.6151
  773MOL0     H 6673  10.971  11.083   7.057 -0.1678  0.2634  0.3397
  773MOL0     H 6674  10.813  11.025   7.019  0.5361  1.0414 -0.2585
  774MOL0     O 6675   0.881   4.168   1.185 -0.8179 -0.2281  0.0569
  774MOL0     C 6676   0.793   4.253   1.163  0.2510 -0.0200 -0.7387
  774MOL0     O 6677   0.818   4.375   1.119  0.2350  0.6555 -0.5288
  774MOL0     C 6678   0.938   4.409   1.059  0.2845 -0.3012  0.6488
  774MOL0     C 6679   1.032   4.337   0.986  0.4020  0.4961  0.5883
  774MOL0     C 6680   1.153   4.401   0.937  0.1261  0.2342 -0.7292
  774MOL0     C 6681   1.173   4.538   0.959 -0.6540 -0.2632  0.2239
  774MOL0     O 6682   1.294   4.599   0.928 -0.0585 -0.1809  0.6965
  774MOL0     C 6683   1.403   4.510   0.917  0.3401 -0.2128  0.4549
  774MOL0     C 6684   1.536   4.578   0.920  0.1280 -0.3318 -0.8432
  774MOL0     C 6685   1.574   4.615   1.065 -0.2798  0.6646  0.1275
  774MOL0     C 6686   1.717   4.678   1.072  0.0661  0.5337 -0.1682
  774MOL0     C 6687   1.755   4.717   1.214  0.4545 -0.4991  0.1183
  774MOL0     C 6688   1.902   4.749   1.220  0.5541  0.2870 -1.2252
  774MOL0     C 6689   1.938   4.793   1.359 -0.1106  0.3414 -0.3931
  774MOL0     C 6690   2.079   4.843   1.371  0.0637 -0.1294 -0.0308
  774MOL0     N 6691   2.182   4.747   1.314  0.5203  0.3171  0.2606
  774MOL0     C 6692   2.254   4.764   1.199  0.5577  0.5001 -0.6013
  774MOL0     C 6693   2.321   4.653   1.175  0.1466 -0.2112 -0.3002
  774MOL0     C 6694   2.389   4.611   1.044 -0.1568 -0.2886 -0.3850
  774MOL0     C 6695   2.542   4.599   1.062  0.9583  1.1537 -0.8909
  774MOL0     C 6696   2.616   4.542   0.933  0.6169 -0.6398 -1.1577
  774MOL0     C 6697   2.760   4.569   0.940 -0.6564  0.7233  0.2969
  774MOL0     O 6698   2.796   4.691   0.887 -0.3124 -0.8935 -0.1301
  774MOL0     C 6699   2.922   4.746   0.915  0.8173  0.1914  0.1095
  774MOL0     C 6700   2.939   4.881   0.915 -0.3401 -0.6282 -0.2038
  774MOL0     C 6701   3.061   4.954   0.951  0.7334  0.4399  0.9825
  774MOL0     C 6702   3.059   5.106   0.948 -0.5168  0.1901  0.3667
  774MOL0     C 6703   3.171   4.873   0.983  0.4570  0.4050  0.1590
  774MOL0     C 6704   3.314   4.924   1.005  1.2533  0.3638 -0.6755
  774MOL0     O 6705   3.400   4.831   1.054 -0.2649  0.2043 -0.3448
  774MOL0     C 6706   3.525   4.889   1.080 -0.4642  0.9089  0.2981
  774MOL0     C 6707   3.626   4.914   0.982  0.2115 -0.3357  0.1402
  774MOL0     C 6708   3.746   4.966   1.023  0.6018  0.1033 -0.1348
  774MOL0     C 6709   3.770   5.005   1.157  0.7504 -0.7470  0.0826
  774MOL0     O 6710   3.893   5.058   1.196 -0.3553  0.6236  0.3571
  774MOL0     C 6711   4.014   5.059   1.108 -0.0907  0.4910 -0.2890
  774MOL0     C 6712   4.043   5.200   1.053 -0.6870  0.3436  0.1325
  774MOL0     C 6713   3.933   5.248   0.964 -0.7503  1.1070 -0.0927
  774MOL0     C 6714   3.976   5.383   0.886 -0.0318  0.7075 -0.1642
  774MOL0     C 6715   3.979   5.512   0.966  0.5901 -0.4149 -0.3152
  774MOL0     C 6716   3.921   5.640   0.888 -0.1399 -0.1790 -0.7905
  774MOL0     C 6717   3.890   5.763   0.972  0.4615 -0.3265 -0.3475
  774MOL0     C 6718   4.022   5.842   1.014  0.0683  0.8145  0.7621
  774MOL0    Cl 6719   3.997   5.963   1.145  0.5024  0.3124 -0.4748
  774MOL0     C 6720   3.668   4.997   1.249 -0.2023  0.0798 -0.2853
  774MOL0     C 6721   3.553   4.937   1.218 -0.6838 -0.4874  0.8245
  774MOL0     O 6722   3.343   5.036   0.969  0.3863  0.1610  0.2242
  774MOL0     C 6723   3.149   4.731   0.989 -0.2821 -0.9315  0.5515
  774MOL0     C 6724   3.028   4.670   0.962  0.2276 -0.8728  0.5707
  774MOL0     N 6725   2.290   4.560   1.272 -0.0933  0.3251  0.6612
  774MOL0     N 6726   2.201   4.614   1.346  0.6269 -0.4533 -0.8513
  774MOL0     C 6727   1.081   4.610   1.034  0.8428 -0.3021 -0.0901
  774MOL0     C 6728   0.964   4.545   1.077  0.0244 -0.7211 -0.8483
  774MOL0     C 6729   0.654   4.221   1.209  0.3697  0.4101 -1.3123
  774MOL0     C 6730   0.637   4.113   1.298  0.1364  1.1898  0.4594
  774MOL0     C 6731   0.514   4.068   1.331 -0.8573 -0.7933  0.7874
  774MOL0     C 6732   0.399   4.130   1.288 -0.4938  0.0143  0.7551
  774MOL0     O 6733   0.273   4.094   1.331 -0.8468 -0.5535 -0.1488
  774MOL0     C 6734   0.248   4.042   1.463  0.5803  0.1985  0.2547
  774MOL0     C 6735   0.110   4.093   1.502 -0.0773  1.6180 -0.3851
  774MOL0     C 6736   0.096   4.239   1.557  0.7659 -0.4729 -0.4917
  774MOL0     C 6737  -0.036   4.278   1.599  0.2462  0.0237 -0.5067
  774MOL0     C 6738  -0.104   4.186   1.693  0.2646 -0.2651 -0.0253
  774MOL0     C 6739  -0.187   4.137   1.766  0.5199  0.1166  0.2823
  774MOL0     C 6740   0.405   4.240   1.200 -0.2178  0.4081 -0.0622
  774MOL0     C 6741   0.532   4.290   1.161  0.3733  0.7463  0.5359
  774MOL0     C 6742   0.526   4.396   1.059  0.2254  0.1330  1.0000
  774MOL0     H 6743   1.023   4.232   0.959 -0.5563  0.0629  2.4841
  774MOL0     H 6744   1.223   4.344   0.877  0.3267  1.8931 -2.1452
  774MOL0     H 6745   1.393   4.453   0.824  0.4442  0.9025 -0.2615
  774MOL0     H 6746   1.406   4.447   1.006  3.7719 -0.9513 -0.0048
  774MOL0     H 6747   1.612   4.506   0.887 -0.0133  0.0103 -1.9632
  774MOL0     H 6748   1.531   4.665   0.854 -2.5111 -1.8183 -2.8297
  774MOL0     H 6749   1.500   4.688   1.101 -0.6505 -0.1867  1.1482
  774MOL0     H 6750   1.568   4.523   1.123  2.0662 -0.5112 -1.3675
  774MOL0     H 6751   1.784   4.600   1.034  0.9632  0.1842  1.9464
  774MOL0     H 6752   1.715   4.764   1.005 -1.8705 -0.4809 -1.5002
  774MOL0     H 6753   1.736   4.628   1.276  3.0998 -0.4883  1.0705
  774MOL0     H 6754   1.694   4.800   1.249 -2.2577 -1.7087 -1.4515
  774MOL0     H 6755   1.958   4.661   1.187  3.6128  1.4408  0.4370
  774MOL0     H 6756   1.922   4.825   1.144 -4.5518  1.6892 -1.5305
  774MOL0     H 6757   1.935   4.711   1.431  3.0211 -0.5586 -1.0973
  774MOL0     H 6758   1.876   4.874   1.397  1.2075  1.1830  0.0435
  774MOL0     H 6759   2.094   4.945   1.335  1.8916 -0.1709  0.4779
  774MOL0     H 6760   2.100   4.860   1.477 -1.8238 -0.1804  0.3780
  774MOL0     H 6761   2.245   4.849   1.132  0.4857  0.6808 -0.3622
  774MOL0     H 6762   2.371   4.683   0.963 -1.6685  3.2863  2.8214
  774MOL0     H 6763   2.358   4.513   1.008 -2.1283 -0.8717  2.5558
  774MOL0     H 6764   2.574   4.701   1.085  0.0634  1.0128  1.2297
  774MOL0     H 6765   2.557   4.543   1.155 -0.2250  1.2761 -0.6146
  774MOL0     H 6766   2.601   4.434   0.935 -0.2618 -0.6030  2.5083
  774MOL0     H 6767   2.571   4.590   0.846 -0.8839  0.3081  0.0699
  774MOL0     H 6768   2.802   4.564   1.040 -0.0384 -2.4341 -0.0284
  774MOL0     H 6769   2.825   4.501   0.884 -0.7608 -0.0219  1.0727
  774MOL0     H 6770   2.851   4.941   0.895  0.8240  2.4868  3.0128
  774MOL0     H 6771   2.959   5.138   0.978 -0.3055  0.7458  0.4998
  774MOL0     H 6772   3.096   5.149   0.854 -0.8893 -2.2071 -0.9660
  774MOL0     H 6773   3.126   5.146   1.024  1.1407 -1.3173 -0.2257
  774MOL0     H 6774   3.604   4.910   0.876  0.7036  0.7206 -0.0216
  774MOL0     H 6775   3.813   4.990   0.941  1.1218  0.2126  0.3149
  774MOL0     H 6776   4.100   5.021   1.164  1.6141  2.6805 -1.2644
  774MOL0     H 6777   4.016   4.990   1.023 -0.6519 -0.3972  0.4039
  774MOL0     H 6778   4.037   5.263   1.141 -3.3559 -0.6966  0.8189
  774MOL0     H 6779   4.145   5.198   1.013  0.2692 -2.6869  2.3749
  774MOL0     H 6780   3.842   5.270   1.020 -3.7355 -2.9011 -2.7973
  774MOL0     H 6781   3.902   5.171   0.893 -1.0655  0.8834  0.2892
  774MOL0     H 6782   3.916   5.391   0.795 -1.2609 -3.8545  0.0345
  774MOL0     H 6783   4.074   5.366   0.839 -0.2301 -1.3956  0.0977
  774MOL0     H 6784   3.943   5.499   1.069  3.0573  0.6296  0.7464
  774MOL0     H 6785   4.084   5.534   0.981  0.2530  1.6671 -0.7801
  774MOL0     H 6786   3.824   5.603   0.855  0.3392 -1.2379 -1.0696
  774MOL0     H 6787   3.970   5.665   0.794 -0.8326 -2.8661 -1.9614
  774MOL0     H 6788   3.834   5.741   1.063  0.7143  3.6462  0.9646
  774MOL0     H 6789   3.823   5.821   0.909 -0.2117  1.6449  2.0213
  774MOL0     H 6790   4.054   5.885   0.919 -1.8717  0.4447 -0.1059
  774MOL0     H 6791   4.093   5.764   1.042 -0.4722 -0.5246 -1.4268
  774MOL0     H 6792   3.687   5.038   1.348 -0.7772  0.2523 -0.2460
  774MOL0     H 6793   3.481   4.947   1.299  0.2137  0.8944  1.4931
  774MOL0     H 6794   3.228   4.668   1.029  1.1682  2.0874  2.9258
  774MOL0     H 6795   3.027   4.563   0.981 -3.2315 -1.3537 -1.5101
  774MOL0     H 6796   1.099   4.715   1.053 -4.8753  0.6217  2.1975
  774MOL0     H 6797   0.892   4.603   1.134 -1.5647 -2.6311 -0.8047
  774MOL0     H 6798   0.712   4.048   1.343  0.0959 -0.6491 -1.9300
  774MOL0     H 6799   0.519   4.003   1.418  0.8493  0.6169  1.8142
  774MOL0     H 6800   0.240   3.933   1.454  0.3377  0.1186  1.2736
  774MOL0     H 6801   0.327   4.067   1.535  0.4173  0.1699  0.4472
  774MOL0     H 6802   0.082   4.023   1.580 -0.0914  0.0048 -1.7925
  774MOL0     H 6803   0.045   4.073   1.416 -0.7242 -2.5580  0.8534
  774MOL0     H 6804   0.178   4.262   1.625 -0.8796  2.7064  0.5954
  774MOL0     H 6805   0.125   4.311   1.480  3.4602  0.7693  1.5180
  774MOL0     H 6806  -0.092   4.307   1.509 -0.9124 -2.2302 -0.5736
  774MOL0     H 6807  -0.024   4.372   1.654  1.1692 -0.0816 -0.5108
  774MOL0     H 6808  -0.264   4.089   1.823  0.1075  1.7335  1.1652
  774MOL0     H 6809   0.314   4.287   1.165 -1.2947 -1.7473 -0.3697
  774MOL0     H 6810   0.547   4.498   1.091  0.8035  0.0100  1.0222
  774MOL0     H 6811   0.592   4.362   0.979 -0.4260  1.1011  0.0368
  774MOL0     H 6812   0.431   4.400   1.005  1.4271  4.1263 -1.1427
  775MOL0     O 6813   5.426   9.825   9.451 -0.5176  0.0437  0.3992
  775MOL0     C 6814   5.418   9.793   9.331 -0.2851  0.4803  0.2626
  775MOL0     O 6815   5.526   9.768   9.254  0.2182  0.1209  0.1730
  775MOL0     C 6816   5.650   9.800   9.302  0.4321 -0.3158  0.2062
  775MOL0     C 6817   5.715   9.901   9.241 -0.6352 -0.2929  0.8898
  775MOL0     C 6818   5.848   9.919   9.271 -0.6361  0.1390  0.4322
  775MOL0     C 6819   5.926   9.842   9.365  0.2987 -1.1325 -0.7494
  775MOL0     O 6820   6.053   9.889   9.393  0.8910  0.0943 -0.2926
  775MOL0     C 6821   6.143   9.796   9.452  0.0919  0.1769  0.6824
  775MOL0     C 6822   6.289   9.843   9.457  0.2115 -0.0681  0.4968
  775MOL0     C 6823   6.300   9.962   9.550 -0.6543 -1.0870  0.5463
  775MOL0     C 6824   6.443  10.004   9.559  0.0914 -1.0653 -0.7062
  775MOL0     C 6825   6.467  10.144   9.605  0.3431  0.7944 -0.4196
  775MOL0     C 6826   6.613  10.189   9.602 -1.3780 -1.0147  0.1612
  775MOL0     C 6827   6.684  10.168   9.473  0.5475  0.0910  0.4650
  775MOL0     C 6828   6.805  10.257   9.460  0.2821 -0.3570 -0.2222
  775MOL0     N 6829   6.857  10.234   9.330 -0.8961  0.3776 -0.0746
  775MOL0     C 6830   6.928  10.120   9.296  0.2549 -0.1161 -0.1421
  775MOL0     C 6831   7.006  10.160   9.194 -0.3448  0.8062  0.0881
  775MOL0     C 6832   7.089  10.087   9.093  0.3590  0.3642  0.7517
  775MOL0     C 6833   7.181   9.981   9.154  0.2061 -0.4386  0.4502
  775MOL0     C 6834   7.274  10.032   9.261 -0.4820 -0.4510  0.1319
  775MOL0     C 6835   7.348   9.909   9.327  0.2825 -0.4744  0.5665
  775MOL0     O 6836   7.450   9.944   9.424  0.3132 -0.2682  0.5781
  775MOL0     C 6837   7.533   9.842   9.454  0.2443 -1.0408 -0.2504
  775MOL0     C 6838   7.548   9.795   9.579 -0.5845 -0.8674  0.1230
  775MOL0     C 6839   7.655   9.713   9.620  0.5942 -0.3203  0.7631
  775MOL0     C 6840   7.676   9.690   9.769 -0.5766  0.1897 -0.1684
  775MOL0     C 6841   7.755   9.678   9.530 -0.2754 -0.2176 -0.2393
  775MOL0     C 6842   7.875   9.595   9.562  0.0183  0.1107 -0.2886
  775MOL0     O 6843   7.998   9.627   9.506  0.4710  0.4203 -0.0324
  775MOL0     C 6844   8.099   9.568   9.575 -0.8136 -0.1943 -0.2499
  775MOL0     C 6845   8.175   9.480   9.497  0.8249  0.1569  0.3212
  775MOL0     C 6846   8.295   9.435   9.542 -0.4355  0.5262 -0.2213
  775MOL0     C 6847   8.332   9.450   9.672 -0.2535  0.9424 -0.3543
  775MOL0     O 6848   8.445   9.403   9.734  0.3721  0.1515 -0.3087
  775MOL0     C 6849   8.505   9.287   9.668  0.0424 -0.6373  0.2366
  775MOL0     C 6850   8.640   9.248   9.742  0.2074 -0.1571  0.3755
  775MOL0     C 6851   8.649   9.098   9.737  0.9224  0.1951  0.2877
  775MOL0     C 6852   8.788   9.063   9.801 -0.2449  0.0941  1.3777
  775MOL0     C 6853   8.812   8.907   9.817  1.1487 -0.8911 -0.2835
  775MOL0     C 6854   8.961   8.879   9.837 -0.2207  0.0531 -0.5586
  775MOL0     C 6855   8.995   8.752   9.906  0.4236  0.4905 -0.1564
  775MOL0     C 6856   8.937   8.632   9.836  0.4607 -0.5409 -0.0331
  775MOL0    Cl 6857   8.989   8.627   9.671 -0.0628  0.3726 -0.3386
  775MOL0     C 6858   8.253   9.540   9.756  0.2777  0.3441  0.0376
  775MOL0     C 6859   8.145   9.603   9.701 -0.6341 -0.7100  0.0154
  775MOL0     O 6860   7.851   9.490   9.624  1.0606  0.2803  0.4354
  775MOL0     C 6861   7.734   9.719   9.402 -0.2341  0.2472  1.0100
  775MOL0     C 6862   7.636   9.804   9.365  0.3468 -0.1449  0.0285
  775MOL0     N 6863   6.975  10.289   9.159 -0.2350 -0.4879  0.1548
  775MOL0     N 6864   6.893  10.335   9.248 -0.8044  0.5425  0.1611
  775MOL0     C 6865   5.854   9.740   9.422 -0.1566  0.0487  0.0836
  775MOL0     C 6866   5.715   9.721   9.395 -0.2141  1.1251  0.3973
  775MOL0     C 6867   5.286   9.792   9.265  0.4545 -0.2730  0.6000
  775MOL0     C 6868   5.284   9.748   9.126  1.1516 -0.4891  0.0541
  775MOL0     C 6869   5.163   9.727   9.062  0.8287 -0.5950  0.3756
  775MOL0     C 6870   5.034   9.750   9.124  0.2084  0.0593 -0.1891
  775MOL0     O 6871   4.917   9.717   9.069  0.5472 -0.1273  0.0183
  775MOL0     C 6872   4.888   9.702   8.930 -0.4497  0.0020  0.5056
  775MOL0     C 6873   4.736   9.730   8.899  0.8128  0.0156 -0.4822
  775MOL0     C 6874   4.656   9.611   8.929  1.0322 -0.2304  0.4104
  775MOL0     C 6875   4.512   9.642   8.911  0.0637  0.3658  0.2320
  775MOL0     C 6876   4.433   9.519   8.920  0.5494 -0.1948 -0.1363
  775MOL0     C 6877   4.377   9.413   8.914  0.4282 -0.1974  0.7026
  775MOL0     C 6878   5.035   9.795   9.253 -0.4907 -0.2377 -0.3021
  775MOL0     C 6879   5.157   9.816   9.329  1.2678  0.5214  0.5723
  775MOL0     C 6880   5.133   9.859   9.469 -0.4469  0.0206  0.9829
  775MOL0     H 6881   5.665   9.959   9.164  0.0790  0.0607  0.6817
  775MOL0     H 6882   5.897   9.989   9.204 -1.8100  1.4076  0.8416
  775MOL0     H 6883   6.155   9.701   9.399 -0.0452  0.3825  0.2776
  775MOL0     H 6884   6.109   9.771   9.553 -0.6034  1.4662  0.7799
  775MOL0     H 6885   6.354   9.758   9.482  1.0454  0.2803 -0.4021
  775MOL0     H 6886   6.313   9.878   9.356 -3.3647  1.9214  0.1824
  775MOL0     H 6887   6.232  10.039   9.512 -0.3374  0.1246  2.3223
  775MOL0     H 6888   6.254   9.943   9.647 -5.1378  0.4638 -1.0081
  775MOL0     H 6889   6.495   9.945   9.634  0.0062 -0.0440  0.1718
  775MOL0     H 6890   6.485   9.982   9.460 -2.4544  2.2030 -2.7268
  775MOL0     H 6891   6.427  10.150   9.707 -0.1443 -0.6577 -0.5079
  775MOL0     H 6892   6.414  10.209   9.534 -0.1836  3.3389  2.0936
  775MOL0     H 6893   6.623  10.294   9.631 -3.5386 -0.1830 -1.7526
  775MOL0     H 6894   6.671  10.126   9.670  1.5008 -0.5613 -1.6973
  775MOL0     H 6895   6.627  10.182   9.381  3.2866  0.5343 -1.3102
  775MOL0     H 6896   6.724  10.066   9.477 -2.1210 -1.0789 -0.3865
  775MOL0     H 6897   6.780  10.364   9.467  0.2285 -0.3328 -0.7048
  775MOL0     H 6898   6.883  10.235   9.533 -1.9904 -1.0600  2.1281
  775MOL0     H 6899   6.928  10.017   9.333  0.6405 -0.7025 -1.7152
  775MOL0     H 6900   7.145  10.163   9.038 -0.2746  0.7444  0.6220
  775MOL0     H 6901   7.023  10.040   9.020  2.8240 -0.6226 -0.9491
  775MOL0     H 6902   7.122   9.896   9.190  2.8941 -2.1979  1.0289
  775MOL0     H 6903   7.246   9.934   9.080 -0.3153 -1.1337  0.4297
  775MOL0     H 6904   7.344  10.104   9.218 -2.1863  0.3315 -1.4920
  775MOL0     H 6905   7.216  10.089   9.335 -0.1934  0.5932 -0.4349
  775MOL0     H 6906   7.274   9.846   9.377 -0.4917  0.6837  0.9060
  775MOL0     H 6907   7.393   9.859   9.241 -2.0672  2.0157 -2.3282
  775MOL0     H 6908   7.477   9.816   9.657 -0.4573 -2.0087  0.5725
  775MOL0     H 6909   7.605   9.752   9.824 -0.1559 -0.9063  1.6773
  775MOL0     H 6910   7.775   9.715   9.808 -1.2306  2.2236  0.3123
  775MOL0     H 6911   7.649   9.591   9.805 -0.5477  0.5090  0.7535
  775MOL0     H 6912   8.151   9.459   9.392 -1.3958 -0.2689  0.8531
  775MOL0     H 6913   8.361   9.394   9.466  0.5532  3.5146 -1.1172
  775MOL0     H 6914   8.433   9.205   9.670 -1.5483  0.6294 -1.4898
  775MOL0     H 6915   8.523   9.311   9.563  1.7925 -1.3230  0.3614
  775MOL0     H 6916   8.713   9.307   9.685  0.6992 -0.7510  0.3867
  775MOL0     H 6917   8.639   9.276   9.848 -3.6771 -0.2976  0.5206
  775MOL0     H 6918   8.652   9.058   9.636 -2.0467 -0.0073  0.1872
  775MOL0     H 6919   8.565   9.049   9.787  0.9054  1.0452  1.1282
  775MOL0     H 6920   8.797   9.112   9.899 -0.4900 -1.4731  2.2244
  775MOL0     H 6921   8.875   9.095   9.743  0.8344 -1.2229  2.1850
  775MOL0     H 6922   8.752   8.874   9.902  0.9050  1.2272  0.4358
  775MOL0     H 6923   8.782   8.857   9.725  1.2513 -1.1489 -0.1772
  775MOL0     H 6924   9.008   8.961   9.893 -0.5724  2.0500 -2.9886
  775MOL0     H 6925   9.007   8.872   9.738  1.5533 -1.0553  0.2831
  775MOL0     H 6926   8.951   8.745  10.006  0.2288 -2.4273 -0.3724
  775MOL0     H 6927   9.103   8.739   9.912  0.2705 -0.6643  0.5738
  775MOL0     H 6928   8.828   8.637   9.846  0.6782  0.1488  3.2604
  775MOL0     H 6929   8.967   8.538   9.883  1.6999  0.5613  1.5209
  775MOL0     H 6930   8.283   9.558   9.859  2.5787 -2.8022  0.0678
  775MOL0     H 6931   8.087   9.669   9.764  0.1377  0.1403 -0.1564
  775MOL0     H 6932   7.799   9.684   9.322 -2.3067  1.9765 -1.5948
  775MOL0     H 6933   7.625   9.833   9.261 -1.6852 -1.7745 -0.2836
  775MOL0     H 6934   5.890   9.669   9.495 -2.9959 -1.0929  0.4817
  775MOL0     H 6935   5.669   9.638   9.448 -0.4140  1.4782  0.7855
  775MOL0     H 6936   5.382   9.729   9.082  1.1784 -0.8724  0.2774
  775MOL0     H 6937   5.153   9.680   8.965 -2.7921  1.9170 -0.6644
  775MOL0     H 6938   4.944   9.769   8.864 -2.0602 -1.0211 -2.0955
  775MOL0     H 6939   4.915   9.601   8.898  0.4071  1.1918 -2.9235
  775MOL0     H 6940   4.726   9.750   8.792 -0.8543  0.8444 -0.1973
  775MOL0     H 6941   4.716   9.816   8.963 -0.0630 -0.2853 -0.3393
  775MOL0     H 6942   4.677   9.522   8.869  1.4885  0.3537 -0.2975
  775MOL0     H 6943   4.676   9.588   9.034  0.2421  0.8982  0.8267
  775MOL0     H 6944   4.509   9.681   8.809  0.7948 -2.7864 -1.0987
  775MOL0     H 6945   4.465   9.709   8.984  0.1064 -1.8549  2.4422
  775MOL0     H 6946   4.321   9.322   8.906  1.1670 -0.7681  1.8297
  775MOL0     H 6947   4.938   9.805   9.300 -0.7914 -2.6880 -0.2853
  775MOL0     H 6948   5.025   9.868   9.484 -0.8775  1.3067 -2.1599
  775MOL0     H 6949   5.180   9.782   9.530  3.0327 -0.8990 -2.4708
  775MOL0     H 6950   5.182   9.956   9.484  0.4279 -0.2037 -0.2759
  776MOL0     O 6951   6.177   1.036   2.154  0.5048  0.4493  0.0887
  776MOL0     C 6952   6.148   1.156   2.144 -0.1177  0.1375 -0.0249
  776MOL0     O 6953   6.236   1.254   2.132 -0.5455  0.2758  0.3063
  776MOL0     C 6954   6.369   1.230   2.108 -0.4928 -0.7941 -0.2913
  776MOL0     C 6955   6.463   1.157   2.184 -0.0327 -0.1783  0.6627
  776MOL0     C 6956   6.599   1.140   2.152 -0.6342 -1.2085 -0.0905
  776MOL0     C 6957   6.650   1.203   2.033 -0.7499  0.4142  0.6194
  776MOL0     O 6958   6.778   1.211   1.992 -0.3012  0.7377 -0.1359
  776MOL0     C 6959   6.863   1.096   2.026 -0.1216 -0.3537 -0.3779
  776MOL0     C 6960   7.011   1.128   1.974 -0.8585 -0.0243 -0.3564
  776MOL0     C 6961   7.070   1.268   2.016  0.9371  0.4260 -0.0688
  776MOL0     C 6962   7.220   1.272   2.053 -0.7818 -0.5655  0.2451
  776MOL0     C 6963   7.276   1.423   2.029  0.5862  0.3928  0.5252
  776MOL0     C 6964   7.288   1.469   1.881  0.6349 -0.7420 -0.4342
  776MOL0     C 6965   7.340   1.369   1.776 -0.3184  0.2525  0.2717
  776MOL0     C 6966   7.497   1.379   1.768 -0.5064 -0.6003  0.0768
  776MOL0     N 6967   7.553   1.275   1.682  0.8077  0.5229  1.1987
  776MOL0     C 6968   7.500   1.150   1.647 -0.9886  0.3415 -0.0493
  776MOL0     C 6969   7.587   1.096   1.555  0.3977  0.5633 -0.3383
  776MOL0     C 6970   7.597   0.961   1.487  0.2131 -0.7641 -0.4306
  776MOL0     C 6971   7.704   0.871   1.543 -0.0436 -0.0494  0.4710
  776MOL0     C 6972   7.745   0.750   1.457  0.1089 -0.3143  0.2465
  776MOL0     C 6973   7.636   0.684   1.391  0.9964 -0.5350 -0.7854
  776MOL0     O 6974   7.544   0.620   1.483  0.0561 -0.1085 -0.2300
  776MOL0     C 6975   7.417   0.574   1.451  0.1809  0.1832 -0.3083
  776MOL0     C 6976   7.370   0.567   1.322  0.3649 -1.0042 -0.1724
  776MOL0     C 6977   7.237   0.524   1.299  0.2430 -0.0845 -0.1080
  776MOL0     C 6978   7.176   0.550   1.160  0.7653  0.3640  0.0958
  776MOL0     C 6979   7.163   0.461   1.404  0.5764 -0.0937  0.1026
  776MOL0     C 6980   7.027   0.392   1.382  0.3613  0.2113  0.5585
  776MOL0     O 6981   6.970   0.338   1.498 -0.0228  0.1643  0.1479
  776MOL0     C 6982   6.873   0.240   1.489 -0.1197 -0.6576 -0.9109
  776MOL0     C 6983   6.777   0.239   1.590 -0.7616 -0.2894  0.1536
  776MOL0     C 6984   6.687   0.140   1.600  0.4373  0.4089 -0.0198
  776MOL0     C 6985   6.672   0.050   1.492  0.5378 -0.4142  0.0694
  776MOL0     O 6986   6.586  -0.052   1.484  0.8109 -0.3202 -0.0447
  776MOL0     C 6987   6.494  -0.075   1.593  0.2823 -0.3787 -0.1443
  776MOL0     C 6988   6.376   0.031   1.605  0.5856  0.3022  0.2819
  776MOL0     C 6989   6.295  -0.020   1.717 -0.3753 -0.8364 -0.7425
  776MOL0     C 6990   6.167   0.065   1.741 -0.7047 -0.1208  0.2903
  776MOL0     C 6991   6.076  -0.007   1.846  0.1802 -0.9435  0.4983
  776MOL0     C 6992   5.935   0.046   1.861  0.0799 -0.6748  0.7076
  776MOL0     C 6993   5.845   0.040   1.739 -0.4967 -0.3709  0.1434
  776MOL0     C 6994   5.705   0.107   1.770 -1.4879 -0.2812  0.3173
  776MOL0    Cl 6995   5.598   0.023   1.885  0.5978  0.2666 -0.4489
  776MOL0     C 6996   6.769   0.051   1.387  0.0444 -0.0557  0.4129
  776MOL0     C 6997   6.867   0.144   1.392 -0.0094 -0.1479 -0.1139
  776MOL0     O 6998   6.981   0.375   1.270  0.0320 -0.0633  0.3858
  776MOL0     C 6999   7.216   0.469   1.532  1.3819  0.3993  1.3290
  776MOL0     C 7000   7.339   0.524   1.557  0.0596 -0.4005  0.6335
  776MOL0     N 7001   7.675   1.199   1.525 -0.3601  0.1006  0.6603
  776MOL0     N 7002   7.657   1.304   1.593  0.5454  0.3615 -0.0546
  776MOL0     C 7003   6.555   1.285   1.951 -0.4771 -0.6295  0.2345
  776MOL0     C 7004   6.422   1.304   1.990  0.3622  0.0946  0.0517
  776MOL0     C 7005   5.999   1.184   2.150 -0.5105 -0.1677 -0.4825
  776MOL0     C 7006   5.905   1.084   2.130 -0.0951 -0.4929 -0.6433
  776MOL0     C 7007   5.765   1.101   2.131 -0.9526  0.4877 -0.1390
  776MOL0     C 7008   5.718   1.231   2.160  0.5283  0.1989 -0.1953
  776MOL0     O 7009   5.584   1.268   2.134 -0.1106  1.0470 -0.1617
  776MOL0     C 7010   5.485   1.172   2.165  0.2375 -0.0815 -0.8917
  776MOL0     C 7011   5.342   1.217   2.159  0.5264 -0.2984  0.0150
  776MOL0     C 7012   5.319   1.329   2.259 -0.7759 -0.7518  0.6966
  776MOL0     C 7013   5.184   1.402   2.237 -0.4212  0.0357 -0.0384
  776MOL0     C 7014   5.180   1.531   2.299  0.5363 -0.0906  0.7961
  776MOL0     C 7015   5.181   1.642   2.347  0.6151 -0.8165  0.1259
  776MOL0     C 7016   5.807   1.333   2.194 -0.5274 -0.0392 -0.2208
  776MOL0     C 7017   5.949   1.308   2.203 -0.0188 -0.0187  0.5952
  776MOL0     C 7018   6.033   1.413   2.261  0.2498 -0.0898 -0.1951
  776MOL0     H 7019   6.430   1.106   2.274 -0.9470  0.4887  0.7209
  776MOL0     H 7020   6.661   1.096   2.228  2.2130  0.6060 -1.1744
  776MOL0     H 7021   6.832   1.000   1.984 -2.7754  0.0254  0.4881
  776MOL0     H 7022   6.874   1.089   2.135  3.0608 -1.7414 -0.6871
  776MOL0     H 7023   7.072   1.049   2.019 -0.9101  1.1196  1.8957
  776MOL0     H 7024   7.019   1.119   1.866  1.3390  1.3027 -0.3572
  776MOL0     H 7025   7.049   1.343   1.939  0.5610  0.8000  0.3825
  776MOL0     H 7026   7.016   1.292   2.108  0.2690 -0.5558 -0.1883
  776MOL0     H 7027   7.226   1.246   2.159 -3.6349  0.1416  0.6762
  776MOL0     H 7028   7.280   1.203   1.994  1.0700  1.7932 -0.7852
  776MOL0     H 7029   7.380   1.428   2.063  1.8940  2.4067 -3.1424
  776MOL0     H 7030   7.212   1.485   2.093 -1.3827 -1.3290  0.3178
  776MOL0     H 7031   7.192   1.510   1.849 -0.6185 -2.7789  0.5064
  776MOL0     H 7032   7.359   1.552   1.885 -1.2139  0.8824  0.1980
  776MOL0     H 7033   7.313   1.396   1.674 -0.1622  2.9343  0.8523
  776MOL0     H 7034   7.314   1.266   1.801 -1.7195 -0.3994 -3.2336
  776MOL0     H 7035   7.524   1.474   1.722 -0.0843 -0.4119  0.7033
  776MOL0     H 7036   7.543   1.374   1.867 -0.6522  1.6553  0.2971
  776MOL0     H 7037   7.421   1.104   1.705 -0.2548  0.1308  0.7982
  776MOL0     H 7038   7.614   0.984   1.382  3.4390  1.9918  0.5382
  776MOL0     H 7039   7.500   0.913   1.506 -0.2953  0.0915 -0.8478
  776MOL0     H 7040   7.797   0.928   1.554  1.4724 -2.2876 -0.0106
  776MOL0     H 7041   7.681   0.847   1.648  0.3962 -0.8116  0.4024
  776MOL0     H 7042   7.814   0.784   1.379 -2.7619  2.1878 -1.4572
  776MOL0     H 7043   7.795   0.674   1.517  2.5803  2.5193  2.0303
  776MOL0     H 7044   7.569   0.751   1.335 -0.6354  0.4383  2.1293
  776MOL0     H 7045   7.669   0.606   1.321  1.2491 -0.0183 -1.2569
  776MOL0     H 7046   7.441   0.606   1.250  0.0488  1.3409  0.6904
  776MOL0     H 7047   7.245   0.604   1.094  1.7019 -0.1758  0.6100
  776MOL0     H 7048   7.083   0.607   1.167  3.1068  4.7177 -0.7433
  776MOL0     H 7049   7.159   0.461   1.099  2.6985  1.0966 -1.6658
  776MOL0     H 7050   6.790   0.307   1.674  1.5824  1.3103 -1.3786
  776MOL0     H 7051   6.622   0.120   1.684  0.8606 -4.6480 -0.5471
  776MOL0     H 7052   6.446  -0.167   1.558  3.1794 -1.8330 -0.6212
  776MOL0     H 7053   6.539  -0.092   1.691  0.6042 -0.2204 -0.2617
  776MOL0     H 7054   6.418   0.128   1.632  5.9358 -0.8002 -2.4885
  776MOL0     H 7055   6.316   0.039   1.514  0.1239 -1.3865  0.3989
  776MOL0     H 7056   6.362  -0.028   1.803 -1.1558  0.3484 -0.0059
  776MOL0     H 7057   6.262  -0.121   1.689 -2.4500 -0.6408  0.7588
  776MOL0     H 7058   6.114   0.081   1.646 -0.5174 -0.3941  0.1389
  776MOL0     H 7059   6.197   0.166   1.772  0.1346 -0.0906 -0.5727
  776MOL0     H 7060   6.073  -0.114   1.826 -0.4033 -0.6568 -1.0989
  776MOL0     H 7061   6.132  -0.002   1.940  1.0232  0.2214 -0.0404
  776MOL0     H 7062   5.948   0.153   1.878 -1.9355 -0.3949  0.7707
  776MOL0     H 7063   5.877   0.004   1.943 -0.3475  2.5503  2.2157
  776MOL0     H 7064   5.838  -0.065   1.708 -0.8512 -0.9015  1.9062
  776MOL0     H 7065   5.890   0.094   1.655 -2.6953  0.0397 -0.8245
  776MOL0     H 7066   5.646   0.119   1.679 -2.3756 -1.2735  0.7444
  776MOL0     H 7067   5.728   0.208   1.804  2.4145 -1.3707  1.4305
  776MOL0     H 7068   6.766  -0.018   1.303  0.3574  1.4912 -0.8966
  776MOL0     H 7069   6.944   0.136   1.316 -1.9545  1.1854 -2.3217
  776MOL0     H 7070   7.160   0.433   1.618 -1.3712  1.2453  0.0337
  776MOL0     H 7071   7.378   0.515   1.658  0.5749 -0.5433  0.4260
  776MOL0     H 7072   6.596   1.333   1.863  2.0848  0.1275  1.7248
  776MOL0     H 7073   6.355   1.361   1.927  1.4845  1.4957  0.0746
  776MOL0     H 7074   5.932   0.982   2.107  0.3655 -0.3284 -0.8617
  776MOL0     H 7075   5.701   1.024   2.089 -0.6605  0.5031 -0.6235
  776MOL0     H 7076   5.497   1.086   2.098  1.2154 -1.5901  1.1001
  776MOL0     H 7077   5.506   1.143   2.268 -2.0293  2.8588  0.5747
  776MOL0     H 7078   5.276   1.138   2.195  0.8612 -1.3015 -1.4809
  776MOL0     H 7079   5.311   1.252   2.060 -0.6794 -0.5331  0.2938
  776MOL0     H 7080   5.332   1.286   2.358  1.9917 -1.5460  0.0731
  776MOL0     H 7081   5.400   1.398   2.234 -3.4177  2.0124 -1.0665
  776MOL0     H 7082   5.104   1.340   2.280 -0.8357 -1.4571 -2.7029
  776MOL0     H 7083   5.156   1.407   2.132 -1.2586  1.4139  0.2264
  776MOL0     H 7084   5.177   1.748   2.363  0.2183 -0.7884 -0.1475
  776MOL0     H 7085   5.753   1.425   2.213 -2.0882 -0.6849 -1.3156
  776MOL0     H 7086   5.966   1.489   2.302  0.8035  1.4761 -2.0315
  776MOL0     H 7087   6.097   1.372   2.339  1.7817  0.2209 -1.2199
  776MOL0     H 7088   6.094   1.465   2.186  1.8182  1.3786  1.9608
  777MOL0     O 7089   9.950   7.196   1.882  0.2070  0.2223 -0.1742
  777MOL0     C 7090  10.031   7.177   1.782  0.0243 -0.5231 -0.5850
  777MOL0     O 7091  10.053   7.265   1.675 -0.0339  0.1488  0.2684
  777MOL0     C 7092   9.966   7.369   1.635  0.9567  0.6297 -1.4495
  777MOL0     C 7093  10.019   7.485   1.583 -0.4744  1.1528  0.2596
  777MOL0     C 7094   9.948   7.597   1.564 -0.2038 -0.0835  0.8996
  777MOL0     C 7095   9.815   7.594   1.607  0.2251  0.0201 -1.0348
  777MOL0     O 7096   9.735   7.709   1.621  0.1263  0.4280 -0.1166
  777MOL0     C 7097   9.796   7.839   1.589  0.3787 -1.0552  0.8183
  777MOL0     C 7098   9.694   7.942   1.634 -0.3321 -0.0650  0.4063
  777MOL0     C 7099   9.698   8.079   1.562 -0.2221 -0.1622  0.4933
  777MOL0     C 7100   9.833   8.144   1.592 -0.5631 -0.6818  0.1883
  777MOL0     C 7101   9.851   8.264   1.494  0.3556  1.0777 -0.0495
  777MOL0     C 7102   9.968   8.359   1.508  0.3526  0.6742 -0.1779
  777MOL0     C 7103  10.099   8.284   1.522 -0.4723  1.4754 -0.5044
  777MOL0     C 7104  10.222   8.378   1.508  0.1737 -0.1201  0.0780
  777MOL0     N 7105  10.352   8.317   1.481 -0.2913  0.0938 -0.6597
  777MOL0     C 7106  10.433   8.261   1.571 -0.6417  0.2060 -0.6265
  777MOL0     C 7107  10.526   8.185   1.502 -0.0520 -0.0367 -0.2184
  777MOL0     C 7108  10.632   8.104   1.571  0.5533  0.4138  0.0826
  777MOL0     C 7109  10.735   8.193   1.644 -0.5688  0.1222 -0.9135
  777MOL0     C 7110  10.822   8.293   1.567  0.9223 -0.0996 -0.3389
  777MOL0     C 7111  10.910   8.217   1.468  0.3689 -0.2311 -0.5356
  777MOL0     O 7112  10.986   8.118   1.530  0.0391  0.3237 -0.3885
  777MOL0     C 7113  11.118   8.142   1.563  0.2741  0.2124 -0.7885
  777MOL0     C 7114  11.162   8.269   1.601 -0.2013  0.2535 -0.2949
  777MOL0     C 7115  11.298   8.287   1.631 -0.6245  0.4234 -0.1435
  777MOL0     C 7116  11.335   8.428   1.675 -0.9112 -0.0759  0.8677
  777MOL0     C 7117  11.392   8.179   1.634  0.1321  0.0289  0.3098
  777MOL0     C 7118  11.534   8.198   1.683 -0.3545 -0.3653  0.1969
  777MOL0     O 7119  11.582   8.100   1.760 -0.8342 -0.0305 -0.3947
  777MOL0     C 7120  11.710   8.130   1.799 -0.7613  0.2939 -0.2897
  777MOL0     C 7121  11.760   8.236   1.874  0.3448  0.1457  0.3585
  777MOL0     C 7122  11.895   8.255   1.892  0.2815  0.4400 -0.2668
  777MOL0     C 7123  11.988   8.177   1.834  0.8804 -0.6416 -0.2367
  777MOL0     O 7124  12.121   8.212   1.832 -0.4962  0.0815 -0.2168
  777MOL0     C 7125  12.161   8.351   1.841  0.7663 -0.0096 -1.0050
  777MOL0     C 7126  12.245   8.374   1.964  0.6065 -0.6216  1.0378
  777MOL0     C 7127  12.185   8.317   2.088  0.2843  1.1915 -0.0624
  777MOL0     C 7128  12.266   8.353   2.214  0.5697  0.1117  0.3839
  777MOL0     C 7129  12.191   8.306   2.352 -0.2465 -0.1373  0.4392
  777MOL0     C 7130  12.308   8.290   2.453 -0.1766 -0.2157  0.2747
  777MOL0     C 7131  12.265   8.273   2.595 -0.7986  0.0603 -0.5396
  777MOL0     C 7132  12.227   8.408   2.646 -0.1418  0.1626 -0.7743
  777MOL0    Cl 7133  12.189   8.420   2.827 -0.0205 -0.0575 -0.0732
  777MOL0     C 7134  11.940   8.059   1.776  0.6634  0.6488 -0.6726
  777MOL0     C 7135  11.801   8.031   1.760  0.6228  0.0509  0.7512
  777MOL0     O 7136  11.596   8.303   1.651 -0.2793  0.1634  0.4662
  777MOL0     C 7137  11.345   8.048   1.604 -0.0625 -0.8422 -0.4838
  777MOL0     C 7138  11.208   8.032   1.564 -0.2696  0.3944  0.0319
  777MOL0     N 7139  10.499   8.198   1.371 -1.3801  0.2908 -0.1561
  777MOL0     N 7140  10.397   8.271   1.362  1.0925  0.1170  0.6375
  777MOL0     C 7141   9.759   7.482   1.671  0.1129 -0.4594 -0.2984
  777MOL0     C 7142   9.828   7.367   1.670 -0.1869  1.6763 -0.4414
  777MOL0     C 7143  10.136   7.069   1.789 -0.5322 -0.6789  0.3521
  777MOL0     C 7144  10.267   7.097   1.750  0.1482 -0.4769  0.3995
  777MOL0     C 7145  10.370   7.006   1.750 -0.5685 -0.3918 -0.0046
  777MOL0     C 7146  10.344   6.874   1.777 -0.8677  0.8162  0.0468
  777MOL0     O 7147  10.443   6.777   1.780 -0.9297  0.3072  0.7702
  777MOL0     C 7148  10.415   6.630   1.788  0.9433 -0.3100  0.0995
  777MOL0     C 7149  10.539   6.542   1.782  0.5957 -0.3788 -0.4374
  777MOL0     C 7150  10.631   6.560   1.910  0.5280 -0.2873  0.1960
  777MOL0     C 7151  10.732   6.446   1.913 -0.3657  0.5298  0.6454
  777MOL0     C 7152  10.801   6.447   2.037  1.1666 -0.1596 -0.3125
  777MOL0     C 7153  10.850   6.444   2.146  0.0721 -0.4101  0.0961
  777MOL0     C 7154  10.214   6.838   1.820 -0.5474 -0.1398  0.0886
  777MOL0     C 7155  10.108   6.933   1.821 -0.1993  0.4263  0.6706
  777MOL0     C 7156   9.967   6.879   1.856  1.1159 -1.2407  0.5557
  777MOL0     H 7157  10.123   7.491   1.553  0.4892  1.1877  3.3399
  777MOL0     H 7158   9.987   7.687   1.517 -0.1866 -2.1575 -3.5974
  777MOL0     H 7159   9.820   7.839   1.483  0.5988  1.0251  0.8265
  777MOL0     H 7160   9.885   7.860   1.649  0.0429  0.8320  0.6914
  777MOL0     H 7161   9.591   7.908   1.616 -0.3133  0.2714 -0.4010
  777MOL0     H 7162   9.708   7.950   1.742  0.8568 -0.4372  0.2835
  777MOL0     H 7163   9.676   8.087   1.455  0.5690  1.1779  0.4031
  777MOL0     H 7164   9.615   8.141   1.597  1.1183  1.6595  0.6035
  777MOL0     H 7165   9.838   8.182   1.694 -1.5530 -0.9182  0.3387
  777MOL0     H 7166   9.914   8.072   1.579  0.2440 -0.1818  2.1567
  777MOL0     H 7167   9.759   8.324   1.490 -1.1471 -1.1237 -1.1629
  777MOL0     H 7168   9.858   8.211   1.398 -0.1769 -0.7501  0.8653
  777MOL0     H 7169   9.974   8.426   1.421  1.9241 -1.9827 -2.2530
  777MOL0     H 7170   9.953   8.420   1.598 -0.2134  2.9427 -1.7061
  777MOL0     H 7171  10.115   8.206   1.448 -0.4771 -0.8260  1.7800
  777MOL0     H 7172  10.108   8.225   1.614  2.7784 -4.7760 -4.1629
  777MOL0     H 7173  10.197   8.447   1.427  0.8685 -1.7484 -1.5850
  777MOL0     H 7174  10.235   8.429   1.603 -2.7612 -1.7768  1.5150
  777MOL0     H 7175  10.423   8.267   1.679 -0.6552  0.4742 -0.6439
  777MOL0     H 7176  10.677   8.036   1.498  3.5282  2.3390 -0.0946
  777MOL0     H 7177  10.586   8.036   1.642  1.1803 -1.4567 -1.2272
  777MOL0     H 7178  10.675   8.252   1.715  2.3053  0.8567  1.1041
  777MOL0     H 7179  10.801   8.123   1.695 -1.5057  0.5399  0.9782
  777MOL0     H 7180  10.757   8.362   1.514  2.7759  2.5548  0.6414
  777MOL0     H 7181  10.884   8.352   1.636  0.3443  1.9302 -1.4798
  777MOL0     H 7182  10.853   8.171   1.387  1.7005 -2.8641 -0.0945
  777MOL0     H 7183  10.973   8.289   1.417  1.1759  0.7624  1.7647
  777MOL0     H 7184  11.104   8.360   1.592 -0.6143  0.3409  2.4885
  777MOL0     H 7185  11.385   8.473   1.589 -0.7172 -2.5566 -0.4112
  777MOL0     H 7186  11.403   8.409   1.758  0.1821 -0.6216 -0.1354
  777MOL0     H 7187  11.250   8.488   1.708 -2.3611 -0.8028 -1.3063
  777MOL0     H 7188  11.695   8.314   1.911  2.3141  1.2193  1.7889
  777MOL0     H 7189  11.922   8.344   1.948  3.6145 -0.2607 -0.5889
  777MOL0     H 7190  12.225   8.377   1.757  1.4411 -0.7172 -0.7167
  777MOL0     H 7191  12.076   8.420   1.847  2.0102  1.4829  0.9150
  777MOL0     H 7192  12.348   8.339   1.952 -0.0231 -2.3763  0.4529
  777MOL0     H 7193  12.257   8.482   1.980  3.3555 -0.2745 -2.3878
  777MOL0     H 7194  12.163   8.211   2.073 -1.9899  1.8026 -1.6477
  777MOL0     H 7195  12.088   8.367   2.099  0.1512  1.4057 -1.8688
  777MOL0     H 7196  12.266   8.463   2.216 -2.9428  0.2280  1.1487
  777MOL0     H 7197  12.371   8.323   2.210  0.4049 -0.7157  1.7022
  777MOL0     H 7198  12.112   8.374   2.384 -1.0532  0.4469 -2.4646
  777MOL0     H 7199  12.145   8.211   2.325 -0.5134 -0.4746  2.0370
  777MOL0     H 7200  12.372   8.379   2.448  0.2336 -0.4877  0.5563
  777MOL0     H 7201  12.370   8.204   2.424  0.0372  0.4799 -1.4456
  777MOL0     H 7202  12.344   8.223   2.652 -1.2234  1.0590  0.9847
  777MOL0     H 7203  12.175   8.214   2.611  0.5375 -1.9680 -0.1893
  777MOL0     H 7204  12.135   8.434   2.592 -0.3803  1.5121  0.2349
  777MOL0     H 7205  12.309   8.479   2.630 -2.7365  3.6744  0.0649
  777MOL0     H 7206  12.010   7.990   1.729  0.3403 -0.6874  0.7101
  777MOL0     H 7207  11.776   7.948   1.695  0.9754  0.7539 -0.3172
  777MOL0     H 7208  11.411   7.963   1.617  1.4689  0.3989  0.1907
  777MOL0     H 7209  11.156   7.940   1.538 -1.0992  0.5116  1.1728
  777MOL0     H 7210   9.667   7.494   1.727  0.2235  2.0725 -0.5801
  777MOL0     H 7211   9.781   7.273   1.697 -0.0930  2.0386  1.0677
  777MOL0     H 7212  10.288   7.197   1.714 -0.7201  0.3962  2.1698
  777MOL0     H 7213  10.473   7.028   1.726 -0.2440  1.0705  2.4142
  777MOL0     H 7214  10.377   6.614   1.889  1.9700 -0.5904  0.4530
  777MOL0     H 7215  10.349   6.605   1.704 -1.8502  2.0856  1.3887
  777MOL0     H 7216  10.609   6.560   1.700  0.8912 -2.9876 -0.8463
  777MOL0     H 7217  10.504   6.438   1.786  0.9482 -0.5497 -1.5218
  777MOL0     H 7218  10.681   6.658   1.912 -0.2751  0.1484 -0.4412
  777MOL0     H 7219  10.571   6.564   2.002  1.2610  0.0448  0.6684
  777MOL0     H 7220  10.803   6.451   1.830  1.0257  1.5592  1.8469
  777MOL0     H 7221  10.682   6.349   1.907  1.7449 -0.7787  2.4721
  777MOL0     H 7222  10.908   6.461   2.234  1.0488 -1.6768 -0.2721
  777MOL0     H 7223  10.187   6.738   1.852  1.6949  0.3573  4.1633
  777MOL0     H 7224   9.981   6.770   1.858 -1.3915 -1.6544 -0.6236
  777MOL0     H 7225   9.933   6.919   1.952 -1.3591  0.2916 -0.8772
  777MOL0     H 7226   9.899   6.904   1.774  1.2991  0.3202  0.8572
  778MOL0     O 7227   4.805   5.582   9.750  0.6225 -0.4090 -0.6128
  778MOL0     C 7228   4.864   5.673   9.698 -0.2982  0.3576  0.5527
  778MOL0     O 7229   4.989   5.659   9.634  0.2267 -0.0970 -0.3382
  778MOL0     C 7230   5.075   5.557   9.644 -0.4420 -0.2553  0.6850
  778MOL0     C 7231   5.202   5.578   9.582 -0.4426  0.2764 -0.0500
  778MOL0     C 7232   5.301   5.485   9.589 -0.3399 -0.0212  1.6741
  778MOL0     C 7233   5.277   5.365   9.655 -0.4086  0.1996 -0.1964
  778MOL0     O 7234   5.372   5.262   9.664 -0.0221  0.7334 -0.3121
  778MOL0     C 7235   5.423   5.216   9.538  0.5258  0.4497  0.5548
  778MOL0     C 7236   5.506   5.095   9.562  0.3658 -0.1781 -0.1130
  778MOL0     C 7237   5.652   5.122   9.600  0.1360  0.2377 -0.2475
  778MOL0     C 7238   5.715   5.188   9.472  0.0900  0.1417  0.5037
  778MOL0     C 7239   5.870   5.208   9.472  0.1761 -0.4635  0.0118
  778MOL0     C 7240   5.950   5.080   9.460 -0.2795 -0.3778  1.2725
  778MOL0     C 7241   6.064   5.092   9.355 -0.1770  0.2211  0.2359
  778MOL0     C 7242   6.008   5.102   9.212 -0.1276  0.7224  0.0022
  778MOL0     N 7243   6.111   5.082   9.107  0.0179 -0.1305  0.0931
  778MOL0     C 7244   6.086   5.087   8.976  0.1063  0.4360 -0.2145
  778MOL0     C 7245   6.210   5.080   8.925  0.7658 -0.4022  0.2062
  778MOL0     C 7246   6.231   5.098   8.774 -0.4505  0.6177  0.5199
  778MOL0     C 7247   6.330   5.002   8.718 -0.4193  1.1136 -0.2241
  778MOL0     C 7248   6.387   5.053   8.591 -1.0714 -0.2379 -0.2738
  778MOL0     C 7249   6.503   4.960   8.545  0.0335  0.0019  0.1780
  778MOL0     O 7250   6.555   5.002   8.420  0.9440  0.8851  0.2469
  778MOL0     C 7251   6.657   5.090   8.407 -0.3607 -0.6202  0.2292
  778MOL0     C 7252   6.706   5.102   8.279 -0.7865  0.3711  0.2523
  778MOL0     C 7253   6.820   5.180   8.242  0.4064 -0.0428  0.3980
  778MOL0     C 7254   6.868   5.167   8.098  0.2363 -0.4114  0.4499
  778MOL0     C 7255   6.887   5.252   8.342  0.5346 -0.3220 -0.0402
  778MOL0     C 7256   7.017   5.331   8.308  0.2024  0.2128 -0.2745
  778MOL0     O 7257   7.030   5.401   8.195  0.2965 -0.0651 -0.0815
  778MOL0     C 7258   7.133   5.478   8.159  0.0905  0.4185  0.3831
  778MOL0     C 7259   7.115   5.607   8.116 -0.6888 -0.2191  0.2768
  778MOL0     C 7260   7.227   5.699   8.084 -0.6521  0.2414 -0.1420
  778MOL0     C 7261   7.358   5.659   8.116 -0.5199  1.0145  0.2631
  778MOL0     O 7262   7.467   5.748   8.106 -0.8388  1.0815 -0.1808
  778MOL0     C 7263   7.562   5.705   8.011 -0.5874  0.4595 -0.2974
  778MOL0     C 7264   7.522   5.756   7.873 -1.0743  0.2152 -0.3996
  778MOL0     C 7265   7.653   5.798   7.802  1.1674 -0.7935 -0.3476
  778MOL0     C 7266   7.686   5.944   7.808  0.4443 -0.0738 -0.0794
  778MOL0     C 7267   7.803   5.981   7.709 -0.3651  0.2677  0.2657
  778MOL0     C 7268   7.931   5.902   7.764 -0.0387 -0.4691  0.6112
  778MOL0     C 7269   8.060   5.939   7.682  0.5247  0.0795  0.4320
  778MOL0     C 7270   8.174   5.854   7.729 -0.0824  0.2967  0.5242
  778MOL0    Cl 7271   8.314   5.969   7.690  0.6954 -0.1673 -0.1962
  778MOL0     C 7272   7.367   5.527   8.168 -1.0129 -0.4182  0.1280
  778MOL0     C 7273   7.258   5.443   8.188 -0.2411  0.6263  0.6285
  778MOL0     O 7274   7.105   5.321   8.397 -0.9023  0.2939  0.1968
  778MOL0     C 7275   6.838   5.238   8.474  0.1997  0.0043 -0.6626
  778MOL0     C 7276   6.726   5.161   8.506 -0.0931 -0.4897 -0.3270
  778MOL0     N 7277   6.308   5.067   9.024  0.2304 -0.3799  0.1831
  778MOL0     N 7278   6.243   5.079   9.131 -0.7408 -0.3339 -0.1935
  778MOL0     C 7279   5.146   5.334   9.703 -0.4342  0.2989 -0.0511
  778MOL0     C 7280   5.044   5.427   9.689 -0.6049  0.0666 -0.4597
  778MOL0     C 7281   4.802   5.798   9.681 -0.1203  0.1964  0.7260
  778MOL0     C 7282   4.665   5.792   9.654  0.7848 -0.9028  0.8965
  778MOL0     C 7283   4.594   5.911   9.631 -0.3702 -0.1510 -0.0978
  778MOL0     C 7284   4.645   6.037   9.638 -0.6518 -0.3574  0.2955
  778MOL0     O 7285   4.559   6.144   9.624 -0.7571  0.4579 -0.2014
  778MOL0     C 7286   4.614   6.278   9.658 -0.6667  0.0442 -0.6301
  778MOL0     C 7287   4.508   6.391   9.648 -0.7274  0.2232 -0.2124
  778MOL0     C 7288   4.383   6.388   9.737 -0.3831  0.4856  0.3249
  778MOL0     C 7289   4.408   6.408   9.885 -0.2151 -0.4997 -0.1576
  778MOL0     C 7290   4.417   6.272   9.944  0.1532  1.2014  0.4371
  778MOL0     C 7291   4.440   6.156   9.985  0.5880 -1.0227  0.4695
  778MOL0     C 7292   4.784   6.043   9.651  0.6153  0.0105 -0.0267
  778MOL0     C 7293   4.866   5.926   9.678  0.0571 -0.3129 -0.0366
  778MOL0     C 7294   5.007   5.944   9.705 -0.0851  0.2897  0.2171
  778MOL0     H 7295   5.215   5.664   9.516  0.6343  0.7887  0.8008
  778MOL0     H 7296   5.391   5.502   9.531 -0.6419  0.0590  1.2255
  778MOL0     H 7297   5.462   5.302   9.483 -1.2423  1.1721  0.3376
  778MOL0     H 7298   5.333   5.179   9.486  1.5204 -2.4838  0.7211
  778MOL0     H 7299   5.459   5.043   9.646 -1.0312  3.1981  1.3690
  778MOL0     H 7300   5.511   5.027   9.476  2.5971 -0.0442 -0.1488
  778MOL0     H 7301   5.659   5.196   9.680  0.7545 -1.1679  1.0553
  778MOL0     H 7302   5.690   5.023   9.627  1.4578 -0.2201 -3.3104
  778MOL0     H 7303   5.697   5.130   9.381 -1.0982 -0.8382  1.3421
  778MOL0     H 7304   5.672   5.287   9.457  3.0265  1.2303 -1.7235
  778MOL0     H 7305   5.896   5.256   9.567  2.7005 -0.7909 -0.4397
  778MOL0     H 7306   5.891   5.274   9.387 -0.4502 -0.7510 -0.3705
  778MOL0     H 7307   6.001   5.050   9.551  1.9207 -4.2672 -0.9906
  778MOL0     H 7308   5.884   4.995   9.442  0.9759 -1.1883  0.3469
  778MOL0     H 7309   6.124   5.001   9.355 -3.5474 -2.2681 -1.9761
  778MOL0     H 7310   6.120   5.184   9.373 -2.0740  1.5385 -0.2488
  778MOL0     H 7311   5.936   5.021   9.199  1.1833 -0.6233  0.8194
  778MOL0     H 7312   5.949   5.194   9.201 -2.1083 -0.7351 -2.7261
  778MOL0     H 7313   5.991   5.092   8.923  1.6199 -0.8294 -3.3313
  778MOL0     H 7314   6.264   5.201   8.755 -0.3617  0.3991 -0.5703
  778MOL0     H 7315   6.137   5.089   8.719  0.3736 -0.1049 -0.8209
  778MOL0     H 7316   6.411   4.988   8.791 -1.7891  0.6516  1.2892
  778MOL0     H 7317   6.271   4.910   8.708  0.5595  0.4847 -0.3910
  778MOL0     H 7318   6.308   5.060   8.516  1.2028  3.4221 -2.6733
  778MOL0     H 7319   6.420   5.156   8.608 -3.0058  0.2610  0.6722
  778MOL0     H 7320   6.580   4.953   8.623  0.4278 -2.8257 -0.3779
  778MOL0     H 7321   6.464   4.859   8.532 -0.6816 -0.3084  3.6181
  778MOL0     H 7322   6.664   5.041   8.200 -0.9340  0.1637  0.4910
  778MOL0     H 7323   6.821   5.081   8.051 -2.2023 -0.8325  3.3429
  778MOL0     H 7324   6.973   5.151   8.074 -0.4460 -2.3872 -1.5286
  778MOL0     H 7325   6.838   5.259   8.046  0.4172  0.0860  1.2031
  778MOL0     H 7326   7.015   5.642   8.090 -0.4343 -0.3330 -0.9027
  778MOL0     H 7327   7.210   5.800   8.047  1.8579  0.4815 -0.8853
  778MOL0     H 7328   7.657   5.746   8.048 -1.8283  0.6456  3.0637
  778MOL0     H 7329   7.586   5.599   8.001 -0.0523  0.6661 -1.3010
  778MOL0     H 7330   7.481   5.686   7.800  0.2876 -0.3416 -0.6653
  778MOL0     H 7331   7.454   5.842   7.872 -3.0693 -1.2957 -2.1282
  778MOL0     H 7332   7.650   5.765   7.698  0.9406  2.0666 -1.3217
  778MOL0     H 7333   7.731   5.738   7.850  0.6637 -0.6425  0.6873
  778MOL0     H 7334   7.696   5.980   7.911  0.2449 -0.4435  0.0698
  778MOL0     H 7335   7.597   5.994   7.768 -0.1057  0.5194  1.7845
  778MOL0     H 7336   7.781   5.957   7.605 -0.6078  4.9350 -0.9365
  778MOL0     H 7337   7.815   6.089   7.720  0.2324  0.2135  0.1304
  778MOL0     H 7338   7.917   5.794   7.750 -2.2827 -0.1309 -0.1405
  778MOL0     H 7339   7.952   5.922   7.869  1.4640 -1.8829  0.6160
  778MOL0     H 7340   8.088   6.044   7.696 -1.2367  0.4656  1.3385
  778MOL0     H 7341   8.027   5.921   7.579 -0.0147  2.3905  0.1440
  778MOL0     H 7342   8.185   5.767   7.664 -0.1778  0.2312  0.5966
  778MOL0     H 7343   8.181   5.836   7.837 -0.2290  1.6410  0.7855
  778MOL0     H 7344   7.464   5.479   8.173 -0.4378  0.8186  3.9353
  778MOL0     H 7345   7.263   5.338   8.215  0.0076 -0.9491 -4.5182
  778MOL0     H 7346   6.902   5.273   8.555 -0.5631 -1.0455  0.4399
  778MOL0     H 7347   6.696   5.145   8.609  0.4653  0.9747  0.0870
  778MOL0     H 7348   5.116   5.240   9.747  1.4303  0.5395  1.8790
  778MOL0     H 7349   4.946   5.401   9.727  0.0838 -1.2589  0.4659
  778MOL0     H 7350   4.605   5.703   9.638 -2.7350  1.5183 -0.4262
  778MOL0     H 7351   4.498   5.903   9.583 -0.7090  2.9914 -0.1788
  778MOL0     H 7352   4.653   6.277   9.760 -3.2503 -2.3532  0.4748
  778MOL0     H 7353   4.691   6.302   9.584 -0.7318  0.9158 -0.4218
  778MOL0     H 7354   4.480   6.387   9.542  0.4339 -1.9949 -0.4963
  778MOL0     H 7355   4.564   6.483   9.665 -1.1015  0.6085 -1.0104
  778MOL0     H 7356   4.311   6.463   9.703 -0.3612  1.1536  1.6840
  778MOL0     H 7357   4.335   6.290   9.724 -0.6840  0.4703  1.4444
  778MOL0     H 7358   4.320   6.461   9.922  0.5286  0.1835  0.6625
  778MOL0     H 7359   4.497   6.467   9.908  0.3604 -0.4586 -2.2991
  778MOL0     H 7360   4.484   6.064  10.018  1.6447 -0.8014 -0.2881
  778MOL0     H 7361   4.833   6.140   9.656 -3.0486  1.9843  1.7832
  778MOL0     H 7362   5.054   5.987   9.617 -0.2283 -1.4203 -0.7319
  778MOL0     H 7363   5.015   6.028   9.775  2.6391  0.1438  0.1780
  778MOL0     H 7364   5.055   5.852   9.740  1.5974 -0.1865 -3.0451
  779MOL0     O 7365   2.223   9.544   5.166  0.4302  0.1895 -0.6562
  779MOL0     C 7366   2.175   9.634   5.091  0.1228 -0.7238  0.1972
  779MOL0     O 7367   2.244   9.732   5.023  0.5177 -0.0327  0.1578
  779MOL0     C 7368   2.377   9.730   5.027 -0.6872  0.4599 -0.6535
  779MOL0     C 7369   2.455   9.702   4.913  0.4800  0.0054 -0.7744
  779MOL0     C 7370   2.598   9.723   4.911  0.2925  1.1609  0.0675
  779MOL0     C 7371   2.661   9.772   5.026 -0.1518 -0.0952  0.5108
  779MOL0     O 7372   2.791   9.794   5.014 -0.7332 -0.5897  0.6673
  779MOL0     C 7373   2.851   9.864   5.129 -0.6555 -0.2852 -0.2074
  779MOL0     C 7374   2.994   9.852   5.112 -0.3228  0.0020 -0.0661
  779MOL0     C 7375   3.074   9.939   5.205  0.5627  0.0534 -1.0715
  779MOL0     C 7376   3.220   9.945   5.160  0.3911 -0.6580 -0.8407
  779MOL0     C 7377   3.299  10.040   5.246  0.2169  0.4701 -0.1851
  779MOL0     C 7378   3.449  10.018   5.222  0.3361 -0.2299 -0.4928
  779MOL0     C 7379   3.532  10.102   5.334 -0.2822  0.2429 -0.3563
  779MOL0     C 7380   3.678  10.093   5.270  0.0977  0.0440  0.0668
  779MOL0     N 7381   3.756  10.209   5.328  0.3068 -0.6078  0.2679
  779MOL0     C 7382   3.786  10.222   5.460  0.0449  0.7856 -0.3544
  779MOL0     C 7383   3.848  10.342   5.466  0.8435 -0.6138 -0.2565
  779MOL0     C 7384   3.906  10.436   5.579  0.6319  0.7127  0.8584
  779MOL0     C 7385   4.008  10.358   5.668 -0.1046 -0.2887 -0.1551
  779MOL0     C 7386   4.066  10.435   5.789 -0.6814 -0.5738  0.4580
  779MOL0     C 7387   4.155  10.548   5.756  0.1015 -1.5957  0.4784
  779MOL0     O 7388   4.068  10.666   5.740 -0.7493 -0.3446 -0.8804
  779MOL0     C 7389   4.116  10.792   5.735  0.8492 -0.2318  0.5109
  779MOL0     C 7390   4.251  10.813   5.745 -0.5647 -0.3501 -0.4649
  779MOL0     C 7391   4.302  10.947   5.755  0.2105  0.0915 -0.3906
  779MOL0     C 7392   4.451  10.960   5.765 -0.0893  0.0025  0.1556
  779MOL0     C 7393   4.209  11.052   5.758 -0.3650  0.0276  0.4780
  779MOL0     C 7394   4.250  11.194   5.766  0.1064 -0.5336 -0.2575
  779MOL0     O 7395   4.173  11.290   5.820  0.7734 -0.6258 -0.5943
  779MOL0     C 7396   4.211  11.422   5.825  0.0239  0.5780 -0.1850
  779MOL0     C 7397   4.279  11.486   5.721  0.0761 -0.2933  0.1177
  779MOL0     C 7398   4.311  11.621   5.733 -0.3848  0.4147 -0.0391
  779MOL0     C 7399   4.283  11.689   5.851  0.1817  0.2159 -0.1821
  779MOL0     O 7400   4.303  11.821   5.875  0.5815  0.2711  0.2597
  779MOL0     C 7401   4.419  11.890   5.822  0.3263  0.5891  0.6917
  779MOL0     C 7402   4.459  12.008   5.914  0.4544 -0.8705  0.2220
  779MOL0     C 7403   4.368  12.135   5.896 -0.4544 -0.2017 -0.1761
  779MOL0     C 7404   4.220  12.112   5.912 -0.0225 -0.3829 -0.1702
  779MOL0     C 7405   4.198  12.070   6.062 -1.3953 -0.3827  0.0820
  779MOL0     C 7406   4.058  12.010   6.098 -0.6287 -1.0700  0.1969
  779MOL0     C 7407   4.057  12.002   6.246  0.3380  0.7509  0.5197
  779MOL0     C 7408   3.997  12.129   6.309  0.6739  1.0206 -0.0420
  779MOL0    Cl 7409   4.019  12.137   6.497 -0.0004 -0.4503  0.1265
  779MOL0     C 7410   4.216  11.629   5.960  0.0328 -0.6221 -0.7867
  779MOL0     C 7411   4.186  11.498   5.946 -0.3540  0.6115  0.1580
  779MOL0     O 7412   4.358  11.217   5.706 -0.2172 -0.0781  0.6104
  779MOL0     C 7413   4.070  11.025   5.756  1.1046  0.2372  0.5356
  779MOL0     C 7414   4.023  10.894   5.736 -0.5139 -0.1686  1.2033
  779MOL0     N 7415   3.852  10.392   5.338 -0.7415 -0.0100 -0.0349
  779MOL0     N 7416   3.786  10.318   5.259  0.4954 -0.3581 -0.0503
  779MOL0     C 7417   2.582   9.799   5.140  0.8093  0.0955 -0.2566
  779MOL0     C 7418   2.441   9.785   5.139  0.2838 -0.0403  0.1966
  779MOL0     C 7419   2.030   9.622   5.051 -0.8539 -0.2437  0.0011
  779MOL0     C 7420   1.987   9.691   4.939  0.1484 -0.2030  0.3302
  779MOL0     C 7421   1.851   9.703   4.921 -0.0236 -0.0130  0.4481
  779MOL0     C 7422   1.753   9.635   4.991  0.2205 -0.1999  0.0460
  779MOL0     O 7423   1.620   9.645   4.959 -0.1580 -0.4820 -0.4237
  779MOL0     C 7424   1.577   9.775   4.910  1.0536 -0.0997  0.6861
  779MOL0     C 7425   1.464   9.766   4.806  0.3838 -0.5879  0.2263
  779MOL0     C 7426   1.335   9.706   4.874  0.1934 -0.3336  0.3931
  779MOL0     C 7427   1.244   9.810   4.954  0.2900 -0.0971  0.3201
  779MOL0     C 7428   1.193   9.761   5.084 -0.7573  0.4792  0.0855
  779MOL0     C 7429   1.142   9.721   5.184  0.1196  0.8159  0.1842
  779MOL0     C 7430   1.795   9.552   5.097  0.5489 -0.2262  0.3886
  779MOL0     C 7431   1.937   9.550   5.125 -0.7147  0.1254  0.3931
  779MOL0     C 7432   1.977   9.473   5.257 -0.0920  0.1959  0.2512
  779MOL0     H 7433   2.403   9.671   4.824  2.3895 -1.7306 -1.3609
  779MOL0     H 7434   2.652   9.704   4.819  0.9694  1.2362  0.4393
  779MOL0     H 7435   2.822   9.823   5.226 -0.4451 -0.7103 -0.3173
  779MOL0     H 7436   2.816   9.967   5.124  2.3590  0.8194 -1.1341
  779MOL0     H 7437   3.020   9.747   5.123  2.7286  0.6298 -0.2350
  779MOL0     H 7438   3.029   9.889   5.015  1.9254 -1.0123  0.3003
  779MOL0     H 7439   3.020  10.034   5.212 -0.3033 -0.2653 -2.8723
  779MOL0     H 7440   3.076   9.895   5.305  1.3495 -0.9377 -1.4990
  779MOL0     H 7441   3.277   9.851   5.169  0.7284 -0.6964 -2.8860
  779MOL0     H 7442   3.226   9.978   5.055 -1.5451 -1.2206 -1.1596
  779MOL0     H 7443   3.280  10.013   5.350 -0.3306  0.7428 -0.2135
  779MOL0     H 7444   3.259  10.139   5.225 -2.5746 -0.6404 -0.5007
  779MOL0     H 7445   3.464   9.909   5.230  1.4999 -0.0837 -0.4868
  779MOL0     H 7446   3.488  10.040   5.122  0.8025  0.3828 -0.1829
  779MOL0     H 7447   3.511  10.049   5.427 -1.0987 -0.9265 -1.1677
  779MOL0     H 7448   3.508  10.208   5.336  1.7144  0.8991 -3.4718
  779MOL0     H 7449   3.722  10.000   5.306 -0.8891  0.6007  3.0209
  779MOL0     H 7450   3.677  10.102   5.161  2.4700  2.2463  0.1139
  779MOL0     H 7451   3.757  10.158   5.543  2.5649 -2.1764 -1.5482
  779MOL0     H 7452   3.823  10.480   5.634  2.2457 -0.1943  4.3082
  779MOL0     H 7453   3.960  10.520   5.535  2.7350 -1.5226 -1.1749
  779MOL0     H 7454   3.963  10.263   5.700 -0.0417 -1.1846 -2.5798
  779MOL0     H 7455   4.088  10.332   5.598  0.9069 -0.4608  1.0165
  779MOL0     H 7456   3.991  10.466   5.863 -0.2628  0.0009  0.6549
  779MOL0     H 7457   4.131  10.374   5.852 -0.1883 -1.3806 -0.7988
  779MOL0     H 7458   4.214  10.571   5.845 -0.8576  2.3421  0.2839
  779MOL0     H 7459   4.226  10.528   5.676  2.3116  1.9653  1.3494
  779MOL0     H 7460   4.317  10.726   5.742  0.1694  0.1982 -0.3139
  779MOL0     H 7461   4.483  10.996   5.863 -1.1840  3.3606 -0.5683
  779MOL0     H 7462   4.485  11.020   5.680 -1.8552  1.2846  0.2812
  779MOL0     H 7463   4.495  10.861   5.750 -0.0295  0.1119 -0.4085
  779MOL0     H 7464   4.308  11.434   5.630 -0.4124 -2.8469  1.3214
  779MOL0     H 7465   4.364  11.679   5.658 -1.2771  1.2200 -0.0630
  779MOL0     H 7466   4.499  11.815   5.826  1.5050  1.8224  1.0706
  779MOL0     H 7467   4.406  11.926   5.720  4.1053 -0.7845 -0.4441
  779MOL0     H 7468   4.471  11.976   6.018  1.7698 -0.2936  0.2753
  779MOL0     H 7469   4.560  12.036   5.882 -0.0517 -0.9063 -1.4692
  779MOL0     H 7470   4.384  12.182   5.798 -1.5237  1.5516  0.4462
  779MOL0     H 7471   4.394  12.217   5.963  0.4685  1.1937 -2.1310
  779MOL0     H 7472   4.176  12.026   5.860  0.0661 -2.0147  2.2529
  779MOL0     H 7473   4.165  12.204   5.894  1.8931  0.5821 -1.3326
  779MOL0     H 7474   4.272  11.993   6.082  2.4495  3.0569  0.3770
  779MOL0     H 7475   4.221  12.158   6.122 -2.8049  0.1656 -0.1346
  779MOL0     H 7476   4.038  11.916   6.045 -1.5529  0.2547 -1.9479
  779MOL0     H 7477   3.977  12.078   6.071 -1.0854 -1.2182  1.1740
  779MOL0     H 7478   4.158  11.992   6.287  0.0008 -1.7957  0.8562
  779MOL0     H 7479   4.005  11.911   6.278  0.1639  0.7072  0.1090
  779MOL0     H 7480   3.891  12.123   6.286  0.7790 -5.1624 -0.6527
  779MOL0     H 7481   4.049  12.217   6.270  3.7182 -0.9093 -0.7226
  779MOL0     H 7482   4.191  11.676   6.055  2.3729  0.8586 -0.8344
  779MOL0     H 7483   4.123  11.442   6.014 -0.6041 -0.7271 -1.1077
  779MOL0     H 7484   4.010  11.115   5.758 -1.0892 -1.1127 -0.7751
  779MOL0     H 7485   3.916  10.875   5.728 -0.2921 -0.6805 -1.9375
  779MOL0     H 7486   2.625   9.851   5.225  3.2978 -0.4663 -1.0959
  779MOL0     H 7487   2.378   9.816   5.221 -0.5981 -1.9423  0.2772
  779MOL0     H 7488   2.057   9.742   4.874  0.1034  2.9831  2.5250
  779MOL0     H 7489   1.824   9.766   4.837  1.1399  0.0389  0.0860
  779MOL0     H 7490   1.532   9.831   4.992  2.2829  1.5893  0.2706
  779MOL0     H 7491   1.660   9.834   4.869  3.9816 -2.5959  2.6250
  779MOL0     H 7492   1.500   9.694   4.731 -1.8346 -1.4938 -0.0453
  779MOL0     H 7493   1.436   9.862   4.763 -0.2583 -0.9070 -0.0814
  779MOL0     H 7494   1.272   9.671   4.791 -2.6085  1.6357  1.5366
  779MOL0     H 7495   1.368   9.622   4.936 -3.3511 -1.3660  1.0980
  779MOL0     H 7496   1.165   9.843   4.887  1.7930 -1.8018 -2.5041
  779MOL0     H 7497   1.305   9.898   4.974 -1.0290  0.4904  1.9910
  779MOL0     H 7498   1.094   9.681   5.271 -0.6361 -0.1290 -0.6419
  779MOL0     H 7499   1.720   9.496   5.151 -1.1778 -1.4518 -2.9496
  779MOL0     H 7500   1.882   9.434   5.294 -0.6948 -0.3536 -1.7332
  779MOL0     H 7501   2.047   9.392   5.240 -0.0290  0.6343 -1.8730
  779MOL0     H 7502   2.015   9.544   5.331 -3.6246  4.3364 -1.4346
  780MOL0     O 7503   6.125   3.692   8.943 -0.2161  0.7339 -0.1967
  780MOL0     C 7504   6.094   3.667   9.059  0.9973 -0.7975  0.1604
  780MOL0     O 7505   6.157   3.710   9.173 -0.0990  0.6566 -0.0167
  780MOL0     C 7506   6.274   3.777   9.164  0.0831  0.4799  0.6702
  780MOL0     C 7507   6.389   3.728   9.099 -0.3037  1.1414 -0.2263
  780MOL0     C 7508   6.512   3.793   9.095  0.6467  0.4664 -0.7198
  780MOL0     C 7509   6.517   3.921   9.162 -1.0681  0.2080 -0.8972
  780MOL0     O 7510   6.632   3.987   9.145  0.2283  0.6837 -0.0862
  780MOL0     C 7511   6.639   4.127   9.170  0.0325 -0.2934 -0.0855
  780MOL0     C 7512   6.765   4.185   9.109 -0.5312 -0.2221 -0.3431
  780MOL0     C 7513   6.740   4.235   8.962  0.3133 -0.2544 -0.7140
  780MOL0     C 7514   6.869   4.290   8.904  1.1076 -0.0057  0.1540
  780MOL0     C 7515   6.839   4.303   8.756  0.0251 -0.7666  0.7879
  780MOL0     C 7516   6.948   4.269   8.659  0.3657  0.5147  0.8088
  780MOL0     C 7517   7.071   4.366   8.642  0.6928 -0.0732  0.3352
  780MOL0     C 7518   7.054   4.486   8.553  0.3977  0.4674  0.5125
  780MOL0     N 7519   7.181   4.552   8.536  0.5523 -0.1917 -0.5947
  780MOL0     C 7520   7.206   4.687   8.556 -1.1545  0.1866  0.4720
  780MOL0     C 7521   7.319   4.715   8.487 -0.4828  0.3572  0.0203
  780MOL0     C 7522   7.380   4.859   8.461 -0.2934  0.2343 -0.6020
  780MOL0     C 7523   7.498   4.884   8.556 -0.0844  0.2139 -0.4054
  780MOL0     C 7524   7.624   4.800   8.508 -0.4194  0.1176 -0.4600
  780MOL0     C 7525   7.746   4.855   8.586  0.7574  0.7384 -0.4402
  780MOL0     O 7526   7.784   4.983   8.537  0.1180 -0.9441 -0.2143
  780MOL0     C 7527   7.900   5.045   8.578 -0.6582  0.7590  0.2728
  780MOL0     C 7528   7.942   5.165   8.516  0.6345  0.2815 -0.5725
  780MOL0     C 7529   8.051   5.243   8.554  0.2337  0.3384  1.1489
  780MOL0     C 7530   8.089   5.367   8.458 -0.4722  0.2134 -1.1260
  780MOL0     C 7531   8.128   5.199   8.659  0.3452  0.0346  0.1737
  780MOL0     C 7532   8.259   5.261   8.689 -0.4072 -0.1380 -0.4983
  780MOL0     O 7533   8.339   5.182   8.765  0.3178 -0.4262 -0.7286
  780MOL0     C 7534   8.454   5.229   8.826  0.0032 -0.0293  0.7731
  780MOL0     C 7535   8.517   5.355   8.807 -0.4508 -0.6135 -0.8631
  780MOL0     C 7536   8.640   5.374   8.875 -0.5591 -0.2275  0.1527
  780MOL0     C 7537   8.701   5.281   8.957  0.2178  0.6372 -0.4412
  780MOL0     O 7538   8.821   5.314   9.011  0.6507  0.0632 -0.6774
  780MOL0     C 7539   8.920   5.214   9.031  0.6028 -0.7947  0.7557
  780MOL0     C 7540   9.040   5.293   9.059  0.0460 -0.3601  0.1581
  780MOL0     C 7541   9.141   5.192   9.092  0.4290 -0.1994  0.9637
  780MOL0     C 7542   9.274   5.258   9.077 -0.3217  0.4206 -0.7922
  780MOL0     C 7543   9.382   5.147   9.097  0.4880 -0.5410  0.5179
  780MOL0     C 7544   9.523   5.211   9.086  0.3159 -0.6891 -0.5675
  780MOL0     C 7545   9.620   5.093   9.054 -0.0030 -1.0296 -0.7225
  780MOL0     C 7546   9.763   5.145   9.065 -0.5864  0.2861  0.1119
  780MOL0    Cl 7547   9.792   5.223   9.221 -0.4238  0.1790 -0.0286
  780MOL0     C 7548   8.643   5.157   8.964 -0.3878 -0.2365 -0.9427
  780MOL0     C 7549   8.519   5.132   8.900 -0.0029 -0.7022  0.7952
  780MOL0     O 7550   8.275   5.385   8.672 -0.5724 -0.2656  0.1055
  780MOL0     C 7551   8.096   5.071   8.717 -0.5731  0.1910 -0.4867
  780MOL0     C 7552   7.987   4.992   8.682  0.0863 -0.3578 -0.2463
  780MOL0     N 7553   7.362   4.602   8.418 -0.3834 -0.6929 -0.5077
  780MOL0     N 7554   7.281   4.509   8.460 -0.1261  0.1576  0.8753
  780MOL0     C 7555   6.413   3.967   9.235 -0.2413 -0.2351  0.4130
  780MOL0     C 7556   6.291   3.898   9.235 -0.1699  1.0524  0.4374
  780MOL0     C 7557   5.961   3.612   9.094  0.8199 -0.1968 -0.1166
  780MOL0     C 7558   5.953   3.545   9.220 -0.0595 -0.5988  0.5201
  780MOL0     C 7559   5.833   3.487   9.257 -0.4399  0.5906 -0.4168
  780MOL0     C 7560   5.722   3.489   9.174  0.5429 -0.3315 -0.3224
  780MOL0     O 7561   5.597   3.452   9.220 -0.0098 -0.7153 -0.0093
  780MOL0     C 7562   5.587   3.312   9.251 -0.2721  0.6827  0.5450
  780MOL0     C 7563   5.447   3.289   9.323 -0.4575  0.8075 -0.2790
  780MOL0     C 7564   5.479   3.273   9.466 -0.3130  0.3830 -0.8944
  780MOL0     C 7565   5.351   3.300   9.551 -0.5528  0.0932 -0.7412
  780MOL0     C 7566   5.325   3.445   9.578 -0.1004  0.0021  0.2453
  780MOL0     C 7567   5.305   3.560   9.582  0.4084 -0.2862 -0.5920
  780MOL0     C 7568   5.723   3.565   9.060  0.1633 -0.3503  0.0024
  780MOL0     C 7569   5.842   3.629   9.015  0.5031  0.1432  0.1894
  780MOL0     C 7570   5.830   3.702   8.882 -0.0268  0.5501 -0.0644
  780MOL0     H 7571   6.381   3.633   9.048 -0.0330  0.1594  1.5030
  780MOL0     H 7572   6.602   3.754   9.049  0.0203 -0.2422 -1.3673
  780MOL0     H 7573   6.626   4.135   9.278  1.6132  1.0586  0.0386
  780MOL0     H 7574   6.552   4.177   9.125 -1.1557  0.2249  2.6016
  780MOL0     H 7575   6.792   4.271   9.172 -1.4938  0.3489 -0.6851
  780MOL0     H 7576   6.852   4.119   9.112 -0.6894 -0.4245 -0.2509
  780MOL0     H 7577   6.710   4.147   8.903 -3.5489  1.0047 -0.8932
  780MOL0     H 7578   6.653   4.300   8.965  1.2553  1.1570 -2.3099
  780MOL0     H 7579   6.896   4.382   8.957 -0.7572 -0.5265  2.1261
  780MOL0     H 7580   6.945   4.212   8.911  0.7922 -0.7940 -3.2208
  780MOL0     H 7581   6.804   4.405   8.738 -0.0360  0.2580  5.4843
  780MOL0     H 7582   6.762   4.233   8.723  0.0294 -0.2920 -0.2715
  780MOL0     H 7583   6.998   4.176   8.687  0.1922  0.0758 -0.2580
  780MOL0     H 7584   6.906   4.244   8.561  1.7643  0.2400  0.2571
  780MOL0     H 7585   7.152   4.310   8.597  0.2368 -0.1730 -0.3808
  780MOL0     H 7586   7.104   4.409   8.737 -0.6603  1.8695 -0.0145
  780MOL0     H 7587   7.022   4.450   8.455 -3.0083 -0.0835  1.6600
  780MOL0     H 7588   6.972   4.550   8.588  0.0791  0.5836 -0.4180
  780MOL0     H 7589   7.138   4.761   8.597 -2.1147 -0.1163 -0.5240
  780MOL0     H 7590   7.308   4.934   8.495 -1.6583 -1.4630  0.4164
  780MOL0     H 7591   7.399   4.861   8.354 -5.1251  0.1569 -1.6884
  780MOL0     H 7592   7.524   4.990   8.559 -1.8750  0.7195  3.4390
  780MOL0     H 7593   7.477   4.863   8.662 -1.7627  1.9823 -0.3461
  780MOL0     H 7594   7.609   4.702   8.553  1.0622  0.8103  1.6946
  780MOL0     H 7595   7.633   4.806   8.399  2.8432  5.5625 -0.2682
  780MOL0     H 7596   7.731   4.866   8.694  1.5605 -0.3721 -0.2023
  780MOL0     H 7597   7.825   4.781   8.571 -2.0981 -2.0079 -3.7520
  780MOL0     H 7598   7.876   5.191   8.434 -1.4315 -3.2719 -0.2451
  780MOL0     H 7599   8.197   5.362   8.441 -0.2294 -0.6901  0.4784
  780MOL0     H 7600   8.073   5.461   8.512  1.5634 -0.9032  1.6701
  780MOL0     H 7601   8.030   5.367   8.366  1.6193  0.5256 -2.5278
  780MOL0     H 7602   8.477   5.436   8.747 -1.9524  0.7872  1.8551
  780MOL0     H 7603   8.693   5.468   8.863 -1.2211  0.2223  0.6760
  780MOL0     H 7604   8.893   5.152   9.117 -1.1097 -0.8827  0.1956
  780MOL0     H 7605   8.942   5.150   8.945  3.3793  0.3422  0.5113
  780MOL0     H 7606   9.067   5.354   8.973  2.1199  1.1715  1.7846
  780MOL0     H 7607   9.041   5.368   9.139  2.6645  0.1860 -0.2736
  780MOL0     H 7608   9.135   5.112   9.018 -2.0889  2.2412 -1.7116
  780MOL0     H 7609   9.121   5.156   9.194 -0.3699  0.5588  1.0892
  780MOL0     H 7610   9.292   5.335   9.153 -1.4275 -0.1149  0.0338
  780MOL0     H 7611   9.287   5.297   8.976  0.7766  0.1413 -0.7808
  780MOL0     H 7612   9.364   5.106   9.197  1.7772  0.8979  1.4017
  780MOL0     H 7613   9.364   5.076   9.016 -0.0670 -0.1897  0.3304
  780MOL0     H 7614   9.539   5.268   9.178 -1.5517  1.3890 -1.4359
  780MOL0     H 7615   9.515   5.275   8.997 -0.5388 -0.7516 -0.5483
  780MOL0     H 7616   9.600   5.062   8.951 -1.3552  0.4604 -0.9329
  780MOL0     H 7617   9.600   5.010   9.122 -0.6763  1.0491  1.7908
  780MOL0     H 7618   9.789   5.219   8.989 -1.7024  1.4187  0.7907
  780MOL0     H 7619   9.842   5.071   9.055  0.8944  1.8283 -0.0467
  780MOL0     H 7620   8.683   5.085   9.035  0.4066  2.2223  1.2465
  780MOL0     H 7621   8.483   5.030   8.911 -1.7812 -0.1526  0.3625
  780MOL0     H 7622   8.153   5.022   8.795 -1.6951  1.8343  1.4573
  780MOL0     H 7623   7.964   4.904   8.742 -1.8591  0.3146  0.0772
  780MOL0     H 7624   6.421   4.062   9.288  2.2673  0.2435 -0.7003
  780MOL0     H 7625   6.218   3.956   9.289  0.3536  1.1996  0.9983
  780MOL0     H 7626   6.034   3.548   9.291 -0.1895  1.9237  0.6196
  780MOL0     H 7627   5.827   3.449   9.359 -0.7452  2.5025  0.3091
  780MOL0     H 7628   5.587   3.264   9.152 -1.7228 -0.0304  0.8567
  780MOL0     H 7629   5.669   3.267   9.308 -0.8913 -0.8043  0.3304
  780MOL0     H 7630   5.408   3.190   9.297  0.5795  0.5434 -0.8839
  780MOL0     H 7631   5.374   3.361   9.286 -2.4773 -1.1816 -0.3608
  780MOL0     H 7632   5.520   3.175   9.491  2.3660  1.5219 -0.4122
  780MOL0     H 7633   5.559   3.339   9.502 -0.2001 -0.8381  1.2781
  780MOL0     H 7634   5.356   3.261   9.653 -0.2284  2.7963  0.3669
  780MOL0     H 7635   5.268   3.257   9.494 -0.5656 -0.6802 -0.1475
  780MOL0     H 7636   5.281   3.663   9.601 -1.8768 -1.1890  2.2576
  780MOL0     H 7637   5.630   3.575   9.006  0.8873 -1.4704 -1.5335
  780MOL0     H 7638   5.730   3.734   8.854 -0.3222  0.7293  1.1365
  780MOL0     H 7639   5.883   3.797   8.889 -1.0903  1.0523  1.6203
  780MOL0     H 7640   5.889   3.635   8.818  2.4090  2.9442 -0.5132
  781MOL0     O 7641   5.871   1.131  10.496 -0.8574 -0.1974 -0.5517
  781MOL0     C 7642   5.921   1.164  10.602 -0.2492 -0.3892  0.7016
  781MOL0     O 7643   5.966   1.289  10.623  0.1391 -0.0594 -0.1255
  781MOL0     C 7644   6.071   1.331  10.551 -1.0993 -0.6147 -0.2123
  781MOL0     C 7645   6.155   1.261  10.469 -0.5230  0.0554 -0.1165
  781MOL0     C 7646   6.262   1.321  10.393  0.0378  0.0291  0.0138
  781MOL0     C 7647   6.282   1.450  10.402  0.1389  0.1251  0.5184
  781MOL0     O 7648   6.388   1.495  10.325  0.3065  0.2261  0.1621
  781MOL0     C 7649   6.404   1.628  10.268 -0.1678  0.3645  0.3245
  781MOL0     C 7650   6.435   1.751  10.363 -0.0009  0.5970 -0.0886
  781MOL0     C 7651   6.468   1.706  10.507  0.0683  0.0753  0.0828
  781MOL0     C 7652   6.538   1.815  10.588  0.3501 -0.9987 -0.6807
  781MOL0     C 7653   6.553   1.770  10.729 -0.3786  0.3664  0.3897
  781MOL0     C 7654   6.673   1.832  10.795  0.3797 -0.6008 -0.5591
  781MOL0     C 7655   6.716   1.763  10.931 -0.2395  0.3949  0.0966
  781MOL0     C 7656   6.842   1.834  10.985 -0.0149  0.1674 -0.5364
  781MOL0     N 7657   6.887   1.785  11.116  0.6004  0.5193  0.4338
  781MOL0     C 7658   6.946   1.654  11.114 -0.4976 -0.3359 -0.3923
  781MOL0     C 7659   7.016   1.654  11.227  0.0146  0.4856 -0.1196
  781MOL0     C 7660   7.117   1.551  11.256 -0.3429  0.5464  0.3417
  781MOL0     C 7661   7.120   1.519  11.401  0.1258 -0.0934 -0.0265
  781MOL0     C 7662   7.220   1.418  11.435  0.8605  0.6265 -0.2294
  781MOL0     C 7663   7.222   1.373  11.581  0.0990  0.1089 -0.2199
  781MOL0     O 7664   7.241   1.480  11.675 -0.2261 -0.8747  0.3287
  781MOL0     C 7665   7.369   1.521  11.716  0.2470 -0.3363 -0.2971
  781MOL0     C 7666   7.369   1.621  11.818  0.4219 -0.2685  0.3909
  781MOL0     C 7667   7.491   1.664  11.874  0.5791 -1.0272 -0.2026
  781MOL0     C 7668   7.471   1.769  11.986 -0.7157 -0.1638 -0.6856
  781MOL0     C 7669   7.613   1.627  11.810  0.2028  0.4649  0.1305
  781MOL0     C 7670   7.754   1.662  11.858  1.1461  0.2190 -0.0024
  781MOL0     O 7671   7.853   1.649  11.769  0.1959 -0.6987  0.9849
  781MOL0     C 7672   7.966   1.711  11.802  0.3781 -0.7455 -0.3944
  781MOL0     C 7673   8.062   1.650  11.874  0.5372  0.0113 -0.9057
  781MOL0     C 7674   8.183   1.712  11.907  0.1792 -0.0975  1.2192
  781MOL0     C 7675   8.211   1.842  11.863 -0.4653 -0.4740  0.3433
  781MOL0     O 7676   8.333   1.898  11.902 -0.6150 -0.1387 -0.2879
  781MOL0     C 7677   8.340   2.042  11.880  0.0428  0.0707 -0.5022
  781MOL0     C 7678   8.463   2.112  11.963  0.1609  0.7022  0.4652
  781MOL0     C 7679   8.592   2.051  11.925 -0.0517 -0.4004  0.3587
  781MOL0     C 7680   8.707   2.111  12.000 -0.4564  0.3958 -0.0440
  781MOL0     C 7681   8.826   2.022  11.983  0.5336 -0.5080  0.1836
  781MOL0     C 7682   8.943   2.097  12.058  0.6653 -0.5043 -0.6560
  781MOL0     C 7683   9.065   2.009  12.051  0.9307  0.9936 -0.7072
  781MOL0     C 7684   9.192   2.069  12.128  0.3226  0.5598 -0.4699
  781MOL0    Cl 7685   9.275   2.191  12.025 -0.1410  0.2496 -0.1286
  781MOL0     C 7686   8.114   1.904  11.777 -0.2583 -0.4186  0.1274
  781MOL0     C 7687   7.996   1.844  11.760  0.2031  0.8121  0.6440
  781MOL0     O 7688   7.762   1.683  11.979 -0.2685 -0.5227  0.4773
  781MOL0     C 7689   7.608   1.532  11.703 -0.3747  0.0246  0.0126
  781MOL0     C 7690   7.493   1.473  11.669 -0.1383 -0.0601 -0.2694
  781MOL0     N 7691   6.992   1.768  11.293  0.4805  0.1793 -0.0639
  781MOL0     N 7692   6.911   1.848  11.236  0.0590  0.0028  0.1655
  781MOL0     C 7693   6.191   1.532  10.466  0.1410  0.7010 -0.3629
  781MOL0     C 7694   6.093   1.467  10.545  0.1290 -0.7129  0.4002
  781MOL0     C 7695   5.934   1.061  10.710 -0.3455 -0.9232  0.0424
  781MOL0     C 7696   5.928   1.110  10.838 -0.6039 -0.1949  0.4675
  781MOL0     C 7697   5.933   1.022  10.949  0.3400 -0.8214  0.4989
  781MOL0     C 7698   5.946   0.887  10.940 -0.5204  0.2058 -0.3468
  781MOL0     O 7699   5.955   0.808  11.050  0.2150  0.1930 -0.3931
  781MOL0     C 7700   5.837   0.802  11.127  0.3106  0.2962  0.1952
  781MOL0     C 7701   5.733   0.708  11.053  0.1135 -0.0588  0.9471
  781MOL0     C 7702   5.614   0.668  11.147  0.7923 -0.2193  0.0579
  781MOL0     C 7703   5.527   0.788  11.193 -0.3697  0.0098 -0.5872
  781MOL0     C 7704   5.429   0.750  11.288  0.4006  0.3911 -0.7183
  781MOL0     C 7705   5.331   0.720  11.357 -0.1644  0.7295  0.0404
  781MOL0     C 7706   5.945   0.830  10.807 -0.7432 -0.0513  0.3733
  781MOL0     C 7707   5.931   0.915  10.691  0.6629  0.3361  0.3140
  781MOL0     C 7708   5.917   0.849  10.561  0.0687 -1.2702  0.8177
  781MOL0     H 7709   6.128   1.158  10.448  0.5121 -0.7829  2.3147
  781MOL0     H 7710   6.323   1.255  10.333 -1.6670  0.2958 -2.1909
  781MOL0     H 7711   6.327   1.647  10.192  1.9492  2.0597 -1.5151
  781MOL0     H 7712   6.500   1.613  10.217  0.4940  3.0962  0.6428
  781MOL0     H 7713   6.517   1.805  10.315  0.9159 -0.3336  0.3935
  781MOL0     H 7714   6.352   1.821  10.379  0.0989  0.8079 -0.4849
  781MOL0     H 7715   6.381   1.669  10.561  0.0175 -1.0982 -0.7643
  781MOL0     H 7716   6.539   1.623  10.500  0.6891  0.6997 -1.5086
  781MOL0     H 7717   6.638   1.829  10.547  0.9947 -2.4678  0.3198
  781MOL0     H 7718   6.486   1.911  10.582  1.3718 -0.4416 -0.7245
  781MOL0     H 7719   6.562   1.664  10.755 -0.3246  0.8419  2.5201
  781MOL0     H 7720   6.468   1.801  10.791 -1.0345  0.1852 -0.4108
  781MOL0     H 7721   6.758   1.817  10.728  1.3870  0.2890  0.4570
  781MOL0     H 7722   6.654   1.936  10.824  1.2341 -0.7465  0.6081
  781MOL0     H 7723   6.733   1.657  10.913 -0.2961  0.2649  0.7690
  781MOL0     H 7724   6.630   1.777  10.999 -2.9794  0.3548 -3.1025
  781MOL0     H 7725   6.928   1.803  10.925  1.1399  1.1346  0.5508
  781MOL0     H 7726   6.839   1.943  10.975 -0.9054  0.0285 -1.9843
  781MOL0     H 7727   6.947   1.583  11.032 -1.4984 -1.9471  0.9018
  781MOL0     H 7728   7.215   1.593  11.232 -0.2165  1.9046  2.9147
  781MOL0     H 7729   7.098   1.461  11.196  0.2036  2.0908 -2.3057
  781MOL0     H 7730   7.131   1.609  11.462 -2.7720 -1.3620  2.6622
  781MOL0     H 7731   7.025   1.473  11.429  0.4664 -1.4626 -1.0509
  781MOL0     H 7732   7.187   1.332  11.377 -1.0190  1.7057 -0.8186
  781MOL0     H 7733   7.322   1.449  11.408  2.3783 -3.2231  0.3454
  781MOL0     H 7734   7.139   1.310  11.615  0.9798 -1.0839 -0.1947
  781MOL0     H 7735   7.307   1.304  11.581  0.3954  0.4697 -0.1053
  781MOL0     H 7736   7.278   1.657  11.865  3.0787  2.0245  4.4170
  781MOL0     H 7737   7.491   1.714  12.078 -0.4899 -1.7525 -1.6505
  781MOL0     H 7738   7.371   1.813  11.976 -1.3823 -1.0789  1.3908
  781MOL0     H 7739   7.535   1.858  11.991 -2.2083  0.9161  0.1269
  781MOL0     H 7740   8.031   1.553  11.913  0.7622 -0.0314 -0.8307
  781MOL0     H 7741   8.248   1.670  11.983 -0.5301 -2.1688  0.7486
  781MOL0     H 7742   8.362   2.059  11.774  0.7127 -0.4076 -0.4510
  781MOL0     H 7743   8.252   2.088  11.926 -0.3612 -0.8715 -0.3158
  781MOL0     H 7744   8.463   2.219  11.939  0.4387 -0.0803 -3.6715
  781MOL0     H 7745   8.447   2.096  12.070  0.4253 -1.0741  0.2571
  781MOL0     H 7746   8.609   2.064  11.817  3.2293 -0.5016  0.7634
  781MOL0     H 7747   8.587   1.943  11.939 -1.2098 -0.2484  1.2314
  781MOL0     H 7748   8.687   2.108  12.107  2.7739  0.0993  0.6464
  781MOL0     H 7749   8.717   2.217  11.974  0.3061  0.2730 -0.2704
  781MOL0     H 7750   8.798   1.926  12.027 -0.8076  0.8737  2.6177
  781MOL0     H 7751   8.845   2.003  11.878  0.3623 -1.0782  0.2541
  781MOL0     H 7752   8.912   2.117  12.161  0.7722  0.9439 -0.8860
  781MOL0     H 7753   8.963   2.195  12.014 -0.8079 -0.1303 -0.5580
  781MOL0     H 7754   9.089   1.981  11.948 -4.0043 -1.4372 -1.5275
  781MOL0     H 7755   9.040   1.918  12.106 -1.3221  1.8639 -0.1553
  781MOL0     H 7756   9.269   1.993  12.142 -0.7357 -0.5361 -0.4465
  781MOL0     H 7757   9.156   2.110  12.222 -1.7421 -0.0754 -0.9240
  781MOL0     H 7758   8.133   1.996  11.723 -1.7910 -0.7266 -1.0212
  781MOL0     H 7759   7.927   1.898  11.696 -0.4368  0.6775  1.2096
  781MOL0     H 7760   7.691   1.486  11.650 -0.9649 -0.2381 -0.7055
  781MOL0     H 7761   7.499   1.396  11.593  1.7812  0.0812 -0.3086
  781MOL0     H 7762   6.194   1.640  10.458 -2.2800  0.8003 -0.3802
  781MOL0     H 7763   6.022   1.530  10.597  0.5777 -0.7703  1.0906
  781MOL0     H 7764   5.908   1.215  10.859  0.5260  0.1272  0.0106
  781MOL0     H 7765   5.922   1.059  11.051 -1.1619 -1.1767  0.4782
  781MOL0     H 7766   5.865   0.768  11.228 -1.9978  0.4318  0.9354
  781MOL0     H 7767   5.787   0.898  11.138  0.1011  0.2709 -0.5351
  781MOL0     H 7768   5.783   0.620  11.010 -0.5511  0.0823 -0.1662
  781MOL0     H 7769   5.691   0.758  10.966 -0.3556 -3.9251 -1.3114
  781MOL0     H 7770   5.544   0.606  11.091 -3.6778  4.3102 -0.0893
  781MOL0     H 7771   5.660   0.609  11.226  0.1125 -0.5212  0.2284
  781MOL0     H 7772   5.482   0.834  11.105 -2.2863 -0.2074  0.2311
  781MOL0     H 7773   5.588   0.864  11.243 -0.8610 -0.7314  1.2467
  781MOL0     H 7774   5.242   0.694  11.411 -1.4608  1.9801 -1.3972
  781MOL0     H 7775   5.934   0.723  10.793 -0.7194 -0.3358  2.2975
  781MOL0     H 7776   6.003   0.783  10.547  0.8076  0.1656 -2.3214
  781MOL0     H 7777   5.816   0.808  10.548 -1.0919  2.0023 -1.9733
  781MOL0     H 7778   5.928   0.916  10.476  0.6396 -0.0654  1.8133
  782MOL0     O 7779   6.925   0.112  10.884  0.2434 -0.0332  0.5664
  782MOL0     C 7780   6.844   0.035  10.935  0.8152 -0.5738  0.5298
  782MOL0     O 7781   6.863  -0.098  10.946 -0.9232  0.2691 -0.2409
  782MOL0     C 7782   6.968  -0.173  10.892 -0.6526 -0.0959 -0.0507
  782MOL0     C 7783   7.086  -0.122  10.829  0.5940  0.3448 -0.0640
  782MOL0     C 7784   7.173  -0.220  10.784  0.0255 -0.1045  0.1646
  782MOL0     C 7785   7.169  -0.357  10.822  0.9397  0.5547 -0.1726
  782MOL0     O 7786   7.259  -0.451  10.793  0.4423  0.2602  0.4380
  782MOL0     C 7787   7.381  -0.425  10.715  0.0275 -0.1213  1.2817
  782MOL0     C 7788   7.361  -0.380  10.564  0.3832  0.3238 -0.4964
  782MOL0     C 7789   7.255  -0.464  10.503  0.9589  0.3382 -0.0573
  782MOL0     C 7790   7.242  -0.442  10.358 -0.2043 -0.3048 -0.2044
  782MOL0     C 7791   7.142  -0.541  10.311 -0.3779 -0.1573  0.4623
  782MOL0     C 7792   7.140  -0.541  10.162 -0.0964 -0.7582  0.4885
  782MOL0     C 7793   7.044  -0.648  10.105  0.7199  0.6097 -0.4500
  782MOL0     C 7794   7.111  -0.786  10.113 -0.4679 -0.6077 -0.2999
  782MOL0     N 7795   7.039  -0.879  10.015 -0.4887 -0.7164  0.3695
  782MOL0     C 7796   6.927  -0.957  10.035  0.3864  0.2079  0.0081
  782MOL0     C 7797   6.917  -1.046   9.939 -0.4894  0.2909  1.1228
  782MOL0     C 7798   6.827  -1.160   9.910  0.1178  0.3477  0.1804
  782MOL0     C 7799   6.912  -1.296   9.896 -0.0751 -0.3283 -0.3205
  782MOL0     C 7800   6.989  -1.354  10.023  0.0161 -0.2602 -0.0710
  782MOL0     C 7801   7.101  -1.265  10.070 -0.2282  0.2785 -0.6682
  782MOL0     O 7802   7.194  -1.334  10.152 -0.1331  0.6206  0.1281
  782MOL0     C 7803   7.312  -1.268  10.168 -0.8678  0.6343 -0.0820
  782MOL0     C 7804   7.413  -1.350  10.224  0.5816 -0.3449  0.2607
  782MOL0     C 7805   7.549  -1.306  10.234  0.3609 -0.0507  0.1621
  782MOL0     C 7806   7.655  -1.405  10.256  0.4021  0.4360 -0.3193
  782MOL0     C 7807   7.582  -1.175  10.191 -0.1312 -0.6423  0.2545
  782MOL0     C 7808   7.721  -1.125  10.193  0.0104 -0.5960 -0.7231
  782MOL0     O 7809   7.754  -1.027  10.101 -1.1755  0.6016 -0.7371
  782MOL0     C 7810   7.881  -0.969  10.115 -0.4023  0.9020 -0.4941
  782MOL0     C 7811   7.965  -0.967  10.001  0.2463 -0.1811 -0.4798
  782MOL0     C 7812   8.090  -0.909  10.009  0.1567 -0.6277  0.6957
  782MOL0     C 7813   8.121  -0.838  10.124  0.5061 -0.2403  0.4273
  782MOL0     O 7814   8.243  -0.770  10.130 -0.6928  0.3634  0.7221
  782MOL0     C 7815   8.354  -0.831  10.059  0.8398 -0.3070  0.5557
  782MOL0     C 7816   8.488  -0.771  10.112  0.5522 -0.2925  0.8518
  782MOL0     C 7817   8.541  -0.641  10.047 -0.3340  0.2711  0.5145
  782MOL0     C 7818   8.666  -0.594  10.121  0.1506  0.0207  0.8454
  782MOL0     C 7819   8.780  -0.545  10.037  0.0145 -0.0219 -0.3895
  782MOL0     C 7820   8.901  -0.527  10.125 -0.9922 -0.4307 -1.2810
  782MOL0     C 7821   8.875  -0.463  10.269 -0.1705 -0.7939 -0.7105
  782MOL0     C 7822   9.011  -0.444  10.343  1.0172 -0.3401  0.3345
  782MOL0    Cl 7823   9.104  -0.293  10.281 -0.2838  0.4752 -0.1487
  782MOL0     C 7824   8.038  -0.829  10.228  0.1645  0.7410 -0.4976
  782MOL0     C 7825   7.924  -0.900  10.227  0.3820  0.9719 -0.6615
  782MOL0     O 7826   7.786  -1.150  10.292 -0.5622  0.4735 -0.0744
  782MOL0     C 7827   7.479  -1.090  10.149  0.0905 -0.3770  0.4162
  782MOL0     C 7828   7.344  -1.137  10.135  0.3431  0.5833 -0.1669
  782MOL0     N 7829   7.016  -1.012   9.846 -0.0243  0.3534 -0.6648
  782MOL0     N 7830   7.092  -0.920   9.894 -0.5774 -0.2210 -0.4278
  782MOL0     C 7831   7.054  -0.392  10.892  0.8951  0.7288 -0.3499
  782MOL0     C 7832   6.952  -0.308  10.915  0.7341 -0.2202 -0.5301
  782MOL0     C 7833   6.714   0.080  10.996 -0.7627 -0.8827 -0.0901
  782MOL0     C 7834   6.635  -0.006  11.073  0.6046  0.7801 -0.5119
  782MOL0     C 7835   6.508   0.028  11.113 -0.1560  0.3882  0.7132
  782MOL0     C 7836   6.457   0.153  11.093  0.3918  0.1192  0.0415
  782MOL0     O 7837   6.346   0.189  11.150  0.4789 -0.3165 -0.9642
  782MOL0     C 7838   6.235   0.179  11.059  0.3284 -1.1471 -0.0436
  782MOL0     C 7839   6.192   0.322  11.021 -0.0584  0.4361  0.5937
  782MOL0     C 7840   6.129   0.406  11.136  0.3016 -0.1785  0.0152
  782MOL0     C 7841   6.100   0.543  11.089  0.1627  0.4865  0.2119
  782MOL0     C 7842   6.227   0.624  11.084 -0.8162 -0.2902 -0.1328
  782MOL0     C 7843   6.332   0.692  11.074  0.3856  0.1065  0.0541
  782MOL0     C 7844   6.536   0.245  11.023  0.6083  0.4264  0.1265
  782MOL0     C 7845   6.667   0.212  10.978  0.5709 -0.8221  0.2842
  782MOL0     C 7846   6.739   0.324  10.902 -0.0408 -0.0363  0.0921
  782MOL0     H 7847   7.096  -0.016  10.809 -0.7425  0.7450  1.1884
  782MOL0     H 7848   7.256  -0.180  10.728  1.3644 -0.0648  2.0835
  782MOL0     H 7849   7.441  -0.515  10.702  0.7396  0.5948 -0.7690
  782MOL0     H 7850   7.450  -0.364  10.774  1.8509 -1.2446  0.3821
  782MOL0     H 7851   7.332  -0.276  10.546  0.9538  0.8903  1.5668
  782MOL0     H 7852   7.454  -0.396  10.509 -0.2981  2.2160 -2.3129
  782MOL0     H 7853   7.277  -0.569  10.523  1.1021  0.4205  0.2166
  782MOL0     H 7854   7.163  -0.445  10.559  1.8769 -0.3047  1.7684
  782MOL0     H 7855   7.201  -0.345  10.329  1.9199  0.0074 -2.4433
  782MOL0     H 7856   7.341  -0.447  10.313  1.1805  2.5705  2.1761
  782MOL0     H 7857   7.054  -0.492  10.354  0.7076  1.7609  0.6020
  782MOL0     H 7858   7.150  -0.644  10.346 -1.1643  0.0971  1.4296
  782MOL0     H 7859   7.089  -0.448  10.137 -1.0952 -1.0693  1.2716
  782MOL0     H 7860   7.242  -0.540  10.123  0.8952 -0.4422  2.8912
  782MOL0     H 7861   7.006  -0.633  10.004  2.5502 -1.5138 -1.5342
  782MOL0     H 7862   6.952  -0.646  10.165  0.5669  1.0504 -0.6934
  782MOL0     H 7863   7.218  -0.789  10.088 -0.0036 -0.1883  1.5016
  782MOL0     H 7864   7.094  -0.833  10.211  1.8466  0.8598  0.9078
  782MOL0     H 7865   6.861  -0.958  10.122 -1.8614 -1.3722 -1.6088
  782MOL0     H 7866   6.779  -1.137   9.815  0.6649 -0.6219 -0.3458
  782MOL0     H 7867   6.759  -1.182   9.993  0.2303 -0.1905  0.1335
  782MOL0     H 7868   6.838  -1.371   9.867  1.5361 -1.3667 -1.9667
  782MOL0     H 7869   6.984  -1.309   9.816 -0.6582 -2.7021 -0.5322
  782MOL0     H 7870   6.918  -1.378  10.102 -1.6841 -2.5364 -2.1302
  782MOL0     H 7871   7.031  -1.454  10.009 -0.9220 -0.5496 -1.0155
  782MOL0     H 7872   7.157  -1.222   9.986 -1.5309  0.7876 -1.3002
  782MOL0     H 7873   7.056  -1.187  10.132 -1.3045 -0.4474 -0.5012
  782MOL0     H 7874   7.387  -1.455  10.233  0.1577 -0.0813  2.8521
  782MOL0     H 7875   7.625  -1.504  10.220  2.3833 -0.2223 -0.2883
  782MOL0     H 7876   7.670  -1.428  10.362 -2.1787  0.5011  0.1103
  782MOL0     H 7877   7.756  -1.371  10.228  0.9909  1.5433  2.7744
  782MOL0     H 7878   7.922  -0.997   9.905  0.1661  1.1976 -0.9021
  782MOL0     H 7879   8.155  -0.893   9.923 -0.6510  2.4024  0.5626
  782MOL0     H 7880   8.346  -0.939  10.069  0.3304 -0.6609 -2.6460
  782MOL0     H 7881   8.348  -0.807   9.953  0.4318 -0.5967  0.5142
  782MOL0     H 7882   8.477  -0.766  10.220  2.5862  1.4693  1.0248
  782MOL0     H 7883   8.564  -0.848  10.096 -1.5096 -1.9018 -2.3888
  782MOL0     H 7884   8.471  -0.558  10.036  0.0997  0.4237 -1.4809
  782MOL0     H 7885   8.559  -0.657   9.940 -3.2309 -1.0353  0.1470
  782MOL0     H 7886   8.700  -0.675  10.187 -0.1156 -1.6362 -0.9745
  782MOL0     H 7887   8.626  -0.510  10.179 -1.2453  0.5113 -0.7620
  782MOL0     H 7888   8.798  -0.615   9.956  0.8460 -1.5475  1.0444
  782MOL0     H 7889   8.770  -0.443   9.998 -0.2884  0.2189  0.2814
  782MOL0     H 7890   8.975  -0.465  10.074  0.1810  1.2216  2.1802
  782MOL0     H 7891   8.949  -0.623  10.148 -2.7322 -0.7691  1.3698
  782MOL0     H 7892   8.812  -0.531  10.326 -0.2191 -0.6350 -0.5750
  782MOL0     H 7893   8.824  -0.367  10.253 -1.7658 -1.7770 -1.8296
  782MOL0     H 7894   9.073  -0.534  10.335 -1.3315 -1.8609 -2.1675
  782MOL0     H 7895   8.990  -0.422  10.448 -1.9729  0.3519 -0.3376
  782MOL0     H 7896   8.073  -0.767  10.311 -1.7465  2.5079 -0.9236
  782MOL0     H 7897   7.859  -0.887  10.313 -2.4154 -4.5383 -1.4499
  782MOL0     H 7898   7.492  -0.984  10.128  0.9818 -0.4124  0.7394
  782MOL0     H 7899   7.264  -1.077  10.094  0.3142 -0.2842 -1.4011
  782MOL0     H 7900   7.055  -0.497  10.922  2.3826  1.2576  1.7250
  782MOL0     H 7901   6.865  -0.340  10.972 -0.0395  1.5371 -0.6621
  782MOL0     H 7902   6.668  -0.107  11.093  1.7650  1.3630  0.6309
  782MOL0     H 7903   6.447  -0.036  11.177 -0.0301  2.2151  2.7766
  782MOL0     H 7904   6.241   0.114  10.971  1.0538 -1.3126  0.1228
  782MOL0     H 7905   6.148   0.140  11.113 -0.4451 -0.7560 -0.9703
  782MOL0     H 7906   6.125   0.318  10.935  1.9921 -1.8749 -1.0203
  782MOL0     H 7907   6.290   0.364  10.997 -1.0125  1.2611 -2.1661
  782MOL0     H 7908   6.042   0.350  11.173 -1.6416  3.6498  1.8063
  782MOL0     H 7909   6.205   0.413  11.215  0.2883  1.1468 -0.0743
  782MOL0     H 7910   6.043   0.587  11.171 -1.2822  1.3549 -1.1947
  782MOL0     H 7911   6.040   0.555  10.998  0.6176  3.3674  0.1879
  782MOL0     H 7912   6.428   0.737  11.088 -0.2976  1.6514  0.0051
  782MOL0     H 7913   6.511   0.350  11.015 -0.6808  0.2586  1.5213
  782MOL0     H 7914   6.669   0.408  10.898  0.6790  0.5400 -0.8614
  782MOL0     H 7915   6.823   0.367  10.958 -0.3036  0.6057  0.0053
  782MOL0     H 7916   6.777   0.300  10.803  1.8957 -1.2417  1.0678
  783MOL0     O 7917   7.396   1.943   7.916 -0.8576  0.1304  0.2043
  783MOL0     C 7918   7.440   2.055   7.877 -0.0194 -0.2519 -0.5511
  783MOL0     O 7919   7.560   2.075   7.818 -0.0903  0.0944 -0.4179
  783MOL0     C 7920   7.653   1.979   7.787  0.2151 -0.6399 -0.5401
  783MOL0     C 7921   7.634   1.838   7.764 -0.4962 -0.8556 -0.0055
  783MOL0     C 7922   7.744   1.768   7.718 -0.2172  0.5953 -0.0324
  783MOL0     C 7923   7.880   1.819   7.701 -0.2816  0.0892  0.7318
  783MOL0     O 7924   7.985   1.740   7.669  0.3578 -0.6035 -0.6199
  783MOL0     C 7925   7.961   1.604   7.631  0.8490  0.0268 -0.5248
  783MOL0     C 7926   8.085   1.556   7.573 -0.3991  0.9165  0.0484
  783MOL0     C 7927   8.102   1.403   7.568  0.1118 -0.0222 -0.1548
  783MOL0     C 7928   8.225   1.379   7.481 -0.8431  0.2204  0.7021
  783MOL0     C 7929   8.358   1.399   7.552 -0.2110  0.8122 -0.1770
  783MOL0     C 7930   8.406   1.267   7.629 -0.8002 -0.1743  0.1142
  783MOL0     C 7931   8.446   1.156   7.534  0.3810  0.3012 -0.0226
  783MOL0     C 7932   8.593   1.122   7.532 -0.1597  0.0151  0.2819
  783MOL0     N 7933   8.668   1.233   7.475 -0.2963 -0.7831  0.0815
  783MOL0     C 7934   8.760   1.313   7.544 -0.3497 -0.4707 -0.6991
  783MOL0     C 7935   8.818   1.398   7.451  0.3542  0.5252  0.7262
  783MOL0     C 7936   8.929   1.505   7.492  0.0152  0.3380 -0.2154
  783MOL0     C 7937   9.070   1.440   7.523  1.2264  0.4406  0.5788
  783MOL0     C 7938   9.182   1.525   7.563  0.5034  0.2734  0.3072
  783MOL0     C 7939   9.196   1.584   7.705 -0.0854  0.3508 -0.1274
  783MOL0     O 7940   9.073   1.644   7.760  0.2859  0.0177  0.2445
  783MOL0     C 7941   9.090   1.737   7.850  0.4062 -0.4577 -0.2562
  783MOL0     C 7942   9.009   1.857   7.846 -0.2713  0.1550 -0.6638
  783MOL0     C 7943   9.031   1.961   7.941 -0.7952  0.1445  0.4058
  783MOL0     C 7944   8.954   2.087   7.920 -0.4763  0.8825 -0.3846
  783MOL0     C 7945   9.128   1.946   8.047 -0.6163 -0.9537  0.5479
  783MOL0     C 7946   9.166   2.051   8.138 -1.3895  0.3175 -0.1978
  783MOL0     O 7947   9.191   2.021   8.263 -0.0525  0.1311  0.0012
  783MOL0     C 7948   9.186   2.132   8.344 -0.8318 -0.1823 -0.1744
  783MOL0     C 7949   9.068   2.163   8.406 -0.4195 -0.2485 -0.1870
  783MOL0     C 7950   9.054   2.268   8.493 -0.2428 -0.6889  0.0137
  783MOL0     C 7951   9.169   2.346   8.531 -0.9733 -0.0626 -0.7032
  783MOL0     O 7952   9.180   2.449   8.625 -0.6239  0.7231  0.1573
  783MOL0     C 7953   9.069   2.465   8.705  0.1410 -0.2820  0.0637
  783MOL0     C 7954   8.963   2.571   8.643 -0.5780  0.0363 -0.5019
  783MOL0     C 7955   8.901   2.659   8.749 -0.8231  0.1117  0.4696
  783MOL0     C 7956   8.810   2.591   8.850  0.5850  0.0803 -0.4456
  783MOL0     C 7957   8.756   2.695   8.945  0.3517 -0.4349  0.3861
  783MOL0     C 7958   8.842   2.706   9.074  0.4554 -0.3049  0.0465
  783MOL0     C 7959   8.783   2.807   9.173  0.2208  0.1843 -0.0152
  783MOL0     C 7960   8.836   2.783   9.310  0.1740 -0.4542  0.4342
  783MOL0    Cl 7961   9.010   2.816   9.326 -0.1575  0.2722 -0.0121
  783MOL0     C 7962   9.294   2.309   8.467  0.5086  0.7905 -0.1683
  783MOL0     C 7963   9.300   2.198   8.372 -0.2791 -0.9581  0.6769
  783MOL0     O 7964   9.176   2.167   8.097  0.0207 -0.2258 -0.3450
  783MOL0     C 7965   9.187   1.820   8.061 -0.4928  0.6100  0.8522
  783MOL0     C 7966   9.163   1.713   7.971 -0.7175 -0.6699 -0.2620
  783MOL0     N 7967   8.766   1.369   7.330  0.4932 -0.0594 -0.0139
  783MOL0     N 7968   8.677   1.273   7.340 -0.5358  0.2548 -0.6362
  783MOL0     C 7969   7.890   1.950   7.725  0.4587 -0.9741  0.0703
  783MOL0     C 7970   7.781   2.028   7.764 -0.1012 -0.2945 -0.2931
  783MOL0     C 7971   7.354   2.179   7.894 -0.6510 -0.3531  0.1866
  783MOL0     C 7972   7.412   2.299   7.854  0.2931 -0.1350 -0.6851
  783MOL0     C 7973   7.338   2.414   7.861  0.3054 -0.7957  0.4211
  783MOL0     C 7974   7.207   2.413   7.910 -0.4586  1.9807 -0.3983
  783MOL0     O 7975   7.148   2.535   7.925  0.0994  0.1690 -0.9140
  783MOL0     C 7976   7.004   2.544   7.939 -0.1738 -0.1524  0.8530
  783MOL0     C 7977   6.937   2.681   7.908  0.4227 -0.2784  0.5205
  783MOL0     C 7978   6.796   2.682   7.978 -0.1424 -0.0222  0.4595
  783MOL0     C 7979   6.704   2.792   7.918  0.6019  0.2502  0.2743
  783MOL0     C 7980   6.760   2.927   7.928  0.2300  0.5831  0.8767
  783MOL0     C 7981   6.805   3.038   7.957  0.1680  0.6248  1.0679
  783MOL0     C 7982   7.145   2.293   7.947  0.2261  0.0431  0.1071
  783MOL0     C 7983   7.216   2.171   7.932 -0.1590 -0.1309  0.3049
  783MOL0     C 7984   7.143   2.045   7.969 -1.1193  0.0409  0.1495
  783MOL0     H 7985   7.537   1.792   7.781 -1.0229  0.6300  1.1876
  783MOL0     H 7986   7.716   1.669   7.684  1.9342  0.1779 -0.7732
  783MOL0     H 7987   7.872   1.583   7.571 -0.8709 -0.8287  2.1437
  783MOL0     H 7988   7.946   1.543   7.720 -1.1202 -1.3375 -1.7215
  783MOL0     H 7989   8.093   1.601   7.474  0.4372  4.3863  1.5452
  783MOL0     H 7990   8.167   1.589   7.638 -0.7319  1.5188  0.1713
  783MOL0     H 7991   8.094   1.355   7.666  1.3367 -0.9629 -0.4966
  783MOL0     H 7992   8.013   1.370   7.515  0.2960 -0.5274 -0.1483
  783MOL0     H 7993   8.217   1.276   7.443 -1.1854  0.6467 -0.4146
  783MOL0     H 7994   8.209   1.437   7.390 -3.8018 -1.6228 -0.0850
  783MOL0     H 7995   8.334   1.484   7.617 -2.0202  0.8760 -0.8752
  783MOL0     H 7996   8.438   1.431   7.483  0.9296 -0.3482  0.5718
  783MOL0     H 7997   8.495   1.292   7.687  0.0884 -2.9561  0.1162
  783MOL0     H 7998   8.328   1.235   7.698 -0.2945 -2.1247 -0.1491
  783MOL0     H 7999   8.417   1.186   7.433 -0.1755 -0.5605 -0.1293
  783MOL0     H 8000   8.389   1.064   7.553 -1.4814  1.2184 -0.8864
  783MOL0     H 8001   8.636   1.102   7.631  2.9905  0.7022 -0.8465
  783MOL0     H 8002   8.611   1.031   7.475  2.7514 -0.6831  2.1163
  783MOL0     H 8003   8.770   1.316   7.652 -0.1420 -1.1038 -0.6925
  783MOL0     H 8004   8.898   1.558   7.584 -0.2262 -0.3159  0.0858
  783MOL0     H 8005   8.940   1.577   7.411  0.3232  0.2538 -0.2468
  783MOL0     H 8006   9.062   1.362   7.600 -0.5950  0.8446  0.8337
  783MOL0     H 8007   9.095   1.387   7.431 -0.9072 -0.7390  0.6096
  783MOL0     H 8008   9.270   1.461   7.552 -2.1316 -3.3386 -2.1712
  783MOL0     H 8009   9.193   1.601   7.484 -1.8363  1.5254  1.0844
  783MOL0     H 8010   9.228   1.507   7.776  1.6932 -0.8390 -2.0949
  783MOL0     H 8011   9.277   1.658   7.706  2.1099 -1.9478  0.2407
  783MOL0     H 8012   8.948   1.862   7.757 -1.4887 -0.5186  0.1140
  783MOL0     H 8013   8.952   2.132   8.020  3.4596 -0.1572  0.3268
  783MOL0     H 8014   8.855   2.073   7.876  1.2027 -0.8542 -4.0131
  783MOL0     H 8015   9.007   2.153   7.851 -1.4138  0.1150 -1.8810
  783MOL0     H 8016   8.980   2.102   8.388  0.0600 -1.3966  1.1887
  783MOL0     H 8017   8.953   2.271   8.533  0.1527 -1.5336  1.1445
  783MOL0     H 8018   9.012   2.374   8.727  0.7644 -1.8218 -3.8245
  783MOL0     H 8019   9.101   2.514   8.797  2.8976  2.0627 -1.9564
  783MOL0     H 8020   9.012   2.635   8.569  2.4114  0.5410  1.6794
  783MOL0     H 8021   8.872   2.524   8.605 -1.7216  2.2621 -0.6690
  783MOL0     H 8022   8.843   2.731   8.690  0.2641 -0.4802 -1.4284
  783MOL0     H 8023   8.980   2.709   8.805  0.2689 -0.5726 -0.3948
  783MOL0     H 8024   8.871   2.508   8.888  1.6261  0.0070 -2.1725
  783MOL0     H 8025   8.733   2.531   8.802 -0.7347 -0.9756  2.6844
  783MOL0     H 8026   8.748   2.799   8.913  1.7634 -0.3308  0.3178
  783MOL0     H 8027   8.653   2.667   8.970  0.5337  0.4569  2.3133
  783MOL0     H 8028   8.938   2.751   9.048  0.1959  0.7946  0.9146
  783MOL0     H 8029   8.859   2.613   9.128  2.2071  0.5517  1.0562
  783MOL0     H 8030   8.674   2.802   9.166  0.2828  1.2754 -3.3160
  783MOL0     H 8031   8.815   2.906   9.140 -0.8617 -0.2202 -2.5174
  783MOL0     H 8032   8.816   2.677   9.329  1.4998 -0.7650  0.1440
  783MOL0     H 8033   8.779   2.854   9.372  0.2981 -0.2208  0.2800
  783MOL0     H 8034   9.379   2.362   8.509  0.2362  0.2354  1.1304
  783MOL0     H 8035   9.386   2.162   8.317  0.2675 -1.9457  2.1238
  783MOL0     H 8036   9.265   1.799   8.134  1.9013 -0.5635 -1.8442
  783MOL0     H 8037   9.212   1.618   7.990 -0.2123  0.1419  3.2062
  783MOL0     H 8038   7.988   1.996   7.715  0.1387 -0.3135 -0.1163
  783MOL0     H 8039   7.786   2.136   7.770  1.1660 -0.1219 -3.0232
  783MOL0     H 8040   7.512   2.315   7.817  0.8744  0.8208  1.1709
  783MOL0     H 8041   7.379   2.511   7.834  2.2865 -1.6101  0.3363
  783MOL0     H 8042   6.960   2.465   7.878  0.3889  1.3822 -1.6657
  783MOL0     H 8043   6.969   2.516   8.039  0.2432  0.5134  1.1965
  783MOL0     H 8044   6.918   2.688   7.800  3.7833 -0.1523 -0.1865
  783MOL0     H 8045   7.009   2.762   7.923  0.1712  1.1484 -4.2402
  783MOL0     H 8046   6.750   2.588   7.944  1.8135  0.3137 -3.7489
  783MOL0     H 8047   6.798   2.684   8.087 -0.4373 -1.8452  0.5315
  783MOL0     H 8048   6.610   2.798   7.974  2.7775 -0.5788  4.3177
  783MOL0     H 8049   6.683   2.768   7.813  0.2791 -2.5988  0.9183
  783MOL0     H 8050   6.848   3.132   7.982  1.5822  0.8967 -1.9260
  783MOL0     H 8051   7.042   2.289   7.980  0.0618 -2.4393 -0.5544
  783MOL0     H 8052   7.119   1.987   7.880 -3.2626 -0.2182  0.8579
  783MOL0     H 8053   7.204   1.982   8.034 -0.0859 -1.1124 -1.8260
  783MOL0     H 8054   7.058   2.071   8.032 -1.1518 -2.1279  1.0546
  784MOL0     O 8055   9.464   7.481   0.223  0.3102 -0.0140  1.1505
  784MOL0     C 8056   9.444   7.554   0.319  0.0737  0.0674  0.3938
  784MOL0     O 8057   9.540   7.632   0.370 -0.0113  0.0192 -0.1335
  784MOL0     C 8058   9.660   7.606   0.314  0.0144  0.0455  0.7182
  784MOL0     C 8059   9.708   7.674   0.202 -0.1327  0.3441  0.4483
  784MOL0     C 8060   9.838   7.651   0.153 -0.3915  0.4567 -0.5524
  784MOL0     C 8061   9.920   7.559   0.232  0.3586  0.2458  0.4195
  784MOL0     O 8062  10.042   7.521   0.180 -0.2317 -0.4599  0.0389
  784MOL0     C 8063  10.127   7.616   0.120  0.2036  0.2540  0.5450
  784MOL0     C 8064  10.261   7.561   0.105 -0.2751 -0.4969 -0.7068
  784MOL0     C 8065  10.333   7.508   0.240  0.7170  0.4665  1.3168
  784MOL0     C 8066  10.476   7.456   0.207  0.5325  0.0602  0.3566
  784MOL0     C 8067  10.554   7.445   0.335 -0.8365  0.0880 -0.3116
  784MOL0     C 8068  10.519   7.330   0.429  0.1857 -0.1983  0.0503
  784MOL0     C 8069  10.597   7.349   0.559 -0.5058 -0.1624  0.0054
  784MOL0     C 8070  10.742   7.319   0.548 -0.5338  0.4582 -0.0833
  784MOL0     N 8071  10.765   7.178   0.538 -0.4134  0.2334  0.0159
  784MOL0     C 8072  10.857   7.104   0.466  0.3885 -0.4623  0.4656
  784MOL0     C 8073  10.825   6.975   0.491  0.6469  0.1467 -0.4020
  784MOL0     C 8074  10.890   6.865   0.408  0.0866 -0.4507  0.3045
  784MOL0     C 8075  11.036   6.857   0.425 -0.0293  1.0680 -0.0766
  784MOL0     C 8076  11.076   6.820   0.577 -0.1852 -1.2367 -0.4144
  784MOL0     C 8077  11.227   6.806   0.592 -0.1374 -0.1424 -0.0965
  784MOL0     O 8078  11.305   6.897   0.516 -0.0314 -0.2515  0.8938
  784MOL0     C 8079  11.443   6.889   0.524  0.3049  0.8347  0.6726
  784MOL0     C 8080  11.509   6.785   0.594  1.0979 -0.7036  0.8489
  784MOL0     C 8081  11.644   6.766   0.585 -0.6245 -0.3050 -0.2379
  784MOL0     C 8082  11.715   6.651   0.655  1.0493  1.1491 -0.3726
  784MOL0     C 8083  11.719   6.859   0.515  0.3680 -0.1990  0.4657
  784MOL0     C 8084  11.866   6.862   0.500 -0.3096  0.7152  0.5307
  784MOL0     O 8085  11.938   6.800   0.592 -0.5869  0.3719  0.3291
  784MOL0     C 8086  12.070   6.813   0.576 -1.0541 -0.5837 -0.3901
  784MOL0     C 8087  12.135   6.705   0.515  0.5451 -0.6875  0.5723
  784MOL0     C 8088  12.268   6.708   0.490 -1.2819  0.0299  0.3077
  784MOL0     C 8089  12.350   6.822   0.518  1.0242 -0.4856 -0.0683
  784MOL0     O 8090  12.475   6.839   0.490  0.5072 -0.3407  0.0020
  784MOL0     C 8091  12.545   6.718   0.479 -0.8116  0.2751  0.3957
  784MOL0     C 8092  12.697   6.757   0.492  0.1915  0.0873 -0.0307
  784MOL0     C 8093  12.738   6.835   0.626  0.1717 -0.4096 -0.4567
  784MOL0     C 8094  12.888   6.864   0.632  0.0780  0.1610  0.1042
  784MOL0     C 8095  12.923   6.935   0.761  0.6082  1.3009 -0.3336
  784MOL0     C 8096  13.067   6.949   0.772 -0.4002  0.2577  0.6434
  784MOL0     C 8097  13.115   7.012   0.905 -0.0900 -1.5094 -0.8338
  784MOL0     C 8098  13.255   6.971   0.959  0.8304  0.4230 -0.4164
  784MOL0    Cl 8099  13.259   6.801   1.041  0.1984 -0.1480  0.3171
  784MOL0     C 8100  12.277   6.926   0.581 -0.1988  0.2496 -0.3093
  784MOL0     C 8101  12.146   6.924   0.611  0.4248  0.7538  0.1727
  784MOL0     O 8102  11.914   6.924   0.403 -0.4407  1.0271 -0.4149
  784MOL0     C 8103  11.650   6.970   0.460  0.3011  0.1431  0.5148
  784MOL0     C 8104  11.519   6.986   0.459 -0.4874 -0.7639 -0.5335
  784MOL0     N 8105  10.718   6.970   0.576 -0.1844  0.7174 -0.4586
  784MOL0     N 8106  10.685   7.087   0.605  0.6972  0.3014 -0.3229
  784MOL0     C 8107   9.878   7.495   0.344  0.0541  1.6698  0.1469
  784MOL0     C 8108   9.747   7.517   0.384  0.9150  0.3773  0.3716
  784MOL0     C 8109   9.308   7.571   0.359 -0.3978  0.5325  0.6786
  784MOL0     C 8110   9.206   7.528   0.271 -0.1950 -0.6173  0.6473
  784MOL0     C 8111   9.069   7.555   0.298 -0.3826 -0.1186  0.2011
  784MOL0     C 8112   9.030   7.608   0.423  0.1505  0.1437  0.3925
  784MOL0     O 8113   8.905   7.652   0.446 -0.2806  0.8828  0.1212
  784MOL0     C 8114   8.895   7.794   0.439 -0.0672 -0.0978  0.3156
  784MOL0     C 8115   8.754   7.853   0.476  0.1130 -0.3270  0.8686
  784MOL0     C 8116   8.645   7.777   0.396 -0.4944  0.0521  0.7206
  784MOL0     C 8117   8.619   7.822   0.253  0.4072  0.5461  0.4288
  784MOL0     C 8118   8.556   7.958   0.255 -0.0190 -0.2183  0.1936
  784MOL0     C 8119   8.492   8.061   0.277 -0.2214  0.7148  0.5843
  784MOL0     C 8120   9.132   7.633   0.520 -0.2231 -0.5577  0.5622
  784MOL0     C 8121   9.272   7.602   0.493  0.3357 -0.3597 -0.5877
  784MOL0     C 8122   9.375   7.595   0.606 -0.1940  0.4619  0.4988
  784MOL0     H 8123   9.654   7.751   0.149  1.0051  1.7112  1.2077
  784MOL0     H 8124   9.851   7.702   0.059 -2.0369 -0.3174 -1.2310
  784MOL0     H 8125  10.130   7.704   0.185 -0.0604  2.9556 -2.8236
  784MOL0     H 8126  10.084   7.632   0.021  2.5849 -2.9429 -1.1950
  784MOL0     H 8127  10.252   7.477   0.035  4.1128  1.6182 -4.2895
  784MOL0     H 8128  10.327   7.629   0.052 -1.7029  0.1029 -1.7825
  784MOL0     H 8129  10.344   7.595   0.306  0.0129  0.0409  2.0129
  784MOL0     H 8130  10.263   7.446   0.297  1.6345 -3.4279 -1.4030
  784MOL0     H 8131  10.461   7.361   0.155  1.0788  0.4102 -0.4486
  784MOL0     H 8132  10.530   7.528   0.146 -0.5946  1.3836  0.8675
  784MOL0     H 8133  10.535   7.537   0.392 -0.8419  0.4135 -0.8396
  784MOL0     H 8134  10.658   7.424   0.310  0.0524  0.7250  2.4685
  784MOL0     H 8135  10.415   7.335   0.461  0.2365  1.8194  0.0179
  784MOL0     H 8136  10.543   7.238   0.374 -2.2659  0.6080 -2.6027
  784MOL0     H 8137  10.553   7.295   0.643  3.0196  0.6697  2.6324
  784MOL0     H 8138  10.595   7.452   0.596 -1.1693  0.8174 -2.5383
  784MOL0     H 8139  10.781   7.364   0.457  0.1406 -1.1775 -0.6315
  784MOL0     H 8140  10.791   7.364   0.635 -0.6822 -1.2633  0.9533
  784MOL0     H 8141  10.934   7.137   0.397  1.6594 -0.6936  1.7478
  784MOL0     H 8142  10.871   6.882   0.302 -0.6318 -0.4717  0.4243
  784MOL0     H 8143  10.832   6.776   0.436  0.0137 -0.4654  0.1090
  784MOL0     H 8144  11.081   6.786   0.355  2.4971  1.2242  1.2653
  784MOL0     H 8145  11.083   6.954   0.406  0.9464  0.4409 -0.9981
  784MOL0     H 8146  11.043   6.897   0.646  0.5297  0.8185 -2.2453
  784MOL0     H 8147  11.023   6.728   0.604 -2.6986 -0.2527 -1.6465
  784MOL0     H 8148  11.251   6.817   0.698  1.9896 -1.8419 -0.3279
  784MOL0     H 8149  11.267   6.705   0.576  3.5965  1.0269  0.8322
  784MOL0     H 8150  11.464   6.710   0.658 -0.2633  2.4948  4.0032
  784MOL0     H 8151  11.646   6.572   0.686  0.4810  1.8661  0.2218
  784MOL0     H 8152  11.755   6.678   0.754  2.2342  2.1579 -1.1049
  784MOL0     H 8153  11.788   6.609   0.586 -0.7970 -2.4316 -0.3435
  784MOL0     H 8154  12.065   6.626   0.491  1.1176 -2.4764  4.0302
  784MOL0     H 8155  12.309   6.628   0.429 -1.7486  0.8597 -1.1213
  784MOL0     H 8156  12.514   6.648   0.558 -0.5664  1.9951  2.0931
  784MOL0     H 8157  12.531   6.678   0.378  0.4733 -1.0189  0.7027
  784MOL0     H 8158  12.755   6.665   0.481  1.4001  0.7174  0.8200
  784MOL0     H 8159  12.723   6.823   0.410  2.7384  0.4762  1.0031
  784MOL0     H 8160  12.720   6.767   0.709 -0.2158  1.1267  0.7796
  784MOL0     H 8161  12.678   6.924   0.647  2.4796  0.7952  1.5802
  784MOL0     H 8162  12.917   6.927   0.548  0.0506  0.3525  0.2363
  784MOL0     H 8163  12.940   6.768   0.627  3.5902  1.9445 -1.1594
  784MOL0     H 8164  12.881   7.036   0.757  1.0686  1.5252  0.3142
  784MOL0     H 8165  12.894   6.878   0.850  3.6065 -1.1361 -0.7753
  784MOL0     H 8166  13.105   7.012   0.691  1.1752 -0.8295  0.4876
  784MOL0     H 8167  13.115   6.852   0.761  0.4716  0.6989  0.4196
  784MOL0     H 8168  13.041   7.002   0.985 -0.4188  1.4153 -0.6487
  784MOL0     H 8169  13.119   7.120   0.887  1.5993 -0.9146  2.4408
  784MOL0     H 8170  13.284   7.058   1.018  1.4742  0.4140 -0.7113
  784MOL0     H 8171  13.320   6.965   0.871  0.4242  0.8696 -0.7533
  784MOL0     H 8172  12.340   7.012   0.603  1.1426 -1.1852  1.7549
  784MOL0     H 8173  12.095   7.015   0.641 -1.5898 -0.5594  0.9729
  784MOL0     H 8174  11.707   7.043   0.402  0.7113 -2.2951 -2.4586
  784MOL0     H 8175  11.474   7.073   0.414  2.2543  2.5997  2.5851
  784MOL0     H 8176   9.952   7.431   0.391 -0.6272  1.3218  0.7680
  784MOL0     H 8177   9.703   7.468   0.470  1.9292 -1.3693 -0.0553
  784MOL0     H 8178   9.240   7.494   0.173  1.5085  0.6307  0.7599
  784MOL0     H 8179   8.993   7.522   0.227 -0.4175 -3.1978  1.5307
  784MOL0     H 8180   8.976   7.830   0.503  1.0019 -0.1198 -0.9691
  784MOL0     H 8181   8.924   7.831   0.339 -1.8574  2.5682  0.6638
  784MOL0     H 8182   8.750   7.960   0.453 -1.3470 -0.8676 -1.8906
  784MOL0     H 8183   8.727   7.831   0.579 -0.9080 -1.5392  0.3795
  784MOL0     H 8184   8.671   7.671   0.402 -0.7367 -0.0216  0.4611
  784MOL0     H 8185   8.555   7.792   0.456 -0.6987 -0.0117  0.4309
  784MOL0     H 8186   8.550   7.753   0.205 -0.7331  2.2792 -0.5375
  784MOL0     H 8187   8.716   7.816   0.203  1.6083 -0.0271  2.6904
  784MOL0     H 8188   8.424   8.142   0.297  0.1958  0.9833  0.9481
  784MOL0     H 8189   9.117   7.677   0.617  2.1753 -0.6475  1.0269
  784MOL0     H 8190   9.326   7.617   0.701 -2.3407 -0.1993 -0.4006
  784MOL0     H 8191   9.421   7.496   0.614 -1.0943 -0.1918 -1.6468
  784MOL0     H 8192   9.455   7.670   0.597  2.6464 -2.1354  2.2419
  785MOL0     O 8193   8.204  10.371   5.876 -0.4777  0.3103 -0.3481
  785MOL0     C 8194   8.125  10.454   5.936  0.0288 -0.5070  1.1464
  785MOL0     O 8195   8.163  10.583   5.965  0.7336  0.1377 -0.0012
  785MOL0     C 8196   8.295  10.626   5.970  0.0107  0.9462  0.2337
  785MOL0     C 8197   8.338  10.749   5.919 -0.7828 -0.0769  0.8963
  785MOL0     C 8198   8.473  10.785   5.915 -0.1314  0.3257  0.0763
  785MOL0     C 8199   8.573  10.700   5.961  0.4630 -0.4383  0.1826
  785MOL0     O 8200   8.699  10.748   5.968 -0.9283  0.3646  0.3196
  785MOL0     C 8201   8.812  10.661   5.926  0.1064  0.1031  0.2382
  785MOL0     C 8202   8.949  10.737   5.929 -0.3754 -0.4318  0.0069
  785MOL0     C 8203   9.047  10.665   5.848  0.1035 -0.0745  0.7301
  785MOL0     C 8204   9.076  10.522   5.895 -0.3154 -0.5673 -0.2485
  785MOL0     C 8205   9.198  10.447   5.814  0.3447 -0.3018 -0.4681
  785MOL0     C 8206   9.198  10.453   5.664 -0.0581  0.5084  0.7273
  785MOL0     C 8207   9.065  10.407   5.604  0.2248  0.3185  0.5776
  785MOL0     C 8208   9.070  10.391   5.447  0.4059 -0.4530  0.3683
  785MOL0     N 8209   9.182  10.302   5.403  0.4419  0.7415 -0.0059
  785MOL0     C 8210   9.186  10.173   5.440 -0.5878 -0.2849 -0.2135
  785MOL0     C 8211   9.291  10.113   5.357  0.9042 -0.1701  0.2145
  785MOL0     C 8212   9.353   9.976   5.363  0.5590 -0.5150  0.4637
  785MOL0     C 8213   9.483   9.999   5.438  0.1067  0.1837 -0.6507
  785MOL0     C 8214   9.572   9.873   5.444  0.4950  0.0351 -0.2547
  785MOL0     C 8215   9.703   9.896   5.523 -0.4383  0.1882  0.1209
  785MOL0     O 8216   9.720  10.023   5.592  0.6009 -0.2113 -0.4578
  785MOL0     C 8217   9.819  10.031   5.689 -0.2443 -0.7909 -0.6052
  785MOL0     C 8218   9.849  10.162   5.730 -0.2260 -0.2389  0.1960
  785MOL0     C 8219   9.963  10.181   5.812 -0.0155 -0.3610  0.2907
  785MOL0     C 8220   9.984  10.325   5.853  0.4172  0.5949 -0.2743
  785MOL0     C 8221  10.050  10.079   5.845  0.2347  0.3273 -0.1055
  785MOL0     C 8222  10.171  10.091   5.931  0.6954 -0.1376 -0.2167
  785MOL0     O 8223  10.230   9.982   5.986  0.6032  0.0479  1.0651
  785MOL0     C 8224  10.337   9.994   6.061 -0.0093 -0.4044 -0.7286
  785MOL0     C 8225  10.466  10.003   6.003  0.0145  0.6335 -0.4658
  785MOL0     C 8226  10.579  10.015   6.077 -0.5330 -1.2813  0.5836
  785MOL0     C 8227  10.568  10.033   6.219 -0.3407 -0.2062 -0.9043
  785MOL0     O 8228  10.672  10.034   6.310  0.7024  0.5396  0.3709
  785MOL0     C 8229  10.807  10.060   6.256  0.3484  0.4982 -0.3786
  785MOL0     C 8230  10.903  10.064   6.379  0.2857 -0.0081  0.2602
  785MOL0     C 8231  11.052  10.116   6.350 -0.9604  0.4720 -0.1901
  785MOL0     C 8232  11.140  10.120   6.485 -0.5787  0.1802 -0.1890
  785MOL0     C 8233  11.265  10.199   6.459 -0.7375  0.0370  0.0434
  785MOL0     C 8234  11.358  10.211   6.589  0.2838  0.0559 -0.1738
  785MOL0     C 8235  11.486  10.286   6.570 -0.1322 -0.6119  0.5802
  785MOL0     C 8236  11.590  10.207   6.487 -0.1412  0.1462 -0.3091
  785MOL0    Cl 8237  11.726  10.320   6.473  0.5989 -0.0866 -0.0742
  785MOL0     C 8238  10.440  10.021   6.278  0.1304  0.3274 -0.4022
  785MOL0     C 8239  10.327  10.014   6.199  0.8760  0.1650  1.4493
  785MOL0     O 8240  10.220  10.207   5.938  0.2543 -0.1009 -0.1496
  785MOL0     C 8241  10.019   9.955   5.794  0.0622  0.3164 -0.9555
  785MOL0     C 8242   9.909   9.934   5.718 -0.0923 -0.4329 -0.3411
  785MOL0     N 8243   9.355  10.220   5.290 -0.4375  0.0037  0.6142
  785MOL0     N 8244   9.285  10.324   5.314  0.4363  0.2881  0.2773
  785MOL0     C 8245   8.539  10.568   6.006 -0.3310  0.5127  0.3453
  785MOL0     C 8246   8.398  10.541   6.023 -0.1599  0.2829 -0.2689
  785MOL0     C 8247   7.980  10.423   5.962 -0.7851 -0.3939 -0.1307
  785MOL0     C 8248   7.926  10.477   6.079 -1.1247 -1.1925  1.3934
  785MOL0     C 8249   7.792  10.460   6.117  0.4636  0.1005  1.3853
  785MOL0     C 8250   7.714  10.383   6.027  0.2796  0.1796  0.8227
  785MOL0     O 8251   7.582  10.350   6.041  0.5411  0.1334  0.4954
  785MOL0     C 8252   7.535  10.313   6.171 -0.0652  0.0155 -0.0771
  785MOL0     C 8253   7.470  10.435   6.241 -0.5378  0.2137  0.2222
  785MOL0     C 8254   7.382  10.399   6.360 -0.4318  0.2220  0.4228
  785MOL0     C 8255   7.407  10.286   6.452 -0.4102 -0.3080 -0.0489
  785MOL0     C 8256   7.530  10.284   6.532  0.2985 -0.5299  0.5377
  785MOL0     C 8257   7.635  10.263   6.583  0.5136 -0.1318 -0.9125
  785MOL0     C 8258   7.765  10.332   5.909  0.3616  0.7397  0.2694
  785MOL0     C 8259   7.902  10.340   5.881  0.0206 -0.6339 -0.3621
  785MOL0     C 8260   7.951  10.274   5.763  0.2823 -0.3486 -0.0685
  785MOL0     H 8261   8.263  10.810   5.869  1.1633  1.7945  0.1322
  785MOL0     H 8262   8.503  10.884   5.884  2.3359 -0.0239  1.1693
  785MOL0     H 8263   8.775  10.624   5.829  1.0607  1.6315 -0.7619
  785MOL0     H 8264   8.821  10.567   5.980  4.0381  0.2109  0.0881
  785MOL0     H 8265   8.935  10.837   5.888 -0.0387 -0.6951 -0.7579
  785MOL0     H 8266   8.984  10.742   6.033  2.1541 -2.3265 -0.6493
  785MOL0     H 8267   9.003  10.658   5.748  3.2231 -1.4016 -0.6832
  785MOL0     H 8268   9.138  10.727   5.847 -1.0006  1.6237  0.3811
  785MOL0     H 8269   9.096  10.522   6.003  2.6118 -1.0614 -0.7092
  785MOL0     H 8270   8.989  10.457   5.881 -1.0603  0.8173 -2.5413
  785MOL0     H 8271   9.193  10.340   5.836 -1.6155 -0.2668 -0.5813
  785MOL0     H 8272   9.289  10.493   5.852 -0.4269  0.3021  0.7297
  785MOL0     H 8273   9.212  10.552   5.619 -3.0230  0.7212  0.0325
  785MOL0     H 8274   9.278  10.386   5.632  1.6226  1.8161  2.0127
  785MOL0     H 8275   8.988  10.484   5.613 -1.3138 -1.2818  1.8188
  785MOL0     H 8276   9.042  10.310   5.649  2.5428 -1.0903 -1.0265
  785MOL0     H 8277   8.972  10.368   5.403  1.0561  1.4359 -2.2953
  785MOL0     H 8278   9.100  10.490   5.413  0.7588 -0.1662  1.4750
  785MOL0     H 8279   9.137  10.107   5.512  0.3009  1.0864  1.7437
  785MOL0     H 8280   9.386   9.943   5.264  3.3699  0.8073  0.8492
  785MOL0     H 8281   9.283   9.898   5.395  1.6103 -1.0806  1.4574
  785MOL0     H 8282   9.540  10.079   5.389 -0.4896  0.1262 -1.4604
  785MOL0     H 8283   9.457  10.038   5.536 -1.4860 -0.5003 -0.7665
  785MOL0     H 8284   9.499   9.800   5.481 -2.0712  1.1356 -2.7099
  785MOL0     H 8285   9.598   9.841   5.342  0.9010 -0.7067  0.0769
  785MOL0     H 8286   9.705   9.819   5.599 -2.7358 -0.4333 -0.3589
  785MOL0     H 8287   9.790   9.883   5.457  0.2878 -1.7100  1.3777
  785MOL0     H 8288   9.791  10.248   5.699  0.7974 -0.3881 -2.3555
  785MOL0     H 8289  10.002  10.329   5.960 -2.0096  0.1097  0.2307
  785MOL0     H 8290   9.899  10.390   5.829  0.7465  1.0838 -0.1112
  785MOL0     H 8291  10.076  10.352   5.800 -0.1161 -0.4268 -1.8064
  785MOL0     H 8292  10.469   9.996   5.895 -0.5954 -1.0039 -0.4159
  785MOL0     H 8293  10.677  10.014   6.030 -1.4177  3.9310 -2.0159
  785MOL0     H 8294  10.842   9.974   6.198  3.3015  1.6774 -0.4972
  785MOL0     H 8295  10.812  10.153   6.198 -2.0000  0.3774 -0.9034
  785MOL0     H 8296  10.862  10.127   6.458  2.8011  1.5793  0.4153
  785MOL0     H 8297  10.916   9.963   6.420  0.0985 -0.5933 -1.0573
  785MOL0     H 8298  11.036  10.210   6.296  0.6610 -0.2712 -2.0894
  785MOL0     H 8299  11.108  10.059   6.275 -0.4623  0.9384 -0.1786
  785MOL0     H 8300  11.169  10.025   6.531  0.5790  0.1254 -1.0074
  785MOL0     H 8301  11.077  10.174   6.557  1.4556  2.4255  0.0098
  785MOL0     H 8302  11.321  10.156   6.375  0.6420 -2.1841  1.9816
  785MOL0     H 8303  11.240  10.298   6.420 -0.2264  0.6114  1.1473
  785MOL0     H 8304  11.396  10.114   6.622  0.8287  0.8239  1.5844
  785MOL0     H 8305  11.289  10.232   6.672  0.5941 -1.9560  0.6697
  785MOL0     H 8306  11.542  10.306   6.662  1.9320 -0.4247 -0.6569
  785MOL0     H 8307  11.474  10.384   6.522  0.2990 -0.5522  0.5902
  785MOL0     H 8308  11.545  10.182   6.390  0.1099  0.9707 -0.6503
  785MOL0     H 8309  11.612  10.114   6.540 -3.9632  0.0803  1.4943
  785MOL0     H 8310  10.433  10.022   6.386 -0.4614 -1.2920 -0.3913
  785MOL0     H 8311  10.228  10.025   6.243  1.6449  2.3776  2.7770
  785MOL0     H 8312  10.082   9.869   5.812 -1.2084 -0.6941 -1.1267
  785MOL0     H 8313   9.902   9.836   5.672  2.1028 -0.8269  0.0241
  785MOL0     H 8314   8.619  10.509   6.049  0.1071  0.3102 -0.7230
  785MOL0     H 8315   8.365  10.446   6.063  3.5630 -0.8325  0.4476
  785MOL0     H 8316   7.993  10.528   6.148 -0.6827  0.7160 -0.3661
  785MOL0     H 8317   7.758  10.490   6.216  3.2624  2.5018  1.7863
  785MOL0     H 8318   7.457  10.237   6.164 -1.6903  1.3258  2.2955
  785MOL0     H 8319   7.620  10.262   6.218 -0.6914 -1.6091 -0.6257
  785MOL0     H 8320   7.416  10.479   6.157  0.4151 -2.5600 -1.9690
  785MOL0     H 8321   7.546  10.503   6.281  0.1969 -1.0965  1.1428
  785MOL0     H 8322   7.383  10.486   6.426 -0.7833 -1.9832  3.5647
  785MOL0     H 8323   7.280  10.386   6.325 -0.1785 -0.9690  0.0467
  785MOL0     H 8324   7.386  10.195   6.396 -3.1455  0.3007 -0.1533
  785MOL0     H 8325   7.327  10.282   6.526 -2.1594  0.2294 -1.8309
  785MOL0     H 8326   7.734  10.242   6.618  1.2622 -1.4411 -3.6160
  785MOL0     H 8327   7.703  10.282   5.835  1.0987  0.1394  0.0471
  785MOL0     H 8328   7.867  10.228   5.711  0.1677  0.3332 -0.4971
  785MOL0     H 8329   7.983  10.358   5.701 -2.2332  0.7226 -0.0366
  785MOL0     H 8330   8.032  10.204   5.787  1.3877  0.8182 -0.2642
  786MOL0     O 8331   6.726   9.474   4.557 -0.3956  0.3652  0.3277
  786MOL0     C 8332   6.791   9.471   4.665 -0.0785 -0.4215 -0.0878
  786MOL0     O 8333   6.917   9.523   4.685 -0.3357 -0.3031  0.4456
  786MOL0     C 8334   6.986   9.550   4.575  0.1448 -0.1648  1.1001
  786MOL0     C 8335   7.065   9.670   4.574  0.2369  0.0171  0.1837
  786MOL0     C 8336   7.146   9.701   4.462  0.1791  0.0102 -0.2505
  786MOL0     C 8337   7.149   9.615   4.346 -0.2226  0.1698  0.5790
  786MOL0     O 8338   7.210   9.645   4.222  0.1433 -0.4884  0.3799
  786MOL0     C 8339   7.330   9.726   4.224  0.0803  0.1790  0.4595
  786MOL0     C 8340   7.391   9.714   4.083  0.5855 -0.3063  0.5909
  786MOL0     C 8341   7.540   9.737   4.092 -0.7239  0.0276  0.4416
  786MOL0     C 8342   7.612   9.731   3.954 -0.5087 -0.7839  0.0631
  786MOL0     C 8343   7.555   9.825   3.848 -0.4128 -0.7007  0.2572
  786MOL0     C 8344   7.642   9.825   3.719 -0.3148 -0.5124 -0.2395
  786MOL0     C 8345   7.788   9.883   3.732  0.4698  0.2857 -0.7143
  786MOL0     C 8346   7.781  10.031   3.766 -0.4622 -0.2444 -0.2126
  786MOL0     N 8347   7.904  10.108   3.733 -0.5016 -0.4234  0.9223
  786MOL0     C 8348   8.022  10.118   3.807  0.7550 -0.3611  0.4785
  786MOL0     C 8349   8.108  10.177   3.720  0.4116  0.2687 -0.2843
  786MOL0     C 8350   8.246  10.230   3.749 -0.1430  0.0638  0.2771
  786MOL0     C 8351   8.271  10.373   3.683  0.4817  1.1036  0.4329
  786MOL0     C 8352   8.406  10.439   3.731 -1.0676  0.1007  1.4064
  786MOL0     C 8353   8.532  10.404   3.658 -0.9620 -0.2792 -0.0073
  786MOL0     O 8354   8.657  10.435   3.729  0.4091 -0.4635 -0.1579
  786MOL0     C 8355   8.769  10.414   3.657 -0.1609  0.2075 -1.0216
  786MOL0     C 8356   8.795  10.410   3.523 -0.1930 -0.2651 -0.3095
  786MOL0     C 8357   8.924  10.393   3.470 -0.5145 -0.3605 -0.6476
  786MOL0     C 8358   8.934  10.385   3.317  0.0447 -0.1948 -0.0883
  786MOL0     C 8359   9.030  10.364   3.561  0.2431 -0.4707 -0.8968
  786MOL0     C 8360   9.176  10.345   3.530 -0.2466 -0.5264 -0.1666
  786MOL0     O 8361   9.266  10.351   3.631 -0.1747  0.2536 -0.2768
  786MOL0     C 8362   9.400  10.322   3.621  0.1785 -0.6220  1.3167
  786MOL0     C 8363   9.452  10.229   3.528  0.2054 -0.5727  0.1052
  786MOL0     C 8364   9.590  10.206   3.541 -0.1048 -0.4065  0.6722
  786MOL0     C 8365   9.675  10.257   3.636  0.1551  0.3815 -0.2424
  786MOL0     O 8366   9.812  10.247   3.632  0.4168 -0.1247  0.2066
  786MOL0     C 8367   9.865  10.233   3.496 -0.4287 -0.2343  0.0186
  786MOL0     C 8368  10.013  10.275   3.493  0.0982 -0.6722 -0.5992
  786MOL0     C 8369  10.072  10.223   3.358 -1.2078 -0.1932  0.0547
  786MOL0     C 8370  10.229  10.206   3.358  0.3566  0.1345  0.3198
  786MOL0     C 8371  10.282  10.167   3.222  0.4262  0.1569 -0.6513
  786MOL0     C 8372  10.428  10.121   3.232  0.4581 -0.8488 -0.1206
  786MOL0     C 8373  10.455   9.987   3.292  0.3659  0.6667  0.7225
  786MOL0     C 8374  10.596   9.950   3.249 -0.1122 -0.8080  0.2625
  786MOL0    Cl 8375  10.635   9.814   3.347  0.2399  0.1190  0.2966
  786MOL0     C 8376   9.611  10.348   3.721 -0.5496 -0.1357  0.9917
  786MOL0     C 8377   9.482  10.387   3.706 -0.6469 -0.2356  0.3637
  786MOL0     O 8378   9.200  10.323   3.409  0.5998 -0.0582  0.6034
  786MOL0     C 8379   9.002  10.379   3.700 -0.1472  0.2133  0.0630
  786MOL0     C 8380   8.881  10.407   3.742  1.1307  0.5100 -0.4050
  786MOL0     N 8381   8.049  10.195   3.598 -0.2021  0.1416 -0.0490
  786MOL0     N 8382   7.931  10.144   3.606 -0.6746 -0.3488  0.3974
  786MOL0     C 8383   7.076   9.499   4.352 -0.5031  0.0364  0.3671
  786MOL0     C 8384   6.998   9.470   4.460  1.3695 -0.1213  0.4021
  786MOL0     C 8385   6.719   9.425   4.786 -0.0645 -0.0808 -0.8718
  786MOL0     C 8386   6.589   9.373   4.773  0.0653  0.3886  0.0960
  786MOL0     C 8387   6.520   9.328   4.881  1.7284 -0.3219 -0.0236
  786MOL0     C 8388   6.559   9.349   5.013 -0.3433  0.2771 -0.0662
  786MOL0     O 8389   6.480   9.312   5.125 -0.4018  0.0895 -0.1389
  786MOL0     C 8390   6.351   9.244   5.108 -0.7505  0.4697 -0.7269
  786MOL0     C 8391   6.294   9.207   5.242 -0.4047  0.3966 -0.0254
  786MOL0     C 8392   6.150   9.157   5.232  0.5641  0.4045 -0.2706
  786MOL0     C 8393   6.107   9.117   5.377 -0.4127 -0.4491  0.8801
  786MOL0     C 8394   5.972   9.066   5.382 -0.7770 -0.4150 -0.2311
  786MOL0     C 8395   5.857   9.028   5.373  0.6351  0.4403  0.0447
  786MOL0     C 8396   6.691   9.403   5.029  0.3727  0.0653  0.1786
  786MOL0     C 8397   6.771   9.441   4.921 -0.5061  0.8992  0.4919
  786MOL0     C 8398   6.912   9.481   4.959 -0.1623  0.1742  0.6300
  786MOL0     H 8399   7.053   9.741   4.655  0.0278  0.3182 -0.1094
  786MOL0     H 8400   7.194   9.798   4.458 -2.7949  1.5903 -0.3339
  786MOL0     H 8401   7.401   9.696   4.302  0.1531 -0.1238  0.2776
  786MOL0     H 8402   7.311   9.830   4.254 -1.9955  0.3522 -1.2584
  786MOL0     H 8403   7.377   9.617   4.034 -0.5765  0.7185 -1.2395
  786MOL0     H 8404   7.340   9.791   4.024  0.9905 -1.6902 -1.6773
  786MOL0     H 8405   7.559   9.841   4.120  2.1169  0.0168 -1.0419
  786MOL0     H 8406   7.587   9.658   4.151 -1.6862 -1.4003 -0.6499
  786MOL0     H 8407   7.717   9.754   3.974 -0.6690 -0.7507  0.8934
  786MOL0     H 8408   7.609   9.625   3.925 -0.3447 -1.5089  2.4467
  786MOL0     H 8409   7.542   9.928   3.882 -3.3492 -1.2986  1.2397
  786MOL0     H 8410   7.451   9.798   3.828 -0.4517 -0.0130 -0.5617
  786MOL0     H 8411   7.647   9.722   3.682 -1.4078 -1.0990  1.1650
  786MOL0     H 8412   7.580   9.878   3.647  0.5963 -0.9390 -1.3726
  786MOL0     H 8413   7.831   9.870   3.633 -0.9600 -1.2473 -1.1816
  786MOL0     H 8414   7.853   9.827   3.800 -0.4266 -1.7668 -1.4570
  786MOL0     H 8415   7.691  10.074   3.720  0.4356 -0.4184 -2.2694
  786MOL0     H 8416   7.757  10.053   3.870  1.2058 -2.2612  0.6677
  786MOL0     H 8417   8.036  10.087   3.910 -0.3804 -1.9284  0.1969
  786MOL0     H 8418   8.320  10.164   3.702  0.2651 -0.0528  1.0629
  786MOL0     H 8419   8.264  10.229   3.857 -0.1490  0.0425  0.2779
  786MOL0     H 8420   8.267  10.370   3.573 -0.1493  1.0369  0.4579
  786MOL0     H 8421   8.189  10.434   3.722 -0.9553 -0.7308  0.3945
  786MOL0     H 8422   8.401  10.548   3.724  0.9039  0.2141 -4.7827
  786MOL0     H 8423   8.431  10.406   3.832  3.3589  1.6420  1.0359
  786MOL0     H 8424   8.527  10.298   3.632 -3.1133 -0.7453  1.9601
  786MOL0     H 8425   8.538  10.457   3.562  0.9960 -1.8161 -0.7959
  786MOL0     H 8426   8.709  10.431   3.460  0.3449  3.2401 -0.0580
  786MOL0     H 8427   8.963  10.481   3.274  1.3085 -1.1851 -1.5440
  786MOL0     H 8428   8.833  10.369   3.277  0.1252  1.7718 -1.2130
  786MOL0     H 8429   9.003  10.303   3.298  1.6372  0.1010  3.6128
  786MOL0     H 8430   9.393  10.185   3.448  4.2744 -3.7529 -1.5464
  786MOL0     H 8431   9.634  10.138   3.469 -0.2799  1.6230 -1.4398
  786MOL0     H 8432   9.866  10.128   3.467 -2.5983 -0.3283  0.1042
  786MOL0     H 8433   9.807  10.296   3.428 -0.2270  0.6627  0.6624
  786MOL0     H 8434  10.034  10.382   3.501 -0.0924 -0.4646 -2.5712
  786MOL0     H 8435  10.052  10.216   3.577 -1.5363 -1.6320 -0.4533
  786MOL0     H 8436  10.052  10.293   3.276  0.5386  2.5837  1.8668
  786MOL0     H 8437  10.029  10.126   3.328 -0.4644 -1.1628  1.9649
  786MOL0     H 8438  10.244  10.125   3.430  0.9545  1.6173  1.9485
  786MOL0     H 8439  10.269  10.302   3.394 -1.8025  1.0555  0.4415
  786MOL0     H 8440  10.220  10.091   3.172  2.1748 -2.3226  0.6960
  786MOL0     H 8441  10.281  10.258   3.162  0.2215  1.6063  1.4422
  786MOL0     H 8442  10.482  10.191   3.296 -0.3594 -1.1812  0.9445
  786MOL0     H 8443  10.464  10.126   3.129 -0.9122 -3.1758 -0.8067
  786MOL0     H 8444  10.389   9.911   3.249  0.5046  1.2830 -0.6425
  786MOL0     H 8445  10.450   9.987   3.401  0.2028 -2.2200  0.7963
  786MOL0     H 8446  10.669  10.024   3.283 -1.1262 -0.3978  1.6421
  786MOL0     H 8447  10.613   9.933   3.143  0.0088  0.8222 -0.0037
  786MOL0     H 8448   9.657  10.381   3.813 -0.2404  2.7681 -0.0721
  786MOL0     H 8449   9.438  10.463   3.771  2.4935  1.1739  1.0731
  786MOL0     H 8450   9.071  10.366   3.784 -1.2737 -0.5672  0.9001
  786MOL0     H 8451   8.867  10.432   3.847 -1.0218  1.0938 -0.7748
  786MOL0     H 8452   7.086   9.445   4.258  1.4923  2.2198 -0.7936
  786MOL0     H 8453   6.941   9.378   4.444 -1.1168  1.6298 -1.6954
  786MOL0     H 8454   6.554   9.333   4.678  0.4415 -1.9589  0.8817
  786MOL0     H 8455   6.429   9.272   4.862  1.3045  0.2772  0.2128
  786MOL0     H 8456   6.279   9.319   5.075 -2.0110  0.0152  0.8562
  786MOL0     H 8457   6.361   9.168   5.030 -0.5312  1.0127 -1.2347
  786MOL0     H 8458   6.303   9.292   5.312  0.4656 -0.1016  0.4928
  786MOL0     H 8459   6.364   9.137   5.288 -1.7178 -0.6514  0.4416
  786MOL0     H 8460   6.085   9.241   5.206  0.6441  0.5005 -0.1585
  786MOL0     H 8461   6.136   9.078   5.158 -1.9367  2.4972 -2.2065
  786MOL0     H 8462   6.120   9.205   5.440  0.6022 -0.9713  1.4291
  786MOL0     H 8463   6.176   9.042   5.417  1.0720  0.0221 -0.6583
  786MOL0     H 8464   5.756   8.995   5.367  1.0241 -1.6127  2.6771
  786MOL0     H 8465   6.736   9.404   5.128  1.6190 -3.1203 -0.2330
  786MOL0     H 8466   6.981   9.405   4.921 -1.0969  0.3513 -1.5930
  786MOL0     H 8467   6.927   9.582   4.921 -1.7335 -0.2391 -1.2842
  786MOL0     H 8468   6.931   9.493   5.066  0.1663  0.0485  0.5871
  787MOL0     O 8469   6.443   2.855   2.810  0.0272  0.0954 -0.4177
  787MOL0     C 8470   6.381   2.746   2.795  0.4783 -0.4496  0.2653
  787MOL0     O 8471   6.441   2.631   2.777 -0.2021 -0.4616 -0.1279
  787MOL0     C 8472   6.576   2.628   2.753  0.1451 -0.1624 -0.1711
  787MOL0     C 8473   6.637   2.686   2.641 -0.4542 -0.6378 -0.1237
  787MOL0     C 8474   6.772   2.670   2.618  0.2513 -0.9718  0.1868
  787MOL0     C 8475   6.857   2.618   2.719  0.2254  0.1258  0.4745
  787MOL0     O 8476   6.990   2.613   2.687 -0.8518 -0.2660 -0.0705
  787MOL0     C 8477   7.043   2.484   2.674 -0.6535 -0.4569  0.4118
  787MOL0     C 8478   7.181   2.503   2.617  0.3996 -0.4404  0.6709
  787MOL0     C 8479   7.283   2.541   2.727  0.1074  0.8003 -0.3792
  787MOL0     C 8480   7.342   2.421   2.801 -0.3601 -0.1093  0.1505
  787MOL0     C 8481   7.465   2.462   2.876  0.4770  0.5514  0.3903
  787MOL0     C 8482   7.524   2.337   2.950  0.1184 -0.3224 -0.4185
  787MOL0     C 8483   7.656   2.376   3.034  0.5812 -0.9147  0.1036
  787MOL0     C 8484   7.709   2.265   3.117 -0.7280  0.8836 -0.2929
  787MOL0     N 8485   7.852   2.250   3.125 -0.3994 -0.9982  0.2222
  787MOL0     C 8486   7.940   2.360   3.121  0.4933  0.0031  0.5615
  787MOL0     C 8487   8.067   2.311   3.092  0.2429 -0.1011  0.2208
  787MOL0     C 8488   8.190   2.379   3.041 -0.1429 -0.1878 -0.1427
  787MOL0     C 8489   8.247   2.297   2.917 -0.4719  0.3325 -0.4157
  787MOL0     C 8490   8.313   2.402   2.821  0.7656 -0.4425  1.0644
  787MOL0     C 8491   8.446   2.465   2.870  0.0493  0.5892  0.4904
  787MOL0     O 8492   8.551   2.378   2.885  0.0236 -0.3980  0.1149
  787MOL0     C 8493   8.661   2.421   2.963  0.4850 -0.2038 -0.2709
  787MOL0     C 8494   8.695   2.545   3.021  0.2861 -0.4598  0.2258
  787MOL0     C 8495   8.815   2.572   3.094 -0.1391 -0.6814 -0.6695
  787MOL0     C 8496   8.833   2.709   3.152  0.6296  0.4594 -0.4626
  787MOL0     C 8497   8.911   2.468   3.111  0.0916 -0.1543 -1.0690
  787MOL0     C 8498   9.038   2.484   3.195  0.0996 -0.0004  0.7473
  787MOL0     O 8499   9.099   2.365   3.211 -0.1753 -0.1649 -0.1787
  787MOL0     C 8500   9.204   2.361   3.298  0.3696 -0.2620  0.6207
  787MOL0     C 8501   9.192   2.294   3.417  0.3126  0.5526  0.1594
  787MOL0     C 8502   9.301   2.261   3.501 -0.0114  0.3728 -0.6645
  787MOL0     C 8503   9.430   2.308   3.464  0.4349 -0.0087  0.4769
  787MOL0     O 8504   9.536   2.268   3.540  0.0039 -0.1714 -0.1876
  787MOL0     C 8505   9.639   2.370   3.556  0.4796 -0.5588 -0.1786
  787MOL0     C 8506   9.682   2.387   3.706  0.0720 -1.2201  0.1355
  787MOL0     C 8507   9.734   2.259   3.770  0.0696  0.0424 -0.8046
  787MOL0     C 8508   9.883   2.231   3.763 -0.2190  0.2500  0.3257
  787MOL0     C 8509   9.924   2.103   3.839  0.4336 -0.0511 -0.2634
  787MOL0     C 8510  10.078   2.089   3.851 -1.3681  0.9549  0.2022
  787MOL0     C 8511  10.139   2.028   3.987  0.6361 -0.8645  0.0833
  787MOL0     C 8512  10.142   2.137   4.095 -0.5924  0.4146  0.4620
  787MOL0    Cl 8513  10.182   2.076   4.263  0.1839  0.0584 -0.1749
  787MOL0     C 8514   9.437   2.386   3.347 -0.5619  0.0049 -0.6456
  787MOL0     C 8515   9.329   2.406   3.261 -0.0874 -0.1110 -0.3825
  787MOL0     O 8516   9.091   2.594   3.224 -0.8054  0.5678  0.6520
  787MOL0     C 8517   8.872   2.345   3.057  0.2002  0.6823 -0.2678
  787MOL0     C 8518   8.750   2.322   2.986  0.1503 -0.6478 -0.5533
  787MOL0     N 8519   8.044   2.171   3.092 -0.8656 -0.5350  0.3894
  787MOL0     N 8520   7.925   2.141   3.115  0.9155 -0.3217  0.2351
  787MOL0     C 8521   6.793   2.560   2.833  0.0396  0.7465 -0.0451
  787MOL0     C 8522   6.659   2.555   2.838  0.1012 -0.2543 -0.1657
  787MOL0     C 8523   6.233   2.748   2.810 -0.5237  0.4448  0.0323
  787MOL0     C 8524   6.162   2.855   2.760  0.0696 -0.3489  0.3433
  787MOL0     C 8525   6.023   2.861   2.773  0.9795  0.3420 -0.1685
  787MOL0     C 8526   5.957   2.761   2.846  0.6137 -0.2668 -0.0457
  787MOL0     O 8527   5.821   2.749   2.834  0.3304 -0.2315 -0.3601
  787MOL0     C 8528   5.751   2.796   2.715 -0.1618 -0.4101 -0.0500
  787MOL0     C 8529   5.666   2.920   2.733  0.3699 -1.0836 -0.6436
  787MOL0     C 8530   5.632   2.987   2.601 -0.4019 -0.8345  0.7399
  787MOL0     C 8531   5.512   3.075   2.621 -0.4127  0.8264 -0.2496
  787MOL0     C 8532   5.392   3.001   2.647  0.2358  1.0893 -0.3434
  787MOL0     C 8533   5.301   2.934   2.673  0.6943  0.1547  1.2439
  787MOL0     C 8534   6.030   2.650   2.895  0.6527  0.0553  0.2285
  787MOL0     C 8535   6.174   2.637   2.877  1.0272 -0.1729 -0.4290
  787MOL0     C 8536   6.230   2.516   2.947 -0.3195 -0.5653 -0.2798
  787MOL0     H 8537   6.583   2.748   2.570  0.9436 -2.1186 -2.5899
  787MOL0     H 8538   6.816   2.705   2.525  0.4596  1.1745  1.0480
  787MOL0     H 8539   6.977   2.423   2.612  0.3950 -1.8044  0.5616
  787MOL0     H 8540   7.063   2.437   2.772  1.0831  2.3722  1.5517
  787MOL0     H 8541   7.215   2.412   2.566  0.0824 -0.1586 -0.0509
  787MOL0     H 8542   7.180   2.578   2.538  0.3378 -2.5712 -1.4810
  787MOL0     H 8543   7.367   2.585   2.672 -0.7635  0.3010 -2.1934
  787MOL0     H 8544   7.236   2.612   2.794 -0.4121 -1.5132  1.8582
  787MOL0     H 8545   7.269   2.373   2.866  1.2876 -0.0027  2.1963
  787MOL0     H 8546   7.368   2.357   2.716  0.2222  0.5943 -0.2098
  787MOL0     H 8547   7.445   2.541   2.949  0.8577 -0.4178  1.5865
  787MOL0     H 8548   7.546   2.496   2.811 -0.8825 -0.8150 -2.1503
  787MOL0     H 8549   7.444   2.305   3.018  0.4714 -2.0941 -0.7778
  787MOL0     H 8550   7.545   2.260   2.876  1.8980  1.3714 -1.7822
  787MOL0     H 8551   7.649   2.461   3.103  4.6126 -0.4190  0.1782
  787MOL0     H 8552   7.725   2.418   2.960 -0.3909 -0.9581 -0.8611
  787MOL0     H 8553   7.681   2.281   3.221 -1.3463  2.5591 -0.6782
  787MOL0     H 8554   7.667   2.169   3.087 -0.4927  0.0101  1.9758
  787MOL0     H 8555   7.916   2.465   3.131 -1.0406 -0.3866  1.3070
  787MOL0     H 8556   8.261   2.376   3.124 -0.1448 -0.9652 -0.1619
  787MOL0     H 8557   8.170   2.482   3.011  2.8478  0.6605  0.3716
  787MOL0     H 8558   8.314   2.217   2.949 -3.3959 -1.1792  2.4568
  787MOL0     H 8559   8.169   2.242   2.863 -1.9141  2.6505 -0.8205
  787MOL0     H 8560   8.340   2.356   2.725  1.2334  3.1823 -0.6769
  787MOL0     H 8561   8.241   2.477   2.786  1.2698 -1.1248 -1.6864
  787MOL0     H 8562   8.476   2.538   2.794  0.2819 -0.2098 -0.1951
  787MOL0     H 8563   8.418   2.511   2.966 -1.0552 -1.2388  1.0886
  787MOL0     H 8564   8.631   2.629   2.996  0.7229 -0.5326 -1.2323
  787MOL0     H 8565   8.859   2.694   3.257 -1.9514 -2.9041 -0.0859
  787MOL0     H 8566   8.735   2.757   3.158 -1.1522 -3.0241  2.4456
  787MOL0     H 8567   8.922   2.755   3.108  0.6868  2.0743  1.2443
  787MOL0     H 8568   9.091   2.258   3.434  0.3127  1.4384  2.2801
  787MOL0     H 8569   9.276   2.205   3.590 -0.5498  1.5556 -0.0521
  787MOL0     H 8570   9.711   2.351   3.476 -0.8821 -0.6307 -1.4366
  787MOL0     H 8571   9.595   2.469   3.539 -0.1116 -0.3429  2.3232
  787MOL0     H 8572   9.744   2.476   3.721 -1.2572  0.0966 -1.7668
  787MOL0     H 8573   9.593   2.415   3.764 -1.0477 -1.7065 -1.3023
  787MOL0     H 8574   9.683   2.171   3.728  0.7055 -1.2604  1.0111
  787MOL0     H 8575   9.720   2.258   3.878  1.4258  1.2912 -0.6016
  787MOL0     H 8576   9.924   2.318   3.815 -3.1177 -0.7732  4.9690
  787MOL0     H 8577   9.922   2.228   3.661  2.4720  3.8243  1.0577
  787MOL0     H 8578   9.887   2.109   3.942  1.1772 -1.0800  0.0743
  787MOL0     H 8579   9.873   2.020   3.790 -0.2016  1.3749 -2.1368
  787MOL0     H 8580  10.123   2.186   3.831 -1.0097  0.6384 -0.5847
  787MOL0     H 8581  10.106   2.031   3.762 -0.2193  3.6744 -1.3234
  787MOL0     H 8582  10.232   1.990   3.945 -1.5702 -0.1412 -6.6908
  787MOL0     H 8583  10.087   1.937   4.020  0.6572 -0.5630  0.9900
  787MOL0     H 8584  10.041   2.179   4.102 -1.1145 -0.3722 -1.5030
  787MOL0     H 8585  10.208   2.219   4.066 -1.8526  1.5046  0.5955
  787MOL0     H 8586   9.538   2.420   3.326 -0.1948 -0.8332 -0.2796
  787MOL0     H 8587   9.360   2.441   3.163 -0.1640  2.4922  0.4589
  787MOL0     H 8588   8.932   2.256   3.041  1.0603  1.1738  0.1771
  787MOL0     H 8589   8.718   2.223   2.954 -0.5619 -0.3546 -0.7675
  787MOL0     H 8590   6.861   2.517   2.905  2.6149  2.2255 -1.4446
  787MOL0     H 8591   6.624   2.493   2.920 -1.9280 -1.1404 -1.6186
  787MOL0     H 8592   6.205   2.938   2.704  0.1563 -0.3972  0.3371
  787MOL0     H 8593   5.962   2.939   2.729  0.0514 -1.2948 -1.9095
  787MOL0     H 8594   5.820   2.803   2.630 -1.4893  2.3607 -1.0170
  787MOL0     H 8595   5.677   2.719   2.689 -0.0715 -0.7288  0.6290
  787MOL0     H 8596   5.715   2.987   2.804  1.7048 -1.2445 -1.3822
  787MOL0     H 8597   5.570   2.907   2.785  0.8607  2.3356  1.4097
  787MOL0     H 8598   5.712   3.056   2.573 -2.4839  0.6755 -1.9516
  787MOL0     H 8599   5.612   2.917   2.519 -1.3508 -0.9093  1.0203
  787MOL0     H 8600   5.512   3.126   2.524  1.2903  1.6004  0.1151
  787MOL0     H 8601   5.525   3.154   2.695 -0.5049 -0.6656  1.4103
  787MOL0     H 8602   5.220   2.868   2.695  1.1829  0.0145  2.7957
  787MOL0     H 8603   5.976   2.567   2.940  1.3949  0.0584  1.1551
  787MOL0     H 8604   6.277   2.549   3.040 -0.5650 -2.2435  0.4755
  787MOL0     H 8605   6.152   2.443   2.971 -1.8151  0.9810 -0.2265
  787MOL0     H 8606   6.301   2.462   2.883 -0.5506  0.0722 -1.0902
  788MOL0     O 8607  10.484   2.063   9.333 -0.8240  0.0144 -0.3002
  788MOL0     C 8608  10.502   1.943   9.303  0.3258 -0.2636  0.9357
  788MOL0     O 8609  10.622   1.873   9.285  1.1286 -0.5343  0.1177
  788MOL0     C 8610  10.734   1.953   9.301  0.8068  0.0206  0.1062
  788MOL0     C 8611  10.782   2.037   9.204  0.2880  0.0387 -0.0287
  788MOL0     C 8612  10.894   2.112   9.221  0.6020  0.4368  0.2672
  788MOL0     C 8613  10.954   2.124   9.351  0.4566  0.3542 -0.2447
  788MOL0     O 8614  11.050   2.210   9.388 -0.6486 -0.1399  0.2291
  788MOL0     C 8615  11.092   2.312   9.291  0.5616  0.2666  0.7859
  788MOL0     C 8616  11.171   2.424   9.360  0.4847  0.0284 -0.3407
  788MOL0     C 8617  11.184   2.550   9.267 -0.2828 -0.6264 -0.1985
  788MOL0     C 8618  11.282   2.640   9.330 -0.4758  0.5552  0.4844
  788MOL0     C 8619  11.333   2.761   9.244 -0.1780  0.5783 -0.0127
  788MOL0     C 8620  11.459   2.848   9.302 -0.0267  0.4021  0.2679
  788MOL0     C 8621  11.486   2.955   9.191 -0.2483 -0.0398 -0.4943
  788MOL0     C 8622  11.577   3.072   9.249  0.7469  0.3565 -0.8060
  788MOL0     N 8623  11.711   3.028   9.276  0.2555 -0.2133  0.8259
  788MOL0     C 8624  11.822   3.069   9.196  0.0986  0.1383 -0.1432
  788MOL0     C 8625  11.925   3.021   9.276 -0.0037  0.4421  0.1372
  788MOL0     C 8626  12.071   3.041   9.237  0.3223  0.4291 -0.5244
  788MOL0     C 8627  12.117   3.185   9.255 -0.0290  0.5975  0.4096
  788MOL0     C 8628  12.168   3.223   9.391  0.2878 -0.5940  1.1376
  788MOL0     C 8629  12.294   3.149   9.424  0.5652  0.3088  0.6234
  788MOL0     O 8630  12.312   3.197   9.554 -0.4442  0.9328 -0.3048
  788MOL0     C 8631  12.436   3.167   9.612 -0.0098 -0.0588  0.3751
  788MOL0     C 8632  12.460   3.226   9.742 -1.0674  0.2138  0.4420
  788MOL0     C 8633  12.585   3.207   9.795  0.4707  0.0702  0.8159
  788MOL0     C 8634  12.602   3.271   9.927 -1.2538 -0.7279  0.7045
  788MOL0     C 8635  12.692   3.134   9.734 -0.5008  1.1877 -0.2432
  788MOL0     C 8636  12.835   3.132   9.773 -0.6508 -0.4084  0.5384
  788MOL0     O 8637  12.918   3.071   9.686 -0.0006  0.3800 -0.6157
  788MOL0     C 8638  13.050   3.041   9.711 -0.6443 -0.7616  0.1013
  788MOL0     C 8639  13.106   3.020   9.839 -0.2915 -0.5363 -0.6951
  788MOL0     C 8640  13.240   2.981   9.853 -0.6283  0.8387  0.0324
  788MOL0     C 8641  13.333   2.963   9.742  0.6890 -0.4723  0.5011
  788MOL0     O 8642  13.467   2.947   9.765 -0.4370 -0.3711  0.8372
  788MOL0     C 8643  13.538   2.988   9.650 -0.4872 -0.6031  0.2127
  788MOL0     C 8644  13.686   2.983   9.681  0.6194 -0.1958 -0.7481
  788MOL0     C 8645  13.768   2.971   9.547 -0.7780  0.3203  0.3860
  788MOL0     C 8646  13.913   3.011   9.579  0.6256 -0.3778  0.5467
  788MOL0     C 8647  14.006   2.980   9.463 -0.1989 -0.2559  0.5056
  788MOL0     C 8648  13.967   3.039   9.324  0.0537 -0.5191 -0.4426
  788MOL0     C 8649  13.880   2.939   9.238  0.4309 -1.2359  0.5600
  788MOL0     C 8650  13.851   3.007   9.097 -0.3042  0.3441  0.4558
  788MOL0    Cl 8651  14.009   3.043   9.001 -0.1087  0.1255 -0.3328
  788MOL0     C 8652  13.268   2.984   9.612 -0.4326 -0.2959  0.7329
  788MOL0     C 8653  13.136   3.026   9.599 -1.1047  0.0591  0.5049
  788MOL0     O 8654  12.866   3.182   9.880  0.1225 -0.1023  0.5021
  788MOL0     C 8655  12.666   3.069   9.614  0.0645 -0.1937 -0.3495
  788MOL0     C 8656  12.534   3.081   9.547 -1.2793  0.0178 -0.4772
  788MOL0     N 8657  11.885   2.971   9.398 -0.9760  0.4060 -0.6393
  788MOL0     N 8658  11.761   2.994   9.398  0.1962  0.8377  0.1299
  788MOL0     C 8659  10.908   2.031   9.445  0.2746  0.8953 -0.0927
  788MOL0     C 8660  10.803   1.948   9.420  0.4739 -0.2009  0.7842
  788MOL0     C 8661  10.377   1.870   9.252  0.0778 -0.1970 -0.6856
  788MOL0     C 8662  10.391   1.733   9.225 -0.3858 -0.5738 -0.8482
  788MOL0     C 8663  10.292   1.656   9.163 -0.3599  0.2317  1.3513
  788MOL0     C 8664  10.172   1.709   9.125  0.4251 -1.0791  0.5486
  788MOL0     O 8665  10.070   1.632   9.077  0.3603  0.2159  0.1403
  788MOL0     C 8666   9.935   1.660   9.124  0.0755 -0.1558 -0.3226
  788MOL0     C 8667   9.842   1.541   9.080 -0.5874 -0.3200  0.3680
  788MOL0     C 8668   9.710   1.559   9.131  0.4328  0.8320 -0.1130
  788MOL0     C 8669   9.613   1.448   9.082 -0.0325  0.0623  0.3842
  788MOL0     C 8670   9.478   1.470   9.135 -0.5786  0.8065  1.2157
  788MOL0     C 8671   9.365   1.492   9.162 -0.2428  0.3574 -0.5085
  788MOL0     C 8672  10.153   1.848   9.147 -0.0616 -0.2246  0.1222
  788MOL0     C 8673  10.255   1.932   9.206 -0.0270 -0.9503  0.2623
  788MOL0     C 8674  10.220   2.082   9.212 -0.2383 -0.1853 -0.0544
  788MOL0     H 8675  10.736   2.039   9.106 -0.5279  2.8770  0.3132
  788MOL0     H 8676  10.927   2.167   9.133  0.0647 -1.8776 -1.4639
  788MOL0     H 8677  10.999   2.346   9.245 -0.2929  0.6426  2.6822
  788MOL0     H 8678  11.156   2.266   9.216 -2.6553 -1.5594 -1.0506
  788MOL0     H 8679  11.119   2.460   9.450  1.9191 -0.1076  0.5664
  788MOL0     H 8680  11.270   2.381   9.374  0.9860  1.8374  2.5031
  788MOL0     H 8681  11.220   2.517   9.169 -0.8144 -1.4345 -0.1294
  788MOL0     H 8682  11.090   2.603   9.252  0.2138 -0.2766 -2.4634
  788MOL0     H 8683  11.226   2.689   9.410 -2.7024 -1.3880  0.2278
  788MOL0     H 8684  11.366   2.581   9.369 -1.4772 -1.2015  0.0854
  788MOL0     H 8685  11.242   2.818   9.226 -1.7077 -1.3995  1.0801
  788MOL0     H 8686  11.370   2.717   9.151 -0.3244 -1.4074  0.8120
  788MOL0     H 8687  11.430   2.890   9.398 -1.9004  0.2013 -0.1742
  788MOL0     H 8688  11.555   2.797   9.314  0.1950  0.9262  0.7406
  788MOL0     H 8689  11.389   2.997   9.162 -1.8896 -1.7755  1.9727
  788MOL0     H 8690  11.532   2.913   9.102  0.9569  2.4422 -1.1223
  788MOL0     H 8691  11.572   3.160   9.184  0.1587  0.4524 -0.6374
  788MOL0     H 8692  11.535   3.097   9.347 -0.2049  2.6640 -1.7254
  788MOL0     H 8693  11.815   3.104   9.093 -0.7072 -0.0829 -0.1737
  788MOL0     H 8694  12.097   3.017   9.134 -0.9539  0.7533 -0.9301
  788MOL0     H 8695  12.130   2.969   9.296 -1.5832 -1.0470 -0.3384
  788MOL0     H 8696  12.209   3.202   9.198  0.8754  0.2196  1.7239
  788MOL0     H 8697  12.035   3.254   9.232 -0.5328  1.0056  3.0724
  788MOL0     H 8698  12.193   3.328   9.373 -0.4728 -0.8525 -1.8529
  788MOL0     H 8699  12.093   3.217   9.471  1.0723 -1.0691  1.8592
  788MOL0     H 8700  12.275   3.041   9.431 -0.8915  0.4560 -0.5150
  788MOL0     H 8701  12.373   3.163   9.349 -0.1756 -2.8626 -0.9230
  788MOL0     H 8702  12.382   3.291   9.781 -2.1940  0.0136 -1.3589
  788MOL0     H 8703  12.503   3.302   9.962 -0.8430  1.8934 -0.2042
  788MOL0     H 8704  12.661   3.362   9.913 -1.8054 -0.5714 -0.7068
  788MOL0     H 8705  12.647   3.199   9.997  4.0139  1.9629  0.5451
  788MOL0     H 8706  13.049   3.013   9.931  0.1049  0.2254 -0.3828
  788MOL0     H 8707  13.274   2.952   9.952 -0.1375  1.7067  0.1243
  788MOL0     H 8708  13.513   2.927   9.563  1.5419  0.8987 -1.5288
  788MOL0     H 8709  13.527   3.095   9.629 -0.4697 -0.5989  0.2255
  788MOL0     H 8710  13.712   3.081   9.722 -3.9640  0.4799  1.1657
  788MOL0     H 8711  13.711   2.899   9.746 -0.8575 -0.1534 -0.0782
  788MOL0     H 8712  13.727   3.030   9.464  2.5585 -0.1623 -1.7743
  788MOL0     H 8713  13.774   2.871   9.504  2.8729  0.7719 -0.4695
  788MOL0     H 8714  13.959   2.950   9.657  0.6633 -0.3326  0.5599
  788MOL0     H 8715  13.926   3.117   9.604 -2.3209  0.4293 -0.9438
  788MOL0     H 8716  14.107   3.021   9.473  0.2104 -0.0894 -3.2065
  788MOL0     H 8717  14.026   2.873   9.457  0.6951 -0.0244 -1.3039
  788MOL0     H 8718  14.059   3.060   9.269 -0.4956  1.8647 -0.5473
  788MOL0     H 8719  13.912   3.134   9.327  0.4954 -0.1722 -2.1633
  788MOL0     H 8720  13.780   2.913   9.275  1.0247 -0.5656  2.7332
  788MOL0     H 8721  13.935   2.847   9.217  0.4210 -0.9293 -0.9434
  788MOL0     H 8722  13.799   3.103   9.098 -2.1418 -0.5746 -0.9970
  788MOL0     H 8723  13.791   2.937   9.038  1.2824  0.3133 -1.2020
  788MOL0     H 8724  13.323   2.974   9.519 -0.2833 -1.1845  0.9068
  788MOL0     H 8725  13.107   3.052   9.497  0.3793  0.5583  0.1856
  788MOL0     H 8726  12.738   3.007   9.560  1.9497  0.0215  1.7560
  788MOL0     H 8727  12.525   3.035   9.449 -1.6440  2.1687 -1.5008
  788MOL0     H 8728  10.954   2.031   9.543 -0.3286  1.0215  0.1953
  788MOL0     H 8729  10.767   1.863   9.477  0.5345 -0.6941  0.0991
  788MOL0     H 8730  10.488   1.687   9.244 -0.3551 -0.1746 -0.0463
  788MOL0     H 8731  10.308   1.550   9.150 -1.3884  0.2233 -0.0773
  788MOL0     H 8732   9.929   1.675   9.232  0.4783  0.2393 -0.3520
  788MOL0     H 8733   9.891   1.746   9.073  0.3549 -0.5563 -1.2577
  788MOL0     H 8734   9.895   1.455   9.122  0.6759  1.0897  1.8029
  788MOL0     H 8735   9.837   1.524   8.972 -2.8267 -1.1112  0.5323
  788MOL0     H 8736   9.722   1.554   9.240  2.3198  2.8037 -0.1525
  788MOL0     H 8737   9.671   1.660   9.115 -0.0263  0.6140 -0.3719
  788MOL0     H 8738   9.647   1.357   9.134 -1.9406 -0.4661  0.7953
  788MOL0     H 8739   9.600   1.430   8.975 -0.4083 -2.3621  0.7642
  788MOL0     H 8740   9.274   1.521   9.212  2.1971 -0.0220  4.7995
  788MOL0     H 8741  10.070   1.906   9.108  2.4525  3.5880 -0.0028
  788MOL0     H 8742  10.207   2.114   9.315 -1.8010 -1.5134  0.2041
  788MOL0     H 8743  10.301   2.139   9.165 -0.1476 -1.7531 -1.9712
  788MOL0     H 8744  10.124   2.095   9.160  0.1376  0.4138 -0.6128
  789MOL0     O 8745   5.752   1.144  11.270 -0.3334  0.1785 -0.2809
  789MOL0     C 8746   5.738   1.194  11.379  1.0270 -0.6733 -0.3409
  789MOL0     O 8747   5.812   1.167  11.490 -0.2628  0.1421 -0.3847
  789MOL0     C 8748   5.912   1.068  11.486 -0.0407  0.0823  0.3130
  789MOL0     C 8749   5.966   1.045  11.619 -0.0242 -0.1578  0.1313
  789MOL0     C 8750   6.073   0.958  11.643  0.4008 -0.0651 -0.0609
  789MOL0     C 8751   6.133   0.881  11.540 -0.8053  0.9987 -0.5953
  789MOL0     O 8752   6.232   0.787  11.569 -1.2108 -0.2251  0.0896
  789MOL0     C 8753   6.358   0.799  11.496  0.6750  0.0639 -0.9959
  789MOL0     C 8754   6.473   0.747  11.588  0.7518 -0.1969  0.2691
  789MOL0     C 8755   6.605   0.755  11.520  0.0486  0.4601 -0.0184
  789MOL0     C 8756   6.639   0.907  11.485  0.2306 -0.8906 -1.0386
  789MOL0     C 8757   6.783   0.938  11.486 -0.1193 -0.7231 -0.0550
  789MOL0     C 8758   6.845   0.883  11.357  0.6412 -0.2773 -0.8368
  789MOL0     C 8759   7.003   0.892  11.345  0.6052 -0.6843  0.1172
  789MOL0     C 8760   7.055   1.038  11.351  1.1230  0.1154 -1.1288
  789MOL0     N 8761   7.200   1.049  11.349 -0.1081 -0.9264 -0.4055
  789MOL0     C 8762   7.279   1.041  11.232  0.4427 -0.5388 -0.2058
  789MOL0     C 8763   7.402   1.063  11.281  0.4087 -0.4647 -0.4552
  789MOL0     C 8764   7.519   1.076  11.186 -0.0386 -0.3142  0.7510
  789MOL0     C 8765   7.549   1.215  11.154 -0.4687  0.0812 -1.4509
  789MOL0     C 8766   7.600   1.288  11.281 -0.1989  1.3508  0.3482
  789MOL0     C 8767   7.638   1.432  11.244  0.2658 -0.5886  0.1042
  789MOL0     O 8768   7.681   1.502  11.359  0.3340 -0.7917 -0.3092
  789MOL0     C 8769   7.816   1.519  11.372 -0.5929 -0.5057  0.1426
  789MOL0     C 8770   7.913   1.435  11.320  0.4563  0.4209  0.2328
  789MOL0     C 8771   8.051   1.465  11.326  0.2618 -0.4213 -0.2964
  789MOL0     C 8772   8.147   1.356  11.280  0.4949  0.1830  0.1930
  789MOL0     C 8773   8.103   1.582  11.404 -0.1123 -0.0221  0.6084
  789MOL0     C 8774   8.240   1.626  11.408 -0.5008 -0.4039 -0.1219
  789MOL0     O 8775   8.254   1.751  11.470  0.2077  0.1678  0.5644
  789MOL0     C 8776   8.377   1.801  11.482  0.9685  0.2661 -1.0740
  789MOL0     C 8777   8.445   1.881  11.397  0.3777 -0.0180  1.0167
  789MOL0     C 8778   8.576   1.926  11.417 -0.7170  0.5575 -0.0413
  789MOL0     C 8779   8.641   1.905  11.544  0.6335 -1.0284 -0.1745
  789MOL0     O 8780   8.761   1.956  11.584  0.3691  1.4532 -0.3299
  789MOL0     C 8781   8.866   2.002  11.496 -0.3474  0.2557  0.0684
  789MOL0     C 8782   9.002   1.966  11.551  0.3900  0.8275 -0.7235
  789MOL0     C 8783   9.124   2.055  11.512  0.3243 -0.2938 -0.0775
  789MOL0     C 8784   9.247   2.002  11.573 -0.1091  1.1811  0.1866
  789MOL0     C 8785   9.367   2.100  11.539 -0.5496 -0.2579  0.3837
  789MOL0     C 8786   9.502   2.081  11.607 -0.0741  0.4381  0.3716
  789MOL0     C 8787   9.503   2.112  11.755  0.1573 -0.2361 -0.2130
  789MOL0     C 8788   9.594   2.028  11.830 -0.5541 -0.0866 -0.0858
  789MOL0    Cl 8789   9.752   2.064  11.768  0.2593 -0.5401  0.1906
  789MOL0     C 8790   8.558   1.829  11.642 -0.5582  0.2714 -0.1852
  789MOL0     C 8791   8.437   1.776  11.607  0.1797 -0.1945 -0.0455
  789MOL0     O 8792   8.333   1.552  11.378  0.5232  0.2358 -0.1484
  789MOL0     C 8793   8.003   1.657  11.461 -0.2544 -1.0188  0.1116
  789MOL0     C 8794   7.870   1.624  11.447  0.6747  0.5981 -0.5048
  789MOL0     N 8795   7.399   1.069  11.423 -0.6908  0.0916 -0.0973
  789MOL0     N 8796   7.282   1.046  11.459  0.0648  0.4309 -0.2139
  789MOL0     C 8797   6.077   0.902  11.408  0.5904 -0.1446 -0.1360
  789MOL0     C 8798   5.969   0.991  11.381  0.2098  0.2146 -0.3729
  789MOL0     C 8799   5.636   1.303  11.400  0.6046 -0.1167 -0.1396
  789MOL0     C 8800   5.650   1.381  11.517 -0.6574  0.2125  0.3894
  789MOL0     C 8801   5.556   1.488  11.543  0.9571  0.0323 -0.0462
  789MOL0     C 8802   5.442   1.503  11.465 -0.5753 -0.1714  0.2802
  789MOL0     O 8803   5.363   1.618  11.459  0.3411  0.4111 -0.3308
  789MOL0     C 8804   5.332   1.681  11.581  0.0631  0.4444  0.0598
  789MOL0     C 8805   5.207   1.761  11.555  0.1621 -0.5827 -0.0592
  789MOL0     C 8806   5.136   1.842  11.667  0.1325 -0.0752 -0.3107
  789MOL0     C 8807   5.077   1.757  11.781 -0.2149  0.6206  0.7696
  789MOL0     C 8808   5.010   1.824  11.888 -0.6101 -0.6126 -0.3321
  789MOL0     C 8809   4.958   1.875  11.990  0.1158  0.3360  0.2076
  789MOL0     C 8810   5.424   1.425  11.351 -0.5663  0.2465  0.1142
  789MOL0     C 8811   5.520   1.330  11.315  0.4606  1.3481 -0.8046
  789MOL0     C 8812   5.480   1.252  11.191 -0.0281 -0.3850 -0.3182
  789MOL0     H 8813   5.921   1.090  11.707  0.4443 -1.0344  0.8284
  789MOL0     H 8814   6.097   0.939  11.747 -1.7123 -1.9215  0.1551
  789MOL0     H 8815   6.371   0.904  11.466  0.1198 -0.0882 -1.8157
  789MOL0     H 8816   6.361   0.730  11.411 -1.8318  0.2691 -1.3359
  789MOL0     H 8817   6.473   0.809  11.678 -0.9778 -0.3890  0.4352
  789MOL0     H 8818   6.455   0.645  11.623 -1.4227  0.3946  0.9855
  789MOL0     H 8819   6.676   0.716  11.593 -2.6570 -0.9364  2.0830
  789MOL0     H 8820   6.608   0.685  11.436  0.3606  0.5561 -0.0878
  789MOL0     H 8821   6.598   0.926  11.385  2.4978 -0.0655 -1.8849
  789MOL0     H 8822   6.596   0.971  11.563 -2.4564 -2.6091 -0.9940
  789MOL0     H 8823   6.834   0.902  11.577 -0.0665 -0.9751 -0.1819
  789MOL0     H 8824   6.788   1.047  11.485  0.2259 -0.7158  0.8844
  789MOL0     H 8825   6.832   0.775  11.368 -0.6375 -0.5877 -4.1408
  789MOL0     H 8826   6.790   0.926  11.272  0.6069  0.1748 -0.5872
  789MOL0     H 8827   7.051   0.856  11.254  0.1605 -1.2762  0.1088
  789MOL0     H 8828   7.046   0.833  11.427 -2.3036 -0.4530  1.9490
  789MOL0     H 8829   7.014   1.090  11.264  0.1886 -0.1052 -0.8371
  789MOL0     H 8830   7.005   1.079  11.439  1.0247 -2.4355  0.1036
  789MOL0     H 8831   7.261   1.036  11.125  2.6614  2.4754 -0.8441
  789MOL0     H 8832   7.496   1.026  11.092  3.4811  0.4104 -0.6308
  789MOL0     H 8833   7.601   1.018  11.228  0.8306  1.1616  1.1565
  789MOL0     H 8834   7.635   1.220  11.086  1.1670  1.5721  0.5900
  789MOL0     H 8835   7.456   1.255  11.114 -2.0180  0.7898  2.4744
  789MOL0     H 8836   7.516   1.294  11.351  0.0772  0.2707  0.7904
  789MOL0     H 8837   7.682   1.232  11.326  0.6039  2.6817  0.5900
  789MOL0     H 8838   7.716   1.423  11.169  0.0307 -0.2391 -0.1887
  789MOL0     H 8839   7.554   1.485  11.197 -0.9757 -1.4728  1.2258
  789MOL0     H 8840   7.882   1.342  11.273  0.9043 -0.5109  1.6920
  789MOL0     H 8841   8.089   1.274  11.237 -1.4304  1.1581  0.8009
  789MOL0     H 8842   8.199   1.324  11.370 -2.5631  1.2918  2.5392
  789MOL0     H 8843   8.231   1.388  11.217  1.4216 -2.6825 -0.1514
  789MOL0     H 8844   8.403   1.903  11.299  2.4443  0.1425  0.0977
  789MOL0     H 8845   8.613   1.996  11.342 -0.1339  1.2386  0.8631
  789MOL0     H 8846   8.853   1.952  11.400 -0.0362 -0.5456  0.4320
  789MOL0     H 8847   8.855   2.109  11.480 -2.5708  0.4088  2.0539
  789MOL0     H 8848   8.999   1.972  11.660 -0.6112 -0.0873 -0.6838
  789MOL0     H 8849   9.028   1.865  11.519 -1.4196  0.7237 -2.0427
  789MOL0     H 8850   9.106   2.158  11.544 -0.9713 -0.8477  1.0759
  789MOL0     H 8851   9.128   2.055  11.402  1.4309 -1.5569 -0.0555
  789MOL0     H 8852   9.275   1.905  11.533 -0.0672  1.3921 -0.3134
  789MOL0     H 8853   9.235   2.006  11.682 -2.1453 -0.3094  0.0901
  789MOL0     H 8854   9.383   2.101  11.431  0.4689 -1.1017  0.5141
  789MOL0     H 8855   9.337   2.201  11.569 -1.2654 -0.4301  0.2603
  789MOL0     H 8856   9.578   2.145  11.562  2.2034 -0.7320  2.3359
  789MOL0     H 8857   9.536   1.980  11.581 -1.8066 -0.5911  1.7897
  789MOL0     H 8858   9.406   2.091  11.801 -0.9308  4.0615 -0.1433
  789MOL0     H 8859   9.542   2.213  11.771  1.2584 -0.9878  2.3545
  789MOL0     H 8860   9.580   1.920  11.819  1.8620 -1.0392  4.0938
  789MOL0     H 8861   9.595   2.045  11.938  0.9567  0.2572 -0.1335
  789MOL0     H 8862   8.595   1.805  11.741 -0.8742 -1.5244 -0.4737
  789MOL0     H 8863   8.388   1.704  11.672  1.3769 -0.9696  0.0423
  789MOL0     H 8864   8.022   1.751  11.513 -2.1062  0.2792 -1.4028
  789MOL0     H 8865   7.801   1.693  11.494  3.2570 -0.4321  5.8559
  789MOL0     H 8866   6.130   0.848  11.330 -0.7225 -0.0015 -1.1734
  789MOL0     H 8867   5.933   1.012  11.281 -3.0131  0.7587  0.7555
  789MOL0     H 8868   5.734   1.369  11.585 -0.4749  2.7949  0.6877
  789MOL0     H 8869   5.564   1.546  11.634 -1.1359 -0.4331  0.5077
  789MOL0     H 8870   5.326   1.613  11.666 -0.9943  2.8676  2.0495
  789MOL0     H 8871   5.412   1.750  11.610 -2.5102  3.2372  1.1724
  789MOL0     H 8872   5.134   1.686  11.523 -1.1574  0.8282 -0.5036
  789MOL0     H 8873   5.220   1.835  11.475  1.3681  1.1223  1.6255
  789MOL0     H 8874   5.211   1.912  11.704 -1.5038  1.8914 -0.5321
  789MOL0     H 8875   5.047   1.888  11.624 -1.0423 -2.0962 -0.1912
  789MOL0     H 8876   5.160   1.705  11.829 -3.0228 -2.8254  2.3285
  789MOL0     H 8877   5.006   1.682  11.744  2.8430 -1.4796 -1.3222
  789MOL0     H 8878   4.912   1.922  12.075 -1.8955 -0.6991 -0.2535
  789MOL0     H 8879   5.336   1.428  11.288  0.8457  0.5171 -1.9483
  789MOL0     H 8880   5.560   1.261  11.116 -0.0119  1.9140 -0.0824
  789MOL0     H 8881   5.465   1.148  11.220 -0.8197  0.4184  2.4083
  789MOL0     H 8882   5.392   1.291  11.139  0.6344  0.8757 -0.5356
  790MOL0     O 8883  10.184   8.173   0.015 -0.4812  0.3633 -0.1609
  790MOL0     C 8884  10.142   8.074   0.075 -0.4163 -0.4949  0.0083
  790MOL0     O 8885  10.214   7.964   0.111  0.6567 -0.4325 -0.1839
  790MOL0     C 8886  10.341   7.950   0.068  0.2547  0.0649  0.0046
  790MOL0     C 8887  10.392   7.965  -0.061 -0.2770  0.5508  0.4594
  790MOL0     C 8888  10.533   7.964  -0.085  0.1922  0.7553 -1.4027
  790MOL0     C 8889  10.617   7.928   0.023 -0.2208  0.2749  0.3339
  790MOL0     O 8890  10.747   7.935  -0.015  0.2869 -0.7060 -0.0015
  790MOL0     C 8891  10.837   7.933   0.089  1.1406  1.0286  0.5701
  790MOL0     C 8892  10.978   7.921   0.044 -0.1435 -0.1323 -0.4114
  790MOL0     C 8893  11.055   8.054   0.051 -0.2135 -0.6473  0.2215
  790MOL0     C 8894  11.191   8.038  -0.013 -0.5896 -0.1953  0.3519
  790MOL0     C 8895  11.282   8.159   0.013 -0.5206 -0.6559  0.6315
  790MOL0     C 8896  11.423   8.105  -0.027 -0.0526  0.0285 -0.1223
  790MOL0     C 8897  11.523   8.209   0.015  0.2169 -0.3761 -0.3708
  790MOL0     C 8898  11.669   8.158   0.004 -0.0434  1.0804 -0.0062
  790MOL0     N 8899  11.752   8.264   0.057 -0.3331  0.3640 -0.6246
  790MOL0     C 8900  11.797   8.273   0.185 -0.2264 -0.5479  0.4246
  790MOL0     C 8901  11.896   8.366   0.176 -0.1990 -0.0848  0.0531
  790MOL0     C 8902  11.984   8.420   0.284 -0.6818  0.1302  0.5340
  790MOL0     C 8903  12.092   8.318   0.319 -0.2446 -0.0254  0.6379
  790MOL0     C 8904  12.218   8.311   0.233 -0.3915 -0.5671  0.0616
  790MOL0     C 8905  12.322   8.210   0.281 -0.3984  0.3390  0.1699
  790MOL0     O 8906  12.363   8.250   0.409 -0.2511 -0.7340 -0.5522
  790MOL0     C 8907  12.468   8.185   0.463  0.5250  0.6622  0.6082
  790MOL0     C 8908  12.519   8.055   0.420 -0.7339 -0.8172 -0.2370
  790MOL0     C 8909  12.631   7.998   0.481 -0.5006  0.8304 -1.1261
  790MOL0     C 8910  12.656   7.855   0.438  0.7482 -0.3933 -0.5082
  790MOL0     C 8911  12.707   8.066   0.585  0.4102  0.0773  1.0493
  790MOL0     C 8912  12.818   8.014   0.669 -0.7104 -0.0079 -0.2149
  790MOL0     O 8913  12.881   8.094   0.759 -0.8683  0.0676 -0.5919
  790MOL0     C 8914  13.003   8.042   0.803 -0.1923 -0.3172 -1.0513
  790MOL0     C 8915  12.998   7.987   0.932  0.0864  0.5159 -0.5440
  790MOL0     C 8916  13.115   7.932   0.987 -0.2252  0.1097  0.9859
  790MOL0     C 8917  13.238   7.948   0.917 -0.4221  0.8165 -1.1293
  790MOL0     O 8918  13.359   7.896   0.958  0.1427  0.0722  0.0212
  790MOL0     C 8919  13.380   7.861   1.097  0.1295 -0.1182 -0.1658
  790MOL0     C 8920  13.513   7.896   1.150 -0.8356 -1.1184 -0.0964
  790MOL0     C 8921  13.642   7.844   1.076  0.2889 -0.1071  0.0817
  790MOL0     C 8922  13.757   7.923   1.143  0.0690  0.4365 -0.9503
  790MOL0     C 8923  13.884   7.909   1.057  0.7167  0.1630 -0.4928
  790MOL0     C 8924  14.019   7.962   1.124 -0.2425  0.4319 -0.1341
  790MOL0     C 8925  14.154   7.912   1.063  0.1555 -0.0867  0.8638
  790MOL0     C 8926  14.275   7.955   1.147  0.5289  0.9416  0.4639
  790MOL0    Cl 8927  14.307   8.127   1.116 -0.1766 -0.0188  0.0870
  790MOL0     C 8928  13.237   8.005   0.790 -0.0981 -0.1669 -0.0027
  790MOL0     C 8929  13.123   8.052   0.728  0.1579 -0.2370 -0.0743
  790MOL0     O 8930  12.852   7.899   0.643  0.8414  0.1100 -0.8151
  790MOL0     C 8931  12.653   8.193   0.617  0.0705 -0.2521  0.0511
  790MOL0     C 8932  12.539   8.255   0.564 -1.3097  0.6546  1.8274
  790MOL0     N 8933  11.919   8.403   0.049  0.4600  0.7109  0.1996
  790MOL0     N 8934  11.815   8.361  -0.020 -0.5161  0.4467 -0.4559
  790MOL0     C 8935  10.564   7.909   0.150  0.4529 -0.9338  0.6549
  790MOL0     C 8936  10.428   7.920   0.170 -0.6923 -0.9956 -0.7205
  790MOL0     C 8937  10.010   8.079   0.144  0.6491 -0.1831 -0.2374
  790MOL0     C 8938   9.971   7.984   0.236  0.1989  0.7223 -0.2475
  790MOL0     C 8939   9.856   7.983   0.312 -0.9203 -1.8310 -0.2390
  790MOL0     C 8940   9.764   8.084   0.302 -0.1766  0.4698 -0.0966
  790MOL0     O 8941   9.648   8.103   0.374  0.0963  0.5609  0.2330
  790MOL0     C 8942   9.584   7.987   0.429  0.1604  0.2193 -0.0554
  790MOL0     C 8943   9.433   7.989   0.388 -0.1541  0.1305  0.0902
  790MOL0     C 8944   9.403   7.963   0.242  0.1649 -0.2402  0.7379
  790MOL0     C 8945   9.252   7.948   0.212  0.1619  0.5041 -0.1104
  790MOL0     C 8946   9.219   7.925   0.069 -0.3119  0.0285  0.5886
  790MOL0     C 8947   9.158   7.922  -0.120 -0.4848 -0.2796 -0.1382
  790MOL0     C 8948   9.791   8.175   0.197  0.1813  0.1755  0.6574
  790MOL0     C 8949   9.909   8.175   0.119 -0.6096 -1.3935 -0.0695
  790MOL0     C 8950   9.927   8.282   0.013 -0.4670  0.2902 -0.7088
  790MOL0     H 8951  10.332   7.991  -0.147  2.3918  2.9773 -0.8406
  790MOL0     H 8952  10.580   7.984  -0.180  1.5492  2.8663 -0.3625
  790MOL0     H 8953  10.812   7.847   0.151  2.2087 -0.1000 -0.5043
  790MOL0     H 8954  10.824   8.019   0.155 -2.7726 -0.4726  2.0583
  790MOL0     H 8955  11.036   7.843   0.095 -0.9123 -0.0947  0.5377
  790MOL0     H 8956  10.969   7.895  -0.062 -0.8635  2.3576 -1.0169
  790MOL0     H 8957  11.002   8.142   0.015  2.7763  1.5621  0.8423
  790MOL0     H 8958  11.074   8.071   0.158 -0.7927 -1.3141  0.4405
  790MOL0     H 8959  11.221   7.954   0.050 -4.3270  1.0824  4.4038
  790MOL0     H 8960  11.182   8.019  -0.121 -2.4927 -0.3356  0.4911
  790MOL0     H 8961  11.277   8.186   0.119 -2.6097  0.3220  0.3378
  790MOL0     H 8962  11.250   8.246  -0.045 -2.6611 -0.2400  2.2927
  790MOL0     H 8963  11.428   8.010   0.026 -0.4677  0.9153  1.6056
  790MOL0     H 8964  11.414   8.103  -0.136  0.3882  2.3061 -0.2554
  790MOL0     H 8965  11.501   8.227   0.121 -2.2463  0.1311 -0.9070
  790MOL0     H 8966  11.508   8.293  -0.053  0.1101 -0.9005 -1.0060
  790MOL0     H 8967  11.693   8.069   0.062  0.6897  0.2048 -1.5719
  790MOL0     H 8968  11.688   8.132  -0.101  0.3576 -0.3671  0.4079
  790MOL0     H 8969  11.748   8.219   0.267 -0.4955 -1.1005 -0.0918
  790MOL0     H 8970  11.927   8.443   0.374  4.5393  1.1983  4.0125
  790MOL0     H 8971  12.037   8.510   0.251  1.0488  0.2491  3.2927
  790MOL0     H 8972  12.122   8.348   0.420  0.3327 -1.9931  1.1065
  790MOL0     H 8973  12.044   8.220   0.320  0.3631 -0.3702 -0.8610
  790MOL0     H 8974  12.184   8.281   0.133 -4.7044  3.5238 -0.0956
  790MOL0     H 8975  12.266   8.409   0.234  1.7021 -1.4743 -1.9083
  790MOL0     H 8976  12.281   8.108   0.278 -3.1430  1.1947  2.7025
  790MOL0     H 8977  12.405   8.221   0.211 -2.1834 -1.3484 -2.4322
  790MOL0     H 8978  12.469   8.003   0.339  1.0261  0.4447 -2.2654
  790MOL0     H 8979  12.655   7.801   0.533  0.0145  2.4169  1.2102
  790MOL0     H 8980  12.756   7.853   0.392  1.1352  3.1323 -0.1536
  790MOL0     H 8981  12.585   7.816   0.365 -1.7267  0.5710  1.2583
  790MOL0     H 8982  12.904   7.987   0.985 -0.3061  1.2203 -1.2246
  790MOL0     H 8983  13.115   7.885   1.085 -0.8763  0.6774  1.2709
  790MOL0     H 8984  13.309   7.915   1.160 -1.0364  0.4267 -1.8521
  790MOL0     H 8985  13.365   7.755   1.117  1.4297 -0.1858  0.5947
  790MOL0     H 8986  13.519   8.005   1.154 -0.6262 -1.1579  0.8757
  790MOL0     H 8987  13.527   7.863   1.253  1.5442  1.3532  0.4606
  790MOL0     H 8988  13.634   7.873   0.971  1.1113  1.4099  0.4060
  790MOL0     H 8989  13.652   7.736   1.092  1.8393 -0.4070 -2.4057
  790MOL0     H 8990  13.791   7.880   1.237 -1.0627 -3.7160 -2.2239
  790MOL0     H 8991  13.752   8.031   1.159  0.3990  0.3352 -0.1096
  790MOL0     H 8992  13.885   7.801   1.037 -0.4004  0.2444 -1.0573
  790MOL0     H 8993  13.877   7.968   0.966  3.4242  0.7249 -0.4167
  790MOL0     H 8994  14.014   7.935   1.230 -0.3033  0.1531 -0.2069
  790MOL0     H 8995  14.015   8.072   1.126  0.4249  0.4720 -0.7844
  790MOL0     H 8996  14.168   7.960   0.965 -0.3203  0.5442  1.0972
  790MOL0     H 8997  14.159   7.803   1.060  1.3454 -0.0831  1.8867
  790MOL0     H 8998  14.358   7.892   1.114 -0.5035  0.2408 -0.9196
  790MOL0     H 8999  14.254   7.942   1.254  0.3062 -0.8297  0.2417
  790MOL0     H 9000  13.328   8.023   0.735 -0.9121  0.6016 -1.1558
  790MOL0     H 9001  13.118   8.102   0.631 -1.8826 -1.0875 -0.4654
  790MOL0     H 9002  12.692   8.257   0.696  0.6076 -1.5882  0.8997
  790MOL0     H 9003  12.513   8.357   0.591 -0.3858  1.0311  1.3398
  790MOL0     H 9004  10.623   7.894   0.240  2.2104  1.9879  0.1365
  790MOL0     H 9005  10.396   7.920   0.274  0.4572  0.3795 -0.3372
  790MOL0     H 9006  10.041   7.907   0.268 -1.0011  1.0989  3.8595
  790MOL0     H 9007   9.851   7.908   0.390  0.8701 -2.2194 -0.4675
  790MOL0     H 9008   9.629   7.893   0.395  0.5250  0.8498 -1.3956
  790MOL0     H 9009   9.596   7.999   0.537 -1.4406  0.9558  0.0640
  790MOL0     H 9010   9.387   8.088   0.398  0.5237  0.5332 -0.6412
  790MOL0     H 9011   9.387   7.916   0.455  0.7198  0.1599  0.7477
  790MOL0     H 9012   9.439   8.045   0.179 -2.1236  0.7432  0.6014
  790MOL0     H 9013   9.457   7.873   0.211  0.9205  0.8877 -1.4445
  790MOL0     H 9014   9.200   8.032   0.259  3.0014  1.8152  0.8622
  790MOL0     H 9015   9.205   7.860   0.257  0.9882 -1.0853 -2.2168
  790MOL0     H 9016   9.150   7.922  -0.227  0.8841  3.1982 -0.3571
  790MOL0     H 9017   9.713   8.244   0.170 -0.7872 -1.0117  0.3430
  790MOL0     H 9018   9.943   8.229  -0.081  0.8695 -2.5276  0.9740
  790MOL0     H 9019   9.833   8.334  -0.009  0.2451  1.1577 -1.8550
  790MOL0     H 9020  10.006   8.355   0.035  1.5351 -2.3976  1.8288
  791MOL0     O 9021   8.986   2.905   5.724 -0.0745  0.0628  0.4126
  791MOL0     C 9022   9.017   2.861   5.616 -0.1461 -0.0535  0.0019
  791MOL0     O 9023   9.130   2.887   5.547 -0.5195  0.0629  0.6780
  791MOL0     C 9024   9.240   2.956   5.605 -0.3769  0.0417  1.0242
  791MOL0     C 9025   9.354   2.948   5.525 -1.4907  0.1056  1.0524
  791MOL0     C 9026   9.477   3.018   5.554 -0.0941  0.4674  1.0601
  791MOL0     C 9027   9.481   3.094   5.669 -0.4461 -0.3233 -0.4540
  791MOL0     O 9028   9.592   3.166   5.717  0.3039  0.4111  0.0004
  791MOL0     C 9029   9.687   3.219   5.628 -0.0752 -0.2235  0.0630
  791MOL0     C 9030   9.796   3.284   5.723 -0.2251 -0.8586  0.2957
  791MOL0     C 9031   9.912   3.359   5.640 -0.5594 -0.4259 -0.1936
  791MOL0     C 9032   9.992   3.276   5.539 -0.6025 -0.0881 -0.3886
  791MOL0     C 9033  10.103   3.358   5.471  0.8594  0.4481 -0.9181
  791MOL0     C 9034  10.155   3.287   5.351 -0.2749  0.3758  0.0394
  791MOL0     C 9035  10.227   3.387   5.264 -0.8577  0.3460 -0.1716
  791MOL0     C 9036  10.351   3.452   5.334 -0.5062  0.0732 -0.2875
  791MOL0     N 9037  10.447   3.347   5.379 -0.3698 -0.0127 -0.7489
  791MOL0     C 9038  10.536   3.279   5.292  0.0724  0.5434 -0.6562
  791MOL0     C 9039  10.600   3.186   5.377 -1.4152 -0.7691  0.0240
  791MOL0     C 9040  10.696   3.092   5.318 -0.2230 -0.3065 -0.6757
  791MOL0     C 9041  10.817   3.075   5.406  0.1731  0.2753 -0.2233
  791MOL0     C 9042  10.886   2.941   5.368  0.1686  0.8416  0.2021
  791MOL0     C 9043  11.031   2.938   5.428 -0.5240 -0.1415  0.7174
  791MOL0     O 9044  11.085   2.811   5.392  0.4504 -0.0118 -0.2358
  791MOL0     C 9045  11.214   2.781   5.428 -0.5176 -0.5236  0.4325
  791MOL0     C 9046  11.268   2.660   5.399  0.1768  0.6309  0.2253
  791MOL0     C 9047  11.401   2.622   5.424  0.3933  0.2661 -0.1538
  791MOL0     C 9048  11.452   2.492   5.366 -0.2819 -0.2034 -0.7281
  791MOL0     C 9049  11.492   2.720   5.480  0.7987  0.8756 -0.0443
  791MOL0     C 9050  11.634   2.694   5.510 -0.5772 -0.8720  0.2559
  791MOL0     O 9051  11.695   2.781   5.594  0.4661 -0.5452  0.5442
  791MOL0     C 9052  11.832   2.787   5.588  0.0904  1.0003 -0.6418
  791MOL0     C 9053  11.903   2.701   5.684  0.4657 -0.7707 -0.5491
  791MOL0     C 9054  12.037   2.692   5.670 -0.3076 -0.8235 -0.6009
  791MOL0     C 9055  12.102   2.757   5.573 -0.3289  0.0077  0.3570
  791MOL0     O 9056  12.237   2.741   5.569 -0.4911 -0.4519 -0.7311
  791MOL0     C 9057  12.320   2.852   5.522  0.4081 -0.3140 -0.7816
  791MOL0     C 9058  12.470   2.815   5.562 -0.0183  0.0096 -0.4180
  791MOL0     C 9059  12.550   2.921   5.497 -0.0076  0.8379  1.0271
  791MOL0     C 9060  12.695   2.883   5.491 -0.0407  0.1988  0.9111
  791MOL0     C 9061  12.781   3.013   5.470 -0.3406  0.1471  0.4574
  791MOL0     C 9062  12.784   3.063   5.326 -0.7284 -0.3328 -0.3375
  791MOL0     C 9063  12.922   3.111   5.284 -1.1572 -0.5134  0.2027
  791MOL0     C 9064  12.933   3.183   5.147  0.5783  0.2846  0.5053
  791MOL0    Cl 9065  12.870   3.074   5.021 -0.1672 -0.0794 -0.0625
  791MOL0     C 9066  12.031   2.832   5.474  0.8864  0.8077  0.3226
  791MOL0     C 9067  11.898   2.836   5.484  0.0970  0.4567 -0.9457
  791MOL0     O 9068  11.694   2.607   5.447 -0.2642  0.1900 -0.2466
  791MOL0     C 9069  11.438   2.845   5.516 -0.1680  0.3117 -0.8752
  791MOL0     C 9070  11.304   2.878   5.487  0.1427 -0.8261 -0.1717
  791MOL0     N 9071  10.552   3.209   5.507 -0.5621  0.3333  0.0906
  791MOL0     N 9072  10.460   3.299   5.506 -0.1703  0.1683 -0.1569
  791MOL0     C 9073   9.364   3.113   5.751 -0.3335  0.9230  0.1807
  791MOL0     C 9074   9.242   3.041   5.712 -0.1508  0.1528 -0.3149
  791MOL0     C 9075   8.928   2.754   5.547 -0.7221 -0.2947 -0.6105
  791MOL0     C 9076   8.955   2.717   5.414  0.4268  0.4614  0.2632
  791MOL0     C 9077   8.867   2.631   5.347 -0.0650  0.7795 -0.3398
  791MOL0     C 9078   8.754   2.583   5.402 -0.3918 -0.1664 -0.4488
  791MOL0     O 9079   8.673   2.517   5.314  0.7513  0.2221  0.1009
  791MOL0     C 9080   8.555   2.450   5.353 -0.0049 -0.3974  0.9645
  791MOL0     C 9081   8.453   2.443   5.238  0.4851  0.5757  0.0574
  791MOL0     C 9082   8.516   2.365   5.117  0.0653 -0.5839 -0.5006
  791MOL0     C 9083   8.418   2.350   5.008 -0.6443 -0.0213  0.5789
  791MOL0     C 9084   8.443   2.237   4.925 -1.0238  0.3794  0.5822
  791MOL0     C 9085   8.490   2.146   4.863  0.0491  0.7336  0.6916
  791MOL0     C 9086   8.725   2.616   5.531  0.3662  0.4131 -0.4148
  791MOL0     C 9087   8.808   2.700   5.603 -0.0225 -0.2323 -0.1523
  791MOL0     C 9088   8.757   2.740   5.748  0.2615  0.0769  0.0945
  791MOL0     H 9089   9.353   2.889   5.434 -0.1939  2.3043 -0.4998
  791MOL0     H 9090   9.562   3.017   5.485 -0.9710  2.0286 -0.1186
  791MOL0     H 9091   9.644   3.300   5.568  2.6128  1.6211  0.4414
  791MOL0     H 9092   9.722   3.144   5.556 -0.6781  0.5512 -1.0739
  791MOL0     H 9093   9.746   3.353   5.792 -0.6974  0.2653 -1.1123
  791MOL0     H 9094   9.829   3.201   5.786 -2.5099 -0.8433  1.6278
  791MOL0     H 9095   9.869   3.442   5.584  2.2828 -0.8255 -3.2733
  791MOL0     H 9096   9.991   3.405   5.699 -2.6137  1.3833  1.3282
  791MOL0     H 9097  10.029   3.190   5.596  1.0818  1.6131  1.2160
  791MOL0     H 9098   9.930   3.242   5.455 -0.3782  1.3378 -1.1631
  791MOL0     H 9099  10.179   3.372   5.549 -0.8625 -1.0845  1.1514
  791MOL0     H 9100  10.061   3.454   5.441  0.6357  0.5767 -0.2190
  791MOL0     H 9101  10.213   3.201   5.384 -2.7375 -0.9646  1.1341
  791MOL0     H 9102  10.078   3.240   5.290  0.3325  0.1045 -0.5378
  791MOL0     H 9103  10.144   3.456   5.248 -0.3361  0.8337 -0.8205
  791MOL0     H 9104  10.248   3.346   5.165 -0.9831 -1.3256  0.4622
  791MOL0     H 9105  10.400   3.528   5.272  0.6179  0.7730  1.3951
  791MOL0     H 9106  10.316   3.509   5.420 -0.8730 -1.0401  0.3133
  791MOL0     H 9107  10.548   3.295   5.185 -0.8962 -0.8952 -1.0106
  791MOL0     H 9108  10.725   3.116   5.215 -2.1275 -2.2260 -1.7429
  791MOL0     H 9109  10.645   2.996   5.305  0.1608 -0.4159 -1.4137
  791MOL0     H 9110  10.889   3.155   5.388  0.8623 -0.3751 -0.4086
  791MOL0     H 9111  10.783   3.057   5.508 -0.0845  2.1489  0.0632
  791MOL0     H 9112  10.825   2.860   5.408 -1.5114  1.1884 -1.4906
  791MOL0     H 9113  10.887   2.928   5.259  0.1857 -3.7783  0.5557
  791MOL0     H 9114  11.092   3.021   5.391  0.1725  0.1152  2.3763
  791MOL0     H 9115  11.021   2.947   5.536  1.2239  0.0774  0.8916
  791MOL0     H 9116  11.204   2.583   5.357 -1.6603  1.1034  1.9907
  791MOL0     H 9117  11.534   2.505   5.295 -0.9270  2.4132 -1.0992
  791MOL0     H 9118  11.372   2.433   5.320 -0.6197 -2.2457  2.1965
  791MOL0     H 9119  11.494   2.432   5.447  2.1702  2.0043 -0.2559
  791MOL0     H 9120  11.846   2.660   5.766  0.8992  0.0906  0.2125
  791MOL0     H 9121  12.082   2.629   5.747 -1.8205  0.5845  1.5688
  791MOL0     H 9122  12.312   2.858   5.413  2.0073 -2.3585 -1.0844
  791MOL0     H 9123  12.279   2.941   5.569 -3.1012 -1.9069 -0.5185
  791MOL0     H 9124  12.480   2.820   5.670  0.4431 -0.8747 -0.4080
  791MOL0     H 9125  12.504   2.715   5.532  2.5033  1.0202 -1.1951
  791MOL0     H 9126  12.538   3.019   5.545  0.5058  0.9464  0.9397
  791MOL0     H 9127  12.510   2.932   5.396  0.2149  1.6545  1.0214
  791MOL0     H 9128  12.717   2.812   5.411 -1.5143 -0.6973  1.2698
  791MOL0     H 9129  12.733   2.834   5.581  0.6560 -0.2188  0.3966
  791MOL0     H 9130  12.750   3.090   5.541  0.8994  1.5199 -0.4162
  791MOL0     H 9131  12.881   2.977   5.499  0.2410 -0.1832 -1.7937
  791MOL0     H 9132  12.716   3.148   5.313 -1.0614 -0.3111  1.3569
  791MOL0     H 9133  12.742   2.988   5.259 -0.3653  0.3114 -1.3165
  791MOL0     H 9134  12.997   3.031   5.283  1.4328  1.7482  0.5738
  791MOL0     H 9135  12.957   3.174   5.367 -3.0426 -0.9644  1.3930
  791MOL0     H 9136  13.038   3.207   5.135  0.8058  0.3840  2.4040
  791MOL0     H 9137  12.867   3.270   5.136 -1.3073 -1.0822  0.5023
  791MOL0     H 9138  12.091   2.868   5.391 -1.7224 -0.4110 -2.2667
  791MOL0     H 9139  11.838   2.891   5.412 -1.0800 -1.4080 -1.4636
  791MOL0     H 9140  11.506   2.926   5.541 -0.3515  1.6353 -4.1207
  791MOL0     H 9141  11.276   2.973   5.532  1.0663 -2.0551  3.3447
  791MOL0     H 9142   9.363   3.178   5.838 -0.3643  0.9138  0.1872
  791MOL0     H 9143   9.152   3.061   5.770 -0.0746 -0.7587  0.1343
  791MOL0     H 9144   9.035   2.755   5.351  0.2320  1.6037  0.6901
  791MOL0     H 9145   8.889   2.614   5.242  2.7504  0.7662  0.1868
  791MOL0     H 9146   8.581   2.351   5.392  2.5737  0.5690  1.9245
  791MOL0     H 9147   8.507   2.498   5.439  0.2536  0.6179  0.5503
  791MOL0     H 9148   8.425   2.544   5.206 -1.7895 -1.0893 -3.9506
  791MOL0     H 9149   8.364   2.394   5.277 -0.1113  0.5715 -1.2414
  791MOL0     H 9150   8.605   2.419   5.084  0.8079 -0.3271  1.7557
  791MOL0     H 9151   8.549   2.265   5.143 -0.1666 -0.6785 -0.5636
  791MOL0     H 9152   8.418   2.439   4.945 -2.1215  0.3979  1.1269
  791MOL0     H 9153   8.312   2.348   5.035 -1.7653  3.2481 -2.7558
  791MOL0     H 9154   8.545   2.078   4.801 -0.6328  0.6161  0.1900
  791MOL0     H 9155   8.637   2.580   5.582  1.2030 -2.6714 -0.9441
  791MOL0     H 9156   8.708   2.836   5.764  0.9515  0.2234  1.6119
  791MOL0     H 9157   8.683   2.667   5.781  0.1098 -0.3284 -1.1269
  791MOL0     H 9158   8.840   2.728   5.819  0.7971  3.0267  0.1134
  792MOL0     O 9159   5.575   7.340   0.960 -0.5017 -0.2949  0.5494
  792MOL0     C 9160   5.637   7.322   1.065 -0.2543 -0.1211  0.6351
  792MOL0     O 9161   5.607   7.237   1.166  0.3286  0.0668  1.0980
  792MOL0     C 9162   5.504   7.150   1.159 -0.8974  0.4768  0.3536
  792MOL0     C 9163   5.458   7.117   1.285  0.4056  0.8996 -0.1165
  792MOL0     C 9164   5.362   7.014   1.307 -0.1053 -0.1200  0.2984
  792MOL0     C 9165   5.312   6.952   1.191 -0.5831  0.0522  0.9929
  792MOL0     O 9166   5.201   6.873   1.201  0.1215 -0.7522 -0.2372
  792MOL0     C 9167   5.076   6.939   1.244 -0.5436  1.2354 -0.3547
  792MOL0     C 9168   4.971   6.831   1.232  1.8173  0.5394 -0.3023
  792MOL0     C 9169   4.828   6.896   1.249  0.5573 -0.8935 -0.2048
  792MOL0     C 9170   4.796   6.918   1.399  0.8005 -0.1729  0.5449
  792MOL0     C 9171   4.749   6.785   1.467 -0.3636 -1.2154 -0.6019
  792MOL0     C 9172   4.712   6.801   1.613 -1.0286 -0.1431  0.4429
  792MOL0     C 9173   4.631   6.669   1.651 -0.1286 -0.8949 -0.5832
  792MOL0     C 9174   4.527   6.707   1.758 -0.1975 -0.7279 -0.7174
  792MOL0     N 9175   4.433   6.601   1.780  0.5583 -0.1161  0.3672
  792MOL0     C 9176   4.432   6.533   1.896  0.0871 -0.4219 -0.2891
  792MOL0     C 9177   4.331   6.444   1.874  1.5730 -0.0666  0.1676
  792MOL0     C 9178   4.274   6.353   1.978  0.4639 -0.9572 -0.8310
  792MOL0     C 9179   4.144   6.421   2.019 -0.3426 -0.0120 -0.1120
  792MOL0     C 9180   4.072   6.343   2.143  0.2139 -0.4641 -0.1503
  792MOL0     C 9181   4.158   6.369   2.274  1.0658  0.3383  0.4044
  792MOL0     O 9182   4.181   6.511   2.305  0.0416  0.6186 -0.8698
  792MOL0     C 9183   4.308   6.562   2.277  0.6322 -0.9819 -0.5475
  792MOL0     C 9184   4.418   6.503   2.330 -0.7469  0.6979  0.3159
  792MOL0     C 9185   4.545   6.557   2.317 -0.8308  0.5115 -0.4157
  792MOL0     C 9186   4.666   6.493   2.389  0.0836 -0.2021  0.5715
  792MOL0     C 9187   4.563   6.677   2.237 -0.5456 -0.9695 -0.2901
  792MOL0     C 9188   4.694   6.739   2.217 -0.0073 -0.2736  0.1752
  792MOL0     O 9189   4.757   6.785   2.334  0.2071 -0.6229  0.3050
  792MOL0     C 9190   4.888   6.816   2.333  0.2903 -0.7746 -0.8868
  792MOL0     C 9191   4.988   6.724   2.292  0.2192  0.3252 -0.3074
  792MOL0     C 9192   5.124   6.762   2.298 -0.1749  0.6575 -0.7846
  792MOL0     C 9193   5.165   6.888   2.351  0.3899 -0.7529 -0.0241
  792MOL0     O 9194   5.297   6.930   2.361 -0.3326  0.6838 -0.7804
  792MOL0     C 9195   5.396   6.845   2.298  0.3838 -0.5271 -1.0446
  792MOL0     C 9196   5.536   6.899   2.334  0.6842 -0.3219  0.7305
  792MOL0     C 9197   5.552   7.043   2.276  0.4553 -0.2519  0.2512
  792MOL0     C 9198   5.619   7.030   2.134 -0.0540 -0.5606 -0.3731
  792MOL0     C 9199   5.774   7.013   2.154 -0.0520 -0.5548 -0.2006
  792MOL0     C 9200   5.844   6.966   2.023  0.1609  0.2825 -0.4734
  792MOL0     C 9201   5.846   6.817   2.018  0.1098  0.5090  0.7678
  792MOL0     C 9202   5.908   6.771   1.880  0.5206 -0.3705 -0.1745
  792MOL0    Cl 9203   6.069   6.849   1.856  0.1563  0.0852 -0.4358
  792MOL0     C 9204   5.067   6.981   2.390 -0.3054 -0.7786 -1.0388
  792MOL0     C 9205   4.936   6.942   2.385 -0.2117 -0.1497  0.3556
  792MOL0     O 9206   4.729   6.756   2.102  0.1176 -0.0674  0.0869
  792MOL0     C 9207   4.447   6.732   2.175  0.3901 -0.6353  0.3257
  792MOL0     C 9208   4.325   6.674   2.199  0.1439 -0.1284 -0.0993
  792MOL0     N 9209   4.278   6.461   1.739 -0.6102 -0.1196 -0.4508
  792MOL0     N 9210   4.353   6.549   1.683  0.2241  0.0131  0.1496
  792MOL0     C 9211   5.358   6.983   1.058  0.0293 -0.0071 -0.2002
  792MOL0     C 9212   5.451   7.083   1.049 -0.8239  0.0958 -0.1613
  792MOL0     C 9213   5.772   7.394   1.078 -0.0853  0.3019 -0.7471
  792MOL0     C 9214   5.864   7.325   1.147 -0.2339 -0.8428  0.1637
  792MOL0     C 9215   5.993   7.371   1.169 -0.7195 -0.1898 -0.2829
  792MOL0     C 9216   6.041   7.490   1.115  0.8738 -0.6120  0.6104
  792MOL0     O 9217   6.170   7.535   1.119  0.6309 -0.3597 -0.6508
  792MOL0     C 9218   6.257   7.464   1.207  0.3124  0.4713  0.1152
  792MOL0     C 9219   6.400   7.523   1.212  0.0282  0.4647  0.9084
  792MOL0     C 9220   6.472   7.520   1.070 -0.0586  0.3662  0.0804
  792MOL0     C 9221   6.570   7.639   1.056 -0.3230  0.2249 -0.0652
  792MOL0     C 9222   6.649   7.606   0.935 -0.4491  0.9153  0.0738
  792MOL0     C 9223   6.716   7.573   0.832  0.7692  0.2336  0.4352
  792MOL0     C 9224   5.942   7.567   1.053 -0.1396 -0.2738  0.2896
  792MOL0     C 9225   5.811   7.522   1.028  0.5446 -0.3343  0.4314
  792MOL0     C 9226   5.728   7.603   0.938  0.2285 -0.6145  0.0279
  792MOL0     H 9227   5.497   7.167   1.374 -0.0938  0.5456  0.3086
  792MOL0     H 9228   5.327   6.996   1.408  2.3634 -0.1159  1.2241
  792MOL0     H 9229   5.054   7.025   1.180 -0.9115  3.0642  2.0972
  792MOL0     H 9230   5.098   6.963   1.348  0.9773 -0.8082 -0.1268
  792MOL0     H 9231   4.982   6.771   1.141  4.9368 -2.7714  1.9728
  792MOL0     H 9232   4.986   6.751   1.305  4.2270  0.4211 -0.8529
  792MOL0     H 9233   4.811   6.983   1.186 -2.6625 -1.1950  0.0578
  792MOL0     H 9234   4.751   6.824   1.218 -1.5940  1.4231 -0.5690
  792MOL0     H 9235   4.889   6.955   1.445  1.1421  1.9055 -1.6298
  792MOL0     H 9236   4.727   7.003   1.403 -0.8723 -1.4016 -0.7271
  792MOL0     H 9237   4.826   6.707   1.466  1.6929  0.7136  0.1646
  792MOL0     H 9238   4.659   6.750   1.416 -0.5297 -0.0724 -1.1161
  792MOL0     H 9239   4.804   6.800   1.673  0.0647  0.9369 -1.1349
  792MOL0     H 9240   4.660   6.895   1.632 -3.6218 -0.6487 -3.1667
  792MOL0     H 9241   4.704   6.594   1.684 -0.0463 -1.3878 -1.8278
  792MOL0     H 9242   4.576   6.627   1.566  0.2580 -0.6538 -0.9580
  792MOL0     H 9243   4.586   6.736   1.845 -2.4343 -0.1204  0.6776
  792MOL0     H 9244   4.464   6.787   1.716 -1.8055 -1.2881  0.5385
  792MOL0     H 9245   4.486   6.562   1.985 -0.3081  1.5068 -0.6330
  792MOL0     H 9246   4.349   6.338   2.055 -0.9191  0.7886  0.9754
  792MOL0     H 9247   4.236   6.256   1.944 -1.1406 -0.3246 -0.9786
  792MOL0     H 9248   4.142   6.528   2.040 -1.4832 -0.0568  0.0686
  792MOL0     H 9249   4.071   6.412   1.937 -0.7937 -0.8149  0.3625
  792MOL0     H 9250   3.969   6.371   2.166  0.4355  0.7309 -0.5032
  792MOL0     H 9251   4.079   6.236   2.120 -0.2170 -0.9969  1.9755
  792MOL0     H 9252   4.100   6.327   2.357  2.5057  0.3763  1.4697
  792MOL0     H 9253   4.251   6.314   2.257  0.0226 -2.5948  3.1708
  792MOL0     H 9254   4.414   6.407   2.380  0.3703  0.4356 -0.0577
  792MOL0     H 9255   4.750   6.483   2.321  0.7766 -1.1700  1.5437
  792MOL0     H 9256   4.637   6.398   2.434 -0.7401  1.2848  3.4450
  792MOL0     H 9257   4.695   6.557   2.473  1.8957 -1.3378  0.8630
  792MOL0     H 9258   4.948   6.634   2.246 -0.8191 -0.0593  1.2729
  792MOL0     H 9259   5.190   6.689   2.254 -1.0707 -1.2912  0.9458
  792MOL0     H 9260   5.395   6.742   2.337  1.8620 -1.0139 -2.1672
  792MOL0     H 9261   5.398   6.866   2.191  2.1797  0.7660 -0.8117
  792MOL0     H 9262   5.552   6.903   2.442  0.3032  0.2069  0.7742
  792MOL0     H 9263   5.611   6.831   2.292  0.0321  0.5103 -1.9643
  792MOL0     H 9264   5.624   7.093   2.342  0.9128 -3.1127  2.1150
  792MOL0     H 9265   5.456   7.094   2.275 -0.6119 -1.9407  2.9668
  792MOL0     H 9266   5.598   7.120   2.076 -1.2457 -0.1877  0.5842
  792MOL0     H 9267   5.579   6.945   2.078 -3.5247  0.1011  0.8606
  792MOL0     H 9268   5.817   7.111   2.176 -1.0452  0.5981 -3.0109
  792MOL0     H 9269   5.802   6.954   2.242 -1.1738  1.4386  1.6212
  792MOL0     H 9270   5.951   6.989   2.023 -0.2459  2.3163 -0.5156
  792MOL0     H 9271   5.801   7.001   1.928  1.1040  1.0521 -0.6299
  792MOL0     H 9272   5.739   6.791   2.025 -0.0915  1.3491  0.8989
  792MOL0     H 9273   5.903   6.767   2.096  2.7248 -0.7720 -1.7738
  792MOL0     H 9274   5.847   6.809   1.797 -1.5785  1.1068  1.9259
  792MOL0     H 9275   5.905   6.663   1.865  2.0180 -0.2266 -1.7394
  792MOL0     H 9276   5.101   7.073   2.435 -2.7792 -0.5825  0.6179
  792MOL0     H 9277   4.854   7.006   2.416  0.8596 -0.1355  3.4767
  792MOL0     H 9278   4.448   6.825   2.118 -5.1001 -1.2721 -1.4073
  792MOL0     H 9279   4.234   6.721   2.166 -2.3398 -0.6245  4.9867
  792MOL0     H 9280   5.317   6.942   0.965 -0.2604 -0.4048  0.1006
  792MOL0     H 9281   5.484   7.100   0.946 -2.4984  0.6317 -0.6359
  792MOL0     H 9282   5.851   7.226   1.189  2.2670 -0.3408  2.3856
  792MOL0     H 9283   6.059   7.310   1.230 -1.3962  0.0824  0.7420
  792MOL0     H 9284   6.209   7.468   1.305 -1.9844  0.9022 -0.9649
  792MOL0     H 9285   6.267   7.363   1.167  1.4496  0.0405  1.4193
  792MOL0     H 9286   6.454   7.470   1.291  4.4979 -0.1614 -2.2007
  792MOL0     H 9287   6.387   7.627   1.243  3.4716  1.1481  0.4676
  792MOL0     H 9288   6.526   7.425   1.060  0.9715  0.9036  0.4172
  792MOL0     H 9289   6.400   7.523   0.988  0.2942 -0.8395 -0.2898
  792MOL0     H 9290   6.634   7.638   1.144  0.1198 -1.5308 -0.3643
  792MOL0     H 9291   6.513   7.732   1.054 -0.8390  0.0255 -4.0881
  792MOL0     H 9292   6.779   7.551   0.749 -0.9292 -3.8354  0.0251
  792MOL0     H 9293   5.981   7.656   1.004  0.5199  0.7441  2.5473
  792MOL0     H 9294   5.769   7.698   0.903  0.2561 -1.2064 -1.6590
  792MOL0     H 9295   5.720   7.541   0.849 -0.9860  0.1523 -0.4176
  792MOL0     H 9296   5.627   7.622   0.975  0.8775  0.6654  1.2331
  793MOL0     O 9297   5.497   9.881   0.713  0.1542 -0.1128  0.0740
  793MOL0     C 9298   5.409   9.947   0.661  0.0554 -0.3374 -0.0540
  793MOL0     O 9299   5.423  10.078   0.607 -0.3727 -0.6562 -0.0528
  793MOL0     C 9300   5.548  10.129   0.593 -0.4248  0.0612  0.4340
  793MOL0     C 9301   5.657  10.063   0.540 -0.4958 -0.2456 -0.5557
  793MOL0     C 9302   5.783  10.124   0.518 -0.6159  0.5527 -0.1906
  793MOL0     C 9303   5.808  10.249   0.572 -0.3923 -0.5888  0.2023
  793MOL0     O 9304   5.917  10.334   0.557 -0.5171  0.7157 -0.0465
  793MOL0     C 9305   6.036  10.270   0.497 -0.0967  0.8866 -0.3171
  793MOL0     C 9306   6.152  10.368   0.487  0.2113  0.0386  0.4451
  793MOL0     C 9307   6.143  10.450   0.364  0.0200  0.2684  0.4828
  793MOL0     C 9308   6.239  10.560   0.352  0.0866 -0.8702  0.2157
  793MOL0     C 9309   6.380  10.496   0.366  0.7109 -0.3662  0.2293
  793MOL0     C 9310   6.486  10.600   0.353 -0.0244  0.6796  0.2352
  793MOL0     C 9311   6.622  10.531   0.314  0.1596 -0.5956  0.0277
  793MOL0     C 9312   6.743  10.616   0.343  0.1225  0.8750 -0.1054
  793MOL0     N 9313   6.867  10.554   0.284  0.5063 -0.4717  0.6513
  793MOL0     C 9314   6.938  10.606   0.179 -1.1519 -0.1380  0.2747
  793MOL0     C 9315   7.062  10.536   0.188  0.0947  0.8341 -0.1243
  793MOL0     C 9316   7.182  10.554   0.095  0.3094  0.2368 -0.4053
  793MOL0     C 9317   7.274  10.678   0.121  0.6258  0.3311 -0.0308
  793MOL0     C 9318   7.411  10.661   0.057  0.3684 -0.4645  0.2281
  793MOL0     C 9319   7.483  10.785   0.045 -0.1210  0.4030  0.5978
  793MOL0     O 9320   7.618  10.776   0.001  0.0007  0.5974 -0.4236
  793MOL0     C 9321   7.692  10.886  -0.023 -0.4947  0.1497 -0.4607
  793MOL0     C 9322   7.652  11.017  -0.022  0.5498  0.1510 -0.3440
  793MOL0     C 9323   7.727  11.129  -0.045 -0.1293 -0.8323  0.1589
  793MOL0     C 9324   7.667  11.269  -0.012  0.7812  0.0869  0.7155
  793MOL0     C 9325   7.863  11.121  -0.081 -0.0456 -0.0039 -0.7103
  793MOL0     C 9326   7.955  11.226  -0.102  0.3370 -0.3662  0.8782
  793MOL0     O 9327   8.054  11.199  -0.194  0.3933  0.0939  0.3894
  793MOL0     C 9328   8.141  11.300  -0.209  0.0210 -0.4432  0.9058
  793MOL0     C 9329   8.217  11.332  -0.101 -0.1085 -0.3486 -0.3664
  793MOL0     C 9330   8.330  11.424  -0.118 -0.2276 -0.0186 -0.4779
  793MOL0     C 9331   8.352  11.490  -0.232 -0.9941  0.3390  0.6161
  793MOL0     O 9332   8.467  11.567  -0.248 -0.0688  0.2108 -0.8137
  793MOL0     C 9333   8.495  11.631  -0.374 -0.0496  0.1931 -0.4097
  793MOL0     C 9334   8.646  11.675  -0.371 -0.2782  0.0538 -0.1119
  793MOL0     C 9335   8.733  11.554  -0.412  0.3083 -0.1284  0.2482
  793MOL0     C 9336   8.877  11.597  -0.416  0.7710 -0.2778 -0.6611
  793MOL0     C 9337   8.919  11.670  -0.543 -0.0290  0.0287  0.3179
  793MOL0     C 9338   9.074  11.674  -0.569  0.1265 -0.4464 -0.6542
  793MOL0     C 9339   9.132  11.811  -0.515  0.2005 -0.2184 -0.0595
  793MOL0     C 9340   9.123  11.830  -0.361  0.7849 -0.1885  0.9211
  793MOL0    Cl 9341   9.190  11.695  -0.281  0.2776  0.1775  0.3074
  793MOL0     C 9342   8.275  11.454  -0.346  0.2371  0.1523 -0.0801
  793MOL0     C 9343   8.179  11.354  -0.335  1.0284  0.0917 -1.2964
  793MOL0     O 9344   7.950  11.327  -0.023 -0.1907 -0.1863  0.1207
  793MOL0     C 9345   7.907  10.985  -0.066 -0.4404  0.5092 -0.8834
  793MOL0     C 9346   7.829  10.869  -0.054  0.2619 -0.5103 -0.0031
  793MOL0     N 9347   7.065  10.462   0.310 -0.5354  0.0827 -0.6468
  793MOL0     N 9348   6.948  10.474   0.362 -0.9054  0.1309  0.2039
  793MOL0     C 9349   5.698  10.316   0.631 -0.1245 -0.9737 -0.3465
  793MOL0     C 9350   5.572  10.258   0.635  0.0380 -0.3018 -0.2084
  793MOL0     C 9351   5.285   9.889   0.646  0.7049 -0.1757 -1.3653
  793MOL0     C 9352   5.204   9.893   0.532  0.4816  0.9432  0.2477
  793MOL0     C 9353   5.074   9.831   0.524  0.5322 -0.4763 -0.2933
  793MOL0     C 9354   5.022   9.763   0.635 -1.2926  0.4972  0.6419
  793MOL0     O 9355   4.897   9.711   0.622  0.5662  0.3109 -0.3021
  793MOL0     C 9356   4.827   9.667   0.745  0.5648  0.3836  0.1219
  793MOL0     C 9357   4.677   9.631   0.707  1.1635  0.1871  0.2660
  793MOL0     C 9358   4.598   9.595   0.839 -0.2905 -0.6080  0.6731
  793MOL0     C 9359   4.462   9.532   0.795  0.4571  0.1885 -0.0057
  793MOL0     C 9360   4.374   9.628   0.726  0.2726  0.1386  0.2243
  793MOL0     C 9361   4.291   9.712   0.690 -0.6060 -0.2962 -0.1754
  793MOL0     C 9362   5.097   9.767   0.750 -0.4376  0.2820  0.0012
  793MOL0     C 9363   5.225   9.828   0.763 -0.0615 -0.6501  0.6216
  793MOL0     C 9364   5.287   9.831   0.901 -1.0005  0.5537 -0.1342
  793MOL0     H 9365   5.655   9.961   0.503 -1.6982 -0.0029 -1.2336
  793MOL0     H 9366   5.864  10.069   0.470 -0.2930  0.4904  0.4211
  793MOL0     H 9367   6.008  10.222   0.403  0.1442 -0.1060  0.1086
  793MOL0     H 9368   6.068  10.184   0.555  2.2210  1.6065 -0.4468
  793MOL0     H 9369   6.141  10.430   0.577  0.9453  2.6411 -1.1734
  793MOL0     H 9370   6.247  10.313   0.489 -1.0018 -2.4030 -2.3817
  793MOL0     H 9371   6.158  10.393   0.271 -1.3770 -0.4180  0.6441
  793MOL0     H 9372   6.041  10.488   0.369 -0.2319 -0.2505 -0.3787
  793MOL0     H 9373   6.228  10.610   0.255 -0.0814  0.1624  0.7452
  793MOL0     H 9374   6.221  10.632   0.433 -0.4515 -1.7676  0.9068
  793MOL0     H 9375   6.392  10.424   0.285  0.3807  1.6934 -1.7553
  793MOL0     H 9376   6.394  10.458   0.468  0.0534  0.9365  0.8366
  793MOL0     H 9377   6.468  10.673   0.274 -1.0937  1.7743  1.4501
  793MOL0     H 9378   6.494  10.653   0.448 -1.2014  0.2484  0.5931
  793MOL0     H 9379   6.620  10.510   0.206 -0.3020 -3.2903  0.4937
  793MOL0     H 9380   6.633  10.438   0.371 -1.9071 -0.7007  0.3355
  793MOL0     H 9381   6.730  10.711   0.290 -0.6746  0.6286 -0.3642
  793MOL0     H 9382   6.750  10.630   0.451 -0.9682  1.4091 -0.0931
  793MOL0     H 9383   6.904  10.682   0.109  0.0639 -1.3840 -1.7828
  793MOL0     H 9384   7.162  10.552  -0.012  3.0040  1.9299 -1.0586
  793MOL0     H 9385   7.243  10.464   0.108 -1.1067 -0.4623  2.0273
  793MOL0     H 9386   7.227  10.774   0.100 -0.3106 -0.3726 -1.2926
  793MOL0     H 9387   7.293  10.672   0.229  0.4633 -4.4700 -0.0477
  793MOL0     H 9388   7.457  10.588   0.124 -0.2462  0.7896  2.1138
  793MOL0     H 9389   7.399  10.612  -0.040 -2.9849 -1.5000  1.0222
  793MOL0     H 9390   7.424  10.851  -0.020 -2.3044 -1.8702  0.0739
  793MOL0     H 9391   7.476  10.842   0.138 -0.6177  2.5080 -0.6589
  793MOL0     H 9392   7.550  11.038   0.009  1.2993  0.3215  2.3258
  793MOL0     H 9393   7.689  11.332  -0.099  2.4173  0.0565  1.0740
  793MOL0     H 9394   7.710  11.318   0.076 -0.6948 -1.0828  2.1467
  793MOL0     H 9395   7.559  11.270   0.006  1.2418  2.3450  4.1701
  793MOL0     H 9396   8.195  11.301   0.001  1.2913  1.5890  0.5898
  793MOL0     H 9397   8.401  11.449  -0.039  0.9052 -0.8584 -1.1989
  793MOL0     H 9398   8.498  11.559  -0.456  3.9439 -0.8034  0.4382
  793MOL0     H 9399   8.429  11.718  -0.374 -0.6461 -0.2237  1.1660
  793MOL0     H 9400   8.681  11.753  -0.438  1.9811 -0.9605 -0.2042
  793MOL0     H 9401   8.686  11.710  -0.275  1.1021 -1.0497 -0.2522
  793MOL0     H 9402   8.711  11.527  -0.516 -2.4585  0.8746  0.4875
  793MOL0     H 9403   8.714  11.471  -0.343  0.6675 -0.6795 -0.3058
  793MOL0     H 9404   8.941  11.509  -0.412 -0.5505 -1.3153 -1.6127
  793MOL0     H 9405   8.907  11.655  -0.328  1.0600 -0.1348 -0.8529
  793MOL0     H 9406   8.891  11.610  -0.631  4.3772  0.1264 -1.4188
  793MOL0     H 9407   8.877  11.770  -0.552 -2.6521 -0.9417  0.8754
  793MOL0     H 9408   9.101  11.674  -0.675  0.7828  2.1595 -0.5617
  793MOL0     H 9409   9.116  11.593  -0.509 -2.1976 -2.2294 -1.2962
  793MOL0     H 9410   9.073  11.889  -0.564  0.5703  0.9934  1.3449
  793MOL0     H 9411   9.233  11.830  -0.550  0.5359 -3.6700 -1.3583
  793MOL0     H 9412   9.017  11.837  -0.336  0.6014  0.2912  0.0750
  793MOL0     H 9413   9.161  11.931  -0.343  1.7122 -0.2080 -0.6769
  793MOL0     H 9414   8.281  11.502  -0.443  1.3128  2.2198  0.9316
  793MOL0     H 9415   8.119  11.328  -0.422  0.5216 -2.6812 -0.2147
  793MOL0     H 9416   8.015  10.979  -0.075 -0.4171  0.5257 -0.6163
  793MOL0     H 9417   7.870  10.769  -0.047 -0.1044 -0.5934  1.2192
  793MOL0     H 9418   5.718  10.419   0.659  1.5724 -0.9256 -1.6355
  793MOL0     H 9419   5.484  10.311   0.670  0.7405  2.0995 -1.7954
  793MOL0     H 9420   5.244   9.932   0.440 -1.2948  0.9793 -0.5462
  793MOL0     H 9421   5.015   9.834   0.433 -0.7283 -3.0616  0.3264
  793MOL0     H 9422   4.880   9.586   0.797  0.3721 -0.0328 -0.3160
  793MOL0     H 9423   4.834   9.751   0.814 -2.5143  0.9076 -0.0815
  793MOL0     H 9424   4.690   9.544   0.642  1.3357 -0.7124  1.4655
  793MOL0     H 9425   4.647   9.725   0.660  3.8021  1.4648  0.9531
  793MOL0     H 9426   4.662   9.526   0.896  1.0714  0.7655  0.8824
  793MOL0     H 9427   4.589   9.688   0.895 -0.9134  0.2064 -0.7497
  793MOL0     H 9428   4.409   9.509   0.888 -1.2121 -0.7008 -1.1245
  793MOL0     H 9429   4.473   9.433   0.751 -0.1465  0.6008 -1.1122
  793MOL0     H 9430   4.213   9.772   0.648 -0.8083 -0.5913 -0.2203
  793MOL0     H 9431   5.063   9.707   0.834  3.1313  0.4113  1.7180
  793MOL0     H 9432   5.304   9.930   0.945 -0.9175  0.2870  0.4467
  793MOL0     H 9433   5.223   9.779   0.974  1.3819 -0.6290  1.2320
  793MOL0     H 9434   5.380   9.775   0.897 -0.6794  1.0465  0.3246
  794MOL0     O 9435   5.799   2.602   6.449 -0.5467 -0.2142 -0.3030
  794MOL0     C 9436   5.802   2.709   6.509  0.2802 -0.2201  0.4037
  794MOL0     O 9437   5.907   2.789   6.526  0.5649  0.3444  0.2413
  794MOL0     C 9438   6.032   2.732   6.501 -0.1161  1.1348  0.0484
  794MOL0     C 9439   6.071   2.618   6.570 -0.1845  0.0985  0.1296
  794MOL0     C 9440   6.184   2.556   6.525 -0.3397  0.3627  0.8942
  794MOL0     C 9441   6.254   2.595   6.407  0.1097  0.9537  0.5571
  794MOL0     O 9442   6.374   2.529   6.377  0.3544 -0.8031  0.6133
  794MOL0     C 9443   6.413   2.529   6.237 -0.2136 -0.5579 -0.2692
  794MOL0     C 9444   6.534   2.434   6.204 -0.2798 -0.6679 -0.6202
  794MOL0     C 9445   6.527   2.391   6.058  0.2745  0.3551 -0.2598
  794MOL0     C 9446   6.635   2.299   6.030 -1.0133  1.0053 -1.4316
  794MOL0     C 9447   6.775   2.361   6.016  0.0265  0.7908  0.4310
  794MOL0     C 9448   6.882   2.257   6.015  0.1190 -0.8784  0.5259
  794MOL0     C 9449   6.864   2.171   5.891  0.0220  0.6541 -0.1731
  794MOL0     C 9450   6.996   2.095   5.856  1.0931  0.1775  0.4005
  794MOL0     N 9451   7.097   2.185   5.803  0.4763  0.7649 -0.2225
  794MOL0     C 9452   7.081   2.268   5.695 -0.5107 -0.7848  0.0703
  794MOL0     C 9453   7.204   2.332   5.694 -0.1390 -0.2485 -0.2666
  794MOL0     C 9454   7.236   2.440   5.599 -0.1316 -0.3148  0.3281
  794MOL0     C 9455   7.291   2.381   5.466 -0.3131 -0.2834 -0.5140
  794MOL0     C 9456   7.310   2.489   5.348  0.1190  0.1389  0.4241
  794MOL0     C 9457   7.325   2.430   5.206 -0.9918 -0.0098  0.4387
  794MOL0     O 9458   7.441   2.344   5.214 -0.1501 -1.2590 -0.3155
  794MOL0     C 9459   7.575   2.394   5.229 -0.2551  0.0263  0.7003
  794MOL0     C 9460   7.677   2.308   5.257  0.3698 -0.1265 -0.7107
  794MOL0     C 9461   7.810   2.342   5.241  0.0002  0.3323  0.1289
  794MOL0     C 9462   7.915   2.231   5.264  1.1390  0.3658  0.4399
  794MOL0     C 9463   7.849   2.477   5.219 -0.0096  0.0970 -0.1957
  794MOL0     C 9464   7.987   2.528   5.204  0.1062  0.3042  1.3603
  794MOL0     O 9465   7.999   2.659   5.185 -0.3072  0.0635  0.4899
  794MOL0     C 9466   8.116   2.708   5.135 -0.2494  0.5099 -0.2167
  794MOL0     C 9467   8.176   2.665   5.013 -0.6482  0.0530  0.2258
  794MOL0     C 9468   8.305   2.721   4.974 -0.1458 -0.1399 -0.3094
  794MOL0     C 9469   8.360   2.828   5.045 -0.9007 -0.2463 -0.1448
  794MOL0     O 9470   8.480   2.872   5.010 -0.2177  0.1802  1.0084
  794MOL0     C 9471   8.575   2.914   5.108 -0.6223 -0.4775 -0.1477
  794MOL0     C 9472   8.698   2.959   5.029 -1.0110 -0.9657  0.8271
  794MOL0     C 9473   8.691   3.103   4.975 -0.1581  0.9043  0.2519
  794MOL0     C 9474   8.739   3.123   4.829 -0.4485 -0.2380 -0.3076
  794MOL0     C 9475   8.649   3.060   4.718 -0.1774  0.2924 -0.4301
  794MOL0     C 9476   8.716   3.044   4.577  0.5170  0.0623  0.5568
  794MOL0     C 9477   8.784   3.172   4.523  0.9015  0.7046  0.2719
  794MOL0     C 9478   8.735   3.195   4.381 -0.1174  1.1898  0.2607
  794MOL0    Cl 9479   8.836   3.317   4.285  0.2167 -0.3622 -0.0026
  794MOL0     C 9480   8.296   2.875   5.155 -0.4354 -0.4168 -1.1308
  794MOL0     C 9481   8.176   2.817   5.197  0.8154  0.1985  1.1056
  794MOL0     O 9482   8.076   2.449   5.182 -0.2400 -0.1472  0.1385
  794MOL0     C 9483   7.744   2.574   5.207  0.2107  0.0907  0.0417
  794MOL0     C 9484   7.611   2.531   5.208 -0.2373 -0.0159 -0.3121
  794MOL0     N 9485   7.279   2.305   5.805  0.4186  0.0080 -0.3296
  794MOL0     N 9486   7.214   2.209   5.873  0.5090 -0.5591  0.2842
  794MOL0     C 9487   6.212   2.713   6.345  0.3236  0.6768  1.1937
  794MOL0     C 9488   6.104   2.783   6.396  0.0391  0.5865  1.6315
  794MOL0     C 9489   5.666   2.737   6.582 -0.3285  0.8180  1.1880
  794MOL0     C 9490   5.592   2.634   6.646 -0.0938  0.0546  0.1121
  794MOL0     C 9491   5.475   2.665   6.723  0.0236 -0.3892 -0.4272
  794MOL0     C 9492   5.442   2.793   6.746  0.1650  0.4055 -0.3652
  794MOL0     O 9493   5.334   2.833   6.825 -0.5351  0.4560 -0.2486
  794MOL0     C 9494   5.255   2.738   6.905  0.7117 -0.8623 -0.0500
  794MOL0     C 9495   5.202   2.820   7.018  0.1667 -0.1440 -0.5033
  794MOL0     C 9496   5.326   2.849   7.114 -0.1621 -0.6310 -0.1828
  794MOL0     C 9497   5.399   2.982   7.099 -0.0726  0.0149  0.2531
  794MOL0     C 9498   5.503   3.002   7.197 -0.5065  0.3646 -0.6933
  794MOL0     C 9499   5.590   3.013   7.281  0.3642  0.0572  0.1145
  794MOL0     C 9500   5.499   2.893   6.668 -0.4605  0.4317 -0.4198
  794MOL0     C 9501   5.618   2.868   6.592  0.0477  0.0109  0.2961
  794MOL0     C 9502   5.675   2.982   6.519 -0.8420  0.1714 -0.3312
  794MOL0     H 9503   6.024   2.587   6.663  2.6571  1.7057  2.2839
  794MOL0     H 9504   6.223   2.474   6.584  1.1363  1.3847  1.3820
  794MOL0     H 9505   6.448   2.628   6.210  0.7798 -0.4251  1.3474
  794MOL0     H 9506   6.339   2.507   6.160  1.1008 -0.5994 -1.5444
  794MOL0     H 9507   6.622   2.495   6.227 -1.1425 -0.2876  2.0019
  794MOL0     H 9508   6.526   2.348   6.270 -2.6712  0.6878  1.0076
  794MOL0     H 9509   6.426   2.352   6.047 -0.9648  2.7675  1.5835
  794MOL0     H 9510   6.539   2.479   5.994  1.6324  2.6607  2.9344
  794MOL0     H 9511   6.645   2.220   6.106  0.1951  1.0144 -1.5506
  794MOL0     H 9512   6.613   2.244   5.938  1.4402 -0.8949 -1.0140
  794MOL0     H 9513   6.787   2.433   6.097 -1.6367 -1.5507  2.9388
  794MOL0     H 9514   6.785   2.412   5.919 -0.9677  0.2700  0.0443
  794MOL0     H 9515   6.979   2.308   6.004 -0.4981 -0.3118 -3.9665
  794MOL0     H 9516   6.881   2.195   6.105  2.5272  1.1702  2.1426
  794MOL0     H 9517   6.832   2.233   5.807 -3.2700  1.1594  1.2900
  794MOL0     H 9518   6.780   2.107   5.918 -0.9154  2.2563  0.8573
  794MOL0     H 9519   7.036   2.040   5.941  3.8403  1.9001  0.3406
  794MOL0     H 9520   6.969   2.023   5.777  0.9604 -2.1168  2.4360
  794MOL0     H 9521   6.997   2.279   5.628  1.7817 -0.2711 -2.9509
  794MOL0     H 9522   7.305   2.516   5.634 -0.5100  1.0259 -1.6692
  794MOL0     H 9523   7.142   2.489   5.573  0.2283  0.1960 -0.0200
  794MOL0     H 9524   7.385   2.336   5.498 -0.6329 -1.1326 -0.7479
  794MOL0     H 9525   7.234   2.299   5.422 -2.2195  0.4777  0.4253
  794MOL0     H 9526   7.220   2.551   5.350  0.3076  0.5741 -1.7936
  794MOL0     H 9527   7.386   2.564   5.373  1.2098 -0.5945 -0.6228
  794MOL0     H 9528   7.240   2.365   5.185 -2.5475  2.5815 -2.0107
  794MOL0     H 9529   7.340   2.505   5.127 -0.8990  0.4457  0.8805
  794MOL0     H 9530   7.644   2.211   5.294 -2.3440  0.6222 -0.9321
  794MOL0     H 9531   7.987   2.233   5.181 -1.7127  0.8656 -2.2324
  794MOL0     H 9532   7.872   2.132   5.250  1.1576 -0.1041  3.2494
  794MOL0     H 9533   7.971   2.246   5.357 -0.6344  0.2824  1.5556
  794MOL0     H 9534   8.126   2.598   4.943 -2.1622 -0.1164  1.4307
  794MOL0     H 9535   8.347   2.693   4.878 -0.7286 -1.7005 -0.1443
  794MOL0     H 9536   8.550   3.003   5.166  0.8292  1.2187 -1.9737
  794MOL0     H 9537   8.606   2.831   5.172  1.0908 -0.5039 -0.9430
  794MOL0     H 9538   8.787   2.958   5.093  1.8085 -0.7174 -2.7419
  794MOL0     H 9539   8.723   2.893   4.945  2.2614  0.6509  0.3707
  794MOL0     H 9540   8.759   3.164   5.035  0.0287 -0.5170  1.5353
  794MOL0     H 9541   8.588   3.137   4.984 -1.1356 -1.9489  0.8263
  794MOL0     H 9542   8.838   3.077   4.818  0.0372  0.3343  1.3804
  794MOL0     H 9543   8.744   3.231   4.811 -0.8999 -0.0792  0.5000
  794MOL0     H 9544   8.634   2.958   4.756 -0.4462 -0.0582 -1.4370
  794MOL0     H 9545   8.549   3.101   4.702 -0.9740 -1.1785  0.4826
  794MOL0     H 9546   8.643   3.001   4.508  0.2040 -0.0914  0.9842
  794MOL0     H 9547   8.804   2.979   4.580 -0.2130 -0.9056  2.0523
  794MOL0     H 9548   8.890   3.164   4.546  0.2652 -0.9676  3.1830
  794MOL0     H 9549   8.760   3.257   4.588  0.6927  1.1959 -0.4383
  794MOL0     H 9550   8.631   3.227   4.376  0.0282  1.4974 -2.1185
  794MOL0     H 9551   8.741   3.098   4.330 -1.8184 -0.6035  3.1673
  794MOL0     H 9552   8.350   2.950   5.212 -1.4758 -1.3496  1.2165
  794MOL0     H 9553   8.140   2.861   5.289 -2.7972  1.3706 -0.6833
  794MOL0     H 9554   7.774   2.674   5.179  1.1295  0.3282  1.6920
  794MOL0     H 9555   7.532   2.603   5.188  1.2396  2.7709  2.9247
  794MOL0     H 9556   6.262   2.757   6.259  2.3483 -0.0784  1.9302
  794MOL0     H 9557   6.065   2.863   6.334 -1.1559 -0.8322  0.4708
  794MOL0     H 9558   5.619   2.529   6.644 -0.8633 -0.1461 -0.8369
  794MOL0     H 9559   5.430   2.585   6.780 -1.0755 -1.1177 -2.2340
  794MOL0     H 9560   5.179   2.711   6.832  2.5983  0.3884 -2.6177
  794MOL0     H 9561   5.306   2.650   6.947 -0.2755  0.5433  4.6981
  794MOL0     H 9562   5.128   2.755   7.065 -0.2053  0.2326 -0.5710
  794MOL0     H 9563   5.150   2.911   6.987  2.6212  1.8678  0.8819
  794MOL0     H 9564   5.283   2.847   7.214  2.5097  3.9198  1.3617
  794MOL0     H 9565   5.403   2.772   7.116  1.2849  0.6720 -1.9902
  794MOL0     H 9566   5.328   3.063   7.119  0.0380  0.2288 -0.2148
  794MOL0     H 9567   5.435   2.998   6.998  0.1750  0.2695  0.3795
  794MOL0     H 9568   5.663   3.015   7.359  0.4380  0.9801  0.0349
  794MOL0     H 9569   5.454   2.990   6.651 -0.1101  0.4768 -1.1487
  794MOL0     H 9570   5.611   3.071   6.526  0.5592  1.0861  2.1262
  794MOL0     H 9571   5.772   3.007   6.562 -0.9177  0.8760 -0.5546
  794MOL0     H 9572   5.690   2.954   6.414  1.4593 -2.6553  0.6143
  795MOL0     O 9573   3.807  11.164   1.237  0.0082  0.2757 -0.4342
  795MOL0     C 9574   3.781  11.198   1.351 -0.2361  0.0780 -0.4263
  795MOL0     O 9575   3.869  11.227   1.449 -1.0012 -0.6256  0.3904
  795MOL0     C 9576   3.999  11.242   1.416 -0.8032 -0.2959  0.4681
  795MOL0     C 9577   4.099  11.168   1.480  1.0967  0.0487  0.3755
  795MOL0     C 9578   4.234  11.187   1.455 -0.7063  0.0876  0.2644
  795MOL0     C 9579   4.276  11.297   1.382  0.2990  0.7088 -0.5742
  795MOL0     O 9580   4.412  11.316   1.373  0.0708  0.5116  0.3038
  795MOL0     C 9581   4.469  11.407   1.283 -0.3234 -0.6372 -0.3063
  795MOL0     C 9582   4.518  11.538   1.353 -0.0307 -0.0526 -0.0511
  795MOL0     C 9583   4.611  11.625   1.259  0.5734 -0.8676 -0.9093
  795MOL0     C 9584   4.667  11.755   1.325 -0.1448 -0.4430  0.1597
  795MOL0     C 9585   4.768  11.829   1.234 -0.5487  0.2381 -0.1526
  795MOL0     C 9586   4.803  11.965   1.292 -0.7680  0.2442  0.2770
  795MOL0     C 9587   4.955  11.998   1.268  0.4341  0.1348 -0.1828
  795MOL0     C 9588   4.974  12.144   1.315 -0.4479 -0.5492 -0.4222
  795MOL0     N 9589   5.108  12.208   1.288  1.0815 -0.1826  0.8137
  795MOL0     C 9590   5.224  12.186   1.359  0.1644  0.4599 -0.6557
  795MOL0     C 9591   5.318  12.243   1.288 -0.0336 -0.2657 -0.1749
  795MOL0     C 9592   5.465  12.248   1.332  0.3282  0.7333 -0.6702
  795MOL0     C 9593   5.552  12.252   1.207 -0.2380  0.5656 -0.1685
  795MOL0     C 9594   5.697  12.219   1.232 -0.1691  0.6697  0.1189
  795MOL0     C 9595   5.785  12.240   1.103 -0.2141 -0.1703 -0.8898
  795MOL0     O 9596   5.924  12.218   1.138 -0.0952  0.1585  0.2872
  795MOL0     C 9597   6.024  12.178   1.050 -0.3659 -0.3546  0.3573
  795MOL0     C 9598   6.012  12.182   0.911  0.4700  0.4745  0.4547
  795MOL0     C 9599   6.113  12.132   0.823 -0.3239 -0.1530 -0.2851
  795MOL0     C 9600   6.087  12.120   0.672  0.4622  0.0765  1.3700
  795MOL0     C 9601   6.241  12.100   0.879 -0.2351 -1.6483 -0.1607
  795MOL0     C 9602   6.370  12.070   0.806  0.7869 -0.3519  0.8824
  795MOL0     O 9603   6.399  12.135   0.693 -0.5279  0.6916 -0.0208
  795MOL0     C 9604   6.521  12.123   0.639  0.4714 -0.6098  0.3228
  795MOL0     C 9605   6.617  12.212   0.687  0.2751  0.3273 -0.3593
  795MOL0     C 9606   6.741  12.210   0.625 -0.0560  0.3739  0.5222
  795MOL0     C 9607   6.777  12.119   0.527  0.3109 -0.7246 -0.4120
  795MOL0     O 9608   6.898  12.139   0.460 -0.1595  0.0706 -0.4787
  795MOL0     C 9609   6.949  12.035   0.385 -0.6749  0.0818 -0.2534
  795MOL0     C 9610   7.071  12.088   0.307 -0.7657 -0.2062 -0.7954
  795MOL0     C 9611   7.152  11.993   0.213 -0.3319 -0.2431  0.9178
  795MOL0     C 9612   7.288  12.063   0.171  1.0733  0.5191  0.3684
  795MOL0     C 9613   7.382  11.999   0.068 -0.0762  0.3033 -0.1430
  795MOL0     C 9614   7.518  12.063   0.092 -0.1690  0.1083  0.1057
  795MOL0     C 9615   7.641  12.024   0.006  0.0956 -0.1789 -0.1689
  795MOL0     C 9616   7.765  12.118   0.040  0.3017 -0.3953  0.3740
  795MOL0    Cl 9617   7.785  12.250  -0.098  0.0629 -0.0267  0.4955
  795MOL0     C 9618   6.677  12.026   0.487  0.2342 -0.8663  0.4974
  795MOL0     C 9619   6.547  12.028   0.537  0.4243 -0.4483 -0.3612
  795MOL0     O 9620   6.432  11.976   0.849  0.1398  0.5577 -0.4320
  795MOL0     C 9621   6.254  12.090   1.020  0.7434 -0.6313 -0.1341
  795MOL0     C 9622   6.145  12.127   1.098 -0.1588 -0.3633 -0.3943
  795MOL0     N 9623   5.270  12.305   1.176  0.2119  0.2987 -0.0032
  795MOL0     N 9624   5.135  12.278   1.175  0.2165  0.2205 -0.2096
  795MOL0     C 9625   4.175  11.377   1.318 -0.6226  0.0560  0.2544
  795MOL0     C 9626   4.039  11.345   1.334 -0.5552 -0.5215 -0.3509
  795MOL0     C 9627   3.636  11.185   1.394 -0.2780  0.1911 -0.0132
  795MOL0     C 9628   3.612  11.118   1.521 -0.1176 -0.2786 -0.3461
  795MOL0     C 9629   3.483  11.120   1.584 -0.0504  0.1551 -1.0855
  795MOL0     C 9630   3.365  11.158   1.516 -0.9237 -0.0025  0.6968
  795MOL0     O 9631   3.248  11.162   1.583 -0.0452  0.3587  0.2695
  795MOL0     C 9632   3.133  11.181   1.501 -0.1704  1.0244  0.8511
  795MOL0     C 9633   3.014  11.176   1.596 -0.1195 -0.4886  0.0974
  795MOL0     C 9634   3.013  11.289   1.702 -0.0271 -0.3498  0.0490
  795MOL0     C 9635   2.964  11.426   1.645  0.3363 -0.0027 -1.4939
  795MOL0     C 9636   2.945  11.523   1.755  0.0873  0.1399 -0.6938
  795MOL0     C 9637   2.941  11.589   1.855  0.3320 -0.0526 -0.6180
  795MOL0     C 9638   3.391  11.211   1.383 -0.0211 -0.5368 -0.3352
  795MOL0     C 9639   3.518  11.229   1.325 -0.6128 -0.8474 -0.5439
  795MOL0     C 9640   3.521  11.292   1.190 -0.2675 -0.6629  0.3745
  795MOL0     H 9641   4.068  11.087   1.544 -0.0261  0.9491  1.0212
  795MOL0     H 9642   4.306  11.115   1.492  0.9590  0.7768 -1.4233
  795MOL0     H 9643   4.394  11.423   1.205 -2.5731 -5.7283  0.4473
  795MOL0     H 9644   4.552  11.355   1.233  2.6123  1.8321  1.6010
  795MOL0     H 9645   4.432  11.600   1.379 -1.7172 -2.3868  0.3171
  795MOL0     H 9646   4.577  11.506   1.440  3.4050  1.4155 -1.6395
  795MOL0     H 9647   4.692  11.562   1.221  2.6368  0.8877  0.3344
  795MOL0     H 9648   4.548  11.658   1.176 -0.1112  0.3844  0.0748
  795MOL0     H 9649   4.580  11.822   1.326 -1.8749 -2.5870  0.7101
  795MOL0     H 9650   4.717  11.748   1.422  2.6986  1.1244 -1.0781
  795MOL0     H 9651   4.724  11.860   1.139  1.9987  0.6920 -1.2614
  795MOL0     H 9652   4.851  11.760   1.218 -0.2217  0.5254  0.2676
  795MOL0     H 9653   4.737  12.042   1.251 -0.3678  0.8441  0.7395
  795MOL0     H 9654   4.789  11.962   1.401  2.7535 -2.4890  0.8528
  795MOL0     H 9655   4.978  11.998   1.161  0.0927 -0.5675 -0.2609
  795MOL0     H 9656   5.020  11.919   1.309  1.3536  1.3604  0.8082
  795MOL0     H 9657   4.901  12.210   1.267  0.5858  1.9149  1.2691
  795MOL0     H 9658   4.949  12.139   1.421  0.7302  1.6921  0.0057
  795MOL0     H 9659   5.234  12.130   1.451 -2.1073 -0.3331 -0.8267
  795MOL0     H 9660   5.495  12.152   1.377 -0.0781  0.5915 -0.6946
  795MOL0     H 9661   5.482  12.330   1.402  0.5526 -0.4474  0.7041
  795MOL0     H 9662   5.512  12.199   1.120  1.1799  0.5455 -0.8365
  795MOL0     H 9663   5.554  12.358   1.178  1.6093  0.9038  1.0317
  795MOL0     H 9664   5.736  12.288   1.307 -1.3444  2.8831 -1.1660
  795MOL0     H 9665   5.713  12.117   1.269 -2.5352  0.7011  1.4296
  795MOL0     H 9666   5.746  12.173   1.025  0.5016 -0.5144 -0.9595
  795MOL0     H 9667   5.775  12.344   1.070 -1.4241 -0.4499 -1.4623
  795MOL0     H 9668   5.922  12.233   0.880  1.3743  0.6919 -2.0429
  795MOL0     H 9669   6.173  12.063   0.635  1.6386  0.6290  3.1131
  795MOL0     H 9670   6.095  12.222   0.631  4.0422 -1.1534 -1.5467
  795MOL0     H 9671   5.993  12.070   0.647  0.9953  0.3051 -1.4097
  795MOL0     H 9672   6.588  12.268   0.775 -0.4142  3.5733 -2.4997
  795MOL0     H 9673   6.820  12.277   0.658  0.1458  0.3121  0.1658
  795MOL0     H 9674   6.983  11.947   0.440 -2.7570 -1.6408 -1.5415
  795MOL0     H 9675   6.883  12.003   0.303  3.1285  2.1747 -4.6120
  795MOL0     H 9676   7.020  12.169   0.255 -1.5429  1.4591  2.2986
  795MOL0     H 9677   7.141  12.134   0.378  2.8677 -0.4373 -3.8983
  795MOL0     H 9678   7.090  11.965   0.127 -0.1750 -0.8045  0.9881
  795MOL0     H 9679   7.174  11.900   0.266  1.5639 -1.2385 -1.4077
  795MOL0     H 9680   7.327  12.075   0.272  0.2007  3.3412  0.4562
  795MOL0     H 9681   7.259  12.165   0.142 -0.0077  0.7538  2.0853
  795MOL0     H 9682   7.393  11.895   0.098 -1.3018  0.4909  1.0083
  795MOL0     H 9683   7.342  12.006  -0.034 -0.1886  0.8392 -0.0633
  795MOL0     H 9684   7.565  12.033   0.186 -2.4430 -0.9253  0.9698
  795MOL0     H 9685   7.505  12.170   0.076  2.9990  0.1587 -3.6403
  795MOL0     H 9686   7.609  12.045  -0.097  1.1139  2.9736  0.0208
  795MOL0     H 9687   7.679  11.923   0.023  2.5747  0.9337  1.6239
  795MOL0     H 9688   7.861  12.066   0.046  1.3004  1.3632  0.3533
  795MOL0     H 9689   7.756  12.171   0.135  0.3799  0.7429 -0.2373
  795MOL0     H 9690   6.684  11.963   0.399 -1.4059  2.0949 -1.9546
  795MOL0     H 9691   6.463  11.961   0.521  1.6610 -2.4864  1.1090
  795MOL0     H 9692   6.344  12.063   1.073 -1.1046 -0.8678  3.1582
  795MOL0     H 9693   6.153  12.139   1.206  1.7100  0.5777 -0.5991
  795MOL0     H 9694   4.209  11.462   1.259  0.8729 -0.3740  0.4514
  795MOL0     H 9695   3.965  11.402   1.279  0.7615  1.8416  0.1884
  795MOL0     H 9696   3.702  11.094   1.577  0.0234  1.4924  0.2476
  795MOL0     H 9697   3.472  11.097   1.689 -1.4900 -0.3601 -1.3275
  795MOL0     H 9698   3.135  11.284   1.462 -3.5043  0.0570 -2.3885
  795MOL0     H 9699   3.133  11.106   1.422 -2.1216  2.4030 -0.5438
  795MOL0     H 9700   3.021  11.077   1.640  1.2477 -0.4158  0.0886
  795MOL0     H 9701   2.921  11.182   1.539  0.8904  1.9523 -1.4637
  795MOL0     H 9702   2.941  11.255   1.778  0.0477 -1.2955 -0.2857
  795MOL0     H 9703   3.113  11.313   1.738 -0.9551  1.1622  1.8091
  795MOL0     H 9704   2.875  11.418   1.582  0.3943 -0.9908 -1.4637
  795MOL0     H 9705   3.042  11.455   1.574  0.8621  0.9173 -0.5649
  795MOL0     H 9706   2.954  11.662   1.933  1.0502  0.3169 -1.0720
  795MOL0     H 9707   3.306  11.256   1.332 -0.7267  1.3040  2.2426
  795MOL0     H 9708   3.621  11.293   1.146 -0.1972  2.5895  0.3300
  795MOL0     H 9709   3.463  11.251   1.107  0.8550 -1.2941 -0.1135
  795MOL0     H 9710   3.491  11.397   1.204  2.9279  0.3763  0.2553
  796MOL0     O 9711   0.553   1.025   7.072 -0.3763 -0.7521 -0.9551
  796MOL0     C 9712   0.596   1.093   6.978  0.7235  0.3446 -0.6116
  796MOL0     O 9713   0.715   1.160   6.991 -0.2695  0.7626  0.5440
  796MOL0     C 9714   0.818   1.138   7.081 -0.1563 -0.5159  0.2222
  796MOL0     C 9715   0.845   1.014   7.148 -0.5794 -0.3839 -0.2381
  796MOL0     C 9716   0.958   1.001   7.219  0.2140  0.1745 -0.5640
  796MOL0     C 9717   1.053   1.107   7.221  0.5234  0.3571  0.1087
  796MOL0     O 9718   1.162   1.059   7.287  0.3715  0.4306 -0.5560
  796MOL0     C 9719   1.274   1.141   7.294 -0.0681 -0.3091  0.4957
  796MOL0     C 9720   1.393   1.060   7.344  1.0058 -0.9045 -0.7718
  796MOL0     C 9721   1.514   1.145   7.397 -0.3658  0.7913 -0.6029
  796MOL0     C 9722   1.634   1.059   7.432  0.4987  0.4280 -0.3752
  796MOL0     C 9723   1.729   1.134   7.529 -0.2545 -0.0005 -0.2854
  796MOL0     C 9724   1.852   1.056   7.540 -0.1185 -0.0275  0.3948
  796MOL0     C 9725   1.947   1.090   7.653  0.6134  0.5898 -0.9058
  796MOL0     C 9726   1.985   1.244   7.661 -0.5124  0.8818  0.6373
  796MOL0     N 9727   2.065   1.261   7.780 -0.2970 -0.3859 -1.4787
  796MOL0     C 9728   2.025   1.290   7.906  1.1714  0.1440  0.0163
  796MOL0     C 9729   2.135   1.294   7.983 -0.0635 -0.0625  0.4628
  796MOL0     C 9730   2.130   1.302   8.137 -0.1066  0.1191 -0.2136
  796MOL0     C 9731   2.254   1.249   8.199  0.4036  0.1271 -0.6267
  796MOL0     C 9732   2.362   1.360   8.200 -0.4198  0.0262  0.9739
  796MOL0     C 9733   2.504   1.315   8.216 -0.3170  0.7272 -0.7962
  796MOL0     O 9734   2.587   1.425   8.195 -0.6060  0.0248  0.9394
  796MOL0     C 9735   2.721   1.417   8.198 -0.0975 -0.3640  0.3339
  796MOL0     C 9736   2.785   1.534   8.189 -0.3247 -0.8441  0.0652
  796MOL0     C 9737   2.917   1.554   8.235  1.1461  0.5667  0.1787
  796MOL0     C 9738   2.977   1.693   8.234  0.7265  0.8344  0.4511
  796MOL0     C 9739   2.994   1.438   8.271 -0.1486  0.7974  0.5455
  796MOL0     C 9740   3.145   1.433   8.304  0.1763  0.2382  0.7142
  796MOL0     O 9741   3.200   1.313   8.324 -0.5144  0.1369 -0.2781
  796MOL0     C 9742   3.323   1.295   8.374  0.3008 -1.3140 -0.2351
  796MOL0     C 9743   3.354   1.302   8.512 -0.2161  0.3472 -0.4683
  796MOL0     C 9744   3.483   1.285   8.562 -0.8410 -0.0240  0.2108
  796MOL0     C 9745   3.595   1.262   8.479 -0.4499  0.5507 -0.3658
  796MOL0     O 9746   3.720   1.225   8.524  0.4819 -0.6098  0.6835
  796MOL0     C 9747   3.728   1.182   8.661  0.6482  0.0677  0.5299
  796MOL0     C 9748   3.858   1.111   8.686 -0.2406  0.1878 -0.3235
  796MOL0     C 9749   3.878   1.071   8.835 -0.0508 -0.0580 -0.5677
  796MOL0     C 9750   4.014   1.001   8.849  0.7674  0.3959  0.0173
  796MOL0     C 9751   4.053   0.984   8.999  0.9556 -0.3117 -0.4335
  796MOL0     C 9752   4.007   0.852   9.062  0.5289 -0.4008 -1.5056
  796MOL0     C 9753   4.060   0.846   9.206  0.3878  1.5398 -0.1508
  796MOL0     C 9754   4.000   0.720   9.265  0.3248 -0.3681 -1.2202
  796MOL0    Cl 9755   4.018   0.723   9.444  0.1673  0.6483  0.1099
  796MOL0     C 9756   3.569   1.248   8.334 -0.1271  0.1651 -0.4196
  796MOL0     C 9757   3.433   1.265   8.293  1.2596 -0.2127  0.9301
  796MOL0     O 9758   3.207   1.539   8.327  0.0444  0.3068  0.2345
  796MOL0     C 9759   2.937   1.306   8.266 -0.5759 -0.2043 -0.4686
  796MOL0     C 9760   2.795   1.300   8.238 -0.5845 -0.4186  0.2002
  796MOL0     N 9761   2.240   1.262   7.900 -0.4762 -0.2935  0.4565
  796MOL0     N 9762   2.200   1.242   7.782 -0.2964 -0.0453  0.4779
  796MOL0     C 9763   1.029   1.221   7.151 -0.0147  0.0606 -0.2524
  796MOL0     C 9764   0.914   1.240   7.080  1.0257  0.4364 -0.0984
  796MOL0     C 9765   0.512   1.103   6.854 -0.5572  0.0725  0.1250
  796MOL0     C 9766   0.393   1.025   6.849  0.0425  0.1405  0.4074
  796MOL0     C 9767   0.323   1.017   6.723  0.5942 -0.1355 -0.1885
  796MOL0     C 9768   0.346   1.104   6.620 -0.0477  0.2723 -0.0252
  796MOL0     O 9769   0.277   1.088   6.507 -0.6048  0.5214  0.0525
  796MOL0     C 9770   0.134   1.069   6.528  0.1639 -0.9183  1.2786
  796MOL0     C 9771   0.050   1.149   6.419 -0.1534  0.0248 -0.4852
  796MOL0     C 9772  -0.087   1.080   6.402  0.9645 -0.6827 -0.5071
  796MOL0     C 9773  -0.184   1.158   6.317  0.3978 -0.2968 -0.0096
  796MOL0     C 9774  -0.139   1.179   6.183  0.2523  0.1535  0.0103
  796MOL0     C 9775  -0.090   1.181   6.072 -0.4603  0.3476 -0.2033
  796MOL0     C 9776   0.461   1.186   6.627  0.5453  0.5034 -0.4730
  796MOL0     C 9777   0.544   1.180   6.738  1.2875 -0.0850 -0.4157
  796MOL0     C 9778   0.667   1.272   6.741  0.8761 -0.3870 -0.4329
  796MOL0     H 9779   0.786   0.924   7.132 -0.6949 -0.0903 -1.6880
  796MOL0     H 9780   0.991   0.911   7.271  1.2253  0.8321 -0.0433
  796MOL0     H 9781   1.259   1.222   7.366 -0.9956  0.8477 -0.9454
  796MOL0     H 9782   1.296   1.179   7.194  0.7567 -0.3070  0.6671
  796MOL0     H 9783   1.361   0.991   7.422  0.6853 -0.1807 -0.2595
  796MOL0     H 9784   1.419   0.992   7.261 -2.0065 -0.8529 -1.8946
  796MOL0     H 9785   1.548   1.220   7.325  0.3833 -0.0217 -1.1207
  796MOL0     H 9786   1.478   1.200   7.485 -1.9787 -0.6822 -0.2868
  796MOL0     H 9787   1.598   0.972   7.488 -2.7720  0.9002 -1.5572
  796MOL0     H 9788   1.685   1.018   7.345  1.3034 -0.9880  0.7153
  796MOL0     H 9789   1.682   1.149   7.627 -1.3893 -1.5928 -0.5423
  796MOL0     H 9790   1.762   1.230   7.489  2.5488 -0.4457  0.7179
  796MOL0     H 9791   1.824   0.953   7.564 -0.2653 -0.4117 -1.2862
  796MOL0     H 9792   1.898   1.059   7.441  0.3271  0.3742  0.6070
  796MOL0     H 9793   2.038   1.029   7.648  1.4433  1.2979  2.8829
  796MOL0     H 9794   1.902   1.056   7.746 -2.1985 -1.2967 -2.7915
  796MOL0     H 9795   2.033   1.271   7.566  0.0138 -1.8598  0.0192
  796MOL0     H 9796   1.905   1.316   7.678 -0.8694  0.5509  0.3689
  796MOL0     H 9797   1.924   1.303   7.941  1.7400  0.5918  1.5655
  796MOL0     H 9798   2.039   1.244   8.158 -0.4277 -0.7556 -3.4354
  796MOL0     H 9799   2.108   1.403   8.170 -0.4281 -0.6440  2.0673
  796MOL0     H 9800   2.227   1.216   8.300 -1.5918  2.1242 -0.4026
  796MOL0     H 9801   2.290   1.161   8.145 -2.8594 -0.5401 -1.9552
  796MOL0     H 9802   2.343   1.419   8.110 -2.8707 -0.8904  0.8074
  796MOL0     H 9803   2.342   1.427   8.284  1.1065 -0.7486  1.9964
  796MOL0     H 9804   2.520   1.269   8.314  1.3852  2.6599 -0.1160
  796MOL0     H 9805   2.524   1.239   8.140  1.0691 -0.9199  1.1011
  796MOL0     H 9806   2.732   1.627   8.168  1.5861  0.6915  1.6136
  796MOL0     H 9807   2.897   1.759   8.200 -1.2700 -1.9343 -0.6406
  796MOL0     H 9808   3.065   1.702   8.170 -0.9125  1.4992 -1.8579
  796MOL0     H 9809   3.015   1.725   8.331  2.2252 -1.9391  0.8933
  796MOL0     H 9810   3.276   1.309   8.588 -1.0220 -1.0313 -1.1174
  796MOL0     H 9811   3.496   1.272   8.669  0.8368  0.1526  0.0659
  796MOL0     H 9812   3.731   1.269   8.728  2.9664  1.1267 -0.8103
  796MOL0     H 9813   3.645   1.117   8.693  0.3559 -0.3643 -1.0305
  796MOL0     H 9814   3.867   1.013   8.637  1.2730  0.3035 -0.3394
  796MOL0     H 9815   3.948   1.171   8.667  0.7675  0.2630  3.6488
  796MOL0     H 9816   3.798   1.006   8.872  0.4195  0.4009  1.3986
  796MOL0     H 9817   3.873   1.156   8.904 -0.4811 -1.2240  0.8857
  796MOL0     H 9818   4.098   1.051   8.801  0.9162 -1.1804 -1.4416
  796MOL0     H 9819   3.995   0.901   8.810 -3.8831  0.5656  1.2422
  796MOL0     H 9820   4.163   0.986   9.000  0.9684  2.2141  1.5346
  796MOL0     H 9821   4.013   1.070   9.052 -0.7004 -1.6733  0.6204
  796MOL0     H 9822   4.059   0.778   9.001 -0.4596 -1.9503 -0.5551
  796MOL0     H 9823   3.899   0.835   9.064  0.5794 -0.8480  1.0072
  796MOL0     H 9824   4.031   0.932   9.267 -0.8508  1.4773 -0.6360
  796MOL0     H 9825   4.169   0.852   9.199  0.2405  2.9784 -2.1255
  796MOL0     H 9826   4.062   0.641   9.221 -0.5832 -3.3119  2.2630
  796MOL0     H 9827   3.892   0.718   9.251 -0.0506 -1.1820  1.2851
  796MOL0     H 9828   3.644   1.206   8.268  1.8052 -2.7298  3.2261
  796MOL0     H 9829   3.415   1.243   8.189  0.8802  0.6468  0.8038
  796MOL0     H 9830   2.984   1.218   8.310 -0.4041  0.9939  1.8942
  796MOL0     H 9831   2.745   1.208   8.267  0.0033 -0.2248  1.9456
  796MOL0     H 9832   1.104   1.299   7.156  0.3007 -0.0873 -2.1218
  796MOL0     H 9833   0.888   1.321   7.012  0.5201  0.3838  0.0280
  796MOL0     H 9834   0.369   0.969   6.939  0.5810 -1.0177 -0.1420
  796MOL0     H 9835   0.241   0.946   6.721 -0.4180  1.0047 -0.0144
  796MOL0     H 9836   0.113   0.961   6.524  2.1190 -1.3261 -2.4436
  796MOL0     H 9837   0.085   1.116   6.614 -1.0113 -0.1278  0.2122
  796MOL0     H 9838   0.114   1.152   6.331  1.5927  0.4881  0.7446
  796MOL0     H 9839   0.034   1.252   6.455  0.4013 -0.8138  2.4560
  796MOL0     H 9840  -0.085   0.982   6.355  3.1792 -0.2731 -1.4406
  796MOL0     H 9841  -0.122   1.069   6.505  0.4078  0.0736 -0.6051
  796MOL0     H 9842  -0.210   1.251   6.368 -0.6331  0.2104 -1.3978
  796MOL0     H 9843  -0.277   1.102   6.306  0.9046 -1.0732 -0.4024
  796MOL0     H 9844  -0.047   1.178   5.974 -0.7067  0.8486 -0.3292
  796MOL0     H 9845   0.485   1.245   6.539  2.1563  0.7068  0.0710
  796MOL0     H 9846   0.654   1.343   6.823 -1.2031 -0.1022 -0.9570
  796MOL0     H 9847   0.756   1.214   6.768 -0.2992 -1.4405  1.3882
  796MOL0     H 9848   0.687   1.327   6.649  0.8170  0.8699  0.2841
  797MOL0     O 9849   1.048   5.741   1.737 -0.7684  0.0603 -0.2810
  797MOL0     C 9850   0.980   5.758   1.642  0.3646  0.1845 -0.5876
  797MOL0     O 9851   1.008   5.833   1.527 -1.1129  0.0678  0.8063
  797MOL0     C 9852   1.127   5.892   1.504  0.5828  0.0463  0.3425
  797MOL0     C 9853   1.118   6.009   1.430  0.3799 -0.7003 -0.1979
  797MOL0     C 9854   1.224   6.100   1.412 -1.0777  0.2055 -0.0263
  797MOL0     C 9855   1.354   6.073   1.465 -0.7136  0.4660  0.0893
  797MOL0     O 9856   1.471   6.147   1.449 -0.3458  0.2567 -0.2421
  797MOL0     C 9857   1.449   6.286   1.410 -0.1043  0.8012  0.5301
  797MOL0     C 9858   1.568   6.369   1.452 -0.3143  0.1640 -0.2566
  797MOL0     C 9859   1.560   6.524   1.458  0.1454 -1.3205  0.5324
  797MOL0     C 9860   1.522   6.592   1.326 -0.0832 -0.0558  0.5955
  797MOL0     C 9861   1.539   6.746   1.315 -0.5670  0.4730  0.7116
  797MOL0     C 9862   1.507   6.833   1.434  0.0713 -0.0412  0.3985
  797MOL0     C 9863   1.369   6.881   1.432 -0.9981 -0.4000 -0.3983
  797MOL0     C 9864   1.356   7.017   1.497 -0.0108  0.5973  0.3199
  797MOL0     N 9865   1.421   7.031   1.623 -0.2142 -0.8403 -0.3832
  797MOL0     C 9866   1.489   7.141   1.666  0.6944 -0.4562  0.6573
  797MOL0     C 9867   1.524   7.116   1.794 -0.4526  0.5092 -1.0522
  797MOL0     C 9868   1.622   7.190   1.876  0.6744  0.3676  0.0467
  797MOL0     C 9869   1.750   7.098   1.904  0.0019 -0.1295 -0.1633
  797MOL0     C 9870   1.830   7.146   2.028 -0.3060  0.4476  0.5027
  797MOL0     C 9871   1.875   7.293   2.003 -0.2533 -1.2314 -0.1452
  797MOL0     O 9872   1.928   7.315   1.868 -0.8247 -0.2230 -0.2710
  797MOL0     C 9873   2.054   7.280   1.835  0.8680  0.2866  0.1519
  797MOL0     C 9874   2.143   7.198   1.911 -0.2393 -0.5879  1.4213
  797MOL0     C 9875   2.276   7.177   1.864 -0.1904  0.3533 -0.3404
  797MOL0     C 9876   2.372   7.115   1.962 -0.0868  0.3231  0.6789
  797MOL0     C 9877   2.312   7.214   1.734 -0.5173  0.0698  0.5080
  797MOL0     C 9878   2.443   7.178   1.667  0.3716 -0.4018 -0.1917
  797MOL0     O 9879   2.447   7.202   1.529  0.0347 -0.4882 -0.1513
  797MOL0     C 9880   2.557   7.174   1.460  0.1960  0.3447 -0.0181
  797MOL0     C 9881   2.537   7.089   1.352 -0.8377  0.5665  0.7111
  797MOL0     C 9882   2.641   7.051   1.267 -0.1541 -0.4759  0.1225
  797MOL0     C 9883   2.774   7.095   1.288 -0.1067 -0.6673 -1.0379
  797MOL0     O 9884   2.886   7.066   1.209 -0.1702  0.6786 -0.3330
  797MOL0     C 9885   2.865   7.027   1.074 -0.2496  0.1905  0.8523
  797MOL0     C 9886   2.996   6.977   1.035  0.3439  0.1171 -0.1145
  797MOL0     C 9887   2.995   6.916   0.901  0.3805  0.9398  0.0581
  797MOL0     C 9888   2.910   6.789   0.890  0.0795 -0.2266 -0.1438
  797MOL0     C 9889   2.936   6.706   0.768 -0.0526  0.0283 -0.9530
  797MOL0     C 9890   3.071   6.643   0.772  0.1811  0.4557 -0.5496
  797MOL0     C 9891   3.105   6.530   0.673  0.5132 -0.5697  0.2388
  797MOL0     C 9892   3.244   6.499   0.666 -1.0179  0.2328  0.4682
  797MOL0    Cl 9893   3.307   6.436   0.824  0.1010  0.0212  0.3555
  797MOL0     C 9894   2.795   7.192   1.391  0.4048 -0.2414 -0.3612
  797MOL0     C 9895   2.689   7.231   1.478 -0.5211  0.6118  0.4549
  797MOL0     O 9896   2.526   7.121   1.733 -0.3001 -0.5773 -0.3736
  797MOL0     C 9897   2.213   7.281   1.658 -0.3078 -0.0033  1.3909
  797MOL0     C 9898   2.093   7.313   1.703 -0.3119 -0.1381  0.8773
  797MOL0     N 9899   1.469   6.994   1.827 -0.2081  0.2281  0.3388
  797MOL0     N 9900   1.410   6.940   1.723 -0.0126 -0.3136 -0.7393
  797MOL0     C 9901   1.363   5.950   1.530  0.8226  0.2583  0.2755
  797MOL0     C 9902   1.255   5.862   1.553  0.2131  0.4333  0.0167
  797MOL0     C 9903   0.840   5.711   1.669 -0.6863 -0.0322  0.3316
  797MOL0     C 9904   0.776   5.647   1.559 -1.3831 -0.1226 -0.6856
  797MOL0     C 9905   0.654   5.587   1.573  0.3063 -0.1838  0.0005
  797MOL0     C 9906   0.579   5.606   1.691 -0.0970  0.2228 -0.3207
  797MOL0     O 9907   0.469   5.532   1.714  0.0105  0.1480 -0.2589
  797MOL0     C 9908   0.359   5.585   1.637 -0.8715 -0.4787 -0.2951
  797MOL0     C 9909   0.242   5.638   1.724 -0.7122 -0.3635  0.0355
  797MOL0     C 9910   0.182   5.528   1.807 -0.1077  0.4870  0.5036
  797MOL0     C 9911   0.030   5.547   1.823  0.4123 -0.0988  0.2465
  797MOL0     C 9912   0.001   5.677   1.888 -0.0180 -0.2267  0.3018
  797MOL0     C 9913  -0.026   5.788   1.933 -0.0807 -1.1913  0.1095
  797MOL0     C 9914   0.644   5.677   1.799 -0.6174  0.2457 -0.9202
  797MOL0     C 9915   0.772   5.722   1.786  0.1552 -0.0526  0.4992
  797MOL0     C 9916   0.832   5.798   1.902  0.3199  0.3880 -1.6064
  797MOL0     H 9917   1.018   6.016   1.389  0.7976  2.1651 -0.9908
  797MOL0     H 9918   1.198   6.196   1.367 -2.6726 -1.4183 -2.8993
  797MOL0     H 9919   1.357   6.331   1.449  0.5262  1.4208  1.3604
  797MOL0     H 9920   1.445   6.275   1.302 -2.2113 -2.1161  0.7762
  797MOL0     H 9921   1.594   6.341   1.555 -2.2443  0.5626  0.3851
  797MOL0     H 9922   1.649   6.339   1.386  0.8049  2.8752 -0.2340
  797MOL0     H 9923   1.492   6.559   1.536 -0.7304 -0.2863 -0.6535
  797MOL0     H 9924   1.665   6.548   1.475  0.2716 -1.7559  0.4019
  797MOL0     H 9925   1.581   6.543   1.248  2.2597 -0.7170  2.6747
  797MOL0     H 9926   1.416   6.570   1.306 -0.2099 -1.4850  2.5744
  797MOL0     H 9927   1.485   6.773   1.224 -1.5849  1.7340  1.6714
  797MOL0     H 9928   1.643   6.756   1.281 -0.9424 -1.3171 -1.1910
  797MOL0     H 9929   1.519   6.793   1.535 -0.9771  2.3410  1.5387
  797MOL0     H 9930   1.567   6.921   1.411 -0.8252  0.5137  0.1448
  797MOL0     H 9931   1.297   6.813   1.479 -2.6684  1.2456 -0.4609
  797MOL0     H 9932   1.344   6.902   1.328 -2.7698  1.0637  0.2777
  797MOL0     H 9933   1.400   7.085   1.424 -0.5465  1.1812  0.5371
  797MOL0     H 9934   1.251   7.048   1.500 -0.9830 -1.9118 -2.2498
  797MOL0     H 9935   1.518   7.227   1.607 -2.9622 -0.4828 -1.4901
  797MOL0     H 9936   1.573   7.227   1.966  2.3795  0.5100  0.9586
  797MOL0     H 9937   1.657   7.276   1.817 -1.8768  1.4625 -0.0074
  797MOL0     H 9938   1.711   7.002   1.939  1.0172 -1.0861 -1.5292
  797MOL0     H 9939   1.822   7.089   1.822 -0.3423 -0.2343 -0.4561
  797MOL0     H 9940   1.776   7.140   2.123 -1.1945  0.0183 -0.0128
  797MOL0     H 9941   1.917   7.081   2.031  0.7315  1.6778 -1.1365
  797MOL0     H 9942   1.791   7.358   2.029 -0.8084 -2.2451  0.6882
  797MOL0     H 9943   1.959   7.304   2.072 -0.3349 -1.4514 -0.0114
  797MOL0     H 9944   2.121   7.178   2.015 -0.5556  1.2248  1.7483
  797MOL0     H 9945   2.316   7.074   2.047 -2.2336  1.1321 -0.2793
  797MOL0     H 9946   2.447   7.190   1.989 -2.9036  3.6545  0.0796
  797MOL0     H 9947   2.421   7.024   1.929 -0.8115 -0.0981  0.7377
  797MOL0     H 9948   2.445   7.036   1.328 -0.1925 -1.3870  2.2632
  797MOL0     H 9949   2.625   6.987   1.181  0.3483 -0.6334  0.1416
  797MOL0     H 9950   2.780   6.958   1.061 -0.9441  1.1605  0.1645
  797MOL0     H 9951   2.842   7.116   1.016  0.7585 -0.0574  0.0504
  797MOL0     H 9952   3.070   7.057   1.041  0.8104 -0.2637 -0.6979
  797MOL0     H 9953   3.035   6.912   1.115 -2.7636  1.7252  2.9865
  797MOL0     H 9954   3.097   6.885   0.878  0.2963 -0.4654  1.4425
  797MOL0     H 9955   2.972   6.991   0.824  3.2516  0.6461 -1.1958
  797MOL0     H 9956   2.803   6.812   0.892 -0.5259 -2.6930 -0.5254
  797MOL0     H 9957   2.920   6.721   0.976 -1.8451  1.9196  1.9331
  797MOL0     H 9958   2.856   6.632   0.761  0.2415 -0.1548 -2.7151
  797MOL0     H 9959   2.920   6.758   0.673  0.5326 -1.7223 -2.0497
  797MOL0     H 9960   3.099   6.602   0.870  1.1273 -0.1600 -1.0551
  797MOL0     H 9961   3.148   6.719   0.755  1.4773 -0.8921 -0.9638
  797MOL0     H 9962   3.057   6.557   0.578  0.0345  1.7888  1.0833
  797MOL0     H 9963   3.055   6.437   0.700  0.1713 -1.0164 -1.7711
  797MOL0     H 9964   3.298   6.588   0.632  1.1798 -1.9980 -2.4575
  797MOL0     H 9965   3.258   6.422   0.588 -0.6602  1.1011 -0.3460
  797MOL0     H 9966   2.893   7.238   1.400 -1.1342  2.9886  1.5732
  797MOL0     H 9967   2.708   7.295   1.564 -2.7119 -0.3241  1.7030
  797MOL0     H 9968   2.232   7.310   1.555  2.2362 -1.6389  1.3109
  797MOL0     H 9969   2.027   7.369   1.638 -1.4372 -1.0475  1.2099
  797MOL0     H 9970   1.462   5.936   1.571  1.2430  0.1832 -0.7404
  797MOL0     H 9971   1.280   5.778   1.618 -0.5337 -0.5784 -0.9658
  797MOL0     H 9972   0.832   5.616   1.471  0.8632 -1.9966  1.2540
  797MOL0     H 9973   0.613   5.525   1.494  1.6681  0.3452 -1.1643
  797MOL0     H 9974   0.383   5.672   1.575 -2.2997 -2.1951 -3.4757
  797MOL0     H 9975   0.309   5.521   1.565 -0.1775 -1.1279 -0.2111
  797MOL0     H 9976   0.163   5.682   1.663 -0.8744  1.5643  1.5417
  797MOL0     H 9977   0.276   5.714   1.794 -0.0545 -0.8353  0.2359
  797MOL0     H 9978   0.204   5.427   1.772 -2.5306  0.4091 -1.1062
  797MOL0     H 9979   0.238   5.531   1.900  1.8194 -1.1276 -0.5240
  797MOL0     H 9980  -0.005   5.458   1.878  3.1226 -0.1373  2.0656
  797MOL0     H 9981  -0.017   5.545   1.724  1.8127 -1.8652 -0.4432
  797MOL0     H 9982  -0.036   5.890   1.966  0.8598 -0.7656 -0.8433
  797MOL0     H 9983   0.593   5.692   1.893 -0.8293  0.2566 -1.0367
  797MOL0     H 9984   0.893   5.882   1.866  1.6815 -0.7116 -1.9664
  797MOL0     H 9985   0.745   5.833   1.958 -1.2767 -2.4456 -2.1233
  797MOL0     H 9986   0.886   5.726   1.965 -1.3064 -0.2692 -0.9253
  798MOL0     O 9987  10.935   5.818   6.005 -0.5607  0.6811 -0.3137
  798MOL0     C 9988  10.918   5.779   6.119 -0.1053  0.2915  0.2683
  798MOL0     O 9989  11.013   5.781   6.218 -0.2545 -0.6406 -0.9723
  798MOL0     C 9990  11.145   5.803   6.196 -0.1740  0.1855  0.2579
  798MOL0     C 9991  11.210   5.732   6.099  0.2414  0.5259  0.7017
  798MOL0     C 9992  11.353   5.750   6.088 -0.1420 -1.0352 -0.6431
  798MOL0     C 9993  11.427   5.822   6.178 -0.5914  0.8394 -0.1701
  798MOL0     O 9994  11.562   5.845   6.158  0.0578 -0.0312 -0.0613
  798MOL0     C 9995  11.640   5.919   6.243  0.7769  0.8013  0.3858
  798MOL0     C 9996  11.767   5.940   6.182 -0.1827 -0.0631  0.7541
  798MOL0     C 9997  11.860   6.028   6.265 -0.0609 -0.1189 -0.5962
  798MOL0     C 9998  11.944   5.960   6.375  0.2069  1.3164 -0.7679
  798MOL0     C 9999  12.070   6.047   6.398 -0.3342  0.5525  0.0239
  798MOL0     C10000  12.179   6.021   6.284 -0.3185  0.3577 -0.2167
  798MOL0     C10001  12.316   6.089   6.318 -0.5645  0.1992  0.4110
  798MOL0     C10002  12.310   6.239   6.373 -0.0569 -0.7676  0.3927
  798MOL0     N10003  12.445   6.295   6.408 -0.6175  0.0408  0.7037
  798MOL0     C10004  12.462   6.423   6.445  1.3476  0.3911 -0.0508
  798MOL0     C10005  12.594   6.440   6.481  0.3240 -0.1618  0.0329
  798MOL0     C10006  12.679   6.565   6.525 -0.8381  0.4722  0.1289
  798MOL0     C10007  12.835   6.542   6.508  0.6888 -0.9161 -0.3649
  798MOL0     C10008  12.916   6.654   6.571  0.0957 -0.0908  0.2338
  798MOL0     C10009  13.058   6.612   6.538  0.2136  0.1475  0.7625
  798MOL0     O10010  13.104   6.614   6.399 -0.4415  0.0565 -0.0542
  798MOL0     C10011  13.237   6.630   6.359  0.2700 -0.4713  0.1573
  798MOL0     C10012  13.251   6.675   6.235 -0.4358 -0.1877  0.0496
  798MOL0     C10013  13.382   6.692   6.180  0.3301 -0.0740 -0.3365
  798MOL0     C10014  13.390   6.732   6.037  0.4315 -0.2630  0.2548
  798MOL0     C10015  13.492   6.665   6.266 -0.4596  0.2062  0.7402
  798MOL0     C10016  13.633   6.700   6.220  0.5932  0.1046 -0.4467
  798MOL0     O10017  13.728   6.633   6.285 -0.0722  0.2220 -0.4561
  798MOL0     C10018  13.858   6.686   6.291  0.4938  0.7780  0.2872
  798MOL0     C10019  13.935   6.673   6.409  0.4909 -0.3548  0.1511
  798MOL0     C10020  14.066   6.710   6.411 -0.8982  0.6121  0.8609
  798MOL0     C10021  14.135   6.750   6.297 -0.1759  0.5231  1.0992
  798MOL0     O10022  14.268   6.782   6.286 -0.4855  0.0274 -0.7226
  798MOL0     C10023  14.333   6.830   6.406 -0.7876 -0.9496  0.3037
  798MOL0     C10024  14.486   6.838   6.383 -0.1950  0.9749  0.3720
  798MOL0     C10025  14.565   6.707   6.388 -0.3557 -0.6010 -0.1090
  798MOL0     C10026  14.718   6.740   6.383 -0.5438  0.6028  0.5548
  798MOL0     C10027  14.773   6.797   6.507  0.5931  0.0847 -1.0904
  798MOL0     C10028  14.925   6.772   6.529  0.3244  0.5067 -0.2262
  798MOL0     C10029  14.967   6.812   6.673 -0.7467  0.2878 -0.8656
  798MOL0     C10030  15.114   6.836   6.690  0.1042  0.2074  0.2933
  798MOL0    Cl10031  15.155   6.997   6.632  0.3094 -0.1175  0.3190
  798MOL0     C10032  14.061   6.760   6.181  0.7705 -0.5111  0.0946
  798MOL0     C10033  13.926   6.724   6.170  0.1762  0.5455  0.0934
  798MOL0     O10034  13.649   6.787   6.130  0.1655  0.6560  0.1798
  798MOL0     C10035  13.467   6.601   6.386 -1.0527 -0.1820 -0.1206
  798MOL0     C10036  13.343   6.584   6.436 -0.1652 -0.5238  0.3499
  798MOL0     N10037  12.655   6.321   6.460 -0.6455  0.0843 -0.0226
  798MOL0     N10038  12.570   6.230   6.413  0.5207 -0.0336  0.4166
  798MOL0     C10039  11.363   5.870   6.293 -0.6102 -0.3212 -0.7296
  798MOL0     C10040  11.216   5.864   6.297 -0.4921  0.7139 -0.2767
  798MOL0     C10041  10.791   5.709   6.139 -0.3026 -0.4027  0.5337
  798MOL0     C10042  10.785   5.595   6.231 -0.5913 -1.1109  0.1827
  798MOL0     C10043  10.666   5.524   6.249  0.4362  0.6975  0.4122
  798MOL0     C10044  10.546   5.559   6.182  0.0043 -0.1149 -0.8560
  798MOL0     O10045  10.429   5.497   6.214 -0.3741  0.7096  0.1221
  798MOL0     C10046  10.303   5.532   6.162  0.0977 -0.0660  0.6072
  798MOL0     C10047  10.198   5.428   6.222 -1.2541  0.1343  0.4166
  798MOL0     C10048  10.065   5.424   6.136 -0.9855 -0.8683 -0.2961
  798MOL0     C10049   9.965   5.527   6.187  0.7455  0.7835 -0.7777
  798MOL0     C10050   9.872   5.567   6.084  0.4549 -0.4572 -0.5387
  798MOL0     C10051   9.792   5.612   6.010  0.8667  0.8105 -0.4002
  798MOL0     C10052  10.551   5.660   6.084 -0.2871 -0.0934  0.7072
  798MOL0     C10053  10.668   5.740   6.069  0.4897  0.4943  0.2173
  798MOL0     C10054  10.659   5.868   5.989 -0.6702 -0.0867  1.2868
  798MOL0     H10055  11.148   5.674   6.032  1.9279 -0.9424  0.3109
  798MOL0     H10056  11.409   5.700   6.010 -0.1408  0.7872 -1.8661
  798MOL0     H10057  11.663   5.865   6.335 -0.4174 -1.8689 -0.7701
  798MOL0     H10058  11.592   6.015   6.265 -1.6782 -0.9017  3.3071
  798MOL0     H10059  11.809   5.842   6.157  0.1697 -0.3783  2.4317
  798MOL0     H10060  11.747   5.991   6.088 -1.2944  1.7158  1.9033
  798MOL0     H10061  11.929   6.073   6.193  1.8775 -0.8811  0.7250
  798MOL0     H10062  11.807   6.111   6.312  0.1194 -0.9807  1.2326
  798MOL0     H10063  11.892   5.964   6.471  1.6024 -1.9751  0.2829
  798MOL0     H10064  11.972   5.858   6.348  0.1184  0.7025  1.2849
  798MOL0     H10065  12.118   6.026   6.494 -0.2116 -0.1249 -0.1829
  798MOL0     H10066  12.046   6.154   6.399 -3.8705 -0.0236 -2.6007
  798MOL0     H10067  12.196   5.915   6.263 -2.5082  0.4118 -2.9514
  798MOL0     H10068  12.159   6.054   6.181  1.5488 -0.7668 -0.9804
  798MOL0     H10069  12.376   6.097   6.226  0.7041 -1.6558  1.0120
  798MOL0     H10070  12.378   6.033   6.389  0.6216 -0.0608 -0.7751
  798MOL0     H10071  12.257   6.303   6.301  1.7995  0.3832 -0.0143
  798MOL0     H10072  12.268   6.239   6.474  0.6636 -0.2192  0.7030
  798MOL0     H10073  12.384   6.497   6.461  1.7035  0.8438 -0.3618
  798MOL0     H10074  12.668   6.591   6.631  2.8089  1.4702  0.4010
  798MOL0     H10075  12.660   6.652   6.462 -2.1335 -0.1480 -0.3858
  798MOL0     H10076  12.867   6.455   6.567  1.2614  0.0685  0.8091
  798MOL0     H10077  12.853   6.529   6.401  0.2941 -0.5061 -0.4857
  798MOL0     H10078  12.894   6.746   6.516  0.3180 -1.3776 -2.1273
  798MOL0     H10079  12.896   6.665   6.678 -0.6926  0.4237  0.0434
  798MOL0     H10080  13.130   6.667   6.601  1.3631 -0.1150 -0.2806
  798MOL0     H10081  13.073   6.508   6.568 -0.1005 -0.3678 -0.7717
  798MOL0     H10082  13.170   6.675   6.163  2.4706 -2.9571 -3.6426
  798MOL0     H10083  13.468   6.672   5.990  0.5404 -2.9544  3.4356
  798MOL0     H10084  13.393   6.839   6.013 -3.0795  0.0631  0.6486
  798MOL0     H10085  13.293   6.709   5.992  0.4903  1.5844 -0.9448
  798MOL0     H10086  13.890   6.615   6.488  1.5331 -2.9555 -1.0368
  798MOL0     H10087  14.114   6.704   6.509 -1.7674 -0.2028  1.2630
  798MOL0     H10088  14.294   6.930   6.427  0.3606 -0.1167 -1.3048
  798MOL0     H10089  14.317   6.762   6.490 -1.4337  1.5544  2.3595
  798MOL0     H10090  14.496   6.881   6.283 -0.9727  0.2322 -0.0416
  798MOL0     H10091  14.539   6.910   6.446  2.4263 -0.5450  0.0953
  798MOL0     H10092  14.534   6.646   6.302 -1.4392 -2.8935  1.8163
  798MOL0     H10093  14.539   6.655   6.480 -0.7090  0.7199  0.5559
  798MOL0     H10094  14.752   6.800   6.299  2.5395  0.4926  1.6103
  798MOL0     H10095  14.770   6.644   6.378  1.4999  1.7190 -1.4726
  798MOL0     H10096  14.748   6.902   6.522  0.9506  0.1282 -0.7535
  798MOL0     H10097  14.723   6.751   6.593 -0.1827  1.7019 -0.6366
  798MOL0     H10098  14.981   6.827   6.453 -0.9532  2.3299  0.0882
  798MOL0     H10099  14.949   6.665   6.532 -2.1263 -0.0837  0.9088
  798MOL0     H10100  14.936   6.745   6.754  0.9971  1.0829  0.5416
  798MOL0     H10101  14.908   6.899   6.703  0.5984  1.1384 -0.5747
  798MOL0     H10102  15.178   6.769   6.633  1.6636  0.6717  1.4498
  798MOL0     H10103  15.143   6.831   6.795 -2.7476 -1.6597  1.1297
  798MOL0     H10104  14.121   6.777   6.092  0.0315 -1.0753 -0.5316
  798MOL0     H10105  13.877   6.724   6.074 -0.3016  0.7280  0.3344
  798MOL0     H10106  13.548   6.566   6.451 -1.0456 -1.1550 -0.6505
  798MOL0     H10107  13.338   6.537   6.533  2.3240 -0.9221  0.3592
  798MOL0     H10108  11.410   5.914   6.380 -0.5414 -1.5590 -0.1227
  798MOL0     H10109  11.160   5.900   6.383 -0.9330 -1.9658  0.6550
  798MOL0     H10110  10.871   5.561   6.286 -0.7930 -2.9358 -0.5506
  798MOL0     H10111  10.673   5.440   6.317 -3.0464  0.0798  0.1758
  798MOL0     H10112  10.271   5.634   6.184 -0.7477 -0.2475  0.2488
  798MOL0     H10113  10.306   5.521   6.053 -2.4746 -1.6306  0.6031
  798MOL0     H10114  10.181   5.439   6.330 -0.6192 -1.7560  0.7379
  798MOL0     H10115  10.246   5.330   6.214  1.4289  1.4405 -0.4450
  798MOL0     H10116  10.093   5.448   6.033 -3.2457 -3.2600 -1.5653
  798MOL0     H10117  10.026   5.322   6.132 -1.1904 -0.9618  2.3730
  798MOL0     H10118  10.013   5.620   6.218  0.8680  0.6247 -0.4854
  798MOL0     H10119   9.902   5.485   6.266  1.7064  1.3420  0.3146
  798MOL0     H10120   9.728   5.666   5.943  0.3770  1.8246  0.8364
  798MOL0     H10121  10.463   5.677   6.023 -0.8789 -1.3054  1.1826
  798MOL0     H10122  10.701   5.847   5.890 -0.5678  3.3493  0.4662
  798MOL0     H10123  10.556   5.903   5.975 -0.3203  1.2881  1.9237
  798MOL0     H10124  10.712   5.946   6.045 -0.5064 -1.2939  2.8704
  799MOL0     O10125   4.630   9.841   3.026 -0.5898  0.0768 -0.5792
  799MOL0     C10126   4.628   9.908   2.922 -0.3127  0.7776 -0.8171
  799MOL0     O10127   4.586   9.864   2.797  0.1966 -0.0991 -0.3777
  799MOL0     C10128   4.532   9.741   2.802 -0.7860  0.6319  0.1689
  799MOL0     C10129   4.394   9.729   2.789  0.0873 -0.5016 -0.2710
  799MOL0     C10130   4.339   9.599   2.785 -0.1537 -0.5160  0.5575
  799MOL0     C10131   4.408   9.479   2.788 -0.2127 -0.2396  0.0696
  799MOL0     O10132   4.355   9.348   2.787  0.5131  0.5183  0.3322
  799MOL0     C10133   4.230   9.328   2.850  0.3432  0.8034 -0.4659
  799MOL0     C10134   4.200   9.176   2.860  0.3174  0.2153  0.4084
  799MOL0     C10135   4.307   9.087   2.923  0.4545 -0.6834 -0.1555
  799MOL0     C10136   4.388   9.153   3.037 -0.4181  0.4104  0.4819
  799MOL0     C10137   4.492   9.049   3.100  0.0436 -0.4232  0.2295
  799MOL0     C10138   4.628   9.038   3.020  0.3043  0.4907 -0.1976
  799MOL0     C10139   4.736   8.948   3.090  0.7622  0.0472  0.2581
  799MOL0     C10140   4.865   8.931   3.008 -0.9566 -0.6085  0.1580
  799MOL0     N10141   4.933   9.064   3.013  0.7743 -0.1748  0.0937
  799MOL0     C10142   4.987   9.120   2.899 -1.0081 -0.1793 -0.3494
  799MOL0     C10143   5.095   9.198   2.953 -0.5662 -0.0416  0.1891
  799MOL0     C10144   5.204   9.243   2.870  0.4732 -0.1863  0.3411
  799MOL0     C10145   5.283   9.360   2.933 -0.4746  0.0923 -0.2342
  799MOL0     C10146   5.362   9.441   2.829 -0.2844  0.1776 -0.7104
  799MOL0     C10147   5.431   9.566   2.873 -1.1830 -0.4421 -0.3290
  799MOL0     O10148   5.534   9.523   2.970  0.9294  0.1794  0.2338
  799MOL0     C10149   5.643   9.609   2.992  0.1390 -0.7203 -0.4620
  799MOL0     C10150   5.677   9.720   2.914  0.1371  0.4551 -0.1366
  799MOL0     C10151   5.800   9.796   2.940  1.0035 -0.1994  0.6265
  799MOL0     C10152   5.834   9.909   2.838 -0.9211  0.0890  0.1740
  799MOL0     C10153   5.881   9.764   3.044  0.3862  0.1797  0.0294
  799MOL0     C10154   6.003   9.836   3.073 -0.1526 -0.7781  0.7657
  799MOL0     O10155   6.109   9.828   2.983 -0.2395  0.1498 -0.2276
  799MOL0     C10156   6.216   9.908   3.001  0.3346  0.8367 -0.8419
  799MOL0     C10157   6.338   9.859   2.956  0.4503 -0.0538 -0.3247
  799MOL0     C10158   6.466   9.920   2.964 -0.1609 -0.1445 -0.0864
  799MOL0     C10159   6.469  10.042   3.027 -0.1378 -0.0116  0.2998
  799MOL0     O10160   6.590  10.105   3.038  0.1287  0.5963 -0.3018
  799MOL0     C10161   6.608  10.218   3.128 -0.1434 -0.0571 -0.8043
  799MOL0     C10162   6.750  10.268   3.154  0.3941  0.1241 -0.0128
  799MOL0     C10163   6.807  10.335   3.024 -0.6006 -0.1087  0.0682
  799MOL0     C10164   6.930  10.254   2.995 -0.4315 -0.1969  0.0555
  799MOL0     C10165   7.010  10.308   2.874  0.8596  0.1650  0.4366
  799MOL0     C10166   7.067  10.454   2.895 -0.8468  0.3847  0.0722
  799MOL0     C10167   7.187  10.457   2.990  0.3332 -0.2291  0.0894
  799MOL0     C10168   7.249  10.591   3.000  1.1287  0.2379  0.5698
  799MOL0    Cl10169   7.369  10.606   3.130 -0.3604  0.0596 -0.5890
  799MOL0     C10170   6.349  10.102   3.072 -0.4336  0.3321  0.4906
  799MOL0     C10171   6.222  10.038   3.061  0.0316 -0.6083 -0.5189
  799MOL0     O10172   6.006   9.879   3.184  0.4797  1.1824 -0.3995
  799MOL0     C10173   5.843   9.659   3.128 -0.5733 -0.6056 -0.5866
  799MOL0     C10174   5.733   9.583   3.099  0.8369  0.1589 -0.4536
  799MOL0     N10175   5.085   9.195   3.091  0.4476  0.9443 -0.8830
  799MOL0     N10176   4.984   9.123   3.124 -0.8140 -0.5959 -0.1345
  799MOL0     C10177   4.550   9.494   2.799 -0.2508 -0.4245  0.8312
  799MOL0     C10178   4.612   9.618   2.814 -0.5189 -0.2267  0.2866
  799MOL0     C10179   4.646  10.058   2.928 -0.4757 -0.4651 -0.1077
  799MOL0     C10180   4.617  10.128   2.808  0.5948  0.2341  0.2268
  799MOL0     C10181   4.636  10.265   2.793  0.2313  0.4080 -0.2339
  799MOL0     C10182   4.702  10.333   2.897  0.4494 -0.5868 -0.2087
  799MOL0     O10183   4.724  10.469   2.870 -0.0653 -0.3048 -0.5424
  799MOL0     C10184   4.792  10.557   2.962 -0.3834  0.3308 -0.2443
  799MOL0     C10185   4.942  10.530   2.975  0.3892  0.2827  0.2313
  799MOL0     C10186   5.015  10.631   3.053 -0.6149  0.7886 -0.3263
  799MOL0     C10187   5.166  10.591   3.058 -1.2658  0.2843 -0.0055
  799MOL0     C10188   5.201  10.490   3.158 -0.3533  0.1502 -0.3064
  799MOL0     C10189   5.207  10.391   3.234  0.3510 -0.2440  0.7851
  799MOL0     C10190   4.735  10.267   3.015  0.1513  0.4181  0.5304
  799MOL0     C10191   4.702  10.128   3.033 -0.2953 -0.3063 -0.4447
  799MOL0     C10192   4.723  10.084   3.178  0.4664 -0.1435 -0.0773
  799MOL0     H10193   4.337   9.821   2.788  3.3413  1.6776 -0.3720
  799MOL0     H10194   4.230   9.601   2.782 -0.1432  1.2139 -1.5997
  799MOL0     H10195   4.157   9.386   2.793  2.6209  3.6101 -0.7962
  799MOL0     H10196   4.246   9.371   2.949  1.8515 -0.2702 -0.2005
  799MOL0     H10197   4.112   9.161   2.923 -0.3585 -1.0151 -0.7840
  799MOL0     H10198   4.162   9.134   2.767 -1.8795  0.3855  1.1657
  799MOL0     H10199   4.253   9.000   2.961 -1.7386  0.7269  0.1469
  799MOL0     H10200   4.377   9.059   2.844  2.8445  1.3218  1.1090
  799MOL0     H10201   4.453   9.231   2.996  2.9812 -1.4594  1.8673
  799MOL0     H10202   4.331   9.193   3.122  0.3791  0.5431  0.9621
  799MOL0     H10203   4.447   8.953   3.125 -0.5703  0.8288  4.9876
  799MOL0     H10204   4.530   9.087   3.196  0.4653 -1.7100  0.6034
  799MOL0     H10205   4.610   8.988   2.924  0.6340 -2.7675  1.2895
  799MOL0     H10206   4.657   9.143   3.013 -1.0465  1.2726  3.4832
  799MOL0     H10207   4.693   8.848   3.090 -1.7609  1.0519  0.5020
  799MOL0     H10208   4.757   8.963   3.196  3.3601 -0.4756 -0.1258
  799MOL0     H10209   4.928   8.851   3.048  1.6246  0.1875 -1.9820
  799MOL0     H10210   4.839   8.914   2.903 -0.0439  0.4442 -0.2673
  799MOL0     H10211   4.965   9.096   2.796 -1.0753  0.5128 -0.5063
  799MOL0     H10212   5.173   9.275   2.770 -0.3562  0.3588  0.7599
  799MOL0     H10213   5.283   9.168   2.861  1.2234  0.5011  0.9819
  799MOL0     H10214   5.216   9.427   2.986 -0.2071 -0.0251  0.2550
  799MOL0     H10215   5.355   9.309   2.998  0.1109 -0.0062 -0.9420
  799MOL0     H10216   5.442   9.392   2.773  0.5061  1.7032 -0.9927
  799MOL0     H10217   5.290   9.474   2.753  0.8161 -1.7913 -2.7168
  799MOL0     H10218   5.466   9.609   2.779  0.4368 -1.2896 -0.1345
  799MOL0     H10219   5.353   9.634   2.908 -2.5814 -1.7490 -0.7922
  799MOL0     H10220   5.620   9.743   2.825 -1.7893 -1.2406  0.5954
  799MOL0     H10221   5.910   9.876   2.766 -0.3189  3.5692 -0.9879
  799MOL0     H10222   5.872   9.996   2.892  0.0847 -0.6320  0.6521
  799MOL0     H10223   5.745   9.942   2.783  0.1802  1.9682 -0.5639
  799MOL0     H10224   6.331   9.769   2.896 -1.3402  0.2295 -0.5994
  799MOL0     H10225   6.556   9.862   2.948  1.2142  1.0710  2.6504
  799MOL0     H10226   6.548  10.302   3.091  1.4291  1.4296 -0.0934
  799MOL0     H10227   6.568  10.191   3.226 -1.3354 -1.6026 -1.6484
  799MOL0     H10228   6.754  10.346   3.231  1.2477  2.2583 -2.0743
  799MOL0     H10229   6.803  10.180   3.192 -0.5884  0.6041  2.6658
  799MOL0     H10230   6.815  10.443   3.044 -2.3438  0.0955 -0.1796
  799MOL0     H10231   6.747  10.326   2.933  0.7225 -1.2415 -0.7214
  799MOL0     H10232   6.902  10.149   2.987  1.5475 -0.7555 -0.1522
  799MOL0     H10233   6.998  10.248   3.080  1.1936 -0.2763 -1.1943
  799MOL0     H10234   7.088  10.234   2.855 -1.4591 -2.1647 -0.6343
  799MOL0     H10235   6.950  10.323   2.784  0.3083  0.2905  0.8218
  799MOL0     H10236   6.987  10.520   2.929 -0.7141  0.2190  0.7027
  799MOL0     H10237   7.098  10.499   2.799  1.9377  2.1408  1.6522
  799MOL0     H10238   7.257  10.379   2.961  1.4802  0.8739 -0.2075
  799MOL0     H10239   7.141  10.431   3.086 -1.1943 -0.8597 -0.7767
  799MOL0     H10240   7.181  10.672   3.028  0.7773 -0.0210  0.4663
  799MOL0     H10241   7.292  10.625   2.905 -0.4669 -0.3602 -0.4092
  799MOL0     H10242   6.359  10.207   3.095  3.3075  0.6031 -1.6527
  799MOL0     H10243   6.133  10.093   3.091 -0.4070 -1.7048  0.2527
  799MOL0     H10244   5.910   9.633   3.209 -0.8908  2.6899  0.8889
  799MOL0     H10245   5.706   9.494   3.156  0.7815  1.3696  1.5113
  799MOL0     H10246   4.615   9.407   2.799 -1.1965 -1.1539 -0.1000
  799MOL0     H10247   4.714   9.633   2.845 -0.6405 -4.1641  3.4586
  799MOL0     H10248   4.576  10.073   2.724 -1.0142  0.3705  0.8783
  799MOL0     H10249   4.606  10.321   2.705 -2.3659 -0.6578 -0.1202
  799MOL0     H10250   4.781  10.663   2.940 -0.5253  1.1649  3.3652
  799MOL0     H10251   4.734  10.555   3.054 -3.2446 -1.7128 -1.9218
  799MOL0     H10252   4.990  10.528   2.877 -0.8323  1.9089 -0.4408
  799MOL0     H10253   4.958  10.429   3.016 -1.4718 -0.9092 -1.7686
  799MOL0     H10254   4.995  10.721   2.994  1.0887  0.5814 -1.2867
  799MOL0     H10255   4.975  10.636   3.154  0.7229 -2.7005  0.5250
  799MOL0     H10256   5.222  10.681   3.085 -0.4402 -0.5362  1.1142
  799MOL0     H10257   5.204  10.562   2.960  1.3492 -2.0264  1.5271
  799MOL0     H10258   5.222  10.302   3.291 -0.6290 -0.9919 -0.0928
  799MOL0     H10259   4.787  10.313   3.099  0.1814  1.3545  0.0195
  799MOL0     H10260   4.629  10.063   3.231  0.6603  0.9336  0.7293
  799MOL0     H10261   4.783   9.993   3.182  0.1664 -0.5156 -2.4053
  799MOL0     H10262   4.785  10.158   3.229  1.6061 -2.3986  1.9637
  800MOL0     O10263   8.366   7.555   7.170  0.5334 -0.2088  0.2106
  800MOL0     C10264   8.374   7.676   7.205 -0.3784  0.2390  0.0688
  800MOL0     O10265   8.475   7.726   7.275 -0.2663 -0.1196  0.8613
  800MOL0     C10266   8.568   7.637   7.326  1.0554 -0.5708  0.0024
  800MOL0     C10267   8.696   7.662   7.277 -1.3113  0.5157 -0.3042
  800MOL0     C10268   8.808   7.596   7.330  1.1291  0.8922  0.5704
  800MOL0     C10269   8.793   7.495   7.423  0.7686  0.8569  0.9173
  800MOL0     O10270   8.907   7.422   7.461 -0.3749 -1.3042  0.1282
  800MOL0     C10271   8.895   7.277   7.441 -0.0354 -0.0384  0.3557
  800MOL0     C10272   9.022   7.210   7.494  0.1345  0.0957 -0.3757
  800MOL0     C10273   9.049   7.250   7.641 -0.5350  0.0054 -0.3015
  800MOL0     C10274   9.182   7.207   7.701 -0.3823 -0.0021 -0.0959
  800MOL0     C10275   9.191   7.276   7.838  0.4813 -0.2785  0.1690
  800MOL0     C10276   9.323   7.257   7.907 -0.3797  0.5154  0.1974
  800MOL0     C10277   9.428   7.338   7.830 -1.2668 -0.0063  0.2352
  800MOL0     C10278   9.542   7.371   7.924 -0.0053  0.0432 -0.3122
  800MOL0     N10279   9.642   7.479   7.891  0.1142  0.1645 -0.6936
  800MOL0     C10280   9.612   7.609   7.892  0.6140 -0.7777 -0.1113
  800MOL0     C10281   9.736   7.672   7.897 -0.2700 -0.7796  0.4532
  800MOL0     C10282   9.765   7.820   7.897  0.5498  0.3302  0.2478
  800MOL0     C10283   9.779   7.880   8.035 -0.1441 -0.4070 -0.1716
  800MOL0     C10284   9.922   7.869   8.089 -0.1529  0.6531  0.6303
  800MOL0     C10285   9.922   7.882   8.245  0.1397 -0.8872  1.1320
  800MOL0     O10286   9.851   7.769   8.308 -0.2183 -0.4613  0.2935
  800MOL0     C10287   9.830   7.780   8.447  0.6967  0.4419  0.8025
  800MOL0     C10288   9.819   7.661   8.512 -0.7951  0.0314  0.5365
  800MOL0     C10289   9.770   7.655   8.646  0.4239  0.2303 -0.3829
  800MOL0     C10290   9.757   7.513   8.699 -0.4468 -0.3257  0.0323
  800MOL0     C10291   9.752   7.772   8.718 -0.5211 -0.1961  0.0172
  800MOL0     C10292   9.698   7.780   8.855  0.1051  0.7267 -0.4090
  800MOL0     O10293   9.743   7.885   8.917 -0.8502  0.7693 -0.5109
  800MOL0     C10294   9.704   7.906   9.045 -0.3500 -0.0475 -0.1520
  800MOL0     C10295   9.571   7.922   9.075 -0.7354  0.2863  0.0380
  800MOL0     C10296   9.517   7.930   9.205 -0.1850 -0.7145  0.1189
  800MOL0     C10297   9.607   7.927   9.310 -0.1927  0.3518  0.0133
  800MOL0     O10298   9.572   7.952   9.440  0.2699  0.7244  0.2272
  800MOL0     C10299   9.442   7.907   9.480  0.9988  0.3609  0.6127
  800MOL0     C10300   9.416   7.894   9.632 -0.2366  0.1416 -0.2594
  800MOL0     C10301   9.441   7.759   9.700  0.4075 -0.6216  0.9005
  800MOL0     C10302   9.580   7.705   9.669  0.0254  0.1549  0.1327
  800MOL0     C10303   9.688   7.759   9.770  0.3205  0.6036  0.3016
  800MOL0     C10304   9.816   7.696   9.739 -0.3455 -0.0399 -0.1486
  800MOL0     C10305   9.930   7.778   9.807  0.7246 -0.4600  0.3808
  800MOL0     C10306   9.961   7.748   9.945  0.0072  1.2116  0.0226
  800MOL0    Cl10307  10.065   7.609   9.964  0.4908 -0.3111  0.1307
  800MOL0     C10308   9.745   7.914   9.285  0.6124 -0.6127  0.1401
  800MOL0     C10309   9.791   7.897   9.155 -0.0980 -0.1899 -0.1126
  800MOL0     O10310   9.601   7.711   8.893 -0.4116 -0.3436  0.2658
  800MOL0     C10311   9.794   7.889   8.652 -0.3153  0.0259  0.1795
  800MOL0     C10312   9.831   7.895   8.518 -0.2735  0.1691 -0.6470
  800MOL0     N10313   9.829   7.577   7.877  0.0907  0.4535  0.3228
  800MOL0     N10314   9.772   7.457   7.882  0.0212 -0.5992 -0.4123
  800MOL0     C10315   8.664   7.465   7.466 -0.6948 -0.5384  1.2050
  800MOL0     C10316   8.546   7.531   7.415 -0.3406 -0.4961 -0.0498
  800MOL0     C10317   8.265   7.764   7.173  0.2844 -0.2384 -0.1238
  800MOL0     C10318   8.251   7.885   7.252  0.2670  0.2159 -0.4853
  800MOL0     C10319   8.158   7.982   7.223  0.1071 -0.5103  0.6459
  800MOL0     C10320   8.073   7.959   7.112 -0.5525 -0.6635 -0.3986
  800MOL0     O10321   7.980   8.050   7.070  0.8772 -0.1336  0.2887
  800MOL0     C10322   7.961   8.177   7.131 -0.1845  0.1381  0.1373
  800MOL0     C10323   7.880   8.151   7.264  0.0863  1.0883 -0.2393
  800MOL0     C10324   7.748   8.070   7.249  0.4718  0.4185  0.7744
  800MOL0     C10325   7.639   8.149   7.181  0.2323 -0.3577  0.4348
  800MOL0     C10326   7.511   8.084   7.208  0.2005 -0.5450  0.0268
  800MOL0     C10327   7.409   8.026   7.236  0.2608 -0.1888  0.5640
  800MOL0     C10328   8.085   7.845   7.036 -0.2682 -0.8535  0.2828
  800MOL0     C10329   8.182   7.741   7.059 -0.1925 -0.1985  0.4109
  800MOL0     C10330   8.194   7.628   6.964  0.6229 -0.5117  0.6530
  800MOL0     H10331   8.715   7.745   7.209 -2.4391  0.4451 -0.7372
  800MOL0     H10332   8.905   7.627   7.293  0.6267  0.8512 -0.8379
  800MOL0     H10333   8.883   7.256   7.335 -0.1033  1.4406  0.0497
  800MOL0     H10334   8.813   7.227   7.493 -0.2705 -1.8478 -1.6444
  800MOL0     H10335   9.019   7.101   7.490  0.7734  0.0553  0.0582
  800MOL0     H10336   9.101   7.246   7.427  2.1157 -1.2046  1.1685
  800MOL0     H10337   9.040   7.358   7.646 -1.9113  0.1956 -3.7928
  800MOL0     H10338   8.977   7.198   7.705 -0.3048 -0.6805 -0.5895
  800MOL0     H10339   9.200   7.100   7.702 -0.2196 -0.0558  3.2127
  800MOL0     H10340   9.255   7.243   7.627 -0.5348  1.1337  0.2837
  800MOL0     H10341   9.105   7.246   7.899  0.3232  1.8924  1.1344
  800MOL0     H10342   9.195   7.385   7.823  0.8696 -0.5134 -1.5755
  800MOL0     H10343   9.305   7.288   8.011  2.1768  2.2038  0.2132
  800MOL0     H10344   9.348   7.151   7.897 -0.6052  0.5801 -1.2302
  800MOL0     H10345   9.393   7.433   7.788 -0.6113 -0.7522 -2.1109
  800MOL0     H10346   9.468   7.284   7.744 -1.0774 -0.9802  0.9244
  800MOL0     H10347   9.503   7.403   8.021 -0.5865  0.8253 -0.7905
  800MOL0     H10348   9.596   7.276   7.932 -0.8607 -0.8000 -3.3132
  800MOL0     H10349   9.520   7.665   7.902  0.5606 -0.7080 -0.8680
  800MOL0     H10350   9.680   7.872   7.852 -1.3996 -1.4044  1.7162
  800MOL0     H10351   9.850   7.851   7.836  0.5688 -0.4906 -0.1584
  800MOL0     H10352   9.751   7.985   8.029  0.7351  0.0491  2.6032
  800MOL0     H10353   9.706   7.827   8.096  0.1708  0.4335  0.9660
  800MOL0     H10354   9.957   7.766   8.075  1.3948  0.9529  1.9602
  800MOL0     H10355   9.997   7.924   8.031  0.8535 -2.3789 -1.1758
  800MOL0     H10356  10.023   7.889   8.285  0.1575 -0.6358  1.0413
  800MOL0     H10357   9.866   7.973   8.265  3.6820  1.1532  2.6553
  800MOL0     H10358   9.842   7.567   8.464  0.8979  1.1866 -1.0685
  800MOL0     H10359   9.800   7.509   8.800 -0.7102 -1.0516  0.1230
  800MOL0     H10360   9.804   7.430   8.645 -2.9270 -2.2731  0.6491
  800MOL0     H10361   9.652   7.485   8.703 -0.4547 -0.2329  0.7515
  800MOL0     H10362   9.503   7.923   8.990  0.6542  1.5631 -1.1063
  800MOL0     H10363   9.410   7.943   9.221  0.3185  2.5039  1.7590
  800MOL0     H10364   9.366   7.978   9.446 -0.0806 -0.6199  0.9084
  800MOL0     H10365   9.417   7.815   9.428 -0.0935  1.0436 -0.1058
  800MOL0     H10366   9.483   7.965   9.682  3.9464 -4.0153  0.7607
  800MOL0     H10367   9.313   7.919   9.658  0.3006  2.3538 -0.0698
  800MOL0     H10368   9.368   7.694   9.651 -2.1738  1.5256  1.6129
  800MOL0     H10369   9.419   7.759   9.807  0.0664 -1.2719  0.8315
  800MOL0     H10370   9.614   7.725   9.568 -0.0105  1.9799  0.4429
  800MOL0     H10371   9.573   7.597   9.686 -2.8337  0.4975  1.8909
  800MOL0     H10372   9.689   7.868   9.759 -0.9261  0.7830  1.6741
  800MOL0     H10373   9.660   7.751   9.875 -2.1804 -0.0264 -0.3365
  800MOL0     H10374   9.833   7.691   9.631  1.5546  0.9056  0.0796
  800MOL0     H10375   9.820   7.593   9.776  4.5037  0.7320  2.2499
  800MOL0     H10376   9.903   7.884   9.802 -1.0238 -0.8828  0.2503
  800MOL0     H10377  10.024   7.768   9.752  1.2510  0.1349  1.1477
  800MOL0     H10378   9.873   7.739  10.009 -0.1175  1.4636 -0.1138
  800MOL0     H10379  10.005   7.841   9.982 -1.4988  1.6394  0.8321
  800MOL0     H10380   9.819   7.925   9.364  0.8832 -1.1933 -0.0262
  800MOL0     H10381   9.897   7.882   9.140 -0.0686 -0.3159  0.1978
  800MOL0     H10382   9.795   7.980   8.710 -0.8307  0.3195 -0.2635
  800MOL0     H10383   9.854   7.993   8.478 -0.5670  0.2784 -0.5516
  800MOL0     H10384   8.645   7.387   7.540 -1.5463 -2.4179 -0.8744
  800MOL0     H10385   8.443   7.525   7.449 -1.0662  1.4737 -1.6994
  800MOL0     H10386   8.316   7.924   7.329  1.7833 -2.6649 -0.1635
  800MOL0     H10387   8.177   8.070   7.283  0.8423 -0.2011 -0.0183
  800MOL0     H10388   8.060   8.220   7.145  0.0114 -0.7816  1.9228
  800MOL0     H10389   7.904   8.241   7.063 -0.5968 -0.1573  0.2000
  800MOL0     H10390   7.848   8.244   7.312 -1.9096 -0.8024  2.4059
  800MOL0     H10391   7.941   8.103   7.340 -1.8376 -3.2421 -1.1545
  800MOL0     H10392   7.760   7.976   7.194 -1.4441  1.3032 -1.3028
  800MOL0     H10393   7.718   8.038   7.350 -1.3006 -1.4560 -0.2600
  800MOL0     H10394   7.653   8.155   7.072 -3.5633 -0.9951 -0.2189
  800MOL0     H10395   7.635   8.250   7.223 -2.2803 -0.2640  0.0808
  800MOL0     H10396   7.323   7.970   7.266  0.0298  0.1705  0.5751
  800MOL0     H10397   8.011   7.838   6.957  1.3730  1.2354 -1.5833
  800MOL0     H10398   8.144   7.662   6.872  0.3127 -1.6289  0.3938
  800MOL0     H10399   8.298   7.605   6.938 -0.0146 -1.6988 -1.0481
  800MOL0     H10400   8.138   7.537   6.985  1.2180 -0.7257  1.3148
  801MOL0     O10401   3.277   1.229   1.808 -0.0532 -0.4585  0.2716
  801MOL0     C10402   3.321   1.175   1.910 -0.3967  0.2349 -0.0066
  801MOL0     O10403   3.241   1.118   2.001  0.4779  0.5800  0.0366
  801MOL0     C10404   3.102   1.117   1.982 -0.0891  0.2933  0.2512
  801MOL0     C10405   3.037   0.995   1.951  0.3900 -0.1685 -0.2506
  801MOL0     C10406   2.904   1.004   1.923  0.0022 -0.1984 -0.1835
  801MOL0     C10407   2.836   1.126   1.942 -0.8182  0.4365  0.1313
  801MOL0     O10408   2.696   1.127   1.937 -0.2397  0.3826  0.9427
  801MOL0     C10409   2.631   1.029   1.865  0.2034  0.7511  0.6762
  801MOL0     C10410   2.489   1.064   1.864 -0.4874 -0.6483 -0.0311
  801MOL0     C10411   2.418   1.015   1.981  0.2063  0.0543 -0.5454
  801MOL0     C10412   2.268   1.063   1.973  0.3424  0.4970 -1.5454
  801MOL0     C10413   2.197   1.002   2.104  0.3076 -0.6957 -0.1113
  801MOL0     C10414   2.063   1.077   2.131  0.4121  0.3797  0.8017
  801MOL0     C10415   1.973   1.080   2.011  1.1915  0.2310 -0.2207
  801MOL0     C10416   1.843   1.153   2.059 -0.3860  0.4033 -0.1946
  801MOL0     N10417   1.739   1.152   1.956  0.3307  0.4300 -0.0496
  801MOL0     C10418   1.736   1.240   1.859 -1.0370 -0.2677 -1.0490
  801MOL0     C10419   1.607   1.229   1.804 -0.6775 -0.5014  0.3366
  801MOL0     C10420   1.531   1.293   1.689  0.4063 -0.5518 -1.4312
  801MOL0     C10421   1.602   1.300   1.560 -0.5081 -0.0612 -0.0457
  801MOL0     C10422   1.666   1.168   1.513  0.0293  0.2267 -0.6533
  801MOL0     C10423   1.710   1.158   1.364 -0.2499  0.1999  0.3892
  801MOL0     O10424   1.708   1.022   1.332  0.2592 -0.1029 -0.1509
  801MOL0     C10425   1.741   0.977   1.204  0.5407 -0.5403  0.1428
  801MOL0     C10426   1.657   1.012   1.094  0.0729 -0.1924 -0.3177
  801MOL0     C10427   1.678   0.952   0.969 -0.1095 -0.6922 -0.7257
  801MOL0     C10428   1.567   0.976   0.870 -0.1027  0.1567  0.8671
  801MOL0     C10429   1.780   0.856   0.953 -0.1930 -0.4559  0.3470
  801MOL0     C10430   1.802   0.780   0.833 -0.7361 -0.2374 -0.1109
  801MOL0     O10431   1.852   0.649   0.843 -0.0001 -0.6064  0.0492
  801MOL0     C10432   1.890   0.586   0.729  0.2573 -0.1165  0.0171
  801MOL0     C10433   1.804   0.491   0.665 -0.0450 -0.5588  0.1207
  801MOL0     C10434   1.852   0.407   0.560 -0.6660  0.0893 -0.5609
  801MOL0     C10435   1.988   0.414   0.526  0.3613  0.4231 -0.0741
  801MOL0     O10436   2.043   0.338   0.428  0.0736 -0.6132  0.4502
  801MOL0     C10437   1.995   0.348   0.291 -0.1382 -0.1409 -0.3650
  801MOL0     C10438   1.973   0.204   0.238 -0.3235  0.5305 -0.3628
  801MOL0     C10439   1.883   0.213   0.112  0.2765 -0.8568 -0.3573
  801MOL0     C10440   1.898   0.079   0.041 -0.2111  0.5078  0.4831
  801MOL0     C10441   1.793   0.082  -0.073 -0.7411  0.0236  0.4664
  801MOL0     C10442   1.862   0.125  -0.203 -0.3570  0.2285  1.1559
  801MOL0     C10443   1.767   0.116  -0.321 -0.0128  0.5349  0.1174
  801MOL0     C10444   1.828   0.162  -0.453 -0.3522 -0.3287  0.4709
  801MOL0    Cl10445   1.946   0.031  -0.500  0.1719  0.5354 -0.4033
  801MOL0     C10446   2.068   0.515   0.581  0.0112  0.4268 -0.5384
  801MOL0     C10447   2.027   0.593   0.687  0.0743  0.1785 -0.2241
  801MOL0     O10448   1.784   0.843   0.730 -0.4919 -0.0292 -0.3962
  801MOL0     C10449   1.860   0.828   1.062  0.0156  0.2420 -0.6711
  801MOL0     C10450   1.841   0.891   1.182  0.5113  0.1256 -1.0636
  801MOL0     N10451   1.542   1.129   1.870  0.4098  0.1761  0.7404
  801MOL0     N10452   1.616   1.087   1.968  0.1927 -0.1870  0.6236
  801MOL0     C10453   2.902   1.239   1.984 -0.2448 -0.0554  0.1267
  801MOL0     C10454   3.039   1.235   1.998  0.2079  0.2406 -0.6061
  801MOL0     C10455   3.468   1.142   1.930 -1.0299  0.0001  0.8129
  801MOL0     C10456   3.514   1.016   1.974 -0.4616  0.3552  0.2671
  801MOL0     C10457   3.650   0.977   1.974 -0.2072 -1.1025 -0.5800
  801MOL0     C10458   3.743   1.065   1.923 -0.2511  0.4844 -0.3582
  801MOL0     O10459   3.879   1.039   1.916  0.5527  0.2644  0.3062
  801MOL0     C10460   3.916   0.905   1.881  0.5557  0.2353 -0.6152
  801MOL0     C10461   3.871   0.872   1.742  0.7157  0.7606 -0.1814
  801MOL0     C10462   3.929   0.730   1.701 -0.5477 -0.6217  0.1767
  801MOL0     C10463   3.883   0.691   1.566  0.5648 -0.5078 -0.2622
  801MOL0     C10464   3.960   0.754   1.453 -0.0768  0.2434  0.7276
  801MOL0     C10465   4.033   0.800   1.365  0.1837  0.2763 -0.0432
  801MOL0     C10466   3.704   1.188   1.878 -0.8440 -0.2911 -0.0740
  801MOL0     C10467   3.572   1.232   1.888  0.1249 -0.7371  0.2787
  801MOL0     C10468   3.551   1.375   1.839  0.0479 -0.8964 -0.1075
  801MOL0     H10469   3.079   0.897   1.931 -3.8408 -2.2529  0.0208
  801MOL0     H10470   2.850   0.916   1.889 -1.0271  0.6089 -0.6932
  801MOL0     H10471   2.643   0.927   1.903  1.2798 -0.7384 -3.1301
  801MOL0     H10472   2.649   1.032   1.757 -0.5995 -0.3659  0.4825
  801MOL0     H10473   2.485   1.173   1.873 -0.3144 -0.6943  0.7017
  801MOL0     H10474   2.445   1.032   1.769 -3.1024 -0.2599  0.9825
  801MOL0     H10475   2.414   0.907   1.963 -0.4197 -0.1107  0.5339
  801MOL0     H10476   2.462   1.041   2.077 -0.0656  0.5136 -0.5439
  801MOL0     H10477   2.274   1.170   1.991 -1.2753  0.0034  3.9659
  801MOL0     H10478   2.216   1.025   1.884 -0.1218 -3.5156  0.1872
  801MOL0     H10479   2.262   1.017   2.191  1.4167 -1.8482 -0.7062
  801MOL0     H10480   2.178   0.896   2.084 -0.2938 -0.5123 -0.5276
  801MOL0     H10481   2.009   1.025   2.211 -1.5968 -0.8890 -1.2386
  801MOL0     H10482   2.080   1.179   2.164  0.5955 -0.5730  4.0772
  801MOL0     H10483   1.945   0.977   1.988  1.7806  0.2967 -1.2966
  801MOL0     H10484   2.009   1.142   1.928  1.8889 -0.4914 -0.4709
  801MOL0     H10485   1.803   1.112   2.152  2.7462  3.8046  2.9812
  801MOL0     H10486   1.868   1.257   2.084 -1.1036  0.3921  0.6163
  801MOL0     H10487   1.816   1.305   1.824  0.6944 -0.6603  1.8552
  801MOL0     H10488   1.501   1.394   1.720 -0.4852 -0.7916 -1.4974
  801MOL0     H10489   1.437   1.239   1.675  1.3336 -2.7901  0.4510
  801MOL0     H10490   1.539   1.335   1.478  0.8433  1.3078 -0.5459
  801MOL0     H10491   1.682   1.375   1.560 -0.4915 -0.0329 -2.2564
  801MOL0     H10492   1.754   1.134   1.570 -1.0354 -2.6340 -0.5216
  801MOL0     H10493   1.588   1.092   1.518  1.0809 -1.0222 -2.1096
  801MOL0     H10494   1.647   1.219   1.299 -0.9564 -3.1803 -2.3988
  801MOL0     H10495   1.815   1.186   1.357 -0.2467 -0.2719 -2.6679
  801MOL0     H10496   1.577   1.080   1.119 -0.0396 -1.0906  2.0121
  801MOL0     H10497   1.549   0.880   0.821  0.3729  0.3464  0.3134
  801MOL0     H10498   1.594   1.046   0.791  0.8301  0.1669  1.1813
  801MOL0     H10499   1.479   1.015   0.922 -0.6406 -0.6941  0.6043
  801MOL0     H10500   1.702   0.490   0.702 -0.2093  2.4283  0.0042
  801MOL0     H10501   1.785   0.335   0.515 -1.6422  0.1247  0.7504
  801MOL0     H10502   1.904   0.409   0.287 -2.0895 -2.7307  1.2552
  801MOL0     H10503   2.074   0.385   0.225  0.0733 -0.1600 -0.1256
  801MOL0     H10504   2.059   0.141   0.216  0.2136  1.3244 -0.5743
  801MOL0     H10505   1.919   0.153   0.318  0.3822 -1.5867 -1.1782
  801MOL0     H10506   1.901   0.303   0.053  2.4202  0.3648  1.9913
  801MOL0     H10507   1.777   0.219   0.138  1.0525  1.6092  2.7746
  801MOL0     H10508   1.870  -0.007   0.103  0.1148  0.5119  0.6348
  801MOL0     H10509   1.997   0.050   0.004 -0.3017  0.9911 -0.1513
  801MOL0     H10510   1.757  -0.021  -0.073  0.7826 -0.5386  0.1238
  801MOL0     H10511   1.715   0.153  -0.044  0.5014  2.0174 -0.8490
  801MOL0     H10512   1.946   0.056  -0.216  2.5814  3.8340 -0.9492
  801MOL0     H10513   1.905   0.225  -0.196 -1.2347  0.5275  2.6681
  801MOL0     H10514   1.688   0.189  -0.300 -1.4360 -0.9894  0.2736
  801MOL0     H10515   1.721   0.016  -0.320 -1.0229  0.9182  3.4270
  801MOL0     H10516   1.875   0.259  -0.435  0.2561 -0.2674 -1.2352
  801MOL0     H10517   1.756   0.185  -0.532 -0.1246  0.1686  0.4092
  801MOL0     H10518   2.160   0.543   0.530 -1.4756  0.2943 -3.5037
  801MOL0     H10519   2.102   0.663   0.723 -2.9448  3.1911  0.6886
  801MOL0     H10520   1.935   0.751   1.052  0.1699 -0.3154  3.1832
  801MOL0     H10521   1.899   0.865   1.269 -1.0929  0.3873  0.1400
  801MOL0     H10522   2.849   1.333   1.998 -0.7450 -0.5965  2.1814
  801MOL0     H10523   3.096   1.326   2.018  0.6401  0.0959 -1.1664
  801MOL0     H10524   3.438   0.954   2.021  1.7977 -0.1626  3.6251
  801MOL0     H10525   3.680   0.877   2.003  2.1430 -0.0961  0.6722
  801MOL0     H10526   4.025   0.896   1.872  0.5164  0.4606 -1.4731
  801MOL0     H10527   3.878   0.842   1.961 -0.0032  0.9760 -0.2889
  801MOL0     H10528   3.900   0.950   1.671 -2.5356  1.4920 -0.8577
  801MOL0     H10529   3.762   0.873   1.746  0.5501 -2.9975 -0.2398
  801MOL0     H10530   4.038   0.726   1.711 -0.6955  0.2923  3.8383
  801MOL0     H10531   3.892   0.660   1.777 -0.9780 -0.0757  0.4775
  801MOL0     H10532   3.777   0.715   1.551  0.1002 -0.7351  2.3101
  801MOL0     H10533   3.881   0.582   1.556 -0.4537 -0.7798  2.2796
  801MOL0     H10534   4.111   0.827   1.298 -1.1025  1.5349 -1.1005
  801MOL0     H10535   3.781   1.254   1.839 -0.5474  0.0470  1.0356
  801MOL0     H10536   3.479   1.375   1.757 -0.0267  2.4957 -0.1511
  801MOL0     H10537   3.492   1.425   1.915 -1.8332 -0.7959 -1.5614
  801MOL0     H10538   3.641   1.433   1.814 -0.7460 -0.7713 -3.1523
  802MOL0     O10539   2.407   3.838   4.371 -0.0757  0.0934  0.1090
  802MOL0     C10540   2.402   3.819   4.254  0.0795 -0.6074 -0.8413
  802MOL0     O10541   2.514   3.777   4.179 -0.3750 -0.5439  0.3143
  802MOL0     C10542   2.625   3.724   4.241 -0.0127 -1.3786 -0.2635
  802MOL0     C10543   2.701   3.802   4.328  0.1464  0.0331 -0.5653
  802MOL0     C10544   2.827   3.760   4.374 -0.9200 -0.3308 -0.6551
  802MOL0     C10545   2.886   3.644   4.323 -0.1999  0.8904  0.8302
  802MOL0     O10546   3.004   3.610   4.381 -0.4115  0.4600 -0.8777
  802MOL0     C10547   3.083   3.502   4.332  0.4908 -0.1420  1.1723
  802MOL0     C10548   3.174   3.538   4.210  0.3442 -0.4900  0.0106
  802MOL0     C10549   3.285   3.651   4.241 -0.0745  0.2540 -0.0698
  802MOL0     C10550   3.377   3.583   4.348 -0.6289  0.6308 -0.5843
  802MOL0     C10551   3.474   3.689   4.384 -0.4547 -0.4101 -0.3640
  802MOL0     C10552   3.573   3.634   4.484  0.1149  0.1025 -0.6698
  802MOL0     C10553   3.706   3.719   4.498 -0.4212  1.0531  0.0751
  802MOL0     C10554   3.823   3.670   4.411 -0.6728 -0.8166  0.7977
  802MOL0     N10555   3.946   3.739   4.437 -0.6095 -0.3281  0.6518
  802MOL0     C10556   3.988   3.853   4.387 -1.3767  0.3490  0.0731
  802MOL0     C10557   4.121   3.859   4.426  0.6783  0.2892 -0.4422
  802MOL0     C10558   4.223   3.957   4.379 -0.6609 -0.6963  0.6497
  802MOL0     C10559   4.291   3.914   4.249  0.2260 -0.2467  0.0119
  802MOL0     C10560   4.374   4.015   4.175 -0.4370  0.5851 -0.1795
  802MOL0     C10561   4.390   3.982   4.021  0.3748  0.8674  0.1414
  802MOL0     O10562   4.443   4.103   3.964 -0.2181 -0.9378  0.0669
  802MOL0     C10563   4.576   4.111   3.915 -0.3231 -0.2235 -0.4845
  802MOL0     C10564   4.683   4.041   3.984 -0.0075 -0.6792 -0.0914
  802MOL0     C10565   4.818   4.055   3.942  0.0326 -0.5427 -0.4685
  802MOL0     C10566   4.917   3.971   4.017 -0.1916 -0.5638 -0.1505
  802MOL0     C10567   4.850   4.137   3.833  0.0160  0.6158 -0.0618
  802MOL0     C10568   4.981   4.137   3.758 -0.3309  0.4347  0.0992
  802MOL0     O10569   4.991   4.239   3.677 -1.0626 -1.3500  0.4898
  802MOL0     C10570   5.111   4.256   3.607 -0.5952 -0.4585  0.3734
  802MOL0     C10571   5.196   4.366   3.636 -0.5385  0.4558 -0.3261
  802MOL0     C10572   5.320   4.396   3.574  0.1598 -0.2648  0.0412
  802MOL0     C10573   5.360   4.292   3.477  0.7092 -1.1197 -0.0973
  802MOL0     O10574   5.476   4.309   3.407  0.5715 -0.2531  0.5740
  802MOL0     C10575   5.596   4.333   3.495  0.2597  0.1620 -0.5797
  802MOL0     C10576   5.721   4.280   3.419 -0.5482 -0.2754  0.7549
  802MOL0     C10577   5.848   4.369   3.436 -0.2577  0.1325 -0.3608
  802MOL0     C10578   5.966   4.336   3.340  0.4142 -0.0829 -0.1817
  802MOL0     C10579   6.089   4.425   3.373  0.5593  0.0193 -0.1770
  802MOL0     C10580   6.211   4.367   3.297  0.1142 -0.0448 -0.2003
  802MOL0     C10581   6.344   4.459   3.318 -0.6280 -0.8638 -0.3018
  802MOL0     C10582   6.449   4.454   3.203  0.7449  0.2868 -0.4755
  802MOL0    Cl10583   6.623   4.437   3.267 -0.1734 -0.4770  0.1512
  802MOL0     C10584   5.275   4.193   3.431  0.8529  0.0436  0.5546
  802MOL0     C10585   5.151   4.177   3.498 -0.2485 -0.1993 -0.9171
  802MOL0     O10586   5.064   4.054   3.781  0.2651 -0.2071  0.5112
  802MOL0     C10587   4.747   4.209   3.770  0.4806 -0.1119  0.4436
  802MOL0     C10588   4.612   4.196   3.809 -0.5206  0.0861  0.3542
  802MOL0     N10589   4.156   3.747   4.490  0.2099  0.5074 -1.0095
  802MOL0     N10590   4.052   3.675   4.491  0.1460  0.6617 -1.1799
  802MOL0     C10591   2.813   3.571   4.224 -0.4684 -0.0767 -0.3347
  802MOL0     C10592   2.685   3.614   4.187  0.4199 -0.4920  0.4943
  802MOL0     C10593   2.272   3.838   4.185 -1.4570  0.4898 -0.1739
  802MOL0     C10594   2.276   3.853   4.043 -0.0040 -1.1181 -0.2700
  802MOL0     C10595   2.164   3.850   3.959  0.5140 -0.4337 -0.1064
  802MOL0     C10596   2.041   3.852   4.023  0.0549  0.5965  0.3217
  802MOL0     O10597   1.928   3.846   3.939 -0.5902 -0.4726  0.0866
  802MOL0     C10598   1.864   3.975   3.916  0.4131  0.1705 -0.7964
  802MOL0     C10599   1.718   3.960   3.948 -0.1430 -0.5262 -0.0511
  802MOL0     C10600   1.647   3.867   3.861 -0.8810 -0.2199  0.0887
  802MOL0     C10601   1.497   3.894   3.878 -0.2410  0.2002  0.7878
  802MOL0     C10602   1.421   3.803   3.790 -0.1067  0.0669 -0.5000
  802MOL0     C10603   1.347   3.737   3.723  0.5311 -0.2773  0.2613
  802MOL0     C10604   2.031   3.842   4.159  0.2384 -0.9207  0.1500
  802MOL0     C10605   2.140   3.836   4.243  0.2401 -0.1128  0.5615
  802MOL0     C10606   2.115   3.823   4.392  0.6198  0.4845  0.6725
  802MOL0     H10607   2.659   3.898   4.357 -1.1914 -1.2121  1.9470
  802MOL0     H10608   2.895   3.825   4.428  2.5191 -1.2755 -3.4637
  802MOL0     H10609   3.016   3.421   4.302 -2.7884  2.8882 -0.4226
  802MOL0     H10610   3.141   3.455   4.412  1.2573 -1.9253 -0.3460
  802MOL0     H10611   3.225   3.452   4.166 -2.5972 -1.1841 -2.3610
  802MOL0     H10612   3.112   3.577   4.129 -0.9162 -0.5463  0.9225
  802MOL0     H10613   3.348   3.652   4.151  0.7839 -3.0744  0.3539
  802MOL0     H10614   3.249   3.749   4.273 -3.4683  0.1626 -2.9672
  802MOL0     H10615   3.323   3.554   4.439 -1.7974  0.2432 -1.3754
  802MOL0     H10616   3.428   3.493   4.312 -0.5390 -0.1486  1.3754
  802MOL0     H10617   3.438   3.783   4.426 -2.0137 -0.0816 -2.2460
  802MOL0     H10618   3.540   3.725   4.305  1.2054 -0.1489  1.0900
  802MOL0     H10619   3.536   3.621   4.586  0.4208 -0.3523 -0.6141
  802MOL0     H10620   3.591   3.536   4.439 -0.8264  0.1419 -1.1537
  802MOL0     H10621   3.735   3.709   4.603  1.3092  1.5497 -0.3287
  802MOL0     H10622   3.679   3.821   4.472  3.0769  1.7627 -1.3015
  802MOL0     H10623   3.841   3.565   4.435 -1.1243 -0.7355  1.5399
  802MOL0     H10624   3.800   3.677   4.304 -1.3923  0.0532  0.9935
  802MOL0     H10625   3.956   3.934   4.322  0.2143  2.5146  1.8194
  802MOL0     H10626   4.309   3.963   4.446  0.3488 -0.2701 -0.6180
  802MOL0     H10627   4.178   4.056   4.365  1.3987  0.4382  1.5523
  802MOL0     H10628   4.357   3.827   4.256 -0.2783 -0.9005 -2.3282
  802MOL0     H10629   4.215   3.873   4.182  0.1932 -0.8136  0.3855
  802MOL0     H10630   4.325   4.112   4.188  2.4040  1.9891  1.0556
  802MOL0     H10631   4.477   4.015   4.211 -1.4024  0.2161  2.8572
  802MOL0     H10632   4.447   3.889   4.020 -1.4853 -0.4404  2.6748
  802MOL0     H10633   4.295   3.958   3.971  0.5007 -0.8974  0.6668
  802MOL0     H10634   4.670   3.983   4.074  1.4711 -1.3250 -0.2546
  802MOL0     H10635   4.880   3.937   4.114  0.4210 -1.9550 -0.3822
  802MOL0     H10636   5.009   4.029   4.033 -1.0712  0.8078  0.1394
  802MOL0     H10637   4.939   3.888   3.950  1.0976  0.1597 -0.6782
  802MOL0     H10638   5.165   4.428   3.720  0.5197  0.6227 -0.0430
  802MOL0     H10639   5.386   4.478   3.598  1.4303 -0.7889 -1.4906
  802MOL0     H10640   5.602   4.440   3.517  3.8320 -0.4746  2.6618
  802MOL0     H10641   5.578   4.273   3.585 -1.5676  0.0560 -0.9732
  802MOL0     H10642   5.750   4.176   3.438  0.6642 -0.4632 -1.7353
  802MOL0     H10643   5.701   4.280   3.311 -1.3125  0.2337  0.8933
  802MOL0     H10644   5.879   4.357   3.540 -0.6132  1.2093 -0.1164
  802MOL0     H10645   5.826   4.474   3.414  1.7132  0.6166 -0.2200
  802MOL0     H10646   5.936   4.358   3.237 -0.3016  0.4062  0.1213
  802MOL0     H10647   5.992   4.230   3.353  0.3906 -0.1879 -0.9191
  802MOL0     H10648   6.070   4.528   3.339 -1.6975 -1.2767 -3.4262
  802MOL0     H10649   6.107   4.427   3.480  1.1857 -0.7147 -0.2689
  802MOL0     H10650   6.193   4.358   3.190 -0.5121 -1.4114  0.0124
  802MOL0     H10651   6.232   4.264   3.328 -0.6619 -0.0378  0.3760
  802MOL0     H10652   6.387   4.426   3.413  0.0094 -0.4423 -0.4396
  802MOL0     H10653   6.305   4.561   3.322 -3.5438 -1.8463 -1.3971
  802MOL0     H10654   6.448   4.549   3.149  0.2811  1.3655  1.3287
  802MOL0     H10655   6.426   4.371   3.137 -0.7058 -0.4401  0.8590
  802MOL0     H10656   5.293   4.130   3.345 -1.7047  0.9010 -0.7298
  802MOL0     H10657   5.078   4.101   3.472 -2.6214  1.0465  1.5481
  802MOL0     H10658   4.751   4.266   3.678  0.2816 -2.7218 -1.2684
  802MOL0     H10659   4.541   4.257   3.755 -1.4912 -2.0746 -0.9306
  802MOL0     H10660   2.848   3.482   4.174 -2.6102  0.2999 -2.6632
  802MOL0     H10661   2.644   3.563   4.101  1.5802  1.2314 -1.1522
  802MOL0     H10662   2.373   3.866   3.996 -0.8572  1.5626 -1.5141
  802MOL0     H10663   2.173   3.846   3.851  0.4843 -3.0462 -0.0784
  802MOL0     H10664   1.913   4.046   3.983 -1.4716 -0.6402  1.5789
  802MOL0     H10665   1.882   4.001   3.811  0.6295 -1.3571 -1.1617
  802MOL0     H10666   1.666   4.057   3.941 -1.6483 -1.4020 -2.4063
  802MOL0     H10667   1.706   3.933   4.053 -2.2607  2.1698  0.5359
  802MOL0     H10668   1.683   3.873   3.757 -0.0651 -1.0039  0.3031
  802MOL0     H10669   1.673   3.762   3.882  1.4230 -0.0315 -1.4379
  802MOL0     H10670   1.475   3.999   3.857 -1.4168  0.0257  1.0981
  802MOL0     H10671   1.474   3.876   3.983  1.5485  1.2795  1.4121
  802MOL0     H10672   1.276   3.684   3.663 -0.6337  2.2728 -0.7835
  802MOL0     H10673   1.933   3.825   4.202 -0.5342 -2.5121 -2.0347
  802MOL0     H10674   2.021   3.869   4.424  1.7533  1.6152  2.4994
  802MOL0     H10675   2.119   3.717   4.419  2.6336  0.6078  1.0309
  802MOL0     H10676   2.185   3.878   4.455 -1.1410  2.0374  1.3374
  803MOL0     O10677  10.287   6.864   8.794 -0.1238 -0.1852  0.1556
  803MOL0     C10678  10.260   6.986   8.786 -1.1670  0.3081 -0.7582
  803MOL0     O10679  10.363   7.078   8.750  0.6859 -0.2418 -0.9246
  803MOL0     C10680  10.493   7.052   8.713 -0.0768  0.4522  0.2497
  803MOL0     C10681  10.560   6.939   8.747  0.0451 -0.5973  0.1645
  803MOL0     C10682  10.691   6.924   8.707  1.5577 -0.3422  0.6746
  803MOL0     C10683  10.762   7.020   8.640  0.2667 -0.3228  0.1254
  803MOL0     O10684  10.897   7.001   8.635 -0.4220 -0.2707  0.2912
  803MOL0     C10685  10.956   7.017   8.502 -0.2450 -0.6258 -0.5568
  803MOL0     C10686  11.107   7.017   8.516 -0.3307 -0.3926 -0.6108
  803MOL0     C10687  11.165   7.137   8.596  0.2844 -1.0038 -0.4097
  803MOL0     C10688  11.314   7.106   8.628  0.2472 -0.2386 -0.4488
  803MOL0     C10689  11.402   7.140   8.512  0.1350 -0.5466 -0.5175
  803MOL0     C10690  11.540   7.129   8.573  0.1934 -0.3419  0.2486
  803MOL0     C10691  11.647   7.125   8.460 -0.3226 -0.3880  0.5408
  803MOL0     C10692  11.778   7.123   8.539  0.7171 -0.4093  0.4596
  803MOL0     N10693  11.891   7.107   8.452  0.7615  0.4083 -0.2421
  803MOL0     C10694  11.944   7.191   8.356  0.7758 -0.8410 -0.3820
  803MOL0     C10695  12.031   7.120   8.286 -0.2711 -0.1134 -0.0638
  803MOL0     C10696  12.110   7.177   8.179 -0.2146 -0.2866 -0.0328
  803MOL0     C10697  12.257   7.114   8.177 -0.3293 -0.9158  0.2293
  803MOL0     C10698  12.337   7.148   8.305  0.3330  0.0306  0.3310
  803MOL0     C10699  12.488   7.141   8.281  0.1718  0.2359  0.7369
  803MOL0     O10700  12.557   7.155   8.404 -0.2096  0.1469  0.2876
  803MOL0     C10701  12.697   7.141   8.407 -0.2438 -0.4346 -0.3100
  803MOL0     C10702  12.776   7.101   8.299  0.3407 -0.3490 -0.6736
  803MOL0     C10703  12.913   7.100   8.308 -0.0105 -0.1181 -0.2163
  803MOL0     C10704  12.986   7.066   8.177 -0.1909 -0.3313  0.3187
  803MOL0     C10705  12.984   7.128   8.430 -0.2476  0.4222 -0.8408
  803MOL0     C10706  13.134   7.116   8.440 -0.1908 -0.0784  0.0760
  803MOL0     O10707  13.200   7.222   8.502  0.2503  1.0232 -0.1416
  803MOL0     C10708  13.335   7.211   8.527  0.3463 -0.3802 -0.3763
  803MOL0     C10709  13.389   7.214   8.661  0.8797  1.0469  0.3962
  803MOL0     C10710  13.534   7.196   8.680  0.3629 -1.0011 -0.4415
  803MOL0     C10711  13.622   7.185   8.576 -0.1127  0.7480 -0.0621
  803MOL0     O10712  13.755   7.205   8.578  0.3363  0.5258  0.2161
  803MOL0     C10713  13.830   7.180   8.697  0.4672  0.0268 -0.2766
  803MOL0     C10714  13.986   7.189   8.674  0.7084 -0.0085 -0.1300
  803MOL0     C10715  14.042   7.336   8.669  0.9563  0.8004 -0.1723
  803MOL0     C10716  14.189   7.325   8.668  0.1042 -0.5541  0.7502
  803MOL0     C10717  14.252   7.285   8.532 -0.5034  0.3968  0.6306
  803MOL0     C10718  14.271   7.392   8.422  0.7023  0.8105  0.1432
  803MOL0     C10719  14.378   7.344   8.322  0.0633  0.5211  0.1865
  803MOL0     C10720  14.420   7.449   8.229 -0.4496  0.8328  0.0922
  803MOL0    Cl10721  14.277   7.512   8.136 -0.1387 -0.0883 -0.4073
  803MOL0     C10722  13.563   7.184   8.452 -0.2945  0.2315  0.2414
  803MOL0     C10723  13.428   7.197   8.423  0.4347 -0.3073  0.1235
  803MOL0     O10724  13.188   7.014   8.394 -0.1791  0.6458 -0.0364
  803MOL0     C10725  12.902   7.163   8.540  0.9920  0.4079  0.9309
  803MOL0     C10726  12.760   7.181   8.526 -1.2875  0.2783  0.0331
  803MOL0     N10727  12.051   6.992   8.350  0.4363 -0.3241 -0.5783
  803MOL0     N10728  11.964   6.989   8.449  0.3232  0.4668 -0.4132
  803MOL0     C10729  10.695   7.133   8.600 -0.2861 -0.3691 -0.2010
  803MOL0     C10730  10.562   7.153   8.632 -0.4163 -0.2804 -0.1800
  803MOL0     C10731  10.127   7.029   8.791 -0.0334 -0.6905  0.2944
  803MOL0     C10732  10.101   7.169   8.796 -0.5840  0.9531 -0.8232
  803MOL0     C10733   9.968   7.218   8.818 -0.7599 -0.3149  1.6545
  803MOL0     C10734   9.865   7.131   8.811  0.3693  0.6384 -0.0069
  803MOL0     O10735   9.743   7.178   8.823  0.1236 -0.4474 -0.2360
  803MOL0     C10736   9.620   7.108   8.851 -0.5628  0.0334  0.5053
  803MOL0     C10737   9.502   7.203   8.840 -0.4791  0.0533  0.5954
  803MOL0     C10738   9.504   7.310   8.949  0.3468 -1.2901  0.4598
  803MOL0     C10739   9.411   7.426   8.909 -1.0257  0.3087  0.0537
  803MOL0     C10740   9.270   7.393   8.941 -0.5692  0.8201  0.1917
  803MOL0     C10741   9.163   7.355   8.982  0.0310  0.7216 -0.0757
  803MOL0     C10742   9.883   6.993   8.793 -0.0334  0.4568  0.2936
  803MOL0     C10743  10.015   6.942   8.793  0.1456 -0.1119 -0.2685
  803MOL0     C10744  10.017   6.796   8.784 -1.2382 -0.3126 -0.8042
  803MOL0     H10745  10.520   6.862   8.812  0.5648  0.4602  1.7851
  803MOL0     H10746  10.750   6.837   8.732 -0.3295 -1.8797  0.0785
  803MOL0     H10747  10.923   7.113   8.460  0.5393  0.3322  0.9281
  803MOL0     H10748  10.936   6.930   8.440 -1.3457  0.1459 -1.3242
  803MOL0     H10749  11.143   6.928   8.568  1.1740  0.5817  0.1059
  803MOL0     H10750  11.134   7.008   8.410 -2.4242  0.2162 -1.2383
  803MOL0     H10751  11.141   7.227   8.539 -1.4018 -0.7334  0.6639
  803MOL0     H10752  11.118   7.146   8.694  1.1530 -2.6506  0.2018
  803MOL0     H10753  11.338   7.155   8.723  1.4278  0.2009 -0.9598
  803MOL0     H10754  11.319   6.998   8.649 -0.1601 -0.4409 -1.3498
  803MOL0     H10755  11.379   7.240   8.474 -0.3606 -0.4785 -0.0502
  803MOL0     H10756  11.374   7.075   8.428 -2.2032  0.7804 -0.8447
  803MOL0     H10757  11.561   7.214   8.638  0.6914 -0.3229  0.0676
  803MOL0     H10758  11.546   7.037   8.633  1.8741 -1.8270 -2.0124
  803MOL0     H10759  11.650   7.221   8.406  0.3816 -1.5045 -1.5177
  803MOL0     H10760  11.629   7.039   8.395 -2.1028 -0.0573  0.5444
  803MOL0     H10761  11.793   7.224   8.579 -0.3896 -0.1891  0.3687
  803MOL0     H10762  11.785   7.046   8.615 -0.7962 -1.1797 -0.1340
  803MOL0     H10763  11.911   7.291   8.330  4.0877  1.2723  2.6183
  803MOL0     H10764  12.107   7.286   8.181 -0.4463 -0.3045  0.6896
  803MOL0     H10765  12.058   7.153   8.085 -1.1692 -0.0706  0.4231
  803MOL0     H10766  12.257   7.008   8.149 -3.3784 -0.8459 -0.3230
  803MOL0     H10767  12.314   7.169   8.101  0.3761 -1.2621  0.4929
  803MOL0     H10768  12.313   7.251   8.334  1.5394 -0.2760  2.7026
  803MOL0     H10769  12.311   7.079   8.386 -1.2785  2.2373  1.8268
  803MOL0     H10770  12.511   7.038   8.251 -0.6962  0.6974 -1.7002
  803MOL0     H10771  12.517   7.202   8.195 -0.6042 -1.7309 -1.0175
  803MOL0     H10772  12.725   7.076   8.207 -4.1287  2.3512  0.7786
  803MOL0     H10773  12.919   7.046   8.094 -0.8553 -0.4858  0.8818
  803MOL0     H10774  13.052   6.980   8.195 -3.8732 -3.1546  1.7715
  803MOL0     H10775  13.036   7.156   8.141  0.0875 -0.4372  0.4356
  803MOL0     H10776  13.319   7.236   8.741 -1.8703 -0.0724 -1.5213
  803MOL0     H10777  13.579   7.204   8.778 -1.3595 -1.7120  0.4603
  803MOL0     H10778  13.803   7.247   8.779  2.1687 -0.1703  0.5062
  803MOL0     H10779  13.801   7.082   8.736  0.0488 -0.8212 -2.5733
  803MOL0     H10780  14.028   7.136   8.761 -0.2283 -1.6600 -0.6498
  803MOL0     H10781  14.022   7.127   8.591 -0.2377 -0.9590  0.1474
  803MOL0     H10782  14.017   7.392   8.759  0.6407  2.5811 -1.3178
  803MOL0     H10783  14.000   7.383   8.579  1.4333 -1.3716 -1.6137
  803MOL0     H10784  14.229   7.249   8.735 -0.6736  0.4864  2.4509
  803MOL0     H10785  14.225   7.425   8.692 -0.3498  0.7996 -3.3804
  803MOL0     H10786  14.351   7.259   8.570 -0.7110  1.4880  2.0134
  803MOL0     H10787  14.202   7.198   8.490 -1.6640  0.4370  1.8780
  803MOL0     H10788  14.288   7.489   8.469  0.2634  1.4115 -0.8885
  803MOL0     H10789  14.178   7.395   8.365  0.2717 -0.3539  0.7453
  803MOL0     H10790  14.337   7.264   8.260 -0.3175  0.4568  0.5163
  803MOL0     H10791  14.464   7.306   8.377  1.4704  0.4894 -1.9189
  803MOL0     H10792  14.487   7.397   8.161 -0.5988  0.1939  0.4287
  803MOL0     H10793  14.471   7.528   8.286  1.6287  0.3058 -0.9081
  803MOL0     H10794  13.628   7.165   8.367 -3.4226 -2.2194 -1.8299
  803MOL0     H10795  13.399   7.219   8.321  1.5749 -0.0214 -0.1480
  803MOL0     H10796  12.933   7.179   8.643  0.4429  1.6618  0.9160
  803MOL0     H10797  12.718   7.211   8.621  1.0196 -0.2860  1.3314
  803MOL0     H10798  10.750   7.215   8.556 -0.2837 -0.5895 -0.6100
  803MOL0     H10799  10.504   7.232   8.586  0.2429  1.5374  1.9518
  803MOL0     H10800  10.180   7.244   8.798 -1.3401  1.7765  0.9820
  803MOL0     H10801   9.960   7.324   8.837  3.4444  1.9421 -5.3561
  803MOL0     H10802   9.615   7.022   8.784  0.2402  1.7870 -1.9549
  803MOL0     H10803   9.624   7.065   8.951  0.6525  2.4107  1.5811
  803MOL0     H10804   9.411   7.144   8.857  0.6018 -1.7406  0.4277
  803MOL0     H10805   9.506   7.247   8.740  2.0738  1.6694  1.3183
  803MOL0     H10806   9.470   7.259   9.039 -3.3973 -0.2872 -0.2264
  803MOL0     H10807   9.605   7.350   8.966  0.1528 -1.4946  2.2737
  803MOL0     H10808   9.431   7.457   8.806  0.8834 -2.3774 -0.4970
  803MOL0     H10809   9.437   7.518   8.961 -1.1479  0.8261 -0.7802
  803MOL0     H10810   9.079   7.312   9.033  0.2989 -0.1939 -0.3845
  803MOL0     H10811   9.804   6.919   8.782  1.7209 -1.4018 -0.3323
  803MOL0     H10812  10.087   6.746   8.852  1.4682  1.6748 -1.9465
  803MOL0     H10813   9.921   6.745   8.789  0.5240 -3.8017  1.3296
  803MOL0     H10814  10.049   6.772   8.683 -0.6171 -0.8955 -0.4766
  804MOL0     O10815  10.348  10.846   2.173 -0.1097  0.4613  0.5025
  804MOL0     C10816  10.407  10.949   2.141 -0.4172  0.3406  1.2731
  804MOL0     O10817  10.527  10.941   2.078 -0.7932 -0.2569  0.1455
  804MOL0     C10818  10.592  10.821   2.085 -1.1062  0.0455 -0.7405
  804MOL0     C10819  10.721  10.827   2.143  0.1202 -0.5334 -0.3943
  804MOL0     C10820  10.802  10.708   2.157 -0.6226 -0.6491  0.9940
  804MOL0     C10821  10.764  10.591   2.099  0.9024  0.5245  0.6496
  804MOL0     O10822  10.842  10.483   2.111 -0.2072 -0.1317 -0.2827
  804MOL0     C10823  10.955  10.471   2.027  0.4119 -0.1293 -0.1724
  804MOL0     C10824  11.036  10.339   2.049  0.1422  0.1362  0.1645
  804MOL0     C10825  11.168  10.327   1.973  0.4890 -0.3359  0.7045
  804MOL0     C10826  11.227  10.192   1.987 -0.8545 -0.3944  0.0006
  804MOL0     C10827  11.351  10.169   1.897  0.4695 -0.0977 -0.3972
  804MOL0     C10828  11.426  10.045   1.941 -0.7566 -0.7993 -0.3946
  804MOL0     C10829  11.541  10.024   1.838  0.4473  0.2713 -0.8311
  804MOL0     C10830  11.642   9.925   1.900  0.8738  0.6629 -1.7132
  804MOL0     N10831  11.705   9.839   1.800  0.0343 -0.0728  0.4843
  804MOL0     C10832  11.674   9.705   1.771 -0.7491  0.2214 -0.8337
  804MOL0     C10833  11.778   9.659   1.695 -0.6564 -0.5162  0.2122
  804MOL0     C10834  11.785   9.519   1.630 -0.2797 -0.3336 -0.3472
  804MOL0     C10835  11.930   9.470   1.640 -0.1338 -0.2576  0.2763
  804MOL0     C10836  12.015   9.515   1.513 -0.2270 -0.3003 -0.7623
  804MOL0     C10837  12.166   9.498   1.532 -0.4816 -0.8740 -0.4483
  804MOL0     O10838  12.222   9.376   1.498  0.2897 -0.1858  0.4567
  804MOL0     C10839  12.356   9.361   1.494 -0.2362  0.2692  0.0413
  804MOL0     C10840  12.410   9.238   1.458 -0.3436  0.4138  0.4256
  804MOL0     C10841  12.547   9.213   1.432  0.8561 -0.1930  1.0480
  804MOL0     C10842  12.593   9.080   1.397  0.1328  0.8182 -0.1961
  804MOL0     C10843  12.642   9.324   1.455  0.0560  0.1955  0.0057
  804MOL0     C10844  12.781   9.318   1.421  0.2428 -0.0195 -0.0302
  804MOL0     O10845  12.843   9.443   1.403  0.4822 -0.1624 -0.5115
  804MOL0     C10846  12.976   9.440   1.409  0.1356  0.8173 -0.4708
  804MOL0     C10847  13.042   9.487   1.520 -0.8433  0.7672  0.3185
  804MOL0     C10848  13.179   9.490   1.536 -0.3735  0.4241  0.6653
  804MOL0     C10849  13.264   9.439   1.430  0.7506 -0.1286 -0.7116
  804MOL0     O10850  13.399   9.438   1.442 -0.0126  0.2809  0.3315
  804MOL0     C10851  13.468   9.543   1.518  0.2467 -0.3543 -0.3939
  804MOL0     C10852  13.621   9.533   1.503 -0.3316 -0.5414  0.5188
  804MOL0     C10853  13.674   9.646   1.587 -0.2809 -0.3909  0.5085
  804MOL0     C10854  13.818   9.679   1.551  0.3249  0.5030 -0.3232
  804MOL0     C10855  13.917   9.564   1.581 -0.4206  0.2017 -0.0154
  804MOL0     C10856  14.056   9.610   1.556 -0.3151 -0.7434 -0.0836
  804MOL0     C10857  14.139   9.494   1.580  0.0847  0.2680 -0.5612
  804MOL0     C10858  14.292   9.515   1.559 -0.2984 -0.3186 -0.4736
  804MOL0    Cl10859  14.383   9.368   1.566 -0.1028  0.2338 -0.3071
  804MOL0     C10860  13.197   9.386   1.316  0.2575  0.2489  0.3862
  804MOL0     C10861  13.059   9.389   1.305  0.6722 -0.0265 -0.0269
  804MOL0     O10862  12.843   9.208   1.414  0.6912 -0.1255 -0.3482
  804MOL0     C10863  12.579   9.445   1.493 -0.4338  0.5515 -0.6070
  804MOL0     C10864  12.448   9.457   1.525 -0.7950  0.8592 -0.4173
  804MOL0     N10865  11.869   9.770   1.673 -0.8606 -0.0591 -0.1046
  804MOL0     N10866  11.821   9.875   1.736 -0.2410 -0.0069  0.4673
  804MOL0     C10867  10.634  10.588   2.041  0.0648  0.5905  0.0732
  804MOL0     C10868  10.549  10.696   2.040 -0.1435 -0.2681  0.2754
  804MOL0     C10869  10.354  11.085   2.170  0.5120  0.0365 -0.1911
  804MOL0     C10870  10.398  11.198   2.090 -0.8130  0.4109  0.0282
  804MOL0     C10871  10.333  11.318   2.102 -0.2064 -0.2777 -0.2487
  804MOL0     C10872  10.238  11.340   2.191  0.3793 -0.4518  0.2033
  804MOL0     O10873  10.187  11.465   2.186  0.4459  0.0659 -0.5079
  804MOL0     C10874  10.090  11.499   2.296  0.0481  0.3775 -0.4586
  804MOL0     C10875  10.059  11.655   2.294  0.4656  0.0915  0.2199
  804MOL0     C10876  10.010  11.714   2.167  0.8994  0.0863  0.7912
  804MOL0     C10877   9.869  11.666   2.128 -0.0007  0.8648 -0.5892
  804MOL0     C10878   9.765  11.746   2.199 -0.0508  0.0866 -0.9228
  804MOL0     C10879   9.679  11.801   2.269 -0.4970  0.0835 -0.3127
  804MOL0     C10880  10.208  11.231   2.283  0.9449  0.4901 -0.4316
  804MOL0     C10881  10.261  11.104   2.273 -0.8025 -0.8046  0.5979
  804MOL0     C10882  10.217  10.997   2.375  0.1182 -0.1543  0.1508
  804MOL0     H10883  10.754  10.918   2.193  0.9971 -1.3224  0.5161
  804MOL0     H10884  10.893  10.708   2.216  0.7035 -1.1634 -0.9699
  804MOL0     H10885  11.022  10.557   2.027  1.3881 -0.8820 -0.4014
  804MOL0     H10886  10.921  10.462   1.923  1.1691  2.5591 -0.7220
  804MOL0     H10887  11.061  10.338   2.156 -2.7443 -1.0867  0.9208
  804MOL0     H10888  10.971  10.257   2.017  0.1264  0.2408 -0.0728
  804MOL0     H10889  11.137  10.345   1.870  0.0403  0.1140  0.9136
  804MOL0     H10890  11.235  10.407   2.008 -1.7065  0.8466  2.5192
  804MOL0     H10891  11.252  10.183   2.093 -0.5842  2.6333  0.2834
  804MOL0     H10892  11.161  10.112   1.953 -1.6810  0.8859 -1.5790
  804MOL0     H10893  11.418  10.253   1.918 -0.4127 -0.1098  2.9996
  804MOL0     H10894  11.326  10.164   1.790  1.8057  1.3780 -0.8204
  804MOL0     H10895  11.474  10.060   2.038  0.2707 -2.4958 -0.6122
  804MOL0     H10896  11.352   9.965   1.944  0.1107 -1.7087 -1.8974
  804MOL0     H10897  11.591  10.120   1.823 -0.1798  0.5799 -0.9811
  804MOL0     H10898  11.491   9.994   1.745 -0.0788  1.1834 -0.8583
  804MOL0     H10899  11.718   9.987   1.948 -2.9027  3.1430  1.7154
  804MOL0     H10900  11.597   9.869   1.982 -1.9782  1.8071 -2.3750
  804MOL0     H10901  11.592   9.640   1.797 -0.1706 -0.4908 -0.7603
  804MOL0     H10902  11.766   9.534   1.523 -1.0967  1.3297 -0.0014
  804MOL0     H10903  11.712   9.452   1.677  0.0586  0.9060  2.1054
  804MOL0     H10904  11.974   9.491   1.738  0.5109  0.8239 -0.2270
  804MOL0     H10905  11.924   9.361   1.633  1.0341 -0.2663 -1.1204
  804MOL0     H10906  11.980   9.456   1.429 -1.0033  0.3150 -0.8767
  804MOL0     H10907  11.999   9.620   1.487  2.7833  0.1197 -1.3497
  804MOL0     H10908  12.206   9.579   1.470 -2.2000 -0.2091 -0.7380
  804MOL0     H10909  12.184   9.526   1.636 -3.3845  3.0235 -0.7853
  804MOL0     H10910  12.338   9.157   1.468 -1.1109  1.3265  3.5582
  804MOL0     H10911  12.660   9.043   1.476  0.7865  1.6843 -0.3285
  804MOL0     H10912  12.646   9.092   1.302 -1.8400  1.8209 -1.2333
  804MOL0     H10913  12.508   9.011   1.387  0.2125  0.6096  0.4804
  804MOL0     H10914  12.976   9.523   1.599 -1.1524  3.1888 -0.9171
  804MOL0     H10915  13.225   9.533   1.625 -0.7584  0.4668  0.8442
  804MOL0     H10916  13.441   9.641   1.480  2.4177  0.2471 -0.5412
  804MOL0     H10917  13.436   9.533   1.622 -0.2119 -0.4267 -0.5397
  804MOL0     H10918  13.670   9.440   1.529  2.4568  1.0244  1.2409
  804MOL0     H10919  13.652   9.546   1.399 -0.3491 -0.1438  0.5609
  804MOL0     H10920  13.665   9.606   1.689 -0.3625  0.2076  0.7409
  804MOL0     H10921  13.613   9.735   1.571 -0.4675 -0.9214 -2.2572
  804MOL0     H10922  13.850   9.761   1.616  0.6316 -0.3387  0.6121
  804MOL0     H10923  13.818   9.701   1.443  1.4980  0.5967 -0.3214
  804MOL0     H10924  13.904   9.532   1.685 -0.1750  1.6178  0.4734
  804MOL0     H10925  13.908   9.480   1.511  1.2913  0.8190 -1.0310
  804MOL0     H10926  14.081   9.688   1.629 -0.6560 -2.1130  1.5751
  804MOL0     H10927  14.082   9.656   1.461 -2.5142  3.2264  1.0154
  804MOL0     H10928  14.094   9.420   1.513 -2.8984 -1.4475  3.0097
  804MOL0     H10929  14.119   9.464   1.683  0.8558 -0.2162 -0.5389
  804MOL0     H10930  14.328   9.581   1.639  0.6899 -0.4949 -0.7659
  804MOL0     H10931  14.299   9.566   1.463  4.3876  1.8798  0.7120
  804MOL0     H10932  13.255   9.330   1.243 -0.1560 -1.5332  1.3669
  804MOL0     H10933  13.019   9.335   1.220 -2.5265  0.3892  1.0545
  804MOL0     H10934  12.642   9.534   1.500 -1.1343  0.9628  1.5350
  804MOL0     H10935  12.421   9.555   1.563 -0.6849  1.7683 -2.5576
  804MOL0     H10936  10.597  10.487   2.024 -0.9429  0.7854  1.0212
  804MOL0     H10937  10.447  10.686   2.007  0.7253 -1.8441 -2.1828
  804MOL0     H10938  10.465  11.179   2.008 -1.0739  0.1913 -0.1365
  804MOL0     H10939  10.368  11.393   2.032  1.7496 -1.4610 -0.6331
  804MOL0     H10940   9.998  11.441   2.285  0.0717  0.2857 -0.1817
  804MOL0     H10941  10.131  11.472   2.394 -0.8753 -4.7355 -1.1868
  804MOL0     H10942  10.152  11.713   2.291  1.4109 -1.4072 -0.9065
  804MOL0     H10943  10.002  11.689   2.381  0.6550  0.3080  0.2617
  804MOL0     H10944  10.005  11.822   2.154 -0.6856 -0.1732 -1.3729
  804MOL0     H10945  10.077  11.683   2.086  0.8866  1.5536  0.1933
  804MOL0     H10946   9.847  11.559   2.129  1.2701  0.5540 -2.0734
  804MOL0     H10947   9.859  11.693   2.023  1.0140 -0.5543 -1.0797
  804MOL0     H10948   9.617  11.874   2.317  1.8816  3.7974 -2.3358
  804MOL0     H10949  10.112  11.243   2.334 -0.5966 -0.2009 -3.0171
  804MOL0     H10950  10.170  11.037   2.466 -1.9759 -1.8266 -0.1167
  804MOL0     H10951  10.144  10.930   2.328  1.7173 -1.3893 -0.6469
  804MOL0     H10952  10.307  10.946   2.410 -0.5289 -1.7526 -0.4166
  805MOL0     O10953  10.188   2.356   7.241  0.6727  0.5546  0.6335
  805MOL0     C10954  10.080   2.418   7.213 -0.0683  0.8303  0.0533
  805MOL0     O10955  10.040   2.543   7.257 -0.1358  0.4013 -0.7646
  805MOL0     C10956  10.125   2.605   7.347  0.4453  0.0189  0.5183
  805MOL0     C10957  10.128   2.562   7.480  0.2181 -0.5474 -0.1785
  805MOL0     C10958  10.213   2.625   7.571 -0.1911 -0.4831 -0.7978
  805MOL0     C10959  10.283   2.741   7.547 -0.1202  0.8373 -0.6943
  805MOL0     O10960  10.355   2.794   7.650  0.0845 -0.7852 -0.7305
  805MOL0     C10961  10.439   2.904   7.624  0.0881  0.2024 -0.4632
  805MOL0     C10962  10.507   2.956   7.746  0.2294  0.1500 -0.3919
  805MOL0     C10963  10.633   3.039   7.700 -0.1648 -0.0378 -0.0794
  805MOL0     C10964  10.679   3.122   7.825 -0.0880 -0.0455  0.0684
  805MOL0     C10965  10.768   3.040   7.909  0.2478  0.1651  0.4146
  805MOL0     C10966  10.837   3.123   8.013 -0.2997 -0.7224  0.1661
  805MOL0     C10967  10.968   3.054   8.061  0.7120 -0.1256 -1.1797
  805MOL0     C10968  10.939   2.922   8.136  0.3625  0.3588  0.1662
  805MOL0     N10969  11.063   2.875   8.205  0.4064 -0.2882 -0.6300
  805MOL0     C10970  11.186   2.840   8.147 -0.5352 -0.7204  0.0951
  805MOL0     C10971  11.263   2.803   8.253  1.2858  0.5887 -0.8087
  805MOL0     C10972  11.414   2.757   8.255  0.1136  0.4473  0.5668
  805MOL0     C10973  11.500   2.874   8.300  0.6148  0.1376 -0.0238
  805MOL0     C10974  11.547   2.870   8.441 -1.1195  0.3613 -0.1328
  805MOL0     C10975  11.661   2.975   8.459 -0.4662 -0.4314 -0.1927
  805MOL0     O10976  11.698   2.966   8.601 -0.6465  0.2558 -0.4344
  805MOL0     C10977  11.791   3.053   8.649 -0.6835 -0.1842 -0.7514
  805MOL0     C10978  11.845   3.165   8.590  0.2461 -0.2147  0.4898
  805MOL0     C10979  11.956   3.237   8.648 -0.1089  0.5031 -1.1072
  805MOL0     C10980  11.985   3.367   8.596 -0.2728 -0.0488  0.2628
  805MOL0     C10981  12.012   3.192   8.774  0.1997  0.3294 -0.8610
  805MOL0     C10982  12.137   3.247   8.837  0.7957  0.6947 -0.3092
  805MOL0     O10983  12.216   3.162   8.901  0.0391  0.6565  0.2732
  805MOL0     C10984  12.341   3.186   8.960 -0.3363  0.8144 -0.2913
  805MOL0     C10985  12.388   3.304   9.018 -0.1609  0.2412 -0.8394
  805MOL0     C10986  12.506   3.301   9.093  0.4766  1.0182 -0.2744
  805MOL0     C10987  12.581   3.183   9.115  0.3165 -0.7828  0.4143
  805MOL0     O10988  12.709   3.176   9.169 -0.6705  0.4053  0.2238
  805MOL0     C10989  12.745   3.292   9.236 -0.1398 -0.6491 -0.5128
  805MOL0     C10990  12.876   3.282   9.308  0.3298  0.1212 -0.6527
  805MOL0     C10991  12.986   3.279   9.204 -0.1720  0.3595  0.1096
  805MOL0     C10992  13.126   3.294   9.274  0.3762  0.1065  0.2523
  805MOL0     C10993  13.237   3.286   9.168  0.3131  0.2463 -0.0943
  805MOL0     C10994  13.371   3.300   9.241  0.0485  0.1179  1.2934
  805MOL0     C10995  13.484   3.285   9.131  0.4245  0.2430  0.3492
  805MOL0     C10996  13.612   3.363   9.180  0.7964  0.3390 -0.4964
  805MOL0    Cl10997  13.673   3.302   9.332 -0.3230 -0.2185 -0.2092
  805MOL0     C10998  12.516   3.063   9.080 -0.3787 -0.0687 -0.1973
  805MOL0     C10999  12.400   3.067   9.007  0.1122  0.4322 -0.1197
  805MOL0     O11000  12.153   3.369   8.831  0.4406 -0.6827  0.0698
  805MOL0     C11001  11.950   3.074   8.827 -0.4567 -0.6979  0.3572
  805MOL0     C11002  11.843   3.007   8.768 -0.4109 -0.0906  0.7711
  805MOL0     N11003  11.186   2.811   8.367  0.2901 -0.2052  0.8441
  805MOL0     N11004  11.074   2.857   8.341  0.1129  0.9071 -1.1577
  805MOL0     C11005  10.278   2.788   7.417 -0.5081 -0.2785 -0.0414
  805MOL0     C11006  10.197   2.719   7.321  0.0206 -0.3639 -0.0700
  805MOL0     C11007   9.982   2.354   7.117  0.7405 -0.7412 -0.3473
  805MOL0     C11008   9.870   2.427   7.084  0.3238 -0.2206 -0.0923
  805MOL0     C11009   9.776   2.380   6.993 -0.4339 -0.6114  0.0129
  805MOL0     C11010   9.780   2.253   6.938 -0.3497 -1.1948 -0.1984
  805MOL0     O11011   9.691   2.228   6.841 -0.2574 -0.0181 -0.2906
  805MOL0     C11012   9.639   2.090   6.850  0.2545  0.2719  1.1256
  805MOL0     C11013   9.490   2.092   6.806  0.2012  0.4049  0.0299
  805MOL0     C11014   9.414   2.166   6.913  0.3669  1.2307 -0.6618
  805MOL0     C11015   9.390   2.088   7.042  0.1817 -0.1714 -0.4066
  805MOL0     C11016   9.327   2.178   7.139 -0.0920  0.3666  0.3649
  805MOL0     C11017   9.266   2.248   7.217  0.9906  0.0178  0.5455
  805MOL0     C11018   9.892   2.179   6.957  0.3028 -0.6595 -0.1235
  805MOL0     C11019   9.992   2.229   7.046 -0.1843  0.0882 -0.1604
  805MOL0     C11020  10.112   2.144   7.062  0.1666 -0.4498 -0.3119
  805MOL0     H11021  10.066   2.478   7.510 -0.9594  0.5246  0.4451
  805MOL0     H11022  10.218   2.596   7.675 -0.7904  0.9530 -0.3500
  805MOL0     H11023  10.386   2.989   7.580  1.4932  0.9065 -0.8776
  805MOL0     H11024  10.518   2.865   7.559  0.6012 -1.3973  1.0467
  805MOL0     H11025  10.444   3.023   7.806 -2.2004 -1.2218 -1.2803
  805MOL0     H11026  10.538   2.875   7.813  1.2757  0.0849 -0.9292
  805MOL0     H11027  10.704   2.964   7.664 -0.0430  0.9709 -2.0383
  805MOL0     H11028  10.614   3.113   7.622 -1.7629 -0.3929 -0.0499
  805MOL0     H11029  10.730   3.213   7.791  0.1590 -1.6582 -4.5822
  805MOL0     H11030  10.596   3.146   7.891  1.4205 -0.4679  2.2140
  805MOL0     H11031  10.848   2.992   7.852 -1.5197 -1.2695 -0.9737
  805MOL0     H11032  10.710   2.962   7.957 -1.7627  1.1380 -0.3190
  805MOL0     H11033  10.863   3.224   7.980 -2.1096 -1.0455 -2.6812
  805MOL0     H11034  10.756   3.127   8.086 -0.2420  0.3817  0.1828
  805MOL0     H11035  11.025   3.119   8.128 -1.9949 -1.4315  2.6929
  805MOL0     H11036  11.036   3.036   7.977  1.8457  0.9016 -0.5054
  805MOL0     H11037  10.862   2.940   8.213  0.0207  0.9686 -0.3114
  805MOL0     H11038  10.905   2.844   8.067  3.6154 -2.2348  1.2145
  805MOL0     H11039  11.212   2.827   8.043  2.9624  1.0203  0.5986
  805MOL0     H11040  11.447   2.730   8.154  0.2336  0.0416  0.7115
  805MOL0     H11041  11.423   2.663   8.311  0.7141 -0.5871 -1.1577
  805MOL0     H11042  11.580   2.888   8.228 -1.2423  0.0365 -2.2112
  805MOL0     H11043  11.436   2.963   8.300 -1.8695 -1.5191  0.8618
  805MOL0     H11044  11.465   2.874   8.513 -1.9516  0.4179 -1.0563
  805MOL0     H11045  11.602   2.776   8.453 -2.0815 -0.2139 -0.1844
  805MOL0     H11046  11.742   2.967   8.386  0.7413  1.0104  0.9439
  805MOL0     H11047  11.621   3.077   8.450  1.8615  0.8613  2.6290
  805MOL0     H11048  11.804   3.198   8.494  1.9942  3.0870  0.7458
  805MOL0     H11049  12.087   3.396   8.569 -1.2828  1.9556 -1.6554
  805MOL0     H11050  11.949   3.444   8.663 -1.0309  1.1584 -1.4663
  805MOL0     H11051  11.922   3.378   8.507 -0.1288 -1.1217  0.0090
  805MOL0     H11052  12.327   3.393   9.003  0.4011  0.5152 -1.5659
  805MOL0     H11053  12.534   3.400   9.128  0.7955  0.6115  0.6675
  805MOL0     H11054  12.746   3.382   9.174 -1.0054  1.1654  1.9279
  805MOL0     H11055  12.667   3.297   9.313  0.5422  0.3781  0.1273
  805MOL0     H11056  12.891   3.364   9.378 -2.1783  1.0114 -1.0717
  805MOL0     H11057  12.873   3.191   9.369  0.5639 -1.7411 -3.2385
  805MOL0     H11058  12.973   3.360   9.132 -1.4722 -0.5875 -0.7810
  805MOL0     H11059  12.987   3.182   9.153  2.1618  1.6403 -2.5394
  805MOL0     H11060  13.138   3.216   9.349 -2.2814  0.2872  0.9396
  805MOL0     H11061  13.134   3.389   9.327  0.9237 -0.3394  0.9890
  805MOL0     H11062  13.224   3.189   9.120  0.5661 -1.0893  2.3737
  805MOL0     H11063  13.219   3.355   9.085 -4.0955 -1.2049 -0.5764
  805MOL0     H11064  13.393   3.228   9.320  2.2568 -0.0813  0.5539
  805MOL0     H11065  13.371   3.401   9.284 -1.6712  1.2375 -1.1139
  805MOL0     H11066  13.455   3.339   9.041 -2.4903 -1.6582  0.0256
  805MOL0     H11067  13.514   3.180   9.118  1.0161  0.4994 -0.3751
  805MOL0     H11068  13.587   3.469   9.194 -2.5832 -0.5212  1.1998
  805MOL0     H11069  13.689   3.362   9.103 -1.1795  2.0443 -2.6748
  805MOL0     H11070  12.566   2.974   9.118 -0.5954  0.6008  1.7453
  805MOL0     H11071  12.361   2.976   8.962 -1.7702  0.9126  0.4779
  805MOL0     H11072  11.997   3.029   8.914 -0.5001 -0.4100  0.5316
  805MOL0     H11073  11.816   2.910   8.810 -2.2531 -0.5897 -1.3637
  805MOL0     H11074  10.336   2.875   7.388  0.6983 -1.6776 -2.0685
  805MOL0     H11075  10.187   2.764   7.222  0.0075  0.8715  0.4801
  805MOL0     H11076   9.836   2.518   7.131  0.5518 -0.7363  1.0924
  805MOL0     H11077   9.686   2.436   6.968 -0.3652 -0.2161  0.6105
  805MOL0     H11078   9.698   2.024   6.787  0.9390 -1.4775  3.4415
  805MOL0     H11079   9.661   2.054   6.952  0.9031  0.3858  1.0271
  805MOL0     H11080   9.450   1.991   6.796 -1.4926  0.7098  2.5681
  805MOL0     H11081   9.482   2.144   6.710 -0.8451 -0.2451 -0.2581
  805MOL0     H11082   9.449   2.269   6.929  0.4375  0.7946  2.5204
  805MOL0     H11083   9.315   2.189   6.875  0.5802  2.7484 -0.3535
  805MOL0     H11084   9.486   2.044   7.069 -1.3574 -1.6477  3.3673
  805MOL0     H11085   9.311   2.016   7.016 -1.5240  2.1528 -2.1878
  805MOL0     H11086   9.194   2.296   7.280  0.2616  0.9556 -0.9461
  805MOL0     H11087   9.894   2.080   6.911 -1.2082 -0.4168 -0.7712
  805MOL0     H11088  10.121   2.116   7.168  1.0985 -0.3732 -0.3652
  805MOL0     H11089  10.111   2.052   7.003 -1.2095 -0.8061  0.2244
  805MOL0     H11090  10.194   2.205   7.024 -0.4047 -0.3249 -1.3847
  806MOL0     O11091   7.162   9.101   6.119  0.2434  0.3204 -0.4164
  806MOL0     C11092   7.078   9.024   6.162 -0.2726 -0.4434 -0.8235
  806MOL0     O11093   7.100   8.922   6.248  0.7034  0.3253  0.2220
  806MOL0     C11094   7.228   8.908   6.304  0.4002  0.0809  0.0124
  806MOL0     C11095   7.346   8.895   6.230  0.4105 -0.3872 -1.1173
  806MOL0     C11096   7.474   8.866   6.284 -0.7284  0.5162  0.4007
  806MOL0     C11097   7.486   8.858   6.423 -0.4510  0.2439 -0.0041
  806MOL0     O11098   7.609   8.852   6.487  0.4752  0.0402 -0.1971
  806MOL0     C11099   7.733   8.915   6.423  0.6453 -0.0597  0.4213
  806MOL0     C11100   7.831   8.949   6.535 -0.3884  0.3371  0.3658
  806MOL0     C11101   7.899   8.819   6.593 -0.3532 -0.1737 -0.7607
  806MOL0     C11102   7.998   8.843   6.710 -0.4922  1.2203 -0.4420
  806MOL0     C11103   8.113   8.731   6.732  1.2469 -0.4161 -0.3357
  806MOL0     C11104   8.156   8.721   6.880 -0.9069 -1.4891  0.3554
  806MOL0     C11105   8.276   8.622   6.891  0.3419 -0.0470 -1.0877
  806MOL0     C11106   8.240   8.478   6.868  0.2057  0.1432  0.4343
  806MOL0     N11107   8.319   8.383   6.949 -0.0574 -0.2564  0.6647
  806MOL0     C11108   8.439   8.342   6.915  0.1915  0.2716 -0.0440
  806MOL0     C11109   8.468   8.253   7.014 -0.7908 -0.5367 -0.0375
  806MOL0     C11110   8.592   8.171   7.017 -0.4150 -0.0929 -0.4888
  806MOL0     C11111   8.635   8.149   7.178  0.3819 -0.0141  0.7057
  806MOL0     C11112   8.775   8.081   7.174  0.0732 -0.0702  0.1207
  806MOL0     C11113   8.849   8.084   7.311 -0.4701  0.0970 -0.2189
  806MOL0     O11114   8.963   7.992   7.289  0.0236 -0.6844 -0.2154
  806MOL0     C11115   9.024   7.947   7.401 -0.4450  0.2890  0.6148
  806MOL0     C11116   9.114   7.848   7.371 -0.3293  0.5196  0.2112
  806MOL0     C11117   9.183   7.792   7.476 -0.1500  0.2622  1.1839
  806MOL0     C11118   9.272   7.677   7.447 -0.2430 -0.0907  0.0796
  806MOL0     C11119   9.155   7.823   7.616 -0.0915 -0.4079 -0.0063
  806MOL0     C11120   9.224   7.765   7.734 -0.3061 -0.5689  0.2350
  806MOL0     O11121   9.140   7.739   7.834 -0.1720 -0.4478  0.1715
  806MOL0     C11122   9.194   7.716   7.961 -0.7558  0.4074  0.0429
  806MOL0     C11123   9.284   7.805   8.022  0.3411  0.0442  0.0680
  806MOL0     C11124   9.349   7.782   8.140 -0.3432  0.8743 -0.3218
  806MOL0     C11125   9.307   7.666   8.216  0.3112 -0.2756  0.6999
  806MOL0     O11126   9.356   7.640   8.342  0.3285  0.1405  0.2626
  806MOL0     C11127   9.405   7.740   8.432  0.2453 -0.1442 -0.6184
  806MOL0     C11128   9.406   7.705   8.584 -0.1616  0.6627  0.3017
  806MOL0     C11129   9.276   7.728   8.644 -0.0972 -1.4627 -0.4784
  806MOL0     C11130   9.279   7.745   8.798 -0.1324 -0.2137  0.1919
  806MOL0     C11131   9.153   7.788   8.867  1.1775  0.4323 -0.0045
  806MOL0     C11132   9.113   7.938   8.851  0.5435 -0.0903 -0.4990
  806MOL0     C11133   9.050   8.010   8.973  0.4275 -0.0684  0.7815
  806MOL0     C11134   9.148   8.059   9.076  0.0097  0.6806  0.3572
  806MOL0    Cl11135   9.049   8.163   9.191  0.1272 -0.2032 -0.0019
  806MOL0     C11136   9.207   7.579   8.160 -0.6121  0.3284 -0.4304
  806MOL0     C11137   9.159   7.595   8.029  0.2727 -1.0917  0.6897
  806MOL0     O11138   9.344   7.778   7.741  0.4431 -0.3857  0.9110
  806MOL0     C11139   9.049   7.920   7.643 -0.6654 -0.6972 -0.7418
  806MOL0     C11140   8.994   7.981   7.531 -0.0175 -0.4934  0.2251
  806MOL0     N11141   8.365   8.247   7.100 -0.0887 -0.4930 -0.6195
  806MOL0     N11142   8.281   8.333   7.065  1.1761 -0.8657 -0.1124
  806MOL0     C11143   7.373   8.872   6.492 -0.1336 -0.4098  0.0087
  806MOL0     C11144   7.241   8.898   6.437 -0.3255 -0.6013 -0.5704
  806MOL0     C11145   6.933   9.051   6.128 -0.6754 -0.1716 -0.1930
  806MOL0     C11146   6.836   8.964   6.196  1.0688 -0.1447 -0.9800
  806MOL0     C11147   6.700   8.997   6.193  0.9603 -0.5795 -0.7042
  806MOL0     C11148   6.649   9.090   6.108 -0.3838  0.3075  1.2658
  806MOL0     O11149   6.510   9.092   6.093 -0.4612  0.2842 -0.2193
  806MOL0     C11150   6.468   8.969   6.024 -0.3561 -0.4180  0.0170
  806MOL0     C11151   6.333   8.971   5.961  0.5312 -0.0431  0.7087
  806MOL0     C11152   6.227   8.984   6.067 -0.1942  0.7211  0.8027
  806MOL0     C11153   6.092   8.968   5.997 -0.3133 -0.1058  0.4660
  806MOL0     C11154   5.986   8.950   6.095  0.3926 -0.5299  0.6498
  806MOL0     C11155   5.895   8.929   6.178  0.0792 -0.2505 -0.7240
  806MOL0     C11156   6.740   9.174   6.037 -0.8493 -0.0115  0.1116
  806MOL0     C11157   6.878   9.166   6.051 -0.4511  0.1614 -0.1994
  806MOL0     C11158   6.967   9.264   5.980  0.1716 -0.1739  0.7025
  806MOL0     H11159   7.346   8.902   6.121 -0.7080  2.9639 -1.0235
  806MOL0     H11160   7.555   8.842   6.216  0.9512 -3.6627  3.4799
  806MOL0     H11161   7.701   9.005   6.370 -1.1995 -1.7052 -1.4411
  806MOL0     H11162   7.778   8.848   6.349  1.2888  2.2513 -1.3731
  806MOL0     H11163   7.910   9.011   6.491 -0.9552  1.3098  0.6759
  806MOL0     H11164   7.783   8.995   6.621  2.2013  0.3064  1.9389
  806MOL0     H11165   7.821   8.752   6.629 -0.2063 -0.8034 -1.5922
  806MOL0     H11166   7.948   8.764   6.512 -1.3385  0.2548 -1.6690
  806MOL0     H11167   8.036   8.946   6.699  0.5553  1.0118  0.9264
  806MOL0     H11168   7.933   8.837   6.798 -2.8000  0.0849 -2.1405
  806MOL0     H11169   8.192   8.757   6.661 -0.8252  0.8961 -2.2907
  806MOL0     H11170   8.074   8.637   6.691 -0.2917 -0.9434  2.0841
  806MOL0     H11171   8.189   8.816   6.923 -0.2905 -0.9727 -1.1601
  806MOL0     H11172   8.074   8.698   6.947 -0.2480  1.4212  2.3549
  806MOL0     H11173   8.332   8.635   6.985 -0.3959  1.4754 -0.8262
  806MOL0     H11174   8.347   8.648   6.812  1.5162 -1.8877 -0.7142
  806MOL0     H11175   8.135   8.459   6.892  0.5611 -2.7160  0.1517
  806MOL0     H11176   8.263   8.456   6.763  1.1102  0.3927  0.5695
  806MOL0     H11177   8.490   8.350   6.819  0.1842 -1.5983 -0.2435
  806MOL0     H11178   8.674   8.221   6.964 -1.6575  3.2641  0.4860
  806MOL0     H11179   8.583   8.075   6.966 -1.4243 -1.0486  1.3629
  806MOL0     H11180   8.643   8.247   7.225  2.7348  1.5423 -2.6064
  806MOL0     H11181   8.555   8.092   7.226 -2.3652 -0.0400 -3.4434
  806MOL0     H11182   8.758   7.977   7.145  0.9108 -0.0188 -0.5992
  806MOL0     H11183   8.837   8.131   7.099  1.2506 -1.7589 -0.1057
  806MOL0     H11184   8.874   8.186   7.342 -1.4066  0.4594 -0.6082
  806MOL0     H11185   8.776   8.053   7.386 -0.2841 -0.0844 -0.1119
  806MOL0     H11186   9.132   7.810   7.271  2.4091  1.3616  0.2805
  806MOL0     H11187   9.233   7.598   7.512  1.6952  0.5869  2.2207
  806MOL0     H11188   9.378   7.694   7.468 -0.3357  0.2251  0.3061
  806MOL0     H11189   9.267   7.651   7.341  2.5473 -3.3018  0.5571
  806MOL0     H11190   9.314   7.901   7.981  0.6855 -0.8790 -1.9729
  806MOL0     H11191   9.418   7.855   8.180 -0.9925  0.2086  2.2163
  806MOL0     H11192   9.511   7.745   8.403 -0.1121 -0.2298 -2.0064
  806MOL0     H11193   9.355   7.837   8.419 -0.3163 -0.2323  0.7234
  806MOL0     H11194   9.448   7.605   8.601 -2.0715  0.2807  3.5319
  806MOL0     H11195   9.476   7.777   8.627  0.8526  0.1719 -0.4792
  806MOL0     H11196   9.216   7.640   8.620  1.9490 -2.6090 -1.6494
  806MOL0     H11197   9.220   7.806   8.592  1.2654 -0.5890 -0.6767
  806MOL0     H11198   9.355   7.822   8.816 -2.9799  2.5949  1.1903
  806MOL0     H11199   9.312   7.652   8.845  1.5252  0.2295 -0.0124
  806MOL0     H11200   9.076   7.723   8.824  0.5947  0.6993  0.6290
  806MOL0     H11201   9.168   7.765   8.973  0.5412  0.5802  0.1220
  806MOL0     H11202   9.040   7.931   8.771  0.3980 -0.8749 -0.3049
  806MOL0     H11203   9.205   7.983   8.812  0.8037 -1.2225 -1.2343
  806MOL0     H11204   8.971   7.947   9.016 -0.9782  1.1407  0.0572
  806MOL0     H11205   8.995   8.100   8.946  0.7525 -0.3742 -1.0236
  806MOL0     H11206   9.226   8.124   9.034 -0.8349  0.4594 -1.6807
  806MOL0     H11207   9.192   7.975   9.131  1.3750 -1.1820 -3.2129
  806MOL0     H11208   9.177   7.498   8.225  1.2882  0.8481  1.2065
  806MOL0     H11209   9.091   7.524   7.983 -0.6652  0.4340 -0.3838
  806MOL0     H11210   9.038   7.960   7.743  1.1718 -0.8076 -0.4506
  806MOL0     H11211   8.923   8.063   7.536  1.5515  1.0555 -1.2382
  806MOL0     H11212   7.382   8.869   6.600 -0.9784  1.2167  0.1682
  806MOL0     H11213   7.166   8.907   6.514  1.1540 -3.6887  1.4496
  806MOL0     H11214   6.874   8.895   6.270 -0.3207  1.2421  1.1488
  806MOL0     H11215   6.634   8.940   6.257 -0.5010  2.0739  0.3497
  806MOL0     H11216   6.536   8.958   5.939 -1.1090  1.9633 -0.9703
  806MOL0     H11217   6.478   8.879   6.085  1.4557 -0.7727 -0.7420
  806MOL0     H11218   6.322   8.890   5.888  1.5526 -0.1972  0.7094
  806MOL0     H11219   6.322   9.060   5.898 -0.4361  0.3722  1.4430
  806MOL0     H11220   6.233   8.904   6.142 -0.5289 -0.1038 -0.0365
  806MOL0     H11221   6.234   9.080   6.120  1.2836  2.4796 -2.3217
  806MOL0     H11222   6.104   8.878   5.937 -3.5935 -0.4087  0.1037
  806MOL0     H11223   6.077   9.057   5.934  2.2764 -0.4612 -0.8046
  806MOL0     H11224   5.806   8.907   6.234  0.4666 -2.7570 -0.9741
  806MOL0     H11225   6.699   9.255   5.976 -1.9250 -0.4023  0.2941
  806MOL0     H11226   6.899   9.336   5.933  1.1957  1.3083  1.4306
  806MOL0     H11227   7.043   9.317   6.038  0.3728 -2.4999  2.7148
  806MOL0     H11228   7.030   9.206   5.911  0.6260  2.1968 -0.9939
  807MOL0     O11229   5.640   3.697   2.250  0.3250 -0.5279 -0.4100
  807MOL0     C11230   5.588   3.596   2.202 -0.3020 -0.1449 -0.8125
  807MOL0     O11231   5.647   3.527   2.094 -0.1313  0.0678  0.1862
  807MOL0     C11232   5.736   3.573   1.998 -0.4060  0.7783  0.6486
  807MOL0     C11233   5.739   3.700   1.944  0.0566 -0.0996  0.1314
  807MOL0     C11234   5.845   3.745   1.862 -0.3543 -0.7285  0.0254
  807MOL0     C11235   5.944   3.655   1.815 -0.0323 -0.6009 -1.1853
  807MOL0     O11236   6.031   3.695   1.718 -0.1600  0.2207 -0.2054
  807MOL0     C11237   6.139   3.608   1.670  0.2277 -0.0812  0.1118
  807MOL0     C11238   6.191   3.654   1.538  0.1608  0.4067 -0.1323
  807MOL0     C11239   6.298   3.770   1.544  0.0445  0.8564  0.3152
  807MOL0     C11240   6.385   3.776   1.423 -0.2147  0.2774  0.1346
  807MOL0     C11241   6.493   3.884   1.414  0.1367  0.2788 -0.6968
  807MOL0     C11242   6.593   3.885   1.530 -0.9258  0.0260 -1.1138
  807MOL0     C11243   6.733   3.923   1.484 -0.7018 -0.1877 -0.2135
  807MOL0     C11244   6.731   4.070   1.423  0.5155  0.7202 -0.1005
  807MOL0     N11245   6.870   4.107   1.385  0.5246  1.1658 -0.1991
  807MOL0     C11246   6.956   4.033   1.309  0.1590 -0.7169 -0.7788
  807MOL0     C11247   7.056   4.127   1.277 -0.6563  0.4329 -0.0615
  807MOL0     C11248   7.190   4.099   1.207  0.1509 -0.5733 -0.4482
  807MOL0     C11249   7.299   4.087   1.324  0.5796 -0.3309 -0.1194
  807MOL0     C11250   7.425   4.161   1.299  0.4578 -0.2889  1.1741
  807MOL0     C11251   7.543   4.099   1.375 -0.2118 -0.7686 -0.2475
  807MOL0     O11252   7.535   4.174   1.496 -0.4487 -0.3442  0.2716
  807MOL0     C11253   7.632   4.154   1.592  0.2346 -1.2627  0.4748
  807MOL0     C11254   7.744   4.077   1.570  0.7566  0.4209 -0.7337
  807MOL0     C11255   7.843   4.053   1.665 -0.1436  0.4406  0.2661
  807MOL0     C11256   7.964   3.973   1.623 -0.3307  0.7193  0.1253
  807MOL0     C11257   7.834   4.123   1.787  0.3822 -0.2753 -0.6215
  807MOL0     C11258   7.957   4.132   1.878 -0.1950  0.1317  0.3205
  807MOL0     O11259   7.981   4.251   1.943 -0.6429  0.1127  0.0669
  807MOL0     C11260   8.078   4.272   2.036 -0.1753  0.3268 -0.3778
  807MOL0     C11261   8.066   4.383   2.116  0.3729  0.3113 -0.5845
  807MOL0     C11262   8.150   4.400   2.227 -0.5708 -0.4708  0.1400
  807MOL0     C11263   8.264   4.320   2.245 -0.5001 -0.4488  0.7402
  807MOL0     O11264   8.336   4.346   2.353 -0.1407  0.3155 -0.4603
  807MOL0     C11265   8.412   4.468   2.340  0.0390  0.2852  0.8708
  807MOL0     C11266   8.542   4.441   2.264  0.8928 -0.1298 -0.6469
  807MOL0     C11267   8.645   4.358   2.340 -0.7708 -0.2528  0.0933
  807MOL0     C11268   8.789   4.370   2.275  0.8082  1.3728 -0.2578
  807MOL0     C11269   8.905   4.323   2.370  0.9956  0.4885 -0.3374
  807MOL0     C11270   8.874   4.189   2.451  0.3775 -0.0261 -0.1693
  807MOL0     C11271   8.987   4.147   2.543  0.2007  0.0035 -0.0934
  807MOL0     C11272   8.936   4.033   2.625  0.0583 -0.0923  0.2478
  807MOL0    Cl11273   9.072   3.981   2.717  0.1021  0.2196 -0.6519
  807MOL0     C11274   8.289   4.222   2.147  0.3784 -0.1139 -0.3849
  807MOL0     C11275   8.200   4.196   2.042 -0.2782  0.2262 -0.6095
  807MOL0     O11276   8.008   4.022   1.909 -0.3577 -0.7082 -0.0166
  807MOL0     C11277   7.724   4.208   1.809 -0.0102 -0.1620 -0.5730
  807MOL0     C11278   7.618   4.219   1.714 -1.3066 -0.5471 -0.0838
  807MOL0     N11279   7.030   4.243   1.335 -0.1539 -0.1238  0.0839
  807MOL0     N11280   6.915   4.236   1.395  0.3937  0.1720 -0.2236
  807MOL0     C11281   5.940   3.522   1.869  0.1990 -0.1745  1.2079
  807MOL0     C11282   5.835   3.481   1.951 -0.4523  0.1292  0.1537
  807MOL0     C11283   5.491   3.527   2.279  0.6458 -0.2579  0.7030
  807MOL0     C11284   5.493   3.386   2.257  0.4403 -0.0558 -0.2434
  807MOL0     C11285   5.408   3.306   2.333 -0.2506  0.0279 -0.3263
  807MOL0     C11286   5.308   3.367   2.415  0.1773 -0.4579  0.0921
  807MOL0     O11287   5.214   3.302   2.484 -0.0232 -0.3402  0.0715
  807MOL0     C11288   5.155   3.182   2.434 -0.8253  0.6272 -0.2886
  807MOL0     C11289   5.066   3.207   2.305 -0.5837  0.6792  0.0436
  807MOL0     C11290   4.948   3.314   2.332  0.7434 -0.3126  0.0429
  807MOL0     C11291   4.877   3.309   2.470 -0.1795  0.4363  0.0073
  807MOL0     C11292   4.800   3.191   2.482  0.3544 -0.1132  0.0163
  807MOL0     C11293   4.720   3.099   2.479  0.0060 -0.6018 -0.8841
  807MOL0     C11294   5.301   3.501   2.423  0.1856 -1.2723 -0.3142
  807MOL0     C11295   5.395   3.583   2.365 -0.6992 -0.2290  0.1460
  807MOL0     C11296   5.380   3.735   2.391  0.3785 -0.9121  0.1570
  807MOL0     H11297   5.654   3.763   1.969  0.5854  0.4966  0.4654
  807MOL0     H11298   5.853   3.851   1.840  1.1807 -0.1456  2.9446
  807MOL0     H11299   6.100   3.506   1.656 -1.2579  0.4831  0.0147
  807MOL0     H11300   6.220   3.598   1.744 -1.2352 -1.7963  1.5853
  807MOL0     H11301   6.244   3.566   1.500 -2.2202 -0.7861 -0.8606
  807MOL0     H11302   6.105   3.684   1.478 -1.2658 -0.0202  1.6126
  807MOL0     H11303   6.251   3.868   1.554 -2.2826  0.2406 -3.0075
  807MOL0     H11304   6.363   3.751   1.630  1.7140 -0.8822 -1.2333
  807MOL0     H11305   6.439   3.681   1.420  0.0004  0.4154 -0.5732
  807MOL0     H11306   6.323   3.789   1.334 -0.2111  1.3023  0.2712
  807MOL0     H11307   6.456   3.986   1.404 -3.3582 -0.4228  2.7571
  807MOL0     H11308   6.539   3.867   1.316 -0.8428 -1.1730 -0.9295
  807MOL0     H11309   6.558   3.955   1.607 -2.4047 -1.0979 -0.7207
  807MOL0     H11310   6.596   3.784   1.572 -2.3615  0.0558 -0.8975
  807MOL0     H11311   6.768   3.852   1.409  0.6608 -1.0860  1.1983
  807MOL0     H11312   6.805   3.905   1.565 -3.1959 -2.0904  1.7426
  807MOL0     H11313   6.676   4.068   1.329  0.7066 -0.3798 -0.2087
  807MOL0     H11314   6.684   4.141   1.491  1.7358 -0.0740  1.6795
  807MOL0     H11315   6.948   3.926   1.293 -0.2947 -1.4304  3.2640
  807MOL0     H11316   7.220   4.186   1.148  2.4382  0.6174  2.2296
  807MOL0     H11317   7.187   4.013   1.140  0.0873 -1.4764  0.6865
  807MOL0     H11318   7.254   4.130   1.413 -1.6649  0.1118 -1.3764
  807MOL0     H11319   7.320   3.984   1.353  0.1494 -1.1696 -2.5259
  807MOL0     H11320   7.449   4.157   1.192  0.0688  0.4782  1.0457
  807MOL0     H11321   7.412   4.265   1.330 -1.1017 -0.5108  1.3630
  807MOL0     H11322   7.525   3.994   1.400  2.2781 -0.3571  4.3546
  807MOL0     H11323   7.640   4.129   1.334  0.0557  0.0410  0.9268
  807MOL0     H11324   7.771   4.010   1.489  1.4680 -2.0387  1.3670
  807MOL0     H11325   8.058   4.029   1.628 -0.4612  0.9694 -0.2225
  807MOL0     H11326   7.955   3.937   1.520 -3.3277  3.5214 -0.7476
  807MOL0     H11327   7.973   3.887   1.691 -3.3045  1.0925  1.1465
  807MOL0     H11328   7.980   4.449   2.110 -1.2724 -1.7313 -0.4508
  807MOL0     H11329   8.131   4.480   2.299 -0.9059  0.2842 -0.7590
  807MOL0     H11330   8.348   4.551   2.309  1.8819  1.7185  0.6890
  807MOL0     H11331   8.443   4.495   2.441  0.0081  1.3592  0.6062
  807MOL0     H11332   8.527   4.391   2.168  1.0857  0.9141 -1.2372
  807MOL0     H11333   8.584   4.539   2.239 -0.1015  0.1114 -1.4331
  807MOL0     H11334   8.601   4.258   2.346 -0.5989 -0.2572  1.9316
  807MOL0     H11335   8.663   4.393   2.443  1.8108 -1.1625  0.0333
  807MOL0     H11336   8.812   4.469   2.234  2.3855  0.4141 -1.8299
  807MOL0     H11337   8.782   4.303   2.189  0.5263 -0.3839  1.0717
  807MOL0     H11338   8.992   4.314   2.305 -0.5007  0.2461 -2.4105
  807MOL0     H11339   8.916   4.400   2.447  0.6992 -0.0990  0.3149
  807MOL0     H11340   8.861   4.107   2.380  0.1411 -1.6250  1.6509
  807MOL0     H11341   8.783   4.194   2.511  0.4174  2.6465 -0.2038
  807MOL0     H11342   9.015   4.225   2.614  0.2562 -2.1336  2.4173
  807MOL0     H11343   9.070   4.124   2.476 -0.7632 -0.3224 -1.2111
  807MOL0     H11344   8.907   3.949   2.561  0.2962  0.5258 -0.6969
  807MOL0     H11345   8.852   4.055   2.691 -0.1590 -2.1400  0.7482
  807MOL0     H11346   8.382   4.168   2.158  0.6006 -0.4599 -3.1829
  807MOL0     H11347   8.215   4.116   1.971 -0.7833 -0.0256 -0.4428
  807MOL0     H11348   7.720   4.263   1.903 -1.0307 -1.8069  0.3928
  807MOL0     H11349   7.547   4.297   1.737 -1.4380 -1.1573  1.7252
  807MOL0     H11350   6.014   3.445   1.848 -0.1849 -0.3740  0.5719
  807MOL0     H11351   5.814   3.381   1.987  1.1366 -0.2998 -0.0593
  807MOL0     H11352   5.554   3.340   2.180 -0.2689 -0.6682 -0.4497
  807MOL0     H11353   5.415   3.199   2.313  0.2935 -0.1231  0.5774
  807MOL0     H11354   5.242   3.117   2.418  1.2496  2.0536  3.8847
  807MOL0     H11355   5.101   3.122   2.507  1.8135 -0.4420  0.9076
  807MOL0     H11356   5.023   3.110   2.278  0.5680 -0.3117  1.5990
  807MOL0     H11357   5.140   3.243   2.233  2.2233  0.1841  2.4815
  807MOL0     H11358   5.000   3.410   2.328  2.7730 -1.3550 -3.5270
  807MOL0     H11359   4.879   3.314   2.248  4.4164 -0.4838 -3.2834
  807MOL0     H11360   4.817   3.400   2.471  3.6607  3.3767 -3.1021
  807MOL0     H11361   4.951   3.332   2.548 -1.3111  1.8472  0.7224
  807MOL0     H11362   4.644   3.023   2.466  1.6533 -2.1829 -1.7332
  807MOL0     H11363   5.222   3.545   2.483  1.8074 -1.1685  1.8910
  807MOL0     H11364   5.451   3.774   2.465  0.0882  0.7778 -0.4121
  807MOL0     H11365   5.391   3.787   2.295 -1.7565  0.6890  0.7069
  807MOL0     H11366   5.287   3.766   2.439  2.6668  2.6467  2.8164
  808MOL0     O11367   5.230   6.947   6.117  0.6034 -0.1902 -0.1161
  808MOL0     C11368   5.199   6.997   6.226 -0.0253 -0.5263 -0.0489
  808MOL0     O11369   5.290   7.072   6.305 -0.0730  0.5698 -0.1803
  808MOL0     C11370   5.419   7.080   6.259  0.5296 -0.0766  0.0685
  808MOL0     C11371   5.451   7.142   6.143 -0.0042 -0.1092  0.8039
  808MOL0     C11372   5.584   7.124   6.086  0.1391 -0.0421  0.1595
  808MOL0     C11373   5.680   7.061   6.162  0.1319 -0.0409  0.1510
  808MOL0     O11374   5.802   7.045   6.113  0.0198 -0.5571  0.0181
  808MOL0     C11375   5.854   6.911   6.119  0.2032 -0.1835  0.8469
  808MOL0     C11376   5.986   6.915   6.038 -0.4926 -0.3989  0.2922
  808MOL0     C11377   6.034   6.774   6.017 -0.2041  0.7036  0.2530
  808MOL0     C11378   6.155   6.771   5.926 -0.7092  0.7220 -0.4856
  808MOL0     C11379   6.282   6.796   6.003  0.3332  0.9306  0.0410
  808MOL0     C11380   6.391   6.857   5.918  0.6210 -0.1188  1.1382
  808MOL0     C11381   6.530   6.866   5.999 -0.4072  0.4254  1.3959
  808MOL0     C11382   6.591   6.729   6.050  0.0842 -0.8899  0.7214
  808MOL0     N11383   6.729   6.729   5.992 -0.4535 -0.0679 -0.0530
  808MOL0     C11384   6.766   6.718   5.860  0.0616 -0.3305 -0.5475
  808MOL0     C11385   6.901   6.687   5.863  0.3558 -0.2872  0.8297
  808MOL0     C11386   6.988   6.669   5.736 -0.5333  0.7956 -0.3850
  808MOL0     C11387   7.022   6.800   5.672  1.3754  0.2165 -0.4509
  808MOL0     C11388   7.141   6.814   5.575  0.2196  0.3689 -0.3600
  808MOL0     C11389   7.244   6.920   5.626  0.0946 -0.2691  0.1480
  808MOL0     O11390   7.355   6.954   5.543  0.1910 -0.4007  0.2524
  808MOL0     C11391   7.431   7.061   5.580  1.3815 -1.3510 -0.7020
  808MOL0     C11392   7.383   7.166   5.664  1.0828 -0.1534  0.7416
  808MOL0     C11393   7.441   7.294   5.673 -0.2895  0.4157  0.3400
  808MOL0     C11394   7.356   7.398   5.746 -0.1172 -0.0428 -0.3656
  808MOL0     C11395   7.569   7.310   5.616  0.0403 -0.1604  0.2038
  808MOL0     C11396   7.651   7.434   5.619 -0.7210  0.0196 -0.5751
  808MOL0     O11397   7.721   7.475   5.507 -0.2716  0.1266 -0.1646
  808MOL0     C11398   7.814   7.585   5.532 -0.7020  0.2121 -0.0506
  808MOL0     C11399   7.958   7.564   5.522 -0.4917  0.1705 -0.7351
  808MOL0     C11400   8.044   7.673   5.549  0.2470  0.1020 -0.4015
  808MOL0     C11401   7.996   7.796   5.572 -0.2105 -1.0638 -0.2933
  808MOL0     O11402   8.090   7.899   5.610  0.2731 -0.3528  0.3568
  808MOL0     C11403   8.058   8.034   5.592 -0.0869 -0.6027 -0.2724
  808MOL0     C11404   8.153   8.135   5.652  0.5837 -0.3902  0.6053
  808MOL0     C11405   8.299   8.120   5.612  0.6217 -0.4221 -0.1383
  808MOL0     C11406   8.391   8.221   5.683  0.8226 -0.3353  0.6729
  808MOL0     C11407   8.523   8.244   5.607  0.1467 -0.5659 -0.3301
  808MOL0     C11408   8.616   8.126   5.632  1.0120  0.9981  0.0302
  808MOL0     C11409   8.665   8.110   5.774  0.3904 -0.6109 -0.0332
  808MOL0     C11410   8.754   7.989   5.781  0.6401 -0.1263  0.1646
  808MOL0    Cl11411   8.895   8.002   5.670  0.3705 -0.2108 -0.3934
  808MOL0     C11412   7.857   7.825   5.575  0.4257  0.0267 -0.1954
  808MOL0     C11413   7.771   7.714   5.561 -0.2641 -0.0957  0.0706
  808MOL0     O11414   7.643   7.506   5.717  0.1883 -0.2157 -0.3329
  808MOL0     C11415   7.627   7.198   5.550  0.2185  0.3863  0.2140
  808MOL0     C11416   7.556   7.079   5.530 -0.3974 -0.1970  0.9665
  808MOL0     N11417   6.945   6.691   5.994  0.3347 -0.1228  0.1795
  808MOL0     N11418   6.841   6.707   6.072 -0.2569  0.2564 -0.3932
  808MOL0     C11419   5.646   7.013   6.290  0.4218  0.3568  0.1484
  808MOL0     C11420   5.516   7.023   6.344  1.0327  0.8132  0.6876
  808MOL0     C11421   5.062   6.971   6.284 -0.7410  0.9966 -0.3132
  808MOL0     C11422   5.021   7.043   6.398 -0.0402 -0.0747  0.2106
  808MOL0     C11423   4.898   7.023   6.459  0.2404 -0.0996 -0.4082
  808MOL0     C11424   4.799   6.947   6.396 -0.7083  0.1414 -0.3607
  808MOL0     O11425   4.683   6.939   6.460 -0.2803  0.5969  0.3316
  808MOL0     C11426   4.578   6.854   6.404 -0.3748 -0.5891  0.3557
  808MOL0     C11427   4.455   6.842   6.489  0.1461 -0.1908 -0.7418
  808MOL0     C11428   4.378   6.974   6.489  0.4560  0.4659  0.0398
  808MOL0     C11429   4.222   6.953   6.480  0.2026  0.6924  0.2752
  808MOL0     C11430   4.167   6.919   6.610 -0.2020  0.3131  0.1296
  808MOL0     C11431   4.138   6.902   6.724  0.1154  0.2352  0.0910
  808MOL0     C11432   4.829   6.878   6.274 -0.1370  0.1666 -0.5738
  808MOL0     C11433   4.959   6.886   6.221 -0.5464  0.9088  0.6618
  808MOL0     C11434   4.991   6.793   6.109  0.1448 -0.5592 -0.2445
  808MOL0     H11435   5.372   7.194   6.091 -0.3114 -2.5190 -1.3362
  808MOL0     H11436   5.610   7.162   5.988  3.1747  1.0048  1.2561
  808MOL0     H11437   5.778   6.838   6.091 -1.2886  2.3160 -2.4101
  808MOL0     H11438   5.887   6.893   6.221  1.4074  1.4405  0.7982
  808MOL0     H11439   5.975   6.959   5.938  0.3909 -0.5617  0.1085
  808MOL0     H11440   6.069   6.972   6.080  1.9264 -0.0649 -4.2301
  808MOL0     H11441   6.060   6.730   6.114 -0.8918 -0.1948  0.0369
  808MOL0     H11442   5.955   6.717   5.967  0.8336  0.3513 -1.0497
  808MOL0     H11443   6.155   6.671   5.882 -1.4975  0.4474  0.1069
  808MOL0     H11444   6.129   6.841   5.845 -2.2639  1.7525  0.8313
  808MOL0     H11445   6.318   6.699   6.040 -0.2485 -0.3135 -2.4425
  808MOL0     H11446   6.258   6.862   6.087 -1.6575 -0.2027  0.4106
  808MOL0     H11447   6.396   6.800   5.826  1.0392 -0.0363  1.1095
  808MOL0     H11448   6.359   6.960   5.896  1.3176  0.2682  1.8784
  808MOL0     H11449   6.525   6.931   6.087  0.7790 -0.2996  2.0288
  808MOL0     H11450   6.597   6.913   5.927 -0.7642  0.9452  1.3956
  808MOL0     H11451   6.581   6.738   6.159 -3.6539  1.3815  0.3331
  808MOL0     H11452   6.527   6.653   6.004  2.0463 -0.6471 -2.7000
  808MOL0     H11453   6.698   6.715   5.775 -1.4534  3.3861  0.3624
  808MOL0     H11454   6.951   6.594   5.665  2.3358 -2.0530  0.8588
  808MOL0     H11455   7.079   6.629   5.781 -2.0679 -1.4459  0.9448
  808MOL0     H11456   6.939   6.810   5.601  0.8028  1.5632  0.3710
  808MOL0     H11457   7.013   6.884   5.741 -0.8152 -0.2554 -0.0767
  808MOL0     H11458   7.186   6.715   5.570  1.1978  0.6359  1.9426
  808MOL0     H11459   7.125   6.843   5.471  2.0972 -0.9592 -1.0712
  808MOL0     H11460   7.186   7.012   5.641 -0.4430 -0.7895  1.3997
  808MOL0     H11461   7.273   6.892   5.727 -1.0960  2.5311  1.3764
  808MOL0     H11462   7.286   7.153   5.711 -0.0807 -3.3267 -2.1929
  808MOL0     H11463   7.250   7.373   5.730 -0.2751  1.1952 -1.5182
  808MOL0     H11464   7.365   7.498   5.702 -0.5974 -0.1612 -0.7482
  808MOL0     H11465   7.384   7.393   5.851 -2.6937 -0.6162  0.3780
  808MOL0     H11466   7.998   7.465   5.502  0.1541  0.4680 -0.9479
  808MOL0     H11467   8.150   7.653   5.556  0.0620 -1.8912 -2.4441
  808MOL0     H11468   8.055   8.062   5.487  0.9483  2.2605  0.3831
  808MOL0     H11469   7.966   8.062   5.643  0.5383  1.0342  0.0257
  808MOL0     H11470   8.121   8.237   5.627 -1.3223 -0.7798  1.2574
  808MOL0     H11471   8.145   8.138   5.761  0.6294  1.3670  0.5960
  808MOL0     H11472   8.313   8.140   5.506  0.0073  1.5217  0.1047
  808MOL0     H11473   8.339   8.020   5.632 -0.1991 -0.7858 -0.2676
  808MOL0     H11474   8.411   8.186   5.785 -0.4549  0.6238  1.2774
  808MOL0     H11475   8.344   8.320   5.689  1.5382  0.3710 -2.8846
  808MOL0     H11476   8.513   8.249   5.498  0.5776 -4.2280 -0.6481
  808MOL0     H11477   8.576   8.332   5.646  0.1612 -1.0093  0.6781
  808MOL0     H11478   8.690   8.155   5.556  2.9544  1.3340  1.9307
  808MOL0     H11479   8.579   8.029   5.597 -0.6588  1.6563 -0.0815
  808MOL0     H11480   8.583   8.105   5.847 -1.5449 -0.1290 -2.0657
  808MOL0     H11481   8.721   8.200   5.801 -3.2712  1.6024  0.9287
  808MOL0     H11482   8.700   7.898   5.751  1.6465 -0.2002 -1.5663
  808MOL0     H11483   8.787   7.966   5.882  1.1085 -0.2055 -0.0076
  808MOL0     H11484   7.811   7.922   5.591  0.3541 -0.3657  2.4395
  808MOL0     H11485   7.666   7.739   5.572 -0.1731  0.9471 -1.2694
  808MOL0     H11486   7.726   7.214   5.510  2.0648 -0.7579  3.8357
  808MOL0     H11487   7.600   7.016   5.453 -1.4527  1.9650 -1.5848
  808MOL0     H11488   5.718   6.960   6.351  0.3044 -0.5725 -0.5025
  808MOL0     H11489   5.488   6.983   6.441 -0.0476  0.7668  0.3698
  808MOL0     H11490   5.088   7.109   6.452  1.2029  0.9582 -2.4175
  808MOL0     H11491   4.880   7.061   6.559  2.4963 -0.5449  0.2444
  808MOL0     H11492   4.557   6.889   6.302  2.9407 -0.6838 -0.4963
  808MOL0     H11493   4.612   6.751   6.394  0.5752 -0.0693 -3.8434
  808MOL0     H11494   4.498   6.831   6.589  2.0050  1.6496 -1.2682
  808MOL0     H11495   4.390   6.760   6.457 -0.0772 -1.1846  1.9570
  808MOL0     H11496   4.402   7.044   6.569 -2.5694  0.0769  1.4248
  808MOL0     H11497   4.405   7.028   6.397  0.3828 -0.7832 -0.7324
  808MOL0     H11498   4.198   6.870   6.413  0.7734 -0.5226  1.5100
  808MOL0     H11499   4.177   7.043   6.439  0.2275 -0.4764 -2.5248
  808MOL0     H11500   4.118   6.875   6.826 -2.0709  0.8062 -0.1352
  808MOL0     H11501   4.758   6.810   6.230  1.5567  0.1878 -3.5910
  808MOL0     H11502   5.036   6.843   6.022  1.0222 -2.5466 -1.0164
  808MOL0     H11503   5.059   6.713   6.141 -2.0023 -2.2266  0.3795
  808MOL0     H11504   4.900   6.739   6.081 -0.7955 -0.6248  2.6543
  809MOL0     O11505   3.925   8.964   3.985 -0.4962  0.7243 -0.1449
  809MOL0     C11506   3.854   9.014   4.068  0.0805 -0.4896 -0.0537
  809MOL0     O11507   3.882   9.021   4.210  0.5587  0.2827  0.1440
  809MOL0     C11508   3.986   8.950   4.261 -0.8591 -0.0428  0.0829
  809MOL0     C11509   4.117   9.005   4.263 -0.0477 -0.7634 -1.0685
  809MOL0     C11510   4.216   8.920   4.320  0.8160  0.8185  0.1302
  809MOL0     C11511   4.191   8.783   4.353  0.4690 -0.7518 -0.1977
  809MOL0     O11512   4.297   8.699   4.382  0.4871  0.9013  0.1349
  809MOL0     C11513   4.433   8.732   4.399 -0.5618  0.8282  0.2230
  809MOL0     C11514   4.519   8.625   4.342  0.4858  0.0263 -0.6637
  809MOL0     C11515   4.661   8.606   4.412  0.0168 -0.0554  0.5427
  809MOL0     C11516   4.736   8.493   4.337  0.0112 -0.1428 -0.5203
  809MOL0     C11517   4.880   8.480   4.385 -0.1418  0.3174  0.3431
  809MOL0     C11518   4.873   8.418   4.521  0.1571  1.1761 -0.1844
  809MOL0     C11519   5.009   8.385   4.576 -0.1962 -0.2381 -0.3790
  809MOL0     C11520   5.052   8.245   4.517 -0.8048 -1.1468 -0.1006
  809MOL0     N11521   5.198   8.225   4.528  0.4216 -0.2909  0.7644
  809MOL0     C11522   5.278   8.265   4.629  0.2978  0.0999  0.2484
  809MOL0     C11523   5.404   8.218   4.589 -0.8042 -0.8825 -0.1515
  809MOL0     C11524   5.533   8.268   4.664  0.6670  0.8220 -0.3635
  809MOL0     C11525   5.530   8.237   4.817  0.0154  0.1779 -0.4680
  809MOL0     C11526   5.663   8.266   4.885 -0.0326  0.6608 -0.1091
  809MOL0     C11527   5.772   8.149   4.875 -0.3049 -0.6671 -0.2561
  809MOL0     O11528   5.733   8.043   4.784 -0.3078 -0.6776 -0.6289
  809MOL0     C11529   5.827   7.951   4.758 -0.1540  0.0074 -0.4957
  809MOL0     C11530   5.780   7.847   4.672 -0.4725 -0.6257  0.0131
  809MOL0     C11531   5.862   7.737   4.621  0.3931 -0.4622 -0.4169
  809MOL0     C11532   5.797   7.635   4.532 -0.1130  0.5213  0.4599
  809MOL0     C11533   6.004   7.743   4.655  0.3157  0.2817 -0.1980
  809MOL0     C11534   6.111   7.649   4.606 -0.0761 -0.9567 -0.1780
  809MOL0     O11535   6.237   7.685   4.629 -0.0892 -0.5759 -0.5390
  809MOL0     C11536   6.331   7.641   4.540  0.8763 -0.1854 -0.3152
  809MOL0     C11537   6.370   7.506   4.526  0.0721 -0.0128  0.0507
  809MOL0     C11538   6.460   7.469   4.425 -0.4180  0.1274 -0.5122
  809MOL0     C11539   6.541   7.564   4.363 -0.7292  0.1304  0.0519
  809MOL0     O11540   6.640   7.534   4.275 -0.2952  0.0506  0.1906
  809MOL0     C11541   6.647   7.402   4.214  0.4569  0.0540 -0.4653
  809MOL0     C11542   6.745   7.402   4.090  0.5344  0.1404  0.4538
  809MOL0     C11543   6.884   7.387   4.142 -0.7056 -0.9378 -0.1467
  809MOL0     C11544   6.985   7.401   4.030  0.1306 -0.4198  0.0782
  809MOL0     C11545   7.124   7.357   4.076  0.1153  0.0628 -0.0702
  809MOL0     C11546   7.220   7.395   3.960 -0.7534 -0.2920 -0.8027
  809MOL0     C11547   7.369   7.366   3.983 -0.1239 -0.5505 -0.4376
  809MOL0     C11548   7.445   7.490   4.033 -0.1722 -0.2285 -0.5336
  809MOL0    Cl11549   7.469   7.598   3.898  0.2786 -0.3809 -0.1738
  809MOL0     C11550   6.504   7.697   4.381 -0.3800 -0.1163 -0.2080
  809MOL0     C11551   6.396   7.734   4.463 -0.7048 -0.3736 -0.0919
  809MOL0     O11552   6.081   7.561   4.526 -0.1976 -0.6799  0.1104
  809MOL0     C11553   6.045   7.834   4.750 -0.4166 -0.1571  0.6434
  809MOL0     C11554   5.961   7.942   4.806  0.1302 -0.0158  1.0834
  809MOL0     N11555   5.400   8.156   4.467 -0.1865  0.2654 -0.1882
  809MOL0     N11556   5.274   8.158   4.433  0.5332 -0.7367  0.6845
  809MOL0     C11557   4.055   8.734   4.351 -0.0418  0.4628 -0.3211
  809MOL0     C11558   3.952   8.817   4.307  0.0132  0.4911  0.1280
  809MOL0     C11559   3.728   9.083   4.032 -0.1821 -0.4465 -0.2734
  809MOL0     C11560   3.663   9.174   4.123 -0.4409  0.0379 -0.0297
  809MOL0     C11561   3.537   9.232   4.097  0.0617 -0.4974  0.4820
  809MOL0     C11562   3.472   9.202   3.978 -0.2854 -0.1962  0.0245
  809MOL0     O11563   3.349   9.260   3.964 -0.4264  0.1482  0.3748
  809MOL0     C11564   3.303   9.253   3.833  0.7680  0.4726  0.6237
  809MOL0     C11565   3.163   9.310   3.828  0.4052  0.0764 -0.0522
  809MOL0     C11566   3.102   9.252   3.703  0.2218  0.6398  0.2584
  809MOL0     C11567   2.967   9.321   3.675 -0.2069  0.1581  0.5984
  809MOL0     C11568   2.974   9.461   3.634 -0.8679  0.9051  0.2045
  809MOL0     C11569   2.972   9.579   3.597 -0.9243  0.9998 -0.0635
  809MOL0     C11570   3.530   9.109   3.887  0.2841 -0.4390  0.0322
  809MOL0     C11571   3.654   9.053   3.909  0.5009 -0.7728 -0.4507
  809MOL0     C11572   3.707   8.950   3.805  0.0269 -1.1093 -0.9149
  809MOL0     H11573   4.145   9.102   4.225  0.5481  0.3053  1.8673
  809MOL0     H11574   4.312   8.967   4.299 -1.3938  4.5926 -2.8677
  809MOL0     H11575   4.460   8.725   4.504 -1.4095  3.0383  0.6409
  809MOL0     H11576   4.476   8.824   4.359 -2.6432  1.3131 -1.0699
  809MOL0     H11577   4.466   8.530   4.358  1.9421 -0.4227  2.1431
  809MOL0     H11578   4.542   8.645   4.237 -1.1412  1.4385 -0.8002
  809MOL0     H11579   4.720   8.697   4.418  1.1100 -0.6843 -0.3803
  809MOL0     H11580   4.635   8.565   4.510  0.6808 -0.8281  0.4050
  809MOL0     H11581   4.682   8.402   4.364  0.9060 -0.9229 -1.3038
  809MOL0     H11582   4.733   8.511   4.229  0.7129  2.2439 -0.1985
  809MOL0     H11583   4.912   8.585   4.382 -1.4653  0.7324 -0.7393
  809MOL0     H11584   4.937   8.423   4.311 -2.0436  2.9700 -3.5522
  809MOL0     H11585   4.813   8.489   4.577 -1.4124  1.7312 -2.4430
  809MOL0     H11586   4.819   8.323   4.522  1.7965  0.1748  1.9359
  809MOL0     H11587   4.980   8.358   4.678 -6.3250 -0.5518 -1.7990
  809MOL0     H11588   5.083   8.465   4.578  2.7399 -2.7470 -0.5878
  809MOL0     H11589   5.002   8.157   4.559 -0.9205 -0.5542  1.0550
  809MOL0     H11590   5.029   8.252   4.410  1.8353  2.1257 -0.6083
  809MOL0     H11591   5.251   8.329   4.712  2.9502 -0.5482  1.7174
  809MOL0     H11592   5.527   8.376   4.650 -3.5136  0.5498 -2.0964
  809MOL0     H11593   5.622   8.217   4.624 -0.5074 -0.3253 -1.6303
  809MOL0     H11594   5.455   8.303   4.861  1.4673  1.2967  0.3892
  809MOL0     H11595   5.495   8.137   4.844  0.4832  0.0588 -0.2956
  809MOL0     H11596   5.705   8.358   4.844  0.6182 -0.7996 -2.9494
  809MOL0     H11597   5.644   8.270   4.993  0.0315 -0.4453 -0.0473
  809MOL0     H11598   5.866   8.185   4.832 -0.7234  0.8587  0.0717
  809MOL0     H11599   5.787   8.115   4.978  0.0994  4.0939  1.5185
  809MOL0     H11600   5.674   7.855   4.649 -0.7751  3.5035  1.9878
  809MOL0     H11601   5.763   7.686   4.441 -1.7976 -0.0618  0.7330
  809MOL0     H11602   5.701   7.610   4.577 -1.7337  1.5646 -2.1544
  809MOL0     H11603   5.857   7.546   4.510  0.4356  1.4163 -2.0035
  809MOL0     H11604   6.333   7.419   4.579  2.9381 -1.7782 -0.6960
  809MOL0     H11605   6.483   7.365   4.402 -0.9307  0.0381 -0.6228
  809MOL0     H11606   6.688   7.332   4.287  0.5932  1.4387  0.8212
  809MOL0     H11607   6.546   7.373   4.185  0.3609 -1.2346  1.0225
  809MOL0     H11608   6.717   7.312   4.036 -0.8279  0.6628  0.2336
  809MOL0     H11609   6.730   7.484   4.020  1.3894 -0.1635 -0.1001
  809MOL0     H11610   6.889   7.283   4.177  0.9781 -1.4902 -1.8886
  809MOL0     H11611   6.901   7.457   4.223 -0.8484 -0.7779 -0.2541
  809MOL0     H11612   6.985   7.504   3.992 -5.0693 -0.1538  0.1678
  809MOL0     H11613   6.957   7.334   3.949 -0.3222 -0.6644  0.4327
  809MOL0     H11614   7.155   7.408   4.168 -0.4431 -0.4018  0.3825
  809MOL0     H11615   7.117   7.249   4.091 -1.7465 -0.0830 -1.6744
  809MOL0     H11616   7.203   7.502   3.945 -0.4860 -0.2707 -0.9659
  809MOL0     H11617   7.185   7.351   3.866  1.3740 -1.2863 -1.1830
  809MOL0     H11618   7.414   7.325   3.892  1.4715 -0.8397  0.4555
  809MOL0     H11619   7.369   7.283   4.054  0.3597 -0.0713  0.1198
  809MOL0     H11620   7.544   7.472   4.076  1.1247  0.3178 -3.1113
  809MOL0     H11621   7.385   7.532   4.114  0.8163  1.9494 -0.8580
  809MOL0     H11622   6.552   7.782   4.333 -0.7156  0.2147  0.0409
  809MOL0     H11623   6.379   7.839   4.482 -0.8126 -0.1507 -1.3437
  809MOL0     H11624   6.148   7.834   4.785 -0.5919 -1.6273  1.2296
  809MOL0     H11625   6.008   8.018   4.868 -0.8237  0.2996  1.4274
  809MOL0     H11626   4.034   8.631   4.378  1.9741  0.1818  0.3166
  809MOL0     H11627   3.847   8.789   4.307 -0.4710  1.9788 -2.6228
  809MOL0     H11628   3.718   9.204   4.212  1.3016  1.9214 -1.6446
  809MOL0     H11629   3.486   9.295   4.169 -0.7122  0.4551 -0.8584
  809MOL0     H11630   3.370   9.292   3.756 -0.3048  0.4740 -0.3305
  809MOL0     H11631   3.291   9.146   3.813  0.3045  0.7535 -0.6562
  809MOL0     H11632   3.176   9.418   3.813  0.9150 -0.0689 -0.7673
  809MOL0     H11633   3.110   9.298   3.922  0.0087  0.8101 -0.1723
  809MOL0     H11634   3.158   9.260   3.610  0.2661 -0.1766  0.2123
  809MOL0     H11635   3.088   9.145   3.720  0.9946  0.2600 -1.3105
  809MOL0     H11636   2.912   9.315   3.769  0.2143  0.0236  0.8395
  809MOL0     H11637   2.909   9.267   3.599 -2.1671 -0.9816  2.7810
  809MOL0     H11638   2.955   9.675   3.551  0.7780  0.9541 -0.8742
  809MOL0     H11639   3.487   9.079   3.792 -1.3138 -0.2473  0.6692
  809MOL0     H11640   3.705   8.850   3.848 -0.2830 -1.2628 -1.2826
  809MOL0     H11641   3.645   8.953   3.715 -2.5035  0.7210  0.7594
  809MOL0     H11642   3.811   8.973   3.782 -0.4823 -0.5861 -2.8525
  810MOL0     O11643  10.569   6.622   7.199  0.2331 -0.2509  0.2987
  810MOL0     C11644  10.482   6.670   7.128 -0.1595 -0.2637 -0.6837
  810MOL0     O11645  10.507   6.736   7.007 -0.2355  0.5562 -0.3537
  810MOL0     C11646  10.629   6.710   6.945 -0.4846 -0.4299  0.4834
  810MOL0     C11647  10.717   6.601   6.951 -0.0767  0.7986  0.7587
  810MOL0     C11648  10.819   6.583   6.854  0.4057  0.8635  0.5176
  810MOL0     C11649  10.846   6.688   6.765  0.0530  0.5181 -1.0567
  810MOL0     O11650  10.931   6.675   6.665  0.4018  0.4242 -0.3218
  810MOL0     C11651  11.063   6.679   6.706 -0.3277 -0.1136 -0.1543
  810MOL0     C11652  11.137   6.757   6.593  0.0256 -0.7402  0.2573
  810MOL0     C11653  11.292   6.737   6.596 -0.1535 -0.0445 -0.5922
  810MOL0     C11654  11.352   6.773   6.730 -0.4595  0.5131 -0.5285
  810MOL0     C11655  11.502   6.798   6.731  0.4032 -0.1380 -0.0862
  810MOL0     C11656  11.582   6.666   6.742  0.9061  0.1556 -0.6529
  810MOL0     C11657  11.718   6.703   6.690 -1.2825 -0.5727  0.1352
  810MOL0     C11658  11.822   6.591   6.713  0.2135  0.9708  0.5331
  810MOL0     N11659  11.962   6.628   6.674 -0.0394 -0.7533 -0.7656
  810MOL0     C11660  12.016   6.754   6.682  0.6817  0.1120  0.4009
  810MOL0     C11661  12.139   6.734   6.639 -0.2255  0.0127 -0.1059
  810MOL0     C11662  12.252   6.838   6.622  0.2960  0.1622 -0.4341
  810MOL0     C11663  12.349   6.820   6.742 -0.2748  0.1489  0.6043
  810MOL0     C11664  12.485   6.875   6.707 -0.0050 -0.9336  0.1281
  810MOL0     C11665  12.588   6.851   6.823  0.0413 -0.2590  0.7205
  810MOL0     O11666  12.719   6.892   6.777  0.4974  0.2779  0.0427
  810MOL0     C11667  12.828   6.869   6.860  1.2342 -0.1631  0.2527
  810MOL0     C11668  12.943   6.939   6.817  0.1771 -0.0311 -0.4703
  810MOL0     C11669  13.063   6.944   6.888 -0.4343 -0.2274  0.3687
  810MOL0     C11670  13.169   7.048   6.851  0.7601 -0.1409  0.0651
  810MOL0     C11671  13.071   6.860   7.004  1.1048  0.6151  0.7401
  810MOL0     C11672  13.202   6.849   7.075 -0.0717  0.3658  0.6301
  810MOL0     O11673  13.188   6.794   7.203 -0.1777 -0.4725 -0.0720
  810MOL0     C11674  13.303   6.810   7.280 -0.2813  0.1795  0.4201
  810MOL0     C11675  13.327   6.943   7.337 -0.3573 -0.5871 -0.0629
  810MOL0     C11676  13.434   6.964   7.423  1.0932  0.2815 -0.3221
  810MOL0     C11677  13.530   6.866   7.441  0.6231 -0.5063 -0.7364
  810MOL0     O11678  13.636   6.903   7.522  0.2976  0.2059 -0.8426
  810MOL0     C11679  13.759   6.831   7.530  0.0517  0.8807  0.7733
  810MOL0     C11680  13.864   6.895   7.633  0.3409 -0.5768  0.1442
  810MOL0     C11681  13.811   6.932   7.770  0.3219 -0.2120 -0.0211
  810MOL0     C11682  13.905   7.037   7.837  0.4714  0.4027 -0.3526
  810MOL0     C11683  13.826   7.098   7.953 -0.0673 -0.0171  0.0311
  810MOL0     C11684  13.905   7.214   8.008 -0.9244  0.4762  0.2671
  810MOL0     C11685  13.861   7.261   8.152 -0.2088 -0.0379 -0.3894
  810MOL0     C11686  13.944   7.372   8.202  0.0359  0.1769  0.4278
  810MOL0    Cl11687  13.941   7.519   8.104  0.7036  0.3558  0.3749
  810MOL0     C11688  13.505   6.731   7.390 -0.2712 -0.6685  0.7258
  810MOL0     C11689  13.388   6.711   7.316 -0.0041  0.3793 -0.5432
  810MOL0     O11690  13.309   6.866   7.022 -0.1937 -0.1857  0.6721
  810MOL0     C11691  12.953   6.789   7.050 -0.5667  0.2665 -0.3112
  810MOL0     C11692  12.828   6.803   6.981 -0.3994  0.8255  0.2285
  810MOL0     N11693  12.166   6.595   6.608  0.2985  0.1710 -0.4591
  810MOL0     N11694  12.053   6.535   6.646 -0.0933 -0.4171  0.2123
  810MOL0     C11695  10.776   6.805   6.778  0.4491  0.1587 -0.1411
  810MOL0     C11696  10.673   6.822   6.865  1.0913  0.8895 -0.7520
  810MOL0     C11697  10.338   6.662   7.178  1.1318 -0.2213  0.6649
  810MOL0     C11698  10.238   6.693   7.082  0.9449 -0.3709 -0.4007
  810MOL0     C11699  10.098   6.681   7.120 -0.6832  0.2205  0.0711
  810MOL0     C11700  10.052   6.641   7.249  0.2658  0.9811  0.0660
  810MOL0     O11701   9.922   6.632   7.286 -0.6594  0.2671 -0.1860
  810MOL0     C11702   9.819   6.658   7.192 -0.7997  1.0234 -0.3347
  810MOL0     C11703   9.679   6.672   7.272  0.0025  1.1596 -0.2329
  810MOL0     C11704   9.684   6.785   7.377  0.6122  0.0912  1.1115
  810MOL0     C11705   9.537   6.792   7.434 -0.2360 -0.7865  0.4639
  810MOL0     C11706   9.478   6.931   7.430 -0.3176 -0.3766 -0.0550
  810MOL0     C11707   9.421   7.040   7.438  0.0885 -0.1874 -0.3329
  810MOL0     C11708  10.154   6.614   7.336  0.0279  0.3818  0.0663
  810MOL0     C11709  10.291   6.632   7.305  0.5964 -0.4129 -0.6032
  810MOL0     C11710  10.380   6.582   7.414 -0.2436 -0.1895 -0.4012
  810MOL0     H11711  10.691   6.521   7.020  1.6548 -0.8456 -0.4054
  810MOL0     H11712  10.874   6.489   6.851 -0.9088  0.0119  2.0750
  810MOL0     H11713  11.100   6.576   6.717  1.0794  0.5810  2.5300
  810MOL0     H11714  11.094   6.720   6.802  2.2887 -0.2422 -0.8598
  810MOL0     H11715  11.096   6.714   6.502 -1.6777 -1.8435  1.4721
  810MOL0     H11716  11.111   6.863   6.591  0.9692 -0.5023 -1.7410
  810MOL0     H11717  11.308   6.632   6.570 -3.6612 -0.2048 -2.7826
  810MOL0     H11718  11.337   6.789   6.512 -0.0254  1.1347  0.1799
  810MOL0     H11719  11.310   6.871   6.756 -1.2122  0.5415 -1.7422
  810MOL0     H11720  11.329   6.700   6.808  0.7829 -0.1447 -0.7512
  810MOL0     H11721  11.517   6.862   6.818 -1.3355 -1.9596  1.6806
  810MOL0     H11722  11.533   6.862   6.648  0.0832  1.8786  1.2780
  810MOL0     H11723  11.585   6.641   6.849 -0.7304  1.3557 -0.2834
  810MOL0     H11724  11.533   6.580   6.695 -0.1584 -1.1492  2.5313
  810MOL0     H11725  11.758   6.792   6.741  2.9442 -1.4955 -1.1350
  810MOL0     H11726  11.703   6.728   6.585 -1.0968 -0.8771  0.0351
  810MOL0     H11727  11.815   6.555   6.816  2.7592 -1.2255  0.0461
  810MOL0     H11728  11.807   6.501   6.654  1.1333 -0.0086  1.7326
  810MOL0     H11729  11.983   6.843   6.734  2.3017  1.5486 -0.8951
  810MOL0     H11730  12.208   6.936   6.644  2.2907  1.0769 -0.2030
  810MOL0     H11731  12.302   6.835   6.525  0.6857 -0.1685 -0.2249
  810MOL0     H11732  12.309   6.868   6.832 -0.9173  1.0537 -0.1565
  810MOL0     H11733  12.369   6.715   6.765 -1.2979 -0.2043 -0.0963
  810MOL0     H11734  12.525   6.813   6.627  1.5657 -0.9053  0.8434
  810MOL0     H11735  12.472   6.981   6.680  0.3716 -0.8556  0.2416
  810MOL0     H11736  12.566   6.906   6.914  1.1463  1.3440  0.0789
  810MOL0     H11737  12.599   6.743   6.841  3.0924 -0.4209 -1.1965
  810MOL0     H11738  12.925   7.006   6.733  1.4765 -1.2130 -1.7497
  810MOL0     H11739  13.222   7.086   6.939 -0.0363  0.5288  0.2583
  810MOL0     H11740  13.118   7.135   6.811 -0.5266 -1.0155 -0.2403
  810MOL0     H11741  13.239   6.999   6.782 -0.9346  0.8381 -2.4573
  810MOL0     H11742  13.250   7.012   7.307  1.7006  1.6993 -0.3990
  810MOL0     H11743  13.437   7.062   7.470 -0.8727 -0.8118  2.2936
  810MOL0     H11744  13.740   6.725   7.553  1.5825  0.5634  0.6486
  810MOL0     H11745  13.814   6.832   7.435 -1.4046  0.0556 -0.1258
  810MOL0     H11746  13.945   6.822   7.647  1.0537  0.6175  3.1374
  810MOL0     H11747  13.908   6.979   7.578  1.6983 -1.1326  0.3420
  810MOL0     H11748  13.789   6.843   7.829 -2.2328 -0.8197 -1.7557
  810MOL0     H11749  13.721   6.986   7.740 -0.3570 -0.7329  1.0186
  810MOL0     H11750  13.927   7.120   7.769  2.1722 -0.0878 -0.4259
  810MOL0     H11751  14.000   6.997   7.873 -0.1323  0.2537  1.1096
  810MOL0     H11752  13.722   7.117   7.923 -1.7015 -3.2418  2.9518
  810MOL0     H11753  13.802   7.022   8.029 -1.9008 -1.3220 -1.7387
  810MOL0     H11754  13.887   7.298   7.940 -2.2834 -0.2759 -0.3410
  810MOL0     H11755  14.008   7.179   8.007 -0.7647  0.9409  0.0450
  810MOL0     H11756  13.864   7.178   8.223  1.0134 -1.6662 -2.2351
  810MOL0     H11757  13.755   7.290   8.154  0.0401  0.8678  1.2026
  810MOL0     H11758  14.043   7.330   8.219 -0.4698 -0.2357  2.7524
  810MOL0     H11759  13.902   7.388   8.302 -1.1321 -3.3278  0.6327
  810MOL0     H11760  13.568   6.643   7.404 -0.0325 -0.4613  0.9799
  810MOL0     H11761  13.361   6.617   7.270  2.4354 -0.5858 -0.1549
  810MOL0     H11762  12.958   6.719   7.132  0.6037  0.4363 -0.2275
  810MOL0     H11763  12.742   6.768   7.038 -2.2564  2.1669 -1.6081
  810MOL0     H11764  10.791   6.878   6.699  0.7772  0.1125 -0.1255
  810MOL0     H11765  10.612   6.912   6.853 -0.8933 -0.1807  0.7852
  810MOL0     H11766  10.262   6.723   6.980 -1.4000 -0.0656 -0.9120
  810MOL0     H11767  10.021   6.705   7.048 -2.8537  0.5898  2.3936
  810MOL0     H11768   9.839   6.753   7.142 -1.6592  0.8567 -1.0252
  810MOL0     H11769   9.813   6.580   7.116 -0.3717 -1.8316  2.3509
  810MOL0     H11770   9.635   6.587   7.325  0.8665  1.2822  0.7199
  810MOL0     H11771   9.605   6.698   7.196 -1.5864  0.5880  1.0515
  810MOL0     H11772   9.757   6.750   7.451  0.0494 -0.5436  1.3828
  810MOL0     H11773   9.725   6.872   7.327 -0.0939  0.9525  1.9945
  810MOL0     H11774   9.535   6.766   7.540 -0.1798  0.7813  0.8709
  810MOL0     H11775   9.461   6.731   7.385 -2.3461  1.2709  1.0325
  810MOL0     H11776   9.364   7.129   7.458  1.8111  0.6011  1.4587
  810MOL0     H11777  10.117   6.585   7.434 -0.1710  0.8139  0.1244
  810MOL0     H11778  10.469   6.646   7.418 -1.5404  1.6290  0.8712
  810MOL0     H11779  10.341   6.587   7.516 -1.4486  2.2424 -0.8954
  810MOL0     H11780  10.416   6.481   7.395  0.8369 -0.7671  3.7546
  811MOL0     O11781  11.076   8.932   6.333 -0.4824 -0.2574  1.1305
  811MOL0     C11782  11.033   8.991   6.427 -0.2941  0.4677 -0.4806
  811MOL0     O11783  11.111   9.064   6.509  0.1339  0.1068 -0.7921
  811MOL0     C11784  11.245   9.079   6.504 -0.5026 -0.3659  0.0190
  811MOL0     C11785  11.330   9.031   6.406 -0.2252 -0.8295  0.3887
  811MOL0     C11786  11.464   9.060   6.435 -0.8393 -0.6630 -1.1738
  811MOL0     C11787  11.512   9.126   6.547 -0.1564  0.3541  0.7060
  811MOL0     O11788  11.644   9.140   6.569  0.3312  0.3354  0.5791
  811MOL0     C11789  11.728   9.020   6.589 -0.3618  0.0913  0.4757
  811MOL0     C11790  11.724   8.982   6.740 -0.0423  0.2253  0.3208
  811MOL0     C11791  11.783   8.840   6.767  0.1667  0.1641  0.0926
  811MOL0     C11792  11.923   8.804   6.716  0.0868  0.9207 -0.6333
  811MOL0     C11793  12.039   8.869   6.785 -0.1326  0.3061  0.2603
  811MOL0     C11794  12.171   8.848   6.711 -0.3589 -0.6432 -0.0525
  811MOL0     C11795  12.189   8.949   6.594 -0.6570 -0.1885 -0.1701
  811MOL0     C11796  12.246   9.090   6.657  0.7671  0.6849 -0.0838
  811MOL0     N11797  12.270   9.179   6.545 -0.4493  0.5885  0.3433
  811MOL0     C11798  12.176   9.227   6.463 -0.3242 -0.3663 -0.4413
  811MOL0     C11799  12.246   9.286   6.369  0.5588 -0.0346 -1.2189
  811MOL0     C11800  12.200   9.353   6.249  0.6699 -0.4251 -0.6607
  811MOL0     C11801  12.231   9.507   6.257 -0.2759  0.4989 -0.2307
  811MOL0     C11802  12.204   9.564   6.116  0.6874  0.2128 -0.3547
  811MOL0     C11803  12.237   9.712   6.108 -0.2791 -0.0096  0.6445
  811MOL0     O11804  12.288   9.757   5.984 -0.4753  1.0543 -0.6216
  811MOL0     C11805  12.409   9.828   5.984  0.0612 -0.0874 -0.6442
  811MOL0     C11806  12.452   9.933   6.077 -0.1082  0.3601 -0.2255
  811MOL0     C11807  12.567  10.009   6.056  0.3099  0.0892  0.3928
  811MOL0     C11808  12.611  10.106   6.162 -0.8559 -0.1280 -0.2802
  811MOL0     C11809  12.654   9.983   5.945  0.5400  0.3462  0.1476
  811MOL0     C11810  12.782  10.053   5.917  0.3288 -0.3184  0.1260
  811MOL0     O11811  12.881   9.995   5.842  0.5063  1.5656 -0.8641
  811MOL0     C11812  12.991  10.065   5.794  0.7215  0.6189  0.6641
  811MOL0     C11813  13.115  10.008   5.794  0.1273  0.3080 -0.7131
  811MOL0     C11814  13.225  10.082   5.756 -0.3195 -0.0811  0.5384
  811MOL0     C11815  13.214  10.210   5.693 -0.2433 -0.7880 -0.4912
  811MOL0     O11816  13.328  10.258   5.631 -0.1490 -0.1418  0.3829
  811MOL0     C11817  13.324  10.399   5.593  0.3465 -0.0501  0.1653
  811MOL0     C11818  13.445  10.445   5.518 -0.6339  0.7729 -0.1688
  811MOL0     C11819  13.558  10.437   5.621  0.7790 -0.1082  0.3698
  811MOL0     C11820  13.687  10.509   5.569 -0.6257  0.0214 -0.0580
  811MOL0     C11821  13.806  10.478   5.674 -0.1873  0.0629  0.4939
  811MOL0     C11822  13.914  10.576   5.696 -0.2028 -0.5522  0.5656
  811MOL0     C11823  14.003  10.516   5.806 -0.5169  0.3344  0.5406
  811MOL0     C11824  14.152  10.559   5.799  0.4138  0.0629 -0.8307
  811MOL0    Cl11825  14.213  10.524   5.630  0.4171 -0.3032 -0.0739
  811MOL0     C11826  13.084  10.272   5.702  0.1231  0.5348  0.1620
  811MOL0     C11827  12.975  10.196   5.743  0.4189 -0.3384  0.9801
  811MOL0     O11828  12.781  10.171   5.951 -0.3172 -0.1686  0.5473
  811MOL0     C11829  12.606   9.888   5.855  0.4379 -0.5841 -0.1034
  811MOL0     C11830  12.489   9.817   5.875 -0.1432  0.4913 -0.3163
  811MOL0     N11831  12.374   9.287   6.405 -0.9338  0.1032 -0.2029
  811MOL0     N11832  12.391   9.223   6.516 -0.0132 -0.4156  0.1555
  811MOL0     C11833  11.422   9.166   6.638 -0.1724  0.5630  0.0360
  811MOL0     C11834  11.287   9.139   6.620 -0.1304  0.1185  0.0756
  811MOL0     C11835  10.882   8.990   6.447  0.1430  0.4321  0.4394
  811MOL0     C11836  10.804   8.950   6.332 -0.0920  0.8389 -0.4754
  811MOL0     C11837  10.666   8.959   6.330 -0.2733 -0.4122  0.3934
  811MOL0     C11838  10.596   9.000   6.448  0.5572  0.3215  0.0744
  811MOL0     O11839  10.454   9.014   6.454  0.0796  0.5228 -0.0323
  811MOL0     C11840  10.372   9.017   6.334  0.1058  0.1278  0.5772
  811MOL0     C11841  10.393   9.150   6.250 -0.4526  0.1222 -0.0166
  811MOL0     C11842  10.279   9.147   6.141 -0.2621 -0.2530 -0.6591
  811MOL0     C11843  10.278   9.270   6.044 -0.1309  0.6337 -0.2015
  811MOL0     C11844  10.159   9.258   5.955  0.3560 -0.1100 -0.7010
  811MOL0     C11845  10.058   9.244   5.884  0.0850  0.0063  0.3609
  811MOL0     C11846  10.667   9.026   6.564 -0.3463  0.3923 -0.3702
  811MOL0     C11847  10.808   9.029   6.568 -0.3980  0.4355 -0.2033
  811MOL0     C11848  10.877   9.065   6.697 -0.6216  0.6652  0.4492
  811MOL0     H11849  11.304   8.983   6.312  2.2058  0.9592 -1.3342
  811MOL0     H11850  11.542   9.020   6.372  0.7957 -0.5046  0.6400
  811MOL0     H11851  11.827   9.055   6.561 -1.0634  1.6611 -0.1714
  811MOL0     H11852  11.701   8.934   6.527  1.1706  1.0595 -1.6572
  811MOL0     H11853  11.772   9.064   6.794  0.5374  1.0106 -1.3137
  811MOL0     H11854  11.620   8.980   6.774  0.7801  0.5353  3.0266
  811MOL0     H11855  11.776   8.822   6.875  0.6060  0.4897  0.1797
  811MOL0     H11856  11.725   8.764   6.715  0.4882  0.4599 -0.7019
  811MOL0     H11857  11.939   8.697   6.729  1.8734  1.2298  0.0719
  811MOL0     H11858  11.929   8.830   6.610 -1.5644  0.0034 -0.9896
  811MOL0     H11859  12.040   8.849   6.892 -0.1695  1.0818  0.4133
  811MOL0     H11860  12.014   8.976   6.787 -2.6601 -0.2117  2.5672
  811MOL0     H11861  12.248   8.867   6.787  0.0692 -3.4366  0.3201
  811MOL0     H11862  12.177   8.743   6.682 -0.9969 -0.3607 -1.2545
  811MOL0     H11863  12.104   8.958   6.526  1.9106 -0.6056 -3.7305
  811MOL0     H11864  12.271   8.914   6.531 -0.1707 -1.6354  1.1750
  811MOL0     H11865  12.166   9.133   6.717 -1.1723 -0.2642 -1.8632
  811MOL0     H11866  12.342   9.067   6.705  2.8446 -1.3285 -4.6149
  811MOL0     H11867  12.070   9.203   6.463 -0.8443  1.6606 -1.4521
  811MOL0     H11868  12.095   9.329   6.232  0.2310  0.9220  0.0657
  811MOL0     H11869  12.247   9.310   6.160 -1.2320  0.0685 -1.9658
  811MOL0     H11870  12.173   9.542   6.343  2.7650 -1.2991  2.7506
  811MOL0     H11871  12.331   9.534   6.292 -1.3264 -0.1636  3.6829
  811MOL0     H11872  12.272   9.520   6.042 -1.4623  0.7990 -2.8543
  811MOL0     H11873  12.100   9.545   6.087  0.1337  1.2424  0.9058
  811MOL0     H11874  12.152   9.776   6.135 -0.3337 -0.2417  1.0297
  811MOL0     H11875  12.317   9.719   6.182  0.2660  0.4121  0.0323
  811MOL0     H11876  12.392   9.943   6.167  0.3253 -1.6913  0.3449
  811MOL0     H11877  12.720  10.092   6.168 -0.4457  0.5843 -3.8360
  811MOL0     H11878  12.569  10.081   6.259  0.0970  1.6270  0.6412
  811MOL0     H11879  12.589  10.212   6.151 -0.3720 -0.1592 -1.7986
  811MOL0     H11880  13.127   9.903   5.820  0.0630 -0.1801 -2.5626
  811MOL0     H11881  13.325  10.041   5.739 -0.1074  0.6721 -0.0961
  811MOL0     H11882  13.232  10.411   5.536 -1.0258 -0.7733  2.1266
  811MOL0     H11883  13.295  10.461   5.678 -1.6323  1.1000 -1.2867
  811MOL0     H11884  13.475  10.384   5.432  2.5859  1.0249  0.6233
  811MOL0     H11885  13.432  10.546   5.476  0.5669  0.5277 -1.2282
  811MOL0     H11886  13.586  10.334   5.643  0.9909 -0.4064 -1.1868
  811MOL0     H11887  13.525  10.483   5.715  0.0089 -0.7533  0.4244
  811MOL0     H11888  13.670  10.617   5.566 -0.4879  0.0247 -1.0789
  811MOL0     H11889  13.710  10.472   5.469  0.1919  0.2867  0.0314
  811MOL0     H11890  13.760  10.449   5.768 -1.8692 -0.6745 -0.5076
  811MOL0     H11891  13.859  10.391   5.632 -0.0465 -1.4612  3.5773
  811MOL0     H11892  13.870  10.670   5.733 -2.2013 -1.2806  0.1668
  811MOL0     H11893  13.963  10.608   5.604 -2.1968 -1.7598 -0.9904
  811MOL0     H11894  13.991  10.408   5.812  0.5147  0.0296 -1.8185
  811MOL0     H11895  13.965  10.553   5.902  1.1672  1.4511  0.8197
  811MOL0     H11896  14.208  10.504   5.875  0.1697 -0.7250 -1.2103
  811MOL0     H11897  14.162  10.666   5.823 -0.8111  0.5585 -2.2961
  811MOL0     H11898  13.073  10.377   5.675 -1.2853  0.4880  0.4808
  811MOL0     H11899  12.878  10.245   5.747 -0.0347 -1.1467  0.1699
  811MOL0     H11900  12.666   9.864   5.768 -2.7721  1.5861 -3.1699
  811MOL0     H11901  12.459   9.739   5.806  1.2538  0.1133 -0.5308
  811MOL0     H11902  11.465   9.220   6.722 -2.2981  2.5895 -0.0829
  811MOL0     H11903  11.220   9.158   6.703 -0.2489 -1.0658  0.2720
  811MOL0     H11904  10.846   8.921   6.237 -0.7946 -1.5494 -0.1246
  811MOL0     H11905  10.615   8.942   6.236  0.0194  0.3999  0.0782
  811MOL0     H11906  10.385   8.924   6.277  0.2242  0.1965  0.4909
  811MOL0     H11907  10.268   9.010   6.368 -0.0193 -2.1006 -0.1076
  811MOL0     H11908  10.487   9.166   6.196  0.3413  0.2088  1.3233
  811MOL0     H11909  10.383   9.232   6.322 -0.5116  0.1310 -0.0352
  811MOL0     H11910  10.291   9.054   6.084 -1.4393  1.3877 -3.8852
  811MOL0     H11911  10.181   9.151   6.189 -0.4598  1.9446 -1.1208
  811MOL0     H11912  10.364   9.271   5.976 -0.7431  0.9177 -0.9842
  811MOL0     H11913  10.283   9.363   6.101 -0.6781 -0.3121  1.4388
  811MOL0     H11914   9.964   9.246   5.833  0.1883  0.8278  0.1812
  811MOL0     H11915  10.611   9.055   6.653 -1.6328  2.8139 -1.8620
  811MOL0     H11916  10.938   9.154   6.678  0.8400 -0.7817 -2.0535
  811MOL0     H11917  10.801   9.082   6.775 -1.6127 -2.4159  0.2772
  811MOL0     H11918  10.948   8.989   6.729 -1.7540  0.0423  1.5750
  812MOL0     O11919   3.078   1.011   9.167 -0.2080  0.3041 -0.0733
  812MOL0     C11920   2.980   1.078   9.193 -0.8259  0.3116 -0.6137
  812MOL0     O11921   2.983   1.209   9.238  0.0846  0.0033  0.5867
  812MOL0     C11922   3.097   1.261   9.294 -0.7642 -0.2006 -0.1117
  812MOL0     C11923   3.225   1.235   9.240  0.5584  0.5505 -0.3578
  812MOL0     C11924   3.334   1.284   9.309 -0.1118 -0.5233  0.0441
  812MOL0     C11925   3.329   1.377   9.417  0.1139 -0.6761 -0.1952
  812MOL0     O11926   3.437   1.431   9.484 -0.9075 -0.4614  0.5353
  812MOL0     C11927   3.415   1.533   9.579  0.1316  0.5680 -0.7930
  812MOL0     C11928   3.528   1.630   9.574  0.0902  0.0082 -0.9545
  812MOL0     C11929   3.659   1.572   9.627  0.1881  0.9343 -0.3598
  812MOL0     C11930   3.774   1.673   9.657 -0.8314 -0.4831  0.2771
  812MOL0     C11931   3.906   1.588   9.671  0.2047  0.2572 -0.5925
  812MOL0     C11932   4.030   1.673   9.675  0.2680  0.0104  0.1233
  812MOL0     C11933   4.146   1.564   9.674 -0.0661  0.0534  0.1312
  812MOL0     C11934   4.290   1.621   9.680  0.0440 -0.4303 -0.2804
  812MOL0     N11935   4.346   1.679   9.552 -0.1511 -0.0639 -0.3790
  812MOL0     C11936   4.358   1.606   9.436 -0.5872 -0.0179 -0.0330
  812MOL0     C11937   4.391   1.705   9.350  0.0703 -0.7228 -0.6851
  812MOL0     C11938   4.428   1.678   9.206  0.1613 -0.4704 -0.4093
  812MOL0     C11939   4.563   1.606   9.195  0.2766  0.3931  0.0787
  812MOL0     C11940   4.611   1.597   9.052 -0.2855  0.2149 -0.2965
  812MOL0     C11941   4.592   1.723   8.973 -0.2511  0.2750  0.9013
  812MOL0     O11942   4.619   1.676   8.837  0.3385 -0.2671  0.1545
  812MOL0     C11943   4.530   1.704   8.738 -0.2967  0.6064  0.4051
  812MOL0     C11944   4.592   1.701   8.612  1.0072 -0.0222  0.1948
  812MOL0     C11945   4.508   1.711   8.499 -1.0650 -0.0460 -0.1223
  812MOL0     C11946   4.576   1.697   8.365 -0.2597  0.1394  0.0416
  812MOL0     C11947   4.373   1.726   8.514  0.5518  0.7673 -0.3182
  812MOL0     C11948   4.287   1.734   8.396  0.6331 -0.7721 -0.2986
  812MOL0     O11949   4.318   1.666   8.279  0.5696 -0.1193 -0.3971
  812MOL0     C11950   4.227   1.660   8.175  0.2162  0.3432  0.8286
  812MOL0     C11951   4.203   1.532   8.121  0.0452 -0.2483  0.1647
  812MOL0     C11952   4.122   1.519   8.011 -1.0246 -0.0822 -0.1512
  812MOL0     C11953   4.041   1.625   7.961  0.4470  0.6682  0.3523
  812MOL0     O11954   3.955   1.590   7.860  1.2196  0.3299  0.8176
  812MOL0     C11955   3.907   1.695   7.776 -0.7427 -0.2129 -0.5097
  812MOL0     C11956   3.844   1.638   7.651  0.2735  0.6083 -0.1203
  812MOL0     C11957   3.941   1.625   7.541 -0.5319  1.1488 -0.4806
  812MOL0     C11958   3.975   1.763   7.472  0.5381 -0.1299  0.1693
  812MOL0     C11959   3.995   1.755   7.325  0.1722 -0.0290  0.3450
  812MOL0     C11960   4.090   1.655   7.270 -0.4368 -0.0524  0.0260
  812MOL0     C11961   4.090   1.646   7.114  0.9365  0.2927  0.5285
  812MOL0     C11962   4.178   1.524   7.077  0.0472  0.7489  0.2510
  812MOL0    Cl11963   4.092   1.370   7.107  0.0104 -0.3862  0.2637
  812MOL0     C11964   4.069   1.746   8.011 -1.0183  0.4295  0.2432
  812MOL0     C11965   4.159   1.766   8.119 -0.6106 -0.6638 -0.4400
  812MOL0     O11966   4.190   1.811   8.408  0.6371  0.0218  0.3252
  812MOL0     C11967   4.319   1.736   8.639  0.4954 -0.1195 -0.7432
  812MOL0     C11968   4.391   1.724   8.752 -0.5343  0.0975  0.0413
  812MOL0     N11969   4.403   1.827   9.412 -0.8673  0.5186 -0.1511
  812MOL0     N11970   4.367   1.813   9.531 -0.0057 -0.3415 -0.6265
  812MOL0     C11971   3.199   1.388   9.473  0.7970  0.3334 -0.5252
  812MOL0     C11972   3.085   1.342   9.405  0.3087  0.2513 -0.4924
  812MOL0     C11973   2.852   1.030   9.133  0.3336 -0.0619  0.7550
  812MOL0     C11974   2.736   1.083   9.186 -0.5552  0.9232 -0.3597
  812MOL0     C11975   2.612   1.039   9.154  0.9569  0.6876  0.8011
  812MOL0     C11976   2.594   0.941   9.055  0.1162  1.2666  0.8529
  812MOL0     O11977   2.463   0.899   9.017 -0.5639 -0.8807 -0.5449
  812MOL0     C11978   2.349   0.963   9.078 -0.8678  0.7122 -0.0368
  812MOL0     C11979   2.231   0.918   8.996 -0.0662  0.4217 -0.4447
  812MOL0     C11980   2.229   0.993   8.858 -0.5675  0.5212  0.2631
  812MOL0     C11981   2.103   0.947   8.778 -0.3851  0.0836  0.6376
  812MOL0     C11982   2.098   1.011   8.644  0.1268 -1.1151 -0.0338
  812MOL0     C11983   2.100   1.067   8.538 -0.4080  0.0428  0.1538
  812MOL0     C11984   2.707   0.879   9.006 -0.3488 -0.0438  1.1345
  812MOL0     C11985   2.832   0.925   9.042  0.2162  1.0102  0.7310
  812MOL0     C11986   2.949   0.844   8.980  0.3714 -0.2141 -0.7284
  812MOL0     H11987   3.233   1.181   9.146 -2.3386 -0.6013 -0.0457
  812MOL0     H11988   3.435   1.272   9.273  0.4459  0.5202  1.1850
  812MOL0     H11989   3.398   1.486   9.676  2.9003  1.0958  0.0308
  812MOL0     H11990   3.330   1.596   9.553 -1.1323 -0.3849  0.8339
  812MOL0     H11991   3.529   1.678   9.475  3.3004  1.7662 -0.1887
  812MOL0     H11992   3.511   1.711   9.646  0.1696 -1.3906  0.6770
  812MOL0     H11993   3.650   1.511   9.717 -1.6744  0.7728 -0.6232
  812MOL0     H11994   3.693   1.495   9.558 -1.0420  1.6591 -1.8408
  812MOL0     H11995   3.773   1.742   9.573  1.3003  2.3295  2.3395
  812MOL0     H11996   3.758   1.734   9.747  1.5004 -1.0756  1.1795
  812MOL0     H11997   3.921   1.537   9.576  3.2414  3.0096 -1.7968
  812MOL0     H11998   3.897   1.517   9.754  1.0290  0.2285 -0.5218
  812MOL0     H11999   4.033   1.734   9.584  0.6086 -1.4615 -0.8846
  812MOL0     H12000   4.032   1.736   9.764  0.2432 -0.9804  0.8369
  812MOL0     H12001   4.142   1.501   9.585 -3.9416  1.1022 -0.6265
  812MOL0     H12002   4.127   1.496   9.758 -0.2323  1.7016  1.4897
  812MOL0     H12003   4.292   1.708   9.746  1.7553 -0.9132  0.3666
  812MOL0     H12004   4.343   1.539   9.730  1.2916  0.8992  0.6689
  812MOL0     H12005   4.361   1.500   9.410  0.3180  0.3837 -1.6408
  812MOL0     H12006   4.439   1.782   9.175  2.1130 -0.5366 -0.0449
  812MOL0     H12007   4.346   1.629   9.152 -0.0090 -1.0884  0.3843
  812MOL0     H12008   4.640   1.657   9.253  0.0342  2.4238 -1.2766
  812MOL0     H12009   4.543   1.503   9.224 -1.4167  0.7893  0.4658
  812MOL0     H12010   4.717   1.571   9.050 -0.7531 -2.0605 -2.9295
  812MOL0     H12011   4.564   1.512   9.002  1.0933 -0.2495 -0.8510
  812MOL0     H12012   4.491   1.762   8.986 -0.2409  0.1875  1.2434
  812MOL0     H12013   4.656   1.806   9.005 -2.4500  1.5109  2.4127
  812MOL0     H12014   4.699   1.683   8.599  0.8268 -1.1742  0.1888
  812MOL0     H12015   4.565   1.597   8.321 -0.8141  0.0073  0.4771
  812MOL0     H12016   4.680   1.731   8.368 -0.5084  0.9850  3.7701
  812MOL0     H12017   4.532   1.768   8.294 -1.1282 -0.5497 -0.1235
  812MOL0     H12018   4.253   1.442   8.155 -0.5499 -0.0140  1.7249
  812MOL0     H12019   4.113   1.420   7.967 -1.2586 -0.0160 -0.2526
  812MOL0     H12020   3.834   1.743   7.843  0.2067  1.2804 -0.4842
  812MOL0     H12021   3.975   1.770   7.734 -1.5944 -1.8919 -5.5049
  812MOL0     H12022   3.788   1.547   7.675  0.2908  0.5018 -0.4845
  812MOL0     H12023   3.770   1.709   7.615 -1.3022 -0.7855  0.2366
  812MOL0     H12024   3.898   1.562   7.463  0.6149 -0.9589  0.5136
  812MOL0     H12025   4.030   1.575   7.581 -1.1770  0.4021  0.0510
  812MOL0     H12026   4.057   1.812   7.526  1.0609 -0.5236 -0.2517
  812MOL0     H12027   3.891   1.833   7.481  0.1555 -0.5269 -0.2763
  812MOL0     H12028   3.900   1.737   7.273 -0.3329  1.6579  0.5844
  812MOL0     H12029   4.022   1.854   7.288  1.2521 -0.6760 -0.6426
  812MOL0     H12030   4.054   1.560   7.310 -0.0619  1.4697  4.4835
  812MOL0     H12031   4.193   1.672   7.301 -0.6306  1.8045 -0.1907
  812MOL0     H12032   4.119   1.739   7.062  0.8187 -0.4239 -0.8667
  812MOL0     H12033   3.987   1.622   7.086 -0.7370  2.1331  4.3775
  812MOL0     H12034   4.273   1.528   7.132  1.9482 -2.6377 -2.3645
  812MOL0     H12035   4.207   1.525   6.971 -2.0419 -1.8678 -0.4432
  812MOL0     H12036   4.021   1.834   7.968 -1.1850  1.0401  1.6362
  812MOL0     H12037   4.174   1.870   8.148  0.2342 -0.3106 -2.0058
  812MOL0     H12038   4.214   1.754   8.658  0.9808  0.9359  1.1280
  812MOL0     H12039   4.335   1.711   8.844 -1.5177 -0.3247 -0.6076
  812MOL0     H12040   3.186   1.432   9.571  0.4396 -1.3111  0.2146
  812MOL0     H12041   2.992   1.384   9.439 -0.0729 -1.6216  0.9913
  812MOL0     H12042   2.747   1.156   9.265  0.3986 -1.1154  1.4982
  812MOL0     H12043   2.532   1.083   9.213 -0.9651  1.2038 -1.9978
  812MOL0     H12044   2.342   0.929   9.182  1.5785  2.5596  0.8415
  812MOL0     H12045   2.355   1.072   9.081 -2.6488  0.8643 -0.9260
  812MOL0     H12046   2.134   0.919   9.047 -0.0558  1.5768 -0.4370
  812MOL0     H12047   2.247   0.816   8.960  2.4575  1.1983 -1.7122
  812MOL0     H12048   2.218   1.102   8.866 -3.1109  0.5258 -1.8946
  812MOL0     H12049   2.315   0.963   8.797 -1.5707 -0.1404 -0.8591
  812MOL0     H12050   2.014   0.977   8.834  0.9562  0.7840  2.4988
  812MOL0     H12051   2.098   0.838   8.771 -1.9981  0.1816 -0.3341
  812MOL0     H12052   2.103   1.105   8.438  3.2281 -0.9547 -0.2819
  812MOL0     H12053   2.702   0.785   8.951  0.9706  0.5782 -0.1150
  812MOL0     H12054   2.915   0.766   8.911  1.8561  1.1507 -3.1703
  812MOL0     H12055   3.021   0.902   8.921 -1.3455  2.1244 -0.6747
  812MOL0     H12056   3.004   0.792   9.059 -0.9186 -0.2500  0.1627
  813MOL0     O12057   9.741   1.319   0.780  0.1559  0.5183 -0.0877
  813MOL0     C12058   9.780   1.214   0.840 -0.4621 -0.4664  0.6362
  813MOL0     O12059   9.903   1.196   0.890  0.1255 -0.4145 -0.0669
  813MOL0     C12060  10.012   1.270   0.857  0.4855 -0.0342  1.3286
  813MOL0     C12061  10.028   1.335   0.732 -0.2380  0.0231 -1.4112
  813MOL0     C12062  10.146   1.385   0.703  1.1698 -0.4118 -0.3775
  813MOL0     C12063  10.258   1.378   0.789  0.5168  0.2265 -0.8960
  813MOL0     O12064  10.382   1.434   0.777 -0.2500  0.2639  0.5156
  813MOL0     C12065  10.428   1.437   0.642 -0.4181  0.7985  0.2475
  813MOL0     C12066  10.585   1.445   0.620 -0.6090  0.0775  0.0292
  813MOL0     C12067  10.631   1.587   0.662  0.1453  0.7019  0.2177
  813MOL0     C12068  10.677   1.605   0.806  0.4032  0.1757  0.1901
  813MOL0     C12069  10.723   1.749   0.821 -0.5071  0.2623  0.8319
  813MOL0     C12070  10.775   1.780   0.960 -0.6291  0.6689 -0.1953
  813MOL0     C12071  10.912   1.712   0.983 -0.5406  0.1643 -0.2446
  813MOL0     C12072  10.947   1.733   1.129  0.1580 -0.2538 -0.0574
  813MOL0     N12073  11.075   1.678   1.157 -0.2918 -0.2909 -0.5783
  813MOL0     C12074  11.193   1.746   1.134  0.6733  0.9375  0.0243
  813MOL0     C12075  11.290   1.659   1.186  0.5758 -0.5314 -0.2950
  813MOL0     C12076  11.437   1.683   1.170  0.3439 -0.6333  0.5957
  813MOL0     C12077  11.508   1.581   1.251 -0.7213 -0.4537  0.2486
  813MOL0     C12078  11.659   1.618   1.225 -0.0109 -0.2821  0.1684
  813MOL0     C12079  11.755   1.516   1.268 -0.3997  0.6289 -0.0463
  813MOL0     O12080  11.775   1.529   1.409 -0.3321  0.5480  0.2173
  813MOL0     C12081  11.863   1.444   1.473  0.2980  0.6037 -0.4928
  813MOL0     C12082  11.873   1.446   1.609  1.1634  0.8674 -0.1019
  813MOL0     C12083  11.969   1.389   1.692  0.5025 -0.4862  0.1399
  813MOL0     C12084  11.949   1.394   1.839 -0.1015  0.0292  0.2362
  813MOL0     C12085  12.067   1.319   1.626 -0.2691  0.1847 -0.1920
  813MOL0     C12086  12.182   1.244   1.688 -0.1839 -0.5675 -0.2281
  813MOL0     O12087  12.242   1.290   1.799  0.2627 -0.4940 -0.1407
  813MOL0     C12088  12.319   1.204   1.869  1.1138 -0.4574  0.6014
  813MOL0     C12089  12.269   1.145   1.989  0.1210  0.4714  0.9665
  813MOL0     C12090  12.361   1.060   2.058  0.0755 -0.2090 -0.8092
  813MOL0     C12091  12.487   1.036   2.013 -0.4493 -0.2028  1.0598
  813MOL0     O12092  12.564   0.953   2.091 -0.2837  0.1624  0.8760
  813MOL0     C12093  12.705   0.948   2.063 -0.0557  0.1658  0.2042
  813MOL0     C12094  12.767   0.849   2.170 -0.0546  0.3614  1.0690
  813MOL0     C12095  12.918   0.861   2.165  0.0044 -0.3034 -0.8224
  813MOL0     C12096  12.975   0.779   2.283 -0.3356  0.2377 -0.2486
  813MOL0     C12097  13.124   0.772   2.267  0.0508 -0.1991  1.0111
  813MOL0     C12098  13.187   0.710   2.146  0.1930  0.5181 -0.1668
  813MOL0     C12099  13.330   0.672   2.175  0.6661 -0.0122 -0.3612
  813MOL0     C12100  13.414   0.648   2.049  0.1481  0.4822 -0.0181
  813MOL0    Cl12101  13.574   0.590   2.098  0.1806 -0.6257 -0.1029
  813MOL0     C12102  12.530   1.103   1.902  0.1137 -0.6596  0.4456
  813MOL0     C12103  12.448   1.184   1.831  0.1722 -0.2545  0.0645
  813MOL0     O12104  12.217   1.144   1.628 -0.2673 -1.3048 -1.0198
  813MOL0     C12105  12.060   1.307   1.487 -0.2842 -0.2002 -0.1884
  813MOL0     C12106  11.960   1.368   1.402 -0.5549 -0.3711 -0.0934
  813MOL0     N12107  11.223   1.544   1.238 -0.3339  0.0471 -0.4218
  813MOL0     N12108  11.097   1.569   1.220 -0.2730  0.5641  0.5177
  813MOL0     C12109  10.236   1.326   0.916  0.4283  0.5793  0.5655
  813MOL0     C12110  10.115   1.273   0.948  0.7489  0.2661 -0.4735
  813MOL0     C12111   9.693   1.097   0.839  0.0470 -0.1118 -0.3848
  813MOL0     C12112   9.750   0.974   0.796 -0.2062 -0.9508  0.2066
  813MOL0     C12113   9.671   0.861   0.796  0.1403  0.2751  0.9401
  813MOL0     C12114   9.530   0.864   0.831  0.0521 -0.0624 -0.0299
  813MOL0     O12115   9.454   0.747   0.831 -0.1677 -0.8829 -0.8299
  813MOL0     C12116   9.328   0.749   0.892  0.7585  0.9337  0.1975
  813MOL0     C12117   9.267   0.611   0.909 -0.1553 -0.2064 -0.2291
  813MOL0     C12118   9.253   0.524   0.781 -0.6894 -0.0910 -0.1293
  813MOL0     C12119   9.203   0.383   0.812  0.1679  0.5184 -1.0606
  813MOL0     C12120   9.060   0.387   0.841 -0.0150 -0.5295  0.4239
  813MOL0     C12121   8.941   0.379   0.865 -0.6716 -0.0951 -0.1243
  813MOL0     C12122   9.485   0.988   0.871 -0.8072  0.1221 -0.6127
  813MOL0     C12123   9.557   1.109   0.871 -0.0353  0.6882  0.1273
  813MOL0     C12124   9.481   1.236   0.910 -0.3138 -1.1903 -0.4435
  813MOL0     H12125   9.950   1.318   0.658  0.8123  0.1484 -2.5773
  813MOL0     H12126  10.150   1.438   0.608  0.0337  1.6296  0.6382
  813MOL0     H12127  10.381   1.520   0.589 -2.6539 -1.6232 -1.8584
  813MOL0     H12128  10.406   1.340   0.597 -1.4829  1.1726 -0.0656
  813MOL0     H12129  10.637   1.380   0.690 -0.5202 -1.0262 -1.0270
  813MOL0     H12130  10.611   1.407   0.521  0.2496 -1.5446  0.8471
  813MOL0     H12131  10.717   1.596   0.596 -0.7666 -1.3687 -1.3925
  813MOL0     H12132  10.564   1.671   0.638 -0.1836  0.7850  1.3859
  813MOL0     H12133  10.593   1.587   0.874 -0.2980 -1.9789 -1.1259
  813MOL0     H12134  10.759   1.537   0.829  0.1604  0.6723  2.8412
  813MOL0     H12135  10.640   1.816   0.797  2.6794  3.9960 -0.9431
  813MOL0     H12136  10.806   1.765   0.751  0.7717  2.3091  2.6896
  813MOL0     H12137  10.790   1.888   0.970 -1.1277  0.7626 -0.4362
  813MOL0     H12138  10.703   1.739   1.032 -2.4313 -1.8345 -3.1650
  813MOL0     H12139  10.988   1.750   0.914 -2.0910  2.6694 -0.7156
  813MOL0     H12140  10.911   1.605   0.961  2.9140 -0.5049  2.0579
  813MOL0     H12141  10.950   1.837   1.162 -4.4207  0.3447 -0.8915
  813MOL0     H12142  10.868   1.682   1.186 -0.9255 -0.0693 -1.3459
  813MOL0     H12143  11.207   1.841   1.083 -0.7176  0.1846 -1.8601
  813MOL0     H12144  11.447   1.787   1.204 -3.6263 -1.4372  5.2911
  813MOL0     H12145  11.467   1.670   1.066 -1.7269 -0.8172 -0.0168
  813MOL0     H12146  11.478   1.585   1.357 -0.9794  0.1094  0.1598
  813MOL0     H12147  11.486   1.481   1.213 -0.0851 -1.1407  1.6162
  813MOL0     H12148  11.667   1.636   1.118  0.1622  0.6168  0.3246
  813MOL0     H12149  11.688   1.715   1.267  2.4971 -0.4616 -1.0037
  813MOL0     H12150  11.714   1.415   1.258 -0.7537  0.6678  0.9114
  813MOL0     H12151  11.840   1.532   1.201  1.1138  1.0390  1.9013
  813MOL0     H12152  11.793   1.503   1.655 -2.3693 -3.1387 -0.7319
  813MOL0     H12153  12.010   1.322   1.894  2.2753  2.3838  0.9360
  813MOL0     H12154  11.847   1.390   1.878  0.3534 -3.9197  1.4062
  813MOL0     H12155  11.987   1.489   1.878 -0.4267  0.2030  0.1358
  813MOL0     H12156  12.168   1.174   2.016 -1.5976 -1.9532 -2.1357
  813MOL0     H12157  12.330   1.006   2.147  0.9763  1.2197  0.4269
  813MOL0     H12158  12.727   0.904   1.965  1.5277 -1.1984  1.1190
  813MOL0     H12159  12.746   1.049   2.067 -2.0503  0.9750  1.9882
  813MOL0     H12160  12.737   0.864   2.274  0.0538 -2.4249  1.5817
  813MOL0     H12161  12.726   0.750   2.145 -0.2706  0.0105  2.7322
  813MOL0     H12162  12.946   0.966   2.173 -2.6667  0.3610  0.8981
  813MOL0     H12163  12.951   0.824   2.068 -1.3513 -0.4199 -1.2564
  813MOL0     H12164  12.930   0.680   2.287 -0.1187  0.0515 -1.6563
  813MOL0     H12165  12.941   0.822   2.377  0.7435 -0.9129  0.7073
  813MOL0     H12166  13.156   0.876   2.273 -2.8777  0.9208 -0.5587
  813MOL0     H12167  13.165   0.725   2.357  2.8233  0.1784  0.0315
  813MOL0     H12168  13.188   0.785   2.067  0.9641  0.2705 -0.3990
  813MOL0     H12169  13.129   0.622   2.118 -0.9704  1.9091 -2.3468
  813MOL0     H12170  13.329   0.583   2.240 -0.2446  0.2943  0.0643
  813MOL0     H12171  13.378   0.756   2.226 -0.5622  0.4465  0.0730
  813MOL0     H12172  13.425   0.736   1.984  1.5369 -0.8620 -1.7293
  813MOL0     H12173  13.364   0.573   1.987 -1.7662  0.6465  1.2448
  813MOL0     H12174  12.633   1.086   1.869 -0.4661 -1.6784 -0.9537
  813MOL0     H12175  12.480   1.231   1.739 -0.1051 -2.5778 -1.2936
  813MOL0     H12176  12.138   1.250   1.438 -1.0941 -1.9455  0.4821
  813MOL0     H12177  11.971   1.353   1.295  2.2952  0.8022 -0.0424
  813MOL0     H12178  10.313   1.320   0.992 -1.6316 -0.8243  2.6768
  813MOL0     H12179  10.113   1.226   1.046 -0.2022  0.8021 -0.2179
  813MOL0     H12180   9.858   0.967   0.782 -0.3087 -0.9823 -0.5760
  813MOL0     H12181   9.719   0.764   0.787  1.4325  0.6538  2.9924
  813MOL0     H12182   9.333   0.790   0.993  1.2270  0.0364  0.5577
  813MOL0     H12183   9.250   0.794   0.830  0.5189 -1.6101 -1.5012
  813MOL0     H12184   9.170   0.630   0.955  0.3008  3.9557 -0.5924
  813MOL0     H12185   9.322   0.551   0.983 -1.7242 -2.7210 -0.9729
  813MOL0     H12186   9.174   0.570   0.721 -1.4920  0.3359  1.2042
  813MOL0     H12187   9.348   0.517   0.727 -0.9350 -0.2634 -0.5470
  813MOL0     H12188   9.250   0.328   0.894 -3.1597  0.0471  0.7375
  813MOL0     H12189   9.225   0.325   0.723  2.2336 -0.5539  0.0744
  813MOL0     H12190   8.834   0.380   0.875 -0.9580  1.0278 -2.5409
  813MOL0     H12191   9.379   0.985   0.890 -1.0421 -1.3959 -1.8947
  813MOL0     H12192   9.450   1.286   0.818  1.9236 -1.5518 -1.4632
  813MOL0     H12193   9.386   1.215   0.961 -0.3622 -1.1558 -0.5194
  813MOL0     H12194   9.553   1.299   0.963 -0.9027 -0.3635 -0.6151
  814MOL0     O12195   4.273   5.938   6.569  0.3033 -0.5352 -0.4551
  814MOL0     C12196   4.256   5.820   6.538  0.2402 -0.2875  0.2328
  814MOL0     O12197   4.355   5.729   6.543  0.1417  0.0671  0.1573
  814MOL0     C12198   4.471   5.751   6.607  1.3304 -0.1708  0.7117
  814MOL0     C12199   4.467   5.771   6.750 -0.2889  0.1667  0.3751
  814MOL0     C12200   4.583   5.810   6.815  0.5959  0.4104  0.3560
  814MOL0     C12201   4.703   5.840   6.753 -0.4997  0.8850 -0.9489
  814MOL0     O12202   4.824   5.896   6.794  0.5756 -0.4792  0.2306
  814MOL0     C12203   4.839   5.925   6.925 -0.7406  0.4578  0.2455
  814MOL0     C12204   4.966   5.861   6.971  0.8299 -0.0044  0.7346
  814MOL0     C12205   4.930   5.721   7.033  0.7532  0.2504 -0.2159
  814MOL0     C12206   5.047   5.624   7.061  0.0317  0.6117  0.5387
  814MOL0     C12207   5.176   5.690   7.128 -0.0751 -0.0128  0.9474
  814MOL0     C12208   5.283   5.588   7.156  0.0190 -1.2282  0.1078
  814MOL0     C12209   5.386   5.648   7.247 -0.3646 -0.3307 -0.1634
  814MOL0     C12210   5.453   5.788   7.215  0.9800  0.5614 -0.2422
  814MOL0     N12211   5.559   5.807   7.314 -0.3334  0.0903  0.2784
  814MOL0     C12212   5.690   5.763   7.315 -0.4411  0.1334  0.0759
  814MOL0     C12213   5.747   5.803   7.428 -0.5016  0.3255  0.5069
  814MOL0     C12214   5.879   5.776   7.489  0.5871 -0.1703 -0.3360
  814MOL0     C12215   5.976   5.884   7.461  0.0298  0.4444 -0.8578
  814MOL0     C12216   6.121   5.836   7.510  0.9914 -0.4998 -0.7331
  814MOL0     C12217   6.223   5.946   7.503  0.2087  0.5979  1.9331
  814MOL0     O12218   6.247   5.988   7.364  0.1788 -0.0334  0.0934
  814MOL0     C12219   6.376   5.986   7.315 -0.3795 -0.0002  0.2431
  814MOL0     C12220   6.442   6.101   7.288 -0.2352 -0.7135 -0.3711
  814MOL0     C12221   6.560   6.096   7.207  1.0700 -0.1250 -0.3111
  814MOL0     C12222   6.629   6.223   7.169  0.7595 -0.1033  0.4000
  814MOL0     C12223   6.607   5.967   7.162 -0.7274 -0.4581 -0.2230
  814MOL0     C12224   6.740   5.940   7.097 -0.1465 -0.8579  1.0359
  814MOL0     O12225   6.777   5.811   7.087 -0.3108 -0.0190 -0.2053
  814MOL0     C12226   6.907   5.777   7.051  0.3161  0.0980  0.4138
  814MOL0     C12227   6.935   5.765   6.916  0.5093 -0.0779  0.0532
  814MOL0     C12228   7.060   5.728   6.865 -0.7462  1.4008  0.0775
  814MOL0     C12229   7.162   5.712   6.952  0.3741  0.5982 -0.5468
  814MOL0     O12230   7.286   5.682   6.900  0.7631 -0.1669 -0.0491
  814MOL0     C12231   7.304   5.541   6.862  0.2500  0.0735 -0.2292
  814MOL0     C12232   7.291   5.448   6.984 -0.7593 -0.6238  0.7534
  814MOL0     C12233   7.401   5.456   7.088  0.2400  0.4898 -0.2608
  814MOL0     C12234   7.526   5.380   7.031 -0.2919  0.6703  0.2599
  814MOL0     C12235   7.638   5.381   7.135  0.2279  0.0704 -0.2079
  814MOL0     C12236   7.762   5.302   7.085  0.5859 -0.5098  0.2571
  814MOL0     C12237   7.871   5.286   7.192 -0.4331  0.1482  0.2971
  814MOL0     C12238   7.982   5.202   7.155 -0.4954 -1.1429 -0.6180
  814MOL0    Cl12239   8.077   5.265   7.021  0.0141 -0.3203 -0.1699
  814MOL0     C12240   7.143   5.730   7.080 -0.1624 -0.8691 -1.0195
  814MOL0     C12241   7.017   5.754   7.134 -0.0408  0.2789 -1.0271
  814MOL0     O12242   6.811   6.037   7.065  0.2059  0.1540 -0.0832
  814MOL0     C12243   6.535   5.854   7.205  0.3321 -0.0238 -0.0874
  814MOL0     C12244   6.422   5.864   7.279 -0.0129 -0.1855 -0.0926
  814MOL0     N12245   5.643   5.872   7.488  0.6050  0.2534 -0.1602
  814MOL0     N12246   5.536   5.878   7.422 -0.0070  0.1886  0.2922
  814MOL0     C12247   4.706   5.815   6.614 -0.2032  0.7305 -0.0284
  814MOL0     C12248   4.590   5.766   6.541  0.0927  0.6447  0.4369
  814MOL0     C12249   4.126   5.774   6.478 -0.1922  0.1682  0.0056
  814MOL0     C12250   4.108   5.633   6.461  0.3575  0.8345  0.4579
  814MOL0     C12251   3.986   5.594   6.408 -0.6056  0.1447  0.2398
  814MOL0     C12252   3.884   5.678   6.360 -0.0410  0.7398 -0.4530
  814MOL0     O12253   3.758   5.613   6.334  0.1484  0.3063 -0.2310
  814MOL0     C12254   3.637   5.678   6.334  0.3973 -0.7336 -0.1737
  814MOL0     C12255   3.528   5.580   6.318  0.0685  0.4450  0.1143
  814MOL0     C12256   3.385   5.628   6.352 -0.5902 -0.1731  0.0739
  814MOL0     C12257   3.289   5.511   6.388 -0.4605 -0.5619 -0.9691
  814MOL0     C12258   3.146   5.558   6.420 -0.2296  1.5402  0.6073
  814MOL0     C12259   3.028   5.596   6.433  0.3677  0.4179  0.6308
  814MOL0     C12260   3.904   5.810   6.383 -0.1241  0.4496  0.1849
  814MOL0     C12261   4.016   5.862   6.450 -0.1590 -0.3574 -0.3269
  814MOL0     C12262   4.009   6.009   6.482 -0.4308  0.0607  0.2386
  814MOL0     H12263   4.369   5.757   6.795 -1.1073  1.0960 -1.0392
  814MOL0     H12264   4.572   5.842   6.918 -0.2316 -2.3480  1.2060
  814MOL0     H12265   4.753   5.892   6.983 -0.5869  0.1386  0.2897
  814MOL0     H12266   4.859   6.033   6.926 -0.4447  0.5130 -3.0159
  814MOL0     H12267   5.046   5.846   6.898  0.4800 -0.5558  0.4621
  814MOL0     H12268   5.011   5.931   7.043  3.8791  1.3211 -2.1944
  814MOL0     H12269   4.883   5.743   7.130  0.2578  4.3190 -1.2056
  814MOL0     H12270   4.862   5.671   6.964  0.2029 -0.5176  0.8376
  814MOL0     H12271   5.013   5.539   7.120  0.2443  1.0687  1.3329
  814MOL0     H12272   5.076   5.581   6.965  1.2237 -1.5046  1.7748
  814MOL0     H12273   5.136   5.739   7.217 -0.2362 -2.5274  2.3420
  814MOL0     H12274   5.214   5.758   7.051  3.2906  0.0527  2.4896
  814MOL0     H12275   5.239   5.498   7.200 -0.1628 -1.1643  0.0583
  814MOL0     H12276   5.326   5.560   7.060 -1.4720  2.5950 -1.9194
  814MOL0     H12277   5.464   5.571   7.254  0.2259  0.1986 -0.7514
  814MOL0     H12278   5.353   5.642   7.351 -0.3395 -1.7813 -0.2070
  814MOL0     H12279   5.490   5.787   7.112  1.2139 -1.0316 -0.1776
  814MOL0     H12280   5.370   5.859   7.219 -0.9955 -1.3818 -2.9005
  814MOL0     H12281   5.744   5.716   7.234 -1.6951  1.1250 -1.3919
  814MOL0     H12282   5.905   5.674   7.460 -3.1386 -1.4867  0.3659
  814MOL0     H12283   5.872   5.766   7.598  2.7436  1.8689  0.0751
  814MOL0     H12284   5.987   5.898   7.353  1.6402 -2.8440 -1.2478
  814MOL0     H12285   5.927   5.967   7.513 -3.1900 -2.8495  1.8972
  814MOL0     H12286   6.115   5.819   7.618  4.3697  2.4973  0.1097
  814MOL0     H12287   6.156   5.752   7.450 -0.2205  1.7446 -4.9663
  814MOL0     H12288   6.179   6.023   7.568 -1.1684 -2.0085  4.2954
  814MOL0     H12289   6.315   5.905   7.546 -0.3396 -3.5192 -0.3649
  814MOL0     H12290   6.399   6.189   7.336 -0.7171 -1.0440 -0.1868
  814MOL0     H12291   6.729   6.222   7.213  1.3375 -1.1037 -0.8341
  814MOL0     H12292   6.575   6.316   7.184 -0.3939 -0.7277  0.2577
  814MOL0     H12293   6.646   6.210   7.061  2.2555 -1.5591  0.7701
  814MOL0     H12294   6.849   5.783   6.851  1.1634  2.4075 -0.1922
  814MOL0     H12295   7.073   5.721   6.758 -3.1904 -3.7466 -0.1746
  814MOL0     H12296   7.227   5.508   6.791 -0.0281  0.6481 -0.2011
  814MOL0     H12297   7.401   5.525   6.814  0.0059  0.9068 -1.0188
  814MOL0     H12298   7.189   5.462   7.023 -0.7782  1.2145  0.1302
  814MOL0     H12299   7.287   5.348   6.938 -3.1807  0.3053 -1.3175
  814MOL0     H12300   7.366   5.414   7.184  1.9677  1.6661  0.9417
  814MOL0     H12301   7.430   5.560   7.100 -0.7149  0.7534 -0.2056
  814MOL0     H12302   7.555   5.434   6.940 -1.9784 -0.5832 -1.0936
  814MOL0     H12303   7.503   5.276   7.006  2.0810  0.1620  0.0302
  814MOL0     H12304   7.671   5.485   7.150  2.7322 -0.6536 -0.1969
  814MOL0     H12305   7.613   5.342   7.234  2.0683  0.2052  0.3531
  814MOL0     H12306   7.808   5.354   7.001 -0.9301  0.9290  0.2755
  814MOL0     H12307   7.739   5.200   7.052  3.0497 -0.9793 -0.1584
  814MOL0     H12308   7.822   5.235   7.276 -0.2426 -1.8144 -0.7078
  814MOL0     H12309   7.916   5.382   7.216  0.5237  0.2744 -1.7951
  814MOL0     H12310   7.931   5.112   7.121 -1.7443 -1.0707  0.9464
  814MOL0     H12311   8.047   5.185   7.241 -1.1102  1.0598  0.3672
  814MOL0     H12312   7.235   5.720   7.137 -0.5959 -0.2837 -0.2076
  814MOL0     H12313   6.993   5.748   7.240 -0.9360 -1.6983 -1.3118
  814MOL0     H12314   6.574   5.759   7.169  2.8758  1.5214 -1.7433
  814MOL0     H12315   6.366   5.774   7.302  1.8310 -1.1788  0.6909
  814MOL0     H12316   4.800   5.818   6.560 -1.2261  1.3667 -1.8446
  814MOL0     H12317   4.600   5.750   6.435 -0.7587 -1.2889  0.6145
  814MOL0     H12318   4.188   5.571   6.501  2.0709  2.4541 -0.2895
  814MOL0     H12319   3.962   5.489   6.417 -2.3485  0.6620  2.3966
  814MOL0     H12320   3.618   5.730   6.429  1.6714  0.3999 -0.4966
  814MOL0     H12321   3.637   5.758   6.260  3.6012  0.4099  0.8574
  814MOL0     H12322   3.543   5.501   6.392 -2.7123 -1.3710 -1.1013
  814MOL0     H12323   3.532   5.536   6.218  2.0752 -1.6188  1.0072
  814MOL0     H12324   3.394   5.696   6.437  1.2545 -1.9778  1.4320
  814MOL0     H12325   3.347   5.684   6.266 -1.9516 -1.0957  0.0473
  814MOL0     H12326   3.326   5.480   6.486 -4.2935  3.3573  2.1140
  814MOL0     H12327   3.287   5.435   6.310 -0.2454 -0.2412 -1.2875
  814MOL0     H12328   2.925   5.623   6.431  0.7275  1.8494 -0.5674
  814MOL0     H12329   3.814   5.860   6.346  0.4196 -0.0931 -2.0478
  814MOL0     H12330   3.908   6.050   6.476  0.8028  3.1553 -1.7312
  814MOL0     H12331   4.052   6.031   6.580  1.3519  1.6141 -0.8279
  814MOL0     H12332   4.073   6.064   6.413  2.7932  0.8187  3.4984
  815MOL0     O12333   4.834   0.588   8.467 -0.0929 -0.0236 -0.6452
  815MOL0     C12334   4.880   0.508   8.386 -0.4016  0.2957  0.0207
  815MOL0     O12335   5.012   0.460   8.385 -0.4653  0.3066 -0.3913
  815MOL0     C12336   5.111   0.537   8.435  0.1831  0.3793 -0.1608
  815MOL0     C12337   5.118   0.677   8.419 -0.7071 -0.1163  0.4228
  815MOL0     C12338   5.223   0.752   8.470 -0.0292 -0.1405 -0.5561
  815MOL0     C12339   5.339   0.683   8.521 -0.1769  0.6223  0.0854
  815MOL0     O12340   5.445   0.752   8.581  0.1433 -0.2896 -0.1566
  815MOL0     C12341   5.473   0.883   8.524 -0.2309  0.6783  0.2389
  815MOL0     C12342   5.593   0.952   8.584  0.3640 -0.0140 -0.3294
  815MOL0     C12343   5.719   0.875   8.553 -0.0214 -0.8356 -0.2500
  815MOL0     C12344   5.840   0.953   8.623  0.3038  0.2672 -0.0598
  815MOL0     C12345   5.970   0.906   8.556 -0.4447 -0.1448 -0.4427
  815MOL0     C12346   6.102   0.976   8.597 -0.4770  0.3188 -0.4112
  815MOL0     C12347   6.219   0.931   8.518 -0.9319 -0.5052 -0.0437
  815MOL0     C12348   6.351   0.962   8.571 -0.4428  0.3517 -0.4965
  815MOL0     N12349   6.459   0.903   8.498 -0.3566  0.3012  0.6038
  815MOL0     C12350   6.514   0.788   8.536  0.4070  0.1047  0.3995
  815MOL0     C12351   6.604   0.759   8.439 -0.1427 -0.0522  0.0316
  815MOL0     C12352   6.673   0.631   8.433  0.6120  0.2442 -0.3953
  815MOL0     C12353   6.759   0.611   8.563  0.0654 -0.3601 -0.3084
  815MOL0     C12354   6.843   0.482   8.550  0.2211 -0.2019 -0.2855
  815MOL0     C12355   6.930   0.453   8.683 -0.7307 -0.5321  0.0255
  815MOL0     O12356   7.008   0.334   8.672  0.0039 -0.2913 -0.5163
  815MOL0     C12357   7.137   0.337   8.616 -0.5425 -0.7625  0.0126
  815MOL0     C12358   7.207   0.212   8.617  0.3461  0.2399  0.0149
  815MOL0     C12359   7.338   0.209   8.554 -0.7833 -0.0591  0.3317
  815MOL0     C12360   7.410   0.079   8.540 -0.0889 -0.2504 -0.5142
  815MOL0     C12361   7.396   0.328   8.502 -0.3028 -0.1034 -0.0293
  815MOL0     C12362   7.535   0.331   8.450  0.0183 -0.2016  1.4221
  815MOL0     O12363   7.565   0.426   8.361  0.0817  0.2164 -0.4103
  815MOL0     C12364   7.675   0.435   8.279 -0.3645  0.0171 -0.4833
  815MOL0     C12365   7.801   0.385   8.312 -0.0949 -0.2136 -0.1672
  815MOL0     C12366   7.909   0.410   8.229 -0.3420 -1.6080  1.0676
  815MOL0     C12367   7.900   0.490   8.114 -0.2753 -0.4175  0.3144
  815MOL0     O12368   8.014   0.509   8.038 -0.3649  0.5046  1.0679
  815MOL0     C12369   8.002   0.568   7.906  0.4250 -0.2421 -0.8688
  815MOL0     C12370   8.147   0.571   7.844  0.5221 -0.5249  0.0253
  815MOL0     C12371   8.192   0.425   7.813 -0.4046 -0.7347  0.3559
  815MOL0     C12372   8.356   0.412   7.809  0.1615 -0.0118  0.5212
  815MOL0     C12373   8.403   0.283   7.727 -0.7113  0.7984  0.3915
  815MOL0     C12374   8.422   0.313   7.571  0.3173 -0.4692 -0.3349
  815MOL0     C12375   8.465   0.188   7.487 -0.3217  0.1364  0.5976
  815MOL0     C12376   8.365   0.078   7.470 -0.1382 -0.0656 -0.4543
  815MOL0    Cl12377   8.449  -0.078   7.427 -0.0603  0.0957 -0.2663
  815MOL0     C12378   7.767   0.524   8.071 -0.1450 -0.6290  0.2080
  815MOL0     C12379   7.659   0.502   8.155 -0.2623 -0.1387 -0.2304
  815MOL0     O12380   7.610   0.274   8.527 -0.1838 -0.1409 -0.2986
  815MOL0     C12381   7.323   0.446   8.498  0.3483 -0.0756 -0.1147
  815MOL0     C12382   7.189   0.447   8.549 -0.3912 -0.2325  0.0801
  815MOL0     N12383   6.600   0.866   8.350  0.1881 -0.0559 -0.5943
  815MOL0     N12384   6.509   0.949   8.387  0.0143  0.2025  0.1193
  815MOL0     C12385   5.331   0.540   8.537  0.6465  0.1347  0.7655
  815MOL0     C12386   5.217   0.471   8.497  0.1253  0.0853  1.4660
  815MOL0     C12387   4.784   0.462   8.285  0.2779 -0.2998 -0.2397
  815MOL0     C12388   4.653   0.488   8.309  0.1948 -0.1247  0.1480
  815MOL0     C12389   4.551   0.449   8.220 -0.2419  0.2088 -0.0811
  815MOL0     C12390   4.587   0.376   8.105 -0.1216  0.0065  0.2039
  815MOL0     O12391   4.506   0.316   8.010 -0.7083 -0.7189 -1.1054
  815MOL0     C12392   4.365   0.322   8.044 -0.3480 -0.4352  0.2470
  815MOL0     C12393   4.293   0.421   7.951 -0.4261  0.0891 -0.0601
  815MOL0     C12394   4.240   0.547   8.026  0.1947  0.5748 -0.1412
  815MOL0     C12395   4.187   0.666   7.937  0.3787  0.4184 -0.0445
  815MOL0     C12396   4.060   0.623   7.886 -0.0078 -0.3566 -0.4263
  815MOL0     C12397   3.958   0.570   7.841  0.4712 -0.2345 -0.1928
  815MOL0     C12398   4.721   0.353   8.087  0.7043 -0.3485  0.1847
  815MOL0     C12399   4.819   0.406   8.167 -0.5914 -0.3990 -0.3073
  815MOL0     C12400   4.956   0.402   8.116  0.4212  0.2859  0.0640
  815MOL0     H12401   5.036   0.737   8.383  0.5128 -0.4495 -3.3831
  815MOL0     H12402   5.210   0.860   8.480  0.5931 -0.2728  2.6563
  815MOL0     H12403   5.389   0.953   8.528 -2.0334 -1.1554 -2.6060
  815MOL0     H12404   5.498   0.879   8.418  0.6750  1.4546  0.4089
  815MOL0     H12405   5.594   1.049   8.535  0.6398  0.1591  0.0145
  815MOL0     H12406   5.588   0.966   8.692  3.1573  2.0442 -0.3452
  815MOL0     H12407   5.710   0.779   8.605  1.2219 -1.2185 -0.6945
  815MOL0     H12408   5.732   0.858   8.445  4.8089 -0.3668  0.0507
  815MOL0     H12409   5.838   1.062   8.611  2.9778  0.7650  2.9119
  815MOL0     H12410   5.847   0.936   8.731  1.9071 -2.1733 -0.4591
  815MOL0     H12411   5.954   0.932   8.451 -3.3102  1.8282  0.3879
  815MOL0     H12412   5.985   0.798   8.569 -0.9618 -0.0049  1.5179
  815MOL0     H12413   6.097   1.085   8.582 -0.2963  0.3239 -0.4343
  815MOL0     H12414   6.133   0.953   8.699  2.3507  0.2422 -1.2108
  815MOL0     H12415   6.214   0.970   8.416 -1.0354  4.1788  1.5252
  815MOL0     H12416   6.197   0.824   8.509 -3.1008  0.0584 -3.4884
  815MOL0     H12417   6.357   1.071   8.580  0.7325  0.6018 -3.1867
  815MOL0     H12418   6.343   0.931   8.675 -1.7188  0.1887 -0.6344
  815MOL0     H12419   6.479   0.721   8.614  0.6682 -0.7719 -0.2240
  815MOL0     H12420   6.746   0.627   8.351  1.6223  2.6689  0.3231
  815MOL0     H12421   6.596   0.554   8.422 -0.5273  0.8554  2.6239
  815MOL0     H12422   6.820   0.702   8.569 -1.4667  1.0510 -3.6234
  815MOL0     H12423   6.701   0.603   8.655  0.7019 -2.0175 -0.0240
  815MOL0     H12424   6.776   0.400   8.522 -1.7865  2.0102 -2.4788
  815MOL0     H12425   6.906   0.516   8.467 -0.1137  2.7108  0.5412
  815MOL0     H12426   6.996   0.538   8.699  0.0476 -1.1343  0.0697
  815MOL0     H12427   6.858   0.440   8.765 -0.7655  1.5157  0.3709
  815MOL0     H12428   7.163   0.121   8.655  2.4352 -1.2062 -0.8024
  815MOL0     H12429   7.339  -0.004   8.544  1.4101 -1.7374 -2.3346
  815MOL0     H12430   7.482   0.068   8.622  0.5386 -0.3605 -1.0665
  815MOL0     H12431   7.459   0.068   8.442 -4.0496  1.8360 -3.0086
  815MOL0     H12432   7.824   0.346   8.410  1.5738  0.8928 -0.0702
  815MOL0     H12433   8.012   0.382   8.245  0.3052  0.0250  0.0272
  815MOL0     H12434   7.941   0.508   7.838  1.5675  0.2033 -2.3423
  815MOL0     H12435   7.958   0.669   7.909 -0.0965 -0.4822  1.3783
  815MOL0     H12436   8.140   0.625   7.750  0.5921 -1.9593 -0.8246
  815MOL0     H12437   8.215   0.619   7.915  0.9290 -1.0692  0.0019
  815MOL0     H12438   8.165   0.408   7.709 -0.9940  1.6528  0.0409
  815MOL0     H12439   8.138   0.354   7.876  0.1608 -0.7771  0.8033
  815MOL0     H12440   8.403   0.409   7.907  0.6843  0.5796  0.2981
  815MOL0     H12441   8.400   0.501   7.762  1.7329 -1.1984 -0.3781
  815MOL0     H12442   8.495   0.237   7.764 -1.5764  0.5947  2.4474
  815MOL0     H12443   8.324   0.210   7.745 -0.4544  1.0249  2.8105
  815MOL0     H12444   8.506   0.383   7.566 -0.4184  0.3592 -2.0102
  815MOL0     H12445   8.331   0.354   7.525  1.4557 -0.6181 -2.8863
  815MOL0     H12446   8.547   0.145   7.545  0.9131 -0.3431 -1.4077
  815MOL0     H12447   8.498   0.224   7.389 -0.6043  1.3349  0.9308
  815MOL0     H12448   8.290   0.094   7.391  1.1592  0.0065 -1.7074
  815MOL0     H12449   8.308   0.070   7.563  0.2725 -0.2152 -0.2145
  815MOL0     H12450   7.754   0.572   7.975 -1.1946 -1.9304 -0.3239
  815MOL0     H12451   7.560   0.528   8.119 -0.0072 -0.3953 -1.1551
  815MOL0     H12452   7.362   0.540   8.458  0.2138  0.3030  0.6335
  815MOL0     H12453   7.135   0.539   8.529 -1.7143 -1.1415 -0.6872
  815MOL0     H12454   5.410   0.475   8.572  0.8295  1.4182  2.8516
  815MOL0     H12455   5.223   0.363   8.506 -0.6854  0.0386  1.5526
  815MOL0     H12456   4.623   0.539   8.399  2.4279  2.7638 -0.6030
  815MOL0     H12457   4.448   0.476   8.238 -0.2697 -0.1133  0.2539
  815MOL0     H12458   4.332   0.221   8.019 -1.1989  0.5295 -2.9593
  815MOL0     H12459   4.344   0.325   8.151  1.7576 -0.3498  0.7026
  815MOL0     H12460   4.201   0.375   7.912  0.2975 -1.8675  0.3792
  815MOL0     H12461   4.350   0.449   7.862 -0.1050 -1.8184 -0.5194
  815MOL0     H12462   4.162   0.514   8.095  0.4814  1.2681  0.5292
  815MOL0     H12463   4.320   0.596   8.083  0.1518  0.6399 -0.1367
  815MOL0     H12464   4.252   0.689   7.853  0.1697 -3.3112 -1.4161
  815MOL0     H12465   4.165   0.757   7.994  1.1626  3.7190 -4.5602
  815MOL0     H12466   3.868   0.538   7.794 -0.0204 -1.5274  1.5309
  815MOL0     H12467   4.745   0.304   7.993  0.5621 -0.4982  0.2265
  815MOL0     H12468   5.013   0.327   8.172  0.4867  0.3085  0.0275
  815MOL0     H12469   4.953   0.368   8.012 -1.5849 -2.0977  0.7951
  815MOL0     H12470   5.006   0.499   8.121  2.3361 -0.6019 -0.7871
  816MOL0     O12471   6.397  10.126   4.210 -0.9106 -0.7017 -0.3613
  816MOL0     C12472   6.304  10.182   4.265 -0.4855 -1.7335  1.2110
  816MOL0     O12473   6.282  10.314   4.272 -0.0797  0.2978  0.2803
  816MOL0     C12474   6.388  10.409   4.255 -0.0147  0.4347 -0.0368
  816MOL0     C12475   6.529  10.375   4.275  0.3913 -0.6282  0.1659
  816MOL0     C12476   6.623  10.474   4.254  0.4349 -1.1701  0.0452
  816MOL0     C12477   6.591  10.603   4.213 -0.1792  0.9991 -0.4830
  816MOL0     O12478   6.707  10.684   4.195 -0.1121 -0.1253  0.6726
  816MOL0     C12479   6.688  10.814   4.131 -0.0813  0.7581  0.7290
  816MOL0     C12480   6.818  10.899   4.129 -0.1094 -0.3967 -0.7160
  816MOL0     C12481   6.932  10.869   4.029  1.3768 -0.1166  0.1956
  816MOL0     C12482   6.906  10.893   3.876  0.3993  0.4185 -0.0536
  816MOL0     C12483   7.028  10.936   3.793 -0.0850 -0.0700  0.3697
  816MOL0     C12484   6.995  10.935   3.641  0.3272 -0.8984  0.3566
  816MOL0     C12485   7.079  11.032   3.551 -0.9427 -0.1160  1.0976
  816MOL0     C12486   7.051  11.016   3.401 -0.4245 -0.6709 -0.2944
  816MOL0     N12487   7.155  11.088   3.316 -0.0267  0.3963 -0.5321
  816MOL0     C12488   7.250  11.032   3.228 -0.0083 -0.5459  0.1534
  816MOL0     C12489   7.322  11.140   3.186 -0.1535 -0.9092 -0.8856
  816MOL0     C12490   7.440  11.151   3.092  0.0124  0.1793  0.1890
  816MOL0     C12491   7.512  11.016   3.066 -0.0205 -0.6459  0.0613
  816MOL0     C12492   7.648  11.063   3.000  0.4831  0.1029 -0.0583
  816MOL0     C12493   7.711  10.951   2.926  0.2153 -0.7716  0.2050
  816MOL0     O12494   7.809  11.002   2.827  0.4923 -0.3625 -0.4393
  816MOL0     C12495   7.944  10.961   2.822 -0.3219  0.0594 -0.0702
  816MOL0     C12496   7.992  10.831   2.836 -0.9647 -0.9161  0.2373
  816MOL0     C12497   8.135  10.798   2.839 -0.0024  0.5098 -1.3096
  816MOL0     C12498   8.183  10.655   2.855  0.5485 -0.6473  0.2136
  816MOL0     C12499   8.232  10.905   2.826 -0.5644  0.7618  1.4801
  816MOL0     C12500   8.378  10.876   2.819 -0.7823 -0.5495 -0.1110
  816MOL0     O12501   8.449  10.979   2.764  0.1639 -0.2656 -0.2760
  816MOL0     C12502   8.582  10.972   2.726  0.1305  0.8046 -0.6944
  816MOL0     C12503   8.655  11.087   2.747 -0.5100 -0.2737  1.3553
  816MOL0     C12504   8.794  11.093   2.714 -0.8420  0.7713  0.2274
  816MOL0     C12505   8.854  10.994   2.639 -0.3390  1.0106 -0.3333
  816MOL0     O12506   8.984  11.009   2.608 -0.1906  0.3023  0.1975
  816MOL0     C12507   9.070  10.895   2.583 -0.1981  0.6556  0.5425
  816MOL0     C12508   9.206  10.952   2.537  0.4327 -0.3526  0.3715
  816MOL0     C12509   9.196  11.069   2.440  1.0753 -0.1529 -0.2067
  816MOL0     C12510   9.341  11.112   2.405  0.0402  0.5330  0.2999
  816MOL0     C12511   9.411  11.201   2.508  0.2885  0.1574  0.4465
  816MOL0     C12512   9.536  11.272   2.444  0.0816 -0.1189  0.7621
  816MOL0     C12513   9.624  11.351   2.542 -0.7356  0.1208  0.9419
  816MOL0     C12514   9.731  11.434   2.483 -0.3653 -0.3477  0.1497
  816MOL0    Cl12515   9.858  11.456   2.608 -0.4153  0.0447 -0.2204
  816MOL0     C12516   8.789  10.871   2.624  0.1385  0.4704 -0.5723
  816MOL0     C12517   8.654  10.862   2.665  0.1946  0.4859  0.2656
  816MOL0     O12518   8.431  10.774   2.865 -0.3649 -0.0351  0.3686
  816MOL0     C12519   8.177  11.041   2.797  0.4803 -0.2054  0.1378
  816MOL0     C12520   8.040  11.064   2.799  0.1674 -0.4026 -0.2925
  816MOL0     N12521   7.274  11.254   3.235  0.0557 -0.8206  0.3104
  816MOL0     N12522   7.178  11.219   3.320 -0.4613  0.1673  0.0856
  816MOL0     C12523   6.453  10.636   4.201 -0.3877  0.0639 -0.4812
  816MOL0     C12524   6.358  10.540   4.222  0.1393  0.1140 -0.8282
  816MOL0     C12525   6.205  10.091   4.318 -0.0388 -0.2131 -0.0446
  816MOL0     C12526   6.184   9.968   4.263 -0.0672  0.1390 -0.4591
  816MOL0     C12527   6.093   9.876   4.319 -0.2332 -0.5136  0.4682
  816MOL0     C12528   6.034   9.905   4.442 -0.3071 -0.7147 -0.4420
  816MOL0     O12529   5.943   9.810   4.498 -0.5323 -0.1171  0.7019
  816MOL0     C12530   5.871   9.722   4.408  0.5610 -0.3672 -0.6124
  816MOL0     C12531   5.808   9.623   4.503  0.8143 -0.1785 -0.2390
  816MOL0     C12532   5.903   9.547   4.606  0.5065  0.4781 -0.0274
  816MOL0     C12533   5.819   9.474   4.717 -0.3416 -0.5576  0.0802
  816MOL0     C12534   5.905   9.387   4.787  0.1577  0.5582 -0.9099
  816MOL0     C12535   5.962   9.302   4.853  0.0891 -0.5467  0.9715
  816MOL0     C12536   6.078  10.011   4.514 -0.1486 -0.0748  1.3978
  816MOL0     C12537   6.160  10.109   4.452  0.2274 -0.3635  0.7323
  816MOL0     C12538   6.182  10.229   4.548  0.8345 -0.2717 -0.5273
  816MOL0     H12539   6.557  10.287   4.332 -0.0324 -1.3873 -0.7763
  816MOL0     H12540   6.729  10.457   4.272  1.5400  2.4328 -2.0252
  816MOL0     H12541   6.612  10.875   4.179 -1.5866 -0.7289  0.3224
  816MOL0     H12542   6.647  10.797   4.031 -0.5392 -1.0019  1.1923
  816MOL0     H12543   6.776  10.998   4.109 -0.3670 -0.7022 -1.8018
  816MOL0     H12544   6.851  10.904   4.232 -0.2887 -0.6961 -0.6407
  816MOL0     H12545   7.026  10.918   4.055  0.8138  1.9599 -1.4257
  816MOL0     H12546   6.964  10.765   4.046 -0.3081 -0.8288 -0.8002
  816MOL0     H12547   6.856  10.804   3.838 -1.5401  1.7781 -0.8647
  816MOL0     H12548   6.826  10.965   3.856 -1.3948 -1.6703 -0.8584
  816MOL0     H12549   7.099  10.854   3.805  0.9874  0.2754 -2.6431
  816MOL0     H12550   7.065  11.031   3.832  1.1073 -1.1968  2.1300
  816MOL0     H12551   6.982  10.836   3.597 -0.5670 -0.0369 -1.3974
  816MOL0     H12552   6.890  10.967   3.635  0.4054 -0.2449  1.8220
  816MOL0     H12553   7.182  10.998   3.559 -0.8020  0.0287  0.0404
  816MOL0     H12554   7.064  11.139   3.570 -1.5346  0.0025  0.0871
  816MOL0     H12555   7.043  10.909   3.376  0.8959 -0.7814 -0.2712
  816MOL0     H12556   6.955  11.064   3.378 -0.3436 -0.7390 -0.7827
  816MOL0     H12557   7.263  10.926   3.207  0.3473 -0.9342  2.0986
  816MOL0     H12558   7.513  11.215   3.142  2.0009 -2.7789  1.3619
  816MOL0     H12559   7.406  11.190   2.995 -2.9072 -2.0133  0.1847
  816MOL0     H12560   7.532  10.966   3.161 -1.0256 -1.1961  0.0029
  816MOL0     H12561   7.453  10.951   3.000 -2.5726  3.9211 -2.7264
  816MOL0     H12562   7.624  11.132   2.918 -1.5558 -1.5009 -0.9081
  816MOL0     H12563   7.708  11.107   3.080 -1.4450  2.1577  0.3646
  816MOL0     H12564   7.759  10.881   2.994  0.0460 -1.1500 -0.0568
  816MOL0     H12565   7.644  10.894   2.860 -0.9024 -1.3787  1.8174
  816MOL0     H12566   7.921  10.753   2.858 -3.1843  1.4771  2.3245
  816MOL0     H12567   8.098  10.586   2.855  0.6954 -0.8349 -0.2341
  816MOL0     H12568   8.242  10.648   2.946 -0.5547 -1.5948  0.8866
  816MOL0     H12569   8.245  10.637   2.767  0.0765  0.3858 -0.3569
  816MOL0     H12570   8.600  11.172   2.787  1.1047  1.7916 -0.5555
  816MOL0     H12571   8.853  11.183   2.732 -1.5402  1.9712 -2.8534
  816MOL0     H12572   9.086  10.830   2.670 -1.3784 -1.0719 -0.4659
  816MOL0     H12573   9.041  10.838   2.495  0.9406 -1.0765  1.2147
  816MOL0     H12574   9.251  10.996   2.626 -1.9001  0.8513  1.0363
  816MOL0     H12575   9.259  10.863   2.500 -3.0747 -3.2034  1.6207
  816MOL0     H12576   9.127  11.143   2.482  0.6179  0.3576 -1.7902
  816MOL0     H12577   9.137  11.038   2.353 -1.3225 -3.1445  2.2189
  816MOL0     H12578   9.347  11.168   2.312  1.2883  0.4771  0.3382
  816MOL0     H12579   9.407  11.026   2.391  2.5254  2.3789  0.0139
  816MOL0     H12580   9.343  11.278   2.546  0.6821  1.1458 -0.7971
  816MOL0     H12581   9.448  11.126   2.579  1.7273  1.4887  1.1761
  816MOL0     H12582   9.504  11.345   2.369  1.5112 -0.3370 -0.0861
  816MOL0     H12583   9.604  11.199   2.398 -0.6518 -0.7564  0.6644
  816MOL0     H12584   9.679  11.271   2.593 -0.1790 -0.3519 -0.3424
  816MOL0     H12585   9.561  11.405   2.613 -0.2948  0.0793  1.3685
  816MOL0     H12586   9.701  11.534   2.450  1.1854  0.8041  1.9748
  816MOL0     H12587   9.765  11.384   2.393 -0.0006  1.7914 -0.9727
  816MOL0     H12588   8.837  10.778   2.596 -0.5505  0.8306 -3.1404
  816MOL0     H12589   8.607  10.764   2.662  1.1311  0.0459 -0.7202
  816MOL0     H12590   8.240  11.128   2.780 -1.3744  1.0266 -0.6810
  816MOL0     H12591   8.003  11.165   2.784 -0.7575 -0.9373 -1.8490
  816MOL0     H12592   6.432  10.740   4.177 -1.9089  0.1529  1.0324
  816MOL0     H12593   6.253  10.563   4.204 -0.5249 -0.6571  1.6569
  816MOL0     H12594   6.236   9.942   4.171 -0.2506  0.8838 -0.7817
  816MOL0     H12595   6.084   9.780   4.268  1.5216 -0.6761  0.4241
  816MOL0     H12596   5.799   9.767   4.340 -1.7148 -2.2637  0.4054
  816MOL0     H12597   5.946   9.670   4.347  1.9924  0.2746  0.5501
  816MOL0     H12598   5.751   9.551   4.443 -0.7081 -1.1934  2.2674
  816MOL0     H12599   5.728   9.673   4.557  2.4675  2.0058  0.3171
  816MOL0     H12600   5.956   9.469   4.550 -0.1705 -0.6787  0.8898
  816MOL0     H12601   5.966   9.621   4.654 -1.5170  1.0340  1.9399
  816MOL0     H12602   5.738   9.414   4.675  1.4449 -0.8303 -3.2504
  816MOL0     H12603   5.784   9.557   4.781  2.1767  0.7791 -0.1611
  816MOL0     H12604   6.007   9.227   4.915 -1.5206 -0.4001  2.3808
  816MOL0     H12605   6.041  10.035   4.613 -3.1589 -1.5758  0.7401
  816MOL0     H12606   6.098  10.276   4.600 -2.0485 -2.7035 -2.6732
  816MOL0     H12607   6.253  10.188   4.621  2.3369 -0.6814 -2.1506
  816MOL0     H12608   6.229  10.311   4.494 -0.4760  0.2965 -0.8378
  817MOL0     O12609   9.701   0.728  10.738 -0.3723  0.2877  0.4643
  817MOL0     C12610   9.700   0.685  10.850  0.5168 -0.6715 -0.0215
  817MOL0     O12611   9.797   0.619  10.918  0.1163  0.0261 -0.3024
  817MOL0     C12612   9.914   0.590  10.852  0.8807 -0.1813  0.4662
  817MOL0     C12613   9.931   0.454  10.804  0.2350 -0.6708  0.1363
  817MOL0     C12614  10.053   0.418  10.744  0.4877 -0.8129  0.0805
  817MOL0     C12615  10.153   0.506  10.721  0.0648 -0.1844 -0.6568
  817MOL0     O12616  10.272   0.466  10.669  0.2493  0.1706  0.6752
  817MOL0     C12617  10.392   0.521  10.714 -0.3256  0.1650  0.4216
  817MOL0     C12618  10.507   0.432  10.676 -0.5028 -0.3555 -0.2271
  817MOL0     C12619  10.628   0.463  10.763 -0.0777 -0.5863  0.1344
  817MOL0     C12620  10.746   0.367  10.736 -0.5302  0.0813  0.1181
  817MOL0     C12621  10.837   0.384  10.860  0.1278  0.0104 -0.0901
  817MOL0     C12622  10.954   0.282  10.853  0.4790 -0.1406  0.5898
  817MOL0     C12623  11.074   0.310  10.948  0.6228 -0.6778  0.2051
  817MOL0     C12624  11.157   0.188  10.967 -0.7694  0.0921  0.0078
  817MOL0     N12625  11.276   0.219  11.053  0.5280 -0.3172  0.1403
  817MOL0     C12626  11.265   0.257  11.186  0.8648  0.6662  0.5759
  817MOL0     C12627  11.393   0.300  11.217  0.8344 -0.2850  0.0199
  817MOL0     C12628  11.429   0.347  11.349  0.3262 -0.3894 -0.8293
  817MOL0     C12629  11.574   0.340  11.392 -0.1336 -0.1289 -0.4642
  817MOL0     C12630  11.628   0.199  11.389  0.0912 -0.2229 -1.0292
  817MOL0     C12631  11.773   0.184  11.399 -0.2885  0.0798  1.0107
  817MOL0     O12632  11.828   0.212  11.526  0.5840 -0.0922 -0.0000
  817MOL0     C12633  11.963   0.185  11.558  0.3445 -0.4975  0.3093
  817MOL0     C12634  12.061   0.136  11.463 -0.3339  0.1613 -0.1164
  817MOL0     C12635  12.190   0.098  11.511  0.6211  0.3788  0.4511
  817MOL0     C12636  12.279   0.044  11.396  0.2438  1.2946 -1.0022
  817MOL0     C12637  12.210   0.111  11.653  0.1434 -0.5127  0.7324
  817MOL0     C12638  12.336   0.065  11.711 -0.9027 -0.2566  0.4848
  817MOL0     O12639  12.322   0.009  11.837  0.0217 -0.1033 -0.5006
  817MOL0     C12640  12.440  -0.049  11.877  0.7290 -0.8230  0.5677
  817MOL0     C12641  12.549   0.028  11.911  0.1602  0.4372  0.5287
  817MOL0     C12642  12.668  -0.038  11.947  0.3812 -0.3919 -0.0849
  817MOL0     C12643  12.683  -0.175  11.955  0.7584  0.0201 -0.2694
  817MOL0     O12644  12.811  -0.228  11.980  0.0283 -0.2009 -0.0042
  817MOL0     C12645  12.814  -0.342  12.068 -0.3803 -0.4007  0.1603
  817MOL0     C12646  12.963  -0.383  12.113 -0.3859  0.1301  0.2478
  817MOL0     C12647  13.019  -0.270  12.200  0.5215 -0.5409  0.6299
  817MOL0     C12648  13.166  -0.303  12.226 -0.7444  0.2480 -0.2432
  817MOL0     C12649  13.220  -0.185  12.311 -0.1284 -0.5668  0.5304
  817MOL0     C12650  13.347  -0.218  12.388 -1.3033  0.1669 -0.3441
  817MOL0     C12651  13.346  -0.336  12.488  0.3915  0.1209 -0.4464
  817MOL0     C12652  13.484  -0.371  12.544  0.0271 -0.0264 -0.6953
  817MOL0    Cl12653  13.586  -0.431  12.411 -0.1481  0.2575 -0.7074
  817MOL0     C12654  12.570  -0.251  11.925  0.0700  0.6719 -0.1041
  817MOL0     C12655  12.452  -0.190  11.875  0.5996 -0.0841  0.0115
  817MOL0     O12656  12.440   0.084  11.652  0.2995  0.0633  0.2268
  817MOL0     C12657  12.113   0.164  11.738  0.3224  0.6495  0.4577
  817MOL0     C12658  11.988   0.198  11.689 -0.6863  0.1693  0.6838
  817MOL0     N12659  11.472   0.293  11.107  0.3857 -0.5617  0.1842
  817MOL0     N12660  11.403   0.246  11.006  0.0809 -0.2297 -0.4185
  817MOL0     C12661  10.132   0.636  10.762 -0.7578  1.2661  0.0028
  817MOL0     C12662  10.013   0.689  10.828 -1.0333 -0.1175 -0.3911
  817MOL0     C12663   9.567   0.697  10.914  0.5856  0.9861  0.0504
  817MOL0     C12664   9.571   0.703  11.060 -0.0042  1.2348 -0.0888
  817MOL0     C12665   9.453   0.716  11.134  0.3660 -0.1901 -0.2491
  817MOL0     C12666   9.329   0.738  11.071 -0.1069 -0.5614  0.1537
  817MOL0     O12667   9.217   0.759  11.156 -0.3515 -0.0831 -0.4257
  817MOL0     C12668   9.142   0.875  11.139 -0.2400 -0.0827  0.5785
  817MOL0     C12669   9.009   0.848  11.082  0.1907 -0.3107  0.0978
  817MOL0     C12670   8.914   0.756  11.167  0.7542  0.1447  0.6976
  817MOL0     C12671   8.769   0.768  11.122 -0.4194  0.8353  0.0486
  817MOL0     C12672   8.697   0.668  11.191 -0.2072 -0.3192  0.1353
  817MOL0     C12673   8.625   0.590  11.255  0.5633 -0.0966 -0.5038
  817MOL0     C12674   9.329   0.743  10.925 -0.6961  0.9275 -0.7796
  817MOL0     C12675   9.442   0.720  10.848 -1.2409 -0.2669 -0.5691
  817MOL0     C12676   9.418   0.706  10.693  0.0676  0.5503  0.0876
  817MOL0     H12677   9.846   0.389  10.821  1.4154 -1.9798  1.3758
  817MOL0     H12678  10.082   0.317  10.719 -1.9025 -1.4184 -0.5394
  817MOL0     H12679  10.393   0.534  10.823  1.4429  0.9911  0.3453
  817MOL0     H12680  10.410   0.619  10.670  2.1944  0.0921  1.1302
  817MOL0     H12681  10.471   0.332  10.703 -2.6664 -0.0917 -1.9089
  817MOL0     H12682  10.530   0.448  10.570 -2.9779  5.3066 -0.2899
  817MOL0     H12683  10.650   0.566  10.736  0.1699 -0.8338 -0.6285
  817MOL0     H12684  10.597   0.467  10.868  0.5237 -1.9596  0.3810
  817MOL0     H12685  10.705   0.266  10.722 -1.8562  0.5840  0.2380
  817MOL0     H12686  10.796   0.399  10.644 -0.8429  1.3946  0.3849
  817MOL0     H12687  10.789   0.362  10.955  1.3244  0.0080  0.5317
  817MOL0     H12688  10.877   0.486  10.861 -0.4169  0.2357  1.5451
  817MOL0     H12689  10.910   0.184  10.873  0.0756  0.0840  0.8103
  817MOL0     H12690  11.002   0.281  10.755  0.3376 -1.0627  0.5241
  817MOL0     H12691  11.034   0.346  11.043 -1.2276 -1.4414 -0.2475
  817MOL0     H12692  11.140   0.383  10.899  0.0592  0.2839  0.8560
  817MOL0     H12693  11.097   0.112  11.017  2.8382 -1.2201  2.7054
  817MOL0     H12694  11.196   0.164  10.868 -2.2607 -0.4305 -0.4781
  817MOL0     H12695  11.176   0.234  11.244  0.6906 -1.8070 -0.5695
  817MOL0     H12696  11.373   0.279  11.415  2.4751 -2.0362 -0.5994
  817MOL0     H12697  11.386   0.446  11.369 -0.3866 -0.8237 -0.1260
  817MOL0     H12698  11.643   0.401  11.333  1.3684 -1.8681 -0.6077
  817MOL0     H12699  11.583   0.373  11.496 -0.1795  1.9529 -1.0824
  817MOL0     H12700  11.587   0.141  11.472 -0.7249 -1.3122 -2.1429
  817MOL0     H12701  11.602   0.137  11.302 -1.2937 -0.9291 -0.1585
  817MOL0     H12702  11.802   0.082  11.372 -1.5069  0.0833 -0.4720
  817MOL0     H12703  11.817   0.251  11.324 -1.8323  0.7627  0.6630
  817MOL0     H12704  12.033   0.124  11.359 -0.6854 -0.3753  0.0346
  817MOL0     H12705  12.267   0.104  11.306  0.7553  1.2834 -1.0808
  817MOL0     H12706  12.253  -0.061  11.382  2.8793  0.2618  1.0669
  817MOL0     H12707  12.383   0.062  11.423  0.4486  1.1458 -1.6903
  817MOL0     H12708  12.544   0.136  11.911  1.2115  0.5502  3.1532
  817MOL0     H12709  12.746   0.036  11.959  0.4650 -0.6440  1.1020
  817MOL0     H12710  12.749  -0.319  12.153  0.8932  0.0855  1.0318
  817MOL0     H12711  12.785  -0.431  12.012 -0.4227  1.0400 -2.2239
  817MOL0     H12712  12.953  -0.480  12.163  0.2158  0.4549  1.0198
  817MOL0     H12713  13.019  -0.391  12.020 -1.8570  2.9143 -1.0036
  817MOL0     H12714  12.960  -0.271  12.292 -3.2199 -2.9061 -1.5287
  817MOL0     H12715  13.005  -0.174  12.149  1.5792 -1.1189 -0.8496
  817MOL0     H12716  13.225  -0.313  12.135 -0.2834 -0.4005  0.1210
  817MOL0     H12717  13.169  -0.404  12.268  1.9644  0.5079  0.3366
  817MOL0     H12718  13.251  -0.099  12.250  3.0429 -0.9636  1.4223
  817MOL0     H12719  13.146  -0.154  12.386  0.0167  0.2257  0.3551
  817MOL0     H12720  13.374  -0.123  12.435 -0.9369 -0.4517  0.7014
  817MOL0     H12721  13.431  -0.226  12.319 -1.6953  0.2928 -0.8502
  817MOL0     H12722  13.295  -0.425  12.450 -1.2096  0.4633  0.8186
  817MOL0     H12723  13.293  -0.304  12.578 -0.2990 -0.1466 -0.7527
  817MOL0     H12724  13.476  -0.448  12.621  1.8486  2.0443  1.7126
  817MOL0     H12725  13.525  -0.290  12.605  0.4523 -2.2444  2.1699
  817MOL0     H12726  12.583  -0.359  11.924  0.6842  0.6993 -2.7399
  817MOL0     H12727  12.369  -0.254  11.848  0.4925 -0.0896  0.3426
  817MOL0     H12728  12.141   0.172  11.843  0.0881 -2.3846  0.8334
  817MOL0     H12729  11.902   0.204  11.755  0.8791  0.4410  2.8054
  817MOL0     H12730  10.208   0.712  10.743  0.7907  1.2964  4.8676
  817MOL0     H12731  10.006   0.793  10.858 -0.0078 -0.3351  0.6478
  817MOL0     H12732   9.667   0.696  11.109  0.4330 -0.0246 -1.0804
  817MOL0     H12733   9.440   0.712  11.241  0.4314 -1.0310 -0.2690
  817MOL0     H12734   9.118   0.918  11.237  0.0814 -0.3355  0.7693
  817MOL0     H12735   9.208   0.943  11.083  0.8511 -0.8023  0.9640
  817MOL0     H12736   9.023   0.797  10.986 -2.7994 -2.9423  0.9016
  817MOL0     H12737   8.958   0.943  11.067 -2.4785 -1.1666  2.7566
  817MOL0     H12738   8.949   0.653  11.156  0.3793 -0.1445  2.0070
  817MOL0     H12739   8.915   0.786  11.272 -0.9501  2.2884  0.1712
  817MOL0     H12740   8.760   0.755  11.014  0.9050 -0.7919  0.0975
  817MOL0     H12741   8.720   0.864  11.144 -0.4090  0.8124  0.1704
  817MOL0     H12742   8.576   0.509  11.305 -1.8149 -0.2718 -2.8699
  817MOL0     H12743   9.237   0.759  10.868 -0.2151 -1.0312 -2.2011
  817MOL0     H12744   9.464   0.792  10.643 -3.3238  2.0287 -0.8023
  817MOL0     H12745   9.450   0.607  10.660 -1.2644  0.3453 -0.6386
  817MOL0     H12746   9.310   0.712  10.678 -0.0127  1.8016  0.9869
  818MOL0     O12747   3.642   3.286  10.003 -0.7118 -0.5000  0.0508
  818MOL0     C12748   3.578   3.392  10.009  0.0098  0.2870 -1.3897
  818MOL0     O12749   3.629   3.517  10.011 -0.2110 -0.0714 -0.0058
  818MOL0     C12750   3.768   3.526  10.030  0.1561  0.9513  0.7228
  818MOL0     C12751   3.844   3.456  10.133 -0.0019  0.1514  1.1418
  818MOL0     C12752   3.987   3.450  10.129 -0.4630  0.3352  0.0303
  818MOL0     C12753   4.057   3.507  10.018  0.0743  0.8043 -0.0641
  818MOL0     O12754   4.195   3.494  10.001 -0.2252 -0.3347 -0.2415
  818MOL0     C12755   4.258   3.407  10.089  0.3229 -0.8183 -0.5138
  818MOL0     C12756   4.406   3.395  10.056 -0.2532  1.0762 -0.5389
  818MOL0     C12757   4.502   3.447  10.160  0.3318 -0.0972 -0.7914
  818MOL0     C12758   4.650   3.466  10.128  0.6661  0.0701 -0.6345
  818MOL0     C12759   4.714   3.343  10.074 -0.5522  0.2262  0.6314
  818MOL0     C12760   4.697   3.215  10.165 -0.0772 -0.0145  0.7536
  818MOL0     C12761   4.768   3.095  10.095  0.0344 -0.2274 -0.2454
  818MOL0     C12762   4.689   2.969  10.129  0.0624  0.2302  0.6830
  818MOL0     N12763   4.741   2.849  10.061  0.0332  0.4672 -1.0040
  818MOL0     C12764   4.870   2.798  10.077  0.9581 -0.0455  0.6455
  818MOL0     C12765   4.865   2.683  10.001  0.0882 -0.1816 -0.9324
  818MOL0     C12766   4.967   2.579   9.973 -0.3920  0.4074 -0.1858
  818MOL0     C12767   5.056   2.613   9.853  0.4745 -0.7122  0.0286
  818MOL0     C12768   5.155   2.499   9.826  0.9402 -0.3883 -0.2997
  818MOL0     C12769   5.231   2.509   9.693 -0.6445 -0.7312  0.1097
  818MOL0     O12770   5.329   2.404   9.696  1.1853  0.6334  0.3405
  818MOL0     C12771   5.453   2.432   9.643 -0.1425  0.3597  0.7533
  818MOL0     C12772   5.544   2.328   9.660  0.0882 -0.2000 -0.8283
  818MOL0     C12773   5.672   2.338   9.611 -0.1280 -0.0295 -0.0597
  818MOL0     C12774   5.766   2.220   9.627 -0.3319  0.1855  0.2201
  818MOL0     C12775   5.709   2.449   9.537  0.1750 -0.3464  0.1846
  818MOL0     C12776   5.856   2.477   9.498 -1.0593 -0.1291  0.0473
  818MOL0     O12777   5.885   2.601   9.444  0.4497 -0.3195  0.6835
  818MOL0     C12778   5.980   2.611   9.350  0.6337  0.5135  0.0609
  818MOL0     C12779   5.954   2.577   9.217  0.5005  0.2225 -0.2080
  818MOL0     C12780   6.037   2.621   9.118 -0.1388  0.0800  0.4456
  818MOL0     C12781   6.157   2.681   9.151 -0.1311  0.4034  0.0713
  818MOL0     O12782   6.254   2.710   9.055 -0.2782 -0.2607  0.1654
  818MOL0     C12783   6.228   2.677   8.918  0.1733  0.2603  0.2641
  818MOL0     C12784   6.338   2.721   8.809  0.7425 -0.2246 -1.0717
  818MOL0     C12785   6.333   2.872   8.784  0.1066 -0.5847 -0.0509
  818MOL0     C12786   6.432   2.920   8.674 -0.8263  1.0722  0.3886
  818MOL0     C12787   6.573   2.956   8.716  0.5856 -0.2209 -0.1666
  818MOL0     C12788   6.635   3.048   8.620 -0.5406  0.0160  0.0520
  818MOL0     C12789   6.773   3.096   8.669 -0.2310 -0.0960 -0.1807
  818MOL0     C12790   6.876   2.976   8.686  0.0609  0.3018  0.1132
  818MOL0    Cl12791   7.012   3.027   8.798 -0.0070 -0.2990  0.2352
  818MOL0     C12792   6.178   2.731   9.279 -0.3766 -0.0373  0.8777
  818MOL0     C12793   6.083   2.696   9.376 -1.2247  0.3127 -0.4977
  818MOL0     O12794   5.938   2.380   9.487  0.2411 -0.0250  0.4890
  818MOL0     C12795   5.616   2.554   9.512 -0.4405 -0.1879  0.6380
  818MOL0     C12796   5.485   2.536   9.556 -0.2266  0.0614 -0.4949
  818MOL0     N12797   4.739   2.672   9.941  0.0842  0.1813 -0.6008
  818MOL0     N12798   4.659   2.758   9.992  0.3053 -0.7968 -0.3415
  818MOL0     C12799   3.986   3.567   9.913 -0.0957  0.1606  1.0173
  818MOL0     C12800   3.845   3.576   9.921  0.7439 -0.6935  0.9615
  818MOL0     C12801   3.432   3.379  10.004  0.7535  0.3862 -0.7138
  818MOL0     C12802   3.353   3.491   9.963  0.4024 -0.0893  0.2409
  818MOL0     C12803   3.215   3.486   9.933  0.1473 -0.3286 -0.1827
  818MOL0     C12804   3.139   3.372   9.966  0.8211  0.5119  0.0507
  818MOL0     O12805   3.008   3.347   9.946 -0.0931  0.3352  0.1777
  818MOL0     C12806   2.928   3.444   9.871 -0.4225 -0.5317 -0.8330
  818MOL0     C12807   2.797   3.377   9.837 -0.2389 -0.2109  0.6777
  818MOL0     C12808   2.708   3.328   9.950  0.2972  0.4224  0.6891
  818MOL0     C12809   2.595   3.239   9.883  0.8543  0.1247  0.0113
  818MOL0     C12810   2.489   3.228   9.980 -0.6065 -0.0625 -0.3050
  818MOL0     C12811   2.393   3.219  10.047  0.1741 -0.3036 -1.2600
  818MOL0     C12812   3.219   3.254  10.010  0.1840 -1.3033  0.2755
  818MOL0     C12813   3.360   3.252  10.024  0.6604 -0.5875  0.1102
  818MOL0     C12814   3.417   3.115  10.058  0.1050  0.0007 -0.2237
  818MOL0     H12815   3.794   3.391  10.204 -1.1113 -1.8911 -1.3864
  818MOL0     H12816   4.029   3.389  10.208 -1.5969  1.2446  1.3920
  818MOL0     H12817   4.210   3.311  10.071  0.1682 -1.2212  1.6857
  818MOL0     H12818   4.244   3.448  10.190 -0.1744  0.8759 -1.2318
  818MOL0     H12819   4.420   3.286  10.054  1.2580  1.2369  0.1057
  818MOL0     H12820   4.422   3.429   9.953  2.6974  1.2189 -0.1120
  818MOL0     H12821   4.460   3.540  10.197  0.5696 -0.7506  1.2707
  818MOL0     H12822   4.495   3.376  10.244  0.3054 -1.1622 -1.6686
  818MOL0     H12823   4.661   3.544  10.053  3.2670 -0.8433 -1.3300
  818MOL0     H12824   4.704   3.500  10.217  0.0321  1.6487 -0.8269
  818MOL0     H12825   4.820   3.361  10.055 -0.8713  0.2984 -1.2877
  818MOL0     H12826   4.680   3.326   9.972 -2.3539 -0.2285  1.2700
  818MOL0     H12827   4.733   3.232  10.266 -1.0503  3.7675  0.6147
  818MOL0     H12828   4.589   3.203  10.175 -0.2580 -0.2668 -1.0796
  818MOL0     H12829   4.865   3.087  10.145  0.0500 -3.9363 -0.5977
  818MOL0     H12830   4.782   3.114   9.988  1.1839 -2.5096 -0.5593
  818MOL0     H12831   4.684   2.952  10.237 -1.3208 -0.4178  0.5297
  818MOL0     H12832   4.587   2.986  10.094 -0.7110 -2.3741  1.4325
  818MOL0     H12833   4.949   2.832  10.143 -1.9068  1.5935  3.5361
  818MOL0     H12834   4.919   2.482   9.955  0.3998 -0.4946  2.2133
  818MOL0     H12835   5.033   2.560  10.058 -1.5382 -0.9389  0.4435
  818MOL0     H12836   4.979   2.626   9.776  0.9410 -0.0812 -0.3415
  818MOL0     H12837   5.104   2.711   9.860  0.0591 -0.5546  0.8278
  818MOL0     H12838   5.220   2.514   9.913  0.4843  3.8847 -0.4975
  818MOL0     H12839   5.101   2.404   9.820  0.2750  0.0349 -1.3694
  818MOL0     H12840   5.155   2.504   9.615 -0.7256 -1.0864  0.2102
  818MOL0     H12841   5.284   2.605   9.699 -0.1861 -0.9011 -1.0253
  818MOL0     H12842   5.521   2.243   9.723  1.8434  1.6692  2.5886
  818MOL0     H12843   5.719   2.158   9.704 -1.0169 -0.1982 -0.5000
  818MOL0     H12844   5.860   2.248   9.676  1.8666  0.8410 -3.9415
  818MOL0     H12845   5.784   2.164   9.535  2.7882 -1.0601  1.4324
  818MOL0     H12846   5.863   2.521   9.200 -0.8390  1.3075  2.7699
  818MOL0     H12847   6.022   2.575   9.020  1.8106  0.1992  0.0384
  818MOL0     H12848   6.213   2.569   8.910 -1.7702  0.5138  0.0822
  818MOL0     H12849   6.138   2.728   8.882  0.1064  0.6219  0.9347
  818MOL0     H12850   6.441   2.704   8.842  0.2139  0.0034  0.8326
  818MOL0     H12851   6.328   2.667   8.714  1.4732 -0.3514 -1.0872
  818MOL0     H12852   6.344   2.936   8.873  0.2719 -0.2500 -0.3096
  818MOL0     H12853   6.234   2.892   8.742  0.3880 -1.8042 -1.3631
  818MOL0     H12854   6.397   3.016   8.635  1.8039  1.4252 -1.3392
  818MOL0     H12855   6.436   2.855   8.587 -0.6257  1.1900  0.3092
  818MOL0     H12856   6.570   3.006   8.813 -1.4859  1.2284 -0.9061
  818MOL0     H12857   6.620   2.858   8.727 -1.4001 -1.1976  0.0838
  818MOL0     H12858   6.581   3.143   8.612  1.2641  1.1159  0.3136
  818MOL0     H12859   6.630   3.026   8.513 -1.3115  0.2062  0.0410
  818MOL0     H12860   6.765   3.142   8.768 -2.0107 -1.4996  0.3940
  818MOL0     H12861   6.809   3.165   8.593 -0.2844  1.1925  0.9319
  818MOL0     H12862   6.917   2.945   8.589  1.0972 -3.1068  1.4983
  818MOL0     H12863   6.824   2.895   8.736  0.1975 -0.7949 -1.4664
  818MOL0     H12864   6.268   2.780   9.313  0.1571 -0.4919  0.1447
  818MOL0     H12865   6.083   2.743   9.474  0.0717  2.3999 -1.4517
  818MOL0     H12866   5.628   2.641   9.448 -1.9868 -0.1236  0.3894
  818MOL0     H12867   5.416   2.619   9.542 -0.9473 -0.3636  0.4400
  818MOL0     H12868   4.041   3.611   9.831  0.5024 -1.5971  0.4306
  818MOL0     H12869   3.798   3.635   9.843  0.5961 -0.4357  1.2424
  818MOL0     H12870   3.400   3.581   9.926  2.8365 -1.8343 -1.2487
  818MOL0     H12871   3.167   3.574   9.891  0.5800  0.8657  1.7449
  818MOL0     H12872   2.910   3.531   9.934  0.3169 -0.1668 -1.1115
  818MOL0     H12873   2.976   3.478   9.779 -0.7097 -0.5994 -1.0098
  818MOL0     H12874   2.816   3.292   9.771 -1.0891  0.5919 -0.6557
  818MOL0     H12875   2.739   3.451   9.781  0.8487  1.2522  1.4132
  818MOL0     H12876   2.774   3.268  10.013  0.2214 -0.8446 -0.3978
  818MOL0     H12877   2.687   3.415  10.012  2.9688 -0.7869  3.5988
  818MOL0     H12878   2.626   3.138   9.853 -2.3497 -1.0945  0.3446
  818MOL0     H12879   2.558   3.302   9.802 -2.3948  1.1477  2.0981
  818MOL0     H12880   2.313   3.211  10.117  0.5774 -1.5124 -0.9219
  818MOL0     H12881   3.162   3.164  10.031  0.2548 -1.8952 -1.8006
  818MOL0     H12882   3.493   3.117  10.136  0.7222  0.9043 -0.8325
  818MOL0     H12883   3.339   3.049  10.098 -1.8461  2.4089  0.1732
  818MOL0     H12884   3.454   3.069   9.966  0.3124 -2.3577  0.9577
  819MOL0     O12885   9.478   1.741   8.795 -0.3159 -0.3438  0.0494
  819MOL0     C12886   9.425   1.802   8.706 -0.0464  0.1021  0.3946
  819MOL0     O12887   9.477   1.917   8.645 -0.0905 -0.2702  0.1739
  819MOL0     C12888   9.601   1.981   8.667  0.7209 -0.0045  0.0377
  819MOL0     C12889   9.704   1.927   8.739  0.7260  0.0835  0.1052
  819MOL0     C12890   9.824   1.991   8.755  0.8918  0.1375 -0.2160
  819MOL0     C12891   9.843   2.112   8.693  0.0857  0.5465  0.4230
  819MOL0     O12892   9.971   2.165   8.708  0.2315  0.5188 -0.7228
  819MOL0     C12893   9.971   2.276   8.799 -1.0333  0.2692 -0.4455
  819MOL0     C12894  10.112   2.322   8.815  0.6343  0.0040 -0.4683
  819MOL0     C12895  10.130   2.404   8.940 -0.5768  0.6664 -0.2598
  819MOL0     C12896  10.284   2.433   8.954 -0.1011 -0.4563 -0.7613
  819MOL0     C12897  10.309   2.537   9.066 -0.7706 -0.1343  0.3783
  819MOL0     C12898  10.454   2.554   9.107 -0.5026 -0.6997  0.5114
  819MOL0     C12899  10.488   2.430   9.201 -0.2987 -0.0412  0.7860
  819MOL0     C12900  10.642   2.417   9.225 -0.5215 -0.1900  0.2447
  819MOL0     N12901  10.696   2.473   9.344  0.2410  0.5481 -0.4871
  819MOL0     C12902  10.732   2.406   9.461 -0.2001 -0.5880  0.6429
  819MOL0     C12903  10.790   2.512   9.536 -0.0746  0.4793  0.2035
  819MOL0     C12904  10.824   2.498   9.681  0.3551 -0.1215 -0.4515
  819MOL0     C12905  10.975   2.478   9.703 -0.0720 -0.3390 -0.3350
  819MOL0     C12906  11.011   2.329   9.718  0.1279  0.6159  0.9733
  819MOL0     C12907  11.169   2.320   9.707  0.0423  0.8271  0.8921
  819MOL0     O12908  11.198   2.182   9.662 -0.0740  0.1626 -0.5796
  819MOL0     C12909  11.311   2.150   9.591  0.5198  0.3348 -0.1066
  819MOL0     C12910  11.318   2.041   9.501 -0.0737  0.0670  0.1670
  819MOL0     C12911  11.437   2.008   9.433 -0.5837  0.0208  0.3085
  819MOL0     C12912  11.418   1.911   9.316  0.5138  1.5376  0.9378
  819MOL0     C12913  11.559   2.079   9.456  0.2910 -0.3266 -0.4477
  819MOL0     C12914  11.685   2.044   9.406  0.3797 -0.3774  0.1127
  819MOL0     O12915  11.789   2.123   9.444  0.4101 -0.0474  0.1123
  819MOL0     C12916  11.913   2.075   9.425  0.1933 -0.6281  0.7172
  819MOL0     C12917  11.997   2.060   9.536  0.0637 -0.3672  0.6871
  819MOL0     C12918  12.135   2.022   9.515  0.8757  0.0092 -0.1163
  819MOL0     C12919  12.183   1.999   9.387 -0.4023  0.8006 -0.6347
  819MOL0     O12920  12.311   1.954   9.355  0.5811  0.9981 -0.1978
  819MOL0     C12921  12.407   1.968   9.462 -0.1784  0.5726  0.1649
  819MOL0     C12922  12.548   1.945   9.402 -0.3008 -0.2324  0.4028
  819MOL0     C12923  12.650   1.950   9.512 -0.0056  0.0957 -0.3440
  819MOL0     C12924  12.797   1.927   9.461  0.7061  0.3822  0.7096
  819MOL0     C12925  12.899   1.954   9.579 -0.7442 -0.1913  0.5035
  819MOL0     C12926  12.875   1.862   9.696  0.0464 -0.0913  0.9490
  819MOL0     C12927  12.984   1.875   9.801  1.3193  0.4849  0.3728
  819MOL0     C12928  12.962   2.003   9.874  0.0490 -0.1871  0.1499
  819MOL0    Cl12929  13.046   2.003  10.029 -0.0128  0.1626 -0.1421
  819MOL0     C12930  12.096   2.003   9.273 -0.0058 -0.3025  0.3946
  819MOL0     C12931  11.969   2.049   9.300  0.8020  0.1664  0.1256
  819MOL0     O12932  11.696   1.932   9.360  0.3668  0.4177  0.1494
  819MOL0     C12933  11.554   2.185   9.550  0.1924  0.0603  0.7471
  819MOL0     C12934  11.431   2.225   9.605 -0.4194  0.9427  0.4910
  819MOL0     N12935  10.771   2.632   9.475  0.2809 -0.7958  0.3277
  819MOL0     N12936  10.715   2.606   9.359  0.1153 -0.4960  0.6013
  819MOL0     C12937   9.744   2.163   8.602  0.2273  0.5119  0.9414
  819MOL0     C12938   9.619   2.097   8.595 -0.3289  0.2953  1.0017
  819MOL0     C12939   9.298   1.749   8.648  0.6691 -0.3202  1.0359
  819MOL0     C12940   9.255   1.798   8.521  0.0772  0.1403  0.0016
  819MOL0     C12941   9.128   1.753   8.460  0.0909  0.0758  0.0479
  819MOL0     C12942   9.054   1.656   8.516  0.6667  0.1151 -0.2558
  819MOL0     O12943   8.941   1.614   8.449 -0.0036  0.4809  0.6130
  819MOL0     C12944   8.895   1.665   8.317  0.0378  0.1933 -0.8001
  819MOL0     C12945   8.807   1.784   8.339 -0.8103  0.3667  0.9103
  819MOL0     C12946   8.736   1.809   8.203  0.2222 -0.0142 -0.4781
  819MOL0     C12947   8.633   1.918   8.216  0.1289 -0.4531  0.3336
  819MOL0     C12948   8.697   2.046   8.236 -0.3783 -0.5220  0.8745
  819MOL0     C12949   8.758   2.151   8.233 -0.1583 -0.3504  0.1989
  819MOL0     C12950   9.087   1.600   8.639  0.8115 -0.1679 -0.1606
  819MOL0     C12951   9.208   1.649   8.707 -1.1523  0.1805  0.3594
  819MOL0     C12952   9.243   1.582   8.836  0.7659 -0.4027  0.0587
  819MOL0     H12953   9.694   1.827   8.781 -0.8988  0.5272  0.8588
  819MOL0     H12954   9.902   1.952   8.819 -0.1434 -0.6217  0.6216
  819MOL0     H12955   9.934   2.243   8.896 -1.7160  2.2325  0.0153
  819MOL0     H12956   9.908   2.355   8.756  0.3163  0.5434 -2.0278
  819MOL0     H12957  10.181   2.237   8.812  1.4996  0.6564  0.3560
  819MOL0     H12958  10.130   2.382   8.725 -0.6407  0.2630 -0.5695
  819MOL0     H12959  10.063   2.491   8.937  0.0962  1.2206  0.3875
  819MOL0     H12960  10.097   2.347   9.027  0.1585 -1.3273 -1.2320
  819MOL0     H12961  10.325   2.336   8.981 -1.8697 -0.2308  3.6391
  819MOL0     H12962  10.328   2.452   8.856  4.6420 -0.1224  1.1616
  819MOL0     H12963  10.247   2.515   9.154 -2.8504 -2.8439 -1.5805
  819MOL0     H12964  10.270   2.630   9.022  2.7956  1.0553 -0.5896
  819MOL0     H12965  10.510   2.561   9.014 -0.7431  1.0687  0.4784
  819MOL0     H12966  10.473   2.649   9.156 -1.0293  0.2810 -1.1129
  819MOL0     H12967  10.456   2.340   9.147 -2.3998 -0.0144  1.8942
  819MOL0     H12968  10.425   2.437   9.289 -2.5486 -0.2860 -0.7317
  819MOL0     H12969  10.660   2.309   9.221  1.7184  0.1710 -1.9091
  819MOL0     H12970  10.681   2.472   9.139  0.8310  2.2795  2.2952
  819MOL0     H12971  10.757   2.302   9.483  2.6971 -0.7278 -2.4936
  819MOL0     H12972  10.764   2.426   9.738  0.3564  2.5712  3.3708
  819MOL0     H12973  10.786   2.586   9.734  1.4088 -0.0907  0.2978
  819MOL0     H12974  11.035   2.533   9.629 -0.9542  0.1789 -0.6754
  819MOL0     H12975  11.003   2.531   9.795  1.9824 -2.6756  0.4939
  819MOL0     H12976  10.985   2.299   9.819  0.4693  2.2232  1.5724
  819MOL0     H12977  10.971   2.271   9.634  2.4340 -0.0070  0.2386
  819MOL0     H12978  11.213   2.388   9.633  0.8449  2.7875  3.0552
  819MOL0     H12979  11.207   2.329   9.809 -1.0425  0.8009  1.3109
  819MOL0     H12980  11.224   1.987   9.493 -0.3918  0.4538  1.1369
  819MOL0     H12981  11.480   1.923   9.226 -1.0219 -4.7574 -1.4616
  819MOL0     H12982  11.316   1.900   9.277  0.9672 -1.2482  0.3741
  819MOL0     H12983  11.452   1.811   9.344  1.9346  0.2596 -4.1886
  819MOL0     H12984  11.955   2.080   9.634 -0.8421  0.2041  0.1913
  819MOL0     H12985  12.199   2.006   9.601  0.7213  1.9420  0.3893
  819MOL0     H12986  12.394   2.065   9.511 -0.5038 -0.1422  1.5137
  819MOL0     H12987  12.376   1.895   9.537 -0.9922  1.4839  0.7466
  819MOL0     H12988  12.551   1.856   9.337  0.8011 -0.1295  0.2946
  819MOL0     H12989  12.574   2.023   9.331  0.0369  0.7856  1.6178
  819MOL0     H12990  12.619   1.866   9.575 -0.9864 -0.8054 -1.9559
  819MOL0     H12991  12.649   2.050   9.556 -1.2095 -1.1820  2.8515
  819MOL0     H12992  12.812   1.988   9.371 -0.0464  2.1324  1.7029
  819MOL0     H12993  12.813   1.825   9.425  0.5080  0.9073 -0.9293
  819MOL0     H12994  12.997   1.921   9.544 -1.5083 -2.9974  0.7910
  819MOL0     H12995  12.906   2.061   9.600  2.8237 -0.4234  1.2301
  819MOL0     H12996  12.864   1.764   9.651 -0.7199  0.9578 -1.2808
  819MOL0     H12997  12.780   1.898   9.738  0.3227 -0.5561  2.0232
  819MOL0     H12998  13.086   1.857   9.766  0.7439 -2.7193 -0.0491
  819MOL0     H12999  12.961   1.800   9.877 -0.9763 -0.4219 -1.0999
  819MOL0     H13000  12.858   2.023   9.901  0.4328 -0.3787  1.8521
  819MOL0     H13001  12.999   2.090   9.818 -0.7377 -0.0577 -0.1998
  819MOL0     H13002  12.132   1.962   9.179  3.8398  0.4454  1.3459
  819MOL0     H13003  11.908   2.062   9.211 -0.0973 -1.1229  0.5283
  819MOL0     H13004  11.634   2.257   9.561 -2.0479  2.7390  0.3854
  819MOL0     H13005  11.440   2.306   9.676  2.1296  0.9652  0.2599
  819MOL0     H13006   9.782   2.244   8.540  1.9477 -1.1642 -0.2994
  819MOL0     H13007   9.552   2.143   8.523  2.5851  1.8707 -0.9472
  819MOL0     H13008   9.324   1.865   8.472  0.9844 -0.3688  0.5501
  819MOL0     H13009   9.112   1.806   8.366  0.3294  0.2717  0.1167
  819MOL0     H13010   8.963   1.684   8.233 -1.3666 -0.1072 -2.0376
  819MOL0     H13011   8.828   1.590   8.274 -2.6974  2.5631 -0.9630
  819MOL0     H13012   8.858   1.876   8.368 -2.2785  2.3159 -2.1957
  819MOL0     H13013   8.728   1.763   8.412 -1.7036 -0.5253 -0.2800
  819MOL0     H13014   8.800   1.830   8.117 -0.2576 -0.3278 -0.9214
  819MOL0     H13015   8.685   1.716   8.178 -0.4424  0.2358 -0.0760
  819MOL0     H13016   8.552   1.898   8.287  1.0485 -0.6199  1.3663
  819MOL0     H13017   8.589   1.926   8.116 -1.9604 -1.9013  1.0742
  819MOL0     H13018   8.806   2.247   8.226 -0.4249 -0.3433 -2.4671
  819MOL0     H13019   9.019   1.532   8.689 -0.5772  0.7683 -0.7352
  819MOL0     H13020   9.334   1.522   8.828  2.3640  1.8769  0.4191
  819MOL0     H13021   9.280   1.654   8.909  2.8032 -1.8900  0.5905
  819MOL0     H13022   9.159   1.530   8.885  1.0054  0.1686  1.0915
  820MOL0     O13023   0.010   1.295   4.421  0.7798 -0.4769 -0.5983
  820MOL0     C13024  -0.115   1.269   4.410 -0.3109 -0.0940 -0.6184
  820MOL0     O13025  -0.173   1.145   4.402 -0.1064 -0.1597  0.1985
  820MOL0     C13026  -0.113   1.022   4.429 -0.2444  0.5514 -0.0732
  820MOL0     C13027   0.014   1.004   4.473 -1.2372 -0.3913 -0.4839
  820MOL0     C13028   0.057   0.883   4.519 -1.1111  0.4204  0.0056
  820MOL0     C13029  -0.029   0.770   4.518 -0.3815  0.2515  0.4236
  820MOL0     O13030   0.000   0.639   4.546 -0.1319  0.3270  0.3535
  820MOL0     C13031   0.135   0.603   4.575 -0.8657  0.1505  0.0580
  820MOL0     C13032   0.178   0.652   4.722  0.2270 -0.0826  1.1450
  820MOL0     C13033   0.332   0.673   4.736  0.4357 -1.2175  0.0081
  820MOL0     C13034   0.366   0.711   4.886 -0.0088  0.0390 -0.3286
  820MOL0     C13035   0.444   0.595   4.950 -1.5763 -0.2419 -0.7869
  820MOL0     C13036   0.490   0.622   5.093 -0.1585 -0.0248  0.1940
  820MOL0     C13037   0.589   0.742   5.104 -0.1789  0.7885  0.0455
  820MOL0     C13038   0.719   0.715   5.022  0.0518 -0.2258 -0.4824
  820MOL0     N13039   0.836   0.803   5.059 -0.1969  0.6242  0.6739
  820MOL0     C13040   0.916   0.768   5.167  0.4771 -0.2199 -0.4955
  820MOL0     C13041   1.005   0.863   5.170 -0.3508  0.1774  0.1237
  820MOL0     C13042   1.090   0.889   5.294  0.0887 -0.1376 -0.1431
  820MOL0     C13043   1.234   0.829   5.281 -0.0202  0.2224  0.4103
  820MOL0     C13044   1.321   0.849   5.410  1.4274  0.4400 -0.7744
  820MOL0     C13045   1.465   0.823   5.391 -0.2307 -0.3335 -0.2790
  820MOL0     O13046   1.482   0.675   5.394 -0.3837  0.5036  0.0223
  820MOL0     C13047   1.609   0.625   5.354  0.4235 -0.6860 -0.5520
  820MOL0     C13048   1.609   0.497   5.308 -0.2379  0.9722  0.1206
  820MOL0     C13049   1.726   0.432   5.254 -0.2419  0.3423  0.4911
  820MOL0     C13050   1.715   0.289   5.229 -0.8923  0.8291 -0.0741
  820MOL0     C13051   1.841   0.507   5.244 -0.5068 -0.3556  0.7487
  820MOL0     C13052   1.966   0.468   5.185  0.0395 -0.4011 -0.0927
  820MOL0     O13053   1.979   0.336   5.142  0.4918 -0.1720  0.8973
  820MOL0     C13054   2.096   0.285   5.090 -0.6533 -0.3293  0.2414
  820MOL0     C13055   2.187   0.355   5.000 -0.2948 -0.1789  0.1755
  820MOL0     C13056   2.299   0.287   4.933 -0.7213 -0.2615  0.1284
  820MOL0     C13057   2.321   0.155   4.969 -0.3464  0.4441  0.2694
  820MOL0     O13058   2.429   0.098   4.897  0.1263 -0.1890 -0.9711
  820MOL0     C13059   2.512   0.010   4.978  0.0649  0.6304 -0.5548
  820MOL0     C13060   2.604   0.062   5.094  0.6440  0.0329 -0.8014
  820MOL0     C13061   2.724   0.140   5.036 -0.3755 -0.3384 -0.2238
  820MOL0     C13062   2.831   0.181   5.132 -0.1955 -0.1260  0.4824
  820MOL0     C13063   2.941   0.262   5.064 -0.1838 -0.3052  0.4513
  820MOL0     C13064   3.058   0.283   5.158  0.5546  0.1734  0.1193
  820MOL0     C13065   3.173   0.368   5.100 -0.3489  0.2097  0.1126
  820MOL0     C13066   3.118   0.510   5.059 -0.1391 -0.8231 -0.1539
  820MOL0    Cl13067   3.259   0.627   5.039  0.3423  0.0304 -0.0933
  820MOL0     C13068   2.233   0.086   5.061 -0.2888  0.5382  0.0658
  820MOL0     C13069   2.121   0.149   5.111  0.1649 -0.4227  0.2412
  820MOL0     O13070   2.063   0.545   5.190  0.0435  0.7171  0.8087
  820MOL0     C13071   1.837   0.641   5.296 -0.5842 -0.2858 -0.1827
  820MOL0     C13072   1.723   0.701   5.349 -0.9097  0.2474  0.4505
  820MOL0     N13073   0.968   0.961   5.080  0.8207  0.1374 -0.4492
  820MOL0     N13074   0.861   0.923   5.013 -0.7228 -0.1913 -1.0400
  820MOL0     C13075  -0.154   0.789   4.466 -0.2077 -0.0169 -0.1217
  820MOL0     C13076  -0.195   0.910   4.421  0.4885 -0.7377  0.1010
  820MOL0     C13077  -0.201   1.393   4.419  0.5145 -0.2768  0.4962
  820MOL0     C13078  -0.325   1.374   4.479  0.1164 -0.3679 -0.3772
  820MOL0     C13079  -0.413   1.485   4.488 -0.2715 -0.8273  0.3177
  820MOL0     C13080  -0.378   1.610   4.446  0.0892  1.5508 -0.1958
  820MOL0     O13081  -0.451   1.718   4.477 -0.0971 -0.3546  0.1413
  820MOL0     C13082  -0.587   1.719   4.419 -0.6370  0.0267 -0.0789
  820MOL0     C13083  -0.646   1.860   4.434 -0.4081  0.5452 -0.6013
  820MOL0     C13084  -0.646   1.894   4.586 -0.3126  0.1117  0.4486
  820MOL0     C13085  -0.689   2.038   4.602 -0.0079  0.3195  0.5115
  820MOL0     C13086  -0.839   2.045   4.608  0.3788  0.2047 -0.3863
  820MOL0     C13087  -0.956   2.068   4.579 -0.9235 -0.2176  0.5764
  820MOL0     C13088  -0.257   1.630   4.386 -0.1848  0.7486  0.6591
  820MOL0     C13089  -0.163   1.516   4.367 -0.0235  0.3656 -0.8544
  820MOL0     C13090  -0.021   1.550   4.317  0.5434 -0.4984  0.1167
  820MOL0     H13091   0.087   1.084   4.482  0.8907 -1.9543 -2.6312
  820MOL0     H13092   0.163   0.880   4.543 -1.5117  1.0705  2.0734
  820MOL0     H13093   0.200   0.649   4.501 -1.5529 -5.0596 -4.4337
  820MOL0     H13094   0.150   0.495   4.572 -1.1461  0.1230 -0.4636
  820MOL0     H13095   0.124   0.742   4.753  1.2120  0.3693  1.5620
  820MOL0     H13096   0.145   0.572   4.790 -3.8791  2.8347  3.0028
  820MOL0     H13097   0.378   0.584   4.693  0.4200 -0.6422 -1.2552
  820MOL0     H13098   0.357   0.756   4.668 -1.2580  0.4681  1.3477
  820MOL0     H13099   0.428   0.800   4.900  0.3097 -0.1215 -0.6833
  820MOL0     H13100   0.278   0.725   4.950  0.7446 -2.8154  1.5214
  820MOL0     H13101   0.524   0.573   4.879 -0.6964  0.8718 -0.1685
  820MOL0     H13102   0.372   0.514   4.963 -3.3988  1.5660  1.2060
  820MOL0     H13103   0.400   0.638   5.154  0.2808  0.9274  0.6098
  820MOL0     H13104   0.544   0.538   5.137 -0.1264 -1.2771 -2.0870
  820MOL0     H13105   0.614   0.762   5.209 -1.4074 -1.0198  0.7408
  820MOL0     H13106   0.564   0.841   5.066  0.8555  1.5739  1.3161
  820MOL0     H13107   0.753   0.611   5.026 -0.3352 -0.3473 -0.2208
  820MOL0     H13108   0.690   0.734   4.918  0.8566  1.3783 -0.4377
  820MOL0     H13109   0.902   0.685   5.236  0.1696  0.1454 -0.1125
  820MOL0     H13110   1.049   0.847   5.387 -3.0660  2.3685 -0.2289
  820MOL0     H13111   1.102   0.997   5.304 -0.5498 -0.1951  1.7003
  820MOL0     H13112   1.215   0.724   5.256 -2.5844  0.7843 -0.3325
  820MOL0     H13113   1.270   0.869   5.186 -2.0242 -0.7568 -0.8349
  820MOL0     H13114   1.312   0.951   5.449  1.2270  0.6007 -1.2306
  820MOL0     H13115   1.291   0.792   5.498  1.7857  1.3774 -0.0295
  820MOL0     H13116   1.494   0.843   5.287  3.7009 -6.2628 -0.7812
  820MOL0     H13117   1.530   0.883   5.455 -0.8354  1.0463 -0.9016
  820MOL0     H13118   1.516   0.444   5.324  0.6332  0.3574  4.1558
  820MOL0     H13119   1.631   0.232   5.268  1.3155 -0.3626  3.3304
  820MOL0     H13120   1.799   0.231   5.268 -1.3154 -0.2382 -0.7157
  820MOL0     H13121   1.720   0.274   5.120  0.8820  1.0010 -0.0523
  820MOL0     H13122   2.153   0.454   4.971 -0.3969  1.8682  5.9012
  820MOL0     H13123   2.355   0.335   4.854 -2.7833 -0.0359 -1.2614
  820MOL0     H13124   2.450  -0.071   5.016  0.5557  0.1613 -0.7484
  820MOL0     H13125   2.573  -0.049   4.910  0.0705 -1.5841  1.2488
  820MOL0     H13126   2.537   0.126   5.152  1.1902 -1.5070  1.6626
  820MOL0     H13127   2.636  -0.013   5.166  0.9795  0.8560 -0.0771
  820MOL0     H13128   2.690   0.231   4.984  1.0108 -0.0213 -0.6239
  820MOL0     H13129   2.770   0.077   4.959  2.9722 -0.5958  1.7935
  820MOL0     H13130   2.883   0.093   5.171  1.6938  0.9735  0.5625
  820MOL0     H13131   2.780   0.235   5.212  1.1936  0.7614  0.7879
  820MOL0     H13132   2.988   0.216   4.976 -1.6932  0.2266 -0.6697
  820MOL0     H13133   2.901   0.358   5.032  0.7339  0.9874  2.9340
  820MOL0     H13134   3.091   0.185   5.192  1.4388  0.8925  1.4674
  820MOL0     H13135   3.033   0.344   5.246 -0.4282 -0.0787  0.0199
  820MOL0     H13136   3.228   0.315   5.022  1.7755  1.8860  0.3739
  820MOL0     H13137   3.253   0.381   5.173  0.8395 -2.4621 -0.5847
  820MOL0     H13138   3.048   0.555   5.129  3.3369  2.9564  1.3219
  820MOL0     H13139   3.064   0.498   4.964 -0.5363  0.3277 -0.0795
  820MOL0     H13140   2.243  -0.019   5.087 -0.7169  0.2994 -0.7098
  820MOL0     H13141   2.054   0.089   5.172 -0.8036 -1.7601 -1.9961
  820MOL0     H13142   1.925   0.703   5.306 -2.5074  2.5410  0.5332
  820MOL0     H13143   1.721   0.798   5.397  1.1310  0.8248 -0.5549
  820MOL0     H13144  -0.221   0.706   4.444 -1.5185  1.1353 -0.6288
  820MOL0     H13145  -0.298   0.919   4.388 -0.1384 -0.4494  2.0419
  820MOL0     H13146  -0.353   1.278   4.520 -1.1643 -0.1291 -0.6525
  820MOL0     H13147  -0.504   1.469   4.544 -1.4725 -1.2927 -1.6857
  820MOL0     H13148  -0.579   1.692   4.313 -2.4433 -0.6454 -0.0804
  820MOL0     H13149  -0.656   1.652   4.470 -1.7213  0.1931 -1.2803
  820MOL0     H13150  -0.744   1.863   4.387 -0.1882  0.4764 -1.0746
  820MOL0     H13151  -0.582   1.938   4.391 -3.0625  4.1590  1.5541
  820MOL0     H13152  -0.708   1.828   4.647 -1.3589  1.2716  0.6664
  820MOL0     H13153  -0.543   1.888   4.623  0.7389 -3.6086 -2.4180
  820MOL0     H13154  -0.645   2.109   4.532  0.3244  1.0325  1.4211
  820MOL0     H13155  -0.655   2.067   4.702  0.3887 -1.5174  0.9510
  820MOL0     H13156  -1.062   2.076   4.564 -0.5858  1.3047 -1.4853
  820MOL0     H13157  -0.227   1.732   4.367 -2.0166  1.0643 -0.8944
  820MOL0     H13158   0.041   1.559   4.407 -0.3599 -3.1762  1.0897
  820MOL0     H13159   0.012   1.464   4.259  0.6160 -0.7308  0.4995
  820MOL0     H13160  -0.015   1.646   4.265 -1.0024 -0.8558 -0.7812
  821MOL0     O13161   1.266   9.848   9.767 -0.7976 -0.5332 -0.7395
  821MOL0     C13162   1.306   9.735   9.721  0.9394 -1.0342 -1.1727
  821MOL0     O13163   1.426   9.677   9.745 -0.5390  0.3456  0.2233
  821MOL0     C13164   1.531   9.721   9.828  0.6535 -0.3076 -0.9236
  821MOL0     C13165   1.659   9.743   9.778 -0.1691 -0.2909 -0.6324
  821MOL0     C13166   1.749   9.828   9.852  0.0285  0.6611 -0.8320
  821MOL0     C13167   1.724   9.844   9.986 -0.6235  1.0410  0.9361
  821MOL0     O13168   1.803   9.905  10.082 -0.1803  0.4929  0.5465
  821MOL0     C13169   1.926   9.970  10.051  0.9509 -0.1094  0.1018
  821MOL0     C13170   2.009   9.988  10.167 -1.0245  0.3838 -1.2610
  821MOL0     C13171   2.150  10.053  10.147  0.9589  0.7178  0.3848
  821MOL0     C13172   2.234  10.080  10.278  0.3906 -0.8937 -0.1380
  821MOL0     C13173   2.384  10.127  10.240  0.0351  0.2104 -1.0076
  821MOL0     C13174   2.382  10.266  10.175 -0.1308  0.8993 -0.2205
  821MOL0     C13175   2.523  10.317  10.176 -0.1793  0.1668 -0.4225
  821MOL0     C13176   2.549  10.422  10.068  0.2695 -0.2011  0.3299
  821MOL0     N13177   2.471  10.543  10.085  0.1831 -0.9224  0.0575
  821MOL0     C13178   2.489  10.650  10.179  0.2293  0.4690  0.5593
  821MOL0     C13179   2.366  10.716  10.171 -0.4047  0.2808 -0.5416
  821MOL0     C13180   2.331  10.834  10.257 -0.0674  0.2380 -0.4707
  821MOL0     C13181   2.331  10.794  10.405  0.3782  0.2599  1.3296
  821MOL0     C13182   2.354  10.921  10.482  0.6145  0.2693 -0.3390
  821MOL0     C13183   2.503  10.951  10.517 -0.1034  0.1211 -0.4103
  821MOL0     O13184   2.570  10.989  10.399 -0.1454  0.3012  0.1838
  821MOL0     C13185   2.702  10.944  10.381  0.5890 -0.2803 -0.3754
  821MOL0     C13186   2.784  10.941  10.499  0.0413  0.2951 -0.6508
  821MOL0     C13187   2.927  10.914  10.480  0.5406  0.6132  0.2763
  821MOL0     C13188   3.015  10.919  10.602 -0.4757  0.0160 -0.5228
  821MOL0     C13189   2.987  10.898  10.353  0.2248 -0.5633 -0.6320
  821MOL0     C13190   3.130  10.888  10.335 -0.2172  0.8336  0.9527
  821MOL0     O13191   3.164  10.791  10.248 -0.5235 -0.5658 -0.0867
  821MOL0     C13192   3.295  10.757  10.241 -0.7836 -0.2499 -0.0772
  821MOL0     C13193   3.372  10.786  10.135  0.9157  0.9522  0.9443
  821MOL0     C13194   3.506  10.749  10.115 -0.6134  0.5695 -0.0320
  821MOL0     C13195   3.565  10.678  10.220  0.0524  0.4574 -0.6237
  821MOL0     O13196   3.695  10.637  10.215  0.1602 -0.1798  0.2308
  821MOL0     C13197   3.754  10.639  10.089 -0.6504 -0.2454  0.4493
  821MOL0     C13198   3.896  10.590  10.113  0.3924 -0.4043  0.0160
  821MOL0     C13199   3.911  10.460  10.033 -0.4635  0.5690  0.4831
  821MOL0     C13200   4.056  10.421  10.042 -0.2890  0.5346 -0.0214
  821MOL0     C13201   4.090  10.270  10.007 -0.7786 -0.2262 -0.0111
  821MOL0     C13202   4.238  10.228  10.040 -0.0733  0.2489 -0.3367
  821MOL0     C13203   4.331  10.341  10.048 -0.6001 -0.3059 -0.3062
  821MOL0     C13204   4.468  10.292  10.085 -0.1958  0.4215 -0.0721
  821MOL0    Cl13205   4.541  10.227   9.931  0.3213  0.2196 -0.0636
  821MOL0     C13206   3.490  10.658  10.343 -0.2312  0.3915  0.6697
  821MOL0     C13207   3.359  10.698  10.358  0.5770  0.4176 -0.7125
  821MOL0     O13208   3.206  10.963  10.394  0.3422 -0.0973  0.1559
  821MOL0     C13209   2.897  10.907  10.239  0.1703  0.0698 -0.1130
  821MOL0     C13210   2.759  10.939  10.249  0.4157  0.0468  0.6499
  821MOL0     N13211   2.281  10.655  10.076 -0.1804  0.3525 -0.4016
  821MOL0     N13212   2.347  10.555  10.027  0.2397  0.0306  0.3091
  821MOL0     C13213   1.610   9.796  10.045 -0.0253  0.8656  1.4313
  821MOL0     C13214   1.506   9.734   9.968 -0.0974 -0.0016 -0.0954
  821MOL0     C13215   1.208   9.685   9.614 -0.5947 -1.1925  0.9285
  821MOL0     C13216   1.249   9.580   9.532 -0.1693  0.3293 -0.2370
  821MOL0     C13217   1.164   9.533   9.430  0.7216  0.4350  0.3321
  821MOL0     C13218   1.033   9.584   9.412  0.3060 -0.3072 -0.2792
  821MOL0     O13219   0.971   9.532   9.308  0.8695 -0.5740  0.2561
  821MOL0     C13220   0.849   9.593   9.266 -0.8620  0.3724 -0.1469
  821MOL0     C13221   0.784   9.493   9.165 -0.2524 -0.4314  0.3201
  821MOL0     C13222   0.681   9.552   9.065 -0.9845  0.2972  0.6398
  821MOL0     C13223   0.664   9.476   8.936  0.0969 -0.4359 -0.7026
  821MOL0     C13224   0.780   9.470   8.843 -0.2986  0.6657  0.8077
  821MOL0     C13225   0.877   9.483   8.772  0.0995 -0.0658  0.0712
  821MOL0     C13226   0.989   9.686   9.499 -0.7457 -0.8615 -0.1738
  821MOL0     C13227   1.074   9.739   9.601 -0.3174 -0.1553  0.3691
  821MOL0     C13228   1.008   9.842   9.695 -0.3681 -0.0372  0.2651
  821MOL0     H13229   1.678   9.719   9.674  2.4702 -0.0177 -0.2885
  821MOL0     H13230   1.842   9.864   9.809  0.9473  0.1826  0.6694
  821MOL0     H13231   1.902  10.062   9.997  2.4126  1.6387  2.2481
  821MOL0     H13232   1.983   9.914   9.976 -1.5722 -1.5096 -0.8819
  821MOL0     H13233   1.954  10.047  10.242  0.6550  1.3850 -0.7744
  821MOL0     H13234   2.022   9.891  10.216 -0.2319  0.9549 -0.3054
  821MOL0     H13235   2.210   9.984  10.086 -0.6076 -0.0416 -0.3416
  821MOL0     H13236   2.135  10.150  10.099  0.1047  0.0443 -0.7608
  821MOL0     H13237   2.185  10.163  10.328 -1.6863 -1.6064 -0.9071
  821MOL0     H13238   2.224   9.987  10.336 -4.2472 -0.9863 -0.7667
  821MOL0     H13239   2.424  10.050  10.173 -0.9365 -1.5786  0.4027
  821MOL0     H13240   2.447  10.131  10.329  1.2208 -1.9423 -1.6794
  821MOL0     H13241   2.351  10.261  10.070  1.4968 -0.2973 -0.7008
  821MOL0     H13242   2.318  10.337  10.228 -1.4221 -0.9479  0.8195
  821MOL0     H13243   2.594  10.234  10.169 -0.2561  0.1486 -1.0287
  821MOL0     H13244   2.556  10.349  10.275  2.1620  3.0794 -2.0100
  821MOL0     H13245   2.656  10.441  10.053 -0.1160  0.4156 -1.8731
  821MOL0     H13246   2.522  10.378   9.972 -0.4774  0.6561  0.1419
  821MOL0     H13247   2.571  10.678  10.245 -1.1409  1.3107  1.9650
  821MOL0     H13248   2.236  10.884  10.237 -0.8091  0.6341  3.3585
  821MOL0     H13249   2.420  10.899  10.251  1.7490 -1.9805  1.0661
  821MOL0     H13250   2.233  10.751  10.427  0.2562 -0.9478 -1.2875
  821MOL0     H13251   2.410  10.723  10.429  0.1926 -0.1950  0.6023
  821MOL0     H13252   2.301  11.003  10.433 -0.1475 -0.0221 -0.0175
  821MOL0     H13253   2.297  10.911  10.575 -0.7381  2.3282 -0.8638
  821MOL0     H13254   2.488  11.027  10.593 -3.2971 -2.5634  1.9456
  821MOL0     H13255   2.545  10.866  10.572 -0.2254 -0.7615 -1.6147
  821MOL0     H13256   2.740  10.957  10.596  2.7577 -0.9442  0.9077
  821MOL0     H13257   2.958  10.862  10.677 -0.0692  0.3007  0.0024
  821MOL0     H13258   3.035  11.020  10.637 -1.3879  1.1481 -3.0556
  821MOL0     H13259   3.113  10.872  10.587 -1.0262 -1.0805 -0.8439
  821MOL0     H13260   3.329  10.850  10.058  0.5579 -1.5443 -1.0453
  821MOL0     H13261   3.552  10.777  10.020  1.7758  1.5811  1.3292
  821MOL0     H13262   3.707  10.591  10.003  0.3731 -2.2805  0.9627
  821MOL0     H13263   3.769  10.743  10.057 -1.8410 -0.2795 -0.2680
  821MOL0     H13264   3.964  10.670  10.083 -0.2512  0.7031  1.4045
  821MOL0     H13265   3.926  10.586  10.218  0.6609  1.8908  0.0715
  821MOL0     H13266   3.895  10.483   9.927 -0.7027  2.3607  0.8758
  821MOL0     H13267   3.843  10.379  10.062 -1.6408  2.8154  5.0092
  821MOL0     H13268   4.082  10.446  10.145  1.2522  0.4542 -0.3690
  821MOL0     H13269   4.109  10.495   9.980  1.1301  0.1476  0.7006
  821MOL0     H13270   4.021  10.200  10.054  2.4846 -2.9253  1.1364
  821MOL0     H13271   4.086  10.251   9.899  2.3627 -1.1895 -0.0536
  821MOL0     H13272   4.261  10.158   9.959 -1.7450 -3.1852  1.9132
  821MOL0     H13273   4.239  10.186  10.141  0.7303  0.5616 -0.2067
  821MOL0     H13274   4.314  10.409  10.132  0.2964 -2.4006  1.6912
  821MOL0     H13275   4.334  10.406   9.960  3.6082  2.0306  1.2281
  821MOL0     H13276   4.460  10.221  10.168 -3.1390  1.9531  1.1091
  821MOL0     H13277   4.537  10.371  10.115  1.3409 -1.2023  0.8974
  821MOL0     H13278   3.533  10.597  10.421 -1.7000 -1.7450 -0.0999
  821MOL0     H13279   3.307  10.680  10.452  0.1912 -1.0313 -1.1881
  821MOL0     H13280   2.943  10.913  10.140  1.2662  2.8712  0.4766
  821MOL0     H13281   2.693  10.945  10.163  0.8136  1.4088  0.4243
  821MOL0     H13282   1.586   9.808  10.150 -1.0091  2.6844  1.0341
  821MOL0     H13283   1.407   9.711  10.008 -2.0870  3.4204 -2.4706
  821MOL0     H13284   1.353   9.557   9.512 -0.4001  0.1994 -1.3972
  821MOL0     H13285   1.193   9.450   9.365 -1.3089 -0.1355  0.0870
  821MOL0     H13286   0.786   9.615   9.353 -1.2033  1.3429 -0.6316
  821MOL0     H13287   0.885   9.684   9.217  0.8933  0.3325  0.9844
  821MOL0     H13288   0.735   9.411   9.217  1.2363 -1.1400  0.6532
  821MOL0     H13289   0.865   9.448   9.108 -0.9751  0.7726 -1.7587
  821MOL0     H13290   0.587   9.526   9.115  0.4263  1.0431  3.9278
  821MOL0     H13291   0.690   9.660   9.048 -2.7011  0.9792  3.3252
  821MOL0     H13292   0.581   9.522   8.882  1.2772  0.4954 -1.7841
  821MOL0     H13293   0.635   9.376   8.970 -1.9387  0.5486  0.6384
  821MOL0     H13294   0.948   9.494   8.693 -2.4351  0.4948 -2.2967
  821MOL0     H13295   0.895   9.740   9.495  0.5486  1.4968 -1.1275
  821MOL0     H13296   0.901   9.863   9.683  0.0628  0.9099 -2.8035
  821MOL0     H13297   1.026   9.817   9.800  1.1411  1.4514  0.3952
  821MOL0     H13298   1.063   9.930   9.663  2.6714 -1.7711  0.3725
  822MOL0     O13299  10.771   9.347  10.518 -0.5263  0.1296 -0.1635
  822MOL0     C13300  10.672   9.338  10.450  0.6420  0.4174  0.3178
  822MOL0     O13301  10.670   9.294  10.317  0.0972  0.4466  0.4797
  822MOL0     C13302  10.779   9.260  10.243 -0.0547  0.3514 -0.1915
  822MOL0     C13303  10.781   9.297  10.102  0.3099 -0.2930  0.6884
  822MOL0     C13304  10.891   9.257  10.019  0.0038  0.5647  0.4636
  822MOL0     C13305  10.998   9.184  10.077  0.0380 -0.4810  0.7742
  822MOL0     O13306  11.099   9.139   9.997  0.8772  0.4119  0.1046
  822MOL0     C13307  11.234   9.147  10.053 -0.6035  0.4037 -0.2777
  822MOL0     C13308  11.336   9.130   9.940 -0.0623  0.1549 -0.4404
  822MOL0     C13309  11.306   9.001   9.863  0.0063  0.5419 -0.7805
  822MOL0     C13310  11.404   8.994   9.746 -0.0030 -0.9873 -0.1842
  822MOL0     C13311  11.544   8.929   9.781 -0.2520 -0.5714 -0.2815
  822MOL0     C13312  11.646   8.958   9.673  0.0669  0.2837  0.2897
  822MOL0     C13313  11.779   8.894   9.719  0.1417  0.4586  0.4996
  822MOL0     C13314  11.857   8.877   9.592 -0.4688  0.3320 -0.3308
  822MOL0     N13315  11.910   9.004   9.550  0.2990 -0.5177 -1.0021
  822MOL0     C13316  12.024   9.066   9.594  0.1508  0.1390 -0.0136
  822MOL0     C13317  12.051   9.166   9.508 -0.0717 -0.8752  0.5636
  822MOL0     C13318  12.151   9.280   9.515  0.7980  0.8082 -0.3818
  822MOL0     C13319  12.291   9.238   9.463  1.2689  0.3176  1.2884
  822MOL0     C13320  12.354   9.137   9.548  0.3876  0.2263 -0.1411
  822MOL0     C13321  12.492   9.113   9.492  0.5039  0.4690 -0.4091
  822MOL0     O13322  12.576   9.205   9.554  0.2097  0.3747  0.3697
  822MOL0     C13323  12.714   9.191   9.534 -0.2886 -0.3497 -0.5872
  822MOL0     C13324  12.801   9.282   9.599 -0.1695  0.1981  0.1928
  822MOL0     C13325  12.940   9.283   9.575  0.3493  0.1296  0.2975
  822MOL0     C13326  13.019   9.388   9.650  0.1423  0.7348  1.2279
  822MOL0     C13327  12.992   9.179   9.496 -0.1596 -0.1244 -0.3663
  822MOL0     C13328  13.130   9.159   9.463  0.1233  0.9325 -0.2524
  822MOL0     O13329  13.176   9.041   9.424  1.0164  0.3167  0.2772
  822MOL0     C13330  13.309   9.032   9.394  0.3287 -0.1685  0.0994
  822MOL0     C13331  13.361   9.064   9.270 -0.8465 -0.4104  1.0467
  822MOL0     C13332  13.498   9.047   9.246 -0.3382 -0.2685 -0.0135
  822MOL0     C13333  13.583   8.986   9.343  0.5859  0.2704 -0.1413
  822MOL0     O13334  13.712   8.951   9.317 -0.3437  0.2987  0.0289
  822MOL0     C13335  13.774   8.960   9.189  0.2933  0.0983  0.1607
  822MOL0     C13336  13.843   9.095   9.177 -0.3612 -0.5252  0.6450
  822MOL0     C13337  13.959   9.116   9.277 -0.4408  0.8809 -0.1468
  822MOL0     C13338  14.083   9.022   9.244  0.2495  0.8953  0.1182
  822MOL0     C13339  14.184   9.027   9.353  0.1574 -0.7464  0.2609
  822MOL0     C13340  14.289   8.915   9.320 -0.0380 -0.3161  0.6930
  822MOL0     C13341  14.420   8.935   9.407  0.3042  0.8870  0.5497
  822MOL0     C13342  14.523   8.821   9.380 -0.8490  0.9790 -0.2726
  822MOL0    Cl13343  14.610   8.838   9.225  0.3713 -0.2869  0.0987
  822MOL0     C13344  13.538   8.963   9.468  0.5141  0.8943 -0.4770
  822MOL0     C13345  13.400   8.982   9.486  1.2961 -0.0058  0.2688
  822MOL0     O13346  13.196   9.264   9.457  0.6258  0.2935 -0.6450
  822MOL0     C13347  12.910   9.078   9.439 -1.2478 -0.2791  0.1403
  822MOL0     C13348  12.774   9.090   9.456  1.2881 -0.4303  0.2744
  822MOL0     N13349  11.950   9.172   9.420 -0.0717  0.6036  0.6427
  822MOL0     N13350  11.871   9.073   9.438  0.1184  0.0732  0.3763
  822MOL0     C13351  10.996   9.144  10.215  0.6174 -1.2299 -0.3384
  822MOL0     C13352  10.881   9.180  10.303  0.3962  0.6257  0.7658
  822MOL0     C13353  10.553   9.366  10.517  0.0951  0.2188 -1.2114
  822MOL0     C13354  10.539   9.320  10.651 -0.4485 -0.6179 -0.3219
  822MOL0     C13355  10.419   9.324  10.722  0.0323 -0.7649  0.0053
  822MOL0     C13356  10.308   9.377  10.666 -0.3149  0.9791 -0.0224
  822MOL0     O13357  10.188   9.374  10.723  0.1243  0.2436  0.1108
  822MOL0     C13358  10.171   9.314  10.855 -0.0415  0.1525  1.2682
  822MOL0     C13359  10.022   9.297  10.903 -0.1296  0.0009  0.6343
  822MOL0     C13360   9.956   9.428  10.933 -0.8978 -0.6591  0.4179
  822MOL0     C13361   9.814   9.412  10.980  0.1724  0.0530 -0.0743
  822MOL0     C13362   9.728   9.528  10.954 -0.5606 -0.2726  1.0968
  822MOL0     C13363   9.653   9.622  10.923 -0.2912  0.8260 -0.0513
  822MOL0     C13364  10.318   9.442  10.541  0.2081 -0.2669 -0.0051
  822MOL0     C13365  10.433   9.436  10.466 -0.5388 -0.4631  0.3287
  822MOL0     C13366  10.439   9.488  10.325  0.4365 -0.0495  0.3343
  822MOL0     H13367  10.697   9.354  10.065  0.7289 -2.0178 -3.4097
  822MOL0     H13368  10.884   9.271   9.911 -1.1227  0.0140  0.4438
  822MOL0     H13369  11.243   9.068  10.129 -0.1055  0.2549 -0.4931
  822MOL0     H13370  11.250   9.244  10.100 -2.1533  0.5005  0.1380
  822MOL0     H13371  11.322   9.214   9.873  0.3991  1.9839  1.6409
  822MOL0     H13372  11.436   9.146   9.981  0.1522 -0.0512 -0.8781
  822MOL0     H13373  11.319   8.922   9.937  1.8046 -0.6290 -2.2782
  822MOL0     H13374  11.203   8.989   9.825  0.8301  0.9222 -3.3711
  822MOL0     H13375  11.360   8.942   9.661  0.6564  0.1236 -1.2241
  822MOL0     H13376  11.424   9.094   9.709  1.7207 -1.5742 -0.9211
  822MOL0     H13377  11.527   8.826   9.812 -0.0392  0.2143  2.6765
  822MOL0     H13378  11.568   8.981   9.874 -0.4485  2.8877 -2.0014
  822MOL0     H13379  11.617   8.902   9.584  2.1965 -0.6512  0.1236
  822MOL0     H13380  11.659   9.066   9.658 -2.0673  0.2969 -2.0274
  822MOL0     H13381  11.757   8.798   9.766 -0.0756  0.7757  1.0651
  822MOL0     H13382  11.835   8.966   9.780  0.2120  0.9184 -0.0988
  822MOL0     H13383  11.943   8.819   9.627  0.3535  3.1727  2.9394
  822MOL0     H13384  11.809   8.837   9.503  0.8637  1.9975 -1.8873
  822MOL0     H13385  12.083   9.046   9.683  1.0841 -0.2968 -0.7179
  822MOL0     H13386  12.157   9.323   9.615  0.1400 -0.0346  0.0260
  822MOL0     H13387  12.114   9.354   9.443 -0.8439 -0.1789 -0.5932
  822MOL0     H13388  12.275   9.180   9.371  0.8346  2.2606  0.0860
  822MOL0     H13389  12.354   9.325   9.442  0.6586  0.0013 -2.5142
  822MOL0     H13390  12.367   9.166   9.653  0.9165  2.6996 -0.8229
  822MOL0     H13391  12.313   9.036   9.546 -1.4047  0.9287 -0.0678
  822MOL0     H13392  12.516   9.012   9.525  1.2734  0.3893 -1.1704
  822MOL0     H13393  12.514   9.106   9.385  2.2500  1.0375 -0.1345
  822MOL0     H13394  12.749   9.357   9.658 -5.1882 -0.7639 -2.4194
  822MOL0     H13395  13.047   9.477   9.594 -1.1149  0.3883 -0.0063
  822MOL0     H13396  13.104   9.341   9.701  1.5104 -0.4778 -1.9321
  822MOL0     H13397  12.949   9.430   9.723  0.5856 -0.2797  2.2714
  822MOL0     H13398  13.294   9.109   9.197  0.2421 -0.3708  0.0525
  822MOL0     H13399  13.532   9.074   9.146 -1.7912 -0.4100 -0.5658
  822MOL0     H13400  13.837   8.870   9.192 -2.4423 -1.9210  1.0319
  822MOL0     H13401  13.704   8.936   9.109  3.1971 -0.2068 -2.4658
  822MOL0     H13402  13.879   9.118   9.076 -0.1296  3.3133  1.4439
  822MOL0     H13403  13.769   9.172   9.201  0.0326 -0.0132  0.2471
  822MOL0     H13404  13.920   9.096   9.377 -1.8797  1.3032 -0.5983
  822MOL0     H13405  13.992   9.220   9.289  0.4718  0.4221  1.8362
  822MOL0     H13406  14.130   9.043   9.148  2.2160  1.8476  1.2297
  822MOL0     H13407  14.043   8.921   9.233  1.0377  0.6271 -0.3256
  822MOL0     H13408  14.236   9.123   9.347 -1.1242 -0.0400  0.1245
  822MOL0     H13409  14.144   9.008   9.452  1.2457  0.4119  0.9586
  822MOL0     H13410  14.314   8.922   9.213 -2.4937  2.0988  0.1778
  822MOL0     H13411  14.256   8.813   9.340  1.7936 -0.4607  3.5785
  822MOL0     H13412  14.406   8.933   9.515 -0.0539  1.2465  0.5152
  822MOL0     H13413  14.461   9.035   9.387  3.0045 -0.6021 -2.2440
  822MOL0     H13414  14.480   8.721   9.388 -1.8823  1.5566  2.2300
  822MOL0     H13415  14.594   8.829   9.463 -2.6329 -0.0260  1.4120
  822MOL0     H13416  13.606   8.923   9.542 -0.6023  1.5784  0.9646
  822MOL0     H13417  13.356   8.949   9.579  1.0589 -1.4817 -0.3389
  822MOL0     H13418  12.934   8.998   9.370 -1.9133 -1.1817  0.9331
  822MOL0     H13419  12.712   9.018   9.403  0.3095  0.1117  0.6426
  822MOL0     H13420  11.079   9.084  10.250  1.3331 -0.0032  0.1268
  822MOL0     H13421  10.885   9.145  10.406 -0.4099  0.1166  0.6330
  822MOL0     H13422  10.621   9.272  10.705 -0.4759  0.8495  1.1086
  822MOL0     H13423  10.410   9.280  10.821  1.6366 -0.7911  0.1632
  822MOL0     H13424  10.208   9.212  10.842  1.1953  0.9180 -2.1972
  822MOL0     H13425  10.223   9.371  10.933  2.2026  0.0671 -0.0767
  822MOL0     H13426  10.028   9.232  10.990 -3.1504  0.6337  1.4198
  822MOL0     H13427   9.974   9.231  10.829  0.8458 -1.1676  1.0188
  822MOL0     H13428  10.012   9.483  11.009  1.6476 -4.1154  1.2725
  822MOL0     H13429   9.979   9.486  10.843  0.4506 -0.2663  0.9818
  822MOL0     H13430   9.816   9.396  11.089 -2.1154 -2.8122 -0.3394
  822MOL0     H13431   9.764   9.332  10.925 -3.3866  2.2870 -0.4371
  822MOL0     H13432   9.577   9.696  10.906 -0.4968  0.6741  0.1968
  822MOL0     H13433  10.226   9.492  10.513 -0.4015 -1.0776  0.5098
  822MOL0     H13434  10.399   9.410  10.259  3.6023 -1.9275  0.4495
  822MOL0     H13435  10.397   9.588  10.314 -1.2769 -0.6265  1.3064
  822MOL0     H13436  10.540   9.508  10.288  0.3280 -3.6535 -2.4702
  823MOL0     O13437  10.755   2.320   5.909 -0.5505 -0.1225  0.3477
  823MOL0     C13438  10.707   2.325   6.021 -0.3892 -0.2347 -0.3382
  823MOL0     O13439  10.758   2.259   6.123 -0.1584 -0.0357  0.2093
  823MOL0     C13440  10.833   2.148   6.101  1.1634  0.2306 -0.0329
  823MOL0     C13441  10.970   2.163   6.098  0.0070  0.1787  0.3432
  823MOL0     C13442  11.058   2.051   6.071 -0.0216 -0.4881 -0.9885
  823MOL0     C13443  11.002   1.922   6.060  1.2113  0.0214 -0.0585
  823MOL0     O13444  11.088   1.813   6.053  1.2710  0.4264 -0.3467
  823MOL0     C13445  11.045   1.680   6.097  0.1792  0.0169  0.2612
  823MOL0     C13446  11.180   1.609   6.098  0.1021  0.5981 -0.6838
  823MOL0     C13447  11.250   1.632   6.231 -0.1026 -0.0117  0.5298
  823MOL0     C13448  11.376   1.543   6.217 -0.2470  0.0288 -0.1166
  823MOL0     C13449  11.490   1.577   6.315 -0.4757 -0.6463 -0.3735
  823MOL0     C13450  11.624   1.517   6.272 -0.4040  0.0391  0.5211
  823MOL0     C13451  11.729   1.521   6.392 -0.1227 -0.1039  0.4821
  823MOL0     C13452  11.768   1.667   6.415 -0.5504  0.3744 -0.4796
  823MOL0     N13453  11.880   1.669   6.510 -0.0550 -0.9569 -0.2464
  823MOL0     C13454  12.014   1.640   6.467 -0.2616  0.5936 -0.4460
  823MOL0     C13455  12.090   1.683   6.576  0.5664 -0.0211 -0.5620
  823MOL0     C13456  12.234   1.672   6.606 -0.3951 -0.2727 -0.1770
  823MOL0     C13457  12.296   1.774   6.700 -0.1568 -0.1808  0.4940
  823MOL0     C13458  12.432   1.719   6.752  0.3458  0.1384  0.0481
  823MOL0     C13459  12.397   1.634   6.879 -0.4072 -0.0182  0.6071
  823MOL0     O13460  12.491   1.536   6.925  0.0454  0.2488  0.2808
  823MOL0     C13461  12.624   1.556   6.966  0.4827 -0.9861  0.4766
  823MOL0     C13462  12.709   1.453   6.995  0.1150 -0.6296  1.1108
  823MOL0     C13463  12.845   1.465   7.025 -0.1057 -0.3692  0.4078
  823MOL0     C13464  12.916   1.344   7.063  0.2513  0.4072  1.1242
  823MOL0     C13465  12.899   1.597   7.034  0.6440  0.1506  0.0867
  823MOL0     C13466  13.049   1.618   7.059  0.6694  0.7461  0.8398
  823MOL0     O13467  13.078   1.723   7.149  0.6901 -0.1682  0.0936
  823MOL0     C13468  13.201   1.772   7.180 -0.3815 -0.2574 -1.4492
  823MOL0     C13469  13.201   1.874   7.272  0.4646 -0.0857  0.4401
  823MOL0     C13470  13.317   1.938   7.302  0.3042 -0.1246  1.3906
  823MOL0     C13471  13.431   1.918   7.234 -0.4721  0.4516  0.0505
  823MOL0     O13472  13.547   1.983   7.257 -0.2912 -0.3227 -0.0980
  823MOL0     C13473  13.568   2.063   7.379 -0.5872 -0.3485  0.5512
  823MOL0     C13474  13.713   2.114   7.391 -0.4333 -1.1553 -0.3570
  823MOL0     C13475  13.756   2.143   7.532  0.2485 -0.4322  0.5180
  823MOL0     C13476  13.895   2.212   7.540 -0.5688  0.6277 -0.1996
  823MOL0     C13477  13.950   2.206   7.682 -0.6209 -0.8139  0.7314
  823MOL0     C13478  14.028   2.334   7.710  0.1740  0.3084 -1.0099
  823MOL0     C13479  14.068   2.324   7.861  0.2205 -0.0180  0.3554
  823MOL0     C13480  14.199   2.403   7.889 -0.0563 -0.0465  1.4656
  823MOL0    Cl13481  14.333   2.303   7.820  0.0739  0.0333 -0.1301
  823MOL0     C13482  13.440   1.812   7.147  0.6367  0.6300  0.2567
  823MOL0     C13483  13.320   1.739   7.123 -0.2123  0.2989 -0.4610
  823MOL0     O13484  13.131   1.549   6.999 -0.0524  0.7628 -0.5798
  823MOL0     C13485  12.804   1.703   7.025 -0.5462 -0.1099  0.3290
  823MOL0     C13486  12.672   1.683   6.981 -0.8928 -0.6429  0.3219
  823MOL0     N13487  12.006   1.735   6.670  0.2543  0.5686  0.4066
  823MOL0     N13488  11.881   1.714   6.635  1.1662 -0.5453 -0.4251
  823MOL0     C13489  10.861   1.908   6.090  0.9066 -0.9873  0.1393
  823MOL0     C13490  10.778   2.023   6.100  0.5354 -0.0280  1.1462
  823MOL0     C13491  10.582   2.406   6.056  0.1849 -0.4443 -0.7960
  823MOL0     C13492  10.517   2.467   5.947  0.7266 -0.3901  0.0002
  823MOL0     C13493  10.411   2.563   5.958 -0.2874  1.2427 -0.2012
  823MOL0     C13494  10.368   2.589   6.085  0.0443 -0.0450 -0.2152
  823MOL0     O13495  10.266   2.680   6.095  0.5381  1.4121  0.1139
  823MOL0     C13496  10.200   2.729   6.209 -0.8336  0.1102 -0.0775
  823MOL0     C13497  10.071   2.648   6.242 -0.1376 -0.2372  0.8665
  823MOL0     C13498   9.972   2.664   6.119  0.2221  0.2126 -0.4235
  823MOL0     C13499   9.843   2.582   6.153 -0.2563 -0.4916 -0.1065
  823MOL0     C13500   9.766   2.634   6.263  0.0329 -0.0617 -0.6830
  823MOL0     C13501   9.715   2.677   6.360 -0.7136  0.6054 -0.4438
  823MOL0     C13502  10.426   2.528   6.197  0.3442  0.8883  0.3591
  823MOL0     C13503  10.537   2.443   6.191  0.0662 -0.5537 -0.0204
  823MOL0     C13504  10.602   2.400   6.319  0.2021 -0.4777  0.1987
  823MOL0     H13505  11.013   2.261   6.114 -1.3220  0.7559  0.5139
  823MOL0     H13506  11.166   2.056   6.059 -0.0401  1.4399 -0.7238
  823MOL0     H13507  10.972   1.630   6.032 -0.2134 -1.0029  1.4457
  823MOL0     H13508  11.007   1.692   6.199  1.3896 -0.1198  0.7405
  823MOL0     H13509  11.162   1.503   6.080  2.1704  0.3049 -1.2516
  823MOL0     H13510  11.248   1.649   6.023  1.2202  0.8477  0.4225
  823MOL0     H13511  11.275   1.738   6.244  0.5355 -0.2317  1.1708
  823MOL0     H13512  11.182   1.601   6.310  1.3479  0.1362  1.8920
  823MOL0     H13513  11.356   1.436   6.228  0.6006 -0.2750 -1.3211
  823MOL0     H13514  11.416   1.556   6.117  0.3874 -2.6510 -0.3039
  823MOL0     H13515  11.465   1.551   6.419  0.1430  0.8892  0.1974
  823MOL0     H13516  11.511   1.684   6.315  0.8591 -0.8803  0.6330
  823MOL0     H13517  11.606   1.411   6.256  0.5471  0.0940 -1.1113
  823MOL0     H13518  11.659   1.560   6.178 -2.4112 -0.3446 -0.4460
  823MOL0     H13519  11.815   1.458   6.368  0.2764 -0.2170  2.1005
  823MOL0     H13520  11.690   1.485   6.488 -0.0669  0.6878  0.8065
  823MOL0     H13521  11.798   1.714   6.320 -1.9119 -0.6416 -1.4457
  823MOL0     H13522  11.682   1.718   6.459 -0.7787 -0.9867  0.6921
  823MOL0     H13523  12.056   1.600   6.376  0.8657  1.9108 -0.5404
  823MOL0     H13524  12.278   1.665   6.506  1.4317  0.2321  0.5657
  823MOL0     H13525  12.254   1.573   6.647 -0.9966 -0.7468 -0.9961
  823MOL0     H13526  12.315   1.864   6.640 -2.8072  0.0021 -0.2070
  823MOL0     H13527  12.231   1.803   6.783 -0.3191 -0.6266  0.5226
  823MOL0     H13528  12.478   1.666   6.668 -4.7349 -0.6392 -2.6444
  823MOL0     H13529  12.494   1.801   6.788  2.9179 -1.8807  0.5481
  823MOL0     H13530  12.372   1.707   6.957 -3.1016 -0.6669  0.4464
  823MOL0     H13531  12.299   1.588   6.868  0.2160 -1.8813  2.3284
  823MOL0     H13532  12.668   1.353   6.986 -2.0852  0.1836  1.4695
  823MOL0     H13533  12.978   1.338   7.153  1.3770 -0.9841  0.3005
  823MOL0     H13534  12.987   1.311   6.986 -0.6515 -1.8372  1.1568
  823MOL0     H13535  12.845   1.261   7.069 -0.8275  1.3417  1.7122
  823MOL0     H13536  13.110   1.902   7.323 -0.0338 -1.2981  0.2631
  823MOL0     H13537  13.319   2.020   7.374 -3.5224  1.0890  0.3823
  823MOL0     H13538  13.501   2.147   7.399  1.4800  0.6298  4.3432
  823MOL0     H13539  13.558   2.002   7.469  0.6945  1.8144  2.2532
  823MOL0     H13540  13.791   2.064   7.332  0.7592  2.3642 -2.0726
  823MOL0     H13541  13.714   2.214   7.346  1.5755 -0.9619  0.0422
  823MOL0     H13542  13.749   2.043   7.576 -2.5499  0.4728  2.4180
  823MOL0     H13543  13.684   2.202   7.590 -0.8121  0.0200 -1.1924
  823MOL0     H13544  13.898   2.313   7.498  1.5474 -0.5876 -3.3811
  823MOL0     H13545  13.967   2.162   7.475 -1.8992 -0.4677 -0.8939
  823MOL0     H13546  13.863   2.207   7.748 -1.7367  1.8371 -0.6176
  823MOL0     H13547  14.015   2.119   7.695 -0.3950 -0.8451 -0.5002
  823MOL0     H13548  13.971   2.425   7.695 -1.3071 -0.0988  1.5313
  823MOL0     H13549  14.118   2.341   7.648  1.0276  2.2615  0.3676
  823MOL0     H13550  14.070   2.220   7.893 -1.6812  0.1967  1.3455
  823MOL0     H13551  13.987   2.368   7.921 -0.1802  1.6513 -1.3283
  823MOL0     H13552  14.207   2.418   7.997  0.6349  1.7989  1.1955
  823MOL0     H13553  14.202   2.499   7.837 -1.6458 -0.5699  0.3333
  823MOL0     H13554  13.528   1.779   7.092 -1.0490 -1.3309 -1.4503
  823MOL0     H13555  13.328   1.662   7.047  1.3439 -1.3522  1.2720
  823MOL0     H13556  12.833   1.806   7.044 -3.4341  0.8287  0.1622
  823MOL0     H13557  12.600   1.764   6.983 -0.9687 -0.6901 -0.3075
  823MOL0     H13558  10.813   1.810   6.096 -0.9519 -0.1669 -0.5552
  823MOL0     H13559  10.670   2.027   6.102  0.5618  0.7366  1.3971
  823MOL0     H13560  10.551   2.452   5.845 -0.7214  1.6000 -0.8316
  823MOL0     H13561  10.362   2.612   5.874 -2.0425 -0.9914 -0.5610
  823MOL0     H13562  10.262   2.723   6.299 -4.1148 -3.6851  2.2899
  823MOL0     H13563  10.173   2.834   6.190 -1.4611  0.6336  3.1113
  823MOL0     H13564  10.032   2.686   6.336  0.3882  4.7147 -0.6382
  823MOL0     H13565  10.094   2.542   6.257 -1.1513 -0.0041  5.6135
  823MOL0     H13566   9.953   2.770   6.102  1.1409  0.4533 -0.0203
  823MOL0     H13567  10.015   2.625   6.026 -2.3394 -0.2976 -1.4847
  823MOL0     H13568   9.852   2.476   6.177 -0.9478  0.2546  4.3250
  823MOL0     H13569   9.782   2.585   6.062 -2.2230  0.7780  1.1661
  823MOL0     H13570   9.660   2.719   6.442 -1.3481 -1.4930  0.2610
  823MOL0     H13571  10.389   2.541   6.298 -1.4412 -1.6162  0.1310
  823MOL0     H13572  10.614   2.293   6.334  4.0274 -0.1735  0.2305
  823MOL0     H13573  10.703   2.442   6.321  0.4170 -0.9370 -0.6436
  823MOL0     H13574  10.550   2.429   6.410 -0.4224  1.2804 -0.6580
  824MOL0     O13575   1.364   3.883   3.199  0.0733 -0.6673 -0.2552
  824MOL0     C13576   1.389   3.844   3.314 -0.4427  0.2590  0.2190
  824MOL0     O13577   1.439   3.923   3.414 -0.4692  0.2033 -0.1065
  824MOL0     C13578   1.422   4.049   3.390  0.3158  0.0329  0.4002
  824MOL0     C13579   1.343   4.124   3.468  0.0693  0.2350  0.3862
  824MOL0     C13580   1.320   4.257   3.441 -0.5806  0.3975  0.0973
  824MOL0     C13581   1.391   4.329   3.346  0.3240  0.3485 -0.0260
  824MOL0     O13582   1.360   4.459   3.332  0.1260  0.0971  0.5190
  824MOL0     C13583   1.407   4.532   3.212  0.2984 -1.2025 -0.3291
  824MOL0     C13584   1.511   4.638   3.257 -0.7267  0.1347 -0.5752
  824MOL0     C13585   1.638   4.577   3.314 -0.2206  0.4144  0.1689
  824MOL0     C13586   1.726   4.689   3.369 -0.5936 -0.1630  0.8398
  824MOL0     C13587   1.859   4.648   3.439 -0.3959 -0.0667  0.1369
  824MOL0     C13588   1.940   4.555   3.348 -0.8525 -0.7968  0.3885
  824MOL0     C13589   1.983   4.627   3.219 -0.2978  0.9320  0.0538
  824MOL0     C13590   2.093   4.566   3.140 -0.4160  0.1494 -0.0686
  824MOL0     N13591   2.220   4.585   3.205 -1.0186 -0.3995 -0.6509
  824MOL0     C13592   2.287   4.697   3.205 -0.1440 -0.4144  0.1735
  824MOL0     C13593   2.400   4.691   3.279 -0.5514  0.6374  0.2197
  824MOL0     C13594   2.503   4.799   3.292  0.5249 -0.1329  0.2984
  824MOL0     C13595   2.647   4.749   3.264  0.4503  0.6457 -0.5738
  824MOL0     C13596   2.748   4.864   3.273  0.0857 -0.2622  0.2987
  824MOL0     C13597   2.876   4.791   3.214 -0.0698  0.5814 -0.0544
  824MOL0     O13598   2.958   4.892   3.162 -0.0160  0.9391 -0.5087
  824MOL0     C13599   3.079   4.840   3.123  0.5969 -0.9246  0.1016
  824MOL0     C13600   3.143   4.922   3.031 -0.2841  0.0028  0.5719
  824MOL0     C13601   3.266   4.887   2.982  0.3492  0.5627  0.1615
  824MOL0     C13602   3.322   4.984   2.883 -0.2904 -0.2159 -0.0980
  824MOL0     C13603   3.329   4.767   3.008  0.8579  0.3364 -0.5138
  824MOL0     C13604   3.469   4.723   2.972  0.1699  0.7870 -0.4941
  824MOL0     O13605   3.564   4.820   2.956 -0.3222 -1.1088  0.0677
  824MOL0     C13606   3.698   4.783   2.946 -0.5277 -0.3234  0.1804
  824MOL0     C13607   3.757   4.719   3.055 -1.3052 -0.8567 -0.6993
  824MOL0     C13608   3.892   4.691   3.053 -0.5724  0.2435 -0.4328
  824MOL0     C13609   3.970   4.741   2.943 -0.3985 -0.0860  1.1256
  824MOL0     O13610   4.101   4.737   2.951 -0.6449  1.4944 -0.7999
  824MOL0     C13611   4.163   4.621   3.011  0.0599 -0.6716 -0.8295
  824MOL0     C13612   4.311   4.609   2.985  0.3266  0.3694 -0.2595
  824MOL0     C13613   4.392   4.726   3.040 -0.2314  0.9651 -0.1352
  824MOL0     C13614   4.531   4.686   3.048  0.1507 -0.3440  0.7784
  824MOL0     C13615   4.622   4.808   3.013 -0.0583  0.0703  0.6483
  824MOL0     C13616   4.759   4.774   3.062 -0.0030  0.2506 -0.3136
  824MOL0     C13617   4.845   4.903   3.080  0.2355  0.3552  0.1649
  824MOL0     C13618   4.996   4.854   3.098  0.6432 -0.4252 -0.5954
  824MOL0    Cl13619   5.101   4.989   3.048 -0.1150 -0.0946  0.2981
  824MOL0     C13620   3.910   4.806   2.838  0.2835 -0.2586 -0.4884
  824MOL0     C13621   3.767   4.822   2.837 -0.8019 -0.6895  0.0107
  824MOL0     O13622   3.492   4.603   2.971  0.3632 -0.7210 -0.1112
  824MOL0     C13623   3.262   4.685   3.101 -0.6919 -0.1477  0.0071
  824MOL0     C13624   3.136   4.720   3.157 -0.7048  0.6806  0.6299
  824MOL0     N13625   2.400   4.563   3.332  0.5626 -0.0392 -0.0234
  824MOL0     N13626   2.286   4.496   3.291  0.5026 -0.7357 -0.1244
  824MOL0     C13627   1.485   4.250   3.270  0.2503  0.5951  0.2671
  824MOL0     C13628   1.498   4.115   3.297 -0.1526  0.4549 -0.3233
  824MOL0     C13629   1.397   3.697   3.338  0.1448  0.4799  1.3132
  824MOL0     C13630   1.442   3.636   3.456  0.1083 -0.1123  0.1000
  824MOL0     C13631   1.451   3.498   3.486 -0.2239 -0.6545 -0.4298
  824MOL0     C13632   1.423   3.408   3.387  0.5593  1.0428 -1.2983
  824MOL0     O13633   1.432   3.265   3.396 -0.6132 -0.0888  0.5125
  824MOL0     C13634   1.499   3.208   3.507  0.0921 -0.0885  0.2639
  824MOL0     C13635   1.535   3.067   3.468  0.0956 -0.3019  0.4596
  824MOL0     C13636   1.413   2.976   3.475  0.8143 -0.5103  0.5561
  824MOL0     C13637   1.448   2.848   3.540  0.2118  0.1724  0.3779
  824MOL0     C13638   1.529   2.764   3.445  0.5642 -0.3029 -0.4769
  824MOL0     C13639   1.591   2.686   3.382  0.4347 -0.0053  1.0962
  824MOL0     C13640   1.377   3.456   3.269 -0.0043  0.2426  0.2637
  824MOL0     C13641   1.360   3.596   3.243  0.0921  0.3866 -0.4883
  824MOL0     C13642   1.287   3.622   3.113 -0.2386  0.3214  0.0336
  824MOL0     H13643   1.286   4.070   3.544  1.7166 -0.7679  0.9832
  824MOL0     H13644   1.248   4.317   3.497 -0.8775  0.1296  0.0028
  824MOL0     H13645   1.327   4.588   3.164 -0.0914 -2.3779 -1.1020
  824MOL0     H13646   1.453   4.464   3.140  1.9593  0.1383 -0.5849
  824MOL0     H13647   1.548   4.691   3.169  1.0916  0.6824  0.4845
  824MOL0     H13648   1.458   4.701   3.329 -2.0700 -1.3094 -0.2425
  824MOL0     H13649   1.621   4.517   3.404 -0.2696  2.4480  1.5971
  824MOL0     H13650   1.692   4.510   3.247  0.8848 -1.4741  2.7836
  824MOL0     H13651   1.746   4.759   3.288 -0.4630 -0.2789  0.7712
  824MOL0     H13652   1.677   4.751   3.444 -1.5496  1.1857 -0.8481
  824MOL0     H13653   1.842   4.597   3.534  1.7087  0.3333  0.7821
  824MOL0     H13654   1.913   4.742   3.452 -0.6080  0.6602 -3.2709
  824MOL0     H13655   2.035   4.539   3.401  0.5124  0.7327 -1.4174
  824MOL0     H13656   1.887   4.463   3.327  1.6496 -1.5380 -3.8460
  824MOL0     H13657   2.010   4.729   3.248 -2.7101  0.9380  2.6857
  824MOL0     H13658   1.895   4.623   3.154  0.2376 -1.2864 -0.6271
  824MOL0     H13659   2.060   4.470   3.100 -2.7427  0.7763  0.2366
  824MOL0     H13660   2.109   4.634   3.056 -1.7631  1.1734  0.4759
  824MOL0     H13661   2.257   4.789   3.155  0.8133  0.7187  1.6209
  824MOL0     H13662   2.502   4.832   3.396  1.4319 -3.0750  1.3125
  824MOL0     H13663   2.469   4.884   3.232  1.4252 -0.5031 -0.7692
  824MOL0     H13664   2.669   4.676   3.342 -0.9963  0.2251 -0.5387
  824MOL0     H13665   2.649   4.705   3.164 -1.3017 -0.6748 -0.0829
  824MOL0     H13666   2.722   4.949   3.209 -2.0354  0.2173  1.6884
  824MOL0     H13667   2.766   4.895   3.376 -0.6300  3.8558 -0.6361
  824MOL0     H13668   2.922   4.735   3.295  0.4051 -1.3226 -1.5624
  824MOL0     H13669   2.857   4.721   3.132 -1.3267 -0.9992  1.5255
  824MOL0     H13670   3.094   5.016   3.007 -1.5792 -1.1693 -1.8170
  824MOL0     H13671   3.385   4.931   2.811 -1.6908 -0.0757 -1.4697
  824MOL0     H13672   3.374   5.048   2.955  0.4514 -1.4153  0.4578
  824MOL0     H13673   3.252   5.044   2.823  1.0338  0.5267 -0.9406
  824MOL0     H13674   3.690   4.697   3.138  1.2438 -3.0110  0.9829
  824MOL0     H13675   3.930   4.655   3.148 -0.4705  0.2036 -0.4892
  824MOL0     H13676   4.162   4.626   3.120  1.7927 -1.1939 -0.7555
  824MOL0     H13677   4.112   4.535   2.966  0.6974 -0.6446 -1.6112
  824MOL0     H13678   4.342   4.519   3.038 -0.6586  0.9357  1.3623
  824MOL0     H13679   4.308   4.602   2.876 -1.0493  0.7513 -0.2653
  824MOL0     H13680   4.360   4.761   3.138  3.1952  4.9577 -0.2023
  824MOL0     H13681   4.376   4.807   2.969  0.7175  0.1679 -1.3062
  824MOL0     H13682   4.551   4.610   2.972  0.7689  2.2115 -1.7890
  824MOL0     H13683   4.531   4.659   3.154 -2.0986 -0.1521  0.8795
  824MOL0     H13684   4.633   4.829   2.906 -0.5370 -1.0609  0.3694
  824MOL0     H13685   4.571   4.881   3.076 -0.9952 -0.3193  0.3570
  824MOL0     H13686   4.789   4.691   2.998  0.0852  1.4749 -1.9034
  824MOL0     H13687   4.754   4.721   3.158  1.3085 -0.6225 -0.7028
  824MOL0     H13688   4.809   4.972   3.157  1.4125  1.2130 -0.0219
  824MOL0     H13689   4.836   4.962   2.988 -2.3826  1.8973  1.2997
  824MOL0     H13690   5.010   4.761   3.043  0.9311 -1.4947  1.1947
  824MOL0     H13691   5.009   4.836   3.205 -1.4364  1.0955 -0.0022
  824MOL0     H13692   3.968   4.851   2.757 -0.9313  1.8920 -0.2459
  824MOL0     H13693   3.729   4.877   2.751 -1.7838  0.0284  0.8874
  824MOL0     H13694   3.296   4.588   3.137 -0.7266 -0.1079  0.1474
  824MOL0     H13695   3.092   4.648   3.225 -0.5304 -1.6742 -1.5731
  824MOL0     H13696   1.551   4.293   3.195 -0.3980 -2.8229 -2.5475
  824MOL0     H13697   1.566   4.052   3.240 -3.5783 -1.9397 -2.1296
  824MOL0     H13698   1.485   3.695   3.536  0.1873  2.0944 -1.4601
  824MOL0     H13699   1.479   3.479   3.589  0.0347  3.3293  0.3674
  824MOL0     H13700   1.588   3.266   3.535  1.4760 -0.6801 -2.5737
  824MOL0     H13701   1.434   3.207   3.595  0.3589 -1.3057  0.4607
  824MOL0     H13702   1.613   3.028   3.535  0.1384 -1.3991 -0.2095
  824MOL0     H13703   1.584   3.066   3.370  0.1503 -2.7128  0.4553
  824MOL0     H13704   1.329   3.015   3.534  1.4939  1.7879  0.0986
  824MOL0     H13705   1.374   2.947   3.377  1.9349 -0.0927 -0.0246
  824MOL0     H13706   1.351   2.799   3.555  0.2208 -0.4598 -1.3744
  824MOL0     H13707   1.483   2.854   3.643 -2.3503 -0.7995  1.3924
  824MOL0     H13708   1.657   2.619   3.329  0.0160  0.5034 -0.1208
  824MOL0     H13709   1.348   3.375   3.203 -0.8203  0.8089 -0.1033
  824MOL0     H13710   1.355   3.662   3.037  2.0642 -1.6038  0.9612
  824MOL0     H13711   1.242   3.527   3.080  2.8819 -1.1509 -0.3259
  824MOL0     H13712   1.217   3.703   3.137  1.1708  1.4682  0.3902
  825MOL0     O13713   3.483   8.187   3.586 -0.9963  0.3572 -0.2515
  825MOL0     C13714   3.502   8.089   3.519 -0.6385 -0.3630  1.2970
  825MOL0     O13715   3.620   8.021   3.515 -0.1383  0.0798  0.2228
  825MOL0     C13716   3.713   8.051   3.604 -0.5039 -0.9478  0.1850
  825MOL0     C13717   3.833   8.097   3.539 -0.3372  0.6218  0.7512
  825MOL0     C13718   3.928   8.150   3.622 -0.5423 -0.4910 -0.2601
  825MOL0     C13719   3.925   8.149   3.757  0.0872 -0.3607  0.2390
  825MOL0     O13720   4.023   8.211   3.827 -0.4278  0.0634  0.3017
  825MOL0     C13721   4.112   8.119   3.900  0.4068  0.2509  0.6769
  825MOL0     C13722   4.226   8.073   3.805  0.3287  0.3483  0.3664
  825MOL0     C13723   4.296   8.194   3.737  0.2731  0.8028  0.1094
  825MOL0     C13724   4.398   8.149   3.634 -0.3220  0.1971  0.0688
  825MOL0     C13725   4.450   8.280   3.564  0.5882  0.2108 -0.0645
  825MOL0     C13726   4.586   8.268   3.483 -0.0984 -0.3949 -0.6474
  825MOL0     C13727   4.610   8.373   3.387 -0.7207 -0.6646  0.3399
  825MOL0     C13728   4.670   8.505   3.451 -0.4920 -1.0231 -0.0212
  825MOL0     N13729   4.571   8.616   3.439  0.0960 -0.1260 -0.0001
  825MOL0     C13730   4.470   8.657   3.534 -0.1767 -0.5658  0.6295
  825MOL0     C13731   4.412   8.755   3.464  0.2183 -0.4522 -0.7264
  825MOL0     C13732   4.297   8.835   3.524 -0.1855 -0.4839 -0.2632
  825MOL0     C13733   4.161   8.783   3.479  0.3000 -0.4524 -0.1763
  825MOL0     C13734   4.048   8.880   3.518  0.5450 -0.5880 -0.1866
  825MOL0     C13735   4.040   9.007   3.422 -0.0809  0.0390  0.7627
  825MOL0     O13736   3.932   9.091   3.432  0.4016 -0.6728  0.5765
  825MOL0     C13737   3.933   9.214   3.352  1.0408  1.2104  0.7609
  825MOL0     C13738   3.820   9.289   3.350 -0.1501  0.2600  0.1241
  825MOL0     C13739   3.812   9.418   3.284  0.2061  0.8173 -1.0888
  825MOL0     C13740   3.674   9.481   3.313  0.0499 -1.1653  0.2411
  825MOL0     C13741   3.915   9.457   3.195  0.5188  0.1997 -0.0876
  825MOL0     C13742   3.918   9.574   3.105 -0.2537  0.3582  0.4381
  825MOL0     O13743   4.012   9.574   3.011 -0.2082 -0.1096  0.7787
  825MOL0     C13744   3.996   9.659   2.898  0.4998  0.6883  0.8991
  825MOL0     C13745   4.056   9.784   2.892 -0.3833  1.4617  0.0093
  825MOL0     C13746   4.030   9.867   2.784 -0.2726  0.0770  0.2037
  825MOL0     C13747   3.947   9.829   2.687 -0.0728 -0.9270 -0.2419
  825MOL0     O13748   3.906   9.934   2.600 -0.3277  0.6007 -0.5686
  825MOL0     C13749   3.821   9.897   2.489  0.1220  0.8544  0.5601
  825MOL0     C13750   3.828  10.019   2.393 -0.7942  0.3171 -0.5966
  825MOL0     C13751   3.967  10.035   2.323  0.0619  0.4193 -0.1119
  825MOL0     C13752   3.966  10.155   2.222  0.2108 -0.0463  0.7072
  825MOL0     C13753   4.109  10.171   2.167  1.3239  0.2085 -0.0783
  825MOL0     C13754   4.111  10.298   2.088 -0.7218  0.2059 -0.3363
  825MOL0     C13755   4.258  10.336   2.045  0.3585  0.3297 -0.4363
  825MOL0     C13756   4.331  10.223   1.970 -0.5660  0.0051  0.6886
  825MOL0    Cl13757   4.498  10.255   1.893 -0.3379 -0.6699 -0.0047
  825MOL0     C13758   3.893   9.698   2.678  0.0170  0.1348  0.1817
  825MOL0     C13759   3.906   9.616   2.792 -0.3672 -0.3669 -0.0485
  825MOL0     O13760   3.838   9.659   3.128  0.1120 -0.3736  0.4942
  825MOL0     C13761   4.030   9.378   3.192  0.1415  0.1055  0.0059
  825MOL0     C13762   4.039   9.262   3.269 -0.4945  0.4039 -0.0879
  825MOL0     N13763   4.465   8.774   3.340 -0.2272  0.0407 -1.3020
  825MOL0     N13764   4.557   8.690   3.325  0.2872  0.7571  0.2305
  825MOL0     C13765   3.811   8.104   3.818  0.6699  0.7851 -0.5010
  825MOL0     C13766   3.700   8.068   3.744  0.6366  0.1302 -0.0278
  825MOL0     C13767   3.381   8.047   3.429  0.1789 -0.1911  0.8515
  825MOL0     C13768   3.249   8.094   3.453 -0.0791  0.2076  0.2176
  825MOL0     C13769   3.139   8.037   3.402 -0.3579  0.1951  0.1998
  825MOL0     C13770   3.154   7.949   3.296  1.2314 -0.0478 -0.5442
  825MOL0     O13771   3.042   7.920   3.228 -0.6795  0.0006  0.4060
  825MOL0     C13772   2.973   8.022   3.145 -0.2434  0.1847  0.1939
  825MOL0     C13773   2.957   7.969   3.007  0.1660 -0.0886 -0.0794
  825MOL0     C13774   3.087   7.968   2.937  0.9151 -0.0862 -0.6220
  825MOL0     C13775   3.109   8.110   2.889 -0.0515 -0.5611  0.7089
  825MOL0     C13776   3.239   8.122   2.824 -0.0294  0.4056  0.1677
  825MOL0     C13777   3.339   8.135   2.761  0.0183  0.2301  0.6029
  825MOL0     C13778   3.284   7.906   3.268  0.1870 -0.4454  0.1618
  825MOL0     C13779   3.397   7.953   3.333 -0.3476 -0.2810  0.0970
  825MOL0     C13780   3.525   7.889   3.280  0.1945 -0.3114 -0.0313
  825MOL0     H13781   3.837   8.090   3.431 -2.1286 -1.8106  0.7437
  825MOL0     H13782   4.017   8.197   3.584  1.2511 -1.0896  2.8509
  825MOL0     H13783   4.064   8.030   3.943  0.6598  0.4841  1.4726
  825MOL0     H13784   4.158   8.167   3.987  0.4050 -0.0120  0.8271
  825MOL0     H13785   4.305   8.016   3.855 -0.4999 -1.8770 -0.7226
  825MOL0     H13786   4.180   8.006   3.731 -0.4408  0.4685  0.7330
  825MOL0     H13787   4.219   8.255   3.689 -0.6328 -0.6669 -0.3613
  825MOL0     H13788   4.339   8.237   3.828 -0.8449  2.6571 -0.1860
  825MOL0     H13789   4.474   8.086   3.682  1.5457 -2.4194 -5.5204
  825MOL0     H13790   4.359   8.085   3.555 -1.9683  3.4678 -1.9959
  825MOL0     H13791   4.459   8.364   3.633  0.6318  1.2580 -1.2969
  825MOL0     H13792   4.363   8.313   3.506  0.5061  1.0724  0.5371
  825MOL0     H13793   4.668   8.271   3.556 -1.1038  0.9980  0.5077
  825MOL0     H13794   4.580   8.179   3.420  0.4725  0.5442 -2.0729
  825MOL0     H13795   4.532   8.395   3.314  0.9765 -0.2357 -1.4092
  825MOL0     H13796   4.688   8.349   3.314 -1.2205 -3.8206  0.7047
  825MOL0     H13797   4.706   8.482   3.552 -1.2835  1.4728  0.8896
  825MOL0     H13798   4.758   8.531   3.392  0.0163 -2.8974 -0.1631
  825MOL0     H13799   4.442   8.631   3.636 -2.0599 -1.1478  0.0008
  825MOL0     H13800   4.302   8.941   3.498  1.3075 -0.3162  0.6448
  825MOL0     H13801   4.305   8.832   3.633 -0.3836  1.9094 -0.1420
  825MOL0     H13802   4.156   8.767   3.371 -0.0665  0.8313 -0.3668
  825MOL0     H13803   4.155   8.687   3.532  2.1746  0.2733  1.4816
  825MOL0     H13804   3.949   8.837   3.501 -0.0924  0.8689 -0.2508
  825MOL0     H13805   4.064   8.912   3.621 -0.7540  1.4326 -0.5543
  825MOL0     H13806   4.131   9.064   3.442  0.9497 -1.9450  2.0104
  825MOL0     H13807   4.030   8.959   3.324 -2.8502 -0.0373  0.9795
  825MOL0     H13808   3.747   9.257   3.424  1.5111  1.3053  2.3378
  825MOL0     H13809   3.680   9.548   3.399 -1.2192 -1.0543  0.2531
  825MOL0     H13810   3.596   9.408   3.332 -0.7278 -0.7131 -1.0844
  825MOL0     H13811   3.645   9.532   3.221  0.0270 -0.8281  0.4310
  825MOL0     H13812   4.111   9.833   2.971  1.6613 -0.6653  0.0257
  825MOL0     H13813   4.072   9.967   2.781  1.6525 -0.6494 -3.5066
  825MOL0     H13814   3.860   9.807   2.440 -0.6839  0.3551  0.8335
  825MOL0     H13815   3.714   9.886   2.508  0.1924 -0.5175  0.2742
  825MOL0     H13816   3.754  10.000   2.314 -0.4986 -1.3122 -0.5247
  825MOL0     H13817   3.798  10.112   2.441 -1.9607  0.0591 -0.7917
  825MOL0     H13818   3.985   9.941   2.269  0.9091  0.5197 -0.0073
  825MOL0     H13819   4.052  10.047   2.390 -0.1417  0.7537  0.0861
  825MOL0     H13820   3.928  10.250   2.261 -1.2307 -0.2128 -0.2326
  825MOL0     H13821   3.892  10.141   2.142 -0.9959  1.3729  1.5224
  825MOL0     H13822   4.177  10.173   2.253  2.5584 -0.7281 -0.9950
  825MOL0     H13823   4.135  10.086   2.103 -0.5076  0.4160 -1.1811
  825MOL0     H13824   4.066  10.379   2.146 -4.2937  0.0498 -2.5912
  825MOL0     H13825   4.043  10.292   2.003 -0.4354 -2.1030 -0.4555
  825MOL0     H13826   4.323  10.357   2.131  3.1508 -0.7762 -2.1249
  825MOL0     H13827   4.258  10.422   1.978 -2.3807  0.4304 -0.3989
  825MOL0     H13828   4.268  10.176   1.894 -0.8737 -1.4522  1.8129
  825MOL0     H13829   4.350  10.149   2.048  1.9405  2.2388  2.4163
  825MOL0     H13830   3.833   9.673   2.591  1.3442  0.6300 -0.9021
  825MOL0     H13831   3.862   9.517   2.804  0.6152 -0.7714  0.3132
  825MOL0     H13832   4.112   9.401   3.125 -0.6051 -1.8603 -1.6860
  825MOL0     H13833   4.124   9.196   3.257 -1.8915 -1.7150  0.9578
  825MOL0     H13834   3.797   8.108   3.926 -1.0043  2.0053 -0.7202
  825MOL0     H13835   3.603   8.054   3.792  0.5665 -0.5402 -0.3523
  825MOL0     H13836   3.234   8.154   3.542  1.0310 -1.7663  1.8095
  825MOL0     H13837   3.043   8.066   3.443  0.1733 -2.3431  3.6241
  825MOL0     H13838   2.870   8.033   3.180 -0.6212  2.2409 -1.3783
  825MOL0     H13839   3.018   8.122   3.154  2.6549 -1.0220  0.3581
  825MOL0     H13840   2.876   8.019   2.953 -2.0642 -1.8446  1.4575
  825MOL0     H13841   2.929   7.863   3.015 -0.3975  0.1221  0.9252
  825MOL0     H13842   3.167   7.931   3.002 -0.3926 -2.6869 -0.3904
  825MOL0     H13843   3.079   7.904   2.849  2.1354  0.6191 -1.2746
  825MOL0     H13844   3.108   8.179   2.973  4.6028  3.4243 -1.9859
  825MOL0     H13845   3.033   8.131   2.812  1.4179 -0.0133 -0.6468
  825MOL0     H13846   3.423   8.155   2.698 -1.1969  3.8483 -0.0697
  825MOL0     H13847   3.296   7.840   3.183  5.1601 -0.8376  0.8746
  825MOL0     H13848   3.493   7.840   3.188  1.1830  0.5227 -0.8505
  825MOL0     H13849   3.606   7.959   3.255  3.4933 -3.3945  1.0395
  825MOL0     H13850   3.563   7.816   3.353 -1.4866  2.0385  3.4517
  826MOL0     O13851   3.753   0.464   6.992  0.3860 -0.3359  0.6001
  826MOL0     C13852   3.709   0.403   6.890 -0.2285  0.8169  1.1615
  826MOL0     O13853   3.780   0.372   6.775 -0.0132  0.0481 -0.2252
  826MOL0     C13854   3.917   0.385   6.764  0.2574 -0.8467 -0.0428
  826MOL0     C13855   4.002   0.371   6.875 -0.7971  0.6831 -0.1237
  826MOL0     C13856   4.138   0.387   6.849 -0.1271  0.4626  0.4570
  826MOL0     C13857   4.186   0.418   6.725 -0.4276 -0.5835  0.6791
  826MOL0     O13858   4.322   0.415   6.716 -0.0854  0.6938 -0.0354
  826MOL0     C13859   4.386   0.508   6.624  0.0215  1.1066 -0.4437
  826MOL0     C13860   4.529   0.516   6.667 -0.3218 -0.3620  0.4068
  826MOL0     C13861   4.623   0.461   6.553 -0.0937 -0.2962 -0.4115
  826MOL0     C13862   4.747   0.395   6.622 -0.0216 -0.2450 -0.5315
  826MOL0     C13863   4.827   0.503   6.695  0.4223  0.0036  0.1301
  826MOL0     C13864   4.894   0.605   6.596  0.2472 -0.4410 -0.5348
  826MOL0     C13865   5.028   0.649   6.651  0.4655  0.2062  0.1246
  826MOL0     C13866   5.066   0.788   6.599 -0.3010 -0.1099  0.8822
  826MOL0     N13867   5.194   0.830   6.637 -0.7512  0.0386 -0.4698
  826MOL0     C13868   5.301   0.882   6.554  0.4551 -0.3363 -0.1498
  826MOL0     C13869   5.404   0.907   6.631  0.5884 -1.1656 -1.1023
  826MOL0     C13870   5.523   0.978   6.595 -0.2097  0.2416 -0.2802
  826MOL0     C13871   5.653   0.934   6.655  0.4805  0.6496 -0.5232
  826MOL0     C13872   5.776   1.001   6.602  0.8524  0.5268 -0.1858
  826MOL0     C13873   5.916   0.948   6.636 -0.5043 -0.2442 -0.0412
  826MOL0     O13874   5.955   0.825   6.571 -0.3505 -0.0387  0.8728
  826MOL0     C13875   6.026   0.737   6.658  0.4646 -0.1829  0.1103
  826MOL0     C13876   5.992   0.601   6.678  0.0822 -0.0090 -0.4615
  826MOL0     C13877   6.073   0.512   6.747 -0.4498  0.0654 -0.4626
  826MOL0     C13878   6.024   0.381   6.765  0.1697  0.3339  0.6421
  826MOL0     C13879   6.194   0.563   6.794 -0.3167 -0.3811  0.0029
  826MOL0     C13880   6.294   0.472   6.849 -0.1395 -0.2522  0.0526
  826MOL0     O13881   6.323   0.367   6.771  0.5386  0.2954 -0.9975
  826MOL0     C13882   6.435   0.300   6.799  0.2576  0.1707 -0.4236
  826MOL0     C13883   6.429   0.158   6.797  0.3628  0.5368 -1.1284
  826MOL0     C13884   6.547   0.086   6.802 -0.0193 -0.1207  0.2188
  826MOL0     C13885   6.673   0.143   6.823 -0.5274 -0.4744  0.1869
  826MOL0     O13886   6.781   0.053   6.840  0.2603 -0.2505  0.2879
  826MOL0     C13887   6.907   0.115   6.833  0.0186 -0.2381 -0.4485
  826MOL0     C13888   7.019   0.016   6.816  0.1507  0.1015 -0.5067
  826MOL0     C13889   7.146   0.085   6.780  0.2392 -0.5192  0.2047
  826MOL0     C13890   7.264  -0.010   6.790  0.4908 -0.6644  0.1259
  826MOL0     C13891   7.395   0.042   6.754  0.5750 -0.2534  0.6034
  826MOL0     C13892   7.501  -0.053   6.784  0.2317  0.5742  0.4796
  826MOL0     C13893   7.636  -0.022   6.719  0.4108  0.7118  0.6139
  826MOL0     C13894   7.727  -0.135   6.762  0.4306  0.1132 -0.5218
  826MOL0    Cl13895   7.682  -0.293   6.680 -0.2325  0.0622  0.2838
  826MOL0     C13896   6.678   0.282   6.816 -0.0073 -0.1500  0.5103
  826MOL0     C13897   6.565   0.357   6.807  0.1323 -0.2899  0.0385
  826MOL0     O13898   6.347   0.495   6.957  0.8035  0.5893  0.0107
  826MOL0     C13899   6.226   0.700   6.774 -0.4340  0.6450 -0.5265
  826MOL0     C13900   6.141   0.789   6.716 -0.5572 -0.2544  0.3959
  826MOL0     N13901   5.375   0.863   6.767 -0.2124  0.3558 -0.0185
  826MOL0     N13902   5.251   0.826   6.765  0.6565  0.4704 -0.2398
  826MOL0     C13903   4.100   0.442   6.622  0.1615  0.0795  0.0114
  826MOL0     C13904   3.966   0.423   6.638 -0.1146  0.0065 -0.2339
  826MOL0     C13905   3.573   0.340   6.883 -0.2891  0.2828 -0.2745
  826MOL0     C13906   3.556   0.225   6.800 -0.3275  0.0085  1.0787
  826MOL0     C13907   3.433   0.154   6.789 -0.0248 -0.4290  0.4807
  826MOL0     C13908   3.335   0.187   6.881 -0.6377 -0.1198  1.1739
  826MOL0     O13909   3.227   0.101   6.865  0.4170  0.0943  0.1504
  826MOL0     C13910   3.116   0.130   6.937  1.0649 -0.7561  0.1165
  826MOL0     C13911   3.024   0.011   6.926  0.2665  0.1029  0.4104
  826MOL0     C13912   2.892   0.031   7.004 -1.3479 -1.1902 -0.1747
  826MOL0     C13913   2.782  -0.073   6.973  0.8706  0.0816  0.6342
  826MOL0     C13914   2.749  -0.092   6.831 -0.4296  0.7928 -0.4845
  826MOL0     C13915   2.736  -0.106   6.716 -0.0382  0.1408  0.3121
  826MOL0     C13916   3.352   0.283   6.975 -0.3208  0.4161  0.3239
  826MOL0     C13917   3.465   0.370   6.972 -0.0056  0.5219 -0.7363
  826MOL0     C13918   3.462   0.471   7.080 -0.6277  0.4873 -0.4153
  826MOL0     H13919   3.964   0.327   6.966  1.9639 -0.0998  0.7586
  826MOL0     H13920   4.207   0.386   6.933  1.5375 -2.2637 -0.8039
  826MOL0     H13921   4.338   0.605   6.640 -0.4909  0.9098 -0.7652
  826MOL0     H13922   4.376   0.480   6.519  0.6975  0.6725 -0.4008
  826MOL0     H13923   4.557   0.620   6.686 -0.2596 -0.7642  2.8679
  826MOL0     H13924   4.532   0.462   6.762 -1.1783 -0.7026  0.2486
  826MOL0     H13925   4.570   0.375   6.512  2.3342 -1.9156 -0.3227
  826MOL0     H13926   4.652   0.530   6.474 -0.5302  3.2553  2.2595
  826MOL0     H13927   4.718   0.312   6.686  1.0423  0.7143  1.2635
  826MOL0     H13928   4.818   0.357   6.548 -1.1749  0.8976 -2.3217
  826MOL0     H13929   4.914   0.462   6.746  0.2339 -2.6206 -1.4926
  826MOL0     H13930   4.770   0.563   6.767  2.1620  1.8154  0.0797
  826MOL0     H13931   4.924   0.555   6.504  1.5541 -2.3801  0.8526
  826MOL0     H13932   4.830   0.689   6.567 -0.2772 -1.5046 -2.6518
  826MOL0     H13933   5.104   0.574   6.625  1.7448  1.9347 -1.3440
  826MOL0     H13934   5.036   0.664   6.759  1.3618  1.4791 -0.0992
  826MOL0     H13935   5.046   0.793   6.491  2.6844 -0.1718  0.2335
  826MOL0     H13936   5.003   0.862   6.650  2.8355  2.4035  1.5037
  826MOL0     H13937   5.285   0.897   6.448 -1.9634 -0.9018  0.0701
  826MOL0     H13938   5.509   1.083   6.623 -2.8077  0.4040 -1.8241
  826MOL0     H13939   5.530   0.958   6.487 -3.1256 -0.6860 -0.3865
  826MOL0     H13940   5.644   0.945   6.763  2.4231  0.5824 -0.3182
  826MOL0     H13941   5.653   0.826   6.638 -1.1354  0.1875  1.8970
  826MOL0     H13942   5.776   0.994   6.493 -1.1107 -0.6493 -0.1560
  826MOL0     H13943   5.760   1.102   6.641 -2.9920 -0.8243  2.2406
  826MOL0     H13944   5.989   1.026   6.613 -0.8172 -0.1939 -0.8890
  826MOL0     H13945   5.925   0.947   6.745  1.2981  0.1812 -0.1484
  826MOL0     H13946   5.905   0.569   6.622  0.8184 -1.8785 -0.6189
  826MOL0     H13947   5.918   0.394   6.789  0.4535  0.5511  1.8710
  826MOL0     H13948   6.069   0.329   6.850  0.1888 -2.2529 -0.8375
  826MOL0     H13949   6.033   0.329   6.669 -2.6565  1.2537 -0.2167
  826MOL0     H13950   6.336   0.102   6.804  0.4411  0.5442  0.4230
  826MOL0     H13951   6.534  -0.022   6.807 -1.2542 -0.2086 -2.8566
  826MOL0     H13952   6.907   0.185   6.750 -1.0672  0.8414  0.4186
  826MOL0     H13953   6.934   0.168   6.925  2.7745 -0.6276 -0.9625
  826MOL0     H13954   7.045  -0.039   6.906  0.8841 -0.6857 -1.1775
  826MOL0     H13955   6.987  -0.055   6.739 -0.1422  0.3148 -0.5850
  826MOL0     H13956   7.170   0.174   6.839  1.3417  0.1242 -1.1498
  826MOL0     H13957   7.140   0.132   6.681 -0.8524 -1.0698 -0.0119
  826MOL0     H13958   7.245  -0.087   6.715  1.6434  0.0253 -0.9183
  826MOL0     H13959   7.264  -0.047   6.892 -1.6695 -0.1416  0.3749
  826MOL0     H13960   7.396   0.072   6.648 -1.6478  2.1002  1.1636
  826MOL0     H13961   7.403   0.135   6.811 -3.4318 -0.3791  1.6719
  826MOL0     H13962   7.458  -0.150   6.756  1.0657  0.7961 -1.8056
  826MOL0     H13963   7.514  -0.058   6.892 -1.0398 -2.0050  0.5865
  826MOL0     H13964   7.684   0.067   6.761  2.0841  0.1728 -0.0416
  826MOL0     H13965   7.643  -0.010   6.611  0.1619  1.2118  0.6481
  826MOL0     H13966   7.739  -0.152   6.869 -2.1047 -4.5370 -0.7116
  826MOL0     H13967   7.830  -0.120   6.726  1.1373 -1.6132  0.6522
  826MOL0     H13968   6.768   0.343   6.811  0.2893 -0.6440 -0.7445
  826MOL0     H13969   6.572   0.464   6.792  3.7865 -0.0090  2.5614
  826MOL0     H13970   6.317   0.742   6.817  0.3443  2.4605 -3.6608
  826MOL0     H13971   6.172   0.891   6.698 -0.1223  0.2061  3.2503
  826MOL0     H13972   4.130   0.461   6.519  1.6532  3.6157  0.9470
  826MOL0     H13973   3.901   0.443   6.553 -1.7241  1.0442  1.1800
  826MOL0     H13974   3.639   0.186   6.741 -1.0551 -0.1555  0.1493
  826MOL0     H13975   3.426   0.072   6.718 -0.9029  0.5688 -0.6344
  826MOL0     H13976   3.135   0.139   7.045  0.8746  0.8683  0.0448
  826MOL0     H13977   3.072   0.221   6.896  3.6032  1.1692  1.3568
  826MOL0     H13978   3.069  -0.086   6.947 -0.3774 -0.1808  0.4963
  826MOL0     H13979   3.003   0.006   6.818  5.7189  2.3508 -1.1530
  826MOL0     H13980   2.914   0.032   7.111 -0.6442  1.7215 -0.2417
  826MOL0     H13981   2.867   0.135   6.980  0.0082 -0.3515  1.7410
  826MOL0     H13982   2.688  -0.030   7.006  0.2392  1.3593 -2.4899
  826MOL0     H13983   2.793  -0.176   7.010 -2.8000 -1.8179 -2.8177
  826MOL0     H13984   2.712  -0.096   6.612 -1.0398 -0.5543  0.4665
  826MOL0     H13985   3.290   0.280   7.065  1.5907 -2.6682  1.7390
  826MOL0     H13986   3.524   0.445   7.166 -1.2656  2.2778  0.6507
  826MOL0     H13987   3.492   0.572   7.050  0.0502  2.1503  4.8341
  826MOL0     H13988   3.363   0.475   7.126 -0.7983  0.3729 -0.7662
  827MOL0     O13989   3.730   6.116   7.765 -0.0284  0.1567 -0.6244
  827MOL0     C13990   3.660   6.220   7.764  0.8411  0.5221 -0.2660
  827MOL0     O13991   3.704   6.349   7.765  0.2740 -0.1706 -0.1147
  827MOL0     C13992   3.840   6.374   7.751 -1.1266 -0.2136 -0.0002
  827MOL0     C13993   3.912   6.421   7.862 -0.7988 -0.0110  0.0401
  827MOL0     C13994   4.046   6.468   7.851  0.3371 -0.4834 -0.2853
  827MOL0     C13995   4.100   6.464   7.723 -0.1928 -0.3185 -0.1684
  827MOL0     O13996   4.230   6.495   7.693  0.2575  0.2339 -0.4800
  827MOL0     C13997   4.321   6.546   7.791 -0.7348 -0.2444  0.2463
  827MOL0     C13998   4.459   6.592   7.741 -1.0315 -0.3780 -0.0455
  827MOL0     C13999   4.557   6.589   7.859 -0.1117  0.3369  0.0379
  827MOL0     C14000   4.683   6.673   7.816  0.4609  1.3185  0.5162
  827MOL0     C14001   4.805   6.685   7.908  0.8353  0.4656 -0.0258
  827MOL0     C14002   4.899   6.791   7.871  0.4024  0.2939  0.0034
  827MOL0     C14003   4.977   6.757   7.740 -0.5603 -0.4581  0.0421
  827MOL0     C14004   5.070   6.872   7.711  0.7989 -0.1424 -0.0616
  827MOL0     N14005   5.194   6.888   7.783  0.2127  0.1106 -0.4037
  827MOL0     C14006   5.207   6.939   7.910 -0.7111 -0.5458 -0.5913
  827MOL0     C14007   5.333   6.918   7.946 -0.3712 -0.4496 -0.4336
  827MOL0     C14008   5.386   6.961   8.074  0.0791 -0.1405 -0.1349
  827MOL0     C14009   5.445   7.101   8.073 -0.3409 -1.0970  0.3456
  827MOL0     C14010   5.510   7.122   8.207  0.2144 -0.1154 -0.4334
  827MOL0     C14011   5.607   7.244   8.201 -0.2828 -0.2008 -0.2833
  827MOL0     O14012   5.743   7.207   8.152  0.3493  0.5066 -0.3407
  827MOL0     C14013   5.841   7.303   8.174 -0.1389 -1.1605  0.4391
  827MOL0     C14014   5.813   7.430   8.237  0.4275 -0.0854 -0.5998
  827MOL0     C14015   5.917   7.519   8.262 -0.0603  0.3167  0.1617
  827MOL0     C14016   5.873   7.658   8.317 -0.6488  1.2262 -0.0703
  827MOL0     C14017   6.049   7.477   8.240 -0.0132  0.3563 -1.1374
  827MOL0     C14018   6.170   7.556   8.280  1.1541 -0.2108 -0.1609
  827MOL0     O14019   6.286   7.522   8.223  0.5707  0.6813  0.2647
  827MOL0     C14020   6.401   7.561   8.286  0.4595  0.1408  0.3841
  827MOL0     C14021   6.504   7.591   8.202  0.4386  0.8724 -0.1177
  827MOL0     C14022   6.629   7.638   8.244  0.3528  0.3889  0.4145
  827MOL0     C14023   6.652   7.651   8.384  0.3930  0.1001  0.9871
  827MOL0     O14024   6.777   7.685   8.423  0.9106  0.4641 -0.1911
  827MOL0     C14025   6.785   7.831   8.449  0.0469  0.7080  0.2218
  827MOL0     C14026   6.905   7.882   8.377  0.2894  0.0117 -0.0641
  827MOL0     C14027   6.893   7.895   8.223 -0.3810 -0.0425  0.4582
  827MOL0     C14028   7.008   7.972   8.154 -0.5750 -0.3597 -0.7169
  827MOL0     C14029   6.991   7.967   7.999 -0.0195 -0.1084  0.0857
  827MOL0     C14030   6.871   8.048   7.950  0.0509 -0.5557 -0.0290
  827MOL0     C14031   6.867   8.048   7.806 -0.0466  0.4850 -0.4582
  827MOL0     C14032   6.764   8.150   7.756  0.6352 -0.1742  0.2714
  827MOL0    Cl14033   6.591   8.107   7.805  0.4433 -0.0750  0.0910
  827MOL0     C14034   6.548   7.613   8.474  0.9639 -0.3336  0.1579
  827MOL0     C14035   6.423   7.571   8.423 -0.7904  0.2366 -1.0395
  827MOL0     O14036   6.160   7.641   8.365 -0.2275  0.5488  0.0167
  827MOL0     C14037   6.071   7.358   8.168  0.2302 -0.5229 -0.5480
  827MOL0     C14038   5.970   7.276   8.138  0.4636  0.3545  0.2114
  827MOL0     N14039   5.389   6.833   7.851 -0.4749 -0.3405 -0.8923
  827MOL0     N14040   5.300   6.815   7.755  0.8031 -0.1912  0.1550
  827MOL0     C14041   4.029   6.418   7.615  0.8417  0.0040  0.7181
  827MOL0     C14042   3.901   6.369   7.627 -0.5034 -0.5234  0.6920
  827MOL0     C14043   3.508   6.205   7.780  0.6339  0.0615  0.1387
  827MOL0     C14044   3.431   6.309   7.843  0.1653  0.0064  0.2595
  827MOL0     C14045   3.292   6.298   7.850  0.0796  0.5033  0.3276
  827MOL0     C14046   3.219   6.194   7.798  0.4806 -0.4176  0.3593
  827MOL0     O14047   3.082   6.198   7.807 -0.7524  0.4177  0.1108
  827MOL0     C14048   3.004   6.084   7.766  0.7086  0.4795  0.5416
  827MOL0     C14049   2.854   6.103   7.781  0.3253 -1.1238  0.2639
  827MOL0     C14050   2.791   6.214   7.686  0.2148 -0.1274 -0.5315
  827MOL0     C14051   2.633   6.231   7.704 -0.9053  0.3641 -0.2304
  827MOL0     C14052   2.556   6.173   7.594 -0.6547 -0.0385 -0.4813
  827MOL0     C14053   2.497   6.121   7.501  0.4127 -0.7169 -0.1054
  827MOL0     C14054   3.294   6.094   7.739 -0.1514 -0.2462 -0.4670
  827MOL0     C14055   3.435   6.092   7.735  0.5678 -0.2820  0.3058
  827MOL0     C14056   3.491   5.975   7.671 -0.7312 -0.0601 -0.4610
  827MOL0     H14057   3.878   6.429   7.965 -0.1424 -1.8011  0.4300
  827MOL0     H14058   4.097   6.492   7.944  0.2235 -3.2283  0.5715
  827MOL0     H14059   4.336   6.463   7.861  2.7919  0.4015  0.4552
  827MOL0     H14060   4.275   6.628   7.847 -0.0669 -0.0626  0.5437
  827MOL0     H14061   4.483   6.536   7.650 -2.4954  0.7372 -1.1681
  827MOL0     H14062   4.442   6.696   7.711  1.8821  0.0481 -0.5164
  827MOL0     H14063   4.519   6.640   7.948  2.1070  3.1064 -0.4514
  827MOL0     H14064   4.576   6.486   7.891 -3.5876 -0.0452  1.2517
  827MOL0     H14065   4.712   6.618   7.726 -1.5906 -0.7815  1.0283
  827MOL0     H14066   4.642   6.771   7.788  0.2611  1.3536  0.9342
  827MOL0     H14067   4.858   6.589   7.915 -1.2775 -0.6741  1.4859
  827MOL0     H14068   4.765   6.689   8.010 -1.6041  2.6340 -0.9631
  827MOL0     H14069   4.843   6.884   7.863 -0.1742 -0.2105 -3.1569
  827MOL0     H14070   4.974   6.804   7.950 -0.0618 -0.8214  0.6612
  827MOL0     H14071   4.900   6.761   7.662 -1.4530  1.6778  0.9792
  827MOL0     H14072   5.042   6.669   7.740  0.2713  0.1246 -1.0232
  827MOL0     H14073   5.082   6.874   7.602  1.4561  4.1468 -0.1061
  827MOL0     H14074   5.023   6.971   7.724 -1.0345 -0.6622 -2.0165
  827MOL0     H14075   5.131   6.990   7.969  2.5202  0.9175  2.6908
  827MOL0     H14076   5.470   6.893   8.091  0.5622  0.9125  2.0522
  827MOL0     H14077   5.333   6.938   8.166 -0.7224  0.5545 -0.4034
  827MOL0     H14078   5.522   7.112   7.996 -0.6609  5.0649  0.4012
  827MOL0     H14079   5.372   7.182   8.070 -0.2791 -1.0143  0.9839
  827MOL0     H14080   5.425   7.150   8.269 -0.4462  0.8096 -1.6981
  827MOL0     H14081   5.547   7.026   8.244 -1.6484 -1.0673 -0.9319
  827MOL0     H14082   5.567   7.317   8.130 -1.8835 -0.7220  0.0526
  827MOL0     H14083   5.603   7.288   8.301  1.6266  2.0973 -1.1100
  827MOL0     H14084   5.716   7.454   8.279 -0.3439 -2.9932 -0.4649
  827MOL0     H14085   5.771   7.683   8.287 -0.1867  0.1030 -2.8499
  827MOL0     H14086   5.941   7.731   8.271  1.5194 -0.2681  0.6120
  827MOL0     H14087   5.894   7.658   8.425 -2.1647  0.6402  0.2371
  827MOL0     H14088   6.502   7.570   8.095 -1.8150  0.1073  0.0150
  827MOL0     H14089   6.708   7.664   8.174 -1.2861  2.0478 -0.9171
  827MOL0     H14090   6.697   7.885   8.413 -1.4877 -1.1260  1.0495
  827MOL0     H14091   6.802   7.833   8.557 -0.4948 -3.4549  0.5505
  827MOL0     H14092   6.917   7.981   8.423  0.1066  0.1082 -0.2254
  827MOL0     H14093   6.985   7.814   8.407 -0.0448 -0.0015  0.8457
  827MOL0     H14094   6.803   7.952   8.199 -0.3089  0.3881  1.1664
  827MOL0     H14095   6.879   7.795   8.180  0.9038  0.1836 -0.5511
  827MOL0     H14096   7.101   7.919   8.178 -1.3940 -1.6815 -0.3022
  827MOL0     H14097   7.008   8.073   8.194 -1.6222 -0.1643 -1.1972
  827MOL0     H14098   7.085   8.008   7.961 -0.2510 -0.3853 -0.8194
  827MOL0     H14099   6.982   7.862   7.968 -1.4992 -0.1110  0.4625
  827MOL0     H14100   6.883   8.149   7.989 -0.8947 -0.6740  0.5952
  827MOL0     H14101   6.779   7.997   7.980 -2.9630  3.0824 -2.2983
  827MOL0     H14102   6.847   7.946   7.771  4.1512 -1.5277  2.2350
  827MOL0     H14103   6.966   8.069   7.764  2.4388 -3.1470  2.7984
  827MOL0     H14104   6.782   8.164   7.649  1.9429  2.2870  0.7471
  827MOL0     H14105   6.792   8.249   7.793 -1.4599 -0.4285  2.8221
  827MOL0     H14106   6.568   7.609   8.581 -1.2980  2.3842  0.8196
  827MOL0     H14107   6.343   7.550   8.494  1.7801 -2.2433  1.3871
  827MOL0     H14108   6.173   7.323   8.163 -0.1656 -1.9517  0.5516
  827MOL0     H14109   5.992   7.183   8.086  1.3228  0.5998  0.1266
  827MOL0     H14110   4.084   6.434   7.522  2.0159  0.6783  1.5115
  827MOL0     H14111   3.852   6.340   7.534 -0.4413 -0.2875  0.5837
  827MOL0     H14112   3.482   6.391   7.891  1.5947 -0.2237 -0.7841
  827MOL0     H14113   3.239   6.382   7.894  0.1023  0.5604  0.2466
  827MOL0     H14114   3.020   6.058   7.661  0.8144  1.1458  0.3903
  827MOL0     H14115   3.037   5.991   7.812 -0.9396 -0.3445  0.1254
  827MOL0     H14116   2.833   6.126   7.886  1.3585 -0.0283  0.2510
  827MOL0     H14117   2.817   6.001   7.768 -0.7251 -1.0360  2.1970
  827MOL0     H14118   2.841   6.307   7.714  0.4222  0.0729 -1.5330
  827MOL0     H14119   2.812   6.195   7.580 -3.0291 -2.6070 -0.8909
  827MOL0     H14120   2.610   6.338   7.701 -1.0554  0.3864  0.9479
  827MOL0     H14121   2.604   6.191   7.802  1.1665  0.0499  0.3042
  827MOL0     H14122   2.448   6.063   7.425  1.2505  1.2454 -2.2750
  827MOL0     H14123   3.239   6.007   7.704 -0.9625  0.1524 -0.1991
  827MOL0     H14124   3.537   5.991   7.573 -1.2108  0.1949 -0.6480
  827MOL0     H14125   3.568   5.932   7.735  0.1173  2.9428  0.7187
  827MOL0     H14126   3.415   5.899   7.649 -2.7541  1.8472 -0.4329
  828MOL0     O14127   2.523   7.214  10.423 -0.3542 -1.1015 -0.4390
  828MOL0     C14128   2.528   7.265  10.307  0.0902 -0.2467 -0.3356
  828MOL0     O14129   2.629   7.334  10.248 -0.5254 -0.2460  0.3632
  828MOL0     C14130   2.746   7.344  10.319 -0.0572 -0.7495  0.9751
  828MOL0     C14131   2.857   7.273  10.283  0.5569  0.1762 -0.1428
  828MOL0     C14132   2.973   7.276  10.350 -0.6417 -0.4231 -0.4066
  828MOL0     C14133   2.999   7.378  10.448  0.0771  0.5610  0.1595
  828MOL0     O14134   3.125   7.414  10.500 -0.0626 -0.6302  0.7345
  828MOL0     C14135   3.241   7.361  10.431  0.3943 -0.5057 -0.2486
  828MOL0     C14136   3.374   7.413  10.475  0.2017 -0.4087  0.0341
  828MOL0     C14137   3.373   7.548  10.551 -0.3972  0.2063  0.3642
  828MOL0     C14138   3.505   7.572  10.617 -0.4661 -0.0215 -0.3824
  828MOL0     C14139   3.610   7.629  10.532  0.3783 -0.4167  0.6583
  828MOL0     C14140   3.751   7.631  10.598  0.6621 -0.6675  1.3985
  828MOL0     C14141   3.871   7.676  10.513  0.2638 -0.6802 -0.6176
  828MOL0     C14142   3.994   7.717  10.599  0.1647  0.0828 -0.1713
  828MOL0     N14143   4.110   7.746  10.513 -0.7177 -0.4703 -0.3839
  828MOL0     C14144   4.120   7.847  10.423 -0.2838 -0.2148  0.1762
  828MOL0     C14145   4.226   7.819  10.340  0.6039  0.2634 -0.5942
  828MOL0     C14146   4.280   7.907  10.226  0.0702  0.2711 -0.0117
  828MOL0     C14147   4.420   7.945  10.237  0.6562 -0.6127  0.2725
  828MOL0     C14148   4.515   7.834  10.214 -0.4207 -0.0129 -0.8083
  828MOL0     C14149   4.652   7.885  10.161  0.3195  0.2036  0.5032
  828MOL0     O14150   4.712   7.963  10.264  0.1114  0.1889 -0.5758
  828MOL0     C14151   4.851   7.976  10.269  1.2198 -0.3508  0.1919
  828MOL0     C14152   4.901   8.055  10.367 -0.0758 -1.2379  0.6196
  828MOL0     C14153   5.035   8.086  10.379  0.4433  0.4907 -0.0128
  828MOL0     C14154   5.072   8.193  10.467  0.3166 -0.0057 -1.3358
  828MOL0     C14155   5.127   8.027  10.291 -0.9317 -0.1268  1.1027
  828MOL0     C14156   5.272   8.050  10.302  0.6763  0.3932 -1.2706
  828MOL0     O14157   5.342   8.064  10.425 -0.2165 -0.0417 -0.1066
  828MOL0     C14158   5.471   8.094  10.421 -0.2748 -0.7900 -0.6121
  828MOL0     C14159   5.517   8.218  10.390  0.5241  0.8058  0.2812
  828MOL0     C14160   5.651   8.257  10.407 -0.4803  0.2365 -0.8122
  828MOL0     C14161   5.745   8.153  10.429  0.8457 -0.6088 -0.4189
  828MOL0     O14162   5.883   8.175  10.432  0.0044  0.4953  0.3350
  828MOL0     C14163   5.925   8.285  10.517  0.5728 -0.1043  0.8656
  828MOL0     C14164   6.077   8.289  10.526 -0.3736 -0.1440 -0.7004
  828MOL0     C14165   6.143   8.406  10.607  0.6910  0.3944  0.9064
  828MOL0     C14166   6.301   8.419  10.586  0.7192 -0.4212  0.4227
  828MOL0     C14167   6.394   8.356  10.698  0.3736  0.2403 -0.6674
  828MOL0     C14168   6.541   8.380  10.664  0.3290  0.2766 -0.2203
  828MOL0     C14169   6.642   8.313  10.765 -1.1846 -0.2635  0.1097
  828MOL0     C14170   6.642   8.389  10.895  0.9237  0.1497  0.4814
  828MOL0    Cl14171   6.730   8.545  10.893 -0.0781  0.3319  0.0849
  828MOL0     C14172   5.696   8.033  10.471  0.1918  0.3471 -0.4604
  828MOL0     C14173   5.561   8.001  10.462  0.6103 -0.4125 -0.2315
  828MOL0     O14174   5.327   8.057  10.197  0.4235 -0.1805  0.3033
  828MOL0     C14175   5.072   7.951  10.182  0.2831 -0.6733  0.3149
  828MOL0     C14176   4.942   7.924  10.174 -0.0958  0.0694  0.0736
  828MOL0     N14177   4.281   7.704  10.387 -0.3558  0.3593  0.5319
  828MOL0     N14178   4.217   7.668  10.492 -0.2395  0.4807 -0.2002
  828MOL0     C14179   2.886   7.463  10.485  0.1796  0.4034  0.4441
  828MOL0     C14180   2.760   7.440  10.425  0.4980  0.7236 -0.1270
  828MOL0     C14181   2.403   7.255  10.224  1.0583  0.2881 -1.2920
  828MOL0     C14182   2.413   7.299  10.097 -1.1353 -0.0359  0.0283
  828MOL0     C14183   2.308   7.299  10.011  0.0340 -0.0019 -0.1070
  828MOL0     C14184   2.187   7.236  10.047  0.0114 -0.7563 -1.1935
  828MOL0     O14185   2.087   7.234   9.951  0.1599 -0.3638  0.1813
  828MOL0     C14186   1.963   7.168   9.998 -0.7934  0.2679 -0.0856
  828MOL0     C14187   1.862   7.152   9.881 -0.3980  1.3117  0.6416
  828MOL0     C14188   1.797   7.275   9.821  0.5948  0.4223 -0.7716
  828MOL0     C14189   1.678   7.254   9.724 -0.4581 -0.6062  0.8046
  828MOL0     C14190   1.743   7.203   9.594  0.0072  0.8866  0.4641
  828MOL0     C14191   1.797   7.170   9.492  0.2318  0.7272  0.0628
  828MOL0     C14192   2.164   7.211  10.187  0.0707 -0.2846 -0.0868
  828MOL0     C14193   2.271   7.210  10.270 -0.5778  0.5240  0.0799
  828MOL0     C14194   2.244   7.161  10.412  0.5319 -0.2167 -0.0457
  828MOL0     H14195   2.840   7.205  10.200  1.5005  0.4784 -0.5952
  828MOL0     H14196   3.052   7.206  10.328 -0.0455 -0.5654  1.9308
  828MOL0     H14197   3.232   7.367  10.323 -0.7814 -2.8081 -0.3427
  828MOL0     H14198   3.251   7.258  10.467 -0.6727 -1.0697 -1.4971
  828MOL0     H14199   3.431   7.343  10.538  1.9069  0.9212  0.0432
  828MOL0     H14200   3.438   7.416  10.386  0.1061  1.4770 -0.0044
  828MOL0     H14201   3.342   7.634  10.490  3.0156  1.6194  0.4047
  828MOL0     H14202   3.293   7.553  10.625 -2.5296  1.7861 -1.8925
  828MOL0     H14203   3.490   7.633  10.706  1.2510  0.3902 -0.3341
  828MOL0     H14204   3.541   7.488  10.676  0.5383  0.9556  0.4580
  828MOL0     H14205   3.570   7.726  10.501  0.4582 -0.7072 -0.4057
  828MOL0     H14206   3.616   7.575  10.437  0.7366 -1.4093  1.2261
  828MOL0     H14207   3.734   7.685  10.691 -4.1816 -2.1365  1.6167
  828MOL0     H14208   3.784   7.530  10.625 -0.5006 -1.2829  0.6038
  828MOL0     H14209   3.840   7.759  10.448 -0.2641 -0.5772 -0.2419
  828MOL0     H14210   3.897   7.598  10.441 -0.1943 -0.7391 -0.7268
  828MOL0     H14211   3.969   7.803  10.661 -2.1590 -1.1595  0.7278
  828MOL0     H14212   4.022   7.632  10.662  0.6110  1.3150  1.3413
  828MOL0     H14213   4.049   7.929  10.426 -0.8225 -0.7049  1.2901
  828MOL0     H14214   4.222   7.998  10.239  0.0375  0.0317  1.8107
  828MOL0     H14215   4.262   7.867  10.125  3.5442 -1.7029 -0.0135
  828MOL0     H14216   4.432   8.021  10.160  0.8741 -0.4681  0.4501
  828MOL0     H14217   4.440   7.999  10.330  1.4082  0.3798 -0.4467
  828MOL0     H14218   4.538   7.782  10.307 -0.8558  0.1697 -0.5933
  828MOL0     H14219   4.474   7.771  10.135 -0.1791 -1.3934  0.1298
  828MOL0     H14220   4.717   7.800  10.137  0.1982  0.2273  0.0808
  828MOL0     H14221   4.646   7.954  10.076  1.3309 -2.1390 -1.5796
  828MOL0     H14222   4.831   8.105  10.433  1.3057 -2.2010  2.9570
  828MOL0     H14223   5.120   8.275  10.413  3.5435  0.2374  1.4851
  828MOL0     H14224   5.139   8.156  10.546 -3.4663 -3.5849  0.5739
  828MOL0     H14225   4.989   8.237  10.522  2.5861  2.7225  0.2119
  828MOL0     H14226   5.446   8.294  10.359  1.8213  1.8630 -0.1885
  828MOL0     H14227   5.687   8.357  10.386  5.0735 -1.1271  0.5612
  828MOL0     H14228   5.891   8.381  10.479  2.4092 -0.0940 -0.9277
  828MOL0     H14229   5.889   8.278  10.620  0.3731  2.3383  1.0128
  828MOL0     H14230   6.110   8.200  10.580  1.0543  0.5891 -0.3253
  828MOL0     H14231   6.124   8.299  10.428  1.1385  1.1786  0.1036
  828MOL0     H14232   6.116   8.395  10.712 -0.9598 -0.3008  0.4396
  828MOL0     H14233   6.097   8.502  10.583  1.8955  1.4290  2.5455
  828MOL0     H14234   6.323   8.526  10.589 -0.9357 -0.0338 -0.6142
  828MOL0     H14235   6.333   8.385  10.487  2.4102  1.0998  0.4099
  828MOL0     H14236   6.363   8.403  10.792  2.1902  1.6187 -0.7135
  828MOL0     H14237   6.371   8.249  10.701  1.0413  0.0922  1.6148
  828MOL0     H14238   6.557   8.488  10.671  3.8557 -0.2386  2.3486
  828MOL0     H14239   6.568   8.339  10.566 -1.9224 -1.8750 -0.0314
  828MOL0     H14240   6.746   8.324  10.733 -1.9555 -0.5897 -2.8115
  828MOL0     H14241   6.627   8.205  10.768  1.0547 -0.6170  0.0300
  828MOL0     H14242   6.687   8.331  10.976  1.2489 -0.6266 -0.2343
  828MOL0     H14243   6.542   8.423  10.923  0.7168  0.1982 -0.2846
  828MOL0     H14244   5.762   7.948  10.486  1.3513  1.2488 -0.3334
  828MOL0     H14245   5.528   7.903  10.496  0.7682 -0.7323 -0.9719
  828MOL0     H14246   5.134   7.902  10.108 -0.4920 -2.6071  0.8735
  828MOL0     H14247   4.909   7.856  10.095  0.2155  1.0347 -0.9228
  828MOL0     H14248   2.895   7.540  10.560 -1.6158  0.8964  0.2008
  828MOL0     H14249   2.674   7.501  10.451 -0.1507 -0.2840  0.1445
  828MOL0     H14250   2.509   7.334  10.059  0.2898 -3.1555  0.4643
  828MOL0     H14251   2.335   7.329   9.910  0.4815 -0.8733 -0.2637
  828MOL0     H14252   1.981   7.068  10.038  2.0402  1.5732  2.2961
  828MOL0     H14253   1.917   7.221  10.081  0.2375  1.1507 -0.0591
  828MOL0     H14254   1.786   7.086   9.924  2.2330 -0.3098  3.1952
  828MOL0     H14255   1.922   7.096   9.809 -2.0114 -1.0439  1.0164
  828MOL0     H14256   1.782   7.349   9.901  0.9967 -0.7164  0.4028
  828MOL0     H14257   1.872   7.333   9.766  1.1059  0.0315 -0.4954
  828MOL0     H14258   1.627   7.348   9.703 -2.1354 -1.5606  0.3553
  828MOL0     H14259   1.602   7.186   9.764 -0.4011 -0.9792  0.2817
  828MOL0     H14260   1.836   7.155   9.393 -3.9490  1.4380 -1.9142
  828MOL0     H14261   2.069   7.174  10.225  2.4852 -4.1170  2.9624
  828MOL0     H14262   2.302   7.222  10.482  1.7609 -1.5235  0.1200
  828MOL0     H14263   2.141   7.181  10.442  0.0586 -0.3781 -1.4875
  828MOL0     H14264   2.269   7.055  10.425  2.5231  0.3358  1.2187
  829MOL0     O14265   4.171   2.944  10.835 -0.1648  0.0964 -0.4377
  829MOL0     C14266   4.140   2.843  10.775 -0.0323  0.3721  0.2996
  829MOL0     O14267   4.028   2.836  10.697 -0.3375 -0.0521 -0.7892
  829MOL0     C14268   3.918   2.907  10.741 -1.0349 -0.2137 -0.0657
  829MOL0     C14269   3.807   2.837  10.789  0.5746 -0.0317  0.2269
  829MOL0     C14270   3.699   2.905  10.847 -1.0186 -0.4740 -0.2653
  829MOL0     C14271   3.688   3.037  10.845  0.1945 -0.5323 -0.1076
  829MOL0     O14272   3.574   3.083  10.901 -0.1089 -0.6625  0.2821
  829MOL0     C14273   3.512   3.203  10.851 -0.2773  0.5655 -1.0346
  829MOL0     C14274   3.368   3.221  10.914 -0.0625  0.7027  0.7415
  829MOL0     C14275   3.275   3.097  10.873  0.0839 -0.2561 -0.0290
  829MOL0     C14276   3.129   3.126  10.899  0.8378  0.3181  0.1438
  829MOL0     C14277   3.049   3.019  10.824  0.2200 -0.0035  0.3385
  829MOL0     C14278   2.898   3.060  10.817 -0.9396  0.7577 -0.1094
  829MOL0     C14279   2.814   2.978  10.723  0.2015 -0.2079  0.0852
  829MOL0     C14280   2.713   3.071  10.661  0.3357 -0.4237  0.2213
  829MOL0     N14281   2.603   3.007  10.579  0.1363 -0.0296  0.2720
  829MOL0     C14282   2.466   3.012  10.611 -0.1649 -0.2936 -0.9572
  829MOL0     C14283   2.396   2.955  10.506  0.2464  0.4029 -0.1323
  829MOL0     C14284   2.246   2.944  10.491 -0.7873  0.2480 -0.3955
  829MOL0     C14285   2.177   3.026  10.591  0.3651  0.7282  1.1632
  829MOL0     C14286   2.195   3.184  10.603 -0.3226  0.1373  0.0745
  829MOL0     C14287   2.208   3.259  10.469  0.9043  0.4346 -1.1950
  829MOL0     O14288   2.252   3.387  10.492 -0.3921  0.0185 -0.5610
  829MOL0     C14289   2.387   3.384  10.506 -0.0648  0.0765  0.2687
  829MOL0     C14290   2.478   3.337  10.406 -0.0509  0.5167  0.8232
  829MOL0     C14291   2.617   3.348  10.428  0.1242 -0.0830 -0.3092
  829MOL0     C14292   2.707   3.299  10.318  0.8211 -0.8434 -0.2467
  829MOL0     C14293   2.664   3.395  10.550  0.0061 -0.1496  0.3370
  829MOL0     C14294   2.804   3.415  10.578 -0.0802  0.0974  0.9083
  829MOL0     O14295   2.849   3.397  10.708  0.3411 -0.3230  0.6289
  829MOL0     C14296   2.943   3.475  10.760 -0.3658  0.4050 -0.4488
  829MOL0     C14297   2.912   3.543  10.877  0.5147  0.2496 -0.4564
  829MOL0     C14298   3.000   3.624  10.941 -0.9438 -0.4761  0.2248
  829MOL0     C14299   3.138   3.614  10.906  0.2601 -0.4830  0.0840
  829MOL0     O14300   3.241   3.678  10.974  0.1998 -0.3277  0.5845
  829MOL0     C14301   3.224   3.746  11.098  0.1848  0.5981 -0.9457
  829MOL0     C14302   3.350   3.828  11.131 -0.0162  0.4537  0.6542
  829MOL0     C14303   3.311   3.917  11.245  0.7191 -0.2971  0.3024
  829MOL0     C14304   3.365   3.865  11.376  0.1498  0.4380  0.3312
  829MOL0     C14305   3.330   3.958  11.495  0.5049  0.2537 -0.0085
  829MOL0     C14306   3.384   3.913  11.628 -0.8691  0.0282 -0.0845
  829MOL0     C14307   3.538   3.905  11.619 -0.2355  0.2646 -0.4416
  829MOL0     C14308   3.586   3.858  11.754  0.1577 -0.6553  0.8724
  829MOL0    Cl14309   3.762   3.881  11.774  0.5107 -0.3866 -0.1065
  829MOL0     C14310   3.175   3.542  10.796 -0.1265 -0.1442  0.3281
  829MOL0     C14311   3.083   3.468  10.725  0.4434  0.2599  0.7273
  829MOL0     O14312   2.876   3.455  10.487 -0.0468 -0.1400  0.5963
  829MOL0     C14313   2.570   3.446  10.643 -0.6881 -0.1214  0.4357
  829MOL0     C14314   2.433   3.445  10.618  0.0241  0.4535 -0.6321
  829MOL0     N14315   2.497   2.908  10.423 -0.5772  0.1242  0.5352
  829MOL0     N14316   2.619   2.937  10.467  0.8277 -0.0193  0.5798
  829MOL0     C14317   3.800   3.115  10.798  0.0874 -0.3082 -0.4376
  829MOL0     C14318   3.908   3.050  10.750 -0.3027  0.4591 -0.0267
  829MOL0     C14319   4.240   2.722  10.773  1.0247 -0.4145  0.5500
  829MOL0     C14320   4.206   2.616  10.685 -0.3484 -0.9450 -0.1192
  829MOL0     C14321   4.287   2.499  10.680  0.1587 -0.1319 -0.6689
  829MOL0     C14322   4.406   2.494  10.747 -0.0359  0.0576 -0.4367
  829MOL0     O14323   4.479   2.377  10.726 -0.1535 -0.2403  0.4775
  829MOL0     C14324   4.613   2.380  10.776 -0.7804 -0.4999  1.7181
  829MOL0     C14325   4.699   2.257  10.746  0.8000  0.9155  0.6209
  829MOL0     C14326   4.718   2.236  10.599 -0.0331  0.2570 -0.6600
  829MOL0     C14327   4.808   2.115  10.572 -0.6269  0.5937 -0.4489
  829MOL0     C14328   4.951   2.133  10.618  0.4263  0.2469  0.3928
  829MOL0     C14329   5.068   2.139  10.642  0.4542 -0.2443 -1.0397
  829MOL0     C14330   4.440   2.601  10.829  0.0167 -0.2965  0.6620
  829MOL0     C14331   4.358   2.715  10.845  0.2553  0.0786 -0.5687
  829MOL0     C14332   4.415   2.829  10.929 -0.2283  0.4562  0.3007
  829MOL0     H14333   3.809   2.728  10.791 -0.2622 -0.0576 -0.0037
  829MOL0     H14334   3.625   2.850  10.904  0.6994 -0.3298  2.2963
  829MOL0     H14335   3.510   3.192  10.742  2.0236 -0.8279 -1.0166
  829MOL0     H14336   3.561   3.294  10.885 -0.1447  0.8411 -1.9479
  829MOL0     H14337   3.364   3.237  11.022  0.8334 -1.7062  1.1733
  829MOL0     H14338   3.330   3.308  10.859 -0.6551  0.4744  0.7872
  829MOL0     H14339   3.282   3.080  10.766 -0.6137 -0.2501 -0.0817
  829MOL0     H14340   3.304   3.012  10.935 -0.0925  1.7926  3.1510
  829MOL0     H14341   3.103   3.123  11.005 -0.4173  1.4662 -0.1150
  829MOL0     H14342   3.107   3.226  10.862  0.1133  0.8511  1.9400
  829MOL0     H14343   3.058   2.921  10.871 -0.2584 -1.1906 -1.9101
  829MOL0     H14344   3.085   3.005  10.722 -0.5425 -1.0413  0.1928
  829MOL0     H14345   2.861   3.055  10.920  0.0555 -2.7976  0.2218
  829MOL0     H14346   2.900   3.163  10.782 -0.6305  0.3780 -1.2657
  829MOL0     H14347   2.766   2.898  10.780 -1.0134  0.9627  0.7699
  829MOL0     H14348   2.863   2.941  10.632  0.7745  0.0372  0.2907
  829MOL0     H14349   2.669   3.126  10.746 -0.2501 -1.0508  0.3386
  829MOL0     H14350   2.753   3.148  10.595 -0.0043  0.2493  0.7854
  829MOL0     H14351   2.422   3.049  10.704 -1.2943  0.2444 -1.6879
  829MOL0     H14352   2.222   2.837  10.490  1.1296 -0.2609  1.0746
  829MOL0     H14353   2.225   2.985  10.392  2.0486 -0.5992 -1.4486
  829MOL0     H14354   2.071   3.017  10.566  0.3366  2.3302  0.5940
  829MOL0     H14355   2.194   2.982  10.690  2.2677 -0.5870  0.3083
  829MOL0     H14356   2.113   3.230  10.660 -1.1944  2.5131 -2.8014
  829MOL0     H14357   2.282   3.211  10.664 -1.1064 -0.2660  1.4097
  829MOL0     H14358   2.261   3.203  10.393 -0.8396  1.4081 -3.2426
  829MOL0     H14359   2.110   3.281  10.425  0.9330  3.3732 -0.0622
  829MOL0     H14360   2.444   3.308  10.308  3.3804 -0.2308 -0.2761
  829MOL0     H14361   2.651   3.243  10.242  2.1755 -0.6011 -1.4535
  829MOL0     H14362   2.775   3.234  10.374 -2.1418 -1.8822  2.4216
  829MOL0     H14363   2.753   3.381  10.263 -1.3672 -1.2734 -2.9564
  829MOL0     H14364   2.808   3.540  10.910  0.2077  1.6421 -1.2314
  829MOL0     H14365   2.966   3.676  11.030  0.3154  0.0320  0.4276
  829MOL0     H14366   3.134   3.809  11.093  1.2662  2.4564  1.3485
  829MOL0     H14367   3.210   3.677  11.182 -3.3749  2.3362  0.1031
  829MOL0     H14368   3.430   3.756  11.151 -2.1270 -1.5759  2.3962
  829MOL0     H14369   3.376   3.887  11.042 -2.0414 -0.3810 -0.5444
  829MOL0     H14370   3.205   3.943  11.250  1.1869  1.7095  0.4946
  829MOL0     H14371   3.360   4.013  11.231  0.0981 -0.0584 -0.2291
  829MOL0     H14372   3.473   3.851  11.377 -0.1250 -3.7772  4.0342
  829MOL0     H14373   3.319   3.767  11.394 -2.2171  1.9262  3.3788
  829MOL0     H14374   3.356   4.064  11.483  2.5464 -0.0521  1.2199
  829MOL0     H14375   3.220   3.961  11.501  0.4586 -2.0952  1.9984
  829MOL0     H14376   3.348   3.817  11.665  2.1500  0.3164  4.4447
  829MOL0     H14377   3.359   3.987  11.704 -0.4015  0.1652 -0.0603
  829MOL0     H14378   3.578   4.005  11.598  0.1705  0.4183  1.0044
  829MOL0     H14379   3.581   3.835  11.547  0.1542  1.9150 -1.8992
  829MOL0     H14380   3.565   3.751  11.763 -1.4321 -0.2339  2.7926
  829MOL0     H14381   3.530   3.904  11.835 -0.6653  0.3141 -0.2085
  829MOL0     H14382   3.277   3.527  10.765  0.4306  4.3538 -0.7047
  829MOL0     H14383   3.099   3.401  10.642 -2.0592 -1.8644  1.8494
  829MOL0     H14384   2.606   3.475  10.741  3.6316  2.0896 -1.5107
  829MOL0     H14385   2.365   3.481  10.695  1.4830  0.3153  0.7809
  829MOL0     H14386   3.799   3.224  10.803  1.4629 -0.1718 -2.2953
  829MOL0     H14387   3.992   3.107  10.711 -1.1285  1.7188 -0.0019
  829MOL0     H14388   4.113   2.608  10.630 -1.9519  0.6781  2.1276
  829MOL0     H14389   4.247   2.419  10.619 -0.8639 -0.3664  0.2688
  829MOL0     H14390   4.665   2.467  10.735 -0.4087 -2.0551 -1.5099
  829MOL0     H14391   4.617   2.383  10.885 -0.6092 -0.7462  1.7196
  829MOL0     H14392   4.654   2.171  10.795 -1.6921 -0.3763 -3.4192
  829MOL0     H14393   4.801   2.272  10.782  0.5009  0.6715  1.5977
  829MOL0     H14394   4.620   2.205  10.563 -0.3523 -0.9765  1.0895
  829MOL0     H14395   4.754   2.329  10.556  0.5324  0.4031  0.0911
  829MOL0     H14396   4.812   2.090  10.466  0.4448 -1.4447  0.0265
  829MOL0     H14397   4.760   2.035  10.629 -1.4225  0.2943 -1.5228
  829MOL0     H14398   5.173   2.141  10.660  0.4169 -2.2481 -0.3345
  829MOL0     H14399   4.536   2.600  10.879 -0.0138  1.7118  0.8387
  829MOL0     H14400   4.431   2.914  10.861  2.0258 -2.3299 -3.0611
  829MOL0     H14401   4.346   2.864  11.005  0.2869  0.6808  0.6716
  829MOL0     H14402   4.511   2.799  10.972  0.2851 -0.8180 -1.5666
  830MOL0     O14403   8.188   4.302   0.103  0.0574  0.1756 -0.4909
  830MOL0     C14404   8.134   4.207   0.161  0.3719  0.4084 -0.1049
  830MOL0     O14405   8.205   4.127   0.251  0.3681 -0.0699 -0.2816
  830MOL0     C14406   8.337   4.150   0.292 -0.4417 -0.0850 -0.4391
  830MOL0     C14407   8.360   4.215   0.413  0.9862  0.1440 -0.3485
  830MOL0     C14408   8.482   4.249   0.462 -0.2288 -0.5587  0.2266
  830MOL0     C14409   8.601   4.192   0.394 -0.3726  1.3793 -0.3214
  830MOL0     O14410   8.730   4.199   0.429 -0.4611 -0.0481  0.5832
  830MOL0     C14411   8.748   4.202   0.578  0.8631  0.0013  0.0326
  830MOL0     C14412   8.887   4.257   0.600  0.4401 -0.0818 -0.7776
  830MOL0     C14413   8.908   4.397   0.547  0.9021 -0.8589  0.3831
  830MOL0     C14414   9.056   4.420   0.566 -1.1146  0.0797 -1.0800
  830MOL0     C14415   9.108   4.545   0.497 -0.6303  0.0048  0.5199
  830MOL0     C14416   9.262   4.572   0.540  0.8932  0.1831  0.9341
  830MOL0     C14417   9.291   4.611   0.683  0.5881  0.0287 -0.1082
  830MOL0     C14418   9.436   4.647   0.708  0.4737  0.0324 -0.3278
  830MOL0     N14419   9.507   4.546   0.780 -0.0637  0.4620  0.3406
  830MOL0     C14420   9.584   4.443   0.733 -0.1783 -0.2259  0.6491
  830MOL0     C14421   9.639   4.388   0.849 -1.2197  0.0017 -0.0023
  830MOL0     C14422   9.722   4.269   0.855 -1.5603 -0.0186 -0.8574
  830MOL0     C14423   9.875   4.300   0.859  0.6680  0.2828 -0.0392
  830MOL0     C14424   9.905   4.404   0.958 -0.3801 -0.3658 -0.3724
  830MOL0     C14425  10.057   4.434   0.963  0.1751 -0.1686 -0.1269
  830MOL0     O14426  10.120   4.334   1.045  0.3416 -0.0321 -0.2875
  830MOL0     C14427  10.234   4.375   1.107 -0.4076  0.4255  0.2104
  830MOL0     C14428  10.248   4.368   1.244 -0.4900  0.8504 -0.7522
  830MOL0     C14429  10.369   4.407   1.309  0.5426 -0.0939  0.5525
  830MOL0     C14430  10.372   4.399   1.462  0.3124 -0.8356  0.2234
  830MOL0     C14431  10.481   4.454   1.233  0.2384  0.1131  0.2710
  830MOL0     C14432  10.614   4.499   1.283 -0.3387  0.0975 -0.2268
  830MOL0     O14433  10.712   4.517   1.184  0.6718 -0.3080 -0.5795
  830MOL0     C14434  10.826   4.578   1.227  0.9479  0.2798  0.3452
  830MOL0     C14435  10.935   4.527   1.158 -1.2325 -0.0714 -1.2765
  830MOL0     C14436  11.067   4.577   1.180 -0.2774 -0.4787  0.7667
  830MOL0     C14437  11.094   4.695   1.249 -0.5463  0.3379  0.6926
  830MOL0     O14438  11.217   4.744   1.271 -0.5440  0.3939  0.5161
  830MOL0     C14439  11.328   4.652   1.271 -0.0327 -0.1492 -0.4234
  830MOL0     C14440  11.453   4.740   1.288  0.6563 -0.2509  0.2944
  830MOL0     C14441  11.559   4.639   1.330 -0.2371 -0.6630 -0.5307
  830MOL0     C14442  11.698   4.711   1.326  0.4051 -0.0399 -1.0441
  830MOL0     C14443  11.790   4.634   1.421 -0.4200  0.0405 -0.5944
  830MOL0     C14444  11.930   4.699   1.415 -0.5511 -0.0015 -0.0247
  830MOL0     C14445  12.045   4.614   1.479  0.7482 -0.6659 -0.1067
  830MOL0     C14446  12.071   4.476   1.408 -0.3632 -0.2170  0.3237
  830MOL0    Cl14447  12.227   4.420   1.466 -0.4026 -0.0114 -0.1466
  830MOL0     C14448  10.976   4.743   1.327 -0.8348 -0.0100  0.6964
  830MOL0     C14449  10.846   4.686   1.317  1.0243  0.2396  0.3212
  830MOL0     O14450  10.621   4.540   1.403 -0.3343  0.3653 -0.0168
  830MOL0     C14451  10.461   4.458   1.093  0.4209  0.5227  0.3541
  830MOL0     C14452  10.342   4.421   1.029  0.3336 -0.0728 -0.2256
  830MOL0     N14453   9.593   4.460   0.955  0.1369  0.3880  0.2074
  830MOL0     N14454   9.519   4.558   0.916  0.4683  0.0431 -0.1037
  830MOL0     C14455   8.583   4.116   0.279  0.6581  0.1135 -0.1775
  830MOL0     C14456   8.450   4.093   0.228  0.3793  0.8661  0.2861
  830MOL0     C14457   7.999   4.152   0.123  0.6032 -1.0889 -0.1942
  830MOL0     C14458   7.967   4.024   0.163  0.4314 -0.6550 -0.3605
  830MOL0     C14459   7.849   3.965   0.120  0.9445  0.1507  1.2691
  830MOL0     C14460   7.758   4.026   0.032  0.2939 -0.6898 -0.4786
  830MOL0     O14461   7.638   3.961   0.001  0.7556 -0.4304  0.4249
  830MOL0     C14462   7.539   4.034  -0.065 -0.3687 -0.4432  0.1625
  830MOL0     C14463   7.414   3.949  -0.081  0.0293  0.0846 -0.2407
  830MOL0     C14464   7.439   3.833  -0.183  0.1521  0.0198 -0.6160
  830MOL0     C14465   7.344   3.845  -0.305 -0.2216  0.3235  0.0606
  830MOL0     C14466   7.358   3.966  -0.383 -0.4895  0.3831  0.2654
  830MOL0     C14467   7.382   4.059  -0.463  0.4227  0.6280 -0.7260
  830MOL0     C14468   7.791   4.153   0.005  0.3343  0.3358 -0.0513
  830MOL0     C14469   7.907   4.222   0.043 -1.1922 -0.2524  0.0067
  830MOL0     C14470   7.925   4.368   0.005 -0.1952  0.8102 -0.2109
  830MOL0     H14471   8.269   4.242   0.466  1.1866  0.0420  0.0496
  830MOL0     H14472   8.482   4.292   0.562  0.8550 -1.9709  0.8703
  830MOL0     H14473   8.732   4.104   0.625  0.6845 -0.5927 -1.2227
  830MOL0     H14474   8.677   4.269   0.628  1.0230  0.7052 -0.6663
  830MOL0     H14475   8.911   4.261   0.706  1.1590 -0.7225 -0.9085
  830MOL0     H14476   8.954   4.186   0.549 -1.0135 -1.6698 -0.5597
  830MOL0     H14477   8.884   4.394   0.441 -1.7341  0.8613  0.8482
  830MOL0     H14478   8.837   4.472   0.584  2.1524 -0.1892  1.5455
  830MOL0     H14479   9.065   4.443   0.673  1.9243 -3.3446 -0.3931
  830MOL0     H14480   9.125   4.339   0.541 -1.7868 -1.2053  0.9711
  830MOL0     H14481   9.047   4.634   0.515 -2.7660 -1.2848  0.0122
  830MOL0     H14482   9.108   4.534   0.388 -1.9586  3.2324  0.0835
  830MOL0     H14483   9.315   4.480   0.514  1.8473  1.9527 -4.8083
  830MOL0     H14484   9.308   4.643   0.471  2.0684 -0.5385  0.9574
  830MOL0     H14485   9.262   4.524   0.743  0.1892  0.1925 -0.0601
  830MOL0     H14486   9.235   4.701   0.709  1.8996 -0.1109  4.0378
  830MOL0     H14487   9.490   4.671   0.616 -0.9319 -1.3249 -1.5461
  830MOL0     H14488   9.434   4.740   0.767 -0.8981 -0.3327  0.2411
  830MOL0     H14489   9.593   4.398   0.635  3.7332 -1.2141  1.2947
  830MOL0     H14490   9.706   4.196   0.776  0.4572 -0.2429 -1.1167
  830MOL0     H14491   9.690   4.218   0.947  1.3674  0.5133  0.5686
  830MOL0     H14492   9.927   4.207   0.886 -1.9470 -1.1254  0.5051
  830MOL0     H14493   9.904   4.346   0.765  0.1466  1.9665  0.5823
  830MOL0     H14494   9.863   4.500   0.927 -0.2963 -0.1257  0.2454
  830MOL0     H14495   9.860   4.384   1.055 -0.2573  0.7557 -0.0711
  830MOL0     H14496  10.092   4.427   0.860 -1.6938  2.3784 -1.0432
  830MOL0     H14497  10.075   4.536   1.001  1.2303 -0.4074  0.0280
  830MOL0     H14498  10.154   4.346   1.294  0.2166 -1.3033 -0.2599
  830MOL0     H14499  10.441   4.316   1.479 -0.9155 -1.9179  0.0915
  830MOL0     H14500  10.275   4.366   1.500 -0.0497  1.6350  1.6682
  830MOL0     H14501  10.408   4.490   1.512  1.3339 -1.5396  0.8084
  830MOL0     H14502  10.915   4.436   1.101 -1.0525 -3.1217  3.0552
  830MOL0     H14503  11.143   4.522   1.126 -1.5859 -0.0261 -1.6589
  830MOL0     H14504  11.314   4.595   1.363  2.4257  0.5167  0.4421
  830MOL0     H14505  11.340   4.581   1.189 -0.6790  0.2021 -0.8283
  830MOL0     H14506  11.464   4.785   1.188 -3.8198 -2.3468 -1.4227
  830MOL0     H14507  11.435   4.818   1.362  1.3823 -1.3828  1.7076
  830MOL0     H14508  11.572   4.548   1.271  0.5391  0.2848 -1.8805
  830MOL0     H14509  11.529   4.604   1.429  2.4089  1.0318  0.9953
  830MOL0     H14510  11.684   4.812   1.366 -2.9625 -1.0847  0.8405
  830MOL0     H14511  11.737   4.705   1.224  0.4583  0.8725 -1.0791
  830MOL0     H14512  11.762   4.648   1.526  4.0450  0.3577  0.7565
  830MOL0     H14513  11.787   4.526   1.403  0.9897 -0.2302  0.6216
  830MOL0     H14514  11.924   4.800   1.456  0.0340  0.0417 -0.0311
  830MOL0     H14515  11.965   4.719   1.313  0.7273 -2.5239 -0.1573
  830MOL0     H14516  12.010   4.597   1.582 -2.3184  0.6043 -0.8130
  830MOL0     H14517  12.136   4.674   1.467  0.1460  0.0366 -1.3714
  830MOL0     H14518  12.083   4.491   1.300  2.5809 -1.9965  0.2908
  830MOL0     H14519  12.006   4.391   1.427  0.1896 -0.8676 -0.5747
  830MOL0     H14520  10.997   4.826   1.394  0.6341  1.0609 -1.0053
  830MOL0     H14521  10.771   4.731   1.382  2.7330  1.4885  1.5072
  830MOL0     H14522  10.544   4.482   1.027 -0.0213  1.3442  0.0884
  830MOL0     H14523  10.334   4.422   0.920  0.1320  0.3366 -0.2085
  830MOL0     H14524   8.676   4.075   0.238 -0.6630 -1.8015 -1.4387
  830MOL0     H14525   8.426   4.037   0.138 -2.0050  3.5813 -0.9138
  830MOL0     H14526   8.028   3.962   0.228  1.3536 -0.1159 -0.7025
  830MOL0     H14527   7.830   3.861   0.146  2.2456 -0.3011  0.5107
  830MOL0     H14528   7.509   4.126  -0.013 -0.5774  1.1099 -2.5157
  830MOL0     H14529   7.572   4.082  -0.157 -0.2755  0.3436  0.5911
  830MOL0     H14530   7.338   4.018  -0.120 -0.1787 -0.6370 -1.1462
  830MOL0     H14531   7.375   3.906   0.012  4.2777 -0.3357  1.5642
  830MOL0     H14532   7.542   3.821  -0.218  1.1913 -0.9359  2.4356
  830MOL0     H14533   7.411   3.742  -0.130 -1.4812  0.1168 -1.2623
  830MOL0     H14534   7.236   3.839  -0.289 -0.8244  0.1117 -3.4690
  830MOL0     H14535   7.369   3.758  -0.365  5.2943  1.8638 -0.3903
  830MOL0     H14536   7.403   4.142  -0.528 -1.0261  3.1658  1.8002
  830MOL0     H14537   7.714   4.197  -0.058  0.6089 -2.2883 -2.4267
  830MOL0     H14538   8.008   4.377  -0.066  1.0666 -1.6464  0.8000
  830MOL0     H14539   7.831   4.403  -0.038 -1.1825 -0.9278  0.4569
  830MOL0     H14540   7.947   4.435   0.089 -2.8128 -0.9925  2.1241
  831MOL0     O14541   3.418   6.519   0.206  0.0022 -0.1647  0.4798
  831MOL0     C14542   3.455   6.613   0.277  0.9279 -0.6942  0.2301
  831MOL0     O14543   3.582   6.629   0.324 -0.1764  0.1366 -0.1721
  831MOL0     C14544   3.659   6.518   0.336 -0.1387  0.5112 -0.4663
  831MOL0     C14545   3.613   6.396   0.390 -0.4082  0.3444  0.3934
  831MOL0     C14546   3.698   6.280   0.409  0.7947 -0.5739  0.0208
  831MOL0     C14547   3.831   6.295   0.381 -1.1751  0.6371  0.0888
  831MOL0     O14548   3.917   6.188   0.410  0.8074 -0.3627  0.5990
  831MOL0     C14549   4.036   6.168   0.325  0.4619 -1.0821 -0.3068
  831MOL0     C14550   4.092   6.023   0.354 -0.1100 -0.2353 -0.0399
  831MOL0     C14551   4.238   6.012   0.324 -0.5186 -1.1388  0.4916
  831MOL0     C14552   4.281   5.862   0.321  0.1631  0.0970  0.5182
  831MOL0     C14553   4.430   5.864   0.320 -0.1503  0.6787  1.0021
  831MOL0     C14554   4.501   5.733   0.362 -0.3289  0.1162 -0.2787
  831MOL0     C14555   4.457   5.607   0.279 -0.7329  0.2239  0.5664
  831MOL0     C14556   4.499   5.481   0.344 -0.0340  0.6198  0.4495
  831MOL0     N14557   4.467   5.363   0.260 -0.3285  0.9485 -0.1197
  831MOL0     C14558   4.542   5.322   0.150 -0.2790 -0.3358 -0.3282
  831MOL0     C14559   4.484   5.209   0.102 -0.7396 -0.1378 -0.5297
  831MOL0     C14560   4.549   5.115  -0.002 -0.2904  0.0490  0.1926
  831MOL0     C14561   4.464   5.012  -0.075 -0.1009  0.4671  0.6259
  831MOL0     C14562   4.348   5.089  -0.142  0.5581  0.2852 -0.0268
  831MOL0     C14563   4.268   5.005  -0.247  0.4977  0.1739 -0.5177
  831MOL0     O14564   4.340   4.981  -0.368  0.1413 -0.7875 -0.7351
  831MOL0     C14565   4.370   5.093  -0.448  0.0163  0.5793  0.4794
  831MOL0     C14566   4.290   5.199  -0.478 -0.0739  0.6429 -0.0389
  831MOL0     C14567   4.326   5.288  -0.576  0.2218  0.6974 -0.3670
  831MOL0     C14568   4.217   5.385  -0.620 -0.7424 -0.4690  0.1360
  831MOL0     C14569   4.450   5.281  -0.633 -0.3212  0.3029  1.0698
  831MOL0     C14570   4.498   5.374  -0.733  0.4683  0.3613 -0.2902
  831MOL0     O14571   4.415   5.429  -0.824  0.2844 -0.0682 -0.4114
  831MOL0     C14572   4.452   5.508  -0.932 -0.4432 -0.0309  0.3289
  831MOL0     C14573   4.383   5.625  -0.951  0.6588 -0.2650 -0.1210
  831MOL0     C14574   4.417   5.713  -1.054  0.3723  0.5024  0.2636
  831MOL0     C14575   4.516   5.671  -1.149  0.1970 -1.1238 -0.3462
  831MOL0     O14576   4.535   5.755  -1.255  0.5967  0.3956  0.2890
  831MOL0     C14577   4.649   5.741  -1.336 -0.6170  0.1511  0.3404
  831MOL0     C14578   4.775   5.785  -1.261  0.1231  0.5717 -0.2135
  831MOL0     C14579   4.905   5.795  -1.346 -0.3717 -0.2992 -0.7183
  831MOL0     C14580   5.029   5.809  -1.254  0.4716  0.0646  0.1677
  831MOL0     C14581   5.152   5.755  -1.336  0.0477  0.5635 -0.8029
  831MOL0     C14582   5.164   5.592  -1.339 -0.1382 -0.2800  0.1818
  831MOL0     C14583   5.108   5.524  -1.207 -0.5766  0.1401  0.0801
  831MOL0     C14584   5.129   5.371  -1.209  0.9129 -0.2639  0.0993
  831MOL0    Cl14585   5.021   5.297  -1.337 -0.2530 -0.0924  0.4071
  831MOL0     C14586   4.588   5.550  -1.131  1.1104  0.5315 -0.3857
  831MOL0     C14587   4.547   5.469  -1.027  0.8338  0.7482 -0.1067
  831MOL0     O14588   4.621   5.387  -0.736 -0.6381  0.2595 -0.5453
  831MOL0     C14589   4.538   5.176  -0.596 -0.3447  0.3951  1.0917
  831MOL0     C14590   4.486   5.075  -0.512  0.5740  0.1611  0.4021
  831MOL0     N14591   4.373   5.184   0.182 -0.5315 -0.3721 -0.7334
  831MOL0     N14592   4.372   5.277   0.277  0.0057 -0.2106  0.3402
  831MOL0     C14593   3.877   6.420   0.327  0.3212  0.1874  0.0490
  831MOL0     C14594   3.793   6.529   0.312 -0.3758  0.0268 -0.0723
  831MOL0     C14595   3.378   6.725   0.333 -0.4219  0.5545 -0.4968
  831MOL0     C14596   3.441   6.846   0.380  0.7300 -0.0640 -0.6212
  831MOL0     C14597   3.366   6.954   0.435  0.0713  0.0027 -0.3617
  831MOL0     C14598   3.230   6.935   0.435  0.7997  0.3853 -0.3029
  831MOL0     O14599   3.167   7.054   0.480  0.1841 -0.0269  0.4025
  831MOL0     C14600   3.027   7.045   0.488  0.7331 -0.5686  0.1568
  831MOL0     C14601   2.976   7.162   0.574  0.7463 -0.1371 -0.3106
  831MOL0     C14602   2.967   7.301   0.497  0.0438  0.4753  0.0635
  831MOL0     C14603   2.900   7.400   0.579 -0.5844 -0.0335  0.5637
  831MOL0     C14604   2.920   7.543   0.539  0.6149 -0.7869 -0.3096
  831MOL0     C14605   2.910   7.650   0.490  0.3916  0.6051 -0.3952
  831MOL0     C14606   3.161   6.825   0.374  0.5634 -0.3197 -0.6560
  831MOL0     C14607   3.241   6.720   0.324  0.2566  0.3998 -0.8110
  831MOL0     C14608   3.155   6.620   0.254 -0.6279  0.0067  0.1524
  831MOL0     H14609   3.510   6.390   0.423 -0.0540 -3.0843  1.2669
  831MOL0     H14610   3.666   6.184   0.450 -0.8237  0.0202  0.2157
  831MOL0     H14611   4.110   6.240   0.360 -0.0814 -1.5712  2.0111
  831MOL0     H14612   4.014   6.173   0.218 -0.9972 -1.1368 -0.0299
  831MOL0     H14613   4.077   5.995   0.459  1.4739 -2.3253 -0.3121
  831MOL0     H14614   4.033   5.959   0.287 -0.3325 -0.1716  0.0935
  831MOL0     H14615   4.264   6.060   0.230  1.3658 -3.5077 -0.2860
  831MOL0     H14616   4.294   6.062   0.404  1.5104 -1.5165 -0.6268
  831MOL0     H14617   4.249   5.810   0.412  0.4994 -1.1250 -0.0396
  831MOL0     H14618   4.244   5.809   0.232 -0.5337  1.2705  0.0798
  831MOL0     H14619   4.465   5.938   0.393  1.5487 -1.4351  2.4748
  831MOL0     H14620   4.459   5.896   0.220  0.8717 -0.8116  0.7847
  831MOL0     H14621   4.611   5.730   0.360  0.0664 -3.4367  5.2065
  831MOL0     H14622   4.482   5.720   0.469  0.2567  0.0353 -0.1798
  831MOL0     H14623   4.503   5.603   0.180 -1.5496  1.5772  0.0980
  831MOL0     H14624   4.350   5.605   0.254 -0.6137  1.6687 -0.1544
  831MOL0     H14625   4.608   5.488   0.359 -0.0699 -2.5463  3.4911
  831MOL0     H14626   4.458   5.459   0.443  1.4176 -4.9772  0.1443
  831MOL0     H14627   4.640   5.356   0.120  0.1641  0.0749  1.4504
  831MOL0     H14628   4.628   5.058   0.047 -1.2690 -1.5713 -0.0673
  831MOL0     H14629   4.595   5.174  -0.082  2.8902 -1.8455  0.4568
  831MOL0     H14630   4.520   4.952  -0.148 -0.0231  1.1003  0.1533
  831MOL0     H14631   4.436   4.942   0.003 -0.5235 -1.5952 -1.2697
  831MOL0     H14632   4.270   5.124  -0.074 -2.3801 -0.2696 -2.9047
  831MOL0     H14633   4.391   5.178  -0.190  1.7901  1.5671  3.1625
  831MOL0     H14634   4.246   4.911  -0.197 -1.3857  1.3472  0.9689
  831MOL0     H14635   4.176   5.063  -0.260  0.1487  0.7165  3.2949
  831MOL0     H14636   4.193   5.206  -0.431 -1.0068 -3.8831 -0.8181
  831MOL0     H14637   4.135   5.393  -0.548 -1.2358  0.5684 -0.5225
  831MOL0     H14638   4.166   5.367  -0.715 -2.5747  1.3895  0.6935
  831MOL0     H14639   4.255   5.487  -0.615  1.0766 -1.1374  0.9150
  831MOL0     H14640   4.295   5.656  -0.896 -0.4047 -0.8188 -1.4374
  831MOL0     H14641   4.373   5.808  -1.081 -1.3411 -0.2083  0.4280
  831MOL0     H14642   4.680   5.639  -1.362  0.6962  0.5027  0.4585
  831MOL0     H14643   4.645   5.799  -1.429  2.3068  1.1370  0.7286
  831MOL0     H14644   4.755   5.878  -1.207  1.2354 -0.4007  2.0160
  831MOL0     H14645   4.789   5.714  -1.178  2.8614  0.4850 -0.6643
  831MOL0     H14646   4.901   5.870  -1.425 -1.3939 -1.3253 -1.6764
  831MOL0     H14647   4.918   5.709  -1.413 -1.2569  1.1356 -2.8460
  831MOL0     H14648   5.015   5.768  -1.153  0.5894  1.0979  0.6105
  831MOL0     H14649   5.042   5.916  -1.236 -1.1155  0.4863 -0.9967
  831MOL0     H14650   5.156   5.795  -1.438 -1.8641 -2.1084 -2.0406
  831MOL0     H14651   5.241   5.787  -1.282 -0.2865  2.5682 -1.3445
  831MOL0     H14652   5.266   5.567  -1.370 -0.1118  0.3513 -0.2678
  831MOL0     H14653   5.093   5.558  -1.415 -1.6349  2.7597  0.0731
  831MOL0     H14654   5.001   5.546  -1.194 -1.1344 -0.1728 -3.1524
  831MOL0     H14655   5.168   5.562  -1.124  0.2411 -2.3612  0.7013
  831MOL0     H14656   5.091   5.334  -1.113 -0.7363 -1.5117 -0.9780
  831MOL0     H14657   5.235   5.344  -1.212  0.7255 -0.9375 -1.7634
  831MOL0     H14658   4.655   5.506  -1.205 -0.5932  0.8865 -2.2254
  831MOL0     H14659   4.600   5.375  -1.017  2.0554  1.0902 -2.4357
  831MOL0     H14660   4.642   5.179  -0.628 -0.8287 -1.1181 -0.7557
  831MOL0     H14661   4.542   4.989  -0.480 -0.2356  0.0566  1.5921
  831MOL0     H14662   3.983   6.434   0.309 -0.5972  1.9808 -6.2227
  831MOL0     H14663   3.830   6.624   0.276  1.3620 -0.2088  0.9360
  831MOL0     H14664   3.549   6.851   0.379  0.7570  0.3910  1.0908
  831MOL0     H14665   3.425   7.042   0.460  1.9804 -1.5235  0.8614
  831MOL0     H14666   2.984   7.037   0.388  0.1076 -0.0938  0.3778
  831MOL0     H14667   2.994   6.950   0.531 -0.2420 -0.6765 -0.8007
  831MOL0     H14668   3.021   7.166   0.674 -1.2784  2.4803  0.6234
  831MOL0     H14669   2.872   7.142   0.603  0.3839 -0.2816 -1.6523
  831MOL0     H14670   3.066   7.331   0.461  0.6140  0.3667  1.4940
  831MOL0     H14671   2.900   7.281   0.412 -2.4559  4.5259  0.8125
  831MOL0     H14672   2.957   7.395   0.672  1.9819 -1.7790 -0.9665
  831MOL0     H14673   2.797   7.366   0.583 -0.1858 -1.1874  2.3661
  831MOL0     H14674   2.912   7.743   0.438  1.2563  0.8531  0.0620
  831MOL0     H14675   3.053   6.821   0.359  0.3109 -2.0017  1.1200
  831MOL0     H14676   3.181   6.627   0.148  3.2174 -1.8643  0.7964
  831MOL0     H14677   3.181   6.519   0.286 -1.0748 -0.3038 -0.4364
  831MOL0     H14678   3.047   6.629   0.272 -0.5863  0.0250  0.4007
  832MOL0     O14679   3.746  11.291   6.370  0.4483  0.1493  0.2602
  832MOL0     C14680   3.736  11.336   6.481  0.1601  0.2597  0.5456
  832MOL0     O14681   3.824  11.416   6.550  0.0415 -0.0328  0.6522
  832MOL0     C14682   3.930  11.477   6.492  0.1395 -1.2155  0.8602
  832MOL0     C14683   4.049  11.479   6.562  0.3776  0.2336  0.6222
  832MOL0     C14684   4.150  11.554   6.507  0.5286 -0.0883 -0.0727
  832MOL0     C14685   4.138  11.624   6.390 -0.2860  0.3973  0.3587
  832MOL0     O14686   4.243  11.700   6.337  0.4190  1.3343 -0.9119
  832MOL0     C14687   4.355  11.627   6.293  0.5280 -0.5221 -0.6202
  832MOL0     C14688   4.450  11.712   6.209 -1.2908  1.1843  1.0240
  832MOL0     C14689   4.571  11.623   6.150 -0.2745 -0.4660  1.1609
  832MOL0     C14690   4.695  11.653   6.236  0.9559 -0.4189  0.1463
  832MOL0     C14691   4.815  11.576   6.203  0.2542 -0.0898 -0.2138
  832MOL0     C14692   4.918  11.601   6.304 -0.1877  0.6881  0.6298
  832MOL0     C14693   5.030  11.487   6.312  0.2612  0.0788  0.1252
  832MOL0     C14694   5.122  11.493   6.436 -0.1897 -0.0429 -0.1241
  832MOL0     N14695   5.196  11.616   6.438 -0.6052 -0.0047  0.5371
  832MOL0     C14696   5.315  11.631   6.369 -0.3806  0.2121 -0.9011
  832MOL0     C14697   5.370  11.751   6.398  0.9477 -0.3737 -0.5154
  832MOL0     C14698   5.502  11.805   6.355  0.3371  0.2919  0.3329
  832MOL0     C14699   5.618  11.702   6.363  0.4836 -0.1496  0.7480
  832MOL0     C14700   5.752  11.771   6.326 -0.2790 -0.8770 -0.4396
  832MOL0     C14701   5.878  11.686   6.306  0.9421 -0.1813 -0.1551
  832MOL0     O14702   5.989  11.784   6.299  0.3856  0.2309 -0.2551
  832MOL0     C14703   6.117  11.737   6.333  0.6153 -1.0424  0.5878
  832MOL0     C14704   6.201  11.829   6.411 -0.1914 -0.1216  0.7587
  832MOL0     C14705   6.335  11.797   6.438 -0.2963 -0.2731  0.1566
  832MOL0     C14706   6.429  11.907   6.494  0.2739  0.8238  0.1746
  832MOL0     C14707   6.383  11.670   6.394 -0.1457  0.0827 -0.7074
  832MOL0     C14708   6.520  11.622   6.394 -0.3509 -0.7371  0.0843
  832MOL0     O14709   6.552  11.488   6.405  0.0954  0.2905  0.6843
  832MOL0     C14710   6.684  11.440   6.393 -0.1904  0.0905  0.4802
  832MOL0     C14711   6.797  11.484   6.466  0.0737  0.2665 -0.2100
  832MOL0     C14712   6.932  11.455   6.422 -0.3434 -0.1879 -1.1260
  832MOL0     C14713   6.952  11.381   6.308 -0.1604  0.1887 -0.7257
  832MOL0     O14714   7.076  11.356   6.252  0.7086  0.1088 -0.0855
  832MOL0     C14715   7.201  11.388   6.315  0.1472  0.2368 -0.1240
  832MOL0     C14716   7.316  11.300   6.258  0.0100  0.2987  0.3820
  832MOL0     C14717   7.438  11.385   6.224  0.0027 -0.1745  0.3411
  832MOL0     C14718   7.531  11.299   6.132  1.2710  0.4785 -0.8947
  832MOL0     C14719   7.493  11.320   5.986  0.2593 -0.4448  0.1353
  832MOL0     C14720   7.590  11.267   5.889  0.6242  0.1589  0.6712
  832MOL0     C14721   7.604  11.115   5.901 -0.6746  0.4727  0.0079
  832MOL0     C14722   7.474  11.030   5.923 -0.2306 -0.6265 -0.0708
  832MOL0    Cl14723   7.360  11.081   5.786 -0.4642  0.5885  0.2331
  832MOL0     C14724   6.840  11.327   6.245  0.2977  0.9043  0.2851
  832MOL0     C14725   6.708  11.361   6.286  0.1238  0.2740 -0.2467
  832MOL0     O14726   6.604  11.706   6.375 -0.5184 -0.5355  1.1856
  832MOL0     C14727   6.296  11.584   6.325 -0.6551  0.9683 -0.4209
  832MOL0     C14728   6.166  11.611   6.295 -0.1065 -0.3615  0.6355
  832MOL0     N14729   5.274  11.824   6.474  0.0189  0.0213  0.9215
  832MOL0     N14730   5.173  11.738   6.496  0.1090  0.0651 -0.0279
  832MOL0     C14731   4.020  11.620   6.328 -0.7645  0.3249  0.3994
  832MOL0     C14732   3.917  11.543   6.376  1.0924 -0.5236 -0.1021
  832MOL0     C14733   3.618  11.286   6.555 -0.3929 -1.3561 -0.2724
  832MOL0     C14734   3.634  11.254   6.689 -1.1920 -0.9519  0.0087
  832MOL0     C14735   3.524  11.189   6.750 -0.2116  0.2933  0.0726
  832MOL0     C14736   3.409  11.149   6.672 -0.4744 -0.4308  0.5060
  832MOL0     O14737   3.319  11.072   6.739  0.5937 -0.9580 -0.0715
  832MOL0     C14738   3.212  11.003   6.668  0.4536  0.1022  0.2904
  832MOL0     C14739   3.151  10.893   6.755 -0.0943  0.3785  0.0164
  832MOL0     C14740   3.083  10.956   6.876  0.8542 -0.1205 -0.1272
  832MOL0     C14741   2.999  10.846   6.940 -0.5394 -0.2832 -0.2928
  832MOL0     C14742   2.904  10.912   7.028 -0.5367  0.2056  0.3743
  832MOL0     C14743   2.831  10.942   7.117 -0.6076 -0.4655  0.5160
  832MOL0     C14744   3.397  11.195   6.544 -0.3552  0.6944 -0.2271
  832MOL0     C14745   3.494  11.268   6.489  0.3888  0.4614 -0.2817
  832MOL0     C14746   3.464  11.340   6.355 -0.0518  0.4655 -0.0302
  832MOL0     H14747   4.054  11.422   6.655  0.9394  1.0421  1.0990
  832MOL0     H14748   4.243  11.566   6.563 -0.2329  2.0021  0.8331
  832MOL0     H14749   4.328  11.537   6.237  1.6993 -0.5061 -1.2448
  832MOL0     H14750   4.413  11.588   6.377  0.8644  1.5854  0.1958
  832MOL0     H14751   4.393  11.739   6.119  0.2136 -0.2249 -0.4378
  832MOL0     H14752   4.478  11.792   6.276 -1.7937  0.9237  1.5564
  832MOL0     H14753   4.550  11.516   6.138  1.1054 -0.6947  0.6271
  832MOL0     H14754   4.592  11.671   6.054 -0.4605 -1.5629  0.5524
  832MOL0     H14755   4.711  11.761   6.235 -2.6956  0.2810 -2.2305
  832MOL0     H14756   4.671  11.624   6.339  0.5613 -3.3919 -0.6714
  832MOL0     H14757   4.855  11.618   6.110 -0.3458 -1.7741 -1.2928
  832MOL0     H14758   4.794  11.469   6.189 -0.1870  0.0069 -0.2756
  832MOL0     H14759   4.964  11.700   6.297  0.6113  0.4865  2.4192
  832MOL0     H14760   4.880  11.604   6.406  1.8708 -0.9652  1.5230
  832MOL0     H14761   5.105  11.494   6.233  2.0344  0.9882  1.7974
  832MOL0     H14762   4.993  11.386   6.291 -0.1556  0.2967 -0.1969
  832MOL0     H14763   5.064  11.487   6.529  0.6721 -0.6473  0.3918
  832MOL0     H14764   5.204  11.421   6.428  0.1274  0.3099 -0.0612
  832MOL0     H14765   5.356  11.549   6.312  0.4100 -0.2395  0.2789
  832MOL0     H14766   5.526  11.895   6.412  1.6455  0.5047 -0.5346
  832MOL0     H14767   5.488  11.839   6.252  1.7040 -0.2951 -0.0768
  832MOL0     H14768   5.624  11.650   6.459 -0.2345 -3.9668 -1.1166
  832MOL0     H14769   5.596  11.633   6.281 -0.3103  1.2052 -0.2358
  832MOL0     H14770   5.749  11.825   6.231 -1.6441 -1.9822 -1.0558
  832MOL0     H14771   5.763  11.843   6.408 -2.9491 -2.9267  1.9045
  832MOL0     H14772   5.897  11.616   6.388  1.1170 -0.4285 -0.4010
  832MOL0     H14773   5.864  11.634   6.211  0.5811 -0.1609 -0.1132
  832MOL0     H14774   6.163  11.929   6.425  1.6687  1.1896 -2.5147
  832MOL0     H14775   6.386  11.983   6.560 -1.0648 -0.5126  0.8990
  832MOL0     H14776   6.467  11.962   6.408 -0.2422 -0.5719 -0.9884
  832MOL0     H14777   6.511  11.848   6.537 -0.5957 -1.1783 -0.7894
  832MOL0     H14778   6.791  11.543   6.557  2.6176 -3.2371  2.5250
  832MOL0     H14779   7.018  11.478   6.484 -0.0075 -0.6635 -1.4089
  832MOL0     H14780   7.226  11.494   6.308  1.3941  0.0879  1.6411
  832MOL0     H14781   7.197  11.356   6.419  2.6919 -1.6898 -0.5100
  832MOL0     H14782   7.340  11.226   6.335 -0.7573  0.5952  0.9253
  832MOL0     H14783   7.281  11.252   6.166  1.8620 -0.8241  0.2173
  832MOL0     H14784   7.482  11.433   6.312 -1.2280  0.2189  0.7682
  832MOL0     H14785   7.405  11.475   6.170  1.4731  1.0389  1.3783
  832MOL0     H14786   7.524  11.194   6.161  2.3660  0.7504  0.4856
  832MOL0     H14787   7.634  11.335   6.147  2.2018 -2.1843 -0.2989
  832MOL0     H14788   7.392  11.279   5.976  0.6745 -1.3775 -0.3457
  832MOL0     H14789   7.485  11.428   5.972 -1.6642  0.2357  4.7420
  832MOL0     H14790   7.687  11.314   5.910  0.0817  0.4243  2.8002
  832MOL0     H14791   7.549  11.301   5.794 -0.7461  2.6074  2.0535
  832MOL0     H14792   7.663  11.098   5.992  2.4837  0.6823 -1.8416
  832MOL0     H14793   7.655  11.064   5.819  1.8393 -0.2578  1.8809
  832MOL0     H14794   7.431  11.061   6.019 -1.7982 -1.3596 -0.5132
  832MOL0     H14795   7.499  10.924   5.933  2.4082  0.1428  3.6462
  832MOL0     H14796   6.858  11.273   6.153 -1.9059  2.6560 -1.2750
  832MOL0     H14797   6.625  11.354   6.218  0.4326 -1.4036 -0.5037
  832MOL0     H14798   6.332  11.488   6.289 -2.2851  0.1963 -0.0945
  832MOL0     H14799   6.107  11.545   6.232 -0.8395  0.6972  0.1804
  832MOL0     H14800   4.009  11.665   6.230  0.7266 -0.4571 -0.1522
  832MOL0     H14801   3.820  11.537   6.327  1.1338 -0.1236 -0.2443
  832MOL0     H14802   3.730  11.261   6.739 -0.7221 -2.3189 -0.6353
  832MOL0     H14803   3.529  11.152   6.852  0.3200 -2.5081 -0.8740
  832MOL0     H14804   3.129  11.068   6.637 -1.2999 -2.6936 -1.3142
  832MOL0     H14805   3.251  10.972   6.570 -1.6171  0.5121 -0.7142
  832MOL0     H14806   3.222  10.818   6.789 -0.9937  0.5563  2.4403
  832MOL0     H14807   3.076  10.838   6.697  0.4251  0.9000 -1.1964
  832MOL0     H14808   3.153  11.003   6.946  1.4131  0.4604 -1.0537
  832MOL0     H14809   3.012  11.029   6.837 -0.0964 -0.3066  1.1847
  832MOL0     H14810   3.070  10.788   6.998 -0.1120  0.6998  0.1967
  832MOL0     H14811   2.939  10.782   6.875 -1.5245  0.2441  0.0718
  832MOL0     H14812   2.772  10.978   7.199  0.9909 -0.1100  1.5369
  832MOL0     H14813   3.307  11.171   6.489 -1.1553 -3.3867  2.4222
  832MOL0     H14814   3.503  11.442   6.346 -2.7524  1.4347 -1.7206
  832MOL0     H14815   3.505  11.275   6.276  0.1346  0.1349  0.3356
  832MOL0     H14816   3.357  11.354   6.341 -0.0253  2.8519  1.7050
  833MOL0     O14817   9.498   3.811   6.354 -0.3710  0.6948  0.4846
  833MOL0     C14818   9.507   3.926   6.358 -0.1075  0.1583  0.2325
  833MOL0     O14819   9.629   3.997   6.344  0.1377 -0.1562  0.0142
  833MOL0     C14820   9.734   3.928   6.282 -0.2582 -0.3987 -1.1237
  833MOL0     C14821   9.804   3.831   6.362  0.4645 -0.0818  1.0031
  833MOL0     C14822   9.901   3.759   6.291  0.5826  0.0144 -0.4114
  833MOL0     C14823   9.927   3.786   6.158 -0.6290 -0.0814 -0.2576
  833MOL0     O14824  10.018   3.705   6.096 -0.3221  0.0227  0.8878
  833MOL0     C14825   9.987   3.562   6.104  0.2360  0.2997 -1.0205
  833MOL0     C14826  10.045   3.477   5.995  0.8524  0.5935 -0.3213
  833MOL0     C14827  10.195   3.442   6.021  0.2795  0.1773 -0.1692
  833MOL0     C14828  10.228   3.340   5.915  0.7419 -0.5115  0.4622
  833MOL0     C14829  10.342   3.246   5.936 -0.4304  0.3964 -0.5262
  833MOL0     C14830  10.339   3.156   6.063  0.0261 -0.4094  1.3930
  833MOL0     C14831  10.456   3.057   6.072 -0.8136 -0.3847  0.3227
  833MOL0     C14832  10.595   3.103   6.022 -0.5462 -0.8174 -0.1491
  833MOL0     N14833  10.701   3.016   6.066 -0.9294  0.2031 -0.8840
  833MOL0     C14834  10.711   2.874   6.052 -0.1110 -0.6938  0.0738
  833MOL0     C14835  10.815   2.833   6.131 -0.4811  0.2236 -0.2108
  833MOL0     C14836  10.835   2.692   6.167  0.8420 -0.1889 -0.2066
  833MOL0     C14837  10.968   2.678   6.246 -0.2992  0.1503 -0.5381
  833MOL0     C14838  11.001   2.527   6.266  0.6086 -0.1118  0.3084
  833MOL0     C14839  11.148   2.507   6.308  0.9602  0.4392  0.0146
  833MOL0     O14840  11.169   2.370   6.350  0.5270  0.4490  0.2572
  833MOL0     C14841  11.294   2.310   6.357  0.0427  0.2962  0.4102
  833MOL0     C14842  11.316   2.174   6.344  0.0081  0.1716  0.1220
  833MOL0     C14843  11.435   2.112   6.322 -0.7097  0.1922 -0.0864
  833MOL0     C14844  11.421   1.963   6.305 -0.3079  1.0656  0.1817
  833MOL0     C14845  11.551   2.187   6.308  0.1877 -1.1689 -0.3919
  833MOL0     C14846  11.693   2.138   6.295  0.2687  0.2883 -0.3987
  833MOL0     O14847  11.795   2.224   6.319  0.3756  0.3757 -0.4472
  833MOL0     C14848  11.913   2.157   6.332 -0.4622 -0.6492 -0.2419
  833MOL0     C14849  11.971   2.089   6.223  0.4901  0.7877 -0.4677
  833MOL0     C14850  12.085   2.014   6.241 -0.5283  0.6452  0.1974
  833MOL0     C14851  12.142   1.995   6.369  0.5045  0.1131  0.7479
  833MOL0     O14852  12.250   1.925   6.397 -0.4162  0.0980  0.1197
  833MOL0     C14853  12.332   1.879   6.282  0.1950  0.2799  0.1956
  833MOL0     C14854  12.474   1.836   6.328  0.0898  0.8203  0.4351
  833MOL0     C14855  12.552   1.955   6.375 -0.5755 -0.0815 -0.7545
  833MOL0     C14856  12.693   1.912   6.412  0.0924 -0.7172  0.9622
  833MOL0     C14857  12.766   2.027   6.478 -0.2390 -0.1807 -0.4626
  833MOL0     C14858  12.806   2.138   6.372  0.2384  0.2355  0.4058
  833MOL0     C14859  12.879   2.257   6.436 -0.2618 -0.4910 -0.3298
  833MOL0     C14860  13.001   2.220   6.513 -0.0829 -0.0141  0.9594
  833MOL0    Cl14861  13.103   2.369   6.549 -0.2707 -0.2029  0.0754
  833MOL0     C14862  12.090   2.072   6.475  0.3465 -0.4767  0.6181
  833MOL0     C14863  11.980   2.156   6.458 -0.8291  0.4809  0.5992
  833MOL0     O14864  11.696   2.011   6.302  0.0256 -0.6714 -0.0817
  833MOL0     C14865  11.534   2.325   6.329  0.1322 -0.4511 -0.6463
  833MOL0     C14866  11.409   2.386   6.346  0.0809  0.1675 -0.0641
  833MOL0     N14867  10.868   2.940   6.190 -0.6613  0.4769  1.0109
  833MOL0     N14868  10.799   3.051   6.161 -0.3482  0.3341  0.3523
  833MOL0     C14869   9.860   3.881   6.091  0.7543  0.3893  0.2818
  833MOL0     C14870   9.753   3.953   6.148 -0.5391 -0.6487  0.3233
  833MOL0     C14871   9.380   3.999   6.374  0.8044 -0.6051  0.5021
  833MOL0     C14872   9.399   4.130   6.428  0.2695 -0.3555  0.5548
  833MOL0     C14873   9.302   4.223   6.469 -0.5307  0.7448 -0.7756
  833MOL0     C14874   9.180   4.176   6.464 -0.1831  0.1611  0.3486
  833MOL0     O14875   9.083   4.254   6.527 -0.4043 -0.1042 -0.3913
  833MOL0     C14876   8.965   4.292   6.461 -1.0103  0.6765 -0.1098
  833MOL0     C14877   8.964   4.445   6.419 -0.5094  0.6451  0.1539
  833MOL0     C14878   8.935   4.534   6.539 -0.0936  0.2175 -0.4719
  833MOL0     C14879   8.957   4.686   6.505 -0.1979  0.0818  0.3055
  833MOL0     C14880   8.927   4.771   6.621 -0.0035  0.2674 -0.1995
  833MOL0     C14881   8.897   4.851   6.715 -0.3185 -0.3316 -0.2213
  833MOL0     C14882   9.147   4.042   6.412  0.4488 -0.2870 -0.4831
  833MOL0     C14883   9.250   3.959   6.367  0.6312  0.4892 -0.2834
  833MOL0     C14884   9.210   3.819   6.318  0.0853  0.1233  0.6070
  833MOL0     H14885   9.786   3.816   6.468  2.0386  0.5787  1.3941
  833MOL0     H14886   9.957   3.677   6.335  0.0003  0.2994  0.8885
  833MOL0     H14887   9.878   3.566   6.093 -0.3648  0.3531  3.1861
  833MOL0     H14888  10.021   3.525   6.201  2.1163  0.5323 -1.5536
  833MOL0     H14889   9.979   3.390   5.997  1.3138  0.1453  3.7763
  833MOL0     H14890  10.034   3.528   5.898 -2.7582 -0.3218 -0.5407
  833MOL0     H14891  10.247   3.538   6.012 -0.6147  0.8105  1.0761
  833MOL0     H14892  10.196   3.394   6.119 -1.2784 -3.0871 -1.5987
  833MOL0     H14893  10.145   3.276   5.884  2.1969 -1.5059 -1.5704
  833MOL0     H14894  10.255   3.396   5.825 -0.4063 -1.8361 -0.7416
  833MOL0     H14895  10.433   3.306   5.950 -0.5703  0.7147 -0.9564
  833MOL0     H14896  10.356   3.181   5.849 -1.8039 -1.6364  0.7105
  833MOL0     H14897  10.337   3.216   6.154 -1.4137  0.1539  1.0127
  833MOL0     H14898  10.246   3.098   6.060  1.5427 -2.9423 -0.0458
  833MOL0     H14899  10.436   2.970   6.008  0.3033 -0.4246  0.0114
  833MOL0     H14900  10.476   3.018   6.173 -0.1453  1.6337  1.0164
  833MOL0     H14901  10.595   3.104   5.913 -0.1695 -1.6705 -0.1632
  833MOL0     H14902  10.603   3.206   6.057 -1.0970 -1.7129  2.9297
  833MOL0     H14903  10.654   2.803   5.993 -3.1235  0.2938  1.6176
  833MOL0     H14904  10.825   2.627   6.080  0.4087 -1.5921  0.8594
  833MOL0     H14905  10.757   2.670   6.240 -0.6256  2.4695 -0.8354
  833MOL0     H14906  11.041   2.723   6.178 -0.1228  0.8211  0.0700
  833MOL0     H14907  10.980   2.740   6.336 -1.0372  0.3712 -0.5819
  833MOL0     H14908  10.931   2.488   6.341  1.8978  0.7554  2.0211
  833MOL0     H14909  10.988   2.459   6.182  1.8736 -2.1594  1.6910
  833MOL0     H14910  11.209   2.537   6.222  1.1532 -0.9693 -0.3570
  833MOL0     H14911  11.184   2.570   6.390  1.0949 -0.9617  1.0664
  833MOL0     H14912  11.230   2.109   6.333  0.3483 -0.3662  0.5730
  833MOL0     H14913  11.461   1.924   6.212 -0.0494 -2.7875  1.7104
  833MOL0     H14914  11.319   1.922   6.311  0.5145 -0.9202  2.4870
  833MOL0     H14915  11.468   1.906   6.386 -1.0747  1.1426  0.6965
  833MOL0     H14916  11.933   2.099   6.122  3.0569  1.3776 -1.4720
  833MOL0     H14917  12.148   1.985   6.157  0.5684  2.0314  0.5028
  833MOL0     H14918  12.282   1.795   6.232 -0.4675 -0.5974  2.2105
  833MOL0     H14919  12.345   1.954   6.203 -1.8815  0.5252  0.0068
  833MOL0     H14920  12.466   1.755   6.402 -1.2185 -0.8945 -1.4771
  833MOL0     H14921  12.525   1.789   6.243 -0.2680 -2.0846  1.7011
  833MOL0     H14922  12.499   2.002   6.459 -0.5010  0.3340 -0.9403
  833MOL0     H14923  12.554   2.032   6.297  0.6843  1.8898  1.1066
  833MOL0     H14924  12.743   1.889   6.318  1.3136  2.3221  0.7276
  833MOL0     H14925  12.689   1.828   6.481 -1.5252 -1.2974  0.1944
  833MOL0     H14926  12.706   2.053   6.566  1.2081 -1.1910  0.8811
  833MOL0     H14927  12.861   1.992   6.518 -0.2981  2.2568  2.1282
  833MOL0     H14928  12.711   2.155   6.321 -0.5220 -2.5987  0.6797
  833MOL0     H14929  12.878   2.110   6.295 -1.1537  1.6835 -1.5138
  833MOL0     H14930  12.815   2.324   6.494 -0.8219 -0.1829 -1.2692
  833MOL0     H14931  12.916   2.317   6.351  1.2805 -1.0757 -0.1127
  833MOL0     H14932  13.055   2.158   6.441 -0.8338 -0.1861  0.5304
  833MOL0     H14933  12.965   2.166   6.601 -2.8242  1.4432  0.8744
  833MOL0     H14934  12.139   2.080   6.571  1.8907 -0.0875 -0.1784
  833MOL0     H14935  11.950   2.209   6.548  1.5574 -0.2344  1.9121
  833MOL0     H14936  11.620   2.391   6.340 -0.5845  0.5700 -1.1003
  833MOL0     H14937  11.413   2.491   6.375 -0.8660 -0.5395  3.0251
  833MOL0     H14938   9.893   3.893   5.988 -0.6471  0.5601 -0.1706
  833MOL0     H14939   9.709   4.043   6.106 -0.1530 -0.8986 -0.6421
  833MOL0     H14940   9.501   4.167   6.426  0.2882 -0.4330 -0.0654
  833MOL0     H14941   9.328   4.320   6.510  1.7592 -0.9555  2.2152
  833MOL0     H14942   8.946   4.241   6.366  1.1215 -1.2472  0.4058
  833MOL0     H14943   8.874   4.274   6.518  1.7020 -0.9676  4.1035
  833MOL0     H14944   8.886   4.458   6.343  1.2576  1.3999 -1.6540
  833MOL0     H14945   9.061   4.464   6.371  0.9133 -1.1212  2.1354
  833MOL0     H14946   8.830   4.514   6.563 -1.2883  1.6709 -3.8329
  833MOL0     H14947   9.000   4.509   6.623  0.5876  2.8616 -0.1232
  833MOL0     H14948   8.903   4.712   6.414  4.1241 -0.2097 -2.6043
  833MOL0     H14949   9.061   4.704   6.477  0.1908 -0.1460  1.5366
  833MOL0     H14950   8.869   4.923   6.790 -1.5046  1.4401 -2.2395
  833MOL0     H14951   9.041   4.015   6.414  0.8071 -1.9076 -1.6776
  833MOL0     H14952   9.102   3.805   6.327 -0.1321 -1.5750 -2.9963
  833MOL0     H14953   9.236   3.801   6.213 -0.7901 -0.3956  0.4685
  833MOL0     H14954   9.252   3.744   6.387 -1.9519 -0.0765  1.7017
  834MOL0     O14955   5.324  10.023   8.651  0.5165 -0.7021 -0.4782
  834MOL0     C14956   5.268  10.026   8.764 -0.4344  0.1666  0.5358
  834MOL0     O14957   5.333  10.004   8.888  0.6796  0.0369 -0.3868
  834MOL0     C14958   5.468  10.009   8.878 -0.6149 -0.0619  0.4110
  834MOL0     C14959   5.552  10.119   8.897 -0.3498 -0.7631 -0.3359
  834MOL0     C14960   5.687  10.117   8.891 -0.7990 -0.3933 -1.1064
  834MOL0     C14961   5.739   9.996   8.841  0.0017 -0.7033 -0.0086
  834MOL0     O14962   5.871   9.978   8.839 -0.8654  0.8058  0.3398
  834MOL0     C14963   5.961  10.062   8.907  0.3176  0.2565 -0.0701
  834MOL0     C14964   6.087   9.985   8.927 -0.0883  0.1596 -0.1568
  834MOL0     C14965   6.182  10.060   9.019  0.6253  0.7753  0.0160
  834MOL0     C14966   6.303   9.981   9.056 -0.0038 -0.4945 -0.0219
  834MOL0     C14967   6.411  10.065   9.126 -0.4913 -0.4874  0.5712
  834MOL0     C14968   6.475  10.167   9.025 -0.1149  0.1126 -0.0709
  834MOL0     C14969   6.583  10.243   9.097 -0.3225 -0.1091  0.7454
  834MOL0     C14970   6.621  10.379   9.025 -0.3592  0.1383 -0.3292
  834MOL0     N14971   6.669  10.360   8.886 -0.2537 -0.5012  0.3225
  834MOL0     C14972   6.800  10.347   8.857 -0.3498  0.1915  0.7318
  834MOL0     C14973   6.800  10.335   8.721 -0.0412  0.6292 -0.3756
  834MOL0     C14974   6.935  10.333   8.655 -1.1100  0.2315 -0.4597
  834MOL0     C14975   7.022  10.216   8.702 -0.8449 -1.3980 -0.2208
  834MOL0     C14976   7.152  10.205   8.619 -0.4505  0.6291 -0.0268
  834MOL0     C14977   7.235  10.073   8.641  0.1713  0.7784 -1.1260
  834MOL0     O14978   7.283  10.077   8.786  0.0467  0.6147 -0.4912
  834MOL0     C14979   7.403  10.017   8.823  1.7602  0.2164  0.7447
  834MOL0     C14980   7.428   9.891   8.756 -1.0452  0.8784  0.0298
  834MOL0     C14981   7.542   9.809   8.799 -0.7563  0.1180  0.0900
  834MOL0     C14982   7.562   9.682   8.714 -0.2278  0.6218  0.5011
  834MOL0     C14983   7.624   9.861   8.897  0.1311 -0.2048 -0.1332
  834MOL0     C14984   7.744   9.787   8.956 -0.0245 -0.3750 -0.9617
  834MOL0     O14985   7.802   9.862   9.053 -0.0931 -0.0931  0.0048
  834MOL0     C14986   7.920   9.826   9.112  0.4563 -0.1934  0.4325
  834MOL0     C14987   7.981   9.700   9.120 -0.9018  0.2065 -0.0950
  834MOL0     C14988   8.100   9.685   9.181 -1.4409  0.2527  0.0778
  834MOL0     C14989   8.167   9.788   9.247 -0.4403 -0.4755  0.1717
  834MOL0     O14990   8.279   9.766   9.317  0.1225  0.0036  0.0077
  834MOL0     C14991   8.400   9.829   9.273 -0.4357 -0.2680 -0.0751
  834MOL0     C14992   8.523   9.733   9.305  0.6689  1.0636  0.1778
  834MOL0     C14993   8.535   9.687   9.453 -0.3038 -0.0680  0.1346
  834MOL0     C14994   8.588   9.799   9.537 -0.2595  0.1923 -0.0739
  834MOL0     C14995   8.622   9.759   9.676  0.2965 -0.4041 -0.3096
  834MOL0     C14996   8.744   9.671   9.697  0.0994  0.4921 -0.0575
  834MOL0     C14997   8.873   9.744   9.675  0.0623 -0.1650 -0.2200
  834MOL0     C14998   8.993   9.695   9.751  0.6854  0.0373  0.0002
  834MOL0    Cl14999   9.151   9.726   9.678  0.2675  0.0654 -0.1463
  834MOL0     C15000   8.110   9.915   9.240  0.0832 -0.8321  0.3044
  834MOL0     C15001   7.990   9.931   9.168  0.3638  0.6654 -0.2182
  834MOL0     O15002   7.774   9.673   8.922 -0.0739  0.1742  0.2838
  834MOL0     C15003   7.584   9.983   8.962 -1.0191  0.1154  0.2723
  834MOL0     C15004   7.480  10.067   8.923 -0.4295  0.1591 -0.1074
  834MOL0     N15005   6.672  10.345   8.669  0.1391 -0.3741  0.2257
  834MOL0     N15006   6.599  10.368   8.770  0.0186  0.2167  0.1468
  834MOL0     C15007   5.663   9.889   8.814  0.2044 -0.0723 -0.6607
  834MOL0     C15008   5.521   9.887   8.832  0.2159  0.1729 -0.5145
  834MOL0     C15009   5.123  10.041   8.776 -0.9503  0.4093  0.0863
  834MOL0     C15010   5.056  10.019   8.902 -0.1332  0.6995  0.7972
  834MOL0     C15011   4.916  10.026   8.915  0.1443  0.4014  0.3864
  834MOL0     C15012   4.834  10.052   8.801  0.8168 -0.0756  0.2789
  834MOL0     O15013   4.701  10.063   8.829  0.6611 -0.1556 -0.2688
  834MOL0     C15014   4.607  10.046   8.722  0.1249  0.7504  0.7017
  834MOL0     C15015   4.471  10.003   8.765  0.4819 -0.0607  0.4951
  834MOL0     C15016   4.367   9.986   8.646 -0.3109 -0.0414 -0.0928
  834MOL0     C15017   4.225   9.946   8.690  0.0877 -0.4358 -0.4773
  834MOL0     C15018   4.124   9.950   8.584 -0.3140  0.0075 -0.3303
  834MOL0     C15019   4.042   9.950   8.493  0.5484  0.6029 -0.2282
  834MOL0     C15020   4.893  10.067   8.674 -1.0593 -0.5769  0.4593
  834MOL0     C15021   5.038  10.066   8.662 -0.2884  0.0539 -0.5005
  834MOL0     C15022   5.083  10.098   8.522 -0.0939 -0.8672 -0.3154
  834MOL0     H15023   5.502  10.197   8.953  0.9105 -1.5119  1.9221
  834MOL0     H15024   5.746  10.196   8.936 -0.2530  0.3628 -3.0504
  834MOL0     H15025   5.920  10.072   9.009  1.8481 -1.1802  0.7240
  834MOL0     H15026   5.984  10.159   8.863  0.5498  1.2661  2.0988
  834MOL0     H15027   6.060   9.892   8.978  0.6175 -0.8994 -1.6405
  834MOL0     H15028   6.132   9.955   8.832 -1.7201 -1.7207 -0.3929
  834MOL0     H15029   6.209  10.148   8.960 -0.9598  2.6919  1.9869
  834MOL0     H15030   6.130  10.093   9.109 -3.1681 -1.0797 -1.2842
  834MOL0     H15031   6.269   9.895   9.115  0.5365 -0.3373  0.5220
  834MOL0     H15032   6.337   9.932   8.964  3.3700  0.5266  0.5308
  834MOL0     H15033   6.494   9.995   9.138 -0.3164 -0.7209 -1.6262
  834MOL0     H15034   6.385  10.117   9.219 -0.5931  0.8583 -0.1810
  834MOL0     H15035   6.521  10.121   8.937  0.0666  1.6889 -0.8313
  834MOL0     H15036   6.393  10.232   8.995 -0.4642 -0.6231 -0.7501
  834MOL0     H15037   6.670  10.180   9.113  0.7146  0.7352 -1.2996
  834MOL0     H15038   6.547  10.282   9.193  1.9787  1.1434  1.1575
  834MOL0     H15039   6.533  10.444   9.028  0.0477  0.6889  0.1805
  834MOL0     H15040   6.697  10.429   9.087 -0.3999 -0.1383 -0.0557
  834MOL0     H15041   6.876  10.341   8.934  1.6320 -1.3532 -1.2192
  834MOL0     H15042   6.991  10.425   8.672 -3.0707  1.4023  0.0269
  834MOL0     H15043   6.924  10.312   8.548 -0.1985 -0.2881 -0.4657
  834MOL0     H15044   7.042  10.226   8.810  0.3186  1.1128 -0.5948
  834MOL0     H15045   6.969  10.122   8.687 -2.8697 -0.7984  2.3521
  834MOL0     H15046   7.124  10.180   8.516  0.2408 -1.7283  0.3044
  834MOL0     H15047   7.231  10.280   8.627 -0.1226  0.1478  1.7101
  834MOL0     H15048   7.168   9.989   8.623 -1.9472  1.2772  3.3214
  834MOL0     H15049   7.320  10.066   8.572  0.3960 -1.8603 -0.6593
  834MOL0     H15050   7.363   9.857   8.677  0.7312 -0.1839 -1.0572
  834MOL0     H15051   7.535   9.698   8.609  0.1730  0.8742  0.4339
  834MOL0     H15052   7.511   9.602   8.768  0.3176 -0.2987 -0.2979
  834MOL0     H15053   7.669   9.658   8.712 -0.8002 -2.1529 -0.8565
  834MOL0     H15054   7.932   9.614   9.076  0.9245 -2.1929  2.1734
  834MOL0     H15055   8.135   9.583   9.194 -1.7678  0.2913  1.3754
  834MOL0     H15056   8.406   9.841   9.165  3.0092  1.0074  0.1281
  834MOL0     H15057   8.408   9.923   9.328  0.2421  0.4461 -1.3540
  834MOL0     H15058   8.504   9.643   9.246 -0.1168  0.1045  1.8338
  834MOL0     H15059   8.616   9.775   9.265  1.9217 -0.0806  1.7151
  834MOL0     H15060   8.608   9.605   9.461  0.1373  0.4800  2.8200
  834MOL0     H15061   8.444   9.635   9.484 -0.8906  0.7413 -0.1881
  834MOL0     H15062   8.513   9.878   9.535 -3.0043 -2.2344  0.5324
  834MOL0     H15063   8.680   9.830   9.487 -0.6385  1.5659  0.0605
  834MOL0     H15064   8.641   9.852   9.730 -1.2923 -0.6455  0.7206
  834MOL0     H15065   8.527   9.719   9.711  0.9604 -1.6920  0.0950
  834MOL0     H15066   8.747   9.581   9.635 -0.7426 -1.3445  2.4059
  834MOL0     H15067   8.742   9.629   9.798  0.1796 -1.3871 -0.8080
  834MOL0     H15068   8.865   9.852   9.691 -0.2911 -0.6496  3.9217
  834MOL0     H15069   8.887   9.741   9.566 -2.2958  4.1135 -0.9008
  834MOL0     H15070   8.978   9.587   9.760 -0.2939 -0.0159 -1.8496
  834MOL0     H15071   8.991   9.747   9.847 -0.4341 -0.0500  0.0298
  834MOL0     H15072   8.150   9.996   9.300  1.6838 -2.3527  1.3955
  834MOL0     H15073   7.956  10.033   9.159  0.6985  0.6786 -1.7477
  834MOL0     H15074   7.648  10.017   9.043 -0.5745 -2.4441  1.1021
  834MOL0     H15075   7.453  10.150   8.986  0.4596 -0.8351  1.6657
  834MOL0     H15076   5.709   9.794   8.789  1.3252 -0.7724  3.4528
  834MOL0     H15077   5.450   9.810   8.804  2.1016 -2.0164  0.4229
  834MOL0     H15078   5.113  10.004   8.993  0.1918  0.8949  0.6252
  834MOL0     H15079   4.866   9.987   9.004 -1.1374  1.2520  0.0659
  834MOL0     H15080   4.601  10.140   8.666 -1.9674 -1.0009 -2.2813
  834MOL0     H15081   4.640   9.978   8.644 -1.0917  1.6427 -0.6443
  834MOL0     H15082   4.433  10.060   8.850  0.6230 -0.9389  1.1617
  834MOL0     H15083   4.487   9.903   8.806 -3.3356 -0.1651  2.1957
  834MOL0     H15084   4.357  10.083   8.596 -3.9228  0.0747  0.5705
  834MOL0     H15085   4.410   9.916   8.574  0.5809 -0.4450  0.8006
  834MOL0     H15086   4.197  10.008   8.776  1.1364 -0.7948  0.1417
  834MOL0     H15087   4.241   9.842   8.718 -1.3589 -0.7320 -0.6690
  834MOL0     H15088   3.980   9.958   8.406  1.7858  0.6346 -1.1412
  834MOL0     H15089   4.837  10.076   8.581 -0.6062  4.7837  0.3537
  834MOL0     H15090   5.000  10.151   8.475 -3.1123 -1.5662  3.6767
  834MOL0     H15091   5.169  10.165   8.528 -1.3566  1.0567 -2.3441
  834MOL0     H15092   5.119  10.016   8.460 -1.2559 -0.2199 -1.9117
  835MOL0     O15093   0.991   1.950   6.962  0.3121  0.1094  0.4348
  835MOL0     C15094   0.973   2.058   7.010  0.0344 -0.4852 -0.4631
  835MOL0     O15095   1.070   2.135   7.051 -0.0380 -0.2065 -0.8236
  835MOL0     C15096   1.201   2.098   7.021 -0.1325 -0.4164  0.0043
  835MOL0     C15097   1.254   2.124   6.892  0.0563  0.2437  0.7135
  835MOL0     C15098   1.388   2.088   6.865  0.0292 -0.5254  0.1209
  835MOL0     C15099   1.479   2.053   6.967 -0.3025  0.5525  0.7337
  835MOL0     O15100   1.609   2.010   6.932 -0.3740  0.1400 -0.0456
  835MOL0     C15101   1.712   2.074   7.011  0.3560  0.0375  0.1481
  835MOL0     C15102   1.790   2.168   6.919  0.1673  0.3083 -0.3447
  835MOL0     C15103   1.858   2.099   6.795  0.7751  0.0503 -0.3768
  835MOL0     C15104   1.961   2.195   6.726  0.4110 -1.3546 -0.3680
  835MOL0     C15105   2.013   2.136   6.600  1.0317  1.1502 -0.0412
  835MOL0     C15106   2.136   2.214   6.562 -0.1322  0.4717 -0.7450
  835MOL0     C15107   2.202   2.172   6.437 -0.3440  0.7232 -0.2629
  835MOL0     C15108   2.305   2.264   6.384 -0.6259  0.3934 -0.0039
  835MOL0     N15109   2.421   2.285   6.475 -0.4200  0.0975  1.1347
  835MOL0     C15110   2.441   2.380   6.569 -0.2401 -0.7192 -0.2300
  835MOL0     C15111   2.562   2.361   6.628  0.8290  0.5411 -1.1372
  835MOL0     C15112   2.609   2.429   6.751  0.2265  0.0470 -0.2755
  835MOL0     C15113   2.750   2.385   6.794  0.2234  0.3512  0.2049
  835MOL0     C15114   2.784   2.457   6.920  0.6923 -0.6790 -0.7727
  835MOL0     C15115   2.920   2.513   6.920  0.2118 -0.8523 -0.7107
  835MOL0     O15116   3.012   2.405   6.872 -0.5210 -0.5838 -0.7210
  835MOL0     C15117   3.147   2.437   6.861 -0.2753 -0.0504  0.0612
  835MOL0     C15118   3.207   2.563   6.875  0.8812 -0.2433  0.5490
  835MOL0     C15119   3.349   2.577   6.874  0.0133  0.2525  0.9105
  835MOL0     C15120   3.379   2.727   6.878  0.5956 -0.0751  0.6886
  835MOL0     C15121   3.438   2.464   6.862 -0.0375 -0.1893  0.0513
  835MOL0     C15122   3.585   2.475   6.868  0.4760 -0.5494 -1.2229
  835MOL0     O15123   3.662   2.381   6.813 -0.3549 -0.2871 -0.2300
  835MOL0     C15124   3.796   2.414   6.801  0.7966 -0.4191  1.0494
  835MOL0     C15125   3.845   2.495   6.697  0.7402 -0.3596  0.0348
  835MOL0     C15126   3.978   2.525   6.679 -0.6028 -0.0252 -0.6853
  835MOL0     C15127   4.072   2.490   6.776 -0.9117 -0.3282 -0.2631
  835MOL0     O15128   4.199   2.537   6.761 -0.4747  0.1485  0.0042
  835MOL0     C15129   4.321   2.455   6.781  0.5038 -0.4317 -0.7805
  835MOL0     C15130   4.431   2.533   6.864  0.6541 -0.6105  0.9321
  835MOL0     C15131   4.559   2.464   6.903 -0.0847  0.1310  0.6101
  835MOL0     C15132   4.636   2.432   6.774 -0.1895  0.0885  0.3089
  835MOL0     C15133   4.752   2.332   6.798  0.0207 -0.4064  0.9981
  835MOL0     C15134   4.851   2.317   6.670  0.0270  0.0158 -0.2459
  835MOL0     C15135   4.923   2.187   6.676  0.4084 -0.4526 -0.9984
  835MOL0     C15136   5.048   2.187   6.584 -0.3638 -0.4973  0.8878
  835MOL0    Cl15137   5.137   2.029   6.589  0.3149 -0.2415 -0.2857
  835MOL0     C15138   4.029   2.404   6.877  0.2249 -0.4660  0.1787
  835MOL0     C15139   3.891   2.366   6.886  0.5744  0.3402 -0.1192
  835MOL0     O15140   3.630   2.577   6.921  0.8058  0.7820 -0.6582
  835MOL0     C15141   3.374   2.340   6.833  0.3401  0.7639  0.3053
  835MOL0     C15142   3.232   2.329   6.834  0.3084  0.1438 -0.3809
  835MOL0     N15143   2.618   2.257   6.561  0.0479  0.7903 -0.6158
  835MOL0     N15144   2.532   2.204   6.483 -0.4832  1.1571  0.3026
  835MOL0     C15145   1.425   2.038   7.094 -0.2689 -0.1721 -1.1630
  835MOL0     C15146   1.296   2.064   7.120 -0.7845 -1.5236 -0.0922
  835MOL0     C15147   0.834   2.092   7.043  0.8794  0.1632 -0.4573
  835MOL0     C15148   0.731   2.040   6.957 -0.1798  1.3588  0.8594
  835MOL0     C15149   0.596   2.082   6.977  0.3804 -0.1202 -0.8267
  835MOL0     C15150   0.554   2.164   7.083  0.3201 -0.2836  0.2553
  835MOL0     O15151   0.420   2.187   7.102 -0.0792 -0.4416 -1.0139
  835MOL0     C15152   0.379   2.296   7.188  0.5483  0.4676 -0.7635
  835MOL0     C15153   0.227   2.327   7.179 -0.2873 -0.6080 -0.2863
  835MOL0     C15154   0.143   2.196   7.213 -1.2971 -1.7497  0.5130
  835MOL0     C15155  -0.006   2.233   7.222 -0.4723  0.2005 -0.1378
  835MOL0     C15156  -0.056   2.220   7.087 -0.4008  0.1356  1.5496
  835MOL0     C15157  -0.089   2.202   6.968 -0.9197  0.7266  0.0667
  835MOL0     C15158   0.647   2.198   7.175 -0.2613  0.5458 -0.0665
  835MOL0     C15159   0.789   2.169   7.160 -0.2722 -0.1338  0.0660
  835MOL0     C15160   0.888   2.219   7.256  0.1978 -1.2215 -0.3959
  835MOL0     H15161   1.198   2.158   6.805 -0.9285  1.9194  1.9352
  835MOL0     H15162   1.411   2.081   6.759 -0.0358 -1.9928  0.1854
  835MOL0     H15163   1.777   2.002   7.061 -3.0682 -1.1080  3.4028
  835MOL0     H15164   1.664   2.135   7.087  1.7918  3.4466 -1.4519
  835MOL0     H15165   1.735   2.258   6.893 -1.1524 -0.5556 -0.6193
  835MOL0     H15166   1.875   2.192   6.984 -0.4325 -1.0942  1.0084
  835MOL0     H15167   1.905   2.006   6.831 -2.4248 -1.4873  0.1774
  835MOL0     H15168   1.779   2.075   6.724 -0.8371 -2.3543  2.0270
  835MOL0     H15169   1.916   2.293   6.712  2.7546 -0.2813 -0.7343
  835MOL0     H15170   2.045   2.201   6.795 -1.5345  1.9968  1.9742
  835MOL0     H15171   1.937   2.149   6.523 -1.3528 -1.1472  1.7691
  835MOL0     H15172   2.036   2.030   6.614 -1.7182  0.6289  1.0289
  835MOL0     H15173   2.106   2.319   6.553 -1.6359 -0.0032 -1.6948
  835MOL0     H15174   2.211   2.210   6.641 -0.5852 -0.7580 -0.3629
  835MOL0     H15175   2.125   2.154   6.361  0.2076 -1.0146 -0.4566
  835MOL0     H15176   2.249   2.073   6.447  1.3983  1.1566 -2.9151
  835MOL0     H15177   2.337   2.228   6.286  0.0905  0.1813  0.2978
  835MOL0     H15178   2.258   2.360   6.362  0.2100  0.4186 -1.8329
  835MOL0     H15179   2.364   2.452   6.597 -0.5019 -1.0046 -0.2121
  835MOL0     H15180   2.534   2.403   6.826  2.0510 -0.6157  1.3972
  835MOL0     H15181   2.605   2.538   6.742 -0.0161  0.1998  1.4528
  835MOL0     H15182   2.749   2.276   6.802 -3.3951  0.1821 -0.8454
  835MOL0     H15183   2.805   2.416   6.705  0.2101  1.4490  0.5672
  835MOL0     H15184   2.711   2.531   6.954 -0.6062 -2.3454  0.2061
  835MOL0     H15185   2.784   2.394   7.010 -2.7067  0.6555  0.3339
  835MOL0     H15186   2.934   2.605   6.862  0.7713 -0.0562  0.6637
  835MOL0     H15187   2.943   2.535   7.024 -2.9002 -1.5366  0.2280
  835MOL0     H15188   3.149   2.651   6.903  0.6583 -0.5377  1.0267
  835MOL0     H15189   3.314   2.771   6.801  2.5259 -1.2013 -1.7462
  835MOL0     H15190   3.480   2.758   6.848 -0.6111 -0.6025 -5.0859
  835MOL0     H15191   3.339   2.765   6.972  1.1190 -0.5574  1.1119
  835MOL0     H15192   3.777   2.541   6.626  1.6860  1.7181  0.4051
  835MOL0     H15193   4.019   2.580   6.595 -1.1912 -2.8624 -2.9911
  835MOL0     H15194   4.292   2.369   6.841 -3.5832  1.6863  0.6910
  835MOL0     H15195   4.358   2.431   6.681  0.4471  0.2328 -0.9662
  835MOL0     H15196   4.464   2.610   6.794 -2.7287  0.1563 -0.0045
  835MOL0     H15197   4.384   2.583   6.950  1.4877  2.3727 -0.2194
  835MOL0     H15198   4.539   2.371   6.958  0.4847  0.1010  0.7734
  835MOL0     H15199   4.609   2.540   6.962  2.5610  2.6541 -4.2539
  835MOL0     H15200   4.654   2.525   6.720  0.5973 -0.8474 -1.0961
  835MOL0     H15201   4.568   2.370   6.715  0.3619  1.4771 -1.8716
  835MOL0     H15202   4.820   2.366   6.877  3.1812  1.4376 -2.1675
  835MOL0     H15203   4.710   2.237   6.830  1.5916 -1.4111  0.1820
  835MOL0     H15204   4.910   2.409   6.668  0.1263  0.0805  2.4096
  835MOL0     H15205   4.799   2.314   6.574  1.3793 -3.3766 -0.9986
  835MOL0     H15206   4.856   2.102   6.663  1.5758 -1.7259  0.8398
  835MOL0     H15207   4.955   2.164   6.778 -2.4005 -4.4646 -0.7985
  835MOL0     H15208   5.120   2.263   6.614  0.9145 -0.9937 -0.7803
  835MOL0     H15209   5.014   2.213   6.483  0.9632  0.1309  0.5890
  835MOL0     H15210   4.081   2.378   6.968  0.0873  2.3503  1.1416
  835MOL0     H15211   3.850   2.332   6.981  0.2270  0.1896 -0.3212
  835MOL0     H15212   3.436   2.251   6.823  1.0792  1.3075 -0.0160
  835MOL0     H15213   3.176   2.238   6.816  1.5214 -0.1576 -3.1856
  835MOL0     H15214   1.483   2.006   7.180  1.3312  2.3152 -1.1842
  835MOL0     H15215   1.268   2.054   7.225 -1.8246  2.0752  0.1032
  835MOL0     H15216   0.772   1.975   6.881  2.9682  3.2114  0.7723
  835MOL0     H15217   0.523   2.043   6.907  0.4247 -0.8764 -0.4529
  835MOL0     H15218   0.407   2.274   7.291  2.3924  3.5147 -0.5213
  835MOL0     H15219   0.427   2.391   7.166  0.1057  0.9170  0.1703
  835MOL0     H15220   0.208   2.349   7.073 -1.3025 -2.0591 -0.4396
  835MOL0     H15221   0.197   2.412   7.240 -2.7040  0.4550 -2.7338
  835MOL0     H15222   0.151   2.123   7.132  0.6597  2.1910 -3.2544
  835MOL0     H15223   0.180   2.160   7.310  2.7970 -0.5437 -0.3992
  835MOL0     H15224  -0.022   2.334   7.262  0.9065  0.1997  0.4838
  835MOL0     H15225  -0.058   2.165   7.291 -0.2821  1.4782  1.3352
  835MOL0     H15226  -0.126   2.173   6.872  0.0772 -1.4082  0.2830
  835MOL0     H15227   0.622   2.245   7.270  2.0900  3.7501 -0.8721
  835MOL0     H15228   0.836   2.249   7.348 -0.9120 -2.1857 -0.6980
  835MOL0     H15229   0.957   2.140   7.289 -0.7646 -1.6454  0.6819
  835MOL0     H15230   0.955   2.301   7.228 -0.2427 -0.6540  0.1786
  836MOL0     O15231   9.735   1.418   3.101 -0.1977  0.5446  0.0272
  836MOL0     C15232   9.704   1.331   3.013 -0.3555  0.4091  0.8026
  836MOL0     O15233   9.797   1.265   2.928 -0.1289  0.4305 -1.0134
  836MOL0     C15234   9.932   1.296   2.941  0.2476  0.4646  1.1647
  836MOL0     C15235  10.012   1.260   3.055  0.2566 -0.7715 -0.1510
  836MOL0     C15236  10.154   1.281   3.049 -0.6354 -0.6309 -0.0024
  836MOL0     C15237  10.216   1.341   2.939 -0.8190 -0.4860 -0.3401
  836MOL0     O15238  10.353   1.363   2.939  0.0155  0.1638  0.1997
  836MOL0     C15239  10.424   1.378   2.815  0.9156 -0.2580 -0.1202
  836MOL0     C15240  10.575   1.377   2.839  0.0130 -0.0370 -0.5738
  836MOL0     C15241  10.626   1.231   2.879  0.2308 -0.1783  0.2317
  836MOL0     C15242  10.777   1.243   2.892 -0.5297  0.3161 -0.0398
  836MOL0     C15243  10.838   1.110   2.935  0.4884  0.6615 -0.3957
  836MOL0     C15244  10.990   1.128   2.972 -0.5030 -0.4424  0.2957
  836MOL0     C15245  11.064   1.013   3.038 -0.6748  0.1188 -0.1549
  836MOL0     C15246  10.997   0.936   3.149 -0.2266 -0.0736  0.6565
  836MOL0     N15247  11.094   0.839   3.202  0.0737 -0.0585  0.6310
  836MOL0     C15248  11.188   0.853   3.303  0.5534 -0.4851 -0.2518
  836MOL0     C15249  11.234   0.733   3.325  0.5863  0.9035  0.5971
  836MOL0     C15250  11.354   0.693   3.408 -0.9935  0.2967  1.4605
  836MOL0     C15251  11.367   0.765   3.544 -0.0092  0.5436  0.0505
  836MOL0     C15252  11.478   0.881   3.544  0.6726  0.1184  0.1641
  836MOL0     C15253  11.577   0.861   3.659  0.1670  0.7047 -0.1784
  836MOL0     O15254  11.692   0.951   3.642  0.3785  0.0599  0.7863
  836MOL0     C15255  11.799   0.940   3.722  0.2652 -0.8736 -0.6044
  836MOL0     C15256  11.900   1.023   3.691 -0.3826 -0.5406 -0.0844
  836MOL0     C15257  12.023   1.034   3.758 -0.4023  0.3894 -0.4155
  836MOL0     C15258  12.129   1.129   3.703  0.0299  0.2271  0.6788
  836MOL0     C15259  12.042   0.949   3.872 -0.2996 -0.8403 -0.0402
  836MOL0     C15260  12.169   0.943   3.952  0.0632  0.8088 -0.2260
  836MOL0     O15261  12.163   0.867   4.069 -0.1115 -0.7270  0.3511
  836MOL0     C15262  12.286   0.853   4.129 -0.0772  0.0249 -0.0508
  836MOL0     C15263  12.341   0.956   4.212  0.0069 -0.6177 -0.0087
  836MOL0     C15264  12.467   0.940   4.270 -0.0542  0.0371  0.3250
  836MOL0     C15265  12.533   0.816   4.266  0.0034  0.3207 -0.0820
  836MOL0     O15266  12.652   0.804   4.332 -1.3190 -0.0024  0.1161
  836MOL0     C15267  12.645   0.852   4.474 -1.3359  0.5461 -0.0466
  836MOL0     C15268  12.764   0.802   4.564  0.0881  0.3381  0.5517
  836MOL0     C15269  12.901   0.850   4.512 -0.5194  0.6139 -0.3440
  836MOL0     C15270  12.979   0.744   4.429  0.0702 -0.7819  0.3503
  836MOL0     C15271  13.071   0.823   4.339 -0.3275  0.6185  0.3855
  836MOL0     C15272  13.175   0.740   4.269  0.6557  0.3168 -0.1563
  836MOL0     C15273  13.275   0.798   4.170  0.2185  0.6849  0.2531
  836MOL0     C15274  13.400   0.710   4.153 -0.8370  0.7661 -0.3865
  836MOL0    Cl15275  13.490   0.709   4.321  0.3657 -0.4590  0.1063
  836MOL0     C15276  12.480   0.714   4.185  0.2959 -0.0056 -0.4873
  836MOL0     C15277  12.354   0.728   4.122  0.1176  0.1208  0.0773
  836MOL0     O15278  12.268   0.980   3.899 -0.7770  0.1179  0.2119
  836MOL0     C15279  11.930   0.865   3.912  0.1713  0.1350 -0.0867
  836MOL0     C15280  11.809   0.874   3.838  0.9066  0.2919 -0.3378
  836MOL0     N15281  11.169   0.641   3.241 -0.4841 -0.0350  0.3574
  836MOL0     N15282  11.092   0.710   3.164 -0.1713  0.2530 -0.1161
  836MOL0     C15283  10.134   1.370   2.825 -0.6539  0.2453  0.3385
  836MOL0     C15284   9.995   1.347   2.827  0.1049 -0.0376  0.4415
  836MOL0     C15285   9.556   1.290   2.992 -0.1862 -0.5285  0.2889
  836MOL0     C15286   9.518   1.157   2.960  0.1053 -0.2434 -0.0132
  836MOL0     C15287   9.383   1.131   2.936 -0.7238  0.3885 -0.2457
  836MOL0     C15288   9.283   1.225   2.963 -0.1245  0.6692  0.3002
  836MOL0     O15289   9.146   1.193   2.956 -0.0408 -0.0587 -0.1436
  836MOL0     C15290   9.120   1.047   2.954 -0.2850  0.1621 -0.8945
  836MOL0     C15291   8.973   1.035   2.939  0.2389 -0.2187 -0.3343
  836MOL0     C15292   8.878   1.091   3.054 -0.3188 -0.3191  0.3797
  836MOL0     C15293   8.873   1.011   3.186 -0.8147 -0.4503 -0.8100
  836MOL0     C15294   8.776   0.903   3.169  0.0958  0.6127 -0.1674
  836MOL0     C15295   8.692   0.818   3.155  0.2170  0.4442 -0.4292
  836MOL0     C15296   9.321   1.353   2.999 -0.5953  0.5502 -0.0405
  836MOL0     C15297   9.451   1.389   3.000  0.3002  0.1499 -1.0812
  836MOL0     C15298   9.470   1.537   3.035  0.1204 -0.1715  1.3394
  836MOL0     H15299   9.961   1.207   3.135 -0.1972  0.5261  0.4473
  836MOL0     H15300  10.212   1.256   3.137 -0.5271 -0.8275 -0.1300
  836MOL0     H15301  10.405   1.473   2.764  1.5992 -0.3666 -0.5977
  836MOL0     H15302  10.389   1.302   2.744  2.1031  0.2584 -1.3145
  836MOL0     H15303  10.634   1.418   2.757  3.1151 -1.0727  0.9791
  836MOL0     H15304  10.586   1.439   2.929 -1.1563  1.4034 -1.3867
  836MOL0     H15305  10.584   1.187   2.969  1.2085 -1.1916  0.2094
  836MOL0     H15306  10.605   1.158   2.800 -1.0286  1.2707 -0.8552
  836MOL0     H15307  10.819   1.279   2.797 -2.0622  0.8851 -0.5359
  836MOL0     H15308  10.808   1.317   2.967  0.5428 -2.4368  2.4076
  836MOL0     H15309  10.833   1.031   2.859  0.9463 -0.0455  0.2972
  836MOL0     H15310  10.794   1.072   3.028  1.7322 -1.8194 -0.7242
  836MOL0     H15311  11.035   1.160   2.878  1.6809  0.7098  1.6477
  836MOL0     H15312  11.006   1.224   3.022 -0.1077  1.4143 -3.0989
  836MOL0     H15313  11.160   1.063   3.058  0.3519 -0.3434 -3.3408
  836MOL0     H15314  11.094   0.946   2.956  3.1473  0.8621  0.4230
  836MOL0     H15315  10.967   1.006   3.228  0.5712  2.7090 -1.3507
  836MOL0     H15316  10.907   0.894   3.103 -0.2723 -0.3675  1.0052
  836MOL0     H15317  11.221   0.948   3.343  0.6571 -0.1185 -1.1821
  836MOL0     H15318  11.442   0.720   3.350 -1.2662  1.4722  1.5536
  836MOL0     H15319  11.362   0.585   3.422  1.4074 -0.0273 -1.4472
  836MOL0     H15320  11.275   0.817   3.572  0.6297  2.1138 -0.6188
  836MOL0     H15321  11.386   0.692   3.623  1.3899  1.5176  0.6697
  836MOL0     H15322  11.537   0.887   3.452  2.1431  0.8731  1.1073
  836MOL0     H15323  11.431   0.977   3.566 -2.2499 -0.9687 -0.9259
  836MOL0     H15324  11.528   0.871   3.757  0.4123  1.0488 -0.0909
  836MOL0     H15325  11.607   0.756   3.661  0.9359  0.9214  0.2633
  836MOL0     H15326  11.879   1.085   3.605 -0.7594  0.3350  0.6217
  836MOL0     H15327  12.203   1.080   3.639  2.0669  0.9124  2.4068
  836MOL0     H15328  12.195   1.169   3.780  0.6228 -2.2339  1.5630
  836MOL0     H15329  12.075   1.212   3.657 -0.8549 -1.6935 -2.0153
  836MOL0     H15330  12.293   1.051   4.235  1.7077  0.1941  0.3300
  836MOL0     H15331  12.508   1.012   4.340  1.5759 -2.8663  2.5853
  836MOL0     H15332  12.649   0.961   4.486 -0.2196  0.2493  3.4353
  836MOL0     H15333  12.555   0.812   4.522  0.7263 -3.3873  0.9476
  836MOL0     H15334  12.761   0.846   4.664 -0.4546  0.4652  0.4817
  836MOL0     H15335  12.749   0.694   4.576  1.7344 -0.1429 -1.1179
  836MOL0     H15336  12.956   0.861   4.607  1.7232  0.3839 -1.5480
  836MOL0     H15337  12.900   0.952   4.475  0.4456  1.1948  1.1084
  836MOL0     H15338  12.910   0.692   4.362 -0.7072  0.8587 -0.1592
  836MOL0     H15339  13.040   0.681   4.495 -0.8695 -0.8162  1.2175
  836MOL0     H15340  13.012   0.875   4.264 -1.2024  0.4432  0.9380
  836MOL0     H15341  13.125   0.899   4.396 -1.9115 -0.7303  4.0253
  836MOL0     H15342  13.125   0.658   4.216  1.1082  0.8362 -1.4336
  836MOL0     H15343  13.237   0.696   4.347 -0.1288 -0.8414 -0.1624
  836MOL0     H15344  13.312   0.896   4.204  3.2500 -0.5143  0.8021
  836MOL0     H15345  13.222   0.805   4.075  0.9396 -2.1974 -0.4592
  836MOL0     H15346  13.465   0.758   4.080 -0.3834  2.0017  0.7772
  836MOL0     H15347  13.363   0.610   4.127  1.3804 -1.3012  3.4095
  836MOL0     H15348  12.533   0.619   4.181  1.6138  0.7582 -2.2990
  836MOL0     H15349  12.317   0.644   4.064 -2.8291  1.7632 -0.5850
  836MOL0     H15350  11.940   0.793   3.993 -1.3685 -0.8179 -0.7117
  836MOL0     H15351  11.724   0.815   3.873  0.5800  0.4755 -0.8053
  836MOL0     H15352  10.186   1.398   2.733  0.3010 -1.3288  0.3631
  836MOL0     H15353   9.930   1.373   2.744  0.2843 -0.4324  0.1786
  836MOL0     H15354   9.589   1.075   2.949 -0.7244 -0.7428 -2.0265
  836MOL0     H15355   9.358   1.029   2.909 -1.8815  0.5646  0.0936
  836MOL0     H15356   9.171   0.992   2.875 -0.3099 -1.8601  0.4127
  836MOL0     H15357   9.157   1.003   3.047 -2.9579 -1.9562 -0.7386
  836MOL0     H15358   8.947   0.933   2.911 -1.7359  0.5617 -1.5968
  836MOL0     H15359   8.959   1.088   2.844  2.3314  2.0960  0.5135
  836MOL0     H15360   8.924   1.189   3.073  2.4607 -0.5275 -3.8778
  836MOL0     H15361   8.781   1.106   3.006  0.1855  2.9210  0.1145
  836MOL0     H15362   8.832   1.074   3.266  0.4006 -1.0204  0.3018
  836MOL0     H15363   8.970   0.982   3.227  0.9515  3.6593 -1.5394
  836MOL0     H15364   8.613   0.748   3.135 -2.8437  3.3757  0.4060
  836MOL0     H15365   9.243   1.424   3.021  0.2391  0.8813  2.1706
  836MOL0     H15366   9.550   1.587   2.980 -0.2368 -0.4617  0.5370
  836MOL0     H15367   9.385   1.605   3.021  1.2716  0.9857 -0.5504
  836MOL0     H15368   9.492   1.536   3.142 -1.8498  0.5324  1.7890
  837MOL0     O15369   5.936   1.280   6.755 -0.0516  0.2390 -0.0397
  837MOL0     C15370   5.893   1.241   6.868 -0.7194  0.2255  0.2924
  837MOL0     O15371   5.982   1.219   6.974  0.3286 -0.1147  0.1584
  837MOL0     C15372   6.107   1.171   6.962 -0.3649  0.1366 -0.2719
  837MOL0     C15373   6.136   1.063   7.032 -0.4557 -0.1191  0.2906
  837MOL0     C15374   6.271   1.012   7.040  0.0923 -0.8485 -0.6127
  837MOL0     C15375   6.369   1.058   6.954  0.5271  0.0286  0.0938
  837MOL0     O15376   6.480   0.979   6.947 -0.3048  0.4998  0.7873
  837MOL0     C15377   6.544   0.951   6.816  0.0687 -0.0865  0.5953
  837MOL0     C15378   6.646   0.832   6.840  1.3226  0.4073 -0.3751
  837MOL0     C15379   6.699   0.771   6.701  0.5195 -0.5303 -0.3612
  837MOL0     C15380   6.807   0.662   6.713  0.1032  0.0198 -0.4129
  837MOL0     C15381   6.891   0.657   6.589 -0.3077  1.0476 -0.1255
  837MOL0     C15382   6.822   0.605   6.473  0.5134  0.0536 -1.1291
  837MOL0     C15383   6.906   0.618   6.347 -0.2073  0.6984  0.0237
  837MOL0     C15384   6.825   0.546   6.238 -0.7345  0.8283 -0.2492
  837MOL0     N15385   6.912   0.540   6.116  0.0389  0.2725  0.6895
  837MOL0     C15386   6.953   0.650   6.047 -0.8370 -0.0079  0.5417
  837MOL0     C15387   7.016   0.604   5.932  0.4188  0.3250 -1.2279
  837MOL0     C15388   7.088   0.682   5.826  0.7132  0.1774  0.9130
  837MOL0     C15389   7.228   0.715   5.858 -0.2362 -0.4394  0.6480
  837MOL0     C15390   7.271   0.820   5.750 -0.5163  0.2098  0.0908
  837MOL0     C15391   7.406   0.883   5.791  0.8120  0.6418  0.4983
  837MOL0     O15392   7.502   0.779   5.800 -0.5939  0.0816  0.4132
  837MOL0     C15393   7.636   0.810   5.796 -0.4234  0.1805 -0.3690
  837MOL0     C15394   7.683   0.938   5.785  1.1139 -0.3367  0.4044
  837MOL0     C15395   7.814   0.966   5.759 -1.1069  0.0651  0.0213
  837MOL0     C15396   7.840   1.115   5.720 -0.0407  0.6172  0.4209
  837MOL0     C15397   7.908   0.862   5.754 -0.1572 -0.2863  0.4835
  837MOL0     C15398   8.058   0.879   5.721 -0.4975  0.9689 -0.3692
  837MOL0     O15399   8.135   0.769   5.721 -0.2785 -0.1258  0.5414
  837MOL0     C15400   8.274   0.784   5.726 -0.1857  0.2661 -0.1425
  837MOL0     C15401   8.354   0.740   5.620 -0.1985  0.6768  1.2873
  837MOL0     C15402   8.490   0.783   5.625 -0.1523  0.3162 -0.5501
  837MOL0     C15403   8.544   0.845   5.736 -0.6238  0.3220  0.0306
  837MOL0     O15404   8.681   0.858   5.728  0.6442  0.7874  0.7701
  837MOL0     C15405   8.746   0.924   5.839 -0.2229  0.9369 -0.0030
  837MOL0     C15406   8.886   0.966   5.793 -0.0506 -1.3498  0.6037
  837MOL0     C15407   8.970   1.019   5.905  0.5808 -0.4608  0.9146
  837MOL0     C15408   9.085   1.094   5.844 -0.5142 -0.3576  0.0086
  837MOL0     C15409   9.195   0.997   5.789  0.3664 -0.3301 -0.3443
  837MOL0     C15410   9.310   1.078   5.728 -0.1080  0.4812 -0.5481
  837MOL0     C15411   9.397   1.156   5.829  0.4223 -0.1575 -0.1670
  837MOL0     C15412   9.414   1.309   5.800  0.0026 -0.1041 -0.1592
  837MOL0    Cl15413   9.498   1.394   5.938  0.0678 -0.2745  0.0036
  837MOL0     C15414   8.466   0.882   5.840  0.4182 -0.0920  0.0746
  837MOL0     C15415   8.326   0.853   5.836 -0.1521  0.1681  0.2063
  837MOL0     O15416   8.091   0.994   5.725  0.4757 -0.0640  0.4910
  837MOL0     C15417   7.860   0.729   5.774  0.0989 -0.0852  0.4484
  837MOL0     C15418   7.729   0.703   5.805 -1.0405 -0.2548  0.9584
  837MOL0     N15419   7.004   0.464   5.937 -0.3701  0.2400  0.4810
  837MOL0     N15420   6.936   0.434   6.039  0.7048  0.1411  0.6968
  837MOL0     C15421   6.340   1.168   6.867  0.3070  0.2467 -0.3154
  837MOL0     C15422   6.208   1.230   6.879  0.3859  0.5945  0.3344
  837MOL0     C15423   5.745   1.234   6.891  0.3758 -0.9413 -0.5957
  837MOL0     C15424   5.661   1.295   6.799 -0.2903  0.2812 -0.0382
  837MOL0     C15425   5.525   1.300   6.814 -0.1569 -0.1925 -0.9411
  837MOL0     C15426   5.474   1.255   6.930 -0.5892  0.3872 -0.2745
  837MOL0     O15427   5.342   1.276   6.938  1.1479 -0.5257 -0.3864
  837MOL0     C15428   5.270   1.167   7.002  0.6968  0.9218  0.5370
  837MOL0     C15429   5.116   1.167   6.970 -0.8600 -0.0729  0.2980
  837MOL0     C15430   5.084   1.088   6.837 -0.2125  0.0929  0.0465
  837MOL0     C15431   4.961   1.126   6.752 -0.5400  0.1591 -0.0482
  837MOL0     C15432   4.837   1.133   6.830  0.2553 -0.2399  0.0336
  837MOL0     C15433   4.736   1.148   6.890 -0.1016  0.4419 -0.4233
  837MOL0     C15434   5.548   1.180   7.025 -0.2082  0.3661  0.3460
  837MOL0     C15435   5.685   1.173   7.005  0.0455 -1.0288 -0.3298
  837MOL0     C15436   5.769   1.096   7.099  0.5275 -0.1132 -0.0143
  837MOL0     H15437   6.056   1.024   7.094 -0.2856 -0.9380  0.0064
  837MOL0     H15438   6.300   0.927   7.101 -0.0778 -1.0449 -0.8032
  837MOL0     H15439   6.597   1.038   6.775  2.7038 -2.0629 -0.4627
  837MOL0     H15440   6.466   0.914   6.748 -0.0316  2.3574 -0.7466
  837MOL0     H15441   6.735   0.870   6.890  0.6850  0.0340  1.1084
  837MOL0     H15442   6.598   0.755   6.901 -2.7364  2.1034 -1.0984
  837MOL0     H15443   6.617   0.732   6.640  1.5819 -2.6834 -0.5279
  837MOL0     H15444   6.744   0.857   6.650  0.9777  0.9438  2.3379
  837MOL0     H15445   6.861   0.671   6.808  0.8699 -0.9107 -0.7472
  837MOL0     H15446   6.756   0.566   6.726 -0.8750  0.7092  1.2073
  837MOL0     H15447   6.975   0.593   6.617 -1.1798  0.4572  1.2178
  837MOL0     H15448   6.930   0.755   6.559  0.4391 -0.3138 -4.4001
  837MOL0     H15449   6.802   0.502   6.503  1.1640  0.3569  0.4229
  837MOL0     H15450   6.729   0.663   6.472  1.1046  1.5995  4.3022
  837MOL0     H15451   7.004   0.572   6.363 -0.3766  0.8642  1.7370
  837MOL0     H15452   6.918   0.720   6.309 -0.3433 -0.4455 -3.4234
  837MOL0     H15453   6.803   0.442   6.265 -1.2354  0.2539 -2.6013
  837MOL0     H15454   6.726   0.591   6.226 -0.2495  2.3997  1.3296
  837MOL0     H15455   6.927   0.750   6.081 -0.4914 -0.8483  3.5835
  837MOL0     H15456   7.034   0.775   5.808  1.0877  0.2718  0.2462
  837MOL0     H15457   7.079   0.634   5.728 -0.3776  1.3543  0.4086
  837MOL0     H15458   7.213   0.755   5.959 -0.9052 -2.0853  1.2352
  837MOL0     H15459   7.279   0.619   5.867 -1.5253 -1.1571  0.4712
  837MOL0     H15460   7.278   0.784   5.647 -0.3709  1.7530 -0.4542
  837MOL0     H15461   7.199   0.902   5.747 -1.8484 -0.8257  1.7116
  837MOL0     H15462   7.427   0.945   5.703  0.7506 -2.4513 -1.8957
  837MOL0     H15463   7.397   0.936   5.886  4.5874 -0.2576  1.4828
  837MOL0     H15464   7.616   1.023   5.784  1.2032 -0.2690 -0.0651
  837MOL0     H15465   7.884   1.122   5.620 -1.3101  0.5533 -0.1634
  837MOL0     H15466   7.911   1.172   5.779  1.0549  1.0693 -1.2465
  837MOL0     H15467   7.752   1.180   5.727  0.0165  0.7630 -0.1112
  837MOL0     H15468   8.301   0.685   5.542 -0.5947  1.3289  1.0900
  837MOL0     H15469   8.556   0.764   5.541  1.9444 -2.4311  1.5528
  837MOL0     H15470   8.689   1.014   5.863 -0.9978  0.5085 -0.2003
  837MOL0     H15471   8.750   0.859   5.928 -2.1074 -0.4416 -0.8513
  837MOL0     H15472   8.938   0.879   5.751  1.8921 -0.8855  1.9356
  837MOL0     H15473   8.870   1.038   5.712  0.0833 -2.6028 -0.5864
  837MOL0     H15474   9.014   0.943   5.970  1.4355  0.2877  1.2274
  837MOL0     H15475   8.908   1.085   5.966 -0.8538 -2.3279  1.5731
  837MOL0     H15476   9.120   1.163   5.922 -0.4793 -0.0028 -0.3194
  837MOL0     H15477   9.046   1.151   5.759 -1.2429 -0.9842 -0.0916
  837MOL0     H15478   9.239   0.931   5.864  1.1316  1.7299  1.1254
  837MOL0     H15479   9.157   0.936   5.707 -1.5029 -3.7390  2.7852
  837MOL0     H15480   9.280   1.137   5.641 -1.3007 -2.0946 -1.9954
  837MOL0     H15481   9.376   0.997   5.695 -1.0387 -1.3829  1.8113
  837MOL0     H15482   9.496   1.111   5.815 -0.6732 -2.5746 -0.4506
  837MOL0     H15483   9.365   1.138   5.932  3.0268 -0.5653  0.6460
  837MOL0     H15484   9.309   1.341   5.802 -0.1214 -0.2061 -2.4454
  837MOL0     H15485   9.460   1.340   5.706 -1.2573  0.8605 -0.4833
  837MOL0     H15486   8.516   0.924   5.927 -0.4428  0.8738  0.1227
  837MOL0     H15487   8.275   0.881   5.927 -1.7560 -1.1512 -0.2267
  837MOL0     H15488   7.926   0.644   5.761  0.2325 -0.1769  1.6354
  837MOL0     H15489   7.701   0.598   5.801 -0.6833 -0.3809  1.6490
  837MOL0     H15490   6.408   1.202   6.790 -0.5920  0.4781 -1.0262
  837MOL0     H15491   6.190   1.326   6.831  1.0969  0.3280 -0.4716
  837MOL0     H15492   5.713   1.339   6.715 -0.1192 -2.3183 -1.3870
  837MOL0     H15493   5.464   1.360   6.748 -1.0842  1.3251  1.1879
  837MOL0     H15494   5.317   1.071   6.975  1.9173  1.0361  2.1210
  837MOL0     H15495   5.286   1.178   7.110 -1.2350 -1.7824  1.2021
  837MOL0     H15496   5.085   1.272   6.976 -1.4914 -0.2916  0.9805
  837MOL0     H15497   5.065   1.113   7.050  1.7031 -0.6912  1.6195
  837MOL0     H15498   5.169   1.095   6.769 -1.0471 -1.8777 -1.2922
  837MOL0     H15499   5.078   0.984   6.870 -0.8335  0.4039  0.9507
  837MOL0     H15500   4.941   1.058   6.669 -1.1172  0.6699 -0.3337
  837MOL0     H15501   4.977   1.225   6.708  0.7039 -0.6952 -1.6294
  837MOL0     H15502   4.634   1.165   6.921 -0.3609 -0.3468 -0.8215
  837MOL0     H15503   5.501   1.136   7.112 -2.9415  0.7961 -0.8063
  837MOL0     H15504   5.831   1.023   7.047  1.4544  1.1594 -0.7584
  837MOL0     H15505   5.834   1.162   7.158  2.5685 -1.8562 -0.2097
  837MOL0     H15506   5.710   1.030   7.164 -0.8392  1.2036  0.1517
  838MOL0     O15507   0.195   2.630   7.117 -0.3371 -0.0933  0.3798
  838MOL0     C15508   0.212   2.753   7.115 -0.6479 -1.4381  0.4345
  838MOL0     O15509   0.324   2.823   7.062  0.7291 -0.0077  0.8655
  838MOL0     C15510   0.423   2.755   7.006  0.5144 -0.7837  0.6791
  838MOL0     C15511   0.474   2.639   7.058 -0.4698  0.1901 -1.3805
  838MOL0     C15512   0.560   2.554   6.993 -1.1468 -0.3836 -0.2114
  838MOL0     C15513   0.605   2.589   6.868  0.0105 -0.1636  0.0780
  838MOL0     O15514   0.708   2.526   6.804 -0.3689 -0.1423 -1.0915
  838MOL0     C15515   0.742   2.390   6.840 -0.1857  0.5211  0.1797
  838MOL0     C15516   0.858   2.329   6.754  0.2512  0.0068  0.1228
  838MOL0     C15517   0.984   2.416   6.759 -0.5877 -0.5104  0.7146
  838MOL0     C15518   1.014   2.446   6.902 -0.4171 -0.3083  0.3809
  838MOL0     C15519   1.168   2.484   6.912 -0.0735  0.2319 -1.3100
  838MOL0     C15520   1.202   2.546   7.051  0.1936 -0.6068 -0.3660
  838MOL0     C15521   1.354   2.557   7.080  0.3945 -0.4415  0.4500
  838MOL0     C15522   1.434   2.431   7.093  0.4606  0.3921  0.8016
  838MOL0     N15523   1.574   2.457   7.092  0.1691  0.3459  0.8444
  838MOL0     C15524   1.663   2.413   7.187 -0.1607  0.9695  0.6825
  838MOL0     C15525   1.788   2.440   7.137 -0.3546 -0.3517 -0.2843
  838MOL0     C15526   1.928   2.399   7.190  0.9540 -0.3288  0.6583
  838MOL0     C15527   2.039   2.500   7.161 -0.0612  0.0777  1.2939
  838MOL0     C15528   2.180   2.458   7.218 -0.8219  0.0544 -0.4992
  838MOL0     C15529   2.276   2.571   7.200  0.1906 -0.1432 -0.1838
  838MOL0     O15530   2.398   2.511   7.244  0.1648 -0.9282 -0.2993
  838MOL0     C15531   2.517   2.564   7.206  0.0958 -0.9559 -0.0675
  838MOL0     C15532   2.624   2.507   7.264  0.2429  0.4229  0.1154
  838MOL0     C15533   2.747   2.570   7.249 -1.0370  0.3126 -0.2186
  838MOL0     C15534   2.874   2.501   7.314 -0.7644  0.5930  0.7359
  838MOL0     C15535   2.765   2.691   7.172  0.0875  0.1169 -0.1854
  838MOL0     C15536   2.890   2.770   7.154  0.0752  0.6255  0.0232
  838MOL0     O15537   2.891   2.855   7.048  0.2535  0.0156 -0.1039
  838MOL0     C15538   2.997   2.944   7.031 -0.5516  0.1180  0.0280
  838MOL0     C15539   3.082   3.004   7.129  0.1585 -0.7550 -0.8426
  838MOL0     C15540   3.183   3.098   7.099 -0.1629 -0.3381  0.5701
  838MOL0     C15541   3.197   3.130   6.967  0.0739 -0.3755 -0.1512
  838MOL0     O15542   3.289   3.230   6.946 -0.7258  0.9823  0.1046
  838MOL0     C15543   3.370   3.204   6.827  0.6962 -0.4315  0.3942
  838MOL0     C15544   3.510   3.243   6.844 -0.2745 -0.5332 -0.5338
  838MOL0     C15545   3.565   3.172   6.973  0.3316  0.2167  0.3159
  838MOL0     C15546   3.711   3.208   6.986  0.4761  0.1058  0.3825
  838MOL0     C15547   3.767   3.126   7.100  0.0119  0.0228 -0.6028
  838MOL0     C15548   3.917   3.144   7.102 -0.7587  0.4626  0.0488
  838MOL0     C15549   3.968   3.090   7.246  0.3134 -0.0163 -0.0519
  838MOL0     C15550   4.121   3.078   7.254 -0.4718 -0.0018 -0.2618
  838MOL0    Cl15551   4.199   3.226   7.299  0.1034  0.1719  0.1523
  838MOL0     C15552   3.119   3.077   6.870 -0.3767  0.0974  0.0213
  838MOL0     C15553   3.018   2.985   6.898  0.4498  0.6802 -0.4640
  838MOL0     O15554   2.987   2.746   7.228  0.1858 -0.0920 -0.1921
  838MOL0     C15555   2.652   2.753   7.118  0.3301  0.6240  0.1310
  838MOL0     C15556   2.526   2.686   7.125 -0.5547  0.7775  0.0791
  838MOL0     N15557   1.774   2.531   7.027 -0.6356 -0.5497  0.6850
  838MOL0     N15558   1.647   2.530   7.004  0.6634  0.2406 -0.3083
  838MOL0     C15559   0.559   2.706   6.807  0.1127  0.2036  0.5394
  838MOL0     C15560   0.474   2.789   6.878  0.3579 -0.7420  0.0077
  838MOL0     C15561   0.109   2.852   7.171 -0.3603  0.2193  0.5263
  838MOL0     C15562   0.163   2.974   7.214 -0.5931  0.3936  0.6841
  838MOL0     C15563   0.077   3.075   7.243  0.0756 -0.1096 -0.7167
  838MOL0     C15564  -0.062   3.058   7.237 -0.3215  0.1688 -0.0287
  838MOL0     O15565  -0.147   3.156   7.289 -1.0561 -0.0625  0.0343
  838MOL0     C15566  -0.210   3.251   7.199 -0.1885 -0.0454 -0.3142
  838MOL0     C15567  -0.109   3.329   7.120  0.9393 -0.1832 -0.0765
  838MOL0     C15568  -0.185   3.428   7.025  0.6003  0.1089  0.7328
  838MOL0     C15569  -0.245   3.547   7.094 -0.0860  0.0335  0.2762
  838MOL0     C15570  -0.148   3.663   7.105 -0.0022  1.1313  0.7846
  838MOL0     C15571  -0.076   3.761   7.102  0.0783 -0.3009  0.3206
  838MOL0     C15572  -0.116   2.931   7.200 -0.0284 -0.3081  0.1516
  838MOL0     C15573  -0.028   2.822   7.179  0.1608 -0.7387  0.5588
  838MOL0     C15574  -0.092   2.691   7.120 -0.2089 -0.0630  0.0263
  838MOL0     H15575   0.429   2.606   7.151  1.3755 -0.6083 -0.7273
  838MOL0     H15576   0.594   2.459   7.034 -1.5477 -0.5153 -0.1800
  838MOL0     H15577   0.654   2.324   6.838  2.1514 -2.9465  1.7246
  838MOL0     H15578   0.769   2.383   6.946 -2.1136  2.2977  0.8641
  838MOL0     H15579   0.889   2.232   6.794  3.3676  1.1381  0.7750
  838MOL0     H15580   0.820   2.311   6.653  3.1114 -0.9643 -0.8692
  838MOL0     H15581   1.067   2.367   6.708 -1.5742  0.9651 -2.5413
  838MOL0     H15582   0.961   2.513   6.713 -0.8332 -0.0909  1.6946
  838MOL0     H15583   0.960   2.536   6.933 -0.1388  1.0752 -2.7655
  838MOL0     H15584   0.994   2.368   6.977  0.9942  0.2793  1.4399
  838MOL0     H15585   1.199   2.553   6.832 -1.6229  1.1078 -1.2004
  838MOL0     H15586   1.211   2.384   6.905 -0.6465  0.0069 -1.6823
  838MOL0     H15587   1.178   2.653   7.055  0.4700 -0.5432 -0.3231
  838MOL0     H15588   1.147   2.509   7.138  0.1332  0.0539 -0.1128
  838MOL0     H15589   1.371   2.624   7.165 -2.8748  1.4863 -0.2307
  838MOL0     H15590   1.401   2.611   6.998 -0.5410 -0.1133  0.1185
  838MOL0     H15591   1.409   2.380   7.186 -1.8353  1.6612  0.9316
  838MOL0     H15592   1.414   2.359   7.013  2.7665  0.8054 -0.2328
  838MOL0     H15593   1.625   2.356   7.271 -0.5659 -0.2261 -0.2831
  838MOL0     H15594   1.963   2.304   7.149  3.3871  0.0612  1.6840
  838MOL0     H15595   1.920   2.383   7.298 -3.8588  0.6533  0.6779
  838MOL0     H15596   2.044   2.521   7.054  0.6290 -0.5288  1.1990
  838MOL0     H15597   2.000   2.596   7.196  0.6673  1.1078 -0.5752
  838MOL0     H15598   2.163   2.433   7.323 -4.1706  1.2807 -0.6348
  838MOL0     H15599   2.224   2.370   7.172  0.8851  0.2557  0.6771
  838MOL0     H15600   2.287   2.603   7.096  1.4925  1.1290  0.3247
  838MOL0     H15601   2.247   2.660   7.255  1.1759  0.3056 -0.3702
  838MOL0     H15602   2.611   2.421   7.329 -0.5428  1.8743  1.9481
  838MOL0     H15603   2.921   2.568   7.386  1.0638 -0.2239  0.3664
  838MOL0     H15604   2.952   2.485   7.238  0.0901  2.5462  1.1481
  838MOL0     H15605   2.858   2.402   7.358  3.9011 -1.2614 -1.0263
  838MOL0     H15606   3.078   2.986   7.236 -2.1771 -1.2079 -0.9462
  838MOL0     H15607   3.251   3.142   7.171  0.1718 -2.1753  1.4123
  838MOL0     H15608   3.354   3.105   6.784 -1.1610  0.0296 -0.0558
  838MOL0     H15609   3.330   3.263   6.744 -0.3793  0.7005  1.6753
  838MOL0     H15610   3.564   3.204   6.758  0.8954 -0.7490  0.2719
  838MOL0     H15611   3.524   3.351   6.849  0.3717 -0.5915 -1.0081
  838MOL0     H15612   3.535   3.066   6.973 -1.6366  0.7322  0.0710
  838MOL0     H15613   3.515   3.223   7.056  4.3234  1.2524  2.3312
  838MOL0     H15614   3.720   3.316   6.999  2.0934 -0.0976  1.0514
  838MOL0     H15615   3.760   3.181   6.892 -0.0046  1.7409 -0.3798
  838MOL0     H15616   3.733   3.141   7.203 -0.9643 -0.7562 -0.8021
  838MOL0     H15617   3.734   3.024   7.076 -3.2349  0.4858  1.3073
  838MOL0     H15618   3.943   3.250   7.099 -2.2753  0.8537 -0.1710
  838MOL0     H15619   3.960   3.087   7.019 -0.1445 -0.4915  1.0057
  838MOL0     H15620   3.919   2.992   7.251  0.5844 -0.1769 -0.4958
  838MOL0     H15621   3.940   3.149   7.334  2.7849  0.2014  0.6564
  838MOL0     H15622   4.171   3.044   7.163 -0.5726 -0.3196 -0.1997
  838MOL0     H15623   4.152   3.011   7.334 -0.8275  2.5181  2.1545
  838MOL0     H15624   3.128   3.118   6.770  0.5560  0.6849  0.3292
  838MOL0     H15625   2.948   2.951   6.822  0.6774  1.4371 -1.0203
  838MOL0     H15626   2.649   2.849   7.066 -1.9788  1.6363  1.9517
  838MOL0     H15627   2.435   2.713   7.072 -0.6810 -1.8880 -1.2673
  838MOL0     H15628   0.595   2.733   6.709  1.2461 -2.0976  0.2390
  838MOL0     H15629   0.449   2.888   6.840  1.6251  0.3127  1.7514
  838MOL0     H15630   0.269   2.993   7.201 -0.6530  0.7030  0.6473
  838MOL0     H15631   0.109   3.170   7.284 -0.3408 -0.1670 -0.2380
  838MOL0     H15632  -0.278   3.197   7.132 -1.2042 -1.2234  1.5789
  838MOL0     H15633  -0.270   3.315   7.264 -2.5224 -1.1511 -1.2919
  838MOL0     H15634  -0.035   3.272   7.064  0.2085 -2.3913  1.0829
  838MOL0     H15635  -0.053   3.394   7.188  1.5556  0.1111 -0.8601
  838MOL0     H15636  -0.119   3.454   6.942 -1.0444  0.5594 -0.5062
  838MOL0     H15637  -0.261   3.370   6.971  0.3215  0.1368  1.0937
  838MOL0     H15638  -0.295   3.520   7.188  0.2488 -4.8332 -0.7268
  838MOL0     H15639  -0.327   3.584   7.033  0.5175 -1.5530 -1.5683
  838MOL0     H15640  -0.008   3.844   7.098 -0.0927  0.1672  3.9890
  838MOL0     H15641  -0.224   2.935   7.201 -0.0389 -0.7043  0.5572
  838MOL0     H15642  -0.108   2.712   7.014  2.9251  0.5325 -0.4343
  838MOL0     H15643  -0.026   2.604   7.122  2.2219  1.6363  2.8541
  838MOL0     H15644  -0.188   2.667   7.166 -0.1977 -1.4578 -0.6549
  839MOL0     O15645   1.727   0.793   8.875  0.6284 -0.9282  0.5389
  839MOL0     C15646   1.639   0.705   8.879  0.7994  0.9800  1.0293
  839MOL0     O15647   1.654   0.576   8.933  0.1155 -0.2220 -0.5815
  839MOL0     C15648   1.779   0.526   8.961  0.7157 -0.2583  0.2390
  839MOL0     C15649   1.786   0.443   9.077 -0.3239  0.0864 -0.2632
  839MOL0     C15650   1.908   0.381   9.106  1.0733 -0.0782  0.5058
  839MOL0     C15651   2.023   0.391   9.030 -0.9107 -0.4884 -0.6168
  839MOL0     O15652   2.131   0.311   9.050  0.5891 -0.1089 -0.1226
  839MOL0     C15653   2.255   0.329   8.979 -0.8690  0.4296  0.0226
  839MOL0     C15654   2.349   0.224   9.036 -0.9214 -0.0702 -0.3111
  839MOL0     C15655   2.292   0.089   9.008  0.7568 -0.0867 -0.7534
  839MOL0     C15656   2.390  -0.022   9.064 -0.2699 -0.0684  0.0873
  839MOL0     C15657   2.514  -0.044   8.977  0.3690  0.3523  0.7568
  839MOL0     C15658   2.645  -0.009   9.059 -0.2840  0.1756  1.3539
  839MOL0     C15659   2.759   0.017   8.954  0.1785  0.2951 -0.1962
  839MOL0     C15660   2.899   0.036   9.021 -0.2435  0.1624  0.0293
  839MOL0     N15661   3.000   0.042   8.907  0.1015 -0.5264 -0.3465
  839MOL0     C15662   3.077  -0.071   8.867 -0.3598 -0.6354  0.3224
  839MOL0     C15663   3.168  -0.034   8.770  0.5781  0.3896 -0.1685
  839MOL0     C15664   3.254  -0.124   8.692 -0.5561  0.3917  0.4714
  839MOL0     C15665   3.354  -0.205   8.771 -0.4975  0.2285 -0.7367
  839MOL0     C15666   3.500  -0.143   8.755  0.5484  0.6338  0.2941
  839MOL0     C15667   3.600  -0.214   8.845 -0.5906  0.0368  0.4708
  839MOL0     O15668   3.642  -0.332   8.776 -0.1432 -0.6430 -0.7038
  839MOL0     C15669   3.742  -0.406   8.827  0.9159  0.2582 -0.1788
  839MOL0     C15670   3.768  -0.535   8.769  1.0837  0.4669  0.5330
  839MOL0     C15671   3.884  -0.608   8.802  0.2977  0.0026  0.0279
  839MOL0     C15672   3.902  -0.737   8.729 -0.1539  0.2862 -0.0358
  839MOL0     C15673   3.970  -0.559   8.898 -0.3777  0.3048  0.1288
  839MOL0     C15674   4.093  -0.627   8.934 -0.5750  0.8353  0.5485
  839MOL0     O15675   4.130  -0.638   9.063  0.1602 -0.1991 -0.1874
  839MOL0     C15676   4.220  -0.731   9.104 -0.5622  0.0476 -0.2857
  839MOL0     C15677   4.339  -0.695   9.165 -0.2947 -0.1309  0.8414
  839MOL0     C15678   4.410  -0.800   9.231  0.0938 -0.0739  0.5220
  839MOL0     C15679   4.376  -0.931   9.229 -0.3123 -0.7512  0.4970
  839MOL0     O15680   4.438  -1.035   9.288  0.2628 -0.3961 -0.1319
  839MOL0     C15681   4.543  -1.009   9.387 -0.8109  0.0174  0.0151
  839MOL0     C15682   4.515  -0.992   9.532  0.2825  0.3883 -0.8564
  839MOL0     C15683   4.475  -0.851   9.582 -0.5430  0.4630  0.5591
  839MOL0     C15684   4.452  -0.852   9.731 -0.3465 -0.3053  0.3462
  839MOL0     C15685   4.461  -0.706   9.792 -0.2485 -0.0738  0.9681
  839MOL0     C15686   4.392  -0.594   9.706 -0.3651  0.6349 -0.2451
  839MOL0     C15687   4.375  -0.458   9.766  0.2172 -0.1216  0.1276
  839MOL0     C15688   4.281  -0.456   9.887  0.6028 -0.0992  0.1489
  839MOL0    Cl15689   4.114  -0.504   9.814 -0.0364  0.2950 -0.2561
  839MOL0     C15690   4.259  -0.968   9.159 -0.3181 -0.2134 -0.3862
  839MOL0     C15691   4.176  -0.865   9.097  0.4062  1.0526 -0.6959
  839MOL0     O15692   4.163  -0.666   8.842 -0.2183  0.2603  0.5593
  839MOL0     C15693   3.942  -0.440   8.967  0.8781  0.3899  0.0699
  839MOL0     C15694   3.824  -0.369   8.937  0.6779  0.0319 -0.3486
  839MOL0     N15695   3.137   0.103   8.760 -0.0287 -0.0175 -0.0724
  839MOL0     N15696   3.031   0.141   8.826 -0.4056 -0.0749  0.4842
  839MOL0     C15697   2.020   0.489   8.925  1.1686 -0.1569 -0.1729
  839MOL0     C15698   1.899   0.549   8.887  0.9862 -0.0927  0.0911
  839MOL0     C15699   1.504   0.738   8.835  1.1332 -0.1255  0.5659
  839MOL0     C15700   1.445   0.655   8.739  0.7814 -0.3132 -0.3955
  839MOL0     C15701   1.334   0.692   8.678  0.9960 -0.3097  0.7321
  839MOL0     C15702   1.269   0.812   8.695  0.0021  0.2143 -0.8096
  839MOL0     O15703   1.154   0.835   8.628  0.0142  0.3716  0.0163
  839MOL0     C15704   1.063   0.939   8.652  0.5135  0.2995 -1.0454
  839MOL0     C15705   1.106   1.079   8.610  0.3931 -0.0069  0.3406
  839MOL0     C15706   1.034   1.198   8.679 -0.4359 -0.4527  0.5465
  839MOL0     C15707   0.884   1.180   8.699  0.0709 -0.5307 -0.5077
  839MOL0     C15708   0.820   1.305   8.749  0.1518 -0.0812  0.3896
  839MOL0     C15709   0.775   1.404   8.796  0.0645  0.0021 -0.0318
  839MOL0     C15710   1.317   0.898   8.790  0.4269  0.7949 -0.3583
  839MOL0     C15711   1.440   0.863   8.859  0.4088 -1.1087  0.2790
  839MOL0     C15712   1.483   0.948   8.973  0.1820  0.2612  1.2549
  839MOL0     H15713   1.702   0.426   9.143  0.5237  0.5981  0.9745
  839MOL0     H15714   1.916   0.321   9.196  2.7582 -0.6368  0.0275
  839MOL0     H15715   2.293   0.427   9.010  1.1758 -0.4384  0.4381
  839MOL0     H15716   2.255   0.313   8.871  2.7968  1.3401 -0.2591
  839MOL0     H15717   2.447   0.226   8.988 -0.8724 -0.8865 -0.2491
  839MOL0     H15718   2.355   0.240   9.144 -3.2472 -3.9195  0.5920
  839MOL0     H15719   2.187   0.083   9.036  0.6636  0.7080 -0.9244
  839MOL0     H15720   2.283   0.065   8.902  0.1537  1.1043 -0.9888
  839MOL0     H15721   2.408  -0.012   9.172 -3.6078 -0.9244  0.8364
  839MOL0     H15722   2.329  -0.113   9.072  0.3727 -0.4397  1.0442
  839MOL0     H15723   2.518   0.017   8.886  3.1861 -0.6649  0.1130
  839MOL0     H15724   2.517  -0.146   8.937  3.6018  0.0794  1.4461
  839MOL0     H15725   2.624   0.078   9.121 -1.3191 -0.2322  1.5936
  839MOL0     H15726   2.658  -0.100   9.119 -2.3265  1.2690  3.6133
  839MOL0     H15727   2.735   0.111   8.903  2.0513  0.4946 -0.8165
  839MOL0     H15728   2.750  -0.057   8.874  0.1754  0.5064 -0.3920
  839MOL0     H15729   2.908   0.132   9.072 -2.5882  1.4143 -1.7214
  839MOL0     H15730   2.926  -0.050   9.084 -1.4490 -1.3489 -1.4347
  839MOL0     H15731   3.068  -0.175   8.897  0.7847 -0.7105  0.4515
  839MOL0     H15732   3.307  -0.070   8.614  1.3166 -1.8192  0.0847
  839MOL0     H15733   3.192  -0.200   8.644  2.3474 -1.0742 -1.2049
  839MOL0     H15734   3.322  -0.208   8.876 -2.1669  0.3454 -1.2137
  839MOL0     H15735   3.357  -0.309   8.738 -0.8593  0.4073 -1.3383
  839MOL0     H15736   3.534  -0.155   8.652  1.1434 -0.5536  0.6064
  839MOL0     H15737   3.501  -0.038   8.786 -1.6118  0.6435  0.4895
  839MOL0     H15738   3.680  -0.146   8.875 -1.0817  0.9253 -0.1821
  839MOL0     H15739   3.562  -0.254   8.940  2.1042  0.5816  1.8745
  839MOL0     H15740   3.713  -0.576   8.685  1.2792  0.8660  0.2142
  839MOL0     H15741   3.803  -0.783   8.721 -0.5093  0.1671  3.5462
  839MOL0     H15742   3.970  -0.804   8.783  0.6714  1.8419  0.9461
  839MOL0     H15743   3.957  -0.714   8.637 -0.1984  1.0319  0.1159
  839MOL0     H15744   4.382  -0.596   9.161  0.9328 -0.6790 -0.2101
  839MOL0     H15745   4.501  -0.762   9.277 -0.5296  1.3045  0.6674
  839MOL0     H15746   4.612  -1.093   9.377  1.4020  1.8613 -1.3323
  839MOL0     H15747   4.610  -0.930   9.351  0.2696 -0.3013  1.2646
  839MOL0     H15748   4.437  -1.068   9.545  2.0225 -1.6574 -1.7368
  839MOL0     H15749   4.608  -1.018   9.584  0.5645  1.0646 -1.0266
  839MOL0     H15750   4.379  -0.818   9.541 -0.1284  0.3543 -0.5433
  839MOL0     H15751   4.549  -0.779   9.548  1.3903 -2.2851 -1.5818
  839MOL0     H15752   4.523  -0.918   9.781 -0.1684 -1.1165 -0.9168
  839MOL0     H15753   4.353  -0.892   9.754 -1.8190  2.6305 -0.4457
  839MOL0     H15754   4.427  -0.714   9.896 -3.0766 -0.2070  0.1099
  839MOL0     H15755   4.568  -0.684   9.793 -0.6082  1.7921  0.8232
  839MOL0     H15756   4.292  -0.629   9.680 -0.2326  0.2907 -0.2880
  839MOL0     H15757   4.460  -0.584   9.621  1.4751  3.1912  1.3738
  839MOL0     H15758   4.345  -0.376   9.700  0.2835 -0.4047 -0.2658
  839MOL0     H15759   4.474  -0.433   9.805  1.3377 -3.9036  0.1201
  839MOL0     H15760   4.266  -0.362   9.941 -0.9746  0.5382 -1.3275
  839MOL0     H15761   4.305  -0.539   9.954  1.8515  0.8084  0.8645
  839MOL0     H15762   4.233  -1.073   9.151 -2.3103  0.0292  1.6875
  839MOL0     H15763   4.084  -0.897   9.050  0.5989 -1.0157  0.2036
  839MOL0     H15764   4.002  -0.393   9.045  1.3275 -0.5363  0.2996
  839MOL0     H15765   3.812  -0.277   8.993 -0.5964  0.7493 -1.7153
  839MOL0     H15766   2.109   0.513   8.867  0.5967  2.2122 -0.1880
  839MOL0     H15767   1.900   0.615   8.801  2.7268  0.1967  0.2934
  839MOL0     H15768   1.494   0.561   8.713  0.1614 -0.8062  0.2066
  839MOL0     H15769   1.280   0.619   8.619  0.6113 -1.4382  2.4239
  839MOL0     H15770   0.966   0.922   8.603 -0.9423 -0.7926  1.9742
  839MOL0     H15771   1.055   0.944   8.761 -0.1189 -3.2280 -0.8237
  839MOL0     H15772   1.078   1.084   8.504  1.4153 -1.7257 -0.0423
  839MOL0     H15773   1.214   1.097   8.620 -0.0418  2.0631  2.0558
  839MOL0     H15774   1.088   1.210   8.774 -0.5292  2.3219  0.3378
  839MOL0     H15775   1.044   1.281   8.609  1.7175  0.7125  2.1067
  839MOL0     H15776   0.864   1.110   8.780 -3.5202  1.0744  0.2081
  839MOL0     H15777   0.838   1.150   8.605  0.7891 -2.5866 -0.2483
  839MOL0     H15778   0.709   1.482   8.830  0.2769 -0.1386  0.7181
  839MOL0     H15779   1.279   0.997   8.813 -3.2103 -0.2147 -1.3320
  839MOL0     H15780   1.592   0.953   8.974  0.3880 -2.4544  0.0221
  839MOL0     H15781   1.445   1.051   8.968 -0.1627  0.0906 -2.2044
  839MOL0     H15782   1.445   0.901   9.065  1.1815 -0.9904  1.0498
  840MOL0     O15783   2.163   2.421   4.609  0.1311  0.0692 -0.2795
  840MOL0     C15784   2.099   2.337   4.546  0.0563 -0.4468 -0.0378
  840MOL0     O15785   2.159   2.219   4.492 -0.0285  0.3716  0.0666
  840MOL0     C15786   2.292   2.230   4.458 -0.2651 -0.3600 -0.1524
  840MOL0     C15787   2.361   2.110   4.464 -0.4598 -0.1332 -0.9027
  840MOL0     C15788   2.496   2.109   4.440 -0.3969 -0.5100  1.7193
  840MOL0     C15789   2.557   2.224   4.398  0.8070 -0.5516  0.2951
  840MOL0     O15790   2.691   2.222   4.366  0.2039 -0.1706 -0.1262
  840MOL0     C15791   2.782   2.321   4.396  0.8089 -0.9171 -0.5903
  840MOL0     C15792   2.926   2.259   4.399  0.2274 -0.1972  0.2761
  840MOL0     C15793   2.970   2.230   4.255 -0.6173  0.3909  0.7095
  840MOL0     C15794   3.101   2.153   4.247  1.1801  0.6249  0.9987
  840MOL0     C15795   3.175   2.146   4.112 -0.3841 -0.1552  0.3958
  840MOL0     C15796   3.246   2.003   4.113  1.1036 -0.2139 -0.5711
  840MOL0     C15797   3.335   1.992   3.995 -0.3959 -0.6614  0.4806
  840MOL0     C15798   3.418   1.860   4.002  0.1846 -0.8047 -0.7842
  840MOL0     N15799   3.547   1.880   4.080 -0.3045  0.2034 -1.0346
  840MOL0     C15800   3.563   1.890   4.213  0.2580 -0.3630 -0.2688
  840MOL0     C15801   3.699   1.898   4.235  0.1132  0.6010  0.0868
  840MOL0     C15802   3.770   1.915   4.368 -0.1965  0.2343 -0.6747
  840MOL0     C15803   3.757   2.050   4.437  0.8031 -1.1049  0.2101
  840MOL0     C15804   3.828   2.043   4.568  0.1796  0.1091 -0.7229
  840MOL0     C15805   3.790   2.157   4.659 -0.5730 -0.4564 -0.3220
  840MOL0     O15806   3.773   2.281   4.596  1.1265  0.2202 -0.3247
  840MOL0     C15807   3.869   2.372   4.581  0.0233  0.2646  0.5366
  840MOL0     C15808   3.836   2.501   4.541 -0.7524  0.4509  0.8504
  840MOL0     C15809   3.927   2.609   4.521 -0.2751 -0.4609 -0.1261
  840MOL0     C15810   3.858   2.735   4.480  0.0589  0.6140  0.1271
  840MOL0     C15811   4.060   2.587   4.561 -0.1325  0.2828 -0.5168
  840MOL0     C15812   4.165   2.692   4.556 -0.6221  1.0433 -0.3614
  840MOL0     O15813   4.295   2.646   4.587  0.1032  0.4574 -0.3208
  840MOL0     C15814   4.400   2.731   4.576  0.1512 -0.8720 -0.6583
  840MOL0     C15815   4.419   2.833   4.668  0.3367 -0.2102  0.2805
  840MOL0     C15816   4.510   2.933   4.648 -0.2753  0.7476 -0.0158
  840MOL0     C15817   4.614   2.915   4.549  0.4417  0.0362 -1.5123
  840MOL0     O15818   4.724   2.992   4.551  0.1509 -0.7160 -0.3647
  840MOL0     C15819   4.836   2.956   4.461  0.5921  0.4401 -0.3996
  840MOL0     C15820   4.807   3.023   4.324  0.3465  0.2266  0.0945
  840MOL0     C15821   4.935   3.041   4.245 -0.2128  0.0676  0.1545
  840MOL0     C15822   4.970   2.912   4.167  0.0426 -0.0318 -0.6449
  840MOL0     C15823   5.076   2.935   4.063 -0.2492  0.5986  1.2744
  840MOL0     C15824   5.221   2.932   4.117  0.7960  0.0414  0.6269
  840MOL0     C15825   5.316   2.945   4.000 -0.2877  0.1299  0.0945
  840MOL0     C15826   5.453   2.935   4.057 -0.2291 -0.4013 -0.6999
  840MOL0    Cl15827   5.585   2.926   3.933 -0.6527 -0.3585  0.0536
  840MOL0     C15828   4.598   2.810   4.461 -0.1425  1.0920  0.0955
  840MOL0     C15829   4.492   2.718   4.476 -0.3396  0.0659  0.8433
  840MOL0     O15830   4.130   2.808   4.540 -0.5395  0.4710  0.9994
  840MOL0     C15831   4.098   2.454   4.608  0.6371 -0.6402 -0.0601
  840MOL0     C15832   3.999   2.345   4.620 -0.0717 -0.9914 -0.4208
  840MOL0     N15833   3.754   1.892   4.108  0.6266 -0.5776  0.2536
  840MOL0     N15834   3.665   1.895   4.018  0.2378 -0.1064 -0.1137
  840MOL0     C15835   2.484   2.346   4.392 -0.7672  0.0949  0.4617
  840MOL0     C15836   2.344   2.347   4.413  0.0523 -0.0944  0.8419
  840MOL0     C15837   1.958   2.357   4.512  0.8713 -0.6511 -0.3132
  840MOL0     C15838   1.878   2.249   4.470 -0.4839 -0.3386  0.0626
  840MOL0     C15839   1.742   2.268   4.442 -0.4971 -0.0699 -0.2374
  840MOL0     C15840   1.671   2.389   4.465 -0.2111 -0.2542 -0.2495
  840MOL0     O15841   1.538   2.400   4.437  0.9961 -0.0477  0.4535
  840MOL0     C15842   1.482   2.522   4.406  0.4187 -0.1329  0.7963
  840MOL0     C15843   1.354   2.502   4.324 -0.6089  0.2386  0.5506
  840MOL0     C15844   1.293   2.633   4.290 -0.7271 -0.3846  1.1693
  840MOL0     C15845   1.161   2.628   4.225 -0.3055  0.3006  1.0403
  840MOL0     C15846   1.108   2.762   4.220 -0.1646 -0.1130  0.0572
  840MOL0     C15847   1.059   2.874   4.239 -0.8093 -0.4497  0.6400
  840MOL0     C15848   1.753   2.497   4.502  0.4557 -0.5799  0.0604
  840MOL0     C15849   1.892   2.482   4.512 -0.1129  0.5591 -0.3818
  840MOL0     C15850   1.949   2.617   4.550  0.1275 -0.1677  0.0674
  840MOL0     H15851   2.312   2.026   4.513  1.9498 -0.8366  0.4992
  840MOL0     H15852   2.559   2.021   4.435 -0.9197 -0.8802  1.4677
  840MOL0     H15853   2.753   2.369   4.489  0.3062 -1.7290 -0.3177
  840MOL0     H15854   2.781   2.400   4.320  2.0735  0.3209  0.6361
  840MOL0     H15855   2.992   2.324   4.457 -0.8044  0.3964  0.8299
  840MOL0     H15856   2.927   2.162   4.449 -0.1746 -0.3842 -0.0668
  840MOL0     H15857   2.891   2.177   4.201  1.3906 -0.5525 -1.5145
  840MOL0     H15858   3.000   2.325   4.209  3.1291 -1.2443 -0.6056
  840MOL0     H15859   3.171   2.196   4.319  0.8023  1.2106  1.0151
  840MOL0     H15860   3.075   2.054   4.284  0.2629  0.3611 -0.2689
  840MOL0     H15861   3.248   2.228   4.108  0.0479 -0.5376  0.3970
  840MOL0     H15862   3.112   2.159   4.024 -1.3372 -1.8893  0.7818
  840MOL0     H15863   3.305   1.999   4.205  3.3648  0.2565 -1.9082
  840MOL0     H15864   3.174   1.922   4.125  0.3460  0.7257  1.8523
  840MOL0     H15865   3.398   2.081   4.004 -0.1344 -1.0274  3.0133
  840MOL0     H15866   3.282   1.994   3.900  0.5815 -2.5954 -0.1530
  840MOL0     H15867   3.364   1.772   4.040 -0.3075 -0.9362 -1.7537
  840MOL0     H15868   3.447   1.827   3.902  0.0099 -1.0397 -0.7592
  840MOL0     H15869   3.483   1.893   4.286  1.8581 -0.2054  1.5750
  840MOL0     H15870   3.876   1.913   4.342 -0.4120 -0.4201 -1.5229
  840MOL0     H15871   3.726   1.838   4.431 -1.5641 -1.3816 -3.4204
  840MOL0     H15872   3.796   2.134   4.379 -1.8920 -0.3373 -0.6198
  840MOL0     H15873   3.650   2.071   4.444  1.1089  0.1277  2.1547
  840MOL0     H15874   3.810   1.948   4.620 -0.8665  0.2585 -0.7956
  840MOL0     H15875   3.937   2.043   4.555  0.1985  2.1895 -0.8500
  840MOL0     H15876   3.694   2.129   4.704 -0.3753 -1.1236 -0.3007
  840MOL0     H15877   3.858   2.164   4.745  0.9304  0.9522 -1.5335
  840MOL0     H15878   3.734   2.509   4.506 -0.0705  0.6644 -1.2099
  840MOL0     H15879   3.936   2.797   4.435  2.7807 -0.7182  2.6876
  840MOL0     H15880   3.801   2.772   4.566  1.3983  0.6224  1.0425
  840MOL0     H15881   3.790   2.719   4.395 -0.5845 -3.3890  1.1798
  840MOL0     H15882   4.357   2.854   4.755 -0.0797 -1.2126  0.2478
  840MOL0     H15883   4.512   3.009   4.726 -4.6489 -1.8113  3.0518
  840MOL0     H15884   4.925   2.993   4.512  0.8067  0.2060 -0.6031
  840MOL0     H15885   4.851   2.848   4.455  0.2163  0.0444  3.3014
  840MOL0     H15886   4.733   2.969   4.265  1.9857  0.3040 -2.1800
  840MOL0     H15887   4.759   3.119   4.344 -2.2051 -0.9681  0.1020
  840MOL0     H15888   5.007   3.066   4.323 -0.1617  1.6415 -0.3561
  840MOL0     H15889   4.910   3.125   4.179 -2.8496  1.1006  2.2750
  840MOL0     H15890   4.880   2.870   4.120 -0.5858  1.7384 -1.1168
  840MOL0     H15891   5.001   2.832   4.234 -0.8250 -1.2948 -1.6967
  840MOL0     H15892   5.061   2.856   3.988 -2.2011  0.2192  2.0163
  840MOL0     H15893   5.058   3.027   4.007 -3.3994 -0.1567  0.8972
  840MOL0     H15894   5.236   2.835   4.165 -1.4908 -0.8586 -0.3415
  840MOL0     H15895   5.223   3.015   4.188 -0.4297  0.8836 -0.2643
  840MOL0     H15896   5.311   3.041   3.949 -0.3960  0.0984  0.0444
  840MOL0     H15897   5.296   2.864   3.930 -2.6809 -0.3907  1.2628
  840MOL0     H15898   5.463   2.838   4.107 -0.2896  0.0547  0.2040
  840MOL0     H15899   5.471   3.014   4.130  3.1411 -1.4221 -0.2870
  840MOL0     H15900   4.668   2.782   4.382  3.0955 -0.7197  3.3159
  840MOL0     H15901   4.489   2.634   4.407  1.7232 -0.1937  1.0320
  840MOL0     H15902   4.194   2.427   4.650  1.2722 -1.0057 -1.6749
  840MOL0     H15903   4.031   2.256   4.674 -0.6752 -0.6333  0.5529
  840MOL0     H15904   2.533   2.438   4.362 -0.1625 -0.5627 -0.5953
  840MOL0     H15905   2.294   2.442   4.397  3.6541  1.4983 -2.9744
  840MOL0     H15906   1.921   2.152   4.448  1.9968  1.0797 -1.9367
  840MOL0     H15907   1.683   2.191   4.392  3.2851 -2.6583 -1.1396
  840MOL0     H15908   1.462   2.568   4.503 -1.1475  0.4872  0.2071
  840MOL0     H15909   1.557   2.580   4.351 -1.3143  0.3584 -1.1871
  840MOL0     H15910   1.278   2.432   4.361 -0.8471 -0.1642 -0.6393
  840MOL0     H15911   1.392   2.467   4.228 -0.6858  2.1242 -0.2149
  840MOL0     H15912   1.260   2.681   4.383 -1.2634  1.2068  0.1916
  840MOL0     H15913   1.365   2.699   4.241  0.3605 -1.4018  1.3499
  840MOL0     H15914   1.097   2.559   4.280  0.5232  0.4808  2.2554
  840MOL0     H15915   1.176   2.595   4.121 -1.5016 -0.2071  1.0101
  840MOL0     H15916   0.999   2.962   4.248 -0.0631  0.1517 -0.0525
  840MOL0     H15917   1.706   2.593   4.522  1.2288 -0.6602  2.6800
  840MOL0     H15918   2.046   2.632   4.503 -0.3420 -0.7545 -1.1294
  840MOL0     H15919   1.890   2.706   4.524  0.2739  0.3991  1.5665
  840MOL0     H15920   1.967   2.618   4.658  0.6498 -1.7530  0.0134
  841MOL0     O15921   0.017   2.012  11.269 -1.0708  0.2420  0.0436
  841MOL0     C15922  -0.017   2.038  11.385  0.2264 -0.2229  0.5284
  841MOL0     O15923   0.061   2.026  11.499  0.1762 -0.7871 -0.4144
  841MOL0     C15924   0.171   1.951  11.483 -0.5444 -0.4641 -0.0743
  841MOL0     C15925   0.164   1.812  11.449  0.3091  0.7002  0.0781
  841MOL0     C15926   0.280   1.739  11.430  0.0659  0.0608  0.3385
  841MOL0     C15927   0.404   1.793  11.457 -0.2482 -0.5950 -0.4520
  841MOL0     O15928   0.512   1.712  11.438  0.4171 -0.1276  0.3277
  841MOL0     C15929   0.597   1.713  11.553 -0.2813  0.0875  0.2489
  841MOL0     C15930   0.684   1.581  11.551  0.4124  0.4901  0.6737
  841MOL0     C15931   0.794   1.598  11.449  0.6030 -0.1036 -0.4710
  841MOL0     C15932   0.890   1.480  11.414 -0.1618  0.6214  0.4468
  841MOL0     C15933   0.972   1.413  11.531  0.1528 -0.2399 -0.2229
  841MOL0     C15934   1.084   1.505  11.572 -0.0011 -0.3956  0.0114
  841MOL0     C15935   1.196   1.437  11.646 -0.4882 -0.5848 -0.6716
  841MOL0     C15936   1.327   1.524  11.645  0.1533  0.7672 -0.1074
  841MOL0     N15937   1.434   1.460  11.711 -0.0366 -0.6792 -0.0538
  841MOL0     C15938   1.520   1.367  11.653  1.0271  0.2007 -0.5649
  841MOL0     C15939   1.601   1.330  11.752  0.2704  0.3108 -0.4509
  841MOL0     C15940   1.712   1.231  11.745 -0.1857 -0.0865  0.3797
  841MOL0     C15941   1.824   1.260  11.848  0.3966 -0.7374 -0.5356
  841MOL0     C15942   1.790   1.214  11.998 -0.8357 -0.6279 -0.3212
  841MOL0     C15943   1.923   1.196  12.070 -0.2827  0.6053  0.2430
  841MOL0     O15944   1.986   1.322  12.084 -0.2886 -0.6772  0.4259
  841MOL0     C15945   2.104   1.326  12.149  0.8012  0.0202 -0.1963
  841MOL0     C15946   2.133   1.240  12.262 -0.3504  0.7205  0.7626
  841MOL0     C15947   2.233   1.262  12.355 -0.1481 -0.2000  0.0272
  841MOL0     C15948   2.243   1.177  12.476 -0.7184 -0.2175  0.2366
  841MOL0     C15949   2.316   1.375  12.326 -0.4850  0.4245 -0.9547
  841MOL0     C15950   2.424   1.420  12.412  0.5458 -0.2397 -0.3094
  841MOL0     O15951   2.449   1.547  12.387 -0.0732  0.2853  0.3869
  841MOL0     C15952   2.550   1.605  12.467  0.2704 -0.4868 -0.3410
  841MOL0     C15953   2.532   1.625  12.600 -0.0549 -0.8049 -0.2252
  841MOL0     C15954   2.625   1.686  12.674 -0.1619  0.2933  0.0825
  841MOL0     C15955   2.751   1.726  12.626 -0.0040 -0.3805 -0.2022
  841MOL0     O15956   2.838   1.778  12.711 -0.3711  0.5233 -0.5605
  841MOL0     C15957   2.923   1.890  12.670  0.2563  0.1343  1.4509
  841MOL0     C15958   3.063   1.826  12.652  0.2559  0.4934 -1.3548
  841MOL0     C15959   3.165   1.920  12.607 -0.0653 -0.0615 -0.5147
  841MOL0     C15960   3.296   1.853  12.564 -0.0202  0.5482 -0.6056
  841MOL0     C15961   3.415   1.950  12.530  0.5642 -0.1471  0.1942
  841MOL0     C15962   3.483   1.903  12.398  0.3769  0.1293 -0.1767
  841MOL0     C15963   3.637   1.927  12.403 -0.2462  0.6006  0.0435
  841MOL0     C15964   3.688   1.858  12.276  0.5090 -0.3358 -0.4584
  841MOL0    Cl15965   3.862   1.869  12.273 -0.2400 -0.2026  0.2669
  841MOL0     C15966   2.772   1.713  12.481  0.4452  0.0270 -0.4723
  841MOL0     C15967   2.665   1.654  12.404  0.5734  0.6180 -0.7038
  841MOL0     O15968   2.485   1.345  12.487 -0.7661  0.7899  0.2237
  841MOL0     C15969   2.299   1.445  12.197 -0.5767 -0.7471  1.8225
  841MOL0     C15970   2.193   1.423  12.111 -0.3107  0.3408 -0.7576
  841MOL0     N15971   1.558   1.390  11.868  0.4058 -0.0515 -0.3411
  841MOL0     N15972   1.456   1.469  11.835 -0.0533 -0.1007 -0.3442
  841MOL0     C15973   0.416   1.924  11.507  0.1873  0.6148  0.6305
  841MOL0     C15974   0.299   2.005  11.531  0.4705  0.0150  0.0402
  841MOL0     C15975  -0.147   2.113  11.380 -0.7928  1.2563  0.4702
  841MOL0     C15976  -0.227   2.107  11.264  0.3873  0.1471 -0.0139
  841MOL0     C15977  -0.361   2.163  11.261 -0.3760  0.0794  0.6408
  841MOL0     C15978  -0.410   2.233  11.374  0.0920  0.0059 -0.0337
  841MOL0     O15979  -0.530   2.304  11.381 -0.1299  0.1030 -0.0011
  841MOL0     C15980  -0.633   2.287  11.289 -0.2185 -0.1692 -0.1094
  841MOL0     C15981  -0.608   2.377  11.169  0.6073 -0.1264  0.0011
  841MOL0     C15982  -0.729   2.350  11.074  0.3151  0.8413 -0.0862
  841MOL0     C15983  -0.737   2.473  10.979 -0.1387 -0.0870  0.1394
  841MOL0     C15984  -0.867   2.482  10.907  0.1990 -0.4505  0.7383
  841MOL0     C15985  -0.976   2.493  10.846 -0.2016  0.2952 -0.1116
  841MOL0     C15986  -0.336   2.229  11.488 -0.7150  0.2248  1.0516
  841MOL0     C15987  -0.205   2.168  11.495 -0.7307 -0.3983  0.0958
  841MOL0     C15988  -0.130   2.191  11.625  0.2561  0.0615  0.6485
  841MOL0     H15989   0.067   1.768  11.426  0.4224  0.7531 -0.5191
  841MOL0     H15990   0.272   1.637  11.393  2.3571 -0.7477  1.8621
  841MOL0     H15991   0.536   1.714  11.643 -3.2587 -0.1370 -1.6334
  841MOL0     H15992   0.662   1.801  11.546  0.9932 -0.9297 -1.8568
  841MOL0     H15993   0.736   1.562  11.645  2.4809  2.8120  0.1017
  841MOL0     H15994   0.607   1.507  11.527  0.1234  0.9031  0.2879
  841MOL0     H15995   0.745   1.620  11.353  2.9531 -0.3716 -1.8032
  841MOL0     H15996   0.851   1.684  11.483 -3.1169  2.7593 -0.8133
  841MOL0     H15997   0.831   1.408  11.357  0.6558  0.8488 -0.7197
  841MOL0     H15998   0.965   1.507  11.339  0.2205 -1.9705 -0.2066
  841MOL0     H15999   1.016   1.319  11.496 -0.6536 -0.8384  0.3219
  841MOL0     H16000   0.909   1.390  11.617  0.5483  0.4548  0.2593
  841MOL0     H16001   1.126   1.543  11.478  0.0436  0.0873  0.2252
  841MOL0     H16002   1.045   1.593  11.624 -0.5523  0.0923 -1.1865
  841MOL0     H16003   1.226   1.341  11.603 -0.4343 -2.2021  2.6727
  841MOL0     H16004   1.172   1.411  11.750  0.0957  1.6653  0.0960
  841MOL0     H16005   1.347   1.546  11.540  0.2819  0.6300 -0.1113
  841MOL0     H16006   1.322   1.623  11.692  0.6250 -0.0694  1.8078
  841MOL0     H16007   1.529   1.326  11.553  0.1851  0.0043 -0.5678
  841MOL0     H16008   1.761   1.242  11.648 -1.0035 -1.7540 -0.2668
  841MOL0     H16009   1.678   1.129  11.765  0.5865 -0.0421  2.0354
  841MOL0     H16010   1.913   1.207  11.812  0.1351  0.0178 -2.4386
  841MOL0     H16011   1.862   1.361  11.860  0.1807 -0.9182  2.1966
  841MOL0     H16012   1.732   1.300  12.035 -1.1314 -0.5424 -0.9589
  841MOL0     H16013   1.727   1.126  11.984  1.0869 -1.8123 -2.0960
  841MOL0     H16014   1.897   1.158  12.169 -0.0628  0.8459  0.3929
  841MOL0     H16015   1.982   1.120  12.019 -1.0923 -0.3297  0.6505
  841MOL0     H16016   2.061   1.162  12.281  0.5222 -0.3968 -0.3311
  841MOL0     H16017   2.341   1.129  12.476 -0.4424  0.3396  0.5761
  841MOL0     H16018   2.163   1.102  12.471  0.2164 -1.3876  2.1128
  841MOL0     H16019   2.240   1.228  12.572 -0.8618  0.4878 -0.1326
  841MOL0     H16020   2.441   1.585  12.644 -0.3456  0.6994  0.6064
  841MOL0     H16021   2.589   1.698  12.776 -0.6236 -0.3654  0.0043
  841MOL0     H16022   2.901   1.942  12.577  1.3636 -0.0860  1.0386
  841MOL0     H16023   2.921   1.959  12.755 -1.2061 -1.3841  2.7160
  841MOL0     H16024   3.091   1.797  12.754  1.5268 -1.4611 -2.1805
  841MOL0     H16025   3.059   1.739  12.586  0.5619  0.1622 -0.9441
  841MOL0     H16026   3.184   1.987  12.691  0.6886 -1.9466  0.9088
  841MOL0     H16027   3.123   1.975  12.523  1.9052  0.2596 -1.3559
  841MOL0     H16028   3.279   1.784  12.481 -2.7303  2.1882 -1.5858
  841MOL0     H16029   3.329   1.787  12.645 -3.1096 -0.7164 -0.2184
  841MOL0     H16030   3.400   2.058  12.519  2.0101  0.2288  1.5361
  841MOL0     H16031   3.482   1.940  12.616  0.8627 -0.0022 -0.0176
  841MOL0     H16032   3.441   1.947  12.307  0.6526  0.9009  0.0615
  841MOL0     H16033   3.476   1.794  12.385  1.1378  0.0230  0.2395
  841MOL0     H16034   3.672   1.874  12.492 -0.2327  1.0875  0.3284
  841MOL0     H16035   3.670   2.031  12.402  1.0580  0.2502  1.7323
  841MOL0     H16036   3.639   1.910  12.193  0.1178 -0.5016 -0.3350
  841MOL0     H16037   3.643   1.759  12.265 -4.0067  1.6209 -1.9745
  841MOL0     H16038   2.862   1.758  12.442  1.6867  0.7995  2.9645
  841MOL0     H16039   2.669   1.629  12.299  0.5304  1.4159 -0.9076
  841MOL0     H16040   2.354   1.535  12.171 -1.0001 -1.2346 -1.0715
  841MOL0     H16041   2.177   1.496  12.033 -2.5686 -1.9488 -2.6083
  841MOL0     H16042   0.516   1.962  11.527  1.4472 -1.0561 -1.9319
  841MOL0     H16043   0.301   2.112  11.553 -1.2060 -0.0580  0.7687
  841MOL0     H16044  -0.197   2.049  11.177  0.1790 -0.9857  0.6518
  841MOL0     H16045  -0.418   2.154  11.169  0.1200 -0.5440  0.3852
  841MOL0     H16046  -0.639   2.186  11.247  1.0651 -0.7850  1.1179
  841MOL0     H16047  -0.732   2.297  11.336 -0.2451 -0.6915 -0.0460
  841MOL0     H16048  -0.510   2.352  11.126  0.8955  2.9110 -1.3548
  841MOL0     H16049  -0.612   2.483  11.193 -0.7678 -0.3456  0.8596
  841MOL0     H16050  -0.719   2.257  11.017 -1.3679  0.3057  0.4202
  841MOL0     H16051  -0.824   2.331  11.126 -0.5243 -0.8511 -2.0985
  841MOL0     H16052  -0.651   2.479  10.912 -0.2764 -1.3040 -0.1632
  841MOL0     H16053  -0.752   2.565  11.037 -0.0100  1.0724 -1.6063
  841MOL0     H16054  -1.061   2.501  10.781  0.2690  0.3270 -0.7424
  841MOL0     H16055  -0.367   2.289  11.573 -0.3111 -0.7399  1.8992
  841MOL0     H16056  -0.122   2.099  11.684 -1.1754  0.3954  1.3920
  841MOL0     H16057  -0.031   2.233  11.606 -0.8156  3.5559  2.0771
  841MOL0     H16058  -0.184   2.259  11.691 -1.0041 -0.7305  0.4620
  842MOL0     O16059  10.186   2.506   8.120  0.3982  0.8743  0.0385
  842MOL0     C16060  10.185   2.470   8.002 -0.2187 -0.7047 -0.2163
  842MOL0     O16061  10.289   2.416   7.934  0.7497 -0.7261  0.2962
  842MOL0     C16062  10.413   2.420   7.991  0.5065  0.0325 -0.2226
  842MOL0     C16063  10.457   2.320   8.073 -0.5641  0.5369  1.0593
  842MOL0     C16064  10.589   2.323   8.137  0.3912  0.1806 -0.0682
  842MOL0     C16065  10.670   2.429   8.108 -0.7810 -0.2845  0.3727
  842MOL0     O16066  10.795   2.449   8.156 -0.1357  0.0236  0.1688
  842MOL0     C16067  10.834   2.398   8.283  1.0492  0.2045 -0.1340
  842MOL0     C16068  10.982   2.433   8.307 -0.1220 -0.4083  0.4049
  842MOL0     C16069  11.040   2.381   8.440  0.2118  0.1849  0.4612
  842MOL0     C16070  11.141   2.476   8.484  0.1272 -0.2121  0.6012
  842MOL0     C16071  11.236   2.443   8.602 -0.5105 -0.8103 -0.9154
  842MOL0     C16072  11.369   2.512   8.578  0.5226  0.0307  0.0482
  842MOL0     C16073  11.456   2.505   8.707 -0.0430 -0.4921 -0.5916
  842MOL0     C16074  11.483   2.651   8.757 -0.2185  0.4282  0.5062
  842MOL0     N16075  11.564   2.658   8.881  0.2518  0.2718 -0.2736
  842MOL0     C16076  11.546   2.595   9.002 -0.2806 -0.6829  1.1350
  842MOL0     C16077  11.662   2.632   9.066 -0.6905  0.0559  0.6203
  842MOL0     C16078  11.690   2.591   9.214  0.3255  0.3653 -0.7261
  842MOL0     C16079  11.731   2.435   9.223 -0.0218  0.5552 -0.3940
  842MOL0     C16080  11.865   2.407   9.159  0.3990  0.2643 -0.3586
  842MOL0     C16081  11.985   2.452   9.238 -0.6090  0.0348 -1.0511
  842MOL0     O16082  12.030   2.566   9.164  0.8729  0.4722 -0.2029
  842MOL0     C16083  12.145   2.562   9.092 -0.5773 -1.3312 -0.8689
  842MOL0     C16084  12.182   2.458   9.010 -0.1779 -0.0906  0.2477
  842MOL0     C16085  12.310   2.458   8.945  0.3614  0.8652 -0.3195
  842MOL0     C16086  12.325   2.338   8.849  0.3110 -0.3240  0.2466
  842MOL0     C16087  12.405   2.560   8.979 -0.3287 -0.1329  0.1261
  842MOL0     C16088  12.538   2.564   8.925 -0.5297 -0.4856  0.1975
  842MOL0     O16089  12.594   2.689   8.934 -0.3108 -0.5891 -0.2119
  842MOL0     C16090  12.723   2.717   8.888 -0.2149 -0.0976 -0.0836
  842MOL0     C16091  12.834   2.653   8.946  0.0324 -1.1569 -0.7197
  842MOL0     C16092  12.972   2.679   8.905  0.0929 -0.3563  0.6365
  842MOL0     C16093  12.997   2.776   8.804 -0.2174 -0.3562  0.7271
  842MOL0     O16094  13.120   2.787   8.752  0.0212  0.2914 -0.3350
  842MOL0     C16095  13.153   2.865   8.642 -0.1712 -0.3705  0.3458
  842MOL0     C16096  13.176   3.016   8.661 -0.2654 -0.4555 -0.2013
  842MOL0     C16097  13.247   3.048   8.792  0.0075  0.4262  0.0893
  842MOL0     C16098  13.386   2.988   8.812 -0.8723 -0.7024  0.6380
  842MOL0     C16099  13.481   3.091   8.743  0.6218  0.8846  0.0752
  842MOL0     C16100  13.632   3.052   8.751  0.1361  0.1556 -0.0792
  842MOL0     C16101  13.720   3.146   8.674  0.7004 -0.7250  0.2240
  842MOL0     C16102  13.864   3.090   8.662 -0.2618  0.7353 -0.5748
  842MOL0    Cl16103  13.976   3.197   8.578  0.5404  0.0648 -0.2752
  842MOL0     C16104  12.884   2.848   8.757  0.5665  0.1668  0.1609
  842MOL0     C16105  12.745   2.814   8.794 -0.8392  0.2839  0.0324
  842MOL0     O16106  12.596   2.474   8.865 -0.1992  0.4708 -0.4869
  842MOL0     C16107  12.356   2.673   9.051  0.2225 -0.2048  0.0801
  842MOL0     C16108  12.228   2.675   9.097  0.0014 -0.3102 -0.8057
  842MOL0     N16109  11.739   2.712   8.990 -0.2146 -0.3952 -0.4975
  842MOL0     N16110  11.673   2.734   8.887  0.6434  0.4207  0.2286
  842MOL0     C16111  10.629   2.521   8.008  0.1501 -1.1087  0.1532
  842MOL0     C16112  10.500   2.522   7.960  0.8085  0.6255 -0.0843
  842MOL0     C16113  10.051   2.469   7.945  0.2575 -0.9066  0.3703
  842MOL0     C16114  10.015   2.374   7.850  0.3042  0.2972 -0.2242
  842MOL0     C16115   9.887   2.366   7.798 -0.4604  0.7241 -0.5123
  842MOL0     C16116   9.790   2.454   7.838  0.0147  0.4546  0.1978
  842MOL0     O16117   9.668   2.443   7.764  0.2986  0.1955  0.1746
  842MOL0     C16118   9.544   2.485   7.839 -0.7783  0.1782  0.0623
  842MOL0     C16119   9.437   2.393   7.791  0.1180 -0.3585  0.5115
  842MOL0     C16120   9.310   2.471   7.760 -0.0709  0.3088  0.7967
  842MOL0     C16121   9.189   2.369   7.738 -0.0835  0.4890 -1.2038
  842MOL0     C16122   9.083   2.448   7.681  1.1344 -0.4750  0.0814
  842MOL0     C16123   9.002   2.529   7.618 -0.2477 -0.8313 -0.0653
  842MOL0     C16124   9.815   2.558   7.928 -0.0616  0.5118 -0.3657
  842MOL0     C16125   9.947   2.567   7.978 -0.5249 -0.0693  0.7218
  842MOL0     C16126   9.975   2.679   8.073  0.3733  0.1079 -0.1352
  842MOL0     H16127  10.398   2.233   8.099  0.5513 -0.3337  0.7712
  842MOL0     H16128  10.615   2.250   8.212  0.4892  0.7293  0.4398
  842MOL0     H16129  10.827   2.289   8.285 -0.1694  0.2674  1.6572
  842MOL0     H16130  10.760   2.430   8.357  1.7597 -1.2247  1.2445
  842MOL0     H16131  11.040   2.396   8.223 -1.1719  2.2676 -1.6486
  842MOL0     H16132  10.987   2.542   8.296  0.2423 -0.3653  0.9507
  842MOL0     H16133  10.959   2.385   8.513 -1.2128  4.8029 -1.0597
  842MOL0     H16134  11.089   2.284   8.423  3.0149  2.0315 -3.4219
  842MOL0     H16135  11.211   2.494   8.402 -0.8003 -2.9026 -0.8618
  842MOL0     H16136  11.086   2.566   8.514 -0.4716 -0.6149  0.7113
  842MOL0     H16137  11.248   2.335   8.618 -2.7992 -0.9810  0.0952
  842MOL0     H16138  11.179   2.474   8.690 -1.5041 -1.4699 -1.3006
  842MOL0     H16139  11.423   2.463   8.496 -1.3832  1.7394 -2.4269
  842MOL0     H16140  11.363   2.615   8.541 -0.2172 -0.2237 -0.5543
  842MOL0     H16141  11.554   2.458   8.693  1.0203  1.9054 -1.9227
  842MOL0     H16142  11.395   2.457   8.784 -0.4169  1.4149  0.3481
  842MOL0     H16143  11.542   2.699   8.678  1.1528 -0.3279  1.0437
  842MOL0     H16144  11.388   2.703   8.768  0.6447  2.0646  0.5845
  842MOL0     H16145  11.466   2.522   9.017 -2.6707  1.1732 -1.4534
  842MOL0     H16146  11.595   2.594   9.268 -1.9571 -1.2748 -4.2510
  842MOL0     H16147  11.765   2.653   9.263 -0.2378 -0.6704  1.6069
  842MOL0     H16148  11.732   2.414   9.330 -0.8706  0.1726 -0.4534
  842MOL0     H16149  11.645   2.376   9.188 -0.6571 -0.0155  1.9116
  842MOL0     H16150  11.875   2.300   9.176  0.1615  0.1770 -0.7691
  842MOL0     H16151  11.872   2.430   9.053  1.7469 -2.6101 -0.9858
  842MOL0     H16152  11.955   2.479   9.340  4.4233  0.5292  0.5967
  842MOL0     H16153  12.064   2.377   9.242  0.4328  1.1298  0.4133
  842MOL0     H16154  12.123   2.368   8.994  3.1455 -1.9156 -3.5431
  842MOL0     H16155  12.230   2.334   8.795 -0.4867  1.7552  1.4047
  842MOL0     H16156  12.346   2.247   8.905 -0.3931 -0.6667 -0.0400
  842MOL0     H16157  12.405   2.353   8.776 -0.3774 -2.5657 -1.0768
  842MOL0     H16158  12.808   2.587   9.029 -1.5053  0.7625  0.4165
  842MOL0     H16159  13.065   2.638   8.943  0.1179 -0.5355  0.3804
  842MOL0     H16160  13.248   2.827   8.604 -0.3976 -0.2090 -0.3857
  842MOL0     H16161  13.080   2.854   8.562  1.1381  0.0976 -0.9552
  842MOL0     H16162  13.226   3.058   8.574  0.8343  0.4674  0.8322
  842MOL0     H16163  13.083   3.074   8.667 -0.0072 -0.1591  1.6378
  842MOL0     H16164  13.184   3.008   8.872  0.1150 -1.1055 -0.5616
  842MOL0     H16165  13.260   3.157   8.795  0.0359  0.4533 -0.8645
  842MOL0     H16166  13.394   2.884   8.781  1.5712  0.3974 -3.2009
  842MOL0     H16167  13.404   2.988   8.920 -3.4014 -0.0299  1.1316
  842MOL0     H16168  13.446   3.113   8.641  0.0586  1.0190  0.2956
  842MOL0     H16169  13.476   3.181   8.804  0.0638 -0.0392  1.4408
  842MOL0     H16170  13.632   2.954   8.702  0.2891 -0.4044  1.0063
  842MOL0     H16171  13.651   3.035   8.858 -1.1172 -0.0106  0.1310
  842MOL0     H16172  13.721   3.241   8.728 -1.2632 -1.3506  1.4479
  842MOL0     H16173  13.672   3.169   8.578 -2.1889 -0.5567  1.6250
  842MOL0     H16174  13.854   2.989   8.622  0.2124  0.5413 -0.2054
  842MOL0     H16175  13.903   3.082   8.764 -2.5219 -0.8732  0.2461
  842MOL0     H16176  12.896   2.934   8.692 -0.8459  1.4583  1.5371
  842MOL0     H16177  12.666   2.877   8.756  0.9888  2.5942 -0.1856
  842MOL0     H16178  12.399   2.772   9.062 -1.1706  0.4366 -0.0795
  842MOL0     H16179  12.199   2.762   9.154 -1.2927 -1.4591  0.3467
  842MOL0     H16180  10.702   2.599   7.986  1.5859 -1.9153  1.7761
  842MOL0     H16181  10.473   2.592   7.882 -1.8340 -0.1488  0.0370
  842MOL0     H16182  10.087   2.301   7.816 -1.7205 -1.0666 -1.8688
  842MOL0     H16183   9.866   2.289   7.725 -1.0000 -0.1696  0.5633
  842MOL0     H16184   9.567   2.473   7.946  2.3392 -0.7709 -0.6143
  842MOL0     H16185   9.533   2.589   7.807  0.7192 -0.2152 -1.9359
  842MOL0     H16186   9.412   2.320   7.869 -0.8621 -1.7234 -0.9928
  842MOL0     H16187   9.467   2.336   7.702 -1.6869  0.0895 -0.4458
  842MOL0     H16188   9.292   2.548   7.835 -1.6598 -1.5365  2.4044
  842MOL0     H16189   9.324   2.528   7.667  2.8594 -1.5824 -0.0716
  842MOL0     H16190   9.146   2.321   7.826 -0.1446  1.1123 -0.8907
  842MOL0     H16191   9.219   2.292   7.667  0.4185 -0.1144 -0.3556
  842MOL0     H16192   8.932   2.599   7.578  1.4349  1.0548  0.1816
  842MOL0     H16193   9.740   2.635   7.939  0.4318  0.7972  1.1974
  842MOL0     H16194   9.967   2.649   8.178 -0.5759 -0.0565 -0.2450
  842MOL0     H16195  10.076   2.713   8.051  1.2290 -1.4391  1.1950
  842MOL0     H16196   9.909   2.766   8.060  0.3545  0.4665  1.9560
  843MOL0     O16197   4.193   5.916   9.124 -0.4275 -0.1076 -1.1008
  843MOL0     C16198   4.219   5.820   9.050  0.1395 -0.5614  0.0651
  843MOL0     O16199   4.211   5.821   8.915 -0.0877 -0.2206 -0.0152
  843MOL0     C16200   4.159   5.932   8.844  0.0032  1.3550 -1.0717
  843MOL0     C16201   4.063   5.913   8.743  0.5904  0.2554 -0.5731
  843MOL0     C16202   4.041   6.025   8.656  0.5695 -0.0212  0.3627
  843MOL0     C16203   4.110   6.149   8.669 -0.1883 -0.4263  0.3576
  843MOL0     O16204   4.086   6.243   8.575  0.5640 -0.0050 -0.0839
  843MOL0     C16205   4.189   6.327   8.533 -0.9760 -0.2609  0.1924
  843MOL0     C16206   4.185   6.461   8.615  0.2071  0.5946 -0.0773
  843MOL0     C16207   4.322   6.529   8.599 -0.3340  0.0232 -0.3560
  843MOL0     C16208   4.335   6.666   8.674  0.5851  0.6513 -0.7114
  843MOL0     C16209   4.478   6.715   8.660  0.7372  0.0202 -0.3242
  843MOL0     C16210   4.571   6.672   8.771  0.1729  0.1301 -1.0308
  843MOL0     C16211   4.721   6.686   8.739 -0.4026 -0.0460  0.5351
  843MOL0     C16212   4.740   6.811   8.650  1.0315  0.5568  0.2208
  843MOL0     N16213   4.879   6.848   8.654 -0.6617 -0.1802  0.1858
  843MOL0     C16214   4.952   6.880   8.773  0.5924  0.8191  0.2960
  843MOL0     C16215   5.075   6.905   8.727 -0.8059  0.2662  0.6654
  843MOL0     C16216   5.179   6.937   8.825  0.7180 -0.1772  0.5849
  843MOL0     C16217   5.313   6.956   8.752  0.3600 -0.1071  0.5702
  843MOL0     C16218   5.436   6.954   8.834  0.4704  0.6677 -0.1804
  843MOL0     C16219   5.547   7.061   8.792  1.0449 -0.8030  0.2071
  843MOL0     O16220   5.672   7.030   8.852  0.5244 -0.0504 -0.3767
  843MOL0     C16221   5.780   7.104   8.810  0.1814  0.7611 -0.1500
  843MOL0     C16222   5.786   7.209   8.719  0.4059  0.2095 -0.4717
  843MOL0     C16223   5.908   7.269   8.690 -0.1462  0.2585 -0.1197
  843MOL0     C16224   5.906   7.385   8.598 -0.0015 -0.0564  0.4587
  843MOL0     C16225   6.031   7.238   8.759 -0.3399 -0.3609 -0.7699
  843MOL0     C16226   6.170   7.287   8.732 -0.2003  0.2169 -0.8844
  843MOL0     O16227   6.255   7.278   8.828  0.4075  0.3358 -0.8992
  843MOL0     C16228   6.388   7.285   8.807  0.2399 -0.3575 -0.0866
  843MOL0     C16229   6.443   7.184   8.733 -1.0061  1.2575 -0.4002
  843MOL0     C16230   6.581   7.187   8.693 -0.6653  0.9037 -0.7791
  843MOL0     C16231   6.658   7.291   8.731 -0.8247  0.0048  0.2954
  843MOL0     O16232   6.796   7.282   8.682 -0.9332  0.2222  0.1447
  843MOL0     C16233   6.877   7.399   8.690  1.1171 -0.0596 -0.2506
  843MOL0     C16234   6.966   7.388   8.564  0.1148  0.4118  0.1966
  843MOL0     C16235   7.052   7.505   8.544 -0.2917 -0.0641  0.8020
  843MOL0     C16236   7.119   7.509   8.401  0.7858 -0.4062  0.1426
  843MOL0     C16237   7.230   7.614   8.405  0.3097  0.0841  1.0270
  843MOL0     C16238   7.267   7.671   8.270 -0.2941  0.2445  0.0386
  843MOL0     C16239   7.346   7.801   8.273 -0.4773 -0.2246 -0.4539
  843MOL0     C16240   7.431   7.828   8.148 -0.7166  0.1581 -0.0964
  843MOL0    Cl16241   7.336   7.856   7.996  0.4904  0.5258 -0.0956
  843MOL0     C16242   6.604   7.398   8.801  0.2537 -0.0115 -0.0929
  843MOL0     C16243   6.472   7.388   8.848 -0.9240 -0.7074  0.2629
  843MOL0     O16244   6.190   7.327   8.624 -0.0315 -0.2079  0.5207
  843MOL0     C16245   6.020   7.141   8.859 -0.0699 -0.4827 -0.1663
  843MOL0     C16246   5.896   7.075   8.884 -0.1116 -0.0608 -0.0174
  843MOL0     N16247   5.083   6.889   8.586 -0.6620 -0.1098 -0.5858
  843MOL0     N16248   4.958   6.868   8.547 -0.2175 -0.7325  0.3802
  843MOL0     C16249   4.198   6.166   8.775  0.7099 -1.2904 -1.1898
  843MOL0     C16250   4.226   6.055   8.862  0.5849 -0.4207  0.0491
  843MOL0     C16251   4.266   5.696   9.107  0.1022  0.3785 -0.3042
  843MOL0     C16252   4.223   5.574   9.044 -0.5752  0.5452  0.2592
  843MOL0     C16253   4.261   5.439   9.098 -0.0576 -0.6704 -0.0276
  843MOL0     C16254   4.336   5.439   9.214  0.7377 -0.4681 -0.2614
  843MOL0     O16255   4.364   5.319   9.276 -0.5875 -0.2624  0.2093
  843MOL0     C16256   4.332   5.306   9.415 -0.2894 -0.5141 -0.4101
  843MOL0     C16257   4.186   5.268   9.434  0.3155  0.4598  0.4504
  843MOL0     C16258   4.146   5.268   9.581 -0.0722 -0.5166  0.0825
  843MOL0     C16259   4.000   5.211   9.604 -0.6972 -0.4568  0.3536
  843MOL0     C16260   3.992   5.068   9.590  0.2099  0.4820 -0.3940
  843MOL0     C16261   3.977   4.953   9.575  0.1251  0.3210  0.8134
  843MOL0     C16262   4.396   5.559   9.266 -0.2764  0.0038 -0.4606
  843MOL0     C16263   4.348   5.688   9.221 -0.0250 -0.3389 -0.0352
  843MOL0     C16264   4.387   5.810   9.302  0.2335  0.2185 -0.8578
  843MOL0     H16265   4.008   5.821   8.725  0.2830  0.0476  1.2298
  843MOL0     H16266   3.961   6.025   8.583  0.4784  1.4927  0.4302
  843MOL0     H16267   4.186   6.359   8.428  3.4910  1.0528  0.2532
  843MOL0     H16268   4.285   6.277   8.550 -0.4540  1.1440  1.5576
  843MOL0     H16269   4.096   6.519   8.590 -0.2544  0.2351  0.7030
  843MOL0     H16270   4.170   6.445   8.722  0.2597  1.7720  0.1155
  843MOL0     H16271   4.392   6.466   8.654 -1.2749  0.7296  1.7475
  843MOL0     H16272   4.353   6.535   8.494 -0.6647  1.4692 -0.3977
  843MOL0     H16273   4.267   6.746   8.641 -0.3072  1.2324  2.2167
  843MOL0     H16274   4.313   6.650   8.780  1.8331 -3.6605 -0.8984
  843MOL0     H16275   4.476   6.823   8.645 -0.5834 -0.2804 -2.9837
  843MOL0     H16276   4.517   6.681   8.563 -0.3412 -1.4380 -0.2837
  843MOL0     H16277   4.538   6.731   8.858  1.3926  0.0406 -0.4956
  843MOL0     H16278   4.555   6.569   8.805 -0.6431  1.3216  2.6671
  843MOL0     H16279   4.755   6.596   8.688 -1.0961 -0.6698  1.1553
  843MOL0     H16280   4.788   6.693   8.825  2.0094 -1.7648 -1.0893
  843MOL0     H16281   4.714   6.795   8.545  1.3989 -2.8985  0.5428
  843MOL0     H16282   4.684   6.895   8.691  0.7815 -0.9225  3.2058
  843MOL0     H16283   4.922   6.882   8.877 -1.6158  0.5738 -0.2836
  843MOL0     H16284   5.187   6.852   8.894  0.0382  0.4395  1.4558
  843MOL0     H16285   5.157   7.031   8.878  2.5903  0.3680  0.4782
  843MOL0     H16286   5.330   6.884   8.672 -2.4250  0.7473 -0.9163
  843MOL0     H16287   5.300   7.049   8.696 -2.6007 -2.5822 -3.4089
  843MOL0     H16288   5.405   6.974   8.937 -2.5986  0.8198 -1.0182
  843MOL0     H16289   5.491   6.860   8.838  1.1520  1.1172  1.7538
  843MOL0     H16290   5.547   7.053   8.683 -2.7365 -0.6092  0.0427
  843MOL0     H16291   5.502   7.152   8.832 -0.9703 -1.4192 -0.5257
  843MOL0     H16292   5.692   7.235   8.672  0.7643  1.3093 -0.6121
  843MOL0     H16293   5.932   7.480   8.645 -0.0056 -0.1424  0.6354
  843MOL0     H16294   5.812   7.390   8.542 -0.9208 -1.4930  1.7891
  843MOL0     H16295   5.979   7.373   8.518  2.6352 -1.5545  2.8835
  843MOL0     H16296   6.372   7.108   8.701  0.3831  1.3412 -4.1767
  843MOL0     H16297   6.615   7.107   8.629 -2.3905  1.2151 -2.1688
  843MOL0     H16298   6.827   7.495   8.675  4.2503  1.7550 -0.0692
  843MOL0     H16299   6.937   7.401   8.782  0.3840 -1.1179  0.2685
  843MOL0     H16300   7.034   7.303   8.572  1.8276  1.8170  1.3315
  843MOL0     H16301   6.900   7.382   8.477 -0.7791  0.2640  0.8714
  843MOL0     H16302   7.129   7.506   8.622  2.0069 -0.5640 -1.3417
  843MOL0     H16303   7.004   7.600   8.568  1.3924  0.3083  3.1684
  843MOL0     H16304   7.039   7.534   8.331 -0.7084 -1.3288  1.4540
  843MOL0     H16305   7.158   7.414   8.363  0.0240  0.4764 -3.0999
  843MOL0     H16306   7.194   7.698   8.465 -0.4458  1.4250 -1.1571
  843MOL0     H16307   7.330   7.587   8.441 -0.0010 -2.3615  0.2290
  843MOL0     H16308   7.179   7.686   8.206  0.1571 -1.8343 -1.1602
  843MOL0     H16309   7.320   7.587   8.223  0.2801 -0.3670  1.7038
  843MOL0     H16310   7.420   7.788   8.352 -1.2552 -3.8656 -0.1621
  843MOL0     H16311   7.281   7.884   8.303  1.7079  1.1784  0.6362
  843MOL0     H16312   7.492   7.739   8.132 -1.5428 -0.2865 -0.8438
  843MOL0     H16313   7.495   7.914   8.171 -3.4264  2.0898  0.8587
  843MOL0     H16314   6.669   7.479   8.831 -0.3519 -0.2574  2.0567
  843MOL0     H16315   6.438   7.467   8.915 -0.5136  1.5387 -2.0180
  843MOL0     H16316   6.101   7.095   8.916  1.6288  0.6303 -1.5877
  843MOL0     H16317   5.884   6.992   8.953  2.4514 -1.3484 -0.9746
  843MOL0     H16318   4.233   6.264   8.806 -0.2095 -1.4641  0.5221
  843MOL0     H16319   4.297   6.059   8.945 -0.2583 -0.2454  0.7823
  843MOL0     H16320   4.149   5.572   8.965 -1.2493  1.2152  0.8591
  843MOL0     H16321   4.208   5.353   9.058  0.6995  0.3237 -3.5614
  843MOL0     H16322   4.390   5.218   9.445  0.6496  0.3034  0.2422
  843MOL0     H16323   4.340   5.394   9.479 -1.8180 -0.9087  0.3584
  843MOL0     H16324   4.173   5.168   9.394 -0.8723  0.1752  1.4776
  843MOL0     H16325   4.123   5.337   9.377  4.3283  1.5661 -3.2108
  843MOL0     H16326   4.219   5.216   9.645 -0.1269 -2.6263 -1.4394
  843MOL0     H16327   4.144   5.376   9.597  1.4440 -0.0684 -2.2421
  843MOL0     H16328   3.939   5.263   9.529  0.3542 -0.2478 -0.3784
  843MOL0     H16329   3.959   5.244   9.699 -2.7064  1.4662 -1.0706
  843MOL0     H16330   3.956   4.849   9.562  1.8646  0.1651 -1.3445
  843MOL0     H16331   4.467   5.552   9.348  0.3736  0.1655 -1.0095
  843MOL0     H16332   4.460   5.869   9.245  2.2884 -1.1402  0.2550
  843MOL0     H16333   4.302   5.874   9.329 -1.1233 -0.9777 -2.1309
  843MOL0     H16334   4.436   5.778   9.394 -0.0953  6.5511  2.0237
  844MOL0     O16335   1.744   4.049   7.933  0.5440  0.1502 -0.1911
  844MOL0     C16336   1.766   4.025   7.814  0.6203 -0.1678 -0.1992
  844MOL0     O16337   1.882   4.057   7.750  0.1987 -0.6138  0.1460
  844MOL0     C16338   1.984   4.130   7.804  0.0256 -0.4058  0.2821
  844MOL0     C16339   1.978   4.212   7.919 -0.0940 -0.7853 -0.1952
  844MOL0     C16340   2.080   4.302   7.946 -0.4609 -0.3021  0.4608
  844MOL0     C16341   2.193   4.303   7.865  0.5635 -0.7886  0.2281
  844MOL0     O16342   2.288   4.400   7.901 -0.1008  0.5541  0.0688
  844MOL0     C16343   2.416   4.385   7.845  0.0505 -0.1384  0.5140
  844MOL0     C16344   2.517   4.479   7.913  0.2888 -0.1911  0.9682
  844MOL0     C16345   2.658   4.451   7.853 -0.5629 -0.3181  0.0951
  844MOL0     C16346   2.760   4.559   7.903 -0.2040  0.5091 -0.1157
  844MOL0     C16347   2.899   4.541   7.834  0.3867 -0.3737 -0.2043
  844MOL0     C16348   2.951   4.398   7.849  0.2852 -0.4088 -0.4045
  844MOL0     C16349   3.105   4.394   7.822 -0.1458  0.0886  0.4055
  844MOL0     C16350   3.165   4.274   7.906 -1.0715  0.2151  0.6699
  844MOL0     N16351   3.180   4.306   8.050  0.1851  0.7400  0.5039
  844MOL0     C16352   3.244   4.406   8.106 -0.2823 -0.5582  0.3992
  844MOL0     C16353   3.251   4.370   8.237 -0.0568  0.3328 -0.6693
  844MOL0     C16354   3.321   4.446   8.348  0.3651  0.3508  0.5026
  844MOL0     C16355   3.462   4.468   8.297  0.6634  0.7841 -0.5145
  844MOL0     C16356   3.510   4.612   8.308  0.0612 -0.0288  0.2937
  844MOL0     C16357   3.615   4.645   8.204  0.0411  1.0395 -0.3314
  844MOL0     O16358   3.613   4.782   8.148  0.1999 -0.4744 -0.8613
  844MOL0     C16359   3.731   4.850   8.176  0.1694 -0.7846  0.0942
  844MOL0     C16360   3.753   4.904   8.302  0.7902  0.2188 -0.3555
  844MOL0     C16361   3.865   4.974   8.334 -0.3774  0.3838 -0.3755
  844MOL0     C16362   3.859   5.035   8.465  0.0153 -0.7863 -0.4813
  844MOL0     C16363   3.962   4.988   8.237  0.6056  0.2411  0.0881
  844MOL0     C16364   4.081   5.071   8.253 -0.4901 -0.5799 -0.1865
  844MOL0     O16365   4.100   5.164   8.161  0.7858 -0.2143  0.1780
  844MOL0     C16366   4.210   5.249   8.159  0.8276 -0.3431 -0.6469
  844MOL0     C16367   4.340   5.201   8.148 -0.3161 -0.1388 -0.3028
  844MOL0     C16368   4.444   5.291   8.128  0.8048 -0.2034  1.0165
  844MOL0     C16369   4.417   5.431   8.139 -0.2255 -0.2017 -1.1388
  844MOL0     O16370   4.518   5.526   8.117  0.7996 -0.5146 -0.9417
  844MOL0     C16371   4.656   5.488   8.121 -0.5238 -0.0787  0.5156
  844MOL0     C16372   4.745   5.610   8.130 -0.0866  1.2566  0.3942
  844MOL0     C16373   4.746   5.686   8.256  0.0154 -0.2233  0.4369
  844MOL0     C16374   4.713   5.826   8.224  0.1834 -0.5487  0.2176
  844MOL0     C16375   4.817   5.912   8.141  0.2577  0.1368 -0.6163
  844MOL0     C16376   4.950   5.929   8.215  0.9141  0.6194  1.5932
  844MOL0     C16377   5.031   6.022   8.123 -0.1204  0.0451  0.7799
  844MOL0     C16378   5.159   6.085   8.193  0.1976 -0.6201  0.4034
  844MOL0    Cl16379   5.122   6.175   8.335  0.3113  0.0040  0.1538
  844MOL0     C16380   4.284   5.469   8.155  0.9292 -0.3293 -0.3858
  844MOL0     C16381   4.179   5.380   8.172 -0.2665  0.8618 -0.0440
  844MOL0     O16382   4.163   5.045   8.348 -0.1232 -0.4376  0.0313
  844MOL0     C16383   3.951   4.924   8.111  0.9895  0.3995 -0.1285
  844MOL0     C16384   3.826   4.864   8.078  0.0288  0.4970 -0.5955
  844MOL0     N16385   3.178   4.255   8.252  0.0548 -0.3691 -0.0695
  844MOL0     N16386   3.138   4.212   8.139  0.2787 -0.0702  0.0285
  844MOL0     C16387   2.199   4.222   7.756  0.0755 -0.0572  0.4792
  844MOL0     C16388   2.097   4.134   7.727  0.1900 -0.0770  0.1875
  844MOL0     C16389   1.668   3.936   7.738  0.3861 -0.1256 -0.2195
  844MOL0     C16390   1.705   3.883   7.613 -0.4936  0.9062  0.1535
  844MOL0     C16391   1.621   3.798   7.545 -0.7809  0.4893  0.1347
  844MOL0     C16392   1.500   3.761   7.601 -0.3122  0.6272 -0.9660
  844MOL0     O16393   1.408   3.668   7.552 -0.5252  0.2231 -0.0415
  844MOL0     C16394   1.435   3.576   7.447  0.2401  1.1690 -0.1585
  844MOL0     C16395   1.298   3.514   7.416  0.9036  0.2407  0.2102
  844MOL0     C16396   1.266   3.444   7.287 -0.2847  0.3576 -0.3751
  844MOL0     C16397   1.270   3.528   7.161 -0.0564 -0.1060 -0.9966
  844MOL0     C16398   1.148   3.612   7.159  0.3370 -0.4663 -0.4099
  844MOL0     C16399   1.050   3.677   7.165  0.5724 -0.3653 -0.1984
  844MOL0     C16400   1.450   3.823   7.712  0.3183  1.1942 -0.1454
  844MOL0     C16401   1.528   3.919   7.778  0.0005 -0.7506  0.2273
  844MOL0     C16402   1.445   3.971   7.899 -0.4200  0.9035 -0.9222
  844MOL0     H16403   1.900   4.210   7.995  0.2989 -2.0551  0.2145
  844MOL0     H16404   2.067   4.368   8.031  0.0084 -2.1127  2.0243
  844MOL0     H16405   2.420   4.403   7.738 -2.2936 -2.8066 -0.1021
  844MOL0     H16406   2.450   4.283   7.867 -0.4684 -1.0659 -2.5296
  844MOL0     H16407   2.479   4.581   7.901  1.0767  0.1281  1.1579
  844MOL0     H16408   2.520   4.459   8.021 -3.0572 -1.6388  0.9174
  844MOL0     H16409   2.691   4.353   7.890 -3.1180 -1.5026 -0.5623
  844MOL0     H16410   2.658   4.447   7.744  1.8552 -1.4207  0.0574
  844MOL0     H16411   2.717   4.654   7.869 -1.5213  1.6330  4.1339
  844MOL0     H16412   2.767   4.551   8.011  0.4790 -1.4945 -0.2697
  844MOL0     H16413   2.966   4.611   7.885  0.5864  0.8903 -2.0788
  844MOL0     H16414   2.902   4.568   7.728  0.7602  3.7385  0.6619
  844MOL0     H16415   2.932   4.376   7.954  0.5304 -1.5178 -0.5829
  844MOL0     H16416   2.897   4.327   7.786 -0.1031  0.9256 -1.6268
  844MOL0     H16417   3.143   4.493   7.849 -2.4963  0.8335  1.2602
  844MOL0     H16418   3.115   4.381   7.714  0.2206  0.3046  0.4110
  844MOL0     H16419   3.097   4.188   7.900 -3.2495  1.7769  1.5139
  844MOL0     H16420   3.267   4.260   7.870 -0.2759  1.1000  2.4265
  844MOL0     H16421   3.289   4.485   8.047 -1.8683 -0.8451 -1.2809
  844MOL0     H16422   3.312   4.394   8.444  0.7806  0.7913  0.7832
  844MOL0     H16423   3.274   4.544   8.364  1.6672  1.3207 -1.3100
  844MOL0     H16424   3.525   4.408   8.363  0.5789  2.2144  0.9229
  844MOL0     H16425   3.480   4.420   8.200  0.5826 -1.1293  0.3616
  844MOL0     H16426   3.427   4.683   8.293 -1.4616 -1.8544 -0.3813
  844MOL0     H16427   3.550   4.625   8.409 -4.3664  0.5384  2.2587
  844MOL0     H16428   3.713   4.621   8.246  0.6912  0.0803 -2.3115
  844MOL0     H16429   3.595   4.570   8.127 -2.5800 -0.1609  1.3582
  844MOL0     H16430   3.678   4.897   8.380  0.8580  0.4657 -0.2673
  844MOL0     H16431   3.812   5.132   8.448  1.4308 -0.2129 -1.3565
  844MOL0     H16432   3.958   5.049   8.509  0.5365 -1.7798 -1.2886
  844MOL0     H16433   3.806   4.973   8.538 -0.9651 -1.4766 -1.7348
  844MOL0     H16434   4.357   5.095   8.133 -2.5701 -0.4649 -1.0059
  844MOL0     H16435   4.543   5.262   8.095 -0.3014 -0.0659 -3.0141
  844MOL0     H16436   4.670   5.431   8.213  0.8040  1.0087  1.0353
  844MOL0     H16437   4.688   5.436   8.030  1.8922  0.5504  0.9169
  844MOL0     H16438   4.846   5.568   8.123 -0.2803  0.9572 -0.7911
  844MOL0     H16439   4.720   5.673   8.044 -0.0327  0.6486 -0.0739
  844MOL0     H16440   4.842   5.674   8.308 -0.5411 -0.8521  1.3346
  844MOL0     H16441   4.671   5.642   8.322 -0.3036 -0.0769  0.1780
  844MOL0     H16442   4.697   5.879   8.318  1.6227 -0.3174  0.3559
  844MOL0     H16443   4.614   5.826   8.177 -0.7325  0.0804  2.0499
  844MOL0     H16444   4.833   5.870   8.041 -0.3716 -1.2322 -0.1764
  844MOL0     H16445   4.773   6.010   8.123  0.6887  0.9164  2.0581
  844MOL0     H16446   5.007   5.835   8.217 -1.3716 -1.1039 -2.1019
  844MOL0     H16447   4.938   5.969   8.316 -0.9461  1.7941  0.9482
  844MOL0     H16448   4.972   6.111   8.102 -0.9423 -0.7138 -0.2389
  844MOL0     H16449   5.054   5.973   8.028 -1.8076 -3.8123  2.1292
  844MOL0     H16450   5.196   6.162   8.126  1.4675 -0.8650  0.7852
  844MOL0     H16451   5.248   6.021   8.204 -1.2770 -2.5588  1.7900
  844MOL0     H16452   4.258   5.574   8.159  1.0181 -0.1269 -3.2333
  844MOL0     H16453   4.077   5.406   8.199 -0.1774 -0.8125  2.2849
  844MOL0     H16454   4.035   4.935   8.043  1.2247  0.0135  0.0998
  844MOL0     H16455   3.812   4.823   7.979  2.1605 -0.7850 -0.4112
  844MOL0     H16456   2.289   4.210   7.697 -0.0934  1.5085 -0.1344
  844MOL0     H16457   2.094   4.061   7.647  1.9170 -1.8695  1.6582
  844MOL0     H16458   1.805   3.909   7.581  1.2982 -0.9772  3.5809
  844MOL0     H16459   1.651   3.755   7.450 -1.4719  0.9826 -0.3159
  844MOL0     H16460   1.463   3.625   7.353 -1.1157  1.0818 -0.6309
  844MOL0     H16461   1.494   3.486   7.471 -0.9186  0.0537 -1.3284
  844MOL0     H16462   1.226   3.593   7.436  0.2317 -0.4314  0.5239
  844MOL0     H16463   1.269   3.441   7.493 -1.9513  1.6932  0.6354
  844MOL0     H16464   1.341   3.365   7.277 -0.6946 -0.1782  0.6769
  844MOL0     H16465   1.170   3.393   7.298  1.1228 -2.2400  0.8280
  844MOL0     H16466   1.272   3.462   7.073  1.1088 -2.5139  0.7361
  844MOL0     H16467   1.364   3.583   7.156  0.1457 -0.4075 -0.5312
  844MOL0     H16468   0.963   3.741   7.170  1.5426  1.0809 -1.0333
  844MOL0     H16469   1.348   3.802   7.744  0.2389  0.8036 -0.6352
  844MOL0     H16470   1.340   3.975   7.871 -0.7726 -1.2948 -0.1592
  844MOL0     H16471   1.465   3.905   7.985  1.2498  1.3643 -0.9127
  844MOL0     H16472   1.483   4.066   7.938 -0.5418  0.2631  0.8564
  845MOL0     O16473  10.638   4.293  10.159  0.5854 -0.2875 -0.6522
  845MOL0     C16474  10.629   4.318  10.280  0.1035 -0.8882 -0.6584
  845MOL0     O16475  10.729   4.311  10.373 -0.2877  0.1001  0.0262
  845MOL0     C16476  10.849   4.378  10.351  0.5901  0.1511  0.2874
  845MOL0     C16477  10.967   4.314  10.408  0.6082  0.2252  0.5662
  845MOL0     C16478  11.092   4.365  10.390  0.8795  0.0758 -0.1069
  845MOL0     C16479  11.107   4.483  10.309  0.0788 -0.0424  0.1234
  845MOL0     O16480  11.232   4.543  10.308 -0.2554  0.1262  0.1172
  845MOL0     C16481  11.333   4.498  10.401  0.2082 -0.1537 -0.3028
  845MOL0     C16482  11.434   4.613  10.407 -0.5097  0.0161 -0.5648
  845MOL0     C16483  11.477   4.667  10.271  0.2545  0.6735  0.7769
  845MOL0     C16484  11.573   4.783  10.269 -0.1028  0.2732  0.6144
  845MOL0     C16485  11.705   4.734  10.323 -0.2020 -0.2763  0.3268
  845MOL0     C16486  11.816   4.835  10.287 -0.0167 -0.0672  0.4949
  845MOL0     C16487  11.960   4.793  10.347  0.1249 -0.3004 -0.7893
  845MOL0     C16488  12.079   4.877  10.314  0.0961 -0.1512  1.1639
  845MOL0     N16489  12.109   4.882  10.164  0.0770 -0.5329 -0.8830
  845MOL0     C16490  12.125   4.779  10.080 -0.6406 -0.6717  0.3870
  845MOL0     C16491  12.136   4.836   9.955 -0.7888  0.1349 -0.0467
  845MOL0     C16492  12.156   4.772   9.820  0.8735  0.2615 -0.5207
  845MOL0     C16493  12.293   4.791   9.760  0.2398 -0.6691 -0.3318
  845MOL0     C16494  12.314   4.701   9.636  0.2239  0.1229 -0.3655
  845MOL0     C16495  12.468   4.702   9.592  0.2363  0.0637  0.3498
  845MOL0     O16496  12.504   4.832   9.549 -0.8757  0.3684  0.1837
  845MOL0     C16497  12.638   4.858   9.521 -0.4126  0.3543  0.8863
  845MOL0     C16498  12.747   4.772   9.556 -0.0964  0.1863  0.2093
  845MOL0     C16499  12.879   4.810   9.521  0.3235  0.3321  0.0633
  845MOL0     C16500  12.982   4.719   9.579 -0.1458 -0.6941  0.2452
  845MOL0     C16501  12.904   4.927   9.444 -0.1688  0.7458  0.5666
  845MOL0     C16502  13.045   4.969   9.410  0.3265 -0.2882 -0.8208
  845MOL0     O16503  13.063   5.104   9.389  0.7837 -0.2302 -0.5293
  845MOL0     C16504  13.172   5.134   9.318 -0.2513  0.0021 -0.8532
  845MOL0     C16505  13.158   5.158   9.186  0.3136  0.3094 -0.0384
  845MOL0     C16506  13.269   5.208   9.108  0.5524  0.1150  0.4713
  845MOL0     C16507  13.393   5.216   9.177 -0.4404  0.1546 -0.1471
  845MOL0     O16508  13.507   5.266   9.123  0.9495  0.3471  0.1154
  845MOL0     C16509  13.509   5.267   8.979  0.1131 -0.0186 -0.6070
  845MOL0     C16510  13.654   5.309   8.947 -0.0761 -0.4494  0.4207
  845MOL0     C16511  13.766   5.237   9.017  0.6023 -0.0031  0.6994
  845MOL0     C16512  13.890   5.325   8.985 -0.0708  0.9806  0.2919
  845MOL0     C16513  14.015   5.292   9.062 -0.4986 -0.4044  0.7165
  845MOL0     C16514  14.121   5.407   9.056  0.4745 -0.3152 -0.4413
  845MOL0     C16515  14.260   5.339   9.036  0.6180 -0.0374 -0.1932
  845MOL0     C16516  14.321   5.268   9.157 -0.7328  0.0601  0.0196
  845MOL0    Cl16517  14.319   5.386   9.285  0.1988 -0.1018  0.6890
  845MOL0     C16518  13.403   5.178   9.315  0.3559  0.6403  0.4947
  845MOL0     C16519  13.295   5.136   9.382  0.3772  0.0767 -0.6537
  845MOL0     O16520  13.128   4.884   9.405 -0.2683 -0.2983  0.0217
  845MOL0     C16521  12.800   5.014   9.410  0.5922  0.1093 -1.3719
  845MOL0     C16522  12.667   4.980   9.455 -0.0479 -0.5385 -0.4041
  845MOL0     N16523  12.141   4.971   9.973  0.1362 -0.2946 -0.3661
  845MOL0     N16524  12.123   4.995  10.097 -0.9494  0.1730 -0.2919
  845MOL0     C16525  10.996   4.545  10.257 -0.0918 -0.3345  0.6719
  845MOL0     C16526  10.867   4.490  10.271  0.8308  0.6165  0.3457
  845MOL0     C16527  10.498   4.345  10.339  0.1005  0.0977  0.3739
  845MOL0     C16528  10.490   4.428  10.450  0.0396 -0.5031 -0.2609
  845MOL0     C16529  10.378   4.447  10.525 -0.1742 -0.2146 -0.1818
  845MOL0     C16530  10.253   4.388  10.490 -0.3077 -0.3919  0.3806
  845MOL0     O16531  10.133   4.394  10.559  0.7772  0.6481 -0.0334
  845MOL0     C16532  10.117   4.453  10.690  0.3952  0.1793  0.0434
  845MOL0     C16533   9.977   4.489  10.739  0.3876  0.0097  0.2436
  845MOL0     C16534   9.945   4.632  10.700 -0.1696  0.3646  0.6556
  845MOL0     C16535   9.802   4.677  10.731  0.9464 -0.0275  1.2329
  845MOL0     C16536   9.777   4.691  10.869 -0.2008 -0.1550 -0.7734
  845MOL0     C16537   9.756   4.713  10.983 -1.0772  0.6103  0.7143
  845MOL0     C16538  10.254   4.327  10.366 -0.2481  0.6176 -0.0681
  845MOL0     C16539  10.371   4.296  10.291 -0.3925 -0.4987  0.4507
  845MOL0     C16540  10.341   4.220  10.168  0.0076  0.2159  0.0623
  845MOL0     H16541  10.959   4.223  10.466  0.5256 -0.0148  0.1810
  845MOL0     H16542  11.173   4.310  10.436  1.2602 -1.7077 -2.7165
  845MOL0     H16543  11.383   4.404  10.376  1.8405  0.5416  0.2407
  845MOL0     H16544  11.291   4.482  10.501  2.3761 -1.6381  0.4379
  845MOL0     H16545  11.390   4.693  10.467 -2.6944 -0.7135 -1.1035
  845MOL0     H16546  11.523   4.577  10.459  0.1696  0.5151 -1.3773
  845MOL0     H16547  11.512   4.583  10.211  0.0638  0.7841  0.5087
  845MOL0     H16548  11.392   4.707  10.214  0.3921  1.1551  0.9083
  845MOL0     H16549  11.586   4.801  10.162  1.6053 -0.0597  0.7349
  845MOL0     H16550  11.530   4.870  10.320 -1.7291  1.3876 -2.4003
  845MOL0     H16551  11.723   4.635  10.280  1.6611 -0.3189  1.0958
  845MOL0     H16552  11.717   4.730  10.432  1.5771 -2.3341  0.1399
  845MOL0     H16553  11.826   4.835  10.178  2.0240  0.7137  0.6509
  845MOL0     H16554  11.786   4.938  10.308  1.4232  1.2282 -3.0101
  845MOL0     H16555  11.986   4.691  10.320  1.0154  0.4237 -2.8214
  845MOL0     H16556  11.953   4.793  10.457  2.4925 -1.7403 -0.5677
  845MOL0     H16557  12.078   4.982  10.346  0.8178 -0.0977  1.0423
  845MOL0     H16558  12.168   4.836  10.364  0.1001  0.9185  2.0649
  845MOL0     H16559  12.117   4.678  10.120  1.4981  0.5475  4.5077
  845MOL0     H16560  12.079   4.816   9.756  1.0696  1.7575  0.2351
  845MOL0     H16561  12.127   4.666   9.821 -0.0042  0.4931 -0.4984
  845MOL0     H16562  12.306   4.897   9.737  0.9021 -0.6626  0.0481
  845MOL0     H16563  12.370   4.758   9.830  1.1042  1.8019 -0.0010
  845MOL0     H16564  12.283   4.599   9.663 -2.4631  1.0279  0.3065
  845MOL0     H16565  12.246   4.728   9.555  0.8094  2.6099 -0.1167
  845MOL0     H16566  12.530   4.671   9.676 -0.0150 -4.1784 -0.8332
  845MOL0     H16567  12.473   4.626   9.514  0.2775  1.3099 -0.9063
  845MOL0     H16568  12.716   4.684   9.611 -0.3928 -0.9822 -1.7328
  845MOL0     H16569  12.936   4.657   9.657  0.1982 -2.1928 -0.6951
  845MOL0     H16570  13.068   4.778   9.613 -0.8194 -0.1957  1.1053
  845MOL0     H16571  13.018   4.645   9.506 -1.5824 -2.5591  1.3308
  845MOL0     H16572  13.057   5.158   9.148 -1.1386 -2.7131  3.2509
  845MOL0     H16573  13.246   5.229   9.004 -0.4346  0.3868  0.7307
  845MOL0     H16574  13.493   5.166   8.940 -2.3822 -0.3512  1.0872
  845MOL0     H16575  13.438   5.343   8.945  0.2530 -0.3710 -1.7381
  845MOL0     H16576  13.671   5.295   8.839 -2.5106 -4.2108  0.3360
  845MOL0     H16577  13.661   5.417   8.966 -1.1643 -0.3693  0.4361
  845MOL0     H16578  13.777   5.138   8.972 -0.8772  1.1632 -2.5801
  845MOL0     H16579  13.751   5.218   9.124  1.1186 -0.6179  0.6684
  845MOL0     H16580  13.860   5.429   9.000 -3.9054 -0.1042  1.3600
  845MOL0     H16581  13.916   5.312   8.880  0.6297  0.9009  0.4695
  845MOL0     H16582  13.981   5.266   9.163 -1.2506 -1.9857  0.0738
  845MOL0     H16583  14.068   5.204   9.025  2.5998  1.6312 -0.0770
  845MOL0     H16584  14.129   5.466   9.148 -1.5983 -1.3123  0.4440
  845MOL0     H16585  14.092   5.467   8.969 -2.2525  0.0881  0.6412
  845MOL0     H16586  14.329   5.422   9.016  0.5810 -0.1852 -0.9265
  845MOL0     H16587  14.260   5.276   8.948 -0.2326 -2.7045  1.5975
  845MOL0     H16588  14.424   5.234   9.141 -0.7440  0.8358 -2.0023
  845MOL0     H16589  14.253   5.185   9.175 -1.8002  0.8960 -0.0684
  845MOL0     H16590  13.507   5.175   9.347  1.5713  3.5289 -2.4989
  845MOL0     H16591  13.317   5.117   9.487  1.7052 -0.6077 -1.0319
  845MOL0     H16592  12.826   5.110   9.367  2.4459 -0.1645 -0.9493
  845MOL0     H16593  12.589   5.055   9.447 -0.0019 -0.5355 -0.8852
  845MOL0     H16594  11.022   4.638  10.208 -0.6494  0.0012  1.0029
  845MOL0     H16595  10.779   4.528  10.221 -0.5233 -1.8602  0.6575
  845MOL0     H16596  10.585   4.459  10.493  0.2551 -1.8842  0.2991
  845MOL0     H16597  10.392   4.481  10.627 -0.0978 -3.4785  1.0156
  845MOL0     H16598  10.156   4.389  10.769 -2.8041  1.4118  2.8445
  845MOL0     H16599  10.177   4.545  10.694 -0.2550  0.5521  2.5342
  845MOL0     H16600   9.966   4.465  10.846 -1.0359 -0.4547  0.0110
  845MOL0     H16601   9.910   4.414  10.696  0.9006 -1.0615  1.2620
  845MOL0     H16602  10.019   4.696  10.750  0.1142  0.7689 -0.2531
  845MOL0     H16603   9.956   4.643  10.592  1.1281 -0.0338  0.7261
  845MOL0     H16604   9.735   4.602  10.689 -0.3403  3.1004 -2.9901
  845MOL0     H16605   9.779   4.770  10.677  2.2625 -0.0084  0.6569
  845MOL0     H16606   9.731   4.745  11.082  1.1144  1.3426  1.0640
  845MOL0     H16607  10.159   4.293  10.325 -1.4543 -1.2346  3.7235
  845MOL0     H16608  10.415   4.258  10.097 -1.2670  3.7828  0.4479
  845MOL0     H16609  10.358   4.113  10.179 -0.4647  0.1875  0.5434
  845MOL0     H16610  10.239   4.236  10.132  0.6955  4.0218 -0.5873
  846MOL0     O16611   7.275   9.599   5.114 -0.3927  0.1362 -0.3808
  846MOL0     C16612   7.255   9.477   5.094  0.2357 -0.2010 -0.6019
  846MOL0     O16613   7.284   9.410   4.976  0.4867 -0.5785  0.2468
  846MOL0     C16614   7.358   9.480   4.888  0.6895 -0.0789 -0.2638
  846MOL0     C16615   7.485   9.539   4.914  0.7857 -0.8356 -0.4780
  846MOL0     C16616   7.556   9.611   4.809  0.4419  0.4155  0.0503
  846MOL0     C16617   7.504   9.610   4.677 -0.4939 -0.0282 -1.4778
  846MOL0     O16618   7.577   9.667   4.577 -0.2354 -0.3539  0.2995
  846MOL0     C16619   7.707   9.722   4.596 -0.0462  0.5282 -0.9768
  846MOL0     C16620   7.761   9.750   4.454  0.0420  0.1839  0.4781
  846MOL0     C16621   7.894   9.834   4.453 -0.4201 -0.2086 -0.6453
  846MOL0     C16622   7.922   9.865   4.303  0.1897 -0.2327  0.5756
  846MOL0     C16623   8.067   9.910   4.292  0.1854  0.4718  0.3974
  846MOL0     C16624   8.100   9.938   4.148 -0.3998  0.1052 -0.8753
  846MOL0     C16625   8.223  10.033   4.145  0.7067 -1.0880 -0.2084
  846MOL0     C16626   8.353   9.952   4.137  0.8007  0.0744  0.1004
  846MOL0     N16627   8.465  10.036   4.087  0.6555  0.0278  0.4364
  846MOL0     C16628   8.600  10.030   4.125 -0.2505 -0.8802 -0.1978
  846MOL0     C16629   8.669  10.117   4.043  0.0117 -0.2080 -0.2285
  846MOL0     C16630   8.827  10.126   4.046  0.4997 -0.0357 -0.1003
  846MOL0     C16631   8.889   9.993   3.994  0.2286 -0.5600  0.8255
  846MOL0     C16632   8.858   9.959   3.844 -0.3823 -0.2301  0.3044
  846MOL0     C16633   8.918  10.050   3.738  0.5039  0.4820  0.1724
  846MOL0     O16634   9.052  10.091   3.767 -0.7637 -0.2895  0.2158
  846MOL0     C16635   9.157  10.014   3.759 -0.4795  1.0408 -0.2657
  846MOL0     C16636   9.154   9.881   3.701 -0.4715 -0.8926 -0.3704
  846MOL0     C16637   9.279   9.814   3.679  0.6206  0.8098  0.3813
  846MOL0     C16638   9.279   9.689   3.592  0.0357  0.1944  0.0666
  846MOL0     C16639   9.396   9.850   3.746  1.0652 -0.3884 -0.0010
  846MOL0     C16640   9.526   9.779   3.734  0.3361 -0.2135 -0.3500
  846MOL0     O16641   9.564   9.753   3.609 -0.7680  0.5570 -0.2538
  846MOL0     C16642   9.698   9.755   3.596  0.1677  0.3107  0.6526
  846MOL0     C16643   9.775   9.875   3.595 -0.0068 -0.3433  0.1369
  846MOL0     C16644   9.918   9.867   3.598  0.4432 -0.5335  0.0969
  846MOL0     C16645   9.980   9.744   3.575 -0.1710  0.0119  0.3383
  846MOL0     O16646  10.112   9.719   3.561 -0.5809 -0.8978  0.1170
  846MOL0     C16647  10.204   9.816   3.509 -0.3786 -0.3922  0.1185
  846MOL0     C16648  10.260   9.889   3.632 -0.1511 -0.2590 -0.1596
  846MOL0     C16649  10.323   9.800   3.736  0.4053  0.2376 -0.6950
  846MOL0     C16650  10.455   9.760   3.705 -0.1438  0.6416  0.0782
  846MOL0     C16651  10.524   9.703   3.828  0.2217  0.1402  0.6370
  846MOL0     C16652  10.667   9.649   3.788  0.1478  0.3329  0.4120
  846MOL0     C16653  10.751   9.761   3.723  0.1353 -0.4581  0.2333
  846MOL0     C16654  10.902   9.743   3.733 -0.0568  0.0016 -0.1738
  846MOL0    Cl16655  10.969   9.886   3.660  0.1922  0.1200  0.4841
  846MOL0     C16656   9.902   9.629   3.568 -0.5460 -0.9303  1.0221
  846MOL0     C16657   9.767   9.637   3.583 -0.0243  0.4013 -0.4307
  846MOL0     O16658   9.600   9.774   3.838  0.2176  0.2489 -0.2773
  846MOL0     C16659   9.395   9.969   3.819  0.5846 -0.5085  0.4822
  846MOL0     C16660   9.274  10.049   3.823 -0.5014 -0.3426  0.0806
  846MOL0     N16661   8.575  10.184   3.967 -0.6455 -0.4185 -0.7441
  846MOL0     N16662   8.452  10.142   3.996 -0.2956  0.5364 -0.5243
  846MOL0     C16663   7.380   9.552   4.658  0.4924  0.0740 -0.5802
  846MOL0     C16664   7.303   9.492   4.758 -0.3675 -0.2514  0.3278
  846MOL0     C16665   7.164   9.404   5.191  0.6940 -0.5089 -0.3659
  846MOL0     C16666   7.098   9.476   5.292 -0.1406  0.0652 -1.0263
  846MOL0     C16667   7.003   9.403   5.373 -1.0167 -0.3524 -0.2599
  846MOL0     C16668   6.969   9.268   5.362 -0.2764  0.4197 -0.7697
  846MOL0     O16669   6.872   9.203   5.434 -0.5424  0.4159 -0.1035
  846MOL0     C16670   6.797   9.284   5.535 -0.2553  0.6871  0.9441
  846MOL0     C16671   6.709   9.185   5.619  0.0480 -0.8192 -0.3214
  846MOL0     C16672   6.585   9.254   5.684 -0.3264 -0.2709  0.0575
  846MOL0     C16673   6.480   9.291   5.580 -0.2262 -0.0394  0.2452
  846MOL0     C16674   6.346   9.276   5.633  0.5584  0.0790  0.0614
  846MOL0     C16675   6.236   9.264   5.672  0.2074  1.3182 -0.7387
  846MOL0     C16676   7.050   9.202   5.268  0.2452  0.3363  0.0740
  846MOL0     C16677   7.140   9.260   5.177 -0.9797  0.0186 -0.1557
  846MOL0     C16678   7.212   9.166   5.087  0.7978  0.7600 -0.8992
  846MOL0     H16679   7.532   9.523   5.011  1.1855  0.1157 -0.5066
  846MOL0     H16680   7.652   9.649   4.842  1.4079  1.7218 -3.8393
  846MOL0     H16681   7.765   9.639   4.637 -0.8396 -1.4579 -3.5727
  846MOL0     H16682   7.715   9.806   4.665  1.6032  1.4669 -2.2428
  846MOL0     H16683   7.768   9.655   4.401  0.1531 -0.7184  2.0555
  846MOL0     H16684   7.686   9.820   4.417 -1.1060 -1.9616 -1.4215
  846MOL0     H16685   7.884   9.932   4.500 -0.8958 -1.2711  1.6025
  846MOL0     H16686   7.978   9.783   4.502  0.4788 -2.2102 -4.0111
  846MOL0     H16687   7.897   9.777   4.243  2.3669 -1.4399  1.3376
  846MOL0     H16688   7.862   9.950   4.269  0.5929  0.6768  2.0476
  846MOL0     H16689   8.132   9.831   4.332 -1.5072 -1.9191 -1.2593
  846MOL0     H16690   8.073   9.996   4.359 -2.3463 -0.7782  2.3933
  846MOL0     H16691   8.121   9.844   4.095  0.7763  0.1995 -0.6150
  846MOL0     H16692   8.010   9.975   4.097 -3.0755 -1.2875  2.4613
  846MOL0     H16693   8.229  10.095   4.235  0.5107 -0.7026 -0.4611
  846MOL0     H16694   8.215  10.096   4.057 -0.3672 -0.6648  0.1696
  846MOL0     H16695   8.379   9.917   4.237 -0.2249  0.7234  0.6062
  846MOL0     H16696   8.336   9.870   4.067  0.6161 -0.4134  0.7119
  846MOL0     H16697   8.639   9.953   4.191 -2.3541 -4.3841 -2.6465
  846MOL0     H16698   8.855  10.149   4.149 -1.9679  2.0697  0.2084
  846MOL0     H16699   8.856  10.208   3.980 -0.3808  0.4662  0.1215
  846MOL0     H16700   8.997  10.006   4.010  0.3046 -0.6270  0.3843
  846MOL0     H16701   8.841   9.926   4.065 -2.7357  3.2605  2.8051
  846MOL0     H16702   8.908   9.862   3.836  0.5910  0.1909  1.0949
  846MOL0     H16703   8.755   9.945   3.810  0.0112  0.7896 -1.4142
  846MOL0     H16704   8.907   9.999   3.641  2.7310  1.3080 -0.5718
  846MOL0     H16705   8.853  10.139   3.739  0.3257  0.3493  0.7087
  846MOL0     H16706   9.072   9.832   3.649  1.3093 -3.2824 -1.1319
  846MOL0     H16707   9.320   9.615   3.662 -1.5386  0.1045  0.9258
  846MOL0     H16708   9.343   9.695   3.503  1.3168  1.8943  1.0432
  846MOL0     H16709   9.175   9.656   3.582 -0.0738  0.0032  1.6540
  846MOL0     H16710   9.725   9.970   3.603 -0.4779 -0.7180  2.0064
  846MOL0     H16711   9.974   9.961   3.601  1.5784 -1.1970  0.4683
  846MOL0     H16712  10.285   9.776   3.447 -1.6345 -2.2535 -0.4000
  846MOL0     H16713  10.144   9.879   3.444 -1.6894  1.1183  2.6250
  846MOL0     H16714  10.328   9.968   3.599 -0.3460 -1.3153 -3.4378
  846MOL0     H16715  10.175   9.936   3.682  1.0109  0.4983  1.1698
  846MOL0     H16716  10.257   9.717   3.765  0.3674  0.1275 -1.0853
  846MOL0     H16717  10.322   9.862   3.826 -1.7829  0.2518 -0.6735
  846MOL0     H16718  10.511   9.844   3.662 -1.7872  1.4371 -0.6193
  846MOL0     H16719  10.441   9.684   3.628  1.1841 -1.0541  1.4559
  846MOL0     H16720  10.523   9.770   3.915  1.9986 -1.2693  1.8046
  846MOL0     H16721  10.477   9.609   3.857  1.6001 -0.9894 -0.6662
  846MOL0     H16722  10.664   9.565   3.718  1.8109 -0.5182  1.3203
  846MOL0     H16723  10.715   9.606   3.876  0.2555 -1.0512 -0.2841
  846MOL0     H16724  10.716   9.851   3.774 -1.1082 -1.4322  1.1788
  846MOL0     H16725  10.726   9.760   3.616 -0.3051 -4.4635  0.2134
  846MOL0     H16726  10.936   9.652   3.683 -0.0154  1.0741 -2.1893
  846MOL0     H16727  10.930   9.747   3.839 -1.7866  2.3893  0.2739
  846MOL0     H16728   9.944   9.529   3.562  1.4587 -0.4007  3.8069
  846MOL0     H16729   9.714   9.543   3.578 -0.3669  0.4975  0.9926
  846MOL0     H16730   9.489   9.998   3.866  1.3250 -1.5075 -0.3183
  846MOL0     H16731   9.274  10.148   3.869 -3.1719  0.4111 -1.3626
  846MOL0     H16732   7.345   9.549   4.556 -0.3220 -0.5772 -0.2939
  846MOL0     H16733   7.220   9.429   4.728 -1.1877  0.0506  1.8501
  846MOL0     H16734   7.113   9.582   5.311 -5.6170  0.8371  0.5274
  846MOL0     H16735   6.947   9.457   5.448 -3.2720 -3.0026  0.1138
  846MOL0     H16736   6.864   9.330   5.609  0.5050 -0.3259  0.9108
  846MOL0     H16737   6.735   9.357   5.481  2.6662  2.1986 -0.6166
  846MOL0     H16738   6.758   9.129   5.700  1.3599  0.2921 -0.3027
  846MOL0     H16739   6.658   9.120   5.548  1.0469 -0.9767 -0.9057
  846MOL0     H16740   6.532   9.197   5.761 -0.3390  0.4158  0.5641
  846MOL0     H16741   6.616   9.352   5.722 -1.2368 -0.6683  1.9260
  846MOL0     H16742   6.496   9.222   5.497  1.7146  1.5229 -0.7585
  846MOL0     H16743   6.494   9.398   5.561 -1.7212  0.3044  0.9476
  846MOL0     H16744   6.131   9.253   5.691  0.1238 -0.8530 -2.0578
  846MOL0     H16745   7.013   9.100   5.267 -0.2378  0.5023 -1.3476
  846MOL0     H16746   7.225   9.067   5.132 -1.9134  0.6215 -0.2344
  846MOL0     H16747   7.156   9.159   4.993  2.6789  0.4296 -2.0495
  846MOL0     H16748   7.313   9.201   5.063 -0.3673  5.2531 -0.0422
  847MOL0     O16749   2.798   9.852   3.085  0.1880 -0.4186  0.3474
  847MOL0     C16750   2.715   9.872   2.998  1.5461  0.6774  0.0273
  847MOL0     O16751   2.710   9.806   2.879 -0.2635 -0.1562 -0.2938
  847MOL0     C16752   2.816   9.732   2.842 -0.1839  0.5508  1.3018
  847MOL0     C16753   2.939   9.783   2.799 -0.8617  0.3256  0.1330
  847MOL0     C16754   3.045   9.696   2.757 -0.0728  0.2274 -0.2316
  847MOL0     C16755   3.025   9.557   2.755  0.4936 -0.2767 -0.1556
  847MOL0     O16756   3.114   9.465   2.716  0.0073  0.8270 -0.5209
  847MOL0     C16757   3.179   9.480   2.590  0.0860  0.0038  0.3117
  847MOL0     C16758   3.238   9.348   2.560 -1.1226 -0.4957  0.2852
  847MOL0     C16759   3.331   9.365   2.438 -0.5257 -0.4867  0.2200
  847MOL0     C16760   3.458   9.300   2.462  0.2200 -0.9777 -0.0924
  847MOL0     C16761   3.536   9.292   2.338  0.2139  0.1496 -0.9192
  847MOL0     C16762   3.673   9.242   2.366  0.4216  0.0690  0.0703
  847MOL0     C16763   3.764   9.225   2.237  0.5565  0.1062  0.3153
  847MOL0     C16764   3.895   9.163   2.271 -0.4375 -0.3750 -0.0442
  847MOL0     N16765   3.980   9.258   2.345 -0.1949  0.4880 -0.6964
  847MOL0     C16766   4.083   9.329   2.293  0.1391  0.4547  0.1002
  847MOL0     C16767   4.140   9.376   2.406  0.3830 -0.0507  0.8165
  847MOL0     C16768   4.263   9.466   2.429  0.9393  0.7759  0.5456
  847MOL0     C16769   4.230   9.609   2.423  1.2169  0.1854 -0.3006
  847MOL0     C16770   4.353   9.704   2.416  0.0343  0.2791 -0.4103
  847MOL0     C16771   4.318   9.850   2.424  0.7315 -0.5439 -0.5059
  847MOL0     O16772   4.411   9.930   2.354  0.3342  0.0954  0.7267
  847MOL0     C16773   4.419  10.063   2.370  0.1470 -0.8536 -0.0471
  847MOL0     C16774   4.360  10.139   2.472 -0.9596 -0.0281  0.1049
  847MOL0     C16775   4.381  10.279   2.484  0.1695  0.1643 -0.6076
  847MOL0     C16776   4.303  10.338   2.602 -0.5402 -0.8471  0.9890
  847MOL0     C16777   4.461  10.350   2.391 -0.3718  0.7457  0.1986
  847MOL0     C16778   4.485  10.499   2.399 -0.0089  0.9270  0.5194
  847MOL0     O16779   4.564  10.546   2.296 -0.5349 -0.6075  0.6571
  847MOL0     C16780   4.598  10.676   2.295 -0.1492 -0.6500  0.0177
  847MOL0     C16781   4.654  10.749   2.400  0.1294 -0.6891 -0.0405
  847MOL0     C16782   4.693  10.887   2.381  0.8397 -0.1266 -0.4723
  847MOL0     C16783   4.678  10.954   2.258 -0.0637  0.5423  0.6833
  847MOL0     O16784   4.704  11.082   2.259 -0.2029  1.3106 -0.4093
  847MOL0     C16785   4.625  11.161   2.176 -0.4890 -0.3306  0.1145
  847MOL0     C16786   4.642  11.315   2.206 -0.3214  0.5938 -0.4940
  847MOL0     C16787   4.586  11.343   2.346 -0.3165 -0.0949  0.0070
  847MOL0     C16788   4.439  11.298   2.362 -0.2890 -0.6640 -0.4259
  847MOL0     C16789   4.367  11.361   2.468  0.1671  0.7607 -0.7350
  847MOL0     C16790   4.435  11.338   2.601 -0.5446 -0.5873 -0.4797
  847MOL0     C16791   4.346  11.372   2.717  0.0430  0.0668 -0.4536
  847MOL0     C16792   4.411  11.464   2.814  0.1035 -0.2275  0.2530
  847MOL0    Cl16793   4.539  11.397   2.921 -0.5933  0.2310  0.4027
  847MOL0     C16794   4.617  10.879   2.152 -0.3863 -0.5383  0.0719
  847MOL0     C16795   4.586  10.741   2.170  0.2630  0.4406 -0.6796
  847MOL0     O16796   4.446  10.560   2.498  0.5969 -0.0419 -0.0458
  847MOL0     C16797   4.519  10.277   2.287 -0.5472  0.0656 -0.8590
  847MOL0     C16798   4.506  10.136   2.284 -0.7987 -0.2814 -0.5212
  847MOL0     N16799   4.068   9.340   2.511 -0.3715  0.1421 -0.3247
  847MOL0     N16800   3.978   9.262   2.479  0.3998  0.1738 -0.6558
  847MOL0     C16801   2.896   9.508   2.794  0.0889 -0.4095 -0.2938
  847MOL0     C16802   2.798   9.595   2.837  0.2411  0.9811  0.0272
  847MOL0     C16803   2.598   9.959   3.033  0.3503  1.0666  0.1478
  847MOL0     C16804   2.482   9.938   2.956  0.0111  0.0292  0.1946
  847MOL0     C16805   2.362  10.012   2.968 -0.3182  0.1980 -0.3212
  847MOL0     C16806   2.346  10.096   3.081 -0.6449 -0.4064  0.0691
  847MOL0     O16807   2.212  10.137   3.102 -0.3903  0.2515  0.0002
  847MOL0     C16808   2.187  10.200   3.225  0.4909 -0.8672  0.7838
  847MOL0     C16809   2.035  10.234   3.223  0.5392  1.0355 -0.0130
  847MOL0     C16810   1.941  10.119   3.244 -0.0560  0.4296  0.0221
  847MOL0     C16811   1.830  10.138   3.347  0.6156 -0.6985  0.3452
  847MOL0     C16812   1.876  10.151   3.481 -0.3050 -0.2994  0.1897
  847MOL0     C16813   1.898  10.173   3.595  0.6613 -0.2541  0.1048
  847MOL0     C16814   2.457  10.110   3.163 -0.3166 -0.1924 -0.4676
  847MOL0     C16815   2.577  10.039   3.152  0.4551 -0.1960 -0.7524
  847MOL0     C16816   2.676  10.061   3.264  0.0563  0.9656 -0.2154
  847MOL0     H16817   2.951   9.890   2.800  2.6199  0.0342  0.8398
  847MOL0     H16818   3.143   9.738   2.736 -0.2329  1.3498  1.1596
  847MOL0     H16819   3.257   9.557   2.594  0.9489 -0.7924 -0.6201
  847MOL0     H16820   3.115   9.500   2.503  1.4300 -2.5314 -1.3927
  847MOL0     H16821   3.291   9.311   2.648  3.2250 -2.5273 -2.8020
  847MOL0     H16822   3.153   9.280   2.549 -1.7592  0.5472 -1.7621
  847MOL0     H16823   3.288   9.320   2.348  2.1930 -0.0361 -1.4181
  847MOL0     H16824   3.339   9.472   2.416 -0.7342 -0.2394  1.3004
  847MOL0     H16825   3.521   9.355   2.533 -2.5805  1.0885  0.9524
  847MOL0     H16826   3.428   9.201   2.499 -3.9571 -0.4762 -1.6957
  847MOL0     H16827   3.535   9.387   2.284 -0.4391  0.8417  0.2650
  847MOL0     H16828   3.487   9.220   2.272 -0.7567  0.7715 -0.8923
  847MOL0     H16829   3.716   9.309   2.441 -2.1055  0.2916  1.4248
  847MOL0     H16830   3.666   9.144   2.413 -3.5568 -0.7347 -1.8366
  847MOL0     H16831   3.769   9.325   2.191 -0.9281 -0.3498 -0.9253
  847MOL0     H16832   3.721   9.158   2.163  3.6457 -1.5896 -0.1154
  847MOL0     H16833   3.877   9.069   2.323 -1.1753 -0.3355 -0.2138
  847MOL0     H16834   3.945   9.154   2.174  1.1944  1.3421  0.5732
  847MOL0     H16835   4.121   9.331   2.192  2.5699 -0.2696  0.9332
  847MOL0     H16836   4.323   9.442   2.341 -1.9154 -2.5711 -0.6978
  847MOL0     H16837   4.326   9.440   2.514  2.2851  0.0467 -0.6445
  847MOL0     H16838   4.171   9.626   2.333  0.7401 -4.8782 -1.2151
  847MOL0     H16839   4.179   9.634   2.517 -0.2176 -2.8591 -0.1582
  847MOL0     H16840   4.416   9.679   2.502 -1.4671 -0.1879  0.6060
  847MOL0     H16841   4.408   9.677   2.326 -0.6798 -0.5652 -0.6154
  847MOL0     H16842   4.217   9.859   2.383  1.1297 -0.5504 -1.4996
  847MOL0     H16843   4.318   9.881   2.529 -0.8152 -1.4517 -0.2200
  847MOL0     H16844   4.292  10.089   2.540 -1.4248 -1.8013 -1.5702
  847MOL0     H16845   4.370  10.379   2.678  0.6016  1.1569 -0.9603
  847MOL0     H16846   4.238  10.260   2.642 -1.6703 -1.4467 -1.7520
  847MOL0     H16847   4.245  10.425   2.569 -0.7187 -1.0912  0.6555
  847MOL0     H16848   4.678  10.710   2.499  2.0472 -0.2656 -0.3108
  847MOL0     H16849   4.737  10.937   2.467  1.1656 -1.1523 -0.0155
  847MOL0     H16850   4.659  11.154   2.072 -1.5583 -0.1210 -0.2643
  847MOL0     H16851   4.518  11.134   2.177 -1.2971  2.3645 -2.0205
  847MOL0     H16852   4.747  11.343   2.196 -0.4972  0.3308 -4.5377
  847MOL0     H16853   4.585  11.375   2.135  1.7089  0.8911 -1.9657
  847MOL0     H16854   4.604  11.447   2.374 -0.6255  0.3351 -1.3290
  847MOL0     H16855   4.647  11.285   2.415  1.3720  1.0964 -0.4239
  847MOL0     H16856   4.448  11.189   2.371  1.6661 -0.4323  1.6083
  847MOL0     H16857   4.388  11.318   2.268  1.2683 -0.8647 -1.3520
  847MOL0     H16858   4.366  11.470   2.457 -1.2435  1.0522  1.6833
  847MOL0     H16859   4.264  11.325   2.461 -0.1015  1.7973 -3.7685
  847MOL0     H16860   4.522  11.403   2.614 -1.7395  1.2220 -1.2457
  847MOL0     H16861   4.480  11.238   2.606  0.2479 -0.3407 -1.9655
  847MOL0     H16862   4.306  11.291   2.779 -1.5230  0.8860 -0.3505
  847MOL0     H16863   4.258  11.420   2.673  0.6192  0.9146 -0.7055
  847MOL0     H16864   4.325  11.500   2.871  0.1719 -1.9105  1.5157
  847MOL0     H16865   4.444  11.553   2.761 -3.7382  1.9159  1.1015
  847MOL0     H16866   4.613  10.928   2.055  0.8216 -0.7183 -0.0937
  847MOL0     H16867   4.555  10.684   2.083 -3.6477 -2.7981  2.4295
  847MOL0     H16868   4.580  10.328   2.213  1.7485 -1.8221 -0.3808
  847MOL0     H16869   4.563  10.078   2.213 -1.8571 -0.4985 -1.2212
  847MOL0     H16870   2.872   9.404   2.778 -0.1423 -0.4474  0.2574
  847MOL0     H16871   2.708   9.551   2.880  0.0908  0.5349 -0.7296
  847MOL0     H16872   2.482   9.871   2.871 -1.6959 -1.1886  1.0819
  847MOL0     H16873   2.277   9.996   2.903 -0.8940  0.6739  0.3050
  847MOL0     H16874   2.212  10.147   3.318  0.3124  0.0263  1.3547
  847MOL0     H16875   2.245  10.293   3.229 -1.5445  0.6441 -1.9404
  847MOL0     H16876   2.006  10.288   3.132 -0.8923 -0.8794 -0.7564
  847MOL0     H16877   2.034  10.305   3.307  0.5581  1.2690 -0.2085
  847MOL0     H16878   1.906  10.090   3.145  2.2277 -1.0377 -0.4298
  847MOL0     H16879   1.996  10.033   3.284 -1.2004 -0.4339 -0.2351
  847MOL0     H16880   1.767  10.049   3.336  0.5644 -0.4205 -1.9863
  847MOL0     H16881   1.757  10.218   3.332 -1.1400 -2.4899 -1.2272
  847MOL0     H16882   1.915  10.172   3.701 -0.5080 -0.5035  0.3063
  847MOL0     H16883   2.460  10.184   3.242  3.1411 -2.1776  1.5196
  847MOL0     H16884   2.771  10.098   3.224 -0.4709  1.1513 -1.3218
  847MOL0     H16885   2.639  10.132   3.338  0.0515  0.7149  0.0279
  847MOL0     H16886   2.687   9.965   3.316  1.0553  0.5513 -1.1473
  848MOL0     O16887   4.904  10.420   8.325 -0.2029 -0.4480  0.2360
  848MOL0     C16888   4.829  10.475   8.405  0.2111  0.1041 -0.7810
  848MOL0     O16889   4.714  10.419   8.453 -0.2842  0.5736 -0.0833
  848MOL0     C16890   4.662  10.312   8.393 -0.1726 -0.2217  0.2118
  848MOL0     C16891   4.719  10.197   8.344  0.0379  0.7672  0.0826
  848MOL0     C16892   4.645  10.085   8.300 -0.5196  0.1124 -0.1710
  848MOL0     C16893   4.505  10.099   8.291  0.6547  0.0768  0.9189
  848MOL0     O16894   4.433   9.992   8.242 -0.0085 -0.2004 -1.2641
  848MOL0     C16895   4.292   9.993   8.240 -0.5791 -0.9432  0.3822
  848MOL0     C16896   4.250  10.055   8.106 -0.3467  0.4944  0.1672
  848MOL0     C16897   4.325   9.988   7.985 -0.2806  0.0486  0.1165
  848MOL0     C16898   4.451  10.067   7.946 -0.2670  0.1508 -0.2170
  848MOL0     C16899   4.509   9.996   7.827  0.6755  0.4932  0.3546
  848MOL0     C16900   4.620  10.079   7.755 -0.7298  0.1826  0.0437
  848MOL0     C16901   4.743  10.105   7.841  0.1252  0.0529 -0.3541
  848MOL0     C16902   4.833   9.983   7.839  0.2625 -0.5473  0.5678
  848MOL0     N16903   4.921   9.981   7.959  0.6780 -0.0352 -0.6315
  848MOL0     C16904   5.050  10.035   7.958 -0.0487  1.0382  0.6893
  848MOL0     C16905   5.122   9.993   8.066  0.2703 -1.1027 -0.2977
  848MOL0     C16906   5.268  10.021   8.078 -1.4558 -0.1248 -0.6922
  848MOL0     C16907   5.324  10.069   8.216 -0.0214  0.7723  0.1789
  848MOL0     C16908   5.475  10.045   8.223 -0.1804 -0.4390 -0.0134
  848MOL0     C16909   5.528  10.091   8.354 -0.1665 -0.4708  0.0951
  848MOL0     O16910   5.543  10.237   8.345  0.7513  0.2488  0.2386
  848MOL0     C16911   5.614  10.300   8.440 -0.5700  0.4656 -0.1960
  848MOL0     C16912   5.625  10.437   8.431  0.2755 -0.3888  0.5214
  848MOL0     C16913   5.710  10.515   8.517  1.5230 -0.5316  0.3938
  848MOL0     C16914   5.721  10.661   8.484  0.5027 -0.3121  0.3872
  848MOL0     C16915   5.785  10.456   8.619  0.2289 -0.3809  1.1646
  848MOL0     C16916   5.886  10.525   8.703 -0.1367  0.2142  0.0484
  848MOL0     O16917   5.958  10.445   8.787 -0.1188  0.0888  0.2590
  848MOL0     C16918   6.045  10.515   8.868  0.1010 -0.7447  0.1418
  848MOL0     C16919   6.006  10.620   8.954 -0.3940  0.2333  0.1502
  848MOL0     C16920   6.101  10.685   9.031 -0.5853  0.0690  0.0384
  848MOL0     C16921   6.227  10.650   9.026 -0.3641  0.0844 -0.0449
  848MOL0     O16922   6.320  10.715   9.108 -0.0852 -0.0466 -0.2375
  848MOL0     C16923   6.305  10.860   9.125 -0.2130 -0.0125 -1.1061
  848MOL0     C16924   6.443  10.932   9.134  0.5210  0.2423  0.4205
  848MOL0     C16925   6.506  10.946   8.990 -0.4715 -0.4286 -0.4285
  848MOL0     C16926   6.568  10.811   8.938  0.0826 -1.4743 -0.3126
  848MOL0     C16927   6.619  10.839   8.795 -0.2933  0.7588  0.2414
  848MOL0     C16928   6.675  10.713   8.721  0.0716 -0.1891 -0.1510
  848MOL0     C16929   6.720  10.755   8.580 -1.0882  0.1192 -0.3315
  848MOL0     C16930   6.777  10.632   8.503 -0.8585 -0.3075  0.2624
  848MOL0    Cl16931   6.854  10.676   8.353 -0.0802 -0.1263 -0.5345
  848MOL0     C16932   6.272  10.541   8.951 -0.3231 -0.1749 -0.0336
  848MOL0     C16933   6.175  10.473   8.879 -0.6418 -0.5046 -0.8770
  848MOL0     O16934   5.903  10.643   8.696 -0.4855 -0.0246  0.0624
  848MOL0     C16935   5.772  10.312   8.631  0.3200  0.1238  0.2790
  848MOL0     C16936   5.681  10.233   8.545 -0.2612  0.4149 -0.4412
  848MOL0     N16937   5.027   9.932   8.149  0.0167 -0.2289  0.2465
  848MOL0     N16938   4.902   9.932   8.089  0.2460 -0.4727 -0.4388
  848MOL0     C16939   4.446  10.216   8.345  0.4589  0.0738 -0.4310
  848MOL0     C16940   4.526  10.319   8.397  0.3981 -0.5425  0.6822
  848MOL0     C16941   4.868  10.608   8.465  0.1341  0.4889 -0.1283
  848MOL0     C16942   4.777  10.666   8.564  0.7345 -0.2786  0.9175
  848MOL0     C16943   4.806  10.788   8.630 -1.4178 -1.0633 -0.0542
  848MOL0     C16944   4.934  10.848   8.617 -0.3275 -0.2036  0.6786
  848MOL0     O16945   4.969  10.953   8.710 -0.1903  0.8285 -0.8059
  848MOL0     C16946   5.089  11.017   8.686 -1.0107 -0.0300 -1.0053
  848MOL0     C16947   5.208  10.934   8.734 -0.6614  0.0277 -0.5336
  848MOL0     C16948   5.213  10.934   8.894  1.3174  0.0497 -0.8986
  848MOL0     C16949   5.279  11.057   8.968  0.5233 -0.2109  0.0492
  848MOL0     C16950   5.197  11.178   8.959  0.6719  0.2137  0.6212
  848MOL0     C16951   5.117  11.268   8.966  0.6274 -0.3298  0.2308
  848MOL0     C16952   5.016  10.795   8.513  0.0468 -0.3268 -0.7453
  848MOL0     C16953   4.985  10.679   8.433 -0.7503 -1.2886  0.1375
  848MOL0     C16954   5.099  10.637   8.336 -0.2971 -0.2670  0.3422
  848MOL0     H16955   4.825  10.183   8.325 -0.0565  0.9625 -0.6036
  848MOL0     H16956   4.688   9.993   8.261  0.2126 -0.2262  1.3530
  848MOL0     H16957   4.248  10.057   8.317  0.6423  1.8957 -1.1034
  848MOL0     H16958   4.245   9.895   8.247 -1.1112 -1.0360 -2.9108
  848MOL0     H16959   4.142  10.041   8.093 -0.1970  1.0223 -2.1342
  848MOL0     H16960   4.260  10.164   8.118 -1.5180  0.6749 -0.3084
  848MOL0     H16961   4.356   9.885   8.006  0.3515 -0.1371 -1.6028
  848MOL0     H16962   4.267   9.986   7.892  1.2088  0.7558 -0.8610
  848MOL0     H16963   4.433  10.171   7.917  2.8445  0.7332 -0.4621
  848MOL0     H16964   4.528  10.073   8.023  0.9267  0.3672 -1.3749
  848MOL0     H16965   4.431   9.961   7.760 -1.1082  0.2407  2.4710
  848MOL0     H16966   4.555   9.899   7.849  0.2897  0.1348 -0.3977
  848MOL0     H16967   4.647  10.042   7.655  2.6428  1.6824  0.2616
  848MOL0     H16968   4.576  10.174   7.726  1.2149  1.0365 -0.2844
  848MOL0     H16969   4.723  10.121   7.947  1.6297 -0.5126  0.0496
  848MOL0     H16970   4.804  10.186   7.802 -1.2457  0.2048 -2.2994
  848MOL0     H16971   4.772   9.892   7.842  0.7816 -0.8715  2.3732
  848MOL0     H16972   4.892   9.980   7.747  3.8271  1.4402  2.5860
  848MOL0     H16973   5.099  10.084   7.875  0.5314  0.4030  0.6495
  848MOL0     H16974   5.294  10.092   7.999 -0.0807  1.6193  1.2052
  848MOL0     H16975   5.324   9.928   8.062 -1.2442  0.2799 -2.4869
  848MOL0     H16976   5.292  10.173   8.228 -1.3531  0.1725  2.3404
  848MOL0     H16977   5.275   9.998   8.283  1.0368 -1.2291 -1.0731
  848MOL0     H16978   5.494   9.937   8.217  0.0386 -0.3529 -1.2630
  848MOL0     H16979   5.527  10.103   8.145 -1.2514 -1.0465 -1.2103
  848MOL0     H16980   5.462  10.066   8.437 -0.5937  2.3690  0.7455
  848MOL0     H16981   5.629  10.050   8.363  0.4238  0.8181 -0.2651
  848MOL0     H16982   5.573  10.494   8.355  1.8762  1.3780  0.6629
  848MOL0     H16983   5.824  10.681   8.453  0.2077 -0.9267 -1.0709
  848MOL0     H16984   5.696  10.722   8.572 -1.7591  1.1904 -1.1935
  848MOL0     H16985   5.653  10.698   8.407  0.6389 -0.4358  0.2073
  848MOL0     H16986   5.900  10.645   8.955 -0.3364  0.4638  0.8246
  848MOL0     H16987   6.069  10.771   9.088 -0.2478  0.5091 -0.4343
  848MOL0     H16988   6.248  10.899   9.041 -1.2076 -0.1519 -0.5119
  848MOL0     H16989   6.260  10.884   9.222  0.3865  1.6954 -1.2243
  848MOL0     H16990   6.422  11.036   9.163 -0.2891  0.9380 -2.3721
  848MOL0     H16991   6.503  10.880   9.210  2.0847  1.7939  0.3388
  848MOL0     H16992   6.570  11.034   8.977 -0.7985 -0.3222 -1.3639
  848MOL0     H16993   6.431  10.968   8.913 -1.3155  0.4228  0.6029
  848MOL0     H16994   6.488  10.737   8.926  1.1044 -2.4154 -1.6548
  848MOL0     H16995   6.652  10.776   8.997  1.0199 -0.3110 -0.9177
  848MOL0     H16996   6.547  10.882   8.724  0.7802 -0.4954 -1.7110
  848MOL0     H16997   6.696  10.916   8.797 -0.6178  1.2152 -2.0928
  848MOL0     H16998   6.610  10.629   8.694  1.7557 -1.8398  0.7275
  848MOL0     H16999   6.754  10.671   8.783  1.7915  0.2848 -1.9483
  848MOL0     H17000   6.792  10.837   8.588  0.4114 -1.2901  1.3877
  848MOL0     H17001   6.634  10.797   8.526 -1.1466 -0.9022 -1.0724
  848MOL0     H17002   6.695  10.562   8.484  1.0115 -2.1294 -1.7411
  848MOL0     H17003   6.850  10.578   8.564 -1.6045 -1.0802  0.4896
  848MOL0     H17004   6.371  10.512   8.921  0.1566  0.6567  0.6933
  848MOL0     H17005   6.214  10.387   8.825  2.1583 -0.7177  1.2770
  848MOL0     H17006   5.820  10.256   8.710 -0.3045 -0.0805  0.5203
  848MOL0     H17007   5.659  10.129   8.567  2.5080 -0.3517 -0.9178
  848MOL0     H17008   4.341  10.242   8.339  0.6843  1.0106 -0.3339
  848MOL0     H17009   4.466  10.400   8.437 -3.2850 -2.5676 -0.3089
  848MOL0     H17010   4.677  10.625   8.569  0.8889 -1.1913 -1.7640
  848MOL0     H17011   4.737  10.819   8.708 -1.6885 -0.1686 -0.6385
  848MOL0     H17012   5.106  11.037   8.580  1.2280 -1.6767 -1.0180
  848MOL0     H17013   5.088  11.117   8.732 -2.5690 -0.0889 -0.8355
  848MOL0     H17014   5.299  10.981   8.694 -0.3027  0.1669  0.4120
  848MOL0     H17015   5.205  10.831   8.697 -0.5595 -0.0642 -0.2896
  848MOL0     H17016   5.110  10.918   8.929  1.9279  0.0714  1.0163
  848MOL0     H17017   5.268  10.848   8.932 -0.6273 -0.4131  1.0924
  848MOL0     H17018   5.375  11.074   8.919  0.7639 -0.3345  0.4772
  848MOL0     H17019   5.278  11.048   9.077 -1.2078  0.5319  0.1277
  848MOL0     H17020   5.056  11.352   8.993  0.9679 -0.1815  0.5603
  848MOL0     H17021   5.118  10.831   8.505 -0.3723  1.4005  0.9221
  848MOL0     H17022   5.144  10.545   8.373 -1.3906 -0.0649  2.3331
  848MOL0     H17023   5.051  10.618   8.239 -2.0706  4.6685 -0.0245
  848MOL0     H17024   5.183  10.704   8.320  0.3263 -1.5869 -2.7236
  849MOL0     O17025   9.616   3.954   0.718 -0.4083  0.8368  0.0153
  849MOL0     C17026   9.626   3.974   0.596 -0.3002  0.6047  0.0558
  849MOL0     O17027   9.744   3.972   0.521  0.2903 -0.3053 -0.4254
  849MOL0     C17028   9.859   3.957   0.582 -0.0383  0.1137 -0.2547
  849MOL0     C17029   9.929   4.068   0.625  0.5952  1.1405  0.1700
  849MOL0     C17030  10.058   4.063   0.666  0.5397 -0.1835  0.1856
  849MOL0     C17031  10.131   3.944   0.667 -0.6357  0.6491  0.3084
  849MOL0     O17032  10.264   3.925   0.682  0.3638  0.1132 -1.0203
  849MOL0     C17033  10.341   4.016   0.759  0.7932 -1.1527 -0.1403
  849MOL0     C17034  10.458   3.933   0.803  0.1759 -0.0462  0.4893
  849MOL0     C17035  10.562   4.025   0.868  0.2195 -0.9293  0.2004
  849MOL0     C17036  10.619   4.139   0.784  0.0208  0.0352  0.3376
  849MOL0     C17037  10.711   4.223   0.875 -0.1679  0.5466 -0.1821
  849MOL0     C17038  10.782   4.325   0.801 -0.4591  0.7616  0.3685
  849MOL0     C17039  10.901   4.255   0.725 -0.8097  0.3682 -0.2637
  849MOL0     C17040  10.975   4.371   0.655  0.5016  0.3334  0.8202
  849MOL0     N17041  11.091   4.326   0.582  0.1438  0.3748 -0.2565
  849MOL0     C17042  11.090   4.227   0.487 -0.3881  0.8046 -0.3499
  849MOL0     C17043  11.222   4.209   0.446  0.1242  0.6408  0.0486
  849MOL0     C17044  11.280   4.113   0.350 -0.5892  0.0514  0.4185
  849MOL0     C17045  11.323   3.977   0.406 -0.4004 -0.1463  0.1581
  849MOL0     C17046  11.398   4.000   0.539 -0.3320  0.3027  0.2555
  849MOL0     C17047  11.417   3.862   0.605  1.0969 -0.1334  0.8035
  849MOL0     O17048  11.541   3.870   0.679  0.4496 -0.4085 -0.1353
  849MOL0     C17049  11.660   3.827   0.629 -0.2112  0.4451 -0.2987
  849MOL0     C17050  11.688   3.792   0.495  1.1209  0.0606  1.0550
  849MOL0     C17051  11.811   3.739   0.454 -0.3562  0.4645  0.6768
  849MOL0     C17052  11.831   3.702   0.310  0.0572 -0.2050 -0.3344
  849MOL0     C17053  11.918   3.722   0.544  0.1479 -0.3610 -0.3125
  849MOL0     C17054  12.046   3.660   0.496 -0.0355  0.4119  0.2809
  849MOL0     O17055  12.154   3.697   0.573  0.5751 -0.5232  0.9665
  849MOL0     C17056  12.272   3.627   0.543  0.8175 -0.3376  1.3259
  849MOL0     C17057  12.317   3.540   0.642 -0.5512 -0.9363 -0.4886
  849MOL0     C17058  12.438   3.471   0.612  0.5848 -0.2494 -0.2658
  849MOL0     C17059  12.522   3.499   0.501  0.3271  0.1186  0.4361
  849MOL0     O17060  12.647   3.442   0.482  0.9707  0.1201  0.1760
  849MOL0     C17061  12.719   3.418   0.603  0.4131  0.7477 -0.1111
  849MOL0     C17062  12.835   3.336   0.553 -0.8281 -0.1385 -0.3848
  849MOL0     C17063  12.913   3.290   0.686 -0.2845 -0.3362 -0.2690
  849MOL0     C17064  13.033   3.210   0.646 -0.0013  0.2677 -0.0456
  849MOL0     C17065  13.110   3.165   0.771  0.2287  0.2310 -0.1735
  849MOL0     C17066  13.252   3.124   0.726 -0.5878  0.7102  0.6004
  849MOL0     C17067  13.240   3.007   0.628  0.3077  0.7660  0.0425
  849MOL0     C17068  13.367   2.919   0.631  0.3906 -0.6806 -0.4701
  849MOL0    Cl17069  13.513   3.015   0.640 -0.2856 -0.0775  0.2860
  849MOL0     C17070  12.466   3.589   0.413  1.1926 -0.1524 -0.2988
  849MOL0     C17071  12.343   3.645   0.427  0.1350  0.5051 -0.3471
  849MOL0     O17072  12.043   3.571   0.404 -0.3722 -0.8838 -0.7953
  849MOL0     C17073  11.893   3.757   0.674 -0.7417 -0.8189  0.0387
  849MOL0     C17074  11.768   3.818   0.714 -0.0574  0.0211 -0.5109
  849MOL0     N17075  11.302   4.295   0.518  0.0753  0.3790  0.3011
  849MOL0     N17076  11.222   4.364   0.594  0.3595 -0.8409 -0.0527
  849MOL0     C17077  10.063   3.835   0.618 -0.7646  0.5964 -0.3033
  849MOL0     C17078   9.930   3.833   0.579 -0.0251 -0.1981 -0.0494
  849MOL0     C17079   9.494   3.965   0.516  0.5418 -0.4346  0.0997
  849MOL0     C17080   9.485   3.859   0.418 -0.0114  0.0320 -0.0760
  849MOL0     C17081   9.364   3.831   0.348 -0.2189 -0.3097  0.1641
  849MOL0     C17082   9.243   3.909   0.373 -0.3192  0.8616 -0.5951
  849MOL0     O17083   9.121   3.894   0.313 -0.2309 -0.3832 -0.2976
  849MOL0     C17084   9.121   3.832   0.188 -0.1502  0.2043  0.0611
  849MOL0     C17085   9.003   3.900   0.105 -0.2575  0.3740  0.2579
  849MOL0     C17086   9.027   4.053   0.064 -0.6973 -0.7242  0.6579
  849MOL0     C17087   9.087   4.050  -0.076 -0.5492 -0.1759  0.3460
  849MOL0     C17088   9.128   4.182  -0.115 -0.8691 -0.7970 -0.1230
  849MOL0     C17089   9.144   4.303  -0.144 -0.4399  0.9957 -0.3970
  849MOL0     C17090   9.255   4.016   0.468 -0.2021  0.7247  0.8728
  849MOL0     C17091   9.372   4.031   0.543  0.4691 -1.0552  0.6524
  849MOL0     C17092   9.361   4.124   0.654 -0.3757 -0.0753  0.5120
  849MOL0     H17093   9.873   4.161   0.619 -0.7914  0.3692  0.6748
  849MOL0     H17094  10.103   4.156   0.698 -1.1273  0.2365  1.4489
  849MOL0     H17095  10.289   4.059   0.845  0.3911 -1.0495 -0.4314
  849MOL0     H17096  10.366   4.099   0.691  0.1983 -0.0015  1.0144
  849MOL0     H17097  10.429   3.860   0.879 -2.2050  0.7957  0.4513
  849MOL0     H17098  10.502   3.886   0.715 -0.6000  2.4523 -1.3436
  849MOL0     H17099  10.512   4.058   0.959  0.2422 -3.5745  1.2602
  849MOL0     H17100  10.645   3.963   0.903  1.0723  0.3327  0.4703
  849MOL0     H17101  10.677   4.096   0.702  0.0370  0.2713  0.2240
  849MOL0     H17102  10.540   4.201   0.742 -1.4076 -0.1479  2.5508
  849MOL0     H17103  10.767   4.161   0.945 -1.1487 -2.6569 -2.0312
  849MOL0     H17104  10.640   4.276   0.939  0.4246  0.5139  0.5088
  849MOL0     H17105  10.709   4.369   0.733 -0.6749 -0.8268 -0.4918
  849MOL0     H17106  10.825   4.401   0.866 -1.3894  0.6063  1.1720
  849MOL0     H17107  10.862   4.180   0.655 -5.0223  0.5190  1.6293
  849MOL0     H17108  10.969   4.213   0.799  1.7025  3.1127 -0.8221
  849MOL0     H17109  10.906   4.402   0.577 -0.3574 -3.1239  0.0076
  849MOL0     H17110  11.002   4.449   0.727  4.3027 -0.9553  1.0308
  849MOL0     H17111  11.001   4.179   0.449  1.1302 -1.8527 -0.7845
  849MOL0     H17112  11.371   4.161   0.313 -1.6634  1.7648 -0.1180
  849MOL0     H17113  11.224   4.092   0.259  2.0671 -1.7774 -0.9172
  849MOL0     H17114  11.236   3.912   0.418  0.3205 -1.0327  0.7024
  849MOL0     H17115  11.400   3.939   0.339 -0.1190 -1.1762  1.0502
  849MOL0     H17116  11.489   4.035   0.489 -0.3502  1.6222  1.1071
  849MOL0     H17117  11.350   4.072   0.606 -0.0700  0.4845  0.2534
  849MOL0     H17118  11.339   3.847   0.681 -0.6571  2.1240 -0.4578
  849MOL0     H17119  11.415   3.780   0.533 -1.1682 -0.5699  1.2805
  849MOL0     H17120  11.613   3.804   0.418  0.0274 -0.8398  1.9341
  849MOL0     H17121  11.754   3.733   0.240  2.0809  0.3488 -2.4368
  849MOL0     H17122  11.843   3.593   0.310  0.6587 -0.1495  0.4757
  849MOL0     H17123  11.928   3.744   0.283  1.3876 -1.2316  2.4263
  849MOL0     H17124  12.265   3.515   0.734 -1.8593 -2.9265 -1.6910
  849MOL0     H17125  12.472   3.399   0.685  0.7050  0.0265 -0.0467
  849MOL0     H17126  12.754   3.512   0.647  0.5559  0.1152  1.1694
  849MOL0     H17127  12.684   3.351   0.682  1.3159  0.8666  0.4089
  849MOL0     H17128  12.808   3.248   0.495  3.6120 -1.7389 -0.4606
  849MOL0     H17129  12.900   3.397   0.489  0.3384 -2.2686 -1.3296
  849MOL0     H17130  12.851   3.231   0.754 -0.0796  0.5877  0.7569
  849MOL0     H17131  12.937   3.382   0.741 -2.8723  1.7958 -2.4352
  849MOL0     H17132  13.094   3.268   0.576 -1.0872  0.0624 -1.2032
  849MOL0     H17133  12.997   3.117   0.600  0.3391 -0.7358  1.6359
  849MOL0     H17134  13.103   3.248   0.842 -1.0694  1.2084 -1.3726
  849MOL0     H17135  13.064   3.081   0.824 -2.2823 -1.3298 -4.2951
  849MOL0     H17136  13.318   3.100   0.809  1.3638 -0.8814 -1.3036
  849MOL0     H17137  13.298   3.203   0.666 -1.1706 -0.1499 -1.0479
  849MOL0     H17138  13.218   3.042   0.527 -0.5277 -2.8861 -1.1882
  849MOL0     H17139  13.153   2.947   0.655  0.8678  0.4471  1.2301
  849MOL0     H17140  13.345   2.858   0.542 -1.6035  1.4291 -1.5273
  849MOL0     H17141  13.364   2.855   0.720 -1.2974  1.6784  1.2839
  849MOL0     H17142  12.524   3.605   0.322 -1.8585  1.2357 -2.1339
  849MOL0     H17143  12.300   3.715   0.356 -1.3588 -0.7827 -0.7721
  849MOL0     H17144  11.976   3.738   0.742  0.5045 -4.4562 -2.1946
  849MOL0     H17145  11.751   3.859   0.813 -1.2388 -2.8544  0.5565
  849MOL0     H17146  10.118   3.742   0.614 -1.8224  0.0088 -2.2183
  849MOL0     H17147   9.871   3.749   0.543  1.0870 -0.7855 -0.5155
  849MOL0     H17148   9.577   3.806   0.395  1.0440  1.3915  0.8614
  849MOL0     H17149   9.372   3.745   0.283  3.8001 -0.1589  0.2173
  849MOL0     H17150   9.216   3.861   0.143 -1.2759  1.1806 -1.8084
  849MOL0     H17151   9.102   3.725   0.192 -2.8158  0.5410 -0.9424
  849MOL0     H17152   8.913   3.897   0.167  0.1427  1.8572  0.9363
  849MOL0     H17153   8.974   3.840   0.018 -0.2902 -0.9506  1.1391
  849MOL0     H17154   8.936   4.114   0.056  0.3158  0.7990  0.3157
  849MOL0     H17155   9.086   4.097   0.144  0.7895  1.0574 -1.2933
  849MOL0     H17156   9.011   4.016  -0.147 -1.3205  0.7953  0.6875
  849MOL0     H17157   9.174   3.983  -0.081  0.1307  0.7572 -0.6831
  849MOL0     H17158   9.139   4.407  -0.171 -2.5451  0.8872 -0.5831
  849MOL0     H17159   9.166   4.070   0.500  0.1102  0.8225  1.5774
  849MOL0     H17160   9.418   4.216   0.639  1.3602 -0.4047  4.1214
  849MOL0     H17161   9.258   4.147   0.682 -0.1707 -0.2973  1.4955
  849MOL0     H17162   9.399   4.077   0.745  1.0655 -0.8541 -0.4671
  850MOL0     O17163  10.406   3.433   2.053  0.2141  0.1994  0.4714
  850MOL0     C17164  10.380   3.327   2.113  0.2698 -0.2200 -0.5501
  850MOL0     O17165  10.459   3.270   2.207  0.4882 -0.1037 -0.2152
  850MOL0     C17166  10.577   3.329   2.245 -0.1517  0.1145 -0.0750
  850MOL0     C17167  10.600   3.344   2.388  0.7162  0.1358  1.0696
  850MOL0     C17168  10.704   3.416   2.436 -0.6322 -0.6145 -0.1392
  850MOL0     C17169  10.792   3.470   2.345 -0.0437 -0.2221  0.2802
  850MOL0     O17170  10.911   3.538   2.378 -0.0636  0.4075  0.0552
  850MOL0     C17171  10.944   3.532   2.520  0.5743  0.5933  0.3012
  850MOL0     C17172  11.089   3.584   2.531 -0.5761  0.4052  0.5444
  850MOL0     C17173  11.188   3.525   2.430  0.1657 -0.0852  0.6061
  850MOL0     C17174  11.327   3.539   2.476 -0.6309 -0.1696 -0.3108
  850MOL0     C17175  11.429   3.478   2.373 -0.2842 -0.4969  0.2909
  850MOL0     C17176  11.551   3.409   2.440  0.4653 -0.2549 -0.3475
  850MOL0     C17177  11.611   3.505   2.542 -0.0603 -0.0365  0.1801
  850MOL0     C17178  11.747   3.467   2.596  0.2506 -0.2622  0.1914
  850MOL0     N17179  11.796   3.586   2.676 -0.3945  0.6048 -1.0109
  850MOL0     C17180  11.915   3.589   2.738 -0.3654 -0.2698 -0.7167
  850MOL0     C17181  11.913   3.711   2.795  0.0289 -0.3770 -0.9306
  850MOL0     C17182  12.015   3.765   2.894 -0.0404 -0.4088 -0.2675
  850MOL0     C17183  11.943   3.882   2.977  0.5876 -0.2415  0.3554
  850MOL0     C17184  12.024   3.910   3.105  0.1970 -0.1624  0.7506
  850MOL0     C17185  12.162   3.976   3.092  0.5966  0.4074  0.4381
  850MOL0     O17186  12.242   3.868   3.047  0.1698 -0.0928  0.4235
  850MOL0     C17187  12.367   3.894   3.019 -0.6947  0.1741 -0.1960
  850MOL0     C17188  12.429   4.021   3.047 -1.4658  0.1509  0.2737
  850MOL0     C17189  12.564   4.047   3.004  0.3333  0.0623  0.1512
  850MOL0     C17190  12.600   4.181   3.039 -0.2083  0.7276  0.0861
  850MOL0     C17191  12.632   3.945   2.925 -0.5843 -0.8175 -0.9618
  850MOL0     C17192  12.778   3.951   2.891 -0.7423 -0.0593 -0.2492
  850MOL0     O17193  12.830   3.839   2.829  0.5148 -0.1807 -0.1234
  850MOL0     C17194  12.966   3.826   2.813  0.0016 -0.4601  1.1488
  850MOL0     C17195  13.035   3.810   2.692 -0.6970  1.1368  0.0582
  850MOL0     C17196  13.171   3.777   2.674 -0.1000 -0.4730 -0.3258
  850MOL0     C17197  13.244   3.759   2.792  0.4579  0.1209  1.2912
  850MOL0     O17198  13.376   3.726   2.796 -0.2903  0.7548 -0.1851
  850MOL0     C17199  13.447   3.689   2.679 -0.1866  0.2634 -0.5740
  850MOL0     C17200  13.598   3.668   2.695  0.5287  0.4757  0.2243
  850MOL0     C17201  13.669   3.782   2.759 -0.6547  0.3557 -0.4837
  850MOL0     C17202  13.819   3.754   2.751  0.2945 -0.4755 -0.2790
  850MOL0     C17203  13.892   3.846   2.852 -0.0103  0.0535 -0.0860
  850MOL0     C17204  14.036   3.799   2.863  0.7692  0.6138  0.3125
  850MOL0     C17205  14.120   3.887   2.945 -0.3020  0.3142 -0.2381
  850MOL0     C17206  14.065   3.939   3.075  0.2045  0.2751  0.3161
  850MOL0    Cl17207  14.005   3.801   3.180 -0.1708  0.3532  0.0656
  850MOL0     C17208  13.176   3.761   2.918  0.5774  0.2980 -0.4824
  850MOL0     C17209  13.045   3.806   2.925  0.4505  0.3988 -1.1383
  850MOL0     O17210  12.847   4.056   2.908  0.0566  0.4656  0.2064
  850MOL0     C17211  12.562   3.823   2.898  0.3069  0.4102  0.4155
  850MOL0     C17212  12.435   3.799   2.944 -0.2437  0.0134 -0.0882
  850MOL0     N17213  11.808   3.793   2.756  0.2566  0.6093 -0.4639
  850MOL0     N17214  11.731   3.709   2.675  0.6329  0.3626 -0.4703
  850MOL0     C17215  10.782   3.444   2.211 -0.7793 -0.4309 -0.0835
  850MOL0     C17216  10.678   3.380   2.159  0.5463  0.4958 -0.1700
  850MOL0     C17217  10.255   3.258   2.078  1.1014 -0.7313 -0.4911
  850MOL0     C17218  10.166   3.323   1.990 -0.1047 -0.6546 -1.0537
  850MOL0     C17219  10.045   3.272   1.943 -0.3216 -0.6666 -0.5823
  850MOL0     C17220  10.005   3.143   1.981 -0.0298 -0.7034  0.5853
  850MOL0     O17221   9.888   3.089   1.941 -0.6131 -0.1327  0.2956
  850MOL0     C17222   9.901   2.973   1.854  0.6771  0.0801  0.3718
  850MOL0     C17223   9.871   3.031   1.713  0.2859 -0.0933 -0.3855
  850MOL0     C17224   9.718   3.052   1.703 -0.4258  0.2696  0.0859
  850MOL0     C17225   9.685   3.114   1.563  0.5975 -0.2415  0.4118
  850MOL0     C17226   9.544   3.159   1.558 -0.8051  0.4031  0.3074
  850MOL0     C17227   9.429   3.184   1.544  0.2440 -0.1178  0.2070
  850MOL0     C17228  10.086   3.072   2.067 -0.0297  0.2000  0.9502
  850MOL0     C17229  10.203   3.131   2.122  0.2907  0.5148  0.8204
  850MOL0     C17230  10.284   3.045   2.218 -0.3189  0.6683 -0.0269
  850MOL0     H17231  10.532   3.302   2.460 -0.5323 -0.9664 -0.6632
  850MOL0     H17232  10.719   3.424   2.543 -0.7578 -1.2509 -0.0690
  850MOL0     H17233  10.943   3.427   2.548 -1.0846  0.7580  0.9237
  850MOL0     H17234  10.867   3.583   2.578 -0.6891  1.2911 -1.8524
  850MOL0     H17235  11.081   3.690   2.503  1.9799 -0.1416 -2.8563
  850MOL0     H17236  11.125   3.567   2.633  0.3380  0.8547  0.3067
  850MOL0     H17237  11.165   3.418   2.434 -0.1233 -0.0092  0.9944
  850MOL0     H17238  11.172   3.556   2.326 -0.6535  0.0264  0.7600
  850MOL0     H17239  11.357   3.643   2.484  0.6790 -0.6179  1.0954
  850MOL0     H17240  11.342   3.499   2.577 -0.1766  2.5429  0.7735
  850MOL0     H17241  11.456   3.557   2.303 -0.6730  0.5318  1.2850
  850MOL0     H17242  11.388   3.398   2.309  0.5895 -1.0756  0.4396
  850MOL0     H17243  11.522   3.318   2.494  0.0763 -0.3799 -0.7641
  850MOL0     H17244  11.623   3.392   2.359  0.3382  2.3606 -1.1050
  850MOL0     H17245  11.545   3.512   2.629  0.5412 -3.5572  1.0679
  850MOL0     H17246  11.610   3.597   2.483  2.1608 -2.2790 -3.7911
  850MOL0     H17247  11.766   3.381   2.661 -0.1638 -0.0334  0.6183
  850MOL0     H17248  11.812   3.456   2.508  0.4010 -3.8601  0.6015
  850MOL0     H17249  11.989   3.511   2.752  2.6623  2.3680 -0.7311
  850MOL0     H17250  12.094   3.821   2.844  0.4549  0.4828  1.4377
  850MOL0     H17251  12.048   3.681   2.956 -1.1501 -0.0697  0.8178
  850MOL0     H17252  11.937   3.976   2.921  0.5927  0.2978  1.2373
  850MOL0     H17253  11.838   3.851   2.984 -0.1463  1.4878 -1.9666
  850MOL0     H17254  11.957   3.971   3.167 -0.2251 -1.9514  2.1684
  850MOL0     H17255  12.036   3.818   3.163 -3.4183 -2.2446 -1.4248
  850MOL0     H17256  12.153   4.052   3.014  2.2128  0.7920  0.5888
  850MOL0     H17257  12.191   4.029   3.184 -0.3414  0.5447  0.6628
  850MOL0     H17258  12.371   4.100   3.093 -1.0175  0.1309  0.8861
  850MOL0     H17259  12.586   4.194   3.147 -0.8239  1.1915 -0.0450
  850MOL0     H17260  12.534   4.251   2.987 -1.9177 -0.8143  0.1189
  850MOL0     H17261  12.706   4.207   3.023  1.6989 -3.1034  4.2541
  850MOL0     H17262  12.970   3.810   2.605  0.9167  1.2503 -1.2146
  850MOL0     H17263  13.225   3.770   2.580  3.5255  3.9719  1.0071
  850MOL0     H17264  13.409   3.591   2.648 -0.1410 -0.4657  1.5207
  850MOL0     H17265  13.416   3.768   2.610  0.4842  1.5983  0.5953
  850MOL0     H17266  13.613   3.575   2.752  1.3819 -0.1706 -1.0204
  850MOL0     H17267  13.644   3.648   2.599  0.0167 -0.5251  0.1723
  850MOL0     H17268  13.645   3.791   2.865  1.8694  0.7631  0.1088
  850MOL0     H17269  13.649   3.877   2.708  0.2630  0.6672 -0.2883
  850MOL0     H17270  13.855   3.764   2.648  0.4167  2.2319 -0.0631
  850MOL0     H17271  13.844   3.652   2.781  4.4196  0.4025 -0.0585
  850MOL0     H17272  13.890   3.950   2.820 -0.5746 -0.2997 -1.2703
  850MOL0     H17273  13.847   3.828   2.951  0.2994 -3.2921 -0.4264
  850MOL0     H17274  14.081   3.778   2.766  0.4148  2.0096 -0.1798
  850MOL0     H17275  14.029   3.701   2.912 -0.6610  1.4960  1.9950
  850MOL0     H17276  14.135   3.977   2.885 -2.3756  0.2861 -0.8612
  850MOL0     H17277  14.213   3.836   2.972 -0.4189  2.1156  4.6218
  850MOL0     H17278  13.983   4.006   3.050 -2.5940 -2.3582  1.7580
  850MOL0     H17279  14.142   3.995   3.129  3.4270 -2.2047 -1.2999
  850MOL0     H17280  13.223   3.732   3.012 -2.6052 -2.7844  0.3661
  850MOL0     H17281  12.996   3.825   3.020 -0.3495  0.1953 -1.5077
  850MOL0     H17282  12.605   3.737   2.848 -4.3506 -1.4165 -1.0176
  850MOL0     H17283  12.377   3.709   2.925  0.0496 -0.5693  1.6270
  850MOL0     H17284  10.857   3.491   2.148 -1.3674  0.3981 -0.1819
  850MOL0     H17285  10.674   3.370   2.051  2.4758  3.4592 -0.6282
  850MOL0     H17286  10.191   3.428   1.975 -1.8878 -0.0270  0.0815
  850MOL0     H17287   9.975   3.329   1.883  0.0259  0.8042  0.3625
  850MOL0     H17288  10.000   2.926   1.852  0.0294 -1.3595  0.8516
  850MOL0     H17289   9.834   2.891   1.880  0.4283 -0.1627 -0.9414
  850MOL0     H17290   9.901   2.943   1.655 -0.8816 -1.8896  1.5834
  850MOL0     H17291   9.930   3.119   1.690 -0.5995  0.1050 -2.0333
  850MOL0     H17292   9.670   2.953   1.707  1.1933 -0.6921 -2.2604
  850MOL0     H17293   9.694   3.121   1.784 -0.2439 -3.5683  3.7938
  850MOL0     H17294   9.704   3.042   1.484  1.2660  0.7556 -0.3662
  850MOL0     H17295   9.751   3.193   1.526 -0.6551 -0.6992 -3.2064
  850MOL0     H17296   9.327   3.217   1.547  0.7946  1.6342  2.7297
  850MOL0     H17297  10.064   2.969   2.091 -2.0086 -0.6130 -3.3571
  850MOL0     H17298  10.292   3.095   2.314 -0.5820 -1.5175  1.1971
  850MOL0     H17299  10.237   2.947   2.233  1.7614 -0.5422 -0.8734
  850MOL0     H17300  10.388   3.039   2.186  0.8633  2.4093  3.1197
  851MOL0     O17301   2.367   9.717  11.278 -0.0024  0.1326  0.4998
  851MOL0     C17302   2.289   9.630  11.316  2.0493 -0.0314 -0.4164
  851MOL0     O17303   2.305   9.544  11.426  0.0848 -0.6243  1.1239
  851MOL0     C17304   2.439   9.506  11.474  0.3962 -0.2091 -0.7531
  851MOL0     C17305   2.555   9.587  11.488 -0.2103  0.6094 -0.0569
  851MOL0     C17306   2.674   9.536  11.536  0.4857  0.2711 -0.5135
  851MOL0     C17307   2.681   9.406  11.581 -0.0640  0.6574  0.7159
  851MOL0     O17308   2.792   9.350  11.641 -0.8485  0.5438  0.2240
  851MOL0     C17309   2.928   9.389  11.617  0.3216  1.3012  0.8537
  851MOL0     C17310   3.016   9.266  11.583  0.5173  0.2695 -0.4451
  851MOL0     C17311   3.167   9.295  11.573 -0.7278  0.5592 -0.5301
  851MOL0     C17312   3.200   9.385  11.452 -0.5671 -0.0428 -0.7458
  851MOL0     C17313   3.340   9.422  11.461 -0.2042 -0.4272  0.7618
  851MOL0     C17314   3.389   9.451  11.315  0.4787  0.6931  0.2508
  851MOL0     C17315   3.509   9.544  11.313  0.3196 -0.7274  0.0683
  851MOL0     C17316   3.626   9.486  11.389 -0.0752 -0.4927  0.0939
  851MOL0     N17317   3.760   9.512  11.336 -0.5619 -0.1919 -0.6284
  851MOL0     C17318   3.809   9.638  11.327  0.4339  0.2798 -0.2634
  851MOL0     C17319   3.937   9.624  11.289  0.1072  0.6771 -0.2969
  851MOL0     C17320   4.029   9.737  11.268 -0.6636 -0.1522 -0.3733
  851MOL0     C17321   4.047   9.757  11.117  0.7157 -0.7200 -0.1309
  851MOL0     C17322   4.138   9.870  11.081  0.5317 -0.4182 -0.6687
  851MOL0     C17323   4.142   9.881  10.924  0.8352  0.3125  0.1957
  851MOL0     O17324   4.218   9.999  10.884  0.1452  0.3648  0.2561
  851MOL0     C17325   4.357   9.996  10.891  0.1396 -0.0890  0.4924
  851MOL0     C17326   4.437   9.884  10.890  0.2696  0.1931  0.0808
  851MOL0     C17327   4.579   9.896  10.895  0.0469 -0.0090 -0.2883
  851MOL0     C17328   4.646   9.760  10.899 -0.2107 -0.2540 -0.4989
  851MOL0     C17329   4.643  10.018  10.901  1.4173 -0.5221 -0.5236
  851MOL0     C17330   4.789  10.038  10.911 -0.3171  0.9480  0.0321
  851MOL0     O17331   4.822  10.159  10.960 -0.1155 -0.2849  0.9871
  851MOL0     C17332   4.942  10.195  10.982 -0.1287 -0.7980  0.1531
  851MOL0     C17333   5.052  10.109  11.018 -0.0532 -0.1368  0.3897
  851MOL0     C17334   5.185  10.158  11.036 -0.0692 -0.2253  0.4044
  851MOL0     C17335   5.209  10.293  11.037 -1.1717  0.1615 -0.0239
  851MOL0     O17336   5.333  10.333  11.075 -0.1353 -0.1849 -0.4592
  851MOL0     C17337   5.442  10.278  10.995 -0.1241 -0.5101  0.0106
  851MOL0     C17338   5.554  10.383  10.997  0.1868  0.0096  0.6243
  851MOL0     C17339   5.694  10.326  10.975 -0.5897  0.6202 -0.1715
  851MOL0     C17340   5.814  10.412  10.957  0.8645 -0.7599 -0.6420
  851MOL0     C17341   5.938  10.330  10.934 -0.4015  0.2108 -0.4165
  851MOL0     C17342   6.065  10.412  10.962 -0.0868  0.4061 -0.5423
  851MOL0     C17343   6.194  10.342  10.918 -0.3978 -0.2583  0.4142
  851MOL0     C17344   6.316  10.437  10.904 -0.0885  0.4852 -0.1683
  851MOL0    Cl17345   6.320  10.541  11.053  0.1151  0.1307 -0.0196
  851MOL0     C17346   5.106  10.382  11.008 -0.2902  0.2211 -0.3594
  851MOL0     C17347   4.977  10.335  10.970  0.8061  0.0557  0.4712
  851MOL0     O17348   4.867   9.954  10.867 -0.0482  0.0834  0.3772
  851MOL0     C17349   4.553  10.132  10.911 -0.2734  0.3707  0.0916
  851MOL0     C17350   4.417  10.122  10.896  0.4270  0.2833 -0.2449
  851MOL0     N17351   3.956   9.487  11.279 -0.5442 -0.3362  0.6833
  851MOL0     N17352   3.846   9.421  11.291 -0.1299 -0.4661  0.1676
  851MOL0     C17353   2.568   9.324  11.570  0.0912  0.2370 -0.4696
  851MOL0     C17354   2.453   9.375  11.517  0.2759 -0.2553  0.9621
  851MOL0     C17355   2.151   9.616  11.249 -0.6089 -0.1561  0.5275
  851MOL0     C17356   2.053   9.525  11.303  0.8222  0.6559  0.2823
  851MOL0     C17357   1.931   9.508  11.231  0.1179 -0.1751 -0.7756
  851MOL0     C17358   1.906   9.562  11.111  0.0224 -0.0169  0.6078
  851MOL0     O17359   1.789   9.527  11.044  0.1228 -0.3123 -0.2323
  851MOL0     C17360   1.736   9.629  10.957 -0.0418 -0.0224 -0.7139
  851MOL0     C17361   1.592   9.589  10.904 -0.1701 -0.8061 -0.6039
  851MOL0     C17362   1.499   9.562  11.014  0.5779  0.4616 -0.2555
  851MOL0     C17363   1.356   9.591  10.976  0.5249  0.7098  0.0740
  851MOL0     C17364   1.318   9.497  10.874 -0.2972  0.1861 -0.0249
  851MOL0     C17365   1.290   9.401  10.803 -0.9585  0.7372 -0.5385
  851MOL0     C17366   1.998   9.652  11.060 -0.6079  0.3254 -0.0601
  851MOL0     C17367   2.123   9.684  11.122  0.4465 -0.3294 -0.7104
  851MOL0     C17368   2.207   9.789  11.052  0.4230  0.1459 -0.0500
  851MOL0     H17369   2.546   9.690  11.456 -1.2842  0.9245  1.1754
  851MOL0     H17370   2.765   9.595  11.543  0.6973  0.0941 -1.4904
  851MOL0     H17371   2.966   9.446  11.703  0.7480 -0.1210  1.6312
  851MOL0     H17372   2.939   9.455  11.530 -1.5980  1.8455  0.9659
  851MOL0     H17373   3.012   9.188  11.660 -0.3345  1.8971  1.2442
  851MOL0     H17374   2.971   9.229  11.491  1.7558 -1.8672 -0.2459
  851MOL0     H17375   3.209   9.334  11.666  0.6496 -0.8099 -0.5300
  851MOL0     H17376   3.215   9.201  11.546 -2.3556 -0.7067  0.7925
  851MOL0     H17377   3.176   9.326  11.364 -0.5345 -0.3186 -0.5723
  851MOL0     H17378   3.138   9.474  11.443  0.6863  0.9933  0.4437
  851MOL0     H17379   3.399   9.333  11.485  1.4292  0.2226 -0.6414
  851MOL0     H17380   3.353   9.504  11.531 -2.0371  1.2738 -0.7640
  851MOL0     H17381   3.403   9.362  11.252  1.1125  0.7429  0.3089
  851MOL0     H17382   3.313   9.504  11.258 -1.3893 -1.6794  0.3732
  851MOL0     H17383   3.477   9.640  11.355 -0.5912  0.6581 -3.3672
  851MOL0     H17384   3.540   9.561  11.209 -0.3213  0.3744  0.0386
  851MOL0     H17385   3.623   9.519  11.493 -2.1059  1.8117 -0.5816
  851MOL0     H17386   3.615   9.378  11.380  1.6508 -0.7078  0.1651
  851MOL0     H17387   3.764   9.729  11.364  2.0595 -0.3758  3.8053
  851MOL0     H17388   4.122   9.707  11.318 -2.5500 -0.1180  3.5705
  851MOL0     H17389   3.995   9.830  11.315 -1.1089 -0.6032  0.2173
  851MOL0     H17390   4.102   9.677  11.066  2.1919 -0.3627  0.8214
  851MOL0     H17391   3.947   9.758  11.073  0.7227  0.9427 -0.1927
  851MOL0     H17392   4.109   9.965  11.126  1.6016 -1.8396  3.4694
  851MOL0     H17393   4.242   9.851  11.109  1.0408  1.5862 -1.0322
  851MOL0     H17394   4.190   9.787  10.893 -1.8847 -0.5939 -1.5877
  851MOL0     H17395   4.039   9.887  10.889 -0.6460  1.6448  4.2413
  851MOL0     H17396   4.395   9.784  10.880 -0.2601  0.2136  1.7776
  851MOL0     H17397   4.664   9.713  10.801  2.8283 -0.2051 -0.0780
  851MOL0     H17398   4.576   9.693  10.949 -0.1711 -0.2611 -0.4527
  851MOL0     H17399   4.737   9.754  10.960  0.9946  3.0242 -1.7565
  851MOL0     H17400   5.047  10.002  11.034  1.9108 -0.4704 -0.8632
  851MOL0     H17401   5.268  10.090  11.050  1.1080  0.9179 -0.7085
  851MOL0     H17402   5.479  10.189  11.047  1.9202 -0.0047 -0.4896
  851MOL0     H17403   5.406  10.240  10.899  0.3199  0.2837 -0.4803
  851MOL0     H17404   5.548  10.448  10.909  2.4415 -0.7503 -0.1557
  851MOL0     H17405   5.537  10.442  11.088  1.5740  1.6222 -0.1223
  851MOL0     H17406   5.699  10.265  10.885  5.5116 -2.3016  1.5932
  851MOL0     H17407   5.706  10.259  11.061  0.8869 -1.0299 -1.5990
  851MOL0     H17408   5.819  10.487  11.037  0.7267 -0.6419 -0.7427
  851MOL0     H17409   5.795  10.462  10.861 -0.0420 -2.7945 -1.5823
  851MOL0     H17410   5.937  10.250  11.009  4.6871  0.4977  0.3287
  851MOL0     H17411   5.934  10.287  10.833 -1.2662  1.1489 -0.7938
  851MOL0     H17412   6.066  10.446  11.066  0.3963 -1.7307  0.2019
  851MOL0     H17413   6.056  10.506  10.907 -1.3269 -0.5804 -2.0974
  851MOL0     H17414   6.181  10.286  10.825 -0.2070 -0.5426  0.5592
  851MOL0     H17415   6.216  10.271  10.998  3.0961  1.2990  1.0096
  851MOL0     H17416   6.302  10.497  10.813  4.8780  1.8731 -0.3085
  851MOL0     H17417   6.412  10.386  10.896  0.6891  1.0235  3.6807
  851MOL0     H17418   5.129  10.488  11.012 -0.9086  0.3273  1.9495
  851MOL0     H17419   4.895  10.396  10.934  0.4002 -2.6189 -3.9273
  851MOL0     H17420   4.594  10.232  10.908 -2.2560  1.4482  3.1329
  851MOL0     H17421   4.353  10.207  10.916  1.9061  2.0359 -2.3720
  851MOL0     H17422   2.564   9.224  11.613  0.8949 -0.7070 -2.4828
  851MOL0     H17423   2.362   9.317  11.510  0.1918  0.0723 -1.0279
  851MOL0     H17424   2.061   9.463  11.392 -1.4736 -1.2699 -0.7593
  851MOL0     H17425   1.854   9.439  11.266 -0.6562  0.5677 -0.9806
  851MOL0     H17426   1.724   9.723  11.012  3.0953 -0.6834  1.3666
  851MOL0     H17427   1.805   9.645  10.873  1.0277  0.2748  0.2002
  851MOL0     H17428   1.611   9.494  10.854 -1.5184  0.1304 -3.0683
  851MOL0     H17429   1.562   9.664  10.830  1.7698  0.1871 -0.4633
  851MOL0     H17430   1.503   9.454  11.026  0.9468  0.2239 -2.2369
  851MOL0     H17431   1.514   9.617  11.108 -3.3239 -0.0127  0.8267
  851MOL0     H17432   1.341   9.697  10.955 -0.0161  0.9463  1.5269
  851MOL0     H17433   1.296   9.584  11.067  1.2184  3.4093  0.8272
  851MOL0     H17434   1.246   9.325  10.742 -0.7016 -0.0304  0.2070
  851MOL0     H17435   1.990   9.702  10.964  2.1402 -1.4137 -1.3034
  851MOL0     H17436   2.294   9.758  10.993  0.3784  0.5694 -0.3418
  851MOL0     H17437   2.136   9.833  10.982 -1.6576 -5.1205 -1.7347
  851MOL0     H17438   2.243   9.859  11.129  1.8378 -0.3942 -0.1987
  852MOL0     O17439   2.117   2.856   7.005 -0.2827  0.4849 -0.6746
  852MOL0     C17440   2.035   2.952   7.022 -0.5048 -0.0161 -0.0150
  852MOL0     O17441   2.066   3.066   7.091 -0.2001 -0.6749 -0.0392
  852MOL0     C17442   2.202   3.087   7.118 -0.0173  0.5666 -0.1758
  852MOL0     C17443   2.265   3.201   7.070 -0.4562 -0.3572 -0.0307
  852MOL0     C17444   2.394   3.233   7.099  0.5354 -0.6498  0.6689
  852MOL0     C17445   2.467   3.152   7.178  0.0385  0.4697 -0.0571
  852MOL0     O17446   2.597   3.186   7.190 -0.4066  0.0440 -0.1697
  852MOL0     C17447   2.690   3.099   7.245  0.0634 -0.6951  0.2264
  852MOL0     C17448   2.785   3.174   7.336  0.2783 -0.0083  0.1423
  852MOL0     C17449   2.723   3.269   7.434  0.2957 -0.0075 -0.2775
  852MOL0     C17450   2.835   3.320   7.512  0.9196  0.1490  0.1243
  852MOL0     C17451   2.929   3.425   7.434  0.8787 -0.1638 -0.2296
  852MOL0     C17452   2.843   3.558   7.413  0.0218  0.0078  1.2083
  852MOL0     C17453   2.948   3.680   7.399 -0.5849  0.3283  0.5651
  852MOL0     C17454   2.866   3.810   7.434  0.7054  0.0795  0.1506
  852MOL0     N17455   2.780   3.860   7.321 -0.6270 -0.3091  0.5905
  852MOL0     C17456   2.645   3.834   7.314 -0.3400 -0.5194 -0.2048
  852MOL0     C17457   2.605   3.885   7.199 -0.2812  0.4907 -0.1515
  852MOL0     C17458   2.466   3.869   7.148  0.8035 -0.4481  0.6201
  852MOL0     C17459   2.449   3.865   6.993 -0.0140  0.2794 -0.8182
  852MOL0     C17460   2.544   3.760   6.936  0.6175 -0.4191  0.6819
  852MOL0     C17461   2.632   3.814   6.824 -0.8774  0.6783 -0.4621
  852MOL0     O17462   2.701   3.710   6.754  0.6781  0.1317 -0.2365
  852MOL0     C17463   2.818   3.738   6.678  0.6691  0.8408 -0.8685
  852MOL0     C17464   2.852   3.865   6.633 -0.7121  0.0188 -0.8506
  852MOL0     C17465   2.986   3.895   6.580  0.4542  0.4295  0.1870
  852MOL0     C17466   3.024   4.042   6.557 -0.6522 -0.2565  0.5052
  852MOL0     C17467   3.077   3.782   6.559 -1.0580  0.4719 -0.9101
  852MOL0     C17468   3.220   3.799   6.515  0.5061  0.1354  0.2868
  852MOL0     O17469   3.265   3.917   6.461  0.2263  0.2444 -0.4056
  852MOL0     C17470   3.395   3.929   6.421 -0.0717  0.2822  0.8814
  852MOL0     C17471   3.439   3.905   6.292  0.0888 -0.4655 -0.7028
  852MOL0     C17472   3.571   3.930   6.254  0.0794  0.1516  0.0577
  852MOL0     C17473   3.670   3.972   6.343  1.2627 -0.1905  0.1872
  852MOL0     O17474   3.797   3.975   6.303  0.1880 -0.4239  0.0835
  852MOL0     C17475   3.901   4.004   6.403 -0.6326  0.0923 -0.6516
  852MOL0     C17476   4.027   3.999   6.316 -0.1758 -0.5401 -0.2119
  852MOL0     C17477   4.135   4.091   6.373 -0.0305  0.5422 -0.2471
  852MOL0     C17478   4.255   4.093   6.281 -0.3136 -0.0165  0.1440
  852MOL0     C17479   4.387   4.140   6.345  0.0004  0.3111  0.0560
  852MOL0     C17480   4.504   4.119   6.248 -0.1644 -0.7751  0.1274
  852MOL0     C17481   4.634   4.174   6.316 -0.8385  0.0638 -0.0143
  852MOL0     C17482   4.765   4.157   6.237  0.5894  0.2016  0.0094
  852MOL0    Cl17483   4.804   3.984   6.206  0.0251  0.1742 -0.3056
  852MOL0     C17484   3.625   3.989   6.475  0.4126  0.6246 -1.2064
  852MOL0     C17485   3.486   3.961   6.515 -0.4598  0.2210  0.1213
  852MOL0     O17486   3.294   3.707   6.546  0.6618  0.0914 -0.6019
  852MOL0     C17487   3.030   3.653   6.581  0.0781 -0.8262 -0.8877
  852MOL0     C17488   2.908   3.635   6.636 -0.1417  1.1824 -0.4714
  852MOL0     N17489   2.712   3.940   7.136 -0.0454  0.6692  0.1202
  852MOL0     N17490   2.817   3.924   7.205 -0.0113 -0.2091  1.1778
  852MOL0     C17491   2.407   3.037   7.240 -0.3872 -0.7203  0.7036
  852MOL0     C17492   2.274   3.007   7.211 -0.4746  0.0920 -0.2267
  852MOL0     C17493   1.914   2.949   6.944  1.3442  0.5573 -0.4871
  852MOL0     C17494   1.877   2.823   6.896  0.9479  0.3076 -0.0910
  852MOL0     C17495   1.759   2.805   6.813 -0.2843 -0.7551 -0.3927
  852MOL0     C17496   1.688   2.914   6.771 -0.4633  0.8799  0.3586
  852MOL0     O17497   1.586   2.886   6.690  0.3607 -0.8221 -0.2423
  852MOL0     C17498   1.466   2.955   6.699  0.4942 -0.8216  0.2347
  852MOL0     C17499   1.348   2.863   6.654  0.7121 -0.1648 -0.1112
  852MOL0     C17500   1.369   2.795   6.518  0.3831 -0.1492 -0.4086
  852MOL0     C17501   1.473   2.685   6.493  0.6444 -0.1932 -0.2439
  852MOL0     C17502   1.482   2.590   6.604 -0.0414 -0.4842 -0.2264
  852MOL0     C17503   1.485   2.504   6.694  0.2820  0.3166  0.5763
  852MOL0     C17504   1.722   3.046   6.822 -0.4185  0.1915 -0.3765
  852MOL0     C17505   1.838   3.065   6.901 -0.5988  0.9003 -0.9732
  852MOL0     C17506   1.873   3.214   6.940  0.2745  0.0492  0.1971
  852MOL0     H17507   2.220   3.266   6.995  2.1100  1.7537  0.1016
  852MOL0     H17508   2.434   3.330   7.070  0.1429 -0.1478  1.7386
  852MOL0     H17509   2.749   3.060   7.162  3.5005 -0.2182  2.2541
  852MOL0     H17510   2.657   3.016   7.309  1.2942  0.3220  2.3120
  852MOL0     H17511   2.848   3.101   7.386 -2.5727 -2.5694  0.2658
  852MOL0     H17512   2.839   3.237   7.264 -2.6412  0.4166 -1.8883
  852MOL0     H17513   2.655   3.339   7.385 -1.8144 -2.6218 -1.3359
  852MOL0     H17514   2.656   3.206   7.492  0.0533 -0.3504 -0.9218
  852MOL0     H17515   2.790   3.365   7.601  4.6990 -2.6619  3.8908
  852MOL0     H17516   2.901   3.236   7.535 -0.9867 -1.8275 -1.1980
  852MOL0     H17517   2.977   3.390   7.343  0.6852 -4.6958  1.1524
  852MOL0     H17518   3.013   3.443   7.501 -0.4026 -0.5580  1.5760
  852MOL0     H17519   2.779   3.539   7.326 -1.7600 -3.2170  3.0199
  852MOL0     H17520   2.779   3.575   7.500  2.1902  2.3696  2.4866
  852MOL0     H17521   2.992   3.670   7.300  1.8373  0.3642  1.5815
  852MOL0     H17522   3.030   3.663   7.469 -0.9362 -1.5521  0.5763
  852MOL0     H17523   2.798   3.791   7.518 -0.9097  2.7809 -0.4255
  852MOL0     H17524   2.927   3.889   7.477  0.0458 -0.1937  1.6523
  852MOL0     H17525   2.596   3.779   7.393  1.8477  1.9182  3.0818
  852MOL0     H17526   2.417   3.960   7.185  1.7368 -0.2321  1.3614
  852MOL0     H17527   2.415   3.786   7.197 -0.9563  0.6089  0.6745
  852MOL0     H17528   2.346   3.837   6.970 -0.2108 -0.6033  1.0029
  852MOL0     H17529   2.474   3.961   6.946 -0.1109 -0.0789 -1.6242
  852MOL0     H17530   2.597   3.707   7.016  0.7949  0.1962  0.9754
  852MOL0     H17531   2.488   3.674   6.897  1.0422 -0.6814  0.6386
  852MOL0     H17532   2.577   3.859   6.741  0.5541  0.7113 -1.4315
  852MOL0     H17533   2.702   3.889   6.863  1.4918 -1.0538 -1.1233
  852MOL0     H17534   2.790   3.951   6.657  0.2981  0.1910  1.4586
  852MOL0     H17535   3.023   4.053   6.449  1.8502 -3.0818  0.0720
  852MOL0     H17536   3.120   4.066   6.605 -0.1561  0.0556 -0.6221
  852MOL0     H17537   2.949   4.104   6.607 -0.5119 -2.6275  4.0495
  852MOL0     H17538   3.361   3.862   6.230 -0.9938 -3.1067  2.2388
  852MOL0     H17539   3.596   3.911   6.150  1.5010 -1.2711  0.6122
  852MOL0     H17540   3.887   4.105   6.444  2.3426  0.4928 -0.4160
  852MOL0     H17541   3.904   3.935   6.488 -2.0510  1.4903  0.5985
  852MOL0     H17542   4.059   3.895   6.312  0.7053 -0.2659 -0.4735
  852MOL0     H17543   4.007   4.031   6.214  0.5847  0.8624  0.0473
  852MOL0     H17544   4.159   4.051   6.472 -0.9108 -0.0622 -0.2760
  852MOL0     H17545   4.100   4.195   6.377  1.4426  1.0413  1.1179
  852MOL0     H17546   4.230   4.166   6.203  3.7051  2.6406  1.0554
  852MOL0     H17547   4.271   3.997   6.232 -2.4549  0.4396 -1.6517
  852MOL0     H17548   4.365   4.246   6.361  1.2490  0.8158 -1.3079
  852MOL0     H17549   4.413   4.093   6.440  3.6338  4.3592  1.4157
  852MOL0     H17550   4.486   4.190   6.167  1.4120  2.2026  2.1938
  852MOL0     H17551   4.524   4.017   6.213  1.8003 -1.0768  1.9022
  852MOL0     H17552   4.657   4.134   6.414 -1.7661 -0.3485  0.0413
  852MOL0     H17553   4.619   4.282   6.327  1.3833  0.2440  1.8793
  852MOL0     H17554   4.844   4.205   6.297 -1.3634  1.7500  1.4675
  852MOL0     H17555   4.754   4.214   6.145 -0.3953  0.8576  0.5254
  852MOL0     H17556   3.687   4.026   6.555 -2.8361  0.2692  1.7491
  852MOL0     H17557   3.461   3.957   6.621  1.5160 -1.5910  0.5821
  852MOL0     H17558   3.083   3.559   6.571  0.3861 -0.6084 -1.3067
  852MOL0     H17559   2.870   3.535   6.656  1.6369  0.7763  1.2093
  852MOL0     H17560   2.461   2.973   7.309 -0.2456  0.0772  1.3461
  852MOL0     H17561   2.231   2.918   7.256 -0.6622 -0.3164 -1.1870
  852MOL0     H17562   1.932   2.733   6.920  1.6426  0.2070 -1.9150
  852MOL0     H17563   1.726   2.706   6.784  2.5524 -1.7352 -0.5595
  852MOL0     H17564   1.442   2.987   6.801  0.6369 -0.9806  0.3191
  852MOL0     H17565   1.475   3.031   6.622 -2.4912 -2.9056 -2.4146
  852MOL0     H17566   1.265   2.934   6.648  0.2604 -0.7038 -0.2345
  852MOL0     H17567   1.321   2.793   6.733  0.2525 -0.7636 -0.7884
  852MOL0     H17568   1.267   2.761   6.495 -0.7113  1.3016  1.9261
  852MOL0     H17569   1.390   2.875   6.447 -0.3466 -2.7033 -3.7716
  852MOL0     H17570   1.565   2.744   6.495  0.8209 -0.4776  0.2057
  852MOL0     H17571   1.477   2.644   6.392  2.7234  0.7236 -0.5819
  852MOL0     H17572   1.493   2.429   6.770 -0.1929 -3.7607 -2.9737
  852MOL0     H17573   1.667   3.133   6.787 -0.2684 -0.6372 -2.8226
  852MOL0     H17574   1.957   3.247   6.878 -0.1330 -1.1114 -1.0137
  852MOL0     H17575   1.790   3.284   6.921 -1.2952 -1.8894 -0.4811
  852MOL0     H17576   1.893   3.234   7.045  0.8715  1.5415 -0.1694
  853MOL0     O17577   5.884  11.088  10.041  0.3511  0.3618  0.1692
  853MOL0     C17578   5.822  11.139  10.132  0.7636  0.2571 -0.8754
  853MOL0     O17579   5.694  11.119  10.167 -0.4147  0.1644 -0.9897
  853MOL0     C17580   5.612  11.022  10.101  0.3979  0.0288  0.3344
  853MOL0     C17581   5.621  10.888  10.125 -0.5672  0.1549 -0.7751
  853MOL0     C17582   5.539  10.794  10.061  0.2143 -0.6619 -0.3431
  853MOL0     C17583   5.454  10.835   9.960  0.0437  0.3804  0.2199
  853MOL0     O17584   5.389  10.740   9.889  0.4265  0.8526 -0.6776
  853MOL0     C17585   5.307  10.776   9.782 -0.2922  0.0239 -0.0180
  853MOL0     C17586   5.223  10.649   9.753 -0.2425 -0.4344  0.2828
  853MOL0     C17587   5.312  10.526   9.723  0.9230  0.2492  0.2291
  853MOL0     C17588   5.246  10.423   9.633 -0.1839  1.0807 -0.0440
  853MOL0     C17589   5.336  10.306   9.595 -0.2279  0.0294  0.2078
  853MOL0     C17590   5.359  10.213   9.716 -0.3062  0.1477  0.0856
  853MOL0     C17591   5.457  10.098   9.676  0.2718 -0.5577 -0.2042
  853MOL0     C17592   5.502  10.033   9.807  0.0269 -0.0538  1.0635
  853MOL0     N17593   5.392   9.967   9.873  0.3486  0.2391 -0.1432
  853MOL0     C17594   5.329   9.851   9.830 -0.1452  0.0632 -0.3495
  853MOL0     C17595   5.218   9.845   9.904 -0.2735  0.4635 -0.3185
  853MOL0     C17596   5.103   9.744   9.892 -0.0400 -0.5486 -0.6076
  853MOL0     C17597   5.151   9.607   9.935 -0.6782 -0.3282  0.4912
  853MOL0     C17598   5.068   9.497   9.885  0.3252  0.6376 -0.3756
  853MOL0     C17599   5.159   9.400   9.819  0.4436  0.3308 -1.1004
  853MOL0     O17600   5.082   9.314   9.730 -0.7424  0.2429 -0.1347
  853MOL0     C17601   4.986   9.220   9.764 -0.2149  0.1022  1.0278
  853MOL0     C17602   4.895   9.183   9.659 -0.2647 -0.4701  0.0885
  853MOL0     C17603   4.794   9.091   9.673  0.0933  0.6513 -0.3646
  853MOL0     C17604   4.713   9.042   9.555 -0.4443  0.1615 -0.6570
  853MOL0     C17605   4.769   9.050   9.808  0.5099 -0.9458  0.3345
  853MOL0     C17606   4.654   8.957   9.843  0.0242  0.7596 -0.3595
  853MOL0     O17607   4.634   8.946   9.975  0.0297  0.3443 -0.9933
  853MOL0     C17608   4.519   8.903  10.025 -0.0024  0.9735  0.6146
  853MOL0     C17609   4.432   8.986  10.091  0.5695 -0.2587  0.8950
  853MOL0     C17610   4.309   8.933  10.135 -0.1849  0.1695 -0.9976
  853MOL0     C17611   4.273   8.802  10.122 -0.2642 -0.3835  0.1393
  853MOL0     O17612   4.152   8.769  10.176  0.3108  1.2564 -0.1958
  853MOL0     C17613   4.119   8.632  10.196  0.0125  0.0341  0.3612
  853MOL0     C17614   3.980   8.619  10.252  0.9690 -0.2934 -0.1790
  853MOL0     C17615   3.880   8.722  10.189  0.1801  0.3168  0.2794
  853MOL0     C17616   3.729   8.700  10.238  0.2487  0.5829 -0.0157
  853MOL0     C17617   3.633   8.795  10.170  0.2365  0.6149  0.2657
  853MOL0     C17618   3.493   8.738  10.204  0.5291  0.6432 -1.0133
  853MOL0     C17619   3.377   8.822  10.142 -1.2940  0.2727 -0.1945
  853MOL0     C17620   3.241   8.786  10.204 -0.4025 -0.5221  0.1271
  853MOL0    Cl17621   3.208   8.610  10.189 -0.6524 -0.1935 -0.0388
  853MOL0     C17622   4.365   8.709  10.056  1.0900 -0.2096  0.4354
  853MOL0     C17623   4.486   8.757  10.013  0.0501 -0.8138  0.0030
  853MOL0     O17624   4.592   8.891   9.757 -0.3613  0.4282 -0.5059
  853MOL0     C17625   4.850   9.101   9.907 -0.3503 -0.2870  0.4149
  853MOL0     C17626   4.963   9.175   9.887  0.0913 -0.1784  0.8260
  853MOL0     N17627   5.222   9.947   9.995  0.3672 -0.1010 -0.6546
  853MOL0     N17628   5.325  10.017   9.974 -0.6535  0.2828 -0.0526
  853MOL0     C17629   5.439  10.972   9.942  0.9052 -0.0133  0.3689
  853MOL0     C17630   5.515  11.062  10.011  0.1870  0.1959 -0.1391
  853MOL0     C17631   5.911  11.219  10.217 -0.5114  0.4666 -0.6771
  853MOL0     C17632   6.015  11.291  10.158 -0.5156  0.7737 -0.6158
  853MOL0     C17633   6.101  11.366  10.239  0.0086 -0.1484  0.4920
  853MOL0     C17634   6.073  11.394  10.372 -0.1554 -0.3581 -0.4309
  853MOL0     O17635   6.148  11.484  10.438  0.3003  0.1786 -0.2037
  853MOL0     C17636   6.148  11.511  10.583  0.3906 -0.5690 -0.5629
  853MOL0     C17637   6.245  11.409  10.641  0.4526  0.2560  0.5162
  853MOL0     C17638   6.389  11.463  10.640  0.3544  0.3790  0.0317
  853MOL0     C17639   6.492  11.381  10.548  0.0780 -0.5705  0.3905
  853MOL0     C17640   6.469  11.406  10.404  0.6206  0.3048  0.4879
  853MOL0     C17641   6.441  11.429  10.292 -0.4550 -0.3677  0.2188
  853MOL0     C17642   5.963  11.325  10.422 -0.6832 -0.0407 -0.2507
  853MOL0     C17643   5.884  11.237  10.357 -0.6154  0.6250 -0.0396
  853MOL0     C17644   5.774  11.172  10.433 -0.2079  0.2364  0.5374
  853MOL0     H17645   5.696  10.854  10.197  0.7247  0.4977 -1.9194
  853MOL0     H17646   5.548  10.689  10.086 -0.0495 -0.3344  1.2159
  853MOL0     H17647   5.363  10.795   9.690  0.1200 -0.4211  0.1320
  853MOL0     H17648   5.241  10.859   9.808  1.7558  1.5776  0.4727
  853MOL0     H17649   5.145  10.633   9.828 -0.5739  0.6309  0.1820
  853MOL0     H17650   5.172  10.669   9.658  1.0159  0.7009 -0.1815
  853MOL0     H17651   5.391  10.564   9.658 -0.3269 -2.4566 -3.1950
  853MOL0     H17652   5.351  10.483   9.816  1.0977 -0.8736 -0.3489
  853MOL0     H17653   5.146  10.400   9.670 -0.0534  0.6634  0.0595
  853MOL0     H17654   5.231  10.480   9.541  0.1332  3.4395  1.2901
  853MOL0     H17655   5.427  10.339   9.543  1.3273  0.3545  2.9355
  853MOL0     H17656   5.289  10.248   9.515  1.0833  0.3150 -0.8163
  853MOL0     H17657   5.401  10.275   9.795  1.7697 -0.9135 -0.1092
  853MOL0     H17658   5.268  10.169   9.756 -0.2458  1.6756  2.0339
  853MOL0     H17659   5.536  10.139   9.613  0.2499  1.4944  0.9798
  853MOL0     H17660   5.407  10.028   9.609  1.7513  0.5002 -2.5429
  853MOL0     H17661   5.575   9.956   9.779 -1.7445 -1.7773  0.9355
  853MOL0     H17662   5.548  10.107   9.873 -0.5054 -0.3512  1.7760
  853MOL0     H17663   5.366   9.789   9.748 -1.9802 -0.2263 -0.9963
  853MOL0     H17664   5.065   9.755   9.790  0.9866  0.0205 -0.9364
  853MOL0     H17665   5.026   9.775   9.963  1.6550 -1.1201  1.6141
  853MOL0     H17666   5.253   9.598   9.896 -1.2755  2.3523 -2.1261
  853MOL0     H17667   5.153   9.610  10.044 -2.6876  0.2540  0.5665
  853MOL0     H17668   5.014   9.441   9.961 -1.1646  1.9159 -0.4486
  853MOL0     H17669   4.992   9.528   9.813 -2.1184 -0.7634  1.4695
  853MOL0     H17670   5.235   9.453   9.761  0.7870  3.2313  1.7514
  853MOL0     H17671   5.205   9.338   9.896  1.6774  1.9784 -0.4807
  853MOL0     H17672   4.909   9.240   9.567 -0.7604 -0.5551 -0.0439
  853MOL0     H17673   4.751   9.086   9.462  3.5050  1.4748  1.4008
  853MOL0     H17674   4.606   9.052   9.575 -0.4208 -3.1393  1.7781
  853MOL0     H17675   4.738   8.936   9.553 -0.7825  0.0222  1.0702
  853MOL0     H17676   4.454   9.091  10.107  0.4650 -0.0117 -0.4377
  853MOL0     H17677   4.246   9.000  10.193  0.1702  0.6344 -1.1440
  853MOL0     H17678   4.135   8.576  10.104  0.9821  0.7408  0.0864
  853MOL0     H17679   4.196   8.590  10.261  1.1076  2.2956  0.6297
  853MOL0     H17680   3.949   8.515  10.243  1.3096 -0.7178  2.6159
  853MOL0     H17681   3.983   8.633  10.360 -0.6187  0.4114 -0.2038
  853MOL0     H17682   3.891   8.730  10.080  0.6788  0.0630  0.3055
  853MOL0     H17683   3.914   8.820  10.223  1.4475  0.6289 -1.7153
  853MOL0     H17684   3.719   8.714  10.346  3.4731  1.6772  0.2504
  853MOL0     H17685   3.695   8.601  10.207 -0.2624  1.3738 -2.1835
  853MOL0     H17686   3.641   8.901  10.195 -0.0646  0.3838  1.3932
  853MOL0     H17687   3.654   8.783  10.063 -0.3335 -1.2737  0.3275
  853MOL0     H17688   3.466   8.741  10.310 -2.8080  1.2763 -1.7700
  853MOL0     H17689   3.484   8.632  10.180  1.7473 -0.1415  1.5997
  853MOL0     H17690   3.382   8.811  10.033 -2.5909 -0.0192 -0.2353
  853MOL0     H17691   3.399   8.926  10.166  2.5665  0.0887 -2.0332
  853MOL0     H17692   3.154   8.832  10.155 -1.4420 -1.0232  1.4235
  853MOL0     H17693   3.244   8.816  10.309 -0.1662  0.8364 -0.2474
  853MOL0     H17694   4.351   8.601  10.053  2.3230 -0.3780  0.3092
  853MOL0     H17695   4.558   8.680   9.987 -0.9810 -1.9517  0.4854
  853MOL0     H17696   4.835   9.056  10.005  0.0297 -2.2943 -0.4032
  853MOL0     H17697   5.018   9.214   9.972  0.3146 -4.0163  2.6443
  853MOL0     H17698   5.371  11.000   9.862  0.5805 -2.6963 -0.3821
  853MOL0     H17699   5.512  11.170  10.000 -0.7704  0.2474  0.4941
  853MOL0     H17700   6.029  11.294  10.051  2.3877 -0.6387 -0.3764
  853MOL0     H17701   6.185  11.405  10.181  1.7171 -6.2274 -1.9499
  853MOL0     H17702   6.182  11.613  10.606 -2.1435  0.2707 -0.2137
  853MOL0     H17703   6.049  11.498  10.628  1.0075  0.5745  1.1990
  853MOL0     H17704   6.235  11.314  10.587 -1.5875  1.1032 -0.7155
  853MOL0     H17705   6.214  11.380  10.741 -1.4836 -0.0143 -0.1223
  853MOL0     H17706   6.392  11.566  10.605  0.6962  0.8894  1.5074
  853MOL0     H17707   6.418  11.450  10.745  1.5593 -3.4060 -0.6309
  853MOL0     H17708   6.482  11.274  10.570 -1.6948 -1.0370 -2.1767
  853MOL0     H17709   6.591  11.414  10.578  0.5211 -1.5341  0.0370
  853MOL0     H17710   6.423  11.447  10.188  1.2197 -1.0052 -0.2265
  853MOL0     H17711   5.956  11.328  10.531  1.8118 -1.7443  0.0417
  853MOL0     H17712   5.682  11.225  10.406 -1.1896 -0.6621  1.9684
  853MOL0     H17713   5.774  11.063  10.420 -1.9268  0.1892  0.6749
  853MOL0     H17714   5.779  11.174  10.543  0.3218 -1.0255  0.5523
  854MOL0     O17715   0.776   2.485  11.377  0.5395 -0.4248  0.6951
  854MOL0     C17716   0.728   2.569  11.453 -0.4748  0.2726 -0.3368
  854MOL0     O17717   0.755   2.582  11.585  0.1996 -0.0924 -0.3272
  854MOL0     C17718   0.811   2.472  11.642 -0.4088  0.0945 -1.0104
  854MOL0     C17719   0.733   2.377  11.719  0.7691 -0.5217  0.6258
  854MOL0     C17720   0.786   2.251  11.754  0.9181 -0.4324  0.8004
  854MOL0     C17721   0.914   2.217  11.714  0.1468 -0.1112  0.4055
  854MOL0     O17722   0.981   2.104  11.748 -0.3446  0.0934  0.1508
  854MOL0     C17723   0.944   2.050  11.873 -0.0342  0.2071  0.3139
  854MOL0     C17724   1.050   1.946  11.903 -0.2165  0.7880 -0.3414
  854MOL0     C17725   1.195   1.995  11.925  0.6066  0.0915  0.5420
  854MOL0     C17726   1.291   1.881  11.914  0.5334  0.1080 -0.6031
  854MOL0     C17727   1.436   1.919  11.950  0.2238  0.5995 -0.5261
  854MOL0     C17728   1.517   1.790  11.965 -0.3510  0.8405 -0.0702
  854MOL0     C17729   1.648   1.812  12.031 -0.3981  0.2862  0.7784
  854MOL0     C17730   1.726   1.682  12.052  0.5063  0.4095  0.4158
  854MOL0     N17731   1.871   1.706  12.039  0.0529 -0.3501 -0.4102
  854MOL0     C17732   1.953   1.735  12.151  0.2402  0.7054  1.1278
  854MOL0     C17733   2.077   1.745  12.095  0.2149  0.4301 -0.0588
  854MOL0     C17734   2.199   1.791  12.161 -0.4534 -0.0483 -0.6138
  854MOL0     C17735   2.253   1.930  12.105 -0.2337  0.5503 -0.3136
  854MOL0     C17736   2.367   1.982  12.198  1.3153 -0.5033 -0.2126
  854MOL0     C17737   2.441   2.108  12.150 -0.0482 -1.0132 -0.5984
  854MOL0     O17738   2.499   2.074  12.027  0.2034  0.3182  0.5527
  854MOL0     C17739   2.633   2.081  12.023 -0.2028  0.1834 -0.6054
  854MOL0     C17740   2.712   1.979  12.070  0.4378 -0.9247  0.3865
  854MOL0     C17741   2.853   1.979  12.060  0.7853 -0.2037 -0.4764
  854MOL0     C17742   2.930   1.863  12.120  0.1144 -0.4848 -0.1013
  854MOL0     C17743   2.924   2.084  11.984  1.3000 -0.4831 -0.9923
  854MOL0     C17744   3.072   2.099  11.959 -0.4333  0.1069 -0.1670
  854MOL0     O17745   3.152   1.997  11.987 -0.0833  0.0599 -0.2786
  854MOL0     C17746   3.283   2.035  12.026  0.5023  0.1235 -0.1387
  854MOL0     C17747   3.392   2.001  11.953  0.0002 -0.2823  0.6434
  854MOL0     C17748   3.517   2.051  11.975  1.0009  0.0169  0.1816
  854MOL0     C17749   3.537   2.134  12.088  0.4474  1.1321 -0.3370
  854MOL0     O17750   3.664   2.177  12.116 -0.7158 -0.2240 -0.4643
  854MOL0     C17751   3.714   2.277  12.024  0.0959 -0.0990  0.6493
  854MOL0     C17752   3.863   2.311  12.047 -0.0922  0.1135  0.4680
  854MOL0     C17753   3.955   2.193  12.041  0.7743  0.0260 -0.5120
  854MOL0     C17754   4.096   2.236  12.096  0.8150  0.4178 -0.2530
  854MOL0     C17755   4.211   2.130  12.092  0.1186  0.6841 -0.2264
  854MOL0     C17756   4.158   1.998  12.157  0.7263  0.1355 -0.5107
  854MOL0     C17757   4.256   1.884  12.165  0.1332  0.2661 -0.0721
  854MOL0     C17758   4.384   1.921  12.234  0.0118 -0.3990 -0.3300
  854MOL0    Cl17759   4.461   1.777  12.297  0.2852 -0.2106  0.0860
  854MOL0     C17760   3.427   2.162  12.169  0.0486 -0.2042  0.0090
  854MOL0     C17761   3.299   2.113  12.139 -0.0880 -0.1684  0.1594
  854MOL0     O17762   3.118   2.209  11.914  0.2316  0.0724 -0.4495
  854MOL0     C17763   2.835   2.188  11.940 -0.6042 -0.3979 -0.5010
  854MOL0     C17764   2.695   2.189  11.963 -0.1418 -0.4184  0.0165
  854MOL0     N17765   2.068   1.711  11.962  0.6016  0.2352 -0.9454
  854MOL0     N17766   1.942   1.689  11.926 -0.3037 -0.1263 -0.1470
  854MOL0     C17767   0.993   2.304  11.637  0.1906 -0.6757 -0.0195
  854MOL0     C17768   0.944   2.433  11.598 -1.2619  0.0192 -0.3906
  854MOL0     C17769   0.631   2.671  11.395  0.2113 -0.1465  0.4617
  854MOL0     C17770   0.624   2.801  11.450  0.4555 -0.1519 -0.5184
  854MOL0     C17771   0.529   2.892  11.410  0.8343 -0.3530  0.2968
  854MOL0     C17772   0.430   2.863  11.313 -0.0454 -0.3235  0.5989
  854MOL0     O17773   0.321   2.932  11.273  0.2262 -0.4948 -0.4465
  854MOL0     C17774   0.312   3.068  11.322  0.4990 -0.2136  0.3315
  854MOL0     C17775   0.169   3.121  11.298 -0.1423  0.4177  0.0595
  854MOL0     C17776   0.060   3.039  11.373  0.3423  0.4790 -0.1936
  854MOL0     C17777  -0.077   3.086  11.340  0.2093 -0.2938  0.5355
  854MOL0     C17778  -0.166   3.026  11.447  0.1615  0.2553  0.0952
  854MOL0     C17779  -0.244   2.972  11.523  0.7810  0.8641 -0.0615
  854MOL0     C17780   0.437   2.741  11.255 -0.8573  0.6647 -0.8950
  854MOL0     C17781   0.532   2.644  11.290  0.4170 -0.4198  0.2991
  854MOL0     C17782   0.535   2.515  11.212 -0.3904  1.4106 -0.2971
  854MOL0     H17783   0.634   2.396  11.759  0.1545 -0.0518 -1.0071
  854MOL0     H17784   0.715   2.190  11.809 -0.2860 -0.5988 -0.8526
  854MOL0     H17785   0.853   1.989  11.874 -0.0844  0.1329 -2.1090
  854MOL0     H17786   0.941   2.122  11.955 -0.1944  0.2473  0.2734
  854MOL0     H17787   1.013   1.900  11.995  0.9677 -1.9959 -1.1479
  854MOL0     H17788   1.046   1.866  11.828  3.2263  0.9635 -0.8701
  854MOL0     H17789   1.227   2.065  11.848  0.0133 -4.3475 -4.2368
  854MOL0     H17790   1.206   2.039  12.025 -2.5415 -1.8632  1.9230
  854MOL0     H17791   1.254   1.806  11.985  0.0134 -0.3744 -1.3623
  854MOL0     H17792   1.296   1.829  11.818 -0.4590 -1.7607  0.3003
  854MOL0     H17793   1.433   1.978  12.042  2.4969  1.9810 -1.2592
  854MOL0     H17794   1.478   1.971  11.863 -2.5799  0.0715 -2.3599
  854MOL0     H17795   1.452   1.721  12.021  0.0146  1.0205  0.5859
  854MOL0     H17796   1.532   1.747  11.865  1.0947 -0.6749  0.7367
  854MOL0     H17797   1.631   1.851  12.132 -0.8023  0.6097  0.5896
  854MOL0     H17798   1.705   1.882  11.970 -2.5968  1.4057 -0.1258
  854MOL0     H17799   1.705   1.632  12.147  3.5647 -1.0300  0.4524
  854MOL0     H17800   1.699   1.614  11.971  2.6867  1.6489 -1.4609
  854MOL0     H17801   1.913   1.756  12.249  0.4764  1.0885  1.1434
  854MOL0     H17802   2.279   1.720  12.141 -0.4849 -0.1772 -0.2859
  854MOL0     H17803   2.177   1.806  12.267  3.7312 -3.1509  0.9711
  854MOL0     H17804   2.289   1.915  12.003  1.3822 -1.3592  0.4673
  854MOL0     H17805   2.166   1.995  12.093 -1.7303 -1.4735 -0.9370
  854MOL0     H17806   2.331   2.001  12.299  1.9433  1.0578 -0.2636
  854MOL0     H17807   2.443   1.906  12.223  0.6182 -1.1061  0.1094
  854MOL0     H17808   2.354   2.172  12.129  0.3864 -0.9564 -2.3705
  854MOL0     H17809   2.507   2.143  12.230 -1.3501 -1.5289  0.7657
  854MOL0     H17810   2.664   1.896  12.121  1.1313 -2.7256 -1.7827
  854MOL0     H17811   3.003   1.888  12.198 -0.4380 -0.0810  0.2938
  854MOL0     H17812   2.983   1.809  12.041 -1.3235  1.6092 -2.6697
  854MOL0     H17813   2.865   1.784  12.158 -1.3266  0.5179 -0.4079
  854MOL0     H17814   3.370   1.939  11.867  0.2735 -1.6893  1.5648
  854MOL0     H17815   3.598   2.036  11.904 -1.0923  1.0481 -2.6560
  854MOL0     H17816   3.709   2.243  11.920  3.1127 -1.2644  0.7911
  854MOL0     H17817   3.645   2.362  12.028 -0.8668 -0.7125 -1.4061
  854MOL0     H17818   3.892   2.382  11.970 -1.4427 -0.2583 -0.4158
  854MOL0     H17819   3.876   2.351  12.148  1.2041  0.3734  0.2169
  854MOL0     H17820   3.963   2.160  11.938 -3.5251  2.4376 -1.8628
  854MOL0     H17821   3.917   2.117  12.110 -0.4129  0.0785 -1.0799
  854MOL0     H17822   4.090   2.268  12.201  1.4469  0.4442 -0.2188
  854MOL0     H17823   4.138   2.314  12.031  2.0736  1.0839  1.2995
  854MOL0     H17824   4.225   2.102  11.987 -1.6253  0.4248 -0.4258
  854MOL0     H17825   4.306   2.172  12.127  0.2007  0.2504  0.0749
  854MOL0     H17826   4.070   1.962  12.105 -0.0053 -3.7657  2.8939
  854MOL0     H17827   4.129   2.029  12.258 -4.5187  0.6952 -1.9110
  854MOL0     H17828   4.278   1.851  12.063 -0.6611 -1.4277  0.2807
  854MOL0     H17829   4.206   1.797  12.206  0.2731  1.2542  2.3224
  854MOL0     H17830   4.366   1.994  12.313 -0.3241  0.7284 -1.4281
  854MOL0     H17831   4.456   1.963  12.163  0.4303  1.4161  1.0875
  854MOL0     H17832   3.437   2.239  12.245 -3.1355  1.4858 -1.0884
  854MOL0     H17833   3.209   2.141  12.192 -2.5949 -1.3103 -3.1196
  854MOL0     H17834   2.878   2.271  11.884 -4.2974  1.9589 -0.2432
  854MOL0     H17835   2.644   2.270  11.913  1.3609  0.0921 -0.7661
  854MOL0     H17836   1.092   2.282  11.598  0.3170  0.7230 -0.5421
  854MOL0     H17837   0.996   2.495  11.526  3.0370 -1.5360  1.0800
  854MOL0     H17838   0.676   2.837  11.538  1.1174 -2.5736  0.1417
  854MOL0     H17839   0.543   2.990  11.455  1.0556 -0.8218  1.2652
  854MOL0     H17840   0.332   3.069  11.430 -1.8081  1.2747  0.8230
  854MOL0     H17841   0.385   3.124  11.264  0.8132 -1.4788 -0.5346
  854MOL0     H17842   0.144   3.101  11.193 -0.8284  0.0521  0.2862
  854MOL0     H17843   0.176   3.227  11.324  0.0724 -0.2764  3.1717
  854MOL0     H17844   0.078   2.937  11.338  1.9148  0.3073  0.9980
  854MOL0     H17845   0.076   3.051  11.481 -2.0287  0.4001  0.2256
  854MOL0     H17846  -0.107   3.050  11.241 -0.6771 -1.7106  1.2788
  854MOL0     H17847  -0.070   3.195  11.341  3.2594 -0.3959  2.0873
  854MOL0     H17848  -0.305   2.922  11.596 -1.8286  1.7868 -1.4823
  854MOL0     H17849   0.356   2.716  11.187 -0.9356  0.3687 -0.6951
  854MOL0     H17850   0.640   2.500  11.185 -0.9639 -1.3941 -1.3005
  854MOL0     H17851   0.512   2.438  11.286 -1.2615  0.4434 -1.5228
  854MOL0     H17852   0.477   2.504  11.119 -1.3092 -0.4800  0.4412
  855MOL0     O17853   2.950  11.103   6.429 -0.5523  0.1993  0.5458
  855MOL0     C17854   2.839  11.143   6.401 -0.4420 -0.3270  0.9350
  855MOL0     O17855   2.815  11.276   6.364 -0.5982 -0.3820 -0.3947
  855MOL0     C17856   2.893  11.384   6.396 -0.3475  0.8003  0.8883
  855MOL0     C17857   2.989  11.394   6.497 -0.7649  0.3084  0.2776
  855MOL0     C17858   3.072  11.505   6.517  0.4826 -0.9871 -0.2423
  855MOL0     C17859   3.050  11.623   6.449 -0.2212  1.1471 -0.1240
  855MOL0     O17860   3.104  11.745   6.476 -0.8498 -0.1000 -0.3393
  855MOL0     C17861   3.196  11.777   6.591 -0.6400  0.0031 -0.4285
  855MOL0     C17862   3.271  11.910   6.575  0.8450  0.3948 -0.2311
  855MOL0     C17863   3.363  11.917   6.458  0.0289 -0.3669 -1.5513
  855MOL0     C17864   3.503  11.853   6.472  0.0525 -0.5262  0.4553
  855MOL0     C17865   3.603  11.871   6.357  0.5489 -0.8974 -1.0270
  855MOL0     C17866   3.546  11.878   6.213  0.1981  0.2893  0.4029
  855MOL0     C17867   3.491  11.738   6.173  0.0065  0.2750 -0.4615
  855MOL0     C17868   3.403  11.752   6.051  0.0029 -0.1570 -0.9812
  855MOL0     N17869   3.359  11.622   5.998 -0.0528  0.2564 -0.0795
  855MOL0     C17870   3.245  11.568   6.045 -0.3153 -0.2512 -0.3557
  855MOL0     C17871   3.248  11.442   6.000 -0.3045  0.4688  0.5958
  855MOL0     C17872   3.147  11.352   6.067  0.3936 -0.3971 -0.0767
  855MOL0     C17873   3.016  11.334   5.980  0.1576  0.2657  0.1501
  855MOL0     C17874   2.947  11.196   6.010 -0.4037 -0.2068  0.3576
  855MOL0     C17875   2.799  11.184   5.994  0.5402 -1.1584 -0.2945
  855MOL0     O17876   2.760  11.053   6.022 -0.0682  0.2120 -0.9720
  855MOL0     C17877   2.652  10.990   5.965  0.1638  0.2385  0.2286
  855MOL0     C17878   2.578  11.030   5.855  0.2921 -0.3105 -0.2890
  855MOL0     C17879   2.460  10.962   5.811 -1.0910 -0.1049  0.2506
  855MOL0     C17880   2.398  11.007   5.681 -0.3954 -0.6506 -0.4398
  855MOL0     C17881   2.390  10.878   5.903  0.2886  0.0424  0.1423
  855MOL0     C17882   2.255  10.811   5.881 -0.3976 -0.8658 -0.1348
  855MOL0     O17883   2.218  10.723   5.970  0.1364 -0.1728  0.1560
  855MOL0     C17884   2.096  10.665   5.967  0.3313  0.0797  0.5374
  855MOL0     C17885   2.087  10.535   5.987 -0.7898  0.3779  0.1199
  855MOL0     C17886   1.964  10.469   5.983 -0.7472  0.7936  0.6714
  855MOL0     C17887   1.846  10.534   5.961  0.1580  0.5679  0.4716
  855MOL0     O17888   1.721  10.474   5.952 -0.4504  1.0437  0.5407
  855MOL0     C17889   1.683  10.363   6.034  0.5019  0.7323 -0.2220
  855MOL0     C17890   1.674  10.400   6.186  0.2197 -0.2093  0.3915
  855MOL0     C17891   1.531  10.456   6.222  0.7764  0.6919 -0.3188
  855MOL0     C17892   1.485  10.367   6.347  0.2657  0.4027 -0.1861
  855MOL0     C17893   1.345  10.408   6.396 -0.1278  0.2153  0.4598
  855MOL0     C17894   1.322  10.356   6.534  0.6257  0.6941 -0.0628
  855MOL0     C17895   1.191  10.402   6.594 -0.6835 -0.6397  0.8947
  855MOL0     C17896   1.168  10.345   6.734  0.5720  0.3594  0.4959
  855MOL0    Cl17897   1.126  10.180   6.728 -0.1657  0.2662 -0.2108
  855MOL0     C17898   1.854  10.669   5.935 -0.2582  0.1381 -0.0540
  855MOL0     C17899   1.981  10.738   5.941  0.2744 -0.0577  0.6848
  855MOL0     O17900   2.189  10.847   5.785 -0.6006  0.2192  0.0417
  855MOL0     C17901   2.472  10.833   6.014  0.1200  0.4123  0.4488
  855MOL0     C17902   2.604  10.875   6.035 -0.2729 -0.3606  0.7237
  855MOL0     N17903   3.377  11.418   5.951  0.0590  0.2081  0.3399
  855MOL0     N17904   3.436  11.529   5.934 -0.5867  0.7615 -0.3227
  855MOL0     C17905   2.949  11.616   6.352  0.6099  0.0753  1.5826
  855MOL0     C17906   2.878  11.502   6.322 -0.9235  0.4129  0.7417
  855MOL0     C17907   2.721  11.048   6.414 -0.2056 -0.1770  0.6484
  855MOL0     C17908   2.616  11.071   6.323  0.3802  0.7438 -0.0686
  855MOL0     C17909   2.493  11.000   6.325 -0.7160  0.2254  0.1585
  855MOL0     C17910   2.477  10.892   6.422 -0.2496  0.1538  0.6531
  855MOL0     O17911   2.353  10.825   6.437 -0.1059  0.0254 -0.4593
  855MOL0     C17912   2.243  10.873   6.354  0.1850  0.2459  0.0731
  855MOL0     C17913   2.118  10.806   6.402  0.2741 -0.2010 -0.1056
  855MOL0     C17914   2.099  10.656   6.364  0.4873 -0.3971 -0.6327
  855MOL0     C17915   1.962  10.596   6.414 -0.6049  0.3553 -0.0156
  855MOL0     C17916   1.855  10.680   6.370 -0.7377 -0.2472  0.3664
  855MOL0     C17917   1.750  10.724   6.327 -0.3186  0.9819  0.3219
  855MOL0     C17918   2.585  10.875   6.509 -0.2544  0.0577 -0.0256
  855MOL0     C17919   2.712  10.939   6.502 -0.8724 -0.1139  0.4492
  855MOL0     C17920   2.810  10.901   6.608 -0.1527 -0.7261  0.2692
  855MOL0     H17921   3.018  11.302   6.548  2.4632 -0.0390 -1.8916
  855MOL0     H17922   3.133  11.513   6.607 -2.4825 -4.8732  2.4768
  855MOL0     H17923   3.273  11.700   6.604 -0.1404  0.3345 -1.3471
  855MOL0     H17924   3.134  11.782   6.681 -0.1449 -1.4552  0.0236
  855MOL0     H17925   3.197  11.991   6.572  0.1231 -0.2112  0.4198
  855MOL0     H17926   3.328  11.930   6.666  1.0411  0.2613 -0.3246
  855MOL0     H17927   3.312  11.887   6.365  0.7638 -0.9063 -1.7920
  855MOL0     H17928   3.386  12.020   6.428  0.7310 -1.5135 -5.6496
  855MOL0     H17929   3.554  11.892   6.560 -1.2595  1.2129  0.5018
  855MOL0     H17930   3.495  11.744   6.483  0.9885 -0.7442 -0.8041
  855MOL0     H17931   3.687  11.802   6.363  0.4945 -1.0469 -1.9389
  855MOL0     H17932   3.645  11.970   6.375  3.0012 -1.5908 -2.5254
  855MOL0     H17933   3.466  11.950   6.193  0.4404  0.4166 -0.1278
  855MOL0     H17934   3.620  11.908   6.138  0.9662 -2.3761 -0.0088
  855MOL0     H17935   3.435  11.687   6.252 -1.5885  1.9156 -0.4778
  855MOL0     H17936   3.574  11.668   6.156  0.0346  0.4677 -1.1983
  855MOL0     H17937   3.314  11.813   6.070  0.2480 -0.5152  1.7912
  855MOL0     H17938   3.457  11.805   5.972  0.6487  2.1694  0.9061
  855MOL0     H17939   3.163  11.599   6.110 -1.0183 -0.4964 -1.1040
  855MOL0     H17940   3.125  11.381   6.170  0.5193  1.0410 -0.4336
  855MOL0     H17941   3.192  11.253   6.076 -1.7123 -1.2690  1.5554
  855MOL0     H17942   2.935  11.402   6.005 -1.1916 -0.5132 -1.8346
  855MOL0     H17943   3.040  11.355   5.876  0.0705  0.4544  0.1685
  855MOL0     H17944   2.995  11.121   5.947 -1.7556 -1.6912  1.0341
  855MOL0     H17945   2.978  11.176   6.113  1.4695 -0.0232 -0.1206
  855MOL0     H17946   2.744  11.262   6.046  1.8230 -0.9176  0.7256
  855MOL0     H17947   2.778  11.203   5.888 -1.5819  0.6586  0.3661
  855MOL0     H17948   2.616  11.108   5.789 -0.2097  0.6705  0.5463
  855MOL0     H17949   2.377  10.916   5.623 -2.3918 -1.3353  1.2372
  855MOL0     H17950   2.475  11.061   5.626  0.0630 -0.6494  0.2013
  855MOL0     H17951   2.310  11.073   5.682 -0.1684 -0.3439 -0.6078
  855MOL0     H17952   2.173  10.478   6.020  0.6578 -0.0760 -3.8634
  855MOL0     H17953   1.953  10.366   6.015 -3.3377  0.9727  0.5928
  855MOL0     H17954   1.582  10.343   5.997  1.4163 -1.4149 -1.7227
  855MOL0     H17955   1.738  10.269   6.030 -0.0283  0.3373  1.1528
  855MOL0     H17956   1.697  10.305   6.235  1.0393  0.0955  0.6146
  855MOL0     H17957   1.745  10.479   6.215  1.5697  0.6389 -4.2615
  855MOL0     H17958   1.452  10.442   6.148  1.6445 -1.2457 -0.9519
  855MOL0     H17959   1.534  10.563   6.243 -0.2990  0.6462  0.1343
  855MOL0     H17960   1.559  10.369   6.428  1.0393 -0.6432 -0.8468
  855MOL0     H17961   1.480  10.265   6.309 -0.1998  1.2612 -2.6005
  855MOL0     H17962   1.339  10.516   6.412  2.0353  0.3300  0.7841
  855MOL0     H17963   1.259  10.390   6.330  0.1781 -0.1445  0.1472
  855MOL0     H17964   1.401  10.382   6.605  1.1721  2.7472 -1.3393
  855MOL0     H17965   1.316  10.247   6.529 -0.9982  0.6224  2.1332
  855MOL0     H17966   1.103  10.368   6.538 -0.6295  0.3436  0.1878
  855MOL0     H17967   1.185  10.510   6.609 -3.6521 -1.0010  3.2812
  855MOL0     H17968   1.091  10.404   6.784  1.3047  1.6219  0.2023
  855MOL0     H17969   1.261  10.360   6.790  1.0824  0.7986 -0.4243
  855MOL0     H17970   1.766  10.728   5.911 -0.8485 -1.3299 -1.6930
  855MOL0     H17971   1.984  10.840   5.906  1.3528  0.2705  1.6865
  855MOL0     H17972   2.440  10.747   6.071 -0.9974 -2.9259 -4.5182
  855MOL0     H17973   2.660  10.834   6.119  0.5695  0.1893  0.4365
  855MOL0     H17974   2.937  11.708   6.297  2.9387  1.0355  2.5775
  855MOL0     H17975   2.795  11.516   6.254  0.8324  1.3803 -1.3160
  855MOL0     H17976   2.622  11.152   6.251  0.6567  1.8072  1.1212
  855MOL0     H17977   2.401  11.017   6.270 -3.0422 -3.4002  2.4472
  855MOL0     H17978   2.239  10.980   6.377 -0.3792 -0.2238  2.3644
  855MOL0     H17979   2.271  10.859   6.249  0.6703 -1.7978  0.4363
  855MOL0     H17980   2.034  10.853   6.348  0.0096 -0.2643  0.2509
  855MOL0     H17981   2.101  10.813   6.510  0.9382 -0.8618  0.0445
  855MOL0     H17982   2.101  10.649   6.255  0.2820  0.3206 -0.6885
  855MOL0     H17983   2.178  10.588   6.399 -0.3835 -1.5814 -0.9374
  855MOL0     H17984   1.949  10.592   6.523 -4.7843 -0.3872 -0.3908
  855MOL0     H17985   1.957  10.495   6.372 -2.0479  0.1360  0.6172
  855MOL0     H17986   1.659  10.766   6.289 -0.2346  1.1648  0.3270
  855MOL0     H17987   2.574  10.791   6.577  0.5534  1.2910  1.6930
  855MOL0     H17988   2.784  10.959   6.697 -1.7182  3.6998 -2.6947
  855MOL0     H17989   2.807  10.794   6.630 -1.9479 -0.9532 -0.8578
  855MOL0     H17990   2.906  10.929   6.564 -1.8961 -0.3738 -3.7672
  856MOL0     O17991   6.343   6.284   2.673  0.2985  0.3336  0.0788
  856MOL0     C17992   6.310   6.167   2.691 -0.2729  0.0715 -0.0750
  856MOL0     O17993   6.397   6.057   2.682 -0.3999 -0.3285  0.1223
  856MOL0     C17994   6.519   6.072   2.614 -0.2959  0.0335  0.3151
  856MOL0     C17995   6.536   6.002   2.496  0.3559  0.2069  0.3387
  856MOL0     C17996   6.663   5.999   2.437  0.3414 -0.3779  0.0020
  856MOL0     C17997   6.770   6.079   2.483 -0.8583  0.1551  0.1650
  856MOL0     O17998   6.892   6.078   2.412  0.7553  0.7333 -0.0652
  856MOL0     C17999   6.983   6.185   2.435  0.3468  0.3196  0.0182
  856MOL0     C18000   7.076   6.195   2.315  0.4238  0.6961 -0.0869
  856MOL0     C18001   7.026   6.220   2.172 -0.1299  0.2903 -0.3277
  856MOL0     C18002   7.133   6.247   2.068  0.3768  0.6584 -0.2130
  856MOL0     C18003   7.072   6.274   1.932  0.0813 -0.2119 -0.3739
  856MOL0     C18004   7.008   6.410   1.917  0.3469 -0.2984 -0.4418
  856MOL0     C18005   6.902   6.417   1.808 -0.6162 -0.2721  0.1378
  856MOL0     C18006   6.871   6.559   1.765  0.0850 -0.7302 -0.9330
  856MOL0     N18007   6.815   6.640   1.876 -0.9106 -0.0745 -0.1051
  856MOL0     C18008   6.684   6.680   1.877 -0.8136  0.9705 -0.2695
  856MOL0     C18009   6.671   6.770   1.975  0.3937 -0.0721 -0.2212
  856MOL0     C18010   6.540   6.833   2.021  0.2510 -0.1186  1.3846
  856MOL0     C18011   6.446   6.729   2.078  0.1872  0.1412  0.0542
  856MOL0     C18012   6.332   6.793   2.164  0.2652  0.3988 -0.5547
  856MOL0     C18013   6.209   6.706   2.164  0.5084 -0.0813  0.1235
  856MOL0     O18014   6.236   6.580   2.229  0.2404 -0.2443  0.0850
  856MOL0     C18015   6.136   6.497   2.255 -1.1729  0.1876 -0.1519
  856MOL0     C18016   6.005   6.504   2.201 -0.2882  0.0121  0.0215
  856MOL0     C18017   5.906   6.416   2.252  0.0727 -0.1891  0.3787
  856MOL0     C18018   5.776   6.426   2.191 -1.3439 -0.1894  0.6034
  856MOL0     C18019   5.930   6.310   2.342  0.3195  0.5149 -0.7153
  856MOL0     C18020   5.824   6.205   2.371  0.1534  1.0244 -0.1677
  856MOL0     O18021   5.860   6.075   2.345  0.3260 -0.7110  0.2551
  856MOL0     C18022   5.769   5.981   2.378 -0.2509  0.1488  0.0117
  856MOL0     C18023   5.752   5.887   2.272 -0.2861 -0.7224  0.6349
  856MOL0     C18024   5.671   5.775   2.306  0.2499 -0.2560  0.4385
  856MOL0     C18025   5.608   5.761   2.428  0.3152  0.2815  0.0144
  856MOL0     O18026   5.542   5.638   2.437 -0.4076  0.1195 -0.3877
  856MOL0     C18027   5.461   5.601   2.553  0.6792 -0.0129 -0.0964
  856MOL0     C18028   5.311   5.619   2.522 -0.2032 -0.1893  0.3921
  856MOL0     C18029   5.221   5.585   2.635  1.5576 -0.4395  0.5685
  856MOL0     C18030   5.075   5.603   2.592  0.2260  0.3496  0.3326
  856MOL0     C18031   4.971   5.599   2.696  0.9850 -0.0256 -0.6041
  856MOL0     C18032   4.834   5.584   2.632  0.1986  0.3790 -0.1677
  856MOL0     C18033   4.707   5.560   2.719 -0.2789 -0.2005 -0.3067
  856MOL0     C18034   4.703   5.658   2.839  1.0483 -0.4725  0.2819
  856MOL0    Cl18035   4.571   5.610   2.950 -0.2753  0.3265  0.2543
  856MOL0     C18036   5.633   5.854   2.526  0.5450  0.0620  0.4973
  856MOL0     C18037   5.698   5.969   2.498 -0.2099 -0.6474 -0.0628
  856MOL0     O18038   5.714   6.238   2.421  0.5120 -0.1240  0.0040
  856MOL0     C18039   6.065   6.286   2.368 -0.7737 -0.5963  0.6461
  856MOL0     C18040   6.162   6.385   2.344 -0.3270  0.6237  0.7477
  856MOL0     N18041   6.797   6.789   2.025  0.1691 -0.3586  0.3338
  856MOL0     N18042   6.882   6.721   1.962 -0.9707  0.2624 -0.1994
  856MOL0     C18043   6.746   6.156   2.597 -0.4857 -0.5938  0.3912
  856MOL0     C18044   6.620   6.147   2.651 -0.9163  0.9080  0.0162
  856MOL0     C18045   6.175   6.140   2.734 -0.2584  1.0540  0.9721
  856MOL0     C18046   6.128   6.211   2.836 -0.9795 -0.3868  0.3007
  856MOL0     C18047   5.996   6.187   2.883 -0.0492 -0.0402 -0.6592
  856MOL0     C18048   5.916   6.091   2.816  0.1590 -0.4879  0.2004
  856MOL0     O18049   5.793   6.059   2.850  0.1488 -0.5628 -0.1377
  856MOL0     C18050   5.714   6.155   2.930  0.2801 -0.4625  0.0329
  856MOL0     C18051   5.570   6.094   2.939 -0.1214 -0.5926  0.1159
  856MOL0     C18052   5.555   5.963   3.005 -1.1639  0.1308 -0.8319
  856MOL0     C18053   5.418   5.930   3.055  0.6903  0.5329 -0.5355
  856MOL0     C18054   5.397   5.822   3.153  0.0552 -1.0900 -0.3554
  856MOL0     C18055   5.390   5.744   3.242  0.0901  0.3123 -0.7333
  856MOL0     C18056   5.973   6.016   2.721  0.5204  0.2375 -1.1738
  856MOL0     C18057   6.101   6.040   2.672  0.2319 -0.4704 -0.2154
  856MOL0     C18058   6.139   5.947   2.556 -0.2510 -0.3784  0.5202
  856MOL0     H18059   6.451   5.949   2.455  1.0487 -1.1535  0.6145
  856MOL0     H18060   6.691   5.925   2.362  2.1487 -3.5849  3.5169
  856MOL0     H18061   7.041   6.174   2.527  0.6976  1.8513 -0.0002
  856MOL0     H18062   6.933   6.283   2.438  0.1626  0.2161  2.0107
  856MOL0     H18063   7.147   6.273   2.343 -0.6904  2.7253 -2.4621
  856MOL0     H18064   7.129   6.100   2.310 -1.8450 -0.7687  1.4309
  856MOL0     H18065   6.964   6.140   2.131  1.0772  0.3091 -2.3018
  856MOL0     H18066   6.958   6.302   2.197 -0.8398 -0.0737 -1.0233
  856MOL0     H18067   7.208   6.317   2.104  1.2723  1.1740 -2.9012
  856MOL0     H18068   7.189   6.153   2.060  0.7449  0.7295  1.2040
  856MOL0     H18069   7.003   6.192   1.911 -0.8918 -0.2346  2.5112
  856MOL0     H18070   7.143   6.265   1.849  0.7610  3.2258 -0.2957
  856MOL0     H18071   6.949   6.425   2.008 -1.2100  0.3014 -1.5216
  856MOL0     H18072   7.086   6.487   1.918 -0.1181  0.1772  0.1013
  856MOL0     H18073   6.813   6.360   1.834 -0.4833 -0.6450 -0.2218
  856MOL0     H18074   6.940   6.370   1.717 -2.0514 -0.8761 -0.1815
  856MOL0     H18075   6.958   6.604   1.716  0.0256  1.6881  1.0045
  856MOL0     H18076   6.802   6.550   1.681  1.3875 -0.5783 -2.0466
  856MOL0     H18077   6.605   6.630   1.823 -1.1849  0.8863  0.3407
  856MOL0     H18078   6.498   6.882   1.933  1.1582 -1.6970  0.0101
  856MOL0     H18079   6.563   6.910   2.095 -2.2365  1.1164  0.9885
  856MOL0     H18080   6.414   6.684   1.984  1.5581  2.5789 -1.6692
  856MOL0     H18081   6.497   6.665   2.151 -0.2997 -2.9883 -2.1416
  856MOL0     H18082   6.369   6.813   2.265  1.5380  1.8880 -1.2696
  856MOL0     H18083   6.306   6.889   2.119 -0.9432 -0.4333 -1.6929
  856MOL0     H18084   6.136   6.763   2.223  2.9486  2.2925  1.0457
  856MOL0     H18085   6.171   6.688   2.063  2.0253 -1.1964 -0.2838
  856MOL0     H18086   5.969   6.582   2.135  1.0610 -0.4626 -1.3401
  856MOL0     H18087   5.765   6.330   2.140  0.0487  0.2729 -0.6338
  856MOL0     H18088   5.769   6.503   2.113 -1.1514  1.7359  2.3846
  856MOL0     H18089   5.696   6.444   2.264 -0.4322  3.6849  0.8558
  856MOL0     H18090   5.795   5.899   2.174  0.2276  0.1352  0.9591
  856MOL0     H18091   5.657   5.698   2.231  0.1087  1.9712 -1.9408
  856MOL0     H18092   5.473   5.496   2.578 -0.1755 -0.2858 -0.8095
  856MOL0     H18093   5.483   5.663   2.641 -3.7709 -0.4427  1.5709
  856MOL0     H18094   5.299   5.725   2.498  0.2660 -0.1709  0.2245
  856MOL0     H18095   5.285   5.559   2.434  3.4459  1.4906 -2.1085
  856MOL0     H18096   5.250   5.653   2.716  1.5954 -1.0695  1.0868
  856MOL0     H18097   5.236   5.479   2.655 -3.3271 -0.8494  3.7834
  856MOL0     H18098   5.046   5.536   2.511 -3.9858  1.9565  0.2434
  856MOL0     H18099   5.065   5.706   2.555 -1.2997  0.8064  1.8746
  856MOL0     H18100   4.987   5.512   2.760 -2.0539 -1.7357 -1.9588
  856MOL0     H18101   4.973   5.692   2.753  2.6708 -0.3604 -0.0749
  856MOL0     H18102   4.829   5.500   2.563 -0.0681 -0.5061  0.9118
  856MOL0     H18103   4.815   5.675   2.573  2.1205 -0.7931 -2.8153
  856MOL0     H18104   4.708   5.453   2.745 -0.3349 -0.8057 -2.5932
  856MOL0     H18105   4.626   5.579   2.649 -0.2435 -0.5049 -0.4340
  856MOL0     H18106   4.678   5.762   2.816 -1.9549 -1.1151  0.2009
  856MOL0     H18107   4.802   5.656   2.886  2.2447 -2.6328 -2.1123
  856MOL0     H18108   5.592   5.859   2.627  1.9819  1.1909  1.0751
  856MOL0     H18109   5.711   6.041   2.578 -2.2897  1.6203 -1.6311
  856MOL0     H18110   6.095   6.201   2.429 -1.0517 -2.0889 -1.2042
  856MOL0     H18111   6.257   6.383   2.396 -0.9490 -0.0592  1.8972
  856MOL0     H18112   6.821   6.223   2.638 -2.1585  3.1335 -1.9958
  856MOL0     H18113   6.590   6.201   2.740  0.5720  3.6527 -1.0300
  856MOL0     H18114   6.202   6.276   2.881  0.6455 -0.9891 -1.3901
  856MOL0     H18115   5.954   6.244   2.966 -2.3637 -1.7779 -0.5333
  856MOL0     H18116   5.752   6.156   3.033  1.1318 -0.9395 -0.2699
  856MOL0     H18117   5.717   6.256   2.887 -2.8181 -0.0448  0.5243
  856MOL0     H18118   5.542   6.077   2.835 -4.0663  1.8830  0.6010
  856MOL0     H18119   5.509   6.170   2.990 -2.0717 -0.8755 -1.6701
  856MOL0     H18120   5.592   5.881   2.944  1.2336  1.0605 -0.7250
  856MOL0     H18121   5.614   5.967   3.097  0.0461 -0.5964 -1.5510
  856MOL0     H18122   5.353   5.894   2.975  1.5572 -2.3557 -0.0640
  856MOL0     H18123   5.366   6.019   3.091 -2.2868 -1.2594 -0.1152
  856MOL0     H18124   5.373   5.681   3.327 -1.3390  2.0069  0.2902
  856MOL0     H18125   5.903   5.945   2.680  0.6348  0.6021 -2.0179
  856MOL0     H18126   6.174   6.012   2.475 -1.9414  1.7879  1.4208
  856MOL0     H18127   6.217   5.876   2.585  2.0855 -0.0955 -4.0660
  856MOL0     H18128   6.062   5.879   2.520  0.4748 -0.8819 -0.1033
  857MOL0     O18129   2.090   5.862   9.101  0.1604 -0.2880 -0.2830
  857MOL0     C18130   2.069   5.743   9.122  0.3038 -0.5385 -0.4975
  857MOL0     O18131   2.159   5.646   9.133 -0.1993  0.1679  0.2699
  857MOL0     C18132   2.290   5.677   9.117 -0.0934 -0.8810 -0.0917
  857MOL0     C18133   2.370   5.695   9.225  0.1809  0.2671  0.2241
  857MOL0     C18134   2.505   5.707   9.208  0.6627 -0.3747  0.2640
  857MOL0     C18135   2.566   5.709   9.067 -0.1005  0.1644 -0.4183
  857MOL0     O18136   2.696   5.738   9.033  0.7409  0.5003  0.2758
  857MOL0     C18137   2.787   5.771   9.130 -0.4736 -0.0129  0.3341
  857MOL0     C18138   2.916   5.820   9.065  0.6769  0.0035  0.3635
  857MOL0     C18139   2.991   5.697   9.005  0.0134 -0.1307 -0.3760
  857MOL0     C18140   3.131   5.728   8.948 -0.0113 -0.6957  0.0915
  857MOL0     C18141   3.195   5.623   8.858 -0.6087  0.6922  0.2186
  857MOL0     C18142   3.345   5.661   8.825 -0.2179 -0.1154 -0.0395
  857MOL0     C18143   3.402   5.568   8.716 -0.1957  0.1458 -0.4473
  857MOL0     C18144   3.376   5.415   8.742 -0.1011 -0.3015  0.0501
  857MOL0     N18145   3.423   5.347   8.618  0.0710  0.3931  0.3644
  857MOL0     C18146   3.358   5.339   8.496  0.9842  0.4974 -0.5486
  857MOL0     C18147   3.418   5.241   8.424 -0.0223  0.6433 -0.4626
  857MOL0     C18148   3.379   5.216   8.276 -0.4451  0.4662  0.6331
  857MOL0     C18149   3.391   5.069   8.247 -0.3383  0.3080 -1.2544
  857MOL0     C18150   3.320   5.033   8.116 -0.7668  0.4420  0.6346
  857MOL0     C18151   3.176   5.064   8.119 -0.2092 -0.0564  0.0580
  857MOL0     O18152   3.108   4.965   8.196 -0.0512 -0.1267 -0.1376
  857MOL0     C18153   2.967   4.958   8.200  0.1502 -0.3746 -0.0894
  857MOL0     C18154   2.886   5.066   8.187  0.0988 -0.2363  0.3837
  857MOL0     C18155   2.748   5.054   8.188  0.1496  0.5078  0.1228
  857MOL0     C18156   2.676   5.178   8.183 -0.4940  0.7834 -0.5451
  857MOL0     C18157   2.687   4.925   8.198 -0.2030  0.7666  0.3283
  857MOL0     C18158   2.543   4.910   8.187 -0.7181  0.7233 -0.2016
  857MOL0     O18159   2.492   4.800   8.254  0.4168 -0.0354 -0.4961
  857MOL0     C18160   2.367   4.759   8.221  0.7812 -0.5740 -0.2428
  857MOL0     C18161   2.278   4.735   8.333  0.5113  0.6622 -0.3037
  857MOL0     C18162   2.146   4.689   8.310 -0.5021 -0.0838 -0.3319
  857MOL0     C18163   2.106   4.644   8.191 -0.7646  0.2455  0.0863
  857MOL0     O18164   1.977   4.594   8.175 -0.1120 -0.2836 -0.8009
  857MOL0     C18165   1.915   4.619   8.049 -0.5533 -0.2481 -0.5686
  857MOL0     C18166   1.764   4.585   8.076  0.9169  0.5314 -0.1652
  857MOL0     C18167   1.745   4.444   8.128  0.5092 -0.8383  0.5438
  857MOL0     C18168   1.598   4.407   8.172  0.3967 -0.0844 -0.5211
  857MOL0     C18169   1.586   4.260   8.222 -0.2608  0.2906  0.1862
  857MOL0     C18170   1.435   4.220   8.238 -0.4627 -0.2334 -0.1049
  857MOL0     C18171   1.417   4.087   8.309  0.1079 -0.3038 -0.7950
  857MOL0     C18172   1.266   4.043   8.315 -0.4435  0.6759 -0.3124
  857MOL0    Cl18173   1.160   4.151   8.409 -0.0987  0.1885 -0.2399
  857MOL0     C18174   2.192   4.667   8.078 -0.1473  1.4900 -0.2854
  857MOL0     C18175   2.322   4.730   8.090 -0.2161  0.0293  0.1472
  857MOL0     O18176   2.485   4.970   8.102  0.3788  0.4846  0.2419
  857MOL0     C18177   2.773   4.809   8.208 -0.1544 -0.3736  0.1183
  857MOL0     C18178   2.915   4.828   8.217  0.3776 -0.3082  0.1041
  857MOL0     N18179   3.529   5.201   8.505  1.1279  0.2996 -0.0218
  857MOL0     N18180   3.531   5.268   8.613 -0.7588 -0.4454  0.5231
  857MOL0     C18181   2.473   5.698   8.964 -0.4350 -0.5995 -0.5367
  857MOL0     C18182   2.337   5.682   8.984  0.4091 -0.5087 -1.4955
  857MOL0     C18183   1.925   5.698   9.141  0.3941  0.0956  0.2881
  857MOL0     C18184   1.900   5.574   9.192 -0.6054  0.1015 -0.1855
  857MOL0     C18185   1.779   5.517   9.208  0.6041 -0.3089  0.0035
  857MOL0     C18186   1.666   5.591   9.177  0.2797 -0.0070  0.7146
  857MOL0     O18187   1.541   5.526   9.183  0.3222 -0.8005  0.0203
  857MOL0     C18188   1.424   5.603   9.202 -0.1044 -0.0471 -0.0909
  857MOL0     C18189   1.293   5.522   9.215 -0.7565 -1.2133  0.2672
  857MOL0     C18190   1.174   5.606   9.265  0.6767  0.3858 -0.1102
  857MOL0     C18191   1.186   5.654   9.410  0.6698  0.1933  0.8311
  857MOL0     C18192   1.061   5.731   9.434 -0.9837  0.0831  0.2556
  857MOL0     C18193   0.972   5.785   9.488 -0.0943  0.0535  0.2515
  857MOL0     C18194   1.686   5.721   9.127 -0.3773 -0.5843  0.2314
  857MOL0     C18195   1.808   5.777   9.103  0.2049 -0.2703  0.1244
  857MOL0     C18196   1.819   5.920   9.053  0.0050  1.2864  0.0147
  857MOL0     H18197   2.337   5.705   9.328  3.4937  2.1980  1.2421
  857MOL0     H18198   2.569   5.716   9.295 -1.3107  1.3629  1.6094
  857MOL0     H18199   2.811   5.685   9.194 -1.3883  0.3496  1.2008
  857MOL0     H18200   2.751   5.849   9.198  1.8730  1.9959 -0.5764
  857MOL0     H18201   2.887   5.893   8.989  0.9400  1.1391  1.3274
  857MOL0     H18202   2.987   5.872   9.129  0.5167 -0.0909  0.6178
  857MOL0     H18203   3.017   5.628   9.085  1.6897  0.7571 -0.0990
  857MOL0     H18204   2.928   5.640   8.937 -1.2438  0.0314  0.6282
  857MOL0     H18205   3.115   5.817   8.886  2.0180  0.3877  1.0388
  857MOL0     H18206   3.198   5.755   9.030 -0.7261 -1.7722  1.0625
  857MOL0     H18207   3.153   5.629   8.757  4.3970  2.1183 -2.1432
  857MOL0     H18208   3.190   5.528   8.911  2.7315  0.4758  0.4019
  857MOL0     H18209   3.341   5.763   8.784 -1.1118 -0.6434 -1.3207
  857MOL0     H18210   3.403   5.658   8.918 -1.7994 -0.5280  0.9711
  857MOL0     H18211   3.510   5.584   8.722 -0.0794 -1.0829  1.3484
  857MOL0     H18212   3.362   5.601   8.619  1.3531 -1.6683 -1.7617
  857MOL0     H18213   3.427   5.381   8.832 -1.4948  1.8074  1.7507
  857MOL0     H18214   3.269   5.393   8.752 -0.5044  0.4507 -2.0233
  857MOL0     H18215   3.265   5.391   8.476 -1.3041 -2.4451  1.4862
  857MOL0     H18216   3.447   5.265   8.205  0.0682 -0.9645  0.0862
  857MOL0     H18217   3.280   5.255   8.250 -0.8533  0.1173  1.6391
  857MOL0     H18218   3.492   5.030   8.255 -1.2662 -1.9927  0.3574
  857MOL0     H18219   3.336   5.019   8.328 -0.0415  1.3464 -0.3987
  857MOL0     H18220   3.375   5.069   8.029  2.2813 -1.3317  1.6722
  857MOL0     H18221   3.336   4.927   8.094 -0.3041  0.8855 -1.3906
  857MOL0     H18222   3.146   5.166   8.145 -0.4470 -1.0369  4.2225
  857MOL0     H18223   3.147   5.039   8.016  0.4869 -1.2664  0.1456
  857MOL0     H18224   2.929   5.164   8.169 -1.7804  0.3609 -1.1420
  857MOL0     H18225   2.720   5.260   8.240 -0.7677 -0.7017  1.9516
  857MOL0     H18226   2.577   5.163   8.228 -1.0373 -2.8431 -2.5270
  857MOL0     H18227   2.685   5.218   8.081  0.2101  2.5907  0.1869
  857MOL0     H18228   2.310   4.774   8.429 -0.0761  2.0940 -0.6621
  857MOL0     H18229   2.078   4.674   8.393  0.4872  1.5613  0.8378
  857MOL0     H18230   1.919   4.726   8.028  1.3723  0.5483  3.0375
  857MOL0     H18231   1.957   4.566   7.962  2.2457  2.6241 -1.1519
  857MOL0     H18232   1.723   4.651   8.153  0.3121 -2.5096  2.2813
  857MOL0     H18233   1.707   4.599   7.984  0.2427  2.1860  0.4620
  857MOL0     H18234   1.820   4.416   8.202  0.5393  0.0421  0.8472
  857MOL0     H18235   1.767   4.382   8.040 -3.0803 -0.1882 -0.9806
  857MOL0     H18236   1.537   4.411   8.082  1.1934 -5.1387 -1.5719
  857MOL0     H18237   1.561   4.483   8.242 -2.3938 -0.4259 -1.5040
  857MOL0     H18238   1.644   4.188   8.164 -0.5797  0.6176 -0.5490
  857MOL0     H18239   1.627   4.251   8.323 -1.5129 -1.0990  0.5962
  857MOL0     H18240   1.385   4.216   8.141 -1.3202 -0.2221  0.3238
  857MOL0     H18241   1.386   4.302   8.292 -0.7114 -0.5010  0.0772
  857MOL0     H18242   1.450   4.095   8.413 -0.8774 -3.2881 -0.1346
  857MOL0     H18243   1.484   4.018   8.257  0.3798  2.5271 -4.5651
  857MOL0     H18244   1.267   3.946   8.367  1.5900  2.0364  2.4319
  857MOL0     H18245   1.231   4.045   8.212 -1.8766  1.1004  0.1615
  857MOL0     H18246   2.149   4.616   7.993  0.3424 -1.6511  1.1980
  857MOL0     H18247   2.376   4.748   7.998  0.2562 -1.4696  0.1094
  857MOL0     H18248   2.724   4.713   8.218 -0.2582 -0.2681  0.6250
  857MOL0     H18249   2.992   4.753   8.234  0.3419 -0.7715 -1.5620
  857MOL0     H18250   2.506   5.717   8.862  0.8160  1.2989  0.1602
  857MOL0     H18251   2.260   5.670   8.908  1.4470 -1.3646 -2.4484
  857MOL0     H18252   1.980   5.515   9.238 -1.2056  0.3769  1.2570
  857MOL0     H18253   1.766   5.417   9.250  2.7563 -0.4820  0.3520
  857MOL0     H18254   1.446   5.663   9.291  1.6122 -1.1490  0.2691
  857MOL0     H18255   1.414   5.669   9.116  4.5706  0.1154 -0.7674
  857MOL0     H18256   1.306   5.439   9.285 -0.8551 -1.1811  0.3241
  857MOL0     H18257   1.275   5.480   9.115  0.8789  2.2146 -1.6597
  857MOL0     H18258   1.171   5.688   9.193 -1.6514 -0.5996 -1.2356
  857MOL0     H18259   1.085   5.542   9.261  0.5839  0.5479 -0.6785
  857MOL0     H18260   1.269   5.723   9.432  0.9483  0.1396 -0.0408
  857MOL0     H18261   1.196   5.569   9.478  2.2980  0.5179  1.0404
  857MOL0     H18262   0.895   5.830   9.547 -1.9196 -0.8902 -1.2658
  857MOL0     H18263   1.596   5.780   9.108  1.9546  2.7074 -1.7068
  857MOL0     H18264   1.879   5.920   8.962 -0.1062  1.7946 -0.0629
  857MOL0     H18265   1.723   5.959   9.016  0.0182 -0.7721 -2.4092
  857MOL0     H18266   1.867   5.989   9.123 -0.6261 -0.6888  2.5609
  858MOL0     O18267   8.809   0.385   4.621 -0.6923 -0.5372  0.3106
  858MOL0     C18268   8.754   0.419   4.722  0.1036 -0.2103  0.1846
  858MOL0     O18269   8.818   0.431   4.843 -0.8094  0.4695 -0.2559
  858MOL0     C18270   8.941   0.371   4.856  0.2002 -0.5389 -1.0126
  858MOL0     C18271   9.051   0.434   4.912 -0.0935  0.0792  0.4104
  858MOL0     C18272   9.176   0.369   4.928  0.6513  1.2492  0.8869
  858MOL0     C18273   9.177   0.226   4.896 -0.6407  0.3104 -0.2561
  858MOL0     O18274   9.294   0.158   4.893 -0.1582  0.4718  0.1287
  858MOL0     C18275   9.299   0.028   4.960 -0.0363 -0.2661  0.1807
  858MOL0     C18276   9.386   0.028   5.081 -0.3661 -0.1827  0.5134
  858MOL0     C18277   9.527   0.059   5.050 -0.3430  0.0192 -0.3503
  858MOL0     C18278   9.614   0.031   5.171  0.3138  0.7554 -0.1745
  858MOL0     C18279   9.750   0.097   5.163 -0.1029 -0.6387 -0.1011
  858MOL0     C18280   9.844   0.040   5.261  0.7195  0.1192  0.8701
  858MOL0     C18281   9.995   0.079   5.249  0.0596 -0.4652  0.0895
  858MOL0     C18282  10.080  -0.010   5.148 -0.3194  0.1271 -0.2250
  858MOL0     N18283  10.227  -0.029   5.198 -0.1683  0.5795  0.0569
  858MOL0     C18284  10.267  -0.139   5.272 -0.5469  0.5786 -0.1887
  858MOL0     C18285  10.399  -0.121   5.301 -0.1078 -0.2662 -0.3302
  858MOL0     C18286  10.500  -0.204   5.379  0.3764 -0.5564  0.4913
  858MOL0     C18287  10.529  -0.132   5.516  0.2733  0.4561 -0.5643
  858MOL0     C18288  10.641  -0.196   5.596 -0.5693 -0.0101  0.6572
  858MOL0     C18289  10.725  -0.089   5.674  0.4691  0.0870 -0.0743
  858MOL0     O18290  10.779   0.006   5.586 -0.1186 -0.3643  0.1013
  858MOL0     C18291  10.893   0.068   5.617 -0.1562 -0.3521 -0.1206
  858MOL0     C18292  10.950   0.132   5.506  0.2281  0.1793 -0.6791
  858MOL0     C18293  11.077   0.197   5.511  0.4226 -0.0458  0.3119
  858MOL0     C18294  11.129   0.264   5.379  0.1592  0.2405 -0.4486
  858MOL0     C18295  11.135   0.201   5.639  0.4050  0.1419 -0.6686
  858MOL0     C18296  11.264   0.264   5.669 -0.1917 -0.2809 -0.5078
  858MOL0     O18297  11.295   0.280   5.801 -0.0906 -0.4269 -0.0053
  858MOL0     C18298  11.408   0.335   5.853 -0.0733 -0.3290  0.4117
  858MOL0     C18299  11.464   0.457   5.800  0.4447  0.1593 -0.0612
  858MOL0     C18300  11.563   0.522   5.873  0.8797 -0.0866  0.2430
  858MOL0     C18301  11.625   0.463   5.983  0.2276  0.9084 -0.0417
  858MOL0     O18302  11.720   0.527   6.062 -0.3690 -0.4444 -0.4776
  858MOL0     C18303  11.790   0.645   6.001  0.0564  1.1301  0.0400
  858MOL0     C18304  11.916   0.666   6.071 -0.9401 -0.3586 -0.4474
  858MOL0     C18305  12.026   0.567   6.064  0.1283 -0.0713 -0.5016
  858MOL0     C18306  12.138   0.620   6.148  0.4944 -0.0963  0.9451
  858MOL0     C18307  12.265   0.537   6.144  0.2457  0.9210 -0.0416
  858MOL0     C18308  12.352   0.585   6.266  0.9183 -0.9707  0.3978
  858MOL0     C18309  12.468   0.484   6.297  0.4672  0.0296 -1.0811
  858MOL0     C18310  12.574   0.566   6.375 -0.2037 -0.4204 -0.4645
  858MOL0    Cl18311  12.721   0.456   6.396 -0.2995  0.0209 -0.4752
  858MOL0     C18312  11.582   0.341   6.020  0.3119 -0.5658 -0.1977
  858MOL0     C18313  11.462   0.283   5.966 -0.0230 -0.1759 -0.0862
  858MOL0     O18314  11.342   0.279   5.578  0.1291  0.0122  0.5620
  858MOL0     C18315  11.070   0.143   5.752 -0.0751  0.0080  0.2673
  858MOL0     C18316  10.950   0.078   5.742 -0.0572 -0.4334 -0.3849
  858MOL0     N18317  10.437  -0.012   5.230 -0.5843  0.4692  0.2469
  858MOL0     N18318  10.339   0.048   5.177  0.0167  0.3664  0.0283
  858MOL0     C18319   9.077   0.165   4.830  0.0146  0.4518 -0.2340
  858MOL0     C18320   8.953   0.236   4.819  0.6908  0.5687  0.4881
  858MOL0     C18321   8.601   0.439   4.715  0.6635 -0.1107  0.1323
  858MOL0     C18322   8.544   0.429   4.586 -0.6208  0.2925 -0.4620
  858MOL0     C18323   8.403   0.441   4.559 -0.1946  0.4901  0.7551
  858MOL0     C18324   8.319   0.468   4.666 -0.1750  0.0780  0.0497
  858MOL0     O18325   8.184   0.473   4.647 -0.0262 -0.2250  0.1713
  858MOL0     C18326   8.121   0.434   4.520 -0.7316 -0.6645  0.1994
  858MOL0     C18327   7.985   0.376   4.554 -0.0575 -0.4306 -1.0233
  858MOL0     C18328   7.921   0.313   4.433 -0.4307  0.9054 -0.2955
  858MOL0     C18329   7.776   0.276   4.472 -0.0559 -0.6794  0.7843
  858MOL0     C18330   7.702   0.268   4.345 -0.5462 -0.8460  0.5225
  858MOL0     C18331   7.629   0.261   4.246  0.0553  0.2227  0.3962
  858MOL0     C18332   8.373   0.490   4.792 -0.2310  0.2202 -0.4127
  858MOL0     C18333   8.513   0.482   4.817 -0.4847 -0.0968  0.7970
  858MOL0     C18334   8.555   0.496   4.960 -0.2015  0.1575  0.8701
  858MOL0     H18335   9.050   0.539   4.938 -0.1767  0.8780 -2.4590
  858MOL0     H18336   9.257   0.421   4.976  0.6036  1.0245  1.2160
  858MOL0     H18337   9.334  -0.041   4.883  1.0216  1.6158 -1.0937
  858MOL0     H18338   9.200   0.003   5.001  0.3026  0.1001  1.2541
  858MOL0     H18339   9.336   0.094   5.153 -1.3962  1.2553 -1.4152
  858MOL0     H18340   9.382  -0.069   5.131 -1.3905 -0.4107  0.0264
  858MOL0     H18341   9.560  -0.004   4.967  0.2514  0.0232 -0.1180
  858MOL0     H18342   9.532   0.165   5.023 -2.5397 -0.0983 -1.5259
  858MOL0     H18343   9.569   0.057   5.268  2.4611  2.8542  0.3289
  858MOL0     H18344   9.632  -0.077   5.170 -0.4618  0.6222 -1.2238
  858MOL0     H18345   9.738   0.202   5.190  0.3954 -1.0380  1.8789
  858MOL0     H18346   9.797   0.080   5.066  0.8312  1.2800 -0.0306
  858MOL0     H18347   9.804   0.082   5.354  1.2185  1.8518  0.3438
  858MOL0     H18348   9.832  -0.069   5.263 -1.1706  0.2590  0.0193
  858MOL0     H18349  10.023   0.058   5.353  0.4316  1.0209  0.3146
  858MOL0     H18350  10.005   0.187   5.232 -1.1946 -0.4004 -0.3647
  858MOL0     H18351  10.028  -0.105   5.131 -0.9527  0.1758  1.2350
  858MOL0     H18352  10.084   0.041   5.052 -1.0710  2.4330  0.8847
  858MOL0     H18353  10.200  -0.213   5.316  0.4336  0.7934  1.7813
  858MOL0     H18354  10.590  -0.210   5.318  0.2568 -0.7348  0.3299
  858MOL0     H18355  10.466  -0.307   5.393  0.7129 -0.7949 -0.3713
  858MOL0     H18356  10.558  -0.030   5.491  0.3111  1.7951  4.0308
  858MOL0     H18357  10.436  -0.119   5.572  0.6856  0.3070  0.1643
  858MOL0     H18358  10.602  -0.283   5.651 -0.2779 -1.1223 -0.8433
  858MOL0     H18359  10.714  -0.243   5.530 -0.6239  0.0003  0.5893
  858MOL0     H18360  10.669  -0.044   5.756  0.0225 -2.2654  0.9779
  858MOL0     H18361  10.806  -0.140   5.728 -0.4817 -0.2824  1.0337
  858MOL0     H18362  10.886   0.123   5.418  0.3558 -2.5348 -0.5811
  858MOL0     H18363  11.158   0.369   5.387  0.4233  0.3616 -2.4415
  858MOL0     H18364  11.047   0.269   5.306  1.6053 -1.2923 -2.2915
  858MOL0     H18365  11.206   0.196   5.342  0.6439  1.7370 -2.3768
  858MOL0     H18366  11.434   0.501   5.705 -0.2059  1.3634  0.6825
  858MOL0     H18367  11.580   0.625   5.842 -0.8768  0.1271 -0.0762
  858MOL0     H18368  11.813   0.635   5.894 -0.3591 -1.1983  0.1200
  858MOL0     H18369  11.726   0.734   6.009  0.7411  1.6956 -0.5138
  858MOL0     H18370  11.962   0.760   6.037  4.9313 -2.3597  0.8065
  858MOL0     H18371  11.902   0.684   6.178 -1.0612  1.2692 -0.7118
  858MOL0     H18372  12.054   0.565   5.958 -0.8425  2.4900 -0.8887
  858MOL0     H18373  12.004   0.469   6.106 -1.9394  0.8315  0.6580
  858MOL0     H18374  12.112   0.639   6.253  2.5374  0.8629  1.3167
  858MOL0     H18375  12.160   0.720   6.109 -1.5628 -0.4919 -1.5184
  858MOL0     H18376  12.234   0.433   6.154 -2.1461  1.6129  0.3852
  858MOL0     H18377  12.326   0.544   6.054  2.2699  1.3678  1.2909
  858MOL0     H18378  12.304   0.587   6.364  1.7138 -1.0053  0.7953
  858MOL0     H18379  12.380   0.686   6.236 -2.0303  0.2543  1.3796
  858MOL0     H18380  12.504   0.439   6.204 -0.7156  0.8320 -1.9505
  858MOL0     H18381  12.426   0.406   6.363 -2.2368  0.4481 -2.2036
  858MOL0     H18382  12.547   0.595   6.477 -0.0063  0.5810 -0.6891
  858MOL0     H18383  12.603   0.656   6.321  1.4022  0.2869  1.4359
  858MOL0     H18384  11.627   0.301   6.111  0.0358 -1.0435 -0.2679
  858MOL0     H18385  11.420   0.195   6.014  0.3532 -0.0318  0.5254
  858MOL0     H18386  11.120   0.145   5.848 -0.3282 -0.7696  0.4289
  858MOL0     H18387  10.907   0.021   5.823  0.5130  1.1192  1.0523
  858MOL0     H18388   9.073   0.060   4.802 -4.3436  0.6099 -0.8251
  858MOL0     H18389   8.867   0.184   4.779 -1.1871  0.8940  3.7896
  858MOL0     H18390   8.612   0.411   4.504  2.1213 -0.9920  1.9159
  858MOL0     H18391   8.374   0.427   4.456  0.3220 -0.9757  0.7756
  858MOL0     H18392   8.119   0.522   4.456 -1.9364 -0.8799 -0.0780
  858MOL0     H18393   8.166   0.354   4.460  0.6289  0.2403 -0.0315
  858MOL0     H18394   7.922   0.450   4.605  0.1238 -0.6470 -0.4839
  858MOL0     H18395   7.999   0.299   4.630  2.2064 -0.5229 -1.4767
  858MOL0     H18396   7.925   0.373   4.342  0.0108  0.6030 -0.4776
  858MOL0     H18397   7.987   0.226   4.423  0.8274  1.6288  1.1982
  858MOL0     H18398   7.725   0.349   4.536 -0.6980  1.4019 -1.9013
  858MOL0     H18399   7.768   0.178   4.518 -0.6946 -0.5297  1.0135
  858MOL0     H18400   7.565   0.257   4.161  2.5265  2.1445 -1.7124
  858MOL0     H18401   8.294   0.503   4.865 -0.6790 -0.7632 -0.7196
  858MOL0     H18402   8.591   0.399   4.997  1.4249  0.3856 -0.0233
  858MOL0     H18403   8.649   0.552   4.960 -0.7560  1.1423 -1.1709
  858MOL0     H18404   8.473   0.538   5.018 -1.5491  0.2888 -1.0567
  859MOL0     O18405   8.350   0.870   9.411  0.7676  0.1253 -0.7129
  859MOL0     C18406   8.369   0.987   9.412 -0.3871 -0.0806  0.8064
  859MOL0     O18407   8.498   1.039   9.412 -0.2722  0.2585  0.2298
  859MOL0     C18408   8.615   0.963   9.400  0.8348  0.2928 -0.3935
  859MOL0     C18409   8.679   0.914   9.512  0.4488 -1.0680  0.4388
  859MOL0     C18410   8.801   0.844   9.492  0.4920 -1.1208  0.3109
  859MOL0     C18411   8.865   0.836   9.365  0.2903  0.3391 -1.2465
  859MOL0     O18412   8.994   0.791   9.369 -0.8591  0.8093 -0.9256
  859MOL0     C18413   9.002   0.656   9.312 -0.5186 -0.6559  0.0422
  859MOL0     C18414   9.144   0.604   9.325 -0.2426 -0.3938 -0.7563
  859MOL0     C18415   9.232   0.671   9.225  0.5619  0.9365  0.1733
  859MOL0     C18416   9.384   0.683   9.265 -0.4821 -0.0391  0.5052
  859MOL0     C18417   9.468   0.777   9.163  0.2759 -0.1006 -0.6363
  859MOL0     C18418   9.411   0.920   9.152 -1.0472 -0.6344  0.7601
  859MOL0     C18419   9.397   0.988   9.281 -0.5531 -0.5494  0.2649
  859MOL0     C18420   9.384   1.137   9.246  0.4187 -0.7471 -0.2132
  859MOL0     N18421   9.337   1.216   9.361  0.0917 -0.0100  0.1413
  859MOL0     C18422   9.425   1.262   9.459  0.0824  0.0194  0.1185
  859MOL0     C18423   9.345   1.350   9.531  0.3900 -1.2828 -0.3690
  859MOL0     C18424   9.395   1.414   9.653 -0.4166 -0.2048 -0.9857
  859MOL0     C18425   9.549   1.461   9.652 -0.0965 -0.1876  0.5589
  859MOL0     C18426   9.589   1.534   9.787 -0.1779 -0.0837  0.1056
  859MOL0     C18427   9.604   1.430   9.900 -0.4662 -0.4235  0.6181
  859MOL0     O18428   9.692   1.317   9.858  0.4869 -0.1622 -0.4195
  859MOL0     C18429   9.828   1.323   9.875 -0.0587  0.8345  0.7461
  859MOL0     C18430   9.893   1.202   9.892  0.0022  0.2628  0.4624
  859MOL0     C18431  10.035   1.199   9.904  0.5616 -0.0403 -0.7112
  859MOL0     C18432  10.107   1.073   9.899  0.8850  1.0549 -0.8445
  859MOL0     C18433  10.106   1.318   9.920 -0.2790  0.0088  0.4376
  859MOL0     C18434  10.252   1.337   9.939 -0.1176 -0.3779  0.0657
  859MOL0     O18435  10.310   1.251  10.031  0.6360 -0.0770 -0.5257
  859MOL0     C18436  10.443   1.214  10.006 -0.6619  0.3174  0.2236
  859MOL0     C18437  10.513   1.199   9.888 -0.3471  0.2038  0.1269
  859MOL0     C18438  10.648   1.138   9.881  1.0425  0.1753  0.0316
  859MOL0     C18439  10.717   1.113   9.999 -0.7773  0.3577  0.2421
  859MOL0     O18440  10.844   1.053  10.006 -0.0543 -0.3875 -1.2309
  859MOL0     C18441  10.900   1.006   9.884 -0.0104  0.1186 -0.6091
  859MOL0     C18442  11.034   0.956   9.907 -1.0306 -0.0830 -1.1115
  859MOL0     C18443  11.040   0.829  10.005  0.4542 -0.1590  0.0622
  859MOL0     C18444  11.173   0.762  10.020 -0.6033 -0.6270 -0.2047
  859MOL0     C18445  11.164   0.631  10.098  0.3594 -0.6340  0.9132
  859MOL0     C18446  11.134   0.649  10.244 -0.7338 -0.0050  0.1259
  859MOL0     C18447  11.102   0.517  10.309  0.9661  0.5023  0.0414
  859MOL0     C18448  11.035   0.530  10.444 -0.9694  0.7809 -0.3512
  859MOL0    Cl18449  11.143   0.483  10.574  0.0182 -0.5298 -0.0425
  859MOL0     C18450  10.654   1.126  10.118 -0.2484 -0.2329 -0.2007
  859MOL0     C18451  10.521   1.173  10.120  0.0883  0.9341 -0.3613
  859MOL0     O18452  10.315   1.420   9.870 -0.0314  0.1803  0.0102
  859MOL0     C18453  10.039   1.441   9.922 -0.7514 -0.8871 -1.2641
  859MOL0     C18454   9.899   1.440   9.908 -0.0681  0.1843 -0.1836
  859MOL0     N18455   9.220   1.356   9.474 -0.0968 -0.1001 -0.6511
  859MOL0     N18456   9.215   1.274   9.372  0.6418 -0.6825  0.4524
  859MOL0     C18457   8.799   0.888   9.253  0.0494 -0.0408  0.2498
  859MOL0     C18458   8.667   0.941   9.273 -0.4546 -0.6175  0.7263
  859MOL0     C18459   8.253   1.082   9.415  1.1847 -1.4344 -0.2198
  859MOL0     C18460   8.271   1.196   9.499 -0.3822 -0.5503  0.2914
  859MOL0     C18461   8.177   1.295   9.518 -0.1796 -0.8887  0.9703
  859MOL0     C18462   8.052   1.282   9.449 -0.8387  0.3595 -0.0948
  859MOL0     O18463   7.944   1.364   9.459 -0.0986 -0.8831  0.3535
  859MOL0     C18464   7.940   1.450   9.576 -0.4362 -0.1436  0.3585
  859MOL0     C18465   7.798   1.503   9.598  0.4964 -0.6238 -0.7383
  859MOL0     C18466   7.698   1.384   9.622 -0.2379  0.1773  0.1159
  859MOL0     C18467   7.560   1.438   9.634  0.4147 -0.2542 -0.2673
  859MOL0     C18468   7.544   1.523   9.750  0.0784 -0.1145 -0.2961
  859MOL0     C18469   7.517   1.601   9.839  1.0375 -0.2466  0.6344
  859MOL0     C18470   8.032   1.175   9.367 -0.4761  0.9197  0.0968
  859MOL0     C18471   8.130   1.068   9.351 -0.5884  0.1589 -0.6418
  859MOL0     C18472   8.090   0.956   9.264 -0.8403  1.3590 -0.6401
  859MOL0     H18473   8.631   0.930   9.608 -0.1846  0.3171 -0.0721
  859MOL0     H18474   8.855   0.817   9.582 -1.7063 -0.8663  1.8044
  859MOL0     H18475   8.973   0.666   9.207  0.3470  0.6644 -0.1047
  859MOL0     H18476   8.932   0.588   9.360 -0.0753 -1.0513  0.1260
  859MOL0     H18477   9.178   0.630   9.425  0.1130 -1.7781 -0.4996
  859MOL0     H18478   9.141   0.495   9.324 -0.4473 -0.4290  0.8624
  859MOL0     H18479   9.217   0.609   9.136 -3.2093 -1.7140  2.4222
  859MOL0     H18480   9.193   0.773   9.217  0.0320  0.6360 -1.4880
  859MOL0     H18481   9.393   0.722   9.367  0.6679 -0.8031  0.7138
  859MOL0     H18482   9.427   0.582   9.262 -0.5227 -0.0417 -0.5862
  859MOL0     H18483   9.470   0.728   9.065 -2.0517 -0.1026 -0.7370
  859MOL0     H18484   9.567   0.777   9.210 -0.9268  0.9836  2.0526
  859MOL0     H18485   9.485   0.983   9.102 -4.1885  0.2475 -3.3059
  859MOL0     H18486   9.317   0.913   9.096 -0.9776 -3.5829  0.8373
  859MOL0     H18487   9.489   0.987   9.341 -0.0864  3.4724 -0.0881
  859MOL0     H18488   9.312   0.955   9.342 -1.9461  0.8666 -0.8309
  859MOL0     H18489   9.477   1.182   9.210 -0.1342 -0.2310 -1.0427
  859MOL0     H18490   9.313   1.144   9.164 -0.5515 -3.6810  0.2662
  859MOL0     H18491   9.532   1.247   9.463 -0.0273 -1.1433 -0.6806
  859MOL0     H18492   9.389   1.337   9.731  2.0360 -1.4114 -1.8890
  859MOL0     H18493   9.330   1.497   9.682 -2.7795 -2.6476  1.2764
  859MOL0     H18494   9.607   1.371   9.630  0.3796  0.1543  0.3998
  859MOL0     H18495   9.575   1.529   9.570 -1.8810  0.4123  0.4447
  859MOL0     H18496   9.680   1.592   9.769 -1.8735  2.0769 -2.0888
  859MOL0     H18497   9.508   1.604   9.810 -0.6515 -1.2302  2.2131
  859MOL0     H18498   9.634   1.476   9.994 -2.3366 -0.3268  1.2073
  859MOL0     H18499   9.510   1.376   9.915  0.0474 -1.5762 -0.0971
  859MOL0     H18500   9.831   1.113   9.885  0.2882  0.0624  0.4392
  859MOL0     H18501  10.133   1.032   9.997 -1.4706  0.4588 -0.3946
  859MOL0     H18502  10.193   1.072   9.833 -0.9669 -1.1422 -3.4577
  859MOL0     H18503  10.037   1.003   9.852  1.1746  0.4253 -0.3596
  859MOL0     H18504  10.474   1.227   9.790 -0.9054 -1.4779 -0.1820
  859MOL0     H18505  10.688   1.119   9.782  0.6961  0.2546 -0.1232
  859MOL0     H18506  10.835   0.927   9.845 -2.8071  2.2208 -0.5339
  859MOL0     H18507  10.905   1.092   9.816 -0.1482  2.2422  1.8929
  859MOL0     H18508  11.076   0.930   9.809  2.5052  2.1577 -0.4056
  859MOL0     H18509  11.097   1.038   9.944  2.4982 -3.2786  0.6554
  859MOL0     H18510  10.984   0.760   9.941  4.7091 -1.1507 -2.9828
  859MOL0     H18511  10.999   0.859  10.102  4.3867  3.7229  0.8314
  859MOL0     H18512  11.237   0.840  10.062 -0.1061 -0.1631 -1.7259
  859MOL0     H18513  11.225   0.751   9.924  2.1341  1.2229  0.9243
  859MOL0     H18514  11.074   0.581  10.063  0.9915 -3.0397  2.4833
  859MOL0     H18515  11.251   0.567  10.082 -0.1607 -1.3428  0.9137
  859MOL0     H18516  11.055   0.723  10.259 -1.5652 -0.1823 -2.8490
  859MOL0     H18517  11.225   0.690  10.288  0.7270 -2.0640 -0.7825
  859MOL0     H18518  11.192   0.455  10.314 -0.8589 -2.4056 -0.6201
  859MOL0     H18519  11.030   0.466  10.245 -1.0160  4.1675 -0.9319
  859MOL0     H18520  10.956   0.455  10.451 -0.0410 -0.0168  3.8600
  859MOL0     H18521  11.004   0.635  10.455 -2.0058  0.3491  1.0835
  859MOL0     H18522  10.701   1.096  10.211 -1.2305 -0.7123  0.1516
  859MOL0     H18523  10.472   1.184  10.216  1.5782  1.4606  0.3678
  859MOL0     H18524  10.103   1.525   9.947 -0.2686 -1.2701 -1.2108
  859MOL0     H18525   9.845   1.534   9.913 -0.3013  0.0032  2.2200
  859MOL0     H18526   8.855   0.893   9.160  0.1168  1.4376  0.3501
  859MOL0     H18527   8.621   0.987   9.186  0.7243  0.2803  0.5492
  859MOL0     H18528   8.360   1.212   9.560 -2.0089 -2.3940  3.3915
  859MOL0     H18529   8.193   1.375   9.590 -1.9401 -0.2902  0.7421
  859MOL0     H18530   7.969   1.401   9.669 -0.0569  0.8203  0.7591
  859MOL0     H18531   8.002   1.538   9.555 -2.0107  0.5177 -1.9782
  859MOL0     H18532   7.751   1.568   9.524 -2.4959  1.2935  2.5363
  859MOL0     H18533   7.806   1.568   9.685 -2.0137 -0.3528 -0.6365
  859MOL0     H18534   7.708   1.318   9.535  0.9034  0.5328 -0.0396
  859MOL0     H18535   7.724   1.327   9.712  0.1313  2.9977  1.9145
  859MOL0     H18536   7.485   1.362   9.655 -3.2577  3.1588  0.3106
  859MOL0     H18537   7.520   1.484   9.542  0.7021  3.1448  1.1652
  859MOL0     H18538   7.473   1.653   9.922 -2.2785  0.7288 -1.4991
  859MOL0     H18539   7.931   1.176   9.325 -0.9495  0.4288  1.1845
  859MOL0     H18540   8.030   0.882   9.316 -0.7335  0.4211 -1.7972
  859MOL0     H18541   8.032   0.998   9.182 -1.4980 -1.2193 -1.5843
  859MOL0     H18542   8.177   0.903   9.223 -0.2360  2.1163 -0.3721
  860MOL0     O18543   1.130   9.365   2.502 -0.0222  0.8871 -0.9223
  860MOL0     C18544   1.098   9.483   2.500  0.4377  0.0190 -0.2009
  860MOL0     O18545   1.180   9.587   2.530 -0.3441 -0.5775 -0.2379
  860MOL0     C18546   1.320   9.586   2.552 -0.3165 -0.2028 -0.0444
  860MOL0     C18547   1.384   9.713   2.563 -0.6864  0.6591  0.4854
  860MOL0     C18548   1.517   9.712   2.578 -1.0886 -0.3457 -0.2546
  860MOL0     C18549   1.594   9.600   2.582 -0.4142  0.5083 -0.6602
  860MOL0     O18550   1.735   9.617   2.588 -0.3151 -0.1614  0.0114
  860MOL0     C18551   1.817   9.511   2.533 -0.3022 -0.6636  0.3877
  860MOL0     C18552   1.966   9.516   2.579  0.3415 -0.6141  0.2130
  860MOL0     C18553   2.066   9.413   2.499  0.6646  0.7811  0.3288
  860MOL0     C18554   2.019   9.271   2.480 -0.0327 -0.3441  0.1178
  860MOL0     C18555   2.121   9.183   2.409 -0.0839  0.4010  0.3072
  860MOL0     C18556   2.075   9.031   2.400  0.0845 -0.1179 -0.7374
  860MOL0     C18557   2.160   8.937   2.317 -0.0089 -0.5389 -1.0673
  860MOL0     C18558   2.166   8.795   2.388 -0.4778  0.3392 -0.4279
  860MOL0     N18559   2.220   8.793   2.523  0.2255  0.3771  0.1013
  860MOL0     C18560   2.142   8.798   2.640 -0.7225 -0.9140  0.4928
  860MOL0     C18561   2.229   8.777   2.746 -0.1129 -1.0528 -0.2308
  860MOL0     C18562   2.168   8.780   2.891  0.3458 -0.0334  0.6556
  860MOL0     C18563   2.167   8.922   2.944  0.7586 -0.6504  1.0883
  860MOL0     C18564   2.299   9.002   2.948 -0.3009  0.6030  0.0522
  860MOL0     C18565   2.404   8.922   3.016 -0.1754  0.4077 -0.7532
  860MOL0     O18566   2.353   8.885   3.147  0.7244  0.5184  0.3281
  860MOL0     C18567   2.438   8.850   3.243 -0.0271 -0.3328  0.3786
  860MOL0     C18568   2.386   8.791   3.360  0.0474 -0.0108  1.1400
  860MOL0     C18569   2.474   8.763   3.460  0.3112 -0.3651  0.1672
  860MOL0     C18570   2.407   8.671   3.563  0.5149  0.4306  0.5011
  860MOL0     C18571   2.605   8.804   3.464 -0.2983 -0.2063  0.1708
  860MOL0     C18572   2.709   8.767   3.566 -0.8251  0.6672 -0.3321
  860MOL0     O18573   2.829   8.834   3.571 -0.3895  0.4418  0.3360
  860MOL0     C18574   2.923   8.808   3.672 -0.1565 -0.2713  0.7365
  860MOL0     C18575   2.942   8.906   3.764 -0.8322 -0.6464 -0.4630
  860MOL0     C18576   3.043   8.895   3.869 -0.3901 -0.7563  0.1311
  860MOL0     C18577   3.127   8.792   3.863  0.4014  0.4500  0.0650
  860MOL0     O18578   3.223   8.758   3.958  0.2170  0.4458 -0.0775
  860MOL0     C18579   3.244   8.855   4.065 -0.5895  0.8012 -0.6098
  860MOL0     C18580   3.345   8.785   4.164  0.9339 -0.1740  0.0755
  860MOL0     C18581   3.481   8.771   4.104  0.0659  0.6616 -0.1761
  860MOL0     C18582   3.593   8.749   4.206  0.6028  0.2818 -0.3839
  860MOL0     C18583   3.545   8.644   4.309  0.0326 -0.0616 -0.3389
  860MOL0     C18584   3.667   8.586   4.395 -0.1592  0.0113 -0.1296
  860MOL0     C18585   3.628   8.480   4.502 -0.0469  0.0144  0.0443
  860MOL0     C18586   3.753   8.422   4.572 -0.0277  0.1178  0.3308
  860MOL0    Cl18587   3.720   8.306   4.697 -0.1197 -0.1708 -0.0775
  860MOL0     C18588   3.115   8.699   3.763  0.0064 -0.4464  0.0558
  860MOL0     C18589   3.016   8.704   3.669 -0.4141 -0.1548 -0.2110
  860MOL0     O18590   2.673   8.686   3.645 -0.2644 -0.2728  0.2507
  860MOL0     C18591   2.654   8.869   3.347 -0.0284  0.3851 -0.3657
  860MOL0     C18592   2.574   8.892   3.245  0.7376  0.0699  0.2932
  860MOL0     N18593   2.357   8.753   2.690  0.0746  1.1995  0.1386
  860MOL0     N18594   2.348   8.760   2.557  0.5951 -0.7604  0.0456
  860MOL0     C18595   1.538   9.478   2.592  0.0762  0.0328  0.4878
  860MOL0     C18596   1.398   9.470   2.570 -0.6624 -0.2112  0.2236
  860MOL0     C18597   0.959   9.520   2.480 -0.2442 -0.5657 -0.4886
  860MOL0     C18598   0.903   9.641   2.546  0.6713 -0.2596  0.6753
  860MOL0     C18599   0.767   9.681   2.533 -0.3957 -0.1310  0.3484
  860MOL0     C18600   0.687   9.616   2.436 -0.3859 -0.3115 -0.2918
  860MOL0     O18601   0.567   9.663   2.411 -0.2021 -0.0070  0.2712
  860MOL0     C18602   0.468   9.618   2.501 -0.1169  0.1086  0.2318
  860MOL0     C18603   0.324   9.644   2.449 -0.1889  0.1336  0.5543
  860MOL0     C18604   0.310   9.783   2.385  0.4820  0.1127 -0.2435
  860MOL0     C18605   0.163   9.808   2.350 -0.0894 -0.3457  0.0347
  860MOL0     C18606   0.107   9.745   2.239 -0.4543 -0.0220  1.1017
  860MOL0     C18607   0.049   9.683   2.148  0.9093 -0.1561 -0.8684
  860MOL0     C18608   0.735   9.501   2.376  0.0203  0.4723  0.0639
  860MOL0     C18609   0.869   9.447   2.394 -0.8463  0.0317  0.3786
  860MOL0     C18610   0.895   9.322   2.316 -1.0555  0.4735 -0.2290
  860MOL0     H18611   1.334   9.809   2.548  1.0942  1.0240 -5.9179
  860MOL0     H18612   1.570   9.807   2.577 -2.2715  0.3318 -1.2809
  860MOL0     H18613   1.831   9.513   2.424  0.4432  0.3025  0.4833
  860MOL0     H18614   1.794   9.412   2.571 -0.2018 -0.0738  2.0804
  860MOL0     H18615   1.993   9.621   2.568 -0.3565 -0.6674 -2.7458
  860MOL0     H18616   1.956   9.497   2.687 -1.5303  1.0123  0.3912
  860MOL0     H18617   2.074   9.455   2.398 -1.4122 -2.5463 -1.3955
  860MOL0     H18618   2.165   9.419   2.546  0.7993 -1.2016  0.3592
  860MOL0     H18619   1.997   9.226   2.577  0.6613 -2.4337 -0.6435
  860MOL0     H18620   1.924   9.282   2.427  0.2214  1.2785 -0.0467
  860MOL0     H18621   2.222   9.190   2.449  0.0129 -1.5572  0.5148
  860MOL0     H18622   2.124   9.227   2.309 -1.6525  2.2647  1.0314
  860MOL0     H18623   2.080   9.004   2.506  0.9934 -2.7734 -1.3861
  860MOL0     H18624   1.973   9.022   2.362  1.1442 -0.9467 -3.6564
  860MOL0     H18625   2.256   8.989   2.322 -0.1328 -0.3918  2.1067
  860MOL0     H18626   2.113   8.926   2.219 -0.9556  0.9374 -0.8194
  860MOL0     H18627   2.073   8.740   2.376  1.4408 -2.6279 -3.5351
  860MOL0     H18628   2.238   8.729   2.337 -0.5951 -0.4697  0.4195
  860MOL0     H18629   2.033   8.800   2.638 -0.8107  0.5028 -4.4550
  860MOL0     H18630   2.225   8.712   2.955 -1.2324 -1.4254  0.6278
  860MOL0     H18631   2.067   8.739   2.889 -0.1540  1.1062 -1.7323
  860MOL0     H18632   2.105   8.984   2.877  2.1059 -0.0828  0.3315
  860MOL0     H18633   2.116   8.925   3.041  0.5313  0.1405  0.9578
  860MOL0     H18634   2.329   9.022   2.845 -1.2705 -1.0346 -0.5802
  860MOL0     H18635   2.278   9.102   2.988 -0.6923  0.3390  0.5293
  860MOL0     H18636   2.442   8.844   2.950  0.5917  0.7910 -0.7748
  860MOL0     H18637   2.496   8.981   3.022  0.7890 -1.1375  1.2666
  860MOL0     H18638   2.280   8.766   3.357  0.8568 -5.0407 -4.1339
  860MOL0     H18639   2.455   8.574   3.581  0.9822  0.7337  0.8808
  860MOL0     H18640   2.303   8.660   3.531  0.6006  1.8894 -0.3104
  860MOL0     H18641   2.413   8.723   3.659 -0.5354  1.4057  0.0705
  860MOL0     H18642   2.882   8.995   3.755  0.5115  0.2534 -0.7995
  860MOL0     H18643   3.059   8.982   3.932 -1.5639  1.2436 -2.1575
  860MOL0     H18644   3.285   8.942   4.012 -2.2181  0.2016 -2.9793
  860MOL0     H18645   3.154   8.874   4.124 -0.1922 -1.2132  0.7454
  860MOL0     H18646   3.358   8.854   4.248  1.8602 -2.0845  1.5877
  860MOL0     H18647   3.299   8.694   4.204  1.2924  0.4415  1.9594
  860MOL0     H18648   3.503   8.854   4.037 -0.0966 -0.4792 -1.6973
  860MOL0     H18649   3.488   8.682   4.040 -0.0475 -0.5114  1.3664
  860MOL0     H18650   3.621   8.833   4.271 -0.8606  0.7017 -0.2612
  860MOL0     H18651   3.681   8.714   4.151 -0.1607  1.2051 -2.2618
  860MOL0     H18652   3.474   8.680   4.384 -1.3303 -2.9036 -0.1548
  860MOL0     H18653   3.491   8.570   4.251 -0.5285  2.1149 -2.7886
  860MOL0     H18654   3.711   8.674   4.443 -0.5313 -0.9000  1.9806
  860MOL0     H18655   3.744   8.554   4.324  0.0084  1.7231 -0.7717
  860MOL0     H18656   3.579   8.399   4.447  0.3166  0.1208 -0.4436
  860MOL0     H18657   3.553   8.509   4.575  1.0367 -0.6934  1.4867
  860MOL0     H18658   3.806   8.511   4.609  1.6762 -1.4094  1.7399
  860MOL0     H18659   3.807   8.368   4.494  0.3721  0.3386  0.4515
  860MOL0     H18660   3.183   8.615   3.766 -1.2388 -1.5833 -1.7396
  860MOL0     H18661   3.005   8.620   3.602 -1.7402  1.2041 -1.7809
  860MOL0     H18662   2.758   8.893   3.330 -0.3246  1.4698 -0.7945
  860MOL0     H18663   2.615   8.951   3.163 -4.2653 -0.7745 -3.3078
  860MOL0     H18664   1.579   9.379   2.610  0.3622 -0.2081 -1.3177
  860MOL0     H18665   1.354   9.371   2.564  0.1437 -0.5572 -0.1237
  860MOL0     H18666   0.961   9.695   2.620 -0.0498  1.3830  0.0833
  860MOL0     H18667   0.728   9.764   2.590 -0.1747  0.0438  0.2460
  860MOL0     H18668   0.477   9.511   2.523 -0.1818 -0.7581 -3.2916
  860MOL0     H18669   0.468   9.672   2.595 -2.4798  1.5768 -0.5312
  860MOL0     H18670   0.252   9.622   2.528 -0.7607 -3.2045 -0.7094
  860MOL0     H18671   0.313   9.569   2.369  2.4970 -0.4052  0.5902
  860MOL0     H18672   0.342   9.855   2.462 -2.0320  0.3889  0.6396
  860MOL0     H18673   0.379   9.788   2.300  0.2032 -1.2421 -0.5685
  860MOL0     H18674   0.157   9.917   2.341 -0.4196 -0.2298  1.4095
  860MOL0     H18675   0.097   9.779   2.432 -0.8772  1.9668  0.3038
  860MOL0     H18676  -0.005   9.633   2.070  0.4520 -1.3891  0.2155
  860MOL0     H18677   0.657   9.464   2.311 -0.1820  1.0325 -0.0189
  860MOL0     H18678   0.801   9.273   2.291 -1.2177  0.4572  0.3943
  860MOL0     H18679   0.955   9.339   2.226  2.1936  2.3196  2.0819
  860MOL0     H18680   0.947   9.241   2.368  2.1565  1.7873 -1.1319
  861MOL0     O18681   1.554   5.582   2.907 -0.0653  0.0284 -0.5216
  861MOL0     C18682   1.634   5.678   2.919 -0.2815  0.8663  1.0304
  861MOL0     O18683   1.613   5.799   2.849 -0.6465 -0.5426  0.4344
  861MOL0     C18684   1.493   5.816   2.785  0.0407  0.8418 -1.0557
  861MOL0     C18685   1.400   5.905   2.837  0.9574  0.4281  0.0251
  861MOL0     C18686   1.273   5.919   2.773  0.4504 -0.3741  0.1222
  861MOL0     C18687   1.251   5.854   2.646 -0.1767 -0.3880  0.0266
  861MOL0     O18688   1.124   5.860   2.586  0.6594 -0.3223 -0.2990
  861MOL0     C18689   1.116   5.818   2.444 -0.4211 -0.3108  0.0549
  861MOL0     C18690   0.973   5.843   2.400  0.4384  0.2847  0.2700
  861MOL0     C18691   0.869   5.772   2.486 -0.9315  0.3559 -0.3299
  861MOL0     C18692   0.724   5.800   2.432  0.6152 -0.7179 -0.0328
  861MOL0     C18693   0.621   5.726   2.515  0.2550  0.0646 -0.4674
  861MOL0     C18694   0.608   5.581   2.485  0.4486  0.3772  0.6562
  861MOL0     C18695   0.507   5.512   2.578 -0.0597 -0.1111 -0.1465
  861MOL0     C18696   0.480   5.365   2.535  0.8161 -0.0328  0.6586
  861MOL0     N18697   0.600   5.278   2.525 -0.4733 -0.4755 -0.5631
  861MOL0     C18698   0.685   5.241   2.625 -0.2218  0.0749  0.1724
  861MOL0     C18699   0.766   5.142   2.581  0.3847 -0.5358 -0.8623
  861MOL0     C18700   0.878   5.082   2.671  0.7564  0.4309 -1.2680
  861MOL0     C18701   0.827   5.001   2.795 -0.2254 -1.0451 -0.4706
  861MOL0     C18702   0.712   4.908   2.758  0.4922  0.8517  0.1583
  861MOL0     C18703   0.694   4.798   2.856 -0.5591 -0.2361  0.8130
  861MOL0     O18704   0.698   4.840   2.998 -0.0518 -0.3322  0.6850
  861MOL0     C18705   0.716   4.730   3.075 -0.5872 -0.9142 -0.4951
  861MOL0     C18706   0.844   4.692   3.125 -0.2576  0.1428 -0.4305
  861MOL0     C18707   0.855   4.574   3.198  0.3252 -0.0513  0.0100
  861MOL0     C18708   0.990   4.553   3.256 -0.3378 -0.4890  0.2791
  861MOL0     C18709   0.745   4.484   3.216  0.0211  0.0585 -0.4759
  861MOL0     C18710   0.741   4.360   3.292  0.5837  0.4319 -0.1226
  861MOL0     O18711   0.839   4.329   3.388 -0.9373 -0.3348 -0.3104
  861MOL0     C18712   0.857   4.197   3.415 -0.0236  0.7333 -0.1658
  861MOL0     C18713   0.979   4.141   3.383  0.3029  0.1579 -0.1737
  861MOL0     C18714   1.006   4.003   3.393 -0.0320 -0.0987  0.4008
  861MOL0     C18715   0.906   3.921   3.442 -0.5365 -0.1468 -0.1827
  861MOL0     O18716   0.920   3.785   3.464  0.1157  0.6259 -0.2106
  861MOL0     C18717   1.038   3.717   3.413  0.2703  0.4538  0.2980
  861MOL0     C18718   0.984   3.579   3.367 -0.0211  0.6720  0.1089
  861MOL0     C18719   0.895   3.585   3.239  0.3373  0.4445  0.1461
  861MOL0     C18720   0.854   3.459   3.175 -0.8059  0.6538  0.5271
  861MOL0     C18721   0.964   3.403   3.075  0.1271 -0.0407 -0.0407
  861MOL0     C18722   0.925   3.270   3.020 -0.1958 -0.1336 -0.1874
  861MOL0     C18723   1.029   3.217   2.922  1.1178  0.1540 -0.4443
  861MOL0     C18724   0.971   3.082   2.869 -0.0740 -0.7724  0.5908
  861MOL0    Cl18725   1.080   2.996   2.767  0.1367  0.0535  0.3893
  861MOL0     C18726   0.782   3.976   3.477  0.0729  0.0316 -0.1438
  861MOL0     C18727   0.758   4.116   3.469 -0.6661 -0.0848 -0.5821
  861MOL0     O18728   0.649   4.286   3.261 -0.1182  0.7271  0.1843
  861MOL0     C18729   0.622   4.525   3.164 -0.6935 -0.1549 -0.7463
  861MOL0     C18730   0.610   4.647   3.097 -1.2394 -0.2330  0.6991
  861MOL0     N18731   0.750   5.136   2.443 -0.2828 -0.6933 -0.3522
  861MOL0     N18732   0.649   5.215   2.412 -0.7825  0.3578  0.0670
  861MOL0     C18733   1.354   5.792   2.583 -0.2300  0.3988 -0.5491
  861MOL0     C18734   1.465   5.766   2.663 -0.2892  0.5969  0.0602
  861MOL0     C18735   1.758   5.660   3.011  0.4711 -0.9625  0.3768
  861MOL0     C18736   1.760   5.559   3.112  0.6186 -0.4217  0.3943
  861MOL0     C18737   1.867   5.526   3.192 -0.9518  0.0793  0.1157
  861MOL0     C18738   1.990   5.592   3.157  0.5737 -0.1009 -0.2902
  861MOL0     O18739   2.115   5.581   3.217  0.2303  0.2901  0.1593
  861MOL0     C18740   2.127   5.464   3.306 -0.2830  0.2411  0.0324
  861MOL0     C18741   2.273   5.427   3.298 -0.7388  0.5104 -0.1844
  861MOL0     C18742   2.331   5.394   3.162 -0.0063 -0.1779 -0.1443
  861MOL0     C18743   2.467   5.330   3.181 -0.0928 -0.5747  0.0918
  861MOL0     C18744   2.504   5.254   3.060  0.4883  0.2393  0.3146
  861MOL0     C18745   2.554   5.189   2.967 -0.4402 -0.4088 -0.1688
  861MOL0     C18746   1.986   5.694   3.069 -0.1335 -0.6316  0.1026
  861MOL0     C18747   1.878   5.729   2.992  0.5601 -0.4406 -0.4218
  861MOL0     C18748   1.903   5.824   2.877  0.2583 -0.7102  0.7054
  861MOL0     H18749   1.415   5.950   2.935 -0.2552  0.4346  0.2205
  861MOL0     H18750   1.184   5.963   2.816  0.7680 -0.6037  1.0267
  861MOL0     H18751   1.140   5.713   2.426 -1.4668 -0.1839 -2.4550
  861MOL0     H18752   1.185   5.875   2.382  0.3213  0.1788  1.2899
  861MOL0     H18753   0.971   5.952   2.402 -2.1569  0.3594 -1.4999
  861MOL0     H18754   0.956   5.803   2.299 -0.8855 -1.4200  1.1284
  861MOL0     H18755   0.887   5.664   2.485 -0.5133  0.4171  0.3414
  861MOL0     H18756   0.867   5.802   2.591 -1.4256  1.6191 -0.6902
  861MOL0     H18757   0.710   5.908   2.444 -2.2951 -1.2304  2.4318
  861MOL0     H18758   0.716   5.762   2.330 -2.9167 -1.6178  0.4439
  861MOL0     H18759   0.518   5.757   2.499 -0.0919 -0.1828  1.0985
  861MOL0     H18760   0.636   5.736   2.623 -1.5120 -0.4904 -0.1463
  861MOL0     H18761   0.577   5.574   2.380  1.1124  1.8443  0.3383
  861MOL0     H18762   0.707   5.537   2.498 -0.0210 -0.6087  0.9673
  861MOL0     H18763   0.408   5.555   2.593 -0.7930 -1.9807  0.7928
  861MOL0     H18764   0.556   5.517   2.676 -0.5919  0.1890  0.1093
  861MOL0     H18765   0.410   5.315   2.602  0.4851 -1.0571 -0.4160
  861MOL0     H18766   0.420   5.372   2.443 -0.8604 -1.5414  1.5920
  861MOL0     H18767   0.691   5.287   2.723  2.9842 -2.4437  1.3269
  861MOL0     H18768   0.948   5.162   2.696 -1.4256  2.6285 -1.7851
  861MOL0     H18769   0.938   5.014   2.610 -0.7617 -1.9818 -0.2509
  861MOL0     H18770   0.907   4.936   2.828 -0.1496 -1.1729 -0.8993
  861MOL0     H18771   0.786   5.062   2.877 -3.0647 -1.1314 -1.6897
  861MOL0     H18772   0.613   4.954   2.750 -0.4470 -1.2898 -2.2836
  861MOL0     H18773   0.730   4.858   2.662 -1.5160  1.9895 -0.8834
  861MOL0     H18774   0.605   4.740   2.833  0.5370 -1.2746 -1.0670
  861MOL0     H18775   0.786   4.743   2.833  0.3131  1.7158 -0.7552
  861MOL0     H18776   0.920   4.767   3.107 -0.5136  0.8884  1.3971
  861MOL0     H18777   1.063   4.624   3.217  1.3309 -0.9205  2.3834
  861MOL0     H18778   1.031   4.457   3.223 -0.2096  0.2258 -1.7814
  861MOL0     H18779   0.976   4.562   3.364  0.5677 -0.2724  0.3905
  861MOL0     H18780   1.049   4.213   3.342 -1.2673  2.3011  0.7192
  861MOL0     H18781   1.099   3.955   3.365 -0.7392 -0.1648 -2.1154
  861MOL0     H18782   1.091   3.758   3.327  0.2354  0.4815  0.2895
  861MOL0     H18783   1.106   3.694   3.495  0.3111 -0.2825  0.0670
  861MOL0     H18784   1.068   3.517   3.335 -0.9981 -0.2639 -0.7014
  861MOL0     H18785   0.933   3.535   3.452  3.0396 -1.3246  1.0896
  861MOL0     H18786   0.945   3.645   3.163 -2.6048  0.3298 -2.0261
  861MOL0     H18787   0.803   3.638   3.266  0.8572  0.9848  0.9145
  861MOL0     H18788   0.758   3.467   3.124 -1.1571  2.1000  1.3470
  861MOL0     H18789   0.844   3.384   3.254 -1.0140 -0.4298 -0.5087
  861MOL0     H18790   0.972   3.481   2.999 -0.6325  0.0795 -0.0136
  861MOL0     H18791   1.055   3.392   3.134  0.6943  0.1737 -0.8679
  861MOL0     H18792   0.828   3.282   2.972 -0.5038  0.7456  0.6183
  861MOL0     H18793   0.919   3.208   3.110 -2.8608 -0.9507 -0.8399
  861MOL0     H18794   1.123   3.197   2.975  0.2992  2.2748  2.0011
  861MOL0     H18795   1.046   3.295   2.847  0.7377  0.5557 -0.1115
  861MOL0     H18796   0.883   3.109   2.810  2.5301  3.2657 -1.9614
  861MOL0     H18797   0.938   3.020   2.953 -2.0339 -1.0456 -0.3255
  861MOL0     H18798   0.701   3.912   3.510 -0.7019  2.5834  3.4394
  861MOL0     H18799   0.659   4.156   3.484 -0.4712 -0.0611  0.8277
  861MOL0     H18800   0.546   4.448   3.168  0.3143 -1.2837 -2.3152
  861MOL0     H18801   0.529   4.688   3.038 -0.1520  0.1174 -0.5914
  861MOL0     H18802   1.350   5.757   2.481 -3.4658  2.4525 -1.2735
  861MOL0     H18803   1.550   5.719   2.614  0.0159  1.9058 -0.7326
  861MOL0     H18804   1.673   5.495   3.126  1.0343 -0.7013  1.7906
  861MOL0     H18805   1.859   5.452   3.271 -0.9746 -0.5998 -0.5232
  861MOL0     H18806   2.110   5.488   3.411 -1.1625 -0.2468  0.0144
  861MOL0     H18807   2.061   5.385   3.267 -0.3296  0.5220 -0.4607
  861MOL0     H18808   2.295   5.347   3.370 -1.1614 -0.0565 -0.6765
  861MOL0     H18809   2.320   5.517   3.338  1.9649 -0.9273  0.1338
  861MOL0     H18810   2.269   5.321   3.111  0.1555 -1.7915  1.8519
  861MOL0     H18811   2.346   5.483   3.100 -0.0516  0.5305  0.8288
  861MOL0     H18812   2.450   5.254   3.258 -1.3678 -2.3238 -1.8197
  861MOL0     H18813   2.536   5.410   3.208 -0.5836  0.1406 -0.6992
  861MOL0     H18814   2.603   5.141   2.884  0.0284  2.9775 -2.0447
  861MOL0     H18815   2.082   5.738   3.043 -0.3241 -0.4738 -0.3496
  861MOL0     H18816   2.008   5.834   2.850 -0.6285  0.1953 -3.0650
  861MOL0     H18817   1.858   5.781   2.787  0.3017  2.4614 -0.9686
  861MOL0     H18818   1.864   5.924   2.901  3.1825  1.4290 -2.4906
  862MOL0     O18819   4.954   1.150   3.562 -0.0198 -0.2252  0.6232
  862MOL0     C18820   4.935   1.032   3.597  0.4087 -0.1431 -0.2790
  862MOL0     O18821   5.029   0.936   3.591  0.0537 -0.5407  0.1236
  862MOL0     C18822   5.148   0.971   3.544  0.0212  0.3953  0.5255
  862MOL0     C18823   5.223   1.076   3.589 -0.2323 -0.3356 -0.2729
  862MOL0     C18824   5.351   1.106   3.533 -0.4773  0.0410 -0.2909
  862MOL0     C18825   5.405   1.023   3.436 -0.0477  0.0165 -0.1694
  862MOL0     O18826   5.533   1.037   3.387 -0.5598 -0.0044  0.1815
  862MOL0     C18827   5.629   1.088   3.482 -0.6996  0.0869  0.1843
  862MOL0     C18828   5.771   1.065   3.436  0.1876 -0.9290  0.3055
  862MOL0     C18829   5.808   1.136   3.311  0.7653  0.2730 -0.5831
  862MOL0     C18830   5.944   1.078   3.265  0.5638 -0.7458  0.5461
  862MOL0     C18831   5.994   1.153   3.143 -0.9286  0.2738  1.1351
  862MOL0     C18832   6.140   1.103   3.107 -0.3771  0.0300 -0.3340
  862MOL0     C18833   6.207   1.196   3.015  0.3251  0.0599  0.0265
  862MOL0     C18834   6.343   1.156   2.959  0.2170  0.6212  0.3070
  862MOL0     N18835   6.431   1.268   2.910 -0.1147  0.5910 -0.7364
  862MOL0     C18836   6.414   1.357   2.800  0.2485 -0.5168  0.6952
  862MOL0     C18837   6.518   1.451   2.806 -0.4151 -0.0990  0.7088
  862MOL0     C18838   6.547   1.570   2.720 -0.6694  0.0837 -0.4338
  862MOL0     C18839   6.679   1.648   2.755  0.4201  0.7468  0.1076
  862MOL0     C18840   6.809   1.569   2.753  0.4625  0.3952 -0.3105
  862MOL0     C18841   6.919   1.652   2.696  0.0068  0.6340  0.1453
  862MOL0     O18842   6.937   1.784   2.750  0.0340 -0.5860  0.0500
  862MOL0     C18843   7.045   1.862   2.699  0.2522  0.0707 -0.6819
  862MOL0     C18844   7.106   1.845   2.574  0.0594 -0.1063  0.2805
  862MOL0     C18845   7.209   1.927   2.530 -0.6264  0.2278  0.2812
  862MOL0     C18846   7.265   1.900   2.391 -0.1344 -0.1893 -0.2932
  862MOL0     C18847   7.258   2.033   2.611  0.0387  0.0892  0.7721
  862MOL0     C18848   7.366   2.118   2.560 -0.5193 -0.2479  0.0001
  862MOL0     O18849   7.348   2.186   2.441 -0.0907  0.3894 -0.3288
  862MOL0     C18850   7.456   2.254   2.385 -0.1341 -0.1023 -0.3681
  862MOL0     C18851   7.505   2.228   2.261 -0.4303  0.0496  0.5227
  862MOL0     C18852   7.611   2.308   2.199 -0.2273  0.3439  0.2801
  862MOL0     C18853   7.669   2.415   2.264 -0.4440  0.5931 -0.6732
  862MOL0     O18854   7.759   2.506   2.209 -0.4258 -0.2774 -0.0755
  862MOL0     C18855   7.836   2.460   2.087  0.0940  0.4801 -0.1036
  862MOL0     C18856   7.868   2.564   1.986  0.2467 -0.5844 -0.3327
  862MOL0     C18857   7.982   2.668   2.022  0.4079 -0.3040  0.7371
  862MOL0     C18858   8.001   2.763   1.906 -0.9563 -0.4704  0.0180
  862MOL0     C18859   8.108   2.873   1.939 -0.0173  0.5322 -0.2466
  862MOL0     C18860   8.125   2.979   1.824  0.0406 -0.3610 -0.4484
  862MOL0     C18861   8.216   3.094   1.883  0.8484  0.1692  0.7532
  862MOL0     C18862   8.236   3.206   1.788 -0.6429 -0.8061 -0.1863
  862MOL0    Cl18863   8.329   3.140   1.649  0.2196 -0.0949  0.3709
  862MOL0     C18864   7.616   2.445   2.393 -0.3355  0.4450 -1.3648
  862MOL0     C18865   7.518   2.364   2.455  0.1712 -0.1795  0.2547
  862MOL0     O18866   7.466   2.115   2.629  0.5847 -0.1301 -0.2999
  862MOL0     C18867   7.204   2.042   2.739  0.4934  0.4514  0.2496
  862MOL0     C18868   7.098   1.964   2.782 -0.3067 -0.8499  0.5791
  862MOL0     N18869   6.583   1.414   2.920 -0.5023  0.2706 -0.0879
  862MOL0     N18870   6.526   1.314   2.986  0.2207  0.0136  0.0023
  862MOL0     C18871   5.329   0.917   3.388  0.1841  0.2157  0.4776
  862MOL0     C18872   5.205   0.894   3.436 -0.3541  0.3514 -0.3482
  862MOL0     C18873   4.802   0.998   3.650  0.1946  0.5018  0.2240
  862MOL0     C18874   4.746   1.076   3.752 -0.3404  0.3191 -0.9514
  862MOL0     C18875   4.629   1.042   3.813 -0.2334 -1.1131 -0.0418
  862MOL0     C18876   4.557   0.924   3.788 -0.6781 -0.2962 -0.8522
  862MOL0     O18877   4.434   0.902   3.848  0.7677  0.6021 -0.0781
  862MOL0     C18878   4.401   0.759   3.855 -0.1176  0.1251  0.5262
  862MOL0     C18879   4.300   0.743   3.962  0.4915  0.6411 -0.3704
  862MOL0     C18880   4.170   0.824   3.930 -0.1555 -0.2947  0.1792
  862MOL0     C18881   4.062   0.809   4.038 -0.5780  0.3260 -0.0236
  862MOL0     C18882   3.930   0.853   3.976  0.5972  0.3613  0.3700
  862MOL0     C18883   3.814   0.875   3.936 -0.4040  0.5789  0.0579
  862MOL0     C18884   4.610   0.845   3.689  0.5144  0.0955  0.6925
  862MOL0     C18885   4.731   0.881   3.614  0.5208 -0.8735  0.4707
  862MOL0     C18886   4.794   0.781   3.521 -0.6813 -0.6551 -0.4707
  862MOL0     H18887   5.178   1.139   3.666 -0.1082 -0.1939 -0.3165
  862MOL0     H18888   5.399   1.199   3.561 -2.1474  1.7288 -2.6249
  862MOL0     H18889   5.627   1.035   3.577  3.7697  0.0999  0.4762
  862MOL0     H18890   5.618   1.195   3.499 -1.7882  0.1145 -0.5766
  862MOL0     H18891   5.845   1.097   3.511  0.1739  0.8602 -0.3838
  862MOL0     H18892   5.784   0.958   3.421  1.0166 -0.9533  1.0380
  862MOL0     H18893   5.729   1.130   3.235 -1.5873 -1.2685  1.8176
  862MOL0     H18894   5.810   1.242   3.338 -2.4062  0.6651 -1.5151
  862MOL0     H18895   6.007   1.105   3.351 -0.3868 -0.8898  1.2994
  862MOL0     H18896   5.943   0.970   3.252 -1.2033 -1.0026  2.3602
  862MOL0     H18897   6.001   1.261   3.154  1.9551  0.3768 -0.7375
  862MOL0     H18898   5.925   1.140   3.059  0.6203 -1.6461  0.0681
  862MOL0     H18899   6.199   1.090   3.198 -1.7618 -0.9578  0.4682
  862MOL0     H18900   6.132   1.003   3.064 -2.6139 -0.0535  0.1621
  862MOL0     H18901   6.211   1.295   3.060  0.5043  0.0775 -0.0282
  862MOL0     H18902   6.142   1.195   2.927 -1.3448 -0.2281  1.2168
  862MOL0     H18903   6.398   1.097   3.033 -1.3866 -2.6688 -0.9300
  862MOL0     H18904   6.329   1.087   2.876  0.0673 -0.3880  1.1528
  862MOL0     H18905   6.335   1.355   2.725  1.2242 -0.5938 -0.3596
  862MOL0     H18906   6.466   1.642   2.732  0.3222  1.3842 -1.2679
  862MOL0     H18907   6.552   1.538   2.615  0.6722 -1.9517  0.1897
  862MOL0     H18908   6.693   1.728   2.682 -0.2888 -1.1730 -2.2629
  862MOL0     H18909   6.667   1.709   2.846  1.9527  0.3988  0.5755
  862MOL0     H18910   6.835   1.555   2.858 -1.1054  1.9384  0.3301
  862MOL0     H18911   6.811   1.475   2.698  3.3524  2.1150 -3.6132
  862MOL0     H18912   7.010   1.590   2.693 -0.1445  0.4276 -2.3697
  862MOL0     H18913   6.883   1.665   2.593  0.2732  1.0082  0.0967
  862MOL0     H18914   7.092   1.757   2.512 -1.9212  1.0958 -1.0984
  862MOL0     H18915   7.256   1.990   2.330 -2.5797 -0.3124 -0.2133
  862MOL0     H18916   7.208   1.824   2.336 -0.4577 -0.4206  0.3469
  862MOL0     H18917   7.370   1.875   2.409  0.3547  2.3042  0.7268
  862MOL0     H18918   7.457   2.154   2.197 -2.9895  1.2226  0.9541
  862MOL0     H18919   7.639   2.288   2.095  0.2772  2.2686  0.0140
  862MOL0     H18920   7.931   2.421   2.127  0.3704 -0.6162 -1.7164
  862MOL0     H18921   7.792   2.377   2.031  2.5909 -0.0694 -1.4367
  862MOL0     H18922   7.879   2.524   1.885 -0.9850  0.0773 -0.7534
  862MOL0     H18923   7.773   2.615   1.967  0.2810 -0.2796  0.2948
  862MOL0     H18924   8.074   2.612   2.043 -0.6100 -2.2102  0.3179
  862MOL0     H18925   7.954   2.737   2.102 -1.9257  0.3421 -0.5643
  862MOL0     H18926   7.911   2.817   1.875 -0.8790  0.4919  1.3877
  862MOL0     H18927   8.028   2.698   1.823  1.8639  0.0543  0.4319
  862MOL0     H18928   8.071   2.929   2.026  0.3029 -0.6939  0.7211
  862MOL0     H18929   8.204   2.829   1.968  0.2478 -0.8414 -2.9208
  862MOL0     H18930   8.024   3.012   1.800 -0.2775 -1.9583 -1.4947
  862MOL0     H18931   8.175   2.937   1.736  1.9224 -0.6721  0.7092
  862MOL0     H18932   8.314   3.046   1.888  1.2695  1.0436  0.9932
  862MOL0     H18933   8.187   3.127   1.984 -0.1161 -4.2447  2.1346
  862MOL0     H18934   8.304   3.271   1.843  0.3322 -1.4179 -0.6411
  862MOL0     H18935   8.139   3.253   1.768 -0.1872  0.8747  1.2799
  862MOL0     H18936   7.660   2.531   2.443  0.1969 -0.2699 -0.5942
  862MOL0     H18937   7.473   2.385   2.552  0.2461  0.1935  0.2115
  862MOL0     H18938   7.241   2.118   2.807 -0.4872  0.9538  0.2490
  862MOL0     H18939   7.054   1.981   2.879 -4.3146 -1.0486 -1.0148
  862MOL0     H18940   5.377   0.859   3.310  2.1347 -0.7706  2.3188
  862MOL0     H18941   5.154   0.805   3.400  0.9807 -1.8896  2.8184
  862MOL0     H18942   4.795   1.168   3.783 -1.8846  0.5207  1.1308
  862MOL0     H18943   4.578   1.109   3.881 -3.1680 -2.4507 -0.7883
  862MOL0     H18944   4.353   0.731   3.760  1.5662  2.4347 -1.1093
  862MOL0     H18945   4.483   0.690   3.878  1.3503  1.9738  1.0870
  862MOL0     H18946   4.349   0.773   4.055  1.4644 -0.1370 -0.6097
  862MOL0     H18947   4.282   0.637   3.977 -0.8155  0.6315 -1.7137
  862MOL0     H18948   4.188   0.930   3.909  0.7434 -0.3817  0.4639
  862MOL0     H18949   4.137   0.788   3.832  1.7565  0.1629 -0.6826
  862MOL0     H18950   4.081   0.869   4.127 -0.0019 -2.9331  2.2100
  862MOL0     H18951   4.049   0.705   4.070  0.1969  0.3579  0.4188
  862MOL0     H18952   3.714   0.885   3.901 -1.1273  0.5865  2.0016
  862MOL0     H18953   4.558   0.757   3.652  0.0101 -0.8668  3.4359
  862MOL0     H18954   4.858   0.825   3.445 -0.6818  2.8018  1.3246
  862MOL0     H18955   4.865   0.724   3.582 -0.2531 -1.4666 -1.7083
  862MOL0     H18956   4.723   0.708   3.482 -1.9960  0.4655 -0.2568
  863MOL0     O18957   6.630   3.862   0.549  0.4743 -0.2948 -0.4793
  863MOL0     C18958   6.657   3.902   0.670 -0.0485 -0.6717 -0.0951
  863MOL0     O18959   6.771   3.960   0.700 -0.1508 -1.0671 -0.0261
  863MOL0     C18960   6.862   3.994   0.599  0.3636  1.1184 -0.8831
  863MOL0     C18961   6.942   3.892   0.559 -0.1290  0.6659  0.9098
  863MOL0     C18962   7.045   3.905   0.474 -0.5924 -0.7589  0.0054
  863MOL0     C18963   7.066   4.034   0.418 -0.6791  0.8222  0.4544
  863MOL0     O18964   7.171   4.049   0.328 -0.1663 -0.0486 -0.8162
  863MOL0     C18965   7.273   3.957   0.311  0.0632 -0.3156 -0.0042
  863MOL0     C18966   7.387   3.971   0.417  0.6020  0.1132  0.0205
  863MOL0     C18967   7.442   4.108   0.425  0.3563  0.7072 -0.2003
  863MOL0     C18968   7.516   4.138   0.297  0.1139 -0.3307 -0.3505
  863MOL0     C18969   7.563   4.276   0.293  0.0677 -0.7543 -0.3301
  863MOL0     C18970   7.708   4.296   0.350 -0.6462  0.3911 -0.5750
  863MOL0     C18971   7.733   4.250   0.500 -0.1504 -0.3195 -0.1816
  863MOL0     C18972   7.860   4.329   0.543  0.5220 -0.4069  0.7731
  863MOL0     N18973   7.931   4.257   0.653  0.3763 -0.9335  0.0089
  863MOL0     C18974   7.874   4.211   0.766 -0.2155  0.0016  0.0546
  863MOL0     C18975   7.974   4.149   0.832 -0.4821  0.8390 -0.5795
  863MOL0     C18976   7.953   4.080   0.967 -0.3810  0.2137  0.2558
  863MOL0     C18977   8.066   4.084   1.066 -0.5248  0.9364  0.5114
  863MOL0     C18978   8.030   4.065   1.212  0.1883 -1.0532 -1.2043
  863MOL0     C18979   8.145   4.115   1.305  0.7589  0.0498  0.4501
  863MOL0     O18980   8.125   4.255   1.328 -0.7685  0.0576 -0.0073
  863MOL0     C18981   8.186   4.308   1.446  0.0334 -0.9816 -0.0896
  863MOL0     C18982   8.115   4.398   1.525 -0.1496  0.3650 -0.4249
  863MOL0     C18983   8.174   4.452   1.641  0.4712  0.1260  0.6479
  863MOL0     C18984   8.097   4.551   1.719 -0.1721 -1.0995 -0.2549
  863MOL0     C18985   8.304   4.415   1.678 -0.6266  0.2140  0.2578
  863MOL0     C18986   8.376   4.469   1.800  0.2686  0.6185  0.4410
  863MOL0     O18987   8.357   4.608   1.829  0.4593 -0.3592  0.1606
  863MOL0     C18988   8.427   4.665   1.932  0.2140  0.2117 -0.2937
  863MOL0     C18989   8.563   4.687   1.934 -0.3535 -0.1907  0.1062
  863MOL0     C18990   8.634   4.740   2.041 -0.6681 -0.6148  0.5841
  863MOL0     C18991   8.557   4.780   2.152 -0.0998 -0.5411  0.6508
  863MOL0     O18992   8.618   4.843   2.262  0.2327  0.1455 -0.4406
  863MOL0     C18993   8.708   4.769   2.347 -0.0566 -0.5966 -0.5526
  863MOL0     C18994   8.815   4.854   2.416 -0.4236 -0.1641  0.3917
  863MOL0     C18995   8.927   4.905   2.320  0.2123  0.4583 -0.1621
  863MOL0     C18996   9.046   4.944   2.406 -0.3717  0.4076 -0.0885
  863MOL0     C18997   9.034   5.079   2.486  0.2517  0.0474 -0.0345
  863MOL0     C18998   9.142   5.079   2.590 -0.1102 -0.2237 -0.2689
  863MOL0     C18999   9.205   5.215   2.617  0.1434 -0.2896  0.4595
  863MOL0     C19000   9.316   5.217   2.718 -0.0476  0.4648  0.6569
  863MOL0    Cl19001   9.327   5.382   2.786  0.1190 -0.1564  0.2596
  863MOL0     C19002   8.415   4.759   2.146 -0.5929  0.0250 -0.3407
  863MOL0     C19003   8.353   4.690   2.037 -0.0808  0.1738  0.0616
  863MOL0     O19004   8.434   4.391   1.877  0.1163  0.1255  0.2153
  863MOL0     C19005   8.372   4.323   1.607 -1.0240 -0.3185  0.4183
  863MOL0     C19006   8.312   4.264   1.495 -0.1092 -0.5431 -0.1334
  863MOL0     N19007   8.093   4.172   0.762  0.4195  0.2365 -0.0462
  863MOL0     N19008   8.067   4.241   0.656  0.0739  0.6252  0.6170
  863MOL0     C19009   6.978   4.139   0.453 -0.1337 -0.0064  0.4587
  863MOL0     C19010   6.873   4.116   0.549 -0.7682  0.3708  0.2416
  863MOL0     C19011   6.552   3.890   0.773  0.1862 -0.6382  0.0775
  863MOL0     C19012   6.415   3.889   0.726 -0.7558  0.0811 -0.1771
  863MOL0     C19013   6.305   3.888   0.814  0.3853  0.1552 -0.1608
  863MOL0     C19014   6.328   3.876   0.948  0.0734  0.0984  0.7570
  863MOL0     O19015   6.218   3.882   1.022  0.3059 -0.9994  0.3779
  863MOL0     C19016   6.155   4.003   1.046  0.7178  0.4824  0.4310
  863MOL0     C19017   6.127   4.031   1.199 -0.3680  0.6168  0.2163
  863MOL0     C19018   6.050   3.916   1.274  0.0018 -0.2110  0.5597
  863MOL0     C19019   5.901   3.908   1.230  0.2114  0.2754 -0.0068
  863MOL0     C19020   5.819   3.809   1.299  0.7265  0.9109  0.3492
  863MOL0     C19021   5.748   3.728   1.355 -0.0204 -0.5101 -1.1923
  863MOL0     C19022   6.455   3.870   1.001 -0.5751 -0.9904  0.5161
  863MOL0     C19023   6.569   3.869   0.910 -0.4930 -0.1636  0.0056
  863MOL0     C19024   6.704   3.854   0.972  0.5530 -0.2081  0.2986
  863MOL0     H19025   6.928   3.791   0.597  0.9011  0.5600  1.0309
  863MOL0     H19026   7.097   3.812   0.453 -2.2106 -1.6312 -0.2934
  863MOL0     H19027   7.308   3.968   0.208  2.3249 -2.7238  0.3949
  863MOL0     H19028   7.239   3.853   0.316  0.2330 -0.3332  0.9794
  863MOL0     H19029   7.342   3.945   0.513 -0.2476  0.0686 -0.3722
  863MOL0     H19030   7.460   3.896   0.384  1.7101  0.7006  1.0874
  863MOL0     H19031   7.364   4.184   0.438  1.1184  1.9445 -2.3329
  863MOL0     H19032   7.502   4.100   0.516 -1.8330 -2.3084  1.1503
  863MOL0     H19033   7.594   4.068   0.268  1.5545  0.6571  0.9995
  863MOL0     H19034   7.440   4.135   0.218 -1.9323  0.4384  1.4729
  863MOL0     H19035   7.489   4.348   0.328  3.1065  1.9900  0.8871
  863MOL0     H19036   7.569   4.304   0.187 -1.2064  0.3426 -0.1342
  863MOL0     H19037   7.771   4.236   0.283 -0.5156  0.2596 -0.3380
  863MOL0     H19038   7.747   4.397   0.342  0.6996  0.0895  1.4349
  863MOL0     H19039   7.755   4.142   0.502 -1.2354 -0.6353 -2.2712
  863MOL0     H19040   7.645   4.271   0.561 -0.0719 -0.6603  0.0554
  863MOL0     H19041   7.930   4.334   0.459  1.3534 -1.4750  1.3700
  863MOL0     H19042   7.833   4.430   0.575 -1.6120 -1.1898  1.6741
  863MOL0     H19043   7.773   4.194   0.799  0.2660  0.6420  1.9634
  863MOL0     H19044   7.918   3.978   0.950  2.0508 -1.0300  2.1253
  863MOL0     H19045   7.870   4.129   1.018 -0.6570 -1.0542  1.0830
  863MOL0     H19046   8.141   4.007   1.045  0.5027  2.4667 -1.8166
  863MOL0     H19047   8.125   4.176   1.060  0.9170  0.1024  1.4018
  863MOL0     H19048   7.938   4.120   1.233  1.6567  0.9251  0.4432
  863MOL0     H19049   8.004   3.961   1.233 -2.0202 -0.7404 -2.1324
  863MOL0     H19050   8.132   4.061   1.398 -1.2489 -0.9683 -0.3706
  863MOL0     H19051   8.243   4.103   1.258  0.0476 -0.4077 -0.9753
  863MOL0     H19052   8.010   4.416   1.503 -0.5839 -1.1417  0.2805
  863MOL0     H19053   8.144   4.648   1.701  0.0871 -1.3161 -0.7858
  863MOL0     H19054   8.095   4.530   1.826  0.8484  1.2170  0.2791
  863MOL0     H19055   7.993   4.542   1.684 -0.2160 -3.7661  0.3106
  863MOL0     H19056   8.608   4.671   1.836  1.2226  0.0289  0.7554
  863MOL0     H19057   8.742   4.747   2.041 -0.6673 -0.6288  0.7866
  863MOL0     H19058   8.649   4.729   2.429 -0.7560  0.2918 -0.6048
  863MOL0     H19059   8.757   4.688   2.292  1.0857  0.5777 -1.3220
  863MOL0     H19060   8.772   4.942   2.466  1.5751  1.6145 -0.8327
  863MOL0     H19061   8.873   4.795   2.488  0.1217  0.3943  0.4212
  863MOL0     H19062   8.893   4.993   2.266 -1.2010 -0.3571 -0.6312
  863MOL0     H19063   8.951   4.820   2.255 -1.9715  0.5319 -1.1360
  863MOL0     H19064   9.132   4.952   2.338 -1.6414  0.7151 -1.7239
  863MOL0     H19065   9.070   4.861   2.473  0.7625  0.9650  0.2170
  863MOL0     H19066   9.060   5.154   2.410  2.3158 -0.2764  0.3062
  863MOL0     H19067   8.936   5.105   2.528  0.7637  0.4133  0.9656
  863MOL0     H19068   9.215   5.004   2.558 -0.2138 -0.2476 -0.4482
  863MOL0     H19069   9.099   5.046   2.685 -1.1157 -0.3227 -0.7455
  863MOL0     H19070   9.133   5.281   2.665 -0.6079 -2.9563  3.2792
  863MOL0     H19071   9.240   5.250   2.519 -1.9464  0.3696 -0.0988
  863MOL0     H19072   9.415   5.197   2.674  0.5841 -0.9868  2.5787
  863MOL0     H19073   9.313   5.142   2.798  1.0823 -0.7240 -0.3664
  863MOL0     H19074   8.354   4.776   2.233  1.2238 -0.0480  1.0093
  863MOL0     H19075   8.250   4.657   2.042  0.2819 -0.8658  1.0464
  863MOL0     H19076   8.472   4.293   1.635  0.1004  0.7765 -2.1076
  863MOL0     H19077   8.369   4.186   1.447  0.6195 -0.5503  0.7171
  863MOL0     H19078   7.002   4.229   0.397  1.2869 -1.1295 -0.8052
  863MOL0     H19079   6.796   4.185   0.582 -1.3679 -0.0745 -0.2101
  863MOL0     H19080   6.383   3.893   0.622 -3.0329 -1.9349  0.3483
  863MOL0     H19081   6.205   3.905   0.775 -0.8061 -0.6435  2.3802
  863MOL0     H19082   6.210   4.090   1.011  2.0101 -0.2445  0.5907
  863MOL0     H19083   6.057   3.993   0.999  0.2765 -0.4892  1.5107
  863MOL0     H19084   6.071   4.125   1.207  1.2756  1.6488  0.1301
  863MOL0     H19085   6.224   4.038   1.250  0.1066  0.5034 -0.6590
  863MOL0     H19086   6.098   3.818   1.261 -1.0642 -0.6369 -0.3744
  863MOL0     H19087   6.057   3.947   1.378 -1.1809  1.9050  0.0722
  863MOL0     H19088   5.902   3.890   1.122 -1.2268  0.5850 -0.0922
  863MOL0     H19089   5.866   4.008   1.254  1.1607  0.5730  0.2053
  863MOL0     H19090   5.693   3.650   1.404  2.1314 -1.1695  0.3461
  863MOL0     H19091   6.466   3.880   1.109 -1.7856  1.5129  0.4825
  863MOL0     H19092   6.758   3.947   0.953  0.2164 -0.0638  0.0392
  863MOL0     H19093   6.703   3.823   1.077 -3.0439  0.5994  0.6346
  863MOL0     H19094   6.761   3.775   0.921  0.7980  0.2903 -0.2109
  864MOL0     O19095   6.457   8.075   4.147 -0.2448  0.4536  0.0934
  864MOL0     C19096   6.427   8.032   4.037 -0.0932 -0.0898 -0.0677
  864MOL0     O19097   6.493   7.931   3.969 -0.3836  0.0396  0.1648
  864MOL0     C19098   6.629   7.907   3.997  0.0139  0.5265  0.3991
  864MOL0     C19099   6.658   7.801   4.074  0.1601 -0.5268 -0.3227
  864MOL0     C19100   6.784   7.764   4.113 -0.9050 -0.2811 -0.1530
  864MOL0     C19101   6.896   7.854   4.082  0.6572 -0.8886  0.1549
  864MOL0     O19102   7.021   7.811   4.117 -0.6639 -0.8088 -0.1467
  864MOL0     C19103   7.133   7.903   4.087  0.2808  0.2638  0.1370
  864MOL0     C19104   7.270   7.835   4.113  0.4491 -0.8000  0.8357
  864MOL0     C19105   7.374   7.944   4.113 -0.4169 -0.3440  0.2159
  864MOL0     C19106   7.520   7.898   4.107  0.2040  1.1791 -0.0008
  864MOL0     C19107   7.619   8.017   4.111 -0.2307 -0.4521  0.1505
  864MOL0     C19108   7.760   7.970   4.109 -0.9667  0.2334 -0.5841
  864MOL0     C19109   7.861   8.090   4.128  0.5593 -0.3735 -0.5209
  864MOL0     C19110   7.990   8.049   4.057  0.5443 -0.0787  0.1842
  864MOL0     N19111   8.087   8.158   4.027 -0.8428 -0.3763 -0.2797
  864MOL0     C19112   8.110   8.225   3.911 -0.1927  0.2087 -0.0468
  864MOL0     C19113   8.227   8.290   3.930  0.4908  0.3609  0.2884
  864MOL0     C19114   8.301   8.377   3.836 -0.2106  1.2262  0.0547
  864MOL0     C19115   8.450   8.332   3.822  0.2834 -0.1298  0.2623
  864MOL0     C19116   8.531   8.450   3.740  0.1275  0.0779 -0.0814
  864MOL0     C19117   8.656   8.496   3.818 -0.0200  0.5163 -0.5626
  864MOL0     O19118   8.727   8.602   3.757  0.1734 -0.6462 -0.1831
  864MOL0     C19119   8.843   8.654   3.814  0.5628  0.6522 -0.2522
  864MOL0     C19120   8.895   8.776   3.769 -0.0159  0.7434  0.2857
  864MOL0     C19121   9.008   8.836   3.818 -0.0412 -0.2541  0.1526
  864MOL0     C19122   9.055   8.961   3.756 -0.4847  1.0282  0.6722
  864MOL0     C19123   9.074   8.760   3.920  0.3668  0.2926 -0.4670
  864MOL0     C19124   9.191   8.813   3.985 -0.8854  0.3278 -0.0250
  864MOL0     O19125   9.280   8.725   4.041  0.1325 -0.0736 -0.1242
  864MOL0     C19126   9.405   8.761   4.084  0.3029  0.1960 -0.5492
  864MOL0     C19127   9.509   8.668   4.059 -0.8613  0.3713 -0.3759
  864MOL0     C19128   9.640   8.700   4.103  0.5413  0.1944 -0.1647
  864MOL0     C19129   9.662   8.817   4.176 -0.0883  0.2160 -0.1166
  864MOL0     O19130   9.803   8.820   4.211  0.6974  0.0817 -0.7248
  864MOL0     C19131   9.857   8.939   4.282 -0.4579 -0.0620  0.4432
  864MOL0     C19132   9.870   8.903   4.433 -0.1011  0.0526 -0.2188
  864MOL0     C19133   9.945   9.007   4.512  0.1831 -0.0507 -0.2388
  864MOL0     C19134   9.912   8.997   4.662  0.3693  0.3365 -0.0201
  864MOL0     C19135  10.005   9.091   4.740  0.1673  0.2014  0.2683
  864MOL0     C19136   9.986   9.101   4.892 -0.3815 -0.2383 -0.4807
  864MOL0     C19137   9.858   9.164   4.942 -0.7905 -0.2756 -0.7803
  864MOL0     C19138   9.862   9.176   5.094 -0.2017  0.7643 -0.6371
  864MOL0    Cl19139   9.967   9.303   5.151  0.0992  0.4807  0.3590
  864MOL0     C19140   9.559   8.905   4.209  0.1962  0.4861 -0.5718
  864MOL0     C19141   9.433   8.879   4.163 -0.1537 -0.1426  0.4739
  864MOL0     O19142   9.206   8.933   3.979 -0.0541 -0.4509 -0.3114
  864MOL0     C19143   9.032   8.630   3.952  0.0427 -0.5282 -0.0637
  864MOL0     C19144   8.911   8.586   3.908 -0.0634  0.7542  0.0075
  864MOL0     N19145   8.271   8.263   4.056  0.3281  0.0758  0.5005
  864MOL0     N19146   8.193   8.181   4.114  1.2708 -0.2187 -0.0357
  864MOL0     C19147   6.869   7.970   4.005  0.1579 -0.5419  1.1991
  864MOL0     C19148   6.732   7.993   3.959 -0.5370  0.0943  1.7119
  864MOL0     C19149   6.308   8.092   3.963 -0.0125 -0.0766  0.3717
  864MOL0     C19150   6.257   8.002   3.865  0.3704 -0.1538  0.0696
  864MOL0     C19151   6.140   8.042   3.795  0.3227 -0.0484 -0.6750
  864MOL0     C19152   6.078   8.170   3.812  0.2750  0.5911 -0.0959
  864MOL0     O19153   5.967   8.197   3.729  0.4063 -0.2187  0.8967
  864MOL0     C19154   5.894   8.315   3.748  0.1763 -0.0894 -0.3120
  864MOL0     C19155   5.975   8.442   3.712  0.6017 -1.2815 -0.7123
  864MOL0     C19156   5.939   8.557   3.812 -0.7365 -0.4167 -0.6493
  864MOL0     C19157   6.027   8.680   3.789  0.1675  0.1179 -0.6361
  864MOL0     C19158   6.161   8.670   3.846 -0.1551  0.3112 -0.0874
  864MOL0     C19159   6.281   8.660   3.883  1.1161 -0.1185  0.1272
  864MOL0     C19160   6.126   8.252   3.921 -0.0634 -0.1358  0.3160
  864MOL0     C19161   6.237   8.208   3.999  0.0617  0.0639 -0.6141
  864MOL0     C19162   6.278   8.296   4.109 -0.1608 -0.3333 -0.0457
  864MOL0     H19163   6.582   7.724   4.076  0.4375 -0.8322 -1.0205
  864MOL0     H19164   6.809   7.669   4.159 -0.6266 -0.4340 -0.6079
  864MOL0     H19165   7.120   7.991   4.150 -0.7419  1.8968 -2.2082
  864MOL0     H19166   7.137   7.936   3.983  0.5119 -0.3697 -0.0634
  864MOL0     H19167   7.275   7.790   4.213  1.4828  1.9068  2.1399
  864MOL0     H19168   7.286   7.761   4.034  1.7543  1.3794 -1.0686
  864MOL0     H19169   7.354   8.016   4.033 -0.3799  1.0928  1.4330
  864MOL0     H19170   7.354   8.002   4.204 -1.9056 -3.4532  2.0068
  864MOL0     H19171   7.545   7.828   4.187 -1.7612 -0.8555 -1.0364
  864MOL0     H19172   7.529   7.853   4.007 -2.3040  2.1293 -0.7314
  864MOL0     H19173   7.600   8.069   4.205  1.1493 -3.0919  2.0145
  864MOL0     H19174   7.599   8.082   4.025 -1.3902  1.5140  1.8092
  864MOL0     H19175   7.786   7.911   4.198  2.2716  0.7945 -1.0309
  864MOL0     H19176   7.786   7.913   4.019  1.5177 -1.5379  1.1051
  864MOL0     H19177   7.873   8.118   4.233  2.6839 -2.7414 -0.0206
  864MOL0     H19178   7.829   8.183   4.082 -0.7217 -1.0573 -1.0664
  864MOL0     H19179   8.040   7.969   4.112  0.9287  1.2745  1.8764
  864MOL0     H19180   7.961   8.013   3.958  0.1533 -0.0440  0.2853
  864MOL0     H19181   8.053   8.235   3.819 -0.8091  1.6440  0.4522
  864MOL0     H19182   8.288   8.484   3.858 -1.6649  1.0316  0.2236
  864MOL0     H19183   8.260   8.357   3.736  1.8528  0.5878 -0.7101
  864MOL0     H19184   8.492   8.322   3.923  2.1193  0.7329 -0.3769
  864MOL0     H19185   8.454   8.241   3.761  5.8385 -0.6029  0.8183
  864MOL0     H19186   8.572   8.404   3.650  1.3066  1.6329 -0.3893
  864MOL0     H19187   8.473   8.539   3.713  0.4048  0.1453 -0.4774
  864MOL0     H19188   8.617   8.533   3.913 -0.3361 -0.9889 -0.0884
  864MOL0     H19189   8.727   8.414   3.832  2.1680  2.2183 -1.0809
  864MOL0     H19190   8.841   8.815   3.683 -1.9551  1.4217  1.7298
  864MOL0     H19191   9.158   8.946   3.722 -0.6074  0.9710  0.3188
  864MOL0     H19192   9.044   9.050   3.817 -0.9179  2.2299 -1.0718
  864MOL0     H19193   9.002   8.990   3.665  2.5789  0.9141 -1.3130
  864MOL0     H19194   9.471   8.580   4.008 -1.9687  0.6124  0.0196
  864MOL0     H19195   9.723   8.632   4.090 -0.8354 -1.8046  1.0034
  864MOL0     H19196   9.958   8.963   4.246 -1.2756  2.7576 -0.1808
  864MOL0     H19197   9.798   9.030   4.267  0.9810  1.0940  1.4964
  864MOL0     H19198   9.767   8.895   4.470  0.1933  0.5236  0.7567
  864MOL0     H19199   9.919   8.806   4.429  1.0025  0.6052 -0.5480
  864MOL0     H19200   9.920   9.103   4.466 -1.0508 -0.6479 -0.8584
  864MOL0     H19201  10.052   8.993   4.495 -0.0787 -2.2634 -0.3236
  864MOL0     H19202   9.918   8.893   4.696  0.6447  0.0395 -0.9480
  864MOL0     H19203   9.810   9.031   4.679  0.6125  0.2201  1.8843
  864MOL0     H19204  10.105   9.049   4.726 -0.7130 -2.0030  0.1885
  864MOL0     H19205  10.008   9.186   4.686  0.9438 -0.9508 -1.8283
  864MOL0     H19206  10.065   9.156   4.945 -1.3002 -1.8297  2.8019
  864MOL0     H19207   9.990   8.993   4.910  1.5806 -0.1523 -0.1874
  864MOL0     H19208   9.775   9.107   4.901 -1.5364  1.8066 -2.3480
  864MOL0     H19209   9.850   9.264   4.899 -0.8022 -0.1608 -0.5111
  864MOL0     H19210   9.876   9.086   5.154  0.8353  1.5354  0.3115
  864MOL0     H19211   9.760   9.204   5.121  0.6413  2.7420  0.7394
  864MOL0     H19212   9.593   8.992   4.262  1.0476 -0.4581  0.4780
  864MOL0     H19213   9.343   8.932   4.192 -1.3958 -2.1101  0.4620
  864MOL0     H19214   9.091   8.568   4.020  0.2261 -1.7008 -1.2437
  864MOL0     H19215   8.890   8.482   3.932 -0.2736  0.7054 -0.3822
  864MOL0     H19216   6.943   8.035   3.961  1.5078 -3.0219 -0.3935
  864MOL0     H19217   6.724   8.078   3.892  1.5848  0.9739  2.4705
  864MOL0     H19218   6.300   7.904   3.847 -2.6099 -1.4806 -0.5139
  864MOL0     H19219   6.094   7.975   3.723  0.2532 -0.2691 -0.4245
  864MOL0     H19220   5.801   8.312   3.691  0.4235 -1.1325 -0.6775
  864MOL0     H19221   5.871   8.317   3.855  1.4192  0.7485 -0.0406
  864MOL0     H19222   5.939   8.464   3.611  0.1069 -1.3126 -0.5419
  864MOL0     H19223   6.083   8.428   3.698  0.6347 -0.4187 -1.3918
  864MOL0     H19224   5.834   8.585   3.797 -0.7864  0.0962  0.5718
  864MOL0     H19225   5.956   8.521   3.914  2.9221  0.1304 -0.9442
  864MOL0     H19226   5.969   8.763   3.831 -0.9954 -0.3333 -1.2955
  864MOL0     H19227   6.022   8.714   3.685 -0.6242  0.6819 -0.4230
  864MOL0     H19228   6.377   8.638   3.924  0.1330 -2.7783  1.2236
  864MOL0     H19229   6.079   8.347   3.943  0.6911  0.6412 -1.2270
  864MOL0     H19230   6.385   8.315   4.097  0.2659 -0.5255  2.7346
  864MOL0     H19231   6.209   8.381   4.107 -2.1278 -1.7510  1.7819
  864MOL0     H19232   6.261   8.245   4.205 -0.3481 -1.9276 -0.8918
  865MOL0     O19233   5.766   5.323   8.987  0.2282 -0.0638 -0.5439
  865MOL0     C19234   5.753   5.403   9.086  0.7560 -0.1466 -0.8977
  865MOL0     O19235   5.854   5.476   9.156 -0.3090 -0.3053  0.3099
  865MOL0     C19236   5.981   5.484   9.107 -0.2528  0.2296 -0.0384
  865MOL0     C19237   6.014   5.567   8.997 -0.0326 -0.0352 -0.5333
  865MOL0     C19238   6.145   5.591   8.962 -0.2375  0.2020  0.1155
  865MOL0     C19239   6.246   5.511   9.014 -0.3886  0.4886 -0.1258
  865MOL0     O19240   6.369   5.537   8.961 -0.4215 -0.4177  0.4755
  865MOL0     C19241   6.461   5.431   8.951  0.2898  0.1214  0.5457
  865MOL0     C19242   6.594   5.474   8.881 -0.2532  0.1390 -1.0554
  865MOL0     C19243   6.690   5.365   8.897 -1.1293  0.4609 -0.6839
  865MOL0     C19244   6.802   5.363   8.796 -1.2804  0.1274 -0.2761
  865MOL0     C19245   6.906   5.471   8.814 -0.6867  0.6934  0.4782
  865MOL0     C19246   6.998   5.472   8.687  0.8805  1.2529 -0.0647
  865MOL0     C19247   7.091   5.590   8.691  1.0629 -1.2582 -0.1613
  865MOL0     C19248   7.230   5.571   8.633  0.9316  0.3229  0.2955
  865MOL0     N19249   7.288   5.706   8.615  0.6578 -0.6549 -0.5983
  865MOL0     C19250   7.278   5.786   8.508 -0.1347 -0.4958 -0.0807
  865MOL0     C19251   7.353   5.894   8.545  0.3034 -0.7809 -0.4032
  865MOL0     C19252   7.368   6.024   8.467 -0.1846  0.4708  0.2689
  865MOL0     C19253   7.445   6.016   8.337  0.2668 -0.1673 -0.6296
  865MOL0     C19254   7.415   6.145   8.264  0.2526 -0.5966  0.6505
  865MOL0     C19255   7.509   6.186   8.152 -0.0356  0.1969  0.2552
  865MOL0     O19256   7.632   6.237   8.205 -0.1960  0.8748  0.0896
  865MOL0     C19257   7.724   6.289   8.125 -0.1809 -0.0632  1.0834
  865MOL0     C19258   7.825   6.369   8.178  0.6125  0.2816 -0.0952
  865MOL0     C19259   7.933   6.425   8.109 -0.2207  0.6301  0.5580
  865MOL0     C19260   8.028   6.490   8.198 -0.1194 -0.1528  0.2562
  865MOL0     C19261   7.935   6.413   7.969 -0.0120 -0.2378  0.8688
  865MOL0     C19262   8.035   6.470   7.881 -0.1091 -0.4423  0.2569
  865MOL0     O19263   8.015   6.440   7.754  0.7609  0.1117  0.6516
  865MOL0     C19264   8.116   6.463   7.671  1.0202  0.3758 -0.3525
  865MOL0     C19265   8.133   6.592   7.609  0.4104  0.4222 -0.4478
  865MOL0     C19266   8.253   6.626   7.543 -0.9038 -0.2843 -0.2718
  865MOL0     C19267   8.356   6.533   7.521  0.0666 -0.1914  0.7746
  865MOL0     O19268   8.470   6.559   7.448 -0.3521  0.1776  0.0903
  865MOL0     C19269   8.504   6.697   7.422  0.4450  0.2469  0.8470
  865MOL0     C19270   8.574   6.762   7.531  0.0177 -0.3727 -0.6498
  865MOL0     C19271   8.703   6.695   7.565 -0.7247 -0.2248 -0.1095
  865MOL0     C19272   8.790   6.784   7.660 -0.4767  0.1029  0.3784
  865MOL0     C19273   8.932   6.721   7.673  0.7596  0.0227 -0.6156
  865MOL0     C19274   9.033   6.817   7.734 -0.7406  0.0671 -0.4964
  865MOL0     C19275   9.042   6.812   7.894  0.2890 -0.2553  0.8614
  865MOL0     C19276   9.173   6.877   7.935 -0.2279  0.3707  0.4787
  865MOL0    Cl19277   9.319   6.798   7.860 -0.1056  0.2404  0.2650
  865MOL0     C19278   8.341   6.402   7.572  0.8301  0.3098 -0.2513
  865MOL0     C19279   8.217   6.370   7.644  0.2637  0.4388 -0.5093
  865MOL0     O19280   8.123   6.550   7.919  0.0507  0.2985 -0.2983
  865MOL0     C19281   7.831   6.334   7.913  0.7864  0.3466  0.6881
  865MOL0     C19282   7.730   6.272   7.984  0.5220 -0.2117 -0.6548
  865MOL0     N19283   7.389   5.880   8.677 -0.2216 -0.6551 -0.4750
  865MOL0     N19284   7.342   5.770   8.720 -0.0066  0.5959  0.1797
  865MOL0     C19285   6.221   5.419   9.115  0.4943  0.0531 -0.3161
  865MOL0     C19286   6.086   5.421   9.169 -0.4344  0.5223 -0.4157
  865MOL0     C19287   5.614   5.436   9.129  0.3270 -0.9933  0.2720
  865MOL0     C19288   5.522   5.332   9.135 -0.2721  0.0356  0.2348
  865MOL0     C19289   5.386   5.362   9.146  0.6137 -1.1089 -0.6919
  865MOL0     C19290   5.333   5.494   9.155 -1.1428 -0.5861 -0.0177
  865MOL0     O19291   5.207   5.535   9.176 -0.3253 -0.6185 -0.0174
  865MOL0     C19292   5.108   5.438   9.207  0.4855 -0.3174 -0.8083
  865MOL0     C19293   4.965   5.489   9.189  0.1147 -0.3379 -0.3822
  865MOL0     C19294   4.924   5.563   9.317  0.0438 -0.4380  0.3160
  865MOL0     C19295   4.771   5.558   9.337 -0.5903 -0.0525 -0.3494
  865MOL0     C19296   4.703   5.597   9.212 -0.0607 -0.1137  0.3881
  865MOL0     C19297   4.689   5.645   9.102 -0.0532 -0.2599  0.6767
  865MOL0     C19298   5.428   5.598   9.156  0.7525  0.2533  0.1926
  865MOL0     C19299   5.566   5.573   9.155 -0.2797  0.9067  0.2228
  865MOL0     C19300   5.657   5.686   9.166 -1.3263  0.0615  0.1729
  865MOL0     H19301   5.928   5.610   8.947 -1.9121 -1.8443  0.9282
  865MOL0     H19302   6.170   5.665   8.887  0.8758  1.2904  1.5039
  865MOL0     H19303   6.422   5.348   8.891  2.2546 -0.4814  0.0408
  865MOL0     H19304   6.483   5.405   9.055 -1.8738  1.5056  1.4111
  865MOL0     H19305   6.556   5.487   8.780 -0.1439  2.0445 -0.8933
  865MOL0     H19306   6.637   5.568   8.917 -1.1448  0.0514  0.3221
  865MOL0     H19307   6.733   5.383   8.996  0.1182 -0.2214 -1.0769
  865MOL0     H19308   6.642   5.267   8.889  0.7743 -0.4750 -1.4465
  865MOL0     H19309   6.847   5.263   8.800  0.4099  0.7834 -1.3946
  865MOL0     H19310   6.750   5.367   8.700  0.1144  0.6954 -1.0489
  865MOL0     H19311   6.955   5.463   8.911  1.0569 -0.0134 -0.4132
  865MOL0     H19312   6.871   5.574   8.820  0.5184  1.0952  0.8468
  865MOL0     H19313   7.054   5.380   8.668  1.5792  1.9332 -1.4686
  865MOL0     H19314   6.926   5.483   8.606  0.1054 -3.1390 -0.2459
  865MOL0     H19315   7.104   5.628   8.793 -0.9488  0.6397 -0.5463
  865MOL0     H19316   7.042   5.674   8.641  1.7621  0.1858  1.4563
  865MOL0     H19317   7.293   5.511   8.698  1.0669 -1.2661 -1.2052
  865MOL0     H19318   7.229   5.510   8.541 -1.0958 -2.7641  2.1767
  865MOL0     H19319   7.229   5.775   8.412 -1.9528  1.5363  0.5314
  865MOL0     H19320   7.405   6.106   8.530  0.1392  0.3530  0.2299
  865MOL0     H19321   7.261   6.044   8.450 -0.4607 -1.5138 -0.6009
  865MOL0     H19322   7.550   6.002   8.363  0.3400  0.6955 -0.4261
  865MOL0     H19323   7.409   5.927   8.285 -1.2451  0.2543 -0.3678
  865MOL0     H19324   7.313   6.141   8.224  0.6362  0.8159 -0.5367
  865MOL0     H19325   7.412   6.232   8.331  0.0397 -0.0137 -0.1074
  865MOL0     H19326   7.532   6.106   8.081 -3.2391  0.5929 -1.3982
  865MOL0     H19327   7.456   6.256   8.086  0.3764 -0.5102 -0.8505
  865MOL0     H19328   7.813   6.378   8.285 -1.4551  3.0580 -0.4617
  865MOL0     H19329   8.113   6.429   8.230  0.7375  0.6571 -0.4077
  865MOL0     H19330   7.980   6.530   8.288  1.4359  0.3934  0.8892
  865MOL0     H19331   8.080   6.574   8.151  1.8461 -1.3989  0.0664
  865MOL0     H19332   8.061   6.673   7.622 -2.4792 -1.9679 -0.6753
  865MOL0     H19333   8.274   6.732   7.535 -2.2391  0.0229  0.0851
  865MOL0     H19334   8.567   6.695   7.332 -0.0033  2.2535  0.4290
  865MOL0     H19335   8.412   6.751   7.397  0.4571  0.5775  1.5073
  865MOL0     H19336   8.590   6.868   7.512  1.9135 -0.6051 -0.5467
  865MOL0     H19337   8.509   6.759   7.619  2.4508  0.7041  1.3185
  865MOL0     H19338   8.765   6.685   7.475 -0.8813  2.7400 -0.6302
  865MOL0     H19339   8.682   6.602   7.619  1.8657 -2.7696 -3.0613
  865MOL0     H19340   8.752   6.794   7.762 -1.6790  1.4758 -0.1798
  865MOL0     H19341   8.807   6.880   7.611  1.4851 -0.7290 -0.6925
  865MOL0     H19342   8.923   6.627   7.728  0.8548 -0.3905 -1.2982
  865MOL0     H19343   8.976   6.702   7.575  0.6835 -1.1141 -0.4484
  865MOL0     H19344   8.996   6.916   7.705  0.0319  0.0655 -1.5053
  865MOL0     H19345   9.128   6.800   7.684 -1.3987  0.1247 -1.8166
  865MOL0     H19346   9.045   6.706   7.923 -2.0133 -1.1508 -1.6718
  865MOL0     H19347   8.967   6.874   7.943  0.7633 -0.0927  1.3994
  865MOL0     H19348   9.187   6.852   8.040  0.1253  0.1183  0.3703
  865MOL0     H19349   9.177   6.986   7.925  2.2936  0.3308  0.5129
  865MOL0     H19350   8.426   6.336   7.559  1.3610  1.0327 -0.4742
  865MOL0     H19351   8.204   6.274   7.694  2.2747 -0.3009 -1.3071
  865MOL0     H19352   7.825   6.311   7.807  1.5819 -0.3324  0.7737
  865MOL0     H19353   7.659   6.217   7.923 -0.1056  1.5013 -1.5457
  865MOL0     H19354   6.295   5.352   9.158  1.8384 -0.1370 -2.7667
  865MOL0     H19355   6.058   5.370   9.260 -1.9683  2.1654  0.0904
  865MOL0     H19356   5.563   5.231   9.129 -0.3047  0.0443 -0.1225
  865MOL0     H19357   5.312   5.283   9.144 -1.9330  1.0702  0.8862
  865MOL0     H19358   5.130   5.361   9.132  2.7552 -1.1592  0.6235
  865MOL0     H19359   5.124   5.395   9.307 -2.0278  0.2406 -0.0854
  865MOL0     H19360   4.911   5.395   9.175  1.3478 -1.5363  2.2952
  865MOL0     H19361   4.958   5.557   9.103  0.9425 -0.1560 -0.3142
  865MOL0     H19362   4.967   5.515   9.405 -2.5642  2.3149  3.3498
  865MOL0     H19363   4.958   5.666   9.313 -0.3593 -0.1740  2.4447
  865MOL0     H19364   4.742   5.633   9.411 -1.1535 -0.5273 -0.0786
  865MOL0     H19365   4.743   5.460   9.377  0.2283 -1.3270 -2.7215
  865MOL0     H19366   4.691   5.679   9.001  0.0203 -2.8186 -0.2606
  865MOL0     H19367   5.406   5.704   9.157  1.5519  0.4480 -0.8587
  865MOL0     H19368   5.617   5.787   9.179  0.3139  0.6205  1.1295
  865MOL0     H19369   5.719   5.666   9.253  1.2396 -1.6166 -1.8896
  865MOL0     H19370   5.727   5.687   9.082  0.0987 -0.3829  1.3273
  866MOL0     O19371   2.725   5.102   2.039 -0.2344  0.2589 -0.0492
  866MOL0     C19372   2.649   5.012   2.074 -0.4524  0.2018  0.1880
  866MOL0     O19373   2.684   4.900   2.149 -0.5144 -0.2682 -0.6783
  866MOL0     C19374   2.803   4.893   2.215  0.2910  0.7618  0.0454
  866MOL0     C19375   2.845   4.759   2.238  0.0351  0.2658  0.1928
  866MOL0     C19376   2.958   4.731   2.313 -0.0180  0.8723  0.1655
  866MOL0     C19377   3.026   4.840   2.361 -0.4578 -0.2924 -0.2962
  866MOL0     O19378   3.139   4.827   2.443  0.6358  0.4877 -0.4170
  866MOL0     C19379   3.218   4.705   2.443  0.4756 -0.4589  0.2237
  866MOL0     C19380   3.358   4.745   2.483 -0.0131  0.0190  0.7657
  866MOL0     C19381   3.460   4.637   2.463 -1.0173  0.1376 -0.2642
  866MOL0     C19382   3.571   4.644   2.569  0.6873  0.2085  0.8034
  866MOL0     C19383   3.670   4.523   2.555 -0.3522  0.2709 -0.9511
  866MOL0     C19384   3.771   4.524   2.673  0.4588  0.1254 -0.3765
  866MOL0     C19385   3.847   4.392   2.693  0.2043  0.0608 -0.1068
  866MOL0     C19386   3.930   4.349   2.575 -0.4131 -0.1356 -0.0863
  866MOL0     N19387   4.019   4.457   2.526 -0.1219  0.4135 -0.0101
  866MOL0     C19388   4.123   4.520   2.600  0.7908 -0.0123 -0.8228
  866MOL0     C19389   4.196   4.587   2.509  0.3303 -0.0882 -0.0058
  866MOL0     C19390   4.322   4.664   2.538  0.9422  0.2722 -0.7254
  866MOL0     C19391   4.296   4.777   2.635  0.3658 -1.6074 -0.5629
  866MOL0     C19392   4.431   4.839   2.687 -0.2456  0.5438  0.4268
  866MOL0     C19393   4.538   4.873   2.581 -0.4427 -0.2053 -0.5700
  866MOL0     O19394   4.645   4.935   2.662  0.3754 -0.2814 -0.3038
  866MOL0     C19395   4.750   4.987   2.589  0.1507 -1.0417  0.0797
  866MOL0     C19396   4.794   4.942   2.465 -0.8908  0.2064  0.4809
  866MOL0     C19397   4.896   5.009   2.393 -0.1483  0.3533 -0.3995
  866MOL0     C19398   4.947   4.932   2.270  0.1058  0.2880  0.1319
  866MOL0     C19399   4.952   5.124   2.450  0.9545  0.0827  0.2069
  866MOL0     C19400   5.049   5.215   2.382  0.3029 -0.2123 -0.6442
  866MOL0     O19401   5.081   5.187   2.256 -0.1990 -0.3112  0.1806
  866MOL0     C19402   5.177   5.250   2.179 -0.1678  0.4358  0.6964
  866MOL0     C19403   5.164   5.244   2.040 -0.3279  0.2284 -0.2170
  866MOL0     C19404   5.258   5.302   1.952 -0.1498 -0.1479 -0.0401
  866MOL0     C19405   5.364   5.378   2.000 -0.3861  0.4401 -0.0774
  866MOL0     O19406   5.456   5.429   1.907 -0.1696 -0.1030 -0.5209
  866MOL0     C19407   5.558   5.509   1.954  0.4711  0.1092  0.4573
  866MOL0     C19408   5.684   5.426   1.986 -1.0486 -0.4558 -0.3888
  866MOL0     C19409   5.817   5.511   1.997 -0.5015  0.1085 -0.0329
  866MOL0     C19410   5.871   5.565   1.862 -0.2341 -0.7672  0.0385
  866MOL0     C19411   6.008   5.629   1.885 -0.1825 -0.5891  0.0801
  866MOL0     C19412   6.066   5.687   1.754 -0.0488 -0.7773 -0.0738
  866MOL0     C19413   6.182   5.780   1.786 -0.4941  0.4762 -0.2846
  866MOL0     C19414   6.199   5.876   1.666 -0.7299  0.1753  0.9290
  866MOL0    Cl19415   6.341   5.986   1.686  0.0545  0.0474  0.6917
  866MOL0     C19416   5.385   5.380   2.134 -0.2652 -0.5969  0.4360
  866MOL0     C19417   5.294   5.318   2.227  0.3055 -0.3609  0.1681
  866MOL0     O19418   5.105   5.302   2.450 -0.7283 -0.5771 -0.4313
  866MOL0     C19419   4.905   5.177   2.574  0.9100  0.0003 -0.1138
  866MOL0     C19420   4.805   5.103   2.648  0.1964  0.8869  0.5298
  866MOL0     N19421   4.127   4.575   2.391  0.3995 -0.1441  1.0684
  866MOL0     N19422   4.020   4.505   2.403 -0.2757  0.5142  0.4517
  866MOL0     C19423   2.995   4.973   2.341 -0.8372 -0.2480 -0.1556
  866MOL0     C19424   2.879   4.997   2.264  0.3078 -0.6559 -0.4523
  866MOL0     C19425   2.510   5.026   2.036 -0.1315 -0.6096  0.2684
  866MOL0     C19426   2.460   5.164   2.015  0.9769 -0.3130 -0.0271
  866MOL0     C19427   2.331   5.183   1.966 -0.1225 -0.1661 -0.5212
  866MOL0     C19428   2.245   5.076   1.939 -0.8355 -0.0263 -0.8477
  866MOL0     O19429   2.129   5.108   1.880  0.5252  0.1541 -0.1867
  866MOL0     C19430   2.008   5.061   1.944  0.2910 -0.0708 -0.0819
  866MOL0     C19431   1.988   5.102   2.090 -0.1439  0.3429  0.3706
  866MOL0     C19432   1.989   5.253   2.123 -0.7924 -0.4664  0.2192
  866MOL0     C19433   1.862   5.329   2.097  0.8202  0.3248 -0.0873
  866MOL0     C19434   1.741   5.254   2.153 -0.4288  0.4973 -0.4051
  866MOL0     C19435   1.645   5.192   2.193 -0.4818 -0.1000  0.4347
  866MOL0     C19436   2.293   4.948   1.959  0.4994 -0.6882 -0.0351
  866MOL0     C19437   2.423   4.921   2.002  0.3465 -0.2599 -0.1908
  866MOL0     C19438   2.461   4.773   2.021  0.5192  0.5403 -0.0610
  866MOL0     H19439   2.787   4.679   2.192 -0.8788  1.2122 -0.3511
  866MOL0     H19440   2.983   4.625   2.317  0.9615  1.0286 -1.3090
  866MOL0     H19441   3.217   4.652   2.347 -2.6773  0.2072 -0.2160
  866MOL0     H19442   3.191   4.628   2.516  1.0569 -0.9585 -0.0796
  866MOL0     H19443   3.373   4.840   2.431 -2.3771  0.9672  1.6721
  866MOL0     H19444   3.356   4.764   2.590  3.3276 -3.4260  1.6931
  866MOL0     H19445   3.408   4.542   2.479  0.4478 -0.3261  2.2277
  866MOL0     H19446   3.517   4.646   2.370 -0.9268  1.5410 -0.0900
  866MOL0     H19447   3.631   4.735   2.558 -0.2627  0.8182  0.5504
  866MOL0     H19448   3.538   4.649   2.673 -0.7616  0.5256  0.3438
  866MOL0     H19449   3.729   4.531   2.462  0.0774  2.2396 -0.5566
  866MOL0     H19450   3.617   4.427   2.548  2.3610 -1.3034 -1.7432
  866MOL0     H19451   3.840   4.607   2.658 -0.2647  0.8730  0.3644
  866MOL0     H19452   3.715   4.551   2.762  2.0951  1.8767  0.1813
  866MOL0     H19453   3.783   4.309   2.723 -1.1555  1.1825  0.1983
  866MOL0     H19454   3.913   4.411   2.779 -0.3619 -0.3204  0.4162
  866MOL0     H19455   3.990   4.259   2.595 -1.8167 -1.8136 -2.8269
  866MOL0     H19456   3.878   4.313   2.485  4.3960 -0.6953 -3.0044
  866MOL0     H19457   4.140   4.508   2.707 -1.4474  0.0557 -0.4035
  866MOL0     H19458   4.353   4.702   2.441 -1.2801 -1.5030 -2.2737
  866MOL0     H19459   4.395   4.600   2.588 -0.4966  0.1047  1.2845
  866MOL0     H19460   4.230   4.849   2.587  1.5828 -0.2714 -0.3271
  866MOL0     H19461   4.241   4.753   2.727 -2.4562  1.4052 -1.2690
  866MOL0     H19462   4.405   4.922   2.753 -0.6504  1.1742 -0.5220
  866MOL0     H19463   4.479   4.774   2.761 -0.5708  0.9052  0.9620
  866MOL0     H19464   4.564   4.783   2.524 -2.0585 -1.4482  0.5855
  866MOL0     H19465   4.486   4.946   2.518 -1.3515  1.6982  2.1692
  866MOL0     H19466   4.744   4.856   2.422  2.0195 -0.8076 -1.1758
  866MOL0     H19467   4.899   4.956   2.175 -0.8125  0.6203  0.6633
  866MOL0     H19468   4.933   4.826   2.293  1.5718  0.0909  0.1935
  866MOL0     H19469   5.055   4.946   2.271  0.3132 -1.1324  1.7771
  866MOL0     H19470   5.083   5.186   1.997  1.1893 -1.1965 -1.2770
  866MOL0     H19471   5.250   5.295   1.844 -2.5223 -0.2206  0.0900
  866MOL0     H19472   5.578   5.580   1.873 -0.7986  1.4793  1.2997
  866MOL0     H19473   5.531   5.576   2.036 -2.9500  1.1878 -1.3674
  866MOL0     H19474   5.666   5.384   2.085 -1.8924  0.4347 -0.1511
  866MOL0     H19475   5.695   5.345   1.914  0.8543 -1.7412  1.2475
  866MOL0     H19476   5.895   5.443   2.033 -1.0325  0.0296  0.9992
  866MOL0     H19477   5.809   5.594   2.068  0.3959 -0.1399  0.3680
  866MOL0     H19478   5.792   5.629   1.822 -0.2073 -0.2001  0.8725
  866MOL0     H19479   5.882   5.486   1.787 -1.8885 -2.1927  1.2013
  866MOL0     H19480   6.000   5.710   1.958 -0.0379 -3.0969  3.0875
  866MOL0     H19481   6.077   5.552   1.921 -0.0120 -0.3138  0.3423
  866MOL0     H19482   5.989   5.736   1.693  1.3514 -0.0399 -1.3213
  866MOL0     H19483   6.108   5.608   1.691 -3.1859 -1.8603 -0.9958
  866MOL0     H19484   6.276   5.725   1.797  0.7377  2.7049  1.2482
  866MOL0     H19485   6.166   5.836   1.879 -2.4734 -2.0864  1.0432
  866MOL0     H19486   6.110   5.938   1.648  0.1186  0.6008 -2.7625
  866MOL0     H19487   6.225   5.814   1.580  0.8556  0.4077  1.2169
  866MOL0     H19488   5.467   5.433   2.181 -0.3651 -0.5584  0.5705
  866MOL0     H19489   5.312   5.325   2.334  3.0588  2.1130 -0.3343
  866MOL0     H19490   4.950   5.264   2.620  2.6885 -1.7715  1.6847
  866MOL0     H19491   4.768   5.133   2.745 -0.7982 -0.1981  0.5093
  866MOL0     H19492   3.058   5.049   2.384  4.5513 -2.2641 -3.3505
  866MOL0     H19493   2.858   5.103   2.272  2.2907 -0.3398  3.0547
  866MOL0     H19494   2.514   5.254   2.043  0.5364  0.6458 -2.0939
  866MOL0     H19495   2.295   5.275   1.920 -2.1550 -1.2793 -1.2612
  866MOL0     H19496   1.919   5.097   1.892 -0.2941 -1.2573  0.0712
  866MOL0     H19497   2.006   4.952   1.935 -0.1802 -0.5605  4.0816
  866MOL0     H19498   2.070   5.059   2.148  0.6818 -1.1268 -1.7789
  866MOL0     H19499   1.903   5.041   2.123 -0.1281 -0.3732 -0.8700
  866MOL0     H19500   2.003   5.261   2.231  0.4941 -2.8350  0.2964
  866MOL0     H19501   2.073   5.303   2.076  0.7712 -1.6232  1.6482
  866MOL0     H19502   1.846   5.332   1.989  1.4928  0.7691 -0.1787
  866MOL0     H19503   1.870   5.429   2.141 -3.7650  0.8209  0.1328
  866MOL0     H19504   1.562   5.136   2.232 -2.3124  2.6971  0.8465
  866MOL0     H19505   2.223   4.869   1.931 -2.1771  2.3336 -2.8228
  866MOL0     H19506   2.563   4.754   1.986  1.1544  1.7274  1.0623
  866MOL0     H19507   2.453   4.745   2.126 -0.2473 -0.9423 -0.4901
  866MOL0     H19508   2.397   4.702   1.968 -0.4457  0.3197  1.3289
  867MOL0     O19509   9.044   9.876   6.213 -0.1332 -0.5133 -0.2256
  867MOL0     C19510   9.068   9.763   6.176  0.2478  0.1771  0.4574
  867MOL0     O19511   9.178   9.695   6.208 -0.3924 -0.1376 -0.7977
  867MOL0     C19512   9.259   9.741   6.311 -0.3973  0.7290 -0.1855
  867MOL0     C19513   9.236   9.707   6.442  0.4166  0.0586 -0.7148
  867MOL0     C19514   9.319   9.747   6.545 -0.5923 -0.2669  0.3583
  867MOL0     C19515   9.425   9.834   6.514 -0.9982  0.4396  0.3408
  867MOL0     O19516   9.517   9.871   6.611  0.4792  0.1523 -0.0813
  867MOL0     C19517   9.602   9.762   6.646  0.5627  0.0303 -0.0862
  867MOL0     C19518   9.748   9.803   6.668  0.3545 -0.5465  0.2492
  867MOL0     C19519   9.817   9.853   6.535 -0.3859 -0.3788 -0.0080
  867MOL0     C19520   9.973   9.835   6.534 -0.5803  0.4675  0.0396
  867MOL0     C19521  10.042   9.834   6.400 -1.0018  0.0150 -0.1072
  867MOL0     C19522  10.001   9.725   6.303  0.5299 -0.1713 -0.9065
  867MOL0     C19523  10.080   9.731   6.173 -0.5358  0.0481  0.3665
  867MOL0     C19524  10.067   9.605   6.087 -0.1777 -0.1566 -0.9121
  867MOL0     N19525   9.937   9.583   6.031  1.1459  0.0368  0.4585
  867MOL0     C19526   9.832   9.541   6.098  0.4981 -0.1435  0.0406
  867MOL0     C19527   9.727   9.550   6.015  0.7710 -0.1015  1.0003
  867MOL0     C19528   9.586   9.505   6.026  0.5284  0.8273  0.5870
  867MOL0     C19529   9.558   9.351   6.060 -0.9931  0.1762  0.2645
  867MOL0     C19530   9.619   9.260   5.955  0.3469  0.9339  0.0477
  867MOL0     C19531   9.740   9.181   6.010 -0.0129 -0.2267  0.7268
  867MOL0     O19532   9.710   9.103   6.136 -0.2011  0.0919  0.1379
  867MOL0     C19533   9.793   9.005   6.171 -0.7155 -0.6994 -0.5627
  867MOL0     C19534   9.747   8.886   6.220  0.3384 -0.2017 -0.1411
  867MOL0     C19535   9.831   8.783   6.263 -0.1970 -0.0659 -0.4497
  867MOL0     C19536   9.764   8.665   6.323  0.5437 -0.3932  0.0859
  867MOL0     C19537   9.977   8.802   6.257  0.2724 -0.0272 -1.3730
  867MOL0     C19538  10.077   8.710   6.312 -0.7273 -1.0458  0.7677
  867MOL0     O19539  10.033   8.587   6.356 -0.9771  0.7170 -0.7847
  867MOL0     C19540  10.111   8.513   6.452  0.4168 -0.2386  0.4091
  867MOL0     C19541  10.241   8.533   6.500 -0.3729 -0.3072  0.4141
  867MOL0     C19542  10.311   8.437   6.569  0.1224  0.5364 -1.1929
  867MOL0     C19543  10.244   8.314   6.603 -1.0198  0.1992  0.5615
  867MOL0     O19544  10.311   8.211   6.667 -0.0613  0.4586  0.2292
  867MOL0     C19545  10.299   8.087   6.592  0.9825  0.1259  1.0769
  867MOL0     C19546  10.420   7.992   6.618 -0.7453  0.1118  0.5459
  867MOL0     C19547  10.545   8.034   6.548  0.1546  0.4915 -0.5075
  867MOL0     C19548  10.679   7.972   6.602  0.0222  0.4309  0.6548
  867MOL0     C19549  10.803   8.045   6.545  0.3139  0.8206 -0.7688
  867MOL0     C19550  10.804   8.036   6.386  0.0581 -0.1786 -0.3235
  867MOL0     C19551  10.949   8.033   6.334  0.6453 -0.1424 -0.2147
  867MOL0     C19552  10.968   8.058   6.189 -0.5996 -0.3961  0.4022
  867MOL0    Cl19553  11.014   7.910   6.106  0.0929 -0.0872 -0.4291
  867MOL0     C19554  10.111   8.297   6.569  0.1609 -0.0560 -0.4315
  867MOL0     C19555  10.055   8.391   6.490  0.4102 -0.6754  0.0647
  867MOL0     O19556  10.193   8.745   6.301  0.1711  0.6078 -0.8696
  867MOL0     C19557  10.016   8.923   6.208 -0.2362  0.4437  0.7362
  867MOL0     C19558   9.928   9.022   6.163 -0.0955 -1.5718  0.1288
  867MOL0     N19559   9.771   9.623   5.905  0.3828  0.5812  0.6573
  867MOL0     N19560   9.897   9.645   5.917  0.0149 -0.0941  0.9498
  867MOL0     C19561   9.442   9.886   6.382  0.4069 -0.3854  0.4122
  867MOL0     C19562   9.361   9.836   6.278 -0.1360  0.3196 -0.4447
  867MOL0     C19563   8.975   9.698   6.085  0.4173  0.8749 -1.0576
  867MOL0     C19564   9.027   9.624   5.976  0.3205  0.0119  0.4498
  867MOL0     C19565   8.942   9.582   5.874  0.0950 -1.4438 -0.2051
  867MOL0     C19566   8.805   9.589   5.897  0.3558  0.4021 -0.1312
  867MOL0     O19567   8.731   9.542   5.790 -0.3095  0.0827 -0.1209
  867MOL0     C19568   8.593   9.548   5.813  0.3885  0.5433  0.2544
  867MOL0     C19569   8.525   9.484   5.695  0.3166 -0.2563 -0.0783
  867MOL0     C19570   8.557   9.523   5.553 -0.2321  0.7668 -0.2685
  867MOL0     C19571   8.518   9.669   5.509  0.1374  0.4288  0.2948
  867MOL0     C19572   8.560   9.772   5.595  0.0575  0.4086  0.9942
  867MOL0     C19573   8.594   9.866   5.664 -0.7135  0.0923 -0.7901
  867MOL0     C19574   8.749   9.635   6.019  0.8739  0.5131  0.3202
  867MOL0     C19575   8.837   9.701   6.109  0.9777 -0.3667 -0.3146
  867MOL0     C19576   8.780   9.770   6.230 -0.4259  0.0438 -0.1776
  867MOL0     H19577   9.150   9.643   6.454 -1.5618  1.9592 -3.2874
  867MOL0     H19578   9.295   9.720   6.647 -0.8354  0.6912  0.5627
  867MOL0     H19579   9.601   9.682   6.572  3.7097 -0.4037  0.2039
  867MOL0     H19580   9.557   9.719   6.736  0.4897  1.4831  0.6048
  867MOL0     H19581   9.762   9.876   6.748 -0.0252 -2.5506  2.2586
  867MOL0     H19582   9.780   9.704   6.703 -0.7569 -1.4616 -1.1811
  867MOL0     H19583   9.775   9.794   6.453  0.1885 -2.9423  1.4257
  867MOL0     H19584   9.795   9.959   6.522 -2.7855 -0.6447  1.2781
  867MOL0     H19585  10.025   9.910   6.595  0.4834 -1.5557  1.7747
  867MOL0     H19586   9.997   9.735   6.573  1.0187  0.7724 -0.1062
  867MOL0     H19587  10.151   9.820   6.408 -0.5576  3.0771  0.8856
  867MOL0     H19588  10.024   9.933   6.356  2.8623  0.7099 -0.5266
  867MOL0     H19589  10.027   9.627   6.343  2.2000  0.6383  0.0858
  867MOL0     H19590   9.898   9.723   6.265  0.3893 -1.5076 -0.5064
  867MOL0     H19591  10.188   9.726   6.191 -0.2757 -1.3601 -1.2561
  867MOL0     H19592  10.046   9.821   6.121 -0.4711 -0.7135 -1.0569
  867MOL0     H19593  10.125   9.624   5.996  1.4316  1.6201  0.3962
  867MOL0     H19594  10.090   9.507   6.131  1.6950  1.7476  2.7880
  867MOL0     H19595   9.841   9.475   6.184  1.2062  1.4409  1.2457
  867MOL0     H19596   9.544   9.521   5.926  2.4598 -2.1450 -0.8879
  867MOL0     H19597   9.527   9.562   6.097 -0.6062 -0.3669  0.6292
  867MOL0     H19598   9.594   9.318   6.158  2.4162 -2.1180 -1.5487
  867MOL0     H19599   9.452   9.333   6.080 -0.6343  0.1458  2.3198
  867MOL0     H19600   9.546   9.195   5.906 -1.1413  1.7838  1.0733
  867MOL0     H19601   9.666   9.317   5.874  1.6078 -0.2848 -0.1130
  867MOL0     H19602   9.785   9.128   5.926  0.4165 -1.2596  1.5855
  867MOL0     H19603   9.823   9.249   6.031  0.9311 -1.8345  2.4591
  867MOL0     H19604   9.640   8.866   6.223  0.2227  0.3879 -0.1761
  867MOL0     H19605   9.748   8.685   6.430  2.9044 -0.1246  0.4532
  867MOL0     H19606   9.820   8.572   6.310 -0.4559 -0.8307 -1.2257
  867MOL0     H19607   9.667   8.663   6.272  1.1061  1.7562 -1.2379
  867MOL0     H19608  10.292   8.629   6.492 -1.2616  0.3708  2.1894
  867MOL0     H19609  10.415   8.449   6.596  0.7476 -0.2884 -3.0418
  867MOL0     H19610  10.205   8.036   6.615  0.3432  0.7735  0.0125
  867MOL0     H19611  10.303   8.112   6.485 -0.0170  1.0630  1.2355
  867MOL0     H19612  10.436   7.999   6.726  2.1085 -0.6871  0.2540
  867MOL0     H19613  10.399   7.889   6.586  0.4529  0.0938 -0.2514
  867MOL0     H19614  10.550   8.140   6.572  2.7315  0.5249 -0.8913
  867MOL0     H19615  10.547   8.022   6.439  2.1058  0.7240 -0.5289
  867MOL0     H19616  10.697   7.869   6.570 -0.7616  0.3059  0.5908
  867MOL0     H19617  10.674   7.970   6.712 -2.9511  3.9256  0.7683
  867MOL0     H19618  10.799   8.146   6.586 -1.2798  0.6551 -0.4406
  867MOL0     H19619  10.891   7.991   6.581  1.6298  3.0032 -0.5504
  867MOL0     H19620  10.753   8.121   6.339 -1.3750 -0.7894  0.0493
  867MOL0     H19621  10.754   7.944   6.353  0.5283 -1.2265  1.7638
  867MOL0     H19622  10.984   7.930   6.347  0.5310 -0.0243  1.2281
  867MOL0     H19623  11.002   8.109   6.394 -3.5482  3.3089 -0.3545
  867MOL0     H19624  11.053   8.125   6.173 -0.4288 -0.6712  0.1279
  867MOL0     H19625  10.891   8.122   6.145  1.1569  0.9580 -0.8781
  867MOL0     H19626  10.051   8.209   6.592 -2.4941  1.8738  0.4970
  867MOL0     H19627   9.952   8.369   6.462  0.2706  1.0806 -0.9404
  867MOL0     H19628  10.117   8.933   6.171 -0.7417  1.6702 -0.4307
  867MOL0     H19629   9.965   9.115   6.120  0.9793 -3.0644 -2.4039
  867MOL0     H19630   9.519   9.961   6.363  0.5559 -0.2121  1.6011
  867MOL0     H19631   9.382   9.853   6.173 -1.1293 -2.4113 -1.1848
  867MOL0     H19632   9.134   9.611   5.965  0.5118  0.0294  2.0885
  867MOL0     H19633   8.977   9.537   5.781 -2.0335 -0.1290 -1.7424
  867MOL0     H19634   8.572   9.486   5.901 -0.0349  1.4404  0.7956
  867MOL0     H19635   8.545   9.644   5.834  0.2072  0.5735 -0.2755
  867MOL0     H19636   8.418   9.503   5.696  0.0823 -1.2629 -1.8889
  867MOL0     H19637   8.547   9.377   5.692  3.8095  0.2413 -5.0003
  867MOL0     H19638   8.667   9.525   5.557 -0.2880  1.8233  2.5351
  867MOL0     H19639   8.532   9.444   5.481 -0.5674  3.1612 -2.9825
  867MOL0     H19640   8.409   9.675   5.511  0.1869  1.3585  1.1862
  867MOL0     H19641   8.566   9.692   5.414  1.6571 -2.9907  0.0955
  867MOL0     H19642   8.633   9.940   5.730 -0.2477 -1.3375  0.6110
  867MOL0     H19643   8.644   9.619   6.040  0.8405 -2.3379 -1.5407
  867MOL0     H19644   8.810   9.875   6.231  1.8728 -0.5635 -0.3091
  867MOL0     H19645   8.672   9.762   6.243 -0.4324  1.4603  0.8950
  867MOL0     H19646   8.819   9.722   6.321 -0.5303 -0.9328 -0.6394
  868MOL0     O19647   2.651   0.149  10.733 -0.4466  0.6459 -0.8333
  868MOL0     C19648   2.754   0.206  10.734  0.0324 -0.0351 -0.5852
  868MOL0     O19649   2.778   0.316  10.801 -0.3290  0.0594  0.0157
  868MOL0     C19650   2.684   0.375  10.879 -0.7168 -0.9422 -0.1154
  868MOL0     C19651   2.645   0.321  11.002 -0.2306  0.0190 -0.0349
  868MOL0     C19652   2.543   0.374  11.081  0.2985 -0.8356  0.1861
  868MOL0     C19653   2.470   0.491  11.037 -0.2427 -0.2071  0.3839
  868MOL0     O19654   2.360   0.545  11.111  0.6044  0.1767  0.5012
  868MOL0     C19655   2.399   0.562  11.244 -0.4658  0.1000  0.0803
  868MOL0     C19656   2.282   0.621  11.329  0.2789  0.8181  0.1787
  868MOL0     C19657   2.287   0.589  11.487  0.7083  0.2558 -0.1333
  868MOL0     C19658   2.377   0.669  11.572 -0.5464  0.1719  0.3054
  868MOL0     C19659   2.518   0.614  11.569 -0.3496 -0.1013 -0.1416
  868MOL0     C19660   2.582   0.611  11.701 -0.5968 -0.7738 -0.0453
  868MOL0     C19661   2.709   0.530  11.710  0.3052  0.6402  0.0882
  868MOL0     C19662   2.767   0.509  11.850 -1.1869  0.0718 -0.0514
  868MOL0     N19663   2.888   0.417  11.840  0.7022 -0.6462  0.0613
  868MOL0     C19664   2.872   0.280  11.845  0.2223 -1.2302 -0.2697
  868MOL0     C19665   3.001   0.232  11.821  1.0745  0.0756 -0.0852
  868MOL0     C19666   3.033   0.094  11.796 -0.1470 -0.2083 -0.2487
  868MOL0     C19667   3.169   0.069  11.739 -0.0040 -0.3052 -1.2388
  868MOL0     C19668   3.184   0.102  11.597  0.1007  0.2541  0.7925
  868MOL0     C19669   3.328   0.059  11.554 -0.1605  0.1525  0.1021
  868MOL0     O19670   3.418   0.156  11.611  0.4112 -0.5974  0.4076
  868MOL0     C19671   3.550   0.173  11.577  0.0285  0.3963 -0.4304
  868MOL0     C19672   3.621   0.087  11.493 -0.7031 -0.2496  1.3010
  868MOL0     C19673   3.763   0.113  11.480 -0.0331 -1.0080  0.1976
  868MOL0     C19674   3.831   0.035  11.369 -0.6961 -0.0201  0.4418
  868MOL0     C19675   3.829   0.217  11.555  0.7005  0.5613 -0.0744
  868MOL0     C19676   3.968   0.256  11.536  0.0200  0.8939 -0.0086
  868MOL0     O19677   4.028   0.319  11.642  0.4647 -0.0144 -0.2156
  868MOL0     C19678   4.126   0.403  11.605 -0.2278 -0.5688  0.1398
  868MOL0     C19679   4.103   0.527  11.551 -0.2492  0.0657 -0.9880
  868MOL0     C19680   4.206   0.614  11.523 -0.2425  0.0182  1.0443
  868MOL0     C19681   4.343   0.565  11.524  0.9055 -0.1778  0.4027
  868MOL0     O19682   4.451   0.644  11.486  0.6389  0.6025  0.1280
  868MOL0     C19683   4.446   0.699  11.360  0.4106  0.1984 -0.3886
  868MOL0     C19684   4.565   0.792  11.329  0.2782 -0.0703 -0.7478
  868MOL0     C19685   4.702   0.730  11.323  0.1505  0.2073 -0.7567
  868MOL0     C19686   4.814   0.825  11.282 -0.4677 -1.2435 -0.2692
  868MOL0     C19687   4.851   0.918  11.396 -1.1156 -0.5846 -1.1042
  868MOL0     C19688   4.994   0.971  11.368  0.5057 -0.1074  0.6100
  868MOL0     C19689   5.034   1.082  11.463 -0.9769  0.3198 -0.0938
  868MOL0     C19690   5.181   1.117  11.427 -0.3703 -1.0483 -1.0413
  868MOL0    Cl19691   5.171   1.201  11.275  0.0674 -0.1595 -0.4619
  868MOL0     C19692   4.365   0.444  11.587 -0.1297  0.9918  0.5573
  868MOL0     C19693   4.255   0.361  11.625 -0.0557  0.6284  0.5049
  868MOL0     O19694   4.011   0.249  11.420  0.5512 -0.1242 -0.8596
  868MOL0     C19695   3.753   0.291  11.638 -0.2444 -0.2335  0.8703
  868MOL0     C19696   3.614   0.273  11.651 -1.2203  0.6501 -0.7090
  868MOL0     N19697   3.082   0.344  11.809 -0.0316  0.2506 -0.2372
  868MOL0     N19698   3.015   0.452  11.814  0.1257  0.4111 -0.7430
  868MOL0     C19699   2.511   0.544  10.915  0.5750  0.0850 -0.1312
  868MOL0     C19700   2.613   0.488  10.837 -0.0266 -0.6031  0.0594
  868MOL0     C19701   2.862   0.145  10.644 -0.1102  0.3175  0.1817
  868MOL0     C19702   2.971   0.228  10.610  0.0874  0.3826 -0.6988
  868MOL0     C19703   3.070   0.187  10.524 -0.2836 -0.6518 -0.1247
  868MOL0     C19704   3.073   0.065  10.474 -0.4824  0.5581  0.1394
  868MOL0     O19705   3.172   0.041  10.383 -0.3314  0.6455  0.0891
  868MOL0     C19706   3.202  -0.090  10.332  0.1085 -0.5816 -0.3511
  868MOL0     C19707   3.326  -0.085  10.255  0.8349 -0.5540  0.2679
  868MOL0     C19708   3.313   0.020  10.142  0.2026 -0.1344  0.1122
  868MOL0     C19709   3.453   0.050  10.090  0.1958  0.3008 -0.2107
  868MOL0     C19710   3.516  -0.044  10.002  0.4758  0.9277 -0.0695
  868MOL0     C19711   3.589  -0.127   9.943 -0.8535  0.1761  0.1888
  868MOL0     C19712   2.974  -0.035  10.518 -0.6897  0.0705 -0.5332
  868MOL0     C19713   2.869   0.012  10.600 -0.3793  0.0195  0.3304
  868MOL0     C19714   2.769  -0.093  10.638 -0.0688 -0.4020  0.3604
  868MOL0     H19715   2.689   0.226  11.031 -2.3193 -1.0023 -0.0092
  868MOL0     H19716   2.514   0.316  11.169 -0.0783  0.5478  1.0052
  868MOL0     H19717   2.465   0.649  11.242  1.5624 -1.3928  0.2452
  868MOL0     H19718   2.437   0.478  11.302 -1.0690  1.6827  2.9292
  868MOL0     H19719   2.276   0.729  11.314 -1.0636  0.6266 -0.8749
  868MOL0     H19720   2.188   0.577  11.293  0.4448  1.9705 -1.7745
  868MOL0     H19721   2.186   0.608  11.525  1.0313  0.0725  0.8267
  868MOL0     H19722   2.301   0.481  11.501  2.6519  0.5193  0.2226
  868MOL0     H19723   2.375   0.776  11.549  1.5989  0.3152  0.5491
  868MOL0     H19724   2.338   0.667  11.675  2.0316 -0.1869  1.3541
  868MOL0     H19725   2.580   0.680  11.509  0.3312  1.8188  2.4989
  868MOL0     H19726   2.526   0.515  11.523  4.5309 -0.3023  0.6473
  868MOL0     H19727   2.610   0.713  11.731 -1.2942  0.0183 -1.9506
  868MOL0     H19728   2.506   0.571  11.768  0.7065 -1.1337  1.2824
  868MOL0     H19729   2.784   0.562  11.637 -0.4416 -1.0846 -1.5343
  868MOL0     H19730   2.683   0.435  11.664 -1.0418  1.6083 -1.2707
  868MOL0     H19731   2.802   0.607  11.884  0.2367 -0.4002 -0.0872
  868MOL0     H19732   2.701   0.456  11.920 -0.5430 -0.6044  0.0490
  868MOL0     H19733   2.775   0.233  11.854 -1.1038  1.5287  1.4563
  868MOL0     H19734   2.960   0.046  11.730  0.6178 -1.7221 -0.0544
  868MOL0     H19735   3.026   0.031  11.886  0.1493 -0.0828 -0.1358
  868MOL0     H19736   3.245   0.109  11.806 -1.4101  2.5547 -1.1660
  868MOL0     H19737   3.163  -0.040  11.749 -0.2815 -0.0729  2.7209
  868MOL0     H19738   3.113   0.050  11.532  2.6690 -0.7812 -1.3685
  868MOL0     H19739   3.179   0.211  11.584 -0.1877  0.2286  0.6774
  868MOL0     H19740   3.364  -0.035  11.597 -0.8484 -0.2273 -0.1400
  868MOL0     H19741   3.332   0.046  11.446 -2.1752 -2.7569  0.2330
  868MOL0     H19742   3.571   0.013  11.431 -1.1499  0.6035  0.6325
  868MOL0     H19743   3.876   0.093  11.288  2.5502 -0.6003  1.7030
  868MOL0     H19744   3.752  -0.021  11.317 -0.0298  0.3961 -1.0833
  868MOL0     H19745   3.905  -0.036  11.404 -0.6488 -1.8950 -2.9958
  868MOL0     H19746   4.005   0.572  11.548  0.9255  2.8801 -0.3112
  868MOL0     H19747   4.180   0.716  11.497 -2.4090 -0.9065 -0.6941
  868MOL0     H19748   4.426   0.620  11.287 -1.5335  1.1879 -0.9892
  868MOL0     H19749   4.361   0.767  11.367  1.1709  0.9873  3.0428
  868MOL0     H19750   4.543   0.852  11.240 -0.4929  1.3994  0.3824
  868MOL0     H19751   4.569   0.870  11.406 -0.3882 -1.2363  0.5140
  868MOL0     H19752   4.691   0.646  11.254 -1.8378 -0.0917 -0.1157
  868MOL0     H19753   4.728   0.697  11.424  0.3911 -0.5677 -1.0664
  868MOL0     H19754   4.789   0.881  11.192  0.5490 -0.8627 -0.3271
  868MOL0     H19755   4.906   0.772  11.257 -0.8714 -2.5445  0.8199
  868MOL0     H19756   4.780   1.000  11.401 -0.4646  0.0262 -1.6784
  868MOL0     H19757   4.853   0.878  11.498 -0.8486  1.3469 -0.3062
  868MOL0     H19758   4.992   1.008  11.265  1.8525 -0.4305  0.4367
  868MOL0     H19759   5.065   0.888  11.369  0.6825 -0.0703 -2.0811
  868MOL0     H19760   5.031   1.047  11.566  2.0638 -2.8024 -0.9091
  868MOL0     H19761   4.973   1.173  11.452 -0.1470  0.8121 -0.7481
  868MOL0     H19762   5.247   1.030  11.423 -0.7328 -1.4122  0.4769
  868MOL0     H19763   5.214   1.196  11.495 -0.7600  1.5910 -3.6964
  868MOL0     H19764   4.467   0.408  11.591 -0.5852 -0.3238  0.8149
  868MOL0     H19765   4.267   0.267  11.677 -1.0146 -0.9510 -1.9246
  868MOL0     H19766   3.800   0.365  11.703  0.0440 -1.4423  2.0821
  868MOL0     H19767   3.555   0.333  11.720  0.8863  2.3078 -0.2605
  868MOL0     H19768   2.463   0.627  10.863  0.6273 -1.8202 -3.5413
  868MOL0     H19769   2.635   0.527  10.738 -0.4104  0.3777  0.3575
  868MOL0     H19770   2.986   0.325  10.657  1.6445 -1.1432  2.2712
  868MOL0     H19771   3.141   0.256  10.478 -0.9513 -1.0537 -1.8568
  868MOL0     H19772   3.220  -0.150  10.421 -1.4823  0.2538  0.5882
  868MOL0     H19773   3.114  -0.135  10.286  0.1071 -1.2504  0.3009
  868MOL0     H19774   3.350  -0.183  10.211  0.6729 -0.9987  1.1383
  868MOL0     H19775   3.413  -0.057  10.316  1.0157 -0.3360 -0.0888
  868MOL0     H19776   3.242  -0.004  10.063  0.8388 -1.4975 -0.0672
  868MOL0     H19777   3.282   0.108  10.200 -3.3175 -2.5358  2.2300
  868MOL0     H19778   3.521   0.096  10.163  1.3442 -0.5721 -0.6987
  868MOL0     H19779   3.447   0.131  10.016  1.6794  1.5763  0.9751
  868MOL0     H19780   3.625  -0.204   9.878 -1.5874  2.1371 -2.7258
  868MOL0     H19781   2.984  -0.139  10.485  0.6278  0.4830 -1.5187
  868MOL0     H19782   2.678  -0.072  10.582 -0.3176  2.3091  1.6374
  868MOL0     H19783   2.801  -0.195  10.614 -1.5594 -0.6185 -0.8172
  868MOL0     H19784   2.746  -0.086  10.745 -4.2306  0.3124 -0.4401
  869MOL0     O19785   2.389   9.684   9.187 -0.1883 -0.2109 -0.1305
  869MOL0     C19786   2.351   9.577   9.230 -0.2188 -0.4806 -0.1685
  869MOL0     O19787   2.389   9.453   9.177  0.1234  0.1064  0.5634
  869MOL0     C19788   2.466   9.453   9.068  0.8771 -0.1284 -0.4783
  869MOL0     C19789   2.404   9.416   8.945  0.0926 -0.2336 -0.2214
  869MOL0     C19790   2.481   9.392   8.834 -0.4194  0.8896 -0.3538
  869MOL0     C19791   2.619   9.408   8.840  0.1012 -0.1364  0.5373
  869MOL0     O19792   2.676   9.400   8.720  0.4127  0.0205 -0.0666
  869MOL0     C19793   2.822   9.411   8.704 -0.0512  0.5472 -0.4255
  869MOL0     C19794   2.863   9.266   8.715 -0.0880  0.0629  0.6557
  869MOL0     C19795   2.996   9.259   8.631  0.7023  0.3221 -0.0229
  869MOL0     C19796   3.062   9.126   8.630  0.1904  0.7394  0.6416
  869MOL0     C19797   3.175   9.122   8.524 -0.0660  0.1061 -0.2778
  869MOL0     C19798   3.228   8.977   8.504  0.6031  0.2128  0.5478
  869MOL0     C19799   3.122   8.886   8.433 -0.0217  0.2703  0.0049
  869MOL0     C19800   3.192   8.761   8.376  0.5784 -0.2045  0.6581
  869MOL0     N19801   3.211   8.783   8.228 -0.0949  0.1182 -0.1321
  869MOL0     C19802   3.115   8.773   8.129  0.0887 -0.1347  1.0571
  869MOL0     C19803   3.180   8.806   8.015 -0.0985 -0.5016 -0.5668
  869MOL0     C19804   3.114   8.797   7.878  0.2335  0.5022 -0.8611
  869MOL0     C19805   3.200   8.742   7.773  0.5647 -0.2586  0.2308
  869MOL0     C19806   3.230   8.603   7.807  0.5802  0.3158 -0.6455
  869MOL0     C19807   3.322   8.533   7.705  0.8572  0.5691 -0.7587
  869MOL0     O19808   3.444   8.607   7.693 -0.3033 -0.1636  0.1596
  869MOL0     C19809   3.529   8.567   7.590  0.3616  0.8607  0.1945
  869MOL0     C19810   3.513   8.459   7.501  0.8252  0.8783  0.4175
  869MOL0     C19811   3.626   8.419   7.421  0.3236 -0.5739 -0.0440
  869MOL0     C19812   3.591   8.290   7.338 -0.7498  0.0941  0.0205
  869MOL0     C19813   3.749   8.486   7.428 -0.1632 -0.4159  0.0769
  869MOL0     C19814   3.872   8.438   7.352  0.6189  0.3466  0.2811
  869MOL0     O19815   3.962   8.537   7.333 -0.6476  0.4030  0.0135
  869MOL0     C19816   4.070   8.518   7.251 -0.2805  0.8931  1.0009
  869MOL0     C19817   4.188   8.462   7.303 -0.4180 -0.1043 -1.2244
  869MOL0     C19818   4.297   8.448   7.215  0.0535 -0.6190 -0.6457
  869MOL0     C19819   4.289   8.495   7.079 -0.0911 -0.6520 -0.1977
  869MOL0     O19820   4.406   8.487   7.003 -0.0728 -0.2680 -0.3471
  869MOL0     C19821   4.413   8.546   6.876  0.1890 -0.0310  0.0183
  869MOL0     C19822   4.447   8.696   6.892  0.5026 -0.7025  1.1776
  869MOL0     C19823   4.434   8.786   6.766 -0.5854 -0.1403 -1.1259
  869MOL0     C19824   4.472   8.719   6.638  0.2985  0.1055 -0.5015
  869MOL0     C19825   4.476   8.817   6.518  0.2303 -0.9022  0.0730
  869MOL0     C19826   4.557   8.753   6.397  0.4016 -0.6940  0.4424
  869MOL0     C19827   4.548   8.855   6.278  0.4778  0.5711  0.2480
  869MOL0     C19828   4.631   8.987   6.297  0.4477  0.0657 -1.7877
  869MOL0    Cl19829   4.807   8.960   6.275  0.5703 -0.0486  0.0692
  869MOL0     C19830   4.175   8.547   7.035 -0.8152 -0.1618 -0.9213
  869MOL0     C19831   4.060   8.553   7.116  0.1958  0.2769  0.1148
  869MOL0     O19832   3.886   8.326   7.308 -0.5665 -0.7245  1.2157
  869MOL0     C19833   3.752   8.606   7.501 -0.9008 -0.4503 -0.0470
  869MOL0     C19834   3.649   8.640   7.592 -0.8493 -0.3745  0.9968
  869MOL0     N19835   3.309   8.841   8.038 -0.2204  0.6319 -0.1047
  869MOL0     N19836   3.333   8.806   8.157  0.0887  0.7841  0.3393
  869MOL0     C19837   2.677   9.426   8.963  0.5267  0.7530  0.1208
  869MOL0     C19838   2.602   9.456   9.079 -0.0578  0.0797 -0.3840
  869MOL0     C19839   2.257   9.583   9.347  0.4008  0.1699  0.1903
  869MOL0     C19840   2.260   9.687   9.434  0.5178 -0.8314 -0.3485
  869MOL0     C19841   2.169   9.699   9.539  0.3451  0.5585  0.4823
  869MOL0     C19842   2.074   9.604   9.563 -0.3456  0.0409  0.8711
  869MOL0     O19843   1.989   9.627   9.666 -0.1552  0.2102 -0.6900
  869MOL0     C19844   1.961   9.513   9.753  0.1259 -0.3142  0.9334
  869MOL0     C19845   2.090   9.481   9.829  0.4555  0.3272 -0.0935
  869MOL0     C19846   2.139   9.601   9.911  0.2986  0.0522  0.9385
  869MOL0     C19847   2.275   9.564   9.983  0.1103  0.0314  0.5212
  869MOL0     C19848   2.334   9.681  10.057  0.1323  0.3289 -0.8902
  869MOL0     C19849   2.410   9.754  10.120 -0.4545 -0.0865  0.6959
  869MOL0     C19850   2.065   9.500   9.471  0.1320  0.3913  0.0591
  869MOL0     C19851   2.157   9.484   9.369 -0.1811  0.3491  0.3763
  869MOL0     C19852   2.117   9.365   9.286  0.6012  0.4797 -1.2925
  869MOL0     H19853   2.298   9.396   8.950  0.5959 -3.5023 -0.3571
  869MOL0     H19854   2.436   9.354   8.743  0.2679 -3.6236  0.9535
  869MOL0     H19855   2.869   9.476   8.778 -0.4551  0.1813  0.1647
  869MOL0     H19856   2.834   9.453   8.604 -2.0060  2.3965  0.0417
  869MOL0     H19857   2.879   9.233   8.818 -1.7117  0.9016  1.2255
  869MOL0     H19858   2.792   9.187   8.688  1.9918 -1.5347 -0.3263
  869MOL0     H19859   2.963   9.269   8.527  2.7101 -1.5029 -0.9051
  869MOL0     H19860   3.063   9.341   8.659 -1.0262  1.1950  1.7664
  869MOL0     H19861   3.112   9.117   8.727 -1.3349  1.8695  1.5955
  869MOL0     H19862   2.988   9.047   8.617  1.4213 -0.1507 -1.3969
  869MOL0     H19863   3.259   9.176   8.569 -0.0990 -0.6606  0.7610
  869MOL0     H19864   3.150   9.175   8.432  0.4791  0.7184 -0.0810
  869MOL0     H19865   3.299   8.992   8.422 -0.3571  2.4489  0.0497
  869MOL0     H19866   3.279   8.930   8.588  0.8987 -2.0991 -0.8215
  869MOL0     H19867   3.071   8.941   8.354 -3.1612 -2.1500  0.1038
  869MOL0     H19868   3.046   8.846   8.501 -1.5138 -0.7345 -2.1341
  869MOL0     H19869   3.290   8.752   8.424  0.8851  0.4344  0.1641
  869MOL0     H19870   3.131   8.670   8.383 -0.4530  0.1914 -2.0166
  869MOL0     H19871   3.008   8.760   8.136  0.1043 -1.8772 -0.9356
  869MOL0     H19872   3.079   8.895   7.842 -2.6737 -0.7588 -1.7603
  869MOL0     H19873   3.023   8.737   7.883  1.6424 -1.7882 -1.2799
  869MOL0     H19874   3.142   8.752   7.681 -0.8455 -0.9546  1.0078
  869MOL0     H19875   3.294   8.796   7.760 -0.9617  2.3593 -0.6368
  869MOL0     H19876   3.285   8.596   7.901  0.3081 -0.1537 -0.5160
  869MOL0     H19877   3.143   8.537   7.817  2.6982 -3.0144 -2.1677
  869MOL0     H19878   3.333   8.426   7.721  0.8512  0.9917  3.0430
  869MOL0     H19879   3.268   8.546   7.611  1.7451 -2.2154 -1.7380
  869MOL0     H19880   3.423   8.399   7.501  0.3582  1.5527 -0.6560
  869MOL0     H19881   3.664   8.266   7.260 -0.9498  2.0398 -0.8219
  869MOL0     H19882   3.496   8.319   7.293 -0.4922  0.0362 -0.5737
  869MOL0     H19883   3.582   8.197   7.395  1.4095 -0.4153 -0.3778
  869MOL0     H19884   4.201   8.445   7.409  0.1911  0.3447 -1.2224
  869MOL0     H19885   4.383   8.399   7.260  1.1638  1.6412 -0.1683
  869MOL0     H19886   4.494   8.495   6.823  0.6931 -0.4351  1.1625
  869MOL0     H19887   4.321   8.523   6.822 -0.2043  0.2555  0.5505
  869MOL0     H19888   4.377   8.725   6.971  0.4469 -1.4933  1.4253
  869MOL0     H19889   4.553   8.703   6.918  0.7058  1.6664  0.0179
  869MOL0     H19890   4.501   8.871   6.779 -3.0240  1.6264  0.8616
  869MOL0     H19891   4.333   8.829   6.758 -0.2580  0.9817  0.3763
  869MOL0     H19892   4.392   8.648   6.614 -0.8040  0.8489  0.8384
  869MOL0     H19893   4.568   8.668   6.648  0.7372  1.2453  1.7709
  869MOL0     H19894   4.374   8.849   6.498  1.4015  5.9150  2.2624
  869MOL0     H19895   4.518   8.913   6.550 -0.8220 -0.7958  1.2401
  869MOL0     H19896   4.510   8.658   6.368 -2.7576  0.7680  0.4468
  869MOL0     H19897   4.662   8.726   6.413  0.9720  0.1405 -1.5164
  869MOL0     H19898   4.441   8.872   6.263 -0.0847 -1.8119  1.0655
  869MOL0     H19899   4.581   8.814   6.183 -2.8456  0.0933 -0.8157
  869MOL0     H19900   4.616   9.036   6.394  1.6305  0.2647 -1.6944
  869MOL0     H19901   4.588   9.065   6.233  0.8864  1.7658 -0.0881
  869MOL0     H19902   4.176   8.601   6.941  1.3221  2.7262  0.5928
  869MOL0     H19903   3.964   8.597   7.094  0.3047  1.7478  2.2602
  869MOL0     H19904   3.830   8.680   7.515 -0.8993 -1.0273  4.4525
  869MOL0     H19905   3.669   8.725   7.656  0.7356  0.2395 -0.2655
  869MOL0     H19906   2.782   9.417   8.987  0.2239  0.4377  1.4788
  869MOL0     H19907   2.657   9.477   9.170 -1.4760 -1.8634  1.0257
  869MOL0     H19908   2.338   9.762   9.436 -0.6883  0.4460  1.6422
  869MOL0     H19909   2.180   9.787   9.601 -0.7491 -0.1064  1.6729
  869MOL0     H19910   1.877   9.542   9.817 -1.4029  0.4585 -1.3010
  869MOL0     H19911   1.935   9.426   9.691  0.0191 -0.8346  1.7032
  869MOL0     H19912   2.159   9.440   9.755 -0.5591 -2.8675  0.5795
  869MOL0     H19913   2.068   9.393   9.890 -1.8530  0.4594 -0.6394
  869MOL0     H19914   2.161   9.688   9.847 -3.2503  0.4238  0.0165
  869MOL0     H19915   2.058   9.642   9.972  0.4597  2.2531 -0.2287
  869MOL0     H19916   2.346   9.553   9.901  2.2134  1.8210  1.9912
  869MOL0     H19917   2.258   9.472  10.039  1.5544 -1.2850 -1.1008
  869MOL0     H19918   2.475   9.808  10.186  1.7399 -2.7740  0.9257
  869MOL0     H19919   1.985   9.428   9.484 -0.6450  0.8871 -1.6279
  869MOL0     H19920   2.210   9.331   9.241  1.4617  2.6057 -1.2382
  869MOL0     H19921   2.079   9.292   9.358  0.1224  1.6436 -0.3234
  869MOL0     H19922   2.037   9.378   9.212 -0.9468 -1.4270 -0.0468
  870MOL0     O19923   4.928   4.454  10.086  0.2663  0.4161 -0.3485
  870MOL0     C19924   4.812   4.425  10.132 -0.4010 -0.2890  0.2536
  870MOL0     O19925   4.700   4.460  10.067  0.0093  0.6584  0.6436
  870MOL0     C19926   4.711   4.499   9.932  0.6711 -0.4937 -0.4948
  870MOL0     C19927   4.793   4.609   9.898  0.3171 -0.4338 -0.7329
  870MOL0     C19928   4.796   4.647   9.760  0.5596 -0.4744 -0.3276
  870MOL0     C19929   4.717   4.591   9.662  0.3100  0.2338  0.3193
  870MOL0     O19930   4.741   4.651   9.541 -0.2421 -1.2039  0.0821
  870MOL0     C19931   4.705   4.579   9.424  0.1892  0.0869  0.1701
  870MOL0     C19932   4.746   4.663   9.311 -0.0400 -0.0512  0.0285
  870MOL0     C19933   4.895   4.674   9.304  0.0403 -0.9582  0.1188
  870MOL0     C19934   4.938   4.775   9.183  0.0993 -0.0656 -0.4714
  870MOL0     C19935   5.081   4.772   9.148 -0.4640  0.8814  0.1860
  870MOL0     C19936   5.175   4.829   9.256  0.6635  0.7387  0.5051
  870MOL0     C19937   5.325   4.790   9.254 -0.4273 -0.4580  0.0172
  870MOL0     C19938   5.405   4.874   9.143 -0.5444  0.0844 -1.1508
  870MOL0     N19939   5.547   4.833   9.148 -0.2830  0.8016 -0.1699
  870MOL0     C19940   5.618   4.751   9.068  0.2134  0.4374  0.1961
  870MOL0     C19941   5.738   4.734   9.123  0.0298 -0.0580  0.6886
  870MOL0     C19942   5.854   4.650   9.071  0.3988  0.4903  0.0033
  870MOL0     C19943   5.971   4.736   9.037 -0.0214  0.0671  0.2516
  870MOL0     C19944   6.077   4.652   8.974  0.9097 -0.6972  1.0859
  870MOL0     C19945   6.214   4.713   8.982 -0.7975 -0.2914  0.5383
  870MOL0     O19946   6.301   4.649   8.880 -0.1768 -0.8559 -0.0225
  870MOL0     C19947   6.425   4.699   8.880 -0.6024  0.7644  0.0093
  870MOL0     C19948   6.477   4.801   8.962 -0.3735  0.5826  0.0189
  870MOL0     C19949   6.608   4.854   8.953 -0.0999 -0.6849  1.0441
  870MOL0     C19950   6.644   4.973   9.038 -0.5364 -0.1380  0.1822
  870MOL0     C19951   6.698   4.799   8.851  0.0910  0.2274 -0.0561
  870MOL0     C19952   6.837   4.838   8.818 -0.0828  0.2418 -0.6178
  870MOL0     O19953   6.876   4.963   8.846 -0.1749  0.0742  0.5006
  870MOL0     C19954   7.005   5.006   8.814  0.3280  0.3263 -0.6527
  870MOL0     C19955   7.101   5.027   8.912  0.2169  0.0979 -0.3278
  870MOL0     C19956   7.230   5.078   8.883  0.1889  0.3901  0.2011
  870MOL0     C19957   7.264   5.102   8.742  0.0127  0.0870  0.3702
  870MOL0     O19958   7.380   5.159   8.702 -0.5991  0.9070  0.3539
  870MOL0     C19959   7.481   5.166   8.807 -0.7576 -0.7295 -0.9248
  870MOL0     C19960   7.604   5.233   8.750  0.3190 -0.6385  0.1868
  870MOL0     C19961   7.688   5.299   8.854 -0.2431 -0.1547  0.0575
  870MOL0     C19962   7.772   5.411   8.810 -0.2929 -1.0202 -0.5127
  870MOL0     C19963   7.825   5.499   8.931  0.4668 -0.2346 -0.5776
  870MOL0     C19964   7.983   5.505   8.938 -0.0230 -0.5038 -0.8972
  870MOL0     C19965   8.017   5.618   9.039  0.1216 -0.1888 -0.5062
  870MOL0     C19966   8.166   5.653   9.054 -0.7443 -0.0938  0.0688
  870MOL0    Cl19967   8.261   5.508   9.104 -0.0782 -0.0648  0.0418
  870MOL0     C19968   7.166   5.078   8.646  0.2454 -0.6999  0.1285
  870MOL0     C19969   7.035   5.036   8.678  1.1433 -0.4610 -0.2509
  870MOL0     O19970   6.909   4.759   8.758 -0.0291 -0.6659 -0.0836
  870MOL0     C19971   6.651   4.686   8.793  0.1048 -0.5692  0.7237
  870MOL0     C19972   6.518   4.639   8.803 -0.4489  0.2855  0.4874
  870MOL0     N19973   5.735   4.807   9.239 -1.0972 -0.3220 -0.2124
  870MOL0     N19974   5.628   4.872   9.256  0.2874 -0.2424 -0.1903
  870MOL0     C19975   4.623   4.491   9.710 -0.3356  0.3351  0.5474
  870MOL0     C19976   4.625   4.440   9.838  0.3658 -0.0052  0.4163
  870MOL0     C19977   4.796   4.383  10.279  0.0585  0.2353  0.3959
  870MOL0     C19978   4.668   4.392  10.340  0.1240  0.5592  0.5911
  870MOL0     C19979   4.647   4.340  10.470  0.5582 -0.1391 -0.1525
  870MOL0     C19980   4.752   4.288  10.539 -0.5794 -0.4690  0.1895
  870MOL0     O19981   4.755   4.243  10.670  0.4260  0.0772  0.2611
  870MOL0     C19982   4.672   4.324  10.762 -0.3141  0.0899  0.3335
  870MOL0     C19983   4.536   4.267  10.799 -0.3756 -0.2129  0.6288
  870MOL0     C19984   4.555   4.133  10.870 -0.1948 -1.1501  0.3794
  870MOL0     C19985   4.432   4.111  10.959  0.4690 -0.1296  0.5846
  870MOL0     C19986   4.462   4.009  11.062  0.6731 -0.7613  0.2705
  870MOL0     C19987   4.484   3.917  11.130 -0.5563 -0.2919 -0.0199
  870MOL0     C19988   4.877   4.280  10.474 -0.1271  0.3941  0.5134
  870MOL0     C19989   4.906   4.325  10.346 -0.0372 -0.2563  0.0229
  870MOL0     C19990   5.037   4.290  10.293 -0.3569  0.0906 -0.1613
  870MOL0     H19991   4.852   4.663   9.972 -0.5452  0.2785 -0.5502
  870MOL0     H19992   4.866   4.723   9.727  2.4238 -1.0368  1.9668
  870MOL0     H19993   4.597   4.575   9.408  0.3145 -0.0284 -0.7192
  870MOL0     H19994   4.744   4.477   9.425 -1.2407 -0.5236 -1.2363
  870MOL0     H19995   4.702   4.620   9.221  0.0248 -1.1244  0.5034
  870MOL0     H19996   4.706   4.765   9.321 -2.7456 -1.2005  1.9384
  870MOL0     H19997   4.923   4.717   9.401 -2.3443 -2.4324  1.5847
  870MOL0     H19998   4.935   4.574   9.289  0.7239 -0.7251  0.3760
  870MOL0     H19999   4.881   4.750   9.093  0.5756 -0.8833 -0.5506
  870MOL0     H20000   4.918   4.880   9.207  3.2236  0.5953 -0.3637
  870MOL0     H20001   5.088   4.817   9.049  1.2154  2.1168  0.8167
  870MOL0     H20002   5.106   4.666   9.139  0.6159  1.2935 -2.5535
  870MOL0     H20003   5.162   4.938   9.260 -2.3989  0.4787  0.0698
  870MOL0     H20004   5.139   4.790   9.352  0.8373  0.9011  0.6391
  870MOL0     H20005   5.343   4.683   9.244  2.0850  0.0554 -1.9922
  870MOL0     H20006   5.380   4.821   9.343 -1.7430 -0.4960  0.8676
  870MOL0     H20007   5.369   4.866   9.040 -1.2061  2.3877 -1.1568
  870MOL0     H20008   5.400   4.980   9.170  0.4149  0.2318 -1.5257
  870MOL0     H20009   5.585   4.703   8.976  0.4520  2.8406 -1.2433
  870MOL0     H20010   5.817   4.591   8.988  0.0777  0.0800  0.4353
  870MOL0     H20011   5.888   4.577   9.145  1.5472 -0.4887 -1.4571
  870MOL0     H20012   5.944   4.806   8.957  0.1689 -0.5855 -0.3944
  870MOL0     H20013   6.014   4.787   9.123 -2.2378 -2.5445  3.1595
  870MOL0     H20014   6.077   4.553   9.021  2.3846  0.6786  4.2862
  870MOL0     H20015   6.049   4.654   8.868  1.5599  1.3995  0.9198
  870MOL0     H20016   6.200   4.820   8.964 -2.7459 -0.5606  0.1589
  870MOL0     H20017   6.255   4.708   9.083 -0.1444  1.2415  0.3711
  870MOL0     H20018   6.418   4.859   9.032 -1.3370  1.1502 -1.2068
  870MOL0     H20019   6.752   4.976   9.053 -0.3768  2.1445 -1.0615
  870MOL0     H20020   6.608   4.961   9.141  0.7592  0.7204  0.7640
  870MOL0     H20021   6.614   5.065   8.988 -0.0318 -0.8757 -1.5383
  870MOL0     H20022   7.073   5.010   9.016  4.0508  0.3363  0.9124
  870MOL0     H20023   7.300   5.116   8.956  0.8909  3.7479 -1.9921
  870MOL0     H20024   7.445   5.224   8.892 -0.3810 -2.5531  0.5565
  870MOL0     H20025   7.509   5.064   8.836  0.4159  0.0456  0.8326
  870MOL0     H20026   7.664   5.173   8.680  0.3589  0.8103 -1.0767
  870MOL0     H20027   7.575   5.309   8.677 -0.5736 -0.4223  0.7548
  870MOL0     H20028   7.759   5.235   8.907  1.5940  4.1921  3.4905
  870MOL0     H20029   7.621   5.323   8.937  1.7005 -1.7342  2.2152
  870MOL0     H20030   7.706   5.481   8.759 -1.9618 -1.0562  1.4780
  870MOL0     H20031   7.859   5.379   8.753 -0.0301  0.2207 -0.8492
  870MOL0     H20032   7.781   5.598   8.920 -2.5272 -1.5192 -1.1847
  870MOL0     H20033   7.792   5.465   9.030 -0.9504  1.1331 -0.5466
  870MOL0     H20034   8.030   5.530   8.842 -0.6039  0.1768 -1.0107
  870MOL0     H20035   8.021   5.412   8.982 -0.3508  0.2778  1.0878
  870MOL0     H20036   7.993   5.569   9.133  0.9597  0.2237 -0.0721
  870MOL0     H20037   7.954   5.706   9.024 -1.2506 -0.9615  0.5240
  870MOL0     H20038   8.173   5.731   9.130 -0.2655  1.5963 -1.6371
  870MOL0     H20039   8.196   5.688   8.955  0.0682  1.0661  0.6954
  870MOL0     H20040   7.180   5.086   8.539 -0.5342  0.3313  0.0907
  870MOL0     H20041   6.952   5.016   8.611  0.3596  0.0247  0.5413
  870MOL0     H20042   6.715   4.625   8.731 -2.2074  0.6598 -3.2316
  870MOL0     H20043   6.483   4.555   8.744 -0.3884  0.0329  0.8067
  870MOL0     H20044   4.534   4.455   9.660  1.2879 -1.9190 -0.8748
  870MOL0     H20045   4.559   4.364   9.879  2.7190 -1.0982  2.3855
  870MOL0     H20046   4.588   4.431  10.278  1.1578  1.0342 -0.4830
  870MOL0     H20047   4.545   4.348  10.508  0.1655 -1.8800 -0.7651
  870MOL0     H20048   4.729   4.328  10.855  0.0034 -0.4815  0.1738
  870MOL0     H20049   4.662   4.428  10.729  0.5936 -0.7706 -3.1121
  870MOL0     H20050   4.493   4.247  10.700  1.5032  1.3009 -0.5554
  870MOL0     H20051   4.489   4.344  10.860  2.5762  0.1352  2.6442
  870MOL0     H20052   4.566   4.054  10.795 -4.8463 -0.3662 -1.4833
  870MOL0     H20053   4.644   4.138  10.933  0.9476  0.4277 -1.2589
  870MOL0     H20054   4.342   4.078  10.907 -0.2119  1.3714  0.7441
  870MOL0     H20055   4.397   4.203  11.008 -1.5851 -0.5506  0.0392
  870MOL0     H20056   4.503   3.841  11.204 -1.5264  2.0041  2.7917
  870MOL0     H20057   4.956   4.232  10.531  1.5295  0.5094 -1.5853
  870MOL0     H20058   5.073   4.208  10.354  1.4260  1.1760  0.3007
  870MOL0     H20059   5.047   4.268  10.186  2.1897  1.3973 -0.2510
  870MOL0     H20060   5.104   4.376  10.300  0.2814 -0.4795  0.9520
  871MOL0     O20061   2.932   3.766   9.196 -0.1163  0.5595  0.2458
  871MOL0     C20062   2.874   3.816   9.101 -0.9142  0.0522 -0.6555
  871MOL0     O20063   2.917   3.825   8.969  0.8079 -0.0372 -0.5080
  871MOL0     C20064   3.049   3.802   8.947  0.1067  0.0437 -0.0863
  871MOL0     C20065   3.090   3.734   8.835 -0.0180  0.7153  0.3662
  871MOL0     C20066   3.227   3.734   8.803 -0.9143  0.7896 -0.5111
  871MOL0     C20067   3.332   3.782   8.881  0.2950  0.6754 -0.4775
  871MOL0     O20068   3.467   3.808   8.845  0.2229  0.8719  0.0743
  871MOL0     C20069   3.516   3.740   8.724  0.2560 -0.2122 -0.2765
  871MOL0     C20070   3.641   3.811   8.693 -0.0938  0.1632  0.3447
  871MOL0     C20071   3.722   3.754   8.573 -0.0510 -0.1263  0.6738
  871MOL0     C20072   3.863   3.822   8.578  0.3272 -0.4733  0.1584
  871MOL0     C20073   3.966   3.758   8.483  0.1521  0.4317 -0.2705
  871MOL0     C20074   3.936   3.786   8.333  0.5783 -0.8596 -0.9328
  871MOL0     C20075   4.016   3.904   8.280 -0.2831 -0.4927 -0.4416
  871MOL0     C20076   3.978   3.939   8.129  0.3340  0.4727 -0.2236
  871MOL0     N20077   4.087   4.016   8.059 -0.5060  1.0729 -0.8906
  871MOL0     C20078   4.125   4.142   8.086 -0.1666  1.5094 -0.6577
  871MOL0     C20079   4.218   4.172   7.993  0.0931  0.1019 -0.1978
  871MOL0     C20080   4.305   4.294   8.003  0.4700 -1.1923 -1.4292
  871MOL0     C20081   4.454   4.267   7.972  0.0891  1.0118  0.2034
  871MOL0     C20082   4.524   4.158   8.048 -0.0648  0.7811 -0.5050
  871MOL0     C20083   4.667   4.137   7.983  0.6883  0.3381  0.1087
  871MOL0     O20084   4.653   4.075   7.853 -0.1084 -0.0259 -0.1395
  871MOL0     C20085   4.766   4.100   7.768  0.2934  0.8483 -0.7969
  871MOL0     C20086   4.741   4.128   7.638 -0.0949 -0.2182 -0.0343
  871MOL0     C20087   4.851   4.143   7.544 -0.1861  0.1196 -1.1198
  871MOL0     C20088   4.818   4.189   7.403  0.0832 -0.1782 -0.4318
  871MOL0     C20089   4.987   4.132   7.595  1.2312 -0.4084 -0.7555
  871MOL0     C20090   5.109   4.158   7.520 -1.3347  1.0865 -0.3715
  871MOL0     O20091   5.226   4.121   7.577 -0.1834  0.0789 -0.1608
  871MOL0     C20092   5.336   4.174   7.522 -0.2672 -0.3753  0.1733
  871MOL0     C20093   5.375   4.152   7.381  0.3549  0.1160 -0.3995
  871MOL0     C20094   5.498   4.208   7.343 -0.3581  0.4859  0.1860
  871MOL0     C20095   5.581   4.282   7.432 -0.0274  0.4406  1.0081
  871MOL0     O20096   5.693   4.336   7.380 -0.0888  0.1310  0.3472
  871MOL0     C20097   5.822   4.336   7.453  0.1930 -0.4512  0.2083
  871MOL0     C20098   5.937   4.357   7.370  0.1140 -0.1742 -0.4349
  871MOL0     C20099   5.969   4.504   7.332  0.0005  0.8567 -0.1661
  871MOL0     C20100   6.071   4.510   7.215 -0.2355 -0.9215 -0.8377
  871MOL0     C20101   6.091   4.655   7.172 -0.0485  0.6864  0.7599
  871MOL0     C20102   6.191   4.669   7.062 -0.2429  0.4493 -0.5831
  871MOL0     C20103   6.332   4.607   7.075  0.4082 -0.0172 -0.4465
  871MOL0     C20104   6.382   4.546   6.942  0.1622  0.2103  0.5531
  871MOL0    Cl20105   6.264   4.432   6.872  0.1649  0.2186  0.1293
  871MOL0     C20106   5.537   4.308   7.564 -0.3307  0.8584 -0.1574
  871MOL0     C20107   5.422   4.244   7.602 -0.4755  0.9344 -0.0815
  871MOL0     O20108   5.094   4.207   7.414 -0.8177  0.3039  0.5879
  871MOL0     C20109   5.000   4.098   7.730  0.6076 -0.1166 -0.3165
  871MOL0     C20110   4.891   4.076   7.814 -0.4118  0.1756 -0.0923
  871MOL0     N20111   4.223   4.066   7.902  0.3868 -0.1157  0.0196
  871MOL0     N20112   4.146   3.978   7.948 -0.1919  0.3440  0.0825
  871MOL0     C20113   3.286   3.857   8.989  0.0870  0.0495 -0.2359
  871MOL0     C20114   3.150   3.869   9.022 -0.2850 -0.3144 -0.8758
  871MOL0     C20115   2.738   3.875   9.125  0.9105  0.0315  0.2026
  871MOL0     C20116   2.649   3.871   9.007  0.5116  0.7338  0.6450
  871MOL0     C20117   2.518   3.903   9.018  0.4427 -0.1972 -0.1635
  871MOL0     C20118   2.463   3.945   9.143  0.7323 -0.0828  0.3255
  871MOL0     O20119   2.327   3.971   9.138  0.2038 -0.2857 -0.6840
  871MOL0     C20120   2.272   4.025   9.254 -0.4622 -0.0271  0.3373
  871MOL0     C20121   2.126   4.070   9.232  0.3210  0.4376 -0.4986
  871MOL0     C20122   2.117   4.173   9.124 -0.5083 -0.0781 -0.1603
  871MOL0     C20123   1.990   4.263   9.140  0.3277 -0.2912 -0.0263
  871MOL0     C20124   1.989   4.376   9.044  0.4268  0.3525  0.3724
  871MOL0     C20125   1.960   4.459   8.958 -0.1511 -0.5289  0.2198
  871MOL0     C20126   2.547   3.956   9.255  0.7827  1.1288  0.2306
  871MOL0     C20127   2.681   3.920   9.246  0.1803 -0.6426 -0.6965
  871MOL0     C20128   2.748   3.938   9.379  0.1111  0.8016  0.0555
  871MOL0     H20129   3.021   3.685   8.767 -0.3468  1.3318  0.2446
  871MOL0     H20130   3.267   3.693   8.711  1.6153  0.8784  0.4475
  871MOL0     H20131   3.447   3.754   8.640 -0.0156  3.7234  0.4045
  871MOL0     H20132   3.545   3.637   8.747  0.1352 -0.1475  0.1729
  871MOL0     H20133   3.624   3.918   8.678  2.1049  0.2755 -2.1509
  871MOL0     H20134   3.707   3.813   8.781  1.0893 -0.3935 -0.5007
  871MOL0     H20135   3.740   3.647   8.587 -0.7989  0.0752  3.6833
  871MOL0     H20136   3.679   3.773   8.474  1.9561  2.5939  0.2368
  871MOL0     H20137   3.863   3.926   8.543  1.3757  0.2682  2.1751
  871MOL0     H20138   3.900   3.815   8.681  0.9398  0.2982  0.0003
  871MOL0     H20139   3.966   3.652   8.508  2.6669  0.0734 -1.4624
  871MOL0     H20140   4.068   3.785   8.512  0.7098 -2.8892  1.3130
  871MOL0     H20141   3.982   3.701   8.282  1.6950  0.6932 -2.5983
  871MOL0     H20142   3.829   3.792   8.312 -0.5870 -3.9819  2.7524
  871MOL0     H20143   4.123   3.882   8.290  0.0995  1.6980  0.9324
  871MOL0     H20144   4.006   3.998   8.334  1.3745  0.3296 -1.4611
  871MOL0     H20145   3.962   3.845   8.076  1.3396  0.1813 -0.0277
  871MOL0     H20146   3.881   3.989   8.117  1.7698  3.1244 -1.4026
  871MOL0     H20147   4.098   4.190   8.179 -0.4197 -1.9446  1.2548
  871MOL0     H20148   4.291   4.343   8.100  0.0267 -0.7079 -1.7328
  871MOL0     H20149   4.268   4.370   7.934 -1.7424 -0.8121  0.0708
  871MOL0     H20150   4.467   4.246   7.866  1.7105 -1.0608  0.7446
  871MOL0     H20151   4.504   4.364   7.985  1.0808  0.7219 -1.2335
  871MOL0     H20152   4.529   4.181   8.155  1.6349  0.4077 -0.4795
  871MOL0     H20153   4.467   4.065   8.042 -0.2295  0.9229 -1.1396
  871MOL0     H20154   4.727   4.228   7.973 -0.3667  0.9637 -0.8704
  871MOL0     H20155   4.714   4.080   8.063 -0.8034 -0.3582  0.5251
  871MOL0     H20156   4.642   4.133   7.594  1.4523 -1.4337 -4.1383
  871MOL0     H20157   4.854   4.124   7.323 -1.0375 -1.4873  0.0782
  871MOL0     H20158   4.860   4.288   7.381  4.4294 -2.2710 -2.6297
  871MOL0     H20159   4.710   4.202   7.389 -0.1902 -3.2086 -1.8746
  871MOL0     H20160   5.295   4.103   7.326 -0.6613 -0.3510  1.4037
  871MOL0     H20161   5.539   4.191   7.244 -1.5593 -1.8210  0.0139
  871MOL0     H20162   5.826   4.414   7.530 -2.2980  1.6492 -1.5984
  871MOL0     H20163   5.827   4.235   7.494 -2.3201 -0.7122  0.0225
  871MOL0     H20164   6.024   4.313   7.420  1.1247  1.7683 -0.3703
  871MOL0     H20165   5.920   4.302   7.277 -1.2169  0.6562 -0.7087
  871MOL0     H20166   5.996   4.554   7.426  1.2483 -2.3761  1.3848
  871MOL0     H20167   5.881   4.554   7.292 -1.0220 -1.5350 -1.0917
  871MOL0     H20168   6.025   4.467   7.126 -0.1559  0.2568 -1.4697
  871MOL0     H20169   6.162   4.458   7.247  1.1975  2.5039  1.2391
  871MOL0     H20170   5.993   4.690   7.140 -0.8685 -0.3063  2.0432
  871MOL0     H20171   6.125   4.712   7.259  3.4253  1.8245 -1.1703
  871MOL0     H20172   6.189   4.778   7.066  0.3863  0.4292  2.3521
  871MOL0     H20173   6.153   4.636   6.965 -0.4321  0.0706 -0.3868
  871MOL0     H20174   6.341   4.529   7.151  0.5909  3.6615  3.6775
  871MOL0     H20175   6.405   4.681   7.110  1.2785 -0.0352 -2.0865
  871MOL0     H20176   6.477   4.495   6.959  0.2124  0.0526 -0.1631
  871MOL0     H20177   6.403   4.618   6.863  1.7131 -1.6990 -0.8857
  871MOL0     H20178   5.581   4.378   7.634  0.9978  1.0203 -1.1286
  871MOL0     H20179   5.399   4.257   7.707  0.9716 -0.6982  0.4821
  871MOL0     H20180   5.096   4.084   7.778 -0.8180 -1.0175  2.5077
  871MOL0     H20181   4.913   4.036   7.912 -2.5273 -0.9839 -0.0261
  871MOL0     H20182   3.361   3.913   9.043 -3.1070  2.5637  2.0190
  871MOL0     H20183   3.104   3.926   9.102 -2.7169  0.0826 -2.4371
  871MOL0     H20184   2.681   3.836   8.909 -1.7903  1.0677 -0.3017
  871MOL0     H20185   2.454   3.898   8.931  2.0169  1.6582 -1.5136
  871MOL0     H20186   2.274   3.962   9.344  2.2328 -0.7642 -0.1622
  871MOL0     H20187   2.336   4.112   9.273 -0.5527 -0.2586  1.8262
  871MOL0     H20188   2.088   4.115   9.324 -0.5753  0.6565 -0.9715
  871MOL0     H20189   2.072   3.981   9.199  1.1752  0.2109 -1.3230
  871MOL0     H20190   2.190   4.254   9.121 -1.4801  0.8758  0.6756
  871MOL0     H20191   2.120   4.125   9.026  2.8988  0.1160 -0.2601
  871MOL0     H20192   1.987   4.305   9.241  0.9856  0.3908 -0.2808
  871MOL0     H20193   1.901   4.200   9.134  0.8031 -0.8492 -1.7772
  871MOL0     H20194   1.930   4.536   8.889  0.0400  1.3198  2.0987
  871MOL0     H20195   2.509   3.986   9.352  1.3287 -0.4320  0.9491
  871MOL0     H20196   2.843   3.885   9.388  0.2571  1.3188  1.7993
  871MOL0     H20197   2.766   4.045   9.395  0.8300  1.2388 -2.9602
  871MOL0     H20198   2.685   3.899   9.459  2.4418  1.3079  2.2359
  872MOL0     O20199   0.573   4.615   6.528 -0.1503 -0.2527  0.0221
  872MOL0     C20200   0.467   4.656   6.571  0.2665 -0.2228 -0.1412
  872MOL0     O20201   0.454   4.777   6.644 -0.3698 -0.2761 -0.1958
  872MOL0     C20202   0.559   4.862   6.660 -0.6114 -0.1448 -0.6841
  872MOL0     C20203   0.595   4.888   6.796 -0.2319  0.2494 -0.1849
  872MOL0     C20204   0.707   4.973   6.815 -0.2636 -0.7668  1.1317
  872MOL0     C20205   0.787   5.027   6.707  0.2826  0.0981 -0.4042
  872MOL0     O20206   0.907   5.086   6.735  0.3292 -0.0574 -0.1882
  872MOL0     C20207   1.015   5.119   6.636 -0.1510  0.1578  0.1961
  872MOL0     C20208   1.140   5.140   6.720 -0.1832  0.2793  0.3231
  872MOL0     C20209   1.255   5.187   6.636  0.1457 -0.0058 -0.9639
  872MOL0     C20210   1.370   5.238   6.725  0.7775  0.4879 -0.5209
  872MOL0     C20211   1.500   5.288   6.649  0.6945  0.1822  0.4615
  872MOL0     C20212   1.598   5.357   6.738 -0.6416 -0.1733  0.6326
  872MOL0     C20213   1.732   5.394   6.660  0.4277 -0.3818  0.2911
  872MOL0     C20214   1.801   5.520   6.721  0.4506  0.0937  0.0853
  872MOL0     N20215   1.882   5.599   6.629  0.1666  0.8449  0.4789
  872MOL0     C20216   2.003   5.561   6.563 -0.0307 -0.1215  0.0132
  872MOL0     C20217   2.050   5.678   6.509  0.1429  0.4805 -0.2025
  872MOL0     C20218   2.178   5.706   6.437  0.2334 -0.0120  0.5457
  872MOL0     C20219   2.274   5.744   6.543  0.2143  0.0461  0.1247
  872MOL0     C20220   2.408   5.804   6.487  0.2393 -0.1738 -0.1659
  872MOL0     C20221   2.500   5.843   6.596  0.0011  0.7654 -0.5895
  872MOL0     O20222   2.585   5.728   6.615 -0.1695 -0.2809 -1.0937
  872MOL0     C20223   2.711   5.762   6.653  0.0806 -0.0327 -1.3698
  872MOL0     C20224   2.789   5.833   6.567 -0.2504 -0.5711 -0.3916
  872MOL0     C20225   2.921   5.872   6.602  0.5881 -0.4584 -0.1961
  872MOL0     C20226   2.984   5.972   6.505 -0.0395 -1.1584  0.1964
  872MOL0     C20227   2.974   5.832   6.727 -0.2610 -0.5081  0.2387
  872MOL0     C20228   3.116   5.863   6.771  0.9969  0.1218  0.6873
  872MOL0     O20229   3.208   5.905   6.685  0.5523 -0.0306 -0.5470
  872MOL0     C20230   3.340   5.880   6.718 -1.0591  0.6496 -1.2751
  872MOL0     C20231   3.393   5.752   6.743 -0.2163 -0.2963  0.2369
  872MOL0     C20232   3.530   5.746   6.786  0.2332 -0.2725  0.4550
  872MOL0     C20233   3.608   5.862   6.793 -0.3120  0.6586  0.0838
  872MOL0     O20234   3.746   5.861   6.823  0.3731  0.2789  0.6488
  872MOL0     C20235   3.821   5.748   6.797 -0.7569  0.0439  0.3801
  872MOL0     C20236   3.965   5.770   6.859  0.1914 -0.1303  0.2529
  872MOL0     C20237   3.970   5.821   7.004  0.6216 -0.4058  0.8261
  872MOL0     C20238   4.107   5.811   7.067  0.4520  0.4387  0.8224
  872MOL0     C20239   4.113   5.667   7.139 -0.3625 -0.0623 -0.0299
  872MOL0     C20240   4.253   5.646   7.209  0.1199  0.3122  0.0919
  872MOL0     C20241   4.378   5.643   7.111 -1.1471  0.9794 -0.2907
  872MOL0     C20242   4.509   5.562   7.153  0.7583 -0.8308  0.4418
  872MOL0    Cl20243   4.478   5.385   7.151 -0.4460  0.3502  0.4515
  872MOL0     C20244   3.557   5.988   6.769  0.3595 -0.0558  0.7011
  872MOL0     C20245   3.420   6.000   6.741  0.3854  0.7330 -0.3232
  872MOL0     O20246   3.136   5.839   6.891 -0.0261  0.6317  0.1577
  872MOL0     C20247   2.894   5.754   6.808 -0.4172 -0.6855  0.3639
  872MOL0     C20248   2.762   5.727   6.774  0.5491  0.6932  0.2484
  872MOL0     N20249   1.979   5.779   6.564  0.0417 -0.2271  0.4384
  872MOL0     N20250   1.880   5.736   6.629  0.6994 -0.6759 -0.1075
  872MOL0     C20251   0.740   5.005   6.578  0.4819 -0.5469  0.8105
  872MOL0     C20252   0.626   4.926   6.554 -0.1885 -1.2224 -0.6850
  872MOL0     C20253   0.348   4.571   6.554 -0.1897 -0.1582  0.2952
  872MOL0     C20254   0.352   4.470   6.451  0.4321 -0.0328 -0.2922
  872MOL0     C20255   0.243   4.378   6.436 -0.1016 -0.1683  0.0975
  872MOL0     C20256   0.137   4.384   6.517  0.9722  0.0563  0.5648
  872MOL0     O20257   0.025   4.305   6.492 -0.2437  0.0837 -0.2354
  872MOL0     C20258   0.062   4.165   6.518  0.7408  0.5021 -0.0098
  872MOL0     C20259  -0.061   4.083   6.516  1.1192  0.0875  0.3400
  872MOL0     C20260  -0.134   4.074   6.370  0.1308 -0.5870 -0.0307
  872MOL0     C20261  -0.232   3.957   6.362  0.0914 -0.3420 -0.4853
  872MOL0     C20262  -0.156   3.830   6.340  0.2121  0.9745  0.5067
  872MOL0     C20263  -0.084   3.732   6.322  0.8039  0.0907  0.6193
  872MOL0     C20264   0.137   4.475   6.624  0.1464  0.3121 -0.3971
  872MOL0     C20265   0.248   4.557   6.650 -0.3460  0.2378 -0.6217
  872MOL0     C20266   0.266   4.627   6.778  0.6886 -0.1381 -1.4362
  872MOL0     H20267   0.537   4.837   6.872  1.4191 -3.0888 -1.0039
  872MOL0     H20268   0.747   4.994   6.913 -1.4545  2.2697  1.0846
  872MOL0     H20269   0.992   5.205   6.572 -3.5192 -1.7857 -1.4658
  872MOL0     H20270   1.025   5.028   6.577 -0.7707 -0.2311  0.6701
  872MOL0     H20271   1.117   5.212   6.799 -3.1912 -1.0754  0.8122
  872MOL0     H20272   1.174   5.048   6.768  1.4067 -0.8794 -2.7753
  872MOL0     H20273   1.291   5.106   6.571  3.0838 -0.8481  1.4824
  872MOL0     H20274   1.219   5.273   6.579 -1.1453 -0.8318 -1.4461
  872MOL0     H20275   1.332   5.322   6.784  0.0896  1.2106 -1.9571
  872MOL0     H20276   1.401   5.157   6.792  0.0149 -0.5891 -1.4230
  872MOL0     H20277   1.477   5.357   6.567 -2.9645  2.3353  2.9759
  872MOL0     H20278   1.547   5.203   6.598 -0.2000 -0.3874  0.5609
  872MOL0     H20279   1.547   5.447   6.774  1.0094  1.1959 -0.2809
  872MOL0     H20280   1.637   5.295   6.819 -0.5586 -0.7655  0.1439
  872MOL0     H20281   1.709   5.423   6.557  2.1481 -2.5504 -0.7985
  872MOL0     H20282   1.799   5.307   6.661 -0.8849 -1.4390 -0.1329
  872MOL0     H20283   1.731   5.582   6.777 -0.9119 -2.5603  1.5070
  872MOL0     H20284   1.870   5.492   6.801  1.8172 -1.4530 -1.5646
  872MOL0     H20285   2.043   5.460   6.556  2.0600  0.7086 -0.5909
  872MOL0     H20286   2.168   5.785   6.362  3.1035 -1.5907 -1.7185
  872MOL0     H20287   2.219   5.620   6.384  1.9532  0.1542  1.5175
  872MOL0     H20288   2.223   5.824   6.597  0.2793  0.8819 -1.0210
  872MOL0     H20289   2.289   5.654   6.604 -0.0386 -0.1102 -0.0436
  872MOL0     H20290   2.458   5.733   6.421  0.7032 -1.0031  1.0273
  872MOL0     H20291   2.393   5.890   6.421  3.0882  0.2093 -0.4389
  872MOL0     H20292   2.560   5.928   6.564  2.4846  0.7247  3.2683
  872MOL0     H20293   2.452   5.879   6.688  0.6077  0.1940 -0.0310
  872MOL0     H20294   2.739   5.865   6.476  0.0451 -1.2867 -0.8079
  872MOL0     H20295   3.067   5.926   6.450  1.4987 -1.3313  2.5457
  872MOL0     H20296   3.037   6.055   6.552  1.2130  0.8325 -4.1484
  872MOL0     H20297   2.907   6.021   6.444  0.7147  2.5446  1.9432
  872MOL0     H20298   3.326   5.666   6.737  0.3735 -1.0182  2.7473
  872MOL0     H20299   3.571   5.649   6.814 -0.1799 -0.8749 -0.9439
  872MOL0     H20300   3.791   5.658   6.852 -2.2903  0.3157  0.0356
  872MOL0     H20301   3.833   5.721   6.692  0.2428  1.3047  0.1543
  872MOL0     H20302   4.017   5.674   6.857  0.9681  0.2870 -0.0303
  872MOL0     H20303   4.024   5.840   6.800  0.5333  0.5888  1.4049
  872MOL0     H20304   3.901   5.766   7.070  3.1986 -0.6120  3.5794
  872MOL0     H20305   3.938   5.925   7.006 -0.9330 -0.8611  1.4600
  872MOL0     H20306   4.111   5.883   7.149  1.6950 -0.5411  1.6651
  872MOL0     H20307   4.181   5.832   6.989 -0.9806 -2.0043 -1.3881
  872MOL0     H20308   4.046   5.682   7.223  0.2630 -1.6145  0.7874
  872MOL0     H20309   4.091   5.585   7.070 -1.2263  1.2984 -1.4376
  872MOL0     H20310   4.261   5.550   7.259  0.3133  0.4292  0.2903
  872MOL0     H20311   4.269   5.734   7.272  0.8501  1.4256 -1.5656
  872MOL0     H20312   4.408   5.747   7.091  1.2408  0.5477  0.7241
  872MOL0     H20313   4.342   5.605   7.015 -2.5602  0.1251  0.5496
  872MOL0     H20314   4.556   5.592   7.247 -0.5995 -0.4464  1.0201
  872MOL0     H20315   4.588   5.583   7.081 -0.4339 -2.3565 -1.4251
  872MOL0     H20316   3.618   6.077   6.784 -0.6868  0.3826  2.6343
  872MOL0     H20317   3.367   6.094   6.728  0.3874  0.3495 -4.6271
  872MOL0     H20318   2.925   5.712   6.903 -0.1042 -2.3059 -0.4184
  872MOL0     H20319   2.697   5.672   6.841  0.9087  0.9983  0.8648
  872MOL0     H20320   0.792   5.043   6.491  0.7084  0.7210  1.4575
  872MOL0     H20321   0.598   4.907   6.451  1.5361 -2.3357 -0.9994
  872MOL0     H20322   0.434   4.463   6.380  2.4577  0.9012  1.8091
  872MOL0     H20323   0.249   4.301   6.359 -0.9141 -0.9867  0.8191
  872MOL0     H20324   0.145   4.126   6.458  0.9902  2.6725 -1.1995
  872MOL0     H20325   0.093   4.159   6.622  1.1572 -1.5317 -0.2051
  872MOL0     H20326  -0.144   4.111   6.582 -0.2716 -2.9419  0.0592
  872MOL0     H20327  -0.031   3.985   6.554  2.1472  0.0678 -0.4816
  872MOL0     H20328  -0.194   4.166   6.364 -0.2033 -0.5462  2.6208
  872MOL0     H20329  -0.067   4.083   6.284  4.0272 -1.3755  2.6846
  872MOL0     H20330  -0.293   3.969   6.272 -2.4833  0.8358  1.3080
  872MOL0     H20331  -0.295   3.947   6.451 -0.3779  0.2091 -0.7555
  872MOL0     H20332  -0.025   3.645   6.302 -1.5827 -1.2468 -0.9088
  872MOL0     H20333   0.051   4.485   6.689  0.1578  2.8592 -0.6619
  872MOL0     H20334   0.184   4.592   6.842  1.1638  1.2628 -0.0082
  872MOL0     H20335   0.361   4.619   6.831  1.6813 -0.1219 -3.1479
  872MOL0     H20336   0.240   4.733   6.775 -0.2956 -0.3451 -0.6883
  873MOL0     O20337   7.097   7.929   7.014 -0.0625 -0.2806  0.5523
  873MOL0     C20338   7.077   7.892   6.897 -0.4949  0.1698 -0.1294
  873MOL0     O20339   7.171   7.827   6.820 -0.7196 -0.2240  0.0189
  873MOL0     C20340   7.310   7.820   6.843  0.2611 -0.1592  0.2625
  873MOL0     C20341   7.377   7.874   6.947  0.2622 -0.7772  0.1981
  873MOL0     C20342   7.517   7.870   6.954 -1.0772  1.2557 -0.5063
  873MOL0     C20343   7.594   7.811   6.852  0.4205 -0.4419 -0.0818
  873MOL0     O20344   7.728   7.835   6.862 -0.3313  0.4608 -0.6024
  873MOL0     C20345   7.802   7.796   6.746  0.8161 -0.3723 -0.0806
  873MOL0     C20346   7.829   7.650   6.751  0.4994  0.2155  0.4179
  873MOL0     C20347   7.905   7.610   6.617 -0.7626  0.4179  0.3362
  873MOL0     C20348   7.911   7.454   6.600  0.2716  0.9157 -0.0379
  873MOL0     C20349   8.034   7.418   6.507 -0.4084  0.1559  0.1185
  873MOL0     C20350   8.057   7.269   6.466 -0.2049  0.3792 -0.2445
  873MOL0     C20351   8.136   7.263   6.334  0.7493  0.1709  0.1343
  873MOL0     C20352   8.196   7.130   6.330  0.5631 -0.4014  0.3893
  873MOL0     N20353   8.274   7.099   6.208  0.2713 -0.3162 -0.0029
  873MOL0     C20354   8.389   7.172   6.162  0.1232  0.3169 -0.1446
  873MOL0     C20355   8.410   7.115   6.040 -0.6560 -0.2861 -1.2081
  873MOL0     C20356   8.520   7.152   5.953 -0.6135  0.0529 -0.9217
  873MOL0     C20357   8.479   7.262   5.851  0.7992  0.6724  0.4685
  873MOL0     C20358   8.530   7.234   5.712  0.6650  0.2168  0.2559
  873MOL0     C20359   8.679   7.253   5.701 -0.4079  0.5295  0.3412
  873MOL0     O20360   8.718   7.302   5.572 -1.0463 -0.0578  0.3535
  873MOL0     C20361   8.850   7.304   5.540  0.0010  0.3015 -0.2491
  873MOL0     C20362   8.878   7.309   5.409  0.2788 -0.1141  0.2945
  873MOL0     C20363   9.007   7.308   5.357 -0.4581 -0.9663  0.1485
  873MOL0     C20364   9.021   7.349   5.213 -0.6765 -0.3242  0.3770
  873MOL0     C20365   9.114   7.294   5.438 -0.1831 -0.0251 -0.4728
  873MOL0     C20366   9.257   7.301   5.398  0.0411  0.1810 -0.3658
  873MOL0     O20367   9.358   7.295   5.495 -0.0010  0.8061  0.2849
  873MOL0     C20368   9.486   7.295   5.459 -0.0700 -0.1495  0.9527
  873MOL0     C20369   9.539   7.419   5.426  0.1139  0.1128 -0.4008
  873MOL0     C20370   9.674   7.439   5.394 -0.1642  1.0382 -0.0761
  873MOL0     C20371   9.763   7.327   5.393  0.6118  1.1776  0.3236
  873MOL0     O20372   9.897   7.351   5.374  0.2880  0.4303 -0.0044
  873MOL0     C20373   9.933   7.286   5.253 -0.1001 -0.6535  0.9246
  873MOL0     C20374  10.046   7.352   5.178  0.2680  0.2942 -0.0443
  873MOL0     C20375  10.184   7.312   5.221  0.2494 -0.4478 -0.2734
  873MOL0     C20376  10.301   7.361   5.124  0.2169  0.5120  0.6406
  873MOL0     C20377  10.434   7.390   5.212  1.2121  0.0564  0.3895
  873MOL0     C20378  10.556   7.437   5.124  0.8300  0.0585 -0.3348
  873MOL0     C20379  10.680   7.359   5.165  1.1008 -0.4589  0.2499
  873MOL0     C20380  10.805   7.399   5.085 -0.2344 -0.5329 -0.3271
  873MOL0    Cl20381  10.789   7.346   4.912  0.1229  0.0084  0.4534
  873MOL0     C20382   9.706   7.196   5.423  0.3538 -0.3228  0.4571
  873MOL0     C20383   9.563   7.182   5.459 -0.4121 -0.1763 -0.5857
  873MOL0     O20384   9.281   7.297   5.279 -1.4009  0.0725 -0.1240
  873MOL0     C20385   9.091   7.281   5.579 -0.2903  1.0892  0.3879
  873MOL0     C20386   8.958   7.271   5.630 -0.2688 -0.0385  0.0920
  873MOL0     N20387   8.310   7.031   6.008  0.8146 -0.4735 -0.2186
  873MOL0     N20388   8.231   7.019   6.104 -0.5884  0.3554 -0.6413
  873MOL0     C20389   7.524   7.743   6.752  0.0676 -0.6871  0.0688
  873MOL0     C20390   7.382   7.755   6.746  0.8476  0.6458 -0.5016
  873MOL0     C20391   6.949   7.935   6.840  0.2930  0.4635 -0.6968
  873MOL0     C20392   6.839   7.957   6.922  0.0609 -0.7351 -0.4604
  873MOL0     C20393   6.717   8.004   6.875  0.6205  0.1006  0.4644
  873MOL0     C20394   6.697   8.036   6.739  0.1539  0.1788  0.8078
  873MOL0     O20395   6.580   8.088   6.689 -0.7800 -0.1372 -0.2198
  873MOL0     C20396   6.461   8.099   6.773 -0.1177 -0.1393 -0.7320
  873MOL0     C20397   6.379   7.968   6.772 -0.7731  0.2503 -0.0544
  873MOL0     C20398   6.243   7.991   6.837 -0.0388  0.0472  0.3815
  873MOL0     C20399   6.129   7.956   6.732  0.0693 -0.2360  0.1112
  873MOL0     C20400   5.993   8.002   6.767 -0.6634  0.3661 -0.3557
  873MOL0     C20401   5.883   8.045   6.769  0.3316  0.6691 -0.3436
  873MOL0     C20402   6.805   8.008   6.654  0.1049 -0.2513  0.0732
  873MOL0     C20403   6.933   7.953   6.699 -0.1788 -0.8418  0.3087
  873MOL0     C20404   7.036   7.927   6.587  0.1161 -0.6223  0.3432
  873MOL0     H20405   7.315   7.905   7.030 -1.9875 -0.8293 -1.3880
  873MOL0     H20406   7.560   7.903   7.048 -1.8870 -2.0713  1.1932
  873MOL0     H20407   7.899   7.845   6.759  0.1887  1.5212 -1.9532
  873MOL0     H20408   7.750   7.829   6.655 -2.1283  0.7154  1.8216
  873MOL0     H20409   7.881   7.638   6.847  1.8251  2.0028 -0.0174
  873MOL0     H20410   7.740   7.586   6.756  0.1122  0.2168 -3.5431
  873MOL0     H20411   7.857   7.646   6.526 -2.7376 -0.8327  0.8099
  873MOL0     H20412   8.005   7.653   6.616 -1.4602  2.1514  0.7489
  873MOL0     H20413   7.923   7.401   6.694  2.6967 -0.2752 -0.9357
  873MOL0     H20414   7.820   7.423   6.548 -0.0157  1.2988  0.2221
  873MOL0     H20415   8.128   7.446   6.556  0.5352 -0.9514 -0.9904
  873MOL0     H20416   8.026   7.471   6.411  1.3824 -1.7401 -1.1660
  873MOL0     H20417   8.117   7.215   6.541 -2.4126 -1.2969  0.4200
  873MOL0     H20418   7.961   7.221   6.444 -0.3380  0.3082  0.4644
  873MOL0     H20419   8.214   7.340   6.322  1.9130 -0.9413  0.3510
  873MOL0     H20420   8.063   7.275   6.253  2.0193  0.8504 -0.9570
  873MOL0     H20421   8.267   7.123   6.413 -2.4230  1.7888  3.3555
  873MOL0     H20422   8.121   7.050   6.330  1.0647 -0.9346  2.4686
  873MOL0     H20423   8.446   7.243   6.221 -1.8092  2.5810 -0.8527
  873MOL0     H20424   8.557   7.060   5.906 -1.6561 -1.0879  0.4188
  873MOL0     H20425   8.600   7.196   6.013 -1.3241  1.5586 -1.0091
  873MOL0     H20426   8.370   7.270   5.853  0.4076 -2.7921  0.0232
  873MOL0     H20427   8.509   7.361   5.886 -0.0776  0.8459  0.7441
  873MOL0     H20428   8.491   7.135   5.687 -3.4858  1.9850 -1.1365
  873MOL0     H20429   8.478   7.301   5.642 -1.8788 -1.5175  0.3500
  873MOL0     H20430   8.713   7.313   5.785  1.0295 -1.4126  1.2177
  873MOL0     H20431   8.722   7.153   5.707 -0.9623  0.2852  0.2386
  873MOL0     H20432   8.801   7.339   5.339 -0.1692  0.0027  0.8329
  873MOL0     H20433   9.087   7.435   5.206  1.3624 -1.9421 -3.9725
  873MOL0     H20434   8.926   7.378   5.167 -0.9984 -2.2968 -0.3028
  873MOL0     H20435   9.068   7.263   5.163 -1.4418  0.4295 -1.7492
  873MOL0     H20436   9.491   7.516   5.434  1.0950  0.5426  0.3915
  873MOL0     H20437   9.731   7.530   5.379  0.5482  0.6117 -0.0178
  873MOL0     H20438   9.959   7.181   5.270  2.4217 -0.5504 -1.4949
  873MOL0     H20439   9.852   7.292   5.180  0.5855 -0.2452  0.1777
  873MOL0     H20440  10.029   7.320   5.075 -1.9866  1.1424  0.0090
  873MOL0     H20441  10.028   7.460   5.183  0.7624  0.3662  0.2117
  873MOL0     H20442  10.194   7.205   5.246 -0.4548 -0.7191 -1.1051
  873MOL0     H20443  10.189   7.374   5.310  0.8996 -1.1222  0.1770
  873MOL0     H20444  10.272   7.451   5.070 -0.6210 -0.3586 -0.4096
  873MOL0     H20445  10.321   7.286   5.047  1.2622  0.8531  0.5569
  873MOL0     H20446  10.414   7.467   5.287  1.7722 -0.1209  0.7219
  873MOL0     H20447  10.462   7.301   5.268  0.5953  1.3553  2.9259
  873MOL0     H20448  10.581   7.543   5.137  0.5450  0.1641 -0.6497
  873MOL0     H20449  10.547   7.411   5.018  0.2840 -1.1207 -0.0154
  873MOL0     H20450  10.660   7.254   5.145  0.8610 -0.7192  1.7826
  873MOL0     H20451  10.694   7.382   5.271 -2.6136  0.1535  0.7435
  873MOL0     H20452  10.892   7.340   5.114 -0.8774 -2.6851 -2.3842
  873MOL0     H20453  10.811   7.508   5.089 -0.4591 -0.3195 -3.3270
  873MOL0     H20454   9.780   7.116   5.422  0.4809 -0.2042  0.4717
  873MOL0     H20455   9.514   7.087   5.478 -0.7928 -0.3053 -2.0546
  873MOL0     H20456   9.176   7.259   5.643 -1.7414  1.7720  2.6530
  873MOL0     H20457   8.951   7.242   5.734 -1.1603 -0.9518 -0.2115
  873MOL0     H20458   7.572   7.690   6.670 -1.0845  0.2400 -1.2494
  873MOL0     H20459   7.326   7.703   6.669 -0.0183  1.0482 -0.1608
  873MOL0     H20460   6.847   7.928   7.026 -1.6814 -1.1690 -0.4137
  873MOL0     H20461   6.634   7.999   6.944 -1.0183 -1.8119 -1.5008
  873MOL0     H20462   6.476   8.125   6.878 -2.5446 -2.6606  0.3653
  873MOL0     H20463   6.398   8.180   6.734 -0.6313  0.2387  0.8038
  873MOL0     H20464   6.434   7.895   6.833  0.2624 -0.5745 -1.9046
  873MOL0     H20465   6.370   7.918   6.675  0.6309  0.2173 -0.1871
  873MOL0     H20466   6.237   7.916   6.916  2.3574 -0.9796 -0.3138
  873MOL0     H20467   6.231   8.092   6.878 -0.0355  0.2459 -0.0983
  873MOL0     H20468   6.133   7.847   6.725 -0.0139 -0.4618  2.7687
  873MOL0     H20469   6.145   8.004   6.635 -0.4772 -0.3036 -0.0165
  873MOL0     H20470   5.779   8.068   6.772 -0.1110 -0.9966 -1.3975
  873MOL0     H20471   6.785   8.027   6.549  1.3393  0.2178 -0.0830
  873MOL0     H20472   7.126   7.988   6.592  0.0419 -0.3567 -1.1919
  873MOL0     H20473   7.054   7.820   6.584  1.0322 -0.4577 -0.5981
  873MOL0     H20474   6.996   7.945   6.486  2.1050 -1.4225 -0.6231
  874MOL0     O20475   0.774   7.772   6.416  0.1472  0.2566 -0.2152
  874MOL0     C20476   0.696   7.819   6.339 -0.2397  0.2847  0.9047
  874MOL0     O20477   0.732   7.913   6.244 -0.1941 -0.3867 -0.4595
  874MOL0     C20478   0.859   7.976   6.238  0.0186  0.5423 -0.0020
  874MOL0     C20479   0.906   7.998   6.111 -1.1401  1.2089  0.4409
  874MOL0     C20480   1.026   8.065   6.097 -0.2354  0.7805  0.5330
  874MOL0     C20481   1.112   8.096   6.201 -0.3360  0.0982  0.1556
  874MOL0     O20482   1.239   8.147   6.181  0.5729 -0.5877  0.3131
  874MOL0     C20483   1.273   8.185   6.044 -0.2906  0.1539  0.5983
  874MOL0     C20484   1.395   8.276   6.061 -0.2968  0.0440  1.0574
  874MOL0     C20485   1.526   8.216   6.128  0.0842  0.4752 -0.1915
  874MOL0     C20486   1.613   8.342   6.179 -0.0042  0.1113  0.3251
  874MOL0     C20487   1.718   8.304   6.273 -0.0266  0.2176 -0.6361
  874MOL0     C20488   1.818   8.416   6.301 -0.6529  0.0606  0.4057
  874MOL0     C20489   1.943   8.367   6.397  0.7950 -0.2538 -0.1168
  874MOL0     C20490   2.060   8.341   6.310 -0.3270 -0.2638  0.0901
  874MOL0     N20491   2.146   8.462   6.293  0.6524 -0.0847  0.2384
  874MOL0     C20492   2.284   8.455   6.306 -0.1494  0.3301 -0.4553
  874MOL0     C20493   2.320   8.586   6.303  0.1363  0.2906 -1.1839
  874MOL0     C20494   2.461   8.635   6.296 -0.3590  0.3222  0.4770
  874MOL0     C20495   2.536   8.589   6.164 -0.1544  0.5120 -0.1611
  874MOL0     C20496   2.626   8.464   6.162 -0.0238  1.2812  0.0864
  874MOL0     C20497   2.698   8.427   6.300  0.1110 -0.5271 -0.1632
  874MOL0     O20498   2.775   8.546   6.347 -0.0976  0.0398  0.3281
  874MOL0     C20499   2.893   8.590   6.286  0.1436  1.1364 -0.0966
  874MOL0     C20500   2.949   8.702   6.335 -0.0525 -1.0198  0.5188
  874MOL0     C20501   3.070   8.762   6.284  0.8136  1.0611  0.0980
  874MOL0     C20502   3.116   8.891   6.348  0.3566  0.2638  0.3492
  874MOL0     C20503   3.136   8.697   6.183 -0.2699 -0.1227  0.6061
  874MOL0     C20504   3.262   8.744   6.121 -0.4160  0.4653  0.4176
  874MOL0     O20505   3.297   8.676   6.012 -0.0986  0.2456 -0.0100
  874MOL0     C20506   3.417   8.705   5.952  1.1633 -0.5909  0.0725
  874MOL0     C20507   3.417   8.808   5.854  0.5880  0.9203 -0.6185
  874MOL0     C20508   3.530   8.832   5.776  0.2210 -0.0901  0.2832
  874MOL0     C20509   3.648   8.756   5.788 -0.2255 -0.3419  0.6696
  874MOL0     O20510   3.758   8.798   5.708 -0.3501  0.2484  0.2880
  874MOL0     C20511   3.869   8.706   5.700 -0.4049  0.3047 -0.3202
  874MOL0     C20512   3.969   8.746   5.588  0.0495 -0.1785  0.6748
  874MOL0     C20513   4.071   8.644   5.536 -0.8983  0.0064 -0.9340
  874MOL0     C20514   4.211   8.644   5.603  0.9444 -0.3967 -0.2613
  874MOL0     C20515   4.307   8.543   5.537  0.6085  0.5064 -0.1373
  874MOL0     C20516   4.440   8.527   5.610 -0.0826 -0.6552 -0.8395
  874MOL0     C20517   4.559   8.488   5.515 -0.0552  0.1245  0.1856
  874MOL0     C20518   4.689   8.511   5.579  0.1474 -0.1654  0.0577
  874MOL0    Cl20519   4.688   8.424   5.742 -0.0649 -0.1650 -0.0804
  874MOL0     C20520   3.652   8.660   5.896  0.3038  1.0940  0.6838
  874MOL0     C20521   3.539   8.635   5.971  0.1099 -0.6111  0.0998
  874MOL0     O20522   3.328   8.835   6.174  0.7369 -0.4380  0.3517
  874MOL0     C20523   3.077   8.575   6.137 -0.0522  0.0679 -0.7961
  874MOL0     C20524   2.963   8.523   6.191 -0.4734 -0.1995  0.4822
  874MOL0     N20525   2.211   8.664   6.290  0.4078 -0.6894 -0.7222
  874MOL0     N20526   2.103   8.591   6.293 -0.0225 -0.2167 -0.4249
  874MOL0     C20527   1.062   8.079   6.331 -0.3358 -0.0608  0.3468
  874MOL0     C20528   0.933   8.015   6.354 -0.6188  0.2156  0.4754
  874MOL0     C20529   0.557   7.772   6.334 -0.8423  0.0634  0.1804
  874MOL0     C20530   0.495   7.786   6.206 -0.0601  0.4694 -0.2325
  874MOL0     C20531   0.355   7.763   6.199 -0.6801 -0.0882  0.6645
  874MOL0     C20532   0.279   7.714   6.306 -0.1868 -0.3283 -0.3914
  874MOL0     O20533   0.145   7.681   6.302  0.1011 -0.0818 -0.4983
  874MOL0     C20534   0.072   7.702   6.183  0.2973  0.3295 -0.1378
  874MOL0     C20535  -0.071   7.649   6.196 -0.0207 -0.3551 -0.2448
  874MOL0     C20536  -0.141   7.697   6.333  0.6248 -0.6455  0.0838
  874MOL0     C20537  -0.276   7.619   6.324 -0.1787 -0.6620 -0.0715
  874MOL0     C20538  -0.355   7.646   6.443  0.6449 -0.7050 -0.4412
  874MOL0     C20539  -0.419   7.660   6.545 -0.1709  0.7563  0.2041
  874MOL0     C20540   0.344   7.705   6.430  0.2307  0.7533 -0.5547
  874MOL0     C20541   0.479   7.725   6.446 -0.2942  0.2563  0.9527
  874MOL0     C20542   0.548   7.707   6.575  0.3893 -0.4726 -0.5555
  874MOL0     H20543   0.858   7.960   6.022 -0.0018  0.1626  0.2473
  874MOL0     H20544   1.056   8.087   5.995 -3.6695  0.3467 -0.6954
  874MOL0     H20545   1.192   8.248   6.007 -1.1025 -0.8563  0.5894
  874MOL0     H20546   1.277   8.106   5.969  0.2443  1.5264 -0.8481
  874MOL0     H20547   1.419   8.303   5.958 -3.7623 -1.3459 -0.2387
  874MOL0     H20548   1.364   8.372   6.105  0.4072 -0.0819  1.8592
  874MOL0     H20549   1.499   8.151   6.212 -1.6015 -0.3001 -1.2684
  874MOL0     H20550   1.582   8.152   6.060 -0.7328  0.0470 -0.4806
  874MOL0     H20551   1.648   8.408   6.100  0.1601 -0.8201 -0.4039
  874MOL0     H20552   1.551   8.414   6.233  1.4037  2.4251 -0.9715
  874MOL0     H20553   1.775   8.220   6.230 -0.3343 -1.4938  2.0432
  874MOL0     H20554   1.659   8.270   6.359  1.1751  0.2238  0.2181
  874MOL0     H20555   1.861   8.455   6.208 -0.6865  0.2060  0.4510
  874MOL0     H20556   1.768   8.498   6.354 -2.7497 -1.3075  0.6486
  874MOL0     H20557   1.911   8.278   6.453  0.1671 -2.2829 -3.3897
  874MOL0     H20558   1.975   8.440   6.472 -0.4199 -0.2716  0.4365
  874MOL0     H20559   2.121   8.273   6.371  0.6794  0.6776  0.1777
  874MOL0     H20560   2.043   8.287   6.217  1.1448 -1.0542  0.2359
  874MOL0     H20561   2.354   8.372   6.301 -0.9738 -0.3386 -1.1879
  874MOL0     H20562   2.526   8.617   6.382  2.0644  0.3892 -1.2382
  874MOL0     H20563   2.447   8.743   6.284  1.1504  0.6166  1.2003
  874MOL0     H20564   2.458   8.576   6.088  0.2902 -0.0887 -0.5221
  874MOL0     H20565   2.600   8.672   6.132  0.0550  1.0848  1.6620
  874MOL0     H20566   2.563   8.380   6.133  0.7478  0.2312  1.3786
  874MOL0     H20567   2.689   8.479   6.074 -2.6931 -1.1228 -2.4366
  874MOL0     H20568   2.613   8.412   6.367  0.6265  2.3370  1.2701
  874MOL0     H20569   2.762   8.339   6.290 -0.1479 -0.5969 -1.4093
  874MOL0     H20570   2.899   8.753   6.416  0.3960  0.2759  0.0095
  874MOL0     H20571   3.127   8.972   6.275 -1.8323  1.0809  0.8410
  874MOL0     H20572   3.215   8.887   6.393  0.9347  0.1770 -0.9035
  874MOL0     H20573   3.045   8.922   6.425  0.4524 -0.2495  0.6477
  874MOL0     H20574   3.329   8.868   5.836  0.7619  1.3685 -0.0141
  874MOL0     H20575   3.530   8.905   5.695 -1.0274  0.0444  0.3839
  874MOL0     H20576   3.924   8.711   5.794  0.4805  2.8935 -0.9011
  874MOL0     H20577   3.833   8.604   5.682 -1.6222  0.3097  1.7950
  874MOL0     H20578   3.909   8.775   5.501 -0.6278 -1.9084  0.5255
  874MOL0     H20579   4.015   8.842   5.615  1.0215 -0.5035  0.2375
  874MOL0     H20580   4.094   8.667   5.432 -2.5313  1.0858 -1.1052
  874MOL0     H20581   4.012   8.552   5.544 -1.2440  0.3939  1.8512
  874MOL0     H20582   4.201   8.629   5.711  0.0061  0.6615 -0.1739
  874MOL0     H20583   4.258   8.742   5.606 -1.6958  0.9528  2.1819
  874MOL0     H20584   4.262   8.444   5.541  1.1815  0.0820 -2.5959
  874MOL0     H20585   4.334   8.573   5.435  2.0880 -0.6877 -0.1281
  874MOL0     H20586   4.426   8.462   5.697 -0.5422 -0.8612 -1.0620
  874MOL0     H20587   4.454   8.625   5.655 -1.4428 -1.1556  0.7700
  874MOL0     H20588   4.540   8.546   5.425 -2.7883 -1.9351 -0.6894
  874MOL0     H20589   4.549   8.386   5.476  1.9087  0.5784 -1.7141
  874MOL0     H20590   4.709   8.619   5.581  0.8763 -0.2857 -0.3387
  874MOL0     H20591   4.761   8.467   5.510  0.6156  0.0139  0.4284
  874MOL0     H20592   3.746   8.607   5.905 -0.8482 -0.9943  0.9774
  874MOL0     H20593   3.553   8.546   6.032 -1.0510 -2.2941 -1.9698
  874MOL0     H20594   3.125   8.522   6.056 -0.9121  1.3335 -2.1883
  874MOL0     H20595   2.916   8.438   6.144 -0.1663  0.8525 -1.8652
  874MOL0     H20596   1.114   8.122   6.416 -0.7294  1.8181 -0.3096
  874MOL0     H20597   0.897   8.003   6.455 -0.4044 -1.4784  0.3751
  874MOL0     H20598   0.550   7.814   6.117  0.0945  0.6226 -0.0898
  874MOL0     H20599   0.316   7.764   6.097  4.9795 -0.3384 -1.8605
  874MOL0     H20600   0.078   7.804   6.145 -0.0372  1.3290  2.3019
  874MOL0     H20601   0.124   7.645   6.105  2.3627  2.2964 -0.2836
  874MOL0     H20602  -0.066   7.541   6.184  0.2099 -0.3417 -0.2792
  874MOL0     H20603  -0.127   7.694   6.114  0.0463 -1.3982 -0.8757
  874MOL0     H20604  -0.087   7.676   6.426 -0.8537 -0.4654  1.0136
  874MOL0     H20605  -0.156   7.805   6.327  0.0566 -0.3887  3.8586
  874MOL0     H20606  -0.257   7.512   6.320 -1.4588 -0.9584  1.1450
  874MOL0     H20607  -0.335   7.636   6.234  0.5462 -1.0279 -0.6272
  874MOL0     H20608  -0.494   7.671   6.621 -2.0679 -1.6387 -1.2041
  874MOL0     H20609   0.291   7.675   6.519 -0.4662 -0.1323 -1.2503
  874MOL0     H20610   0.620   7.626   6.558  1.6365  0.5022 -0.0853
  874MOL0     H20611   0.598   7.798   6.609  0.8310 -0.6944 -0.5956
  874MOL0     H20612   0.476   7.693   6.656 -0.0025  0.3991 -0.7500
  875MOL0     O20613  10.916  10.007   4.821 -0.0601 -0.2502  0.2767
  875MOL0     C20614  10.918  10.104   4.746  0.8256  0.2703  0.2565
  875MOL0     O20615  10.927  10.240   4.770  0.1959 -0.1718 -0.3293
  875MOL0     C20616  10.938  10.282   4.905 -0.1433  0.0037 -0.4245
  875MOL0     C20617  10.834  10.348   4.976  0.5366 -0.3844  0.4701
  875MOL0     C20618  10.865  10.384   5.106  0.4564 -0.4960 -0.4591
  875MOL0     C20619  10.982  10.362   5.179 -0.5429  0.0625 -0.0608
  875MOL0     O20620  11.009  10.399   5.304 -0.6494 -0.6676  0.5725
  875MOL0     C20621  10.963  10.533   5.340  0.3453  0.0832  0.3706
  875MOL0     C20622  10.950  10.520   5.497 -0.3372 -0.1465  0.4228
  875MOL0     C20623  11.086  10.498   5.579  0.1781  0.1089  0.1137
  875MOL0     C20624  11.169  10.631   5.597 -0.2910  0.4205  0.4052
  875MOL0     C20625  11.302  10.615   5.683 -0.6846 -0.1272  1.1525
  875MOL0     C20626  11.368  10.754   5.687  0.6088  1.1691 -0.4134
  875MOL0     C20627  11.513  10.735   5.735 -0.4568 -0.7637 -0.2427
  875MOL0     C20628  11.583  10.869   5.742  0.2162  0.4631  0.9548
  875MOL0     N20629  11.723  10.873   5.796 -0.0776  0.4036 -0.1507
  875MOL0     C20630  11.765  10.902   5.928 -0.5573  0.4193 -0.0207
  875MOL0     C20631  11.904  10.914   5.915 -0.5970  0.1800 -0.3489
  875MOL0     C20632  11.980  10.963   6.035  0.7175 -0.0582 -0.6829
  875MOL0     C20633  12.104  11.050   6.018 -0.2109  0.2658  0.0244
  875MOL0     C20634  12.198  11.061   6.137  0.3347 -0.1809  0.5156
  875MOL0     C20635  12.330  11.129   6.105  0.8171 -0.4118 -0.1611
  875MOL0     O20636  12.431  11.035   6.052 -0.1322  0.0787  0.4186
  875MOL0     C20637  12.564  11.085   6.047  0.8900  0.7210  0.3394
  875MOL0     C20638  12.598  11.218   6.058  0.2195  0.1971  0.4246
  875MOL0     C20639  12.727  11.267   6.058  0.5361  0.3802 -0.0793
  875MOL0     C20640  12.746  11.416   6.076  0.5248 -1.3802 -0.7364
  875MOL0     C20641  12.835  11.166   6.052  0.5626 -0.3507 -0.8945
  875MOL0     C20642  12.971  11.193   6.076  0.6328 -0.5309 -0.6092
  875MOL0     O20643  13.064  11.098   6.057  0.6035 -0.4859  0.2337
  875MOL0     C20644  13.198  11.116   6.072  0.1859 -0.2702  0.6129
  875MOL0     C20645  13.270  11.122   5.955 -0.6730  0.2344 -0.6682
  875MOL0     C20646  13.407  11.146   5.963 -0.6029 -0.1047  0.0785
  875MOL0     C20647  13.472  11.178   6.086  0.1695 -0.6112  0.0814
  875MOL0     O20648  13.605  11.207   6.091  0.7491 -0.3510 -0.2594
  875MOL0     C20649  13.662  11.285   5.986 -0.0251 -0.1773 -0.3231
  875MOL0     C20650  13.803  11.330   6.037 -0.4115 -0.2270  0.0478
  875MOL0     C20651  13.892  11.403   5.934 -0.2820 -1.3203  0.9323
  875MOL0     C20652  13.984  11.521   5.979  0.2914  0.3992 -0.2195
  875MOL0     C20653  14.085  11.571   5.879 -0.4709 -0.1566  0.6828
  875MOL0     C20654  14.181  11.664   5.956 -0.0375  0.4268 -0.4844
  875MOL0     C20655  14.312  11.692   5.885 -0.4969 -0.2731  0.8445
  875MOL0     C20656  14.393  11.794   5.939 -0.3457 -0.2991  0.4608
  875MOL0    Cl20657  14.487  11.877   5.806  0.5444 -0.0544  0.1351
  875MOL0     C20658  13.398  11.171   6.201  0.0175 -0.3210  0.1574
  875MOL0     C20659  13.262  11.136   6.197  0.2555 -0.5197 -0.4147
  875MOL0     O20660  12.994  11.305   6.124 -0.6434  0.1024  0.9457
  875MOL0     C20661  12.796  11.027   6.028 -0.2022 -0.3375  0.6534
  875MOL0     C20662  12.662  10.991   6.029  0.9593  0.2352 -0.4349
  875MOL0     N20663  11.946  10.876   5.785  0.3874  0.4056 -1.5581
  875MOL0     N20664  11.832  10.855   5.721  0.5760  0.2480 -0.9736
  875MOL0     C20665  11.080  10.284   5.111 -0.1817  0.5653  0.2636
  875MOL0     C20666  11.053  10.254   4.973  0.5023 -0.3152  0.0393
  875MOL0     C20667  10.915  10.082   4.600  0.1426  0.3091 -0.0251
  875MOL0     C20668  10.823  10.144   4.513 -0.6790 -0.3196 -0.0620
  875MOL0     C20669  10.836  10.138   4.370 -0.0223 -0.2120  0.9823
  875MOL0     C20670  10.910  10.035   4.315 -0.5679 -0.2558 -0.4383
  875MOL0     O20671  10.919  10.003   4.181  0.4044 -0.0445 -0.3033
  875MOL0     C20672  10.842  10.076   4.083  0.4588 -0.9063 -0.9433
  875MOL0     C20673  10.695  10.023   4.083 -0.3805 -0.6543 -0.3200
  875MOL0     C20674  10.597  10.101   3.988 -0.4282 -0.3587 -0.0889
  875MOL0     C20675  10.449  10.071   4.018  0.6859  0.3975 -0.3275
  875MOL0     C20676  10.356  10.135   3.921  0.8149 -0.9340  0.1909
  875MOL0     C20677  10.274  10.176   3.839 -0.4250  0.9940  0.1836
  875MOL0     C20678  10.990   9.964   4.401  0.1815 -0.1864  0.0620
  875MOL0     C20679  10.998   9.984   4.538 -0.1578 -0.3732 -0.4024
  875MOL0     C20680  11.101   9.908   4.618 -0.7595  0.1518 -0.1357
  875MOL0     H20681  10.736  10.368   4.933 -0.5087 -0.1183  2.8063
  875MOL0     H20682  10.773  10.427   5.145  0.1335  0.9882 -2.6106
  875MOL0     H20683  10.864  10.556   5.299  1.4023  1.3824 -1.6465
  875MOL0     H20684  11.034  10.612   5.312  2.9399 -1.6611  1.5989
  875MOL0     H20685  10.909  10.614   5.535  2.8509  0.0164  4.1131
  875MOL0     H20686  10.881  10.436   5.504  0.5359 -1.3025 -2.9319
  875MOL0     H20687  11.060  10.448   5.673 -0.6704  1.0787  0.4201
  875MOL0     H20688  11.163  10.438   5.530  0.3637 -0.3745  0.9678
  875MOL0     H20689  11.188  10.665   5.495 -0.5191  2.0582  0.8644
  875MOL0     H20690  11.098  10.699   5.646 -1.8398 -0.8214 -0.0105
  875MOL0     H20691  11.362  10.540   5.630 -1.1816  1.2171 -1.4306
  875MOL0     H20692  11.283  10.596   5.790 -0.9789 -0.6429  1.0133
  875MOL0     H20693  11.360  10.800   5.588 -0.9231 -2.3530 -2.0750
  875MOL0     H20694  11.318  10.821   5.758  2.2046  0.3881  1.5238
  875MOL0     H20695  11.575  10.669   5.673  0.9002  0.8537 -0.6817
  875MOL0     H20696  11.511  10.694   5.837  1.2625 -1.4443 -0.4388
  875MOL0     H20697  11.586  10.915   5.642 -1.8014 -0.7781  0.2570
  875MOL0     H20698  11.524  10.939   5.801  0.6929  1.2761  0.4886
  875MOL0     H20699  11.693  10.917   6.008  0.8632  1.1916  1.1793
  875MOL0     H20700  12.014  10.874   6.089 -2.5463 -0.3133  1.2204
  875MOL0     H20701  11.919  11.019   6.107  1.4613  2.4936 -1.9244
  875MOL0     H20702  12.167  11.016   5.935 -0.9304  3.3721 -1.9709
  875MOL0     H20703  12.069  11.149   5.988 -0.9505 -0.0461 -0.1720
  875MOL0     H20704  12.148  11.113   6.219 -0.6470  0.7813 -0.6615
  875MOL0     H20705  12.223  10.960   6.170  0.9221  0.0100  0.6810
  875MOL0     H20706  12.310  11.216   6.042  4.3401  0.1860 -0.6420
  875MOL0     H20707  12.373  11.172   6.196  0.4964  0.1319 -0.2614
  875MOL0     H20708  12.529  11.301   6.071 -0.3760 -0.3346  0.6984
  875MOL0     H20709  12.792  11.453   6.167 -1.5714  0.7318 -0.4479
  875MOL0     H20710  12.649  11.464   6.060 -0.7010 -3.6121 -0.4026
  875MOL0     H20711  12.815  11.454   6.000 -0.0649  2.2017  0.3316
  875MOL0     H20712  13.212  11.110   5.864 -0.0434  3.9276 -1.7464
  875MOL0     H20713  13.463  11.142   5.870  1.3003  0.6807  1.1354
  875MOL0     H20714  13.671  11.232   5.890 -0.3052  0.6630 -0.8230
  875MOL0     H20715  13.588  11.363   5.964 -0.6958 -0.7668 -0.2174
  875MOL0     H20716  13.790  11.396   6.123 -2.5764  0.3616 -0.6857
  875MOL0     H20717  13.851  11.239   6.075  2.1517 -0.2502 -2.8433
  875MOL0     H20718  13.832  11.436   5.849  2.5224  0.6967 -0.4202
  875MOL0     H20719  13.963  11.331   5.892  1.4044  0.6413  0.2536
  875MOL0     H20720  14.050  11.483   6.057  1.7301 -1.6808 -2.3234
  875MOL0     H20721  13.916  11.602   6.007 -0.5253  0.0693 -1.1725
  875MOL0     H20722  14.141  11.486   5.838  0.6308  0.2011  1.3816
  875MOL0     H20723  14.039  11.621   5.794  0.0268  0.3515  0.7061
  875MOL0     H20724  14.198  11.639   6.061 -1.7188  0.4020 -0.1871
  875MOL0     H20725  14.128  11.760   5.960 -0.4312  0.2034 -0.2006
  875MOL0     H20726  14.283  11.724   5.785 -0.4134 -1.3743  0.4548
  875MOL0     H20727  14.377  11.603   5.882  3.0988  2.1689  0.2413
  875MOL0     H20728  14.455  11.751   6.019 -0.8681 -0.5427  0.7440
  875MOL0     H20729  14.328  11.871   5.982  0.9523  0.7119  0.6683
  875MOL0     H20730  13.452  11.189   6.293 -0.3958 -0.3938  0.4176
  875MOL0     H20731  13.196  11.133   6.283  0.0539 -1.7219 -0.6034
  875MOL0     H20732  12.877  10.955   6.021  0.0691  0.0464 -0.2318
  875MOL0     H20733  12.640  10.884   6.030 -1.5874  0.6918 -0.6804
  875MOL0     H20734  11.165  10.243   5.165 -1.0389 -1.3044  0.2485
  875MOL0     H20735  11.122  10.196   4.913 -0.5825 -3.1792  1.3839
  875MOL0     H20736  10.755  10.217   4.556  0.9966  0.5214  1.3018
  875MOL0     H20737  10.762  10.196   4.315 -0.6913 -0.9763  1.0571
  875MOL0     H20738  10.850  10.182   4.105 -0.6698 -0.7705 -1.1134
  875MOL0     H20739  10.886  10.061   3.984 -0.9969  0.2610 -1.8163
  875MOL0     H20740  10.660  10.025   4.187 -0.5179  3.9479 -0.2561
  875MOL0     H20741  10.693   9.922   4.040  0.5054 -1.1523  0.7485
  875MOL0     H20742  10.612  10.209   3.987 -2.1551 -0.0040 -3.8078
  875MOL0     H20743  10.623  10.081   3.883  1.1391 -0.7833  0.3422
  875MOL0     H20744  10.441  10.096   4.124  1.7372 -2.3245  0.4903
  875MOL0     H20745  10.431   9.964   4.005 -1.9147  0.9622 -2.4424
  875MOL0     H20746  10.206  10.219   3.769 -0.4645  0.2524 -0.2447
  875MOL0     H20747  11.052   9.884   4.362 -0.3609  0.1329 -1.5458
  875MOL0     H20748  11.163   9.835   4.565 -0.0710  1.0609 -0.6068
  875MOL0     H20749  11.161   9.984   4.668 -1.1806 -0.4447  1.2985
  875MOL0     H20750  11.033   9.848   4.678 -1.4168 -2.6244 -3.3153
  876MOL0     O20751   4.123   8.928   6.935 -0.2156  1.2989  0.0313
  876MOL0     C20752   4.031   9.003   6.964 -0.1269  0.1196 -0.0974
  876MOL0     O20753   4.013   9.058   7.085 -0.0134 -0.9452  0.0973
  876MOL0     C20754   4.093   9.010   7.179 -0.0157  0.1886  0.3126
  876MOL0     C20755   4.062   8.883   7.244  0.4260 -0.7370 -0.2171
  876MOL0     C20756   4.145   8.834   7.338 -0.2681 -0.4653  0.1281
  876MOL0     C20757   4.275   8.890   7.357 -0.3404  0.4043 -0.3177
  876MOL0     O20758   4.374   8.817   7.421  0.5449  0.1114  0.0032
  876MOL0     C20759   4.480   8.778   7.335 -0.2534 -0.6882  0.5412
  876MOL0     C20760   4.567   8.672   7.401 -0.4107 -0.1351  0.3605
  876MOL0     C20761   4.709   8.661   7.331  0.4589  0.1637 -0.0417
  876MOL0     C20762   4.694   8.658   7.178  0.0542  0.3990 -0.2464
  876MOL0     C20763   4.820   8.602   7.105  0.0747  0.0822 -0.6306
  876MOL0     C20764   4.944   8.697   7.091 -0.1147 -0.0666  0.3801
  876MOL0     C20765   5.057   8.652   6.995  0.3378 -0.8576 -0.7070
  876MOL0     C20766   5.102   8.512   7.004  0.4213 -0.5285  0.1306
  876MOL0     N20767   5.165   8.486   7.135  0.4640 -0.0372 -0.1550
  876MOL0     C20768   5.296   8.530   7.159 -0.1887  0.0690 -0.3717
  876MOL0     C20769   5.311   8.493   7.290 -0.3071 -0.4806 -0.7332
  876MOL0     C20770   5.441   8.508   7.358 -0.4930  0.0330  0.2012
  876MOL0     C20771   5.551   8.613   7.309  0.3910 -0.1058 -0.5468
  876MOL0     C20772   5.685   8.603   7.388  0.0682 -0.7149  0.6710
  876MOL0     C20773   5.730   8.461   7.403 -0.2324 -0.1725 -1.0545
  876MOL0     O20774   5.762   8.406   7.274 -0.3441 -0.1020  0.4800
  876MOL0     C20775   5.896   8.403   7.241  0.0049 -0.3727 -1.2103
  876MOL0     C20776   6.003   8.483   7.291  0.2437  0.5021  0.8083
  876MOL0     C20777   6.132   8.475   7.241 -0.5276 -0.7739 -0.6966
  876MOL0     C20778   6.230   8.572   7.311 -0.6218  0.3005 -0.5095
  876MOL0     C20779   6.162   8.386   7.140 -0.1030  0.4388  0.5290
  876MOL0     C20780   6.301   8.353   7.096 -0.1402  0.7610 -0.1417
  876MOL0     O20781   6.388   8.454   7.114 -0.1211 -0.1630 -0.3821
  876MOL0     C20782   6.519   8.431   7.096 -0.0094  0.0349  1.0131
  876MOL0     C20783   6.565   8.394   6.967 -0.6519 -0.2603  0.4354
  876MOL0     C20784   6.700   8.365   6.942  0.0561 -0.1927  0.2996
  876MOL0     C20785   6.795   8.376   7.039  0.1898  0.1930  0.2619
  876MOL0     O20786   6.928   8.342   7.016  0.3057 -0.0945  0.5127
  876MOL0     C20787   6.970   8.317   6.882 -0.0293 -0.5918 -0.2677
  876MOL0     C20788   7.116   8.270   6.897 -0.7363  0.2660  0.3384
  876MOL0     C20789   7.199   8.286   6.776  0.1228 -0.3902 -0.3207
  876MOL0     C20790   7.335   8.218   6.793  0.1183 -0.7904 -0.4504
  876MOL0     C20791   7.435   8.209   6.670  0.5859 -0.0026 -0.0471
  876MOL0     C20792   7.377   8.132   6.555  0.3574 -0.0875  0.3549
  876MOL0     C20793   7.488   8.114   6.445 -0.5421  0.7512 -0.3119
  876MOL0     C20794   7.559   7.979   6.471  0.5972  0.0015 -0.8071
  876MOL0    Cl20795   7.684   7.937   6.338  0.1405  0.0378  0.0145
  876MOL0     C20796   6.751   8.407   7.166  0.2701 -0.2028 -0.3182
  876MOL0     C20797   6.613   8.436   7.193  0.3780 -0.2131  1.0156
  876MOL0     O20798   6.328   8.237   7.061  0.1438 -0.3089  0.0679
  876MOL0     C20799   6.061   8.316   7.079  0.0256  0.1912  0.3770
  876MOL0     C20800   5.931   8.318   7.136 -0.4221 -0.4223 -0.3241
  876MOL0     N20801   5.189   8.450   7.341 -0.6010  0.4470  0.0623
  876MOL0     N20802   5.107   8.427   7.244  1.0842 -0.8281 -0.0604
  876MOL0     C20803   4.300   9.025   7.313  0.8333 -0.0317  0.0403
  876MOL0     C20804   4.203   9.088   7.223 -0.5903  1.2536  0.3966
  876MOL0     C20805   3.940   9.038   6.855 -0.2580  0.6704 -0.0994
  876MOL0     C20806   3.863   9.148   6.880  0.3072 -0.1892  0.6588
  876MOL0     C20807   3.768   9.189   6.790 -0.1247 -0.1787  0.3062
  876MOL0     C20808   3.754   9.133   6.659  0.0568  0.0864 -0.2643
  876MOL0     O20809   3.664   9.180   6.564  0.7693 -0.0602  0.2809
  876MOL0     C20810   3.570   9.281   6.609 -0.2636  0.1416 -0.6765
  876MOL0     C20811   3.447   9.282   6.522  0.2465  0.3741  0.0977
  876MOL0     C20812   3.477   9.341   6.385  0.1780  0.3990  0.1634
  876MOL0     C20813   3.361   9.314   6.292 -0.8568 -0.2291 -0.1517
  876MOL0     C20814   3.400   9.363   6.155 -0.0919  0.7026 -0.4475
  876MOL0     C20815   3.414   9.416   6.049  0.5831 -0.3550  0.7441
  876MOL0     C20816   3.832   9.020   6.629  1.1338  0.1604 -1.0091
  876MOL0     C20817   3.926   8.971   6.725  0.6298 -0.0632 -0.4774
  876MOL0     C20818   4.003   8.850   6.682 -0.1670  0.3785 -0.5756
  876MOL0     H20819   3.975   8.830   7.207  1.0875 -1.1127 -1.2863
  876MOL0     H20820   4.120   8.738   7.383 -1.1591 -0.5774 -0.5779
  876MOL0     H20821   4.538   8.865   7.305  2.8346 -1.4873  3.4617
  876MOL0     H20822   4.443   8.739   7.240  2.6379 -3.8452  0.5238
  876MOL0     H20823   4.598   8.701   7.501  3.9144 -0.9480 -0.5566
  876MOL0     H20824   4.508   8.581   7.411  1.3066 -1.2929  0.2013
  876MOL0     H20825   4.770   8.750   7.351 -2.5149  2.1939  0.7638
  876MOL0     H20826   4.759   8.569   7.363  1.5722 -0.4573 -3.1540
  876MOL0     H20827   4.606   8.602   7.145  1.1791 -0.7305 -1.3738
  876MOL0     H20828   4.678   8.763   7.149  0.2631  0.5131  0.0415
  876MOL0     H20829   4.786   8.569   7.006 -0.9033  0.1530 -0.3280
  876MOL0     H20830   4.853   8.513   7.159 -2.1616 -2.0231 -2.4905
  876MOL0     H20831   4.914   8.798   7.064  2.3278  0.7845  0.6330
  876MOL0     H20832   4.981   8.700   7.193  1.4262 -0.2718 -0.1500
  876MOL0     H20833   5.137   8.725   7.010  0.5841 -0.9929 -1.3282
  876MOL0     H20834   5.028   8.662   6.890 -0.0349  0.7728 -0.4706
  876MOL0     H20835   5.013   8.451   6.989 -0.3043  0.7912 -1.2599
  876MOL0     H20836   5.177   8.488   6.928  2.0445  1.0830  1.1528
  876MOL0     H20837   5.367   8.575   7.091 -1.9103  2.4085 -0.7571
  876MOL0     H20838   5.487   8.409   7.363  2.1036  1.1926  1.0121
  876MOL0     H20839   5.415   8.539   7.460 -1.1906 -0.6556  0.2521
  876MOL0     H20840   5.576   8.590   7.205  0.5694 -0.0998 -0.5041
  876MOL0     H20841   5.516   8.717   7.316 -0.4921 -0.2672 -1.9938
  876MOL0     H20842   5.754   8.657   7.322 -1.3036 -0.4760 -0.6036
  876MOL0     H20843   5.672   8.650   7.486  0.0139 -1.2065  0.9056
  876MOL0     H20844   5.817   8.459   7.469 -1.2270  0.5315  0.3327
  876MOL0     H20845   5.657   8.396   7.453 -0.7728  0.4751 -0.9893
  876MOL0     H20846   5.979   8.553   7.371 -0.0012  1.9266 -0.4590
  876MOL0     H20847   6.287   8.630   7.238  0.4649  1.2860  1.0697
  876MOL0     H20848   6.306   8.529   7.377 -0.2604 -0.3159 -1.3094
  876MOL0     H20849   6.171   8.636   7.378 -1.8152 -3.1080  1.9323
  876MOL0     H20850   6.485   8.381   6.895 -0.6376 -0.5374  0.4698
  876MOL0     H20851   6.730   8.326   6.845 -0.6632  0.4438 -0.1872
  876MOL0     H20852   6.910   8.240   6.832 -3.0470  1.1412  0.4382
  876MOL0     H20853   6.964   8.407   6.820  0.0239 -1.5137 -1.6596
  876MOL0     H20854   7.167   8.339   6.966 -2.4865  2.8730 -0.8052
  876MOL0     H20855   7.118   8.170   6.941 -0.6854  0.8686  1.7770
  876MOL0     H20856   7.208   8.390   6.745 -1.4658  0.8117  2.7552
  876MOL0     H20857   7.156   8.228   6.694 -2.3317  2.0420 -0.8903
  876MOL0     H20858   7.324   8.116   6.831  0.6797 -0.1584  1.5226
  876MOL0     H20859   7.387   8.269   6.875 -1.4092  0.2602 -0.1051
  876MOL0     H20860   7.460   8.314   6.651  0.9493 -0.0854 -0.0307
  876MOL0     H20861   7.520   8.156   6.713 -0.8652 -3.0568 -0.7268
  876MOL0     H20862   7.285   8.175   6.516  0.6036  1.3119  1.2581
  876MOL0     H20863   7.343   8.033   6.587  0.5441 -0.2593  0.0357
  876MOL0     H20864   7.559   8.196   6.433 -0.6315  0.8975  0.1686
  876MOL0     H20865   7.439   8.104   6.348 -2.2852 -3.5469  0.7645
  876MOL0     H20866   7.475   7.909   6.480  0.1772  0.5612 -0.3575
  876MOL0     H20867   7.614   7.981   6.566  0.0712  2.0880 -0.5138
  876MOL0     H20868   6.825   8.411   7.245 -0.4749 -1.3942  0.4768
  876MOL0     H20869   6.578   8.460   7.293 -1.2779 -0.4361  0.5186
  876MOL0     H20870   6.070   8.246   6.997 -2.8616  1.0807 -0.8342
  876MOL0     H20871   5.850   8.263   7.089 -2.3631  2.5273 -0.6434
  876MOL0     H20872   4.392   9.078   7.335  0.7381  0.0457  0.2500
  876MOL0     H20873   4.235   9.184   7.184  1.4297 -0.0997 -1.4893
  876MOL0     H20874   3.870   9.216   6.965  3.5696 -0.0546  0.4301
  876MOL0     H20875   3.703   9.272   6.817 -1.9644 -1.2070 -0.8226
  876MOL0     H20876   3.531   9.266   6.710  1.0041  1.3333  0.0269
  876MOL0     H20877   3.614   9.381   6.604  2.0461 -0.8699 -2.7242
  876MOL0     H20878   3.363   9.335   6.567 -1.4096 -0.4980 -1.7667
  876MOL0     H20879   3.414   9.178   6.507 -0.1712  0.6130 -0.7140
  876MOL0     H20880   3.494   9.449   6.397 -0.1935  0.5111 -0.2988
  876MOL0     H20881   3.562   9.288   6.340 -1.8794 -1.2966 -1.9876
  876MOL0     H20882   3.270   9.364   6.327 -3.1049 -2.8181 -1.8288
  876MOL0     H20883   3.341   9.207   6.281 -0.7635 -0.1530 -1.1690
  876MOL0     H20884   3.433   9.485   5.969  1.3543  0.0207  1.2391
  876MOL0     H20885   3.815   8.970   6.534 -1.7116 -1.2161  0.0969
  876MOL0     H20886   4.011   8.776   6.762  0.3102  0.2359 -0.7543
  876MOL0     H20887   3.945   8.810   6.598  1.0369  2.2728 -2.4269
  876MOL0     H20888   4.104   8.858   6.640  0.7986 -0.3251  1.4574
  877MOL0     O20889   9.081   6.436   8.862  0.5309 -0.2059 -0.0344
  877MOL0     C20890   9.026   6.329   8.867  0.1331  0.3132  0.0437
  877MOL0     O20891   9.090   6.215   8.908 -0.8660  0.8889  0.1907
  877MOL0     C20892   9.224   6.215   8.882 -0.6069  0.0751  0.2569
  877MOL0     C20893   9.283   6.211   8.758  0.7860  0.8022 -0.0323
  877MOL0     C20894   9.423   6.203   8.738  0.2221  0.3292  0.4086
  877MOL0     C20895   9.501   6.211   8.849 -0.8794  0.0525 -0.7088
  877MOL0     O20896   9.643   6.207   8.845 -0.2401 -0.6075 -0.5870
  877MOL0     C20897   9.705   6.229   8.713  0.1609 -0.1494  0.2931
  877MOL0     C20898   9.855   6.220   8.722 -1.2319 -0.6168  0.6933
  877MOL0     C20899   9.918   6.335   8.785  0.3550  0.4006  0.2530
  877MOL0     C20900  10.067   6.330   8.759  0.2112 -0.1895 -0.5564
  877MOL0     C20901  10.148   6.420   8.864  0.8246 -1.0110  0.0217
  877MOL0     C20902  10.297   6.414   8.834  0.0714 -1.3382 -0.4307
  877MOL0     C20903  10.337   6.505   8.720 -0.4773 -0.4005 -0.6832
  877MOL0     C20904  10.489   6.507   8.714  1.0704  0.2324 -0.0668
  877MOL0     N20905  10.543   6.563   8.589  0.3723  0.7985  0.6248
  877MOL0     C20906  10.505   6.682   8.529  0.2599 -0.5747  0.4660
  877MOL0     C20907  10.541   6.680   8.397 -0.0470  0.2031 -0.3404
  877MOL0     C20908  10.524   6.793   8.289 -0.2885 -0.5650 -0.2409
  877MOL0     C20909  10.633   6.898   8.296 -0.9293  0.0088 -0.5815
  877MOL0     C20910  10.640   6.989   8.170 -0.1052 -0.5008 -0.5686
  877MOL0     C20911  10.767   7.080   8.166  0.1579 -0.2857  0.3099
  877MOL0     O20912  10.886   6.999   8.143 -0.1368  0.2473 -0.1212
  877MOL0     C20913  11.002   7.075   8.156 -0.5254  0.4325  0.1080
  877MOL0     C20914  11.009   7.220   8.164  0.0533 -0.2696 -0.9852
  877MOL0     C20915  11.132   7.288   8.162 -0.3802  0.5536 -0.8981
  877MOL0     C20916  11.122   7.436   8.188  0.4713 -0.7189 -0.2306
  877MOL0     C20917  11.250   7.204   8.154 -0.3963 -1.1119 -0.0559
  877MOL0     C20918  11.391   7.269   8.147  0.2277  0.3440 -0.3568
  877MOL0     O20919  11.497   7.190   8.175 -0.0689  0.2248 -0.2579
  877MOL0     C20920  11.622   7.222   8.128 -0.0053 -0.0980  0.4265
  877MOL0     C20921  11.675   7.142   8.030 -0.0490  0.6056 -0.3753
  877MOL0     C20922  11.798   7.186   7.973 -0.3862  0.6646  0.4467
  877MOL0     C20923  11.861   7.302   8.005 -0.5029  0.5174 -0.9903
  877MOL0     O20924  11.975   7.355   7.942  0.3461 -0.5582  0.3791
  877MOL0     C20925  11.996   7.308   7.804  0.2023 -0.1496 -0.1061
  877MOL0     C20926  12.113   7.376   7.743 -0.0249 -0.4196  0.3162
  877MOL0     C20927  12.249   7.312   7.791 -0.6020  0.2802  0.2127
  877MOL0     C20928  12.367   7.363   7.706 -0.0891  0.8882  0.1367
  877MOL0     C20929  12.506   7.314   7.738 -0.8337  0.7045 -0.7819
  877MOL0     C20930  12.548   7.330   7.888  0.4097  0.6067  0.2015
  877MOL0     C20931  12.699   7.303   7.910  0.0439  0.4618  0.4130
  877MOL0     C20932  12.786   7.427   7.899 -0.4446 -0.3789  0.1171
  877MOL0    Cl20933  12.953   7.403   7.886  0.1829  0.1963 -0.4284
  877MOL0     C20934  11.812   7.379   8.120  0.1350  1.0778  0.2401
  877MOL0     C20935  11.689   7.340   8.167  0.6796  0.1219 -0.2113
  877MOL0     O20936  11.395   7.382   8.104 -0.5967 -0.0391 -0.3257
  877MOL0     C20937  11.244   7.069   8.144 -0.1080 -0.0957  0.1396
  877MOL0     C20938  11.118   7.003   8.148 -0.3306 -0.9361  0.4648
  877MOL0     N20939  10.615   6.558   8.377 -0.3614 -0.4863  0.1531
  877MOL0     N20940  10.616   6.492   8.495  0.2873 -0.6746  0.2695
  877MOL0     C20941   9.446   6.205   8.972 -0.9239  0.1903 -0.9740
  877MOL0     C20942   9.308   6.203   8.991  0.6242  0.6842  0.6727
  877MOL0     C20943   8.882   6.320   8.849  0.2731 -0.8741  0.1915
  877MOL0     C20944   8.810   6.228   8.925  0.2148 -0.4677 -0.3715
  877MOL0     C20945   8.670   6.223   8.927 -1.0495  0.0967  0.2637
  877MOL0     C20946   8.597   6.324   8.856 -0.5544  0.0602 -0.2256
  877MOL0     O20947   8.458   6.335   8.855 -0.3705  0.4982  0.4479
  877MOL0     C20948   8.385   6.243   8.939  0.6815  0.7945 -0.0797
  877MOL0     C20949   8.235   6.272   8.947  0.3669 -0.0270 -0.3123
  877MOL0     C20950   8.156   6.182   9.041  0.2851  0.5691  0.5094
  877MOL0     C20951   8.165   6.039   9.006  0.5381 -0.4202  0.3081
  877MOL0     C20952   8.261   5.973   9.094  0.5697  0.0007  0.2455
  877MOL0     C20953   8.351   5.927   9.156 -1.0638  0.2309  0.4092
  877MOL0     C20954   8.672   6.415   8.776 -0.4906  0.0312  0.2749
  877MOL0     C20955   8.813   6.413   8.772 -0.1899  0.5273 -0.0291
  877MOL0     C20956   8.870   6.515   8.679 -0.2172  0.3629 -0.8246
  877MOL0     H20957   9.222   6.233   8.671  0.4518  0.1906  0.0454
  877MOL0     H20958   9.459   6.199   8.635 -1.1062 -0.6533 -0.0485
  877MOL0     H20959   9.663   6.318   8.666 -0.8828 -0.6673  0.2313
  877MOL0     H20960   9.688   6.137   8.658  0.6104  0.0917 -0.2563
  877MOL0     H20961   9.892   6.134   8.779  2.2919  1.3733  1.7214
  877MOL0     H20962   9.896   6.206   8.622  3.7685 -2.0762  2.6484
  877MOL0     H20963   9.881   6.429   8.743  2.0376 -0.0449 -2.4188
  877MOL0     H20964   9.900   6.336   8.893  0.6826 -2.1447  0.3977
  877MOL0     H20965  10.121   6.235   8.755  1.9702  0.8045 -1.7129
  877MOL0     H20966  10.074   6.363   8.655 -1.2304 -1.6301 -1.1539
  877MOL0     H20967  10.124   6.391   8.967  0.9730 -1.1326  0.0224
  877MOL0     H20968  10.110   6.523   8.857  0.8110 -0.9770  0.5498
  877MOL0     H20969  10.355   6.437   8.923  1.4269  1.5249 -1.9430
  877MOL0     H20970  10.325   6.313   8.802 -1.8011 -1.7900 -0.7829
  877MOL0     H20971  10.310   6.609   8.736  3.0662  0.5480 -0.1171
  877MOL0     H20972  10.306   6.469   8.621 -2.9344 -0.7792  0.1542
  877MOL0     H20973  10.535   6.555   8.801  0.1489  0.5764  0.2423
  877MOL0     H20974  10.523   6.403   8.718 -0.5613 -0.3162 -0.0075
  877MOL0     H20975  10.473   6.772   8.581 -0.2159 -0.9549  0.8440
  877MOL0     H20976  10.424   6.836   8.304 -0.5060 -1.5007  1.1801
  877MOL0     H20977  10.527   6.758   8.186 -0.8705  1.8235 -1.1415
  877MOL0     H20978  10.604   6.956   8.384 -1.4159  1.8139 -1.8554
  877MOL0     H20979  10.730   6.850   8.313 -1.5116 -0.7630  0.6504
  877MOL0     H20980  10.661   6.927   8.083  1.3784  2.0496 -2.1552
  877MOL0     H20981  10.544   7.041   8.164 -0.0292 -0.4726 -1.8289
  877MOL0     H20982  10.753   7.143   8.077 -0.9849 -1.0221 -0.0617
  877MOL0     H20983  10.771   7.135   8.260  0.4445 -0.9976  0.7148
  877MOL0     H20984  10.915   7.274   8.161 -1.1320 -1.9433  1.8799
  877MOL0     H20985  11.187   7.453   8.274  1.7889 -4.1892 -0.3842
  877MOL0     H20986  11.021   7.461   8.220  0.8357 -1.2683  1.4246
  877MOL0     H20987  11.154   7.497   8.102 -1.3253 -0.8839 -1.0633
  877MOL0     H20988  11.634   7.043   8.016 -0.2883  0.5200  0.8451
  877MOL0     H20989  11.853   7.121   7.907 -0.3961  2.0465 -0.9631
  877MOL0     H20990  12.016   7.201   7.812 -1.6275 -0.3617  3.2804
  877MOL0     H20991  11.908   7.322   7.740  1.8475 -1.0368 -2.7350
  877MOL0     H20992  12.126   7.372   7.634  2.5242 -2.0158  0.6004
  877MOL0     H20993  12.103   7.482   7.766 -0.5834 -0.9919  3.0416
  877MOL0     H20994  12.248   7.205   7.772 -0.8246  0.6118 -1.7915
  877MOL0     H20995  12.260   7.331   7.899 -3.9149  0.0516  0.6804
  877MOL0     H20996  12.370   7.472   7.712  2.5662  0.8100  2.2051
  877MOL0     H20997  12.350   7.346   7.599 -1.6362 -0.7527  0.5974
  877MOL0     H20998  12.508   7.206   7.719 -1.8272  0.9013 -2.1268
  877MOL0     H20999  12.578   7.363   7.672 -2.5454  1.6387 -2.0619
  877MOL0     H21000  12.485   7.257   7.940  1.2094 -1.3360 -1.4326
  877MOL0     H21001  12.530   7.434   7.919 -0.5711  1.0010 -1.5969
  877MOL0     H21002  12.730   7.226   7.839 -1.6734 -1.1336  1.2986
  877MOL0     H21003  12.727   7.262   8.008  1.7031  0.1742 -0.1525
  877MOL0     H21004  12.765   7.489   7.986 -2.3097 -1.0034  0.1435
  877MOL0     H21005  12.764   7.476   7.803  0.2371  0.3603  0.3304
  877MOL0     H21006  11.858   7.470   8.157  3.1305  0.1834 -0.9697
  877MOL0     H21007  11.630   7.408   8.229  2.1250  0.4365  0.8544
  877MOL0     H21008  11.339   7.018   8.139  0.5564  0.6262  3.2328
  877MOL0     H21009  11.106   6.896   8.138 -0.5177 -0.7809 -1.1802
  877MOL0     H21010   9.507   6.204   9.061 -1.1218 -1.1387 -0.8218
  877MOL0     H21011   9.281   6.194   9.096  2.2872 -2.1420  0.9664
  877MOL0     H21012   8.857   6.148   8.982 -1.8496 -0.3264  1.6974
  877MOL0     H21013   8.630   6.144   8.989  3.8291 -1.1005  2.3413
  877MOL0     H21014   8.399   6.144   8.896 -2.6649 -0.8475  2.2441
  877MOL0     H21015   8.426   6.240   9.040  0.0519  0.2178  0.1612
  877MOL0     H21016   8.192   6.267   8.846  1.1525 -1.1380 -0.6098
  877MOL0     H21017   8.209   6.371   8.985 -3.2371 -1.8499  2.5635
  877MOL0     H21018   8.173   6.210   9.146  3.4523 -3.6941  1.4153
  877MOL0     H21019   8.052   6.209   9.018  0.5794  0.6810 -0.7824
  877MOL0     H21020   8.189   6.027   8.900  1.0073  0.4681  0.3056
  877MOL0     H21021   8.069   5.988   9.017 -0.2987  0.3037 -2.7333
  877MOL0     H21022   8.438   5.886   9.204 -0.7027  2.7657  2.1441
  877MOL0     H21023   8.627   6.485   8.706  3.1695  1.2805 -1.0522
  877MOL0     H21024   8.971   6.494   8.641  0.1224 -0.8396  0.6069
  877MOL0     H21025   8.808   6.507   8.590 -2.2158 -2.0218  0.6455
  877MOL0     H21026   8.877   6.614   8.724  1.4619 -0.7860  1.7017
  878MOL0     O21027   5.747   2.564   0.346  1.0732 -0.3416  0.3002
  878MOL0     C21028   5.753   2.441   0.372 -0.1495  0.5192  0.1747
  878MOL0     O21029   5.872   2.379   0.384 -0.0024  0.4995 -0.4939
  878MOL0     C21030   5.985   2.457   0.365  0.1716 -0.4864  0.6772
  878MOL0     C21031   6.007   2.522   0.240  1.4488  0.0501 -0.6505
  878MOL0     C21032   6.128   2.591   0.221 -0.7347  0.3137 -0.0182
  878MOL0     C21033   6.225   2.590   0.315 -0.3137 -0.4367  0.1290
  878MOL0     O21034   6.347   2.652   0.280  0.2374  0.7260 -0.3400
  878MOL0     C21035   6.401   2.730   0.373  0.7402 -0.0502 -0.5702
  878MOL0     C21036   6.526   2.799   0.317 -0.2432  0.1394  0.3662
  878MOL0     C21037   6.513   2.870   0.184 -0.2683 -0.0804  0.4402
  878MOL0     C21038   6.432   2.997   0.204  0.8834  0.6029  0.5484
  878MOL0     C21039   6.410   3.061   0.067  0.5368 -0.3798 -0.8177
  878MOL0     C21040   6.545   3.130   0.016  0.5053 -1.3606 -0.6285
  878MOL0     C21041   6.515   3.196  -0.120  0.2720  0.4043 -0.2086
  878MOL0     C21042   6.633   3.291  -0.164  0.9228 -0.5807  0.2367
  878MOL0     N21043   6.749   3.223  -0.214 -0.2793 -0.0927 -0.4396
  878MOL0     C21044   6.760   3.120  -0.304  0.6958  0.4096  0.4112
  878MOL0     C21045   6.894   3.091  -0.316 -0.2526  0.5137  0.5610
  878MOL0     C21046   6.949   2.979  -0.398 -0.2941 -0.2845  0.8751
  878MOL0     C21047   7.097   2.987  -0.439 -0.4874 -0.5924  0.3624
  878MOL0     C21048   7.136   3.112  -0.510  1.3451 -0.3524  0.3135
  878MOL0     C21049   7.275   3.112  -0.562 -0.2379  0.3472  0.2643
  878MOL0     O21050   7.302   2.990  -0.637  0.1937 -0.0882  0.2402
  878MOL0     C21051   7.407   2.993  -0.722 -0.5054 -0.5478 -0.0433
  878MOL0     C21052   7.423   2.880  -0.800 -0.2439 -0.0339  0.2824
  878MOL0     C21053   7.517   2.871  -0.896 -1.2787  0.0629  0.8603
  878MOL0     C21054   7.528   2.734  -0.960  0.0839 -0.1140 -0.1214
  878MOL0     C21055   7.602   2.982  -0.922 -0.1051  0.5553  0.5582
  878MOL0     C21056   7.699   2.967  -1.027 -0.6961  0.5011 -0.0883
  878MOL0     O21057   7.824   3.033  -1.003 -0.0512  0.0277  0.3418
  878MOL0     C21058   7.925   3.012  -1.085 -0.4111 -0.7167 -0.1377
  878MOL0     C21059   8.053   2.999  -1.040  0.1037 -0.1184 -0.0737
  878MOL0     C21060   8.169   3.017  -1.113  0.1181  0.7813  0.9112
  878MOL0     C21061   8.155   3.052  -1.248  0.8657  0.4718  0.8641
  878MOL0     O21062   8.264   3.067  -1.330 -0.0033 -0.3203 -0.1953
  878MOL0     C21063   8.397   3.044  -1.281  0.2832  0.0433  0.8242
  878MOL0     C21064   8.500   3.060  -1.398 -0.5155 -0.2594  0.0134
  878MOL0     C21065   8.602   3.169  -1.367 -0.0213  0.2246 -0.4477
  878MOL0     C21066   8.728   3.181  -1.462 -0.0307  0.7149 -0.2406
  878MOL0     C21067   8.833   3.276  -1.408 -0.2794  0.4688  0.3831
  878MOL0     C21068   8.784   3.429  -1.402 -0.6936  0.8601 -0.0387
  878MOL0     C21069   8.812   3.513  -1.531 -0.3293 -0.4576  0.4620
  878MOL0     C21070   8.719   3.632  -1.548  0.0462 -0.3010  0.0496
  878MOL0    Cl21071   8.547   3.583  -1.556  0.0128 -0.0511 -0.2852
  878MOL0     C21072   8.025   3.065  -1.306  0.0351 -0.0549 -0.5003
  878MOL0     C21073   7.917   3.053  -1.221 -0.0531 -0.5607 -0.5015
  878MOL0     O21074   7.671   2.911  -1.132  0.2489 -0.1861  0.2612
  878MOL0     C21075   7.604   3.086  -0.831  0.2286  0.1817  0.4005
  878MOL0     C21076   7.508   3.085  -0.726 -0.9551 -0.7447 -0.0927
  878MOL0     N21077   6.960   3.188  -0.245  0.0545  0.6015  0.4818
  878MOL0     N21078   6.876   3.254  -0.181 -0.7511  0.0189 -0.2469
  878MOL0     C21079   6.188   2.546   0.448 -0.3150  0.7984  0.1235
  878MOL0     C21080   6.081   2.472   0.463  0.2292  0.2638  0.6725
  878MOL0     C21081   5.617   2.376   0.405  0.6058  1.1088  0.1318
  878MOL0     C21082   5.502   2.436   0.362 -0.1988 -0.0377 -0.1257
  878MOL0     C21083   5.374   2.387   0.397 -0.8524  0.1747 -0.3746
  878MOL0     C21084   5.364   2.279   0.488  1.1142 -0.1142  0.6595
  878MOL0     O21085   5.239   2.235   0.526 -0.0626  0.1857  0.4004
  878MOL0     C21086   5.119   2.309   0.481  0.0018  0.0300 -0.5574
  878MOL0     C21087   4.986   2.254   0.527 -0.4718 -0.6834 -0.5572
  878MOL0     C21088   4.856   2.293   0.450 -0.0300  0.0406 -0.1750
  878MOL0     C21089   4.754   2.192   0.467 -0.0181 -0.1188 -0.4455
  878MOL0     C21090   4.724   2.162   0.609  0.5191 -0.2176  0.0491
  878MOL0     C21091   4.712   2.157   0.731  0.2695  0.2808 -0.7255
  878MOL0     C21092   5.482   2.211   0.525  0.4469  0.8438 -0.3433
  878MOL0     C21093   5.603   2.254   0.478 -0.3079  0.4869 -0.0794
  878MOL0     C21094   5.737   2.180   0.512  0.2692 -0.0741 -0.9275
  878MOL0     H21095   5.927   2.532   0.167  1.8381  0.7237 -0.9958
  878MOL0     H21096   6.149   2.620   0.119 -0.9943 -1.2456 -0.5543
  878MOL0     H21097   6.427   2.669   0.460  2.5902  0.9725 -0.3652
  878MOL0     H21098   6.332   2.810   0.400  0.2226 -0.8400  0.5250
  878MOL0     H21099   6.544   2.871   0.396 -0.3917  0.1934  0.3516
  878MOL0     H21100   6.617   2.739   0.325  0.4544  1.1219 -0.0457
  878MOL0     H21101   6.613   2.886   0.142 -1.5446 -1.7044 -3.7760
  878MOL0     H21102   6.467   2.807   0.107  1.6376  0.7967 -1.5390
  878MOL0     H21103   6.344   2.966   0.261  2.3877 -0.9343  2.1636
  878MOL0     H21104   6.490   3.069   0.262  0.3063  0.8095  0.8821
  878MOL0     H21105   6.328   3.133   0.077 -1.8483 -3.1428  1.8491
  878MOL0     H21106   6.387   2.985  -0.008  3.6632 -2.2376 -0.0830
  878MOL0     H21107   6.573   3.216   0.077 -0.6977 -0.7987 -0.8372
  878MOL0     H21108   6.624   3.055   0.008 -1.2037 -3.1651 -1.4082
  878MOL0     H21109   6.426   3.259  -0.121 -0.0569 -0.0506 -0.1639
  878MOL0     H21110   6.500   3.116  -0.194  0.5122  0.1768 -0.0118
  878MOL0     H21111   6.604   3.362  -0.242 -0.7028 -0.3692  0.9986
  878MOL0     H21112   6.654   3.355  -0.077 -2.7065  0.1066  0.7459
  878MOL0     H21113   6.679   3.057  -0.340 -0.5065  0.7173  2.4069
  878MOL0     H21114   6.891   2.967  -0.490  0.1242  0.4541  0.5001
  878MOL0     H21115   6.935   2.883  -0.348 -2.3405  0.0869  1.1082
  878MOL0     H21116   7.160   2.972  -0.350 -0.0042 -0.3659  0.0653
  878MOL0     H21117   7.131   2.906  -0.505 -0.2551 -0.0092 -0.2508
  878MOL0     H21118   7.074   3.116  -0.600  0.7565 -1.1386  0.6747
  878MOL0     H21119   7.119   3.199  -0.446  0.2250 -0.2741 -0.0700
  878MOL0     H21120   7.296   3.203  -0.619  1.6777 -1.1440 -1.5534
  878MOL0     H21121   7.338   3.121  -0.473 -0.0049  3.0992 -0.0812
  878MOL0     H21122   7.353   2.801  -0.776  1.2091 -0.7482  2.4130
  878MOL0     H21123   7.482   2.726  -1.059  0.6977  0.4820 -0.4598
  878MOL0     H21124   7.479   2.669  -0.887 -0.8623 -0.0730 -0.7011
  878MOL0     H21125   7.630   2.699  -0.976  0.8567  2.4141 -1.3028
  878MOL0     H21126   8.073   3.012  -0.934  1.5253  1.1652 -0.4680
  878MOL0     H21127   8.261   3.021  -1.055  1.9572 -1.9899 -1.5096
  878MOL0     H21128   8.423   3.118  -1.205  0.0824  0.9338  0.0543
  878MOL0     H21129   8.398   2.941  -1.245 -0.7361 -1.2499 -2.4873
  878MOL0     H21130   8.557   2.972  -1.430  0.3293  0.9082 -1.8852
  878MOL0     H21131   8.445   3.101  -1.483 -4.7856 -1.8324  1.7357
  878MOL0     H21132   8.640   3.156  -1.265  0.1256 -0.7397 -0.6186
  878MOL0     H21133   8.542   3.260  -1.377  0.7585  0.9703  1.2508
  878MOL0     H21134   8.694   3.222  -1.558  0.3311  3.7524  0.8263
  878MOL0     H21135   8.772   3.080  -1.461 -0.2193  0.5534  3.0700
  878MOL0     H21136   8.844   3.234  -1.308 -0.0480  2.3109  1.1698
  878MOL0     H21137   8.927   3.277  -1.464 -0.8889  2.2412 -0.7054
  878MOL0     H21138   8.828   3.473  -1.313 -1.6120 -0.4777  1.1132
  878MOL0     H21139   8.678   3.426  -1.375 -0.6433  0.0535  0.0808
  878MOL0     H21140   8.804   3.447  -1.617  1.6017 -1.2696  0.8396
  878MOL0     H21141   8.913   3.556  -1.534 -1.3031  2.2501  2.1000
  878MOL0     H21142   8.754   3.694  -1.630  1.5814  1.3644  1.8886
  878MOL0     H21143   8.733   3.692  -1.458  0.5266 -0.6115  0.1848
  878MOL0     H21144   8.017   3.097  -1.410 -0.5365 -0.9751 -0.7501
  878MOL0     H21145   7.816   3.070  -1.256 -0.0536 -0.3657 -0.4092
  878MOL0     H21146   7.672   3.171  -0.836 -1.3661  1.4998  0.1800
  878MOL0     H21147   7.525   3.158  -0.648  2.3569  0.3563 -1.6624
  878MOL0     H21148   6.259   2.563   0.529  1.7695 -1.4298 -1.1238
  878MOL0     H21149   6.078   2.422   0.559 -0.9405 -2.5234 -0.6982
  878MOL0     H21150   5.518   2.521   0.295 -1.3272  1.0511  0.9401
  878MOL0     H21151   5.286   2.442   0.367 -1.0341  3.2647  4.7126
  878MOL0     H21152   5.133   2.414   0.510  0.1142  0.0336 -0.6230
  878MOL0     H21153   5.123   2.314   0.372  1.0634  0.8555 -0.4967
  878MOL0     H21154   4.979   2.304   0.624  2.1088  5.1675 -2.8890
  878MOL0     H21155   4.987   2.144   0.531 -0.6485 -0.7250 -1.3800
  878MOL0     H21156   4.825   2.396   0.468 -0.4491  0.0108 -0.6913
  878MOL0     H21157   4.875   2.296   0.342 -1.0056 -2.0661 -0.4652
  878MOL0     H21158   4.778   2.103   0.409 -1.0415 -1.3375  0.9340
  878MOL0     H21159   4.660   2.227   0.424 -0.0391 -1.7471 -1.7969
  878MOL0     H21160   4.693   2.154   0.836 -2.2556  1.0141 -1.0970
  878MOL0     H21161   5.464   2.121   0.584 -0.1311 -1.3840 -3.6050
  878MOL0     H21162   5.724   2.095   0.580 -0.8262  2.6314  2.5378
  878MOL0     H21163   5.770   2.148   0.413 -1.9811  1.0456 -2.1151
  878MOL0     H21164   5.804   2.245   0.569  0.4158 -2.7818  2.3286
  879MOL0     O21165   4.989   9.521   0.233 -0.2673 -0.5436 -0.0889
  879MOL0     C21166   5.020   9.411   0.280 -0.1062  0.1971 -0.7263
  879MOL0     O21167   5.137   9.380   0.345 -0.0655 -0.0195 -0.0409
  879MOL0     C21168   5.233   9.483   0.341 -0.2869 -0.5482  1.3872
  879MOL0     C21169   5.287   9.544   0.461 -0.0185  0.4849  0.2910
  879MOL0     C21170   5.388   9.636   0.457 -0.5190 -0.6361  0.4752
  879MOL0     C21171   5.445   9.671   0.332 -1.5267  0.0777 -0.0127
  879MOL0     O21172   5.543   9.765   0.338  0.6366 -0.1493  0.2489
  879MOL0     C21173   5.658   9.745   0.252  0.2049 -0.4589  0.6798
  879MOL0     C21174   5.710   9.884   0.217  0.5556  0.0621  0.4749
  879MOL0     C21175   5.833   9.883   0.141 -0.0565  0.4886 -0.3717
  879MOL0     C21176   5.956   9.866   0.229  0.3576  0.2577 -0.6952
  879MOL0     C21177   6.080   9.859   0.140 -0.0451 -0.6903  0.1652
  879MOL0     C21178   6.201   9.823   0.213  0.3233 -0.2139 -0.9991
  879MOL0     C21179   6.308   9.788   0.117 -0.1631 -0.2438  0.1023
  879MOL0     C21180   6.455   9.748   0.162 -0.0827 -0.8427 -0.2456
  879MOL0     N21181   6.518   9.686   0.050  0.1582  0.0227  0.4902
  879MOL0     C21182   6.482   9.563  -0.012 -0.1338  0.8738 -0.9240
  879MOL0     C21183   6.569   9.562  -0.120  0.2770  1.0230  0.2854
  879MOL0     C21184   6.573   9.448  -0.219  0.2603 -0.0210 -0.1184
  879MOL0     C21185   6.630   9.486  -0.357 -0.0625 -1.0079  0.0257
  879MOL0     C21186   6.782   9.474  -0.369 -0.3165  0.3448  0.1978
  879MOL0     C21187   6.831   9.478  -0.516  0.2284 -0.4424 -0.5295
  879MOL0     O21188   6.774   9.590  -0.597 -0.0230 -0.1060 -0.1942
  879MOL0     C21189   6.810   9.717  -0.593 -0.2268  0.2063 -1.6038
  879MOL0     C21190   6.929   9.761  -0.536  0.0417 -0.3704 -0.1388
  879MOL0     C21191   6.966   9.899  -0.534 -0.3832 -0.6930 -0.1369
  879MOL0     C21192   7.101   9.940  -0.477  1.0142 -0.8730  0.4853
  879MOL0     C21193   6.874   9.992  -0.590  0.1436  0.9841 -0.1479
  879MOL0     C21194   6.891  10.149  -0.582 -0.2601  0.5168  0.6151
  879MOL0     O21195   6.801  10.225  -0.646 -0.0125  0.0075  0.4366
  879MOL0     C21196   6.811  10.367  -0.653 -0.3859 -0.1736 -0.3438
  879MOL0     C21197   6.681  10.423  -0.637  0.2547  0.5791 -0.3559
  879MOL0     C21198   6.669  10.564  -0.643  0.2652 -0.2299  0.4550
  879MOL0     C21199   6.776  10.643  -0.666  0.3903 -0.1779 -0.4502
  879MOL0     O21200   6.746  10.773  -0.681 -0.1793 -0.0050 -0.0782
  879MOL0     C21201   6.842  10.848  -0.765  0.5768  0.3699  0.1613
  879MOL0     C21202   6.778  10.979  -0.782 -0.3780 -0.5663 -0.0855
  879MOL0     C21203   6.861  11.084  -0.862 -0.8984  0.2780  0.0646
  879MOL0     C21204   6.804  11.229  -0.870  0.0386 -0.4628 -0.3755
  879MOL0     C21205   6.857  11.315  -0.986  0.0158 -0.7094 -0.5527
  879MOL0     C21206   6.866  11.247  -1.125 -0.4175 -0.0458  0.1473
  879MOL0     C21207   6.918  11.343  -1.224 -0.0379  0.3504 -0.0855
  879MOL0     C21208   6.927  11.299  -1.375  0.1149  0.6150  0.0644
  879MOL0    Cl21209   6.996  11.418  -1.489  0.2762  0.0654 -0.2880
  879MOL0     C21210   6.900  10.586  -0.673 -0.6033  1.3823 -0.0708
  879MOL0     C21211   6.924  10.445  -0.671 -0.0958 -0.9279 -0.3518
  879MOL0     O21212   6.981  10.191  -0.509  0.0500 -0.1897  0.6518
  879MOL0     C21213   6.753   9.937  -0.650 -0.1852 -0.8160  0.3215
  879MOL0     C21214   6.723   9.806  -0.644 -0.2119  0.8617 -0.2640
  879MOL0     N21215   6.643   9.679  -0.123  0.1554 -1.2834 -0.0372
  879MOL0     N21216   6.619   9.747  -0.017  0.2304  0.1273 -0.3667
  879MOL0     C21217   5.399   9.614   0.212 -0.5270  0.4312 -0.2270
  879MOL0     C21218   5.299   9.520   0.221 -0.5710  0.2319 -0.0021
  879MOL0     C21219   4.930   9.294   0.245 -0.2858 -0.1937 -0.4538
  879MOL0     C21220   4.997   9.172   0.241  0.0017  0.6155 -0.3940
  879MOL0     C21221   4.925   9.055   0.216 -0.0612 -0.1412  0.1398
  879MOL0     C21222   4.790   9.063   0.186 -0.2419 -0.3472 -0.2958
  879MOL0     O21223   4.736   8.942   0.158  0.5587  1.1153 -0.5871
  879MOL0     C21224   4.607   8.936   0.098  0.3072 -0.5151 -0.7910
  879MOL0     C21225   4.572   8.792   0.069  0.1548  0.5678  0.4239
  879MOL0     C21226   4.444   8.779  -0.025 -0.7062  0.3033 -0.6894
  879MOL0     C21227   4.384   8.639  -0.048  0.3852  0.9894  0.1960
  879MOL0     C21228   4.464   8.554  -0.130  0.8784 -0.9615  0.3268
  879MOL0     C21229   4.518   8.473  -0.199  0.1421 -0.2623 -0.3559
  879MOL0     C21230   4.727   9.191   0.182  0.0295  0.5563  0.3572
  879MOL0     C21231   4.794   9.305   0.217  0.0475  0.0561  0.0476
  879MOL0     C21232   4.715   9.431   0.239 -0.1266 -0.3604 -0.1206
  879MOL0     H21233   5.254   9.526   0.563 -0.0575 -0.7581  0.0700
  879MOL0     H21234   5.435   9.676   0.546  1.1040 -3.8456  1.2452
  879MOL0     H21235   5.643   9.697   0.155  0.5116  0.9118 -0.0563
  879MOL0     H21236   5.735   9.697   0.312  1.1450  0.3892  0.1723
  879MOL0     H21237   5.630   9.929   0.157 -1.8519 -0.2912  3.2167
  879MOL0     H21238   5.728   9.942   0.308  3.6752 -0.1889  0.1584
  879MOL0     H21239   5.832   9.795   0.076  2.3278 -1.2478  1.7489
  879MOL0     H21240   5.846   9.971   0.079  3.2154  0.3541 -0.0578
  879MOL0     H21241   5.983   9.937   0.308 -1.2030 -2.1855  2.2904
  879MOL0     H21242   5.941   9.775   0.289  1.6385 -0.3953 -1.3218
  879MOL0     H21243   6.087   9.953   0.085  0.6337 -0.3152  0.8750
  879MOL0     H21244   6.063   9.781   0.065  0.1147 -0.9461  0.3910
  879MOL0     H21245   6.234   9.898   0.285 -2.9025 -2.1884  2.9425
  879MOL0     H21246   6.176   9.738   0.278  2.5973 -0.8644 -0.9160
  879MOL0     H21247   6.324   9.874   0.051  2.0878  2.3998  3.7145
  879MOL0     H21248   6.273   9.707   0.053 -1.2553 -0.4387  0.9291
  879MOL0     H21249   6.517   9.833   0.191 -0.5481 -1.0815  1.5989
  879MOL0     H21250   6.450   9.679   0.247 -1.2714 -2.5079 -1.5959
  879MOL0     H21251   6.401   9.499   0.021 -1.2266  1.9331 -1.4603
  879MOL0     H21252   6.469   9.415  -0.231 -0.3402  2.1733 -1.4908
  879MOL0     H21253   6.632   9.369  -0.173  1.4251  1.3347  0.8045
  879MOL0     H21254   6.571   9.422  -0.423  1.2585  1.6577 -4.1158
  879MOL0     H21255   6.588   9.585  -0.374  0.8261 -0.5789  0.3190
  879MOL0     H21256   6.839   9.555  -0.323  0.4380  0.6812 -1.2873
  879MOL0     H21257   6.819   9.387  -0.313 -0.0874  0.6838  0.5779
  879MOL0     H21258   6.940   9.489  -0.519  0.2524 -0.3691  0.3408
  879MOL0     H21259   6.799   9.383  -0.561 -0.0436 -1.4075  1.5592
  879MOL0     H21260   6.987   9.689  -0.480 -2.2116 -2.9565 -0.9404
  879MOL0     H21261   7.166   9.990  -0.549 -0.4317 -0.1249 -0.3509
  879MOL0     H21262   7.150   9.845  -0.451  0.4617 -1.5706 -0.9156
  879MOL0     H21263   7.092  10.008  -0.391 -0.5309 -1.1353  0.5537
  879MOL0     H21264   6.597  10.355  -0.632  0.2861  0.4506 -1.3949
  879MOL0     H21265   6.571  10.610  -0.644  0.1666 -0.0385  4.5511
  879MOL0     H21266   6.932  10.863  -0.704  0.7256 -0.9475  0.2927
  879MOL0     H21267   6.855  10.812  -0.867  0.4539  3.4917 -1.0353
  879MOL0     H21268   6.687  10.961  -0.839 -2.2810 -2.5733  3.2076
  879MOL0     H21269   6.759  11.028  -0.686  1.5246 -0.9959  0.5760
  879MOL0     H21270   6.893  11.040  -0.957  1.2244  3.5780 -0.9063
  879MOL0     H21271   6.958  11.094  -0.813 -0.5456  3.7576 -1.0476
  879MOL0     H21272   6.831  11.273  -0.773  3.1561 -1.7624 -0.5574
  879MOL0     H21273   6.696  11.212  -0.876  0.0711 -0.1299 -2.2558
  879MOL0     H21274   6.786  11.398  -0.991  1.6448  0.6927 -1.7760
  879MOL0     H21275   6.958  11.351  -0.966 -0.2313  0.0089 -0.5816
  879MOL0     H21276   6.771  11.202  -1.156 -0.8711 -2.1074  4.0066
  879MOL0     H21277   6.948  11.175  -1.124  1.7167  2.2171  0.3825
  879MOL0     H21278   7.018  11.375  -1.194  0.1036  3.2131 -2.9882
  879MOL0     H21279   6.858  11.434  -1.224  1.3448  1.3197  1.2658
  879MOL0     H21280   6.825  11.272  -1.405  0.0973  0.2712  0.4260
  879MOL0     H21281   6.986  11.207  -1.385 -0.0837  0.4598  0.3093
  879MOL0     H21282   6.983  10.655  -0.682  0.6324  0.0930  1.1128
  879MOL0     H21283   7.023  10.401  -0.670  0.7802  0.8875 -1.2800
  879MOL0     H21284   6.683  10.012  -0.684  1.5592  1.6932  1.9466
  879MOL0     H21285   6.631   9.762  -0.683 -0.0448 -2.0039  2.2364
  879MOL0     H21286   5.443   9.649   0.118 -2.1710  2.4623 -0.3172
  879MOL0     H21287   5.253   9.489   0.128  0.0137  2.3344 -1.0568
  879MOL0     H21288   5.105   9.165   0.246 -0.0750 -0.0790  0.4984
  879MOL0     H21289   4.971   8.957   0.222  1.6355  0.6679  1.3811
  879MOL0     H21290   4.533   8.974   0.168 -1.6431  0.3369 -3.1892
  879MOL0     H21291   4.607   9.004   0.013  3.7232 -1.0583 -1.4019
  879MOL0     H21292   4.559   8.732   0.160 -3.1096  0.8644  0.2674
  879MOL0     H21293   4.658   8.748   0.018  0.9741  1.1768  1.2360
  879MOL0     H21294   4.368   8.842   0.021 -1.1915 -0.1099 -0.9143
  879MOL0     H21295   4.466   8.815  -0.127  1.6575 -0.1653 -0.3999
  879MOL0     H21296   4.286   8.639  -0.096  0.8560 -2.4235 -1.0217
  879MOL0     H21297   4.366   8.583   0.044 -2.2467 -0.5664 -1.1416
  879MOL0     H21298   4.570   8.397  -0.255 -1.8199 -1.3697 -0.7601
  879MOL0     H21299   4.619   9.184   0.176 -0.1208 -0.0604  2.6630
  879MOL0     H21300   4.748   9.511   0.171 -0.7216 -2.0936 -2.6075
  879MOL0     H21301   4.607   9.427   0.224 -0.4638  3.2524  0.3372
  879MOL0     H21302   4.739   9.466   0.340  1.4991 -1.1385 -0.1978
  880MOL0     O21303   9.427  10.275   7.576 -0.3354 -0.0126  0.8437
  880MOL0     C21304   9.443  10.288   7.451 -0.3431  0.9182  0.9066
  880MOL0     O21305   9.563  10.305   7.389 -0.0852 -0.2767 -0.2398
  880MOL0     C21306   9.680  10.305   7.465  0.2139  0.3890  0.0805
  880MOL0     C21307   9.775  10.397   7.437  1.2703  0.3081  0.7062
  880MOL0     C21308   9.892  10.383   7.511 -0.3282 -0.1954  0.7107
  880MOL0     C21309   9.924  10.275   7.594 -0.5072  0.7678  1.3805
  880MOL0     O21310  10.052  10.279   7.653 -0.1993  0.0338  0.0624
  880MOL0     C21311  10.088  10.180   7.752 -0.3176 -0.3847 -0.3222
  880MOL0     C21312  10.158  10.063   7.668  0.5010  0.3627 -0.0391
  880MOL0     C21313  10.295  10.110   7.618  0.1074  0.6074 -0.2977
  880MOL0     C21314  10.393  10.051   7.715 -0.5177 -0.7975  1.6336
  880MOL0     C21315  10.539  10.096   7.669 -0.4713  0.0418 -0.7144
  880MOL0     C21316  10.641  10.030   7.762 -0.2411  0.0567 -0.0980
  880MOL0     C21317  10.780  10.078   7.749 -0.0461  0.0445 -0.6805
  880MOL0     C21318  10.868  10.014   7.860  1.0121  0.0200 -0.3864
  880MOL0     N21319  11.007  10.042   7.839 -0.2495 -0.3373  1.4243
  880MOL0     C21320  11.041  10.149   7.749 -0.1344 -0.3650  0.2550
  880MOL0     C21321  11.171  10.121   7.707 -0.4804 -0.8493 -0.5643
  880MOL0     C21322  11.266  10.213   7.636 -0.2077 -0.6563 -0.1936
  880MOL0     C21323  11.278  10.190   7.495  0.3269 -0.0737  0.3059
  880MOL0     C21324  11.330  10.322   7.433  0.2711 -0.0731 -0.1369
  880MOL0     C21325  11.487  10.320   7.425 -0.3021 -0.4690  0.0472
  880MOL0     O21326  11.517  10.435   7.350  0.0871 -0.2547  0.8382
  880MOL0     C21327  11.654  10.472   7.339  0.0612  0.4945 -0.6443
  880MOL0     C21328  11.682  10.583   7.250  0.8113 -0.6980 -0.7829
  880MOL0     C21329  11.819  10.614   7.203 -0.1311  0.0072 -0.1648
  880MOL0     C21330  11.838  10.729   7.108  0.1870  0.9677 -0.1282
  880MOL0     C21331  11.922  10.533   7.258 -0.1535 -0.4782 -0.8763
  880MOL0     C21332  12.066  10.551   7.240  0.6927 -0.3273 -0.4776
  880MOL0     O21333  12.135  10.447   7.198  0.9549  0.2260  0.3840
  880MOL0     C21334  12.271  10.440   7.214  0.7675 -0.4815  0.3593
  880MOL0     C21335  12.343  10.374   7.112  0.0078  0.3537 -0.7802
  880MOL0     C21336  12.483  10.363   7.120 -0.1333  0.4673  0.3091
  880MOL0     C21337  12.549  10.390   7.238  0.4014  0.1055  0.3505
  880MOL0     O21338  12.682  10.374   7.259  0.3003 -0.3015 -0.1956
  880MOL0     C21339  12.768  10.366   7.144 -0.1222  0.2062 -0.2832
  880MOL0     C21340  12.766  10.490   7.061  0.2009  0.4923 -0.1300
  880MOL0     C21341  12.887  10.484   6.970  0.3026 -0.1343 -0.1442
  880MOL0     C21342  12.890  10.600   6.867 -0.5787 -0.2532  0.0888
  880MOL0     C21343  13.007  10.579   6.770  0.5079  0.4185  0.5269
  880MOL0     C21344  13.009  10.688   6.665 -0.5264 -0.2446  0.0121
  880MOL0     C21345  12.900  10.683   6.566 -0.6533  0.3968 -0.8229
  880MOL0     C21346  12.850  10.818   6.523 -0.1228  0.6080 -0.2112
  880MOL0    Cl21347  12.782  10.825   6.357 -0.0576  0.5567  0.0556
  880MOL0     C21348  12.472  10.430   7.344  1.1477 -0.8090  0.0136
  880MOL0     C21349  12.339  10.451   7.334 -0.6301 -0.5154 -0.7898
  880MOL0     O21350  12.110  10.662   7.279  0.2898 -0.0375  1.2835
  880MOL0     C21351  11.891  10.432   7.356 -0.0458  0.0522  0.8861
  880MOL0     C21352  11.763  10.401   7.393  0.0555 -0.9525 -0.5275
  880MOL0     N21353  11.204   9.999   7.755  0.6454 -0.2249 -0.0799
  880MOL0     N21354  11.119   9.959   7.845  0.3289 -0.2396 -0.0780
  880MOL0     C21355   9.827  10.179   7.618 -0.7420 -0.6810 -0.7328
  880MOL0     C21356   9.703  10.192   7.550 -0.6397 -0.2681  0.6141
  880MOL0     C21357   9.317  10.296   7.371  0.1303  0.0418  0.1265
  880MOL0     C21358   9.193  10.307   7.443 -0.6987  0.5112  0.0533
  880MOL0     C21359   9.073  10.304   7.384 -0.6767  0.3686 -0.0393
  880MOL0     C21360   9.069  10.301   7.245  0.7695  0.1330  0.2860
  880MOL0     O21361   8.948  10.315   7.172 -0.0965  0.0657 -0.9944
  880MOL0     C21362   8.822  10.301   7.234  0.1683 -0.1591  0.1433
  880MOL0     C21363   8.712  10.278   7.136 -0.2178 -0.7380  0.3385
  880MOL0     C21364   8.587  10.256   7.211 -0.2483  0.2577 -0.1437
  880MOL0     C21365   8.553  10.358   7.323 -0.0774 -0.3248  0.3189
  880MOL0     C21366   8.555  10.495   7.269  0.5214  0.4430  0.1000
  880MOL0     C21367   8.558  10.607   7.218 -0.1368 -0.2781  0.0831
  880MOL0     C21368   9.184  10.289   7.168  0.4667 -0.1961 -0.5825
  880MOL0     C21369   9.309  10.285   7.227 -0.1605 -0.3701 -0.2790
  880MOL0     C21370   9.418  10.290   7.137  1.0469 -0.7523 -0.1809
  880MOL0     H21371   9.756  10.479   7.369 -2.3845 -0.8533  0.1257
  880MOL0     H21372   9.974  10.451   7.488 -2.1735  2.0217  0.3674
  880MOL0     H21373  10.000  10.133   7.795 -2.6660  1.5230 -2.6968
  880MOL0     H21374  10.148  10.217   7.836  0.7440 -2.3515 -0.1391
  880MOL0     H21375  10.157   9.980   7.739  0.1456  0.4999  0.1214
  880MOL0     H21376  10.099  10.043   7.578  0.1223  0.1769  0.2473
  880MOL0     H21377  10.313  10.078   7.515  0.3930  1.4342 -0.5127
  880MOL0     H21378  10.295  10.219   7.618 -0.1097  0.6085 -0.1970
  880MOL0     H21379  10.380  10.095   7.815 -0.7361 -1.9118  2.1072
  880MOL0     H21380  10.388   9.942   7.709  0.4940 -0.7886 -3.0905
  880MOL0     H21381  10.542  10.205   7.668 -1.0557  0.1167 -3.2365
  880MOL0     H21382  10.558  10.058   7.568 -1.1412  0.3436 -0.9616
  880MOL0     H21383  10.604  10.040   7.865 -3.5559  0.3572 -1.1754
  880MOL0     H21384  10.645   9.923   7.740 -0.5774  0.0416 -0.0907
  880MOL0     H21385  10.772  10.187   7.748 -0.7164  0.0038 -0.6442
  880MOL0     H21386  10.821  10.045   7.653  0.1172  0.2835 -0.6931
  880MOL0     H21387  10.831  10.063   7.951 -0.8381 -0.1482 -1.0151
  880MOL0     H21388  10.860   9.905   7.868  2.9458 -0.0888  0.7590
  880MOL0     H21389  10.978  10.238   7.742  0.7319  0.3062  0.8616
  880MOL0     H21390  11.364  10.208   7.686 -1.5026 -2.0683  2.4356
  880MOL0     H21391  11.222  10.311   7.656 -0.7622 -1.0804  0.7486
  880MOL0     H21392  11.345  10.108   7.466 -1.9434 -1.0196 -2.8627
  880MOL0     H21393  11.191  10.170   7.432  1.7029 -1.9807 -1.1083
  880MOL0     H21394  11.291  10.326   7.330  2.7855 -2.0422 -1.2680
  880MOL0     H21395  11.288  10.401   7.495  0.4424 -0.8489  0.9893
  880MOL0     H21396  11.535  10.320   7.524 -0.4401 -2.2355  0.1318
  880MOL0     H21397  11.526  10.240   7.362 -0.5747 -0.6259  0.0789
  880MOL0     H21398  11.591  10.635   7.221  1.5174  1.5927  0.8291
  880MOL0     H21399  11.846  10.700   7.003 -1.5834 -2.3954  0.5219
  880MOL0     H21400  11.930  10.783   7.131  3.0211 -3.1666 -0.7360
  880MOL0     H21401  11.759  10.802   7.129 -0.3195  0.4734 -0.2988
  880MOL0     H21402  12.283  10.350   7.025 -0.0802 -1.1936 -0.3208
  880MOL0     H21403  12.547  10.331   7.038 -2.9621 -1.1067 -1.4479
  880MOL0     H21404  12.864  10.341   7.191 -1.6306 -3.4438  1.2296
  880MOL0     H21405  12.747  10.276   7.085 -2.1031  0.9310 -0.7456
  880MOL0     H21406  12.672  10.498   7.006 -1.0405 -2.5613  1.3101
  880MOL0     H21407  12.776  10.577   7.126 -0.0376 -1.2599  2.4034
  880MOL0     H21408  12.887  10.391   6.912  1.4965  1.3451 -2.7066
  880MOL0     H21409  12.980  10.490   7.027  1.7321 -2.2215 -2.0852
  880MOL0     H21410  12.897  10.692   6.926  0.9617 -0.0941 -0.3081
  880MOL0     H21411  12.801  10.610   6.804 -0.1551 -1.4802 -0.7320
  880MOL0     H21412  13.103  10.570   6.822  0.0525 -1.2755  1.1474
  880MOL0     H21413  12.999  10.481   6.722 -0.4702  1.0165 -0.5925
  880MOL0     H21414  13.108  10.694   6.620 -0.4805  1.3644  0.2786
  880MOL0     H21415  13.011  10.785   6.715  0.1402  0.2436 -0.9450
  880MOL0     H21416  12.826  10.614   6.607  1.4830 -0.5874  1.6611
  880MOL0     H21417  12.931  10.634   6.474 -1.5288  2.6493 -2.4176
  880MOL0     H21418  12.928  10.892   6.544  2.1364 -1.8746  0.7206
  880MOL0     H21419  12.778  10.834   6.604 -0.2050 -0.2791 -0.1021
  880MOL0     H21420  12.528  10.446   7.435 -0.6620  4.4055  0.5384
  880MOL0     H21421  12.286  10.481   7.424 -2.0565 -2.3406 -0.9617
  880MOL0     H21422  11.977  10.379   7.395 -2.6772 -5.0287  0.6017
  880MOL0     H21423  11.753  10.326   7.471  0.6454  1.8122  2.4020
  880MOL0     H21424   9.843  10.095   7.685 -4.2816 -0.3981  0.6907
  880MOL0     H21425   9.630  10.112   7.550 -1.9391  0.7935 -1.8282
  880MOL0     H21426   9.195  10.318   7.551 -1.2863 -2.7515  0.5166
  880MOL0     H21427   8.982  10.318   7.442 -0.3772  0.2552  0.4651
  880MOL0     H21428   8.837  10.213   7.297 -1.5621  1.0518  2.4024
  880MOL0     H21429   8.798  10.392   7.291 -1.2452 -1.1355  1.1736
  880MOL0     H21430   8.734  10.195   7.069 -0.6936 -1.0347  0.5440
  880MOL0     H21431   8.705  10.369   7.076 -3.5919 -0.9915  0.1498
  880MOL0     H21432   8.499  10.252   7.146 -3.7064 -0.5112  4.0603
  880MOL0     H21433   8.568  10.153   7.244 -3.7646 -0.8389 -4.5061
  880MOL0     H21434   8.628  10.351   7.403  1.1979  1.0360 -0.7005
  880MOL0     H21435   8.461  10.343   7.380  0.3444  0.8578  1.3805
  880MOL0     H21436   8.573  10.696   7.161  1.7339 -1.1782 -0.9427
  880MOL0     H21437   9.173  10.309   7.062  2.5868  0.4503 -0.7145
  880MOL0     H21438   9.474  10.384   7.144  2.7889 -1.7726  0.4169
  880MOL0     H21439   9.489  10.209   7.161  2.7293  0.0304 -2.1522
  880MOL0     H21440   9.377  10.280   7.036 -1.3396 -0.0346  0.6756
  881MOL0     O21441  10.338   1.794   3.672 -0.7029 -0.3260  0.0388
  881MOL0     C21442  10.315   1.811   3.553 -0.1388  0.9416  0.6918
  881MOL0     O21443  10.413   1.814   3.459 -0.4319  0.7142  0.4579
  881MOL0     C21444  10.551   1.791   3.487  0.3755 -0.6424  0.4425
  881MOL0     C21445  10.591   1.681   3.557 -0.3146  0.5698 -0.2579
  881MOL0     C21446  10.723   1.664   3.586 -0.2078  1.0104  0.2267
  881MOL0     C21447  10.821   1.747   3.542  0.2040 -0.1187  0.5247
  881MOL0     O21448  10.947   1.717   3.571 -1.0766 -0.1366  0.0505
  881MOL0     C21449  11.038   1.750   3.461 -0.4925  0.4662  0.3774
  881MOL0     C21450  11.152   1.646   3.450 -0.1025  0.3005  0.0435
  881MOL0     C21451  11.272   1.664   3.549  0.2637  0.4850  0.2832
  881MOL0     C21452  11.230   1.683   3.698 -0.2710 -0.2836  0.1533
  881MOL0     C21453  11.347   1.694   3.798 -0.5715  0.1456 -0.3700
  881MOL0     C21454  11.411   1.561   3.824 -0.5346  0.0331  0.6195
  881MOL0     C21455  11.485   1.571   3.962  0.1639  0.4143 -1.2516
  881MOL0     C21456  11.618   1.643   3.947  0.2926 -0.0325  0.8046
  881MOL0     N21457  11.666   1.700   4.081 -0.3427 -0.5172  0.2705
  881MOL0     C21458  11.803   1.727   4.097  0.8661  0.2066  0.1014
  881MOL0     C21459  11.804   1.816   4.207 -0.3302 -0.0579  0.1476
  881MOL0     C21460  11.924   1.892   4.258  0.1525 -0.0696  0.1178
  881MOL0     C21461  11.962   2.010   4.165 -0.3908 -0.1049  1.7263
  881MOL0     C21462  12.107   2.062   4.172  0.0162 -0.6940  0.1674
  881MOL0     C21463  12.153   2.121   4.309 -0.2754  0.0524 -0.1625
  881MOL0     O21464  12.283   2.180   4.293  0.4402 -0.2424  0.2627
  881MOL0     C21465  12.387   2.101   4.329 -0.1552 -0.0947 -0.1990
  881MOL0     C21466  12.375   1.959   4.345  0.1098  0.1242  0.2318
  881MOL0     C21467  12.479   1.885   4.398 -0.3020  0.0597  0.2222
  881MOL0     C21468  12.442   1.742   4.420  0.1194  0.9467 -0.2660
  881MOL0     C21469  12.603   1.945   4.428  0.3800  0.7858  1.0425
  881MOL0     C21470  12.721   1.881   4.494 -0.1758  0.8782 -0.5783
  881MOL0     O21471  12.840   1.951   4.491  0.1998  0.4452  0.1845
  881MOL0     C21472  12.955   1.890   4.521  0.0329  0.3225  0.5144
  881MOL0     C21473  13.044   1.965   4.589  0.3814 -0.5101 -0.0408
  881MOL0     C21474  13.173   1.915   4.616  0.6343 -0.3176  0.2536
  881MOL0     C21475  13.209   1.783   4.582  0.5084  0.3100  0.0644
  881MOL0     O21476  13.325   1.725   4.617 -0.1577 -1.1624 -0.1491
  881MOL0     C21477  13.441   1.807   4.654  0.7830 -0.1545  0.3663
  881MOL0     C21478  13.568   1.735   4.688 -0.7648 -0.7791  0.1751
  881MOL0     C21479  13.600   1.635   4.580 -0.2963  0.5801 -0.1876
  881MOL0     C21480  13.751   1.620   4.560  0.2678 -1.4457  0.6682
  881MOL0     C21481  13.785   1.621   4.411 -0.1154 -0.5412  0.8828
  881MOL0     C21482  13.922   1.580   4.360 -0.6832 -0.8373 -0.2567
  881MOL0     C21483  13.968   1.445   4.402  0.2822  0.7031  0.5562
  881MOL0     C21484  14.125   1.441   4.412  1.2023  0.1809  0.5630
  881MOL0    Cl21485  14.185   1.427   4.255  0.1490  0.1170 -0.3534
  881MOL0     C21486  13.117   1.708   4.515 -0.3290 -0.4792 -0.7754
  881MOL0     C21487  12.993   1.757   4.478 -0.3173  0.0765 -0.1362
  881MOL0     O21488  12.714   1.766   4.544 -0.5486 -0.2137  0.2618
  881MOL0     C21489  12.615   2.080   4.400  0.5765 -0.4119  0.0824
  881MOL0     C21490  12.511   2.159   4.346 -0.3682  0.6545 -0.8213
  881MOL0     N21491  11.675   1.840   4.253 -0.6795  0.3374 -0.0041
  881MOL0     N21492  11.597   1.775   4.173 -0.6917  0.1373  0.0489
  881MOL0     C21493  10.781   1.854   3.475  0.8824  0.0649  0.7832
  881MOL0     C21494  10.648   1.878   3.430 -0.2895  0.3771 -0.5151
  881MOL0     C21495  10.169   1.820   3.509  0.1126 -0.0249  0.5336
  881MOL0     C21496  10.142   1.917   3.403  0.1409  0.2024 -0.2584
  881MOL0     C21497  10.011   1.953   3.383  0.4137 -0.6003 -0.0523
  881MOL0     C21498   9.895   1.895   3.450  0.8298  0.2612  0.2387
  881MOL0     O21499   9.767   1.945   3.426 -0.2882  0.2088  0.0295
  881MOL0     C21500   9.657   1.862   3.464 -0.2382 -0.5938  0.5029
  881MOL0     C21501   9.523   1.931   3.417  0.3001 -0.6051 -0.6460
  881MOL0     C21502   9.503   1.913   3.265 -0.0523 -0.5366  0.4810
  881MOL0     C21503   9.385   1.992   3.214  0.1449  0.0306 -0.1267
  881MOL0     C21504   9.337   1.919   3.090 -0.2621 -0.2607 -0.8350
  881MOL0     C21505   9.290   1.860   2.992  0.8224 -0.8556  0.5347
  881MOL0     C21506   9.929   1.801   3.542  0.4616  0.3810  0.8542
  881MOL0     C21507  10.057   1.767   3.576  0.6786  0.0999  0.6967
  881MOL0     C21508  10.070   1.668   3.691  0.4282 -0.6140 -0.9080
  881MOL0     H21509  10.522   1.606   3.594 -0.1539  0.8505  0.6158
  881MOL0     H21510  10.754   1.575   3.640  1.1769  1.4435  0.1842
  881MOL0     H21511  11.081   1.849   3.477 -1.5094  0.6989  1.8840
  881MOL0     H21512  10.978   1.766   3.371  1.5979 -0.9988 -1.3715
  881MOL0     H21513  11.124   1.541   3.441  1.0032  0.0959 -1.3857
  881MOL0     H21514  11.206   1.668   3.357 -2.3145  1.2041 -1.1040
  881MOL0     H21515  11.352   1.591   3.535  0.0424  0.6550 -2.2645
  881MOL0     H21516  11.315   1.756   3.508  0.6037 -0.3730 -1.3754
  881MOL0     H21517  11.168   1.772   3.714  0.0087 -0.2987  1.3741
  881MOL0     H21518  11.162   1.601   3.720 -2.2600  1.0547 -0.7030
  881MOL0     H21519  11.297   1.723   3.891  1.1283 -1.5658  1.1666
  881MOL0     H21520  11.419   1.773   3.772 -0.3106  0.8828  2.3058
  881MOL0     H21521  11.347   1.473   3.836  1.5404 -1.8173 -1.1482
  881MOL0     H21522  11.485   1.517   3.757  0.5387 -0.3586  1.9922
  881MOL0     H21523  11.515   1.471   3.992  0.3095  0.8809  0.2727
  881MOL0     H21524  11.425   1.614   4.043  2.1552  0.9461  0.0177
  881MOL0     H21525  11.689   1.571   3.906 -0.2366 -0.1802  0.1408
  881MOL0     H21526  11.606   1.728   3.880 -1.0596 -1.2667 -0.5880
  881MOL0     H21527  11.886   1.689   4.038 -0.1782  1.9371 -2.7043
  881MOL0     H21528  12.003   1.816   4.264  1.2391  1.0817  0.8230
  881MOL0     H21529  11.903   1.927   4.359 -0.4320  1.6735 -0.5595
  881MOL0     H21530  11.960   1.975   4.062  2.0578 -2.7778  2.4294
  881MOL0     H21531  11.896   2.096   4.180 -1.3319 -1.0762  3.5074
  881MOL0     H21532  12.180   1.985   4.145  0.6105  0.4070 -1.5297
  881MOL0     H21533  12.104   2.142   4.097 -2.5661 -0.8717 -0.0274
  881MOL0     H21534  12.079   2.195   4.342  0.3922  0.5239  0.2911
  881MOL0     H21535  12.149   2.042   4.384  1.2427 -0.2628 -0.3831
  881MOL0     H21536  12.281   1.913   4.318  0.6666  0.2435 -2.1687
  881MOL0     H21537  12.522   1.680   4.378 -1.3783 -1.2278 -0.0332
  881MOL0     H21538  12.351   1.710   4.368  0.3877 -1.6567  0.7409
  881MOL0     H21539  12.423   1.723   4.525  4.1964 -0.7095  0.3790
  881MOL0     H21540  13.032   2.071   4.610  3.0608  0.4137 -2.4700
  881MOL0     H21541  13.245   1.967   4.678  1.1012  1.5830 -1.7454
  881MOL0     H21542  13.461   1.877   4.571  1.2861 -0.8793 -0.1360
  881MOL0     H21543  13.408   1.865   4.740 -0.9737 -0.8933  0.2306
  881MOL0     H21544  13.653   1.803   4.698  0.1100 -1.9424  0.9150
  881MOL0     H21545  13.548   1.689   4.785  0.3371 -1.6441  0.0123
  881MOL0     H21546  13.563   1.676   4.486  0.0560  1.8708  0.2138
  881MOL0     H21547  13.558   1.538   4.609  0.1596  0.8282  1.3821
  881MOL0     H21548  13.777   1.526   4.609  0.9466 -1.3013  0.5924
  881MOL0     H21549  13.815   1.693   4.611 -2.0690 -0.3279  2.1841
  881MOL0     H21550  13.708   1.566   4.357 -1.5447 -0.9139  3.2002
  881MOL0     H21551  13.761   1.723   4.378 -2.6217 -0.0813  3.6888
  881MOL0     H21552  13.992   1.661   4.382 -0.4418 -0.7291 -1.3615
  881MOL0     H21553  13.917   1.579   4.250 -0.6127 -1.4857 -0.2597
  881MOL0     H21554  13.921   1.367   4.342  0.6984  0.6317  0.3234
  881MOL0     H21555  13.931   1.432   4.504  0.0296 -0.8220  0.2967
  881MOL0     H21556  14.148   1.354   4.475  3.2842  1.7745  2.1488
  881MOL0     H21557  14.169   1.533   4.450 -1.7409  2.4284 -1.0366
  881MOL0     H21558  13.128   1.603   4.488 -1.0902 -0.5799 -0.7396
  881MOL0     H21559  12.934   1.692   4.413 -0.9644  1.4073 -0.9339
  881MOL0     H21560  12.704   2.134   4.429 -1.2613  2.8365  0.1139
  881MOL0     H21561  12.515   2.268   4.343 -3.8134  0.9767  1.5108
  881MOL0     H21562  10.854   1.922   3.431 -0.7170  1.0741 -0.4301
  881MOL0     H21563  10.621   1.964   3.370 -3.3220  0.0622  0.2363
  881MOL0     H21564  10.218   1.973   3.350  1.3591 -0.0184  1.1659
  881MOL0     H21565   9.989   2.038   3.320  3.0702 -0.2159 -0.5735
  881MOL0     H21566   9.671   1.763   3.420 -0.2221 -1.3893  2.2038
  881MOL0     H21567   9.653   1.853   3.573  0.5821 -4.7754  0.3402
  881MOL0     H21568   9.529   2.037   3.444  0.0595 -0.5777 -0.6957
  881MOL0     H21569   9.440   1.882   3.469  0.3651 -0.8675 -0.7902
  881MOL0     H21570   9.590   1.955   3.213  1.3111  0.3666  3.3156
  881MOL0     H21571   9.503   1.809   3.230  0.3489  0.2160 -1.9797
  881MOL0     H21572   9.420   2.092   3.187  1.0123 -0.1475  0.3012
  881MOL0     H21573   9.302   2.001   3.285  0.7800 -0.5934  0.7067
  881MOL0     H21574   9.239   1.819   2.907  1.2060  2.1168 -1.2729
  881MOL0     H21575   9.850   1.775   3.612 -0.1978  1.7825  0.6741
  881MOL0     H21576  10.148   1.591   3.680  0.3890 -0.9251  0.7403
  881MOL0     H21577  10.092   1.727   3.780  0.4738 -1.1568 -0.5523
  881MOL0     H21578   9.975   1.621   3.718  0.6671 -0.8106 -0.3964
  882MOL0     O21579   8.360   1.821  10.334 -0.2197  0.1151 -0.7279
  882MOL0     C21580   8.324   1.705  10.345  1.1929  0.2817  0.5018
  882MOL0     O21581   8.408   1.597  10.322  0.3212  0.2928  0.6471
  882MOL0     C21582   8.539   1.632  10.300  0.5628 -0.7053  1.2193
  882MOL0     C21583   8.616   1.679  10.406  0.2003 -0.2653 -0.0254
  882MOL0     C21584   8.749   1.714  10.379 -0.4916  0.1547 -0.2761
  882MOL0     C21585   8.812   1.682  10.261  0.1893  0.4122  0.2640
  882MOL0     O21586   8.943   1.697  10.244 -0.1085  0.1173 -0.0157
  882MOL0     C21587   8.990   1.736  10.119 -0.7591  0.3247  0.4176
  882MOL0     C21588   9.139   1.764  10.133  0.1706 -1.0891  0.5471
  882MOL0     C21589   9.209   1.770   9.998 -0.0500 -0.0383 -0.4117
  882MOL0     C21590   9.364   1.800  10.003 -0.0111 -0.6373  0.7529
  882MOL0     C21591   9.406   1.942  10.029 -0.5331 -0.6486 -0.6539
  882MOL0     C21592   9.553   1.958   9.993 -1.4776 -0.1802  0.3901
  882MOL0     C21593   9.590   1.933   9.843 -0.5490  0.5415  1.3765
  882MOL0     C21594   9.734   1.972   9.811  0.1719  0.2945  0.8725
  882MOL0     N21595   9.844   1.909   9.892 -0.1006  0.0242  0.0436
  882MOL0     C21596   9.882   1.957  10.016  1.0200  0.1722 -0.4848
  882MOL0     C21597   9.980   1.882  10.063  0.5048  0.2295  0.1540
  882MOL0     C21598  10.065   1.889  10.186 -1.1064 -0.7190  0.5145
  882MOL0     C21599  10.163   2.012  10.187 -0.0219  0.6313  0.5838
  882MOL0     C21600  10.282   1.992  10.084 -0.2345  0.3742 -0.0769
  882MOL0     C21601  10.366   2.117  10.079 -0.0154 -0.9853 -0.4485
  882MOL0     O21602  10.304   2.240  10.024 -0.2777  0.3647 -0.1737
  882MOL0     C21603  10.280   2.232   9.887  0.3878 -0.2281 -0.4927
  882MOL0     C21604  10.374   2.268   9.794  0.8956  0.3525 -0.4140
  882MOL0     C21605  10.344   2.276   9.656  0.9805 -0.3729 -0.0284
  882MOL0     C21606  10.451   2.299   9.556  0.4905 -0.8532  0.4007
  882MOL0     C21607  10.204   2.265   9.622  0.3665  0.2348  0.6417
  882MOL0     C21608  10.153   2.300   9.487  0.4000 -0.2078  0.8230
  882MOL0     O21609  10.030   2.259   9.446  0.8357  0.5808  0.0811
  882MOL0     C21610   9.951   2.327   9.353  0.7084 -0.0928 -0.3566
  882MOL0     C21611   9.974   2.449   9.293  0.2281  0.8442 -0.5895
  882MOL0     C21612   9.900   2.512   9.190 -0.1189 -0.9154 -0.3923
  882MOL0     C21613   9.783   2.446   9.154  0.2751  0.2086  0.1619
  882MOL0     O21614   9.698   2.488   9.054  0.2310 -0.1614 -0.0803
  882MOL0     C21615   9.754   2.581   8.960  0.2833  0.0194  0.1224
  882MOL0     C21616   9.658   2.606   8.844 -0.5923  0.0428 -0.3059
  882MOL0     C21617   9.531   2.680   8.897 -0.2893 -0.3601  0.4124
  882MOL0     C21618   9.448   2.726   8.781 -0.0785  0.7924  0.4147
  882MOL0     C21619   9.297   2.746   8.813 -0.7741  0.0366  0.3878
  882MOL0     C21620   9.269   2.865   8.904 -0.7326  0.5692  0.7455
  882MOL0     C21621   9.208   2.984   8.829 -0.7095  0.2477  0.2274
  882MOL0     C21622   9.174   3.100   8.919 -0.0947  0.2624  0.6214
  882MOL0    Cl21623   9.048   3.050   9.036  0.0667 -0.2138 -0.3050
  882MOL0     C21624   9.746   2.337   9.230 -0.0611 -0.7783 -0.1215
  882MOL0     C21625   9.829   2.271   9.316 -0.2795 -0.1876 -0.2071
  882MOL0     O21626  10.219   2.379   9.427  0.0463  0.5459  0.3341
  882MOL0     C21627  10.110   2.222   9.712  1.0782 -0.9496  0.0612
  882MOL0     C21628  10.153   2.206   9.848  0.6406 -0.0627  0.3328
  882MOL0     N21629  10.001   1.788   9.963  0.0223  0.4130  0.1586
  882MOL0     N21630   9.923   1.806   9.860  0.3573  0.1625  0.6654
  882MOL0     C21631   8.731   1.631  10.159  0.2997 -0.2040 -0.5514
  882MOL0     C21632   8.596   1.611  10.175  0.2746 -0.3037 -0.6592
  882MOL0     C21633   8.185   1.661  10.397 -0.3878  0.2059 -0.0734
  882MOL0     C21634   8.150   1.523  10.397 -0.4169  0.0543  0.5331
  882MOL0     C21635   8.023   1.484  10.437 -0.1754  0.4607 -0.2961
  882MOL0     C21636   7.928   1.576  10.471 -0.6203  0.3751  0.5580
  882MOL0     O21637   7.810   1.549  10.521  0.6740  0.0344  0.1172
  882MOL0     C21638   7.763   1.410  10.528 -0.0389 -0.4847  0.1178
  882MOL0     C21639   7.619   1.409  10.570 -0.8138  0.1293  0.0155
  882MOL0     C21640   7.585   1.486  10.700  0.5387  0.1559 -1.5463
  882MOL0     C21641   7.441   1.442  10.748  0.0255 -0.0725 -0.0947
  882MOL0     C21642   7.409   1.508  10.880 -0.4433 -0.8209  0.5822
  882MOL0     C21643   7.378   1.541  10.993  0.3302 -0.4045 -0.8604
  882MOL0     C21644   7.962   1.712  10.479 -0.7563 -0.0635 -0.0733
  882MOL0     C21645   8.091   1.756  10.446 -0.1842  0.3199  0.0769
  882MOL0     C21646   8.128   1.904  10.467 -0.0223 -0.4393  1.1786
  882MOL0     H21647   8.572   1.691  10.504 -1.2324 -0.8573 -0.5675
  882MOL0     H21648   8.816   1.746  10.458 -2.0456  0.3685  1.0013
  882MOL0     H21649   8.942   1.820  10.066 -0.9882 -1.4794 -2.4523
  882MOL0     H21650   8.985   1.653  10.048 -1.4793  0.5942  0.1440
  882MOL0     H21651   9.153   1.860  10.184  0.1624  0.1668 -1.6420
  882MOL0     H21652   9.174   1.688  10.203  2.4331 -1.5544 -0.9630
  882MOL0     H21653   9.199   1.674   9.947 -0.6702  0.7793 -1.8827
  882MOL0     H21654   9.159   1.839   9.931 -0.8311  1.8779  1.9783
  882MOL0     H21655   9.416   1.751  10.087  0.1077  1.5823  2.0496
  882MOL0     H21656   9.391   1.749   9.910 -2.6033  0.1456 -0.5200
  882MOL0     H21657   9.397   1.959  10.137  2.6133 -0.4994 -0.3086
  882MOL0     H21658   9.346   2.014   9.972 -0.8539  1.1389  1.7931
  882MOL0     H21659   9.569   2.064  10.014 -1.3073 -0.2457  0.5861
  882MOL0     H21660   9.613   1.906  10.068  1.2215  0.9384 -0.8477
  882MOL0     H21661   9.525   2.004   9.791 -1.1933  0.8464  2.5633
  882MOL0     H21662   9.567   1.830   9.815 -1.3642  0.4914  2.1916
  882MOL0     H21663   9.752   1.940   9.708 -3.2485  0.8238 -0.0032
  882MOL0     H21664   9.744   2.080   9.814 -2.1663  0.6789 -1.2839
  882MOL0     H21665   9.845   2.046  10.067 -0.0325 -0.4019 -0.2011
  882MOL0     H21666  10.121   1.795  10.187  0.6586  0.0270 -3.8210
  882MOL0     H21667   9.996   1.898  10.270 -3.1578  4.4617 -1.3032
  882MOL0     H21668  10.115   2.107  10.165  2.9179  1.8260 -1.2545
  882MOL0     H21669  10.209   2.017  10.287  0.7880 -1.7465  0.4083
  882MOL0     H21670  10.338   1.904  10.117 -0.5016  0.7833  1.5600
  882MOL0     H21671  10.237   1.962   9.989 -0.8609 -4.7762  1.5378
  882MOL0     H21672  10.388   2.131  10.186  0.8357 -3.2853 -0.2537
  882MOL0     H21673  10.464   2.103  10.032  0.2051 -0.9373 -0.0122
  882MOL0     H21674  10.474   2.293   9.828  1.5683 -1.2851 -1.0562
  882MOL0     H21675  10.469   2.407   9.548  0.7971 -0.8585  0.9843
  882MOL0     H21676  10.433   2.264   9.453  4.2140  2.5154 -1.6810
  882MOL0     H21677  10.541   2.247   9.587 -0.0430 -2.3781 -0.4959
  882MOL0     H21678  10.068   2.498   9.312  0.2461  0.8013 -0.5662
  882MOL0     H21679   9.942   2.601   9.144  2.9242 -2.1415 -0.2283
  882MOL0     H21680   9.752   2.677   9.011  2.3351  0.1842 -0.0313
  882MOL0     H21681   9.858   2.554   8.941  0.1676  0.1124 -0.6927
  882MOL0     H21682   9.703   2.659   8.760 -2.2922 -1.8937 -2.5960
  882MOL0     H21683   9.617   2.513   8.802 -1.2193 -0.4387  1.3058
  882MOL0     H21684   9.562   2.766   8.957  3.3087 -1.1630 -0.0832
  882MOL0     H21685   9.465   2.617   8.958  0.3473 -2.8883 -1.3431
  882MOL0     H21686   9.453   2.653   8.700  0.3310 -0.6832  1.7099
  882MOL0     H21687   9.485   2.820   8.739 -0.6177  0.9095  0.1957
  882MOL0     H21688   9.239   2.757   8.720  2.2303 -3.9434 -2.2550
  882MOL0     H21689   9.258   2.656   8.862  0.8828 -0.2089  1.3244
  882MOL0     H21690   9.361   2.897   8.954  0.7976 -0.4938 -1.2340
  882MOL0     H21691   9.203   2.826   8.982 -0.2377  1.6150  1.7104
  882MOL0     H21692   9.112   2.948   8.791 -0.0623 -3.2413  1.5123
  882MOL0     H21693   9.276   3.018   8.751  0.2565 -3.0140 -0.5229
  882MOL0     H21694   9.123   3.175   8.857  0.5601 -1.0684 -1.6558
  882MOL0     H21695   9.268   3.128   8.967  1.2340 -1.6460 -0.7536
  882MOL0     H21696   9.647   2.295   9.215 -0.2659  0.4011 -2.4244
  882MOL0     H21697   9.790   2.191   9.377 -0.1772 -1.6408 -1.9674
  882MOL0     H21698  10.003   2.222   9.692  1.5598  0.0316 -3.1056
  882MOL0     H21699  10.072   2.195   9.920 -0.3377 -0.6019 -0.8080
  882MOL0     H21700   8.769   1.604  10.061 -0.5263  1.4645 -1.3653
  882MOL0     H21701   8.533   1.585  10.091 -0.3154 -1.5203  0.1345
  882MOL0     H21702   8.219   1.447  10.362 -0.4552  1.4358 -2.9469
  882MOL0     H21703   8.007   1.377  10.443 -2.7876  0.5878 -2.6706
  882MOL0     H21704   7.775   1.356  10.435 -1.7364  0.9093 -0.9917
  882MOL0     H21705   7.826   1.365  10.605  1.2282 -0.1465 -0.6977
  882MOL0     H21706   7.591   1.303  10.574  0.5551 -0.2973 -1.0730
  882MOL0     H21707   7.564   1.450  10.485  0.1421 -0.0717 -0.7222
  882MOL0     H21708   7.651   1.467  10.786 -2.0107  1.8446  0.9861
  882MOL0     H21709   7.600   1.592  10.680  2.5828  0.0462 -0.9051
  882MOL0     H21710   7.449   1.333  10.750 -1.1268 -0.2399  3.5374
  882MOL0     H21711   7.365   1.470  10.674  1.5892 -3.1654 -3.1746
  882MOL0     H21712   7.361   1.561  11.097  1.3359 -1.6900 -0.4295
  882MOL0     H21713   7.895   1.788  10.518  1.6703  2.5070 -0.6416
  882MOL0     H21714   8.044   1.941  10.527 -1.7656  1.8030 -2.2957
  882MOL0     H21715   8.220   1.921  10.524  0.6456 -1.8796  0.5751
  882MOL0     H21716   8.113   1.953  10.370  1.2090  0.1570  1.2745
  883MOL0     O21717   1.397  11.022   4.135 -0.3029 -0.0276  0.1353
  883MOL0     C21718   1.354  10.993   4.021  0.0663 -1.4099  0.1458
  883MOL0     O21719   1.221  10.963   3.990 -0.5785 -0.5622  0.5079
  883MOL0     C21720   1.126  10.935   4.082 -0.3298  0.5499 -0.1919
  883MOL0     C21721   0.990  10.953   4.035 -0.7030  0.7628 -0.6189
  883MOL0     C21722   0.891  10.930   4.125  1.3247 -0.1691 -0.8970
  883MOL0     C21723   0.918  10.888   4.256  0.6113 -0.0707 -0.4222
  883MOL0     O21724   0.811  10.858   4.344 -0.1479  0.2555 -0.6563
  883MOL0     C21725   0.694  10.787   4.302  0.3419  0.2187 -0.6458
  883MOL0     C21726   0.606  10.745   4.420 -0.7677 -0.1817 -0.4729
  883MOL0     C21727   0.476  10.692   4.368  0.3941  0.5400 -0.1151
  883MOL0     C21728   0.395  10.617   4.482 -0.6968  1.3366  0.2104
  883MOL0     C21729   0.263  10.557   4.431  0.2814  0.0298  0.9626
  883MOL0     C21730   0.180  10.656   4.355 -0.2080  0.3303  0.7225
  883MOL0     C21731   0.055  10.593   4.308 -0.0011 -0.2372 -0.2976
  883MOL0     C21732   0.031  10.531   4.170 -0.0032  0.0024 -0.2736
  883MOL0     N21733  -0.013  10.617   4.059  0.3776  0.5636 -0.7439
  883MOL0     C21734  -0.126  10.704   4.064 -0.3737  0.1817 -0.7127
  883MOL0     C21735  -0.137  10.741   3.932 -0.1601  0.3762  0.6472
  883MOL0     C21736  -0.245  10.821   3.862 -0.2831 -0.4947  0.6729
  883MOL0     C21737  -0.254  10.960   3.916  0.1053  0.8918 -0.8466
  883MOL0     C21738  -0.348  11.047   3.835  0.8648 -0.3651 -0.2687
  883MOL0     C21739  -0.275  11.135   3.728 -0.7904 -0.4586 -0.0978
  883MOL0     O21740  -0.360  11.173   3.620  0.6839 -0.7792 -0.5522
  883MOL0     C21741  -0.458  11.270   3.642 -0.4680 -1.0331  0.0553
  883MOL0     C21742  -0.572  11.277   3.561  0.1509 -0.6182 -0.4612
  883MOL0     C21743  -0.673  11.368   3.585  0.1420 -0.4175 -0.5731
  883MOL0     C21744  -0.776  11.368   3.473  0.1741  0.3986  0.3321
  883MOL0     C21745  -0.682  11.448   3.703 -0.4109  0.0375  0.4699
  883MOL0     C21746  -0.796  11.550   3.725  0.0928 -0.2936 -0.3185
  883MOL0     O21747  -0.763  11.651   3.818  0.0615  0.4770  0.5458
  883MOL0     C21748  -0.849  11.751   3.860  0.2200 -0.9907  0.3028
  883MOL0     C21749  -0.988  11.745   3.861  0.2633 -0.2887 -0.6314
  883MOL0     C21750  -1.061  11.871   3.872 -0.0899  0.9720 -0.5942
  883MOL0     C21751  -0.996  11.992   3.893 -0.9178  0.5175  0.0882
  883MOL0     O21752  -1.074  12.104   3.897  0.5543 -0.1764  0.6562
  883MOL0     C21753  -1.023  12.237   3.881  0.9896  0.2001  0.2862
  883MOL0     C21754  -0.982  12.303   4.007 -0.2880  0.0642  0.3131
  883MOL0     C21755  -0.985  12.456   3.993  0.4835  0.6915 -0.5627
  883MOL0     C21756  -0.904  12.520   3.887 -0.8195 -0.2462 -0.2414
  883MOL0     C21757  -0.933  12.681   3.877 -1.3262  0.7780  0.1390
  883MOL0     C21758  -0.906  12.767   3.998  0.4260  0.5946 -0.6370
  883MOL0     C21759  -0.915  12.913   3.961  0.7180 -0.3387  0.3594
  883MOL0     C21760  -0.900  12.984   4.087  0.3865 -0.3674 -0.0925
  883MOL0    Cl21761  -0.916  13.165   4.064 -0.1447  0.4719  0.1099
  883MOL0     C21762  -0.863  11.996   3.910 -0.5097 -0.5846  0.2477
  883MOL0     C21763  -0.792  11.879   3.873 -0.2459 -0.5054  0.2133
  883MOL0     O21764  -0.900  11.540   3.657 -0.6214 -0.2213  0.0577
  883MOL0     C21765  -0.572  11.437   3.792  0.4883  0.5190 -0.3997
  883MOL0     C21766  -0.463  11.349   3.762  0.2785  0.4003 -0.2129
  883MOL0     N21767  -0.048  10.662   3.857 -0.4644 -0.9391  0.1704
  883MOL0     N21768   0.039  10.608   3.934 -0.4828  0.0695 -0.3296
  883MOL0     C21769   1.047  10.864   4.300 -0.2213  0.6400 -0.7012
  883MOL0     C21770   1.152  10.887   4.210 -0.9807  0.7890  0.7169
  883MOL0     C21771   1.446  11.013   3.904 -0.3754 -0.5988  0.3158
  883MOL0     C21772   1.393  11.044   3.778 -0.0811 -0.1525 -0.6254
  883MOL0     C21773   1.472  11.044   3.664  0.8763  0.1325 -0.7135
  883MOL0     C21774   1.609  11.023   3.669  0.6915 -0.5341  0.2166
  883MOL0     O21775   1.674  11.041   3.551  0.1356  0.4382  0.6187
  883MOL0     C21776   1.820  11.016   3.551  0.3425 -0.5743 -0.2889
  883MOL0     C21777   1.856  11.069   3.408  0.4999 -0.1894 -0.0551
  883MOL0     C21778   1.750  11.065   3.288  0.7006  0.3086 -0.3229
  883MOL0     C21779   1.808  11.121   3.158  0.2211 -1.1827 -0.1996
  883MOL0     C21780   1.951  11.091   3.134  0.1949  0.5972 -0.0376
  883MOL0     C21781   2.067  11.072   3.115  0.1803 -0.5012  0.4614
  883MOL0     C21782   1.672  11.007   3.794 -0.7570  0.4848  0.4327
  883MOL0     C21783   1.593  11.003   3.910 -0.3158 -0.1549 -0.7925
  883MOL0     C21784   1.658  10.957   4.042 -0.2374  0.1058 -1.0854
  883MOL0     H21785   0.972  10.981   3.932  0.6664  1.1541 -0.7710
  883MOL0     H21786   0.788  10.936   4.091  1.1024 -1.5092 -0.5146
  883MOL0     H21787   0.722  10.688   4.265  0.9681 -1.2392  3.1896
  883MOL0     H21788   0.637  10.841   4.226  1.1505  0.4417 -1.0989
  883MOL0     H21789   0.649  10.675   4.492  0.2295 -1.8103 -2.5281
  883MOL0     H21790   0.584  10.834   4.480  1.2901 -0.2886  0.4941
  883MOL0     H21791   0.425  10.777   4.322 -0.3697  0.3039  0.2822
  883MOL0     H21792   0.501  10.616   4.293 -1.5045 -1.4586  1.1603
  883MOL0     H21793   0.456  10.533   4.516 -0.9851  0.7428 -0.6966
  883MOL0     H21794   0.375  10.682   4.567 -1.1885  2.2216 -0.5633
  883MOL0     H21795   0.214  10.538   4.527 -2.0515  2.2107  0.3051
  883MOL0     H21796   0.281  10.468   4.369 -2.4506 -1.2739  1.8493
  883MOL0     H21797   0.166  10.743   4.420 -1.6783 -1.4315  2.9453
  883MOL0     H21798   0.234  10.694   4.268 -0.6039  4.7741  2.1731
  883MOL0     H21799  -0.020  10.669   4.334  0.1605 -0.3525  0.5409
  883MOL0     H21800   0.038  10.510   4.377 -0.5692 -1.5587 -1.9703
  883MOL0     H21801   0.127  10.482   4.149  0.5346 -0.4263  2.7364
  883MOL0     H21802  -0.032  10.442   4.169  1.3363 -1.0522  1.7004
  883MOL0     H21803  -0.183  10.745   4.147  2.3038  1.5513  0.5876
  883MOL0     H21804  -0.339  10.767   3.873 -1.7575  1.8696  0.3605
  883MOL0     H21805  -0.225  10.831   3.754  0.0395 -0.1174  0.7638
  883MOL0     H21806  -0.285  10.960   4.021  1.0635  1.5299 -0.5462
  883MOL0     H21807  -0.150  10.994   3.925 -0.2040  1.8106 -0.6664
  883MOL0     H21808  -0.428  10.997   3.781  1.5492  1.6376 -3.4432
  883MOL0     H21809  -0.396  11.110   3.910  1.1272 -0.9514  0.4001
  883MOL0     H21810  -0.219  11.213   3.779 -0.3952 -1.0974  0.4612
  883MOL0     H21811  -0.190  11.083   3.682 -1.4296 -0.9338 -0.7903
  883MOL0     H21812  -0.564  11.207   3.479  0.6224 -0.0115 -0.9352
  883MOL0     H21813  -0.863  11.311   3.507  0.4646 -1.4741 -1.7733
  883MOL0     H21814  -0.726  11.321   3.387  2.2755  3.2402 -0.1491
  883MOL0     H21815  -0.820  11.464   3.443 -1.0760 -0.5749 -1.1385
  883MOL0     H21816  -1.028  11.644   3.856 -3.2215  0.9625 -0.4857
  883MOL0     H21817  -1.169  11.856   3.875 -0.2716  1.3398 -3.2007
  883MOL0     H21818  -0.935  12.223   3.819  2.1968 -4.3122  2.5746
  883MOL0     H21819  -1.103  12.288   3.826 -1.1198 -2.4867  0.6033
  883MOL0     H21820  -1.045  12.281   4.094  0.7025  1.1052  1.3338
  883MOL0     H21821  -0.881  12.274   4.036  1.0277  2.3577 -1.6139
  883MOL0     H21822  -0.962  12.497   4.092 -0.0165 -0.5663  0.0909
  883MOL0     H21823  -1.091  12.483   3.985 -0.1962 -0.5427  2.6023
  883MOL0     H21824  -0.926  12.476   3.790 -2.5318  1.0973 -0.4968
  883MOL0     H21825  -0.796  12.501   3.896 -1.1247 -2.7818 -1.0333
  883MOL0     H21826  -0.872  12.723   3.797 -2.6014  3.1139  0.2940
  883MOL0     H21827  -1.037  12.673   3.846 -1.3907 -1.8644  0.8078
  883MOL0     H21828  -0.804  12.735   4.020 -0.0802 -1.7562 -1.4190
  883MOL0     H21829  -0.974  12.738   4.078  1.1668 -1.6145 -0.7363
  883MOL0     H21830  -1.016  12.935   3.926  0.3754  1.8017  2.4482
  883MOL0     H21831  -0.838  12.934   3.886  0.0358 -1.5536 -0.7325
  883MOL0     H21832  -0.806  12.962   4.139  1.2891  0.1408 -1.4591
  883MOL0     H21833  -0.983  12.958   4.153  0.5403 -0.0139  0.2470
  883MOL0     H21834  -0.811  12.091   3.923 -2.0270  0.8641 -2.9921
  883MOL0     H21835  -0.684  11.882   3.871 -0.2490 -0.4424 -1.2046
  883MOL0     H21836  -0.566  11.494   3.884  0.3489  1.3608 -0.8986
  883MOL0     H21837  -0.395  11.333   3.845  1.7263  0.4844 -1.3521
  883MOL0     H21838   1.070  10.835   4.402 -1.0119  3.1636  0.2785
  883MOL0     H21839   1.254  10.880   4.247 -0.8258 -0.1309  0.1414
  883MOL0     H21840   1.289  11.066   3.754 -0.0442  1.2907  0.4035
  883MOL0     H21841   1.413  11.066   3.575 -1.1516  0.0224  0.5363
  883MOL0     H21842   1.865  11.077   3.630 -1.9831  2.7582 -1.2843
  883MOL0     H21843   1.843  10.910   3.556  1.6111 -0.2899  0.5069
  883MOL0     H21844   1.950  11.018   3.386  0.8223 -0.6249  2.0754
  883MOL0     H21845   1.891  11.172   3.422  0.2303 -0.4051  2.7552
  883MOL0     H21846   1.716  10.962   3.272  1.0098  0.0839  0.4609
  883MOL0     H21847   1.672  11.137   3.313  0.2487 -0.9912  2.3308
  883MOL0     H21848   1.819  11.230   3.157  3.5928 -1.3656 -2.9796
  883MOL0     H21849   1.754  11.087   3.070  0.4555 -2.6825  0.2089
  883MOL0     H21850   2.169  11.048   3.091  0.1557  0.0364 -0.2031
  883MOL0     H21851   1.775  10.973   3.797 -1.2704 -1.1200  1.2555
  883MOL0     H21852   1.635  11.019   4.129  2.6384 -0.6834  0.3758
  883MOL0     H21853   1.643  10.849   4.049 -0.2894  0.1738  0.1386
  883MOL0     H21854   1.767  10.965   4.052 -0.3560  0.8438 -0.1941
  884MOL0     O21855   5.660   2.329  10.905  0.3241  0.1857 -0.1062
  884MOL0     C21856   5.566   2.319  10.983  0.0602  0.1842 -0.0882
  884MOL0     O21857   5.546   2.392  11.106  0.4298  0.5600 -0.0519
  884MOL0     C21858   5.630   2.492  11.148 -0.7274  0.5065  0.2697
  884MOL0     C21859   5.636   2.530  11.285  0.1517 -0.0330 -0.0444
  884MOL0     C21860   5.705   2.632  11.343 -1.1567 -0.1356 -0.2703
  884MOL0     C21861   5.792   2.712  11.263  1.0874 -0.0457  0.2592
  884MOL0     O21862   5.856   2.820  11.320  0.0544 -0.1167 -0.2517
  884MOL0     C21863   5.934   2.913  11.251 -0.5606  0.0973  0.2818
  884MOL0     C21864   6.085   2.864  11.251 -0.1794  0.0350 -0.1039
  884MOL0     C21865   6.108   2.733  11.176  0.2300 -0.1007  0.4504
  884MOL0     C21866   6.245   2.677  11.198 -0.5975  0.7153 -0.3321
  884MOL0     C21867   6.277   2.572  11.094 -0.5979 -0.0399 -0.3742
  884MOL0     C21868   6.429   2.542  11.091 -0.3041 -0.6559  0.1938
  884MOL0     C21869   6.472   2.461  10.970 -0.9558  0.6659  1.0018
  884MOL0     C21870   6.423   2.314  10.959 -0.1271 -0.6868 -0.6440
  884MOL0     N21871   6.505   2.237  11.058  0.4758  1.1390  0.1324
  884MOL0     C21872   6.456   2.212  11.187 -0.9575  0.1295  0.6339
  884MOL0     C21873   6.543   2.120  11.237  0.1327  0.2382 -0.4340
  884MOL0     C21874   6.521   2.029  11.358 -0.8855  0.2279  0.7317
  884MOL0     C21875   6.476   1.882  11.307 -0.2228  0.4558 -0.7547
  884MOL0     C21876   6.344   1.880  11.228  0.3892  0.2217 -0.7786
  884MOL0     C21877   6.311   1.754  11.148  0.5357 -0.1426  0.5742
  884MOL0     O21878   6.338   1.643  11.236  1.1100 -0.0338  0.5519
  884MOL0     C21879   6.440   1.553  11.206  0.3333  0.9051  0.3245
  884MOL0     C21880   6.483   1.465  11.311  0.2388  0.1803 -0.1625
  884MOL0     C21881   6.579   1.370  11.294  0.9410  0.1155  0.2747
  884MOL0     C21882   6.601   1.266  11.407 -0.0955  1.0454  0.0048
  884MOL0     C21883   6.660   1.371  11.171  0.9765  0.2315  0.7499
  884MOL0     C21884   6.783   1.292  11.148 -0.5327 -0.3998 -0.4983
  884MOL0     O21885   6.831   1.306  11.026  0.4167 -0.5897  0.8224
  884MOL0     C21886   6.931   1.235  10.972 -0.3955  0.0936  0.1887
  884MOL0     C21887   6.949   1.096  10.981 -0.3381  0.3759 -0.4471
  884MOL0     C21888   7.066   1.034  10.922 -0.4697 -0.6177  0.1250
  884MOL0     C21889   7.167   1.098  10.859  0.8167 -0.1641 -1.5899
  884MOL0     O21890   7.264   1.030  10.796 -0.1710  0.5320  0.1173
  884MOL0     C21891   7.299   1.060  10.661 -0.7519 -0.3298 -0.2304
  884MOL0     C21892   7.399   0.956  10.618  0.7560 -0.6315  0.2550
  884MOL0     C21893   7.538   1.006  10.614 -0.3412  0.1667 -0.5361
  884MOL0     C21894   7.632   0.898  10.551  0.4569 -0.0919 -0.3836
  884MOL0     C21895   7.775   0.945  10.525 -0.0379  0.0429  0.1283
  884MOL0     C21896   7.859   0.836  10.449 -0.0999 -1.1161  0.4626
  884MOL0     C21897   8.005   0.879  10.409 -0.2012 -0.4624 -1.0971
  884MOL0     C21898   7.996   0.962  10.292 -0.0993  0.0278  0.3144
  884MOL0    Cl21899   7.911   0.901  10.150  0.2662 -0.1533  0.1466
  884MOL0     C21900   7.153   1.242  10.860 -0.5847 -0.2302 -0.3052
  884MOL0     C21901   7.048   1.310  10.915  0.4113  0.1700 -0.4445
  884MOL0     O21902   6.815   1.205  11.229 -0.6363 -0.7786  0.1079
  884MOL0     C21903   6.614   1.451  11.066 -0.2492  0.6147  0.5184
  884MOL0     C21904   6.507   1.536  11.079 -0.2490 -0.1376 -0.2017
  884MOL0     N21905   6.635   2.090  11.140 -0.1166  0.9258 -0.3124
  884MOL0     N21906   6.611   2.158  11.035  0.3801  0.2657 -0.4201
  884MOL0     C21907   5.785   2.693  11.123  0.3480 -0.5865 -0.1143
  884MOL0     C21908   5.703   2.584  11.066 -0.1310  0.8461 -0.0643
  884MOL0     C21909   5.456   2.222  10.960 -0.2393 -0.0420 -0.2569
  884MOL0     C21910   5.334   2.245  11.022 -0.3595 -0.4406 -0.2074
  884MOL0     C21911   5.218   2.169  11.000 -0.0922  0.2572 -0.0124
  884MOL0     C21912   5.228   2.051  10.921  0.1638 -0.3082  0.8283
  884MOL0     O21913   5.124   1.967  10.897 -0.1468 -0.9258 -0.2791
  884MOL0     C21914   4.995   2.002  10.952  0.1497 -0.2369 -0.2268
  884MOL0     C21915   4.902   1.885  10.922  0.3031  0.1773 -0.0652
  884MOL0     C21916   4.781   1.893  11.021  0.9417  0.5945 -0.4105
  884MOL0     C21917   4.709   1.756  11.006  0.6460 -0.6974  0.4842
  884MOL0     C21918   4.594   1.746  11.096  0.4949  0.0107  0.5755
  884MOL0     C21919   4.498   1.741  11.174 -0.1279  0.2125 -0.9387
  884MOL0     C21920   5.354   2.026  10.864 -0.1564 -0.1026  0.0419
  884MOL0     C21921   5.467   2.105  10.881 -0.2711  0.5565  0.5548
  884MOL0     C21922   5.593   2.064  10.817  0.3634  0.0927  0.4214
  884MOL0     H21923   5.576   2.458  11.339  2.6468 -1.6783  0.6964
  884MOL0     H21924   5.697   2.669  11.444  0.2380  1.1944 -0.6140
  884MOL0     H21925   5.936   3.005  11.311  0.1156 -0.6292  1.4063
  884MOL0     H21926   5.892   2.940  11.154 -0.4214 -1.7072 -0.3103
  884MOL0     H21927   6.137   2.949  11.205 -0.2801  1.2267  1.8463
  884MOL0     H21928   6.121   2.850  11.354 -0.6645 -2.3712 -0.2072
  884MOL0     H21929   6.027   2.661  11.197 -1.8828  0.9117 -3.3625
  884MOL0     H21930   6.098   2.755  11.070  1.4671  0.9809  0.5318
  884MOL0     H21931   6.314   2.761  11.191 -1.3820  1.3754 -0.3155
  884MOL0     H21932   6.251   2.647  11.304 -0.7506 -0.2693 -0.5948
  884MOL0     H21933   6.241   2.605  10.996 -0.7912  1.0552  0.0482
  884MOL0     H21934   6.230   2.479  11.126  0.9170  0.0282  2.3158
  884MOL0     H21935   6.471   2.642  11.087 -2.0368  0.0893 -0.8740
  884MOL0     H21936   6.470   2.496  11.181  1.7859  1.6468  0.5121
  884MOL0     H21937   6.581   2.457  10.979 -0.7815 -0.4844 -0.9619
  884MOL0     H21938   6.442   2.517  10.881  4.0644  1.6984 -0.3228
  884MOL0     H21939   6.318   2.302  10.986  0.2167  0.1365  1.2103
  884MOL0     H21940   6.448   2.274  10.860 -0.2062 -1.2257 -0.4498
  884MOL0     H21941   6.373   2.259  11.240  0.4556  2.3685  0.9731
  884MOL0     H21942   6.449   2.061  11.434 -3.8853 -4.1202  0.0539
  884MOL0     H21943   6.618   2.020  11.407 -1.8430  0.2224  2.7327
  884MOL0     H21944   6.558   1.846  11.245 -0.2183 -1.0223  0.0462
  884MOL0     H21945   6.478   1.818  11.396 -1.4078  1.3770 -0.0390
  884MOL0     H21946   6.271   1.895  11.308  2.1923  1.2130  0.7614
  884MOL0     H21947   6.339   1.961  11.154 -1.2603 -0.7133 -1.7526
  884MOL0     H21948   6.209   1.770  11.114  1.8084  3.1945 -2.2896
  884MOL0     H21949   6.377   1.759  11.061 -3.4322  0.9777 -2.6529
  884MOL0     H21950   6.430   1.478  11.405 -0.9153 -0.8253 -0.6356
  884MOL0     H21951   6.708   1.266  11.432  0.8723  2.7886 -3.4434
  884MOL0     H21952   6.557   1.171  11.375 -0.6726  1.2705  0.1130
  884MOL0     H21953   6.544   1.293  11.496 -1.8801  3.0083 -1.6178
  884MOL0     H21954   6.868   1.033  11.017 -0.3415 -0.6410 -2.1294
  884MOL0     H21955   7.075   0.926  10.918 -1.5657 -0.7833  1.4631
  884MOL0     H21956   7.207   1.055  10.601 -1.2657  2.7132  0.1604
  884MOL0     H21957   7.353   1.154  10.650 -0.2101 -0.5190  0.6963
  884MOL0     H21958   7.390   0.864  10.676 -0.6503 -0.7338 -0.0809
  884MOL0     H21959   7.367   0.941  10.514  1.2688  1.8669 -0.3256
  884MOL0     H21960   7.574   1.035  10.714 -1.6813 -1.0547  0.3445
  884MOL0     H21961   7.554   1.096  10.554 -0.2218  0.4608 -0.0774
  884MOL0     H21962   7.590   0.875  10.453 -1.1960  1.4770 -0.0953
  884MOL0     H21963   7.640   0.807  10.612 -0.9753  0.5892  0.8660
  884MOL0     H21964   7.765   1.027  10.453  0.3400  0.8005  0.9211
  884MOL0     H21965   7.821   0.994  10.610 -0.9568  1.6331 -0.2561
  884MOL0     H21966   7.806   0.814  10.356 -1.3888  3.8623 -0.2849
  884MOL0     H21967   7.870   0.754  10.521  0.5963 -0.0750  1.5889
  884MOL0     H21968   8.061   0.786  10.393 -0.2828 -0.6628 -0.2714
  884MOL0     H21969   8.054   0.941  10.485  1.1546  0.2026 -2.4760
  884MOL0     H21970   8.102   0.968  10.266  0.3784  0.0392  2.0780
  884MOL0     H21971   7.953   1.060  10.316 -1.5102 -0.4769 -0.0454
  884MOL0     H21972   7.229   1.296  10.804  0.4114 -0.3424  0.8789
  884MOL0     H21973   7.034   1.417  10.909 -1.1504 -0.0445 -1.0762
  884MOL0     H21974   6.653   1.436  10.966  0.1872 -0.2556  0.8127
  884MOL0     H21975   6.462   1.582  10.992  1.8107  1.1721 -0.6309
  884MOL0     H21976   5.834   2.756  11.050  1.1397  0.6030  1.3911
  884MOL0     H21977   5.703   2.570  10.959 -1.2957 -0.9281  0.1351
  884MOL0     H21978   5.318   2.326  11.092  0.0128 -1.0450  0.5817
  884MOL0     H21979   5.127   2.197  11.053  0.4281 -1.5539  2.0193
  884MOL0     H21980   5.005   2.017  11.060  2.1738  0.5973 -0.4755
  884MOL0     H21981   4.962   2.097  10.908  2.5083  1.4213  1.3204
  884MOL0     H21982   4.963   1.795  10.935 -3.0974 -2.4709 -0.9211
  884MOL0     H21983   4.876   1.894  10.816  1.6902  2.0620 -0.2873
  884MOL0     H21984   4.821   1.903  11.122  1.2859  2.2430 -0.6794
  884MOL0     H21985   4.713   1.975  10.994  2.8474  2.5658  0.5134
  884MOL0     H21986   4.776   1.677  11.039  1.7616  0.0442  0.0411
  884MOL0     H21987   4.672   1.749  10.903  1.4386 -0.4078  0.1753
  884MOL0     H21988   4.424   1.732  11.252  1.7379  2.2121  1.2064
  884MOL0     H21989   5.356   1.945  10.792 -0.6848  1.5956 -2.0063
  884MOL0     H21990   5.610   2.139  10.738 -0.3399 -0.6246 -0.4261
  884MOL0     H21991   5.669   2.060  10.895 -0.4136 -0.1872  1.1763
  884MOL0     H21992   5.577   1.967  10.768  1.6326  0.7931 -1.5368
  885MOL0     O21993   6.813   8.351   3.540  0.5385  0.1108  0.3647
  885MOL0     C21994   6.767   8.250   3.592  0.4383 -1.0983  0.0006
  885MOL0     O21995   6.826   8.175   3.688 -0.3479 -0.6067  0.1505
  885MOL0     C21996   6.961   8.210   3.699 -0.3261  0.5999 -0.3443
  885MOL0     C21997   6.988   8.325   3.769 -0.0563 -0.0410  0.4166
  885MOL0     C21998   7.119   8.364   3.797 -0.1402  0.4686  0.1078
  885MOL0     C21999   7.225   8.280   3.755  0.0618 -0.6848  0.6042
  885MOL0     O22000   7.349   8.336   3.778 -0.2878 -0.2488  0.2309
  885MOL0     C22001   7.451   8.249   3.809 -0.2089  0.4124 -0.5900
  885MOL0     C22002   7.552   8.246   3.701  0.3475  0.2783  0.4555
  885MOL0     C22003   7.660   8.137   3.732 -0.7806  0.1515 -0.0160
  885MOL0     C22004   7.774   8.117   3.624  0.7913 -0.5156  0.2352
  885MOL0     C22005   7.876   8.014   3.651 -0.5655 -0.2197 -0.3972
  885MOL0     C22006   7.995   8.027   3.549 -0.2651  0.1593  0.6837
  885MOL0     C22007   8.052   7.889   3.517  0.5341  0.2613  1.1318
  885MOL0     C22008   8.164   7.892   3.407  0.3185 -0.4090 -0.2646
  885MOL0     N22009   8.142   7.965   3.277  0.5250 -0.7549 -0.2638
  885MOL0     C22010   8.055   7.927   3.184  0.4538  0.4004  1.0515
  885MOL0     C22011   8.106   7.980   3.068 -0.6531  0.6042  0.2376
  885MOL0     C22012   8.056   7.960   2.928 -0.9472  0.3693 -0.0156
  885MOL0     C22013   8.050   7.804   2.889  0.4572  0.1420 -0.0302
  885MOL0     C22014   8.064   7.787   2.737  0.2886 -0.0162 -1.0078
  885MOL0     C22015   8.097   7.645   2.700 -0.3845 -0.2305  0.3725
  885MOL0     O22016   8.228   7.615   2.742 -0.1099 -0.1070  0.4669
  885MOL0     C22017   8.245   7.477   2.764  0.0499  0.0584  0.7583
  885MOL0     C22018   8.296   7.440   2.883 -0.2501 -0.1563 -0.3110
  885MOL0     C22019   8.321   7.310   2.915  0.3531 -0.1963  0.1734
  885MOL0     C22020   8.376   7.290   3.060  0.0474 -0.4576 -0.2347
  885MOL0     C22021   8.297   7.207   2.821  0.6360 -0.5314  0.5994
  885MOL0     C22022   8.334   7.065   2.834  0.7904 -0.7193 -1.1844
  885MOL0     O22023   8.322   6.982   2.730 -0.4305 -0.6787  0.4601
  885MOL0     C22024   8.367   6.851   2.732  0.8337 -0.2297  0.6103
  885MOL0     C22025   8.329   6.769   2.842  0.2775 -0.3978 -0.1277
  885MOL0     C22026   8.372   6.635   2.851 -0.1232  0.1315  0.4900
  885MOL0     C22027   8.448   6.586   2.737  0.0557 -0.3911  1.0748
  885MOL0     O22028   8.482   6.455   2.714 -0.5594  0.0229 -0.0530
  885MOL0     C22029   8.419   6.354   2.791 -0.5695 -0.7523 -0.1418
  885MOL0     C22030   8.497   6.344   2.932  0.1967 -0.0177 -0.4861
  885MOL0     C22031   8.435   6.247   3.033  0.9854  0.0907 -0.5929
  885MOL0     C22032   8.350   6.333   3.122  0.0700  0.0836  0.0793
  885MOL0     C22033   8.445   6.405   3.227 -0.4506  0.5282  0.3349
  885MOL0     C22034   8.362   6.482   3.336  0.1124  0.2135  0.2242
  885MOL0     C22035   8.246   6.581   3.276 -0.4044  0.0308 -0.6238
  885MOL0     C22036   8.192   6.669   3.392 -0.4512  1.1362 -0.0372
  885MOL0    Cl22037   8.155   6.579   3.539  0.2579 -0.3687 -0.0403
  885MOL0     C22038   8.483   6.670   2.622 -0.0054  0.2160  0.2849
  885MOL0     C22039   8.442   6.801   2.622  0.5015 -0.3855 -0.5093
  885MOL0     O22040   8.357   7.024   2.949 -0.6382 -0.3696 -0.1027
  885MOL0     C22041   8.247   7.250   2.691  0.0034  0.8998 -1.0500
  885MOL0     C22042   8.220   7.379   2.667  0.8716  0.7444  0.3091
  885MOL0     N22043   8.225   8.039   3.098  0.1977 -0.6901  0.1207
  885MOL0     N22044   8.239   8.042   3.224  0.3948  0.1736 -0.8061
  885MOL0     C22045   7.194   8.167   3.679  0.3086  0.1682  0.5343
  885MOL0     C22046   7.065   8.123   3.651 -0.1231 -0.2066 -0.1807
  885MOL0     C22047   6.625   8.229   3.572 -0.2111 -0.0743  0.1721
  885MOL0     C22048   6.589   8.162   3.460  0.4225  0.1549 -0.4439
  885MOL0     C22049   6.451   8.145   3.425 -0.1050  0.3531  0.0969
  885MOL0     C22050   6.346   8.195   3.508 -0.4003 -0.6545  0.2528
  885MOL0     O22051   6.209   8.195   3.487  0.2780 -0.0243  0.2223
  885MOL0     C22052   6.161   8.146   3.354  1.0380 -0.0820 -0.0140
  885MOL0     C22053   6.158   7.993   3.371  1.1333 -0.3549 -0.8167
  885MOL0     C22054   6.055   7.921   3.279  0.6209  0.7829 -0.1717
  885MOL0     C22055   6.067   7.935   3.128 -0.8778  0.6902 -0.8806
  885MOL0     C22056   6.181   7.848   3.098  0.4495 -0.0658  0.0084
  885MOL0     C22057   6.266   7.763   3.083  0.0015  0.7686  0.4416
  885MOL0     C22058   6.387   8.262   3.622  0.7861  0.8180  0.1257
  885MOL0     C22059   6.523   8.279   3.661  0.8411  0.0108  0.2417
  885MOL0     C22060   6.546   8.336   3.795 -0.1175 -0.8747  0.7428
  885MOL0     H22061   6.902   8.377   3.811  2.4189  3.7415  1.3164
  885MOL0     H22062   7.135   8.460   3.846  1.9848  0.4559 -0.4653
  885MOL0     H22063   7.417   8.149   3.834  1.0126  0.2836  0.6981
  885MOL0     H22064   7.513   8.290   3.890  3.6160 -4.2630 -0.7407
  885MOL0     H22065   7.504   8.221   3.606 -0.9639 -1.2569  1.4660
  885MOL0     H22066   7.593   8.347   3.694 -0.9967  0.8205  0.0551
  885MOL0     H22067   7.711   8.159   3.827  0.9360  1.0833 -1.1104
  885MOL0     H22068   7.607   8.042   3.747 -0.2655 -0.4268 -1.6992
  885MOL0     H22069   7.722   8.094   3.530  1.8137  1.3489 -0.8589
  885MOL0     H22070   7.826   8.212   3.609  2.4316 -1.8289 -3.7930
  885MOL0     H22071   7.829   7.915   3.654 -3.1139  0.8596 -1.9418
  885MOL0     H22072   7.908   8.029   3.754  1.8844  0.1265 -1.1324
  885MOL0     H22073   7.962   8.072   3.455  3.1982  0.6122 -0.4553
  885MOL0     H22074   8.077   8.094   3.576  1.8083 -1.4520 -1.2671
  885MOL0     H22075   7.965   7.832   3.481  1.3094 -0.9470  1.1227
  885MOL0     H22076   8.098   7.835   3.600 -2.1215 -1.4983  1.6163
  885MOL0     H22077   8.247   7.942   3.458 -0.6425  0.5136  0.4566
  885MOL0     H22078   8.200   7.790   3.393  1.1162 -0.2331  0.4295
  885MOL0     H22079   7.964   7.871   3.201 -0.8643  1.7319 -1.1158
  885MOL0     H22080   8.122   8.013   2.858 -1.6537 -0.4993 -1.4039
  885MOL0     H22081   7.958   8.008   2.924 -0.2799  2.0488  2.1186
  885MOL0     H22082   8.126   7.749   2.945 -0.4951 -0.3711  0.7888
  885MOL0     H22083   7.953   7.762   2.918  1.2356 -1.6127  0.1622
  885MOL0     H22084   7.969   7.816   2.692 -0.4038 -2.6542 -1.4125
  885MOL0     H22085   8.135   7.856   2.691 -0.0360  0.5590 -0.6566
  885MOL0     H22086   8.016   7.577   2.730 -2.3145  1.3979 -0.8670
  885MOL0     H22087   8.096   7.645   2.590 -1.1674  1.3151  0.3541
  885MOL0     H22088   8.329   7.520   2.948 -2.5696  1.7296 -1.3134
  885MOL0     H22089   8.386   7.376   3.126 -0.3598  0.0219 -0.7829
  885MOL0     H22090   8.462   7.222   3.068 -2.3218 -3.8660 -1.0916
  885MOL0     H22091   8.290   7.232   3.096  0.7358 -1.1617  0.3139
  885MOL0     H22092   8.265   6.807   2.922 -1.7877 -1.9090 -0.9721
  885MOL0     H22093   8.357   6.573   2.939 -0.6817 -0.9849 -0.3776
  885MOL0     H22094   8.314   6.384   2.800  0.5919  3.8350  0.7275
  885MOL0     H22095   8.438   6.260   2.739  1.8319 -0.3606 -0.0629
  885MOL0     H22096   8.601   6.317   2.912  0.7049  0.6475  1.1492
  885MOL0     H22097   8.512   6.439   2.983 -3.0295 -0.3071  1.2090
  885MOL0     H22098   8.514   6.198   3.090 -0.2346  0.3576  1.4363
  885MOL0     H22099   8.377   6.171   2.980 -1.4362  1.7466 -0.4685
  885MOL0     H22100   8.277   6.266   3.170 -1.7741 -0.1021 -2.7515
  885MOL0     H22101   8.288   6.394   3.056 -1.8489 -4.6242 -2.9992
  885MOL0     H22102   8.517   6.337   3.273  0.7105  0.2363 -1.7445
  885MOL0     H22103   8.498   6.493   3.189  2.2864 -0.4787  1.5111
  885MOL0     H22104   8.427   6.536   3.405 -1.1851  1.2796  0.6634
  885MOL0     H22105   8.316   6.403   3.395 -0.9978 -0.4059 -1.3976
  885MOL0     H22106   8.167   6.515   3.239 -0.5172 -1.2990  1.7460
  885MOL0     H22107   8.285   6.644   3.196 -1.5585  0.9370 -0.5049
  885MOL0     H22108   8.107   6.719   3.347 -1.0040  0.0814 -0.1953
  885MOL0     H22109   8.267   6.747   3.412 -0.3870  1.7157 -2.3178
  885MOL0     H22110   8.540   6.628   2.540  0.0205  1.0260 -0.1193
  885MOL0     H22111   8.460   6.862   2.534  1.6757 -2.2723 -1.6281
  885MOL0     H22112   8.220   7.171   2.621  0.4963  0.2869 -0.5682
  885MOL0     H22113   8.188   7.411   2.568 -1.3623  2.7503  1.5711
  885MOL0     H22114   7.276   8.107   3.641 -0.5764 -0.5597 -0.2561
  885MOL0     H22115   7.036   8.035   3.595 -1.2335 -1.5237  2.2974
  885MOL0     H22116   6.663   8.127   3.389  0.8422 -0.1564  0.1399
  885MOL0     H22117   6.442   8.077   3.340 -1.7318  0.9708 -0.2529
  885MOL0     H22118   6.063   8.191   3.341  0.3266 -0.5339  2.9333
  885MOL0     H22119   6.224   8.167   3.267 -0.1993  0.7837 -0.7181
  885MOL0     H22120   6.128   7.983   3.476 -0.7625  3.6287 -0.8003
  885MOL0     H22121   6.258   7.950   3.362  1.1495 -0.7562  0.8848
  885MOL0     H22122   6.074   7.820   3.317  1.3286  1.1218  0.4059
  885MOL0     H22123   5.950   7.940   3.305  0.7482 -0.4353  1.4223
  885MOL0     H22124   6.101   8.033   3.094  0.2295  0.1330 -1.4220
  885MOL0     H22125   5.980   7.893   3.077 -0.5356 -1.8989  0.4886
  885MOL0     H22126   6.313   7.671   3.054 -3.3580 -1.1915  0.6400
  885MOL0     H22127   6.311   8.303   3.687 -0.1563  0.0166 -0.4389
  885MOL0     H22128   6.485   8.295   3.876 -2.1941  0.0747 -0.2818
  885MOL0     H22129   6.654   8.332   3.813  0.7003  2.2188 -2.3628
  885MOL0     H22130   6.508   8.438   3.789 -2.9967 -1.9072 -2.5013
  886MOL0     O22131   6.593   8.532   2.226 -0.0595 -0.5093  0.5661
  886MOL0     C22132   6.536   8.558   2.334  0.5378 -0.5371 -0.7499
  886MOL0     O22133   6.601   8.595   2.449  0.2290  0.0489 -0.2918
  886MOL0     C22134   6.735   8.630   2.447 -0.2687  0.8061  0.2758
  886MOL0     C22135   6.815   8.677   2.341  0.4746 -0.0161  0.3588
  886MOL0     C22136   6.942   8.724   2.368 -0.4255 -0.5047  0.4296
  886MOL0     C22137   7.002   8.710   2.496 -0.8814 -0.3036  0.2657
  886MOL0     O22138   7.129   8.767   2.520 -0.2335  0.2377 -0.3370
  886MOL0     C22139   7.200   8.729   2.641 -0.2871 -0.8539  0.4846
  886MOL0     C22140   7.342   8.777   2.633 -0.3520 -0.1020 -0.1502
  886MOL0     C22141   7.347   8.928   2.630 -0.6504 -0.1063 -0.6806
  886MOL0     C22142   7.407   8.970   2.771 -0.7223 -0.2295 -0.4221
  886MOL0     C22143   7.448   9.121   2.780  0.4711 -0.4126  0.3172
  886MOL0     C22144   7.332   9.221   2.796 -0.2491 -0.1050 -0.6298
  886MOL0     C22145   7.242   9.218   2.924 -0.2769  0.4753  0.3012
  886MOL0     C22146   7.121   9.117   2.924 -0.6226  0.5547  0.5409
  886MOL0     N22147   6.996   9.185   2.898  0.5581 -1.1528 -0.9997
  886MOL0     C22148   6.952   9.210   2.773  0.1232 -0.3890 -0.5074
  886MOL0     C22149   6.829   9.268   2.795 -0.3914  0.4122 -1.2183
  886MOL0     C22150   6.741   9.332   2.697 -0.0153  0.6221  0.4305
  886MOL0     C22151   6.679   9.458   2.762 -0.3608  0.2619 -0.1957
  886MOL0     C22152   6.783   9.562   2.797  0.7144  0.3098  0.0640
  886MOL0     C22153   6.709   9.693   2.816 -0.3543 -0.1593 -0.1689
  886MOL0     O22154   6.714   9.763   2.687 -0.1011  0.1355 -0.0614
  886MOL0     C22155   6.818   9.841   2.653 -0.3322 -0.4495 -0.5727
  886MOL0     C22156   6.800   9.898   2.529  0.4457 -0.4500 -0.8883
  886MOL0     C22157   6.897   9.983   2.476  0.7639  0.4738  0.4860
  886MOL0     C22158   6.864  10.058   2.344  1.1367 -0.0279 -0.0355
  886MOL0     C22159   7.017  10.006   2.550 -0.4799  0.4686 -0.2099
  886MOL0     C22160   7.127  10.094   2.508 -0.8818  0.4623  0.6981
  886MOL0     O22161   7.217  10.143   2.594 -0.2874 -0.7831 -0.2602
  886MOL0     C22162   7.272  10.274   2.585 -0.6415  0.7136 -0.4215
  886MOL0     C22163   7.370  10.301   2.683  1.9305  0.5331  0.1787
  886MOL0     C22164   7.430  10.428   2.686 -1.0826 -0.9065 -0.0934
  886MOL0     C22165   7.415  10.512   2.579  1.1081 -0.5480  0.1562
  886MOL0     O22166   7.457  10.640   2.571 -0.1302  0.2965 -0.5832
  886MOL0     C22167   7.567  10.689   2.647 -0.4361  0.0039  0.5628
  886MOL0     C22168   7.701  10.625   2.595  0.1116 -0.5906  0.5118
  886MOL0     C22169   7.727  10.661   2.450 -0.2707  0.3547  0.7678
  886MOL0     C22170   7.883  10.634   2.432  0.6045  0.2644  0.6318
  886MOL0     C22171   7.928  10.640   2.283 -0.6005  0.4736  0.0231
  886MOL0     C22172   7.891  10.513   2.202  0.1503 -0.0304 -0.3284
  886MOL0     C22173   7.946  10.517   2.059 -0.0028  0.2243  0.0405
  886MOL0     C22174   7.926  10.387   1.986 -0.3170 -0.0324 -0.7425
  886MOL0    Cl22175   7.999  10.250   2.089  0.2136 -0.1158 -0.0238
  886MOL0     C22176   7.316  10.491   2.486  0.1317  0.3201 -0.2217
  886MOL0     C22177   7.245  10.373   2.489  0.4711  0.7330  0.6865
  886MOL0     O22178   7.142  10.107   2.390  0.3635 -0.8304  0.0703
  886MOL0     C22179   7.032   9.950   2.677  0.1545  0.7565  0.6417
  886MOL0     C22180   6.929   9.868   2.731 -0.3061 -0.2146 -0.1043
  886MOL0     N22181   6.812   9.265   2.934  0.1629  0.5979 -0.1551
  886MOL0     N22182   6.916   9.228   2.998  0.4710  0.4876  0.6070
  886MOL0     C22183   6.929   8.639   2.590 -0.5065  0.8067  0.0130
  886MOL0     C22184   6.791   8.602   2.570  0.7217  1.4603 -0.0547
  886MOL0     C22185   6.389   8.576   2.339 -0.0293 -0.0983 -0.0882
  886MOL0     C22186   6.326   8.571   2.472  0.5805 -0.7083  0.1356
  886MOL0     C22187   6.187   8.577   2.482  0.0443 -0.2835  0.4533
  886MOL0     C22188   6.104   8.589   2.366  1.0297  0.0726 -0.8498
  886MOL0     O22189   5.968   8.559   2.385 -0.1356  0.4369  0.0018
  886MOL0     C22190   5.883   8.675   2.365 -0.7899  0.1316 -0.2847
  886MOL0     C22191   5.913   8.794   2.443 -0.0015  0.0359  0.6674
  886MOL0     C22192   5.913   8.759   2.591 -0.0910 -0.6292  0.3313
  886MOL0     C22193   5.911   8.883   2.688  0.7452 -0.0588  0.6090
  886MOL0     C22194   6.022   8.972   2.677  0.5240 -0.2636 -0.1094
  886MOL0     C22195   6.108   9.053   2.679  0.2334  0.0757  1.1169
  886MOL0     C22196   6.162   8.584   2.246 -0.6492 -1.2318 -0.4424
  886MOL0     C22197   6.299   8.586   2.231 -0.3737 -0.8029 -0.2595
  886MOL0     C22198   6.349   8.575   2.088  0.9467 -0.7215 -0.4165
  886MOL0     H22199   6.767   8.686   2.244 -0.8924 -0.4953  0.9654
  886MOL0     H22200   6.996   8.787   2.298  2.4011 -1.9822  1.1303
  886MOL0     H22201   7.193   8.621   2.657 -1.7376 -1.0252 -1.0497
  886MOL0     H22202   7.154   8.792   2.718 -2.4809  0.1449 -1.5276
  886MOL0     H22203   7.402   8.735   2.715 -1.1725  1.4304  1.2900
  886MOL0     H22204   7.384   8.727   2.545  1.0038  1.4035 -0.3956
  886MOL0     H22205   7.415   8.950   2.546  1.6106 -0.8371  0.8586
  886MOL0     H22206   7.246   8.965   2.614  0.2392  1.6641 -2.7516
  886MOL0     H22207   7.348   8.943   2.859  3.1482 -0.5249  2.3333
  886MOL0     H22208   7.503   8.920   2.784 -0.0655  0.0736 -3.3180
  886MOL0     H22209   7.501   9.163   2.695  2.1285  1.7332  2.2733
  886MOL0     H22210   7.510   9.147   2.867  0.2929  0.9500  0.0561
  886MOL0     H22211   7.380   9.319   2.795  2.3301 -1.2905 -0.4628
  886MOL0     H22212   7.279   9.225   2.701  2.2047 -0.5249 -2.1012
  886MOL0     H22213   7.204   9.320   2.937 -0.0242  0.7940 -1.2966
  886MOL0     H22214   7.309   9.186   3.004 -1.5473 -0.9588  0.8291
  886MOL0     H22215   7.144   9.041   2.848  0.6846  2.1637 -0.7412
  886MOL0     H22216   7.111   9.067   3.021 -3.1890  2.5147  1.3916
  886MOL0     H22217   7.002   9.192   2.679 -1.0539  0.9018 -1.4404
  886MOL0     H22218   6.655   9.271   2.668 -0.7840  2.1141 -0.5181
  886MOL0     H22219   6.777   9.358   2.598 -0.3844  3.6674  0.9948
  886MOL0     H22220   6.610   9.499   2.687  0.1244 -1.5323 -1.7061
  886MOL0     H22221   6.629   9.430   2.855  1.7658  0.6606  1.1314
  886MOL0     H22222   6.817   9.529   2.895 -0.2287  1.7713  0.9132
  886MOL0     H22223   6.867   9.571   2.727 -0.8323  3.9626 -1.5754
  886MOL0     H22224   6.604   9.673   2.840  0.1884  0.1272  2.7847
  886MOL0     H22225   6.750   9.748   2.900  0.2432 -1.9630  0.7797
  886MOL0     H22226   6.703   9.872   2.488 -0.4866 -0.3298  1.1240
  886MOL0     H22227   6.867  10.166   2.364  1.6811 -0.3534  1.7831
  886MOL0     H22228   6.759  10.038   2.320  1.4308 -1.4662 -0.2193
  886MOL0     H22229   6.927  10.032   2.259 -0.2696  1.9563 -1.7939
  886MOL0     H22230   7.388  10.228   2.760 -1.8152 -0.7947  0.0029
  886MOL0     H22231   7.488  10.453   2.775  0.6606 -1.7840 -0.9313
  886MOL0     H22232   7.566  10.797   2.629 -3.2510 -0.1599 -0.7468
  886MOL0     H22233   7.554  10.668   2.753  1.1053  0.2975  0.8334
  886MOL0     H22234   7.786  10.662   2.653 -0.6775 -2.2671  2.9197
  886MOL0     H22235   7.706  10.516   2.608  0.6029 -0.8777 -1.7226
  886MOL0     H22236   7.706  10.766   2.424 -0.7797 -0.1233 -0.8706
  886MOL0     H22237   7.669  10.598   2.382 -0.0737  0.7524  0.2195
  886MOL0     H22238   7.918  10.539   2.473  0.2824 -0.0042  0.2830
  886MOL0     H22239   7.939  10.707   2.492  0.9535  1.3485 -0.9570
  886MOL0     H22240   7.876  10.728   2.243 -0.3132  0.8469  0.4589
  886MOL0     H22241   8.036  10.657   2.285 -0.4882 -0.2462  0.6708
  886MOL0     H22242   7.782  10.503   2.201  0.0373  1.0811 -0.3897
  886MOL0     H22243   7.918  10.424   2.260 -4.2877 -0.7599  1.0772
  886MOL0     H22244   8.054  10.532   2.057 -0.1033  1.2308  1.0290
  886MOL0     H22245   7.902  10.601   2.004  2.7267  1.7306  0.0128
  886MOL0     H22246   7.979  10.385   1.890 -0.0701  0.9525 -0.6359
  886MOL0     H22247   7.820  10.366   1.974 -0.3859 -3.2932  3.1476
  886MOL0     H22248   7.301  10.567   2.411  3.8241  1.7558  0.3046
  886MOL0     H22249   7.160  10.355   2.424  0.0915 -1.8873  1.7998
  886MOL0     H22250   7.122   9.970   2.735  0.0713  0.7592  0.7713
  886MOL0     H22251   6.927   9.826   2.831  1.1391 -0.8359 -0.3075
  886MOL0     H22252   6.963   8.631   2.693 -1.3920 -1.2781  0.2000
  886MOL0     H22253   6.749   8.558   2.661  2.3906 -1.4177 -0.5667
  886MOL0     H22254   6.381   8.545   2.562 -0.3988  2.6856  1.8777
  886MOL0     H22255   6.144   8.553   2.579  0.4598 -0.7691  0.5211
  886MOL0     H22256   5.890   8.697   2.258  2.3621 -2.0550 -0.6945
  886MOL0     H22257   5.781   8.643   2.389 -0.5656 -1.2368 -1.0002
  886MOL0     H22258   5.837   8.871   2.423  0.7742  0.1123 -2.5459
  886MOL0     H22259   6.009   8.844   2.431  0.8077 -1.2325  1.6807
  886MOL0     H22260   5.821   8.700   2.600  0.5716 -1.4071  2.9951
  886MOL0     H22261   5.994   8.694   2.625 -0.3936 -1.2025 -0.0318
  886MOL0     H22262   5.893   8.845   2.790  0.3682  1.5686  1.1704
  886MOL0     H22263   5.824   8.943   2.661  0.5197 -1.1864 -1.3591
  886MOL0     H22264   6.171   9.140   2.678 -0.5873  0.6808  0.3941
  886MOL0     H22265   6.101   8.597   2.157  1.6456  0.3782 -1.8650
  886MOL0     H22266   6.439   8.636   2.077  0.6304 -0.4920 -1.9237
  886MOL0     H22267   6.379   8.471   2.073  1.5723 -0.9339  1.8438
  886MOL0     H22268   6.281   8.615   2.012  1.8530  0.2019 -0.7647
  887MOL0     O22269   8.942  11.079   7.115 -0.0638 -0.4633 -0.1377
  887MOL0     C22270   8.883  11.008   7.035 -0.8156  0.8216  0.1698
  887MOL0     O22271   8.946  10.931   6.937 -0.1812  0.0547 -0.1691
  887MOL0     C22272   9.080  10.934   6.912  0.4026 -0.0213  0.7322
  887MOL0     C22273   9.184  10.949   7.007  0.6298  0.9222 -0.7960
  887MOL0     C22274   9.322  10.942   6.970  0.3313 -0.1676 -0.6355
  887MOL0     C22275   9.358  10.906   6.839 -0.3313 -0.2916 -0.3163
  887MOL0     O22276   9.493  10.905   6.793  0.4831  0.5221 -1.0965
  887MOL0     C22277   9.596  10.837   6.862  0.0496 -0.1646 -0.3559
  887MOL0     C22278   9.695  10.942   6.930 -0.1721  0.0107 -0.1843
  887MOL0     C22279   9.769  11.031   6.837  0.2967  0.0814  0.0107
  887MOL0     C22280   9.870  11.120   6.898  0.1901  0.6528  0.5398
  887MOL0     C22281   9.958  11.192   6.797 -0.0740 -0.5240  0.3804
  887MOL0     C22282  10.053  11.289   6.859 -0.5989 -0.6847  0.2065
  887MOL0     C22283  10.133  11.379   6.754  0.0023  0.1015 -0.5058
  887MOL0     C22284  10.244  11.455   6.821 -0.1345 -0.3882 -0.2968
  887MOL0     N22285  10.319  11.541   6.721  0.2894 -0.8611 -0.2827
  887MOL0     C22286  10.428  11.508   6.642 -0.6587 -0.1777 -0.9259
  887MOL0     C22287  10.448  11.611   6.560 -0.0262 -0.0424 -0.1183
  887MOL0     C22288  10.545  11.616   6.447 -0.0533 -0.4190 -0.2209
  887MOL0     C22289  10.691  11.602   6.505 -0.0516  0.3722 -0.2286
  887MOL0     C22290  10.797  11.632   6.389 -0.6799 -0.4052  0.7875
  887MOL0     C22291  10.931  11.634   6.450 -0.5762  0.1147  0.1039
  887MOL0     O22292  11.039  11.639   6.349 -0.3876 -0.4776 -0.6633
  887MOL0     C22293  11.172  11.645   6.391 -1.5183 -0.2335  0.2091
  887MOL0     C22294  11.209  11.683   6.523  0.3054 -0.1254  0.4501
  887MOL0     C22295  11.345  11.677   6.568 -0.1847 -0.0587 -0.2768
  887MOL0     C22296  11.383  11.724   6.712  0.0571  0.4439 -0.7785
  887MOL0     C22297  11.451  11.615   6.491 -0.2475 -0.1868 -1.6044
  887MOL0     C22298  11.600  11.599   6.519 -0.6803 -0.0429 -0.9163
  887MOL0     O22299  11.643  11.572   6.652  1.1200  0.0699  0.4223
  887MOL0     C22300  11.772  11.529   6.687 -0.0225  0.5795  0.2447
  887MOL0     C22301  11.812  11.575   6.811 -0.4725  0.1690 -0.5093
  887MOL0     C22302  11.930  11.549   6.868 -0.0758  0.3058  0.2536
  887MOL0     C22303  12.018  11.458   6.806 -0.2194  0.1731 -0.3576
  887MOL0     O22304  12.136  11.418   6.874 -0.5497 -0.2040  0.0333
  887MOL0     C22305  12.208  11.296   6.833  0.4339  0.0127 -0.0312
  887MOL0     C22306  12.315  11.251   6.936  0.4477  0.0050 -0.7868
  887MOL0     C22307  12.436  11.349   6.913 -1.2898  0.1538  0.1982
  887MOL0     C22308  12.554  11.302   6.996 -0.3278 -0.1673 -0.6132
  887MOL0     C22309  12.537  11.343   7.146 -0.0145 -0.7374 -0.4001
  887MOL0     C22310  12.647  11.281   7.224 -0.4891 -0.2841  0.2208
  887MOL0     C22311  12.778  11.345   7.170  0.4721  0.1942 -0.0638
  887MOL0     C22312  12.902  11.348   7.259  0.6550 -1.4859  0.2935
  887MOL0    Cl22313  13.033  11.411   7.166 -0.0355 -0.2371 -0.2248
  887MOL0     C22314  11.977  11.395   6.684 -0.1389  0.1095 -0.2639
  887MOL0     C22315  11.859  11.441   6.622  0.5305  0.6742  0.3468
  887MOL0     O22316  11.682  11.615   6.426  0.0612 -0.5772 -0.6771
  887MOL0     C22317  11.410  11.598   6.356  0.0690  0.7246  0.0555
  887MOL0     C22318  11.281  11.606   6.308 -0.2714  0.9831  0.8861
  887MOL0     N22319  10.361  11.709   6.590  0.3885  0.0168  0.1845
  887MOL0     N22320  10.277  11.657   6.675 -0.5102 -0.4812  0.4614
  887MOL0     C22321   9.258  10.891   6.743  0.4031 -0.5134 -0.6474
  887MOL0     C22322   9.117  10.906   6.770 -0.0015 -0.2755 -0.1249
  887MOL0     C22323   8.737  11.014   7.026 -0.4246  0.5336  0.1647
  887MOL0     C22324   8.676  11.027   6.900  0.6790  0.3712 -0.5629
  887MOL0     C22325   8.536  11.026   6.878 -0.2111  0.5751 -0.4056
  887MOL0     C22326   8.453  11.013   6.988 -0.0866  0.0430  0.2641
  887MOL0     O22327   8.316  11.006   6.966  0.2779 -0.6227 -0.5619
  887MOL0     C22328   8.258  10.896   7.030 -0.0010 -0.4495  0.7320
  887MOL0     C22329   8.111  10.878   6.986 -0.4085 -0.3125  0.7478
  887MOL0     C22330   8.022  10.993   7.021  0.1149 -0.4453 -0.2476
  887MOL0     C22331   7.887  10.945   7.062  0.0889 -0.2825  0.0012
  887MOL0     C22332   7.799  11.047   7.121  0.3379 -0.1018 -0.3380
  887MOL0     C22333   7.716  11.115   7.175  0.6201  0.3396 -0.6148
  887MOL0     C22334   8.513  11.005   7.117 -0.3735 -0.0770 -0.2139
  887MOL0     C22335   8.660  11.010   7.132  0.8612 -0.0898 -0.0295
  887MOL0     C22336   8.703  11.023   7.275  0.0656  0.4915 -0.5533
  887MOL0     H22337   9.157  10.953   7.112  0.7327 -0.0830 -0.7206
  887MOL0     H22338   9.399  10.954   7.045  0.1475 -0.2385 -0.4358
  887MOL0     H22339   9.653  10.777   6.790  1.2093  1.2949 -0.6882
  887MOL0     H22340   9.561  10.772   6.944 -1.3173  0.4596 -0.4205
  887MOL0     H22341   9.626  11.000   6.991 -3.0036 -2.4871 -0.7746
  887MOL0     H22342   9.767  10.890   6.994 -1.2241  0.4208  1.3900
  887MOL0     H22343   9.817  10.963   6.766  0.0375 -0.1998  0.0987
  887MOL0     H22344   9.696  11.090   6.781 -1.1940 -1.4492  0.2640
  887MOL0     H22345   9.808  11.180   6.965 -0.2214 -1.6847  2.3741
  887MOL0     H22346   9.940  11.063   6.959 -1.8930  0.6576  3.0891
  887MOL0     H22347   9.890  11.250   6.734 -1.5529 -1.7582  0.7833
  887MOL0     H22348  10.014  11.126   6.731 -1.1961  0.1256 -1.2943
  887MOL0     H22349  10.004  11.353   6.933  2.6551  0.7680  1.3197
  887MOL0     H22350  10.127  11.231   6.915  1.8149  0.6709 -1.3803
  887MOL0     H22351  10.059  11.450   6.715 -0.1927 -0.0027 -0.3282
  887MOL0     H22352  10.161  11.319   6.667  1.1290  2.6359 -2.0124
  887MOL0     H22353  10.199  11.521   6.896 -0.6600  1.5732 -2.2171
  887MOL0     H22354  10.310  11.383   6.869 -1.9679 -0.5622  2.1245
  887MOL0     H22355  10.497  11.426   6.656  1.1716  1.5941  1.1108
  887MOL0     H22356  10.538  11.715   6.399  3.6780  0.7576  1.3447
  887MOL0     H22357  10.518  11.539   6.375 -0.5772  1.0999 -1.7377
  887MOL0     H22358  10.702  11.670   6.590  1.1078  2.2146 -1.7885
  887MOL0     H22359  10.710  11.504   6.550  1.6696  0.5693 -0.4636
  887MOL0     H22360  10.802  11.566   6.301  2.1313 -0.3279  0.8232
  887MOL0     H22361  10.795  11.732   6.344  0.2072 -1.2385 -1.2728
  887MOL0     H22362  10.955  11.725   6.507  0.2466  1.2191 -1.8825
  887MOL0     H22363  10.947  11.547   6.514  2.0907  1.0357  0.8105
  887MOL0     H22364  11.135  11.731   6.586  1.4529  2.1098  0.1777
  887MOL0     H22365  11.312  11.801   6.744  0.8239  0.8659 -0.0458
  887MOL0     H22366  11.483  11.769   6.718 -0.9313  2.6158  1.1666
  887MOL0     H22367  11.376  11.648   6.789  0.6146  3.8647  3.0028
  887MOL0     H22368  11.742  11.645   6.856 -1.3612 -0.7584 -0.4177
  887MOL0     H22369  11.965  11.591   6.962  0.2431 -1.0177  0.7585
  887MOL0     H22370  12.144  11.213   6.803 -0.3205  1.2302 -2.0182
  887MOL0     H22371  12.253  11.327   6.738 -1.4944  0.1269 -0.9735
  887MOL0     H22372  12.278  11.249   7.039 -0.0616  0.3907 -0.9587
  887MOL0     H22373  12.356  11.152   6.914  1.8090  0.6363 -1.2000
  887MOL0     H22374  12.414  11.456   6.920 -2.6373 -0.0649 -0.4028
  887MOL0     H22375  12.470  11.328   6.811  1.4687 -0.5577  1.1796
  887MOL0     H22376  12.638  11.356   6.951 -1.6635  2.3970 -0.1859
  887MOL0     H22377  12.569  11.194   6.995 -2.1819 -0.4843  0.9169
  887MOL0     H22378  12.528  11.452   7.152 -1.8371 -0.7455 -1.9755
  887MOL0     H22379  12.444  11.298   7.181 -0.4177  0.4058  0.0688
  887MOL0     H22380  12.659  11.172   7.217 -0.0996 -0.3948  2.0285
  887MOL0     H22381  12.625  11.301   7.329  0.5852  1.7560  0.0975
  887MOL0     H22382  12.754  11.442   7.127 -2.9123 -0.4663  0.1247
  887MOL0     H22383  12.796  11.283   7.081  0.2923 -2.0272  1.3564
  887MOL0     H22384  12.921  11.241   7.277 -1.3631 -2.5746 -2.9950
  887MOL0     H22385  12.878  11.400   7.352  0.2345 -0.1793 -0.5208
  887MOL0     H22386  12.040  11.330   6.625  1.0289  1.6324 -0.7569
  887MOL0     H22387  11.822  11.380   6.540 -4.0407 -1.0820  3.2948
  887MOL0     H22388  11.485  11.552   6.292 -1.7823 -0.2429 -1.5302
  887MOL0     H22389  11.253  11.560   6.213 -0.4684 -2.5190  2.4609
  887MOL0     H22390   9.299  10.874   6.644 -0.8482  0.7251 -1.4171
  887MOL0     H22391   9.052  10.907   6.683 -0.2774 -0.5775  0.0735
  887MOL0     H22392   8.746  11.032   6.817  1.7452 -1.4860  0.1694
  887MOL0     H22393   8.498  11.024   6.777  1.6520 -2.5589 -1.1775
  887MOL0     H22394   8.316  10.807   7.005  1.3217  0.4835  0.3707
  887MOL0     H22395   8.267  10.893   7.139 -0.4820 -2.9940  0.7460
  887MOL0     H22396   8.075  10.780   7.017  1.3958 -1.5480 -0.8453
  887MOL0     H22397   8.104  10.869   6.877 -0.4110 -2.7337  0.8958
  887MOL0     H22398   8.062  11.060   7.097  0.3209  2.8685 -3.0267
  887MOL0     H22399   8.010  11.058   6.934 -4.3183  4.0538  3.1279
  887MOL0     H22400   7.886  10.870   7.142  0.2280 -1.2444 -0.8635
  887MOL0     H22401   7.831  10.907   6.975  0.4089 -1.0759  0.1316
  887MOL0     H22402   7.644  11.181   7.219  1.0961  0.0566  0.6523
  887MOL0     H22403   8.453  10.988   7.206 -0.6912 -0.3174 -0.4713
  887MOL0     H22404   8.668  10.936   7.331 -0.6526 -0.2066 -2.0387
  887MOL0     H22405   8.809  11.046   7.292 -0.0793 -0.6431  2.6975
  887MOL0     H22406   8.656  11.114   7.312 -0.3095 -0.6410  1.9698
  888MOL0     O22407   6.995   4.880   2.176 -0.0142  0.1986 -0.4537
  888MOL0     C22408   6.998   4.916   2.297 -0.5789 -0.4883 -0.1486
  888MOL0     O22409   7.059   5.032   2.336 -0.0242 -0.1928  0.0168
  888MOL0     C22410   7.108   5.122   2.244  0.6789  0.0932  0.2136
  888MOL0     C22411   7.232   5.099   2.186 -0.1545  0.0819  0.1384
  888MOL0     C22412   7.287   5.187   2.089 -0.7051 -0.1409 -0.5265
  888MOL0     C22413   7.216   5.292   2.032 -0.6674  0.0345 -0.5768
  888MOL0     O22414   7.266   5.383   1.942 -0.0191  0.6271  0.2094
  888MOL0     C22415   7.387   5.358   1.869 -0.3195 -0.2730 -0.0579
  888MOL0     C22416   7.402   5.476   1.769  0.5393  0.5326 -0.7944
  888MOL0     C22417   7.531   5.478   1.690 -0.0828 -0.1891  0.0893
  888MOL0     C22418   7.533   5.576   1.572 -0.1704 -0.5776 -0.4370
  888MOL0     C22419   7.648   5.541   1.483 -0.0339 -0.5294  0.9285
  888MOL0     C22420   7.758   5.649   1.491  0.0048 -0.1591 -0.3125
  888MOL0     C22421   7.886   5.607   1.420  0.1764 -0.1164  0.2343
  888MOL0     C22422   8.007   5.702   1.435  0.2981  1.1584  0.4413
  888MOL0     N22423   8.043   5.757   1.566 -0.2693  0.1407 -0.5617
  888MOL0     C22424   8.031   5.889   1.612 -0.4330 -0.0640  0.7252
  888MOL0     C22425   8.104   5.891   1.724 -0.1046  0.0799  0.4148
  888MOL0     C22426   8.116   6.015   1.799  0.5461  0.4701 -0.3526
  888MOL0     C22427   7.996   6.042   1.886 -0.1221 -0.7294 -0.6607
  888MOL0     C22428   8.003   5.969   2.016 -0.5838 -0.3410  0.3520
  888MOL0     C22429   7.893   6.003   2.118  0.7826  0.3379 -0.0333
  888MOL0     O22430   7.908   6.137   2.163 -0.1589 -0.8341 -0.5111
  888MOL0     C22431   7.812   6.185   2.251 -0.2267 -0.9774  1.0620
  888MOL0     C22432   7.688   6.132   2.268 -0.0241  0.0405 -0.6797
  888MOL0     C22433   7.590   6.194   2.357  0.0726  0.1589 -0.4212
  888MOL0     C22434   7.447   6.154   2.361  0.0630  0.2757 -0.8952
  888MOL0     C22435   7.634   6.296   2.440 -0.2671  0.4059  0.5541
  888MOL0     C22436   7.540   6.352   2.535 -0.2683  0.2287 -0.0109
  888MOL0     O22437   7.517   6.275   2.644 -0.8133 -0.2571  0.3156
  888MOL0     C22438   7.426   6.314   2.735 -0.3419  0.6783  0.3283
  888MOL0     C22439   7.468   6.323   2.865  0.7689  1.3049  0.4572
  888MOL0     C22440   7.384   6.353   2.970 -0.2054  0.0294 -0.4739
  888MOL0     C22441   7.249   6.365   2.939  0.4753  0.0608 -0.1485
  888MOL0     O22442   7.149   6.394   3.028  0.0268 -0.3409  0.4794
  888MOL0     C22443   7.169   6.392   3.166 -0.5602  0.5960 -0.1821
  888MOL0     C22444   7.029   6.360   3.228  0.8200 -0.6259 -0.7252
  888MOL0     C22445   7.014   6.371   3.380 -0.4503  0.1678  0.5607
  888MOL0     C22446   6.871   6.368   3.423  0.1750 -0.2007  0.0132
  888MOL0     C22447   6.855   6.357   3.569 -0.4444  0.3681 -0.2941
  888MOL0     C22448   6.884   6.493   3.635 -0.4303  0.1135  0.2184
  888MOL0     C22449   6.856   6.499   3.784 -0.2077  0.1428 -1.1897
  888MOL0     C22450   6.971   6.451   3.871  0.0002 -0.6673  0.4349
  888MOL0    Cl22451   7.118   6.554   3.835  0.3106  0.2822 -0.3945
  888MOL0     C22452   7.205   6.370   2.805 -0.4271 -0.2733 -0.3697
  888MOL0     C22453   7.292   6.339   2.699 -0.2765 -0.1693  0.1264
  888MOL0     O22454   7.491   6.464   2.509  0.0704 -0.4269 -0.0798
  888MOL0     C22455   7.762   6.345   2.421  0.0099  0.5087  0.1903
  888MOL0     C22456   7.850   6.294   2.325 -0.2241 -0.0951 -1.1820
  888MOL0     N22457   8.148   5.766   1.757 -0.2664 -0.3736 -0.2930
  888MOL0     N22458   8.102   5.685   1.671  0.5536  0.3811  0.8775
  888MOL0     C22459   7.090   5.307   2.094 -0.7362 -0.3557  1.0141
  888MOL0     C22460   7.040   5.231   2.199 -0.2753  0.1474 -0.1233
  888MOL0     C22461   6.926   4.838   2.402 -0.7536  0.1580 -0.5581
  888MOL0     C22462   6.942   4.889   2.529 -0.5245  0.5918 -0.4661
  888MOL0     C22463   6.885   4.819   2.639  0.1868  0.1812 -0.2287
  888MOL0     C22464   6.818   4.695   2.621  0.3510 -0.7944 -0.5552
  888MOL0     O22465   6.752   4.627   2.720  0.9368  0.5312  0.1286
  888MOL0     C22466   6.761   4.667   2.859 -0.3609 -1.4732  0.0338
  888MOL0     C22467   6.871   4.591   2.931 -0.2420  0.0978 -1.4343
  888MOL0     C22468   6.821   4.456   2.973 -1.0161  0.2176 -0.4276
  888MOL0     C22469   6.947   4.364   2.985 -0.3464 -1.3872  0.6603
  888MOL0     C22470   6.927   4.251   3.063  0.0726  0.4679 -0.0359
  888MOL0     C22471   6.926   4.151   3.136  0.6304 -0.2815  0.5000
  888MOL0     C22472   6.796   4.654   2.491  0.1968  0.2176 -0.3260
  888MOL0     C22473   6.853   4.720   2.383 -0.1474 -0.2927  0.4623
  888MOL0     C22474   6.829   4.663   2.241 -0.3096  0.1395 -0.0703
  888MOL0     H22475   7.290   5.016   2.225  0.5271  1.6253  2.6341
  888MOL0     H22476   7.387   5.159   2.057 -0.2597 -1.7937  1.9536
  888MOL0     H22477   7.380   5.273   1.801 -1.1648 -0.2788  0.0274
  888MOL0     H22478   7.475   5.351   1.933  0.7561  0.0583 -1.4499
  888MOL0     H22479   7.313   5.469   1.706 -2.9161 -1.5873  3.7385
  888MOL0     H22480   7.392   5.572   1.819 -0.2112  0.6314 -1.1208
  888MOL0     H22481   7.612   5.503   1.759 -0.5014  1.2378  0.1042
  888MOL0     H22482   7.557   5.378   1.655  2.9694  0.6820 -0.4536
  888MOL0     H22483   7.437   5.569   1.520 -1.5893  3.0363  1.3395
  888MOL0     H22484   7.540   5.677   1.614 -2.8616  0.5395 -2.3662
  888MOL0     H22485   7.610   5.538   1.381 -1.4851  1.2644  1.3499
  888MOL0     H22486   7.696   5.444   1.497 -0.1763 -0.6089  0.8633
  888MOL0     H22487   7.715   5.741   1.451 -0.5255 -1.2851 -2.4430
  888MOL0     H22488   7.774   5.660   1.599 -0.2348 -0.8299 -0.2041
  888MOL0     H22489   7.855   5.605   1.316  1.4498  2.0370 -0.2670
  888MOL0     H22490   7.907   5.504   1.450  0.7165 -0.0851 -0.0242
  888MOL0     H22491   8.092   5.642   1.403 -0.5731  0.6960 -1.0692
  888MOL0     H22492   8.002   5.779   1.357  0.1517  0.9301  0.2261
  888MOL0     H22493   7.976   5.969   1.563  2.9172  1.2773 -1.1919
  888MOL0     H22494   8.098   6.084   1.717  0.0751 -0.1601 -0.7948
  888MOL0     H22495   8.204   6.036   1.860 -0.2301  0.4124  0.8373
  888MOL0     H22496   7.979   6.150   1.896 -2.9583 -1.0998 -0.7545
  888MOL0     H22497   7.901   6.008   1.844 -0.9012 -0.7987  1.0519
  888MOL0     H22498   7.975   5.866   1.994 -2.9220  0.0914  1.0237
  888MOL0     H22499   8.102   5.962   2.063  1.5626 -0.1283 -3.6994
  888MOL0     H22500   7.793   5.995   2.072 -0.3896  3.3676  1.7089
  888MOL0     H22501   7.901   5.930   2.198 -0.6067 -0.7607 -0.8488
  888MOL0     H22502   7.645   6.055   2.205  1.3571  0.6830 -2.4643
  888MOL0     H22503   7.387   6.246   2.365  0.9048  0.8816 -1.6582
  888MOL0     H22504   7.426   6.101   2.454 -0.2131  0.6843 -0.7223
  888MOL0     H22505   7.416   6.101   2.270 -0.7848  1.0951 -1.1008
  888MOL0     H22506   7.575   6.316   2.882  0.9599 -0.4376 -1.1699
  888MOL0     H22507   7.417   6.367   3.073 -1.7989 -0.1259  0.0832
  888MOL0     H22508   7.233   6.311   3.202 -4.0639 -1.4716  1.9978
  888MOL0     H22509   7.217   6.485   3.199 -0.3004 -0.3428  2.2932
  888MOL0     H22510   6.966   6.445   3.198  3.3226  0.5553 -3.2163
  888MOL0     H22511   6.991   6.265   3.192  5.5848 -3.5500  1.0012
  888MOL0     H22512   7.050   6.470   3.408  2.4905 -0.8181  0.6314
  888MOL0     H22513   7.066   6.289   3.431 -0.3007  0.2968  0.6153
  888MOL0     H22514   6.822   6.286   3.370 -0.2226  1.0972 -1.7350
  888MOL0     H22515   6.817   6.456   3.386 -0.4063  0.6031  2.5532
  888MOL0     H22516   6.754   6.327   3.598 -0.0830 -0.6060 -0.0096
  888MOL0     H22517   6.924   6.280   3.604 -0.8458 -0.0198 -0.3408
  888MOL0     H22518   6.817   6.563   3.585  1.8699 -0.4036 -4.0895
  888MOL0     H22519   6.987   6.526   3.614  0.3639 -1.6359  1.1145
  888MOL0     H22520   6.768   6.437   3.803 -1.0161  0.7679 -2.8273
  888MOL0     H22521   6.827   6.601   3.808 -4.5442 -1.2465  0.3475
  888MOL0     H22522   6.994   6.346   3.853  0.4411 -0.4613 -0.2205
  888MOL0     H22523   6.942   6.465   3.976  1.5107 -0.5070  0.8571
  888MOL0     H22524   7.104   6.405   2.785  1.1184  3.8521 -1.9988
  888MOL0     H22525   7.271   6.345   2.592  0.6512  1.6186  0.0005
  888MOL0     H22526   7.802   6.427   2.480  1.5934 -0.3875  0.4462
  888MOL0     H22527   7.955   6.322   2.331 -0.4079  0.2619  2.2339
  888MOL0     H22528   7.028   5.391   2.065 -1.3022 -1.0846  0.0207
  888MOL0     H22529   6.940   5.242   2.242 -0.3815 -2.5943  0.5271
  888MOL0     H22530   7.008   4.970   2.557  0.2560  0.2585 -1.2823
  888MOL0     H22531   6.892   4.868   2.736 -3.0474  1.7130 -0.6200
  888MOL0     H22532   6.781   4.774   2.865 -2.1231 -0.8858 -2.8498
  888MOL0     H22533   6.661   4.650   2.902 -1.4262 -0.3935 -1.8626
  888MOL0     H22534   6.899   4.645   3.023  1.2606 -2.2819 -0.4022
  888MOL0     H22535   6.969   4.574   2.885 -0.1103 -1.8827 -0.5038
  888MOL0     H22536   6.761   4.459   3.065  0.8154 -2.5251  0.9930
  888MOL0     H22537   6.763   4.412   2.892 -0.7206 -0.3238 -0.3499
  888MOL0     H22538   7.026   4.416   3.041 -0.8036 -2.6822  2.6285
  888MOL0     H22539   6.984   4.341   2.885  0.7041  3.5171 -0.3511
  888MOL0     H22540   6.928   4.072   3.209 -3.1924  1.6102  2.9622
  888MOL0     H22541   6.741   4.561   2.473 -0.8175  0.0027  3.1436
  888MOL0     H22542   6.919   4.628   2.189 -0.7516  1.2098 -1.6155
  888MOL0     H22543   6.757   4.582   2.258  0.5670 -0.4556  0.9127
  888MOL0     H22544   6.796   4.741   2.172  1.8007 -0.2981 -1.6603
  889MOL0     O22545   7.340   2.634   6.731 -0.4164  0.1396  0.4780
  889MOL0     C22546   7.382   2.721   6.650 -0.3801  0.3418  0.0572
  889MOL0     O22547   7.504   2.707   6.576  0.1747  0.1916  0.2727
  889MOL0     C22548   7.568   2.583   6.587 -0.3077 -0.4903  0.5719
  889MOL0     C22549   7.559   2.486   6.489  0.7361 -0.4091 -0.0094
  889MOL0     C22550   7.611   2.357   6.516 -0.7425 -0.5007 -0.6204
  889MOL0     C22551   7.705   2.336   6.619 -0.1869  0.6834 -0.1120
  889MOL0     O22552   7.773   2.217   6.609 -0.6055 -0.5353  0.4471
  889MOL0     C22553   7.883   2.191   6.695 -0.1699  0.4037 -0.7597
  889MOL0     C22554   7.969   2.084   6.620  1.0987 -0.0868  0.4565
  889MOL0     C22555   8.101   2.052   6.701  0.0240 -0.1259  0.2907
  889MOL0     C22556   8.171   1.934   6.632 -0.9588 -0.4949 -0.2935
  889MOL0     C22557   8.321   1.917   6.683  0.5892 -0.5533 -0.1060
  889MOL0     C22558   8.397   1.837   6.589  0.3842  0.0352  0.8930
  889MOL0     C22559   8.548   1.822   6.642  0.8023 -0.0044  0.7184
  889MOL0     C22560   8.638   1.778   6.530  0.3345  0.4484 -0.1251
  889MOL0     N22561   8.778   1.788   6.573  0.0089 -0.6805  0.5032
  889MOL0     C22562   8.846   1.681   6.619 -0.3661 -0.0188  0.2319
  889MOL0     C22563   8.966   1.729   6.655 -1.0761 -0.2331  0.5723
  889MOL0     C22564   9.085   1.660   6.720  0.0979 -0.2550  0.3689
  889MOL0     C22565   9.098   1.696   6.864 -0.6207  0.5203 -0.3555
  889MOL0     C22566   8.974   1.667   6.950 -0.4797  0.1782 -0.3160
  889MOL0     C22567   8.994   1.745   7.082 -0.6219  0.9909 -0.6167
  889MOL0     O22568   9.119   1.708   7.134  0.3985 -0.2356  0.5757
  889MOL0     C22569   9.168   1.770   7.248  0.7412  0.4358  0.3249
  889MOL0     C22570   9.304   1.766   7.273 -0.3523 -0.0158  0.7957
  889MOL0     C22571   9.368   1.810   7.387  0.5926 -0.5658 -0.0218
  889MOL0     C22572   9.522   1.796   7.391  0.4203  0.4286 -0.8909
  889MOL0     C22573   9.283   1.875   7.486  0.0512 -0.6303  0.3553
  889MOL0     C22574   9.330   1.931   7.611 -0.9492  0.3138 -0.1760
  889MOL0     O22575   9.421   1.852   7.682 -0.2573 -0.3094 -0.3636
  889MOL0     C22576   9.462   1.871   7.811 -0.8493  0.1012  0.4650
  889MOL0     C22577   9.424   1.977   7.904 -0.1059 -0.6816  0.7345
  889MOL0     C22578   9.471   1.976   8.037  0.8945 -0.1435  0.1938
  889MOL0     C22579   9.537   1.861   8.081 -0.5813 -0.3230 -0.5179
  889MOL0     O22580   9.581   1.861   8.211 -0.3348  0.1109 -0.3037
  889MOL0     C22581   9.583   1.745   8.296  0.2547 -0.0241  0.2703
  889MOL0     C22582   9.719   1.686   8.316 -0.8096 -0.0748  0.1649
  889MOL0     C22583   9.834   1.797   8.326 -0.2943 -0.7294  0.8914
  889MOL0     C22584   9.968   1.730   8.384 -0.7133 -0.5248 -0.0297
  889MOL0     C22585   9.950   1.703   8.534  0.1843 -0.0152  0.8532
  889MOL0     C22586  10.082   1.639   8.591  0.6543  0.1168  1.1209
  889MOL0     C22587  10.065   1.608   8.737  0.9533 -0.3317 -0.1323
  889MOL0     C22588  10.152   1.495   8.783  0.3119  0.1868 -0.3075
  889MOL0    Cl22589  10.325   1.529   8.758 -0.1948 -0.6958  0.3269
  889MOL0     C22590   9.572   1.758   7.992  0.1926  0.0768 -0.7141
  889MOL0     C22591   9.532   1.766   7.866 -0.1829 -0.0239 -0.4475
  889MOL0     O22592   9.296   2.041   7.641  0.1310 -0.3590 -0.2936
  889MOL0     C22593   9.143   1.893   7.456  0.8619  0.2873 -0.7270
  889MOL0     C22594   9.086   1.836   7.342  0.0250  0.2191 -0.4118
  889MOL0     N22595   8.971   1.869   6.630  0.2998 -0.2670 -1.2231
  889MOL0     N22596   8.861   1.902   6.579 -0.1724 -0.2913 -0.4697
  889MOL0     C22597   7.720   2.436   6.715  0.4821 -0.2828  0.2389
  889MOL0     C22598   7.646   2.556   6.701  0.1893 -0.5041  0.2391
  889MOL0     C22599   7.300   2.843   6.623 -0.4282  0.4349 -0.7363
  889MOL0     C22600   7.346   2.926   6.522  0.2072 -0.3099 -0.1706
  889MOL0     C22601   7.265   3.036   6.478  0.6297  0.5333  0.2901
  889MOL0     C22602   7.141   3.060   6.533  0.0234 -0.1493 -0.3433
  889MOL0     O22603   7.078   3.165   6.474 -0.7351  0.0880 -0.4775
  889MOL0     C22604   6.971   3.220   6.544  0.3497 -0.3349 -0.0599
  889MOL0     C22605   6.921   3.350   6.480 -0.2745 -0.9798  0.6810
  889MOL0     C22606   7.009   3.457   6.545 -0.6500  0.4761 -0.4397
  889MOL0     C22607   6.973   3.599   6.512 -0.4370  0.0576 -0.1980
  889MOL0     C22608   6.896   3.663   6.617 -0.0474  0.3735 -0.7098
  889MOL0     C22609   6.822   3.723   6.694 -0.0122 -0.3454 -0.2708
  889MOL0     C22610   7.096   2.976   6.634 -0.3954 -0.0677 -0.2514
  889MOL0     C22611   7.174   2.875   6.690  0.2416 -0.2630  0.7593
  889MOL0     C22612   7.119   2.806   6.808 -0.7012  0.3851 -0.4765
  889MOL0     H22613   7.504   2.505   6.398 -1.1063  0.9546  1.3108
  889MOL0     H22614   7.600   2.278   6.443 -0.8067 -0.9925 -0.0879
  889MOL0     H22615   7.836   2.150   6.785 -1.2808 -1.0039 -1.9365
  889MOL0     H22616   7.934   2.285   6.717  2.2931 -0.8494 -0.8286
  889MOL0     H22617   7.910   1.996   6.595  2.6235 -0.5675 -1.7531
  889MOL0     H22618   8.002   2.127   6.524  1.4330  3.1813  1.8952
  889MOL0     H22619   8.167   2.132   6.737  0.2812 -1.0492  1.9410
  889MOL0     H22620   8.075   2.007   6.798 -0.5617  1.6350  0.9957
  889MOL0     H22621   8.101   1.851   6.645 -4.0038  1.9312 -0.1287
  889MOL0     H22622   8.174   1.960   6.526  0.0959  0.6870  0.0070
  889MOL0     H22623   8.320   1.869   6.781 -1.5619  3.0567  1.8753
  889MOL0     H22624   8.380   2.009   6.692  1.2793 -0.8492 -1.2955
  889MOL0     H22625   8.348   1.740   6.582  0.0267  0.2506  0.2896
  889MOL0     H22626   8.395   1.870   6.484 -2.5525  1.6625  1.3593
  889MOL0     H22627   8.549   1.749   6.723 -1.2606 -0.4672  0.3803
  889MOL0     H22628   8.585   1.911   6.695 -0.2162  0.0224  1.4111
  889MOL0     H22629   8.606   1.676   6.507 -0.2770  0.5406  0.2940
  889MOL0     H22630   8.612   1.835   6.440 -4.9303  0.1164  0.8741
  889MOL0     H22631   8.810   1.581   6.642 -0.8529  0.4260  1.4941
  889MOL0     H22632   9.177   1.687   6.668  0.2871  0.7594  1.2103
  889MOL0     H22633   9.073   1.551   6.720 -1.3873 -0.1183  1.1851
  889MOL0     H22634   9.186   1.639   6.898  0.4857  1.0410 -2.1827
  889MOL0     H22635   9.117   1.803   6.866 -1.2180  0.6532 -1.1958
  889MOL0     H22636   8.886   1.701   6.895 -0.2754 -0.3302 -0.9777
  889MOL0     H22637   8.952   1.560   6.960  1.6653 -0.2353  0.5096
  889MOL0     H22638   8.997   1.851   7.058  0.2637  1.4721  1.3997
  889MOL0     H22639   8.911   1.725   7.151 -1.9917  0.2982 -2.3809
  889MOL0     H22640   9.372   1.729   7.197  0.5905  0.9817  1.1341
  889MOL0     H22641   9.558   1.886   7.341 -0.1619 -0.4292 -2.9775
  889MOL0     H22642   9.560   1.708   7.339 -0.1716 -1.0692  1.1021
  889MOL0     H22643   9.561   1.786   7.493 -2.4203 -0.7898  0.1928
  889MOL0     H22644   9.377   2.068   7.866  2.4864  1.6978  2.7290
  889MOL0     H22645   9.461   2.059   8.106  1.3206 -0.7144  0.9594
  889MOL0     H22646   9.541   1.772   8.394 -1.3137  0.7686 -0.5789
  889MOL0     H22647   9.512   1.670   8.262 -0.7220  0.5242  1.0372
  889MOL0     H22648   9.721   1.614   8.398  0.2831 -0.4877 -0.2044
  889MOL0     H22649   9.745   1.631   8.225  3.3505  0.0365  1.0838
  889MOL0     H22650   9.809   1.884   8.388  2.7664 -0.0500  1.3160
  889MOL0     H22651   9.859   1.844   8.231  1.6937 -0.5319  1.4708
  889MOL0     H22652  10.046   1.805   8.369 -0.4858 -1.0104 -1.4213
  889MOL0     H22653  10.007   1.639   8.337  4.0295  2.5892 -2.9442
  889MOL0     H22654   9.921   1.796   8.582  0.5331  1.0179 -0.8422
  889MOL0     H22655   9.872   1.628   8.553  0.4747 -0.6870 -0.4577
  889MOL0     H22656  10.165   1.711   8.586  2.5802 -1.9838  0.8752
  889MOL0     H22657  10.107   1.550   8.532  0.0667  0.9929 -0.5143
  889MOL0     H22658   9.963   1.572   8.755 -0.7275  3.8691  0.0269
  889MOL0     H22659  10.091   1.699   8.792 -1.3657  0.5238 -0.3224
  889MOL0     H22660  10.130   1.412   8.715  1.0274  0.3234 -0.7184
  889MOL0     H22661  10.127   1.468   8.886 -1.7669 -0.2601 -0.8916
  889MOL0     H22662   9.632   1.678   8.034 -1.2194  0.4076  2.1495
  889MOL0     H22663   9.544   1.689   7.791  0.2986 -1.4273  1.0162
  889MOL0     H22664   9.078   1.948   7.524  1.5490  0.0565  0.1299
  889MOL0     H22665   8.981   1.863   7.339 -0.2417 -0.7432 -0.0048
  889MOL0     H22666   7.789   2.417   6.797 -0.0154 -1.8827  0.3123
  889MOL0     H22667   7.668   2.632   6.775 -1.8652 -1.4759  1.9672
  889MOL0     H22668   7.439   2.912   6.468 -1.6835  0.7188 -4.0683
  889MOL0     H22669   7.305   3.095   6.396 -0.1337 -1.6345 -1.7452
  889MOL0     H22670   6.886   3.151   6.551 -0.5536  0.6818 -0.6378
  889MOL0     H22671   7.004   3.241   6.646  1.6130  3.6063 -1.1110
  889MOL0     H22672   6.814   3.361   6.500 -0.9689 -0.1591 -2.8716
  889MOL0     H22673   6.934   3.349   6.372  2.7079 -0.0266  0.9376
  889MOL0     H22674   7.002   3.450   6.654 -0.5599  1.9333 -0.3192
  889MOL0     H22675   7.112   3.451   6.507 -1.1315  0.5877 -1.7729
  889MOL0     H22676   6.921   3.594   6.416 -0.0023 -0.8471 -0.3935
  889MOL0     H22677   7.057   3.665   6.490  0.8676 -1.9510 -1.5145
  889MOL0     H22678   6.754   3.784   6.750 -0.8669  0.5482 -2.1695
  889MOL0     H22679   6.998   2.997   6.677  0.2186  1.2139  0.5796
  889MOL0     H22680   7.050   2.873   6.860  1.3058 -0.0951  3.1775
  889MOL0     H22681   7.055   2.721   6.784 -2.7304  2.0013 -1.0458
  889MOL0     H22682   7.199   2.775   6.877 -1.2961  0.1410  0.1117
  890MOL0     O22683   2.221  11.139  11.109 -0.0544  0.7397  0.2063
  890MOL0     C22684   2.117  11.157  11.177  0.0919  0.2636  0.6873
  890MOL0     O22685   2.121  11.165  11.312  0.6612 -0.0819  0.5855
  890MOL0     C22686   2.231  11.172  11.389  0.3380 -0.9741 -0.1304
  890MOL0     C22687   2.358  11.119  11.360 -0.8592  1.0559  0.5336
  890MOL0     C22688   2.464  11.123  11.452  0.0312  0.6458  0.5787
  890MOL0     C22689   2.442  11.183  11.570 -0.0505 -0.6290 -1.3250
  890MOL0     O22690   2.557  11.191  11.652 -0.2691 -0.5016  0.3814
  890MOL0     C22691   2.546  11.229  11.791  0.1533  0.1816 -0.1126
  890MOL0     C22692   2.691  11.228  11.852  0.0874  0.0077  0.3652
  890MOL0     C22693   2.762  11.099  11.850 -0.3028  0.3974 -0.4927
  890MOL0     C22694   2.897  11.104  11.913 -0.8544 -0.4124 -0.4287
  890MOL0     C22695   2.957  10.967  11.918 -0.3721 -0.6204 -0.1327
  890MOL0     C22696   2.995  10.898  11.779  0.3312 -0.7239 -0.3519
  890MOL0     C22697   3.058  10.765  11.791 -0.1560 -0.2573 -0.1488
  890MOL0     C22698   2.992  10.650  11.871  0.8055  0.1765 -0.3767
  890MOL0     N22699   3.045  10.516  11.836 -0.1007 -0.0702 -0.0356
  890MOL0     C22700   3.177  10.490  11.832 -0.5765  0.5678 -0.1177
  890MOL0     C22701   3.181  10.358  11.814  0.2805  0.5374  0.4420
  890MOL0     C22702   3.301  10.272  11.805 -0.1474  0.1509  0.1832
  890MOL0     C22703   3.427  10.348  11.767  0.6187 -0.0194 -0.3894
  890MOL0     C22704   3.534  10.239  11.749 -0.9992  0.5177  0.2643
  890MOL0     C22705   3.676  10.290  11.703  0.1242 -0.0552  0.0837
  890MOL0     O22706   3.721  10.390  11.794 -0.0962 -0.0959 -0.3097
  890MOL0     C22707   3.843  10.446  11.780  1.0202  0.3020  0.1404
  890MOL0     C22708   3.892  10.513  11.890  0.7761  0.1318  1.0648
  890MOL0     C22709   4.007  10.590  11.888  1.1364 -0.3233  0.1091
  890MOL0     C22710   4.039  10.667  12.007  0.9126 -0.7176 -0.4275
  890MOL0     C22711   4.078  10.599  11.763 -0.5060 -0.5592  0.7617
  890MOL0     C22712   4.208  10.675  11.745  0.0169 -0.2338  0.0696
  890MOL0     O22713   4.257  10.679  11.616 -0.1589 -0.6464  0.6013
  890MOL0     C22714   4.371  10.759  11.605 -0.7370  0.6647  0.1050
  890MOL0     C22715   4.368  10.895  11.642  0.4422  0.2812  0.2792
  890MOL0     C22716   4.486  10.974  11.646  0.0762 -0.1311 -0.0325
  890MOL0     C22717   4.607  10.921  11.604  0.7682 -0.5824  0.5818
  890MOL0     O22718   4.725  10.987  11.633 -0.4181  1.0143 -0.4651
  890MOL0     C22719   4.738  11.116  11.585  0.4713 -0.3120 -0.0206
  890MOL0     C22720   4.877  11.170  11.599 -0.0560  0.9677 -0.1221
  890MOL0     C22721   4.907  11.272  11.492 -1.0281 -0.2203  0.6582
  890MOL0     C22722   5.036  11.345  11.524  0.1955  0.1132 -0.6722
  890MOL0     C22723   5.094  11.404  11.399 -0.5318 -0.4777  0.5826
  890MOL0     C22724   5.183  11.519  11.432 -0.2573 -0.4930 -0.2452
  890MOL0     C22725   5.266  11.559  11.309  0.3655  0.5594  0.0353
  890MOL0     C22726   5.385  11.654  11.351 -0.2911 -0.7136 -0.1786
  890MOL0    Cl22727   5.312  11.784  11.448  0.2074  0.2414  0.0783
  890MOL0     C22728   4.611  10.777  11.574  0.2903  0.0542 -0.0371
  890MOL0     C22729   4.487  10.703  11.566 -0.3666 -1.3327 -0.2487
  890MOL0     O22730   4.268  10.717  11.844  0.1422 -0.1831 -0.7039
  890MOL0     C22731   4.027  10.536  11.649  0.6416 -0.0975  0.5819
  890MOL0     C22732   3.916  10.451  11.657 -0.0734 -0.0143  0.0848
  890MOL0     N22733   3.054  10.301  11.828 -0.6427  0.1432  0.2524
  890MOL0     N22734   2.975  10.400  11.839 -0.2148  0.2948  0.4139
  890MOL0     C22735   2.310  11.238  11.605  0.0113  0.6332 -0.7507
  890MOL0     C22736   2.208  11.234  11.514 -0.3589  0.9616  0.3172
  890MOL0     C22737   1.977  11.144  11.121  0.2980 -0.3687 -0.2139
  890MOL0     C22738   1.861  11.144  11.203 -0.9546  0.2140  0.4672
  890MOL0     C22739   1.732  11.121  11.154 -0.0290 -0.0313  1.0527
  890MOL0     C22740   1.711  11.113  11.018  0.5395 -1.0569  0.4208
  890MOL0     O22741   1.584  11.100  10.979 -0.5344 -0.5759 -0.1740
  890MOL0     C22742   1.556  11.108  10.840 -0.6553  0.8322  0.3952
  890MOL0     C22743   1.587  11.248  10.778 -0.2541 -0.1699 -0.1128
  890MOL0     C22744   1.499  11.362  10.824  0.2336 -0.5408 -0.4362
  890MOL0     C22745   1.344  11.335  10.809 -0.1189 -0.7707 -0.0876
  890MOL0     C22746   1.305  11.336  10.665  0.1037  0.3270 -0.4255
  890MOL0     C22747   1.273  11.344  10.545 -0.5355  0.0756 -1.3238
  890MOL0     C22748   1.826  11.102  10.930  0.6939  0.1001  0.4142
  890MOL0     C22749   1.955  11.112  10.981 -0.2120 -0.0904  0.1444
  890MOL0     C22750   2.064  11.075  10.884  0.5201  0.5421  0.4795
  890MOL0     H22751   2.379  11.064  11.269  0.2344  1.4854  0.5169
  890MOL0     H22752   2.563  11.079  11.441  0.4814  1.2062  2.0793
  890MOL0     H22753   2.485  11.162  11.851  1.6597  0.0286  1.3304
  890MOL0     H22754   2.506  11.330  11.807 -3.9655 -1.2767 -0.0786
  890MOL0     H22755   2.755  11.300  11.801  1.9638 -2.8723 -1.6428
  890MOL0     H22756   2.686  11.263  11.956 -0.9362  1.8248 -0.2350
  890MOL0     H22757   2.706  11.022  11.904  1.1500  0.3820  1.0829
  890MOL0     H22758   2.768  11.065  11.746  0.8831  0.8162 -0.5694
  890MOL0     H22759   2.970  11.156  11.850 -2.6512 -0.8266 -3.0039
  890MOL0     H22760   2.894  11.147  12.014 -1.9589  0.8673 -0.9835
  890MOL0     H22761   2.884  10.904  11.969  1.3516 -1.0988  1.8945
  890MOL0     H22762   3.051  10.974  11.974  0.0940  0.3200 -0.9798
  890MOL0     H22763   2.909  10.905  11.712 -0.5838  0.3545  0.8701
  890MOL0     H22764   3.071  10.963  11.734  0.8840  0.7684  2.4971
  890MOL0     H22765   3.156  10.790  11.832  0.5750  0.7395 -2.3570
  890MOL0     H22766   3.074  10.735  11.687 -1.6896  1.6696 -0.9931
  890MOL0     H22767   2.982  10.668  11.978 -0.2689  0.8690 -0.5797
  890MOL0     H22768   2.888  10.647  11.836 -0.3326 -2.6989  2.7215
  890MOL0     H22769   3.257  10.561  11.850 -0.8331  0.6357  0.7927
  890MOL0     H22770   3.285  10.184  11.742 -0.5595  0.3858 -0.0504
  890MOL0     H22771   3.313  10.240  11.909 -2.2201  1.8267  1.0183
  890MOL0     H22772   3.404  10.400  11.674 -1.8500 -1.4123 -0.6637
  890MOL0     H22773   3.438  10.426  11.843 -1.9742 -0.2547  0.3591
  890MOL0     H22774   3.546  10.194  11.848 -0.6619 -1.2741 -0.5474
  890MOL0     H22775   3.490  10.162  11.685 -1.5593  0.6466  0.4822
  890MOL0     H22776   3.743  10.205  11.721  0.9960  0.3609 -1.0620
  890MOL0     H22777   3.664  10.318  11.598 -1.0949 -2.2029 -0.4208
  890MOL0     H22778   3.838  10.513  11.984  2.7835  1.0549  2.2742
  890MOL0     H22779   3.956  10.676  12.077  0.8954 -1.7390 -0.2966
  890MOL0     H22780   4.045  10.773  11.979 -3.9434  0.7332  2.7113
  890MOL0     H22781   4.129  10.624  12.054  0.2233 -0.9159  0.7588
  890MOL0     H22782   4.275  10.942  11.672  0.2297  2.3278 -3.0720
  890MOL0     H22783   4.487  11.080  11.669  3.8870 -0.0717  0.0316
  890MOL0     H22784   4.712  11.106  11.479  0.2860 -0.0154 -0.0060
  890MOL0     H22785   4.665  11.193  11.615  1.3276  0.4388  0.1743
  890MOL0     H22786   4.897  11.217  11.696  3.2252 -0.6678  0.1069
  890MOL0     H22787   4.949  11.088  11.600 -1.4663 -0.4905  3.9093
  890MOL0     H22788   4.822  11.336  11.472 -2.0810 -2.5596 -3.5760
  890MOL0     H22789   4.932  11.217  11.401  0.2413 -0.7563  1.2959
  890MOL0     H22790   5.109  11.269  11.553  2.7295  2.0629 -1.5856
  890MOL0     H22791   5.033  11.417  11.607  0.6167  1.6210 -1.9230
  890MOL0     H22792   5.147  11.328  11.341  2.0934  1.3873  0.3814
  890MOL0     H22793   5.016  11.442  11.333  0.1506  2.2052  1.2081
  890MOL0     H22794   5.250  11.488  11.512 -0.9477 -2.0302 -0.2295
  890MOL0     H22795   5.123  11.608  11.453  3.9879  2.2334  1.5672
  890MOL0     H22796   5.200  11.614  11.242 -0.6827 -2.1796 -1.3333
  890MOL0     H22797   5.315  11.481  11.250  0.8787  0.8856  0.0283
  890MOL0     H22798   5.435  11.714  11.274  1.5535  0.6480  1.9532
  890MOL0     H22799   5.468  11.614  11.410 -0.4604 -2.6621 -1.1570
  890MOL0     H22800   4.708  10.739  11.542 -0.8538 -2.2615 -0.9573
  890MOL0     H22801   4.487  10.605  11.520  1.7133 -1.9990  1.0005
  890MOL0     H22802   4.071  10.548  11.551 -1.6569  0.0034 -0.5068
  890MOL0     H22803   3.887  10.412  11.560 -3.2558  2.4382 -0.1032
  890MOL0     H22804   2.292  11.287  11.700  3.2164  1.2388 -0.3305
  890MOL0     H22805   2.117  11.283  11.545 -1.0036 -1.7506  3.2775
  890MOL0     H22806   1.864  11.168  11.308 -0.3301  0.2431  0.4458
  890MOL0     H22807   1.644  11.143  11.214  0.5750 -0.1006  1.9684
  890MOL0     H22808   1.618  11.040  10.782 -1.3558  1.5191 -1.2363
  890MOL0     H22809   1.453  11.082  10.813 -0.5333 -1.1430  1.6251
  890MOL0     H22810   1.585  11.234  10.670 -2.4412  0.6846 -0.2530
  890MOL0     H22811   1.690  11.277  10.798 -0.7845  2.1826 -0.4234
  890MOL0     H22812   1.517  11.375  10.931 -3.6828 -1.8936  0.5325
  890MOL0     H22813   1.526  11.450  10.765 -0.8769 -0.1745 -0.4120
  890MOL0     H22814   1.289  11.408  10.869 -1.6189 -0.5020 -1.6823
  890MOL0     H22815   1.322  11.242  10.861 -1.8946 -0.4108 -0.1481
  890MOL0     H22816   1.240  11.352  10.444 -5.5606  2.3247  0.1986
  890MOL0     H22817   1.828  11.084  10.823  1.8043 -1.1709  0.6078
  890MOL0     H22818   2.020  11.028  10.796  1.1126  2.9531 -1.2274
  890MOL0     H22819   2.127  11.162  10.862  0.3174  1.0465  1.7687
  890MOL0     H22820   2.126  10.995  10.925 -2.4004 -2.5487 -0.7420
  891MOL0     O22821  10.726   2.361   4.523  0.4017 -0.8297  0.3041
  891MOL0     C22822  10.611   2.376   4.487  0.3809  0.2366  0.0699
  891MOL0     O22823  10.569   2.371   4.351  0.1305 -1.3436  1.0414
  891MOL0     C22824  10.643   2.303   4.255 -0.1970  0.8236  0.7667
  891MOL0     C22825  10.775   2.320   4.226 -0.1713 -0.8044 -0.2117
  891MOL0     C22826  10.840   2.233   4.133  0.1114 -0.1307 -0.0701
  891MOL0     C22827  10.766   2.131   4.072 -0.1868 -0.0562  0.4548
  891MOL0     O22828  10.847   2.048   3.999 -0.5794 -0.5396  0.0975
  891MOL0     C22829  10.818   1.907   3.975  0.4183  0.0086  0.2094
  891MOL0     C22830  10.947   1.818   3.984 -0.7729  0.5788 -0.4050
  891MOL0     C22831  10.907   1.669   3.989  0.4528 -0.0905  0.0574
  891MOL0     C22832  11.034   1.575   4.015 -0.1686 -1.1154 -0.3658
  891MOL0     C22833  11.003   1.422   4.003 -0.7392 -0.5427 -0.0731
  891MOL0     C22834  10.924   1.376   4.128 -0.3200  0.1563  0.1890
  891MOL0     C22835  10.924   1.223   4.132  0.7052 -0.3250 -0.6852
  891MOL0     C22836  10.823   1.144   4.047 -0.2271  0.3169 -0.4977
  891MOL0     N22837  10.880   1.020   3.996  0.5662 -0.2179 -0.0196
  891MOL0     C22838  10.859   0.975   3.868 -0.9760  0.9934  0.4280
  891MOL0     C22839  10.881   0.842   3.862 -0.8703  0.2080  0.0272
  891MOL0     C22840  10.872   0.759   3.739  0.7099 -0.3105 -0.1176
  891MOL0     C22841  10.940   0.623   3.747  0.4692 -0.4845 -0.3738
  891MOL0     C22842  10.895   0.552   3.612  0.6336  0.0221  0.6264
  891MOL0     C22843  10.936   0.407   3.598 -0.0377  0.1466 -0.4560
  891MOL0     O22844  11.080   0.426   3.604 -0.1357 -0.5756  0.0767
  891MOL0     C22845  11.161   0.319   3.576  0.5620  0.2655  0.8816
  891MOL0     C22846  11.301   0.346   3.568 -0.4698 -0.2004  0.1032
  891MOL0     C22847  11.389   0.247   3.555 -0.5588  0.0866  0.4107
  891MOL0     C22848  11.534   0.291   3.553 -0.8148  0.3341  0.2116
  891MOL0     C22849  11.341   0.117   3.517  0.1201 -0.9791  0.4229
  891MOL0     C22850  11.438   0.013   3.490  0.3166 -0.6880 -0.2400
  891MOL0     O22851  11.510   0.018   3.375  0.4739 -0.2391  0.4764
  891MOL0     C22852  11.606  -0.078   3.347 -0.2509 -0.4145 -0.0730
  891MOL0     C22853  11.699  -0.116   3.445 -0.3032 -0.2956  0.3119
  891MOL0     C22854  11.792  -0.214   3.406  0.2242  0.0477  0.5561
  891MOL0     C22855  11.810  -0.248   3.271 -0.2301 -0.1418  0.0449
  891MOL0     O22856  11.919  -0.331   3.237 -0.9688 -0.3707 -0.2314
  891MOL0     C22857  12.039  -0.293   3.300  0.0923 -0.6632 -0.0306
  891MOL0     C22858  12.152  -0.361   3.251 -0.3250 -0.4935 -0.0079
  891MOL0     C22859  12.284  -0.308   3.322  0.1713  0.7380 -0.4083
  891MOL0     C22860  12.412  -0.390   3.287  0.1629 -0.5725  0.1361
  891MOL0     C22861  12.542  -0.329   3.340 -0.1852  0.0327  1.1218
  891MOL0     C22862  12.671  -0.397   3.287  0.2866  0.1972 -0.0295
  891MOL0     C22863  12.674  -0.541   3.357  0.5419  0.0435  0.8700
  891MOL0     C22864  12.809  -0.605   3.394  0.2518 -0.2527  0.7933
  891MOL0    Cl22865  12.884  -0.678   3.255  0.3553 -0.2380  0.2912
  891MOL0     C22866  11.710  -0.217   3.180 -0.8175  0.1216 -0.2878
  891MOL0     C22867  11.601  -0.139   3.222 -0.1314 -0.5884  0.1438
  891MOL0     O22868  11.419  -0.087   3.556  0.4924  0.3412 -0.1228
  891MOL0     C22869  11.207   0.093   3.513  0.0986  0.7774 -0.7830
  891MOL0     C22870  11.120   0.191   3.546  0.2356 -1.2366  0.2490
  891MOL0     N22871  10.907   0.793   3.993 -0.6262 -0.5736  0.2576
  891MOL0     N22872  10.908   0.903   4.071  0.1530 -0.3474  0.3758
  891MOL0     C22873  10.634   2.125   4.087 -0.2533 -0.3179 -0.2326
  891MOL0     C22874  10.569   2.204   4.187  0.4358 -0.5970  0.2700
  891MOL0     C22875  10.511   2.448   4.576 -0.5256 -0.2387  0.2965
  891MOL0     C22876  10.379   2.417   4.569 -0.5615 -0.0267  1.2513
  891MOL0     C22877  10.285   2.486   4.635  0.6652 -0.0907 -0.2328
  891MOL0     C22878  10.328   2.592   4.719  1.0581 -0.5015 -1.2029
  891MOL0     O22879  10.232   2.662   4.788  0.0790 -0.3421  0.3633
  891MOL0     C22880  10.246   2.812   4.770 -0.1476 -0.8501 -0.0140
  891MOL0     C22881  10.113   2.880   4.774  0.5444  0.5017 -0.4555
  891MOL0     C22882  10.012   2.826   4.665 -0.2386  0.0720 -0.1471
  891MOL0     C22883   9.869   2.874   4.693  0.1746  0.3965 -0.2772
  891MOL0     C22884   9.788   2.819   4.584 -0.1651  0.3229 -0.0350
  891MOL0     C22885   9.730   2.770   4.488  0.1241  0.3675 -0.4392
  891MOL0     C22886  10.464   2.629   4.733 -0.1037 -0.2700 -0.2185
  891MOL0     C22887  10.558   2.553   4.663  0.5867  0.3499 -0.3563
  891MOL0     C22888  10.702   2.583   4.689 -0.3749 -0.6385 -0.1390
  891MOL0     H22889  10.830   2.396   4.281 -0.9964 -0.5823  0.3189
  891MOL0     H22890  10.947   2.242   4.121  0.8967 -0.7495  4.5504
  891MOL0     H22891  10.781   1.912   3.872  1.5833  0.7688 -0.1868
  891MOL0     H22892  10.735   1.867   4.034 -1.1161  2.3779 -0.2184
  891MOL0     H22893  11.000   1.846   3.893  1.6020 -1.1601  0.3439
  891MOL0     H22894  11.010   1.846   4.068 -1.2127  2.7168 -0.7472
  891MOL0     H22895  10.838   1.655   4.073 -0.0211  0.9223 -0.1478
  891MOL0     H22896  10.848   1.642   3.901 -0.8540 -1.8079  1.3901
  891MOL0     H22897  11.098   1.598   3.930 -0.9783 -0.7684 -0.8996
  891MOL0     H22898  11.086   1.602   4.107  1.4196 -1.2433 -1.2054
  891MOL0     H22899  11.094   1.367   3.979  1.3984  2.7441 -0.1714
  891MOL0     H22900  10.941   1.412   3.914  0.0183 -0.9731 -0.5652
  891MOL0     H22901  10.983   1.406   4.215 -0.0485  0.0987  0.0265
  891MOL0     H22902  10.825   1.423   4.134 -0.6398 -0.3731 -0.6682
  891MOL0     H22903  10.893   1.194   4.232 -1.4879 -1.7822 -1.7083
  891MOL0     H22904  11.024   1.179   4.122  1.4620  0.5426  2.1641
  891MOL0     H22905  10.727   1.112   4.090 -1.1829  4.1241  0.6074
  891MOL0     H22906  10.785   1.210   3.968  0.0055  0.0944 -0.7949
  891MOL0     H22907  10.837   1.026   3.776  1.4532 -0.6191 -1.1642
  891MOL0     H22908  10.921   0.802   3.651  1.1601 -0.1501  0.2143
  891MOL0     H22909  10.765   0.752   3.718  0.0769 -0.1909  2.7079
  891MOL0     H22910  11.048   0.636   3.752  0.4235 -0.6155  1.5160
  891MOL0     H22911  10.897   0.568   3.831 -1.3781 -2.2089 -2.3028
  891MOL0     H22912  10.789   0.574   3.597  0.7002  0.6239  1.0062
  891MOL0     H22913  10.951   0.599   3.530  0.6572 -2.5111 -0.9411
  891MOL0     H22914  10.899   0.345   3.681 -1.5990  1.4049 -0.1681
  891MOL0     H22915  10.902   0.366   3.503 -2.0628  0.3159  0.1519
  891MOL0     H22916  11.322   0.452   3.582 -0.6885 -0.2346  0.7222
  891MOL0     H22917  11.594   0.230   3.620 -0.7880  0.5904  0.4222
  891MOL0     H22918  11.551   0.393   3.587 -2.3294 -0.3911  3.5366
  891MOL0     H22919  11.574   0.263   3.455 -0.0192 -0.1928  0.6819
  891MOL0     H22920  11.699  -0.081   3.547  3.2416  0.6278  0.1402
  891MOL0     H22921  11.854  -0.250   3.487 -0.4987  0.8245  1.4791
  891MOL0     H22922  12.059  -0.186   3.292 -0.6451 -0.4397  0.8998
  891MOL0     H22923  12.039  -0.313   3.408  2.6870  1.7714  0.5422
  891MOL0     H22924  12.127  -0.464   3.277 -2.7334 -0.0315 -0.1962
  891MOL0     H22925  12.158  -0.340   3.144  0.0517 -1.3204 -0.1554
  891MOL0     H22926  12.281  -0.310   3.431 -0.0456  0.0878 -0.4209
  891MOL0     H22927  12.297  -0.208   3.279 -1.8411  1.1561 -0.1336
  891MOL0     H22928  12.421  -0.404   3.179 -0.8000  1.9545 -0.3388
  891MOL0     H22929  12.395  -0.484   3.340 -0.5185 -0.2898  0.4299
  891MOL0     H22930  12.558  -0.225   3.311  0.5559 -0.4722 -0.3519
  891MOL0     H22931  12.527  -0.331   3.449 -3.2232 -0.8642  0.7711
  891MOL0     H22932  12.755  -0.334   3.316  1.3736  0.0776 -2.6698
  891MOL0     H22933  12.676  -0.408   3.178 -0.7323  0.2361 -0.0919
  891MOL0     H22934  12.611  -0.611   3.301 -0.4688  2.0306 -0.5992
  891MOL0     H22935  12.621  -0.523   3.451 -0.3827  0.7582  0.2179
  891MOL0     H22936  12.806  -0.675   3.479  1.0986  0.5634  1.5162
  891MOL0     H22937  12.869  -0.524   3.436 -2.3348  0.5334  3.3000
  891MOL0     H22938  11.715  -0.258   3.080  0.0543  2.8537 -1.4538
  891MOL0     H22939  11.512  -0.114   3.164 -1.6937 -4.0359  0.8310
  891MOL0     H22940  11.163  -0.003   3.486  0.2001  0.6098 -0.3574
  891MOL0     H22941  11.012   0.176   3.545 -0.5115  2.9758  0.2759
  891MOL0     H22942  10.584   2.058   4.018  1.9603 -0.0119 -2.2827
  891MOL0     H22943  10.464   2.188   4.210  0.5282 -1.2802  0.2371
  891MOL0     H22944  10.353   2.342   4.495  1.6111  1.6687 -1.3919
  891MOL0     H22945  10.180   2.470   4.612  0.8486 -0.1614 -1.0694
  891MOL0     H22946  10.319   2.856   4.839  1.0156 -1.2641 -0.9352
  891MOL0     H22947  10.292   2.840   4.675 -2.4829  1.2588 -0.6141
  891MOL0     H22948  10.130   2.987   4.756  4.0684  0.3533  1.0876
  891MOL0     H22949  10.064   2.866   4.871  0.5367 -1.8551 -0.7327
  891MOL0     H22950  10.051   2.852   4.566 -0.8357  2.1036  0.1132
  891MOL0     H22951  10.018   2.718   4.682  1.0195  0.4536  2.1871
  891MOL0     H22952   9.867   2.983   4.684  1.0477  0.4229 -0.2227
  891MOL0     H22953   9.832   2.841   4.791  1.4543  0.9725  0.4161
  891MOL0     H22954   9.669   2.722   4.415 -1.9515  2.5026 -0.2224
  891MOL0     H22955  10.495   2.711   4.798 -0.1045 -0.6124  0.2156
  891MOL0     H22956  10.716   2.673   4.750  1.2596 -0.9570 -0.0130
  891MOL0     H22957  10.760   2.503   4.735 -0.1125 -0.5108 -0.2509
  891MOL0     H22958  10.749   2.616   4.596  0.8352  0.3530  0.8019
  892MOL0     O22959   3.286   6.449   8.606 -0.0843 -0.6509  0.6294
  892MOL0     C22960   3.407   6.431   8.608  0.0186 -0.0436 -0.0932
  892MOL0     O22961   3.497   6.520   8.646 -0.0490 -0.6748 -0.3348
  892MOL0     C22962   3.467   6.633   8.729 -0.7077  0.5638  0.2317
  892MOL0     C22963   3.411   6.750   8.677 -0.5378 -0.7443  0.0953
  892MOL0     C22964   3.380   6.853   8.761  0.3170  0.1156 -0.0022
  892MOL0     C22965   3.418   6.851   8.895  0.1382 -0.4929 -0.8435
  892MOL0     O22966   3.384   6.950   8.981  0.2808 -0.1941 -0.5245
  892MOL0     C22967   3.267   7.033   8.965 -0.0534 -0.2078 -0.0386
  892MOL0     C22968   3.275   7.139   9.076 -0.3135  0.5017 -0.3243
  892MOL0     C22969   3.154   7.232   9.059  0.0116 -0.0973  0.3372
  892MOL0     C22970   3.199   7.380   9.037 -0.6387 -0.1381  0.6148
  892MOL0     C22971   3.211   7.423   8.888 -0.2330 -0.3432  0.2012
  892MOL0     C22972   3.291   7.554   8.861  0.1715  0.2443  0.1534
  892MOL0     C22973   3.443   7.542   8.880 -0.2316 -0.1680  0.3315
  892MOL0     C22974   3.513   7.660   8.812  0.4886 -0.2302 -0.2684
  892MOL0     N22975   3.654   7.644   8.825  0.4593  0.0948 -0.5627
  892MOL0     C22976   3.742   7.627   8.721  0.9901  1.1067  0.1562
  892MOL0     C22977   3.859   7.590   8.789 -0.3487 -0.4167  0.6533
  892MOL0     C22978   3.978   7.552   8.710 -0.6356  0.0548 -0.4198
  892MOL0     C22979   3.986   7.395   8.701  0.6312 -1.3034 -0.6445
  892MOL0     C22980   4.071   7.361   8.580  0.2399  0.4016 -0.4842
  892MOL0     C22981   4.080   7.217   8.560  0.3738  0.2798  0.7486
  892MOL0     O22982   4.174   7.194   8.451 -0.6304  0.1177  0.2086
  892MOL0     C22983   4.306   7.200   8.483  0.8507  0.5393 -0.8972
  892MOL0     C22984   4.406   7.238   8.387 -0.2756  0.4382 -0.3869
  892MOL0     C22985   4.534   7.259   8.408 -0.2096 -0.0854 -0.8803
  892MOL0     C22986   4.615   7.307   8.285 -0.1194  0.4951 -0.4731
  892MOL0     C22987   4.581   7.228   8.544  0.5064 -0.1872 -0.7047
  892MOL0     C22988   4.730   7.243   8.589  0.5476 -1.0140 -0.1957
  892MOL0     O22989   4.802   7.331   8.510  0.0004 -0.5090 -0.5872
  892MOL0     C22990   4.917   7.379   8.563  0.1389 -0.3546  0.1997
  892MOL0     C22991   4.933   7.510   8.584 -0.0330 -0.3256 -0.1202
  892MOL0     C22992   5.047   7.561   8.637  0.4724 -0.5307 -0.1256
  892MOL0     C22993   5.159   7.476   8.665 -0.9263  0.5561  0.7160
  892MOL0     O22994   5.276   7.527   8.717 -0.4843  0.5736 -0.0213
  892MOL0     C22995   5.401   7.483   8.651 -0.1170 -1.2759 -0.2320
  892MOL0     C22996   5.514   7.583   8.680  1.2867  0.8646  0.8751
  892MOL0     C22997   5.465   7.733   8.652  0.3282 -0.0114 -0.0780
  892MOL0     C22998   5.572   7.829   8.691  0.1718  1.6405  0.7149
  892MOL0     C22999   5.538   7.974   8.653  0.6121  0.2037 -0.3237
  892MOL0     C23000   5.627   8.078   8.712  0.0748  0.3956  0.1980
  892MOL0     C23001   5.586   8.214   8.658 -0.3553 -0.7386  0.2269
  892MOL0     C23002   5.706   8.310   8.648  0.9633  0.5034 -1.2615
  892MOL0    Cl23003   5.774   8.338   8.810  0.1077 -0.7210 -0.4026
  892MOL0     C23004   5.155   7.340   8.623 -0.5640  0.3256  0.8952
  892MOL0     C23005   5.034   7.295   8.575 -0.1073 -0.1211 -0.3320
  892MOL0     O23006   4.776   7.194   8.695 -0.1593 -0.0145  0.7588
  892MOL0     C23007   4.496   7.161   8.636  0.0174  0.0986 -0.4419
  892MOL0     C23008   4.357   7.150   8.605 -0.3246  0.5174 -0.1104
  892MOL0     N23009   3.849   7.606   8.921  0.2811 -0.5926 -0.1605
  892MOL0     N23010   3.723   7.632   8.941  0.2921 -0.3528  0.1989
  892MOL0     C23011   3.473   6.741   8.954  0.1059 -0.4729  0.2797
  892MOL0     C23012   3.495   6.630   8.870  0.2462  0.0043  0.1686
  892MOL0     C23013   3.465   6.305   8.572  0.8577 -0.5609 -1.1319
  892MOL0     C23014   3.600   6.303   8.533  0.0735 -0.5474 -0.1150
  892MOL0     C23015   3.666   6.182   8.517  0.7872  0.1278  0.3065
  892MOL0     C23016   3.599   6.058   8.524  0.2523 -0.1126  0.3379
  892MOL0     O23017   3.667   5.941   8.524  0.1980 -0.1748 -0.3954
  892MOL0     C23018   3.640   5.839   8.426  0.3308  0.0130 -0.6959
  892MOL0     C23019   3.712   5.719   8.478 -0.3568 -0.1797 -0.4882
  892MOL0     C23020   3.763   5.627   8.364 -0.4056  0.1116  0.0221
  892MOL0     C23021   3.631   5.550   8.312 -0.1434 -0.6928  0.1294
  892MOL0     C23022   3.679   5.424   8.262  0.5072  0.4472  0.2130
  892MOL0     C23023   3.726   5.317   8.213  0.2057 -0.1768 -0.3724
  892MOL0     C23024   3.463   6.060   8.551 -0.6789 -0.0848  0.1773
  892MOL0     C23025   3.395   6.181   8.578 -0.7666  0.1396 -0.0165
  892MOL0     C23026   3.244   6.156   8.610  0.3377  1.3820 -0.5631
  892MOL0     H23027   3.371   6.762   8.577 -0.0521  1.8082  0.1499
  892MOL0     H23028   3.321   6.938   8.728 -0.5731 -0.9736 -1.3854
  892MOL0     H23029   3.182   6.965   8.976 -0.4498  0.3782  0.5383
  892MOL0     H23030   3.251   7.084   8.869 -2.4792 -0.6342  0.0686
  892MOL0     H23031   3.279   7.104   9.180 -1.1636 -0.4533 -0.5887
  892MOL0     H23032   3.371   7.191   9.073 -1.0630  2.2828  2.5108
  892MOL0     H23033   3.093   7.194   8.976 -0.3591  0.0217  0.5513
  892MOL0     H23034   3.090   7.237   9.148 -1.0142 -1.3186 -0.2926
  892MOL0     H23035   3.122   7.448   9.075 -0.0797 -0.8664  3.2495
  892MOL0     H23036   3.292   7.400   9.091 -0.7923 -2.0055  1.6394
  892MOL0     H23037   3.107   7.425   8.852 -0.9773  0.8517  2.2661
  892MOL0     H23038   3.262   7.347   8.827 -2.5410 -2.1495  0.3762
  892MOL0     H23039   3.267   7.579   8.758 -0.1578  0.4683  0.2796
  892MOL0     H23040   3.236   7.632   8.915 -0.7212 -0.1617 -0.1433
  892MOL0     H23041   3.478   7.445   8.843  2.0094 -0.0310  1.8426
  892MOL0     H23042   3.461   7.544   8.988  2.1441 -0.4015  0.0135
  892MOL0     H23043   3.479   7.665   8.708  1.3423 -0.1010 -0.5432
  892MOL0     H23044   3.480   7.754   8.857 -2.7745  0.0760 -2.8471
  892MOL0     H23045   3.720   7.626   8.614  0.7502  1.9135  0.1870
  892MOL0     H23046   4.067   7.592   8.759 -0.1119  0.6055 -1.7679
  892MOL0     H23047   3.976   7.609   8.616 -0.1602  1.8085  0.5790
  892MOL0     H23048   4.027   7.352   8.792  1.4113  1.1749  0.2607
  892MOL0     H23049   3.881   7.365   8.692 -0.1325  0.1716  2.1927
  892MOL0     H23050   4.030   7.418   8.497  0.0151  1.4261  0.3104
  892MOL0     H23051   4.174   7.391   8.603 -0.4282  2.3496  0.2042
  892MOL0     H23052   4.104   7.165   8.653 -0.1280 -1.8415 -0.2452
  892MOL0     H23053   3.979   7.180   8.540  1.2764 -3.6860  2.6248
  892MOL0     H23054   4.377   7.253   8.284 -0.9860  1.3796 -0.0728
  892MOL0     H23055   4.702   7.242   8.271 -2.4010 -2.9702  0.3464
  892MOL0     H23056   4.644   7.412   8.294 -1.0346  0.9159 -2.0764
  892MOL0     H23057   4.555   7.302   8.194 -0.3641 -2.8124 -0.2266
  892MOL0     H23058   4.854   7.584   8.567 -0.1117  0.4985  3.1640
  892MOL0     H23059   5.045   7.668   8.657  1.9944  0.1681 -3.1124
  892MOL0     H23060   5.427   7.386   8.696  0.7551 -1.1012 -0.3321
  892MOL0     H23061   5.389   7.466   8.543 -5.1024  3.0956 -0.7529
  892MOL0     H23062   5.515   7.573   8.789 -2.0836  2.4718  1.1781
  892MOL0     H23063   5.606   7.556   8.627  1.6460  2.1482  0.8296
  892MOL0     H23064   5.379   7.761   8.714  1.6634 -2.4245  3.1638
  892MOL0     H23065   5.433   7.748   8.549 -1.6347  3.6156  0.8805
  892MOL0     H23066   5.662   7.800   8.637  0.7583  3.2408  0.7666
  892MOL0     H23067   5.579   7.820   8.800  1.6553 -1.0588  0.4616
  892MOL0     H23068   5.546   7.970   8.544 -0.6388  0.4265 -0.4368
  892MOL0     H23069   5.435   8.000   8.680  2.0970  3.8071  2.7388
  892MOL0     H23070   5.730   8.068   8.676 -0.3199  3.0562 -1.9904
  892MOL0     H23071   5.631   8.068   8.821  0.9711 -0.9507  0.0661
  892MOL0     H23072   5.508   8.248   8.727  0.5582  0.8554  0.5282
  892MOL0     H23073   5.546   8.202   8.556 -0.3840 -1.3196  0.3027
  892MOL0     H23074   5.680   8.403   8.598 -1.1516 -0.6935 -2.5479
  892MOL0     H23075   5.775   8.266   8.575  1.2421  0.3565 -0.9131
  892MOL0     H23076   5.237   7.269   8.633 -1.8383 -1.1053  1.5489
  892MOL0     H23077   5.015   7.188   8.561  0.7506 -0.2079 -0.9059
  892MOL0     H23078   4.532   7.118   8.729  0.4775  0.2873 -0.5310
  892MOL0     H23079   4.290   7.114   8.682 -0.0387  0.3476  0.0601
  892MOL0     H23080   3.505   6.743   9.057 -0.1889  3.3344  0.4547
  892MOL0     H23081   3.542   6.542   8.913 -0.3924 -1.1799 -1.4710
  892MOL0     H23082   3.652   6.397   8.521  0.5026 -0.7417  0.1620
  892MOL0     H23083   3.772   6.190   8.500  0.9505  1.0900  1.5966
  892MOL0     H23084   3.533   5.821   8.414  0.4266 -0.3810 -1.0127
  892MOL0     H23085   3.684   5.866   8.329  0.0272 -1.0388 -1.1410
  892MOL0     H23086   3.653   5.671   8.557  0.7079  1.2150  1.1980
  892MOL0     H23087   3.804   5.744   8.531 -2.3564  2.6515  1.9898
  892MOL0     H23088   3.804   5.678   8.277 -2.3460 -0.9939 -1.6128
  892MOL0     H23089   3.837   5.557   8.406 -0.8164  0.4479  1.3729
  892MOL0     H23090   3.582   5.605   8.231  2.1161  1.9527  0.4152
  892MOL0     H23091   3.557   5.533   8.391 -0.4184 -2.0019 -0.3776
  892MOL0     H23092   3.768   5.226   8.177 -0.7513 -0.1273 -1.6982
  892MOL0     H23093   3.416   5.963   8.564  1.1504 -0.7448  2.6161
  892MOL0     H23094   3.196   6.235   8.669  4.4520  2.4320  1.7453
  892MOL0     H23095   3.198   6.146   8.511 -0.2630  2.4922 -0.4223
  892MOL0     H23096   3.227   6.064   8.665 -3.1139  2.3832  0.3138
  893MOL0     O23097   7.211   6.064  10.704 -0.3476  0.0292  0.0769
  893MOL0     C23098   7.203   6.187  10.672 -0.2345 -0.6028  0.1282
  893MOL0     O23099   7.306   6.260  10.615  0.9318  0.0955  0.4055
  893MOL0     C23100   7.435   6.208  10.609 -0.3627 -0.2027 -0.1703
  893MOL0     C23101   7.509   6.225  10.498  0.1395 -0.3082  0.0473
  893MOL0     C23102   7.640   6.170  10.493  0.5525 -0.7589 -0.7533
  893MOL0     C23103   7.701   6.128  10.616  0.2248  0.3399 -0.6214
  893MOL0     O23104   7.833   6.093  10.615 -0.2573 -0.3464 -0.4998
  893MOL0     C23105   7.917   6.103  10.735 -0.0675 -0.6287 -0.0079
  893MOL0     C23106   8.060   6.087  10.692 -0.9827  0.7387 -0.2071
  893MOL0     C23107   8.154   6.099  10.816  0.2574  0.0593 -0.1515
  893MOL0     C23108   8.298   6.079  10.780  0.7549  0.8401 -0.7048
  893MOL0     C23109   8.379   6.131  10.898 -0.5769  0.4007 -0.7484
  893MOL0     C23110   8.514   6.070  10.895  0.4859  0.3518 -0.3766
  893MOL0     C23111   8.593   6.116  11.012 -0.2654 -0.0783 -0.2989
  893MOL0     C23112   8.739   6.060  11.007 -0.7353 -0.1385 -0.7347
  893MOL0     N23113   8.807   6.106  11.137 -1.2901 -0.0649 -0.2160
  893MOL0     C23114   8.865   6.231  11.158 -0.4876  0.3085 -0.8647
  893MOL0     C23115   8.925   6.223  11.276 -0.6092  0.0905 -0.0143
  893MOL0     C23116   9.008   6.330  11.332  0.6399 -0.3232 -0.0976
  893MOL0     C23117   8.933   6.420  11.428  0.4212 -0.0682  0.8008
  893MOL0     C23118   9.016   6.541  11.491  0.3368  0.1090  0.2505
  893MOL0     C23119   9.094   6.501  11.614  0.2583 -0.1608 -0.2073
  893MOL0     O23120   9.212   6.591  11.619 -0.6331 -0.4471  0.6374
  893MOL0     C23121   9.319   6.559  11.690 -0.8173  0.2738  0.4312
  893MOL0     C23122   9.437   6.620  11.649  0.9190 -0.6778  0.2482
  893MOL0     C23123   9.560   6.603  11.718 -0.5137 -0.0193  0.3604
  893MOL0     C23124   9.686   6.658  11.653 -0.4277 -0.5623  0.1189
  893MOL0     C23125   9.563   6.514  11.823 -0.2569  0.9012  0.0553
  893MOL0     C23126   9.676   6.497  11.913  0.0559  0.9265  0.6046
  893MOL0     O23127   9.645   6.511  12.046  0.5321  0.1667 -0.4213
  893MOL0     C23128   9.753   6.514  12.138 -0.0610 -0.0984  0.6585
  893MOL0     C23129   9.786   6.639  12.200 -0.7200 -0.2966 -0.5872
  893MOL0     C23130   9.893   6.650  12.290  0.2867 -0.2017 -0.8688
  893MOL0     C23131   9.962   6.535  12.333  0.7604  1.0344 -1.0670
  893MOL0     O23132  10.074   6.533  12.409  0.2913 -0.9617 -0.6671
  893MOL0     C23133  10.162   6.648  12.398 -0.3274 -0.0632  0.2350
  893MOL0     C23134  10.291   6.617  12.482  0.4861 -0.2906  0.8199
  893MOL0     C23135  10.269   6.547  12.617 -0.4923 -0.4304 -0.0608
  893MOL0     C23136  10.404   6.518  12.685 -0.0171  0.0524  0.4530
  893MOL0     C23137  10.381   6.453  12.823  0.0948 -0.0027 -0.0697
  893MOL0     C23138  10.316   6.315  12.824 -0.3616  0.2520  0.1732
  893MOL0     C23139  10.348   6.247  12.963 -0.6511  0.8767  1.0985
  893MOL0     C23140  10.252   6.129  12.984 -0.2747  0.0450  0.1744
  893MOL0    Cl23141  10.292   5.979  12.887  0.1351  0.3409 -0.1504
  893MOL0     C23142   9.922   6.410  12.275  0.0668  0.3914 -0.4525
  893MOL0     C23143   9.827   6.403  12.172 -0.2123 -0.1754 -0.5044
  893MOL0     O23144   9.791   6.491  11.866 -0.1036  0.6402  0.9380
  893MOL0     C23145   9.438   6.467  11.872 -0.7305 -0.1032 -0.3786
  893MOL0     C23146   9.319   6.489  11.810  0.5899  0.6238  1.2030
  893MOL0     N23147   8.924   6.094  11.320  0.3514  0.7758  0.1469
  893MOL0     N23148   8.852   6.024  11.242 -0.1270  0.0882 -0.3567
  893MOL0     C23149   7.627   6.128  10.737 -0.0545 -0.0555 -0.4403
  893MOL0     C23150   7.495   6.162  10.730 -0.0515 -0.2671  0.1259
  893MOL0     C23151   7.069   6.252  10.687 -0.2247 -0.5686 -0.5070
  893MOL0     C23152   7.068   6.383  10.737  0.6416  0.2910  0.9833
  893MOL0     C23153   6.951   6.452  10.751 -0.3761  0.7112 -0.7635
  893MOL0     C23154   6.827   6.391  10.729 -0.2181  0.1773  0.4911
  893MOL0     O23155   6.712   6.460  10.754  0.0189  0.4341  0.5939
  893MOL0     C23156   6.614   6.436  10.652 -0.3894 -1.2287  0.1505
  893MOL0     C23157   6.504   6.345  10.704 -0.1214 -0.7281  0.5983
  893MOL0     C23158   6.425   6.421  10.813  0.6395  0.2630 -0.0042
  893MOL0     C23159   6.321   6.332  10.889  0.0821 -0.2073  0.1277
  893MOL0     C23160   6.208   6.331  10.796  0.5861  0.4753  0.0218
  893MOL0     C23161   6.119   6.359  10.715  0.7160  0.7307 -0.0018
  893MOL0     C23162   6.822   6.259  10.686 -0.0199 -0.0755  0.7341
  893MOL0     C23163   6.944   6.188  10.646 -0.4635 -0.5447 -0.1462
  893MOL0     C23164   6.936   6.053  10.574  0.2913 -1.1441  0.3037
  893MOL0     H23165   7.460   6.282  10.420 -1.4224  0.1099  1.2784
  893MOL0     H23166   7.699   6.184  10.403  0.9889 -0.8139 -0.4729
  893MOL0     H23167   7.884   6.024  10.802 -3.7146  0.6765 -0.0683
  893MOL0     H23168   7.916   6.200  10.786  2.1095 -0.9437  0.7242
  893MOL0     H23169   8.079   5.991  10.644 -2.0926  1.1395 -1.5150
  893MOL0     H23170   8.099   6.157  10.619  0.7171  0.9269  0.8324
  893MOL0     H23171   8.156   6.206  10.842 -1.8276  0.4065 -1.2059
  893MOL0     H23172   8.115   6.039  10.899 -0.3168  0.3445 -0.2105
  893MOL0     H23173   8.316   5.974  10.753 -0.8180  0.0350  1.1317
  893MOL0     H23174   8.319   6.138  10.690  1.7092  0.1929 -0.9174
  893MOL0     H23175   8.349   6.089  10.994  3.4454 -0.4950  0.3116
  893MOL0     H23176   8.379   6.239  10.910 -1.1712  0.0925  3.0937
  893MOL0     H23177   8.496   5.962  10.887  2.8263 -0.3097  1.9235
  893MOL0     H23178   8.565   6.110  10.807  1.3625 -0.7810 -0.4140
  893MOL0     H23179   8.549   6.080  11.105 -0.5214  0.6098 -0.1398
  893MOL0     H23180   8.597   6.226  11.018  1.4489 -0.1343  0.0932
  893MOL0     H23181   8.759   5.953  10.997  0.6777  0.1721 -1.6259
  893MOL0     H23182   8.799   6.099  10.924 -1.1365 -2.6577 -2.3115
  893MOL0     H23183   8.865   6.309  11.083  1.4576 -0.7190 -2.0214
  893MOL0     H23184   9.046   6.390  11.249 -1.4192 -2.1456 -2.5152
  893MOL0     H23185   9.087   6.294  11.400  1.2544  1.0881 -0.0390
  893MOL0     H23186   8.852   6.468  11.371 -0.1866 -2.2608 -0.2813
  893MOL0     H23187   8.898   6.359  11.512  1.8537 -2.0160  0.0420
  893MOL0     H23188   9.083   6.584  11.416  0.6326  0.2262  0.5810
  893MOL0     H23189   8.951   6.623  11.522 -0.7714 -1.1257  1.3274
  893MOL0     H23190   9.043   6.510  11.711  0.2201 -0.5895 -0.1839
  893MOL0     H23191   9.114   6.394  11.605 -0.6795 -0.2049 -2.2774
  893MOL0     H23192   9.428   6.689  11.565 -1.6178 -0.0740  0.9397
  893MOL0     H23193   9.744   6.575  11.614 -1.5683 -0.1944 -2.5509
  893MOL0     H23194   9.748   6.706  11.729  0.3496 -3.4299  1.4278
  893MOL0     H23195   9.656   6.732  11.578 -0.3837 -1.8942 -1.2526
  893MOL0     H23196   9.718   6.721  12.180  2.5417  3.3483  1.8071
  893MOL0     H23197   9.921   6.750  12.322  1.9162 -1.0137  0.4275
  893MOL0     H23198  10.188   6.678  12.296 -1.1247 -1.3477 -0.3782
  893MOL0     H23199  10.120   6.733  12.453 -0.3141 -0.5535  1.0262
  893MOL0     H23200  10.364   6.552  12.432  1.1919  1.6422 -0.8009
  893MOL0     H23201  10.345   6.711  12.494 -2.0468  0.9374  3.7025
  893MOL0     H23202  10.222   6.449  12.604  1.9238 -1.5559 -0.8654
  893MOL0     H23203  10.201   6.614  12.670 -0.3577 -0.0889 -0.3167
  893MOL0     H23204  10.451   6.615  12.704 -0.5654  0.4736 -0.2978
  893MOL0     H23205  10.466   6.457  12.618 -1.0900  0.2254 -0.7462
  893MOL0     H23206  10.481   6.449  12.868  0.1205  0.1308 -0.1167
  893MOL0     H23207  10.320   6.525  12.878  2.1209  2.2953 -0.6617
  893MOL0     H23208  10.364   6.252  12.749 -0.6419  2.1245 -1.6646
  893MOL0     H23209  10.212   6.317  12.791 -0.3565  3.3238  0.0228
  893MOL0     H23210  10.337   6.323  13.040  3.8838  1.3659  1.5679
  893MOL0     H23211  10.450   6.209  12.975 -0.3195  2.1731  2.5398
  893MOL0     H23212  10.155   6.164  12.947 -0.2038  2.4876  2.0278
  893MOL0     H23213  10.255   6.106  13.091  0.3515 -0.3742  0.0701
  893MOL0     H23214   9.982   6.322  12.299  1.1243  0.8382 -1.3886
  893MOL0     H23215   9.814   6.303  12.132  0.4563 -0.8063  0.7620
  893MOL0     H23216   9.439   6.408  11.963  0.8597  2.7923  1.6667
  893MOL0     H23217   9.222   6.450  11.839  0.3220 -0.2590 -0.7319
  893MOL0     H23218   7.664   6.100  10.835  0.6600 -2.5704 -1.3552
  893MOL0     H23219   7.432   6.168  10.818 -0.3591  0.4756 -0.1290
  893MOL0     H23220   7.154   6.443  10.764  0.8440 -0.3376  1.7541
  893MOL0     H23221   6.952   6.556  10.778  2.9415  0.4087  0.6761
  893MOL0     H23222   6.567   6.527  10.614  0.3177 -2.2576 -3.5760
  893MOL0     H23223   6.652   6.392  10.560  0.0143 -0.2081 -0.1890
  893MOL0     H23224   6.555   6.261  10.751  4.2023  0.1563 -1.9891
  893MOL0     H23225   6.437   6.311  10.624  0.2747  2.7126 -1.3983
  893MOL0     H23226   6.500   6.447  10.889  0.0062  1.1330  0.3400
  893MOL0     H23227   6.375   6.510  10.772  1.3281  1.3517  1.4285
  893MOL0     H23228   6.291   6.387  10.979 -0.0583  0.2078 -0.1697
  893MOL0     H23229   6.359   6.230  10.900  1.1770 -0.3616 -3.8182
  893MOL0     H23230   6.031   6.377  10.655 -0.1419  1.2879  1.3745
  893MOL0     H23231   6.729   6.215  10.654  1.3907 -2.3260 -0.5463
  893MOL0     H23232   6.926   5.971  10.647  1.5136 -1.9107 -0.3526
  893MOL0     H23233   6.840   6.065  10.523  0.3739 -0.9634  0.1914
  893MOL0     H23234   7.023   6.047  10.509  1.1268 -0.3443  1.3068
  894MOL0     O23235   6.866  11.020  11.323 -0.0871  0.5151  0.1460
  894MOL0     C23236   6.832  11.132  11.351 -0.8538  0.3412 -0.7336
  894MOL0     O23237   6.911  11.240  11.325  0.1654  0.1197 -0.0229
  894MOL0     C23238   7.044  11.245  11.288 -0.3308  0.1217  0.1961
  894MOL0     C23239   7.104  11.371  11.290 -0.1808  0.0074  1.0259
  894MOL0     C23240   7.238  11.388  11.248  0.3871  0.1308 -0.0531
  894MOL0     C23241   7.312  11.269  11.207 -0.8199 -0.7041  0.0892
  894MOL0     O23242   7.441  11.300  11.160  0.4266 -0.4447  0.1304
  894MOL0     C23243   7.469  11.228  11.033 -0.0933  0.1709 -1.3100
  894MOL0     C23244   7.598  11.281  10.974 -1.0624  0.1535  0.5511
  894MOL0     C23245   7.580  11.424  10.931  0.0298  0.7004 -0.2231
  894MOL0     C23246   7.687  11.477  10.839  0.0006 -0.2147 -0.3338
  894MOL0     C23247   7.833  11.484  10.905 -0.0212  0.0355 -0.7668
  894MOL0     C23248   7.944  11.536  10.808 -0.2643  0.4170 -0.1205
  894MOL0     C23249   7.942  11.686  10.783 -0.9576 -0.8854 -0.7914
  894MOL0     C23250   8.015  11.733  10.657  0.5263 -0.1176 -0.2378
  894MOL0     N23251   8.158  11.720  10.687  0.4502  0.6631 -0.7118
  894MOL0     C23252   8.238  11.627  10.623  0.3634  0.4408 -0.4137
  894MOL0     C23253   8.360  11.667  10.672 -0.5335 -0.2032 -1.2430
  894MOL0     C23254   8.497  11.614  10.645  0.3121  0.4169  1.6091
  894MOL0     C23255   8.523  11.599  10.495  0.7833 -0.4131 -0.2655
  894MOL0     C23256   8.535  11.734  10.445  0.4342 -0.3144 -0.1193
  894MOL0     C23257   8.583  11.753  10.301 -0.3911  0.0299 -0.3490
  894MOL0     O23258   8.695  11.666  10.275 -0.0467 -0.1583 -0.3201
  894MOL0     C23259   8.816  11.720  10.295 -0.1001  0.4290  0.4885
  894MOL0     C23260   8.843  11.824  10.387  0.1841  0.4246 -1.4833
  894MOL0     C23261   8.984  11.857  10.416 -0.5662  0.0840  0.2604
  894MOL0     C23262   9.011  11.968  10.508 -0.0716  0.5981 -0.4779
  894MOL0     C23263   9.082  11.799  10.340 -0.7794  0.7018 -0.3233
  894MOL0     C23264   9.227  11.829  10.356 -0.3101 -0.4237  0.1800
  894MOL0     O23265   9.310  11.731  10.328  0.0608 -0.2318 -0.3536
  894MOL0     C23266   9.444  11.754  10.317 -0.2947  0.0986 -0.7749
  894MOL0     C23267   9.528  11.695  10.218 -0.5351  0.0491 -0.4289
  894MOL0     C23268   9.668  11.710  10.208  0.0614 -0.1764 -0.8974
  894MOL0     C23269   9.734  11.792  10.299  0.3899 -0.2424 -0.1113
  894MOL0     O23270   9.867  11.788  10.283 -0.0182 -0.9428 -0.0410
  894MOL0     C23271   9.939  11.896  10.351  0.3082 -0.0717  0.4027
  894MOL0     C23272  10.084  11.868  10.300  0.5800  0.4968 -0.3229
  894MOL0     C23273  10.162  11.994  10.344  0.0016  0.6697  0.0314
  894MOL0     C23274  10.312  11.964  10.335  1.1926 -1.1397  0.4606
  894MOL0     C23275  10.384  12.103  10.354 -0.1111  0.0894 -0.0507
  894MOL0     C23276  10.536  12.079  10.369  0.2735 -0.3026 -0.3750
  894MOL0     C23277  10.600  12.027  10.249 -0.2868  0.2347  0.7254
  894MOL0     C23278  10.748  12.009  10.249 -0.4628 -1.0706 -0.2296
  894MOL0    Cl23279  10.785  11.971  10.085 -0.6954 -0.0871  0.3858
  894MOL0     C23280   9.651  11.857  10.393 -0.4295 -0.2957  0.1235
  894MOL0     C23281   9.515  11.835  10.403  0.2578 -0.2933  0.4075
  894MOL0     O23282   9.254  11.952  10.370  0.1453  0.1265 -0.7624
  894MOL0     C23283   9.046  11.704  10.240  0.4609 -0.1782 -0.2735
  894MOL0     C23284   8.917  11.666  10.212 -0.9805 -0.1828 -0.0425
  894MOL0     N23285   8.347  11.770  10.766  1.1263 -0.1832  0.2966
  894MOL0     N23286   8.225  11.797  10.773  0.2909  0.3260  0.3492
  894MOL0     C23287   7.251  11.145  11.204 -0.5086 -0.3423  0.2258
  894MOL0     C23288   7.121  11.136  11.243 -0.9557 -0.0789  0.2988
  894MOL0     C23289   6.691  11.151  11.396 -0.7889  0.6821 -0.1271
  894MOL0     C23290   6.648  11.279  11.397  1.2948 -0.3694  0.3635
  894MOL0     C23291   6.509  11.311  11.417  0.0079  1.1266  0.2014
  894MOL0     C23292   6.414  11.209  11.422 -0.6539  0.6834 -0.1177
  894MOL0     O23293   6.281  11.222  11.446  0.4345 -0.8508 -0.1511
  894MOL0     C23294   6.221  11.349  11.428 -0.1943  0.4217 -0.0550
  894MOL0     C23295   6.079  11.340  11.483 -0.0371 -0.3327  0.1318
  894MOL0     C23296   5.995  11.449  11.401 -0.0954  0.8499  0.5410
  894MOL0     C23297   5.853  11.458  11.459  0.3806  0.1455 -0.4641
  894MOL0     C23298   5.780  11.550  11.355  0.2305  0.0069 -0.0930
  894MOL0     C23299   5.737  11.637  11.280 -0.2919  0.1695 -0.9016
  894MOL0     C23300   6.460  11.078  11.417 -0.6080 -0.3030  0.0770
  894MOL0     C23301   6.598  11.043  11.411 -0.1024  1.2816 -0.2170
  894MOL0     C23302   6.630  10.899  11.404  0.7551  0.2085  0.3255
  894MOL0     H23303   7.052  11.461  11.321  0.3891  0.9444 -0.6281
  894MOL0     H23304   7.293  11.481  11.243 -1.2712  1.0941 -3.3791
  894MOL0     H23305   7.392  11.256  10.961 -0.8846  0.1294 -0.4987
  894MOL0     H23306   7.471  11.123  11.062 -3.4555  0.7744  1.9785
  894MOL0     H23307   7.681  11.274  11.046 -0.3400  1.6483 -0.0998
  894MOL0     H23308   7.617  11.233  10.877 -0.0287  1.8568 -0.1363
  894MOL0     H23309   7.493  11.430  10.866  0.6256  0.7902 -1.0184
  894MOL0     H23310   7.566  11.490  11.017  3.0188  0.5060  0.5153
  894MOL0     H23311   7.693  11.410  10.752  1.7828 -3.2244  1.8694
  894MOL0     H23312   7.656  11.579  10.814  1.1396  0.1068 -0.5138
  894MOL0     H23313   7.853  11.384  10.943 -1.8751 -0.7980 -1.8430
  894MOL0     H23314   7.829  11.556  10.987 -2.2681 -0.7674 -0.1143
  894MOL0     H23315   8.043  11.521  10.853  1.5661  3.0535 -2.7665
  894MOL0     H23316   7.924  11.481  10.716  0.2453 -0.4443  0.2747
  894MOL0     H23317   7.974  11.746  10.868 -3.9426  1.4330 -1.1300
  894MOL0     H23318   7.835  11.709  10.782 -0.7945 -0.0011  0.1248
  894MOL0     H23319   7.985  11.673  10.572 -1.7580 -1.3564  1.3471
  894MOL0     H23320   7.993  11.837  10.632 -1.1423  0.4459  3.0275
  894MOL0     H23321   8.210  11.552  10.550  1.5188 -0.5439  0.1099
  894MOL0     H23322   8.510  11.514  10.687 -0.9425 -1.0445 -1.2125
  894MOL0     H23323   8.563  11.691  10.685  2.5870  0.3742 -1.6497
  894MOL0     H23324   8.623  11.559  10.483  1.5087  0.7948  1.3155
  894MOL0     H23325   8.448  11.535  10.447 -0.0384  0.0062  0.4274
  894MOL0     H23326   8.433  11.774  10.447 -0.8789 -3.2909 -1.0981
  894MOL0     H23327   8.587  11.808  10.505 -0.1527 -1.1222  1.4470
  894MOL0     H23328   8.498  11.723  10.238 -0.6797  0.3808 -0.1351
  894MOL0     H23329   8.584  11.856  10.264 -2.1424  0.3670  0.3976
  894MOL0     H23330   8.763  11.869  10.444  0.1334 -0.6679 -0.6631
  894MOL0     H23331   9.109  11.956  10.557 -0.3619 -1.0125 -0.2226
  894MOL0     H23332   8.940  11.964  10.591 -1.5103 -3.7500 -1.6100
  894MOL0     H23333   9.005  12.064  10.458  0.9657  0.6123 -0.5984
  894MOL0     H23334   9.482  11.628  10.146 -1.1206 -1.5830  1.3831
  894MOL0     H23335   9.724  11.651  10.136 -1.0694 -0.5703 -1.4703
  894MOL0     H23336   9.907  11.990  10.306  1.7550  0.1648 -0.1782
  894MOL0     H23337   9.931  11.909  10.459  0.9408  0.8876  0.3477
  894MOL0     H23338  10.127  11.777  10.342  1.2073  0.9809  0.1051
  894MOL0     H23339  10.083  11.865  10.191  0.7735  2.6810 -0.4365
  894MOL0     H23340  10.143  12.023  10.448  2.9293 -2.1126  1.5497
  894MOL0     H23341  10.130  12.069  10.271  1.0694  0.1896 -0.9670
  894MOL0     H23342  10.332  11.914  10.240 -0.6248  0.3853 -0.8225
  894MOL0     H23343  10.332  11.900  10.420 -3.3476  0.1369  2.8335
  894MOL0     H23344  10.362  12.164  10.265 -0.0153 -2.2455 -1.7692
  894MOL0     H23345  10.352  12.154  10.446  0.3438 -0.5240  0.4529
  894MOL0     H23346  10.550  12.016  10.458 -3.1099  1.7669  1.8428
  894MOL0     H23347  10.592  12.170  10.394  0.5930 -0.3692 -0.8315
  894MOL0     H23348  10.584  12.113  10.183 -1.3038  0.1568  0.8602
  894MOL0     H23349  10.560  11.936  10.203  1.7381 -0.2860 -0.1044
  894MOL0     H23350  10.796  11.942  10.321  1.3850 -3.4066 -3.4056
  894MOL0     H23351  10.808  12.098  10.269 -1.5502 -0.4715  0.4818
  894MOL0     H23352   9.690  11.926  10.467  2.3623 -1.7841  0.1604
  894MOL0     H23353   9.462  11.876  10.489  1.3005 -0.5688  1.2097
  894MOL0     H23354   9.122  11.653  10.182  2.2710 -0.4451  2.1904
  894MOL0     H23355   8.891  11.609  10.123 -2.9905 -0.6897  0.8154
  894MOL0     H23356   7.311  11.055  11.189 -0.7390 -0.6343  1.0093
  894MOL0     H23357   7.085  11.034  11.228  0.8141 -0.3843 -2.9477
  894MOL0     H23358   6.707  11.369  11.381 -0.5425  0.8749  0.2196
  894MOL0     H23359   6.490  11.416  11.401  0.9532  1.2212 -0.4055
  894MOL0     H23360   6.273  11.430  11.481  0.4158  0.7468 -1.1141
  894MOL0     H23361   6.227  11.370  11.320 -0.6908 -1.4317 -0.4798
  894MOL0     H23362   6.077  11.377  11.586  1.7331  2.5853 -0.7672
  894MOL0     H23363   6.049  11.238  11.459  3.9227 -1.6505  0.0766
  894MOL0     H23364   6.042  11.547  11.415 -2.5794  2.0845  0.7473
  894MOL0     H23365   5.984  11.412  11.299  1.0357  0.5032  0.5257
  894MOL0     H23366   5.857  11.508  11.556  3.6425 -1.5716  0.4336
  894MOL0     H23367   5.813  11.358  11.473  0.5825  0.1788  0.3756
  894MOL0     H23368   5.678  11.708  11.225 -2.2081 -0.8381 -0.2390
  894MOL0     H23369   6.383  11.001  11.418 -0.4428 -0.4925  1.8234
  894MOL0     H23370   6.649  10.871  11.300  0.6358  2.6092 -0.4050
  894MOL0     H23371   6.707  10.865  11.474 -0.0740 -2.6376 -0.0126
  894MOL0     H23372   6.543  10.848  11.446  0.4921 -0.1660 -0.6333
  895MOL0     O23373   9.521   7.716  10.611  0.1895 -0.1609 -0.3024
  895MOL0     C23374   9.496   7.702  10.733  0.2845 -0.2685  0.2978
  895MOL0     O23375   9.590   7.674  10.831  0.2390  0.6785  0.3282
  895MOL0     C23376   9.710   7.615  10.794  0.5167  0.4779 -0.6198
  895MOL0     C23377   9.821   7.681  10.734 -0.1184 -0.4550  0.6348
  895MOL0     C23378   9.943   7.612  10.723  1.0047  0.4594  0.2831
  895MOL0     C23379   9.953   7.473  10.764  0.8313  0.5851  0.9590
  895MOL0     O23380  10.076   7.413  10.736 -0.4945  0.3060 -0.0745
  895MOL0     C23381  10.090   7.274  10.758 -0.3329 -0.3002 -0.3792
  895MOL0     C23382  10.226   7.223  10.696 -0.1308  0.5470 -0.1425
  895MOL0     C23383  10.357   7.292  10.757  0.7746 -0.4997 -0.2202
  895MOL0     C23384  10.477   7.267  10.659  0.5425 -0.0192  0.1629
  895MOL0     C23385  10.602   7.346  10.702  0.2083 -0.4877 -0.3681
  895MOL0     C23386  10.721   7.255  10.699 -0.2371 -0.3328  0.1691
  895MOL0     C23387  10.846   7.329  10.765  0.3885 -0.1093  0.2998
  895MOL0     C23388  10.979   7.261  10.729 -0.1413 -0.1207  0.5603
  895MOL0     N23389  11.086   7.295  10.825  0.0076 -0.1718  0.5605
  895MOL0     C23390  11.099   7.235  10.953 -0.0654  0.0425  0.6287
  895MOL0     C23391  11.203   7.301  11.015 -0.1680  0.3088  0.2636
  895MOL0     C23392  11.266   7.274  11.150 -1.1112  0.3931  0.0945
  895MOL0     C23393  11.379   7.172  11.131 -0.3516  0.2711  1.0450
  895MOL0     C23394  11.504   7.236  11.065  0.5199  0.2997 -0.4748
  895MOL0     C23395  11.618   7.129  11.076  0.1196  0.6208 -0.7682
  895MOL0     O23396  11.665   7.141  11.211  0.2304  0.1894 -0.4648
  895MOL0     C23397  11.769   7.064  11.246 -0.0861  0.3396 -0.0319
  895MOL0     C23398  11.799   6.934  11.183  0.6305 -0.0149  0.1710
  895MOL0     C23399  11.917   6.864  11.203 -0.9442  0.4607 -1.1381
  895MOL0     C23400  11.936   6.727  11.137 -0.1785 -0.0951  0.0121
  895MOL0     C23401  12.013   6.922  11.301 -0.2193  0.5053  0.2900
  895MOL0     C23402  12.149   6.861  11.326 -0.5076 -0.7929 -0.6121
  895MOL0     O23403  12.211   6.915  11.438 -0.1047  0.0312  0.1074
  895MOL0     C23404  12.345   6.927  11.431  0.4439 -0.6218 -0.3105
  895MOL0     C23405  12.413   7.011  11.335 -0.9326  0.4286 -0.5954
  895MOL0     C23406  12.547   7.022  11.341 -0.9080  0.1093 -0.5097
  895MOL0     C23407  12.617   6.955  11.440  0.8105  0.0111  0.4206
  895MOL0     O23408  12.751   6.966  11.453 -0.7221 -0.3349  0.3804
  895MOL0     C23409  12.833   6.957  11.344  1.2515  0.0116  0.2591
  895MOL0     C23410  12.980   6.990  11.381  0.7008  0.5466 -0.0219
  895MOL0     C23411  13.044   6.901  11.491 -0.3806  0.4427  0.1208
  895MOL0     C23412  13.192   6.912  11.493  0.1993 -0.2664 -0.9281
  895MOL0     C23413  13.254   6.998  11.613 -0.4969 -1.1974 -0.0456
  895MOL0     C23414  13.410   6.995  11.618  0.2273 -0.4673 -0.2556
  895MOL0     C23415  13.477   7.070  11.509  0.5280  0.9960  0.6978
  895MOL0     C23416  13.573   7.175  11.545  0.0562  0.2580 -0.6266
  895MOL0    Cl23417  13.480   7.298  11.647  0.0048 -0.3473 -0.6825
  895MOL0     C23418  12.554   6.882  11.543 -0.3746 -0.0087 -0.1436
  895MOL0     C23419  12.412   6.862  11.530 -0.6704 -0.0649 -0.5124
  895MOL0     O23420  12.193   6.767  11.255  0.1423 -0.0172 -0.1967
  895MOL0     C23421  11.975   7.042  11.373 -0.0985  0.0447 -0.2040
  895MOL0     C23422  11.849   7.108  11.344 -0.0972 -0.6331  0.6060
  895MOL0     N23423  11.247   7.398  10.924  0.5426  0.6051  0.3463
  895MOL0     N23424  11.172   7.399  10.816 -0.7815  0.0308 -0.0661
  895MOL0     C23425   9.846   7.414  10.827 -1.9860  0.4739  0.4998
  895MOL0     C23426   9.719   7.486  10.839 -0.5258  0.3172  0.0826
  895MOL0     C23427   9.355   7.727  10.780  0.1489  0.0446 -0.7804
  895MOL0     C23428   9.321   7.670  10.901 -1.1170 -0.2960  0.1879
  895MOL0     C23429   9.199   7.692  10.969 -0.6224  0.1908  0.3038
  895MOL0     C23430   9.108   7.787  10.916 -0.3634 -0.4616 -0.3009
  895MOL0     O23431   8.993   7.825  10.978  0.1284  0.1626  0.6479
  895MOL0     C23432   8.928   7.724  11.049 -1.0011 -0.2163  0.3336
  895MOL0     C23433   8.779   7.764  11.041 -0.7632  0.6334 -0.2680
  895MOL0     C23434   8.740   7.863  11.148 -0.8222 -0.0829 -0.4877
  895MOL0     C23435   8.593   7.915  11.148  0.3809  0.3754 -0.5795
  895MOL0     C23436   8.518   7.808  11.216 -0.0601  0.5281  0.1496
  895MOL0     C23437   8.467   7.727  11.291 -0.3683 -0.0730  0.3107
  895MOL0     C23438   9.138   7.841  10.799  0.9725 -0.5312  0.6070
  895MOL0     C23439   9.261   7.821  10.731  1.0475 -0.2727  0.3879
  895MOL0     C23440   9.299   7.904  10.606 -0.0950 -0.0987  0.7875
  895MOL0     H23441   9.805   7.785  10.708  0.3426 -0.5951 -0.2415
  895MOL0     H23442  10.035   7.651  10.682  0.4181  1.6412  0.0415
  895MOL0     H23443  10.015   7.226  10.696 -1.9115 -0.1410  1.3298
  895MOL0     H23444  10.094   7.250  10.865  3.5633  3.8092  0.7535
  895MOL0     H23445  10.227   7.117  10.724 -0.1529  0.0734 -1.8017
  895MOL0     H23446  10.228   7.228  10.586  0.5718  1.8371 -0.0886
  895MOL0     H23447  10.342   7.400  10.757 -1.3823 -0.7126 -2.0325
  895MOL0     H23448  10.379   7.250  10.856  0.4082  0.9765  0.5175
  895MOL0     H23449  10.499   7.162  10.634 -1.1740 -0.3829  0.0651
  895MOL0     H23450  10.437   7.307  10.565 -1.5398 -1.3043  0.4389
  895MOL0     H23451  10.578   7.377  10.804 -1.5154 -1.7993 -0.3253
  895MOL0     H23452  10.619   7.432  10.637  0.2438 -0.8158 -0.8040
  895MOL0     H23453  10.704   7.161  10.752 -0.6530 -0.0321  0.5836
  895MOL0     H23454  10.736   7.225  10.595  2.5206 -1.3425  0.7843
  895MOL0     H23455  10.826   7.317  10.872 -1.5729 -1.7053 -0.1807
  895MOL0     H23456  10.859   7.433  10.735  1.5469 -0.3986 -0.2635
  895MOL0     H23457  10.965   7.153  10.735 -1.5290  0.0798  1.1807
  895MOL0     H23458  11.018   7.295  10.633 -1.1603  0.4981  0.3582
  895MOL0     H23459  11.035   7.157  10.992 -0.5200  1.1740  2.2368
  895MOL0     H23460  11.179   7.230  11.199 -0.6651 -1.8010 -0.9627
  895MOL0     H23461  11.306   7.360  11.205  2.9442 -0.2635 -1.4538
  895MOL0     H23462  11.400   7.124  11.226  2.3287 -1.1308 -0.1604
  895MOL0     H23463  11.334   7.089  11.076 -0.4754 -0.4723  2.2520
  895MOL0     H23464  11.480   7.258  10.961  1.3234  1.2316 -0.4776
  895MOL0     H23465  11.540   7.327  11.113 -0.3109 -0.6822  2.2350
  895MOL0     H23466  11.584   7.028  11.051  2.5442 -0.7062  0.9153
  895MOL0     H23467  11.699   7.156  11.008  0.4600  2.3097  0.2470
  895MOL0     H23468  11.722   6.888  11.122  1.1305 -0.7238  0.0637
  895MOL0     H23469  11.999   6.735  11.048 -1.1354 -2.8739 -1.0478
  895MOL0     H23470  11.836   6.699  11.103  0.3974 -0.4870 -1.4459
  895MOL0     H23471  11.966   6.658  11.216  1.3571  1.2819  0.6910
  895MOL0     H23472  12.371   7.059  11.247 -0.1701 -1.7198 -2.2284
  895MOL0     H23473  12.604   7.071  11.263  0.0526 -2.7334 -1.7057
  895MOL0     H23474  12.809   6.859  11.301 -1.4371  0.4396  0.6194
  895MOL0     H23475  12.806   7.029  11.267 -5.0899  0.2689  2.1822
  895MOL0     H23476  13.046   6.976  11.295  2.9367  1.3940  1.4533
  895MOL0     H23477  12.971   7.092  11.420 -4.1121  0.7760 -1.1245
  895MOL0     H23478  13.022   6.796  11.470  4.2822 -0.5368 -1.0685
  895MOL0     H23479  13.016   6.927  11.593  2.0010  0.8667  0.7231
  895MOL0     H23480  13.227   6.957  11.399 -0.6789  0.3318 -0.9792
  895MOL0     H23481  13.238   6.814  11.502 -0.7955 -0.5628  1.8359
  895MOL0     H23482  13.204   7.095  11.615 -1.6036 -1.6700  3.7900
  895MOL0     H23483  13.225   6.961  11.712 -1.5386 -1.8356 -0.5801
  895MOL0     H23484  13.430   6.887  11.618 -0.6303 -0.6525  0.7793
  895MOL0     H23485  13.439   7.034  11.716 -0.2513 -1.8308  0.4574
  895MOL0     H23486  13.398   7.119  11.453 -0.6309  0.9972  2.2565
  895MOL0     H23487  13.528   6.995  11.447 -0.2073  0.2139  1.0191
  895MOL0     H23488  13.621   7.230  11.463  1.4240  0.7183  0.4477
  895MOL0     H23489  13.655   7.127  11.599 -2.1671 -0.4169  2.4058
  895MOL0     H23490  12.611   6.828  11.617  0.1102 -0.7392 -1.0260
  895MOL0     H23491  12.354   6.803  11.600 -0.1012  1.5022  1.3644
  895MOL0     H23492  12.040   7.073  11.454  0.9677 -0.0563 -0.9986
  895MOL0     H23493  11.816   7.200  11.390  0.3404  1.0114 -2.1154
  895MOL0     H23494   9.876   7.317  10.866  3.0144  0.3461 -2.8079
  895MOL0     H23495   9.639   7.450  10.903  0.7255  0.3611  1.7642
  895MOL0     H23496   9.386   7.590  10.933 -1.2611 -0.4844  0.0120
  895MOL0     H23497   9.181   7.647  11.066  1.6165  1.3178  1.3001
  895MOL0     H23498   8.932   7.629  10.994 -1.5251  0.1580 -0.3739
  895MOL0     H23499   8.968   7.725  11.151 -0.7602  1.2830  0.2376
  895MOL0     H23500   8.706   7.683  11.033 -0.1911  0.0550  0.2472
  895MOL0     H23501   8.761   7.818  10.948 -1.1127 -0.9326 -1.1520
  895MOL0     H23502   8.754   7.811  11.244  1.7381 -1.1798 -1.3739
  895MOL0     H23503   8.808   7.949  11.153 -0.4638 -0.3464 -0.7667
  895MOL0     H23504   8.546   7.943  11.054  3.7491 -0.5473 -2.7501
  895MOL0     H23505   8.582   7.998  11.218 -2.8282 -0.3537 -0.0948
  895MOL0     H23506   8.419   7.654  11.354  1.0028 -0.5423  0.8511
  895MOL0     H23507   9.078   7.925  10.767  1.9273 -0.2928 -0.5922
  895MOL0     H23508   9.209   7.938  10.554  1.2164 -0.0170 -1.5280
  895MOL0     H23509   9.368   7.986  10.626 -2.1383  1.7359  0.7293
  895MOL0     H23510   9.331   7.824  10.539  0.1382 -0.3730  1.2240
  896MOL0     O23511   6.451   2.502   7.777 -0.9337 -0.1346 -0.0771
  896MOL0     C23512   6.434   2.563   7.673  0.0805  0.2274  0.0067
  896MOL0     O23513   6.523   2.600   7.578  0.3532 -0.0920 -0.3227
  896MOL0     C23514   6.656   2.572   7.594 -0.2601 -0.1344  0.3957
  896MOL0     C23515   6.735   2.674   7.540 -0.4000 -0.2847  0.7076
  896MOL0     C23516   6.872   2.647   7.530  0.4483  0.2303  0.3073
  896MOL0     C23517   6.918   2.523   7.564 -0.1909  0.6209 -1.4869
  896MOL0     O23518   7.049   2.512   7.539 -0.4693  0.0763  0.0568
  896MOL0     C23519   7.106   2.386   7.549 -0.3908 -0.2085  0.5281
  896MOL0     C23520   7.250   2.402   7.501 -0.7993 -0.6085  0.0657
  896MOL0     C23521   7.309   2.262   7.466 -0.9048 -1.5678  0.1930
  896MOL0     C23522   7.458   2.278   7.428 -0.4310 -0.0144  0.7719
  896MOL0     C23523   7.528   2.142   7.392  0.5027 -0.8751  0.7703
  896MOL0     C23524   7.677   2.146   7.366 -0.6643 -0.3961 -0.0531
  896MOL0     C23525   7.721   2.009   7.311  0.0766  0.0722 -0.0647
  896MOL0     C23526   7.870   1.992   7.313  0.2127 -0.0429 -0.1730
  896MOL0     N23527   7.913   1.866   7.245  0.1109  1.3549  0.6678
  896MOL0     C23528   7.910   1.847   7.106  0.2114 -0.2024 -0.0683
  896MOL0     C23529   7.988   1.738   7.084 -0.2345  0.0954 -0.0021
  896MOL0     C23530   8.026   1.688   6.945  0.8214  0.1721 -0.2651
  896MOL0     C23531   7.903   1.614   6.882 -0.0867  0.2681 -0.1822
  896MOL0     C23532   7.911   1.607   6.733 -0.2200  0.8666 -0.6474
  896MOL0     C23533   8.040   1.564   6.674 -0.4753 -0.2675  0.5053
  896MOL0     O23534   8.088   1.445   6.742 -0.4571 -0.4253  0.1703
  896MOL0     C23535   8.226   1.420   6.753 -0.3331 -0.6662  0.5984
  896MOL0     C23536   8.290   1.408   6.875 -0.4152  0.5528  0.2903
  896MOL0     C23537   8.429   1.383   6.890  0.1461  0.4790  0.1034
  896MOL0     C23538   8.481   1.348   7.028 -0.2948 -0.1253 -0.3115
  896MOL0     C23539   8.507   1.393   6.767  0.0038 -0.6135  1.3497
  896MOL0     C23540   8.653   1.387   6.767  0.1924 -0.0179 -0.4848
  896MOL0     O23541   8.714   1.326   6.666  0.7721  0.3618  0.3762
  896MOL0     C23542   8.848   1.303   6.667 -0.0013  0.0878  0.1154
  896MOL0     C23543   8.923   1.249   6.775 -0.3184 -0.0842  0.4494
  896MOL0     C23544   9.061   1.220   6.757  0.0356  0.5529  0.5143
  896MOL0     C23545   9.126   1.244   6.639  0.4302 -0.1173 -0.6411
  896MOL0     O23546   9.256   1.215   6.607  0.5599  0.1634  0.3609
  896MOL0     C23547   9.353   1.171   6.705  0.9069  0.3107 -0.0916
  896MOL0     C23548   9.346   1.021   6.722 -0.4064 -0.7313  0.8013
  896MOL0     C23549   9.474   0.966   6.774 -0.3673  0.2115 -0.2857
  896MOL0     C23550   9.524   1.035   6.898  0.2283  0.4280 -0.7974
  896MOL0     C23551   9.666   0.998   6.946 -0.9862  0.1390  1.0914
  896MOL0     C23552   9.718   1.102   7.045  0.3802 -0.0467 -0.1113
  896MOL0     C23553   9.866   1.076   7.076 -0.0244 -0.3400  0.0812
  896MOL0     C23554   9.925   1.155   7.194 -0.2921  0.5631  0.1878
  896MOL0    Cl23555   9.889   1.341   7.196  0.1495  0.0891  0.2261
  896MOL0     C23556   9.045   1.300   6.540  0.0159 -0.0524 -0.5755
  896MOL0     C23557   8.910   1.325   6.544  0.4328  0.4300 -0.2043
  896MOL0     O23558   8.710   1.449   6.855 -0.8857  0.6041 -0.1529
  896MOL0     C23559   8.436   1.417   6.649 -0.8050  0.4845  0.2816
  896MOL0     C23560   8.295   1.423   6.634  0.0410 -0.3993 -0.6586
  896MOL0     N23561   8.027   1.676   7.204  0.0144  0.2386  0.6813
  896MOL0     N23562   7.983   1.755   7.298 -0.2984  0.2126  0.4933
  896MOL0     C23563   6.839   2.425   7.625 -0.0236  0.0104  0.5274
  896MOL0     C23564   6.706   2.445   7.640  0.2866 -0.3338  0.2284
  896MOL0     C23565   6.299   2.622   7.659  0.7852  0.6028 -0.3859
  896MOL0     C23566   6.217   2.577   7.557  0.2482 -0.6766  0.5287
  896MOL0     C23567   6.091   2.639   7.528 -0.4670  0.7195  0.0931
  896MOL0     C23568   6.028   2.727   7.619 -0.1977  0.0249  0.5686
  896MOL0     O23569   5.911   2.787   7.583 -0.1519  0.0895  0.1589
  896MOL0     C23570   5.825   2.855   7.677 -1.0682 -0.0562  0.9029
  896MOL0     C23571   5.759   2.743   7.759  0.5703  0.0542  0.3481
  896MOL0     C23572   5.605   2.766   7.783  0.5612 -0.2125  1.1464
  896MOL0     C23573   5.550   2.656   7.873  0.2550  0.2807  0.3967
  896MOL0     C23574   5.403   2.683   7.887 -0.6206  0.1779 -0.5489
  896MOL0     C23575   5.286   2.708   7.865 -1.0602 -0.0356  0.6042
  896MOL0     C23576   6.094   2.747   7.739 -0.7168 -0.5367  0.0700
  896MOL0     C23577   6.229   2.701   7.756  0.6597  0.0910 -0.1239
  896MOL0     C23578   6.285   2.756   7.882  0.0791  0.1183  0.0361
  896MOL0     H23579   6.692   2.767   7.503 -0.6865  0.3502  2.5508
  896MOL0     H23580   6.939   2.711   7.475  0.8053  0.0974  0.5788
  896MOL0     H23581   7.059   2.309   7.489  1.4447  0.1844 -1.5345
  896MOL0     H23582   7.111   2.360   7.655 -0.5661 -1.0222  0.3382
  896MOL0     H23583   7.263   2.459   7.408 -0.8685 -1.7328 -0.6520
  896MOL0     H23584   7.302   2.458   7.579 -1.6631  2.6701 -1.4919
  896MOL0     H23585   7.307   2.189   7.547  0.7531 -0.4361  1.3363
  896MOL0     H23586   7.253   2.224   7.381 -0.4870  0.9946 -1.3389
  896MOL0     H23587   7.473   2.350   7.347  0.0343  1.1836  1.8973
  896MOL0     H23588   7.504   2.314   7.520 -0.3199  0.5748  0.4870
  896MOL0     H23589   7.472   2.106   7.305 -1.1124 -0.4194  1.5782
  896MOL0     H23590   7.514   2.063   7.467  0.5535 -1.5913  0.0476
  896MOL0     H23591   7.707   2.228   7.300 -1.2488 -0.0056  0.1569
  896MOL0     H23592   7.735   2.165   7.457  0.2394 -1.4051 -0.4132
  896MOL0     H23593   7.688   1.998   7.207  0.0950  1.0913 -0.1844
  896MOL0     H23594   7.677   1.930   7.373 -0.3242 -0.6515 -1.2391
  896MOL0     H23595   7.919   2.079   7.270  0.9765  1.1400  2.8299
  896MOL0     H23596   7.908   1.991   7.416  2.8935 -1.1333 -1.0924
  896MOL0     H23597   7.860   1.902   7.027 -1.1611 -2.1978 -0.6735
  896MOL0     H23598   8.112   1.621   6.955 -0.5526 -2.0866 -2.2781
  896MOL0     H23599   8.056   1.776   6.887  0.2202 -0.1211 -1.0437
  896MOL0     H23600   7.887   1.516   6.928  0.3226  0.4853  0.4411
  896MOL0     H23601   7.814   1.672   6.906 -0.1491 -0.9399  2.9738
  896MOL0     H23602   7.832   1.544   6.692  0.0430  0.0609  0.0502
  896MOL0     H23603   7.883   1.708   6.702 -1.2075  0.2071 -2.0164
  896MOL0     H23604   8.044   1.543   6.567  2.2926  0.6386  0.3476
  896MOL0     H23605   8.116   1.643   6.683 -0.9183  0.2472 -0.1728
  896MOL0     H23606   8.231   1.394   6.965  0.1461 -0.6469  0.4981
  896MOL0     H23607   8.435   1.251   7.049  3.3276 -1.9436 -0.0580
  896MOL0     H23608   8.447   1.426   7.097  2.0001  0.9317 -0.2881
  896MOL0     H23609   8.589   1.340   7.018 -0.0219 -2.5884  2.9919
  896MOL0     H23610   8.871   1.229   6.868 -1.0425  2.6498  0.7481
  896MOL0     H23611   9.118   1.175   6.838  1.3321  2.9323  1.0228
  896MOL0     H23612   9.451   1.202   6.669  1.2937  0.7141  1.2250
  896MOL0     H23613   9.327   1.229   6.794  1.8145 -0.4107  0.6650
  896MOL0     H23614   9.262   0.994   6.787  1.8298 -2.9352  2.9367
  896MOL0     H23615   9.336   0.982   6.620 -0.3260  0.5967  0.2589
  896MOL0     H23616   9.550   0.969   6.695 -1.5441 -0.9197 -1.5291
  896MOL0     H23617   9.456   0.859   6.792  3.7956 -0.8138 -0.9991
  896MOL0     H23618   9.447   1.019   6.974 -2.1459 -2.8249 -3.5480
  896MOL0     H23619   9.531   1.141   6.874 -1.6981  0.6967 -0.3295
  896MOL0     H23620   9.660   0.902   6.997 -1.0648  0.7136  2.2105
  896MOL0     H23621   9.735   0.984   6.862 -1.0535 -1.2621  1.2587
  896MOL0     H23622   9.655   1.092   7.133 -0.6108 -0.7239 -0.8782
  896MOL0     H23623   9.712   1.196   6.988  1.2527  0.5009  0.6763
  896MOL0     H23624   9.927   1.118   6.996 -0.5254 -2.4723 -1.5289
  896MOL0     H23625   9.902   0.973   7.088  0.4765  0.0896  3.0466
  896MOL0     H23626  10.031   1.127   7.201 -1.1431 -3.0811  0.7161
  896MOL0     H23627   9.893   1.112   7.289  4.1057 -1.5264  0.9960
  896MOL0     H23628   9.095   1.306   6.444  1.6700  0.9718  0.3105
  896MOL0     H23629   8.871   1.373   6.455 -0.7952  0.5432  0.3737
  896MOL0     H23630   8.499   1.438   6.563  1.1730  1.6457  1.9427
  896MOL0     H23631   8.238   1.440   6.543 -1.0458  1.0635  0.2451
  896MOL0     H23632   6.877   2.332   7.666 -0.3148  0.2087  1.2586
  896MOL0     H23633   6.643   2.362   7.673 -0.0836 -0.4998 -0.8642
  896MOL0     H23634   6.258   2.506   7.486 -1.1198 -1.2768  0.3078
  896MOL0     H23635   6.041   2.613   7.435  0.1713 -1.0452  0.2010
  896MOL0     H23636   5.869   2.935   7.736  1.6549  0.2658 -1.3266
  896MOL0     H23637   5.747   2.907   7.621  0.2972 -0.2736 -1.3760
  896MOL0     H23638   5.801   2.745   7.860  1.3846  1.2152  0.0080
  896MOL0     H23639   5.776   2.643   7.719  1.6477  0.2333  0.3393
  896MOL0     H23640   5.597   2.864   7.830  0.9589 -0.0170  0.8130
  896MOL0     H23641   5.551   2.774   7.688  1.5948 -0.7094  0.5026
  896MOL0     H23642   5.594   2.657   7.973 -0.8614 -0.6485  0.9292
  896MOL0     H23643   5.562   2.557   7.826 -3.3392 -0.4186  0.6424
  896MOL0     H23644   5.181   2.724   7.846 -0.9805  0.1960  0.3471
  896MOL0     H23645   6.047   2.817   7.808 -0.3143 -0.7326  0.5520
  896MOL0     H23646   6.342   2.679   7.935  0.2911  2.4120  3.4656
  896MOL0     H23647   6.347   2.845   7.864  0.2887 -0.0143  0.1027
  896MOL0     H23648   6.206   2.794   7.948  0.7064 -0.2238  1.0010
  897MOL0     O23649   7.959   2.117   2.253  0.2468  0.6804 -0.2974
  897MOL0     C23650   7.919   2.100   2.142 -0.8518  0.3497 -0.4495
  897MOL0     O23651   7.978   2.158   2.034 -0.1907 -0.2030  0.3080
  897MOL0     C23652   8.096   2.226   2.032 -0.1992 -0.0955 -0.3662
  897MOL0     C23653   8.103   2.307   1.919  0.2158 -0.9780  0.0897
  897MOL0     C23654   8.217   2.390   1.900 -0.3177  0.6600 -0.1534
  897MOL0     C23655   8.315   2.405   1.998  0.1033  0.2955 -1.0749
  897MOL0     O23656   8.427   2.489   1.993  0.4690  0.5542 -0.2197
  897MOL0     C23657   8.403   2.626   1.972  0.2142 -0.0640 -0.5521
  897MOL0     C23658   8.531   2.707   1.963 -1.0989  0.0091  0.9739
  897MOL0     C23659   8.500   2.853   1.943  0.2020 -0.5932 -0.1755
  897MOL0     C23660   8.628   2.939   1.934  0.4844 -0.0577  0.6723
  897MOL0     C23661   8.595   3.087   1.932 -0.5888  0.2165 -0.2264
  897MOL0     C23662   8.717   3.164   1.899  0.3191 -0.4626 -0.1476
  897MOL0     C23663   8.664   3.308   1.879 -0.0932  0.4510  0.1175
  897MOL0     C23664   8.786   3.404   1.859 -0.1396  0.5794 -0.3845
  897MOL0     N23665   8.863   3.356   1.745 -0.0346  0.2821  0.6609
  897MOL0     C23666   8.805   3.345   1.620 -0.3705  0.5124  0.5837
  897MOL0     C23667   8.899   3.274   1.551  0.8292 -0.7503 -0.1142
  897MOL0     C23668   8.889   3.236   1.402  0.0156 -0.1334 -0.0690
  897MOL0     C23669   8.930   3.346   1.293 -0.0339  0.1210 -0.3446
  897MOL0     C23670   9.071   3.400   1.311 -0.7132  0.2189  0.2143
  897MOL0     C23671   9.105   3.505   1.200 -0.2073 -0.1261 -0.1384
  897MOL0     O23672   9.244   3.486   1.158 -0.3732  0.4121 -1.0123
  897MOL0     C23673   9.351   3.520   1.243 -0.1942  0.9060  0.7170
  897MOL0     C23674   9.484   3.510   1.203 -0.1984  0.0140  1.4400
  897MOL0     C23675   9.601   3.517   1.281  0.0281  0.2233 -0.3902
  897MOL0     C23676   9.733   3.491   1.220 -0.1869 -0.0022  0.5766
  897MOL0     C23677   9.589   3.560   1.417  0.5401  0.4942 -0.3700
  897MOL0     C23678   9.699   3.575   1.522  0.4098 -0.1670 -0.5290
  897MOL0     O23679   9.661   3.648   1.633 -0.5740  0.0294  0.0834
  897MOL0     C23680   9.755   3.670   1.729  0.2217 -0.0222  1.8012
  897MOL0     C23681   9.816   3.793   1.731 -0.0234 -0.5439  0.3353
  897MOL0     C23682   9.900   3.826   1.833 -1.5176 -0.0391  0.4711
  897MOL0     C23683   9.930   3.732   1.938 -0.5891  0.2643 -0.2328
  897MOL0     O23684  10.015   3.750   2.047 -0.2990  0.3172  0.0791
  897MOL0     C23685  10.138   3.822   2.021 -0.1547 -0.0357  0.3619
  897MOL0     C23686  10.248   3.761   2.102 -0.2071  0.8665 -0.4143
  897MOL0     C23687  10.375   3.843   2.114  0.5216 -0.3960 -0.5159
  897MOL0     C23688  10.477   3.753   2.182  0.3423 -0.2507 -0.3535
  897MOL0     C23689  10.590   3.835   2.250  0.3144  0.0336  0.4154
  897MOL0     C23690  10.665   3.941   2.168 -0.5160 -0.2420 -0.0257
  897MOL0     C23691  10.725   3.904   2.039  0.5461 -0.4358  0.4012
  897MOL0     C23692  10.810   3.772   2.039 -0.2622  0.0694  0.0362
  897MOL0    Cl23693  10.969   3.802   2.133 -0.4497 -0.2917  0.2870
  897MOL0     C23694   9.876   3.605   1.923  0.0281 -0.1556 -0.6266
  897MOL0     C23695   9.784   3.574   1.825 -0.2269  0.3632  0.3422
  897MOL0     O23696   9.815   3.530   1.503 -0.3128 -0.0583  0.1905
  897MOL0     C23697   9.457   3.589   1.454 -0.3701 -0.6064 -0.2308
  897MOL0     C23698   9.339   3.565   1.372  0.2868 -0.1243 -0.0666
  897MOL0     N23699   9.004   3.250   1.631  0.4346 -0.6066  0.3241
  897MOL0     N23700   8.978   3.286   1.750 -0.7934  0.4141 -0.3741
  897MOL0     C23701   8.312   2.322   2.112  0.3766 -0.5887  0.6413
  897MOL0     C23702   8.205   2.231   2.123 -0.0187  0.0102  0.0296
  897MOL0     C23703   7.793   2.018   2.116 -0.5683  0.4669 -0.3837
  897MOL0     C23704   7.737   2.027   1.988  0.0700  0.3180  0.4508
  897MOL0     C23705   7.608   1.960   1.958  0.5702 -0.5056  0.0634
  897MOL0     C23706   7.530   1.895   2.056  0.5455  0.6013  0.2100
  897MOL0     O23707   7.416   1.819   2.054  0.5916  0.1706  0.3221
  897MOL0     C23708   7.333   1.818   1.938 -0.3880  0.4748 -0.8294
  897MOL0     C23709   7.267   1.956   1.909 -0.5630 -0.5837  0.3338
  897MOL0     C23710   7.212   2.031   2.029  0.5600 -0.0158  0.4842
  897MOL0     C23711   7.066   1.995   2.052  0.0347 -0.0928  0.5477
  897MOL0     C23712   7.031   1.851   2.050  0.0588  0.1254 -0.4804
  897MOL0     C23713   7.005   1.733   2.033 -0.5105 -0.5828 -0.5193
  897MOL0     C23714   7.584   1.907   2.185 -0.6972 -0.0643 -0.1894
  897MOL0     C23715   7.710   1.960   2.218 -0.1067 -0.1204 -0.3456
  897MOL0     C23716   7.738   1.965   2.365  0.3489 -0.7127 -0.1327
  897MOL0     H23717   8.026   2.289   1.844 -0.0009 -0.1347  0.0989
  897MOL0     H23718   8.228   2.438   1.803  0.2104  1.1654  0.1509
  897MOL0     H23719   8.339   2.662   2.052 -0.5429  2.3430 -2.1220
  897MOL0     H23720   8.348   2.633   1.878  2.9248  2.5095 -2.1543
  897MOL0     H23721   8.590   2.672   2.049  1.1645  1.3733  0.0596
  897MOL0     H23722   8.583   2.676   1.872 -2.7717  0.0669 -0.0249
  897MOL0     H23723   8.444   2.860   1.849 -2.4068 -3.1441  1.0021
  897MOL0     H23724   8.442   2.897   2.025 -0.6404  0.3208 -1.2263
  897MOL0     H23725   8.699   2.911   2.012  1.0833  0.2035  0.2346
  897MOL0     H23726   8.677   2.920   1.838  2.2350  1.8106  1.1206
  897MOL0     H23727   8.561   3.110   2.034  1.6137  1.8915  0.2168
  897MOL0     H23728   8.514   3.105   1.862  0.3530 -0.4739 -1.5451
  897MOL0     H23729   8.793   3.164   1.978  1.0466 -0.9602 -0.8364
  897MOL0     H23730   8.761   3.127   1.806  1.1670 -1.3548  0.5979
  897MOL0     H23731   8.605   3.338   1.965 -2.4667 -0.3828 -1.1238
  897MOL0     H23732   8.598   3.309   1.791  1.6908  0.3490 -1.2805
  897MOL0     H23733   8.746   3.505   1.850 -0.9286  0.5617  2.1795
  897MOL0     H23734   8.849   3.395   1.948  0.7541 -1.3296 -1.1626
  897MOL0     H23735   8.711   3.382   1.581  0.6774  2.9272  0.1520
  897MOL0     H23736   8.790   3.192   1.386  0.4160 -1.2700  0.4264
  897MOL0     H23737   8.961   3.153   1.399  1.0968  0.7916 -0.6565
  897MOL0     H23738   8.936   3.300   1.193  3.1674  0.3144 -0.3423
  897MOL0     H23739   8.856   3.426   1.300 -0.9642 -0.2772 -3.6140
  897MOL0     H23740   9.096   3.432   1.413  0.6593 -0.9557  0.2879
  897MOL0     H23741   9.143   3.321   1.288  0.4499  1.4083 -0.4436
  897MOL0     H23742   9.028   3.505   1.122 -3.1408  0.9649  2.5044
  897MOL0     H23743   9.099   3.602   1.250  1.7327 -1.9040  4.0846
  897MOL0     H23744   9.490   3.467   1.103 -2.4255 -1.7908  1.9987
  897MOL0     H23745   9.802   3.576   1.224 -0.0422 -0.1672  3.0695
  897MOL0     H23746   9.717   3.464   1.115 -2.4654  0.7345  0.6731
  897MOL0     H23747   9.768   3.402   1.272 -2.2096 -0.4531  1.2769
  897MOL0     H23748   9.787   3.864   1.654  0.5410  0.2475  0.8276
  897MOL0     H23749   9.947   3.924   1.836 -0.4732 -0.4787 -0.7000
  897MOL0     H23750  10.158   3.815   1.914  1.2726  0.2329  0.5964
  897MOL0     H23751  10.128   3.926   2.051  5.2185  0.8793 -0.1700
  897MOL0     H23752  10.223   3.745   2.207  5.9800  3.0832  1.8051
  897MOL0     H23753  10.264   3.663   2.055 -1.6475  1.5342 -2.4789
  897MOL0     H23754  10.347   3.927   2.180  2.0016  0.4548 -0.9276
  897MOL0     H23755  10.403   3.886   2.018 -0.1506 -0.3089 -0.6808
  897MOL0     H23756  10.509   3.677   2.110 -0.0010  0.4076 -1.2214
  897MOL0     H23757  10.429   3.686   2.254  0.4776 -1.8624 -1.7004
  897MOL0     H23758  10.545   3.890   2.333 -2.1200  1.8490 -1.9151
  897MOL0     H23759  10.667   3.765   2.282 -0.2996 -0.3213  1.1571
  897MOL0     H23760  10.745   3.986   2.228 -0.0841  1.5309 -1.8277
  897MOL0     H23761  10.594   4.021   2.144 -2.0837 -1.8947 -1.1431
  897MOL0     H23762  10.779   3.991   1.998 -0.6921 -0.0648 -0.4840
  897MOL0     H23763  10.644   3.889   1.968  0.4663 -0.6140  0.5300
  897MOL0     H23764  10.837   3.758   1.933 -1.4508 -1.3858 -0.1105
  897MOL0     H23765  10.746   3.690   2.072  0.2136 -0.9721 -1.5251
  897MOL0     H23766   9.885   3.533   2.003 -1.3153  1.0081  0.6355
  897MOL0     H23767   9.725   3.484   1.841  3.1550 -2.0415  0.4628
  897MOL0     H23768   9.446   3.628   1.554  1.8799 -0.9914  0.2018
  897MOL0     H23769   9.238   3.583   1.408  0.4972  1.7560 -0.3136
  897MOL0     H23770   8.397   2.336   2.178  3.2392 -0.1789 -2.8313
  897MOL0     H23771   8.203   2.170   2.213 -0.8407 -1.4158 -0.9141
  897MOL0     H23772   7.786   2.082   1.909  0.2630 -1.9266 -1.0841
  897MOL0     H23773   7.569   1.944   1.858  0.2051 -0.0711  0.1370
  897MOL0     H23774   7.387   1.776   1.852  1.1847 -0.1301  0.4123
  897MOL0     H23775   7.252   1.746   1.954 -1.3435  2.1444  2.9184
  897MOL0     H23776   7.192   1.941   1.830  1.1032  0.6856 -1.6097
  897MOL0     H23777   7.336   2.023   1.855 -1.5810  0.6707  0.5308
  897MOL0     H23778   7.264   2.009   2.123 -0.2487  0.9405  1.1815
  897MOL0     H23779   7.235   2.133   1.999  0.0102 -0.9544 -3.8012
  897MOL0     H23780   6.999   2.045   1.981 -1.2348  1.7574  2.9108
  897MOL0     H23781   7.037   2.031   2.151  1.8593 -0.7060  1.3567
  897MOL0     H23782   6.985   1.628   2.024  1.1331 -0.9499 -0.2793
  897MOL0     H23783   7.526   1.876   2.271 -1.5687  0.2269 -0.6674
  897MOL0     H23784   7.767   2.065   2.400  0.3762 -2.0788  4.2696
  897MOL0     H23785   7.650   1.935   2.423 -0.4916  2.4262  0.4020
  897MOL0     H23786   7.812   1.893   2.399  0.6674  0.0933  0.9413
  898MOL0     O23787   4.870   9.900   5.652  1.0060 -0.8080 -0.1805
  898MOL0     C23788   4.869   9.781   5.681 -0.6010  0.6425  0.4737
  898MOL0     O23789   4.985   9.707   5.682 -0.2928 -1.0166  0.0065
  898MOL0     C23790   5.107   9.764   5.706  0.7769  0.0963  0.1669
  898MOL0     C23791   5.127   9.843   5.822 -0.2147  0.4665 -0.1439
  898MOL0     C23792   5.246   9.909   5.843  0.9446  0.6612 -0.3787
  898MOL0     C23793   5.362   9.895   5.759  1.1340  0.9283 -0.0224
  898MOL0     O23794   5.467   9.971   5.785 -0.0857  0.8399 -0.4544
  898MOL0     C23795   5.588   9.956   5.711 -0.6943  1.1421  0.2712
  898MOL0     C23796   5.702  10.041   5.776  0.4184 -0.7545  0.0706
  898MOL0     C23797   5.833  10.011   5.704 -0.7616  0.5985 -0.4950
  898MOL0     C23798   5.945  10.002   5.810  0.4895 -0.0230  1.0902
  898MOL0     C23799   6.083   9.985   5.738  0.1709  0.1011 -0.9473
  898MOL0     C23800   6.194  10.044   5.821 -1.3163 -0.3572 -0.4891
  898MOL0     C23801   6.329  10.037   5.744  0.0234 -0.2489  0.3072
  898MOL0     C23802   6.428  10.147   5.791 -0.8068  0.5202  0.1609
  898MOL0     N23803   6.578  10.139   5.787 -0.4709 -0.2798  0.1583
  898MOL0     C23804   6.671  10.231   5.759 -0.4930  0.7403 -0.1986
  898MOL0     C23805   6.791  10.163   5.756 -0.7527  0.2288  0.7700
  898MOL0     C23806   6.926  10.222   5.735  0.1349  0.0015  0.8626
  898MOL0     C23807   7.021  10.195   5.847  0.3874  0.3267  0.1464
  898MOL0     C23808   7.153  10.259   5.817 -0.3830 -0.5582 -0.2082
  898MOL0     C23809   7.262  10.243   5.933  0.8279  0.6655  0.8901
  898MOL0     O23810   7.309  10.111   5.939  0.2535  0.4530  0.2601
  898MOL0     C23811   7.414  10.074   5.864  0.3775  0.7977  0.1455
  898MOL0     C23812   7.478   9.953   5.892  0.2679  0.3822 -0.1022
  898MOL0     C23813   7.585   9.891   5.820 -0.5097  0.2242 -0.4384
  898MOL0     C23814   7.624   9.752   5.866 -0.2191 -0.1516  0.3605
  898MOL0     C23815   7.651   9.966   5.724  0.0248 -0.0876 -0.1297
  898MOL0     C23816   7.775   9.931   5.656 -0.3339  0.3689  0.0524
  898MOL0     O23817   7.823  10.015   5.563 -0.2443  0.4445 -0.2671
  898MOL0     C23818   7.930   9.957   5.498 -1.2004  0.1640 -0.5064
  898MOL0     C23819   7.908   9.893   5.375 -0.0138  0.0315  0.0733
  898MOL0     C23820   8.020   9.842   5.301  0.0854 -0.1523  0.2418
  898MOL0     C23821   8.148   9.846   5.361  0.6993 -0.1489 -0.7965
  898MOL0     O23822   8.261   9.797   5.305 -0.5781  0.0497  0.0916
  898MOL0     C23823   8.256   9.767   5.165 -0.7867  0.7119  0.5410
  898MOL0     C23824   8.389   9.728   5.095 -0.4178  0.0831 -0.2605
  898MOL0     C23825   8.492   9.849   5.081  0.2600 -0.5811 -0.5645
  898MOL0     C23826   8.612   9.816   4.989 -0.6303 -0.8063 -0.6843
  898MOL0     C23827   8.719   9.933   4.958  0.2913 -0.3808  0.2934
  898MOL0     C23828   8.841   9.963   5.058 -0.0209 -0.0427 -0.0300
  898MOL0     C23829   8.890  10.103   5.026 -1.0671 -1.6982 -0.1204
  898MOL0     C23830   9.015  10.146   5.104 -0.3728 -0.0580 -0.0151
  898MOL0    Cl23831   9.157  10.044   5.073 -0.1891 -0.3920  0.1937
  898MOL0     C23832   8.171   9.907   5.484  0.3068  0.0181  0.1640
  898MOL0     C23833   8.066   9.969   5.546  0.3117 -0.7047 -0.0149
  898MOL0     O23834   7.828   9.824   5.689  0.7343 -0.4044  0.0478
  898MOL0     C23835   7.586  10.096   5.695 -0.0691  0.1780  0.2626
  898MOL0     C23836   7.472  10.142   5.763  0.4858 -0.3288 -0.3588
  898MOL0     N23837   6.767  10.026   5.778 -0.8889  0.1354  0.1987
  898MOL0     N23838   6.643  10.019   5.803  0.0769  0.1829  0.0798
  898MOL0     C23839   5.341   9.819   5.642  0.4363 -0.5196  0.7083
  898MOL0     C23840   5.212   9.760   5.615 -0.0176  0.4134 -1.0552
  898MOL0     C23841   4.736   9.708   5.693 -0.1299  0.3072  0.4241
  898MOL0     C23842   4.729   9.568   5.676 -0.1732 -0.4334  0.5003
  898MOL0     C23843   4.607   9.500   5.678 -0.2994 -0.4836 -0.0982
  898MOL0     C23844   4.486   9.568   5.669 -0.7924 -0.1044 -0.0101
  898MOL0     O23845   4.366   9.506   5.662  0.1342  0.3517  0.1544
  898MOL0     C23846   4.358   9.360   5.649  0.4326  0.2615 -0.0386
  898MOL0     C23847   4.209   9.321   5.627 -0.2912 -0.2047 -0.4524
  898MOL0     C23848   4.113   9.387   5.729 -0.5743 -0.5305  0.7506
  898MOL0     C23849   3.973   9.339   5.722 -0.4745 -0.5684 -0.3835
  898MOL0     C23850   3.975   9.200   5.735  0.0165  1.4256 -0.9997
  898MOL0     C23851   3.963   9.082   5.762  0.3376  0.2777 -0.6298
  898MOL0     C23852   4.485   9.708   5.668 -0.3002 -0.1574  0.5993
  898MOL0     C23853   4.608   9.774   5.691 -0.6253 -0.1307 -0.1406
  898MOL0     C23854   4.589   9.930   5.721  0.5657  0.8850 -0.1341
  898MOL0     H23855   5.058   9.837   5.906  0.5497 -1.2095  0.4136
  898MOL0     H23856   5.240   9.985   5.920 -2.1480 -1.6052  1.8596
  898MOL0     H23857   5.575   9.978   5.604  1.7417 -1.9295 -0.7799
  898MOL0     H23858   5.617   9.851   5.711  0.7481  1.5291  0.7717
  898MOL0     H23859   5.690  10.150   5.778  1.5177 -0.5843  3.2125
  898MOL0     H23860   5.693  10.002   5.878 -1.5487 -1.2319 -0.2536
  898MOL0     H23861   5.830   9.912   5.657 -0.6078  0.6130 -0.5372
  898MOL0     H23862   5.856  10.092   5.635 -1.0163  2.0554  1.0814
  898MOL0     H23863   5.942  10.098   5.861 -1.2767  0.0822  0.8527
  898MOL0     H23864   5.925   9.933   5.893 -0.4164  0.7169  1.5015
  898MOL0     H23865   6.085  10.037   5.642 -1.2296  0.6793 -0.7007
  898MOL0     H23866   6.108   9.881   5.717 -0.3511  0.1813 -2.0257
  898MOL0     H23867   6.173  10.149   5.846 -3.5419 -0.7664 -0.4208
  898MOL0     H23868   6.200   9.991   5.916  0.1171  2.0516  0.8622
  898MOL0     H23869   6.310  10.049   5.637 -0.1507 -1.8969  0.1251
  898MOL0     H23870   6.377   9.939   5.752  1.1309  0.4090  2.2562
  898MOL0     H23871   6.393  10.234   5.735 -1.0495  0.1062 -0.3348
  898MOL0     H23872   6.412  10.171   5.897 -3.0221 -2.7583  0.7061
  898MOL0     H23873   6.650  10.332   5.725 -0.3934  1.4869  1.8723
  898MOL0     H23874   6.905  10.329   5.741 -1.7739 -0.1922 -1.0132
  898MOL0     H23875   6.970  10.183   5.642  0.3176 -0.8554  1.3038
  898MOL0     H23876   6.979  10.239   5.938  2.7724  3.3485 -0.0884
  898MOL0     H23877   7.039  10.087   5.849 -1.5602 -0.0328  0.3354
  898MOL0     H23878   7.180  10.225   5.717 -0.3513  0.0730 -0.4207
  898MOL0     H23879   7.138  10.367   5.807  1.6161 -0.2205 -0.0149
  898MOL0     H23880   7.344  10.316   5.925 -0.1335  1.6948  0.0375
  898MOL0     H23881   7.206  10.271   6.023  0.1840  0.9742  0.4027
  898MOL0     H23882   7.434   9.903   5.978  0.8301 -1.5100 -0.8556
  898MOL0     H23883   7.729   9.759   5.896  0.0455  0.7655 -0.7278
  898MOL0     H23884   7.616   9.685   5.780  2.6378  4.9942 -4.5782
  898MOL0     H23885   7.560   9.721   5.950 -1.5557  2.6739  0.5194
  898MOL0     H23886   7.811   9.902   5.329 -0.5399 -2.0783  0.6519
  898MOL0     H23887   8.008   9.806   5.199  1.8132  2.5913 -1.0594
  898MOL0     H23888   8.196   9.675   5.162 -1.0043  0.7657  2.1965
  898MOL0     H23889   8.228   9.853   5.104 -0.9405  2.3570  2.8264
  898MOL0     H23890   8.446   9.648   5.143 -1.2748 -1.5170 -1.7901
  898MOL0     H23891   8.374   9.685   4.995  0.3323 -0.1231 -0.2956
  898MOL0     H23892   8.525   9.884   5.179 -1.2595  2.0901 -0.9014
  898MOL0     H23893   8.435   9.926   5.028 -2.8768 -3.9684 -2.5437
  898MOL0     H23894   8.575   9.790   4.890 -0.2935  2.3118 -1.7334
  898MOL0     H23895   8.673   9.732   5.026  0.6237 -0.0975 -1.0906
  898MOL0     H23896   8.760   9.909   4.860  0.5707  3.2335 -0.6403
  898MOL0     H23897   8.658  10.022   4.938  2.9031  1.7433  1.2047
  898MOL0     H23898   8.917   9.885   5.043  0.0951 -0.0363  0.5120
  898MOL0     H23899   8.811   9.952   5.162  0.7065  0.3627  0.2210
  898MOL0     H23900   8.809  10.171   5.054  0.2738 -0.4761  0.9052
  898MOL0     H23901   8.903  10.113   4.918  0.6051 -1.1452  0.1120
  898MOL0     H23902   8.998  10.155   5.212 -0.1983 -0.6456  0.0632
  898MOL0     H23903   9.032  10.250   5.075 -0.7406 -0.1540 -0.5837
  898MOL0     H23904   8.264   9.908   5.540  0.1848 -1.9834  0.4808
  898MOL0     H23905   8.087  10.014   5.642  1.4615 -1.0015 -0.1098
  898MOL0     H23906   7.634  10.160   5.623  4.3535 -1.8244  1.0657
  898MOL0     H23907   7.426  10.232   5.722  2.9101  0.6598 -1.0679
  898MOL0     H23908   5.414   9.810   5.562 -0.4981 -3.3974  0.0619
  898MOL0     H23909   5.218   9.705   5.521  1.1864  2.5182 -2.2952
  898MOL0     H23910   4.821   9.510   5.668  0.6038  0.8801 -0.4705
  898MOL0     H23911   4.606   9.392   5.676 -0.8227 -0.4715 -0.9726
  898MOL0     H23912   4.418   9.336   5.561 -0.5803  2.4420 -1.4384
  898MOL0     H23913   4.385   9.313   5.744 -0.3085 -4.0857 -1.7542
  898MOL0     H23914   4.194   9.213   5.633  0.3502 -0.2340  2.0218
  898MOL0     H23915   4.188   9.351   5.524  2.1227 -1.8216 -1.5139
  898MOL0     H23916   4.151   9.377   5.831  0.2079  0.4073  0.5663
  898MOL0     H23917   4.121   9.495   5.710 -0.3845 -0.4151  1.4758
  898MOL0     H23918   3.928   9.368   5.627 -0.1937 -2.9170 -1.3150
  898MOL0     H23919   3.909   9.377   5.802 -0.2358  0.2185 -0.5609
  898MOL0     H23920   3.943   8.985   5.804 -0.6841  1.6339  2.3579
  898MOL0     H23921   4.392   9.762   5.656  1.2844  2.4886 -0.7744
  898MOL0     H23922   4.485   9.964   5.724  0.6917  1.3313 -0.6230
  898MOL0     H23923   4.639   9.949   5.816 -1.3468 -0.1803  1.1679
  898MOL0     H23924   4.638   9.982   5.639  0.1645  1.6727  0.1157
  899MOL0     O23925   6.520   1.993   1.647 -0.5031 -0.1498  1.1981
  899MOL0     C23926   6.423   1.999   1.564 -1.2090 -1.1783  0.6068
  899MOL0     O23927   6.434   2.009   1.428  0.2424  0.3433 -0.4079
  899MOL0     C23928   6.546   2.074   1.375  0.5937  0.3788  0.5559
  899MOL0     C23929   6.621   2.001   1.278  0.7600 -0.7365 -0.5342
  899MOL0     C23930   6.741   2.051   1.217 -0.0352 -1.1000  0.1990
  899MOL0     C23931   6.787   2.179   1.255  0.9702  0.4302  0.8980
  899MOL0     O23932   6.894   2.250   1.206 -0.3613  0.7518  0.3823
  899MOL0     C23933   7.013   2.178   1.189 -0.2212 -0.0910 -0.3643
  899MOL0     C23934   7.139   2.261   1.244 -0.0579 -0.1275  0.8510
  899MOL0     C23935   7.115   2.307   1.389 -0.4511 -0.8232 -0.7152
  899MOL0     C23936   7.166   2.200   1.491  0.3997  0.1282 -0.2770
  899MOL0     C23937   7.173   2.250   1.641  0.3926 -0.3820 -0.5109
  899MOL0     C23938   7.280   2.356   1.682  0.4655 -0.5860 -0.0024
  899MOL0     C23939   7.427   2.309   1.662  0.1697  0.0681  0.1418
  899MOL0     C23940   7.523   2.423   1.698 -0.6473  0.4154  0.3563
  899MOL0     N23941   7.663   2.390   1.663 -0.8325 -0.4558  1.0032
  899MOL0     C23942   7.726   2.422   1.548 -0.2763 -0.2974  0.7292
  899MOL0     C23943   7.837   2.355   1.545 -0.2438 -1.4161 -0.3152
  899MOL0     C23944   7.950   2.357   1.448  0.3242 -0.4223  0.0478
  899MOL0     C23945   8.085   2.353   1.520  0.9897 -0.0496 -0.0459
  899MOL0     C23946   8.198   2.393   1.426 -1.0367 -0.5683 -0.0992
  899MOL0     C23947   8.335   2.419   1.500 -0.2375 -0.5300  0.1613
  899MOL0     O23948   8.371   2.299   1.576 -0.0555 -0.5669  0.4917
  899MOL0     C23949   8.485   2.316   1.651  0.0283  0.4806 -0.0470
  899MOL0     C23950   8.493   2.221   1.747  0.1381 -0.6356  0.4826
  899MOL0     C23951   8.597   2.206   1.842  0.9861  0.2713 -0.1160
  899MOL0     C23952   8.596   2.085   1.925  1.2573 -0.1174 -0.2945
  899MOL0     C23953   8.690   2.315   1.841 -0.5717 -1.3521 -0.1841
  899MOL0     C23954   8.806   2.321   1.935 -0.4327 -0.0563 -0.2368
  899MOL0     O23955   8.887   2.428   1.921  0.6992 -0.8963 -0.4578
  899MOL0     C23956   9.017   2.426   1.949 -0.3962 -0.1786 -0.7928
  899MOL0     C23957   9.073   2.364   2.067  0.2949 -0.1175 -0.7491
  899MOL0     C23958   9.208   2.358   2.082 -0.4319 -0.4744 -0.0639
  899MOL0     C23959   9.295   2.399   1.983 -0.9660  0.4076  0.4574
  899MOL0     O23960   9.434   2.386   1.977 -0.0885  0.1362 -0.6510
  899MOL0     C23961   9.492   2.309   2.081  0.2936  0.4768  0.6876
  899MOL0     C23962   9.646   2.306   2.055  0.9548  0.1068 -0.0489
  899MOL0     C23963   9.721   2.231   2.169  0.1099  0.3687 -0.0179
  899MOL0     C23964   9.873   2.225   2.160  0.2159 -0.9948 -0.1972
  899MOL0     C23965   9.919   2.373   2.185 -0.4555 -0.7597  0.2876
  899MOL0     C23966  10.069   2.374   2.212  0.0725  1.1065 -0.2194
  899MOL0     C23967  10.113   2.516   2.255  1.0206  0.1832 -0.1276
  899MOL0     C23968  10.246   2.533   2.335  1.1571  0.5056  0.5181
  899MOL0    Cl23969  10.269   2.702   2.377 -0.1507 -0.3779  0.2397
  899MOL0     C23970   9.248   2.453   1.868  0.5254 -0.6540 -0.5573
  899MOL0     C23971   9.111   2.473   1.858 -0.1337  0.3927  0.2965
  899MOL0     O23972   8.833   2.227   2.009  0.0643  0.5111 -0.8066
  899MOL0     C23973   8.684   2.417   1.752  0.0262 -0.2382  0.7696
  899MOL0     C23974   8.583   2.418   1.653 -0.1308 -0.2802 -0.0571
  899MOL0     N23975   7.838   2.272   1.651  0.6692 -0.5572  0.7259
  899MOL0     N23976   7.734   2.291   1.723 -0.8668 -0.3680  0.5829
  899MOL0     C23977   6.711   2.253   1.350 -0.0558 -0.8827  0.0658
  899MOL0     C23978   6.589   2.207   1.406 -0.0123  0.0893 -0.0431
  899MOL0     C23979   6.283   1.978   1.612 -0.6438 -0.1575  0.1262
  899MOL0     C23980   6.192   1.921   1.518  0.3326 -0.3852  1.1363
  899MOL0     C23981   6.057   1.913   1.547 -0.0871 -0.4198 -0.4106
  899MOL0     C23982   6.010   1.970   1.660 -0.0374 -1.0045  0.0471
  899MOL0     O23983   5.872   1.955   1.676  0.5655 -0.0767 -0.0731
  899MOL0     C23984   5.803   1.997   1.792 -0.1148 -0.2755  0.0233
  899MOL0     C23985   5.660   2.024   1.740 -0.4792 -0.4537 -1.0052
  899MOL0     C23986   5.573   2.094   1.854 -0.1559  0.0645 -0.5490
  899MOL0     C23987   5.434   2.119   1.798  0.9736 -0.7627  0.1222
  899MOL0     C23988   5.362   2.001   1.753  0.1399 -0.2106  0.6869
  899MOL0     C23989   5.284   1.915   1.714 -0.1880 -0.9808 -0.6901
  899MOL0     C23990   6.092   2.037   1.753  0.0303  0.4401 -0.8129
  899MOL0     C23991   6.236   2.043   1.732  0.5340  0.4683  0.3178
  899MOL0     C23992   6.333   2.119   1.820 -1.4511  0.0925 -0.0816
  899MOL0     H23993   6.591   1.899   1.257  0.0549 -0.9816  1.4648
  899MOL0     H23994   6.800   1.997   1.144  0.0589 -0.4830 -0.1869
  899MOL0     H23995   7.024   2.169   1.080 -0.6883  0.4534 -0.4625
  899MOL0     H23996   7.009   2.080   1.237 -0.4542  0.9175  1.8057
  899MOL0     H23997   7.223   2.191   1.253  0.3298  0.4234  1.5584
  899MOL0     H23998   7.168   2.348   1.185  1.9504  0.9375  3.2649
  899MOL0     H23999   7.164   2.402   1.409  0.6144 -1.7970  1.5963
  899MOL0     H24000   7.006   2.320   1.398 -0.6272 -2.3852 -0.2946
  899MOL0     H24001   7.102   2.112   1.483 -0.7629  0.8191  0.9162
  899MOL0     H24002   7.267   2.165   1.466  0.0843 -0.9226 -0.1239
  899MOL0     H24003   7.189   2.160   1.701 -1.3354 -3.5198 -4.2654
  899MOL0     H24004   7.072   2.275   1.675  0.6630  1.0505 -0.6800
  899MOL0     H24005   7.252   2.446   1.626  0.0755 -0.5787  0.1959
  899MOL0     H24006   7.264   2.382   1.787  0.1446 -0.7451 -0.0119
  899MOL0     H24007   7.447   2.294   1.556  0.3865 -0.3475  0.2371
  899MOL0     H24008   7.455   2.211   1.703  0.2261 -0.2685 -0.6718
  899MOL0     H24009   7.497   2.514   1.644  1.0388  0.6588 -0.1030
  899MOL0     H24010   7.507   2.451   1.803 -3.5774  1.0826 -0.1782
  899MOL0     H24011   7.700   2.481   1.461 -0.1150  1.3435  1.7641
  899MOL0     H24012   7.950   2.451   1.391  1.9889 -0.2222  0.3351
  899MOL0     H24013   7.930   2.271   1.383 -2.6681  1.7621 -2.2640
  899MOL0     H24014   8.089   2.421   1.606  0.1362 -0.9994  0.7670
  899MOL0     H24015   8.104   2.254   1.563 -2.1104 -0.7146  0.0310
  899MOL0     H24016   8.211   2.312   1.354  2.5748  1.7343 -2.3851
  899MOL0     H24017   8.172   2.484   1.371  0.6302 -0.7776 -1.3003
  899MOL0     H24018   8.418   2.441   1.433 -1.8670 -0.6286 -1.9928
  899MOL0     H24019   8.323   2.504   1.569  1.0458 -1.7173  1.9635
  899MOL0     H24020   8.410   2.151   1.746 -0.8340  0.4484  1.8787
  899MOL0     H24021   8.596   2.103   2.033 -1.4797 -0.7642 -0.0969
  899MOL0     H24022   8.685   2.022   1.915 -0.1885 -2.0525 -1.8139
  899MOL0     H24023   8.521   2.011   1.894  2.1628 -1.5192  0.7242
  899MOL0     H24024   9.016   2.331   2.154 -0.8695  1.0005 -1.0484
  899MOL0     H24025   9.258   2.322   2.171  0.8149 -2.5321 -1.5160
  899MOL0     H24026   9.470   2.346   2.181 -0.8608  0.4928  0.4374
  899MOL0     H24027   9.459   2.206   2.098 -1.0468  0.6327 -0.6997
  899MOL0     H24028   9.669   2.259   1.959  1.0287  1.3649 -0.6748
  899MOL0     H24029   9.678   2.411   2.053  0.6416  0.1963 -0.6454
  899MOL0     H24030   9.678   2.130   2.161 -0.4120  0.7146 -2.0841
  899MOL0     H24031   9.694   2.263   2.270 -2.2429 -2.1283  0.2795
  899MOL0     H24032   9.899   2.184   2.062 -1.6664  3.4936 -2.9037
  899MOL0     H24033   9.906   2.162   2.243  3.8875  1.5147  0.4594
  899MOL0     H24034   9.899   2.422   2.090 -3.1409 -2.2816 -0.0543
  899MOL0     H24035   9.867   2.421   2.269  3.6648  3.3959  0.8862
  899MOL0     H24036  10.115   2.323   2.127 -3.5940 -2.5044 -0.3757
  899MOL0     H24037  10.084   2.303   2.294 -1.2413  0.9576 -0.0819
  899MOL0     H24038  10.030   2.559   2.314 -0.5469 -0.7946 -1.5388
  899MOL0     H24039  10.120   2.579   2.166 -0.3104 -1.9351 -1.8102
  899MOL0     H24040  10.331   2.503   2.272  0.3225  1.1709 -0.9787
  899MOL0     H24041  10.246   2.469   2.424  0.6368 -1.9877 -1.1678
  899MOL0     H24042   9.302   2.493   1.783 -0.8184  3.9049  0.4223
  899MOL0     H24043   9.061   2.514   1.770 -0.3114  0.7123  0.5446
  899MOL0     H24044   8.739   2.509   1.762 -2.1618  1.2543 -0.0969
  899MOL0     H24045   8.562   2.498   1.583  3.4318  1.2775  0.4330
  899MOL0     H24046   6.757   2.348   1.377 -1.9206  0.0600  0.0525
  899MOL0     H24047   6.536   2.262   1.484 -1.1412 -0.8727 -0.1092
  899MOL0     H24048   6.232   1.886   1.424 -0.6705 -0.6879  0.8139
  899MOL0     H24049   5.996   1.845   1.486 -0.6868 -2.3082  2.1190
  899MOL0     H24050   5.796   1.924   1.873  0.8809 -1.1502 -0.6572
  899MOL0     H24051   5.841   2.094   1.823  0.2158 -0.0573 -1.0380
  899MOL0     H24052   5.614   1.928   1.714 -0.6439 -0.3389 -1.1369
  899MOL0     H24053   5.662   2.090   1.653  0.9362  0.4912 -0.2880
  899MOL0     H24054   5.556   2.022   1.935  0.9462 -0.0659 -0.4103
  899MOL0     H24055   5.608   2.190   1.893  0.4737 -0.3616 -0.0470
  899MOL0     H24056   5.439   2.196   1.721 -1.1953  0.6076  1.2695
  899MOL0     H24057   5.383   2.178   1.874  0.7677  0.3473 -0.8492
  899MOL0     H24058   5.228   1.838   1.666  0.0762 -0.3668 -2.0118
  899MOL0     H24059   6.062   2.082   1.848 -0.5015  1.1324 -1.2948
  899MOL0     H24060   6.393   2.192   1.764  0.7184  0.6414  2.7508
  899MOL0     H24061   6.279   2.165   1.903 -2.7892  0.8186 -1.2974
  899MOL0     H24062   6.395   2.046   1.872 -1.4825  1.8454  2.6486
  900MOL0     O24063   7.935   3.526   6.605  0.1590  0.0586 -0.0949
  900MOL0     C24064   7.874   3.613   6.658  0.0093 -1.0870 -0.1951
  900MOL0     O24065   7.879   3.637   6.791 -0.4557 -0.2119  0.4167
  900MOL0     C24066   7.956   3.551   6.875  0.1143  0.9195 -0.1075
  900MOL0     C24067   8.096   3.532   6.855 -0.1152 -0.6975  0.4589
  900MOL0     C24068   8.163   3.438   6.939 -0.4710  0.0313 -0.0037
  900MOL0     C24069   8.107   3.365   7.044 -1.4145 -0.7125  0.8621
  900MOL0     O24070   8.191   3.307   7.131  0.2359  0.0447 -0.4296
  900MOL0     C24071   8.121   3.215   7.217  0.4333 -0.1935  0.4052
  900MOL0     C24072   8.225   3.123   7.271 -0.2340 -0.3967 -0.2053
  900MOL0     C24073   8.170   3.011   7.367 -0.8722 -0.2045  0.0545
  900MOL0     C24074   8.176   2.869   7.313  1.5035 -0.0350 -0.3054
  900MOL0     C24075   8.309   2.788   7.321 -0.1996  0.3081 -0.1322
  900MOL0     C24076   8.276   2.632   7.299  0.3390 -0.1348 -0.0348
  900MOL0     C24077   8.400   2.553   7.269  0.3639  0.1343 -0.0602
  900MOL0     C24078   8.484   2.543   7.394  0.7603  0.0702 -0.5473
  900MOL0     N24079   8.629   2.512   7.362  0.8161  0.4731 -0.5703
  900MOL0     C24080   8.730   2.588   7.312 -0.3516  0.5651  0.2165
  900MOL0     C24081   8.837   2.505   7.298  0.2657 -0.3385  0.1158
  900MOL0     C24082   8.969   2.561   7.248  0.0873  0.6847 -0.6395
  900MOL0     C24083   9.016   2.480   7.122  0.5373 -0.0048  0.1928
  900MOL0     C24084   9.120   2.556   7.043 -0.2304  0.9698 -0.6663
  900MOL0     C24085   9.185   2.444   6.944 -0.1993 -0.2903 -0.8525
  900MOL0     O24086   9.205   2.492   6.810 -0.0535 -0.2717  0.4202
  900MOL0     C24087   9.331   2.519   6.778 -0.3643  0.1563  0.1868
  900MOL0     C24088   9.401   2.622   6.845 -0.0450  0.5351 -0.0777
  900MOL0     C24089   9.546   2.645   6.823  0.2661  0.4864  0.1596
  900MOL0     C24090   9.607   2.755   6.910 -0.1781  0.7984 -0.4189
  900MOL0     C24091   9.619   2.558   6.730 -0.5192 -0.2625 -0.2207
  900MOL0     C24092   9.763   2.568   6.696  0.1754  0.6011  0.1139
  900MOL0     O24093   9.819   2.451   6.656  0.0193  0.3424  0.1980
  900MOL0     C24094   9.949   2.430   6.654 -0.2409 -0.3699 -0.5913
  900MOL0     C24095  10.026   2.447   6.773  0.1744  0.5282  0.0202
  900MOL0     C24096  10.159   2.410   6.766  0.2301 -1.6190 -0.7312
  900MOL0     C24097  10.216   2.358   6.650  0.0601 -0.1139 -0.1189
  900MOL0     O24098  10.352   2.325   6.644 -0.1164  0.3991 -0.3287
  900MOL0     C24099  10.398   2.252   6.767  0.5590 -0.6661  0.1812
  900MOL0     C24100  10.541   2.196   6.755  0.6164  0.5651 -0.5231
  900MOL0     C24101  10.653   2.292   6.777 -0.5987 -0.5312  0.2219
  900MOL0     C24102  10.786   2.213   6.767  1.2842 -0.0370 -0.9234
  900MOL0     C24103  10.916   2.296   6.791  0.3650 -0.3016 -0.0284
  900MOL0     C24104  10.896   2.440   6.736 -0.5752  0.2521  0.5584
  900MOL0     C24105  11.022   2.523   6.755 -0.5339  1.0969 -0.1275
  900MOL0     C24106  11.069   2.556   6.899  0.2470  0.3537  0.7806
  900MOL0    Cl24107  10.960   2.650   7.002 -0.2303  0.0355  0.3341
  900MOL0     C24108  10.144   2.347   6.532 -0.1520 -0.0918  0.7006
  900MOL0     C24109  10.005   2.377   6.538  0.7316 -0.3618 -0.2072
  900MOL0     O24110   9.816   2.671   6.730  0.0709  0.6365 -0.3162
  900MOL0     C24111   9.548   2.452   6.671 -0.2376 -0.3187 -0.9028
  900MOL0     C24112   9.407   2.437   6.698 -0.2250 -0.7509 -0.2155
  900MOL0     N24113   8.805   2.380   7.343  0.1492 -0.3354 -0.3154
  900MOL0     N24114   8.683   2.390   7.378  0.3675  0.9828  0.0443
  900MOL0     C24115   7.975   3.398   7.061 -0.2644 -1.1190  0.5798
  900MOL0     C24116   7.898   3.478   6.977  0.4449  0.0657  0.0778
  900MOL0     C24117   7.781   3.690   6.572  0.3593 -0.0144  0.2995
  900MOL0     C24118   7.679   3.762   6.627 -0.1899  0.0386  0.3445
  900MOL0     C24119   7.591   3.845   6.555  0.4712  0.5784 -0.8158
  900MOL0     C24120   7.615   3.858   6.423 -0.1254 -0.9575  0.5260
  900MOL0     O24121   7.534   3.946   6.360 -0.5230  0.1987  0.1008
  900MOL0     C24122   7.576   3.996   6.227  0.3712  0.7412 -0.7727
  900MOL0     C24123   7.463   4.077   6.173 -0.1585 -0.4051  0.0387
  900MOL0     C24124   7.443   4.208   6.247 -0.0488 -0.3657  0.0626
  900MOL0     C24125   7.404   4.331   6.157 -0.8761  0.4298 -0.5122
  900MOL0     C24126   7.266   4.302   6.122 -0.8989 -0.2597 -0.1564
  900MOL0     C24127   7.153   4.294   6.084  0.3209  0.3895  0.0312
  900MOL0     C24128   7.714   3.787   6.349 -0.0566 -0.0986 -0.1238
  900MOL0     C24129   7.801   3.707   6.426 -0.6735  0.0867  0.7579
  900MOL0     C24130   7.908   3.635   6.341  0.6757  0.1676 -0.2882
  900MOL0     H24131   8.149   3.597   6.786  1.4698 -2.3005  0.0902
  900MOL0     H24132   8.269   3.416   6.933 -0.3527  0.1811  1.3116
  900MOL0     H24133   8.053   3.154   7.158  1.5482  0.7092 -1.9401
  900MOL0     H24134   8.083   3.272   7.303  0.2272 -0.4510  0.4822
  900MOL0     H24135   8.295   3.087   7.195  0.0379 -0.0260 -0.1271
  900MOL0     H24136   8.291   3.178   7.338  0.1512 -0.9111 -0.1578
  900MOL0     H24137   8.237   3.006   7.454 -0.4660 -3.5455 -0.3304
  900MOL0     H24138   8.066   3.032   7.395 -0.3270  0.7250  1.5005
  900MOL0     H24139   8.092   2.817   7.359  1.4573  1.5841  1.5599
  900MOL0     H24140   8.151   2.882   7.207  0.2749  0.8334  0.0753
  900MOL0     H24141   8.363   2.795   7.417  1.4947 -2.1298 -0.8188
  900MOL0     H24142   8.377   2.824   7.243  0.8472  3.8349  2.1373
  900MOL0     H24143   8.226   2.575   7.378 -1.6001 -0.3522 -1.3582
  900MOL0     H24144   8.212   2.630   7.210 -1.8252 -0.4580  1.4481
  900MOL0     H24145   8.461   2.594   7.189  0.4979  0.0289 -0.0125
  900MOL0     H24146   8.368   2.452   7.240  0.9831 -0.3523  0.8945
  900MOL0     H24147   8.483   2.635   7.452 -3.2716  0.1455 -0.4460
  900MOL0     H24148   8.452   2.461   7.459  0.9231 -0.4780 -1.1470
  900MOL0     H24149   8.722   2.694   7.293  0.8840  1.0126  1.8738
  900MOL0     H24150   9.053   2.546   7.316  0.9873 -1.5930 -2.1362
  900MOL0     H24151   8.948   2.666   7.222 -0.4009  0.3316 -1.7486
  900MOL0     H24152   9.048   2.379   7.147  1.6000  0.0196 -0.9727
  900MOL0     H24153   8.928   2.467   7.057  0.6758  0.3773 -0.0769
  900MOL0     H24154   9.081   2.635   6.979 -2.6464  0.3349 -0.0865
  900MOL0     H24155   9.199   2.596   7.107 -1.2154  1.0842  0.5139
  900MOL0     H24156   9.273   2.404   6.995  1.5460  4.2678  0.2375
  900MOL0     H24157   9.118   2.357   6.941  2.1567 -2.3740  1.5167
  900MOL0     H24158   9.343   2.683   6.914  0.0338  1.1371 -0.5354
  900MOL0     H24159   9.608   2.851   6.857  0.0779  1.4203  0.6857
  900MOL0     H24160   9.708   2.731   6.944 -0.8895  0.2144  1.3790
  900MOL0     H24161   9.544   2.785   6.994  1.1775  1.1717  0.4875
  900MOL0     H24162   9.994   2.491   6.867  3.6953  0.8601  1.2145
  900MOL0     H24163  10.217   2.421   6.857 -2.8035  0.5174  1.1171
  900MOL0     H24164  10.391   2.315   6.856  0.1649 -0.5745  0.0883
  900MOL0     H24165  10.329   2.168   6.777 -1.1132  0.3767 -1.7547
  900MOL0     H24166  10.551   2.119   6.831 -0.9655  1.7846  0.9910
  900MOL0     H24167  10.536   2.142   6.659 -0.9583 -1.3858  0.5840
  900MOL0     H24168  10.655   2.342   6.874  1.9098  0.6898 -0.3498
  900MOL0     H24169  10.644   2.372   6.703  2.1574 -1.1833 -0.9882
  900MOL0     H24170  10.793   2.168   6.667  1.6250 -0.8274 -0.5533
  900MOL0     H24171  10.776   2.133   6.841 -0.8415  2.2620  1.4391
  900MOL0     H24172  10.928   2.291   6.899 -1.1526  1.2432  0.2456
  900MOL0     H24173  10.991   2.237   6.737 -0.7132 -2.7113  0.9218
  900MOL0     H24174  10.817   2.491   6.791 -1.7571  0.3890 -1.1720
  900MOL0     H24175  10.865   2.436   6.631  1.8219  2.6460 -0.3574
  900MOL0     H24176  11.005   2.616   6.699  0.3871 -0.1516 -2.6695
  900MOL0     H24177  11.101   2.485   6.690  0.9412  1.1649  1.5427
  900MOL0     H24178  11.169   2.597   6.882  0.2311 -0.3462 -1.3407
  900MOL0     H24179  11.078   2.467   6.961 -5.0403 -0.7278  0.4651
  900MOL0     H24180  10.202   2.319   6.445  4.9249 -2.6586  4.4025
  900MOL0     H24181   9.935   2.354   6.459 -2.9151 -0.4590  2.7622
  900MOL0     H24182   9.594   2.384   6.601 -1.6705 -2.4687  0.1226
  900MOL0     H24183   9.363   2.348   6.654  0.6215 -3.0184  3.1607
  900MOL0     H24184   7.917   3.351   7.140  2.1374  0.7576  3.6450
  900MOL0     H24185   7.791   3.489   6.995  0.7459 -1.4520  3.7299
  900MOL0     H24186   7.672   3.748   6.735  1.9085 -0.5092  0.4638
  900MOL0     H24187   7.512   3.890   6.613 -0.4634 -2.7503  0.7416
  900MOL0     H24188   7.670   4.053   6.229  0.2319  1.0140  1.9520
  900MOL0     H24189   7.580   3.909   6.160 -0.2278  1.3361 -1.5884
  900MOL0     H24190   7.368   4.022   6.173 -0.8834  0.6881 -2.4382
  900MOL0     H24191   7.478   4.100   6.067 -0.1698 -1.5066 -0.2148
  900MOL0     H24192   7.373   4.186   6.327 -0.6445  3.8524  0.9243
  900MOL0     H24193   7.530   4.241   6.305 -1.3308 -1.9004  3.0606
  900MOL0     H24194   7.461   4.334   6.063 -0.8140  0.2035 -0.4806
  900MOL0     H24195   7.400   4.424   6.214  2.9851  0.7695 -0.5209
  900MOL0     H24196   7.050   4.279   6.057  0.3748 -0.4965  0.2908
  900MOL0     H24197   7.730   3.800   6.243  0.4322 -1.7142 -0.2650
  900MOL0     H24198   7.898   3.660   6.235 -0.4038  0.3420 -0.1598
  900MOL0     H24199   8.006   3.671   6.375 -0.3105  1.1816  1.6205
  900MOL0     H24200   7.904   3.527   6.356 -0.2621  0.2970  0.4520
  901MOL0     O24201   3.721   6.346   2.320  0.3020 -0.8328  0.3204
  901MOL0     C24202   3.631   6.422   2.277  0.1388 -0.1870  0.1369
  901MOL0     O24203   3.611   6.562   2.297  0.0024  0.1836  0.1487
  901MOL0     C24204   3.713   6.647   2.333 -0.4510  0.3051 -0.0743
  901MOL0     C24205   3.850   6.646   2.297  0.6641 -0.2949 -0.4298
  901MOL0     C24206   3.942   6.743   2.350  0.2078  0.5553 -0.2095
  901MOL0     C24207   3.897   6.842   2.438 -1.2926  0.3059  0.4097
  901MOL0     O24208   3.982   6.939   2.487 -0.1423  0.6186  0.1469
  901MOL0     C24209   4.124   6.932   2.471  0.0729 -0.3043 -0.4349
  901MOL0     C24210   4.182   7.023   2.357  0.3705 -0.0875 -0.4558
  901MOL0     C24211   4.322   7.075   2.367  0.7298  0.1692 -0.3792
  901MOL0     C24212   4.385   7.134   2.241  0.9644  0.5398 -0.0715
  901MOL0     C24213   4.512   7.218   2.263 -0.1870  0.1340 -0.5511
  901MOL0     C24214   4.587   7.241   2.130  0.5867 -0.5380 -0.4532
  901MOL0     C24215   4.717   7.314   2.135  0.6802 -0.0700  0.3588
  901MOL0     C24216   4.822   7.256   2.232 -0.8065 -0.0678  0.0880
  901MOL0     N24217   4.933   7.354   2.252 -0.5051  1.0431 -0.9189
  901MOL0     C24218   4.924   7.487   2.289  0.8174  0.1847  0.3917
  901MOL0     C24219   5.054   7.528   2.288 -0.0990 -0.2731  0.2435
  901MOL0     C24220   5.099   7.660   2.336 -0.6241  0.1937 -0.3215
  901MOL0     C24221   5.242   7.691   2.293 -0.7825 -0.2196  0.0421
  901MOL0     C24222   5.283   7.840   2.295  0.4342  1.1273 -0.0518
  901MOL0     C24223   5.426   7.868   2.242 -0.1595  0.1846  0.5582
  901MOL0     O24224   5.516   7.755   2.268 -0.0602 -0.5303 -0.4290
  901MOL0     C24225   5.607   7.730   2.171  0.3784 -0.0163 -1.0164
  901MOL0     C24226   5.660   7.600   2.186  0.1716  0.6170  0.6734
  901MOL0     C24227   5.768   7.563   2.103 -0.0126  0.5105  0.7130
  901MOL0     C24228   5.838   7.433   2.133 -0.4108 -0.0368 -0.0445
  901MOL0     C24229   5.815   7.655   2.007  0.8548  0.1920  1.2469
  901MOL0     C24230   5.941   7.627   1.929 -0.2951  0.6808  0.9018
  901MOL0     O24231   6.038   7.718   1.950 -0.3840  0.4728  0.7942
  901MOL0     C24232   6.155   7.715   1.885  0.6930  0.1267 -0.0363
  901MOL0     C24233   6.152   7.711   1.743 -0.3839 -0.9992 -0.3181
  901MOL0     C24234   6.278   7.710   1.673  0.5407 -0.5961 -0.5779
  901MOL0     C24235   6.402   7.718   1.742  0.1118  0.0289  0.3905
  901MOL0     O24236   6.506   7.716   1.659 -0.0075  0.1489 -0.5785
  901MOL0     C24237   6.639   7.693   1.710  0.3683 -0.3848  0.2407
  901MOL0     C24238   6.732   7.664   1.595 -0.3520 -0.2335  0.4342
  901MOL0     C24239   6.733   7.764   1.469 -0.5356  1.1753 -0.3771
  901MOL0     C24240   6.781   7.897   1.505  0.5395 -0.2412  0.6371
  901MOL0     C24241   6.784   7.979   1.374 -0.9824 -0.8530 -0.1454
  901MOL0     C24242   6.910   7.966   1.290  0.0675 -0.8921 -0.5380
  901MOL0     C24243   6.895   8.074   1.175 -0.1484 -0.2556 -0.2492
  901MOL0     C24244   7.000   8.044   1.066  0.3715  0.3003  0.3621
  901MOL0    Cl24245   6.938   7.895   0.981 -0.3681 -0.3341 -0.1630
  901MOL0     C24246   6.399   7.716   1.883  0.4601 -0.3150 -0.2284
  901MOL0     C24247   6.279   7.718   1.953  0.7697 -0.3713  0.0625
  901MOL0     O24248   5.949   7.527   1.855 -0.1575 -0.5663 -0.1402
  901MOL0     C24249   5.752   7.775   2.001  0.6008 -0.4634  0.1019
  901MOL0     C24250   5.655   7.819   2.084 -0.0694 -0.4156 -0.6426
  901MOL0     N24251   5.139   7.422   2.258  0.2531  0.5617 -0.0106
  901MOL0     N24252   5.065   7.314   2.242  0.0492 -0.1823  0.1579
  901MOL0     C24253   3.769   6.835   2.481 -0.8428 -0.1299  0.3466
  901MOL0     C24254   3.676   6.739   2.431 -0.0890 -0.0794 -0.6570
  901MOL0     C24255   3.520   6.348   2.212 -0.2989 -0.0363 -0.0790
  901MOL0     C24256   3.394   6.411   2.208 -0.2830 -0.4383 -0.2506
  901MOL0     C24257   3.274   6.352   2.151 -1.2320 -0.4305  0.4159
  901MOL0     C24258   3.275   6.219   2.110 -0.0399 -0.6926  0.3304
  901MOL0     O24259   3.165   6.155   2.064 -0.6875  0.2237  0.3849
  901MOL0     C24260   3.047   6.216   2.043  0.7319  0.1630 -0.2492
  901MOL0     C24261   3.038   6.265   1.899 -0.1454 -0.1004 -0.8623
  901MOL0     C24262   2.905   6.331   1.852 -0.1599 -0.1736 -0.5575
  901MOL0     C24263   2.788   6.237   1.840  1.1685  0.0676  0.6181
  901MOL0     C24264   2.797   6.129   1.736 -0.0511  0.7350 -1.2576
  901MOL0     C24265   2.796   6.051   1.644 -0.7151 -0.6216 -0.1067
  901MOL0     C24266   3.400   6.153   2.111 -0.2357  0.2571  0.3443
  901MOL0     C24267   3.519   6.211   2.165  0.7981  0.4936 -0.1848
  901MOL0     C24268   3.638   6.122   2.163 -0.0695 -0.3895 -0.3178
  901MOL0     H24269   3.892   6.578   2.223 -0.9450  0.0438 -1.7047
  901MOL0     H24270   4.042   6.735   2.309 -1.0607  0.6605 -3.6964
  901MOL0     H24271   4.164   6.831   2.458  1.8675  0.2882  0.1043
  901MOL0     H24272   4.171   6.981   2.557 -2.4861  1.7526 -0.0847
  901MOL0     H24273   4.159   6.978   2.260 -4.1977 -1.4012  0.9693
  901MOL0     H24274   4.120   7.113   2.370  1.3639  0.5513 -0.0340
  901MOL0     H24275   4.321   7.156   2.440 -1.7832  1.9264 -2.2022
  901MOL0     H24276   4.380   6.994   2.414 -0.7783  0.9634  3.1135
  901MOL0     H24277   4.404   7.048   2.176 -1.3337 -0.4839  0.4790
  901MOL0     H24278   4.307   7.190   2.189 -1.4641 -2.1205  0.4561
  901MOL0     H24279   4.573   7.173   2.341  0.9015  2.3232 -0.0498
  901MOL0     H24280   4.480   7.314   2.306  0.3520 -0.3631  0.9988
  901MOL0     H24281   4.598   7.143   2.082  0.5995 -1.3894  1.2171
  901MOL0     H24282   4.534   7.309   2.063  0.3450  1.0140  1.2437
  901MOL0     H24283   4.695   7.413   2.177  2.1004  0.7188 -0.6659
  901MOL0     H24284   4.759   7.336   2.036  0.1755  1.7685  0.5030
  901MOL0     H24285   4.778   7.243   2.332 -0.5365  0.5784  0.3002
  901MOL0     H24286   4.861   7.160   2.198 -1.3517  0.2186 -1.4140
  901MOL0     H24287   4.838   7.547   2.315  0.3936  0.0702 -0.7038
  901MOL0     H24288   5.098   7.660   2.445 -1.8881  2.3844 -0.2768
  901MOL0     H24289   5.025   7.729   2.293 -0.2997  0.1066 -1.0316
  901MOL0     H24290   5.314   7.623   2.339 -0.1000 -0.5310 -1.4275
  901MOL0     H24291   5.253   7.672   2.186  0.0285 -0.2779  0.1270
  901MOL0     H24292   5.213   7.888   2.225 -0.0103  1.8010  0.8352
  901MOL0     H24293   5.281   7.878   2.398  0.3641  3.0671 -0.7192
  901MOL0     H24294   5.407   7.866   2.134 -1.8844  0.0060  0.8323
  901MOL0     H24295   5.454   7.966   2.280  0.4174  0.1379  0.2658
  901MOL0     H24296   5.625   7.522   2.253  1.1211 -1.7581 -1.4424
  901MOL0     H24297   5.753   7.373   2.168 -1.7493  1.9169  0.2521
  901MOL0     H24298   5.904   7.450   2.219 -0.2774  0.2385 -0.2003
  901MOL0     H24299   5.902   7.395   2.053  0.3762  0.4583  0.3395
  901MOL0     H24300   6.053   7.713   1.698 -1.1940  1.2661  1.3598
  901MOL0     H24301   6.280   7.716   1.564 -1.9065  0.8436 -0.6213
  901MOL0     H24302   6.656   7.790   1.757 -3.4622 -0.2739  1.8003
  901MOL0     H24303   6.636   7.614   1.787  0.7907  1.3131  2.0888
  901MOL0     H24304   6.835   7.652   1.629 -0.7082 -1.7822  1.0439
  901MOL0     H24305   6.704   7.564   1.559 -0.4116  0.8132 -2.7027
  901MOL0     H24306   6.636   7.782   1.423 -0.4089  1.5075 -0.5199
  901MOL0     H24307   6.792   7.723   1.386 -3.0489  0.0297 -1.6921
  901MOL0     H24308   6.883   7.905   1.544  2.4572  0.7914 -3.8760
  901MOL0     H24309   6.715   7.951   1.572 -0.2609  1.1375 -1.1606
  901MOL0     H24310   6.701   7.953   1.309 -1.2729 -0.7418  0.1742
  901MOL0     H24311   6.772   8.087   1.389  3.5268 -0.1187 -0.3302
  901MOL0     H24312   6.908   7.869   1.239 -0.6409  0.3342 -3.0086
  901MOL0     H24313   7.001   7.988   1.346 -1.6653  2.5264  1.2807
  901MOL0     H24314   6.926   8.176   1.199  1.5658 -0.2506 -2.2649
  901MOL0     H24315   6.793   8.066   1.134 -0.3927  4.6307 -1.2671
  901MOL0     H24316   7.099   8.017   1.105  0.4941  1.2687  0.7492
  901MOL0     H24317   7.006   8.125   0.992 -0.4853  1.1680  1.2069
  901MOL0     H24318   6.480   7.717   1.954  2.0290  2.0184 -1.9220
  901MOL0     H24319   6.292   7.745   2.057  2.9121 -0.4018 -0.1498
  901MOL0     H24320   5.787   7.840   1.921 -3.1622 -0.0250 -1.3711
  901MOL0     H24321   5.611   7.915   2.059  1.7181 -0.0137 -2.5141
  901MOL0     H24322   3.742   6.916   2.550  1.3125  1.4670 -0.5668
  901MOL0     H24323   3.579   6.740   2.479  1.2645  1.7529  2.3013
  901MOL0     H24324   3.376   6.508   2.254 -1.4518  0.0568 -1.6747
  901MOL0     H24325   3.187   6.417   2.159  0.0390  1.8498 -2.2218
  901MOL0     H24326   2.973   6.137   2.061  0.1042  0.1866 -2.4399
  901MOL0     H24327   3.027   6.305   2.103  0.0616  0.4572 -0.8794
  901MOL0     H24328   3.060   6.181   1.831 -0.0246  0.8224 -1.9916
  901MOL0     H24329   3.116   6.339   1.880  0.0944  0.0431  0.6093
  901MOL0     H24330   2.884   6.407   1.927 -0.4777 -1.4899  0.7472
  901MOL0     H24331   2.928   6.372   1.753  2.9969 -0.8986 -0.2640
  901MOL0     H24332   2.702   6.299   1.815  1.0526  0.9160  2.8372
  901MOL0     H24333   2.760   6.199   1.939 -1.5427 -1.4429 -0.6340
  901MOL0     H24334   2.779   5.974   1.572  1.2692  0.1410 -1.4636
  901MOL0     H24335   3.411   6.048   2.085  0.7678  0.2019  0.9504
  901MOL0     H24336   3.696   6.111   2.255 -0.9015  0.7634  0.3660
  901MOL0     H24337   3.612   6.018   2.139 -0.2158 -0.5144  0.3700
  901MOL0     H24338   3.712   6.148   2.086 -3.0691  1.6674 -2.7150
  902MOL0     O24339   7.525   4.521   3.070  0.1597  0.0217 -0.7315
  902MOL0     C24340   7.560   4.534   2.952 -0.6431 -0.3626 -0.3116
  902MOL0     O24341   7.686   4.552   2.916 -0.3658  0.0924 -0.2125
  902MOL0     C24342   7.779   4.530   3.008 -0.0546 -0.3020 -0.2434
  902MOL0     C24343   7.820   4.621   3.110 -0.4979 -0.7539  0.4453
  902MOL0     C24344   7.937   4.589   3.186  0.8827 -0.1214  0.3554
  902MOL0     C24345   8.002   4.471   3.167 -0.2069  0.0961  0.5920
  902MOL0     O24346   8.102   4.453   3.257 -0.8406 -0.0563 -0.5682
  902MOL0     C24347   8.208   4.368   3.226 -0.8452 -0.1152 -0.6049
  902MOL0     C24348   8.164   4.237   3.287  0.1843 -0.7551  0.2249
  902MOL0     C24349   8.272   4.129   3.281  0.5845  0.3210 -0.3702
  902MOL0     C24350   8.233   3.991   3.346 -0.7415  0.3616 -0.3134
  902MOL0     C24351   8.323   3.883   3.296  0.0667 -0.4943  0.2438
  902MOL0     C24352   8.475   3.918   3.267 -0.0146 -1.1518  0.1406
  902MOL0     C24353   8.541   3.930   3.405  0.2260  0.0086 -0.7349
  902MOL0     C24354   8.698   3.905   3.393  1.0480 -0.6097  0.1239
  902MOL0     N24355   8.766   3.937   3.514  0.0111 -0.1732 -0.1855
  902MOL0     C24356   8.839   3.857   3.599  0.1117 -0.0597  0.2500
  902MOL0     C24357   8.891   3.942   3.692  0.1059 -0.3198  0.5875
  902MOL0     C24358   9.010   3.898   3.779  0.1281  0.8147 -0.1010
  902MOL0     C24359   9.139   3.918   3.685 -0.0630  0.0623 -0.1956
  902MOL0     C24360   9.197   4.059   3.681  0.7302 -0.1911  0.0429
  902MOL0     C24361   9.309   4.072   3.580  0.1643 -0.0650  0.7262
  902MOL0     O24362   9.437   4.008   3.614  0.6905  0.1945 -0.1789
  902MOL0     C24363   9.549   4.040   3.542  0.1366 -0.0681 -0.0500
  902MOL0     C24364   9.562   4.083   3.410 -0.4678 -0.0495 -0.1160
  902MOL0     C24365   9.687   4.121   3.356 -0.1462  0.7463  0.7470
  902MOL0     C24366   9.702   4.169   3.211  0.5271 -0.0769 -0.3876
  902MOL0     C24367   9.802   4.128   3.443 -1.5077  0.0417 -0.2926
  902MOL0     C24368   9.940   4.189   3.402 -0.2844 -0.4238 -0.2055
  902MOL0     O24369  10.027   4.194   3.511  0.1487  0.4060  0.4697
  902MOL0     C24370  10.156   4.236   3.497  0.7628 -0.6774 -0.0012
  902MOL0     C24371  10.190   4.357   3.428  0.2746  0.0339 -0.2114
  902MOL0     C24372  10.318   4.400   3.429  0.0174 -0.0743 -0.9240
  902MOL0     C24373  10.420   4.336   3.494  0.1089  0.2549 -0.3290
  902MOL0     O24374  10.551   4.374   3.492  0.3057  0.3850  0.2386
  902MOL0     C24375  10.587   4.507   3.446  0.5810 -0.1251 -0.1066
  902MOL0     C24376  10.615   4.516   3.293 -0.5980 -0.0185  0.0115
  902MOL0     C24377  10.616   4.660   3.244 -0.3445  0.1488  0.2598
  902MOL0     C24378  10.666   4.676   3.094  0.2498 -0.0633 -0.3623
  902MOL0     C24379  10.649   4.820   3.055  0.7293 -0.3448  0.0343
  902MOL0     C24380  10.498   4.860   3.028 -0.2658 -0.3878  0.1738
  902MOL0     C24381  10.455   4.785   2.899 -0.2528  0.2591 -0.2371
  902MOL0     C24382  10.309   4.738   2.904 -0.5110 -0.0853  0.6539
  902MOL0    Cl24383  10.182   4.868   2.917  0.1658  0.0634 -0.3649
  902MOL0     C24384  10.389   4.209   3.560 -0.0185  0.3773  0.1808
  902MOL0     C24385  10.255   4.164   3.563 -0.8222 -0.3710  0.7872
  902MOL0     O24386   9.967   4.218   3.287 -0.0440 -0.5676 -1.1247
  902MOL0     C24387   9.783   4.080   3.574 -1.3501  0.0062 -0.4581
  902MOL0     C24388   9.667   4.031   3.617 -0.1077 -0.3814  0.0593
  902MOL0     N24389   8.847   4.071   3.668  0.5281  0.0788 -0.2829
  902MOL0     N24390   8.774   4.067   3.563 -0.2611  0.1619 -0.3390
  902MOL0     C24391   7.962   4.383   3.065 -0.6271 -0.1391 -0.7573
  902MOL0     C24392   7.857   4.415   2.982  0.3745 -0.0222  0.6180
  902MOL0     C24393   7.462   4.521   2.846  0.2988 -0.0075  0.2484
  902MOL0     C24394   7.337   4.583   2.862  0.0786  0.3145 -0.5434
  902MOL0     C24395   7.237   4.579   2.757 -0.3471  0.1910 -0.1497
  902MOL0     C24396   7.266   4.520   2.636  0.5210  0.8469  0.8688
  902MOL0     O24397   7.169   4.538   2.544 -0.4278  0.8425  0.0798
  902MOL0     C24398   7.140   4.415   2.462  0.0114 -0.2604 -0.4630
  902MOL0     C24399   7.088   4.301   2.539  0.7036 -0.2487  0.2506
  902MOL0     C24400   6.949   4.340   2.584  0.0013  0.2761 -0.2502
  902MOL0     C24401   6.878   4.217   2.639 -1.0679 -0.3013 -0.0332
  902MOL0     C24402   6.738   4.237   2.670  0.3223 -0.1093  0.2136
  902MOL0     C24403   6.625   4.274   2.694  0.5493 -0.4238  0.1761
  902MOL0     C24404   7.390   4.465   2.615 -0.1664  0.0123  0.0130
  902MOL0     C24405   7.489   4.458   2.721  0.4659  0.6717 -0.0517
  902MOL0     C24406   7.613   4.374   2.698  0.1153  0.1995 -0.3258
  902MOL0     H24407   7.763   4.712   3.126  0.8128  0.3966 -1.0128
  902MOL0     H24408   7.956   4.655   3.271 -0.7826 -0.5595  1.1103
  902MOL0     H24409   8.287   4.401   3.294 -3.0582  1.0381  1.5790
  902MOL0     H24410   8.233   4.362   3.119 -0.6723 -2.8017 -0.4864
  902MOL0     H24411   8.148   4.267   3.391  0.5644  1.6873 -0.3713
  902MOL0     H24412   8.072   4.193   3.248  0.7829 -0.8499 -1.1151
  902MOL0     H24413   8.296   4.111   3.176  0.1804  0.6560 -0.5260
  902MOL0     H24414   8.365   4.173   3.317  0.3815 -0.0975  0.7030
  902MOL0     H24415   8.253   3.987   3.454  3.0103 -1.3960 -0.9352
  902MOL0     H24416   8.128   3.970   3.323 -0.4964 -2.0999  0.4834
  902MOL0     H24417   8.280   3.859   3.198 -0.6994  1.6255  0.0025
  902MOL0     H24418   8.307   3.794   3.356 -3.6432  0.4058  0.8119
  902MOL0     H24419   8.522   3.837   3.210 -0.8515 -0.2967 -1.8628
  902MOL0     H24420   8.488   4.007   3.205  0.3717 -1.7827 -0.6899
  902MOL0     H24421   8.506   3.871   3.491  0.5288  1.5805  0.5177
  902MOL0     H24422   8.524   4.030   3.446 -2.1603 -0.7096  0.2155
  902MOL0     H24423   8.708   3.799   3.364  1.8485 -0.3749 -0.4869
  902MOL0     H24424   8.725   3.962   3.304 -0.0086 -2.6292 -1.6105
  902MOL0     H24425   8.863   3.753   3.581  3.1135  0.4540  0.7349
  902MOL0     H24426   8.998   3.791   3.797  3.4866  0.4451  0.6164
  902MOL0     H24427   9.011   3.938   3.881  0.3509  1.6886 -0.4368
  902MOL0     H24428   9.224   3.858   3.720 -1.0606 -1.2317  0.0885
  902MOL0     H24429   9.131   3.881   3.583  0.1583 -0.8375  0.1038
  902MOL0     H24430   9.109   4.113   3.646 -1.9674 -2.2490  2.9911
  902MOL0     H24431   9.225   4.092   3.782 -0.1065 -1.2719  0.6549
  902MOL0     H24432   9.266   4.024   3.492  2.0644 -1.0315  0.2595
  902MOL0     H24433   9.336   4.177   3.568  0.1917 -0.1831 -0.3097
  902MOL0     H24434   9.469   4.087   3.353  0.2495 -1.8157 -1.4969
  902MOL0     H24435   9.752   4.098   3.145 -0.9803 -0.6435 -0.9623
  902MOL0     H24436   9.734   4.273   3.193  2.3964 -0.7494 -1.2668
  902MOL0     H24437   9.610   4.181   3.154  0.2746  0.4637  0.1270
  902MOL0     H24438  10.119   4.415   3.370  1.7315  1.1278 -0.9871
  902MOL0     H24439  10.341   4.489   3.371 -1.1831 -1.4519 -3.6469
  902MOL0     H24440  10.513   4.577   3.485 -1.6704 -1.6306 -1.4377
  902MOL0     H24441  10.683   4.526   3.493  0.3785 -0.3637  0.4021
  902MOL0     H24442  10.713   4.472   3.270 -0.4148  0.4356 -0.0813
  902MOL0     H24443  10.540   4.468   3.230  0.1373  1.1406 -1.8514
  902MOL0     H24444  10.684   4.725   3.301 -0.1997 -0.2727  0.5745
  902MOL0     H24445  10.512   4.694   3.247 -0.2957  0.4471 -0.9770
  902MOL0     H24446  10.613   4.605   3.031  0.3634 -0.9295  0.4871
  902MOL0     H24447  10.771   4.647   3.088  0.1823 -0.2505 -0.6326
  902MOL0     H24448  10.698   4.891   3.122 -0.6634  0.9555 -0.2673
  902MOL0     H24449  10.695   4.829   2.956  0.4947  0.2318 -0.0287
  902MOL0     H24450  10.501   4.967   3.004  3.2059 -0.4696 -0.2719
  902MOL0     H24451  10.432   4.837   3.112  0.4283  1.3334  1.2508
  902MOL0     H24452  10.524   4.702   2.881 -0.3094 -0.1945  1.4564
  902MOL0     H24453  10.472   4.862   2.824  2.0967  3.5832  3.3155
  902MOL0     H24454  10.297   4.669   2.989 -0.1938 -1.3432 -0.2942
  902MOL0     H24455  10.281   4.690   2.810 -0.8276  0.8033  0.2896
  902MOL0     H24456  10.473   4.152   3.599  0.4440  0.0561 -1.2279
  902MOL0     H24457  10.219   4.078   3.619 -0.7574  0.4530  2.1702
  902MOL0     H24458   9.868   4.080   3.641  0.1519  2.8582 -2.1578
  902MOL0     H24459   9.658   4.015   3.724 -2.4454  1.9192  0.3175
  902MOL0     H24460   8.021   4.293   3.049 -0.0536  0.0638  0.1512
  902MOL0     H24461   7.825   4.353   2.900  1.7661  0.3839 -0.2800
  902MOL0     H24462   7.308   4.626   2.957 -0.8965  0.7252 -1.0089
  902MOL0     H24463   7.139   4.620   2.779 -2.2990 -4.2157  0.3800
  902MOL0     H24464   7.058   4.445   2.396 -0.7240 -2.7162 -0.7675
  902MOL0     H24465   7.220   4.374   2.400 -0.9749  0.0334 -1.9871
  902MOL0     H24466   7.150   4.275   2.625 -0.3368 -2.1492  0.4745
  902MOL0     H24467   7.074   4.212   2.477 -0.2660 -0.9547  1.4543
  902MOL0     H24468   6.946   4.427   2.650 -1.7324  0.2705 -0.2619
  902MOL0     H24469   6.881   4.363   2.501 -1.0047 -4.3021 -0.9695
  902MOL0     H24470   6.944   4.189   2.722  0.3856 -2.8389 -1.9209
  902MOL0     H24471   6.876   4.134   2.568 -2.0116 -1.1565  0.9637
  902MOL0     H24472   6.527   4.313   2.715  1.3284  0.7967  1.7868
  902MOL0     H24473   7.404   4.414   2.521 -0.5399  0.3258 -0.2147
  902MOL0     H24474   7.608   4.316   2.605 -0.7453 -2.9478  1.5431
  902MOL0     H24475   7.704   4.434   2.709  1.5896 -2.4199  3.4021
  902MOL0     H24476   7.615   4.287   2.764 -0.2167  0.8918  0.6136
  903MOL0     O24477   1.854  10.011   1.104  0.5814 -0.0865  1.0523
  903MOL0     C24478   1.817   9.928   1.179  0.3366 -0.2341 -0.1588
  903MOL0     O24479   1.898   9.869   1.274 -0.6396 -0.1055  0.0350
  903MOL0     C24480   2.031   9.911   1.274 -0.4179 -0.6841  0.0576
  903MOL0     C24481   2.078  10.047   1.289 -0.5988 -0.0521 -0.0552
  903MOL0     C24482   2.211  10.084   1.271 -0.1534 -0.0050  0.1302
  903MOL0     C24483   2.311   9.990   1.251 -0.1985 -0.7741 -0.0570
  903MOL0     O24484   2.444  10.004   1.226 -0.0354  0.0544  0.9193
  903MOL0     C24485   2.497  10.133   1.188  0.2271 -1.0792  0.1952
  903MOL0     C24486   2.640  10.119   1.125  0.6114  0.0134 -0.0778
  903MOL0     C24487   2.730  10.051   1.230  1.1805 -0.4121 -0.3308
  903MOL0     C24488   2.872  10.050   1.187 -0.3506  0.5154  0.0498
  903MOL0     C24489   2.958  10.025   1.308 -0.5674  1.1519  0.0288
  903MOL0     C24490   3.107  10.048   1.280 -0.3642 -0.1144 -0.0238
  903MOL0     C24491   3.197  10.017   1.404  0.0520 -0.1906 -0.2043
  903MOL0     C24492   3.338  10.069   1.380 -0.0338  0.9890 -0.3093
  903MOL0     N24493   3.395   9.995   1.266 -0.8208  0.2005 -0.2241
  903MOL0     C24494   3.444   9.860   1.283  0.3309 -0.6761 -0.4819
  903MOL0     C24495   3.491   9.836   1.160 -0.3074  0.2800  0.4935
  903MOL0     C24496   3.562   9.707   1.113 -0.3524 -0.1272 -0.0994
  903MOL0     C24497   3.708   9.722   1.077  0.5185  0.0510 -0.3428
  903MOL0     C24498   3.765   9.597   1.020 -0.1100  0.0989  0.1995
  903MOL0     C24499   3.915   9.621   1.027 -0.3287  0.5826 -0.4216
  903MOL0     O24500   3.958   9.613   1.168 -0.3283 -0.2153  0.5189
  903MOL0     C24501   4.091   9.595   1.200  0.0534  0.9947 -0.8165
  903MOL0     C24502   4.125   9.600   1.338  0.1891  0.3436 -0.1998
  903MOL0     C24503   4.262   9.613   1.381  0.3647 -0.6865 -0.1550
  903MOL0     C24504   4.288   9.623   1.530  0.1530  0.8038  0.5118
  903MOL0     C24505   4.368   9.644   1.286  0.7890  0.5449  0.4571
  903MOL0     C24506   4.514   9.643   1.310 -0.7844 -1.0604  0.3950
  903MOL0     O24507   4.593   9.661   1.199  0.3800  0.3757 -0.0895
  903MOL0     C24508   4.726   9.671   1.209  0.7989  0.2265 -0.0285
  903MOL0     C24509   4.798   9.767   1.135 -0.3090  0.6037 -1.1242
  903MOL0     C24510   4.936   9.777   1.139 -0.1054  0.6015  0.8266
  903MOL0     C24511   5.010   9.682   1.206 -0.7465 -0.1122  0.1454
  903MOL0     O24512   5.146   9.685   1.186 -0.8954 -0.2464  0.4832
  903MOL0     C24513   5.226   9.580   1.241 -0.2437  0.2291  0.6532
  903MOL0     C24514   5.376   9.601   1.213 -1.1776 -0.4810 -0.0574
  903MOL0     C24515   5.467   9.490   1.256  0.2787 -0.1835  0.3050
  903MOL0     C24516   5.454   9.455   1.401  0.0149  0.6354  0.5200
  903MOL0     C24517   5.579   9.389   1.452  0.8956 -0.0307 -0.1752
  903MOL0     C24518   5.572   9.366   1.605 -1.0151  0.3441  0.4671
  903MOL0     C24519   5.688   9.291   1.662 -0.7146  0.3115 -0.7957
  903MOL0     C24520   5.829   9.345   1.640 -0.6394  0.4020  0.2110
  903MOL0    Cl24521   5.926   9.272   1.759 -0.4955  0.5523  0.2254
  903MOL0     C24522   4.948   9.588   1.288  1.0677  0.6326  0.0248
  903MOL0     C24523   4.805   9.588   1.291 -0.1103  0.3197  0.6823
  903MOL0     O24524   4.558   9.637   1.424  0.7726  0.0190 -0.2400
  903MOL0     C24525   4.328   9.641   1.149  0.8150 -1.0036  1.0487
  903MOL0     C24526   4.200   9.617   1.109  1.3281  0.1578 -0.0008
  903MOL0     N24527   3.483   9.948   1.082 -0.1436  0.4368  0.7424
  903MOL0     N24528   3.428  10.043   1.139  0.8085  0.5562 -0.2650
  903MOL0     C24529   2.270   9.857   1.251  0.0167 -0.0445  0.3229
  903MOL0     C24530   2.130   9.812   1.257  0.0405 -0.5674 -0.4604
  903MOL0     C24531   1.673   9.905   1.183  0.3420 -0.2024 -0.4837
  903MOL0     C24532   1.619   9.840   1.295 -0.0054 -0.3328 -0.5097
  903MOL0     C24533   1.483   9.797   1.297 -0.6249 -0.4644 -0.1249
  903MOL0     C24534   1.395   9.836   1.194 -0.5685 -0.3211 -0.3867
  903MOL0     O24535   1.266   9.795   1.171 -0.4784  0.2558 -0.3102
  903MOL0     C24536   1.207   9.716   1.276 -0.3141 -0.8215 -0.3004
  903MOL0     C24537   1.055   9.690   1.256 -0.1143 -0.1088 -0.0193
  903MOL0     C24538   0.957   9.810   1.277  0.2998 -0.6545 -0.1302
  903MOL0     C24539   0.816   9.786   1.222  0.4931  0.2123 -0.4304
  903MOL0     C24540   0.742   9.907   1.185 -0.6971 -0.2960  0.1646
  903MOL0     C24541   0.693  10.009   1.142 -0.2375  0.0420  0.3415
  903MOL0     C24542   1.449   9.913   1.092 -0.0639 -0.5905  0.2864
  903MOL0     C24543   1.587   9.943   1.078  0.4528 -0.5781  0.5515
  903MOL0     C24544   1.631  10.000   0.939 -0.0206  0.0330 -0.5430
  903MOL0     H24545   2.018  10.137   1.299  1.9479  1.5631  1.8070
  903MOL0     H24546   2.232  10.191   1.275 -1.5496  0.3010 -0.1777
  903MOL0     H24547   2.488  10.206   1.268 -3.2378 -0.0761 -0.9559
  903MOL0     H24548   2.427  10.170   1.113  0.6751  1.2742  0.8698
  903MOL0     H24549   2.645  10.064   1.030  2.7800 -0.3100  0.1584
  903MOL0     H24550   2.676  10.219   1.101 -0.0828 -0.0908 -1.6963
  903MOL0     H24551   2.717  10.107   1.323 -2.1213 -0.9343 -0.3609
  903MOL0     H24552   2.696   9.949   1.247 -1.9170  0.4355 -0.7764
  903MOL0     H24553   2.883   9.969   1.113  1.0374  1.7231 -1.1343
  903MOL0     H24554   2.902  10.137   1.128  1.9004 -0.1386  0.1180
  903MOL0     H24555   2.946   9.920   1.335  2.1761 -0.1039 -2.9790
  903MOL0     H24556   2.926  10.088   1.392  0.1306  2.9968 -1.0361
  903MOL0     H24557   3.131   9.985   1.194  0.2119 -1.4195  1.0477
  903MOL0     H24558   3.129  10.152   1.256  0.8552 -0.0933  1.0852
  903MOL0     H24559   3.187   9.911   1.429  0.3516 -0.0306  0.6415
  903MOL0     H24560   3.163  10.072   1.492  0.3926  2.1575 -1.4568
  903MOL0     H24561   3.347  10.175   1.355  3.0349  0.7837 -0.4144
  903MOL0     H24562   3.400  10.051   1.468 -1.2937  1.6946  0.7687
  903MOL0     H24563   3.454   9.802   1.374  1.9083  0.6584  0.2469
  903MOL0     H24564   3.498   9.684   1.027 -1.1759 -1.0784  0.7396
  903MOL0     H24565   3.549   9.624   1.184  0.4762  0.3820  0.6662
  903MOL0     H24566   3.723   9.803   1.005  0.8107  2.8481  2.6602
  903MOL0     H24567   3.760   9.759   1.165 -2.1658 -0.0486  1.3788
  903MOL0     H24568   3.735   9.515   1.087 -0.9716 -1.5453 -2.0351
  903MOL0     H24569   3.725   9.582   0.919 -0.3879 -2.0763  0.5709
  903MOL0     H24570   3.974   9.553   0.965  0.0174 -0.8747  1.4180
  903MOL0     H24571   3.943   9.724   1.004 -1.2196  0.8316 -0.4407
  903MOL0     H24572   4.052   9.590   1.417  0.9795  0.1014  0.5129
  903MOL0     H24573   4.359   9.543   1.554  0.7155  0.8032 -1.0809
  903MOL0     H24574   4.193   9.613   1.585 -0.1241  0.1184 -0.0766
  903MOL0     H24575   4.333   9.719   1.556 -0.3712  0.4733  2.8999
  903MOL0     H24576   4.749   9.843   1.074  0.0610  0.8620 -1.1026
  903MOL0     H24577   4.990   9.846   1.075 -0.8377  0.6121  0.2052
  903MOL0     H24578   5.216   9.579   1.350 -1.7883 -2.7421  0.5906
  903MOL0     H24579   5.192   9.480   1.213  1.4536 -0.8368  2.2512
  903MOL0     H24580   5.395   9.621   1.107  0.2778 -0.8132  0.1255
  903MOL0     H24581   5.415   9.695   1.253  0.4166 -1.2421  0.2463
  903MOL0     H24582   5.568   9.516   1.221  0.1653 -0.0714  0.0591
  903MOL0     H24583   5.445   9.397   1.202  1.5789  0.2577 -1.0697
  903MOL0     H24584   5.360   9.399   1.405 -1.0507  2.3980  1.3111
  903MOL0     H24585   5.425   9.542   1.460 -2.0581 -1.3622  2.6801
  903MOL0     H24586   5.596   9.295   1.398 -1.8824 -0.2455 -0.8292
  903MOL0     H24587   5.667   9.453   1.436  1.2126 -0.9774 -2.6534
  903MOL0     H24588   5.488   9.298   1.621  0.4789 -1.4482  1.0543
  903MOL0     H24589   5.560   9.461   1.658  0.8000  3.9131 -4.6384
  903MOL0     H24590   5.687   9.193   1.614 -3.6214  0.3851 -1.0417
  903MOL0     H24591   5.675   9.271   1.769  1.4907  2.7346  0.0423
  903MOL0     H24592   5.839   9.454   1.646  2.4433  0.4017 -2.5408
  903MOL0     H24593   5.869   9.315   1.543 -1.4286  0.0393 -0.0107
  903MOL0     H24594   5.012   9.518   1.341  1.9075  1.0295 -0.4371
  903MOL0     H24595   4.760   9.512   1.354  1.1851  0.4472  1.8183
  903MOL0     H24596   4.391   9.675   1.067  0.9808 -2.2224  0.6521
  903MOL0     H24597   4.175   9.631   1.005 -0.4847  0.2872  0.4242
  903MOL0     H24598   2.353   9.787   1.248  2.9041  3.1345  0.4440
  903MOL0     H24599   2.098   9.709   1.252  2.0068 -1.2891  0.5508
  903MOL0     H24600   1.678   9.823   1.384  1.5714  0.9633 -1.2534
  903MOL0     H24601   1.448   9.732   1.377 -0.9698 -1.9273 -1.4134
  903MOL0     H24602   1.253   9.617   1.267 -1.6801 -1.6104  1.0016
  903MOL0     H24603   1.217   9.752   1.379 -2.4350  0.2760 -0.4134
  903MOL0     H24604   1.020   9.617   1.329 -2.6020  1.9504  0.9913
  903MOL0     H24605   1.034   9.649   1.156 -0.2177 -5.3556  1.8237
  903MOL0     H24606   0.943   9.844   1.380  1.0597 -1.1523  0.1423
  903MOL0     H24607   0.992   9.897   1.221  1.1706 -1.6210 -1.1272
  903MOL0     H24608   0.760   9.737   1.303 -0.4195  1.5910 -0.2020
  903MOL0     H24609   0.816   9.724   1.132  1.5000 -1.6746  0.7923
  903MOL0     H24610   0.660  10.103   1.102  1.9497  0.5479 -0.4412
  903MOL0     H24611   1.379   9.943   1.015 -0.7815 -0.5687  0.9269
  903MOL0     H24612   1.550  10.013   0.868  0.1021 -0.1019 -0.7069
  903MOL0     H24613   1.674  10.099   0.963 -1.7496  0.1710  2.5708
  903MOL0     H24614   1.699   9.935   0.884 -0.0893 -1.0471  0.6043
  904MOL0     O24615   8.426   5.121   3.064  0.5040  0.7379 -0.1749
  904MOL0     C24616   8.438   5.158   3.179  0.1829 -0.1150  0.0969
  904MOL0     O24617   8.543   5.131   3.261  0.9605  0.4517 -0.2459
  904MOL0     C24618   8.652   5.047   3.225 -0.2590 -0.2125  0.4217
  904MOL0     C24619   8.756   5.046   3.318  0.5905  0.5670  0.4508
  904MOL0     C24620   8.863   4.954   3.306  0.4261 -0.8182 -0.9474
  904MOL0     C24621   8.869   4.869   3.195  0.0176 -0.1763 -0.2937
  904MOL0     O24622   8.984   4.798   3.184  0.6000  1.6398 -0.0374
  904MOL0     C24623   9.012   4.738   3.058  0.2066 -0.3610 -0.2645
  904MOL0     C24624   9.153   4.682   3.074  0.1763  0.6780  0.2180
  904MOL0     C24625   9.261   4.791   3.081 -0.5448 -0.2444  0.2401
  904MOL0     C24626   9.352   4.793   3.201  0.0301 -0.9946 -0.4675
  904MOL0     C24627   9.432   4.914   3.230  0.2994  0.0982  0.3718
  904MOL0     C24628   9.517   4.946   3.116 -0.5997 -0.1501 -0.0846
  904MOL0     C24629   9.632   5.054   3.143 -0.3120  0.7056 -0.0814
  904MOL0     C24630   9.703   5.086   3.013 -0.7004 -0.2815  0.5136
  904MOL0     N24631   9.774   5.215   3.012 -0.1420 -0.6853  0.2443
  904MOL0     C24632   9.862   5.249   3.120  0.3896  0.5164 -0.3583
  904MOL0     C24633   9.914   5.369   3.082  0.0166  0.6899  0.2685
  904MOL0     C24634  10.007   5.468   3.150 -0.3697 -0.2785  0.1522
  904MOL0     C24635  10.160   5.434   3.125  0.1593  0.1015  0.0723
  904MOL0     C24636  10.225   5.487   2.995 -0.0296  0.7785 -0.6952
  904MOL0     C24637  10.359   5.550   3.026 -0.4207 -0.0829 -0.8733
  904MOL0     O24638  10.413   5.624   2.917  0.0191  0.1961  0.5533
  904MOL0     C24639  10.546   5.645   2.898 -1.0284  0.0760 -0.3763
  904MOL0     C24640  10.594   5.772   2.861  0.3070 -0.2713 -0.4865
  904MOL0     C24641  10.725   5.804   2.852 -0.3674  0.3388  1.0705
  904MOL0     C24642  10.752   5.943   2.790 -0.6561 -0.1770 -0.9215
  904MOL0     C24643  10.817   5.700   2.873 -0.4901  0.1046 -0.0413
  904MOL0     C24644  10.967   5.727   2.851  0.2662  0.2196 -0.2933
  904MOL0     O24645  11.017   5.852   2.847  0.3649  0.0399 -0.2536
  904MOL0     C24646  11.150   5.867   2.815  0.1428 -0.0586  0.6091
  904MOL0     C24647  11.244   5.840   2.913  1.6115 -0.9507 -0.2686
  904MOL0     C24648  11.378   5.861   2.885 -0.7547  0.1063  0.2187
  904MOL0     C24649  11.420   5.889   2.751  0.8133 -1.2488  0.0769
  904MOL0     O24650  11.552   5.909   2.712 -0.0611 -0.3878 -0.1941
  904MOL0     C24651  11.662   5.922   2.804 -0.1831 -0.7075  0.1625
  904MOL0     C24652  11.784   5.967   2.721 -0.2813  0.7118  0.5964
  904MOL0     C24653  11.761   6.071   2.606  0.0653 -1.1717  0.3148
  904MOL0     C24654  11.887   6.137   2.567  0.2647  0.1364  1.0812
  904MOL0     C24655  11.875   6.280   2.501  0.5015  1.0750  0.5676
  904MOL0     C24656  12.015   6.343   2.448  0.2011  0.8338 -0.0377
  904MOL0     C24657  12.106   6.349   2.571  0.5622  0.4673  0.1943
  904MOL0     C24658  12.235   6.271   2.560  1.0278  0.4433 -0.5665
  904MOL0    Cl24659  12.333   6.358   2.437  0.2864  0.1551 -0.6721
  904MOL0     C24660  11.324   5.904   2.656 -0.3501  0.3060  0.3806
  904MOL0     C24661  11.190   5.895   2.684  0.1660 -0.1252  0.2946
  904MOL0     O24662  11.031   5.624   2.844  0.2842  0.2343 -0.7724
  904MOL0     C24663  10.773   5.571   2.905  0.4998 -0.5384 -1.0068
  904MOL0     C24664  10.638   5.546   2.921 -0.6161 -1.2587  0.6935
  904MOL0     N24665   9.855   5.403   2.967  0.3920  0.6281  0.6926
  904MOL0     N24666   9.783   5.308   2.915  0.4401 -0.1937  0.7449
  904MOL0     C24667   8.770   4.869   3.099 -0.2033  0.4420 -0.0021
  904MOL0     C24668   8.662   4.965   3.112 -0.1111 -0.4512  0.9579
  904MOL0     C24669   8.335   5.250   3.232  0.1583  0.3183 -0.8119
  904MOL0     C24670   8.315   5.247   3.371 -0.4805  0.8710 -0.0014
  904MOL0     C24671   8.215   5.322   3.426  0.3909  0.8529 -0.3553
  904MOL0     C24672   8.142   5.406   3.349 -0.4537 -0.4296  0.2731
  904MOL0     O24673   8.051   5.492   3.397  0.1239  0.0498  0.8220
  904MOL0     C24674   8.105   5.590   3.487  0.4942 -1.0985  0.4563
  904MOL0     C24675   8.005   5.596   3.607 -0.1278  0.2697 -0.1947
  904MOL0     C24676   7.896   5.692   3.577 -0.6530  0.3171  0.0211
  904MOL0     C24677   7.862   5.766   3.710  0.1102  0.5321 -0.6866
  904MOL0     C24678   7.736   5.843   3.686  0.2468 -0.1191 -0.1792
  904MOL0     C24679   7.642   5.919   3.660 -0.7024 -0.3105  0.2719
  904MOL0     C24680   8.155   5.403   3.213 -0.4620 -0.2270  0.6097
  904MOL0     C24681   8.254   5.329   3.148  0.0826  0.0776 -0.9034
  904MOL0     C24682   8.269   5.338   3.004 -0.3130  0.3948  0.5955
  904MOL0     H24683   8.740   5.109   3.405 -1.1340  0.9824 -0.1273
  904MOL0     H24684   8.929   4.944   3.391 -0.7273  0.8423  0.2104
  904MOL0     H24685   9.012   4.814   2.979  0.0467  0.5538  0.6042
  904MOL0     H24686   8.948   4.654   3.031 -0.5958  0.0475  0.3582
  904MOL0     H24687   9.153   4.607   3.154  0.0083  0.1642 -0.2524
  904MOL0     H24688   9.177   4.633   2.979  2.1894 -0.5412  1.2774
  904MOL0     H24689   9.322   4.781   2.991 -2.0828  0.5096 -0.9225
  904MOL0     H24690   9.213   4.889   3.073  3.0751  1.6873  0.3392
  904MOL0     H24691   9.276   4.786   3.279 -1.8431 -0.2309 -2.1239
  904MOL0     H24692   9.405   4.698   3.192 -2.5800 -2.3798 -2.7394
  904MOL0     H24693   9.475   4.910   3.330  0.0658 -0.2226  0.4618
  904MOL0     H24694   9.367   5.001   3.238  1.0209  0.8163 -1.1781
  904MOL0     H24695   9.577   4.857   3.097 -0.5165  0.6687 -4.7483
  904MOL0     H24696   9.465   4.980   3.026  0.6290  0.3599 -0.6333
  904MOL0     H24697   9.718   5.017   3.199  0.0297  1.8449  0.1831
  904MOL0     H24698   9.594   5.145   3.190 -0.1178  0.0243  1.4664
  904MOL0     H24699   9.772   5.011   2.974  0.7309  0.6347  1.1990
  904MOL0     H24700   9.625   5.100   2.938  0.4006  1.3344 -0.3902
  904MOL0     H24701   9.892   5.190   3.206  1.3677  2.1731  0.5080
  904MOL0     H24702   9.995   5.463   3.258  2.3162 -0.3039  0.5310
  904MOL0     H24703   9.990   5.571   3.116  1.0798 -0.5742 -1.6496
  904MOL0     H24704  10.204   5.491   3.208  0.3693  1.3924 -0.8993
  904MOL0     H24705  10.195   5.330   3.134  0.7552  0.0654 -2.1429
  904MOL0     H24706  10.232   5.404   2.925 -2.6173  0.0758 -0.1918
  904MOL0     H24707  10.161   5.561   2.946 -2.1755  1.2445  2.5009
  904MOL0     H24708  10.343   5.626   3.104 -0.1724 -0.5859 -0.3195
  904MOL0     H24709  10.429   5.472   3.060  0.1175  0.5013 -0.6127
  904MOL0     H24710  10.507   5.835   2.850  0.1475  0.1041  2.3323
  904MOL0     H24711  10.657   5.977   2.746 -2.5300 -0.4385  2.5579
  904MOL0     H24712  10.832   5.938   2.715  0.7517 -3.8338  0.5596
  904MOL0     H24713  10.785   6.005   2.873  0.9059 -1.4868 -0.5146
  904MOL0     H24714  11.214   5.806   3.012  1.9635  0.7720  0.4752
  904MOL0     H24715  11.451   5.833   2.960  1.0613 -0.2043 -1.5775
  904MOL0     H24716  11.637   5.998   2.879 -0.1580  2.4286 -2.7371
  904MOL0     H24717  11.677   5.824   2.849  0.3986 -0.7289 -0.0672
  904MOL0     H24718  11.858   6.006   2.791 -0.3971  0.6087  0.7770
  904MOL0     H24719  11.829   5.877   2.677 -0.0427  0.6762  0.9112
  904MOL0     H24720  11.700   6.150   2.650  1.3001  1.6743 -2.7030
  904MOL0     H24721  11.710   6.040   2.514 -0.2322 -0.7890  0.3485
  904MOL0     H24722  11.943   6.074   2.498 -0.6491 -3.2434  3.1880
  904MOL0     H24723  11.946   6.148   2.658  1.5719 -0.6315  0.3518
  904MOL0     H24724  11.809   6.255   2.417  0.9255 -0.5498  0.6819
  904MOL0     H24725  11.822   6.343   2.571 -1.3158  1.4131 -1.0320
  904MOL0     H24726  11.995   6.443   2.409 -0.8725 -0.0075 -1.7737
  904MOL0     H24727  12.052   6.292   2.359 -0.0183 -1.5186  1.1433
  904MOL0     H24728  12.047   6.322   2.659  1.4687  1.5707  1.1892
  904MOL0     H24729  12.134   6.453   2.591  2.6180  0.0088 -0.0618
  904MOL0     H24730  12.214   6.168   2.532 -1.2764  1.2243 -2.0413
  904MOL0     H24731  12.297   6.271   2.650 -0.6966 -0.1231  0.6725
  904MOL0     H24732  11.338   5.919   2.549  0.8001  0.6937  0.5748
  904MOL0     H24733  11.127   5.911   2.597 -0.4007 -0.2692  0.6740
  904MOL0     H24734  10.844   5.490   2.919  1.3086  0.4004  0.5088
  904MOL0     H24735  10.606   5.448   2.955 -0.7386 -0.7869  1.9957
  904MOL0     H24736   8.781   4.801   3.016  1.3147 -0.3760  0.8158
  904MOL0     H24737   8.591   4.955   3.030 -0.0390 -0.9559  0.9562
  904MOL0     H24738   8.382   5.196   3.439  2.0703 -0.3206 -3.1497
  904MOL0     H24739   8.196   5.321   3.533 -0.1654  0.4206 -0.4559
  904MOL0     H24740   8.203   5.566   3.530  1.3639  0.8209 -0.3435
  904MOL0     H24741   8.116   5.682   3.429 -1.4581  0.3450  2.2687
  904MOL0     H24742   8.067   5.634   3.688  1.8952 -0.3485 -1.3822
  904MOL0     H24743   7.966   5.501   3.644  2.7804 -1.2222 -0.7158
  904MOL0     H24744   7.928   5.775   3.513 -0.6010  2.0242  2.1083
  904MOL0     H24745   7.810   5.653   3.521  0.1081  0.1579 -1.0571
  904MOL0     H24746   7.941   5.836   3.737 -0.2749 -0.0905  2.4228
  904MOL0     H24747   7.843   5.702   3.797 -1.8701  0.5487 -1.0653
  904MOL0     H24748   7.566   5.994   3.648 -0.6387 -0.2822  0.0492
  904MOL0     H24749   8.093   5.469   3.154  0.0343  0.7984  1.2064
  904MOL0     H24750   8.354   5.400   2.972  0.9329 -1.5547 -0.1081
  904MOL0     H24751   8.267   5.243   2.949 -2.2184  0.9990 -0.4859
  904MOL0     H24752   8.185   5.393   2.961  0.8173  1.2430 -0.6298
  905MOL0     O24753  10.231   7.441   4.546 -0.1584  0.2273 -0.6337
  905MOL0     C24754  10.296   7.486   4.454 -0.4573  0.2695 -0.2071
  905MOL0     O24755  10.238   7.549   4.344 -0.5836 -0.2234  0.4870
  905MOL0     C24756  10.117   7.601   4.344  0.6356  0.2327  0.7945
  905MOL0     C24757  10.071   7.636   4.216 -0.5046 -0.6304  0.1144
  905MOL0     C24758   9.951   7.702   4.206 -0.3076 -1.6127 -0.1821
  905MOL0     C24759   9.873   7.734   4.315  0.4325 -0.0442 -0.0349
  905MOL0     O24760   9.753   7.788   4.277 -0.0733 -0.4790  0.5886
  905MOL0     C24761   9.670   7.828   4.383 -1.4528  0.3075 -0.1709
  905MOL0     C24762   9.535   7.879   4.345 -0.2493  0.0283  0.4700
  905MOL0     C24763   9.451   7.927   4.465  0.2346 -0.0762 -0.1076
  905MOL0     C24764   9.310   7.948   4.425 -0.1447  0.4451 -0.0809
  905MOL0     C24765   9.226   8.017   4.537  0.1114 -0.7743  0.3772
  905MOL0     C24766   9.085   8.075   4.488 -0.2506  0.4478 -0.1772
  905MOL0     C24767   8.974   7.966   4.463 -0.1179 -0.6464 -0.5346
  905MOL0     C24768   8.940   7.876   4.592 -0.0120 -0.4530 -0.4902
  905MOL0     N24769   8.836   7.775   4.575 -0.0472  0.3212 -0.1185
  905MOL0     C24770   8.701   7.816   4.567 -0.4014 -0.0110  1.0574
  905MOL0     C24771   8.630   7.709   4.618 -0.2185  1.3433 -0.2030
  905MOL0     C24772   8.479   7.688   4.654  0.4163 -0.5550 -0.1958
  905MOL0     C24773   8.440   7.761   4.782  0.1093  0.4446  0.0269
  905MOL0     C24774   8.422   7.682   4.910  0.4695 -0.4288 -0.2580
  905MOL0     C24775   8.549   7.622   4.960 -0.6950 -0.0516  0.1802
  905MOL0     O24776   8.633   7.742   4.985 -0.2278  0.2455 -0.2382
  905MOL0     C24777   8.770   7.734   4.972  0.5401  0.4166  1.0300
  905MOL0     C24778   8.849   7.852   4.952  0.8589 -0.2830 -0.0263
  905MOL0     C24779   8.990   7.849   4.943  0.4436 -0.4799 -0.1045
  905MOL0     C24780   9.062   7.979   4.925 -0.5517 -0.6930 -0.0243
  905MOL0     C24781   9.058   7.724   4.942 -1.1378 -0.3117  0.2575
  905MOL0     C24782   9.208   7.704   4.928  0.1685  0.5704 -0.0549
  905MOL0     O24783   9.259   7.577   4.941 -0.0050 -0.0442  0.3608
  905MOL0     C24784   9.386   7.547   4.910 -1.1769  0.3255  0.1505
  905MOL0     C24785   9.446   7.459   4.996  0.3578 -0.6788 -0.0043
  905MOL0     C24786   9.579   7.430   4.992 -0.1829 -0.0806  0.2082
  905MOL0     C24787   9.652   7.465   4.879  0.6805  0.4263  0.0406
  905MOL0     O24788   9.773   7.404   4.876  0.0185  0.0769 -0.2804
  905MOL0     C24789   9.809   7.326   4.755  1.2452  0.2607  0.2421
  905MOL0     C24790   9.944   7.254   4.757  1.2157 -0.5773  0.7242
  905MOL0     C24791   9.993   7.210   4.618  0.1247  0.5171 -0.0628
  905MOL0     C24792  10.098   7.100   4.638 -0.8120  0.5949  1.2582
  905MOL0     C24793  10.160   7.059   4.507  0.4683  0.1710  0.3430
  905MOL0     C24794  10.279   6.958   4.524  0.2769 -0.1316  0.8922
  905MOL0     C24795  10.338   6.902   4.397 -0.1414 -0.1795 -0.1254
  905MOL0     C24796  10.444   7.004   4.353 -0.7688  0.5360  0.3448
  905MOL0    Cl24797  10.602   6.963   4.420  0.0774 -0.5309 -0.4059
  905MOL0     C24798   9.594   7.535   4.773  1.2652 -0.8077  0.5029
  905MOL0     C24799   9.467   7.590   4.799 -0.3538  0.1009 -0.8629
  905MOL0     O24800   9.277   7.804   4.904  0.6098 -0.3079  0.0694
  905MOL0     C24801   8.978   7.614   4.960  0.1186 -0.2246  0.3091
  905MOL0     C24802   8.842   7.616   4.978 -0.6878 -0.2674  1.1629
  905MOL0     N24803   8.726   7.613   4.649  0.1067  0.7573 -0.6669
  905MOL0     N24804   8.840   7.652   4.624  0.1753 -0.1717 -0.8201
  905MOL0     C24805   9.914   7.695   4.447  0.8024 -0.4591  0.5297
  905MOL0     C24806  10.042   7.642   4.455 -0.4102  0.3241  0.0106
  905MOL0     C24807  10.443   7.449   4.450 -0.1467  0.0271  0.6824
  905MOL0     C24808  10.500   7.458   4.323  0.0224  0.4257 -0.6108
  905MOL0     C24809  10.635   7.416   4.308 -0.2089 -0.3981  0.2124
  905MOL0     C24810  10.712   7.379   4.421  0.2272  0.2132  0.9318
  905MOL0     O24811  10.846   7.355   4.409 -0.1478  0.2571  0.4167
  905MOL0     C24812  10.868   7.270   4.295  0.0312 -0.0053 -0.2332
  905MOL0     C24813  10.961   7.166   4.354 -0.3752 -0.1508 -0.7161
  905MOL0     C24814  11.110   7.182   4.357  0.2238  0.2713 -0.6084
  905MOL0     C24815  11.165   7.326   4.394 -0.3228  0.1758 -0.5860
  905MOL0     C24816  11.313   7.316   4.409 -0.0749 -0.5662  0.3834
  905MOL0     C24817  11.440   7.306   4.403  0.3598 -0.1329 -1.0866
  905MOL0     C24818  10.650   7.358   4.538 -0.1531 -0.4617 -1.0231
  905MOL0     C24819  10.520   7.390   4.559  0.2522 -0.5791 -0.5694
  905MOL0     C24820  10.463   7.368   4.698 -0.2773  0.5331 -0.3292
  905MOL0     H24821  10.130   7.602   4.131 -0.3008 -0.8151  0.3269
  905MOL0     H24822   9.919   7.739   4.110 -1.4400  0.8048  1.0420
  905MOL0     H24823   9.718   7.911   4.436 -0.8863 -1.1433  1.7028
  905MOL0     H24824   9.657   7.745   4.453  1.4514 -0.0470  0.0746
  905MOL0     H24825   9.554   7.959   4.273  2.0891 -0.5297  0.3858
  905MOL0     H24826   9.480   7.800   4.294 -0.5596 -1.3098  2.7237
  905MOL0     H24827   9.456   7.852   4.544 -3.4321  0.1307  0.5169
  905MOL0     H24828   9.495   8.023   4.495 -0.9526  1.3159 -2.5012
  905MOL0     H24829   9.302   7.997   4.328  1.9567 -1.5517 -1.3841
  905MOL0     H24830   9.265   7.848   4.418 -1.5925  1.0962 -0.2892
  905MOL0     H24831   9.267   8.104   4.589 -3.7715  1.3615  0.2678
  905MOL0     H24832   9.214   7.939   4.613 -1.3167 -0.1399  0.8352
  905MOL0     H24833   9.052   8.148   4.563  0.6166 -1.2256  1.9666
  905MOL0     H24834   9.103   8.139   4.401  1.2489  1.5379  0.8897
  905MOL0     H24835   9.006   7.906   4.378  0.4600 -0.1521 -0.6771
  905MOL0     H24836   8.881   8.019   4.438 -0.1128 -1.0408 -1.4173
  905MOL0     H24837   9.031   7.819   4.612  1.6053  1.1756 -2.6837
  905MOL0     H24838   8.915   7.940   4.677  0.0382  0.6466 -1.2739
  905MOL0     H24839   8.665   7.915   4.541  0.9023  0.0250 -0.9112
  905MOL0     H24840   8.463   7.580   4.665  0.5660 -0.3537  2.9635
  905MOL0     H24841   8.424   7.724   4.567  1.9984 -1.7666 -1.7749
  905MOL0     H24842   8.510   7.843   4.801 -1.0367  1.8852 -1.6710
  905MOL0     H24843   8.345   7.809   4.756  0.4347  1.1724  0.1643
  905MOL0     H24844   8.371   7.740   4.988  0.9457 -2.2346  1.4626
  905MOL0     H24845   8.349   7.605   4.887 -1.0725  1.7369 -3.4577
  905MOL0     H24846   8.538   7.561   5.050 -0.8346 -1.7673 -0.9361
  905MOL0     H24847   8.586   7.561   4.877 -0.1981  2.0547 -1.2251
  905MOL0     H24848   8.794   7.945   4.946 -0.8492 -1.2563 -0.1125
  905MOL0     H24849   9.097   7.998   4.822 -0.5513 -0.4348  0.0223
  905MOL0     H24850   9.129   8.005   5.007 -1.8360  1.0966  0.5147
  905MOL0     H24851   8.979   8.050   4.930 -1.7658 -2.0180 -0.4742
  905MOL0     H24852   9.392   7.423   5.083 -0.2340  2.2450  0.9667
  905MOL0     H24853   9.614   7.366   5.073 -1.4400 -1.2941 -0.1808
  905MOL0     H24854   9.737   7.247   4.736  1.1089  0.2465  0.7792
  905MOL0     H24855   9.824   7.397   4.673  2.7139  2.2442  2.0975
  905MOL0     H24856  10.018   7.319   4.804  1.7192  0.8823 -1.9035
  905MOL0     H24857   9.938   7.165   4.820  3.4129 -1.9598 -0.9006
  905MOL0     H24858  10.041   7.295   4.568  4.5226 -0.8900  1.2606
  905MOL0     H24859   9.916   7.180   4.546 -0.3959  1.8236 -0.0897
  905MOL0     H24860  10.046   7.012   4.675  0.2066 -0.7586 -0.3779
  905MOL0     H24861  10.171   7.136   4.711  0.0560 -0.8919  1.1567
  905MOL0     H24862  10.084   7.018   4.440 -0.7660 -0.1372  1.8828
  905MOL0     H24863  10.198   7.147   4.454 -1.3417  1.1976  0.6901
  905MOL0     H24864  10.240   6.876   4.584 -0.9662 -1.2512 -1.3255
  905MOL0     H24865  10.352   7.003   4.592  1.5185 -1.3658  0.4275
  905MOL0     H24866  10.258   6.902   4.323  0.3157 -2.3505 -0.6988
  905MOL0     H24867  10.387   6.805   4.415 -0.2526 -0.2406 -0.1542
  905MOL0     H24868  10.396   7.102   4.367 -1.7072  0.3376 -1.1519
  905MOL0     H24869  10.448   6.987   4.245 -1.3169 -0.6600  0.4965
  905MOL0     H24870   9.633   7.566   4.676 -1.0807  3.1267  0.6057
  905MOL0     H24871   9.421   7.655   4.725 -1.6299 -1.8106 -1.8318
  905MOL0     H24872   9.024   7.518   4.977  1.8917  0.6946  0.9675
  905MOL0     H24873   8.800   7.516   4.981  1.9014 -1.5378 -0.9676
  905MOL0     H24874   9.858   7.726   4.534 -1.2323  2.5406 -1.6829
  905MOL0     H24875  10.091   7.638   4.552 -0.6643  1.4836  0.1994
  905MOL0     H24876  10.445   7.486   4.234 -0.5262 -1.9301 -1.0968
  905MOL0     H24877  10.674   7.419   4.207 -0.9435  1.9317 -0.0563
  905MOL0     H24878  10.781   7.215   4.258 -2.5541  3.7526 -0.3101
  905MOL0     H24879  10.924   7.324   4.218 -1.7094  0.9549 -0.8946
  905MOL0     H24880  10.948   7.073   4.298 -1.9807  0.6952 -1.8343
  905MOL0     H24881  10.932   7.139   4.456  1.0628 -0.2595 -0.3206
  905MOL0     H24882  11.154   7.106   4.421  0.2368  0.8156  0.0375
  905MOL0     H24883  11.133   7.154   4.253 -0.1006 -1.6860 -0.1846
  905MOL0     H24884  11.119   7.361   4.487  1.1713 -1.6106  0.9125
  905MOL0     H24885  11.142   7.405   4.322  1.5273  0.9367 -0.4019
  905MOL0     H24886  11.547   7.296   4.410  0.3509  0.4900  0.0565
  905MOL0     H24887  10.716   7.319   4.616 -0.0914  0.6901 -0.4748
  905MOL0     H24888  10.406   7.275   4.687 -0.5133  0.4885  1.1418
  905MOL0     H24889  10.539   7.358   4.776  0.4057  0.6733 -0.9666
  905MOL0     H24890  10.394   7.448   4.726 -1.9818 -1.0706  0.1957
  906MOL0     O24891   7.770   7.612   9.002  0.0600 -0.6534 -0.3971
  906MOL0     C24892   7.754   7.707   8.924  0.6594  0.1094 -0.3887
  906MOL0     O24893   7.640   7.729   8.861 -0.1447 -0.8484 -0.3942
  906MOL0     C24894   7.548   7.632   8.851 -0.6456 -0.3528 -1.2797
  906MOL0     C24895   7.515   7.577   8.730  0.4910 -0.1064  0.1695
  906MOL0     C24896   7.402   7.487   8.725 -0.4884 -0.1873  0.3535
  906MOL0     C24897   7.324   7.457   8.841 -0.3586  0.7106 -0.1404
  906MOL0     O24898   7.210   7.388   8.818  0.3150 -0.6197  0.2482
  906MOL0     C24899   7.181   7.292   8.924  0.2076 -0.8704  0.3340
  906MOL0     C24900   7.110   7.177   8.852  0.1799  0.7463  0.1647
  906MOL0     C24901   7.025   7.104   8.945 -0.1968 -0.4815 -0.1465
  906MOL0     C24902   6.945   6.999   8.881 -0.3612 -0.2773 -0.5174
  906MOL0     C24903   6.888   6.909   8.992 -0.5009 -0.2831  0.2635
  906MOL0     C24904   6.821   6.792   8.934 -0.0459  0.3640  0.3233
  906MOL0     C24905   6.917   6.677   8.903 -0.0841 -0.1173 -0.5788
  906MOL0     C24906   6.862   6.577   8.807 -0.3950 -0.5713  0.1133
  906MOL0     N24907   6.752   6.498   8.860  0.4021 -0.2672  0.2047
  906MOL0     C24908   6.623   6.540   8.847  0.0779  0.2494  1.0834
  906MOL0     C24909   6.558   6.440   8.904 -0.0839  0.1911 -0.3085
  906MOL0     C24910   6.413   6.426   8.921  0.3177 -0.1783  0.4679
  906MOL0     C24911   6.354   6.335   8.803  0.2702  0.1842 -0.9697
  906MOL0     C24912   6.339   6.398   8.664 -0.0491 -0.3190 -0.5358
  906MOL0     C24913   6.329   6.302   8.543  0.3824 -0.9288  0.6782
  906MOL0     O24914   6.449   6.224   8.530  0.3774 -0.2131  0.2260
  906MOL0     C24915   6.562   6.291   8.503  0.8864  0.4809 -1.1831
  906MOL0     C24916   6.579   6.360   8.385  0.3349 -0.7027 -0.8653
  906MOL0     C24917   6.706   6.413   8.361 -0.0763 -0.1931  0.5227
  906MOL0     C24918   6.723   6.469   8.212 -1.0881  0.1704  0.1391
  906MOL0     C24919   6.800   6.420   8.463  0.6882 -0.4256  0.5645
  906MOL0     C24920   6.934   6.476   8.441 -0.0755  0.0987  0.6324
  906MOL0     O24921   7.005   6.490   8.556 -0.2807 -0.2661  0.2367
  906MOL0     C24922   7.140   6.502   8.537 -0.2548  1.3769 -0.9243
  906MOL0     C24923   7.219   6.392   8.517 -0.2754 -0.3267  0.5330
  906MOL0     C24924   7.356   6.411   8.519 -0.0779  0.1604  0.1538
  906MOL0     C24925   7.415   6.537   8.546  0.9055  0.2805 -0.1737
  906MOL0     O24926   7.546   6.554   8.535 -0.0693  0.5981  0.2829
  906MOL0     C24927   7.595   6.539   8.397  0.1873  0.1379 -0.0240
  906MOL0     C24928   7.655   6.671   8.340  0.2753 -0.9103  0.5687
  906MOL0     C24929   7.558   6.796   8.346  0.4897  0.0476  1.0843
  906MOL0     C24930   7.639   6.918   8.311 -0.0545 -0.3580  0.3254
  906MOL0     C24931   7.732   6.949   8.432 -0.0465  0.1424  0.4792
  906MOL0     C24932   7.879   6.974   8.377  0.1971 -0.3145 -1.3273
  906MOL0     C24933   7.967   7.041   8.478 -0.3850 -0.0333 -0.5492
  906MOL0     C24934   8.097   7.085   8.414 -0.0896 -0.2065  0.3346
  906MOL0    Cl24935   8.182   6.943   8.350  0.2021 -0.2816  0.2577
  906MOL0     C24936   7.334   6.645   8.559 -0.3668 -0.0886  0.5714
  906MOL0     C24937   7.198   6.625   8.564  0.3984 -0.9855  0.5011
  906MOL0     O24938   6.977   6.489   8.324  0.0672 -0.3710 -0.3928
  906MOL0     C24939   6.772   6.358   8.587  0.3564 -0.1479 -0.6724
  906MOL0     C24940   6.660   6.289   8.603 -0.0300 -0.2020 -0.2808
  906MOL0     N24941   6.646   6.349   8.965 -0.8180  0.5670 -0.0790
  906MOL0     N24942   6.764   6.379   8.928 -0.4158  0.0386  0.8412
  906MOL0     C24943   7.367   7.509   8.964 -0.6294  0.2420 -0.2595
  906MOL0     C24944   7.476   7.598   8.970 -0.0589  0.0514 -0.8957
  906MOL0     C24945   7.871   7.790   8.890 -0.3229  0.4362  0.3945
  906MOL0     C24946   7.874   7.872   8.779  0.2837 -0.9543  0.4729
  906MOL0     C24947   7.981   7.960   8.747  0.0286 -0.1497 -0.4419
  906MOL0     C24948   8.099   7.965   8.827  0.6280 -0.0166  0.0924
  906MOL0     O24949   8.202   8.048   8.790 -0.3175  0.0240  0.2409
  906MOL0     C24950   8.339   8.017   8.821  0.3886  0.3927  0.2002
  906MOL0     C24951   8.386   7.888   8.761 -0.5872  0.2032 -0.1905
  906MOL0     C24952   8.413   7.894   8.612  0.3259 -0.4508  0.8670
  906MOL0     C24953   8.434   7.748   8.548 -0.6394 -0.1695  0.6682
  906MOL0     C24954   8.513   7.756   8.423  0.5614  1.1573  0.1752
  906MOL0     C24955   8.588   7.758   8.335  0.7225 -0.3475  0.3075
  906MOL0     C24956   8.098   7.893   8.948  0.5452 -0.6006 -0.3624
  906MOL0     C24957   7.993   7.795   8.971 -1.1973 -0.3375 -0.4862
  906MOL0     C24958   8.015   7.719   9.106 -0.2142  0.3809  0.0767
  906MOL0     H24959   7.572   7.605   8.642  0.3228 -0.5099 -0.0665
  906MOL0     H24960   7.368   7.439   8.634 -1.0478 -2.1500  1.5164
  906MOL0     H24961   7.116   7.339   8.999  1.6893 -1.5899  2.1542
  906MOL0     H24962   7.272   7.252   8.971 -0.0028 -2.7772 -0.7946
  906MOL0     H24963   7.052   7.218   8.769  1.4030  2.0200 -0.0901
  906MOL0     H24964   7.184   7.111   8.806  1.4683  1.0359  1.7115
  906MOL0     H24965   7.089   7.050   9.016  2.0920 -0.0380 -1.7703
  906MOL0     H24966   6.945   7.162   8.991 -1.0764 -1.9666  0.2734
  906MOL0     H24967   6.867   7.039   8.815  1.4730  1.5038 -1.7120
  906MOL0     H24968   7.021   6.943   8.825  0.4205  1.4121 -1.2205
  906MOL0     H24969   6.814   6.969   9.047 -1.1028 -2.1187  1.5662
  906MOL0     H24970   6.970   6.874   9.055  2.1769  0.2316 -2.7112
  906MOL0     H24971   6.748   6.754   9.006 -0.2204  1.1992  0.5953
  906MOL0     H24972   6.770   6.827   8.843  1.4994 -0.3362 -0.8610
  906MOL0     H24973   6.954   6.632   8.995  0.8284  2.1949  0.2657
  906MOL0     H24974   7.003   6.727   8.858 -2.3561  2.7150 -2.1030
  906MOL0     H24975   6.826   6.638   8.723  0.1200  0.9849  0.9692
  906MOL0     H24976   6.948   6.515   8.780  1.3849  1.3402  1.0931
  906MOL0     H24977   6.575   6.627   8.804 -3.5866 -1.3392  1.6265
  906MOL0     H24978   6.368   6.526   8.923  0.1614 -0.1601 -1.5792
  906MOL0     H24979   6.386   6.379   9.016  1.1823 -0.2591  0.6805
  906MOL0     H24980   6.415   6.243   8.799 -1.4910 -1.0539 -0.4781
  906MOL0     H24981   6.256   6.309   8.843 -0.7197  2.6300 -1.6774
  906MOL0     H24982   6.249   6.460   8.663  1.5498  2.1527 -0.1739
  906MOL0     H24983   6.424   6.466   8.663 -0.3721  0.1801  1.2662
  906MOL0     H24984   6.246   6.232   8.551  1.1170 -1.6032  3.5171
  906MOL0     H24985   6.306   6.365   8.456 -1.1450 -1.1766  0.8790
  906MOL0     H24986   6.494   6.363   8.317  0.2665 -1.4263 -0.8126
  906MOL0     H24987   6.777   6.405   8.142 -1.8741  2.9301 -3.3055
  906MOL0     H24988   6.781   6.562   8.210  1.8164 -1.5475 -0.6900
  906MOL0     H24989   6.626   6.484   8.163 -0.7630  0.5247 -0.4059
  906MOL0     H24990   7.183   6.292   8.498  0.4317 -0.2912 -1.1884
  906MOL0     H24991   7.413   6.322   8.494 -1.1096  0.3877 -3.6913
  906MOL0     H24992   7.667   6.457   8.399 -2.1126 -2.0081 -0.8830
  906MOL0     H24993   7.514   6.501   8.336 -1.0907 -1.0347  2.2602
  906MOL0     H24994   7.743   6.690   8.402 -0.0098 -0.6216  0.8883
  906MOL0     H24995   7.687   6.651   8.237  1.3099  0.0047  0.7029
  906MOL0     H24996   7.504   6.810   8.440 -0.6330 -0.4965  0.5366
  906MOL0     H24997   7.489   6.785   8.262  0.4385  0.3814  1.0832
  906MOL0     H24998   7.577   7.007   8.295  1.9432  1.5888  2.5895
  906MOL0     H24999   7.696   6.897   8.220  0.5895  1.3261  0.3110
  906MOL0     H25000   7.682   7.030   8.486 -0.8253  0.4720 -0.6844
  906MOL0     H25001   7.730   6.860   8.495  0.5915  2.4027  3.9744
  906MOL0     H25002   7.879   7.051   8.299  0.0298  0.4594 -0.5698
  906MOL0     H25003   7.914   6.874   8.350 -1.4682 -1.8259  1.6874
  906MOL0     H25004   7.995   6.963   8.550 -0.8684  1.3703  1.2250
  906MOL0     H25005   7.927   7.125   8.535  1.1913 -0.9031  2.0563
  906MOL0     H25006   8.161   7.128   8.491  0.6138 -0.9028  0.1532
  906MOL0     H25007   8.071   7.157   8.336  0.9712  0.5921  0.7033
  906MOL0     H25008   7.385   6.737   8.582  2.0716 -1.2835  0.2609
  906MOL0     H25009   7.130   6.707   8.584 -1.2523 -1.9892 -0.6464
  906MOL0     H25010   6.843   6.342   8.668  0.5653 -2.5171 -1.2436
  906MOL0     H25011   6.648   6.240   8.699 -0.2261 -0.8928 -0.6488
  906MOL0     H25012   7.315   7.479   9.055  0.1710 -3.8168 -0.9308
  906MOL0     H25013   7.503   7.632   9.069  3.0220  0.2508 -1.6945
  906MOL0     H25014   7.790   7.872   8.710  1.4447 -1.7802 -0.9871
  906MOL0     H25015   7.982   8.025   8.660  1.0169 -0.5632 -0.7566
  906MOL0     H25016   8.410   8.094   8.790  0.8504 -1.0965 -2.8275
  906MOL0     H25017   8.340   8.000   8.929 -1.5178 -1.4148  0.0049
  906MOL0     H25018   8.315   7.806   8.782 -0.4420 -0.6269 -2.5690
  906MOL0     H25019   8.480   7.855   8.806 -1.6223 -2.6034  0.1259
  906MOL0     H25020   8.327   7.941   8.561  1.4604  0.3926 -0.3423
  906MOL0     H25021   8.498   7.962   8.598 -1.7855  2.4677  1.1157
  906MOL0     H25022   8.336   7.704   8.529 -0.6642 -1.0536  2.5754
  906MOL0     H25023   8.477   7.672   8.615 -2.3143 -3.6058 -1.8523
  906MOL0     H25024   8.661   7.752   8.257 -0.4585  2.3030 -1.1525
  906MOL0     H25025   8.172   7.900   9.027 -1.3046 -1.1499  1.5308
  906MOL0     H25026   7.937   7.750   9.176 -1.8595  1.3105 -2.0381
  906MOL0     H25027   8.012   7.611   9.090  0.2738  0.2369  0.9139
  906MOL0     H25028   8.109   7.737   9.160 -1.1880  1.2728  1.5756
  907MOL0     O25029   2.085   8.900   3.902  0.3939 -0.1147  0.0514
  907MOL0     C25030   2.141   8.999   3.861 -0.0213 -0.1300 -0.4201
  907MOL0     O25031   2.274   9.035   3.876  1.2530  0.6094  0.3752
  907MOL0     C25032   2.360   8.944   3.932  0.7383  0.1533  0.4417
  907MOL0     C25033   2.343   8.889   4.057 -0.6913  0.1192  0.1796
  907MOL0     C25034   2.433   8.794   4.105 -0.9547  0.1101 -0.7421
  907MOL0     C25035   2.546   8.753   4.034  0.1677  1.8903 -1.1978
  907MOL0     O25036   2.629   8.657   4.089  0.1420 -0.1402 -0.9151
  907MOL0     C25037   2.762   8.646   4.032  0.5944  0.5743  0.3328
  907MOL0     C25038   2.863   8.585   4.124  0.8837  0.2827  0.0119
  907MOL0     C25039   2.868   8.429   4.138  0.3975  0.4705  0.5646
  907MOL0     C25040   2.743   8.370   4.192 -0.4200 -0.5840  0.1155
  907MOL0     C25041   2.747   8.218   4.177  0.5910  0.4304  0.3604
  907MOL0     C25042   2.725   8.146   4.034 -0.2241 -0.2078 -0.1789
  907MOL0     C25043   2.711   7.992   4.045 -0.5129  0.2060 -0.2209
  907MOL0     C25044   2.819   7.909   4.109 -0.0412  1.0453  0.3870
  907MOL0     N25045   2.941   7.913   4.041  1.0547 -1.2200 -0.2879
  907MOL0     C25046   2.968   7.868   3.909 -0.3923  0.9499  0.0520
  907MOL0     C25047   3.102   7.874   3.894  0.5584 -0.5241 -0.4829
  907MOL0     C25048   3.189   7.837   3.780  0.5098  0.1799 -0.2946
  907MOL0     C25049   3.248   7.697   3.796 -0.9186  0.1670  0.4205
  907MOL0     C25050   3.330   7.659   3.665  0.3685  0.0998 -0.4871
  907MOL0     C25051   3.474   7.711   3.673 -0.0479  0.7953  0.4237
  907MOL0     O25052   3.534   7.657   3.561  0.3071 -0.2538  0.3810
  907MOL0     C25053   3.676   7.659   3.549  0.3291 -0.0268 -0.4483
  907MOL0     C25054   3.742   7.576   3.448  0.4154 -0.6293  0.6622
  907MOL0     C25055   3.881   7.592   3.419  0.3426  1.6054 -0.2178
  907MOL0     C25056   3.935   7.507   3.308 -0.0742  0.2748 -1.5929
  907MOL0     C25057   3.963   7.680   3.494 -1.1235 -0.4103 -0.2646
  907MOL0     C25058   4.106   7.706   3.474  0.5776  0.4650 -0.1320
  907MOL0     O25059   4.176   7.756   3.583 -0.5199 -0.0050  0.1898
  907MOL0     C25060   4.309   7.778   3.579  1.1711  0.4376 -0.0306
  907MOL0     C25061   4.375   7.841   3.471  0.0038 -0.0895  0.4407
  907MOL0     C25062   4.514   7.853   3.480 -0.5283  0.1021 -0.1457
  907MOL0     C25063   4.583   7.826   3.600 -0.6189 -0.6420  0.6896
  907MOL0     O25064   4.718   7.854   3.595 -0.2981 -0.2133  0.2969
  907MOL0     C25065   4.788   7.870   3.720 -0.9993 -0.2347 -0.2476
  907MOL0     C25066   4.909   7.960   3.713  0.3891  0.4606  0.2287
  907MOL0     C25067   4.870   8.092   3.670 -0.4754  0.4423  0.2321
  907MOL0     C25068   4.999   8.179   3.662 -0.6616 -0.0551 -0.0447
  907MOL0     C25069   4.969   8.324   3.627  0.0597 -0.6192 -0.3260
  907MOL0     C25070   5.078   8.431   3.627 -0.7483  0.2042 -0.5653
  907MOL0     C25071   5.134   8.457   3.764  0.9252 -0.5298 -0.5305
  907MOL0     C25072   5.202   8.596   3.757  0.0427 -0.5693 -1.0303
  907MOL0    Cl25073   5.324   8.610   3.630 -0.2100  0.3194  0.3725
  907MOL0     C25074   4.519   7.776   3.713 -0.0934  0.6286 -0.2405
  907MOL0     C25075   4.386   7.751   3.700  0.6984 -0.7812  0.5378
  907MOL0     O25076   4.153   7.685   3.365  0.1442  0.0587  0.4361
  907MOL0     C25077   3.894   7.753   3.594  0.2411 -0.1232 -0.1963
  907MOL0     C25078   3.759   7.740   3.620 -0.7656 -0.2321 -0.0884
  907MOL0     N25079   3.155   7.907   4.017  0.5373  0.0727 -0.2483
  907MOL0     N25080   3.059   7.938   4.098 -0.2006 -0.1213 -0.7593
  907MOL0     C25081   2.568   8.821   3.913 -0.0188  1.0873 -0.0464
  907MOL0     C25082   2.476   8.912   3.856  0.2382  0.2474 -0.0846
  907MOL0     C25083   2.045   9.114   3.798 -0.0494  0.5852 -0.0885
  907MOL0     C25084   1.914   9.065   3.781  0.3285  0.1915 -0.0770
  907MOL0     C25085   1.805   9.146   3.754  0.1383 -0.3554  0.1308
  907MOL0     C25086   1.832   9.281   3.725 -0.0468  0.2480 -0.0690
  907MOL0     O25087   1.740   9.387   3.725 -0.3339  0.1290 -0.0137
  907MOL0     C25088   1.609   9.353   3.762 -0.9377  0.3699  0.7818
  907MOL0     C25089   1.513   9.477   3.743  0.3156  0.4401 -0.9137
  907MOL0     C25090   1.543   9.587   3.845  0.0308  0.2911 -0.3999
  907MOL0     C25091   1.625   9.702   3.787 -0.0814 -0.4837  0.1393
  907MOL0     C25092   1.628   9.823   3.861 -0.7944  0.4723  0.1355
  907MOL0     C25093   1.636   9.918   3.930  0.2429 -0.0424 -0.6711
  907MOL0     C25094   1.964   9.328   3.733  0.3802 -1.1985  0.5330
  907MOL0     C25095   2.070   9.246   3.766 -0.5485 -0.4169 -0.5606
  907MOL0     C25096   2.205   9.309   3.781  0.2368  0.0070  0.5604
  907MOL0     H25097   2.265   8.913   4.128  0.9368 -1.1680  2.5301
  907MOL0     H25098   2.405   8.748   4.199 -2.2303 -2.5543 -2.2883
  907MOL0     H25099   2.787   8.751   4.014  0.2078  0.5822 -0.1632
  907MOL0     H25100   2.752   8.589   3.939 -3.3102  2.9343 -0.9395
  907MOL0     H25101   2.957   8.610   4.075 -0.0944  1.4629 -1.3264
  907MOL0     H25102   2.852   8.616   4.229 -0.9733 -2.5145  0.7671
  907MOL0     H25103   2.886   8.382   4.041  1.0037  2.5788 -0.4161
  907MOL0     H25104   2.950   8.411   4.207 -1.4292 -0.1063  2.6907
  907MOL0     H25105   2.722   8.396   4.296 -2.8335  0.5454 -0.5646
  907MOL0     H25106   2.657   8.409   4.135 -0.2470 -0.0042  0.2418
  907MOL0     H25107   2.665   8.176   4.236  1.7766 -0.5033  1.3948
  907MOL0     H25108   2.839   8.178   4.220  0.3663 -0.0727  0.3844
  907MOL0     H25109   2.637   8.191   3.987 -0.1037  1.3355  1.0156
  907MOL0     H25110   2.816   8.164   3.976 -0.5019  0.1124 -0.5197
  907MOL0     H25111   2.704   7.953   3.943  1.1327 -1.4268  0.2415
  907MOL0     H25112   2.620   7.962   4.097  0.5840  0.3787  1.9092
  907MOL0     H25113   2.836   7.934   4.214 -2.6284 -0.6905  1.3189
  907MOL0     H25114   2.784   7.805   4.112  0.4818  0.6695 -2.9022
  907MOL0     H25115   2.898   7.832   3.834  0.4102 -2.8691  0.9343
  907MOL0     H25116   3.268   7.912   3.777 -0.9921  1.7982 -0.7714
  907MOL0     H25117   3.132   7.836   3.687 -0.4073  2.0365  0.2049
  907MOL0     H25118   3.307   7.682   3.886  0.9111 -0.5870 -0.8552
  907MOL0     H25119   3.167   7.625   3.810 -2.0041  1.2624  0.0142
  907MOL0     H25120   3.319   7.550   3.666  0.1376  0.1172  0.6772
  907MOL0     H25121   3.288   7.693   3.570  1.3007 -2.5710 -1.9642
  907MOL0     H25122   3.478   7.820   3.661  0.9162  0.7526  0.2298
  907MOL0     H25123   3.516   7.680   3.769 -1.3411 -1.6188  0.2677
  907MOL0     H25124   3.680   7.511   3.387 -0.5643  1.0769 -0.2417
  907MOL0     H25125   3.954   7.578   3.227 -1.6110  1.9926 -0.5366
  907MOL0     H25126   3.862   7.433   3.275 -2.5462  0.8975  1.8469
  907MOL0     H25127   4.028   7.456   3.335  0.3431  1.9569  0.3898
  907MOL0     H25128   4.317   7.860   3.381  0.8459 -0.6042 -0.2322
  907MOL0     H25129   4.558   7.895   3.390 -0.0337 -1.9784 -0.9422
  907MOL0     H25130   4.727   7.922   3.795  2.7843 -0.6027  3.4160
  907MOL0     H25131   4.814   7.776   3.769  1.2548  0.9630  1.0218
  907MOL0     H25132   4.948   7.966   3.815  3.6461  0.2420 -0.8984
  907MOL0     H25133   4.980   7.915   3.643  0.7403  1.2656  0.0604
  907MOL0     H25134   4.796   8.139   3.735 -2.2807 -0.6391 -0.9799
  907MOL0     H25135   4.833   8.087   3.567  2.3931  0.3683 -0.9045
  907MOL0     H25136   5.056   8.135   3.579 -0.6716  2.5672 -1.5526
  907MOL0     H25137   5.057   8.184   3.754 -0.2587 -1.9754 -0.1453
  907MOL0     H25138   4.923   8.324   3.528 -0.7514  0.9460  0.0159
  907MOL0     H25139   4.886   8.349   3.694 -1.1659 -2.5215 -1.0526
  907MOL0     H25140   5.038   8.524   3.584  2.2125  1.4398 -0.9424
  907MOL0     H25141   5.156   8.380   3.570  0.2595 -2.7172  3.0456
  907MOL0     H25142   5.202   8.374   3.787 -0.1853 -2.2878 -3.1836
  907MOL0     H25143   5.055   8.450   3.840  1.3281  1.1699  0.1069
  907MOL0     H25144   5.246   8.611   3.856 -0.7327 -1.3669 -0.5501
  907MOL0     H25145   5.136   8.682   3.740 -0.9563 -1.6264 -2.8602
  907MOL0     H25146   4.568   7.741   3.803  2.6571  2.7225 -0.7743
  907MOL0     H25147   4.335   7.708   3.785  1.4799  0.8476  1.8785
  907MOL0     H25148   3.945   7.825   3.657 -1.4766  0.7538  0.2527
  907MOL0     H25149   3.728   7.793   3.709  0.7284 -1.9030  1.5112
  907MOL0     H25150   2.660   8.789   3.865  0.6227  0.5187  1.5094
  907MOL0     H25151   2.482   8.959   3.759 -1.5592  1.6785  0.4251
  907MOL0     H25152   1.883   8.965   3.811  1.8234 -0.1534  0.4021
  907MOL0     H25153   1.705   9.105   3.762 -0.2616  0.7521  1.0113
  907MOL0     H25154   1.571   9.275   3.695 -2.8702  2.6190 -0.9541
  907MOL0     H25155   1.607   9.303   3.859 -0.0292 -2.5838 -0.5968
  907MOL0     H25156   1.405   9.457   3.746  0.2615  0.7710  1.5770
  907MOL0     H25157   1.520   9.515   3.641 -0.2047  0.4317 -0.9582
  907MOL0     H25158   1.449   9.628   3.882 -0.2633 -0.0639 -0.7385
  907MOL0     H25159   1.582   9.542   3.936  0.3784  0.8566 -0.2649
  907MOL0     H25160   1.588   9.720   3.685 -3.4483 -4.3383  0.3997
  907MOL0     H25161   1.728   9.666   3.784  0.2095  0.3916 -1.4547
  907MOL0     H25162   1.628  10.006   3.990 -2.0721 -2.1678  2.4620
  907MOL0     H25163   1.968   9.436   3.724  1.6482 -1.3216 -0.5512
  907MOL0     H25164   2.206   9.344   3.885  0.0763  1.5336  0.0690
  907MOL0     H25165   2.283   9.232   3.776 -0.7514 -1.0671  1.2418
  907MOL0     H25166   2.214   9.388   3.706  1.4403 -1.0988 -0.5035
  908MOL0     O25167   4.738   6.168   7.630  0.1486  0.5259  0.3437
  908MOL0     C25168   4.717   6.126   7.736  0.9456  1.6398  0.3558
  908MOL0     O25169   4.793   6.128   7.843  0.2286  0.1639  0.4911
  908MOL0     C25170   4.912   6.192   7.842  0.4570  0.5683 -0.0038
  908MOL0     C25171   5.016   6.130   7.781 -0.8945  1.0046  0.4834
  908MOL0     C25172   5.139   6.198   7.775  0.7760  0.3089  0.9549
  908MOL0     C25173   5.156   6.327   7.823  0.0164  0.0248  0.3797
  908MOL0     O25174   5.283   6.382   7.808 -0.4088 -0.2079 -0.3150
  908MOL0     C25175   5.304   6.497   7.894  0.4392 -0.7788 -0.4771
  908MOL0     C25176   5.454   6.523   7.892  0.1236  0.2749 -0.0400
  908MOL0     C25177   5.506   6.537   7.753  0.5610 -0.3969 -0.1405
  908MOL0     C25178   5.655   6.572   7.747  0.4441  0.1580 -0.1184
  908MOL0     C25179   5.706   6.559   7.605 -0.3358  0.2186  0.2377
  908MOL0     C25180   5.851   6.618   7.590  0.2026  0.5334  0.3335
  908MOL0     C25181   5.905   6.579   7.448 -0.3974 -0.3621  0.4517
  908MOL0     C25182   5.947   6.428   7.451  0.1308  0.2921  1.3938
  908MOL0     N25183   6.091   6.411   7.497 -0.0726  0.1221  0.3299
  908MOL0     C25184   6.204   6.417   7.424 -0.0520 -0.2182  1.3744
  908MOL0     C25185   6.308   6.387   7.506 -0.0860  0.3124 -0.2149
  908MOL0     C25186   6.456   6.392   7.483  0.1283 -0.0022  0.0909
  908MOL0     C25187   6.506   6.519   7.545  0.1916  0.0632 -0.8264
  908MOL0     C25188   6.654   6.538   7.510 -0.6206  0.3110  0.1828
  908MOL0     C25189   6.706   6.676   7.564 -0.4027 -0.1122  0.2803
  908MOL0     O25190   6.756   6.663   7.697 -0.7220 -0.1320 -0.6725
  908MOL0     C25191   6.829   6.755   7.764  0.4329  0.3269 -0.3992
  908MOL0     C25192   6.907   6.721   7.877  0.2965 -0.0027 -0.7606
  908MOL0     C25193   7.001   6.799   7.943 -0.0777 -0.9116  0.2253
  908MOL0     C25194   7.081   6.740   8.049 -0.0340 -0.2305  0.3480
  908MOL0     C25195   7.006   6.933   7.898  0.1791  0.9354 -1.3905
  908MOL0     C25196   7.104   7.031   7.959  0.1819 -0.6134  1.1088
  908MOL0     O25197   7.137   7.138   7.880 -0.1431  0.2005  0.5076
  908MOL0     C25198   7.245   7.218   7.920 -0.0849  0.9732  1.1226
  908MOL0     C25199   7.237   7.352   7.897  0.6827  0.3599  0.4220
  908MOL0     C25200   7.337   7.442   7.935 -0.9587 -0.1836  0.1192
  908MOL0     C25201   7.454   7.389   7.995  0.0985 -0.7836  0.0812
  908MOL0     O25202   7.550   7.476   8.041 -0.0533 -0.4750  0.2843
  908MOL0     C25203   7.682   7.426   8.035 -0.4765 -0.1386  0.9529
  908MOL0     C25204   7.745   7.371   8.159  0.2163  0.2417 -0.1659
  908MOL0     C25205   7.787   7.478   8.256 -0.3682  0.2634  1.0252
  908MOL0     C25206   7.807   7.429   8.397 -0.6014  0.4905 -0.0527
  908MOL0     C25207   7.873   7.526   8.492  0.8107 -0.0365  0.4502
  908MOL0     C25208   7.892   7.462   8.628 -0.7109 -0.4533 -0.3703
  908MOL0     C25209   8.005   7.523   8.722 -1.1533 -0.2608  0.2840
  908MOL0     C25210   8.142   7.492   8.647  0.0122 -0.4133 -0.1723
  908MOL0    Cl25211   8.268   7.503   8.772 -0.1627 -0.5999  0.3306
  908MOL0     C25212   7.460   7.247   8.010  0.6401 -0.8111 -0.6751
  908MOL0     C25213   7.361   7.159   7.962 -0.8586 -0.5721 -0.0147
  908MOL0     O25214   7.147   7.014   8.074 -0.2984 -0.0988 -0.2336
  908MOL0     C25215   6.939   6.971   7.784  0.7611  0.3770 -0.1371
  908MOL0     C25216   6.856   6.880   7.715  0.2505  0.0557  0.5514
  908MOL0     N25217   6.253   6.357   7.630  0.2220 -0.0084 -0.6261
  908MOL0     N25218   6.124   6.373   7.628 -0.2267 -0.2257  0.1338
  908MOL0     C25219   5.052   6.383   7.899 -0.7475  0.5681 -0.7028
  908MOL0     C25220   4.931   6.309   7.908  0.4719 -0.1273 -0.6236
  908MOL0     C25221   4.598   6.038   7.755 -0.7150  0.7680  0.3263
  908MOL0     C25222   4.617   5.920   7.833  0.6729 -0.3693 -0.3082
  908MOL0     C25223   4.514   5.841   7.874 -0.2427  0.1560 -0.0912
  908MOL0     C25224   4.384   5.873   7.829  0.1438  0.2719  0.2471
  908MOL0     O25225   4.281   5.783   7.861  0.3618  0.1994 -0.6105
  908MOL0     C25226   4.181   5.840   7.944  0.0524  0.0704 -0.0754
  908MOL0     C25227   4.063   5.757   7.932 -0.6084 -1.2290  0.4990
  908MOL0     C25228   4.001   5.776   7.789  0.5456 -0.0366 -0.3119
  908MOL0     C25229   3.866   5.695   7.766 -0.2232 -0.6265 -0.1295
  908MOL0     C25230   3.838   5.671   7.624  0.6181 -0.0029  0.3108
  908MOL0     C25231   3.839   5.674   7.506  0.5130  0.9885  0.0177
  908MOL0     C25232   4.355   5.991   7.753 -0.1762 -0.2450  0.0031
  908MOL0     C25233   4.461   6.073   7.721 -0.0325 -0.1613  0.7320
  908MOL0     C25234   4.434   6.197   7.636 -0.0259 -0.4179 -0.4810
  908MOL0     H25235   4.996   6.035   7.733 -2.8830  1.0987  1.0705
  908MOL0     H25236   5.223   6.160   7.719  0.3576 -0.5450  0.9014
  908MOL0     H25237   5.269   6.477   7.995 -1.0043 -0.0081 -0.8047
  908MOL0     H25238   5.252   6.585   7.855  2.8022  0.6928 -0.5501
  908MOL0     H25239   5.466   6.615   7.950 -0.0368  1.4324 -1.8046
  908MOL0     H25240   5.506   6.436   7.935  1.9676  0.9671 -0.7675
  908MOL0     H25241   5.491   6.441   7.703 -0.8482 -0.1791 -0.1771
  908MOL0     H25242   5.442   6.607   7.699 -1.0200 -1.9988 -0.4312
  908MOL0     H25243   5.664   6.674   7.784 -2.2565 -0.3584  2.3578
  908MOL0     H25244   5.721   6.504   7.802 -2.8133 -1.4343  2.1929
  908MOL0     H25245   5.636   6.604   7.533 -0.3616  0.3727  0.3580
  908MOL0     H25246   5.706   6.454   7.574  1.1054 -0.2201  1.6238
  908MOL0     H25247   5.853   6.727   7.599  1.0176  0.3401  4.1578
  908MOL0     H25248   5.920   6.577   7.664  0.4800 -0.6618 -0.5599
  908MOL0     H25249   5.984   6.652   7.428 -1.2532  0.6839  0.8415
  908MOL0     H25250   5.824   6.599   7.377  0.3201  2.7785  0.3825
  908MOL0     H25251   5.880   6.364   7.508 -0.2438 -0.0752  0.5620
  908MOL0     H25252   5.953   6.397   7.346  2.9176 -0.7605  1.7698
  908MOL0     H25253   6.218   6.472   7.331 -2.2351  0.3487  1.3276
  908MOL0     H25254   6.473   6.385   7.375 -0.0987  1.7751 -0.0842
  908MOL0     H25255   6.510   6.311   7.533  1.8434  0.0074 -1.6151
  908MOL0     H25256   6.445   6.589   7.487  0.7940  1.4486  0.1586
  908MOL0     H25257   6.499   6.533   7.653 -0.6448  0.1993 -0.8940
  908MOL0     H25258   6.714   6.457   7.553 -0.5415  0.9325  1.2844
  908MOL0     H25259   6.660   6.528   7.401 -0.5445 -1.1439  0.2949
  908MOL0     H25260   6.783   6.717   7.499  0.1997 -2.7819 -0.8064
  908MOL0     H25261   6.633   6.757   7.557 -3.0825 -2.3946 -0.3279
  908MOL0     H25262   6.886   6.621   7.913 -0.8218  0.6814  0.6052
  908MOL0     H25263   7.062   6.635   8.075  1.2584 -0.0859  2.0794
  908MOL0     H25264   7.053   6.789   8.143  1.0671  2.1101 -0.4653
  908MOL0     H25265   7.188   6.757   8.035  0.3033 -1.7339  0.9126
  908MOL0     H25266   7.156   7.397   7.840  1.9650  2.1147 -0.1220
  908MOL0     H25267   7.329   7.549   7.923 -0.8895 -0.1514  0.3727
  908MOL0     H25268   7.695   7.352   7.956  0.2759 -0.2181  1.1411
  908MOL0     H25269   7.737   7.516   8.003  1.5079 -1.1804  1.2785
  908MOL0     H25270   7.662   7.309   8.197 -1.9892  3.1572  0.0917
  908MOL0     H25271   7.831   7.310   8.130  0.4513 -0.3595  1.6676
  908MOL0     H25272   7.722   7.566   8.254 -0.8751 -0.1023  1.2677
  908MOL0     H25273   7.881   7.524   8.226  0.9328 -3.1543 -0.7199
  908MOL0     H25274   7.871   7.340   8.399 -0.5442  0.5416  1.5314
  908MOL0     H25275   7.715   7.381   8.431 -0.4912  0.2255 -0.1216
  908MOL0     H25276   7.966   7.550   8.440  0.3142 -0.2139 -0.5397
  908MOL0     H25277   7.824   7.624   8.493 -0.5376 -0.6780 -0.0395
  908MOL0     H25278   7.912   7.355   8.636  0.1102 -0.2526  0.4584
  908MOL0     H25279   7.798   7.474   8.683  0.5693  0.6948  1.6966
  908MOL0     H25280   8.001   7.468   8.816  2.6777 -1.1202  0.1047
  908MOL0     H25281   8.006   7.632   8.727 -3.8699  0.0636 -2.6104
  908MOL0     H25282   8.154   7.565   8.567  2.5341 -1.0342 -0.4644
  908MOL0     H25283   8.135   7.396   8.594 -2.5046 -0.2112 -0.3317
  908MOL0     H25284   7.541   7.200   8.065 -0.3714 -3.2723 -1.1976
  908MOL0     H25285   7.388   7.054   7.976  2.0494  0.3137  1.8164
  908MOL0     H25286   6.937   7.076   7.753 -1.7420  0.8824  1.4575
  908MOL0     H25287   6.827   6.916   7.617 -3.0446 -2.4207  0.4289
  908MOL0     H25288   5.064   6.476   7.953  2.1086 -0.6735  1.0192
  908MOL0     H25289   4.846   6.349   7.963 -1.1608 -1.2083 -2.2131
  908MOL0     H25290   4.715   5.897   7.872  1.7318  1.7224 -1.5521
  908MOL0     H25291   4.537   5.745   7.919  1.0349  1.0190  1.1954
  908MOL0     H25292   4.213   5.837   8.048 -2.2203  1.3664  0.7419
  908MOL0     H25293   4.155   5.944   7.921 -2.3996 -0.4562  0.0211
  908MOL0     H25294   4.000   5.795   8.013  1.0963  2.2052  0.3732
  908MOL0     H25295   4.093   5.653   7.952 -2.1733 -1.7089  0.5760
  908MOL0     H25296   3.977   5.882   7.777 -0.0934 -0.2675 -1.1494
  908MOL0     H25297   4.076   5.743   7.717  2.1525  2.8468 -0.0967
  908MOL0     H25298   3.792   5.756   7.818  2.5216  1.6484  1.4124
  908MOL0     H25299   3.884   5.597   7.812  0.8109  0.2707  1.4735
  908MOL0     H25300   3.831   5.684   7.399 -3.3461  0.2188  0.1068
  908MOL0     H25301   4.254   6.022   7.726 -0.8522  0.0953  2.6380
  908MOL0     H25302   4.329   6.227   7.639 -0.2269 -1.1398  0.6734
  908MOL0     H25303   4.481   6.290   7.670  1.2437 -1.1976 -0.0082
  908MOL0     H25304   4.472   6.189   7.534  1.0718  1.6775 -0.3058
  909MOL0     O25305   7.144   1.288   4.773 -0.9792  0.4762  0.2722
  909MOL0     C25306   7.140   1.318   4.893  0.0069  0.1198 -0.1368
  909MOL0     O25307   7.250   1.338   4.975 -0.0226 -0.2077 -0.2088
  909MOL0     C25308   7.373   1.302   4.913 -0.2125 -0.4665 -0.4605
  909MOL0     C25309   7.466   1.406   4.870 -0.0639 -1.0137  0.5127
  909MOL0     C25310   7.580   1.374   4.799 -0.0454 -0.3386  0.7978
  909MOL0     C25311   7.622   1.245   4.773 -0.1224 -0.4278 -1.5921
  909MOL0     O25312   7.734   1.203   4.705  0.1365  0.5988  0.4421
  909MOL0     C25313   7.797   1.295   4.613  0.3184 -0.0201  0.4555
  909MOL0     C25314   7.873   1.200   4.528  0.3556 -0.2350  0.3651
  909MOL0     C25315   7.971   1.273   4.425 -0.1727  0.7845  0.0237
  909MOL0     C25316   8.000   1.181   4.310  0.4849 -0.2981  0.3027
  909MOL0     C25317   8.125   1.231   4.240 -0.5019 -0.3680 -0.0820
  909MOL0     C25318   8.191   1.108   4.158  0.0448 -0.8280 -0.6459
  909MOL0     C25319   8.338   1.124   4.117  0.2288  0.7797 -0.3457
  909MOL0     C25320   8.359   1.241   4.023 -0.4447  0.4400  0.0662
  909MOL0     N25321   8.498   1.249   3.975  0.1920  0.2732 -0.5772
  909MOL0     C25322   8.573   1.139   3.947  0.2081 -0.0758  1.2415
  909MOL0     C25323   8.699   1.184   3.930 -0.0727  0.2612  0.0934
  909MOL0     C25324   8.819   1.103   3.892  0.7189 -0.1457 -0.4527
  909MOL0     C25325   8.937   1.119   3.995 -0.7462 -0.3583  0.0378
  909MOL0     C25326   9.067   1.071   3.917 -0.1498 -1.0099  0.2606
  909MOL0     C25327   9.187   1.056   4.013 -0.6050  0.0907  0.7571
  909MOL0     O25328   9.176   0.948   4.104  0.2144  0.4739 -0.4474
  909MOL0     C25329   9.288   0.912   4.181 -0.1462  0.8270 -0.1991
  909MOL0     C25330   9.291   0.784   4.246  0.6662 -0.0507  0.0097
  909MOL0     C25331   9.406   0.737   4.314  0.1591 -1.0238  0.2712
  909MOL0     C25332   9.401   0.587   4.344  0.0228  0.6989  0.7768
  909MOL0     C25333   9.516   0.829   4.331 -0.3682  0.8220 -0.9532
  909MOL0     C25334   9.645   0.790   4.395  0.1604  0.4976  1.0251
  909MOL0     O25335   9.679   0.658   4.402  0.0312 -0.1205 -0.7199
  909MOL0     C25336   9.792   0.608   4.462  0.8624 -0.3173  0.0389
  909MOL0     C25337   9.821   0.473   4.438  0.6395 -0.7744  0.7999
  909MOL0     C25338   9.939   0.419   4.493  0.8372  0.4990  0.3377
  909MOL0     C25339  10.018   0.485   4.587  1.5827 -0.0059 -0.3880
  909MOL0     O25340  10.129   0.443   4.651 -0.3302  0.1038  0.0519
  909MOL0     C25341  10.147   0.299   4.639 -0.3112  0.0398  0.3643
  909MOL0     C25342  10.277   0.286   4.719 -0.4932 -0.5732  0.8082
  909MOL0     C25343  10.400   0.346   4.649  0.0346 -0.2395  0.0759
  909MOL0     C25344  10.528   0.359   4.738  0.2016 -0.4551  0.1149
  909MOL0     C25345  10.593   0.229   4.786  0.6360  0.2346 -0.2814
  909MOL0     C25346  10.706   0.257   4.893  0.2730 -0.8583  0.1188
  909MOL0     C25347  10.766   0.129   4.951  0.2605  0.7406  0.7047
  909MOL0     C25348  10.820   0.148   5.090 -0.2955  0.5096 -0.7451
  909MOL0    Cl25349  10.929   0.009   5.094  0.0366  0.1074  0.1614
  909MOL0     C25350   9.967   0.612   4.622  0.8236  1.3241 -0.6236
  909MOL0     C25351   9.866   0.674   4.560  0.3448  0.3336 -0.3536
  909MOL0     O25352   9.715   0.879   4.431  0.0754  0.1690  0.5773
  909MOL0     C25353   9.513   0.955   4.279 -0.6423  0.1365  0.5002
  909MOL0     C25354   9.401   0.987   4.202 -0.6921 -0.1483  0.2563
  909MOL0     N25355   8.701   1.321   3.950  0.2174  0.3553  1.0229
  909MOL0     N25356   8.577   1.359   3.960  0.2235  0.6902 -0.6844
  909MOL0     C25357   7.542   1.143   4.826 -0.4833 -0.3989 -0.0735
  909MOL0     C25358   7.418   1.173   4.890 -0.0724 -0.5615 -0.9590
  909MOL0     C25359   7.002   1.328   4.950 -0.5862  0.3849 -0.1730
  909MOL0     C25360   6.904   1.224   4.941  0.1756 -0.3284  0.0484
  909MOL0     C25361   6.779   1.248   5.008  0.2725 -0.5154  0.1067
  909MOL0     C25362   6.749   1.367   5.079 -0.5919 -0.2890 -0.0611
  909MOL0     O25363   6.631   1.370   5.150  0.2922 -0.2999  0.2981
  909MOL0     C25364   6.613   1.465   5.252 -0.3981  0.2990 -0.0225
  909MOL0     C25365   6.554   1.591   5.191 -0.4896  0.3015 -0.1816
  909MOL0     C25366   6.531   1.688   5.303 -0.3845 -0.1161  0.0224
  909MOL0     C25367   6.457   1.806   5.254  0.2802  0.1256  0.1640
  909MOL0     C25368   6.510   1.894   5.151 -0.1395  0.1562 -0.1128
  909MOL0     C25369   6.545   1.973   5.067  0.6420  0.3125 -0.2347
  909MOL0     C25370   6.844   1.466   5.077 -0.3857 -0.2439 -0.2035
  909MOL0     C25371   6.963   1.444   5.014 -0.7190 -0.1133 -0.0816
  909MOL0     C25372   7.058   1.564   5.007 -0.5038 -0.7200 -0.7262
  909MOL0     H25373   7.436   1.507   4.894  0.7272 -0.9685  1.3665
  909MOL0     H25374   7.635   1.462   4.767 -0.3552  1.0926  3.8494
  909MOL0     H25375   7.851   1.376   4.662 -6.1759  3.6817  2.7390
  909MOL0     H25376   7.730   1.344   4.543  0.7080 -1.3372 -0.8887
  909MOL0     H25377   7.927   1.130   4.593 -2.6104 -2.1239  1.0193
  909MOL0     H25378   7.793   1.147   4.476  0.5774  0.1957 -0.4316
  909MOL0     H25379   7.912   1.359   4.390 -3.4598 -1.7234 -1.1179
  909MOL0     H25380   8.060   1.305   4.480  0.4117 -2.0711  0.9171
  909MOL0     H25381   8.014   1.080   4.348  2.3874 -0.8772 -1.7086
  909MOL0     H25382   7.918   1.191   4.237 -0.4518  1.3341  1.5212
  909MOL0     H25383   8.198   1.276   4.308  0.4543  0.0777 -1.3564
  909MOL0     H25384   8.103   1.310   4.167 -1.1764 -0.6022 -0.1345
  909MOL0     H25385   8.189   1.020   4.223  0.6627 -0.0366  0.4915
  909MOL0     H25386   8.125   1.088   4.073 -0.8551  1.8701 -0.6848
  909MOL0     H25387   8.375   1.033   4.069 -0.8308 -0.8887  1.8167
  909MOL0     H25388   8.401   1.128   4.206  0.0778 -0.7048 -0.1474
  909MOL0     H25389   8.288   1.224   3.941  0.5832 -1.5378 -0.4922
  909MOL0     H25390   8.342   1.336   4.074  1.0585  0.9781 -0.3582
  909MOL0     H25391   8.531   1.042   3.923 -4.9672  2.6232 -2.7566
  909MOL0     H25392   8.851   1.130   3.791  0.2331 -1.9406 -1.1245
  909MOL0     H25393   8.793   0.996   3.891  0.9083 -0.1977  0.0650
  909MOL0     H25394   8.957   1.220   4.033  2.0482 -1.3627  1.5266
  909MOL0     H25395   8.920   1.049   4.078  1.3420 -2.0526 -0.8742
  909MOL0     H25396   9.052   0.971   3.876 -1.3096 -0.9388  0.4883
  909MOL0     H25397   9.082   1.145   3.837 -3.2529  0.4293  0.8847
  909MOL0     H25398   9.275   1.043   3.949  0.5323  1.5977  1.9351
  909MOL0     H25399   9.199   1.150   4.068  0.8682  0.7799 -0.6470
  909MOL0     H25400   9.214   0.709   4.231  1.1030 -0.1495 -2.1465
  909MOL0     H25401   9.442   0.549   4.438  0.8959 -0.2636  0.0191
  909MOL0     H25402   9.446   0.535   4.259 -0.6847  1.5295 -0.1255
  909MOL0     H25403   9.293   0.567   4.350  0.1001 -0.4194 -0.9756
  909MOL0     H25404   9.755   0.426   4.365 -0.5720  3.0321 -0.8088
  909MOL0     H25405   9.966   0.319   4.460  1.2202 -0.3792  3.0366
  909MOL0     H25406  10.062   0.249   4.687 -0.9728  2.2404  1.5952
  909MOL0     H25407  10.154   0.275   4.532  1.4699 -0.6192  0.6033
  909MOL0     H25408  10.259   0.325   4.820 -4.2898  1.2273 -0.3775
  909MOL0     H25409  10.318   0.185   4.729  3.6303  0.8787  0.5543
  909MOL0     H25410  10.374   0.448   4.621 -0.6243 -0.2938  0.4487
  909MOL0     H25411  10.428   0.293   4.557 -0.7771  0.1648 -0.4216
  909MOL0     H25412  10.497   0.418   4.825  1.0053  0.1554 -0.0040
  909MOL0     H25413  10.599   0.432   4.698  0.5513  0.0942  1.6643
  909MOL0     H25414  10.523   0.156   4.827  2.5324 -1.0682  0.8245
  909MOL0     H25415  10.644   0.176   4.705  0.7965  1.6801 -1.1673
  909MOL0     H25416  10.668   0.318   4.975 -1.6169 -0.0653 -1.2802
  909MOL0     H25417  10.781   0.327   4.854  1.2699 -0.8519  1.9492
  909MOL0     H25418  10.853   0.116   4.886  0.5882  1.7470  0.9175
  909MOL0     H25419  10.688   0.052   4.950 -0.6679  1.6594  0.3523
  909MOL0     H25420  10.743   0.137   5.168 -0.1877 -1.6588 -0.8604
  909MOL0     H25421  10.869   0.244   5.104 -2.8894  1.8615 -0.3132
  909MOL0     H25422  10.005   0.671   4.705 -3.8078  2.0214  1.2560
  909MOL0     H25423   9.851   0.772   4.604 -2.9163 -0.8510  1.5177
  909MOL0     H25424   9.584   1.036   4.292 -0.2505 -0.2025  0.4609
  909MOL0     H25425   9.418   1.081   4.152  3.4083  0.6164  2.6011
  909MOL0     H25426   7.579   1.042   4.816  1.7011 -0.0016  2.6297
  909MOL0     H25427   7.364   1.084   4.919  1.6800 -1.6400 -0.8359
  909MOL0     H25428   6.939   1.131   4.899  0.7616  0.5333 -1.4483
  909MOL0     H25429   6.706   1.169   4.997 -0.9319  0.8053 -2.1749
  909MOL0     H25430   6.545   1.436   5.333  0.4714 -0.5468  0.4351
  909MOL0     H25431   6.709   1.485   5.301  0.7833 -1.9166 -1.2615
  909MOL0     H25432   6.471   1.579   5.122  0.6350 -1.0019 -1.3787
  909MOL0     H25433   6.627   1.641   5.126  0.2880 -0.2050  0.2744
  909MOL0     H25434   6.476   1.644   5.387 -1.5715  1.7755  0.2821
  909MOL0     H25435   6.629   1.718   5.340 -0.5357  3.2682 -1.9616
  909MOL0     H25436   6.439   1.873   5.338  1.6587 -1.6014  1.9330
  909MOL0     H25437   6.360   1.770   5.218  1.5692 -0.1397 -3.5333
  909MOL0     H25438   6.553   2.057   5.002 -0.3619  0.2026 -0.5110
  909MOL0     H25439   6.827   1.566   5.117 -0.9182 -0.1653 -0.6205
  909MOL0     H25440   7.122   1.559   4.918  0.1416 -0.0272 -0.3068
  909MOL0     H25441   7.011   1.662   5.017  1.8235  0.3567  0.3777
  909MOL0     H25442   7.118   1.552   5.098  1.2773  2.5300 -1.3284
  910MOL0     O25443   8.673   1.944   2.413 -0.0274  0.3930 -0.2812
  910MOL0     C25444   8.566   2.006   2.383  0.0620 -0.0378 -0.3753
  910MOL0     O25445   8.543   2.136   2.387 -0.0503 -0.0973  0.0926
  910MOL0     C25446   8.633   2.236   2.424  0.3862 -0.6830 -0.4475
  910MOL0     C25447   8.620   2.278   2.555 -0.9120  0.5940  0.0146
  910MOL0     C25448   8.709   2.383   2.604  1.0464 -0.9052  0.1162
  910MOL0     C25449   8.801   2.447   2.522  0.1506  0.6298  0.9470
  910MOL0     O25450   8.858   2.565   2.562 -0.8973 -0.0041 -1.2305
  910MOL0     C25451   8.817   2.636   2.680 -0.6247 -0.9490 -0.4326
  910MOL0     C25452   8.921   2.740   2.715 -0.3285 -0.1402  0.3328
  910MOL0     C25453   8.957   2.832   2.595 -0.2508 -0.2944  0.3529
  910MOL0     C25454   9.031   2.959   2.628  0.6378  0.8848 -0.0286
  910MOL0     C25455   9.172   2.927   2.680 -0.2695  0.5399 -0.4511
  910MOL0     C25456   9.257   3.047   2.703 -0.0890 -0.7838  0.0507
  910MOL0     C25457   9.394   3.011   2.765 -0.8899  0.1593 -0.1091
  910MOL0     C25458   9.498   2.957   2.665 -0.7279 -0.0249 -0.0050
  910MOL0     N25459   9.625   2.939   2.735 -0.1450  0.1576 -0.3602
  910MOL0     C25460   9.670   2.834   2.816 -0.2905 -0.6903  0.0913
  910MOL0     C25461   9.777   2.880   2.893  1.5154 -1.2207  0.4963
  910MOL0     C25462   9.858   2.791   2.980 -0.1992 -0.0468 -0.5421
  910MOL0     C25463   9.959   2.874   3.066  0.0051  0.3833  0.1053
  910MOL0     C25464  10.052   2.776   3.138  0.4875 -0.3135  1.0130
  910MOL0     C25465  10.167   2.830   3.219  0.2995 -0.2062 -0.0254
  910MOL0     O25466  10.214   2.956   3.174  0.2647 -0.5524 -0.3531
  910MOL0     C25467  10.332   3.004   3.218 -0.3108  0.1636  0.2202
  910MOL0     C25468  10.425   2.936   3.293 -0.5651  0.0981 -0.4439
  910MOL0     C25469  10.553   2.984   3.321 -0.2422 -0.0660 -0.1393
  910MOL0     C25470  10.655   2.912   3.412  0.7166 -0.5051 -0.0869
  910MOL0     C25471  10.594   3.108   3.264  0.9799  0.1916  0.0160
  910MOL0     C25472  10.730   3.170   3.291 -0.0056 -0.4636 -0.2297
  910MOL0     O25473  10.834   3.091   3.250  0.9635  0.7175  0.1248
  910MOL0     C25474  10.960   3.130   3.286  0.3206  0.4088 -0.1154
  910MOL0     C25475  11.004   3.085   3.412  0.4139 -0.3637  0.5744
  910MOL0     C25476  11.132   3.130   3.455 -0.0919 -0.1341 -0.3052
  910MOL0     C25477  11.203   3.214   3.376  0.1131 -0.7708  0.1652
  910MOL0     O25478  11.313   3.266   3.429 -0.5204 -0.3326 -0.4009
  910MOL0     C25479  11.428   3.258   3.354  0.2445 -0.3424 -0.0233
  910MOL0     C25480  11.549   3.261   3.441 -0.1985  0.5236  0.8775
  910MOL0     C25481  11.657   3.159   3.389  0.2827 -0.1817  0.6941
  910MOL0     C25482  11.627   3.011   3.440  0.2332  0.1377 -0.0645
  910MOL0     C25483  11.714   2.917   3.361 -0.1402 -0.4983  0.4860
  910MOL0     C25484  11.849   2.913   3.424  0.7749 -0.2753  0.2143
  910MOL0     C25485  11.944   2.814   3.356 -0.3660  0.0095  0.5121
  910MOL0     C25486  11.969   2.854   3.207  0.5681 -0.7397  0.3359
  910MOL0    Cl25487  12.064   2.729   3.123 -0.1680  0.0160 -0.2842
  910MOL0     C25488  11.149   3.261   3.255  0.0816 -1.3729  0.4671
  910MOL0     C25489  11.034   3.206   3.203 -0.0909  0.5013 -0.8659
  910MOL0     O25490  10.746   3.284   3.337 -0.2072  0.2387  0.1428
  910MOL0     C25491  10.499   3.179   3.186  0.8697 -0.0939 -0.5256
  910MOL0     C25492  10.374   3.125   3.157  0.2177  0.1587 -0.0919
  910MOL0     N25493   9.797   3.009   2.862 -0.3140 -0.1536  0.8063
  910MOL0     N25494   9.711   3.042   2.771  0.6035 -0.6150 -0.8113
  910MOL0     C25495   8.812   2.402   2.388 -0.4915  0.6761  0.3520
  910MOL0     C25496   8.735   2.292   2.342 -0.1191  0.5529 -0.0437
  910MOL0     C25497   8.452   1.924   2.327  0.5987 -0.0432  0.0741
  910MOL0     C25498   8.470   1.810   2.241 -0.5165 -1.2210 -0.7041
  910MOL0     C25499   8.369   1.736   2.192 -0.7262 -0.2484 -0.0373
  910MOL0     C25500   8.243   1.754   2.238  0.7617  0.5747  0.7136
  910MOL0     O25501   8.134   1.672   2.207  0.0444 -0.3282 -0.5283
  910MOL0     C25502   8.151   1.578   2.102 -0.0388  0.0650  0.7801
  910MOL0     C25503   8.012   1.522   2.055  0.2145 -1.1514 -0.1544
  910MOL0     C25504   7.906   1.635   2.019 -0.6300 -0.5770 -0.2473
  910MOL0     C25505   7.775   1.583   1.968 -0.2415  0.0907 -0.4058
  910MOL0     C25506   7.794   1.534   1.833 -0.2065  0.3485  0.3720
  910MOL0     C25507   7.825   1.520   1.714 -0.0833 -0.0579  0.8623
  910MOL0     C25508   8.220   1.854   2.330 -0.0392  0.9691 -0.1999
  910MOL0     C25509   8.316   1.949   2.370  0.5058  0.0706 -0.1506
  910MOL0     C25510   8.265   2.054   2.473 -0.2021 -0.5313 -0.1769
  910MOL0     H25511   8.539   2.252   2.622  0.2397  2.1493  2.1430
  910MOL0     H25512   8.687   2.417   2.705  0.7258 -3.7558  1.1075
  910MOL0     H25513   8.828   2.571   2.767  1.0356 -1.3491 -0.8995
  910MOL0     H25514   8.718   2.680   2.668 -0.8034 -1.0603  0.5598
  910MOL0     H25515   8.885   2.804   2.796 -0.2053  0.2971  0.0460
  910MOL0     H25516   9.014   2.693   2.749 -0.0037  1.1091  1.2554
  910MOL0     H25517   9.003   2.773   2.515  1.7938  2.6550 -0.8108
  910MOL0     H25518   8.866   2.866   2.545 -0.3888 -0.5240  0.4466
  910MOL0     H25519   9.034   3.025   2.541  0.7764  1.5301  0.4570
  910MOL0     H25520   8.972   3.012   2.704 -1.6902  1.7624 -2.3167
  910MOL0     H25521   9.228   2.851   2.625 -0.4107 -0.6814  0.9991
  910MOL0     H25522   9.170   2.882   2.780  0.1707 -0.2648 -0.7994
  910MOL0     H25523   9.265   3.102   2.609 -2.8094 -0.6494 -0.1907
  910MOL0     H25524   9.195   3.110   2.768 -0.5757 -0.6685 -0.5200
  910MOL0     H25525   9.383   2.940   2.848 -2.6247 -0.1183 -0.5366
  910MOL0     H25526   9.431   3.100   2.817 -0.0164 -1.2252  1.7566
  910MOL0     H25527   9.453   2.866   2.624 -3.7901 -0.2778  3.4088
  910MOL0     H25528   9.509   3.028   2.582 -1.5089  0.0653 -0.0430
  910MOL0     H25529   9.629   2.733   2.818 -1.7347 -0.1358 -0.0642
  910MOL0     H25530   9.915   2.713   2.930  2.2855  0.9187  0.5933
  910MOL0     H25531   9.795   2.741   3.054 -0.5640 -1.4694 -1.7815
  910MOL0     H25532  10.015   2.947   3.007 -2.3391  1.9883 -0.2698
  910MOL0     H25533   9.903   2.931   3.141 -0.9016 -0.4272  0.0646
  910MOL0     H25534   9.979   2.715   3.190 -1.1552  0.2233 -0.5589
  910MOL0     H25535  10.097   2.705   3.067 -2.0000 -1.0194  0.0311
  910MOL0     H25536  10.125   2.842   3.319  1.2117 -1.8631  0.5864
  910MOL0     H25537  10.246   2.754   3.213 -0.7869 -1.5041  1.1291
  910MOL0     H25538  10.403   2.836   3.329 -1.1844  0.2416 -0.4301
  910MOL0     H25539  10.732   2.975   3.458 -0.2026 -0.5596  1.5999
  910MOL0     H25540  10.706   2.828   3.364 -1.0723 -2.8852  1.9258
  910MOL0     H25541  10.598   2.860   3.489 -0.7354  1.1337 -0.0005
  910MOL0     H25542  10.943   3.009   3.460  0.1929 -0.3448  0.3253
  910MOL0     H25543  11.183   3.105   3.547  1.3631 -0.6021 -1.1977
  910MOL0     H25544  11.418   3.167   3.294 -2.5885  0.0459 -0.2757
  910MOL0     H25545  11.429   3.339   3.280  1.9076 -0.6766 -0.4214
  910MOL0     H25546  11.595   3.360   3.431 -0.3861  0.7119  1.7682
  910MOL0     H25547  11.538   3.246   3.549  1.0599 -3.3512  0.6148
  910MOL0     H25548  11.752   3.192   3.431 -0.7353 -0.7450  3.6846
  910MOL0     H25549  11.667   3.156   3.280 -1.3595 -0.0832  0.5037
  910MOL0     H25550  11.522   2.991   3.415  0.4397 -1.9569  0.5343
  910MOL0     H25551  11.637   2.999   3.548  3.1906 -2.1445 -0.4647
  910MOL0     H25552  11.675   2.816   3.368  1.2038 -1.0618  0.1849
  910MOL0     H25553  11.716   2.956   3.259  0.7489  2.2891  1.4555
  910MOL0     H25554  11.822   2.875   3.523 -3.7243  1.2528 -0.2119
  910MOL0     H25555  11.897   3.011   3.430 -0.0911  0.1841 -0.2064
  910MOL0     H25556  11.910   2.711   3.358  3.5734 -1.4723  1.1121
  910MOL0     H25557  12.035   2.812   3.418 -0.0233 -3.4954  0.0834
  910MOL0     H25558  12.028   2.946   3.212 -3.9627  2.5121 -0.1728
  910MOL0     H25559  11.881   2.883   3.149  1.4338  0.8921 -0.2216
  910MOL0     H25560  11.210   3.332   3.200  1.7249 -3.2262 -0.1781
  910MOL0     H25561  10.987   3.226   3.107 -2.3184 -0.1675  0.0310
  910MOL0     H25562  10.529   3.278   3.153 -1.5342  0.4267 -1.3789
  910MOL0     H25563  10.318   3.195   3.096 -0.8378 -0.0044  0.6582
  910MOL0     H25564   8.885   2.445   2.320  0.4501 -1.3570 -0.0102
  910MOL0     H25565   8.755   2.247   2.246  1.3321  0.3012  0.3435
  910MOL0     H25566   8.570   1.794   2.202  0.3555  3.0199 -0.6557
  910MOL0     H25567   8.396   1.661   2.118 -3.3014  0.1007 -1.4341
  910MOL0     H25568   8.195   1.624   2.013 -3.1458 -2.3391 -2.3221
  910MOL0     H25569   8.210   1.495   2.142 -0.3242 -0.0979  0.8655
  910MOL0     H25570   7.973   1.444   2.121 -0.0457 -1.2244 -0.3922
  910MOL0     H25571   8.026   1.464   1.963 -0.6543  0.4511 -1.3295
  910MOL0     H25572   7.890   1.700   2.105  0.6488  0.5251 -0.8062
  910MOL0     H25573   7.953   1.695   1.941  1.1213 -0.7782  0.5998
  910MOL0     H25574   7.698   1.660   1.962 -0.6884 -0.3551 -0.4075
  910MOL0     H25575   7.734   1.507   2.035  0.2672 -0.8244 -1.1062
  910MOL0     H25576   7.851   1.521   1.611 -2.4260 -0.1757  0.2089
  910MOL0     H25577   8.119   1.865   2.369 -0.4808 -3.2399  0.2969
  910MOL0     H25578   8.308   2.151   2.445  1.3602 -1.7376 -2.2863
  910MOL0     H25579   8.158   2.075   2.472 -0.1186  0.0671 -2.4099
  910MOL0     H25580   8.283   2.012   2.572  0.3980 -3.4461 -1.4144
  911MOL0     O25581   8.069  10.225   9.378 -0.6332  0.1915  0.8903
  911MOL0     C25582   8.058  10.272   9.263 -0.5428 -0.1025  0.9349
  911MOL0     O25583   8.164  10.318   9.187 -0.0621 -0.3473 -0.1137
  911MOL0     C25584   8.292  10.271   9.217 -0.9894 -0.4497 -0.2281
  911MOL0     C25585   8.375  10.332   9.303  0.0672  0.3480 -0.3609
  911MOL0     C25586   8.506  10.282   9.327 -0.1379  0.2069 -0.1993
  911MOL0     C25587   8.557  10.176   9.254 -0.2797  0.2845 -0.0175
  911MOL0     O25588   8.684  10.123   9.262  0.7893  1.1398  0.5228
  911MOL0     C25589   8.761  10.125   9.381  0.5010  0.2381  0.1058
  911MOL0     C25590   8.885  10.219   9.358  0.0473 -0.1249 -0.3367
  911MOL0     C25591   9.004  10.132   9.360 -0.8836 -0.2972 -0.1026
  911MOL0     C25592   9.128  10.219   9.343 -0.1039  0.2032  0.0443
  911MOL0     C25593   9.256  10.139   9.359  0.5960  1.4124 -0.5164
  911MOL0     C25594   9.388  10.211   9.329  0.4836 -0.7409 -0.3189
  911MOL0     C25595   9.399  10.352   9.384 -0.1545  0.3416 -1.1774
  911MOL0     C25596   9.540  10.398   9.385 -1.2064 -1.1976  0.1937
  911MOL0     N25597   9.627  10.329   9.475 -0.0345  0.5529 -0.9374
  911MOL0     C25598   9.602  10.315   9.611  0.7468  0.0877 -0.3546
  911MOL0     C25599   9.723  10.278   9.652  0.9906  0.3194 -0.0544
  911MOL0     C25600   9.773  10.279   9.791 -0.3837 -0.5761  0.1899
  911MOL0     C25601   9.838  10.146   9.819  0.7371 -0.2337 -0.4909
  911MOL0     C25602   9.818  10.096   9.961  0.2309 -0.7678  0.1159
  911MOL0     C25603   9.880  10.193  10.066  0.8143 -0.3714  0.4771
  911MOL0     O25604  10.023  10.190  10.048  0.3709 -0.2647  0.4385
  911MOL0     C25605  10.099  10.238  10.151  0.2429 -0.6695 -0.5522
  911MOL0     C25606  10.234  10.201  10.157  0.6610 -1.0487 -0.3086
  911MOL0     C25607  10.320  10.257  10.253  0.4796  0.4996  0.3231
  911MOL0     C25608  10.467  10.201  10.238  0.3761 -0.1980 -0.4975
  911MOL0     C25609  10.267  10.334  10.356 -0.9705 -0.6213  0.4290
  911MOL0     C25610  10.353  10.400  10.463 -0.3009 -0.3350  0.6834
  911MOL0     O25611  10.294  10.509  10.527 -0.5585 -0.5392  0.5276
  911MOL0     C25612  10.375  10.587  10.598 -0.1291  0.3439 -0.1121
  911MOL0     C25613  10.391  10.575  10.735  0.6674  0.0133 -0.5879
  911MOL0     C25614  10.474  10.660  10.801  0.7700 -0.7468 -0.0377
  911MOL0     C25615  10.551  10.752  10.732 -0.8112  0.2211 -0.5312
  911MOL0     O25616  10.651  10.829  10.796 -0.7720  0.4185  0.0997
  911MOL0     C25617  10.695  10.787  10.920  0.1946  0.5018 -0.3994
  911MOL0     C25618  10.812  10.881  10.958  0.3557 -0.0131  0.3202
  911MOL0     C25619  10.848  10.882  11.108 -0.4171 -0.0960  0.7903
  911MOL0     C25620  10.861  10.748  11.183 -0.0546 -0.4065  0.5661
  911MOL0     C25621  10.899  10.773  11.334  0.9180  0.0373 -0.4514
  911MOL0     C25622  11.053  10.810  11.347 -0.2445  0.8792 -0.2608
  911MOL0     C25623  11.103  10.814  11.496 -0.5808  0.0403  0.0958
  911MOL0     C25624  11.256  10.776  11.509  0.3832  0.8431 -0.3949
  911MOL0    Cl25625  11.352  10.920  11.493  0.3628  0.1572  0.5937
  911MOL0     C25626  10.549  10.752  10.597  0.3751 -0.8418 -0.0458
  911MOL0     C25627  10.455  10.681  10.527  0.2675 -0.7946 -0.7422
  911MOL0     O25628  10.461  10.359  10.500 -0.0152 -0.0972  1.0633
  911MOL0     C25629  10.135  10.366  10.352 -0.0646  0.0305  0.0234
  911MOL0     C25630  10.045  10.311  10.261  0.6369  0.6685  0.3818
  911MOL0     N25631   9.810  10.257   9.554  0.4266 -0.4845  0.3060
  911MOL0     N25632   9.752  10.282   9.440 -0.1721 -0.1099  0.3417
  911MOL0     C25633   8.471  10.113   9.159 -0.3408 -0.2146 -1.0953
  911MOL0     C25634   8.342  10.163   9.152 -0.7125 -0.9063 -0.4806
  911MOL0     C25635   7.918  10.291   9.197  0.2230  0.3548  0.5696
  911MOL0     C25636   7.903  10.353   9.071  0.3987 -0.0374  0.3755
  911MOL0     C25637   7.773  10.393   9.026  0.0224 -0.1773  0.2653
  911MOL0     C25638   7.662  10.352   9.091  0.4946 -1.4208  0.4355
  911MOL0     O25639   7.532  10.380   9.046  0.1702 -0.6461 -0.3110
  911MOL0     C25640   7.508  10.465   8.937  0.4635  0.4336  0.1182
  911MOL0     C25641   7.357  10.443   8.919 -0.1219 -0.4481  0.0170
  911MOL0     C25642   7.301  10.545   8.819 -0.5060 -0.2234 -0.5310
  911MOL0     C25643   7.177  10.617   8.873 -0.3474  0.0915 -0.7466
  911MOL0     C25644   7.128  10.724   8.782  0.8771 -0.1330  0.5245
  911MOL0     C25645   7.098  10.817   8.706  0.4922  0.3317  0.0144
  911MOL0     C25646   7.674  10.291   9.213  0.2360  0.4840  0.9146
  911MOL0     C25647   7.800  10.256   9.266 -0.5295 -0.3957  0.6158
  911MOL0     C25648   7.792  10.178   9.394 -0.7288 -0.9973 -0.2394
  911MOL0     H25649   8.329  10.413   9.359  1.4760 -0.8038  2.6743
  911MOL0     H25650   8.568  10.337   9.396 -2.4547  1.9102  0.6603
  911MOL0     H25651   8.785  10.024   9.416 -0.5792 -0.2298 -0.4744
  911MOL0     H25652   8.700  10.168   9.461 -1.0568 -1.2380 -0.2407
  911MOL0     H25653   8.878  10.272   9.262  0.0967 -1.0828 -0.8846
  911MOL0     H25654   8.881  10.287   9.443  2.1717  0.0131 -0.2901
  911MOL0     H25655   9.007  10.079   9.456  2.1371 -0.9703 -0.4459
  911MOL0     H25656   9.002  10.060   9.278  0.3533 -0.5749  0.0838
  911MOL0     H25657   9.139  10.285   9.257  2.5114 -0.7588 -0.4700
  911MOL0     H25658   9.130  10.278   9.435  1.1300 -1.2656  1.0084
  911MOL0     H25659   9.257  10.044   9.305  1.2745  0.5216  0.9981
  911MOL0     H25660   9.258  10.103   9.463 -1.7276  2.0100 -0.2024
  911MOL0     H25661   9.457  10.144   9.381 -0.3498 -0.3692  1.3139
  911MOL0     H25662   9.394  10.218   9.220  1.9068 -1.0094 -0.2792
  911MOL0     H25663   9.349  10.359   9.482 -2.5657 -1.6473 -2.1521
  911MOL0     H25664   9.340  10.419   9.320 -1.2799 -0.0288 -0.5715
  911MOL0     H25665   9.583  10.392   9.284  0.4624  0.5827  0.7541
  911MOL0     H25666   9.561  10.503   9.409 -2.6310 -0.7167 -0.5590
  911MOL0     H25667   9.511  10.344   9.663  1.4468 -0.1241  1.0394
  911MOL0     H25668   9.689  10.290   9.860  0.0574 -0.5850  0.7312
  911MOL0     H25669   9.851  10.352   9.815  1.0309 -2.0128  0.0758
  911MOL0     H25670   9.801  10.073   9.747  1.6193  1.1459 -2.4286
  911MOL0     H25671   9.944  10.160   9.797  0.6914  0.6760 -0.1549
  911MOL0     H25672   9.710  10.078   9.975 -0.3859  2.0372 -0.4407
  911MOL0     H25673   9.873  10.004   9.983 -0.9924 -1.1846  1.6703
  911MOL0     H25674   9.854  10.299  10.060  1.0267 -0.0602  3.5920
  911MOL0     H25675   9.863  10.156  10.167 -0.1197 -1.0968  0.0624
  911MOL0     H25676  10.270  10.128  10.085  3.7517  0.5442 -0.5486
  911MOL0     H25677  10.535  10.265  10.295  0.1812 -0.8356  0.4677
  911MOL0     H25678  10.509  10.199  10.137  0.3244  0.8898 -0.5561
  911MOL0     H25679  10.473  10.105  10.289 -0.0289  1.2347  2.4221
  911MOL0     H25680  10.336  10.505  10.797 -0.8033  0.3128 -1.4895
  911MOL0     H25681  10.484  10.644  10.908 -0.4662 -1.8236 -0.0642
  911MOL0     H25682  10.617  10.796  10.996 -0.2630 -0.0951 -0.7949
  911MOL0     H25683  10.728  10.684  10.933 -1.0090  0.3126  1.5797
  911MOL0     H25684  10.894  10.856  10.891  0.0669  0.9462 -0.4210
  911MOL0     H25685  10.780  10.984  10.938 -2.7212 -0.5081  2.0496
  911MOL0     H25686  10.774  10.941  11.163 -0.8109  1.2757 -1.1246
  911MOL0     H25687  10.937  10.945  11.114 -1.6415  1.6571  1.0016
  911MOL0     H25688  10.940  10.687  11.138  1.3097  0.6689  1.4095
  911MOL0     H25689  10.768  10.691  11.173  0.4929 -0.9210 -3.3229
  911MOL0     H25690  10.832  10.848  11.376 -0.0056 -0.5381 -0.8725
  911MOL0     H25691  10.880  10.685  11.395  2.6825  1.1714  1.9166
  911MOL0     H25692  11.064  10.911  11.306 -1.7434  0.4737 -1.7701
  911MOL0     H25693  11.120  10.743  11.294  1.0529  2.0762 -0.1953
  911MOL0     H25694  11.043  10.745  11.555 -0.9599  0.5109  0.2706
  911MOL0     H25695  11.082  10.916  11.529 -0.2427  0.0818  0.1903
  911MOL0     H25696  11.287  10.697  11.439 -0.3236 -1.5480  1.7994
  911MOL0     H25697  11.272  10.734  11.609 -2.6672 -2.3483 -1.0481
  911MOL0     H25698  10.636  10.801  10.553  1.3226 -0.9559  1.6166
  911MOL0     H25699  10.456  10.690  10.419  0.3596 -0.6846 -0.7312
  911MOL0     H25700  10.079  10.426  10.423 -0.4947  1.6190 -1.5548
  911MOL0     H25701   9.943  10.347  10.251 -0.3659 -2.0384  0.1303
  911MOL0     H25702   8.510  10.037   9.092 -0.4879  0.3521 -1.8371
  911MOL0     H25703   8.280  10.113   9.079 -0.7718 -0.6167 -0.6309
  911MOL0     H25704   7.988  10.389   9.014  0.7236  0.3541  1.0860
  911MOL0     H25705   7.767  10.448   8.933 -1.0987  0.4517  0.6952
  911MOL0     H25706   7.528  10.570   8.963  3.1690  0.0281 -0.0627
  911MOL0     H25707   7.560  10.444   8.844 -0.0457  1.2342 -0.3602
  911MOL0     H25708   7.306  10.462   9.014  1.1803  0.9312  0.4712
  911MOL0     H25709   7.339  10.341   8.883 -2.6988  0.0177 -0.2270
  911MOL0     H25710   7.378  10.621   8.803  0.0928 -0.7509 -0.2160
  911MOL0     H25711   7.281  10.490   8.726  0.1372 -1.4004  0.0113
  911MOL0     H25712   7.206  10.647   8.974  0.2005 -4.0198  0.4895
  911MOL0     H25713   7.097  10.545   8.890  0.0520  0.0117  0.8919
  911MOL0     H25714   7.066  10.885   8.630  2.0691  0.3575 -0.6407
  911MOL0     H25715   7.583  10.266   9.265  0.2656  2.8927  2.2686
  911MOL0     H25716   7.865  10.097   9.395  0.9392  0.4109  1.9080
  911MOL0     H25717   7.819  10.240   9.480 -3.8521 -0.5370  0.5076
  911MOL0     H25718   7.697  10.124   9.402 -1.3894  0.3676  1.9203
  912MOL0     O25719   3.184   1.858   3.155 -1.0671  0.1466  0.3991
  912MOL0     C25720   3.127   1.907   3.058 -0.0736  0.4487  0.4057
  912MOL0     O25721   3.178   1.993   2.972 -0.0316 -0.0425 -0.1760
  912MOL0     C25722   3.310   1.984   2.926  0.0468 -0.1150 -0.1858
  912MOL0     C25723   3.368   2.104   2.880 -0.0277  0.1570 -0.4479
  912MOL0     C25724   3.494   2.105   2.824 -0.4832 -0.1938  0.2326
  912MOL0     C25725   3.562   1.990   2.809 -0.5964  1.0496  0.0934
  912MOL0     O25726   3.695   1.975   2.760 -0.4075 -0.1049 -0.3798
  912MOL0     C25727   3.746   2.068   2.662  0.0907  1.0053  0.2033
  912MOL0     C25728   3.879   2.012   2.613 -0.1676 -0.9991  0.3009
  912MOL0     C25729   3.943   2.123   2.540 -0.0638  0.6360 -0.3139
  912MOL0     C25730   4.079   2.061   2.475  0.7839 -0.3467  0.0489
  912MOL0     C25731   4.177   2.170   2.438 -0.5242  0.5879  0.9021
  912MOL0     C25732   4.301   2.108   2.383  1.0155 -0.1424 -0.5975
  912MOL0     C25733   4.410   2.206   2.347 -0.5352 -0.4595 -0.1829
  912MOL0     C25734   4.539   2.136   2.309 -0.5235  0.0492  0.3115
  912MOL0     N25735   4.633   2.240   2.267  0.1317  0.0158 -0.2649
  912MOL0     C25736   4.721   2.310   2.349  0.3485  0.7484  0.2652
  912MOL0     C25737   4.789   2.399   2.274  0.4543  0.4514  0.0869
  912MOL0     C25738   4.875   2.514   2.326 -0.2321  0.6544  0.5183
  912MOL0     C25739   4.810   2.583   2.448 -0.5575  0.6486 -0.3489
  912MOL0     C25740   4.877   2.710   2.495 -0.1470  0.0637 -0.7908
  912MOL0     C25741   5.019   2.757   2.447 -0.0071 -0.1911 -0.4110
  912MOL0     O25742   5.009   2.820   2.312  0.0566 -0.1506 -0.2830
  912MOL0     C25743   5.125   2.871   2.256  0.9870 -0.1227 -0.4624
  912MOL0     C25744   5.251   2.861   2.302 -0.0209  0.4215  0.1138
  912MOL0     C25745   5.357   2.914   2.229  0.3531  0.2592  0.7593
  912MOL0     C25746   5.491   2.908   2.278  0.3639 -0.3131 -0.7161
  912MOL0     C25747   5.332   2.983   2.099  0.0284  0.0614  0.1327
  912MOL0     C25748   5.432   3.052   2.013 -0.1881 -0.1349  0.2693
  912MOL0     O25749   5.406   3.050   1.877  0.2659 -0.2374 -0.3552
  912MOL0     C25750   5.473   3.143   1.804 -0.0066  0.0364 -0.2527
  912MOL0     C25751   5.589   3.101   1.734  0.5860  0.7767 -0.6042
  912MOL0     C25752   5.670   3.194   1.676  0.0924  0.0601  0.9477
  912MOL0     C25753   5.637   3.333   1.667  0.2544  0.9203 -0.0157
  912MOL0     O25754   5.703   3.431   1.597 -0.4083 -0.6124 -0.3539
  912MOL0     C25755   5.848   3.424   1.570  0.0875  0.6937  0.6342
  912MOL0     C25756   5.870   3.356   1.444  0.3033 -0.2070  0.5798
  912MOL0     C25757   5.991   3.418   1.365 -0.1626  0.3988  0.0291
  912MOL0     C25758   6.029   3.328   1.245  0.4142  0.2957  0.7923
  912MOL0     C25759   6.169   3.357   1.188 -0.3661 -0.9319 -0.1569
  912MOL0     C25760   6.183   3.503   1.146 -0.5872 -0.3986  0.8516
  912MOL0     C25761   6.264   3.529   1.010 -0.2172  0.2590  0.0991
  912MOL0     C25762   6.415   3.496   1.024 -0.0058 -0.4456 -0.9148
  912MOL0    Cl25763   6.502   3.570   1.170  0.0285  0.5084  0.0776
  912MOL0     C25764   5.518   3.367   1.721  0.5501  0.5637 -0.4149
  912MOL0     C25765   5.439   3.278   1.791  0.4889  0.6303  0.6474
  912MOL0     O25766   5.519   3.117   2.064 -0.2128 -0.3947  0.1175
  912MOL0     C25767   5.204   2.984   2.050 -0.4743  0.3253 -0.0082
  912MOL0     C25768   5.102   2.925   2.126 -0.4814 -0.0548  0.5351
  912MOL0     N25769   4.737   2.389   2.144 -0.2172 -0.5833  0.2332
  912MOL0     N25770   4.646   2.295   2.144  0.1470  0.4809  0.8962
  912MOL0     C25771   3.511   1.870   2.865  0.9070  0.0136 -0.1401
  912MOL0     C25772   3.380   1.868   2.924 -0.4989  0.4273  0.4357
  912MOL0     C25773   2.985   1.885   3.031 -0.4851  0.6608 -0.4593
  912MOL0     C25774   2.906   1.983   2.957 -0.3929 -0.3164  0.3152
  912MOL0     C25775   2.769   1.955   2.947  0.4546  0.0022 -0.2091
  912MOL0     C25776   2.700   1.851   3.002 -0.2623 -1.0041  0.7349
  912MOL0     O25777   2.566   1.838   2.955 -0.1566 -0.1730  0.1602
  912MOL0     C25778   2.467   1.759   3.021 -0.0693 -0.3307 -0.5842
  912MOL0     C25779   2.417   1.826   3.150  0.5045 -0.5353  0.6023
  912MOL0     C25780   2.399   1.981   3.143  1.6707 -0.1271  0.9940
  912MOL0     C25781   2.269   2.042   3.201 -0.6611 -0.1107  1.0257
  912MOL0     C25782   2.268   2.017   3.346  0.2876  0.1886  0.1709
  912MOL0     C25783   2.302   2.000   3.456  0.5086  0.0378 -0.5004
  912MOL0     C25784   2.772   1.752   3.074  0.1603  1.0585  0.4685
  912MOL0     C25785   2.912   1.767   3.081  0.2713  0.2153  0.3699
  912MOL0     C25786   2.986   1.657   3.149 -0.7009  0.8257 -0.2317
  912MOL0     H25787   3.322   2.202   2.887  0.6026  0.4486 -0.2480
  912MOL0     H25788   3.540   2.201   2.804  0.1728 -0.3588  0.9025
  912MOL0     H25789   3.765   2.169   2.700  0.4471  0.7688  0.6619
  912MOL0     H25790   3.675   2.069   2.579 -1.1559 -2.5482  1.0518
  912MOL0     H25791   3.943   1.976   2.695 -1.9504 -0.6507  1.9290
  912MOL0     H25792   3.862   1.928   2.544  1.2483 -1.2787  0.2606
  912MOL0     H25793   3.877   2.158   2.460 -0.2080  4.4214  1.2605
  912MOL0     H25794   3.965   2.210   2.603  0.0981 -1.7436  3.2043
  912MOL0     H25795   4.127   1.993   2.547 -0.0668  0.8985  1.8872
  912MOL0     H25796   4.058   2.010   2.381  0.8132  0.4369 -0.3839
  912MOL0     H25797   4.218   2.234   2.517  0.8409 -2.1608  2.5909
  912MOL0     H25798   4.124   2.228   2.362  0.4569  3.6793  2.4225
  912MOL0     H25799   4.337   2.055   2.471 -2.2242  0.6306  1.3683
  912MOL0     H25800   4.267   2.045   2.300 -0.5339 -2.4514  1.6279
  912MOL0     H25801   4.427   2.257   2.442 -2.5366 -1.2366  0.6259
  912MOL0     H25802   4.386   2.282   2.272 -0.5462  0.7289  0.9882
  912MOL0     H25803   4.580   2.074   2.389  0.3530  0.0132 -0.1516
  912MOL0     H25804   4.526   2.083   2.214  1.0441 -0.6779  0.4629
  912MOL0     H25805   4.722   2.300   2.457  1.1299 -1.5687  0.0896
  912MOL0     H25806   4.887   2.593   2.252  0.8099  0.0234 -0.0280
  912MOL0     H25807   4.981   2.491   2.345 -0.2111  0.4856  0.2066
  912MOL0     H25808   4.710   2.619   2.422 -1.0120  0.4826  1.0896
  912MOL0     H25809   4.802   2.512   2.530 -0.4785  0.1138 -0.7998
  912MOL0     H25810   4.809   2.796   2.492  1.9806  2.2583  3.9818
  912MOL0     H25811   4.894   2.691   2.601 -0.6902 -0.5069 -0.7985
  912MOL0     H25812   5.056   2.835   2.514 -1.0301  0.5006 -0.6201
  912MOL0     H25813   5.081   2.667   2.454 -0.5784 -0.4700  1.5832
  912MOL0     H25814   5.263   2.807   2.395  1.0756  1.7472  0.7797
  912MOL0     H25815   5.515   2.997   2.337 -1.8744 -1.1487  1.6500
  912MOL0     H25816   5.562   2.896   2.196  1.5443 -5.0958  0.6509
  912MOL0     H25817   5.501   2.828   2.352 -2.3386  1.5118  1.8567
  912MOL0     H25818   5.616   2.996   1.739  0.5103  0.6811 -1.8073
  912MOL0     H25819   5.768   3.163   1.641 -0.4010 -0.6797  0.1921
  912MOL0     H25820   5.888   3.526   1.571 -1.2625  1.2566 -0.3024
  912MOL0     H25821   5.898   3.372   1.652  0.8201  0.0928 -0.1807
  912MOL0     H25822   5.883   3.249   1.461  1.8179  0.0487  1.2545
  912MOL0     H25823   5.784   3.373   1.380  1.6935  2.0435 -0.8261
  912MOL0     H25824   6.083   3.416   1.423  0.1114  3.8080 -0.0888
  912MOL0     H25825   5.977   3.520   1.329 -1.5678 -0.3312 -1.6442
  912MOL0     H25826   5.954   3.332   1.166  1.3082  0.1986 -0.0774
  912MOL0     H25827   6.031   3.223   1.276 -2.0445  0.4109  1.4971
  912MOL0     H25828   6.254   3.348   1.256 -1.3763  0.0672  1.2759
  912MOL0     H25829   6.192   3.293   1.102  0.5828 -0.4832 -0.2424
  912MOL0     H25830   6.233   3.567   1.220  0.5755  1.7434 -1.6043
  912MOL0     H25831   6.080   3.539   1.141 -0.8912 -0.9268  2.6371
  912MOL0     H25832   6.241   3.633   0.985  0.5712  2.3113  6.2094
  912MOL0     H25833   6.228   3.465   0.929 -0.8930 -0.1136  0.6774
  912MOL0     H25834   6.452   3.536   0.929 -1.4795  0.8073 -0.9940
  912MOL0     H25835   6.426   3.387   1.021  0.4919 -0.4852  1.0716
  912MOL0     H25836   5.485   3.470   1.720  0.0700  0.4406  0.7440
  912MOL0     H25837   5.345   3.300   1.841 -0.1460  2.6142 -1.2540
  912MOL0     H25838   5.184   3.029   1.953 -0.9981  2.1429  0.8968
  912MOL0     H25839   5.005   2.931   2.078 -0.2577  0.4382  0.1283
  912MOL0     H25840   3.566   1.777   2.867 -1.8637 -1.7172  1.5952
  912MOL0     H25841   3.345   1.774   2.965 -1.9978  0.8617  0.2193
  912MOL0     H25842   2.949   2.078   2.928  2.7900 -0.6111  3.3940
  912MOL0     H25843   2.705   2.022   2.891  0.6190  0.1198 -0.2601
  912MOL0     H25844   2.385   1.737   2.952 -0.0532  2.8077 -1.7736
  912MOL0     H25845   2.510   1.666   3.058 -0.2606  0.2332  1.1489
  912MOL0     H25846   2.483   1.793   3.231  1.2595 -3.1134 -0.9299
  912MOL0     H25847   2.323   1.774   3.171  1.4248 -2.3556  0.3777
  912MOL0     H25848   2.480   2.046   3.175  1.8792  0.6232 -0.9248
  912MOL0     H25849   2.386   1.999   3.036 -1.9990  2.5772  1.6809
  912MOL0     H25850   2.178   2.000   3.158 -0.2185  1.9187 -2.1728
  912MOL0     H25851   2.274   2.149   3.180 -1.0380 -0.5551 -1.5981
  912MOL0     H25852   2.318   1.999   3.562  0.5394  3.1274 -0.3689
  912MOL0     H25853   2.737   1.656   3.111  0.8933  0.2799 -0.7916
  912MOL0     H25854   2.945   1.558   3.124  3.5542 -0.4394 -3.4593
  912MOL0     H25855   3.084   1.643   3.101 -1.5999 -3.0239 -1.3795
  912MOL0     H25856   3.003   1.674   3.255  0.5285  2.5320 -0.6621
  913MOL0     O25857  10.051   7.094   3.513 -0.8816 -0.0493 -0.3630
  913MOL0     C25858  10.026   6.983   3.465 -0.2739  0.0925  0.1656
  913MOL0     O25859   9.904   6.922   3.461  0.1043 -0.1496  0.5565
  913MOL0     C25860   9.794   7.004   3.466 -0.4440  0.2263  1.3482
  913MOL0     C25861   9.783   7.136   3.417 -0.0613 -0.1076 -0.1257
  913MOL0     C25862   9.669   7.217   3.423  0.7530 -0.0268  0.5338
  913MOL0     C25863   9.548   7.158   3.466  0.0221  0.2435 -0.4490
  913MOL0     O25864   9.425   7.231   3.455 -0.3703  0.1657  0.0783
  913MOL0     C25865   9.392   7.299   3.335 -0.6097 -0.4138 -0.3877
  913MOL0     C25866   9.262   7.370   3.330 -0.4465 -0.0272  0.0216
  913MOL0     C25867   9.276   7.511   3.394 -0.0597  0.1071  0.7339
  913MOL0     C25868   9.149   7.594   3.379  0.1142  0.0141 -0.1801
  913MOL0     C25869   9.151   7.728   3.464  0.3667  0.3604  0.4547
  913MOL0     C25870   9.242   7.834   3.400  0.5058  0.7255  0.1219
  913MOL0     C25871   9.235   7.965   3.480  0.3086  0.7264 -0.2685
  913MOL0     C25872   9.372   8.032   3.456 -0.3711 -0.9821  0.0050
  913MOL0     N25873   9.381   8.153   3.532  0.0108  0.0277  0.3670
  913MOL0     C25874   9.343   8.282   3.493 -0.2657  0.1080  0.2867
  913MOL0     C25875   9.359   8.363   3.602  0.2352  0.2676  0.2052
  913MOL0     C25876   9.318   8.507   3.617 -0.2895  0.4978 -1.1682
  913MOL0     C25877   9.430   8.587   3.688 -0.1083  0.6264 -0.1762
  913MOL0     C25878   9.402   8.734   3.714  0.1094  0.3188  0.3502
  913MOL0     C25879   9.546   8.801   3.727  0.5530  0.2600 -0.0888
  913MOL0     O25880   9.632   8.790   3.611 -0.4870 -0.1009  0.2913
  913MOL0     C25881   9.769   8.802   3.623 -0.7833 -0.4080  0.9882
  913MOL0     C25882   9.841   8.829   3.740 -0.3128 -0.1215 -0.2837
  913MOL0     C25883   9.979   8.839   3.737  0.3586  0.1200 -0.0383
  913MOL0     C25884  10.049   8.867   3.873  0.7660  0.4053  0.8962
  913MOL0     C25885  10.056   8.808   3.616  0.3854  0.7456 -0.3743
  913MOL0     C25886  10.204   8.811   3.605 -0.0823 -0.1825 -0.4057
  913MOL0     O25887  10.257   8.810   3.481 -0.3003 -0.1393 -0.1288
  913MOL0     C25888  10.395   8.771   3.469 -0.1604  0.7016  0.4048
  913MOL0     C25889  10.444   8.646   3.502  0.2958 -0.7752 -0.2836
  913MOL0     C25890  10.580   8.617   3.497  0.0656 -0.3402  0.5315
  913MOL0     C25891  10.661   8.705   3.428  0.1258  0.2160  0.2594
  913MOL0     O25892  10.791   8.677   3.413 -0.2011  0.0552 -0.0443
  913MOL0     C25893  10.830   8.593   3.304 -0.0825  0.1684  0.2543
  913MOL0     C25894  10.979   8.564   3.314 -0.4762  0.1830 -0.7006
  913MOL0     C25895  11.015   8.453   3.219  0.3006  0.0353 -0.0551
  913MOL0     C25896  11.158   8.425   3.233 -0.9918  0.8512  0.5102
  913MOL0     C25897  11.193   8.289   3.178 -0.4106  0.0454  0.0684
  913MOL0     C25898  11.332   8.249   3.221 -0.2824  0.1290 -0.0003
  913MOL0     C25899  11.368   8.107   3.188 -0.3009 -0.4155 -0.1851
  913MOL0     C25900  11.510   8.070   3.226 -1.1739 -0.2596 -0.5284
  913MOL0    Cl25901  11.522   7.898   3.258  0.0479 -0.1722 -0.1477
  913MOL0     C25902  10.615   8.826   3.382 -0.1300  0.4184  0.6405
  913MOL0     C25903  10.476   8.860   3.398 -0.1215  0.8273 -0.0218
  913MOL0     O25904  10.276   8.782   3.706  0.1035 -0.9527  0.0861
  913MOL0     C25905   9.984   8.794   3.494 -0.3898 -0.3527  0.0476
  913MOL0     C25906   9.845   8.779   3.506 -1.0600  0.1629  1.1333
  913MOL0     N25907   9.410   8.286   3.700 -0.6954  1.0449  0.3568
  913MOL0     N25908   9.422   8.164   3.660 -0.4568 -0.5443 -0.5020
  913MOL0     C25909   9.553   7.030   3.512  0.2242  0.0802  0.0762
  913MOL0     C25910   9.673   6.952   3.519 -0.5309 -0.6227  0.3295
  913MOL0     C25911  10.158   6.925   3.419 -0.9663 -0.0487 -0.7699
  913MOL0     C25912  10.144   6.812   3.335  0.2889 -0.1249 -0.0529
  913MOL0     C25913  10.259   6.755   3.280  0.2373  0.1884 -0.0606
  913MOL0     C25914  10.383   6.796   3.319  0.0048 -0.8451  0.3507
  913MOL0     O25915  10.481   6.723   3.267  0.5415 -0.7664 -0.0311
  913MOL0     C25916  10.611   6.750   3.311  0.4613  0.0455  0.8048
  913MOL0     C25917  10.703   6.643   3.258 -0.2224  0.5717  0.5456
  913MOL0     C25918  10.846   6.670   3.290 -0.1452 -0.9351  0.1035
  913MOL0     C25919  10.950   6.556   3.257 -0.7110 -0.4713 -0.6642
  913MOL0     C25920  11.067   6.597   3.323 -0.1766  0.3282 -1.0707
  913MOL0     C25921  11.169   6.627   3.382  0.6957  0.9187 -0.2301
  913MOL0     C25922  10.396   6.900   3.419  0.1500  0.6067 -0.5862
  913MOL0     C25923  10.284   6.963   3.468  0.5688 -0.0355  0.6087
  913MOL0     C25924  10.313   7.069   3.569 -0.1271  0.1949  0.4636
  913MOL0     H25925   9.866   7.181   3.362  0.0443 -0.1069  0.0344
  913MOL0     H25926   9.670   7.316   3.377  2.3339  0.6331  1.8856
  913MOL0     H25927   9.393   7.221   3.258  1.1107 -1.9388  1.0866
  913MOL0     H25928   9.466   7.378   3.319 -2.1833  1.2513  0.2033
  913MOL0     H25929   9.227   7.361   3.226 -0.9645 -0.4073  0.2283
  913MOL0     H25930   9.186   7.316   3.387 -2.3899  2.1621 -0.3678
  913MOL0     H25931   9.275   7.497   3.503 -1.8805 -3.0081  0.4502
  913MOL0     H25932   9.360   7.570   3.356 -1.0747  1.7581  0.9560
  913MOL0     H25933   9.134   7.623   3.274  0.6062  3.4377  0.5582
  913MOL0     H25934   9.068   7.525   3.404  1.7092 -2.6512 -1.9279
  913MOL0     H25935   9.182   7.699   3.565  0.3898 -0.4104  0.2327
  913MOL0     H25936   9.049   7.764   3.480 -0.2628 -1.3789  0.5575
  913MOL0     H25937   9.345   7.797   3.396  0.2322  0.1069 -2.4961
  913MOL0     H25938   9.210   7.855   3.298 -3.0501 -4.5193 -0.2343
  913MOL0     H25939   9.227   7.944   3.587  1.2915  3.9542  0.5441
  913MOL0     H25940   9.148   8.020   3.442  0.6507  0.7798 -0.9849
  913MOL0     H25941   9.458   7.974   3.491  3.3459  2.6845 -2.1530
  913MOL0     H25942   9.408   8.041   3.353  1.7554 -2.8170  0.5080
  913MOL0     H25943   9.309   8.319   3.397 -1.3803  1.0045  1.0056
  913MOL0     H25944   9.221   8.517   3.666  0.8722 -2.4508  2.0771
  913MOL0     H25945   9.301   8.540   3.514 -3.2203  2.4739 -0.1720
  913MOL0     H25946   9.460   8.544   3.784 -0.3833  2.7646  0.9346
  913MOL0     H25947   9.515   8.577   3.619  0.5911  1.6202  0.5134
  913MOL0     H25948   9.359   8.778   3.623 -1.0331 -1.3097  0.0630
  913MOL0     H25949   9.332   8.740   3.797 -0.9186 -0.1381 -0.4593
  913MOL0     H25950   9.528   8.907   3.746  1.4214  0.1764  1.3630
  913MOL0     H25951   9.597   8.761   3.816  4.7056  1.5415 -1.6396
  913MOL0     H25952   9.780   8.834   3.830 -1.8766  0.1887 -1.3329
  913MOL0     H25953   9.970   8.879   3.949  0.4379  1.5200  0.4001
  913MOL0     H25954  10.111   8.957   3.867  1.8107 -0.2983  0.8469
  913MOL0     H25955  10.111   8.787   3.914 -0.2367  0.2962  2.2743
  913MOL0     H25956  10.374   8.573   3.542  0.7190 -1.0197  0.0166
  913MOL0     H25957  10.622   8.524   3.534 -0.1149  0.0379  1.7201
  913MOL0     H25958  10.775   8.498   3.302  2.2202 -1.2448  0.0913
  913MOL0     H25959  10.804   8.643   3.210 -0.1506  0.2468  0.3154
  913MOL0     H25960  11.045   8.649   3.296 -0.9323  0.4149 -1.3334
  913MOL0     H25961  10.997   8.525   3.414 -0.9928 -1.4697 -1.2207
  913MOL0     H25962  10.995   8.494   3.120  1.8982  1.5172  0.1885
  913MOL0     H25963  10.961   8.360   3.240  2.5658 -1.7614 -1.6684
  913MOL0     H25964  11.189   8.428   3.338  0.6944 -0.6294  0.0982
  913MOL0     H25965  11.220   8.498   3.181  1.0444  0.3194  2.0673
  913MOL0     H25966  11.117   8.214   3.202 -1.0378 -0.0688 -2.0412
  913MOL0     H25967  11.190   8.296   3.068  1.2186 -1.3443 -0.1015
  913MOL0     H25968  11.319   8.249   3.329 -1.4476 -1.9814 -0.0902
  913MOL0     H25969  11.409   8.321   3.191  1.7237 -2.2374 -0.8130
  913MOL0     H25970  11.349   8.078   3.084  0.4494 -2.1713  0.1235
  913MOL0     H25971  11.299   8.048   3.249  0.0674 -0.4283  0.2311
  913MOL0     H25972  11.537   8.125   3.317 -0.9992  0.5215 -1.0535
  913MOL0     H25973  11.577   8.111   3.150 -1.4854  0.4978 -0.4038
  913MOL0     H25974  10.680   8.894   3.327 -0.8576  0.4850 -0.1533
  913MOL0     H25975  10.442   8.950   3.348  1.6074  0.8611 -1.2356
  913MOL0     H25976  10.044   8.788   3.404  2.7994  1.4665  1.8592
  913MOL0     H25977   9.803   8.766   3.407 -1.5596  1.8320  1.0881
  913MOL0     H25978   9.458   6.999   3.554 -0.3165 -2.5798 -2.7363
  913MOL0     H25979   9.687   6.855   3.565 -1.3668 -0.3535  1.1637
  913MOL0     H25980  10.043   6.780   3.314 -0.2474  2.2641 -1.5420
  913MOL0     H25981  10.247   6.665   3.222 -1.1476 -0.6650  1.4639
  913MOL0     H25982  10.645   6.836   3.253  3.5034 -1.9932 -0.7443
  913MOL0     H25983  10.620   6.766   3.419  2.8282 -0.6073  0.7543
  913MOL0     H25984  10.693   6.632   3.150 -1.6942 -2.4206  0.8740
  913MOL0     H25985  10.681   6.545   3.303 -0.5780 -0.7754 -2.2941
  913MOL0     H25986  10.876   6.757   3.232  0.9677 -2.6531 -2.0550
  913MOL0     H25987  10.857   6.704   3.394  2.9555  0.0157 -0.4193
  913MOL0     H25988  10.970   6.543   3.150  0.4913  0.7841 -0.6167
  913MOL0     H25989  10.907   6.468   3.306 -0.1878 -0.2529  0.1932
  913MOL0     H25990  11.257   6.639   3.442  0.7803 -1.0233  0.1250
  913MOL0     H25991  10.492   6.939   3.453 -1.2214  2.4451  1.4957
  913MOL0     H25992  10.251   7.059   3.659 -3.2901  2.3775 -1.3137
  913MOL0     H25993  10.420   7.069   3.590  0.1451 -2.9558 -0.3727
  913MOL0     H25994  10.292   7.169   3.530  2.1723  1.0373  1.2138
  914MOL0     O25995   3.393   0.312   2.814  0.0359 -0.1182 -1.6778
  914MOL0     C25996   3.420   0.313   2.932 -0.2776 -0.4303 -0.7170
  914MOL0     O25997   3.532   0.257   2.990  0.9776  0.4535  0.0470
  914MOL0     C25998   3.639   0.218   2.904 -0.2802  1.1101  0.1985
  914MOL0     C25999   3.710   0.112   2.943  0.2395  0.8042 -0.4168
  914MOL0     C26000   3.832   0.078   2.871  0.3095 -0.4117 -0.3971
  914MOL0     C26001   3.878   0.152   2.761 -0.8209  0.6260 -0.2952
  914MOL0     O26002   3.995   0.116   2.701  0.3921  0.3217  0.4188
  914MOL0     C26003   4.034   0.194   2.588 -0.6824  0.3662 -0.3357
  914MOL0     C26004   4.112   0.320   2.608 -0.1182 -0.2032 -0.0501
  914MOL0     C26005   4.165   0.363   2.470  0.0198  0.2418 -0.6348
  914MOL0     C26006   4.275   0.459   2.510  0.0973 -0.1963  0.5856
  914MOL0     C26007   4.409   0.404   2.559 -0.0033  0.1224 -0.1518
  914MOL0     C26008   4.528   0.494   2.551  1.0503  0.6778  0.3856
  914MOL0     C26009   4.536   0.583   2.670 -0.6266 -1.4167 -0.1057
  914MOL0     C26010   4.634   0.719   2.653  0.2274  0.6180 -0.7415
  914MOL0     N26011   4.767   0.652   2.634  0.0225 -0.6288  0.4734
  914MOL0     C26012   4.830   0.567   2.722 -0.3486 -0.4863  0.0115
  914MOL0     C26013   4.924   0.516   2.639  0.0032 -0.2007  0.2632
  914MOL0     C26014   5.030   0.413   2.676  0.7462  0.0116 -0.2329
  914MOL0     C26015   5.155   0.485   2.727 -0.2248 -0.0677  0.2392
  914MOL0     C26016   5.273   0.470   2.630 -0.7802  0.5410 -0.4342
  914MOL0     C26017   5.405   0.516   2.695 -0.8360 -0.1751  0.4852
  914MOL0     O26018   5.508   0.484   2.598  0.3119  1.0486 -0.1189
  914MOL0     C26019   5.638   0.454   2.625  0.1460 -0.6218 -0.2791
  914MOL0     C26020   5.688   0.461   2.751 -0.4336 -0.3372  0.2866
  914MOL0     C26021   5.821   0.420   2.785  0.9439 -0.2888 -0.4927
  914MOL0     C26022   5.854   0.425   2.932  0.4153  0.2284 -0.3190
  914MOL0     C26023   5.909   0.364   2.683  0.4332  0.1975  0.0059
  914MOL0     C26024   6.056   0.334   2.697 -0.7534  0.0034  0.0375
  914MOL0     O26025   6.102   0.260   2.598 -1.2568 -0.8979  0.3594
  914MOL0     C26026   6.233   0.233   2.576  0.2477 -0.4267  0.2210
  914MOL0     C26027   6.332   0.331   2.594  0.1720  0.6470 -0.3787
  914MOL0     C26028   6.461   0.297   2.568 -0.4841  0.8800  0.3212
  914MOL0     C26029   6.505   0.175   2.528 -0.0483  0.3574 -0.3183
  914MOL0     O26030   6.632   0.142   2.517  0.4649 -0.8624  0.1222
  914MOL0     C26031   6.735   0.244   2.524  0.6464  0.8234  0.1835
  914MOL0     C26032   6.877   0.188   2.506 -0.6195 -1.2908  0.1222
  914MOL0     C26033   6.973   0.308   2.528  0.4521 -0.0849 -0.2727
  914MOL0     C26034   7.112   0.281   2.463  0.7194 -0.1331 -0.5540
  914MOL0     C26035   7.204   0.407   2.482  0.1643 -0.6391  0.8572
  914MOL0     C26036   7.342   0.382   2.435 -0.5142 -0.7313  0.3920
  914MOL0     C26037   7.431   0.508   2.469 -0.3266  0.7806  0.4956
  914MOL0     C26038   7.578   0.476   2.458 -0.0309  0.4727 -0.5337
  914MOL0    Cl26039   7.634   0.385   2.300 -0.4284  0.1533  0.0143
  914MOL0     C26040   6.407   0.074   2.512  0.3179 -0.4743 -0.3745
  914MOL0     C26041   6.278   0.110   2.538  0.2282  0.8713 -0.1320
  914MOL0     O26042   6.120   0.384   2.787  0.6237 -0.7822  0.2304
  914MOL0     C26043   5.855   0.373   2.551 -0.4002 -0.1636 -0.3655
  914MOL0     C26044   5.721   0.403   2.525 -0.0479  0.0772  0.7117
  914MOL0     N26045   4.932   0.583   2.519  0.7870 -0.0165  0.1501
  914MOL0     N26046   4.835   0.667   2.515  0.5390 -0.0334 -0.1958
  914MOL0     C26047   3.806   0.268   2.736  0.5015 -0.4027  0.4819
  914MOL0     C26048   3.690   0.302   2.805  0.3096  0.5017 -0.3213
  914MOL0     C26049   3.327   0.363   3.034 -0.8439 -0.4794 -0.4933
  914MOL0     C26050   3.310   0.290   3.151 -0.1666  0.0041  0.6358
  914MOL0     C26051   3.219   0.333   3.249  0.4562  0.0477  0.1114
  914MOL0     C26052   3.138   0.445   3.222 -0.6889 -0.6467  0.7458
  914MOL0     O26053   3.043   0.461   3.320 -0.6479 -0.2100  0.0255
  914MOL0     C26054   2.947   0.567   3.305  0.0095  0.1268 -0.2011
  914MOL0     C26055   2.831   0.527   3.221 -0.4127  0.5585  0.5977
  914MOL0     C26056   2.744   0.405   3.284 -0.0935 -0.2697 -0.8625
  914MOL0     C26057   2.802   0.269   3.327 -0.4098  0.3769 -0.2609
  914MOL0     C26058   2.693   0.189   3.385  0.4067  0.2646  0.9062
  914MOL0     C26059   2.605   0.116   3.427  0.5303 -0.5338 -0.0676
  914MOL0     C26060   3.161   0.518   3.107 -0.4515  0.1523  0.2640
  914MOL0     C26061   3.260   0.487   3.017 -0.9704  0.2947 -0.1228
  914MOL0     C26062   3.254   0.555   2.886 -0.1669  0.5931  0.4240
  914MOL0     H26063   3.681   0.039   3.018  1.7054  0.4264 -0.1909
  914MOL0     H26064   3.892  -0.007   2.900  2.1362  0.6100 -1.0440
  914MOL0     H26065   3.949   0.208   2.520 -1.6770  0.6708  0.9460
  914MOL0     H26066   4.097   0.120   2.536  1.0786  0.7864  1.0940
  914MOL0     H26067   4.046   0.398   2.648  0.3213 -0.1252  0.5332
  914MOL0     H26068   4.190   0.292   2.679 -0.3061 -3.3607 -0.9559
  914MOL0     H26069   4.207   0.285   2.406 -2.8992 -0.9052 -1.3261
  914MOL0     H26070   4.082   0.405   2.412 -0.1511 -1.7142 -1.9131
  914MOL0     H26071   4.289   0.507   2.413 -3.8892 -1.6699 -0.9215
  914MOL0     H26072   4.251   0.541   2.579  1.8503  0.3173  0.6360
  914MOL0     H26073   4.435   0.319   2.495  2.6755  2.5236 -2.4762
  914MOL0     H26074   4.395   0.371   2.663 -0.6101  1.1795  0.1119
  914MOL0     H26075   4.621   0.438   2.547  1.8479  2.0134 -1.8166
  914MOL0     H26076   4.530   0.550   2.457  1.4056 -0.7693 -0.4929
  914MOL0     H26077   4.553   0.529   2.763 -0.9860  0.8571  1.3476
  914MOL0     H26078   4.440   0.630   2.695  0.9681  3.0090 -1.3690
  914MOL0     H26079   4.626   0.788   2.569  3.1263  2.7667  0.5744
  914MOL0     H26080   4.631   0.783   2.742  1.0631 -0.5267  0.1401
  914MOL0     H26081   4.792   0.525   2.815 -0.2582  1.5485  1.0042
  914MOL0     H26082   5.054   0.353   2.588  0.6778 -2.3250  1.2451
  914MOL0     H26083   4.988   0.343   2.749 -0.8460  0.4002 -0.7399
  914MOL0     H26084   5.134   0.587   2.760 -0.3463  2.1708 -5.5881
  914MOL0     H26085   5.192   0.427   2.812  1.8200 -0.1896 -0.6519
  914MOL0     H26086   5.291   0.364   2.611 -0.8641  0.6618 -1.1966
  914MOL0     H26087   5.244   0.526   2.541 -1.1950  2.9581  1.1171
  914MOL0     H26088   5.396   0.625   2.694 -0.8835 -0.1609  1.6436
  914MOL0     H26089   5.418   0.468   2.792  0.2909  1.7791  1.3461
  914MOL0     H26090   5.624   0.504   2.828  0.3309 -0.0798  0.7879
  914MOL0     H26091   5.882   0.322   2.956 -0.6895 -0.0257 -0.0577
  914MOL0     H26092   5.764   0.456   2.987 -0.2156 -1.6594 -0.2218
  914MOL0     H26093   5.934   0.489   2.972 -1.2799  2.4378 -0.2586
  914MOL0     H26094   6.296   0.427   2.628 -2.0789  0.2943 -1.5209
  914MOL0     H26095   6.546   0.364   2.576  1.0207 -1.0312  1.3801
  914MOL0     H26096   6.712   0.316   2.446  1.4570 -1.3876 -2.2355
  914MOL0     H26097   6.733   0.288   2.625  2.6505 -0.5783  0.8879
  914MOL0     H26098   6.886   0.116   2.587 -1.5987 -0.1578  1.2919
  914MOL0     H26099   6.901   0.150   2.406 -0.3762  1.7862 -1.1068
  914MOL0     H26100   6.983   0.335   2.634 -2.6494 -0.6378  0.2398
  914MOL0     H26101   6.927   0.395   2.481 -1.3260 -0.9268 -0.1870
  914MOL0     H26102   7.105   0.252   2.358  0.5573  0.7045 -0.7785
  914MOL0     H26103   7.160   0.198   2.516  0.3081  0.5323  0.8977
  914MOL0     H26104   7.160   0.486   2.421  1.6831 -0.3499  0.0864
  914MOL0     H26105   7.201   0.434   2.588 -1.2866  1.6998  0.2830
  914MOL0     H26106   7.334   0.376   2.327 -1.9137  0.5020  0.3882
  914MOL0     H26107   7.385   0.290   2.475 -1.4475 -1.9107 -1.2419
  914MOL0     H26108   7.410   0.544   2.571  2.1749 -3.0061  2.5987
  914MOL0     H26109   7.415   0.581   2.389 -0.6642 -0.2976 -0.4431
  914MOL0     H26110   7.594   0.408   2.542  0.0668  1.1025 -0.0381
  914MOL0     H26111   7.636   0.567   2.476  3.4076 -0.9594 -3.0573
  914MOL0     H26112   6.427  -0.027   2.479  0.1026 -1.3435  2.0016
  914MOL0     H26113   6.199   0.036   2.525 -1.9878  3.2549 -1.1856
  914MOL0     H26114   5.917   0.347   2.465  0.1293 -1.1268  0.2940
  914MOL0     H26115   5.686   0.388   2.423 -2.0090 -0.0236  1.3736
  914MOL0     H26116   3.827   0.342   2.659  0.7184  0.2856  1.1905
  914MOL0     H26117   3.624   0.386   2.787 -0.0953  0.1950 -0.2632
  914MOL0     H26118   3.380   0.212   3.178 -0.5654 -0.0423  1.5857
  914MOL0     H26119   3.213   0.287   3.348  4.1372  1.8421  1.3516
  914MOL0     H26120   2.903   0.586   3.403 -0.0098  0.7710 -0.3296
  914MOL0     H26121   2.987   0.662   3.269 -2.8684  1.7717  0.6442
  914MOL0     H26122   2.867   0.507   3.119  0.9220 -0.4811  1.2410
  914MOL0     H26123   2.760   0.609   3.212 -2.2524 -0.9582  0.5448
  914MOL0     H26124   2.699   0.440   3.377 -0.1273 -1.0344 -0.5870
  914MOL0     H26125   2.655   0.401   3.220 -1.1169 -0.3974  0.5326
  914MOL0     H26126   2.888   0.290   3.390  1.8351  0.5776 -3.1681
  914MOL0     H26127   2.838   0.216   3.238  1.2017 -0.2677  0.7376
  914MOL0     H26128   2.534   0.049   3.470 -0.9945  1.6059  0.9778
  914MOL0     H26129   3.098   0.604   3.085 -1.7031 -0.2359  2.1507
  914MOL0     H26130   3.346   0.547   2.827  0.3066  1.2664  1.0633
  914MOL0     H26131   3.180   0.509   2.820 -0.7848  1.6423  0.3694
  914MOL0     H26132   3.233   0.662   2.879 -1.1039  0.3948  0.0059
  915MOL0     O26133   8.408  10.623   8.254 -0.0900 -0.0159  0.1079
  915MOL0     C26134   8.377  10.732   8.218 -0.2047  0.3002  0.5937
  915MOL0     O26135   8.453  10.821   8.148 -0.0508  0.1455 -0.8406
  915MOL0     C26136   8.590  10.800   8.157 -0.5025 -0.1370  0.1588
  915MOL0     C26137   8.659  10.857   8.048 -0.8033 -0.0635 -0.2774
  915MOL0     C26138   8.799  10.850   8.033 -0.1117 -0.3471 -0.0291
  915MOL0     C26139   8.869  10.771   8.128 -0.8067 -0.3393 -1.0639
  915MOL0     O26140   9.002  10.741   8.125 -0.3056  0.1252 -0.2937
  915MOL0     C26141   9.085  10.755   8.009 -0.3367  0.1042  1.4483
  915MOL0     C26142   9.178  10.871   8.027  0.2400  0.0077 -0.5972
  915MOL0     C26143   9.230  10.932   7.898  0.3200  0.2028 -0.4231
  915MOL0     C26144   9.346  11.032   7.908 -0.0961 -0.7144  0.6737
  915MOL0     C26145   9.400  11.052   7.765  0.3061 -0.2819 -0.1697
  915MOL0     C26146   9.504  11.155   7.750  0.2744  0.3115  0.9682
  915MOL0     C26147   9.457  11.297   7.770 -0.8254 -1.4288  0.3015
  915MOL0     C26148   9.538  11.421   7.730 -0.2995  0.1067 -0.0195
  915MOL0     N26149   9.680  11.413   7.754  0.0208  0.2802  0.4828
  915MOL0     C26150   9.772  11.333   7.679 -0.0385  0.3963  0.0651
  915MOL0     C26151   9.876  11.323   7.758 -0.5375  0.3228 -0.1414
  915MOL0     C26152  10.000  11.242   7.745 -0.4317  0.0760  0.3952
  915MOL0     C26153  10.090  11.308   7.642 -0.5022 -0.0182  0.4774
  915MOL0     C26154  10.213  11.218   7.635  0.2343  0.6107 -1.3117
  915MOL0     C26155  10.290  11.255   7.509 -0.6470  0.2363 -0.2473
  915MOL0     O26156  10.356  11.381   7.523  0.6494  0.4329 -0.4760
  915MOL0     C26157  10.480  11.399   7.556 -0.2179  0.0081 -0.3568
  915MOL0     C26158  10.538  11.533   7.548  0.3779  0.1940  0.6035
  915MOL0     C26159  10.669  11.557   7.586  1.5908  0.3315  0.5962
  915MOL0     C26160  10.702  11.703   7.578  1.6128 -1.0303 -0.3819
  915MOL0     C26161  10.747  11.454   7.637 -0.2477 -0.1171  0.7477
  915MOL0     C26162  10.885  11.469   7.670 -0.4276 -0.2093 -0.2557
  915MOL0     O26163  10.960  11.551   7.591  0.1869 -0.1117  0.0861
  915MOL0     C26164  11.097  11.568   7.614  0.5255  0.2373  0.5047
  915MOL0     C26165  11.150  11.634   7.730 -0.4778  0.0880 -0.4449
  915MOL0     C26166  11.282  11.627   7.751  0.2510 -0.7486 -0.1971
  915MOL0     C26167  11.365  11.563   7.664 -0.3146  0.4813 -0.1887
  915MOL0     O26168  11.502  11.537   7.674  0.1792  0.4034 -0.6195
  915MOL0     C26169  11.555  11.533   7.810  0.0424  0.2679  0.3834
  915MOL0     C26170  11.679  11.436   7.815  0.2565  0.9346 -0.7711
  915MOL0     C26171  11.716  11.400   7.958  0.8661  0.1534 -0.0713
  915MOL0     C26172  11.844  11.316   7.950 -0.7093  0.8081 -0.2694
  915MOL0     C26173  11.910  11.272   8.072 -0.3375  0.5585 -0.5876
  915MOL0     C26174  11.885  11.362   8.188  0.0752 -0.5911 -0.8124
  915MOL0     C26175  11.965  11.310   8.311 -0.1379 -0.4918  0.4589
  915MOL0     C26176  12.034  11.420   8.400 -0.1388  0.5175  0.1918
  915MOL0    Cl26177  12.157  11.510   8.301 -0.0748 -0.0266 -0.3640
  915MOL0     C26178  11.313  11.499   7.550  0.1895  0.0807  0.3222
  915MOL0     C26179  11.175  11.504   7.524 -0.0054 -0.1427  0.3696
  915MOL0     O26180  10.923  11.417   7.777 -1.0924  0.2122  0.4849
  915MOL0     C26181  10.688  11.333   7.657 -0.7138 -0.2913  0.7418
  915MOL0     C26182  10.558  11.299   7.611 -0.6042  0.6676 -0.3186
  915MOL0     N26183   9.863  11.416   7.858 -0.9607 -0.6518  0.5904
  915MOL0     N26184   9.741  11.453   7.867 -0.0823 -0.0015 -0.2471
  915MOL0     C26185   8.801  10.714   8.236 -0.5791 -0.0560  0.2093
  915MOL0     C26186   8.665  10.725   8.250 -0.8999  0.1794 -0.1872
  915MOL0     C26187   8.233  10.774   8.223  0.7651  0.5032 -0.5576
  915MOL0     C26188   8.133  10.674   8.228 -0.8566 -0.5930 -0.0165
  915MOL0     C26189   7.995  10.704   8.243  0.4232  0.6365  0.4768
  915MOL0     C26190   7.949  10.834   8.237  0.2573  0.4714  0.1958
  915MOL0     O26191   7.819  10.872   8.238  0.0203  0.2819  0.0056
  915MOL0     C26192   7.716  10.772   8.222  0.6499  0.5661  0.1582
  915MOL0     C26193   7.648  10.743   8.362 -0.0211 -1.0455  0.1321
  915MOL0     C26194   7.527  10.647   8.352 -0.1033 -0.4250 -0.5738
  915MOL0     C26195   7.460  10.636   8.491 -0.0828  0.4391  0.0953
  915MOL0     C26196   7.326  10.595   8.468 -0.4229  0.4771  0.6920
  915MOL0     C26197   7.210  10.558   8.458  0.5382 -0.1720 -0.4901
  915MOL0     C26198   8.040  10.935   8.221 -0.2904  0.5777  0.0466
  915MOL0     C26199   8.178  10.913   8.216 -0.3400 -0.0201  0.3198
  915MOL0     C26200   8.261  11.029   8.202  0.2433  0.2723 -0.2620
  915MOL0     H26201   8.591  10.917   7.990 -0.3372  1.2196  0.4673
  915MOL0     H26202   8.847  10.902   7.951 -1.1339  0.0047 -0.4201
  915MOL0     H26203   9.019  10.759   7.922  0.8164  1.0690  0.5938
  915MOL0     H26204   9.146  10.666   7.992 -0.5864  0.2130 -0.1676
  915MOL0     H26205   9.123  10.952   8.074  0.1427 -0.0712 -0.5740
  915MOL0     H26206   9.254  10.830   8.094 -1.1507  1.2286  1.8402
  915MOL0     H26207   9.248  10.855   7.823 -0.9133  3.7848 -4.8233
  915MOL0     H26208   9.145  10.984   7.852  0.7816  0.5278 -0.9140
  915MOL0     H26209   9.297  11.124   7.944 -0.0376  0.1968 -1.4545
  915MOL0     H26210   9.427  11.004   7.976  0.1195 -1.6236  0.0478
  915MOL0     H26211   9.313  11.081   7.706  1.6090  2.7236 -0.7971
  915MOL0     H26212   9.438  10.953   7.739 -2.3100 -1.6849  0.9146
  915MOL0     H26213   9.588  11.126   7.814 -1.5148 -5.0294  1.4160
  915MOL0     H26214   9.538  11.158   7.646 -0.7971 -2.0179  0.4780
  915MOL0     H26215   9.459  11.303   7.880  2.3958  0.8295  0.2578
  915MOL0     H26216   9.359  11.302   7.722  0.3185 -1.4015 -2.1347
  915MOL0     H26217   9.535  11.434   7.622  0.9279  0.4583 -0.0297
  915MOL0     H26218   9.497  11.503   7.789 -1.5019  1.6695 -2.8417
  915MOL0     H26219   9.774  11.295   7.578  1.7777  2.7666 -0.8849
  915MOL0     H26220   9.981  11.137   7.718 -0.1766  0.6294 -2.1906
  915MOL0     H26221  10.042  11.244   7.846  0.3649  0.4004  0.0658
  915MOL0     H26222  10.042  11.315   7.544  2.5073 -0.0074 -1.1213
  915MOL0     H26223  10.111  11.410   7.675  1.2047 -0.0328 -0.4459
  915MOL0     H26224  10.274  11.233   7.725 -1.0927 -2.3068  0.2219
  915MOL0     H26225  10.202  11.109   7.635  2.9342  0.2432 -0.1514
  915MOL0     H26226  10.354  11.168   7.491 -2.4975 -2.0769  3.1148
  915MOL0     H26227  10.226  11.256   7.421  1.0400  2.4269 -1.5697
  915MOL0     H26228  10.482  11.612   7.499 -0.7635 -0.3107  1.0451
  915MOL0     H26229  10.618  11.768   7.551  1.5034 -0.9109  0.2487
  915MOL0     H26230  10.783  11.728   7.508  0.6073 -2.1043 -2.0143
  915MOL0     H26231  10.720  11.720   7.684 -1.0509 -1.3037  0.1923
  915MOL0     H26232  11.090  11.696   7.796  0.6796  1.7962 -0.9271
  915MOL0     H26233  11.319  11.676   7.841 -1.7509  0.9610 -0.2546
  915MOL0     H26234  11.580  11.631   7.853 -3.3187  0.5837  1.8886
  915MOL0     H26235  11.482  11.496   7.883  0.9479 -2.9393 -0.1811
  915MOL0     H26236  11.655  11.343   7.763 -2.5906 -0.7334  3.1216
  915MOL0     H26237  11.765  11.489   7.771  0.8380  0.3990 -0.2977
  915MOL0     H26238  11.636  11.349   8.012 -2.8277  2.7776 -2.5906
  915MOL0     H26239  11.733  11.497   8.008  0.3633  0.6123 -0.7786
  915MOL0     H26240  11.919  11.378   7.900 -1.4640  1.3141 -0.8068
  915MOL0     H26241  11.822  11.232   7.884 -3.2896 -1.2511  2.9296
  915MOL0     H26242  11.864  11.175   8.095 -0.0402  0.5777  0.1097
  915MOL0     H26243  12.018  11.262   8.059 -0.3479  0.8782 -0.9578
  915MOL0     H26244  11.781  11.356   8.220  0.7472 -0.2415  1.6528
  915MOL0     H26245  11.904  11.466   8.159  0.7834 -0.4152  0.2391
  915MOL0     H26246  12.048  11.244   8.283  0.9132  0.0357  2.1737
  915MOL0     H26247  11.902  11.241   8.368 -0.6357 -0.1875  0.2777
  915MOL0     H26248  12.083  11.383   8.490 -1.8751  2.7809  2.2277
  915MOL0     H26249  11.967  11.501   8.432  0.7891  2.1720 -1.7801
  915MOL0     H26250  11.375  11.459   7.470  0.9493  0.3299  0.7739
  915MOL0     H26251  11.138  11.453   7.435 -1.3897 -2.4349  2.1469
  915MOL0     H26252  10.756  11.262   7.702  0.3210 -0.2532 -0.6850
  915MOL0     H26253  10.515  11.203   7.637 -0.9430  1.3303  1.6925
  915MOL0     H26254   8.841  10.637   8.301 -2.5885 -0.1932  1.3557
  915MOL0     H26255   8.633  10.676   8.342  0.8131  2.6768  1.8800
  915MOL0     H26256   8.166  10.572   8.216 -2.5779 -1.1278 -0.5286
  915MOL0     H26257   7.931  10.617   8.257  1.0656  0.2250  0.9827
  915MOL0     H26258   7.642  10.820   8.157  1.7594 -0.6280 -2.0997
  915MOL0     H26259   7.750  10.679   8.174  0.2957  1.4203 -1.8393
  915MOL0     H26260   7.618  10.839   8.406 -0.0843 -1.2988  0.6526
  915MOL0     H26261   7.721  10.701   8.432 -0.1545 -4.2060 -1.4287
  915MOL0     H26262   7.461  10.681   8.272 -0.1731 -1.1518 -0.8401
  915MOL0     H26263   7.566  10.546   8.332 -0.3412 -0.9022  1.1949
  915MOL0     H26264   7.446  10.727   8.550 -2.4449 -0.3679  0.8462
  915MOL0     H26265   7.514  10.562   8.551  0.1172  1.7158  1.5547
  915MOL0     H26266   7.104  10.540   8.463  0.6409 -0.4208  1.4818
  915MOL0     H26267   7.996  11.034   8.210  0.8115  0.8551 -2.4359
  915MOL0     H26268   8.326  11.054   8.287  0.1607 -2.2727  0.6326
  915MOL0     H26269   8.306  11.010   8.104  0.5369  0.3193 -0.1383
  915MOL0     H26270   8.205  11.120   8.181 -0.5128 -0.2300 -0.4604
  916MOL0     O26271   8.797   7.268   3.151  0.4351 -0.1788  0.2120
  916MOL0     C26272   8.882   7.181   3.147 -0.2055  0.7296 -0.6406
  916MOL0     O26273   8.870   7.053   3.204  0.7117 -0.9866 -0.3700
  916MOL0     C26274   8.747   7.025   3.264 -0.5185 -0.0483  0.0784
  916MOL0     C26275   8.757   7.009   3.400 -0.5194 -0.6135 -0.3334
  916MOL0     C26276   8.648   6.976   3.483 -1.2598  0.1795  0.0486
  916MOL0     C26277   8.520   6.972   3.424 -0.1935  0.2877 -0.0862
  916MOL0     O26278   8.400   6.946   3.487 -0.4863 -0.1605 -0.1807
  916MOL0     C26279   8.391   6.975   3.624 -0.1249  0.0788  0.1946
  916MOL0     C26280   8.244   6.963   3.668 -0.4517  0.0914 -0.2495
  916MOL0     C26281   8.229   6.877   3.800 -0.5640 -0.1288 -0.3048
  916MOL0     C26282   8.290   6.945   3.926 -0.2901 -0.0601 -0.4436
  916MOL0     C26283   8.253   6.875   4.057  0.0975 -0.6779 -0.7501
  916MOL0     C26284   8.102   6.854   4.065  0.2945  0.2499 -0.2495
  916MOL0     C26285   8.068   6.812   4.212  0.0206 -0.7042  0.2230
  916MOL0     C26286   7.916   6.826   4.228 -0.3329 -0.0786  0.2271
  916MOL0     N26287   7.878   6.769   4.359 -0.4685  0.2859 -0.5967
  916MOL0     C26288   7.850   6.627   4.376 -0.9045 -0.0689  0.6016
  916MOL0     C26289   7.864   6.612   4.510  0.4208  0.1100  0.4532
  916MOL0     C26290   7.833   6.485   4.589  0.0152 -0.4289 -0.4132
  916MOL0     C26291   7.965   6.405   4.602 -0.0590 -0.2605  0.4418
  916MOL0     C26292   7.980   6.317   4.481 -0.0091 -0.1292 -0.2850
  916MOL0     C26293   8.123   6.267   4.468  0.5754 -0.2308  0.0317
  916MOL0     O26294   8.212   6.374   4.442  0.3308  0.2818  0.2977
  916MOL0     C26295   8.340   6.349   4.391  0.6827 -0.2409  0.4463
  916MOL0     C26296   8.409   6.467   4.363 -0.0742 -0.8913  1.0598
  916MOL0     C26297   8.542   6.461   4.321  0.0628 -0.0161  0.0549
  916MOL0     C26298   8.601   6.593   4.293 -0.8140 -0.3213  1.0477
  916MOL0     C26299   8.612   6.340   4.311 -0.7711 -0.7599  0.4645
  916MOL0     C26300   8.751   6.327   4.257  0.1523 -0.4597  0.7878
  916MOL0     O26301   8.779   6.204   4.198 -0.1891 -0.4497 -0.1249
  916MOL0     C26302   8.902   6.193   4.130 -0.4892 -0.1861 -0.0013
  916MOL0     C26303   8.980   6.076   4.150  0.7448 -0.1416 -0.8206
  916MOL0     C26304   9.103   6.066   4.102 -0.9330 -0.1113  0.6702
  916MOL0     C26305   9.151   6.170   4.024  0.0581  0.1890 -0.3400
  916MOL0     O26306   9.279   6.148   3.981 -0.1333  0.2078 -0.6299
  916MOL0     C26307   9.309   6.170   3.846 -0.3063  0.5677  0.4964
  916MOL0     C26308   9.229   6.079   3.761  0.2176 -0.0540  1.0371
  916MOL0     C26309   9.279   6.066   3.607  0.5219  0.1797 -0.1318
  916MOL0     C26310   9.253   6.185   3.540 -0.5408  0.9093 -0.1826
  916MOL0     C26311   9.260   6.171   3.394 -0.3354  0.6125 -0.4702
  916MOL0     C26312   9.211   6.296   3.319 -0.1530  0.3690  0.3436
  916MOL0     C26313   9.259   6.296   3.171 -0.6661  0.8342  0.5394
  916MOL0     C26314   9.193   6.404   3.091 -0.2757  0.0672  0.0535
  916MOL0    Cl26315   9.242   6.398   2.926  0.0667  0.1616 -0.4029
  916MOL0     C26316   9.071   6.278   3.979 -0.0221  0.0069 -1.0143
  916MOL0     C26317   8.951   6.291   4.041  0.4971  0.2898  0.6953
  916MOL0     O26318   8.834   6.421   4.282  0.4375 -0.1646 -0.3880
  916MOL0     C26319   8.544   6.221   4.341 -0.3932 -0.3777 -0.2072
  916MOL0     C26320   8.414   6.219   4.385 -0.7048 -0.3665  0.0692
  916MOL0     N26321   7.901   6.737   4.564  0.3041 -0.5179  0.7338
  916MOL0     N26322   7.900   6.832   4.482  0.2210  0.2388  0.5493
  916MOL0     C26323   8.506   6.983   3.282  0.4688  0.6421 -0.4219
  916MOL0     C26324   8.617   7.012   3.203 -0.3756  0.0372 -0.5963
  916MOL0     C26325   8.997   7.202   3.064  0.2628 -0.1687 -0.1198
  916MOL0     C26326   9.060   7.086   3.013  0.0662  0.2249 -0.1128
  916MOL0     C26327   9.177   7.085   2.931  0.5406 -0.5504  0.3075
  916MOL0     C26328   9.237   7.211   2.899 -0.2619  0.2390  0.7162
  916MOL0     O26329   9.346   7.228   2.826 -0.0071 -0.0466  0.1078
  916MOL0     C26330   9.370   7.136   2.713 -0.2497  0.1391  0.0896
  916MOL0     C26331   9.472   7.193   2.614 -0.1311  1.7933 -0.2330
  916MOL0     C26332   9.415   7.310   2.541  0.7405 -0.0799 -0.0531
  916MOL0     C26333   9.287   7.296   2.454  0.0228  0.4378  0.2572
  916MOL0     C26334   9.167   7.327   2.522  0.5046  0.3867 -0.4085
  916MOL0     C26335   9.072   7.362   2.589  0.0347  1.0591  0.2755
  916MOL0     C26336   9.170   7.326   2.947 -0.1454  0.1491 -0.1902
  916MOL0     C26337   9.053   7.323   3.015  0.1086 -0.1142 -0.4026
  916MOL0     C26338   8.996   7.458   3.048 -0.4591  0.4275  1.0125
  916MOL0     H26339   8.859   7.013   3.437  0.5800  1.5386 -3.2362
  916MOL0     H26340   8.660   6.952   3.588 -3.1836  0.3714  0.3516
  916MOL0     H26341   8.432   7.077   3.629 -1.2583  0.4833  2.1401
  916MOL0     H26342   8.453   6.913   3.690 -0.0984  2.8037  2.9764
  916MOL0     H26343   8.209   7.066   3.673 -3.8024 -0.9485  0.0628
  916MOL0     H26344   8.183   6.928   3.584  2.0934  1.0805 -2.6598
  916MOL0     H26345   8.121   6.885   3.814 -0.7748  1.1363 -2.3759
  916MOL0     H26346   8.255   6.771   3.799 -1.2513 -0.3831  2.1674
  916MOL0     H26347   8.398   6.936   3.908 -0.0448 -0.9296  1.2545
  916MOL0     H26348   8.265   7.051   3.919  2.3217  0.6297 -0.2496
  916MOL0     H26349   8.285   6.947   4.133  1.0129 -0.9311 -0.8859
  916MOL0     H26350   8.309   6.785   4.085  0.7221  0.7465  3.2284
  916MOL0     H26351   8.061   6.951   4.034  0.3248 -0.2835 -2.0671
  916MOL0     H26352   8.072   6.767   4.007  0.0875 -1.8276  2.7476
  916MOL0     H26353   8.115   6.873   4.290  0.2624 -0.8617  0.2010
  916MOL0     H26354   8.105   6.710   4.223 -1.2837 -1.2954 -0.5792
  916MOL0     H26355   7.886   6.932   4.232  1.2353  0.3443  2.9213
  916MOL0     H26356   7.854   6.777   4.152 -0.7790 -1.8021  1.6389
  916MOL0     H26357   7.841   6.561   4.291 -2.9538  2.6610 -1.4997
  916MOL0     H26358   7.765   6.414   4.541 -1.2432 -1.2057  2.2854
  916MOL0     H26359   7.790   6.518   4.684 -0.9840  0.9484 -1.2983
  916MOL0     H26360   8.045   6.476   4.625 -1.8974  1.9390  0.5131
  916MOL0     H26361   7.958   6.333   4.684  1.8095  0.5409  1.3906
  916MOL0     H26362   7.912   6.232   4.497 -0.0341 -0.3439 -1.4853
  916MOL0     H26363   7.956   6.366   4.387  0.2486  0.4432 -0.0570
  916MOL0     H26364   8.143   6.209   4.558  0.0638 -0.3278  0.0844
  916MOL0     H26365   8.131   6.192   4.388  0.7048 -2.0675  1.6996
  916MOL0     H26366   8.355   6.560   4.376  0.2386 -0.9425  3.0515
  916MOL0     H26367   8.668   6.616   4.376 -0.1853  0.3336  0.3787
  916MOL0     H26368   8.532   6.676   4.272  1.4707  1.3863 -0.2379
  916MOL0     H26369   8.666   6.588   4.205  0.4241  2.4399  1.6979
  916MOL0     H26370   8.936   6.012   4.226 -1.1428  0.4627 -1.3555
  916MOL0     H26371   9.175   5.986   4.122 -0.7814 -0.2881 -0.5290
  916MOL0     H26372   9.301   6.273   3.810  0.2204  0.0602 -1.1547
  916MOL0     H26373   9.416   6.149   3.829 -0.1083  1.1052  1.0692
  916MOL0     H26374   9.234   5.980   3.807 -0.8726 -0.5163  0.2103
  916MOL0     H26375   9.129   6.123   3.754 -0.4189 -1.6942 -2.2917
  916MOL0     H26376   9.218   5.999   3.545  0.0086  1.6674 -1.3054
  916MOL0     H26377   9.384   6.035   3.609 -0.5180 -3.8221  0.4982
  916MOL0     H26378   9.319   6.265   3.574 -0.9717  0.2449  2.3857
  916MOL0     H26379   9.153   6.215   3.569 -2.4457 -4.6590  0.3403
  916MOL0     H26380   9.362   6.145   3.366 -0.0335 -4.1417  3.6137
  916MOL0     H26381   9.197   6.085   3.365  3.4977 -2.0301 -1.7181
  916MOL0     H26382   9.245   6.383   3.376 -0.2512  1.7140 -1.5581
  916MOL0     H26383   9.102   6.290   3.321 -0.2387  0.0019 -2.2299
  916MOL0     H26384   9.216   6.200   3.140 -0.7283 -1.2080  5.8673
  916MOL0     H26385   9.368   6.294   3.162 -0.7143 -2.8236 -1.0442
  916MOL0     H26386   9.226   6.497   3.137  0.3381 -0.3870  0.5473
  916MOL0     H26387   9.085   6.401   3.106 -0.1567  0.2793  1.0158
  916MOL0     H26388   9.107   6.354   3.910  0.0752  0.7353 -0.1835
  916MOL0     H26389   8.886   6.373   4.010 -1.1139 -0.8203  1.0551
  916MOL0     H26390   8.592   6.124   4.331  0.5418  0.0318  0.2503
  916MOL0     H26391   8.353   6.133   4.411 -0.5125 -0.8944 -1.1517
  916MOL0     H26392   8.406   6.974   3.239  0.0586 -1.3330  0.7974
  916MOL0     H26393   8.607   7.028   3.097 -0.8153 -3.6093 -1.2190
  916MOL0     H26394   9.025   6.984   3.028 -0.3379  0.1644 -1.3421
  916MOL0     H26395   9.214   6.989   2.896 -0.9491 -0.9581 -0.2185
  916MOL0     H26396   9.409   7.039   2.744 -2.0685 -0.2493  1.2842
  916MOL0     H26397   9.275   7.120   2.661 -0.8180 -4.1323  1.9788
  916MOL0     H26398   9.503   7.116   2.543  1.2009 -0.4645  2.5944
  916MOL0     H26399   9.563   7.221   2.668  1.3457  0.9761 -2.1778
  916MOL0     H26400   9.397   7.391   2.612 -0.4750  0.9687 -1.4732
  916MOL0     H26401   9.486   7.347   2.466 -2.5031  6.3158 -0.5869
  916MOL0     H26402   9.281   7.196   2.411 -1.4196  0.7871 -0.4091
  916MOL0     H26403   9.293   7.366   2.370 -3.8015  0.5290 -0.1071
  916MOL0     H26404   8.990   7.370   2.658 -0.7942 -0.4450 -0.4968
  916MOL0     H26405   9.215   7.422   2.921 -3.3689  1.7897 -0.2634
  916MOL0     H26406   8.997   7.519   2.957  0.2727  0.5170  1.0782
  916MOL0     H26407   8.892   7.459   3.083 -1.2694  0.6996 -1.2095
  916MOL0     H26408   9.064   7.512   3.115 -1.8245  3.6438  0.0312
  917MOL0     O26409   9.045  10.765   3.304 -0.2801  0.1501 -0.0637
  917MOL0     C26410   8.990  10.758   3.413  0.5435 -0.2502 -0.9890
  917MOL0     O26411   9.054  10.744   3.529 -0.4008  0.6838  0.2142
  917MOL0     C26412   9.190  10.720   3.542 -0.3761  0.1320 -0.1184
  917MOL0     C26413   9.271  10.654   3.448  0.2754  0.4327 -0.2776
  917MOL0     C26414   9.404  10.665   3.455 -0.3254  0.0060  0.0638
  917MOL0     C26415   9.469  10.721   3.569 -0.3046 -0.1590  0.3280
  917MOL0     O26416   9.605  10.700   3.594 -0.0413  0.3589  0.0814
  917MOL0     C26417   9.658  10.730   3.720 -0.5052  1.1313  0.2292
  917MOL0     C26418   9.797  10.662   3.726 -0.2397  0.4004 -0.4385
  917MOL0     C26419   9.860  10.664   3.863 -0.0912 -0.1914 -0.4551
  917MOL0     C26420   9.997  10.612   3.875 -0.8960  0.3356  0.3764
  917MOL0     C26421  10.048  10.608   4.017 -0.8879  0.4265 -0.1153
  917MOL0     C26422  10.177  10.514   4.030  0.7206 -0.3237  0.5963
  917MOL0     C26423  10.228  10.513   4.174 -0.5812  0.7208 -0.3845
  917MOL0     C26424  10.319  10.394   4.178 -0.3420 -1.0026  0.3215
  917MOL0     N26425  10.380  10.387   4.315 -0.0104 -0.6111 -0.3461
  917MOL0     C26426  10.315  10.344   4.426  0.1984  1.2559 -0.8886
  917MOL0     C26427  10.411  10.344   4.525 -0.2500 -0.2440  0.8952
  917MOL0     C26428  10.387  10.313   4.665 -0.8034 -0.7126  0.3524
  917MOL0     C26429  10.450  10.183   4.714 -0.5561  0.1344 -0.7962
  917MOL0     C26430  10.422  10.058   4.630  0.0161  0.3377 -0.5835
  917MOL0     C26431  10.512   9.937   4.650 -1.2901 -0.0125  0.2811
  917MOL0     O26432  10.544   9.852   4.529  0.7719 -0.2047  0.6951
  917MOL0     C26433  10.653   9.773   4.537 -0.2718  0.1869 -0.8362
  917MOL0     C26434  10.681   9.698   4.421  0.1338  0.1411 -0.2608
  917MOL0     C26435  10.790   9.606   4.420  0.1752 -0.6572  0.4499
  917MOL0     C26436  10.828   9.547   4.284 -0.9668  0.7091  0.2540
  917MOL0     C26437  10.882   9.607   4.526 -0.7744  0.2259  0.3893
  917MOL0     C26438  11.004   9.529   4.525 -0.9558  0.0924 -0.3170
  917MOL0     O26439  11.103   9.574   4.614  0.0126 -0.1700 -0.6348
  917MOL0     C26440  11.228   9.522   4.608 -0.0576 -0.3330 -0.7064
  917MOL0     C26441  11.276   9.445   4.716  0.1304  0.7546  0.0333
  917MOL0     C26442  11.411   9.402   4.709  0.3753 -0.1759  0.2020
  917MOL0     C26443  11.486   9.412   4.586  0.6312 -0.6304 -1.1518
  917MOL0     O26444  11.614   9.361   4.575 -0.4750  0.5342  0.4664
  917MOL0     C26445  11.705   9.422   4.663 -0.2428  0.8985  0.4451
  917MOL0     C26446  11.785   9.502   4.569 -0.8319  0.3286 -0.5151
  917MOL0     C26447  11.889   9.584   4.652  0.3240 -0.0991 -0.3679
  917MOL0     C26448  11.990   9.495   4.727  0.8997  0.9892 -0.3912
  917MOL0     C26449  12.112   9.572   4.779 -0.6098 -0.1781  0.8976
  917MOL0     C26450  12.193   9.471   4.865  0.8056  0.3933 -0.0981
  917MOL0     C26451  12.326   9.527   4.919  0.1386  0.2784  0.5769
  917MOL0     C26452  12.414   9.420   4.976  0.1882 -0.1218 -0.7701
  917MOL0    Cl26453  12.487   9.312   4.846 -0.5519 -0.3767  0.0481
  917MOL0     C26454  11.430   9.487   4.483  0.0987 -0.6669  0.7830
  917MOL0     C26455  11.306   9.538   4.501 -0.2573 -0.2387  0.0272
  917MOL0     O26456  11.020   9.438   4.446  0.2216  0.2108  0.2331
  917MOL0     C26457  10.847   9.678   4.645 -0.3588  0.0515 -0.3676
  917MOL0     C26458  10.728   9.753   4.661 -0.1707  0.1573  0.2162
  917MOL0     N26459  10.534  10.374   4.470  0.4031 -0.0276  0.3860
  917MOL0     N26460  10.513  10.408   4.350 -0.5153  0.6380  0.2229
  917MOL0     C26461   9.390  10.795   3.658  0.0389  0.2837 -0.1777
  917MOL0     C26462   9.253  10.782   3.644 -0.5342  0.7236 -0.3079
  917MOL0     C26463   8.845  10.777   3.440 -0.3592  0.7833 -1.0128
  917MOL0     C26464   8.804  10.790   3.577 -0.0769  0.4625 -0.5960
  917MOL0     C26465   8.669  10.793   3.605  0.1011 -0.2096  0.0015
  917MOL0     C26466   8.568  10.812   3.500 -1.1529  0.1480  0.5244
  917MOL0     O26467   8.435  10.835   3.527 -0.4349  0.3944 -0.1255
  917MOL0     C26468   8.381  10.876   3.657 -0.0911 -0.4244  0.0034
  917MOL0     C26469   8.221  10.877   3.642 -1.3305 -0.0223 -1.3212
  917MOL0     C26470   8.137  10.758   3.695 -0.5188  0.6685 -0.2372
  917MOL0     C26471   7.986  10.770   3.689 -0.5190 -0.1951  0.1203
  917MOL0     C26472   7.926  10.901   3.721 -0.7489  1.4635 -0.6630
  917MOL0     C26473   7.853  10.999   3.739 -0.5958  0.8369  0.2406
  917MOL0     C26474   8.610  10.810   3.371  0.4032  0.4500  0.0430
  917MOL0     C26475   8.743  10.786   3.340 -0.5686 -0.4401 -0.1254
  917MOL0     C26476   8.775  10.775   3.195  0.6735 -0.5653  0.7406
  917MOL0     H26477   9.242  10.620   3.349  1.9172  0.2219 -0.7253
  917MOL0     H26478   9.465  10.618   3.379 -1.4865  0.5302 -1.2159
  917MOL0     H26479   9.602  10.686   3.804 -0.1136 -1.2172 -0.6596
  917MOL0     H26480   9.666  10.838   3.735 -0.4664  1.0150  1.0871
  917MOL0     H26481   9.782  10.557   3.699 -0.0945  0.3621 -0.3689
  917MOL0     H26482   9.862  10.707   3.650 -0.9624  1.8588 -0.2256
  917MOL0     H26483   9.851  10.763   3.908  2.2460  0.4462 -1.2289
  917MOL0     H26484   9.804  10.592   3.924 -1.9104  0.6518 -1.0656
  917MOL0     H26485   9.996  10.506   3.846  1.8710  0.4171 -0.2876
  917MOL0     H26486  10.064  10.669   3.811 -1.6480 -0.5842 -1.3203
  917MOL0     H26487   9.969  10.569   4.081  0.3547 -1.4152  0.3955
  917MOL0     H26488  10.071  10.710   4.045 -2.4838  0.6882  0.3449
  917MOL0     H26489  10.166  10.410   3.997  3.2981 -0.9106  1.3762
  917MOL0     H26490  10.254  10.561   3.969  1.7159  0.8441  2.6196
  917MOL0     H26491  10.151  10.501   4.251  1.6301  0.1428  1.8758
  917MOL0     H26492  10.280  10.604   4.205  0.2948  0.3525 -0.7369
  917MOL0     H26493  10.263  10.302   4.155  1.6719 -1.8998 -1.3284
  917MOL0     H26494  10.399  10.420   4.108 -2.2875  1.1149 -1.2547
  917MOL0     H26495  10.214  10.305   4.429  0.3888  0.7175  2.2069
  917MOL0     H26496  10.279  10.310   4.686 -1.3280  4.4085 -0.2718
  917MOL0     H26497  10.431  10.389   4.730 -2.1625  3.1163 -2.6973
  917MOL0     H26498  10.558  10.195   4.713 -0.4269 -0.6619  0.7820
  917MOL0     H26499  10.422  10.175   4.819  1.6559  1.8926 -0.0101
  917MOL0     H26500  10.318  10.028   4.647  0.4087 -0.2339  0.9542
  917MOL0     H26501  10.429  10.064   4.521 -4.3300 -1.3158 -1.1694
  917MOL0     H26502  10.610   9.976   4.681 -0.2249 -0.0368 -2.7263
  917MOL0     H26503  10.475   9.867   4.726 -1.1420 -1.8645 -1.2670
  917MOL0     H26504  10.620   9.727   4.336 -1.4283 -0.9773  0.4276
  917MOL0     H26505  10.814   9.439   4.294  1.0888  0.5236  2.0681
  917MOL0     H26506  10.933   9.567   4.262 -0.8149 -1.2550 -1.0568
  917MOL0     H26507  10.786   9.602   4.199  1.8531  0.3211 -1.5353
  917MOL0     H26508  11.211   9.419   4.799 -0.1303  0.2949 -0.3089
  917MOL0     H26509  11.462   9.344   4.786  0.6991  1.3853  1.2057
  917MOL0     H26510  11.659   9.475   4.746 -0.3776 -1.6223  2.0903
  917MOL0     H26511  11.768   9.345   4.709  0.6907  0.4317 -1.4958
  917MOL0     H26512  11.835   9.443   4.492 -0.3297  1.0443 -0.7509
  917MOL0     H26513  11.726   9.584   4.528 -0.2627  1.3822  0.6739
  917MOL0     H26514  11.838   9.647   4.725 -0.9603 -0.9201 -0.5279
  917MOL0     H26515  11.939   9.646   4.577 -0.8625 -1.2945 -2.2272
  917MOL0     H26516  12.028   9.423   4.654 -1.8463  0.6299 -1.5804
  917MOL0     H26517  11.935   9.433   4.799  0.4790  0.6834 -0.9647
  917MOL0     H26518  12.166   9.619   4.695 -2.0908 -0.2381 -0.1166
  917MOL0     H26519  12.082   9.651   4.848  0.7951  0.6240  0.6316
  917MOL0     H26520  12.216   9.389   4.796 -2.1039 -1.3248  0.8239
  917MOL0     H26521  12.125   9.430   4.940 -0.1101  1.1736 -0.4871
  917MOL0     H26522  12.297   9.602   4.993 -2.8036 -1.9304  1.8457
  917MOL0     H26523  12.381   9.572   4.836  0.9907 -1.6460  0.0250
  917MOL0     H26524  12.343   9.377   5.048 -2.3316  3.6330 -0.7066
  917MOL0     H26525  12.492   9.470   5.034  1.0074 -1.5818 -0.5696
  917MOL0     H26526  11.473   9.503   4.385  0.7742  0.6718  1.2684
  917MOL0     H26527  11.270   9.594   4.416 -0.6207  1.8927  1.5168
  917MOL0     H26528  10.905   9.661   4.735  0.1924  2.0311 -0.2972
  917MOL0     H26529  10.686   9.803   4.748 -1.8944 -1.4829  0.3807
  917MOL0     H26530   9.430  10.841   3.748  0.3231  0.8256 -0.5721
  917MOL0     H26531   9.190  10.832   3.717 -0.1999 -1.2497  1.4230
  917MOL0     H26532   8.868  10.785   3.665  2.3491 -0.3635 -2.3123
  917MOL0     H26533   8.630  10.783   3.706 -1.0474  0.1260 -0.3882
  917MOL0     H26534   8.424  10.819   3.739  1.9782  2.5235  1.1281
  917MOL0     H26535   8.420  10.975   3.680  0.2106 -0.6140  0.3175
  917MOL0     H26536   8.199  10.900   3.537 -3.3144 -0.5080 -1.0507
  917MOL0     H26537   8.184  10.970   3.685  3.5632  3.0715 -3.0117
  917MOL0     H26538   8.167  10.665   3.646 -3.1810 -0.6612  0.4629
  917MOL0     H26539   8.166  10.748   3.800  1.7602  0.7544 -0.8049
  917MOL0     H26540   7.954  10.688   3.754  1.0220 -1.2662 -0.4329
  917MOL0     H26541   7.942  10.740   3.593 -0.3759 -0.5770  0.1725
  917MOL0     H26542   7.791  11.079   3.773  0.5240  1.3069  1.2634
  917MOL0     H26543   8.535  10.814   3.292  0.7202 -1.6374 -0.4214
  917MOL0     H26544   8.829  10.865   3.164  4.5307 -2.0698  2.4686
  917MOL0     H26545   8.844  10.694   3.168 -0.2631 -1.3626  0.6789
  917MOL0     H26546   8.682  10.770   3.138  1.8342 -2.6021 -1.1335
  918MOL0     O26547   2.880   8.826   2.547 -0.4948  0.0515  0.1230
  918MOL0     C26548   2.893   8.942   2.506  1.3749  0.3169  0.8432
  918MOL0     O26549   3.014   9.009   2.491  0.0892  0.1292 -0.0588
  918MOL0     C26550   3.118   8.979   2.578 -0.7023 -1.4495  0.3814
  918MOL0     C26551   3.095   8.930   2.706 -0.8875 -0.7522  0.0598
  918MOL0     C26552   3.210   8.913   2.785  0.1882 -0.3604  0.1512
  918MOL0     C26553   3.342   8.924   2.747 -0.0076 -0.6345  0.1388
  918MOL0     O26554   3.454   8.891   2.811  0.2939  0.3436 -0.4321
  918MOL0     C26555   3.435   8.782   2.908 -0.9806 -0.1391  0.4075
  918MOL0     C26556   3.580   8.729   2.918 -0.3884  0.3616 -0.2335
  918MOL0     C26557   3.643   8.685   2.787  0.6305  0.3004  0.2298
  918MOL0     C26558   3.563   8.577   2.709 -0.1341 -0.5137 -0.9265
  918MOL0     C26559   3.647   8.508   2.602 -0.0108  0.2859  0.3106
  918MOL0     C26560   3.612   8.569   2.467 -0.3037 -0.2003  0.1119
  918MOL0     C26561   3.687   8.696   2.443 -0.8861 -1.1897 -0.3481
  918MOL0     C26562   3.682   8.740   2.295 -0.2908  0.6705  0.0134
  918MOL0     N26563   3.807   8.723   2.225  0.1353 -0.4561 -0.0157
  918MOL0     C26564   3.848   8.622   2.143 -0.7157 -0.1564 -0.4280
  918MOL0     C26565   3.972   8.666   2.102  0.8273  0.3337 -0.2280
  918MOL0     C26566   4.051   8.599   1.991  0.0889  0.2497 -0.8526
  918MOL0     C26567   4.172   8.545   2.058  0.2567  0.1317  0.7510
  918MOL0     C26568   4.229   8.429   1.969 -0.0046  0.1034 -0.0780
  918MOL0     C26569   4.294   8.480   1.839 -0.0574  0.0340 -0.9963
  918MOL0     O26570   4.413   8.536   1.892  0.5436  0.5938 -0.4493
  918MOL0     C26571   4.500   8.611   1.816  0.1012  0.6495  0.2627
  918MOL0     C26572   4.507   8.642   1.679 -0.1965  0.7457 -0.0946
  918MOL0     C26573   4.607   8.721   1.625  0.0743  0.7371 -0.2966
  918MOL0     C26574   4.571   8.765   1.478 -1.1013  0.1365 -0.6827
  918MOL0     C26575   4.701   8.780   1.706 -0.4842 -0.4977 -0.1280
  918MOL0     C26576   4.825   8.852   1.654  0.2361  0.3808 -0.3423
  918MOL0     O26577   4.921   8.883   1.744  0.9781 -1.0244 -1.0892
  918MOL0     C26578   5.053   8.902   1.727 -0.1353  0.1011  0.0776
  918MOL0     C26579   5.124   8.936   1.840 -0.3773 -1.1447 -0.4753
  918MOL0     C26580   5.265   8.945   1.836  0.2048 -0.6187 -0.3077
  918MOL0     C26581   5.340   8.924   1.725  1.0564 -0.3479  0.2251
  918MOL0     O26582   5.475   8.927   1.734  0.0323 -0.1066 -0.7261
  918MOL0     C26583   5.552   8.888   1.626 -0.1099  0.5639 -0.5417
  918MOL0     C26584   5.700   8.863   1.667  0.1438 -0.2923 -0.5334
  918MOL0     C26585   5.786   8.786   1.564 -0.2148  0.2907  0.3014
  918MOL0     C26586   5.814   8.857   1.426  0.3253  0.2721  1.0285
  918MOL0     C26587   5.907   8.777   1.335 -0.5062 -0.0832  0.0830
  918MOL0     C26588   6.050   8.773   1.381  0.1748  0.7812  1.4774
  918MOL0     C26589   6.152   8.721   1.275  0.5865 -0.1229 -0.2679
  918MOL0     C26590   6.291   8.696   1.332  0.5634 -0.2273  0.4142
  918MOL0    Cl26591   6.391   8.846   1.316 -0.5041 -0.1350  0.3255
  918MOL0     C26592   5.265   8.896   1.603 -0.4837 -0.0792  0.0980
  918MOL0     C26593   5.125   8.887   1.613  0.3707 -0.4757  0.0336
  918MOL0     O26594   4.839   8.861   1.527  0.5054 -0.2794 -0.3143
  918MOL0     C26595   4.692   8.758   1.849 -0.6238 -0.4500 -0.2647
  918MOL0     C26596   4.593   8.677   1.897  0.5280 -0.1201 -0.2895
  918MOL0     N26597   4.011   8.776   2.169 -0.2281  0.4992  0.5107
  918MOL0     N26598   3.909   8.805   2.243  0.9413 -0.3091  0.6139
  918MOL0     C26599   3.360   8.965   2.615  0.1261  0.7167 -0.5510
  918MOL0     C26600   3.251   8.997   2.521 -0.1932 -0.3005 -1.3919
  918MOL0     C26601   2.776   9.006   2.438 -0.5423  0.7395 -0.8701
  918MOL0     C26602   2.671   8.922   2.394  0.1031  0.2139  0.4522
  918MOL0     C26603   2.570   8.975   2.323 -0.0025 -0.5507 -0.3825
  918MOL0     C26604   2.560   9.111   2.293  0.4903  0.2195  0.0952
  918MOL0     O26605   2.450   9.142   2.222  0.1347  0.3326  0.1432
  918MOL0     C26606   2.431   9.272   2.168 -0.9620  0.1115  1.0612
  918MOL0     C26607   2.323   9.259   2.068 -0.4178  0.1330  0.4253
  918MOL0     C26608   2.299   9.394   2.004 -0.3525  0.5547 -0.5387
  918MOL0     C26609   2.175   9.403   1.930 -0.1605  0.5581  0.6587
  918MOL0     C26610   2.063   9.451   2.012 -0.8930 -0.6139  0.0963
  918MOL0     C26611   1.965   9.468   2.084  0.2532  0.1174  0.3908
  918MOL0     C26612   2.661   9.191   2.342 -0.3718 -0.2853  0.8891
  918MOL0     C26613   2.765   9.151   2.418 -0.1997  0.7540 -0.1887
  918MOL0     C26614   2.853   9.261   2.469 -0.0893  0.6640 -0.4662
  918MOL0     H26615   2.998   8.905   2.748 -0.4661 -0.9928  0.9087
  918MOL0     H26616   3.190   8.859   2.877  1.1951 -1.7240 -0.3977
  918MOL0     H26617   3.370   8.705   2.865 -1.6041  0.4961  0.1921
  918MOL0     H26618   3.389   8.817   3.001  0.2322 -1.1093  1.4030
  918MOL0     H26619   3.654   8.806   2.945  1.3705 -0.3503 -2.7041
  918MOL0     H26620   3.597   8.644   2.985  1.1724  1.3695  0.7238
  918MOL0     H26621   3.650   8.775   2.724  0.2491  0.1943  0.0361
  918MOL0     H26622   3.746   8.654   2.811 -0.3440 -1.8243  1.9546
  918MOL0     H26623   3.540   8.501   2.783  0.4787  2.3562  2.4827
  918MOL0     H26624   3.470   8.625   2.677 -0.9520 -2.0025 -0.8956
  918MOL0     H26625   3.616   8.404   2.590  1.8543 -0.0366 -2.8757
  918MOL0     H26626   3.755   8.509   2.620 -0.1876 -0.9875  1.5573
  918MOL0     H26627   3.654   8.502   2.391 -0.1362  2.5250 -2.3944
  918MOL0     H26628   3.504   8.577   2.454 -0.2141  2.7348  0.4570
  918MOL0     H26629   3.793   8.675   2.464 -0.6348  0.7559  0.5528
  918MOL0     H26630   3.651   8.773   2.512  0.7828 -0.8604  0.2068
  918MOL0     H26631   3.612   8.681   2.236  1.2686  0.0847 -1.3000
  918MOL0     H26632   3.654   8.845   2.286 -1.7625  0.1042 -3.0856
  918MOL0     H26633   3.802   8.528   2.115  0.6188 -1.1547  0.6481
  918MOL0     H26634   4.102   8.672   1.927  3.7540 -1.9281 -0.7154
  918MOL0     H26635   3.998   8.523   1.933 -0.7947 -0.8785  1.2857
  918MOL0     H26636   4.234   8.633   2.076  0.0644  0.8104 -1.5838
  918MOL0     H26637   4.149   8.494   2.152 -0.3539 -1.6015 -0.2901
  918MOL0     H26638   4.301   8.371   2.028  1.8784  0.9482 -1.4439
  918MOL0     H26639   4.158   8.353   1.937  1.2216 -0.7516 -0.8152
  918MOL0     H26640   4.312   8.394   1.774 -1.7176 -0.7157 -0.5092
  918MOL0     H26641   4.224   8.551   1.795 -0.9729 -0.4577 -0.3579
  918MOL0     H26642   4.440   8.606   1.601  1.5389  2.5078 -2.5241
  918MOL0     H26643   4.538   8.869   1.471 -1.2202  0.2110  0.7136
  918MOL0     H26644   4.498   8.692   1.440 -0.3189 -2.3270  2.1431
  918MOL0     H26645   4.659   8.755   1.414 -1.4141  4.2865 -2.0669
  918MOL0     H26646   5.070   8.944   1.933  3.2019 -0.8895  1.7636
  918MOL0     H26647   5.313   8.959   1.932  2.7939  0.0796 -1.6079
  918MOL0     H26648   5.506   8.792   1.600 -1.2932  0.7786  0.6365
  918MOL0     H26649   5.536   8.954   1.541 -1.6646  2.5713  1.2264
  918MOL0     H26650   5.750   8.959   1.686 -1.2365  0.4169 -0.3220
  918MOL0     H26651   5.691   8.801   1.756 -0.7546  0.6663  0.0698
  918MOL0     H26652   5.729   8.695   1.542 -5.1536  2.4772  2.5585
  918MOL0     H26653   5.880   8.761   1.616 -0.1757 -1.4974 -0.5497
  918MOL0     H26654   5.855   8.958   1.433  3.5616 -0.8178 -0.2632
  918MOL0     H26655   5.723   8.849   1.366  1.0621 -4.1718  0.1555
  918MOL0     H26656   5.861   8.679   1.328  0.5087 -0.7980  2.2832
  918MOL0     H26657   5.906   8.827   1.238 -1.1002  0.7782  0.5167
  918MOL0     H26658   6.052   8.705   1.467 -1.3610  1.4960  2.1200
  918MOL0     H26659   6.082   8.867   1.426 -0.7921  1.3584  1.0006
  918MOL0     H26660   6.156   8.793   1.192  0.3119 -1.0018 -1.0678
  918MOL0     H26661   6.114   8.632   1.223  1.2882  0.5599 -2.0468
  918MOL0     H26662   6.339   8.621   1.270  2.0950 -0.2057  1.5337
  918MOL0     H26663   6.278   8.652   1.431 -1.9310 -0.3718  0.0954
  918MOL0     H26664   5.314   8.888   1.507 -0.4906  1.8237 -0.1015
  918MOL0     H26665   5.068   8.856   1.526 -2.4593  1.4618  1.0840
  918MOL0     H26666   4.758   8.813   1.915 -1.2042 -0.5060  0.3767
  918MOL0     H26667   4.596   8.660   2.004  0.0902  0.3806 -0.1964
  918MOL0     H26668   3.459   8.979   2.573  0.4731 -1.1317 -0.3974
  918MOL0     H26669   3.271   9.022   2.417 -1.5128  3.6276 -0.8366
  918MOL0     H26670   2.673   8.814   2.404  0.8479  0.2846  1.1869
  918MOL0     H26671   2.497   8.904   2.288 -1.4132 -0.9370  2.9426
  918MOL0     H26672   2.415   9.347   2.245 -0.7899 -0.1944  1.4010
  918MOL0     H26673   2.515   9.303   2.105  2.5408 -1.4240  4.5242
  918MOL0     H26674   2.232   9.221   2.115  0.0286 -2.4552 -0.6493
  918MOL0     H26675   2.352   9.182   1.996  2.1054 -0.9103  2.3853
  918MOL0     H26676   2.293   9.464   2.089 -1.3361  0.5316 -0.5761
  918MOL0     H26677   2.382   9.408   1.934  0.4547  0.5635  0.3986
  918MOL0     H26678   2.154   9.310   1.876  0.9448  1.7324 -1.9538
  918MOL0     H26679   2.194   9.469   1.845  2.2306 -1.8090 -0.7880
  918MOL0     H26680   1.867   9.474   2.127  0.0430  0.6293 -0.1452
  918MOL0     H26681   2.659   9.298   2.326  0.1892 -0.4656 -0.5263
  918MOL0     H26682   2.853   9.249   2.578 -2.3496  1.8836 -0.2684
  918MOL0     H26683   2.954   9.260   2.428 -0.3762 -0.6363 -1.2188
  918MOL0     H26684   2.805   9.360   2.467 -1.0290  0.4014  3.0719
  919MOL0     O26685   5.352   8.615   6.680  0.2599  0.4081 -0.3164
  919MOL0     C26686   5.427   8.589   6.587 -0.9426 -0.9139  0.7278
  919MOL0     O26687   5.502   8.479   6.573 -0.1562  0.3731  0.3331
  919MOL0     C26688   5.525   8.405   6.686  0.4306 -0.2866  0.0538
  919MOL0     C26689   5.651   8.412   6.751  0.5592  0.9977 -0.0624
  919MOL0     C26690   5.663   8.346   6.873 -0.3737  0.5646 -0.0503
  919MOL0     C26691   5.569   8.266   6.933  0.5727  0.2348  0.6085
  919MOL0     O26692   5.598   8.206   7.048 -0.1579 -0.2433  0.1637
  919MOL0     C26693   5.506   8.106   7.093  0.1455  0.0659 -0.0804
  919MOL0     C26694   5.582   8.029   7.208  0.1147 -0.2608 -0.0817
  919MOL0     C26695   5.671   7.921   7.153  0.0813  0.2726 -0.9998
  919MOL0     C26696   5.799   7.897   7.231  0.2370 -0.0999  0.3105
  919MOL0     C26697   5.869   7.765   7.193  0.6102 -0.1255  0.0658
  919MOL0     C26698   5.899   7.752   7.040  0.4514 -0.1749  0.6980
  919MOL0     C26699   5.976   7.639   7.005 -0.5234 -0.3697  0.1875
  919MOL0     C26700   6.110   7.640   7.075  0.2284 -0.4641 -0.5193
  919MOL0     N26701   6.188   7.545   7.000 -0.1423  0.5718 -0.5649
  919MOL0     C26702   6.257   7.586   6.888 -0.1801  0.7762  0.1477
  919MOL0     C26703   6.330   7.481   6.857 -0.0264  0.3795  0.0300
  919MOL0     C26704   6.426   7.471   6.746 -0.1496  0.2471 -0.4175
  919MOL0     C26705   6.557   7.549   6.780 -0.2521  0.4410  0.4101
  919MOL0     C26706   6.640   7.586   6.659 -0.4522 -0.1151  0.1943
  919MOL0     C26707   6.760   7.668   6.694  0.0921  0.4267 -0.6566
  919MOL0     O26708   6.859   7.567   6.739  0.3006  0.2136 -0.1900
  919MOL0     C26709   6.961   7.539   6.652  0.8540 -0.1120 -0.1456
  919MOL0     C26710   7.072   7.472   6.708  0.1884 -0.3827 -0.2619
  919MOL0     C26711   7.182   7.449   6.634  0.0082 -0.7520  0.2282
  919MOL0     C26712   7.299   7.406   6.709  0.1332 -0.3557  0.4476
  919MOL0     C26713   7.185   7.496   6.500 -0.4680  0.4682  0.3169
  919MOL0     C26714   7.309   7.504   6.412  0.4236 -0.0633  0.6305
  919MOL0     O26715   7.429   7.542   6.469  0.5223  0.8876  0.1049
  919MOL0     C26716   7.540   7.522   6.386  0.0394 -0.8464  0.4976
  919MOL0     C26717   7.578   7.610   6.286 -0.0358  0.3143 -0.6463
  919MOL0     C26718   7.695   7.598   6.212  0.5572  0.6837  0.2240
  919MOL0     C26719   7.771   7.479   6.232 -0.8153  0.6212  0.3849
  919MOL0     O26720   7.892   7.453   6.172 -0.2577 -0.3436  0.0557
  919MOL0     C26721   7.966   7.558   6.102  0.0999  0.5883  0.1292
  919MOL0     C26722   7.952   7.547   5.948 -0.6487  0.2296  0.6769
  919MOL0     C26723   7.953   7.413   5.888 -0.0777 -0.5834 -0.0334
  919MOL0     C26724   8.092   7.346   5.861 -0.7351  0.2128 -0.3800
  919MOL0     C26725   8.078   7.194   5.814  0.2712 -0.4160 -1.2501
  919MOL0     C26726   8.044   7.190   5.664 -0.2652 -0.6774  0.1634
  919MOL0     C26727   8.017   7.032   5.626 -1.2135  0.4421 -0.4859
  919MOL0     C26728   8.031   7.010   5.476 -0.6779 -0.2817 -0.1747
  919MOL0    Cl26729   7.908   7.079   5.375 -0.4491  0.1136 -0.3351
  919MOL0     C26730   7.727   7.382   6.326 -0.1777  0.5837  0.6127
  919MOL0     C26731   7.605   7.405   6.397  0.9805 -0.0150 -0.1193
  919MOL0     O26732   7.292   7.482   6.287 -0.0477 -0.4622  0.1355
  919MOL0     C26733   7.072   7.551   6.440  0.6469 -0.0543 -0.1834
  919MOL0     C26734   6.959   7.567   6.515  0.1526 -0.2751 -0.0240
  919MOL0     N26735   6.297   7.375   6.939  0.1006 -0.7036  1.1797
  919MOL0     N26736   6.212   7.411   7.024  0.0099 -0.4344 -0.9108
  919MOL0     C26737   5.451   8.252   6.857 -0.2658 -0.5598 -0.0441
  919MOL0     C26738   5.428   8.328   6.739 -0.6847  0.0230  0.5936
  919MOL0     C26739   5.444   8.690   6.470 -0.2987 -0.1123 -0.4255
  919MOL0     C26740   5.518   8.647   6.354  0.3773 -0.1489 -0.2772
  919MOL0     C26741   5.536   8.731   6.247  0.4816  0.9000  0.2817
  919MOL0     C26742   5.489   8.862   6.256  0.2522  0.8781 -0.9370
  919MOL0     O26743   5.528   8.939   6.149  0.4386 -0.4682 -0.1399
  919MOL0     C26744   5.445   9.050   6.114 -0.6096 -0.5855  0.7246
  919MOL0     C26745   5.511   9.129   5.997  0.5969 -0.9356  0.8188
  919MOL0     C26746   5.648   9.180   6.013  0.0965 -0.4540 -0.6199
  919MOL0     C26747   5.717   9.215   5.878 -0.0584 -0.5865 -0.0953
  919MOL0     C26748   5.762   9.091   5.815  0.3533 -0.6002 -0.5166
  919MOL0     C26749   5.811   8.990   5.763  0.6670 -0.2104 -0.4200
  919MOL0     C26750   5.404   8.906   6.360 -0.5939 -0.1228 -0.2579
  919MOL0     C26751   5.393   8.824   6.466 -0.0506 -0.0136 -0.0382
  919MOL0     C26752   5.328   8.886   6.583  0.8750 -0.4615  0.6673
  919MOL0     H26753   5.732   8.476   6.716  3.0294 -0.6941  2.2189
  919MOL0     H26754   5.755   8.359   6.930  0.0034 -2.1177  0.0709
  919MOL0     H26755   5.476   8.027   7.023  1.2234  0.3587 -0.8879
  919MOL0     H26756   5.416   8.151   7.135  0.9888  0.2757  1.5858
  919MOL0     H26757   5.646   8.102   7.258  1.7207  0.0592 -2.4395
  919MOL0     H26758   5.515   7.983   7.281 -0.8961 -1.4988 -1.7048
  919MOL0     H26759   5.616   7.827   7.153 -0.8055  0.6916  1.7930
  919MOL0     H26760   5.691   7.944   7.048 -1.0665  1.8909 -0.9113
  919MOL0     H26761   5.870   7.977   7.205  1.2531 -1.3591 -0.8974
  919MOL0     H26762   5.789   7.904   7.340 -0.3304  2.2270  0.1786
  919MOL0     H26763   5.807   7.679   7.224 -0.3814  0.7623  0.6280
  919MOL0     H26764   5.961   7.764   7.253  0.9584  0.8923 -0.4344
  919MOL0     H26765   5.809   7.735   6.981  0.6785 -2.0155  0.8349
  919MOL0     H26766   5.952   7.838   6.998 -0.2606  0.2613  0.6733
  919MOL0     H26767   5.990   7.641   6.896  0.3411  0.6597  0.2945
  919MOL0     H26768   5.926   7.545   7.027 -1.6894 -0.5386 -2.7826
  919MOL0     H26769   6.157   7.739   7.071 -0.8474  0.0206 -2.4241
  919MOL0     H26770   6.107   7.606   7.179 -1.8739  3.1242  0.7535
  919MOL0     H26771   6.259   7.685   6.844  0.2499  1.3752  1.4579
  919MOL0     H26772   6.370   7.512   6.661 -1.7687  0.0710  0.5360
  919MOL0     H26773   6.454   7.368   6.723  1.8135  1.0424 -1.9630
  919MOL0     H26774   6.532   7.641   6.834 -0.7297 -0.7032  2.2255
  919MOL0     H26775   6.614   7.493   6.854 -0.4850  1.2761  1.2459
  919MOL0     H26776   6.673   7.495   6.608 -1.1518 -0.6621  0.7009
  919MOL0     H26777   6.584   7.650   6.591  0.4306  1.4676  0.8942
  919MOL0     H26778   6.791   7.725   6.605 -1.8188  0.3245 -1.4360
  919MOL0     H26779   6.737   7.741   6.772  1.6149  1.6557 -1.2893
  919MOL0     H26780   7.067   7.428   6.807 -0.1183 -0.4543 -0.3083
  919MOL0     H26781   7.370   7.488   6.725 -0.1689 -0.3378  1.7740
  919MOL0     H26782   7.350   7.331   6.648  0.0528 -0.6933  0.7951
  919MOL0     H26783   7.277   7.354   6.802 -1.1762  0.1332  0.4215
  919MOL0     H26784   7.526   7.704   6.270 -1.4063 -0.3264 -0.1249
  919MOL0     H26785   7.712   7.676   6.138 -1.0710  1.1635  0.3085
  919MOL0     H26786   7.935   7.659   6.130 -2.0428  0.6993 -2.2449
  919MOL0     H26787   8.071   7.555   6.130 -0.0973  0.8892  0.9506
  919MOL0     H26788   7.865   7.602   5.913  0.2352  0.5736 -1.0911
  919MOL0     H26789   8.038   7.603   5.911 -1.0462  1.7137  1.9052
  919MOL0     H26790   7.895   7.412   5.795 -0.4166  0.6690  0.1404
  919MOL0     H26791   7.901   7.353   5.963 -1.3505  0.8747  0.3067
  919MOL0     H26792   8.156   7.349   5.950 -1.0042  2.2571 -0.2014
  919MOL0     H26793   8.152   7.395   5.784 -0.1058 -0.4240 -0.3081
  919MOL0     H26794   8.177   7.147   5.821  0.0679 -1.3418 -3.6020
  919MOL0     H26795   8.010   7.135   5.876 -0.8097  3.2814  1.4484
  919MOL0     H26796   8.127   7.229   5.605  0.2930  4.6126  3.7801
  919MOL0     H26797   7.961   7.253   5.630  0.9684  1.3952  0.8223
  919MOL0     H26798   7.921   6.997   5.664 -0.8477 -5.1860 -3.7413
  919MOL0     H26799   8.092   6.967   5.673 -0.0352  0.6911 -1.9539
  919MOL0     H26800   8.034   6.902   5.459 -0.2898 -0.4407  0.8459
  919MOL0     H26801   8.136   7.031   5.458 -0.6532  0.5000  0.7683
  919MOL0     H26802   7.780   7.292   6.355  0.8952  1.0819  0.2606
  919MOL0     H26803   7.565   7.333   6.468 -1.0031  1.4508  0.3478
  919MOL0     H26804   7.088   7.584   6.338  0.4218  2.2193  0.4751
  919MOL0     H26805   6.872   7.606   6.463  0.1063 -1.4885 -0.8966
  919MOL0     H26806   5.366   8.194   6.892 -0.6969  0.0901  0.0067
  919MOL0     H26807   5.326   8.321   6.703 -0.8296 -4.2571  1.3945
  919MOL0     H26808   5.557   8.545   6.349 -0.4581 -0.5044  0.2868
  919MOL0     H26809   5.579   8.692   6.156  1.4008  2.1009  0.1830
  919MOL0     H26810   5.348   9.018   6.074  0.4174 -1.1911 -1.4192
  919MOL0     H26811   5.428   9.117   6.199  1.4289  0.4553  0.3709
  919MOL0     H26812   5.450   9.220   5.994  1.6566 -0.2248  0.0133
  919MOL0     H26813   5.503   9.061   5.912  0.2209 -0.7307  0.6882
  919MOL0     H26814   5.655   9.264   6.083  3.7187 -0.1732 -1.1186
  919MOL0     H26815   5.710   9.110   6.070 -1.7119  0.7577  3.1175
  919MOL0     H26816   5.803   9.281   5.890 -1.2068  1.1352 -0.9846
  919MOL0     H26817   5.649   9.268   5.811  1.2647  0.0919 -0.9337
  919MOL0     H26818   5.855   8.902   5.719 -2.3526 -2.2596  0.3673
  919MOL0     H26819   5.362   9.005   6.365 -1.1061 -0.3571  0.1832
  919MOL0     H26820   5.221   8.863   6.580 -0.3110  4.0102  0.7174
  919MOL0     H26821   5.371   8.852   6.677  3.4623  1.7039  0.3860
  919MOL0     H26822   5.326   8.996   6.584 -0.2098 -0.4408 -0.4170
  920MOL0     O26823   4.625   4.723   2.246  0.1142  0.0429  0.0384
  920MOL0     C26824   4.564   4.645   2.181  0.4755  0.1694 -0.1178
  920MOL0     O26825   4.498   4.673   2.068 -0.7157  0.3250  0.8268
  920MOL0     C26826   4.541   4.783   1.994  0.3679  0.1649  0.9145
  920MOL0     C26827   4.432   4.841   1.925 -0.5597  0.0515  0.5821
  920MOL0     C26828   4.463   4.950   1.844  0.8658 -0.3071  0.5594
  920MOL0     C26829   4.591   5.007   1.832  0.2397 -0.1138 -0.2919
  920MOL0     O26830   4.607   5.126   1.767 -0.1041  0.1143 -0.5201
  920MOL0     C26831   4.570   5.118   1.626  0.2008 -0.7939 -0.1201
  920MOL0     C26832   4.632   5.235   1.555  0.1683  0.2263 -0.1139
  920MOL0     C26833   4.782   5.240   1.580 -0.5102  0.4792 -0.5859
  920MOL0     C26834   4.863   5.327   1.473  0.0721  0.3725  0.1529
  920MOL0     C26835   5.014   5.328   1.516 -0.1859  0.9432 -0.4523
  920MOL0     C26836   5.093   5.441   1.450 -0.1011 -0.2802  0.6579
  920MOL0     C26837   5.245   5.426   1.447 -0.4910 -0.1488 -0.3267
  920MOL0     C26838   5.312   5.563   1.412  0.5841  0.2546 -0.3996
  920MOL0     N26839   5.327   5.586   1.267 -0.1640  0.2530  0.3676
  920MOL0     C26840   5.442   5.609   1.193 -0.5039 -0.1459 -1.6392
  920MOL0     C26841   5.400   5.642   1.066 -0.7000  0.0530 -0.4035
  920MOL0     C26842   5.487   5.670   0.953 -0.2189 -0.5761 -1.0038
  920MOL0     C26843   5.581   5.789   0.976  0.0067 -0.0572 -0.7442
  920MOL0     C26844   5.672   5.826   0.858  1.5143 -0.0190  0.1091
  920MOL0     C26845   5.736   5.964   0.859 -0.0129 -0.0352 -0.5206
  920MOL0     O26846   5.855   5.964   0.774  0.4561  0.2013  0.0279
  920MOL0     C26847   5.978   5.913   0.818  0.0626 -0.3443 -0.0882
  920MOL0     C26848   6.079   5.912   0.718 -0.1258  0.0988 -0.4036
  920MOL0     C26849   6.209   5.866   0.742 -0.0094 -0.8082  0.2936
  920MOL0     C26850   6.294   5.833   0.623  0.3332  0.1687  0.3035
  920MOL0     C26851   6.236   5.816   0.873 -1.2380  0.6191  0.4656
  920MOL0     C26852   6.371   5.745   0.911 -0.1713  0.6066  0.1457
  920MOL0     O26853   6.375   5.673   1.030 -0.1356 -0.2593 -0.3321
  920MOL0     C26854   6.479   5.583   1.054  0.3151 -0.8900  0.4729
  920MOL0     C26855   6.615   5.599   1.025  0.9863  0.0067  0.9745
  920MOL0     C26856   6.710   5.498   1.063 -0.6474  0.2428 -0.6081
  920MOL0     C26857   6.669   5.386   1.119 -0.0548 -0.0534  0.8363
  920MOL0     O26858   6.768   5.298   1.138  0.4630 -0.2957 -0.0562
  920MOL0     C26859   6.742   5.159   1.146 -0.2158 -0.2978  0.2004
  920MOL0     C26860   6.865   5.071   1.159  0.1729 -0.3987 -0.1287
  920MOL0     C26861   6.919   5.092   1.302 -0.3034 -0.1771 -0.7103
  920MOL0     C26862   7.046   5.006   1.331  0.5274 -0.6749  0.2868
  920MOL0     C26863   7.113   5.061   1.465 -0.5330  0.0782 -0.8665
  920MOL0     C26864   7.215   5.181   1.436  0.3916  0.3819  0.0141
  920MOL0     C26865   7.352   5.139   1.413 -0.5702  0.0407  0.0721
  920MOL0     C26866   7.443   5.252   1.355  0.0415  0.3020 -1.2383
  920MOL0    Cl26867   7.424   5.260   1.178  0.1844 -0.1911 -0.2378
  920MOL0     C26868   6.529   5.358   1.139 -0.3971 -0.0244  0.5292
  920MOL0     C26869   6.439   5.460   1.101 -0.6663  0.1292 -1.2628
  920MOL0     O26870   6.464   5.747   0.836 -0.1790 -0.1585 -0.5733
  920MOL0     C26871   6.133   5.819   0.970 -0.0240 -0.2285 -0.2198
  920MOL0     C26872   6.007   5.874   0.949  0.6190  0.2013 -0.2084
  920MOL0     N26873   5.263   5.649   1.067  0.8494 -0.5392 -0.5309
  920MOL0     N26874   5.220   5.610   1.186  0.1950  0.2446 -0.4410
  920MOL0     C26875   4.693   4.955   1.909  0.5762  1.3532 -0.6454
  920MOL0     C26876   4.674   4.843   1.994 -0.3707  0.1614 -0.2877
  920MOL0     C26877   4.537   4.504   2.233  0.8671 -0.3596 -0.3591
  920MOL0     C26878   4.407   4.456   2.198  0.7490  1.1389  0.5041
  920MOL0     C26879   4.372   4.319   2.227 -0.5454 -0.7464 -0.2185
  920MOL0     C26880   4.466   4.243   2.297 -0.0225 -0.3256  1.3383
  920MOL0     O26881   4.417   4.118   2.326  0.7255  0.1636  0.2526
  920MOL0     C26882   4.475   4.061   2.444  0.5902 -0.1908 -0.5123
  920MOL0     C26883   4.383   3.962   2.519  0.1588  0.6070  1.1918
  920MOL0     C26884   4.272   4.033   2.591  0.4556  0.4308 -0.4369
  920MOL0     C26885   4.213   3.926   2.686  0.0681 -0.7129 -0.3948
  920MOL0     C26886   4.135   3.822   2.618  0.4917  0.6077 -0.1867
  920MOL0     C26887   4.075   3.724   2.576 -0.4363  0.2174  1.1372
  920MOL0     C26888   4.596   4.293   2.322  0.7625  0.5656 -0.3087
  920MOL0     C26889   4.634   4.421   2.285  0.7678  0.3269  0.1129
  920MOL0     C26890   4.779   4.469   2.318 -0.6824 -0.1544 -0.3047
  920MOL0     H26891   4.333   4.800   1.942 -0.6604  0.6734  1.5967
  920MOL0     H26892   4.375   4.995   1.799 -0.4068  1.0443  4.0487
  920MOL0     H26893   4.463   5.115   1.604 -0.8578  0.7688  4.0009
  920MOL0     H26894   4.611   5.022   1.591  1.0001 -0.7443  0.6421
  920MOL0     H26895   4.612   5.217   1.449 -0.1905  1.1996 -0.2295
  920MOL0     H26896   4.591   5.332   1.584  0.9498  0.7050 -0.5825
  920MOL0     H26897   4.806   5.266   1.683  0.3620 -1.6243 -0.2101
  920MOL0     H26898   4.829   5.144   1.559  0.8768  1.6072 -2.9567
  920MOL0     H26899   4.850   5.281   1.374  0.3685  0.9634 -0.1620
  920MOL0     H26900   4.824   5.428   1.460 -3.3834 -0.6375  1.3849
  920MOL0     H26901   5.069   5.238   1.487  0.2536  0.5584  1.4419
  920MOL0     H26902   5.018   5.336   1.625  0.3677 -0.3727 -0.3560
  920MOL0     H26903   5.064   5.463   1.347  0.3062  1.5252  0.8960
  920MOL0     H26904   5.065   5.529   1.509  1.7215 -0.7199  2.3181
  920MOL0     H26905   5.282   5.355   1.372 -0.3308  0.4153 -0.7965
  920MOL0     H26906   5.290   5.382   1.536 -0.9575 -0.9357 -0.4729
  920MOL0     H26907   5.247   5.641   1.455  0.2529  0.2685 -0.9183
  920MOL0     H26908   5.411   5.575   1.456  0.2297  0.7455  0.3024
  920MOL0     H26909   5.546   5.610   1.223 -0.8560 -1.1972 -0.2717
  920MOL0     H26910   5.418   5.690   0.870 -3.2364 -0.9452  1.2465
  920MOL0     H26911   5.552   5.586   0.927 -1.6687 -2.1478  0.2286
  920MOL0     H26912   5.518   5.877   0.990  0.4202 -0.2080  2.9777
  920MOL0     H26913   5.643   5.753   1.059  0.2107 -3.0127 -2.0380
  920MOL0     H26914   5.751   5.752   0.868 -0.5622 -2.1706  1.6040
  920MOL0     H26915   5.628   5.817   0.758 -0.2452 -2.6009  1.0062
  920MOL0     H26916   5.665   6.042   0.831 -0.9694  0.3888  2.6544
  920MOL0     H26917   5.763   5.991   0.962 -0.0212 -1.6306 -0.0655
  920MOL0     H26918   6.032   5.948   0.627 -2.4136  1.5318  1.2145
  920MOL0     H26919   6.386   5.892   0.621  1.0484 -0.9206 -1.7188
  920MOL0     H26920   6.237   5.855   0.532  0.2685  1.1822  0.5744
  920MOL0     H26921   6.317   5.726   0.616 -1.6331 -0.4102  1.7636
  920MOL0     H26922   6.663   5.680   0.970  0.1273  1.1439  1.8524
  920MOL0     H26923   6.814   5.502   1.031 -0.3975 -1.4828 -0.0762
  920MOL0     H26924   6.678   5.146   1.234 -1.1589  1.3949 -0.1950
  920MOL0     H26925   6.682   5.139   1.057 -2.1810  2.7888  0.6721
  920MOL0     H26926   6.847   4.963   1.157 -0.0898 -0.3551 -0.1764
  920MOL0     H26927   6.937   5.091   1.079  1.4432 -0.9204  0.8546
  920MOL0     H26928   6.840   5.077   1.377  0.2917  1.3078  0.2620
  920MOL0     H26929   6.930   5.200   1.318 -2.8833 -0.1807  2.1508
  920MOL0     H26930   7.117   5.022   1.249  0.5639  1.6559  0.6949
  920MOL0     H26931   7.006   4.904   1.338  0.9111 -0.7781  1.0447
  920MOL0     H26932   7.039   5.091   1.540 -0.9949  2.1317 -2.0528
  920MOL0     H26933   7.164   4.973   1.504 -0.7995  0.5377  0.6114
  920MOL0     H26934   7.216   5.257   1.514 -0.3411  0.5831 -0.1589
  920MOL0     H26935   7.177   5.226   1.343  0.7949 -0.3921 -0.5434
  920MOL0     H26936   7.339   5.051   1.349 -1.3188  0.0574  0.1960
  920MOL0     H26937   7.399   5.106   1.507  1.3347  0.3294 -0.7238
  920MOL0     H26938   7.544   5.215   1.377 -1.3034 -3.4228 -0.5568
  920MOL0     H26939   7.439   5.351   1.401  0.7700  0.8080 -2.2233
  920MOL0     H26940   6.489   5.261   1.166 -0.5267 -0.1424 -0.0619
  920MOL0     H26941   6.338   5.427   1.126 -1.0813  0.4649 -2.4667
  920MOL0     H26942   6.170   5.788   1.068  1.1700 -1.4068 -1.0051
  920MOL0     H26943   5.935   5.893   1.028  0.8619  0.8702 -0.1431
  920MOL0     H26944   4.795   4.991   1.900  1.7233 -1.7191 -1.2686
  920MOL0     H26945   4.753   4.799   2.053 -0.2739  1.2234  0.3899
  920MOL0     H26946   4.329   4.525   2.166  2.4627  2.8641 -0.1303
  920MOL0     H26947   4.273   4.288   2.197 -0.4010 -1.0178 -0.4129
  920MOL0     H26948   4.568   4.011   2.418  0.4964 -0.5584 -0.1585
  920MOL0     H26949   4.491   4.147   2.510 -0.8050 -0.0336 -0.3312
  920MOL0     H26950   4.439   3.909   2.597 -1.6047  1.3523  3.0593
  920MOL0     H26951   4.336   3.889   2.453  0.1063  0.6529  1.1790
  920MOL0     H26952   4.309   4.112   2.657 -1.2161  0.8716  0.0294
  920MOL0     H26953   4.186   4.072   2.536 -0.5982 -2.4577 -1.0069
  920MOL0     H26954   4.143   3.977   2.753 -0.9586 -1.1368 -1.1205
  920MOL0     H26955   4.292   3.880   2.747  0.1475  0.5540  0.5049
  920MOL0     H26956   4.026   3.637   2.537 -1.3057  2.0263 -2.1911
  920MOL0     H26957   4.668   4.230   2.373 -0.4229  0.8417  1.8100
  920MOL0     H26958   4.834   4.409   2.391  0.7852  2.5704  1.0246
  920MOL0     H26959   4.845   4.481   2.231 -0.6809 -1.6983 -0.5359
  920MOL0     H26960   4.776   4.570   2.360 -0.7071 -1.2534  2.5471
  921MOL0     O26961   5.397   7.121   9.183  0.2838  0.4720 -0.1047
  921MOL0     C26962   5.416   7.235   9.144  0.7485  0.1642 -0.2369
  921MOL0     O26963   5.324   7.317   9.093  0.1599  0.3357  0.1638
  921MOL0     C26964   5.191   7.278   9.117 -1.2057  0.1710  0.0671
  921MOL0     C26965   5.101   7.310   9.012 -0.9224  0.2923  0.6849
  921MOL0     C26966   4.969   7.258   9.005  0.1389 -0.5676  0.2238
  921MOL0     C26967   4.928   7.175   9.113  0.9173  0.2350 -0.9422
  921MOL0     O26968   4.802   7.121   9.119  0.2022 -0.0816 -0.0879
  921MOL0     C26969   4.722   7.111   9.002  0.3965  1.0432  0.5238
  921MOL0     C26970   4.598   7.022   9.044  0.6588 -0.1892 -0.2726
  921MOL0     C26971   4.648   6.877   9.087 -0.1395 -0.0492  0.5813
  921MOL0     C26972   4.536   6.804   9.166 -0.1669  0.2315 -0.0701
  921MOL0     C26973   4.542   6.647   9.153 -0.3916  0.1549 -0.3850
  921MOL0     C26974   4.670   6.582   9.193  0.2557  0.0596 -0.1811
  921MOL0     C26975   4.711   6.621   9.339 -0.2913 -0.0530  0.3622
  921MOL0     C26976   4.831   6.555   9.387 -0.5631  1.1911  0.0248
  921MOL0     N26977   4.963   6.593   9.328  0.0206 -0.0906  0.1706
  921MOL0     C26978   5.009   6.719   9.325  0.0687 -0.8014 -1.1022
  921MOL0     C26979   5.141   6.707   9.293 -0.1956  0.4450  0.4505
  921MOL0     C26980   5.237   6.827   9.284  0.4060  0.1670 -0.7851
  921MOL0     C26981   5.258   6.897   9.418 -0.1662  0.2358 -0.0988
  921MOL0     C26982   5.353   6.810   9.513  1.0357 -0.4809 -0.1162
  921MOL0     C26983   5.495   6.858   9.509 -0.0281 -0.2009 -0.2989
  921MOL0     O26984   5.548   6.815   9.381 -1.1071  0.0036  0.5122
  921MOL0     C26985   5.681   6.828   9.340  0.7433  0.9765  0.3343
  921MOL0     C26986   5.788   6.856   9.424 -0.5788 -0.8544  0.4392
  921MOL0     C26987   5.920   6.864   9.369 -0.0138 -0.7389 -0.2729
  921MOL0     C26988   6.033   6.913   9.457 -0.1340  0.7720  0.2234
  921MOL0     C26989   5.942   6.829   9.234 -0.0156 -0.3982  0.2979
  921MOL0     C26990   6.065   6.860   9.156 -0.2769 -0.2519  0.4959
  921MOL0     O26991   6.090   6.769   9.057  0.1612 -0.0494  0.3513
  921MOL0     C26992   6.191   6.796   8.967  0.1449  0.3113 -0.0424
  921MOL0     C26993   6.161   6.772   8.837  0.1106  0.8547 -0.9805
  921MOL0     C26994   6.242   6.797   8.731 -0.2479  0.0860 -0.6249
  921MOL0     C26995   6.377   6.826   8.757  0.5372  0.9752 -0.0314
  921MOL0     O26996   6.478   6.843   8.672 -0.2269 -0.4839  0.3256
  921MOL0     C26997   6.473   6.769   8.544 -0.3459 -0.8804  0.8918
  921MOL0     C26998   6.614   6.723   8.495 -0.3459  0.1186 -1.2462
  921MOL0     C26999   6.705   6.846   8.499  0.9569 -0.1769  1.3338
  921MOL0     C27000   6.849   6.835   8.449  0.7124 -0.3462 -0.4734
  921MOL0     C27001   6.924   6.968   8.447  0.5670 -0.0610  0.8433
  921MOL0     C27002   7.068   6.959   8.399  0.1120  0.1241  0.3544
  921MOL0     C27003   7.131   7.094   8.428  0.7415 -0.4613  0.4739
  921MOL0     C27004   7.275   7.110   8.385 -0.4367  0.0085 -0.6285
  921MOL0    Cl27005   7.374   7.116   8.527  0.2703 -0.3426  0.4734
  921MOL0     C27006   6.421   6.843   8.888  0.0367 -0.1532  0.0694
  921MOL0     C27007   6.331   6.827   8.993  0.6164 -1.0666 -0.5292
  921MOL0     O27008   6.135   6.956   9.177 -0.1761  0.0223  0.0490
  921MOL0     C27009   5.833   6.786   9.162 -0.2317  0.1060 -0.1158
  921MOL0     C27010   5.699   6.793   9.212 -0.4946  0.2756  0.1049
  921MOL0     N27011   5.169   6.572   9.271 -0.7946  0.2287 -0.2806
  921MOL0     N27012   5.064   6.502   9.299 -0.0696 -0.5504  0.0690
  921MOL0     C27013   5.008   7.166   9.230  0.0986  0.3142  0.4695
  921MOL0     C27014   5.139   7.216   9.228 -0.2218  1.1926  0.0565
  921MOL0     C27015   5.555   7.281   9.151  0.3809 -1.2553  0.1896
  921MOL0     C27016   5.648   7.186   9.159  0.1803 -0.0521 -0.1486
  921MOL0     C27017   5.784   7.216   9.191 -0.1585 -0.2695 -0.6348
  921MOL0     C27018   5.829   7.346   9.219 -0.8298 -0.5022  0.4472
  921MOL0     O27019   5.956   7.389   9.246  0.3111 -0.3177 -0.5297
  921MOL0     C27020   6.063   7.295   9.231 -0.8730  0.0299  0.3415
  921MOL0     C27021   6.192   7.372   9.248  0.1759  0.2334  0.0815
  921MOL0     C27022   6.203   7.492   9.144 -0.5716 -0.1254 -0.5887
  921MOL0     C27023   6.317   7.580   9.187 -0.2377 -0.6131 -0.1092
  921MOL0     C27024   6.304   7.669   9.305  0.4626 -0.2161 -0.7139
  921MOL0     C27025   6.277   7.740   9.401  0.1375 -0.4078  0.1039
  921MOL0     C27026   5.735   7.450   9.203  0.0788 -0.1612 -0.4266
  921MOL0     C27027   5.604   7.414   9.166  0.3830 -0.0411  0.5525
  921MOL0     C27028   5.518   7.533   9.150  0.1539  0.1463  0.5173
  921MOL0     H27029   5.138   7.364   8.925 -0.8825  0.2387  0.6692
  921MOL0     H27030   4.903   7.266   8.920  0.0705 -1.5874  0.1644
  921MOL0     H27031   4.782   7.060   8.926 -2.2130 -0.8141 -0.4478
  921MOL0     H27032   4.703   7.206   8.950  1.2449  0.7959 -0.2564
  921MOL0     H27033   4.555   7.081   9.125  0.7339 -1.8620  1.0384
  921MOL0     H27034   4.534   7.013   8.955 -0.0099  0.0642  0.1779
  921MOL0     H27035   4.679   6.832   8.992 -1.9758 -0.2659  0.0374
  921MOL0     H27036   4.739   6.877   9.148  0.2417  1.8928  0.0868
  921MOL0     H27037   4.555   6.838   9.268 -2.8091  0.5729  0.3768
  921MOL0     H27038   4.438   6.844   9.141 -0.6298  0.0364  1.3428
  921MOL0     H27039   4.524   6.625   9.048 -0.8013  0.3391 -0.3569
  921MOL0     H27040   4.458   6.617   9.216 -0.4236 -0.7015 -0.8339
  921MOL0     H27041   4.665   6.473   9.202  2.2647  0.0175  1.2794
  921MOL0     H27042   4.746   6.608   9.118  1.0235 -0.1573  0.5084
  921MOL0     H27043   4.625   6.599   9.402 -0.3534  3.4474  1.7190
  921MOL0     H27044   4.726   6.728   9.356  2.7346 -0.5566  1.4497
  921MOL0     H27045   4.847   6.575   9.494  2.6471  0.4775 -0.2393
  921MOL0     H27046   4.827   6.446   9.376 -0.3216  1.0258  1.3029
  921MOL0     H27047   4.959   6.810   9.358  0.4557 -0.1951 -2.1486
  921MOL0     H27048   5.190   6.908   9.227  2.0872  1.4369 -0.4671
  921MOL0     H27049   5.333   6.804   9.237  0.1852  1.1829 -1.7958
  921MOL0     H27050   5.307   6.992   9.395 -0.7687  0.7205  0.5473
  921MOL0     H27051   5.159   6.910   9.463 -0.2274 -3.3948  1.1174
  921MOL0     H27052   5.316   6.812   9.616  0.7968  1.6649 -0.1949
  921MOL0     H27053   5.350   6.706   9.479  2.5037 -1.0304  1.2928
  921MOL0     H27054   5.508   6.965   9.522  2.2481 -0.7916  4.3675
  921MOL0     H27055   5.557   6.821   9.592 -0.0018 -0.3444 -0.3803
  921MOL0     H27056   5.775   6.885   9.528 -3.0298 -0.6370  0.1329
  921MOL0     H27057   6.070   7.006   9.413 -1.6100  0.3655 -2.0555
  921MOL0     H27058   6.121   6.849   9.463  0.1972  1.0124 -1.5068
  921MOL0     H27059   6.003   6.947   9.556  0.6538  1.0268  0.3828
  921MOL0     H27060   6.057   6.750   8.814  0.4741 -2.6778  0.0936
  921MOL0     H27061   6.212   6.797   8.627  0.3912  0.0329 -0.8080
  921MOL0     H27062   6.405   6.683   8.547 -2.4392  0.6901  0.7883
  921MOL0     H27063   6.438   6.838   8.467  1.5140  2.9718  3.1948
  921MOL0     H27064   6.641   6.645   8.567  3.3913  3.9953  2.0648
  921MOL0     H27065   6.614   6.679   8.395 -1.6208  1.6596 -1.9614
  921MOL0     H27066   6.709   6.887   8.601 -1.1885  0.8009  1.0729
  921MOL0     H27067   6.661   6.929   8.444 -0.5629 -1.9537 -0.2732
  921MOL0     H27068   6.834   6.793   8.349 -1.4292 -1.8484  0.3907
  921MOL0     H27069   6.899   6.754   8.502 -0.9550 -0.5779  0.8249
  921MOL0     H27070   6.868   7.028   8.375  0.4248 -0.2245  0.8191
  921MOL0     H27071   6.915   7.023   8.542 -0.2318  1.3345 -0.0074
  921MOL0     H27072   7.082   6.939   8.293  2.5760 -1.7755  0.9403
  921MOL0     H27073   7.126   6.879   8.445  1.3539 -0.7927 -2.5737
  921MOL0     H27074   7.129   7.109   8.536  1.5015 -0.3019  0.4759
  921MOL0     H27075   7.068   7.167   8.377 -1.9725 -3.1361 -0.2521
  921MOL0     H27076   7.292   7.207   8.337  0.0933  1.3301  2.0665
  921MOL0     H27077   7.316   7.030   8.323 -0.1866 -1.8459  1.7767
  921MOL0     H27078   6.525   6.852   8.919 -0.7837  1.1902  2.8337
  921MOL0     H27079   6.353   6.857   9.094 -0.9214  3.2909 -1.2721
  921MOL0     H27080   5.854   6.764   9.058  0.9372  1.1537 -0.1171
  921MOL0     H27081   5.624   6.744   9.151 -0.6362  0.5431  0.0632
  921MOL0     H27082   4.970   7.127   9.324  0.2576  2.0503  1.2972
  921MOL0     H27083   5.204   7.212   9.315  1.2730  1.5632 -1.0138
  921MOL0     H27084   5.619   7.081   9.150  2.1369 -0.6918  0.4749
  921MOL0     H27085   5.853   7.132   9.194  0.7884  0.5149  0.9157
  921MOL0     H27086   6.062   7.215   9.305 -0.5337  0.0181  0.3334
  921MOL0     H27087   6.057   7.243   9.135 -2.2167 -0.0257  0.4368
  921MOL0     H27088   6.274   7.303   9.226  0.8446  1.3503 -1.0752
  921MOL0     H27089   6.209   7.410   9.349  2.8500  2.7773 -1.1514
  921MOL0     H27090   6.222   7.449   9.045  0.4766  0.6278 -0.7267
  921MOL0     H27091   6.110   7.549   9.137  0.6993  2.0736 -0.2602
  921MOL0     H27092   6.336   7.643   9.100 -1.6698 -1.5166 -1.1114
  921MOL0     H27093   6.400   7.512   9.206 -0.4268 -1.8986 -3.2576
  921MOL0     H27094   6.246   7.797   9.486  2.1086  1.0829 -0.1116
  921MOL0     H27095   5.780   7.549   9.209  0.1335 -0.2432  0.8978
  921MOL0     H27096   5.494   7.550   9.045  0.4795 -0.1285  0.3987
  921MOL0     H27097   5.428   7.521   9.211 -0.2569  3.2838  0.6990
  921MOL0     H27098   5.573   7.620   9.188 -2.6519  2.7901 -1.0462
  922MOL0     O27099   8.754   2.547   9.995  0.0410 -0.1221 -0.2999
  922MOL0     C27100   8.780   2.639   9.924 -0.2115 -0.9583  0.9594
  922MOL0     O27101   8.846   2.755   9.972 -0.5074  0.1945 -0.2794
  922MOL0     C27102   8.940   2.736  10.073  0.3114  0.4606  0.0774
  922MOL0     C27103   9.031   2.628  10.076 -0.1444  0.0414 -0.0537
  922MOL0     C27104   9.131   2.630  10.175  0.3402 -0.4729  0.3242
  922MOL0     C27105   9.132   2.727  10.276  0.3198  0.0545  0.2802
  922MOL0     O27106   9.220   2.731  10.381 -0.8206  0.3397 -0.4917
  922MOL0     C27107   9.308   2.621  10.400 -0.7576 -0.5586  0.0753
  922MOL0     C27108   9.398   2.630  10.523 -0.3671 -0.2661  0.6469
  922MOL0     C27109   9.466   2.494  10.551 -0.0038  0.0900 -0.6600
  922MOL0     C27110   9.509   2.497  10.702 -0.1553  0.9560 -0.4269
  922MOL0     C27111   9.575   2.368  10.752 -0.3901  0.1244 -0.3079
  922MOL0     C27112   9.692   2.327  10.673 -0.7165 -0.3652  0.1444
  922MOL0     C27113   9.775   2.226  10.753 -0.9058  0.1039 -0.0691
  922MOL0     C27114   9.834   2.266  10.889 -0.5985 -0.4256 -0.3724
  922MOL0     N27115   9.975   2.229  10.910  0.1689 -0.0166 -0.1265
  922MOL0     C27116  10.018   2.144  11.009 -0.2903  0.1694  0.0444
  922MOL0     C27117  10.148   2.145  10.994 -0.1137  0.0827  0.5225
  922MOL0     C27118  10.232   2.055  11.084  0.1814 -0.1325  0.0687
  922MOL0     C27119  10.375   2.110  11.115  0.6098 -0.2481 -0.9130
  922MOL0     C27120  10.450   2.050  11.232  0.5032  0.3072  0.1174
  922MOL0     C27121  10.540   1.925  11.199  0.2081 -0.5300  0.4584
  922MOL0     O27122  10.604   1.892  11.327 -0.2774 -0.3550  0.0497
  922MOL0     C27123  10.726   1.834  11.327  0.2612 -0.3280  0.3123
  922MOL0     C27124  10.750   1.725  11.248  0.5053 -0.2968 -0.1442
  922MOL0     C27125  10.872   1.661  11.254 -0.4918  0.0790 -0.3604
  922MOL0     C27126  10.898   1.540  11.169  0.1999  1.2166 -0.5769
  922MOL0     C27127  10.977   1.719  11.335 -0.4398 -0.8391 -1.1533
  922MOL0     C27128  11.113   1.655  11.346 -0.6477 -0.7724 -0.1055
  922MOL0     O27129  11.119   1.516  11.354 -0.8107 -0.7687 -0.2726
  922MOL0     C27130  11.245   1.455  11.354 -0.2794  0.3914 -0.2608
  922MOL0     C27131  11.267   1.351  11.268  0.8073 -1.4326 -0.7313
  922MOL0     C27132  11.395   1.281  11.262  0.0935 -0.0667  0.2155
  922MOL0     C27133  11.492   1.321  11.353 -0.1907  0.1462 -0.0411
  922MOL0     O27134  11.611   1.252  11.361 -0.3162  0.9308  0.3418
  922MOL0     C27135  11.717   1.307  11.447 -0.1949  0.4114  0.2497
  922MOL0     C27136  11.836   1.228  11.421  0.4729  0.0060 -0.1929
  922MOL0     C27137  11.872   1.226  11.276  0.2816  0.0099 -0.5945
  922MOL0     C27138  11.997   1.148  11.242  0.3141 -0.6322 -0.0242
  922MOL0     C27139  12.036   1.164  11.093  0.8594  1.5315  0.0864
  922MOL0     C27140  12.151   1.064  11.067  0.8089  0.2166 -0.2975
  922MOL0     C27141  12.160   1.030  10.917  0.0992 -0.2228 -0.1648
  922MOL0     C27142  12.232   1.141  10.831  0.1040 -0.0204  0.3621
  922MOL0    Cl27143  12.113   1.256  10.764  0.5821 -0.0957 -0.1516
  922MOL0     C27144  11.466   1.420  11.451 -0.4045  0.3034 -0.6262
  922MOL0     C27145  11.345   1.480  11.457 -0.4411 -0.1196  0.0965
  922MOL0     O27146  11.212   1.733  11.357  0.1518 -0.5981 -0.2764
  922MOL0     C27147  10.952   1.828  11.409  0.1162 -0.7147 -0.1013
  922MOL0     C27148  10.823   1.886  11.406 -0.4231  0.4057 -0.7729
  922MOL0     N27149  10.188   2.244  10.905  0.8470 -0.0219  0.1537
  922MOL0     N27150  10.082   2.287  10.852 -0.0718 -0.9495 -0.4952
  922MOL0     C27151   9.044   2.838  10.267  0.8770  0.0597 -0.1787
  922MOL0     C27152   8.942   2.843  10.168  0.7915 -0.2397  0.3156
  922MOL0     C27153   8.697   2.659   9.793 -0.5808  0.1763  0.2093
  922MOL0     C27154   8.698   2.784   9.727  0.4207  0.1157 -0.8131
  922MOL0     C27155   8.626   2.804   9.608 -0.8048  0.4430  0.2230
  922MOL0     C27156   8.549   2.700   9.549  1.1023 -0.4983  0.0385
  922MOL0     O27157   8.482   2.734   9.433  0.9821  0.2636  0.6406
  922MOL0     C27158   8.418   2.622   9.356 -0.4922  0.4439  0.5912
  922MOL0     C27159   8.362   2.667   9.220  0.1712 -0.2500  0.1605
  922MOL0     C27160   8.288   2.547   9.147  0.3460  0.3164 -0.4922
  922MOL0     C27161   8.230   2.593   9.013 -0.7862  0.0450 -0.3329
  922MOL0     C27162   8.109   2.684   9.037 -0.4028 -0.1964 -0.6871
  922MOL0     C27163   8.014   2.746   9.067  0.9623 -0.6668  0.1642
  922MOL0     C27164   8.537   2.580   9.620 -0.2795  0.4430 -0.4352
  922MOL0     C27165   8.613   2.553   9.736  0.0100 -0.0325 -0.1787
  922MOL0     C27166   8.604   2.410   9.789 -0.2255 -0.6743 -0.4468
  922MOL0     H27167   9.045   2.551  10.000  1.8303 -0.9676  1.2407
  922MOL0     H27168   9.204   2.549  10.180  1.9611  0.8168 -1.4162
  922MOL0     H27169   9.386   2.603  10.325 -0.3144  2.3473 -0.2792
  922MOL0     H27170   9.239   2.538  10.415  0.9597 -1.5636  3.6039
  922MOL0     H27171   9.463   2.717  10.510 -0.0609 -0.3273  1.6825
  922MOL0     H27172   9.333   2.663  10.603 -0.4584 -1.8898  1.2874
  922MOL0     H27173   9.403   2.406  10.532 -0.5040  0.4882 -0.8844
  922MOL0     H27174   9.557   2.487  10.492  4.0158 -1.8796  4.9335
  922MOL0     H27175   9.576   2.581  10.721 -0.4850  1.1363 -0.0464
  922MOL0     H27176   9.426   2.522  10.768 -0.3631 -1.8345  0.5156
  922MOL0     H27177   9.507   2.282  10.748 -1.0237  0.5488  0.7625
  922MOL0     H27178   9.606   2.401  10.852 -0.5061 -0.8614  0.0678
  922MOL0     H27179   9.653   2.292  10.577 -2.5666  1.3414  0.2056
  922MOL0     H27180   9.754   2.412  10.646  2.0304 -2.7728 -1.7684
  922MOL0     H27181   9.856   2.182  10.694 -0.7965  0.8909 -0.5319
  922MOL0     H27182   9.721   2.132  10.765 -0.2663 -0.4275 -1.1781
  922MOL0     H27183   9.845   2.375  10.894  1.3965 -0.4879 -2.0203
  922MOL0     H27184   9.778   2.238  10.978  0.4998 -3.1786 -0.4598
  922MOL0     H27185   9.952   2.085  11.073  1.7248 -0.6210  1.4759
  922MOL0     H27186  10.250   1.958  11.036  2.1431  0.3956 -0.3490
  922MOL0     H27187  10.184   2.032  11.180 -1.2775  2.4098  0.0034
  922MOL0     H27188  10.443   2.098  11.031  1.6209 -0.7191 -0.0572
  922MOL0     H27189  10.370   2.215  11.145 -0.3143 -0.9347  1.6391
  922MOL0     H27190  10.522   2.127  11.262  0.3436  0.8788 -0.9171
  922MOL0     H27191  10.385   2.034  11.318  0.5318  2.7369  0.6816
  922MOL0     H27192  10.485   1.838  11.161  2.0687 -0.8392 -1.7197
  922MOL0     H27193  10.616   1.960  11.129 -0.6482  3.5322  1.2991
  922MOL0     H27194  10.675   1.678  11.185 -1.2475  0.1490  1.4995
  922MOL0     H27195  10.907   1.445  11.223  2.1952  1.9266  0.4417
  922MOL0     H27196  10.996   1.538  11.120  1.4950 -2.0577  1.7413
  922MOL0     H27197  10.819   1.521  11.096  0.5023 -0.5021 -0.5002
  922MOL0     H27198  11.185   1.313  11.209  0.1746 -0.3754 -0.5632
  922MOL0     H27199  11.417   1.194  11.201  0.4065  0.1897 -0.0393
  922MOL0     H27200  11.737   1.410  11.419  0.6727  0.6962  1.8645
  922MOL0     H27201  11.690   1.290  11.551 -1.4643  2.5761  0.3298
  922MOL0     H27202  11.915   1.271  11.482  1.5953  0.2082 -1.7284
  922MOL0     H27203  11.803   1.128  11.451 -1.2496  0.8415  0.8605
  922MOL0     H27204  11.884   1.331  11.248 -0.0166 -0.3829 -2.2985
  922MOL0     H27205  11.798   1.166  11.222  1.7056 -0.1267 -2.4953
  922MOL0     H27206  11.994   1.044  11.274  0.2066  0.4049  3.8815
  922MOL0     H27207  12.081   1.185  11.303 -0.8864  0.0832  1.2583
  922MOL0     H27208  11.956   1.128  11.029 -0.9150  1.3891  2.2538
  922MOL0     H27209  12.061   1.268  11.073  0.2951  1.0119 -4.0457
  922MOL0     H27210  12.130   0.973  11.124  1.7671  0.6448  0.7652
  922MOL0     H27211  12.248   1.091  11.108  0.5807  1.6002 -0.6402
  922MOL0     H27212  12.058   1.024  10.877 -0.1497  2.4085 -0.1109
  922MOL0     H27213  12.205   0.931  10.904  0.2837  0.0169 -1.5358
  922MOL0     H27214  12.292   1.092  10.755  1.8325  1.9810  0.3362
  922MOL0     H27215  12.301   1.200  10.893 -0.3272  1.2379 -0.3237
  922MOL0     H27216  11.530   1.439  11.536 -0.6549  2.2671 -0.8197
  922MOL0     H27217  11.338   1.551  11.539 -1.6097 -1.8279  1.5493
  922MOL0     H27218  11.032   1.886  11.455  0.1865  1.5860 -2.8673
  922MOL0     H27219  10.804   1.984  11.449  0.1980  0.8629 -1.4993
  922MOL0     H27220   9.051   2.921  10.338  2.2251  1.1488 -1.5035
  922MOL0     H27221   8.880   2.931  10.155 -1.6892 -1.9786 -0.3199
  922MOL0     H27222   8.767   2.861   9.759  0.9356 -1.1251  1.2945
  922MOL0     H27223   8.646   2.895   9.553 -1.2555 -0.1018 -0.8749
  922MOL0     H27224   8.497   2.548   9.339  0.2577  1.2669  0.4150
  922MOL0     H27225   8.339   2.572   9.412  0.7505 -0.0815  1.9313
  922MOL0     H27226   8.434   2.714   9.153  0.9893 -1.3609  0.2485
  922MOL0     H27227   8.290   2.746   9.246  0.2617 -0.4567  1.0684
  922MOL0     H27228   8.364   2.477   9.113 -0.1792  0.6358 -2.4820
  922MOL0     H27229   8.206   2.497   9.200  0.5575 -0.5630 -0.9820
  922MOL0     H27230   8.202   2.502   8.959  0.8965 -0.0066 -1.1777
  922MOL0     H27231   8.311   2.642   8.959  1.4104 -0.3562  2.3742
  922MOL0     H27232   7.931   2.812   9.085 -0.8543 -2.8062  0.1358
  922MOL0     H27233   8.464   2.514   9.574 -1.7661  1.4190  0.4413
  922MOL0     H27234   8.537   2.401   9.876 -2.3250  1.8848 -1.6686
  922MOL0     H27235   8.568   2.345   9.709 -1.1874  0.7438 -1.2167
  922MOL0     H27236   8.704   2.374   9.813  0.7052  1.2341 -1.2324
  923MOL0     O27237   2.640   0.184   0.726  0.4443 -0.2467 -0.1068
  923MOL0     C27238   2.631   0.184   0.849 -0.1253  0.8357  0.0198
  923MOL0     O27239   2.735   0.150   0.942 -0.4722 -0.0262 -0.8005
  923MOL0     C27240   2.857   0.142   0.879  0.1561 -0.1622 -0.8165
  923MOL0     C27241   2.945   0.259   0.886  0.8259 -0.2097  0.0311
  923MOL0     C27242   3.071   0.251   0.836 -0.0685  0.4709  0.5236
  923MOL0     C27243   3.122   0.128   0.788 -0.3046 -0.7600 -0.6084
  923MOL0     O27244   3.250   0.113   0.741 -0.3520 -0.6833  0.0873
  923MOL0     C27245   3.324   0.226   0.745 -0.3523  0.0015 -0.3079
  923MOL0     C27246   3.454   0.194   0.685  0.3340 -0.0050  0.8046
  923MOL0     C27247   3.560   0.300   0.666  0.2367  0.2782 -0.7016
  923MOL0     C27248   3.608   0.366   0.807 -0.1767 -0.7313 -0.4338
  923MOL0     C27249   3.717   0.466   0.778 -0.0602 -1.1431 -0.7113
  923MOL0     C27250   3.735   0.545   0.907 -0.5082  0.3409  1.3081
  923MOL0     C27251   3.813   0.670   0.868  0.5887 -0.1163 -0.1205
  923MOL0     C27252   3.827   0.761   0.991  0.8179 -0.2247 -0.5037
  923MOL0     N27253   3.915   0.877   0.966 -0.7973  0.3692 -0.0222
  923MOL0     C27254   3.898   0.977   0.871 -0.5496  0.1732  0.1619
  923MOL0     C27255   4.018   1.046   0.882  0.7033 -0.9664  0.3046
  923MOL0     C27256   4.057   1.159   0.799 -0.1319 -0.0826  0.7589
  923MOL0     C27257   3.977   1.285   0.808 -0.1027  0.4610 -1.0979
  923MOL0     C27258   3.949   1.348   0.672 -0.0554  0.2002  0.8380
  923MOL0     C27259   4.083   1.366   0.587  0.2638  0.0993 -0.5321
  923MOL0     O27260   4.174   1.447   0.664  0.9732 -0.8609  0.1061
  923MOL0     C27261   4.305   1.445   0.617  0.8292 -0.5225  0.7493
  923MOL0     C27262   4.375   1.569   0.614  0.2824 -0.9534 -0.5804
  923MOL0     C27263   4.503   1.585   0.571 -0.3195 -0.8381  0.6771
  923MOL0     C27264   4.559   1.728   0.572 -0.5667 -0.7412 -0.1884
  923MOL0     C27265   4.577   1.470   0.534  0.2963  0.1889  0.2717
  923MOL0     C27266   4.720   1.483   0.492  0.6283  0.4081 -0.3644
  923MOL0     O27267   4.762   1.378   0.416 -0.1622  0.5266  0.2769
  923MOL0     C27268   4.902   1.370   0.398  0.4492  0.5809 -0.1473
  923MOL0     C27269   4.977   1.299   0.492  0.0219 -0.6267 -0.5384
  923MOL0     C27270   5.110   1.274   0.473  0.0449  0.2779 -0.0230
  923MOL0     C27271   5.175   1.333   0.360  0.8301 -0.0510 -0.5985
  923MOL0     O27272   5.314   1.324   0.334 -0.2294 -0.1783 -0.6920
  923MOL0     C27273   5.401   1.275   0.445 -0.4610  0.6885  0.0670
  923MOL0     C27274   5.424   1.120   0.454 -0.2656 -0.2944  0.0452
  923MOL0     C27275   5.520   1.078   0.340 -0.4712  1.1517 -0.1831
  923MOL0     C27276   5.551   0.927   0.350 -0.3825  0.5021  0.1116
  923MOL0     C27277   5.664   0.873   0.261  0.2922 -0.1343 -1.1522
  923MOL0     C27278   5.654   0.728   0.242 -0.6741  0.0558  0.0113
  923MOL0     C27279   5.794   0.672   0.201  0.5885 -0.3286 -0.5870
  923MOL0     C27280   5.787   0.535   0.142 -0.6014  0.3110  0.4259
  923MOL0    Cl27281   5.948   0.515   0.057  0.5444 -0.4792 -0.1232
  923MOL0     C27282   5.099   1.406   0.268  0.0264  0.3623  0.1177
  923MOL0     C27283   4.960   1.419   0.282 -0.5284  0.5863  0.2049
  923MOL0     O27284   4.795   1.570   0.540 -0.2598  0.2719 -0.7221
  923MOL0     C27285   4.502   1.350   0.532 -0.1009 -0.1394  0.7812
  923MOL0     C27286   4.376   1.338   0.573 -0.4666  0.1287 -0.5516
  923MOL0     N27287   4.109   0.980   0.961 -0.5840 -0.2696 -0.8882
  923MOL0     N27288   4.043   0.878   1.012  0.3657 -0.9384  0.6070
  923MOL0     C27289   3.035   0.015   0.773  0.2592 -1.3799  0.2625
  923MOL0     C27290   2.904   0.034   0.804  0.6002 -0.1280 -0.3493
  923MOL0     C27291   2.505   0.224   0.911 -0.4660 -0.7649  0.0248
  923MOL0     C27292   2.463   0.151   1.020  1.2370 -0.1622 -0.5251
  923MOL0     C27293   2.332   0.159   1.073 -0.0767 -0.9889  0.5745
  923MOL0     C27294   2.244   0.246   1.007 -0.2812 -0.5559  0.0187
  923MOL0     O27295   2.115   0.238   1.055 -0.4602 -0.6072 -0.4759
  923MOL0     C27296   2.013   0.330   1.005  0.4005 -0.5524 -0.6729
  923MOL0     C27297   1.878   0.270   1.034  0.3456  0.4170 -0.0438
  923MOL0     C27298   1.764   0.372   1.003 -0.0574  0.2986 -0.0247
  923MOL0     C27299   1.632   0.298   1.034 -0.1404 -0.4341  0.1574
  923MOL0     C27300   1.588   0.197   0.932 -0.0329 -0.5653  0.0551
  923MOL0     C27301   1.557   0.130   0.834  0.4932 -0.5720 -0.0289
  923MOL0     C27302   2.293   0.335   0.911  0.3727  1.1351 -0.0447
  923MOL0     C27303   2.418   0.320   0.857  0.2693 -0.4478 -0.0936
  923MOL0     C27304   2.452   0.410   0.733 -0.6327  0.0463  0.1489
  923MOL0     H27305   2.912   0.354   0.925  0.7707  0.4411 -1.5557
  923MOL0     H27306   3.132   0.340   0.851 -0.3489  0.9787 -1.1398
  923MOL0     H27307   3.326   0.251   0.851 -4.6483 -3.5852  0.9293
  923MOL0     H27308   3.282   0.309   0.687  0.6722 -0.2833 -1.5086
  923MOL0     H27309   3.494   0.113   0.747 -2.5900 -3.6394 -1.5824
  923MOL0     H27310   3.442   0.148   0.586 -3.3005 -0.8876  1.4939
  923MOL0     H27311   3.645   0.253   0.616 -0.0541 -0.3025 -0.6519
  923MOL0     H27312   3.517   0.378   0.602  1.1106  0.2524 -1.3284
  923MOL0     H27313   3.519   0.406   0.854  1.0846  2.8591 -0.7929
  923MOL0     H27314   3.649   0.284   0.867 -0.1551 -0.6434 -0.3303
  923MOL0     H27315   3.686   0.535   0.699 -1.5241 -1.2585 -0.2695
  923MOL0     H27316   3.814   0.421   0.758  0.1597 -1.0069  0.0097
  923MOL0     H27317   3.639   0.585   0.941 -1.1871 -1.0774  1.1251
  923MOL0     H27318   3.775   0.494   0.995  3.5264  1.2491  0.1883
  923MOL0     H27319   3.764   0.726   0.788  1.0213  0.1879 -0.1777
  923MOL0     H27320   3.907   0.631   0.829  0.2017  0.3609 -1.5854
  923MOL0     H27321   3.725   0.792   1.017  1.2955  0.7932  0.2138
  923MOL0     H27322   3.860   0.705   1.079 -2.4346 -1.1933  0.2333
  923MOL0     H27323   3.818   0.990   0.799  0.2914  0.5440 -0.7321
  923MOL0     H27324   4.050   1.120   0.697  1.9524  1.5699 -0.0778
  923MOL0     H27325   4.160   1.185   0.826  0.3452 -0.2159 -0.8448
  923MOL0     H27326   3.882   1.265   0.858  0.6811 -2.2612 -0.5593
  923MOL0     H27327   4.022   1.347   0.886 -1.4232  0.2010 -0.0867
  923MOL0     H27328   3.873   1.290   0.618 -0.0846 -0.5084  1.6187
  923MOL0     H27329   3.908   1.449   0.679 -2.2143 -0.5976  0.6614
  923MOL0     H27330   4.135   1.272   0.568 -1.6423 -1.6355  2.1261
  923MOL0     H27331   4.063   1.427   0.498 -0.6379  0.2459 -0.2409
  923MOL0     H27332   4.325   1.655   0.657 -0.8931 -1.8267 -0.1364
  923MOL0     H27333   4.480   1.804   0.576  0.1175  0.1726 -2.6694
  923MOL0     H27334   4.610   1.738   0.476 -1.7741 -1.8528 -0.9803
  923MOL0     H27335   4.626   1.746   0.657 -1.3583  1.0987  0.0976
  923MOL0     H27336   4.915   1.277   0.579 -1.2739  1.8846 -0.7474
  923MOL0     H27337   5.164   1.218   0.549  0.1370 -1.7829 -1.4995
  923MOL0     H27338   5.499   1.316   0.420  0.7087 -0.8676  1.7561
  923MOL0     H27339   5.368   1.314   0.542 -5.6602 -1.3666 -0.5391
  923MOL0     H27340   5.464   1.096   0.553  0.4226  1.8559  0.3443
  923MOL0     H27341   5.330   1.069   0.434 -0.8367 -0.1714  2.2004
  923MOL0     H27342   5.614   1.133   0.344  0.4786 -0.3690 -0.5329
  923MOL0     H27343   5.485   1.100   0.239  0.6065 -2.5021 -1.5274
  923MOL0     H27344   5.462   0.871   0.316 -1.3392  1.5056  0.8950
  923MOL0     H27345   5.574   0.896   0.452  0.1373 -0.0300 -0.1627
  923MOL0     H27346   5.652   0.928   0.167  0.6915 -0.0070 -1.1325
  923MOL0     H27347   5.753   0.901   0.318 -2.4478  0.6769  3.2191
  923MOL0     H27348   5.584   0.708   0.160 -0.3379 -0.8203 -0.0743
  923MOL0     H27349   5.611   0.670   0.324 -1.0077 -0.3581 -0.4516
  923MOL0     H27350   5.873   0.687   0.275  0.6173 -1.8260 -0.2791
  923MOL0     H27351   5.820   0.737   0.117  3.3182  0.2365  0.5885
  923MOL0     H27352   5.704   0.520   0.073  0.5596  0.8780 -1.1491
  923MOL0     H27353   5.775   0.467   0.227 -1.3646 -0.4505 -0.2790
  923MOL0     H27354   5.152   1.448   0.182 -0.0837  1.6911  0.6685
  923MOL0     H27355   4.902   1.462   0.202 -1.3088 -0.9413 -0.0885
  923MOL0     H27356   4.548   1.254   0.513  0.5170 -0.3151  2.9126
  923MOL0     H27357   4.329   1.242   0.589  1.5312 -0.7186  0.7707
  923MOL0     H27358   3.059  -0.083   0.735 -1.5471 -1.5418 -0.5710
  923MOL0     H27359   2.829  -0.043   0.790  1.1366 -0.5370 -1.0619
  923MOL0     H27360   2.528   0.068   1.044  1.2292 -0.5790 -1.8942
  923MOL0     H27361   2.310   0.096   1.158 -1.5173  0.8660  1.6658
  923MOL0     H27362   2.023   0.429   1.050  1.3342 -1.5368  1.3775
  923MOL0     H27363   2.029   0.340   0.897  2.6908  1.5596 -0.2470
  923MOL0     H27364   1.878   0.230   1.135 -0.4994 -1.7712 -0.8543
  923MOL0     H27365   1.863   0.196   0.955  1.4224 -0.5637  0.6525
  923MOL0     H27366   1.770   0.461   1.067 -1.7559  1.1862 -1.0134
  923MOL0     H27367   1.765   0.401   0.897  0.6942  2.5242  0.5316
  923MOL0     H27368   1.554   0.374   1.031  0.8919  0.6800 -3.1252
  923MOL0     H27369   1.632   0.251   1.133  2.1513  0.4741  0.6426
  923MOL0     H27370   1.518   0.066   0.757  1.5153 -3.5652  1.7603
  923MOL0     H27371   2.228   0.412   0.871 -0.3256 -0.5958 -2.4880
  923MOL0     H27372   2.560   0.422   0.722 -0.3199 -0.8172  1.9699
  923MOL0     H27373   2.414   0.376   0.636  2.5492  4.1055 -2.8649
  923MOL0     H27374   2.416   0.512   0.750 -1.2079 -0.3180  1.1930
  924MOL0     O27375   4.965  10.967   7.452  0.3708  0.0767  0.4229
  924MOL0     C27376   4.899  10.951   7.353  0.9759  0.4708  0.3100
  924MOL0     O27377   4.940  10.914   7.223 -0.0662  0.1046 -0.4485
  924MOL0     C27378   5.072  10.885   7.187  0.6160  0.5902  0.5952
  924MOL0     C27379   5.098  10.831   7.059  0.8678 -0.4499 -0.1437
  924MOL0     C27380   5.220  10.805   7.000  0.3108  0.2615 -0.1084
  924MOL0     C27381   5.330  10.819   7.078  0.5070  0.6075  0.2372
  924MOL0     O27382   5.460  10.799   7.041  1.2858  0.0249 -0.1410
  924MOL0     C27383   5.490  10.766   6.903 -0.0461 -0.4194  0.4428
  924MOL0     C27384   5.646  10.746   6.892 -0.4574  0.4028  0.1951
  924MOL0     C27385   5.704  10.741   6.749 -0.2213 -0.1953  0.5144
  924MOL0     C27386   5.688  10.868   6.665 -0.7116  0.1911  0.3412
  924MOL0     C27387   5.603  10.840   6.538  0.4207  1.1707  0.6565
  924MOL0     C27388   5.597  10.967   6.446 -1.0225  0.1059 -0.1218
  924MOL0     C27389   5.516  11.088   6.501 -0.0458  0.4772  1.1294
  924MOL0     C27390   5.480  11.189   6.391  0.5162 -0.1431  0.3775
  924MOL0     N27391   5.605  11.249   6.333  0.2516  0.4549  0.3951
  924MOL0     C27392   5.663  11.207   6.221 -0.8947 -0.4434  0.2819
  924MOL0     C27393   5.745  11.313   6.193 -0.2363 -0.4447  0.7883
  924MOL0     C27394   5.799  11.334   6.054  0.4141 -0.0306  0.4417
  924MOL0     C27395   5.945  11.299   6.043  0.2238  0.9969 -0.2634
  924MOL0     C27396   6.011  11.358   5.915 -0.8179 -0.8073 -0.1327
  924MOL0     C27397   6.146  11.293   5.902 -0.4186  0.6348 -0.4285
  924MOL0     O27398   6.233  11.328   6.016 -0.8616 -0.1122 -0.0678
  924MOL0     C27399   6.345  11.257   6.019  0.2246 -0.3477 -0.0919
  924MOL0     C27400   6.347  11.154   6.103  0.6272 -0.1944  0.3389
  924MOL0     C27401   6.460  11.084   6.105 -0.2771  0.2928  0.1869
  924MOL0     C27402   6.449  10.954   6.181 -0.4050  0.4628 -0.8761
  924MOL0     C27403   6.571  11.111   6.018 -0.3951  0.0646 -1.4770
  924MOL0     C27404   6.697  11.028   6.022  0.0157  1.1002  0.3227
  924MOL0     O27405   6.763  11.036   5.896  0.2165  0.8662  0.2364
  924MOL0     C27406   6.867  10.952   5.870 -0.1446  0.1738 -0.5688
  924MOL0     C27407   6.987  10.972   5.931  0.1620  0.1893 -0.5206
  924MOL0     C27408   7.089  10.887   5.902 -0.3264  0.3603  0.2532
  924MOL0     C27409   7.070  10.770   5.818 -0.1455 -0.2422  0.2861
  924MOL0     O27410   7.166  10.676   5.798 -0.3691 -0.3170 -0.4601
  924MOL0     C27411   7.309  10.700   5.835 -0.5504  0.5087 -0.2839
  924MOL0     C27412   7.388  10.592   5.757  0.2105 -0.4458  0.3113
  924MOL0     C27413   7.534  10.621   5.765 -0.3286  0.2078 -0.1632
  924MOL0     C27414   7.590  10.673   5.643  0.5767 -0.0427 -0.1272
  924MOL0     C27415   7.741  10.675   5.658  0.6333  0.2970 -0.4437
  924MOL0     C27416   7.803  10.763   5.769 -0.2552  0.5837 -0.6914
  924MOL0     C27417   7.954  10.775   5.749  0.4087  0.4136  0.2632
  924MOL0     C27418   7.984  10.883   5.643 -0.0542  0.8158  0.4350
  924MOL0    Cl27419   8.156  10.956   5.682  0.1446 -0.1243 -0.1579
  924MOL0     C27420   6.945  10.748   5.771 -0.2494 -0.2381 -0.1022
  924MOL0     C27421   6.843  10.849   5.785 -0.2538 -0.0038  0.6341
  924MOL0     O27422   6.718  10.950   6.114  0.1723 -0.4604  0.5362
  924MOL0     C27423   6.564  11.225   5.941 -0.9500  0.4171  0.0267
  924MOL0     C27424   6.447  11.298   5.938  1.0420 -0.4452  0.4723
  924MOL0     N27425   5.747  11.409   6.287 -0.1303  0.2950  0.0916
  924MOL0     N27426   5.666  11.365   6.375  0.5409 -0.4853 -1.4148
  924MOL0     C27427   5.312  10.864   7.216 -0.0998 -0.3393  0.4834
  924MOL0     C27428   5.192  10.901   7.273 -0.0280 -0.3182 -0.0794
  924MOL0     C27429   4.757  10.990   7.364 -0.2935 -0.1669 -0.2318
  924MOL0     C27430   4.716  11.096   7.457  0.1112 -0.0278  0.4831
  924MOL0     C27431   4.579  11.138   7.478  0.2659 -0.5092  0.4870
  924MOL0     C27432   4.481  11.067   7.401  0.3192 -0.4006  0.5498
  924MOL0     O27433   4.350  11.094   7.392  0.4431  0.3267  0.2580
  924MOL0     C27434   4.286  11.173   7.486  0.0994  0.3355  0.2282
  924MOL0     C27435   4.276  11.318   7.456 -0.3353 -0.0242 -0.2830
  924MOL0     C27436   4.167  11.396   7.536 -0.2255 -0.2129 -0.6367
  924MOL0     C27437   4.196  11.419   7.688  0.8222  0.6179  0.0393
  924MOL0     C27438   4.329  11.470   7.721  0.2452 -0.2818 -0.6036
  924MOL0     C27439   4.434  11.524   7.752  0.7866 -0.4936  0.4276
  924MOL0     C27440   4.525  10.976   7.311 -0.8235  0.3508  1.1882
  924MOL0     C27441   4.655  10.929   7.287  0.8651 -0.1702  0.5124
  924MOL0     C27442   4.680  10.805   7.198 -0.0016 -0.0085 -0.1933
  924MOL0     H27443   5.015  10.806   6.994  0.3934 -1.3406  0.7812
  924MOL0     H27444   5.218  10.790   6.893 -1.6621  0.5516 -0.1553
  924MOL0     H27445   5.459  10.848   6.837  2.0125  0.8765  0.9582
  924MOL0     H27446   5.444  10.671   6.875 -0.6898  0.0511 -0.1381
  924MOL0     H27447   5.706  10.822   6.943  4.1406 -1.3033 -2.0674
  924MOL0     H27448   5.681  10.657   6.946 -2.2337 -0.8356 -0.6128
  924MOL0     H27449   5.811  10.722   6.761  0.1294 -0.3195 -2.1534
  924MOL0     H27450   5.655  10.653   6.706  0.0345 -0.3787  0.6029
  924MOL0     H27451   5.646  10.947   6.727  1.4131  0.9315  0.9491
  924MOL0     H27452   5.788  10.895   6.629  0.0437 -2.2892  0.3954
  924MOL0     H27453   5.503  10.807   6.566  0.5473 -2.1516 -2.1508
  924MOL0     H27454   5.664  10.761   6.492  1.4759  2.1245  0.3521
  924MOL0     H27455   5.703  10.990   6.432 -0.9378  0.1196  0.5104
  924MOL0     H27456   5.547  10.949   6.350 -4.4304  3.4730  0.7557
  924MOL0     H27457   5.578  11.136   6.576  2.2150 -1.7604  0.8264
  924MOL0     H27458   5.420  11.054   6.539 -1.1416  2.2464  0.1162
  924MOL0     H27459   5.426  11.138   6.310 -2.2730  5.3020 -1.7356
  924MOL0     H27460   5.414  11.268   6.429  2.2389  1.8299 -0.5734
  924MOL0     H27461   5.638  11.116   6.167 -0.9886 -0.4678  0.3645
  924MOL0     H27462   5.776  11.438   6.030 -1.1433 -0.3328  0.5034
  924MOL0     H27463   5.739  11.281   5.979 -1.7653  3.0191 -0.1763
  924MOL0     H27464   6.003  11.334   6.129  0.5962 -1.7627  0.7078
  924MOL0     H27465   5.960  11.191   6.037 -2.2651  0.5288  0.7773
  924MOL0     H27466   5.958  11.353   5.820  3.6161 -1.2698 -2.9179
  924MOL0     H27467   6.026  11.464   5.935  1.9829 -1.3259  1.0592
  924MOL0     H27468   6.133  11.186   5.880 -0.0421  0.8542 -1.8478
  924MOL0     H27469   6.185  11.328   5.806  1.0380 -0.1734 -0.1597
  924MOL0     H27470   6.258  11.137   6.162 -1.2865  2.8734 -1.4551
  924MOL0     H27471   6.503  10.949   6.276 -0.0030 -2.6564 -1.1548
  924MOL0     H27472   6.483  10.866   6.125  2.5751  0.1566  1.1357
  924MOL0     H27473   6.342  10.940   6.197 -0.8540 -0.1370 -3.8483
  924MOL0     H27474   6.993  11.053   6.002 -2.1397  0.4286 -0.5338
  924MOL0     H27475   7.183  10.892   5.956 -0.3476  1.5992  0.2144
  924MOL0     H27476   7.343  10.799   5.803 -0.4652  0.4592 -0.3469
  924MOL0     H27477   7.338  10.688   5.939 -0.9991 -0.7383 -0.2869
  924MOL0     H27478   7.358  10.499   5.807 -0.8823  0.1158  0.7341
  924MOL0     H27479   7.362  10.589   5.651  0.5976  1.4127  0.1220
  924MOL0     H27480   7.577  10.521   5.777 -0.4290 -0.0151 -1.4692
  924MOL0     H27481   7.572  10.683   5.846  2.6453  1.4542 -2.3187
  924MOL0     H27482   7.554  10.773   5.618 -1.2328 -0.5618  0.2507
  924MOL0     H27483   7.563  10.608   5.560 -0.2333  2.0144 -1.5560
  924MOL0     H27484   7.768  10.571   5.679 -2.1709 -0.5838 -0.7563
  924MOL0     H27485   7.785  10.699   5.560  2.8497 -0.3909  0.3262
  924MOL0     H27486   7.787  10.715   5.866 -0.0017  1.9781  0.0585
  924MOL0     H27487   7.753  10.860   5.768 -0.2495  0.6103  0.2596
  924MOL0     H27488   8.008  10.681   5.732 -0.5071 -0.4337  1.7546
  924MOL0     H27489   7.992  10.823   5.839 -0.0115  2.9947 -0.8506
  924MOL0     H27490   7.904  10.957   5.637 -1.4854 -0.6986  0.1701
  924MOL0     H27491   7.998  10.825   5.551  0.9452  0.0632  1.0352
  924MOL0     H27492   6.916  10.658   5.717 -2.4718  0.1661  0.3353
  924MOL0     H27493   6.746  10.837   5.737  0.3157 -0.6131 -0.4294
  924MOL0     H27494   6.656  11.251   5.890  1.1992 -1.8883  2.3764
  924MOL0     H27495   6.436  11.390   5.882  0.3367 -2.1334 -2.3823
  924MOL0     H27496   5.404  10.881   7.272 -0.6118  3.2137  0.4187
  924MOL0     H27497   5.183  10.947   7.370  0.6151  0.4030 -0.3558
  924MOL0     H27498   4.797  11.130   7.521 -1.6831  0.6425  2.5013
  924MOL0     H27499   4.557  11.222   7.543  2.8853  0.1982  0.5564
  924MOL0     H27500   4.186  11.130   7.494  0.1148  0.2982  0.2212
  924MOL0     H27501   4.320  11.159   7.590 -2.8944 -0.9524  1.1320
  924MOL0     H27502   4.244  11.335   7.353 -1.3958 -0.0674  0.0281
  924MOL0     H27503   4.371  11.370   7.469  1.3524 -2.8484 -0.4050
  924MOL0     H27504   4.147  11.491   7.484 -3.1179 -0.1224  0.4650
  924MOL0     H27505   4.075  11.337   7.536  1.4040 -2.9401  0.3369
  924MOL0     H27506   4.181  11.322   7.735 -1.0308  1.2538  0.8421
  924MOL0     H27507   4.121  11.490   7.724 -1.2504 -2.1045  1.4174
  924MOL0     H27508   4.516  11.583   7.787  2.6594 -2.1165 -1.0575
  924MOL0     H27509   4.454  10.933   7.241  0.0937  0.5744  0.0827
  924MOL0     H27510   4.757  10.739   7.239  0.7221 -0.2634 -1.8508
  924MOL0     H27511   4.587  10.750   7.181 -0.2670  0.2672  0.3482
  924MOL0     H27512   4.713  10.829   7.096  0.7756 -0.3777 -0.0361
  925MOL0     O27513  10.948   5.802  10.884  0.5102  0.2536  0.7143
  925MOL0     C27514  10.950   5.742  10.774  0.4664 -0.8063 -0.1271
  925MOL0     O27515  11.056   5.728  10.688 -0.6182  0.2608 -0.2274
  925MOL0     C27516  11.157   5.810  10.712 -0.1274 -0.2341 -0.1396
  925MOL0     C27517  11.139   5.947  10.713 -1.3860 -0.6217 -0.5986
  925MOL0     C27518  11.244   6.032  10.746  0.2162  1.2638  0.2014
  925MOL0     C27519  11.376   5.982  10.750 -0.1909 -0.6826 -0.2983
  925MOL0     O27520  11.477   6.073  10.767 -0.3601 -0.6925  0.2107
  925MOL0     C27521  11.604   6.021  10.792 -0.0176  0.8207  0.1598
  925MOL0     C27522  11.700   6.137  10.813  0.3367 -0.5996  0.0050
  925MOL0     C27523  11.683   6.186  10.957  0.1734 -1.3207  0.1478
  925MOL0     C27524  11.557   6.279  10.958  0.8442  0.2329  0.2684
  925MOL0     C27525  11.572   6.387  11.058 -0.1407 -0.6005 -0.7047
  925MOL0     C27526  11.454   6.487  11.049  0.3808  0.1608  0.0165
  925MOL0     C27527  11.317   6.425  11.070 -0.7384 -0.1363  0.2944
  925MOL0     C27528  11.197   6.521  11.082 -0.6445  0.5626 -0.1049
  925MOL0     N27529  11.191   6.594  11.211  0.5536  0.2607  0.2070
  925MOL0     C27530  11.292   6.670  11.272 -0.4066 -0.0660  0.9943
  925MOL0     C27531  11.232   6.739  11.365  0.0204  0.3905  0.3607
  925MOL0     C27532  11.276   6.846  11.458 -0.1661  0.1492 -0.0533
  925MOL0     C27533  11.423   6.824  11.496 -0.3693 -0.2816 -0.8404
  925MOL0     C27534  11.454   6.710  11.590 -0.4592  0.1723 -0.1320
  925MOL0     C27535  11.600   6.683  11.605  0.4685  0.1162 -0.3989
  925MOL0     O27536  11.639   6.635  11.482  0.2509  0.3589 -0.5101
  925MOL0     C27537  11.763   6.575  11.480  0.2500  0.0928  0.0426
  925MOL0     C27538  11.779   6.456  11.408  0.1888 -0.5144 -0.0449
  925MOL0     C27539  11.898   6.400  11.382 -1.2710 -0.7871  0.1687
  925MOL0     C27540  11.917   6.285  11.291 -0.3162  1.1399 -0.5560
  925MOL0     C27541  12.015   6.456  11.437  0.0705 -0.4486  0.3332
  925MOL0     C27542  12.155   6.405  11.408  0.4707 -0.1289 -0.5189
  925MOL0     O27543  12.253   6.501  11.429  0.3866 -0.1390 -0.3093
  925MOL0     C27544  12.389   6.472  11.409  1.0608  0.0130  0.1591
  925MOL0     C27545  12.460   6.580  11.363  0.6866 -0.4106 -0.1547
  925MOL0     C27546  12.603   6.579  11.386  0.2956  0.3822  1.0656
  925MOL0     C27547  12.673   6.473  11.443  0.4458 -0.5233 -0.0552
  925MOL0     O27548  12.806   6.493  11.480  0.5374 -0.8022 -0.0300
  925MOL0     C27549  12.860   6.469  11.615 -0.0019 -0.1868 -0.0759
  925MOL0     C27550  12.987   6.551  11.649 -0.7771 -0.5495  0.5639
  925MOL0     C27551  13.052   6.500  11.780  0.3416  0.0379 -0.5340
  925MOL0     C27552  13.158   6.597  11.831 -0.8676 -0.2790 -0.0962
  925MOL0     C27553  13.231   6.526  11.953  0.4571 -0.0028  0.2478
  925MOL0     C27554  13.341   6.623  11.999 -0.8177  0.2111 -0.2492
  925MOL0     C27555  13.398   6.570  12.127 -0.4738  0.6541  0.8060
  925MOL0     C27556  13.515   6.658  12.182 -0.0564 -0.4183  0.9265
  925MOL0    Cl27557  13.622   6.578  12.302  0.6041 -0.4333 -0.0329
  925MOL0     C27558  12.601   6.354  11.473  0.3023 -1.0965 -0.0423
  925MOL0     C27559  12.459   6.355  11.448 -0.5023  0.0986 -0.3348
  925MOL0     O27560  12.178   6.289  11.374  0.5382  0.0909  0.1034
  925MOL0     C27561  12.004   6.578  11.511  0.2054 -0.7257 -0.2644
  925MOL0     C27562  11.878   6.635  11.521  0.0141  0.2488 -0.3136
  925MOL0     N27563  11.103   6.694  11.367  0.3150 -0.6619  0.1589
  925MOL0     N27564  11.074   6.605  11.280  0.5641  0.3107  0.3919
  925MOL0     C27565  11.389   5.843  10.743 -0.3617 -0.1049 -0.5562
  925MOL0     C27566  11.282   5.755  10.730  0.2325 -0.0451 -0.2874
  925MOL0     C27567  10.847   5.638  10.761  0.8141 -0.2452 -0.6467
  925MOL0     C27568  10.884   5.516  10.697 -0.3680 -0.4996 -0.9994
  925MOL0     C27569  10.794   5.419  10.668  0.5124  0.9835  1.1439
  925MOL0     C27570  10.656   5.434  10.702  0.2684 -0.0156 -0.8924
  925MOL0     O27571  10.551   5.351  10.675  0.9719 -0.1259 -0.0371
  925MOL0     C27572  10.578   5.230  10.605 -0.3172  0.0129 -0.2974
  925MOL0     C27573  10.451   5.144  10.571  0.2732 -1.1159  0.1364
  925MOL0     C27574  10.354   5.227  10.479 -0.4028 -0.0834 -0.5768
  925MOL0     C27575  10.239   5.148  10.416 -0.2493 -0.2992 -0.1208
  925MOL0     C27576  10.147   5.247  10.363 -0.6386 -0.3834 -0.0912
  925MOL0     C27577  10.071   5.331  10.319 -0.2399 -0.0283 -0.2545
  925MOL0     C27578  10.623   5.561  10.753  0.3360  0.9551  1.1752
  925MOL0     C27579  10.716   5.658  10.787  0.0818  0.4000  0.3943
  925MOL0     C27580  10.669   5.781  10.853 -0.1045 -0.2535  0.4123
  925MOL0     H27581  11.040   5.991  10.707 -0.8638  1.0857  1.9417
  925MOL0     H27582  11.219   6.137  10.760 -3.7936  0.3719  0.8159
  925MOL0     H27583  11.634   5.957  10.708 -1.1957  0.7181 -0.2093
  925MOL0     H27584  11.604   5.957  10.881  1.7762 -0.7835 -0.8987
  925MOL0     H27585  11.803   6.103  10.797  0.3284  0.2172 -2.0666
  925MOL0     H27586  11.675   6.217  10.743  1.8519  0.4367  0.6048
  925MOL0     H27587  11.662   6.104  11.026 -3.0820  1.3051  2.7071
  925MOL0     H27588  11.770   6.248  10.980 -0.1994 -0.7240 -0.0072
  925MOL0     H27589  11.536   6.336  10.867 -3.5295  2.6078  2.4370
  925MOL0     H27590  11.469   6.219  10.984 -1.5708  3.3480 -0.1387
  925MOL0     H27591  11.669   6.435  11.042 -1.4209  2.2035 -0.5030
  925MOL0     H27592  11.565   6.355  11.162  2.1006  1.8326  0.3122
  925MOL0     H27593  11.478   6.561  11.126  2.3055 -0.4930  0.1090
  925MOL0     H27594  11.466   6.522  10.947  3.6942  1.2843  0.6507
  925MOL0     H27595  11.320   6.378  11.169  0.8783  2.5640  1.6370
  925MOL0     H27596  11.299   6.353  10.990  1.3585 -0.0897 -0.2770
  925MOL0     H27597  11.201   6.595  11.003 -1.7927  1.1835  0.3894
  925MOL0     H27598  11.105   6.464  11.067 -1.0862  1.4936 -0.9899
  925MOL0     H27599  11.397   6.682  11.245  0.0557 -0.0046  2.7249
  925MOL0     H27600  11.223   6.849  11.554  0.3439 -1.4206  0.3012
  925MOL0     H27601  11.272   6.943  11.407  0.5216  0.7176  0.9369
  925MOL0     H27602  11.475   6.813  11.400  1.1001  3.6625 -0.7066
  925MOL0     H27603  11.457   6.914  11.549  2.6544 -3.1109  2.5682
  925MOL0     H27604  11.407   6.728  11.688  0.8192  0.7133  0.4053
  925MOL0     H27605  11.410   6.619  11.550  0.9404 -0.5881 -0.0036
  925MOL0     H27606  11.659   6.772  11.626  0.6674 -0.1189  0.0451
  925MOL0     H27607  11.618   6.614  11.688  0.0803  0.2477 -0.1994
  925MOL0     H27608  11.693   6.397  11.377  1.0372 -3.4801  2.7206
  925MOL0     H27609  11.942   6.199  11.353 -0.0383  0.2794 -1.8178
  925MOL0     H27610  11.996   6.305  11.218  0.8034  0.2333  0.3780
  925MOL0     H27611  11.825   6.263  11.236 -0.9173 -0.6620  1.0484
  925MOL0     H27612  12.410   6.667  11.323 -2.8273 -1.8586  0.6873
  925MOL0     H27613  12.661   6.668  11.363  1.6528 -0.2311  1.9612
  925MOL0     H27614  12.780   6.475  11.690 -1.1664 -3.0080 -0.9708
  925MOL0     H27615  12.898   6.367  11.612  2.9438  0.8488 -1.4372
  925MOL0     H27616  13.049   6.537  11.560 -0.6687  4.7739 -0.5295
  925MOL0     H27617  12.954   6.656  11.648  0.0991 -0.2721  0.2873
  925MOL0     H27618  13.090   6.401  11.756 -0.1313 -0.5415  0.9919
  925MOL0     H27619  12.974   6.480  11.854  0.1182 -1.0614 -1.0392
  925MOL0     H27620  13.125   6.693  11.871  1.5089  1.6005 -2.2711
  925MOL0     H27621  13.235   6.613  11.755 -1.5028 -1.6553 -1.0684
  925MOL0     H27622  13.156   6.501  12.029 -0.4401  0.1410 -0.5626
  925MOL0     H27623  13.278   6.436  11.913  1.9240  0.3246  1.1654
  925MOL0     H27624  13.297   6.722  12.010 -0.0601  0.2785  3.5094
  925MOL0     H27625  13.422   6.629  11.926  3.9130 -1.9802  4.2391
  925MOL0     H27626  13.434   6.470  12.103  3.4139  1.4500  2.4769
  925MOL0     H27627  13.320   6.568  12.204  1.4603  2.0940  2.9266
  925MOL0     H27628  13.472   6.750  12.221 -2.5322 -0.6823 -0.9412
  925MOL0     H27629  13.578   6.691  12.098 -1.8218  0.6626 -0.0272
  925MOL0     H27630  12.647   6.266  11.518  0.9289  0.4978  2.6384
  925MOL0     H27631  12.407   6.263  11.472  1.2262 -0.0412  3.7502
  925MOL0     H27632  12.090   6.630  11.552  1.4104 -0.4717 -2.9192
  925MOL0     H27633  11.873   6.737  11.557  0.8561  0.0858  0.2904
  925MOL0     H27634  11.487   5.798  10.744 -1.3493 -2.3879 -0.2242
  925MOL0     H27635  11.296   5.647  10.725  0.2150 -0.0891  0.4880
  925MOL0     H27636  10.984   5.501  10.658 -0.5399 -0.4314 -1.4808
  925MOL0     H27637  10.838   5.324  10.638  1.1676  0.5408  3.3322
  925MOL0     H27638  10.641   5.256  10.519  2.0458  0.0706  1.3437
  925MOL0     H27639  10.638   5.172  10.676 -1.2810  0.0128  0.5351
  925MOL0     H27640  10.399   5.132  10.666  1.6756 -0.1513  1.0669
  925MOL0     H27641  10.484   5.049  10.527  3.0215  0.0330 -0.4722
  925MOL0     H27642  10.308   5.307  10.536  0.5909 -0.2256  0.4710
  925MOL0     H27643  10.409   5.285  10.404 -2.4069  1.6586 -0.7870
  925MOL0     H27644  10.179   5.080  10.478  1.3888 -2.2353 -0.5631
  925MOL0     H27645  10.266   5.091  10.327 -0.3726  0.6912 -0.8055
  925MOL0     H27646  10.016   5.413  10.278  0.7893  0.6219 -0.3621
  925MOL0     H27647  10.515   5.569  10.766  0.1664 -1.7598  2.0681
  925MOL0     H27648  10.561   5.782  10.874 -0.0815 -3.1380  1.0860
  925MOL0     H27649  10.709   5.784  10.955  1.5633 -2.0344 -0.1149
  925MOL0     H27650  10.685   5.870  10.793  1.4540  0.2774  1.5357
  926MOL0     O27651   3.589   8.326   9.669 -0.5126 -0.2315  0.7367
  926MOL0     C27652   3.476   8.302   9.641  0.3623  0.2329  0.0156
  926MOL0     O27653   3.439   8.195   9.560  0.4300 -0.3209  0.5158
  926MOL0     C27654   3.535   8.135   9.488  0.2230 -0.0728  0.0450
  926MOL0     C27655   3.580   8.192   9.368  0.1091 -0.2953  0.5905
  926MOL0     C27656   3.678   8.127   9.293 -0.0797 -0.4773  0.7393
  926MOL0     C27657   3.736   8.009   9.332  0.0250 -0.5170  0.3054
  926MOL0     O27658   3.830   7.967   9.248 -0.3079  0.5550 -0.4241
  926MOL0     C27659   3.896   7.832   9.270 -0.2577 -0.4226  0.1918
  926MOL0     C27660   4.037   7.811   9.193  0.8034  1.0238  0.6832
  926MOL0     C27661   4.127   7.701   9.257  0.5939 -0.0752 -0.3288
  926MOL0     C27662   4.240   7.646   9.171  0.1888  1.0269  0.0971
  926MOL0     C27663   4.323   7.544   9.250  0.4488  0.5591 -0.8059
  926MOL0     C27664   4.405   7.589   9.371 -0.2689  0.1643  0.2735
  926MOL0     C27665   4.487   7.716   9.357  0.2186  0.0216 -0.2693
  926MOL0     C27666   4.590   7.703   9.245 -0.2696 -0.0608 -0.5212
  926MOL0     N27667   4.662   7.824   9.213  0.0818 -0.4794 -0.3019
  926MOL0     C27668   4.787   7.850   9.269  0.6320  0.1061  0.4800
  926MOL0     C27669   4.816   7.968   9.214 -0.4772  0.5055 -0.4540
  926MOL0     C27670   4.940   8.054   9.240 -0.3069 -0.0060 -0.7456
  926MOL0     C27671   4.939   8.102   9.385  0.7012  0.1649  0.7679
  926MOL0     C27672   5.059   8.200   9.411 -0.1386  0.1640  0.3069
  926MOL0     C27673   5.057   8.241   9.564 -0.2566 -1.1985 -1.0362
  926MOL0     O27674   5.164   8.332   9.596  0.2760 -1.1225 -0.0714
  926MOL0     C27675   5.284   8.273   9.635  0.2633  0.4092 -0.1636
  926MOL0     C27676   5.303   8.155   9.717 -0.1575 -0.2852 -0.4458
  926MOL0     C27677   5.420   8.089   9.721 -0.0233  0.1022 -1.1172
  926MOL0     C27678   5.423   7.947   9.780  0.8659 -0.0229  0.0534
  926MOL0     C27679   5.543   8.154   9.686 -0.0359 -0.8238 -0.2807
  926MOL0     C27680   5.683   8.105   9.704  0.6735  0.1539 -0.0204
  926MOL0     O27681   5.777   8.187   9.643  0.2683  0.0395  0.3678
  926MOL0     C27682   5.914   8.149   9.630 -0.0324 -0.6699  0.2719
  926MOL0     C27683   5.974   8.079   9.513  0.8342 -0.5846  0.7293
  926MOL0     C27684   6.108   8.047   9.509 -0.7008  0.1634 -0.8957
  926MOL0     C27685   6.194   8.095   9.611  0.2663  0.2981 -0.4188
  926MOL0     O27686   6.323   8.082   9.593 -0.5769 -0.1493  0.5193
  926MOL0     C27687   6.395   8.021   9.700  0.2330  0.1195 -0.2293
  926MOL0     C27688   6.485   7.901   9.669 -0.0233 -0.0962 -0.0234
  926MOL0     C27689   6.599   7.930   9.572  0.0429  0.4598 -0.7756
  926MOL0     C27690   6.728   7.981   9.635  0.0149  0.1293 -0.0114
  926MOL0     C27691   6.810   7.887   9.731  0.2865 -0.2921  0.2842
  926MOL0     C27692   6.939   7.947   9.797 -0.9434 -0.7308  0.0360
  926MOL0     C27693   7.048   7.845   9.847 -0.6508  0.1978 -0.4666
  926MOL0     C27694   7.146   7.915   9.941  0.1071 -0.0305  0.1177
  926MOL0    Cl27695   7.233   8.044   9.861 -0.0449 -0.5459 -0.0708
  926MOL0     C27696   6.144   8.160   9.725 -0.2091 -0.4677 -1.1553
  926MOL0     C27697   6.003   8.187   9.731 -1.0323  0.0454 -0.2127
  926MOL0     O27698   5.706   8.004   9.765 -0.2642 -0.5172 -0.2030
  926MOL0     C27699   5.524   8.279   9.635 -0.0720  0.8990 -0.3620
  926MOL0     C27700   5.399   8.337   9.595  0.4809  0.4978 -0.0290
  926MOL0     N27701   4.709   8.005   9.126  0.4209  1.0361  0.0121
  926MOL0     N27702   4.614   7.923   9.127 -0.4314 -0.1701 -0.4623
  926MOL0     C27703   3.701   7.951   9.455  0.3626  0.0236 -0.4588
  926MOL0     C27704   3.595   8.012   9.524  0.6768  0.2167 -0.0001
  926MOL0     C27705   3.369   8.402   9.681 -0.8776  0.9516 -0.0185
  926MOL0     C27706   3.242   8.381   9.630 -0.2359  0.4755 -0.1763
  926MOL0     C27707   3.143   8.479   9.637  0.4957  0.8080  0.0089
  926MOL0     C27708   3.167   8.598   9.696  0.0241  0.5393 -0.1566
  926MOL0     O27709   3.062   8.684   9.697  0.3630  0.4558  0.4735
  926MOL0     C27710   3.044   8.774   9.812 -0.3856  0.3086  0.0095
  926MOL0     C27711   2.979   8.693   9.922 -0.0890 -0.6651  0.6434
  926MOL0     C27712   2.853   8.627   9.865  0.5454 -0.4741  0.1507
  926MOL0     C27713   2.775   8.590   9.981  1.0253 -0.0259 -0.3321
  926MOL0     C27714   2.654   8.520   9.942 -0.8347  0.4435  0.5686
  926MOL0     C27715   2.549   8.451   9.929 -0.0017 -0.3397 -0.2935
  926MOL0     C27716   3.294   8.612   9.760 -0.3254 -0.4920  0.5358
  926MOL0     C27717   3.397   8.523   9.746 -0.2405  0.0814  0.3211
  926MOL0     C27718   3.524   8.569   9.810 -0.5526 -0.3264  0.5313
  926MOL0     H27719   3.549   8.290   9.332  2.2518  0.0037 -0.6552
  926MOL0     H27720   3.689   8.162   9.191 -0.8313 -0.8287  0.5288
  926MOL0     H27721   3.823   7.751   9.262  0.7058 -1.2067 -1.0035
  926MOL0     H27722   3.922   7.827   9.376 -0.1450 -0.4502  0.1629
  926MOL0     H27723   4.016   7.781   9.090  2.6209 -0.4809  0.7165
  926MOL0     H27724   4.097   7.902   9.191  1.2491  0.7315  0.7047
  926MOL0     H27725   4.178   7.761   9.333 -0.0766 -0.2696  0.2979
  926MOL0     H27726   4.079   7.619   9.313 -1.4285  1.9118  1.0240
  926MOL0     H27727   4.200   7.601   9.080 -0.4833  0.0774  0.8471
  926MOL0     H27728   4.308   7.722   9.131  0.1920  1.5369  1.0337
  926MOL0     H27729   4.394   7.497   9.181 -0.7361 -0.3702 -1.4306
  926MOL0     H27730   4.257   7.466   9.289  0.6895  0.0608 -1.3753
  926MOL0     H27731   4.338   7.599   9.457  0.5486 -0.2171  0.9679
  926MOL0     H27732   4.470   7.506   9.397  2.7486  1.8231 -1.3435
  926MOL0     H27733   4.537   7.736   9.452 -1.4139 -1.8579  1.0612
  926MOL0     H27734   4.425   7.801   9.327  1.5820  0.8757 -0.7536
  926MOL0     H27735   4.658   7.623   9.275 -0.7676  0.1047  1.1621
  926MOL0     H27736   4.536   7.665   9.158  1.4290 -0.9340 -1.2264
  926MOL0     H27737   4.852   7.784   9.325  2.0893 -0.9935 -2.3349
  926MOL0     H27738   4.932   8.148   9.185 -1.1573  1.7151  2.0802
  926MOL0     H27739   5.033   8.001   9.222 -0.1845 -0.7156  1.5968
  926MOL0     H27740   4.856   8.172   9.386  0.7572  0.2253  1.6227
  926MOL0     H27741   4.929   8.026   9.462  2.0171 -1.8121 -0.8963
  926MOL0     H27742   5.151   8.155   9.374 -2.2208 -1.9847 -2.7137
  926MOL0     H27743   5.056   8.293   9.354  2.0875 -0.1105 -0.3511
  926MOL0     H27744   4.960   8.287   9.586  0.6501 -0.6359  2.1532
  926MOL0     H27745   5.067   8.149   9.624  1.0243 -0.6621 -0.3945
  926MOL0     H27746   5.221   8.110   9.773  1.2489  0.1171  2.1297
  926MOL0     H27747   5.470   7.940   9.878  0.4646  0.4426  0.2819
  926MOL0     H27748   5.480   7.883   9.712 -0.0530 -1.6897  0.7818
  926MOL0     H27749   5.325   7.899   9.768  1.4115 -1.3722  0.8596
  926MOL0     H27750   5.903   8.053   9.435 -0.7562  0.9634  1.6002
  926MOL0     H27751   6.154   7.995   9.426 -0.1743 -1.5801  0.4334
  926MOL0     H27752   6.453   8.104   9.740 -2.7749  1.9098  0.7188
  926MOL0     H27753   6.327   7.984   9.777 -0.9279  2.6748  0.0853
  926MOL0     H27754   6.525   7.846   9.755  1.9357 -1.8884 -1.9430
  926MOL0     H27755   6.422   7.824   9.624 -0.4931  1.0585 -1.4033
  926MOL0     H27756   6.562   7.996   9.493 -0.6979 -0.4277 -1.1864
  926MOL0     H27757   6.625   7.839   9.517 -0.7981  1.2670 -2.5643
  926MOL0     H27758   6.698   8.056   9.709 -0.6011 -0.9671  0.8762
  926MOL0     H27759   6.790   8.037   9.564 -1.1453 -0.1814 -1.2988
  926MOL0     H27760   6.742   7.852   9.810 -0.3021  2.1549  0.9307
  926MOL0     H27761   6.835   7.804   9.664 -0.4345  0.8731 -1.4982
  926MOL0     H27762   6.903   8.003   9.884 -1.9380 -5.1675  2.8144
  926MOL0     H27763   6.995   7.999   9.719 -3.2777 -2.7568 -3.2728
  926MOL0     H27764   7.100   7.808   9.758 -0.1641  0.8774 -0.4693
  926MOL0     H27765   6.992   7.766   9.896 -1.7616  0.3970 -1.3708
  926MOL0     H27766   7.217   7.839   9.974 -0.0257 -0.9750 -1.6112
  926MOL0     H27767   7.088   7.955  10.024 -1.0368  2.4885 -1.7331
  926MOL0     H27768   6.210   8.171   9.810 -0.0417 -0.8453 -1.2354
  926MOL0     H27769   5.959   8.226   9.822 -0.4577  0.0436  0.0694
  926MOL0     H27770   5.613   8.332   9.603  2.0750 -3.3863 -2.3667
  926MOL0     H27771   5.387   8.429   9.539 -0.3371  2.1289  2.6567
  926MOL0     H27772   3.753   7.865   9.494 -1.3248 -0.6096  0.5134
  926MOL0     H27773   3.559   7.968   9.617 -0.2644 -1.6501 -1.1724
  926MOL0     H27774   3.221   8.279   9.599  2.9209 -0.6944  1.0324
  926MOL0     H27775   3.052   8.447   9.588  2.7170  0.6187 -4.5668
  926MOL0     H27776   3.139   8.823   9.835 -1.1227  1.4925  0.5882
  926MOL0     H27777   2.979   8.859   9.793  0.9043  1.9062  2.3258
  926MOL0     H27778   2.968   8.752  10.013  0.4794  3.1962 -1.5723
  926MOL0     H27779   3.047   8.608   9.937  1.6634  0.2757 -1.4306
  926MOL0     H27780   2.791   8.699   9.811 -1.4994 -1.0358  1.6491
  926MOL0     H27781   2.876   8.537   9.806  1.5575  0.1052 -0.3770
  926MOL0     H27782   2.737   8.675  10.039  1.2808 -0.1615  0.0383
  926MOL0     H27783   2.820   8.525  10.058 -3.5290 -1.5063  1.4365
  926MOL0     H27784   2.460   8.391   9.926  2.1687 -3.8537 -0.5864
  926MOL0     H27785   3.320   8.704   9.812  2.7807 -1.8836  1.7484
  926MOL0     H27786   3.558   8.500   9.888 -0.6520 -2.3058 -1.0889
  926MOL0     H27787   3.604   8.581   9.736 -0.7452  2.2836  0.6423
  926MOL0     H27788   3.516   8.668   9.856  1.1856 -0.6217  1.5586
  927MOL0     O27789   0.565   2.812   1.875 -0.1456  0.7926  0.1063
  927MOL0     C27790   0.495   2.751   1.959 -0.3117  0.6842  0.3181
  927MOL0     O27791   0.547   2.670   2.060 -0.4001  0.2774 -0.2616
  927MOL0     C27792   0.680   2.637   2.062  0.2867 -0.2534  0.0339
  927MOL0     C27793   0.743   2.610   2.184  0.1427 -0.8938  0.1965
  927MOL0     C27794   0.868   2.557   2.197 -0.1172 -0.5139  0.2803
  927MOL0     C27795   0.943   2.529   2.082 -0.3029  0.2753  0.0017
  927MOL0     O27796   1.062   2.465   2.092 -0.2381  0.2994  0.2524
  927MOL0     C27797   1.168   2.490   1.997 -0.1147 -0.9625 -0.0875
  927MOL0     C27798   1.295   2.444   2.060 -0.3497 -0.0446 -1.0401
  927MOL0     C27799   1.416   2.464   1.972 -0.4198  1.0648 -0.1840
  927MOL0     C27800   1.536   2.408   2.031 -0.0994 -0.0161 -0.1084
  927MOL0     C27801   1.664   2.441   1.954  0.0592  0.0100 -0.1471
  927MOL0     C27802   1.784   2.393   2.037  0.0169 -0.1073 -0.9276
  927MOL0     C27803   1.915   2.452   1.997 -0.2950 -0.1221 -0.3936
  927MOL0     C27804   2.034   2.370   2.059  0.2842  0.7197 -0.0482
  927MOL0     N27805   2.154   2.448   2.062 -0.4053  0.0538  0.9493
  927MOL0     C27806   2.195   2.504   2.183  0.2799 -0.3783 -0.3339
  927MOL0     C27807   2.299   2.574   2.146 -0.1421 -0.6517 -0.0835
  927MOL0     C27808   2.400   2.651   2.232  0.5936 -0.4796 -0.2156
  927MOL0     C27809   2.543   2.620   2.189 -0.1351 -0.6127  0.3392
  927MOL0     C27810   2.627   2.639   2.314 -0.8622 -0.9432  0.6728
  927MOL0     C27811   2.776   2.632   2.272 -0.1217 -1.3513  0.1309
  927MOL0     O27812   2.811   2.749   2.185  0.1672  0.7342  0.2700
  927MOL0     C27813   2.936   2.734   2.131  0.2713 -0.4069  0.0913
  927MOL0     C27814   2.967   2.634   2.040  0.2331 -0.1549  0.1543
  927MOL0     C27815   3.094   2.601   1.996 -0.3201 -0.1852  0.0791
  927MOL0     C27816   3.111   2.480   1.904  0.7887  0.1227  1.1744
  927MOL0     C27817   3.201   2.677   2.046 -0.5703 -0.9841 -0.5169
  927MOL0     C27818   3.346   2.654   2.002  0.2082 -0.0505  0.1759
  927MOL0     O27819   3.441   2.736   2.047 -0.7272 -0.5517  0.1511
  927MOL0     C27820   3.575   2.719   2.012  0.8576  0.2388  0.0668
  927MOL0     C27821   3.628   2.690   1.889  0.2354 -0.9164 -0.2188
  927MOL0     C27822   3.771   2.671   1.883 -0.2836 -0.3744  0.8402
  927MOL0     C27823   3.855   2.680   1.986 -0.5310  1.0344 -0.6883
  927MOL0     O27824   3.990   2.662   1.962  0.2639 -0.4895 -1.0566
  927MOL0     C27825   4.073   2.751   2.042 -0.1538 -0.1804 -0.1935
  927MOL0     C27826   4.222   2.746   1.998 -0.1546 -0.0895 -0.8552
  927MOL0     C27827   4.298   2.623   2.052  0.6824  0.4067 -0.3957
  927MOL0     C27828   4.408   2.564   1.962  0.3589 -0.0105 -0.1678
  927MOL0     C27829   4.526   2.663   1.960 -0.2781 -0.2758  0.0314
  927MOL0     C27830   4.642   2.615   1.868 -0.1917  0.2710  0.3648
  927MOL0     C27831   4.777   2.682   1.916  0.4356 -0.1949  0.4229
  927MOL0     C27832   4.892   2.664   1.816 -1.0085 -0.9408 -0.0395
  927MOL0    Cl27833   4.958   2.494   1.816 -0.2044 -0.4290  0.6816
  927MOL0     C27834   3.800   2.712   2.111  0.1581  0.0486  0.1970
  927MOL0     C27835   3.659   2.726   2.124  0.0659  0.0796 -0.5786
  927MOL0     O27836   3.373   2.563   1.916 -0.3166 -0.0047 -0.1246
  927MOL0     C27837   3.174   2.783   2.139  0.3207 -0.5638  0.1664
  927MOL0     C27838   3.039   2.806   2.187  0.2347  0.1279 -0.2938
  927MOL0     N27839   2.317   2.572   2.003 -0.2725 -0.5741  0.3049
  927MOL0     N27840   2.224   2.497   1.953  0.4624 -0.6314 -0.5666
  927MOL0     C27841   0.887   2.552   1.956  0.1440 -0.1435  0.8383
  927MOL0     C27842   0.762   2.613   1.949  0.6924  0.4135  0.4312
  927MOL0     C27843   0.352   2.748   1.939  0.1219 -0.0457  0.6349
  927MOL0     C27844   0.298   2.860   1.870  0.2314  1.0911  0.6329
  927MOL0     C27845   0.163   2.869   1.837  0.1516 -0.7740 -0.3246
  927MOL0     C27846   0.076   2.787   1.900  1.1888 -0.9139  0.5907
  927MOL0     O27847  -0.059   2.811   1.880 -0.5481 -0.0307 -0.5142
  927MOL0     C27848  -0.154   2.777   1.985  0.2225  0.2653  0.0604
  927MOL0     C27849  -0.293   2.841   1.981 -0.1113  0.4285 -0.6422
  927MOL0     C27850  -0.285   2.994   1.962 -0.4198  0.0628 -0.2019
  927MOL0     C27851  -0.422   3.062   1.956 -0.1343  0.7963  0.3842
  927MOL0     C27852  -0.469   3.066   1.811 -0.6926  0.0691  0.2186
  927MOL0     C27853  -0.499   3.072   1.698 -0.5480  0.0954 -0.1457
  927MOL0     C27854   0.120   2.689   1.984  0.9427  0.6351  0.2071
  927MOL0     C27855   0.258   2.660   1.992 -0.3850  0.0078 -0.0856
  927MOL0     C27856   0.298   2.529   2.068  0.1674 -0.9307 -0.4042
  927MOL0     H27857   0.681   2.632   2.270 -3.4571 -0.4687 -2.2822
  927MOL0     H27858   0.901   2.546   2.300  1.1537  5.5874  0.9253
  927MOL0     H27859   1.171   2.592   1.958  2.5779 -1.5625 -1.7037
  927MOL0     H27860   1.161   2.425   1.910 -0.2433 -0.7281 -0.2519
  927MOL0     H27861   1.304   2.511   2.146 -2.0001  0.5420 -1.2747
  927MOL0     H27862   1.291   2.341   2.096  0.6215  0.3305  0.2121
  927MOL0     H27863   1.406   2.417   1.874 -2.3728 -0.7519  0.8004
  927MOL0     H27864   1.442   2.570   1.959  3.3186  0.2289 -0.6112
  927MOL0     H27865   1.549   2.440   2.135  1.7973  1.6878 -0.7944
  927MOL0     H27866   1.523   2.299   2.027  2.8549 -0.4471 -0.7828
  927MOL0     H27867   1.682   2.547   1.935  0.3801  0.0521  0.3612
  927MOL0     H27868   1.658   2.382   1.863 -1.5721 -0.6504  0.3658
  927MOL0     H27869   1.764   2.425   2.140  2.6095  0.8293 -0.6397
  927MOL0     H27870   1.785   2.284   2.027 -1.4095 -0.2983  0.5685
  927MOL0     H27871   1.930   2.550   2.043  3.9372 -0.7764  0.0140
  927MOL0     H27872   1.920   2.462   1.889  0.0721  0.4148 -0.3308
  927MOL0     H27873   2.000   2.337   2.158 -1.5461 -1.1916 -1.2343
  927MOL0     H27874   2.058   2.278   2.004 -0.0483  0.4659  0.2255
  927MOL0     H27875   2.166   2.478   2.284 -0.8026 -2.5046 -1.1290
  927MOL0     H27876   2.382   2.630   2.338 -1.5666  0.1150 -0.4306
  927MOL0     H27877   2.381   2.757   2.215 -0.9611 -0.4771  1.2535
  927MOL0     H27878   2.557   2.517   2.158 -0.6157 -1.1095  1.6945
  927MOL0     H27879   2.569   2.690   2.109 -2.3155  0.4576  0.4774
  927MOL0     H27880   2.605   2.730   2.372 -0.3309 -2.4690  3.4219
  927MOL0     H27881   2.607   2.562   2.389  0.5519 -0.9757  1.0391
  927MOL0     H27882   2.829   2.642   2.368 -0.7492  0.7243  0.3089
  927MOL0     H27883   2.806   2.534   2.232 -0.8012 -2.5289  2.3245
  927MOL0     H27884   2.886   2.569   2.008  1.0670 -1.3356  0.3614
  927MOL0     H27885   3.022   2.418   1.900  0.7881  0.1088  1.3894
  927MOL0     H27886   3.188   2.414   1.945  0.8249  0.2925  1.3893
  927MOL0     H27887   3.137   2.519   1.805  0.9449  1.3172  1.6600
  927MOL0     H27888   3.554   2.700   1.811 -0.6042  1.1734  0.7554
  927MOL0     H27889   3.812   2.660   1.783 -0.8701 -0.3202  0.5956
  927MOL0     H27890   4.045   2.854   2.022  0.3510  0.0112  0.0638
  927MOL0     H27891   4.058   2.725   2.148  1.1198  2.4101  0.7131
  927MOL0     H27892   4.213   2.736   1.890 -1.7370 -0.8377 -0.6899
  927MOL0     H27893   4.263   2.845   2.021 -1.1690  0.0121  0.7141
  927MOL0     H27894   4.227   2.544   2.079  0.4353  0.4886 -0.7932
  927MOL0     H27895   4.347   2.653   2.145 -0.3443  0.2128  0.2328
  927MOL0     H27896   4.380   2.542   1.859 -2.5419 -0.3634  0.6301
  927MOL0     H27897   4.432   2.469   2.011 -0.8418 -0.2963 -0.0990
  927MOL0     H27898   4.486   2.757   1.920 -1.6235 -0.3041  1.2152
  927MOL0     H27899   4.568   2.673   2.061  0.3838 -4.3284  0.3382
  927MOL0     H27900   4.609   2.637   1.766 -1.6564  0.7311  0.9140
  927MOL0     H27901   4.649   2.506   1.867 -0.8357  0.2268  0.3659
  927MOL0     H27902   4.802   2.631   2.009  0.6498 -0.3025  0.3070
  927MOL0     H27903   4.767   2.788   1.943 -1.1854 -0.5260  1.2273
  927MOL0     H27904   4.980   2.724   1.840  0.8249 -3.7343  0.6317
  927MOL0     H27905   4.856   2.686   1.715  0.7485  1.6530 -0.1782
  927MOL0     H27906   3.863   2.716   2.199  2.5588  1.6820 -1.4437
  927MOL0     H27907   3.625   2.738   2.227 -1.2402 -0.9341 -0.8566
  927MOL0     H27908   3.257   2.842   2.174 -0.4997  0.4100  0.5248
  927MOL0     H27909   3.014   2.891   2.250 -2.8503  0.7946 -2.2018
  927MOL0     H27910   0.937   2.519   1.865  1.6015  1.7124  0.9122
  927MOL0     H27911   0.728   2.641   1.850 -0.5191 -1.9882  0.0945
  927MOL0     H27912   0.356   2.947   1.842  0.0835  0.3551 -2.3533
  927MOL0     H27913   0.124   2.958   1.789  0.4512 -0.3657  0.1777
  927MOL0     H27914  -0.152   2.668   1.969  1.6820  0.0124  1.7497
  927MOL0     H27915  -0.101   2.810   2.074 -0.3122  3.6556 -0.7312
  927MOL0     H27916  -0.344   2.821   2.075 -1.9683 -1.6294 -1.9816
  927MOL0     H27917  -0.348   2.793   1.899 -1.6909 -0.6047  0.9523
  927MOL0     H27918  -0.224   3.049   2.035  0.0305  1.1314 -1.3446
  927MOL0     H27919  -0.249   3.016   1.861  1.3937 -0.0372  0.3909
  927MOL0     H27920  -0.400   3.164   1.990  0.8743  0.7142  0.0003
  927MOL0     H27921  -0.476   3.002   2.029  2.1654 -2.0266 -0.0713
  927MOL0     H27922  -0.541   3.093   1.601 -0.8187  2.8608  0.5075
  927MOL0     H27923   0.050   2.628   2.041  1.0874 -0.3118 -0.5973
  927MOL0     H27924   0.327   2.547   2.172 -0.4704  0.7607 -0.4885
  927MOL0     H27925   0.213   2.460   2.066  0.5918 -1.6516  2.1757
  927MOL0     H27926   0.388   2.489   2.021 -1.2244 -2.8917 -1.5208
  928MOL0     O27927   3.095   1.745   6.930 -0.4107  0.4761  0.1844
  928MOL0     C27928   3.044   1.827   6.852 -0.5515  0.5927  0.4952
  928MOL0     O27929   3.104   1.949   6.819  0.2281 -0.5378 -0.3272
  928MOL0     C27930   3.239   1.955   6.847 -0.2691  0.3520 -0.4995
  928MOL0     C27931   3.302   2.011   6.960 -0.0213 -0.6059  0.1856
  928MOL0     C27932   3.446   1.997   6.972 -0.1512 -0.3778  0.2995
  928MOL0     C27933   3.528   1.944   6.872  1.1573  0.3873  0.4541
  928MOL0     O27934   3.664   1.930   6.861  0.1616 -0.5782 -0.6961
  928MOL0     C27935   3.744   1.998   6.963 -0.7784  0.3471 -0.7380
  928MOL0     C27936   3.884   1.993   6.908 -0.1417 -0.4129  0.6120
  928MOL0     C27937   3.984   2.043   7.009  0.0675  0.2670 -0.6134
  928MOL0     C27938   4.129   2.048   6.950 -0.5738  0.0885 -1.0353
  928MOL0     C27939   4.227   2.064   7.064 -0.9254  0.1955  0.6395
  928MOL0     C27940   4.376   2.071   7.014  0.2670  0.0134 -0.1027
  928MOL0     C27941   4.407   1.935   6.945  0.5919  0.3953  0.1538
  928MOL0     C27942   4.547   1.924   6.889  0.2986 -0.1284 -1.4469
  928MOL0     N27943   4.581   1.786   6.870  0.1461 -0.5169 -0.4135
  928MOL0     C27944   4.705   1.729   6.887  0.1164  0.2298  0.7987
  928MOL0     C27945   4.697   1.618   6.812 -0.4678 -0.5058  0.1069
  928MOL0     C27946   4.804   1.508   6.803  0.2249 -0.3323  0.6060
  928MOL0     C27947   4.903   1.559   6.698 -0.2191 -0.3037 -0.0994
  928MOL0     C27948   5.033   1.621   6.747 -0.0509 -0.3484 -0.1437
  928MOL0     C27949   5.136   1.505   6.745  0.2169 -0.9797 -0.5954
  928MOL0     O27950   5.248   1.544   6.823 -0.4554  0.2715 -0.3884
  928MOL0     C27951   5.360   1.599   6.759 -0.3611 -1.1589  0.5064
  928MOL0     C27952   5.464   1.608   6.835 -0.4678  0.5853 -0.4630
  928MOL0     C27953   5.591   1.639   6.787 -0.0754  0.2334 -0.0508
  928MOL0     C27954   5.704   1.642   6.879 -0.4129  0.5538  0.1859
  928MOL0     C27955   5.606   1.677   6.650 -0.1307  0.5629  0.7163
  928MOL0     C27956   5.740   1.698   6.583 -0.5545 -0.3332 -0.1456
  928MOL0     O27957   5.852   1.719   6.671 -0.8767 -0.3332 -0.0443
  928MOL0     C27958   5.978   1.740   6.616  0.3728 -0.9350 -0.5260
  928MOL0     C27959   6.076   1.681   6.691 -0.8744 -0.0507  0.0131
  928MOL0     C27960   6.212   1.683   6.652  0.2005  0.1335 -0.1162
  928MOL0     C27961   6.250   1.750   6.535  0.1025 -0.1037  0.1343
  928MOL0     O27962   6.377   1.734   6.499 -0.1712 -0.5102  0.0526
  928MOL0     C27963   6.393   1.655   6.378  0.0569 -0.0415 -0.4075
  928MOL0     C27964   6.544   1.617   6.378  0.6984 -0.4164 -0.2714
  928MOL0     C27965   6.585   1.545   6.254 -0.5638  0.3730  0.1683
  928MOL0     C27966   6.732   1.498   6.257 -0.6175 -0.4477 -0.2724
  928MOL0     C27967   6.786   1.456   6.128  0.4496 -0.2597 -0.0179
  928MOL0     C27968   6.931   1.414   6.122 -0.0311  0.0756 -0.6374
  928MOL0     C27969   7.033   1.502   6.196 -0.2150  0.6789 -0.5418
  928MOL0     C27970   7.162   1.508   6.121  0.6257 -0.3292  0.4256
  928MOL0    Cl27971   7.134   1.602   5.976 -0.1631 -0.0896  0.3311
  928MOL0     C27972   6.147   1.817   6.459 -0.6838 -0.3279 -0.3324
  928MOL0     C27973   6.015   1.807   6.497  0.0918  0.5312  0.5553
  928MOL0     O27974   5.755   1.689   6.464  1.4420 -0.9554  0.2917
  928MOL0     C27975   5.486   1.678   6.566 -0.1469  0.1157  0.0530
  928MOL0     C27976   5.363   1.639   6.620 -0.1166 -0.2523 -0.5779
  928MOL0     N27977   4.566   1.597   6.773 -0.6089  0.9305  0.0692
  928MOL0     N27978   4.500   1.704   6.800  0.0778  0.3778  0.3139
  928MOL0     C27979   3.453   1.885   6.768  0.5191 -0.1301  0.9389
  928MOL0     C27980   3.316   1.889   6.749  0.2991 -0.1833 -0.5893
  928MOL0     C27981   2.910   1.803   6.793  0.3722 -0.2873 -0.2488
  928MOL0     C27982   2.847   1.914   6.730 -0.2034  0.2687  0.5880
  928MOL0     C27983   2.735   1.893   6.661 -0.4788  0.1912  0.5734
  928MOL0     C27984   2.665   1.772   6.667  0.0208 -0.0955 -0.0606
  928MOL0     O27985   2.549   1.743   6.601 -0.0389  0.3269  0.2317
  928MOL0     C27986   2.478   1.845   6.534  0.1553 -0.2480  0.1722
  928MOL0     C27987   2.348   1.789   6.483  0.6238  0.0762 -0.1625
  928MOL0     C27988   2.268   1.726   6.596  0.6054 -0.2120  0.2233
  928MOL0     C27989   2.149   1.650   6.534  0.0142  0.1011 -0.7767
  928MOL0     C27990   2.055   1.628   6.649 -0.1321  0.4244 -0.3523
  928MOL0     C27991   1.970   1.603   6.734 -0.9692  0.8679  0.4965
  928MOL0     C27992   2.726   1.661   6.738 -0.3388 -0.2604 -0.0450
  928MOL0     C27993   2.849   1.677   6.797 -0.1912  0.1523 -0.0724
  928MOL0     C27994   2.899   1.554   6.862 -0.2547 -0.8171 -0.6745
  928MOL0     H27995   3.244   2.060   7.037 -1.5696 -0.8249 -0.7911
  928MOL0     H27996   3.494   2.029   7.064 -2.4573 -0.3418  1.5707
  928MOL0     H27997   3.740   1.948   7.060  0.5374 -0.6598 -1.1841
  928MOL0     H27998   3.708   2.102   6.970  0.8411  0.9820 -1.4586
  928MOL0     H27999   3.897   1.887   6.885 -1.8105 -0.8761  1.6265
  928MOL0     H28000   3.898   2.051   6.816 -4.6416 -1.1708 -0.8111
  928MOL0     H28001   3.960   2.144   7.046  1.2777  1.4424 -2.8131
  928MOL0     H28002   3.986   1.967   7.088  1.4700  0.6749 -0.2420
  928MOL0     H28003   4.149   1.950   6.907 -4.1876 -0.7139 -1.2087
  928MOL0     H28004   4.143   2.120   6.869 -1.4435  2.9258  1.1574
  928MOL0     H28005   4.218   1.980   7.132  0.7657 -1.5648 -1.1579
  928MOL0     H28006   4.208   2.162   7.109  0.4889  2.2217 -2.7967
  928MOL0     H28007   4.382   2.159   6.950  5.3134 -0.7051 -1.0401
  928MOL0     H28008   4.442   2.083   7.100  1.2525  3.6236 -1.1931
  928MOL0     H28009   4.341   1.906   6.863  1.5135 -3.3678  0.5440
  928MOL0     H28010   4.400   1.851   7.016 -2.1925  0.8929  0.5963
  928MOL0     H28011   4.541   1.977   6.794 -1.7228  1.7498 -0.3750
  928MOL0     H28012   4.611   1.961   6.970 -1.3220  0.2494 -0.2925
  928MOL0     H28013   4.789   1.780   6.934 -2.1873  2.6656  2.6037
  928MOL0     H28014   4.772   1.406   6.783  0.4822 -0.2651 -0.1471
  928MOL0     H28015   4.843   1.500   6.905  0.1094  1.0371  0.7791
  928MOL0     H28016   4.928   1.464   6.650 -0.4185  1.1097 -3.2521
  928MOL0     H28017   4.860   1.630   6.627 -0.1985  0.5207  0.6943
  928MOL0     H28018   5.070   1.701   6.682 -0.5841  1.0304  1.1764
  928MOL0     H28019   5.008   1.671   6.841  0.1241 -0.9814  0.2461
  928MOL0     H28020   5.098   1.413   6.793  1.0404 -1.6987 -1.2964
  928MOL0     H28021   5.169   1.468   6.648  0.4049 -3.8032  0.4331
  928MOL0     H28022   5.450   1.596   6.942  1.1455  1.5641 -0.1155
  928MOL0     H28023   5.740   1.745   6.886 -1.8610  1.0080  1.7985
  928MOL0     H28024   5.783   1.569   6.861 -2.2672 -1.2169 -1.2293
  928MOL0     H28025   5.670   1.625   6.981  1.5318 -0.4390  0.7213
  928MOL0     H28026   6.042   1.616   6.772  2.1806 -2.2280 -0.2676
  928MOL0     H28027   6.287   1.636   6.714  2.4013  1.0627 -1.9189
  928MOL0     H28028   6.332   1.565   6.380 -0.4722  0.3045  1.8584
  928MOL0     H28029   6.378   1.718   6.289  2.4568  1.8463  0.4188
  928MOL0     H28030   6.592   1.716   6.383 -0.8742  0.3518  0.4227
  928MOL0     H28031   6.559   1.558   6.468  2.9175 -0.0875 -0.3740
  928MOL0     H28032   6.566   1.611   6.169  0.3421  2.9334  1.8127
  928MOL0     H28033   6.521   1.457   6.256 -1.4484  0.9383 -1.4654
  928MOL0     H28034   6.745   1.413   6.324  2.0888 -0.7529 -1.0296
  928MOL0     H28035   6.795   1.578   6.297 -0.1272 -2.8320  4.4082
  928MOL0     H28036   6.718   1.384   6.082 -0.4246  1.2636 -1.2255
  928MOL0     H28037   6.780   1.543   6.061  1.5482 -0.6961 -0.7084
  928MOL0     H28038   6.965   1.403   6.018  2.8103 -0.9762  0.3159
  928MOL0     H28039   6.933   1.314   6.167  2.1051  0.0721 -0.6026
  928MOL0     H28040   7.045   1.467   6.299  0.8279 -1.9228 -1.4601
  928MOL0     H28041   6.989   1.602   6.194 -1.2217  0.3638  1.8683
  928MOL0     H28042   7.191   1.405   6.096 -1.6570 -0.7733 -0.6865
  928MOL0     H28043   7.234   1.550   6.191 -0.8580  1.9584  0.6767
  928MOL0     H28044   6.177   1.878   6.374 -0.7885 -1.0878 -0.9222
  928MOL0     H28045   5.938   1.842   6.429 -0.4527  0.2805  1.0332
  928MOL0     H28046   5.491   1.704   6.461 -3.3372 -1.4255 -0.6048
  928MOL0     H28047   5.274   1.645   6.558 -0.5989  1.4469  0.2228
  928MOL0     H28048   3.503   1.831   6.688 -0.6383  1.6744 -1.1056
  928MOL0     H28049   3.295   1.841   6.653  3.7449 -1.4519 -0.8483
  928MOL0     H28050   2.906   2.004   6.717  2.5319 -1.2317  1.7908
  928MOL0     H28051   2.689   1.970   6.600  1.0867 -0.5357 -1.6685
  928MOL0     H28052   2.445   1.919   6.607  0.2898 -1.1404  1.1590
  928MOL0     H28053   2.536   1.885   6.450 -1.3077  0.8993 -0.3421
  928MOL0     H28054   2.368   1.704   6.418  0.9109 -0.7695  1.0058
  928MOL0     H28055   2.296   1.861   6.418  1.0923  0.1526 -0.4544
  928MOL0     H28056   2.323   1.642   6.641  2.9579 -0.0023 -2.0192
  928MOL0     H28057   2.245   1.812   6.660 -1.3277  1.4557 -2.5208
  928MOL0     H28058   2.195   1.554   6.510  1.4467  0.2899  0.9609
  928MOL0     H28059   2.091   1.700   6.457  0.1669  0.4206 -0.6893
  928MOL0     H28060   1.890   1.568   6.796 -0.3319  0.9791  1.3865
  928MOL0     H28061   2.684   1.561   6.751  0.2258 -0.4469  0.3420
  928MOL0     H28062   2.998   1.522   6.827  0.5560 -2.1130  2.4252
  928MOL0     H28063   2.911   1.572   6.969 -0.8914  1.7666 -0.9721
  928MOL0     H28064   2.826   1.475   6.843  0.9141 -2.1930  0.3552
  929MOL0     O28065  11.297   4.180  10.223 -0.1876 -0.3111 -0.4255
  929MOL0     C28066  11.322   4.153  10.103  0.5561  0.6980 -0.6009
  929MOL0     O28067  11.446   4.145  10.051  0.3383  0.2565 -0.0342
  929MOL0     C28068  11.545   4.163  10.144  0.3621  0.5609  0.0235
  929MOL0     C28069  11.595   4.287  10.158  1.0586 -0.4254  0.6796
  929MOL0     C28070  11.707   4.303  10.232 -0.5326  0.5521 -0.7392
  929MOL0     C28071  11.770   4.199  10.298 -0.2618  0.4247 -0.8238
  929MOL0     O28072  11.894   4.221  10.361  0.4455 -0.2461  0.3064
  929MOL0     C28073  11.875   4.214  10.505  0.1230 -0.5200 -0.7071
  929MOL0     C28074  11.991   4.249  10.603  0.0980 -0.1264 -0.4628
  929MOL0     C28075  12.115   4.162  10.557 -0.1504 -0.9397  0.7592
  929MOL0     C28076  12.236   4.175  10.652  0.3756  0.5544  0.5074
  929MOL0     C28077  12.360   4.092  10.607 -0.0242  0.3581 -0.1717
  929MOL0     C28078  12.341   3.937  10.632 -0.0927 -0.6613  0.0765
  929MOL0     C28079  12.479   3.865  10.651  0.5919 -1.0329 -0.7454
  929MOL0     C28080  12.578   3.868  10.536  0.5578 -0.0351 -0.2093
  929MOL0     N28081  12.706   3.825  10.585 -0.0662 -0.1710 -0.1413
  929MOL0     C28082  12.764   3.701  10.553 -0.8630 -0.3616 -0.0336
  929MOL0     C28083  12.885   3.698  10.620  0.2056 -0.2664 -0.2976
  929MOL0     C28084  12.999   3.595  10.611  0.4234  0.2923  0.0825
  929MOL0     C28085  13.139   3.660  10.586  0.2713 -0.7899  0.1856
  929MOL0     C28086  13.252   3.560  10.625 -0.1777 -0.7860 -0.5541
  929MOL0     C28087  13.392   3.622  10.620  0.1864 -0.1331 -0.6240
  929MOL0     O28088  13.400   3.728  10.710 -0.2487 -0.1171  0.1789
  929MOL0     C28089  13.529   3.740  10.768 -0.1913 -1.2374  0.4948
  929MOL0     C28090  13.645   3.774  10.701  0.0758  0.3127  0.1984
  929MOL0     C28091  13.774   3.778  10.761  0.1225  0.3299  0.4384
  929MOL0     C28092  13.887   3.810  10.662 -0.6953  0.8307  0.0157
  929MOL0     C28093  13.779   3.750  10.896 -0.5109  0.1194 -0.1310
  929MOL0     C28094  13.901   3.752  10.970 -0.4025  0.0660 -1.1334
  929MOL0     O28095  13.898   3.795  11.099 -0.0394 -0.5706  0.0270
  929MOL0     C28096  14.012   3.780  11.179  0.0083  0.1564 -0.0543
  929MOL0     C28097  14.130   3.852  11.160  0.3388  0.7137  1.0646
  929MOL0     C28098  14.247   3.818  11.232 -0.3581 -0.7597 -0.1223
  929MOL0     C28099  14.244   3.735  11.337 -0.1829 -0.3101 -0.2398
  929MOL0     O28100  14.362   3.727  11.407 -0.4159 -0.0744 -0.8668
  929MOL0     C28101  14.352   3.656  11.526  0.5931 -0.5873  0.6681
  929MOL0     C28102  14.451   3.698  11.632  0.5477 -0.8102  0.5015
  929MOL0     C28103  14.435   3.616  11.763 -0.1579 -0.7522 -0.4246
  929MOL0     C28104  14.547   3.626  11.873 -0.1223 -0.8216  0.1284
  929MOL0     C28105  14.520   3.510  11.968 -0.3044 -0.3972 -0.4538
  929MOL0     C28106  14.620   3.518  12.091  0.3499  0.5121 -0.6251
  929MOL0     C28107  14.576   3.426  12.203  0.3172  0.1236  0.1090
  929MOL0     C28108  14.659   3.451  12.331  0.2986  0.2646 -0.7137
  929MOL0    Cl28109  14.843   3.439  12.314  0.0915 -0.2299 -0.1451
  929MOL0     C28110  14.122   3.667  11.363 -0.1860 -0.4691 -0.3431
  929MOL0     C28111  14.009   3.690  11.289  0.2332  0.0523 -0.1315
  929MOL0     O28112  13.999   3.702  10.913  0.2961 -0.6885 -0.5485
  929MOL0     C28113  13.661   3.735  10.965 -0.4689 -0.2816 -0.2967
  929MOL0     C28114  13.538   3.739  10.908  0.0732  0.3136  0.0490
  929MOL0     N28115  12.900   3.822  10.675 -0.2852 -0.6717 -0.4208
  929MOL0     N28116  12.791   3.888  10.671  0.0197 -0.1776 -0.1312
  929MOL0     C28117  11.714   4.069  10.293  0.2853 -0.8728  0.1895
  929MOL0     C28118  11.598   4.057  10.220  0.6876 -0.0178  0.1637
  929MOL0     C28119  11.200   4.125  10.029  0.8025 -0.3434  0.0963
  929MOL0     C28120  11.079   4.190  10.068 -0.3007  0.3227 -0.3510
  929MOL0     C28121  10.960   4.192   9.992 -0.9220  0.1908  0.0092
  929MOL0     C28122  10.952   4.119   9.867  0.5812 -0.0781 -0.1137
  929MOL0     O28123  10.848   4.102   9.786  0.3874 -0.1830 -0.2814
  929MOL0     C28124  10.719   4.115   9.849 -0.4471  0.5046  0.8957
  929MOL0     C28125  10.624   4.038   9.763  0.3234  0.3078  0.2504
  929MOL0     C28126  10.493   4.050   9.831  0.0735  0.4502 -0.8661
  929MOL0     C28127  10.386   3.972   9.754  0.5967  0.6670  0.5200
  929MOL0     C28128  10.302   4.060   9.669 -0.4132 -0.6146 -0.2166
  929MOL0     C28129  10.228   4.134   9.613  0.1896  0.7383 -0.5589
  929MOL0     C28130  11.073   4.064   9.825  0.3726 -0.5797 -0.7850
  929MOL0     C28131  11.194   4.067   9.902  0.0231  0.3093  1.0800
  929MOL0     C28132  11.320   4.004   9.836 -0.6126  0.1031 -0.4634
  929MOL0     H28133  11.540   4.364  10.105 -3.4224 -1.6963  3.0092
  929MOL0     H28134  11.761   4.396  10.241 -1.7927  1.2745 -0.3046
  929MOL0     H28135  11.849   4.109  10.523 -0.1356  0.0812  3.6073
  929MOL0     H28136  11.792   4.282  10.527  0.4790 -0.1253 -0.5751
  929MOL0     H28137  12.023   4.354  10.602  2.1286 -0.6256  1.6941
  929MOL0     H28138  11.967   4.221  10.706 -0.8017  2.6305  0.1693
  929MOL0     H28139  12.092   4.058  10.532  2.3414 -1.6894  1.2582
  929MOL0     H28140  12.160   4.219  10.475  1.9424  0.7515  2.9277
  929MOL0     H28141  12.264   4.281  10.648  2.2358  0.0774 -1.3278
  929MOL0     H28142  12.216   4.155  10.758  0.2983  4.2316  1.3138
  929MOL0     H28143  12.447   4.141  10.652  0.2671  0.8901 -1.2593
  929MOL0     H28144  12.361   4.102  10.498 -0.2513 -0.7283 -0.2811
  929MOL0     H28145  12.293   3.931  10.730  3.0871  1.2063  1.9555
  929MOL0     H28146  12.276   3.892  10.557 -1.9240 -1.6994  2.1715
  929MOL0     H28147  12.451   3.762  10.672 -0.6381 -0.7299 -0.8521
  929MOL0     H28148  12.527   3.920  10.733  1.0271  1.6570 -2.6703
  929MOL0     H28149  12.540   3.806  10.454  0.6432 -1.2898  0.6794
  929MOL0     H28150  12.603   3.967  10.496 -0.4977 -0.4904 -2.1443
  929MOL0     H28151  12.727   3.619  10.492  1.6806 -1.3162 -0.4566
  929MOL0     H28152  12.977   3.513  10.542  2.1210  0.4456 -0.6863
  929MOL0     H28153  13.011   3.545  10.708  2.4029 -0.6807 -0.6174
  929MOL0     H28154  13.154   3.672  10.478  0.7377  0.2194  0.3529
  929MOL0     H28155  13.155   3.751  10.644  2.5709 -2.1109  1.7899
  929MOL0     H28156  13.234   3.507  10.719  0.2643 -0.8068 -0.4784
  929MOL0     H28157  13.242   3.491  10.541 -2.2734  0.0062 -1.0231
  929MOL0     H28158  13.463   3.540  10.635 -0.4460 -0.8542 -1.4376
  929MOL0     H28159  13.417   3.660  10.521  3.7795 -0.7881 -0.0964
  929MOL0     H28160  13.639   3.824  10.605  1.3964  1.6327  0.7578
  929MOL0     H28161  13.910   3.720  10.604 -2.0531  0.3191  0.2351
  929MOL0     H28162  13.975   3.853  10.710  0.2444 -1.3558  0.3967
  929MOL0     H28163  13.851   3.876  10.582  1.6929  0.6871 -1.2594
  929MOL0     H28164  14.126   3.927  11.082  2.3898  0.0229  0.2426
  929MOL0     H28165  14.340   3.867  11.207 -1.6267  2.0920  0.3282
  929MOL0     H28166  14.253   3.670  11.571  0.6309 -1.6398  1.1058
  929MOL0     H28167  14.353   3.549  11.505 -0.9369 -0.1467 -2.1955
  929MOL0     H28168  14.550   3.692  11.588  1.9063 -2.2580  3.4639
  929MOL0     H28169  14.445   3.802  11.667 -2.0986  0.1526 -2.3831
  929MOL0     H28170  14.416   3.515  11.725  0.2597 -0.1944 -2.2508
  929MOL0     H28171  14.341   3.639  11.814  0.8055  0.9571  0.6692
  929MOL0     H28172  14.543   3.722  11.924 -0.2022 -1.0485  0.5545
  929MOL0     H28173  14.647   3.611  11.829 -0.8132 -1.5070 -1.2926
  929MOL0     H28174  14.420   3.535  12.003  0.5427  3.1533 -0.1720
  929MOL0     H28175  14.513   3.414  11.918 -0.7336 -0.8130  0.3945
  929MOL0     H28176  14.614   3.618  12.136  0.2776 -0.4874  1.7120
  929MOL0     H28177  14.725   3.505  12.062  0.3374  0.7326 -0.7763
  929MOL0     H28178  14.586   3.321  12.172  0.6123  0.5972 -1.4791
  929MOL0     H28179  14.472   3.453  12.224  0.1188  0.0030 -0.6996
  929MOL0     H28180  14.626   3.373  12.401 -1.1412  1.3854 -0.0743
  929MOL0     H28181  14.616   3.539  12.380 -2.1148 -1.9615  1.4701
  929MOL0     H28182  14.118   3.591  11.441 -1.2706 -0.1849 -0.0943
  929MOL0     H28183  13.915   3.646  11.321 -0.9756  2.1927 -0.5080
  929MOL0     H28184  13.658   3.706  11.070  0.6417  0.8190  0.0569
  929MOL0     H28185  13.454   3.729  10.975 -3.1976 -0.5531 -3.7904
  929MOL0     H28186  11.767   3.985  10.335  1.0649 -0.0141  0.9740
  929MOL0     H28187  11.553   3.959  10.224  1.3872 -0.2903  2.8536
  929MOL0     H28188  11.081   4.256  10.154 -1.3644 -1.2360  0.9243
  929MOL0     H28189  10.886   4.260  10.032 -0.1449  0.7047  0.6040
  929MOL0     H28190  10.727   4.073   9.950 -2.4432  0.4454  1.0674
  929MOL0     H28191  10.696   4.222   9.851  0.3265  1.0135 -4.0761
  929MOL0     H28192  10.653   3.933   9.757  2.3340  0.8742 -1.6132
  929MOL0     H28193  10.619   4.083   9.662 -1.0640  0.5923  0.4225
  929MOL0     H28194  10.508   4.017   9.934 -0.8035  0.3742 -0.7507
  929MOL0     H28195  10.454   4.152   9.840 -1.0536 -0.0967  1.0207
  929MOL0     H28196  10.332   3.910   9.826  1.1534  0.8415  1.1024
  929MOL0     H28197  10.424   3.897   9.684 -2.4364 -2.3894  1.8701
  929MOL0     H28198  10.165   4.192   9.549 -1.6843  1.0530  1.4443
  929MOL0     H28199  11.087   4.015   9.730  2.2280  1.0854 -1.4441
  929MOL0     H28200  11.389   4.087   9.815 -0.2818 -0.1333 -0.3266
  929MOL0     H28201  11.367   3.944   9.915 -2.1435  0.8228  1.0630
  929MOL0     H28202  11.307   3.928   9.759 -0.8608  1.1618 -1.4880
  930MOL0     O28203  11.020   1.413   4.989 -0.2070 -0.0038 -0.1664
  930MOL0     C28204  10.951   1.344   4.913  0.5552 -0.2043 -0.0458
  930MOL0     O28205  10.996   1.258   4.821  0.0700 -0.3490  0.0783
  930MOL0     C28206  11.070   1.147   4.864  0.2387 -0.8805 -0.1643
  930MOL0     C28207  11.153   1.087   4.776  0.5050 -0.3578 -0.5896
  930MOL0     C28208  11.229   0.969   4.815  0.1913  0.7172  0.4066
  930MOL0     C28209  11.235   0.924   4.940  0.0862  0.7217 -0.3244
  930MOL0     O28210  11.320   0.824   4.966  0.0589  0.2136  0.5485
  930MOL0     C28211  11.292   0.743   5.083 -0.2544  0.2694 -0.1955
  930MOL0     C28212  11.426   0.673   5.120 -0.0285  0.4248 -0.5535
  930MOL0     C28213  11.408   0.590   5.243  0.8811  0.1758  0.0443
  930MOL0     C28214  11.550   0.545   5.285  0.4577 -0.8001  0.0561
  930MOL0     C28215  11.565   0.488   5.421 -0.4639 -0.3413  0.0136
  930MOL0     C28216  11.710   0.464   5.470 -0.1809  0.1803  0.1688
  930MOL0     C28217  11.778   0.588   5.519  0.7418 -0.3737  0.3448
  930MOL0     C28218  11.914   0.555   5.574 -0.4092  1.2607  0.1792
  930MOL0     N28219  12.001   0.671   5.596 -1.2018 -0.3575  0.0218
  930MOL0     C28220  11.970   0.775   5.679 -0.5534  0.6886 -0.2969
  930MOL0     C28221  12.059   0.868   5.642 -0.9959  0.2989 -0.7718
  930MOL0     C28222  12.062   1.003   5.703 -0.7089 -0.3155  0.3964
  930MOL0     C28223  12.200   1.036   5.766 -0.2120  0.3893  0.0604
  930MOL0     C28224  12.217   1.186   5.818 -0.2110  0.2367  0.0456
  930MOL0     C28225  12.327   1.193   5.915 -0.1531 -0.3192 -0.3887
  930MOL0     O28226  12.316   1.091   6.015  0.1935  0.3366  0.2232
  930MOL0     C28227  12.419   1.084   6.103 -0.5793 -0.1348 -0.7774
  930MOL0     C28228  12.556   1.120   6.087  0.7171 -0.8131 -0.6711
  930MOL0     C28229  12.655   1.091   6.182 -0.1507  0.1621 -0.2677
  930MOL0     C28230  12.792   1.136   6.146 -0.7912  0.2706  0.0663
  930MOL0     C28231  12.618   1.015   6.299 -0.1164 -0.0161 -1.0393
  930MOL0     C28232  12.712   0.979   6.406 -0.2327 -0.1916  0.2799
  930MOL0     O28233  12.808   1.068   6.435  0.1506 -0.3674  0.6027
  930MOL0     C28234  12.891   1.047   6.547  0.4398 -0.0293 -0.0576
  930MOL0     C28235  12.859   0.985   6.669 -0.8899 -0.1008 -0.5489
  930MOL0     C28236  12.956   0.980   6.772  1.0361 -0.1434 -0.3452
  930MOL0     C28237  13.082   1.035   6.754 -0.1068  0.2410 -0.3704
  930MOL0     O28238  13.164   1.038   6.862 -0.9733 -0.2574 -1.0360
  930MOL0     C28239  13.255   1.147   6.890  0.6530 -0.6736  0.2850
  930MOL0     C28240  13.333   1.126   7.018 -0.5703  0.5035 -0.4323
  930MOL0     C28241  13.408   1.250   7.064  0.2387  0.5401 -0.3034
  930MOL0     C28242  13.511   1.312   6.967 -0.0409 -0.5491 -0.8259
  930MOL0     C28243  13.589   1.426   7.031 -0.1327 -0.1635 -0.8518
  930MOL0     C28244  13.697   1.482   6.932 -0.2446 -0.4209  0.1862
  930MOL0     C28245  13.796   1.593   6.977 -0.2202  0.0619 -0.5012
  930MOL0     C28246  13.895   1.535   7.080  0.6481 -0.2167  0.5416
  930MOL0    Cl28247  13.979   1.404   6.996 -0.0715  0.3564  0.0366
  930MOL0     C28248  13.111   1.092   6.635  0.7346  0.1847  0.5280
  930MOL0     C28249  13.015   1.103   6.533  0.3747 -0.5246 -0.1788
  930MOL0     O28250  12.686   0.883   6.470 -0.3434  0.1939  1.3122
  930MOL0     C28251  12.483   0.978   6.307 -0.3029  0.6419  0.8008
  930MOL0     C28252  12.392   1.001   6.206 -0.4570 -0.7532  0.6758
  930MOL0     N28253  12.152   0.815   5.552  0.1886 -0.2881  0.1623
  930MOL0     N28254  12.108   0.703   5.513  0.4323 -0.3419 -0.1825
  930MOL0     C28255  11.140   0.973   5.023  0.2385  0.4514 -0.6597
  930MOL0     C28256  11.063   1.089   4.989 -0.5924 -0.8512  0.1498
  930MOL0     C28257  10.801   1.364   4.900 -0.4163  0.2887  0.1276
  930MOL0     C28258  10.725   1.252   4.899 -0.4175 -0.8147  0.3010
  930MOL0     C28259  10.582   1.260   4.885  0.0478 -0.2389  0.3357
  930MOL0     C28260  10.521   1.386   4.862 -0.7412  0.5711 -0.0109
  930MOL0     O28261  10.392   1.398   4.834  0.0040  0.0575  0.4656
  930MOL0     C28262  10.296   1.363   4.925 -0.0761 -0.1978  0.0318
  930MOL0     C28263  10.214   1.248   4.864  0.3989 -0.2047 -0.4796
  930MOL0     C28264  10.130   1.186   4.978  0.0921 -0.6239 -0.5342
  930MOL0     C28265  10.000   1.130   4.928 -0.2386 -1.1367 -0.5882
  930MOL0     C28266   9.903   1.101   5.035  0.3557 -0.4689 -0.0986
  930MOL0     C28267   9.834   1.090   5.134  0.0008  0.0185 -0.8849
  930MOL0     C28268  10.606   1.494   4.857 -0.5512 -0.5034 -0.4169
  930MOL0     C28269  10.743   1.487   4.880 -0.1005 -0.5207 -0.8991
  930MOL0     C28270  10.812   1.622   4.871  0.0972  0.6551  0.1732
  930MOL0     H28271  11.171   1.131   4.679  1.4410 -1.7721 -1.0830
  930MOL0     H28272  11.279   0.926   4.728 -1.1174 -0.0664  0.0145
  930MOL0     H28273  11.223   0.661   5.063 -0.1932  0.5649 -1.7944
  930MOL0     H28274  11.269   0.802   5.172  0.8495  0.4579 -0.0117
  930MOL0     H28275  11.457   0.607   5.038 -0.0647  1.4112 -1.3879
  930MOL0     H28276  11.501   0.749   5.143  0.0900  0.0483  0.3568
  930MOL0     H28277  11.358   0.638   5.327 -1.7527 -1.5158 -0.4541
  930MOL0     H28278  11.353   0.497   5.227 -3.1957  1.8384  2.8253
  930MOL0     H28279  11.586   0.472   5.212  0.6250  2.6894 -3.6683
  930MOL0     H28280  11.614   0.633   5.293 -0.7017 -0.0582  1.6732
  930MOL0     H28281  11.516   0.391   5.413  0.6841 -0.8042 -2.5114
  930MOL0     H28282  11.509   0.555   5.487 -0.4371 -1.6102  1.3711
  930MOL0     H28283  11.704   0.384   5.545 -2.4114 -0.8630 -1.0014
  930MOL0     H28284  11.771   0.415   5.393 -0.1713  0.6717 -0.1391
  930MOL0     H28285  11.714   0.623   5.600 -1.2351 -0.7333 -0.9901
  930MOL0     H28286  11.783   0.666   5.442  1.5412  1.8583  2.5132
  930MOL0     H28287  11.906   0.499   5.668  0.0032  1.6536  0.4562
  930MOL0     H28288  11.960   0.490   5.499 -0.0332  0.0306  1.4361
  930MOL0     H28289  11.894   0.791   5.754  0.2162  3.7124 -0.0178
  930MOL0     H28290  11.981   1.003   5.777 -1.6362  0.3912 -0.5779
  930MOL0     H28291  12.044   1.077   5.624 -1.2112 -0.0636  0.7443
  930MOL0     H28292  12.206   0.964   5.849 -3.0629 -1.7366 -1.4216
  930MOL0     H28293  12.286   1.003   5.707  0.1455  0.5465  0.4823
  930MOL0     H28294  12.246   1.249   5.734  0.8810 -0.8716 -0.4339
  930MOL0     H28295  12.128   1.220   5.872 -1.5022 -2.7886  0.0487
  930MOL0     H28296  12.420   1.178   5.859  0.7820  0.5932  0.8515
  930MOL0     H28297  12.322   1.292   5.961 -2.9786 -2.2058  3.9624
  930MOL0     H28298  12.594   1.153   5.990  0.2799 -1.9456 -1.2473
  930MOL0     H28299  12.809   1.109   6.042 -1.9405 -1.4900  0.2881
  930MOL0     H28300  12.865   1.079   6.204 -1.4990 -1.9398 -1.0817
  930MOL0     H28301  12.809   1.243   6.163  1.7530 -0.1194  0.4010
  930MOL0     H28302  12.763   0.938   6.690 -1.0885  0.0749 -1.0521
  930MOL0     H28303  12.927   0.940   6.869 -2.4547  2.3462 -0.1970
  930MOL0     H28304  13.324   1.160   6.806 -0.5301  2.3905 -0.3614
  930MOL0     H28305  13.199   1.241   6.899  3.0338  0.7740  0.7166
  930MOL0     H28306  13.266   1.079   7.090  3.5992 -3.2410  1.4864
  930MOL0     H28307  13.411   1.051   7.002  0.4671  1.9144 -2.4863
  930MOL0     H28308  13.455   1.233   7.161 -0.6076  1.5875  0.3098
  930MOL0     H28309  13.328   1.321   7.087 -1.6152 -1.2926 -0.7144
  930MOL0     H28310  13.465   1.345   6.873 -0.9867 -1.7387 -0.8006
  930MOL0     H28311  13.588   1.238   6.945  1.6466  1.0765 -0.6462
  930MOL0     H28312  13.515   1.505   7.049  0.4149  0.4780 -1.3584
  930MOL0     H28313  13.637   1.411   7.128  0.5491 -0.8850 -1.2963
  930MOL0     H28314  13.651   1.520   6.841  0.5342  0.2751  0.0715
  930MOL0     H28315  13.754   1.397   6.893 -1.0318 -1.9207  2.1145
  930MOL0     H28316  13.736   1.664   7.034 -0.0457 -2.1777  2.7617
  930MOL0     H28317  13.854   1.650   6.904  0.1785  0.3622  0.0383
  930MOL0     H28318  13.844   1.497   7.169  1.7590  1.3590  1.9215
  930MOL0     H28319  13.971   1.610   7.103 -0.4168  0.3253  2.4773
  930MOL0     H28320  13.208   1.139   6.628  0.4968  0.7866  1.2156
  930MOL0     H28321  13.037   1.163   6.446 -1.5772  1.0257  0.3261
  930MOL0     H28322  12.453   0.913   6.389  0.3456 -0.0656  0.4837
  930MOL0     H28323  12.296   0.949   6.207  1.0896 -4.3387 -3.5179
  930MOL0     H28324  11.126   0.930   5.122 -2.9025  0.2106 -1.1143
  930MOL0     H28325  11.000   1.133   5.065  0.3501 -0.5711  0.7903
  930MOL0     H28326  10.775   1.156   4.902 -1.4115 -1.3362  0.4067
  930MOL0     H28327  10.517   1.174   4.897 -1.8482  1.3434  1.9631
  930MOL0     H28328  10.340   1.313   5.012  0.9678 -2.3865 -1.6588
  930MOL0     H28329  10.235   1.448   4.957 -0.8662 -0.3288 -1.0664
  930MOL0     H28330  10.268   1.165   4.815 -2.1734 -2.8789  0.9095
  930MOL0     H28331  10.152   1.294   4.786  1.3807  2.9249  0.4610
  930MOL0     H28332  10.184   1.101   5.023  1.5277 -0.0768 -1.1483
  930MOL0     H28333  10.100   1.251   5.061  1.0329 -1.1359  0.2347
  930MOL0     H28334  10.017   1.040   4.868 -2.1363 -1.4431 -0.7146
  930MOL0     H28335   9.961   1.209   4.864 -0.8489 -1.0059 -0.0614
  930MOL0     H28336   9.785   1.083   5.229  0.7323  2.2561 -0.2880
  930MOL0     H28337  10.559   1.590   4.837 -0.3265  0.1664  1.9503
  930MOL0     H28338  10.917   1.608   4.844  0.0803  0.4903  0.1918
  930MOL0     H28339  10.768   1.673   4.784  1.1880  3.2557  1.0552
  930MOL0     H28340  10.798   1.675   4.965 -2.9038  0.9303 -0.3243
  931MOL0     O28341   9.714   9.116   6.787  0.0339 -0.0553  0.0249
  931MOL0     C28342   9.636   9.024   6.806  0.6015 -0.1339  0.1528
  931MOL0     O28343   9.648   8.934   6.906 -0.1625  0.6330 -0.3788
  931MOL0     C28344   9.728   8.976   7.007  0.0121  0.2021  0.9153
  931MOL0     C28345   9.685   9.044   7.120  0.2732 -0.3133 -0.0818
  931MOL0     C28346   9.769   9.079   7.217 -0.2034 -0.3155 -0.5674
  931MOL0     C28347   9.905   9.047   7.200 -0.1094 -0.4556 -0.9372
  931MOL0     O28348  10.011   9.081   7.282  0.6315 -0.1290 -0.2469
  931MOL0     C28349   9.993   9.071   7.425  1.0787 -0.1143  0.3899
  931MOL0     C28350   9.976   9.214   7.486 -0.0345  1.3941  0.9618
  931MOL0     C28351  10.089   9.324   7.438  0.8861 -0.2121  0.4108
  931MOL0     C28352  10.096   9.430   7.551  0.1828 -0.2238  0.5773
  931MOL0     C28353  10.202   9.536   7.526 -0.8541  0.6290  0.5208
  931MOL0     C28354  10.345   9.486   7.556  0.0542  0.1457  0.5214
  931MOL0     C28355  10.462   9.583   7.556  0.9221  0.3317 -0.0687
  931MOL0     C28356  10.500   9.624   7.411 -0.1796  0.2104  0.2011
  931MOL0     N28357  10.611   9.723   7.417 -0.2904 -0.2826  0.0376
  931MOL0     C28358  10.745   9.695   7.429  0.0517  0.6033 -0.2665
  931MOL0     C28359  10.811   9.817   7.433  0.8851  0.4507 -0.5276
  931MOL0     C28360  10.958   9.831   7.442  0.4215  0.2073 -0.3057
  931MOL0     C28361  11.012   9.886   7.311  0.2267 -0.5336  0.1770
  931MOL0     C28362  11.166   9.893   7.322  0.3624  0.2182  1.0555
  931MOL0     C28363  11.225   9.753   7.296 -0.2467 -0.3190 -0.5293
  931MOL0     O28364  11.358   9.766   7.250 -0.9562  0.2385  0.0234
  931MOL0     C28365  11.459   9.815   7.335 -0.2180  0.1112  0.2252
  931MOL0     C28366  11.460   9.843   7.471  0.2510  0.2295 -1.0366
  931MOL0     C28367  11.564   9.902   7.544 -0.0788 -0.1121  0.0123
  931MOL0     C28368  11.541   9.922   7.691 -0.8415 -0.6671 -0.5665
  931MOL0     C28369  11.687   9.912   7.474 -0.4789 -0.3264 -0.2039
  931MOL0     C28370  11.804   9.981   7.535  0.8306  0.3032  0.4215
  931MOL0     O28371  11.926   9.937   7.500 -0.4286 -0.3097 -0.0164
  931MOL0     C28372  12.031   9.999   7.567 -0.1967  0.2989  0.2883
  931MOL0     C28373  12.135  10.052   7.485 -0.0415  0.4527 -0.7188
  931MOL0     C28374  12.257  10.114   7.537 -0.6939 -0.1814  0.1310
  931MOL0     C28375  12.271  10.118   7.674  0.2318 -0.2830 -0.1845
  931MOL0     O28376  12.375  10.179   7.741 -0.2777 -0.7035 -0.0420
  931MOL0     C28377  12.481  10.219   7.653 -1.0584 -0.1149  0.1010
  931MOL0     C28378  12.603  10.248   7.742 -0.0607  0.0224 -0.1799
  931MOL0     C28379  12.728  10.278   7.656  0.3683 -0.0842 -0.6540
  931MOL0     C28380  12.837  10.330   7.751 -0.6647  0.7983  0.1857
  931MOL0     C28381  12.967  10.350   7.675  0.4678 -0.0293 -0.4915
  931MOL0     C28382  12.974  10.459   7.561  0.1993  0.1642 -1.0960
  931MOL0     C28383  13.118  10.504   7.539  0.3960 -0.2562  0.0878
  931MOL0     C28384  13.126  10.636   7.476  0.0900 -0.2869  0.0821
  931MOL0    Cl28385  13.054  10.629   7.306 -0.4344  0.5917  0.1199
  931MOL0     C28386  12.172  10.061   7.755 -0.4504 -0.9664 -0.2706
  931MOL0     C28387  12.051  10.001   7.705 -0.7554  0.1323 -0.4645
  931MOL0     O28388  11.767  10.078   7.605 -0.1938  0.3345 -0.4931
  931MOL0     C28389  11.691   9.876   7.340  0.0242  0.4344 -0.4608
  931MOL0     C28390  11.577   9.828   7.267  0.5198 -0.1546  0.1193
  931MOL0     N28391  10.720   9.915   7.417  0.8008 -0.1524 -0.6702
  931MOL0     N28392  10.603   9.860   7.404  0.8998 -0.6003  0.0628
  931MOL0     C28393   9.953   8.995   7.079  0.5441 -0.5629  0.2473
  931MOL0     C28394   9.861   8.951   6.985 -0.1440  0.6870 -0.2391
  931MOL0     C28395   9.526   8.998   6.712  0.0683  0.5436  0.5769
  931MOL0     C28396   9.559   9.006   6.576  0.1504 -0.1814 -0.3409
  931MOL0     C28397   9.459   8.992   6.481  0.7451  0.1765 -0.2515
  931MOL0     C28398   9.333   8.955   6.515 -0.7917 -0.0104 -0.0779
  931MOL0     O28399   9.246   8.919   6.415 -0.5467  0.0417  0.7123
  931MOL0     C28400   9.130   8.844   6.451  0.3992  0.5087 -0.1236
  931MOL0     C28401   9.039   8.809   6.336  0.4236 -0.0188  0.3651
  931MOL0     C28402   9.098   8.703   6.247 -0.7472  0.6594 -0.8180
  931MOL0     C28403   9.000   8.638   6.141 -1.1330 -0.3524 -0.3013
  931MOL0     C28404   8.939   8.724   6.042  0.7216  0.1701 -0.0666
  931MOL0     C28405   8.874   8.772   5.952  0.3762  0.6831  1.0372
  931MOL0     C28406   9.299   8.948   6.648  0.3753  0.2323  0.1784
  931MOL0     C28407   9.395   8.972   6.748 -0.2079  1.1949  0.9115
  931MOL0     C28408   9.357   8.982   6.895  0.1220 -0.2503 -0.6510
  931MOL0     H28409   9.582   9.074   7.136  1.0514  1.2408  2.7740
  931MOL0     H28410   9.719   9.120   7.304 -1.9892  0.8261 -2.0540
  931MOL0     H28411  10.089   9.032   7.460  2.8490  0.6469 -3.1388
  931MOL0     H28412   9.919   8.995   7.453  2.4940 -1.0887  1.6286
  931MOL0     H28413   9.880   9.250   7.449 -0.9491 -1.4943  0.2523
  931MOL0     H28414   9.968   9.201   7.594 -0.1765 -3.0912  0.6138
  931MOL0     H28415  10.182   9.270   7.414 -0.3676 -2.2666 -0.1199
  931MOL0     H28416  10.058   9.363   7.341  0.4014 -0.7499  0.3449
  931MOL0     H28417   9.995   9.467   7.567  0.1513  0.7911 -1.6205
  931MOL0     H28418  10.122   9.383   7.647  1.5330 -2.2287 -0.6910
  931MOL0     H28419  10.176   9.632   7.571 -3.6940  1.0920 -1.8190
  931MOL0     H28420  10.191   9.569   7.422 -0.8511  1.0971  0.6698
  931MOL0     H28421  10.337   9.439   7.654  0.6703  1.3246  1.1600
  931MOL0     H28422  10.364   9.404   7.486 -3.1236 -1.0907  0.9387
  931MOL0     H28423  10.545   9.526   7.598  2.4230 -2.9302 -6.2255
  931MOL0     H28424  10.442   9.673   7.615  0.6843  0.3022 -0.1005
  931MOL0     H28425  10.534   9.537   7.356 -0.1844 -0.1829  0.8090
  931MOL0     H28426  10.417   9.679   7.364 -0.5085 -0.8297 -0.4590
  931MOL0     H28427  10.790   9.597   7.419  0.8391  0.5960  2.5932
  931MOL0     H28428  11.003   9.732   7.451  0.8068  0.3736 -0.3877
  931MOL0     H28429  10.987   9.892   7.528  0.2608  0.0783 -0.1588
  931MOL0     H28430  10.992   9.829   7.220  2.0998 -2.4075  0.8523
  931MOL0     H28431  10.964   9.983   7.293 -3.3012 -2.5027 -2.3476
  931MOL0     H28432  11.198   9.954   7.237  0.0974 -1.2627 -0.1760
  931MOL0     H28433  11.202   9.928   7.419 -0.1773 -0.5346  1.5385
  931MOL0     H28434  11.222   9.698   7.390  0.0076  0.8703  0.2013
  931MOL0     H28435  11.172   9.699   7.217 -1.7185  0.3224 -0.0044
  931MOL0     H28436  11.366   9.822   7.523 -0.4016 -0.6843 -2.5279
  931MOL0     H28437  11.506  10.022   7.718 -1.1330 -1.0391  0.5155
  931MOL0     H28438  11.623   9.892   7.757 -0.8135  0.2252 -0.1795
  931MOL0     H28439  11.467   9.849   7.726  0.4048 -1.1458  1.2045
  931MOL0     H28440  12.118  10.039   7.379  0.7030 -0.1528 -0.7758
  931MOL0     H28441  12.330  10.161   7.472  0.5055 -0.4764  1.2260
  931MOL0     H28442  12.513  10.142   7.583 -2.6701  0.4206 -1.2874
  931MOL0     H28443  12.445  10.310   7.604  0.9150 -0.0061 -1.2291
  931MOL0     H28444  12.575  10.342   7.790  1.2148  0.0714  0.5050
  931MOL0     H28445  12.617  10.171   7.819 -1.6963  1.1162  1.2873
  931MOL0     H28446  12.707  10.353   7.579  0.7799 -2.5603 -3.3491
  931MOL0     H28447  12.762  10.184   7.611  0.5574 -1.8546  2.8307
  931MOL0     H28448  12.853  10.254   7.828  2.2989 -0.5980 -1.6352
  931MOL0     H28449  12.809  10.426   7.796 -2.9137  0.8861 -1.2480
  931MOL0     H28450  13.030  10.390   7.755  0.0299 -1.4788  0.6147
  931MOL0     H28451  12.999  10.251   7.640 -3.1656 -0.9732 -1.5448
  931MOL0     H28452  12.929  10.550   7.602 -1.3369 -0.8903 -0.3653
  931MOL0     H28453  12.919  10.431   7.471 -1.9831  0.1259  0.1839
  931MOL0     H28454  13.176  10.428   7.486  1.0741 -3.0546  4.3067
  931MOL0     H28455  13.166  10.512   7.637 -0.7842 -0.7410  0.7276
  931MOL0     H28456  13.230  10.651   7.447 -0.5545 -0.7549 -2.7710
  931MOL0     H28457  13.091  10.726   7.528  1.2339  0.6493 -0.7262
  931MOL0     H28458  12.190  10.067   7.862 -1.2824 -1.6054 -0.0810
  931MOL0     H28459  11.995   9.948   7.781 -0.0334  1.1383  0.8107
  931MOL0     H28460  11.786   9.878   7.289  0.3559  1.7967  0.1864
  931MOL0     H28461  11.581   9.796   7.163 -1.9971 -0.5605  0.0850
  931MOL0     H28462  10.058   8.977   7.056  0.3366 -0.7356 -0.5978
  931MOL0     H28463   9.898   8.899   6.897 -0.0371  1.1191 -0.4510
  931MOL0     H28464   9.664   9.025   6.557  0.0882  0.6399  0.0869
  931MOL0     H28465   9.489   9.009   6.378  1.7792  0.4009  0.0701
  931MOL0     H28466   9.164   8.751   6.495  1.9451  2.0018  2.0133
  931MOL0     H28467   9.074   8.914   6.514  1.4622  2.2162 -0.9937
  931MOL0     H28468   9.013   8.897   6.276 -1.3050 -1.8100 -1.6515
  931MOL0     H28469   8.955   8.766   6.391  0.8649  0.1985  1.2321
  931MOL0     H28470   9.188   8.743   6.199  2.1625 -2.5798  1.4215
  931MOL0     H28471   9.140   8.625   6.311 -1.1596  2.0367  1.2147
  931MOL0     H28472   8.928   8.581   6.200 -1.1526 -0.7434 -0.7023
  931MOL0     H28473   9.055   8.564   6.083 -1.5805  0.1155 -1.3399
  931MOL0     H28474   8.825   8.821   5.871 -2.1699  0.5928  2.4341
  931MOL0     H28475   9.199   8.923   6.680 -0.1962  1.5466 -0.4770
  931MOL0     H28476   9.386   8.895   6.954 -0.9011 -1.2865 -1.6292
  931MOL0     H28477   9.399   9.074   6.936 -1.1576  1.0759 -2.1591
  931MOL0     H28478   9.248   8.993   6.897  0.3412  2.4702  0.4251
  932MOL0     O28479   1.152   9.014  10.786 -0.8348 -0.3262 -0.3254
  932MOL0     C28480   1.072   8.941  10.853 -0.0566  0.1493  0.4990
  932MOL0     O28481   1.088   8.812  10.876  0.0800  1.1664  0.0320
  932MOL0     C28482   1.196   8.749  10.820 -0.2075  0.1860 -0.6402
  932MOL0     C28483   1.323   8.802  10.844  0.1340 -0.1262  0.6930
  932MOL0     C28484   1.441   8.744  10.792  0.8156  0.0029  0.4468
  932MOL0     C28485   1.433   8.628  10.711 -0.0917 -0.1319  0.2622
  932MOL0     O28486   1.544   8.568  10.664  0.0515  0.2686  0.4479
  932MOL0     C28487   1.675   8.622  10.671 -0.8212 -0.1382  0.6959
  932MOL0     C28488   1.750   8.597  10.794 -0.9957 -0.4104 -0.2697
  932MOL0     C28489   1.885   8.681  10.804 -0.3133  0.2565 -0.1486
  932MOL0     C28490   1.867   8.829  10.833  0.2176  0.1897  0.0849
  932MOL0     C28491   1.996   8.895  10.879 -0.2828 -0.6295 -0.4164
  932MOL0     C28492   2.100   8.893  10.768 -0.7160 -0.2973 -0.0231
  932MOL0     C28493   2.235   8.955  10.804 -0.0367  0.4267  0.1307
  932MOL0     C28494   2.304   8.865  10.901  0.0862 -0.5854 -0.3419
  932MOL0     N28495   2.446   8.908  10.932 -0.3718  0.6206 -0.6900
  932MOL0     C28496   2.527   8.857  11.029 -0.4963 -0.3649 -0.5364
  932MOL0     C28497   2.656   8.893  11.007  0.1344  0.0167 -0.6765
  932MOL0     C28498   2.774   8.845  11.077  0.1170 -0.0671  0.2688
  932MOL0     C28499   2.868   8.973  11.076 -0.1459 -0.0719  0.5303
  932MOL0     C28500   3.006   8.925  11.142  0.5617 -0.0809 -0.2123
  932MOL0     C28501   3.093   9.051  11.148  0.1476 -0.0408  0.1707
  932MOL0     O28502   3.202   9.039  11.241 -0.3744 -0.5595 -0.4542
  932MOL0     C28503   3.312   8.963  11.212  0.1546 -0.4359 -0.0315
  932MOL0     C28504   3.410   8.976  11.308 -0.0734 -0.2832  0.6883
  932MOL0     C28505   3.523   8.892  11.294 -0.5159  0.1942  0.3359
  932MOL0     C28506   3.623   8.893  11.403  0.0064 -0.0658 -0.1465
  932MOL0     C28507   3.545   8.818  11.174 -0.3530  0.4713  0.6018
  932MOL0     C28508   3.668   8.735  11.146  0.2292 -0.2606 -1.1053
  932MOL0     O28509   3.780   8.764  11.218 -0.1938 -0.2198 -0.1477
  932MOL0     C28510   3.871   8.666  11.211  0.5575 -0.4947 -0.3664
  932MOL0     C28511   3.986   8.682  11.134  0.1348  0.9456  0.0093
  932MOL0     C28512   4.090   8.576  11.142 -1.0351 -0.3880 -0.7850
  932MOL0     C28513   4.070   8.462  11.216  0.5709 -0.4588 -0.5187
  932MOL0     O28514   4.169   8.373  11.229  0.7243 -0.5885  0.2990
  932MOL0     C28515   4.120   8.239  11.199 -0.0847  0.4917  0.0656
  932MOL0     C28516   4.217   8.127  11.226  0.5457  0.5846  0.0418
  932MOL0     C28517   4.334   8.131  11.124  0.2065 -0.5342  0.0730
  932MOL0     C28518   4.451   8.034  11.156  0.7170  0.0922  0.1288
  932MOL0     C28519   4.582   8.067  11.078 -0.4392 -0.3319  0.1513
  932MOL0     C28520   4.684   7.957  11.096 -0.4972 -0.1398 -0.6597
  932MOL0     C28521   4.817   7.973  11.017  0.6406 -0.9486 -0.6884
  932MOL0     C28522   4.803   7.933  10.868 -0.6366 -0.9384  1.4335
  932MOL0    Cl28523   4.965   7.958  10.780 -0.0617  0.1745  0.5095
  932MOL0     C28524   3.962   8.457  11.301 -0.1806  0.0197 -0.3767
  932MOL0     C28525   3.860   8.554  11.298  0.2382 -0.2981  0.1606
  932MOL0     O28526   3.660   8.660  11.055 -0.4184 -0.2426  0.3420
  932MOL0     C28527   3.446   8.822  11.069 -0.1149 -0.5904  0.0337
  932MOL0     C28528   3.328   8.900  11.090  0.7606 -0.3149  0.1175
  932MOL0     N28529   2.652   8.966  10.889 -0.7182 -0.1946  0.2883
  932MOL0     N28530   2.529   8.974  10.846 -0.6742 -0.3240  0.0703
  932MOL0     C28531   1.303   8.579  10.687  0.6553  0.0832  0.5120
  932MOL0     C28532   1.188   8.639  10.737  0.6314 -0.4630  0.7164
  932MOL0     C28533   0.945   9.003  10.903  0.0942 -0.2770  0.1079
  932MOL0     C28534   0.962   9.133  10.961  0.6416 -0.5869  0.6219
  932MOL0     C28535   0.848   9.197  11.012 -0.1781  0.0001  0.0761
  932MOL0     C28536   0.722   9.135  11.019 -0.2427 -0.6179 -0.0944
  932MOL0     O28537   0.620   9.211  11.072  0.3678 -0.6486  0.4050
  932MOL0     C28538   0.496   9.144  11.116  0.4322 -0.1176 -0.9592
  932MOL0     C28539   0.382   9.245  11.160 -0.0402  0.0997  0.4685
  932MOL0     C28540   0.350   9.351  11.045 -0.1796 -0.3956  1.0407
  932MOL0     C28541   0.257   9.458  11.099 -0.2746 -1.0641  0.2182
  932MOL0     C28542   0.132   9.407  11.162  0.3320 -0.6547 -0.7427
  932MOL0     C28543   0.034   9.350  11.210 -0.5262 -0.3918  0.2228
  932MOL0     C28544   0.705   9.009  10.968  0.5382 -0.7614  0.2357
  932MOL0     C28545   0.815   8.933  10.913  0.0465 -0.5167  0.0119
  932MOL0     C28546   0.788   8.812  10.840 -0.6997  0.6732  1.0264
  932MOL0     H28547   1.336   8.883  10.914 -0.5541  1.1611 -0.6042
  932MOL0     H28548   1.539   8.779  10.824  1.8017 -1.1608 -1.1648
  932MOL0     H28549   1.666   8.728  10.645  0.2151  0.7305  3.4745
  932MOL0     H28550   1.732   8.565  10.597 -0.4748  1.1549 -0.0546
  932MOL0     H28551   1.690   8.617  10.883 -0.0097 -2.6397  0.9773
  932MOL0     H28552   1.774   8.491  10.803  0.5965 -0.2138 -1.7132
  932MOL0     H28553   1.953   8.634  10.875 -0.0911  0.8276  0.0161
  932MOL0     H28554   1.942   8.665  10.712 -1.9888  2.2297 -1.6170
  932MOL0     H28555   1.837   8.880  10.741  1.6577  2.7691  0.9577
  932MOL0     H28556   1.783   8.842  10.901  0.5478  0.8289  0.3801
  932MOL0     H28557   2.030   8.837  10.966 -1.0553 -0.0896  0.2639
  932MOL0     H28558   1.985   8.999  10.911 -1.1789 -0.7781 -0.2009
  932MOL0     H28559   2.110   8.789  10.735  2.1171 -0.4045  0.8849
  932MOL0     H28560   2.056   8.932  10.676 -0.6497 -0.7005 -0.2282
  932MOL0     H28561   2.209   9.055  10.840  0.3113  1.3188 -1.9654
  932MOL0     H28562   2.293   8.956  10.711  0.9991  2.3458  0.7312
  932MOL0     H28563   2.244   8.866  10.993  0.2285 -1.0327 -0.2434
  932MOL0     H28564   2.312   8.765  10.859  1.9268 -0.9892  0.8467
  932MOL0     H28565   2.492   8.789  11.106 -1.6914  1.0981  0.2537
  932MOL0     H28566   2.803   8.758  11.018 -0.7983  0.3882 -0.8897
  932MOL0     H28567   2.747   8.816  11.179 -1.5011  1.6226  0.4037
  932MOL0     H28568   2.877   8.996  10.970 -0.6480 -2.8473 -0.1974
  932MOL0     H28569   2.828   9.064  11.121  3.1262  1.4221  0.6509
  932MOL0     H28570   3.001   8.882  11.243 -0.5360 -0.5435 -0.4506
  932MOL0     H28571   3.046   8.852  11.071 -0.3017  0.1046 -0.9041
  932MOL0     H28572   3.125   9.077  11.046 -1.3635  0.9540 -0.0935
  932MOL0     H28573   3.036   9.132  11.194 -0.9183 -1.7000  1.9048
  932MOL0     H28574   3.402   9.049  11.388 -1.3756  3.2422 -2.3726
  932MOL0     H28575   3.670   8.799  11.429  1.0489  0.3001 -0.6633
  932MOL0     H28576   3.583   8.935  11.496  3.8623 -0.0657  1.6943
  932MOL0     H28577   3.696   8.972  11.385 -2.1361  1.6550 -1.9423
  932MOL0     H28578   4.004   8.753  11.054  0.9497 -2.1871 -2.8198
  932MOL0     H28579   4.184   8.586  11.089  1.9088  3.9061  4.2713
  932MOL0     H28580   4.030   8.212  11.254  1.4550 -1.3446  1.8555
  932MOL0     H28581   4.094   8.237  11.093  0.4625 -2.7444 -0.0848
  932MOL0     H28582   4.256   8.133  11.328 -1.3556  0.1024  0.8316
  932MOL0     H28583   4.170   8.029  11.212  2.2132  0.0813 -2.9087
  932MOL0     H28584   4.382   8.228  11.118 -0.0264 -0.5116 -1.8755
  932MOL0     H28585   4.298   8.106  11.024 -0.1457 -0.9013  0.2858
  932MOL0     H28586   4.416   7.934  11.127  0.2580  0.3602 -0.2334
  932MOL0     H28587   4.462   8.038  11.265 -3.0244 -1.8188  0.7600
  932MOL0     H28588   4.562   8.068  10.970 -0.7319  1.6200  0.1803
  932MOL0     H28589   4.621   8.161  11.118 -0.1181 -0.0535 -0.8019
  932MOL0     H28590   4.640   7.860  11.069  1.1171 -1.5915  1.5447
  932MOL0     H28591   4.705   7.962  11.203 -0.0696  3.8538 -0.8052
  932MOL0     H28592   4.899   7.918  11.065 -0.8590 -1.2315  1.7314
  932MOL0     H28593   4.856   8.074  11.035  1.2483 -1.6966  2.9564
  932MOL0     H28594   4.743   8.009  10.817  1.4549  1.5750  2.4702
  932MOL0     H28595   4.769   7.832  10.846  0.2792 -1.1535  0.9360
  932MOL0     H28596   3.949   8.372  11.368  1.6607 -2.0900 -2.5217
  932MOL0     H28597   3.785   8.561  11.376  1.3507  1.6337  1.1256
  932MOL0     H28598   3.450   8.767  10.975  2.5691 -0.9227  0.2656
  932MOL0     H28599   3.266   8.913  11.001 -1.7335  4.7210  2.1638
  932MOL0     H28600   1.289   8.490  10.626 -5.4670 -0.2801  1.7428
  932MOL0     H28601   1.093   8.601  10.700  0.1032  2.6556 -1.5301
  932MOL0     H28602   1.065   9.167  10.951  1.7318 -3.7263 -0.0554
  932MOL0     H28603   0.856   9.297  11.055  1.0644  0.7506 -1.7881
  932MOL0     H28604   0.451   9.076  11.042 -2.4791  0.7666 -0.1575
  932MOL0     H28605   0.525   9.069  11.191  1.0222 -0.4005 -1.4638
  932MOL0     H28606   0.428   9.297  11.245  2.1208  0.7875 -1.0359
  932MOL0     H28607   0.288   9.201  11.193 -1.0241 -0.4256 -2.6660
  932MOL0     H28608   0.441   9.395  11.003 -1.3356  0.5753 -0.5491
  932MOL0     H28609   0.290   9.312  10.963  0.0008  2.2267 -0.4671
  932MOL0     H28610   0.228   9.529  11.022  1.0661 -0.1359  0.5370
  932MOL0     H28611   0.300   9.524  11.175  0.5020  1.1187 -1.9942
  932MOL0     H28612  -0.056   9.304  11.246 -1.1380  2.4812  2.7811
  932MOL0     H28613   0.610   8.960  10.949  1.3001 -2.2551  0.0995
  932MOL0     H28614   0.787   8.725  10.906 -1.4506 -0.0264  0.1283
  932MOL0     H28615   0.686   8.814  10.800 -0.2243  1.7933 -0.1861
  932MOL0     H28616   0.861   8.796  10.761  1.5114  2.7262  2.5088
  933MOL0     O28617   0.875   7.141   6.156 -0.0394  0.6367 -0.1464
  933MOL0     C28618   0.852   7.072   6.252 -0.9184  0.5311 -0.4371
  933MOL0     O28619   0.929   7.077   6.368 -0.3520 -0.5540  0.6217
  933MOL0     C28620   1.062   7.121   6.362  0.1821  0.4533  0.7153
  933MOL0     C28621   1.097   7.260   6.357  0.8245  0.2848  0.3556
  933MOL0     C28622   1.232   7.304   6.373 -0.0066 -0.2347 -0.2810
  933MOL0     C28623   1.332   7.210   6.405  0.2701 -0.8712  0.2485
  933MOL0     O28624   1.462   7.258   6.417  0.1154 -0.3005 -0.9935
  933MOL0     C28625   1.563   7.183   6.472  0.5498  0.0509  0.4443
  933MOL0     C28626   1.613   7.086   6.366 -0.2540 -0.0955 -0.4422
  933MOL0     C28627   1.763   7.078   6.357  0.2167  0.0124  0.8539
  933MOL0     C28628   1.826   7.034   6.495 -0.0283  0.3511  0.2214
  933MOL0     C28629   1.971   7.003   6.463 -1.1498 -0.2033  0.0526
  933MOL0     C28630   2.055   6.944   6.575 -0.5364 -0.8666  0.7077
  933MOL0     C28631   2.205   6.940   6.536  0.3089  0.2305 -1.0786
  933MOL0     C28632   2.275   6.913   6.669  0.4175 -0.3470  0.0281
  933MOL0     N28633   2.256   6.777   6.712 -0.2886 -0.5347  0.0561
  933MOL0     C28634   2.189   6.745   6.827 -0.2620 -0.0357  0.0823
  933MOL0     C28635   2.190   6.608   6.825 -0.9264 -0.0977  0.1919
  933MOL0     C28636   2.130   6.514   6.927  0.8025 -0.1155  0.0188
  933MOL0     C28637   2.210   6.494   7.050  0.3908 -0.6097 -0.0207
  933MOL0     C28638   2.159   6.377   7.129  0.0410 -0.1120 -0.0800
  933MOL0     C28639   2.249   6.369   7.259  0.1854  0.3901 -0.0440
  933MOL0     O28640   2.377   6.336   7.210 -0.6573  0.1292 -0.1238
  933MOL0     C28641   2.489   6.398   7.269  0.2008 -0.1917  0.0341
  933MOL0     C28642   2.608   6.403   7.196  0.4384 -0.0310  0.3046
  933MOL0     C28643   2.731   6.459   7.248  0.4067  0.9209  1.1614
  933MOL0     C28644   2.846   6.462   7.162 -0.9360  0.6253  0.2362
  933MOL0     C28645   2.715   6.511   7.372  0.0438 -0.1440  0.6023
  933MOL0     C28646   2.830   6.576   7.446  0.5489  0.9756 -0.5370
  933MOL0     O28647   2.962   6.537   7.422  0.1948  0.2514  0.9361
  933MOL0     C28648   3.059   6.604   7.498  0.7708 -0.4669 -0.0638
  933MOL0     C28649   3.129   6.707   7.439 -0.7521 -0.8121 -0.6766
  933MOL0     C28650   3.230   6.777   7.513 -0.1129  0.1460  0.1637
  933MOL0     C28651   3.271   6.736   7.641  1.4305  0.5698  0.6443
  933MOL0     O28652   3.363   6.802   7.715 -0.5067  0.0537 -0.2194
  933MOL0     C28653   3.470   6.875   7.652  0.3558  0.0592  0.0385
  933MOL0     C28654   3.570   6.778   7.590  0.2591  0.5375  0.4332
  933MOL0     C28655   3.630   6.665   7.682 -0.4505 -0.6847 -0.7195
  933MOL0     C28656   3.677   6.712   7.822  0.2732 -0.1295 -0.0010
  933MOL0     C28657   3.788   6.817   7.816 -0.5380  0.0954 -0.2861
  933MOL0     C28658   3.852   6.843   7.955  1.6712  0.6983  0.7625
  933MOL0     C28659   3.966   6.948   7.946  0.5624  0.3356  0.0249
  933MOL0     C28660   4.090   6.886   7.877  0.3687 -0.0898  0.2603
  933MOL0    Cl28661   4.219   7.009   7.867 -0.1243  0.2540  0.3122
  933MOL0     C28662   3.195   6.626   7.697 -1.0535 -0.2318  0.2105
  933MOL0     C28663   3.097   6.564   7.629 -0.1972  0.4409  1.0569
  933MOL0     O28664   2.801   6.679   7.502  0.0688  0.1294  0.0911
  933MOL0     C28665   2.590   6.518   7.442  0.2404 -0.4372  0.3053
  933MOL0     C28666   2.481   6.457   7.395  0.3427  0.2254  0.2388
  933MOL0     N28667   2.256   6.568   6.713 -0.4255  0.6081 -0.1517
  933MOL0     N28668   2.296   6.665   6.643 -0.1138 -0.8235  0.0747
  933MOL0     C28669   1.293   7.079   6.412 -0.3497  0.2810  0.3935
  933MOL0     C28670   1.164   7.035   6.395  0.3993  0.0442 -0.0856
  933MOL0     C28671   0.730   6.992   6.259  0.2459  0.5265  0.0401
  933MOL0     C28672   0.655   6.982   6.385  0.4862 -0.4863 -0.9844
  933MOL0     C28673   0.528   6.911   6.394 -0.6060  0.1118  0.8317
  933MOL0     C28674   0.472   6.845   6.281 -0.0479 -0.8435  0.1172
  933MOL0     O28675   0.352   6.772   6.295 -0.1702  0.3906  0.4315
  933MOL0     C28676   0.277   6.756   6.170 -0.6314  0.4303 -0.4863
  933MOL0     C28677   0.213   6.896   6.127  0.4618 -0.6897 -0.3736
  933MOL0     C28678   0.146   6.897   5.990 -0.3659 -0.8670 -0.2911
  933MOL0     C28679   0.238   6.883   5.865 -0.2929  0.9215  0.1996
  933MOL0     C28680   0.183   6.933   5.739 -0.1171 -0.4796 -0.2838
  933MOL0     C28681   0.123   6.964   5.639 -0.1374  0.3518  0.1692
  933MOL0     C28682   0.552   6.857   6.165  0.8488 -0.5164  0.4756
  933MOL0     C28683   0.672   6.923   6.146 -0.1140 -0.7024  0.5095
  933MOL0     C28684   0.737   6.919   6.002  0.1365 -0.8969 -0.5200
  933MOL0     H28685   1.023   7.337   6.338 -1.4437 -1.5289  1.4780
  933MOL0     H28686   1.265   7.407   6.360  0.7662 -0.5130 -0.5769
  933MOL0     H28687   1.512   7.141   6.559  0.6340  1.5003  1.2192
  933MOL0     H28688   1.645   7.249   6.501 -0.5789  1.9210 -0.4160
  933MOL0     H28689   1.572   6.987   6.387  1.5568 -0.5574  1.1809
  933MOL0     H28690   1.577   7.119   6.269 -0.8887 -1.0662 -0.5519
  933MOL0     H28691   1.783   6.999   6.284 -2.3565  1.2239 -1.3392
  933MOL0     H28692   1.808   7.173   6.327  1.6115 -0.4734  1.3396
  933MOL0     H28693   1.821   7.110   6.573 -2.6963  0.9460 -0.4210
  933MOL0     H28694   1.772   6.947   6.533  1.0287 -0.0028  0.9451
  933MOL0     H28695   2.023   7.095   6.435  1.1400 -0.7810  2.0746
  933MOL0     H28696   1.961   6.935   6.379 -0.5822  1.4846 -1.4470
  933MOL0     H28697   2.038   7.000   6.667  1.0124  1.8906 -0.5766
  933MOL0     H28698   2.013   6.844   6.593 -1.3766 -0.3412  1.8445
  933MOL0     H28699   2.237   7.039   6.499  1.1083  0.8758  1.1716
  933MOL0     H28700   2.232   6.857   6.470  0.6739 -0.5099 -0.0214
  933MOL0     H28701   2.382   6.932   6.653  0.6959 -1.4330  0.5326
  933MOL0     H28702   2.249   6.982   6.749 -0.4534 -0.4303 -0.1762
  933MOL0     H28703   2.151   6.811   6.905 -0.4778 -0.5539  0.4234
  933MOL0     H28704   2.105   6.422   6.873 -2.8832  1.1532 -0.7565
  933MOL0     H28705   2.032   6.558   6.951 -0.4016 -2.8337  0.5152
  933MOL0     H28706   2.316   6.489   7.024  0.7598  1.7118  0.7587
  933MOL0     H28707   2.189   6.588   7.103 -0.3992 -0.8249  0.0624
  933MOL0     H28708   2.055   6.402   7.152  0.2796  2.2743 -1.2577
  933MOL0     H28709   2.155   6.287   7.067 -1.0447 -1.2709  1.5688
  933MOL0     H28710   2.238   6.448   7.334 -1.3117  0.4376 -0.2899
  933MOL0     H28711   2.218   6.277   7.310  1.9785  0.2919  0.9619
  933MOL0     H28712   2.607   6.373   7.092 -0.3502  0.3764  0.1854
  933MOL0     H28713   2.895   6.365   7.175 -0.3182  0.8300 -0.4518
  933MOL0     H28714   2.907   6.549   7.188  2.2316 -0.8002 -1.8476
  933MOL0     H28715   2.821   6.466   7.055  1.5728  0.5793 -0.4062
  933MOL0     H28716   3.112   6.734   7.336  0.4884  0.1491 -0.6599
  933MOL0     H28717   3.272   6.864   7.465 -0.1504 -0.9799 -2.0601
  933MOL0     H28718   3.432   6.951   7.583 -0.3697 -1.0604 -0.8265
  933MOL0     H28719   3.522   6.938   7.725  0.6185  0.1284 -0.2057
  933MOL0     H28720   3.518   6.728   7.509  2.1054 -0.6429 -0.0891
  933MOL0     H28721   3.646   6.842   7.544  0.9632  1.3567  2.5908
  933MOL0     H28722   3.707   6.609   7.629  1.6786 -0.3309  1.7945
  933MOL0     H28723   3.554   6.590   7.706 -0.1249 -0.3457  1.6760
  933MOL0     H28724   3.709   6.618   7.867 -3.5468 -2.8496 -2.3967
  933MOL0     H28725   3.583   6.740   7.871 -0.8121 -0.8735 -1.5644
  933MOL0     H28726   3.861   6.770   7.750 -3.3530 -1.3417 -2.6264
  933MOL0     H28727   3.758   6.909   7.765  0.4508  0.1096 -0.8603
  933MOL0     H28728   3.875   6.745   7.997  0.1938 -1.6878 -3.4600
  933MOL0     H28729   3.768   6.880   8.014  0.1782  0.9579 -1.4061
  933MOL0     H28730   3.999   6.985   8.043  2.6018 -2.4303  0.5114
  933MOL0     H28731   3.926   7.037   7.897 -1.6722  0.0251  1.1700
  933MOL0     H28732   4.061   6.842   7.781 -3.5924 -0.3064  1.3835
  933MOL0     H28733   4.134   6.809   7.942 -1.3882 -1.6273 -0.2953
  933MOL0     H28734   3.222   6.603   7.800  1.1317 -1.2583 -0.5203
  933MOL0     H28735   3.048   6.472   7.658 -0.7778  0.9416  1.6675
  933MOL0     H28736   2.578   6.552   7.544  0.6022  2.6766 -0.5775
  933MOL0     H28737   2.392   6.451   7.457 -1.0554  2.4233 -1.3990
  933MOL0     H28738   1.357   7.001   6.452 -0.3548  0.9226  1.7005
  933MOL0     H28739   1.138   6.930   6.411  1.5022 -0.1267  0.6676
  933MOL0     H28740   0.683   7.045   6.469 -3.4920 -1.1465  1.0741
  933MOL0     H28741   0.476   6.901   6.488 -1.9179  0.7214  0.2026
  933MOL0     H28742   0.338   6.697   6.101 -1.2954 -0.4197 -0.3772
  933MOL0     H28743   0.192   6.687   6.176  0.6691 -1.2049 -0.1503
  933MOL0     H28744   0.291   6.973   6.128  0.5502 -0.7019 -2.3470
  933MOL0     H28745   0.136   6.912   6.203  0.3017 -0.2188 -0.6294
  933MOL0     H28746   0.074   6.815   5.996  0.1774 -1.2295  1.7185
  933MOL0     H28747   0.089   6.991   5.992  1.7834  0.5051  1.0231
  933MOL0     H28748   0.244   6.776   5.845 -1.5037  0.9440 -0.3714
  933MOL0     H28749   0.338   6.917   5.893 -1.7294  4.1336  1.9551
  933MOL0     H28750   0.068   6.978   5.548 -0.7629  0.6203  0.5823
  933MOL0     H28751   0.515   6.808   6.076 -1.4998 -0.9359  1.6017
  933MOL0     H28752   0.811   6.838   6.004 -1.7270 -2.6734  0.0179
  933MOL0     H28753   0.662   6.897   5.926 -1.4784 -0.5587  0.9242
  933MOL0     H28754   0.779   7.017   5.979  1.2916  0.0289  4.4451
  934MOL0     O28755   4.332   4.459   3.856 -0.2691  0.0095 -0.2052
  934MOL0     C28756   4.248   4.547   3.863  0.1899 -0.3405  0.1927
  934MOL0     O28757   4.273   4.686   3.867  0.4416  0.9358 -0.6377
  934MOL0     C28758   4.407   4.738   3.867 -0.2862  0.4817  0.5101
  934MOL0     C28759   4.439   4.847   3.790  0.1159 -0.3171  0.0231
  934MOL0     C28760   4.558   4.915   3.801 -0.2210  0.2043 -0.3903
  934MOL0     C28761   4.666   4.860   3.877 -0.1275  0.6387 -0.0978
  934MOL0     O28762   4.791   4.909   3.880 -0.2992 -0.3245 -0.8050
  934MOL0     C28763   4.802   5.043   3.830  0.7798 -0.5360  0.5002
  934MOL0     C28764   4.938   5.108   3.865  0.0263  0.0603  1.3567
  934MOL0     C28765   4.943   5.253   3.809 -0.2721 -0.6005 -0.2317
  934MOL0     C28766   5.015   5.350   3.906  0.0279  0.3544 -0.2108
  934MOL0     C28767   4.944   5.481   3.938 -0.2344 -0.3413 -0.5644
  934MOL0     C28768   4.975   5.576   3.827 -0.5778  0.0972 -0.0433
  934MOL0     C28769   4.912   5.706   3.867 -0.7317  0.2841  0.0416
  934MOL0     C28770   4.931   5.815   3.755  0.0151 -0.7121  0.7538
  934MOL0     N28771   5.074   5.814   3.703  0.0265  0.1498 -0.2353
  934MOL0     C28772   5.149   5.923   3.735 -1.1578 -0.9467  0.3301
  934MOL0     C28773   5.256   5.910   3.645  0.1565  0.3390 -0.1101
  934MOL0     C28774   5.384   5.992   3.642  0.5830  0.5067  0.6763
  934MOL0     C28775   5.418   6.043   3.504 -0.5671 -0.1333  0.4425
  934MOL0     C28776   5.557   6.108   3.499 -0.7512 -0.6149  0.3319
  934MOL0     C28777   5.583   6.184   3.369 -1.0875 -0.6729 -0.6285
  934MOL0     O28778   5.700   6.265   3.380  0.3256 -0.0251  0.0595
  934MOL0     C28779   5.822   6.206   3.347  0.2147  0.1631  0.2722
  934MOL0     C28780   5.836   6.073   3.306 -0.9197  0.0379  0.7003
  934MOL0     C28781   5.966   6.017   3.271  0.7606 -0.1862 -0.8330
  934MOL0     C28782   5.976   5.879   3.215  0.4076  1.2436  0.5055
  934MOL0     C28783   6.083   6.102   3.269 -0.0126  0.4186 -1.6837
  934MOL0     C28784   6.213   6.063   3.216  0.2832 -0.7818  0.1505
  934MOL0     O28785   6.315   6.154   3.235 -0.1498  0.4437 -0.7081
  934MOL0     C28786   6.444   6.103   3.198  0.6055 -0.5169 -0.9721
  934MOL0     C28787   6.538   6.058   3.298 -0.1872  0.1957 -0.4225
  934MOL0     C28788   6.672   6.025   3.265  0.8773 -0.4585 -0.0453
  934MOL0     C28789   6.706   6.037   3.130  0.4072  0.1480  0.3385
  934MOL0     O28790   6.839   6.017   3.112 -0.4568 -0.9849 -0.3410
  934MOL0     C28791   6.891   6.027   2.977  0.1036  0.2233  0.0166
  934MOL0     C28792   6.860   5.893   2.904 -0.1975  0.0215 -0.4736
  934MOL0     C28793   6.978   5.788   2.906 -0.0711  1.0889 -1.1508
  934MOL0     C28794   7.078   5.813   2.790  0.5295 -0.5571 -0.3229
  934MOL0     C28795   7.204   5.724   2.820 -0.1765  0.4148 -0.3088
  934MOL0     C28796   7.308   5.720   2.707  0.2192  0.4880  0.6943
  934MOL0     C28797   7.445   5.664   2.752  0.4278 -0.8071  0.4986
  934MOL0     C28798   7.425   5.538   2.836 -0.0696 -0.1854  0.0396
  934MOL0    Cl28799   7.585   5.449   2.818 -0.2008 -0.2492 -0.0762
  934MOL0     C28800   6.621   6.073   3.032 -0.1823 -0.0325 -0.8305
  934MOL0     C28801   6.485   6.092   3.066  0.1555  0.0617  0.0426
  934MOL0     O28802   6.230   5.949   3.169 -0.0902 -1.1928  0.6207
  934MOL0     C28803   6.062   6.231   3.310  0.0155  0.1266  0.4268
  934MOL0     C28804   5.939   6.289   3.349 -0.3348  0.5973 -0.4033
  934MOL0     N28805   5.233   5.801   3.555 -0.4587  0.4380 -0.1700
  934MOL0     N28806   5.131   5.740   3.601  0.8465  0.0783  0.1055
  934MOL0     C28807   4.632   4.754   3.956  0.0601  0.2129  0.2842
  934MOL0     C28808   4.504   4.693   3.949 -0.3816 -0.7561 -0.2084
  934MOL0     C28809   4.103   4.507   3.867 -0.9260  0.1818  0.5106
  934MOL0     C28810   4.007   4.586   3.797  0.1410 -0.1126  0.2136
  934MOL0     C28811   3.873   4.561   3.805  0.3628  0.4695  0.2705
  934MOL0     C28812   3.830   4.451   3.883  0.0921 -0.0279 -0.6465
  934MOL0     O28813   3.703   4.416   3.902  0.0300  1.3685  0.4844
  934MOL0     C28814   3.605   4.520   3.913 -0.4733 -0.7274  0.5525
  934MOL0     C28815   3.490   4.474   3.996  0.0723 -0.7538 -0.3019
  934MOL0     C28816   3.376   4.408   3.918  0.2793 -0.3873  0.1664
  934MOL0     C28817   3.266   4.368   4.021  0.4691 -0.1872  0.8171
  934MOL0     C28818   3.157   4.301   3.954 -0.0962 -0.2877  0.3846
  934MOL0     C28819   3.058   4.252   3.909  0.4772  0.5466 -0.9844
  934MOL0     C28820   3.921   4.375   3.941 -0.0631  0.7117 -0.0362
  934MOL0     C28821   4.057   4.393   3.938 -0.1864  0.5090  0.0913
  934MOL0     C28822   4.151   4.301   4.019  0.1657  0.2676  0.1873
  934MOL0     H28823   4.369   4.892   3.721  1.2106  0.5546 -0.5489
  934MOL0     H28824   4.575   5.002   3.738  1.6607 -0.1587 -0.4472
  934MOL0     H28825   4.725   5.104   3.878 -0.5706  1.3568 -3.5775
  934MOL0     H28826   4.785   5.052   3.722 -1.5921 -1.6292  0.7222
  934MOL0     H28827   4.946   5.110   3.974  0.7335  1.4723  1.2910
  934MOL0     H28828   5.021   5.054   3.818 -0.7882 -0.7374  0.7971
  934MOL0     H28829   4.994   5.253   3.713 -0.8550 -2.6196 -0.5890
  934MOL0     H28830   4.845   5.300   3.796  1.1574  2.0758 -2.1243
  934MOL0     H28831   5.052   5.296   3.994 -1.3750  0.3792  0.4275
  934MOL0     H28832   5.115   5.371   3.867  0.7148 -1.9627  0.1694
  934MOL0     H28833   4.983   5.522   4.031 -1.2896 -0.1819 -0.1760
  934MOL0     H28834   4.836   5.468   3.944 -0.2613  0.2940  0.6087
  934MOL0     H28835   5.083   5.588   3.813 -1.1504  2.2077 -4.5898
  934MOL0     H28836   4.938   5.536   3.732 -1.0841 -3.1138  1.3588
  934MOL0     H28837   4.954   5.751   3.957 -0.2174  2.8476 -1.3891
  934MOL0     H28838   4.807   5.684   3.891 -0.5288  1.1323  1.8752
  934MOL0     H28839   4.864   5.778   3.677 -1.8323  1.2469  1.3236
  934MOL0     H28840   4.896   5.912   3.791  1.3951 -0.1598  0.6900
  934MOL0     H28841   5.131   6.008   3.800 -1.9540 -0.6903 -0.2104
  934MOL0     H28842   5.461   5.931   3.689 -1.1714  0.0761  3.1922
  934MOL0     H28843   5.372   6.076   3.710  0.7772 -0.3488  1.7935
  934MOL0     H28844   5.406   5.960   3.434  1.6852  0.6769 -0.9933
  934MOL0     H28845   5.341   6.117   3.481 -0.6035 -0.3965 -0.3115
  934MOL0     H28846   5.557   6.185   3.577  0.9171  0.2219 -0.4384
  934MOL0     H28847   5.632   6.033   3.526  0.1105 -0.0097 -0.3060
  934MOL0     H28848   5.583   6.117   3.283  0.4972 -2.6582  0.7957
  934MOL0     H28849   5.492   6.240   3.345  0.5816  2.0463 -1.1107
  934MOL0     H28850   5.749   6.009   3.293 -1.4507  0.7023  0.9529
  934MOL0     H28851   6.050   5.819   3.270  0.7380 -0.9086 -2.0757
  934MOL0     H28852   6.006   5.869   3.111  0.4583  3.3693  0.2826
  934MOL0     H28853   5.878   5.830   3.221  1.4618 -1.2995 -1.2882
  934MOL0     H28854   6.519   6.075   3.403  1.2461  3.6996 -0.5964
  934MOL0     H28855   6.747   6.019   3.343 -0.1886 -1.0737  0.9661
  934MOL0     H28856   6.853   6.117   2.927 -1.0258 -0.7255 -0.9088
  934MOL0     H28857   6.997   6.054   2.974  0.4115 -0.9674 -0.2830
  934MOL0     H28858   6.761   5.858   2.934  0.9902 -2.7953  0.4390
  934MOL0     H28859   6.837   5.918   2.800  1.0050  2.6825 -0.1904
  934MOL0     H28860   6.942   5.686   2.891 -2.3569  1.6778 -0.0448
  934MOL0     H28861   7.040   5.805   2.994 -1.2109  3.7203 -0.7686
  934MOL0     H28862   7.099   5.920   2.780 -0.0067 -0.5124 -1.0663
  934MOL0     H28863   7.028   5.782   2.697 -3.9445 -1.1049  1.9843
  934MOL0     H28864   7.251   5.751   2.915  0.2597  1.3329 -0.7775
  934MOL0     H28865   7.180   5.619   2.840  2.7650 -0.2592  0.1728
  934MOL0     H28866   7.330   5.819   2.666  3.9047 -1.4293 -2.7551
  934MOL0     H28867   7.270   5.672   2.616  0.0601  0.9371  0.5231
  934MOL0     H28868   7.511   5.731   2.806  0.8817 -0.3342 -0.6121
  934MOL0     H28869   7.503   5.648   2.660  0.6161  4.2088 -0.5387
  934MOL0     H28870   7.341   5.471   2.814  0.0244  0.6541 -3.3412
  934MOL0     H28871   7.406   5.566   2.940 -1.3626 -0.7579 -0.0287
  934MOL0     H28872   6.639   6.069   2.925  0.1779  2.7397 -0.9399
  934MOL0     H28873   6.414   6.114   2.988 -0.4695 -1.9685 -0.0292
  934MOL0     H28874   6.142   6.304   3.317  0.4231 -0.1614 -0.9581
  934MOL0     H28875   5.943   6.394   3.376  1.6691 -0.0500  2.3515
  934MOL0     H28876   4.704   4.719   4.030  3.2303  2.9962 -1.2052
  934MOL0     H28877   4.473   4.621   4.024 -1.4030  0.3616  0.4928
  934MOL0     H28878   4.036   4.673   3.739 -0.3951 -0.4425 -0.5725
  934MOL0     H28879   3.800   4.619   3.750 -0.2183 -0.6897 -0.2074
  934MOL0     H28880   3.649   4.607   3.963 -1.5693 -1.3135  2.6425
  934MOL0     H28881   3.574   4.550   3.813  0.4405 -1.4240  0.0520
  934MOL0     H28882   3.468   4.565   4.053  0.2908 -0.5150 -0.5893
  934MOL0     H28883   3.515   4.405   4.076  0.0743  0.0241  0.3878
  934MOL0     H28884   3.336   4.464   3.833 -1.9239 -0.3531  1.1421
  934MOL0     H28885   3.422   4.316   3.881 -0.5377 -1.6219  2.0349
  934MOL0     H28886   3.222   4.445   4.086  2.6935  1.5497  0.3693
  934MOL0     H28887   3.321   4.305   4.092  3.2475 -0.0791 -1.1277
  934MOL0     H28888   2.963   4.206   3.888  1.9785 -3.7364  0.5847
  934MOL0     H28889   3.896   4.289   4.003  3.3962  0.3546  1.0867
  934MOL0     H28890   4.212   4.242   3.951 -2.0714 -0.1929 -1.5415
  934MOL0     H28891   4.208   4.367   4.085 -1.4237 -0.4876  2.4445
  934MOL0     H28892   4.094   4.238   4.088  0.4897 -2.5895 -1.9735
  935MOL0     O28893   5.728   0.324   7.768  0.3286  0.2699  0.1468
  935MOL0     C28894   5.727   0.432   7.710  0.6691  0.0349  0.2714
  935MOL0     O28895   5.822   0.523   7.722  1.1340 -0.5567 -0.1391
  935MOL0     C28896   5.950   0.486   7.756 -0.1212 -0.3375 -0.5613
  935MOL0     C28897   5.986   0.430   7.879 -0.6125 -0.2576  0.6596
  935MOL0     C28898   6.116   0.396   7.902 -0.2662  0.5117  0.7708
  935MOL0     C28899   6.214   0.423   7.800  0.0566  0.4597 -0.0821
  935MOL0     O28900   6.350   0.392   7.817  0.7988 -0.6098  0.3295
  935MOL0     C28901   6.385   0.338   7.942  0.6438 -1.0512 -0.2577
  935MOL0     C28902   6.536   0.330   7.941 -1.2480  0.0899 -0.6539
  935MOL0     C28903   6.595   0.230   8.039 -0.3360  0.6734  0.0447
  935MOL0     C28904   6.748   0.253   8.046  0.0942 -0.1259  0.4603
  935MOL0     C28905   6.818   0.156   8.151 -0.2313 -0.4102  0.6663
  935MOL0     C28906   6.962   0.200   8.192  0.2728 -0.9624  0.5989
  935MOL0     C28907   7.044   0.084   8.240 -0.5089  0.5494  0.0934
  935MOL0     C28908   7.192   0.111   8.271  0.0312 -0.1180 -0.8092
  935MOL0     N28909   7.278   0.138   8.151 -0.0912  0.2573 -0.4119
  935MOL0     C28910   7.315   0.051   8.051  0.4150  0.2584  0.5705
  935MOL0     C28911   7.396   0.119   7.967  0.0296 -0.6753 -0.1777
  935MOL0     C28912   7.472   0.056   7.859 -0.2106 -0.1654  0.1338
  935MOL0     C28913   7.628   0.089   7.858  1.6919 -0.0399 -0.1292
  935MOL0     C28914   7.697   0.041   7.978 -0.5318  0.1966 -0.1480
  935MOL0     C28915   7.843   0.080   7.993  1.1357  0.1962  0.7473
  935MOL0     O28916   7.919  -0.028   8.050 -0.6971 -0.2981 -0.2013
  935MOL0     C28917   8.055  -0.006   8.037  0.2466  0.8614  0.5919
  935MOL0     C28918   8.129  -0.082   7.949 -0.2297 -0.3380  0.4042
  935MOL0     C28919   8.262  -0.096   7.951 -0.2251  1.1215 -0.0138
  935MOL0     C28920   8.330  -0.197   7.859  0.0973 -0.4218 -0.5425
  935MOL0     C28921   8.338  -0.017   8.040 -1.0817 -0.3436 -0.5249
  935MOL0     C28922   8.498  -0.019   8.051  0.5631  0.5645 -0.1731
  935MOL0     O28923   8.566  -0.124   8.000 -0.3642  0.6999  0.1029
  935MOL0     C28924   8.695  -0.152   8.053  0.1198 -0.3592  0.3062
  935MOL0     C28925   8.699  -0.214   8.174 -0.3516  0.1368 -0.1210
  935MOL0     C28926   8.826  -0.224   8.240  0.3300  0.7755 -0.3219
  935MOL0     C28927   8.942  -0.187   8.180  0.6028  0.0559  0.9135
  935MOL0     O28928   9.057  -0.214   8.250 -0.2785  0.3548  0.2819
  935MOL0     C28929   9.149  -0.108   8.226 -0.4088  0.3324 -0.5489
  935MOL0     C28930   9.258  -0.101   8.325  0.3002  0.4135 -0.2245
  935MOL0     C28931   9.351  -0.222   8.291  0.0998 -0.2757 -0.4225
  935MOL0     C28932   9.484  -0.229   8.358 -0.0559 -0.1822 -0.9883
  935MOL0     C28933   9.577  -0.342   8.301 -0.3638 -0.0011 -0.1856
  935MOL0     C28934   9.517  -0.483   8.288 -0.8818 -0.0291 -0.0901
  935MOL0     C28935   9.606  -0.581   8.215  0.0382  0.0548 -0.1561
  935MOL0     C28936   9.744  -0.592   8.270 -0.9049 -0.3532 -0.4461
  935MOL0    Cl28937   9.739  -0.659   8.429  0.4758 -0.1058 -0.9470
  935MOL0     C28938   8.935  -0.130   8.052  0.2934 -0.2969  0.0818
  935MOL0     C28939   8.808  -0.108   7.986 -1.0470  0.3494 -0.6663
  935MOL0     O28940   8.549   0.077   8.110  1.3387 -0.5797  0.2804
  935MOL0     C28941   8.269   0.069   8.126 -0.4867  0.2026 -0.7969
  935MOL0     C28942   8.129   0.065   8.125 -0.0422 -1.0259 -0.4521
  935MOL0     N28943   7.405   0.246   8.018 -0.4056  0.0587  0.1181
  935MOL0     N28944   7.340   0.256   8.123  0.6232  0.2596 -0.0826
  935MOL0     C28945   6.184   0.505   7.690 -0.3927  0.5791 -0.0722
  935MOL0     C28946   6.049   0.523   7.662 -1.0218 -1.0833 -0.5080
  935MOL0     C28947   5.604   0.484   7.641  0.0375  0.6638  0.4685
  935MOL0     C28948   5.631   0.559   7.524  0.3906  0.5618  0.2917
  935MOL0     C28949   5.528   0.570   7.432 -0.4656  0.9656  0.7217
  935MOL0     C28950   5.397   0.534   7.451  0.2030 -0.3151 -0.0033
  935MOL0     O28951   5.302   0.545   7.344  0.1640  0.4025 -0.1153
  935MOL0     C28952   5.165   0.571   7.371 -0.1388  0.2091  0.7442
  935MOL0     C28953   5.080   0.567   7.234  0.3017  0.5870  0.1521
  935MOL0     C28954   4.926   0.559   7.267 -0.3827 -0.2777  0.4084
  935MOL0     C28955   4.834   0.570   7.145  0.5591 -0.4543  0.2701
  935MOL0     C28956   4.855   0.679   7.053 -0.5253 -0.4160 -0.1000
  935MOL0     C28957   4.859   0.769   6.976  0.6163 -0.3616  0.6870
  935MOL0     C28958   5.369   0.482   7.581 -0.5034  0.7306  0.4430
  935MOL0     C28959   5.470   0.450   7.670 -0.2758 -0.3720  1.1645
  935MOL0     C28960   5.443   0.388   7.810  0.5631  0.4546  0.1723
  935MOL0     H28961   5.907   0.409   7.951  0.9822  3.0581  3.7513
  935MOL0     H28962   6.129   0.357   8.003 -1.0136 -3.2521 -0.4346
  935MOL0     H28963   6.341   0.239   7.956 -0.4599 -0.4671  0.6135
  935MOL0     H28964   6.347   0.400   8.025  0.9662  1.4214 -1.8576
  935MOL0     H28965   6.573   0.303   7.842 -2.5394  0.9328 -1.3971
  935MOL0     H28966   6.575   0.429   7.968 -2.3108  0.1034  0.9593
  935MOL0     H28967   6.553   0.248   8.138  1.7549  0.2992  1.0525
  935MOL0     H28968   6.563   0.127   8.020  1.5796  0.0874 -0.2869
  935MOL0     H28969   6.794   0.248   7.947 -0.4083  2.3601  0.0572
  935MOL0     H28970   6.762   0.356   8.081 -1.9816  1.2345 -2.3765
  935MOL0     H28971   6.823   0.061   8.097 -1.3220 -0.7781  1.1777
  935MOL0     H28972   6.750   0.139   8.235 -0.5778  1.4582  0.7992
  935MOL0     H28973   7.019   0.247   8.111 -1.4060  1.1537  0.5453
  935MOL0     H28974   6.955   0.285   8.261 -1.2293  0.3844 -1.1036
  935MOL0     H28975   7.035   0.009   8.161 -2.6587 -0.8669  1.5759
  935MOL0     H28976   7.002   0.048   8.335  0.4288 -3.7052 -0.9232
  935MOL0     H28977   7.188   0.196   8.341 -0.0853  0.7574 -1.8486
  935MOL0     H28978   7.224   0.024   8.329  3.0087  0.4564 -1.4216
  935MOL0     H28979   7.298  -0.056   8.045  3.2835 -0.2403  0.0426
  935MOL0     H28980   7.433   0.102   7.768  1.8361  2.9637  0.6685
  935MOL0     H28981   7.469  -0.053   7.861  0.2910 -0.4005 -3.9833
  935MOL0     H28982   7.675   0.055   7.766 -0.2855 -1.5689 -0.6376
  935MOL0     H28983   7.645   0.197   7.845  0.9859 -0.0497 -1.2521
  935MOL0     H28984   7.641   0.066   8.069 -2.7772  1.7992 -1.8707
  935MOL0     H28985   7.697  -0.068   7.966 -2.9681  0.2309 -0.9856
  935MOL0     H28986   7.884   0.086   7.892 -2.8353 -1.2400 -1.1705
  935MOL0     H28987   7.859   0.171   8.052  2.1053  1.1892 -0.9745
  935MOL0     H28988   8.077  -0.144   7.876  2.0673 -1.1529 -0.6148
  935MOL0     H28989   8.406  -0.139   7.807  0.4942  0.0555  0.5449
  935MOL0     H28990   8.262  -0.244   7.788 -0.2628 -1.7524  0.6225
  935MOL0     H28991   8.382  -0.276   7.916  1.1884  1.2246  0.8443
  935MOL0     H28992   8.613  -0.262   8.220 -0.8614 -0.3084 -1.4859
  935MOL0     H28993   8.828  -0.272   8.337 -1.3785  1.4534  0.0846
  935MOL0     H28994   9.174  -0.117   8.120 -2.1170 -0.7746 -0.8989
  935MOL0     H28995   9.089  -0.017   8.235  0.2440  0.6660  0.6708
  935MOL0     H28996   9.309  -0.006   8.306 -1.8005  1.1185 -3.0024
  935MOL0     H28997   9.219  -0.101   8.427  2.0128  0.3490  0.4747
  935MOL0     H28998   9.365  -0.225   8.182 -1.7414 -2.9312 -0.6899
  935MOL0     H28999   9.302  -0.318   8.309 -0.2789  0.1222  0.7515
  935MOL0     H29000   9.480  -0.245   8.466  5.5064  1.8885 -0.0992
  935MOL0     H29001   9.538  -0.134   8.348  0.0606 -0.2026 -0.5965
  935MOL0     H29002   9.602  -0.291   8.207 -2.8965  3.4319  0.7983
  935MOL0     H29003   9.659  -0.347   8.373 -0.9702  0.8984  0.5904
  935MOL0     H29004   9.425  -0.473   8.230  0.3753  2.1033 -1.8775
  935MOL0     H29005   9.490  -0.523   8.386  2.2508 -0.6585  0.6275
  935MOL0     H29006   9.616  -0.539   8.114 -0.6495 -0.1969 -0.3390
  935MOL0     H29007   9.552  -0.675   8.201 -1.9418  0.9576  0.9319
  935MOL0     H29008   9.807  -0.503   8.260 -1.6699  0.1510 -0.9295
  935MOL0     H29009   9.801  -0.659   8.205 -0.0761  1.4025 -1.5924
  935MOL0     H29010   9.023  -0.106   7.992  0.0057 -1.5436 -0.8906
  935MOL0     H29011   8.797  -0.063   7.888 -0.3007 -0.5659 -1.1908
  935MOL0     H29012   8.320   0.136   8.196  1.9849 -1.3465 -0.9954
  935MOL0     H29013   8.066   0.126   8.189  0.4232  0.5580 -1.4338
  935MOL0     H29014   6.259   0.532   7.616  0.6498 -0.5536  0.5289
  935MOL0     H29015   6.019   0.553   7.562 -1.9764  0.8074  0.3026
  935MOL0     H29016   5.728   0.602   7.500  1.3127 -1.6705 -0.2553
  935MOL0     H29017   5.547   0.626   7.341 -1.4028  0.7969  0.4137
  935MOL0     H29018   5.134   0.495   7.443 -0.5026 -2.4630 -2.0179
  935MOL0     H29019   5.155   0.671   7.412  1.1851  1.7157 -2.3072
  935MOL0     H29020   5.114   0.487   7.168  2.9134  2.2717 -0.6836
  935MOL0     H29021   5.098   0.660   7.180 -0.5378 -0.3287 -1.8173
  935MOL0     H29022   4.907   0.460   7.309  0.1733 -0.0503  1.2126
  935MOL0     H29023   4.895   0.637   7.337 -0.4104  2.7509 -2.7035
  935MOL0     H29024   4.732   0.581   7.184  0.6396  2.8282 -0.2202
  935MOL0     H29025   4.837   0.474   7.093 -1.0502 -0.2289 -0.3093
  935MOL0     H29026   4.868   0.851   6.907  1.1754 -1.2550 -0.3334
  935MOL0     H29027   5.268   0.476   7.622 -1.5150  2.2054 -1.6754
  935MOL0     H29028   5.339   0.362   7.829  0.8939  0.2624  1.9406
  935MOL0     H29029   5.503   0.298   7.826  0.1343 -0.1637 -1.4883
  935MOL0     H29030   5.487   0.461   7.879  1.8237  1.9112 -2.0432
  936MOL0     O29031   4.351   8.521   5.158 -0.1795 -0.3010 -0.5072
  936MOL0     C29032   4.370   8.631   5.101 -0.4573  0.4590  0.2774
  936MOL0     O29033   4.284   8.736   5.110  0.2409 -0.3733 -0.0172
  936MOL0     C29034   4.151   8.728   5.140 -0.3168  0.3737 -0.2402
  936MOL0     C29035   4.094   8.840   5.208  0.3336  0.6721  0.0401
  936MOL0     C29036   3.965   8.837   5.255  0.1470  0.0095 -0.3318
  936MOL0     C29037   3.883   8.729   5.217 -0.6201 -1.1537 -0.3641
  936MOL0     O29038   3.752   8.718   5.228  1.0040  0.5043  0.2621
  936MOL0     C29039   3.668   8.826   5.276 -0.3884 -0.5880  0.0431
  936MOL0     C29040   3.524   8.795   5.247 -0.0596 -0.7314 -0.7742
  936MOL0     C29041   3.471   8.695   5.351 -0.0345  1.0132 -0.3322
  936MOL0     C29042   3.322   8.673   5.329  0.0729  0.5030 -0.5444
  936MOL0     C29043   3.264   8.557   5.407  0.2246  0.6957 -1.0158
  936MOL0     C29044   3.210   8.598   5.546  0.6541 -0.1269  0.5537
  936MOL0     C29045   3.141   8.479   5.621  0.5451 -0.7285  0.1510
  936MOL0     C29046   3.133   8.505   5.767  0.5239  0.1585 -0.4595
  936MOL0     N29047   3.016   8.592   5.801  0.6896 -0.0648  0.3484
  936MOL0     C29048   3.016   8.713   5.869 -0.5929  0.7211  0.2289
  936MOL0     C29049   2.885   8.729   5.904 -0.6567  0.3514 -0.3682
  936MOL0     C29050   2.814   8.848   5.959 -0.6241  0.1051 -0.1944
  936MOL0     C29051   2.900   8.980   5.950  0.9854  0.3018  1.0597
  936MOL0     C29052   2.917   9.001   5.803  0.7617  0.1123 -0.1965
  936MOL0     C29053   3.001   9.123   5.773 -0.2087 -0.4155 -0.2051
  936MOL0     O29054   3.142   9.102   5.825 -0.3283  0.1045 -0.1625
  936MOL0     C29055   3.234   9.194   5.776  1.5792 -0.3340 -0.2339
  936MOL0     C29056   3.358   9.181   5.837 -0.5219  0.3699  0.4015
  936MOL0     C29057   3.475   9.243   5.785 -0.6596 -0.1285  0.3628
  936MOL0     C29058   3.610   9.216   5.847 -0.2504  0.9077  0.2840
  936MOL0     C29059   3.462   9.322   5.671  0.8269  0.6674  0.9779
  936MOL0     C29060   3.577   9.389   5.600  0.2003  0.5039  0.0688
  936MOL0     O29061   3.558   9.402   5.467  0.0371 -0.8153 -0.0087
  936MOL0     C29062   3.631   9.493   5.387  0.0585  0.2719 -0.0618
  936MOL0     C29063   3.557   9.552   5.283 -0.0980 -0.5112  1.4290
  936MOL0     C29064   3.619   9.650   5.197  0.1386  0.2210  0.2091
  936MOL0     C29065   3.750   9.691   5.219 -0.1754  0.6099  0.1851
  936MOL0     O29066   3.819   9.766   5.131  0.1575  0.2024 -0.0882
  936MOL0     C29067   3.757   9.818   5.016 -0.0548  0.1810  0.9837
  936MOL0     C29068   3.868   9.898   4.934 -0.5355  0.1205 -0.3068
  936MOL0     C29069   3.938  10.014   5.005  1.2821 -0.0876 -0.4348
  936MOL0     C29070   4.059  10.073   4.942 -0.1354  0.5096  1.0670
  936MOL0     C29071   4.131  10.183   5.015  0.0558  0.6140  0.1038
  936MOL0     C29072   4.049  10.313   4.996  0.0017  1.2571  0.3113
  936MOL0     C29073   4.121  10.419   5.084 -0.2662  0.1929 -0.1229
  936MOL0     C29074   4.050  10.554   5.065 -0.2484 -1.0938 -0.2472
  936MOL0    Cl29075   4.073  10.610   4.891 -0.2748  0.5946  0.2842
  936MOL0     C29076   3.824   9.631   5.323  0.4580 -0.1624 -0.6678
  936MOL0     C29077   3.764   9.540   5.405  0.4382  1.3231  0.0040
  936MOL0     O29078   3.670   9.434   5.672  0.0643  0.3283 -0.5690
  936MOL0     C29079   3.336   9.349   5.625 -0.4811 -0.8682 -0.5053
  936MOL0     C29080   3.221   9.288   5.676  0.0056 -0.1197  0.9115
  936MOL0     N29081   2.811   8.614   5.864  0.1659 -0.9020  0.9355
  936MOL0     N29082   2.892   8.531   5.815  0.1592  0.4209 -0.2743
  936MOL0     C29083   3.940   8.616   5.155 -1.0661 -0.3882 -0.6136
  936MOL0     C29084   4.077   8.612   5.123  0.1390  0.0424  0.5142
  936MOL0     C29085   4.492   8.649   5.017  0.2123 -0.1333  0.3132
  936MOL0     C29086   4.499   8.772   4.948 -0.0265 -0.3396  0.1644
  936MOL0     C29087   4.616   8.806   4.878 -0.1501  0.2333 -1.8563
  936MOL0     C29088   4.724   8.724   4.864  0.5619 -0.4130  0.4580
  936MOL0     O29089   4.828   8.754   4.783  0.0814 -0.1867 -0.7984
  936MOL0     C29090   4.841   8.867   4.684 -0.3665 -0.4703 -0.8055
  936MOL0     C29091   4.977   8.873   4.621 -0.6021  0.3974  0.0933
  936MOL0     C29092   4.990   8.953   4.494 -0.6157  0.6084 -0.0060
  936MOL0     C29093   4.939   9.103   4.512  0.0188  0.9506 -0.7310
  936MOL0     C29094   4.999   9.185   4.407  0.3577 -0.5536 -0.0340
  936MOL0     C29095   5.061   9.257   4.325 -0.3055  0.6188 -0.0817
  936MOL0     C29096   4.718   8.603   4.936 -0.6655 -0.5183  0.3110
  936MOL0     C29097   4.609   8.562   5.010  0.3277  0.6158 -0.6545
  936MOL0     C29098   4.611   8.431   5.077 -0.6568  0.5491 -0.0256
  936MOL0     H29099   4.152   8.927   5.237  0.5508  1.7721 -3.2979
  936MOL0     H29100   3.927   8.923   5.308 -0.6927  1.7018 -3.4345
  936MOL0     H29101   3.701   8.923   5.236 -2.0649  0.0934  0.2299
  936MOL0     H29102   3.689   8.846   5.381 -0.2779  4.1293 -0.6734
  936MOL0     H29103   3.464   8.886   5.239 -0.2096 -0.8816 -1.5133
  936MOL0     H29104   3.532   8.764   5.142 -1.4217  2.5610 -1.9611
  936MOL0     H29105   3.528   8.602   5.340 -2.7231 -0.7463 -0.3778
  936MOL0     H29106   3.485   8.736   5.451  0.6593  4.5310 -1.7313
  936MOL0     H29107   3.264   8.761   5.357 -0.0663  0.4410 -0.6355
  936MOL0     H29108   3.300   8.653   5.224 -0.7135 -1.0146 -0.1206
  936MOL0     H29109   3.337   8.477   5.422 -1.7884 -1.3431 -1.4942
  936MOL0     H29110   3.181   8.514   5.350  2.3927 -0.1959 -3.7377
  936MOL0     H29111   3.291   8.639   5.608  0.0883 -1.3066  2.1469
  936MOL0     H29112   3.140   8.681   5.535  0.8049  0.3042  2.4278
  936MOL0     H29113   3.197   8.387   5.603 -1.4802 -1.9335 -0.3542
  936MOL0     H29114   3.037   8.470   5.588  1.6303 -1.9268 -3.4143
  936MOL0     H29115   3.135   8.409   5.819  3.4253 -0.8177 -2.1077
  936MOL0     H29116   3.224   8.562   5.790 -1.1720  2.3846  1.1557
  936MOL0     H29117   3.102   8.778   5.881 -1.4102  1.7513  0.6827
  936MOL0     H29118   2.796   8.829   6.065  3.3555 -2.5476  0.2149
  936MOL0     H29119   2.720   8.851   5.903 -1.1522 -3.8965  0.1600
  936MOL0     H29120   2.839   9.058   5.998  1.3277 -0.1986  2.3387
  936MOL0     H29121   2.993   8.957   6.002 -0.4415  0.2040  3.6990
  936MOL0     H29122   2.962   8.916   5.752  3.4588  0.3935  1.5179
  936MOL0     H29123   2.821   9.027   5.756  1.3294  1.5204 -0.6251
  936MOL0     H29124   2.992   9.147   5.667 -1.6816  2.6264  0.4989
  936MOL0     H29125   2.956   9.211   5.821  0.8588  1.1274 -1.8955
  936MOL0     H29126   3.357   9.105   5.915 -0.7219  0.4647  0.4923
  936MOL0     H29127   3.649   9.307   5.894  1.2280 -0.0953  1.0775
  936MOL0     H29128   3.681   9.183   5.771 -2.0365  3.4332 -2.7450
  936MOL0     H29129   3.599   9.139   5.924 -2.0390  0.3792 -0.4405
  936MOL0     H29130   3.463   9.500   5.264 -0.7143  0.2957  2.2043
  936MOL0     H29131   3.561   9.687   5.113  1.3754  0.4021 -0.5930
  936MOL0     H29132   3.736   9.729   4.954  0.1703  1.2579 -0.6971
  936MOL0     H29133   3.666   9.876   5.032 -1.8086 -2.1480  0.1710
  936MOL0     H29134   3.944   9.821   4.916 -0.7425  0.3243 -2.2615
  936MOL0     H29135   3.832   9.925   4.835 -0.1105 -0.0009 -0.4986
  936MOL0     H29136   3.958   9.986   5.109 -2.3090  0.9665  0.6877
  936MOL0     H29137   3.855  10.085   5.001  1.2275 -0.1654 -0.6892
  936MOL0     H29138   4.038  10.100   4.838  0.5159 -0.9806  0.5191
  936MOL0     H29139   4.133   9.993   4.951  0.5568  0.8711 -0.8918
  936MOL0     H29140   4.131  10.163   5.123  3.1304  3.0228  0.6794
  936MOL0     H29141   4.234  10.193   4.980 -0.1233 -0.0465 -0.6473
  936MOL0     H29142   3.947  10.295   5.029 -0.5650  0.9576 -1.4822
  936MOL0     H29143   4.046  10.345   4.891 -1.3535  0.0694 -0.0304
  936MOL0     H29144   4.226  10.424   5.054  0.7966 -3.3569  2.4312
  936MOL0     H29145   4.131  10.388   5.188  0.4753  0.6284 -0.0622
  936MOL0     H29146   4.095  10.627   5.134 -1.4562  0.9347 -1.5129
  936MOL0     H29147   3.944  10.552   5.091 -0.7416  3.7236 -0.9453
  936MOL0     H29148   3.928   9.662   5.327 -0.0506  1.5913  0.0477
  936MOL0     H29149   3.821   9.494   5.484  0.5100 -0.5937 -1.1119
  936MOL0     H29150   3.331   9.429   5.552 -1.0141 -1.3902 -1.0606
  936MOL0     H29151   3.132   9.310   5.619 -0.9057 -1.7572  1.6544
  936MOL0     H29152   3.876   8.531   5.139  0.2860 -1.7246  0.6764
  936MOL0     H29153   4.111   8.518   5.082  2.9050  0.9053  0.6070
  936MOL0     H29154   4.427   8.851   4.968  1.6360  1.3018 -0.1290
  936MOL0     H29155   4.627   8.899   4.822 -0.4028  1.7477  0.4759
  936MOL0     H29156   4.759   8.849   4.614 -0.3162 -2.7268 -0.3820
  936MOL0     H29157   4.827   8.966   4.728 -2.3588 -0.3707 -1.5623
  936MOL0     H29158   5.005   8.774   4.584 -1.1684  0.7820 -1.4134
  936MOL0     H29159   5.046   8.902   4.701 -0.5455 -1.5108  0.8005
  936MOL0     H29160   5.095   8.950   4.463  0.1917 -0.2100  2.5357
  936MOL0     H29161   4.935   8.905   4.412  2.5006  1.7290 -3.0235
  936MOL0     H29162   4.980   9.127   4.610  1.3855 -1.5315 -0.5977
  936MOL0     H29163   4.831   9.110   4.503  0.1575  1.1723 -2.6768
  936MOL0     H29164   5.116   9.317   4.255  0.0537 -0.7416 -1.0058
  936MOL0     H29165   4.800   8.535   4.913 -0.1730  0.4205 -0.8312
  936MOL0     H29166   4.712   8.389   5.078 -1.7352 -2.5073  3.2829
  936MOL0     H29167   4.580   8.434   5.182 -3.1061 -3.4808 -0.4127
  936MOL0     H29168   4.537   8.360   5.038  1.9954 -1.6044 -1.5366
  937MOL0     O29169  10.213   3.215   7.862  0.1220 -0.3444 -0.4217
  937MOL0     C29170  10.192   3.163   7.974 -0.0246 -0.3592 -0.2393
  937MOL0     O29171  10.072   3.097   8.013 -0.8872  0.4692 -0.0248
  937MOL0     C29172   9.994   3.050   7.916 -0.7638  0.7587  0.6280
  937MOL0     C29173   9.877   3.129   7.877 -0.4209  0.4258 -0.2380
  937MOL0     C29174   9.799   3.068   7.777 -0.3926 -0.3286 -0.5398
  937MOL0     C29175   9.833   2.948   7.720 -0.4719 -0.3427 -0.0932
  937MOL0     O29176   9.731   2.894   7.632 -0.4832 -0.0129 -0.0872
  937MOL0     C29177   9.767   2.772   7.558 -0.9884 -0.8064 -0.3423
  937MOL0     C29178   9.655   2.739   7.457  0.6717  0.4354 -0.2390
  937MOL0     C29179   9.684   2.623   7.371  0.0148 -0.5318  0.4177
  937MOL0     C29180   9.667   2.490   7.436 -0.8715 -0.1734 -0.1048
  937MOL0     C29181   9.658   2.370   7.333 -0.5805 -0.8125  0.0586
  937MOL0     C29182   9.613   2.238   7.392 -0.0812 -0.2730  0.4309
  937MOL0     C29183   9.727   2.182   7.487 -0.0091  0.3009 -0.7973
  937MOL0     C29184   9.669   2.080   7.592 -0.7698 -0.3895  0.3009
  937MOL0     N29185   9.772   2.001   7.651 -0.2880  0.1790 -0.7530
  937MOL0     C29186   9.792   1.993   7.787  0.3791 -0.3158 -1.0965
  937MOL0     C29187   9.860   1.880   7.800 -0.5568  0.0707  0.5087
  937MOL0     C29188   9.922   1.818   7.924 -0.1976  0.0443  0.0379
  937MOL0     C29189  10.066   1.767   7.903  0.2901 -0.1917  0.0084
  937MOL0     C29190  10.170   1.873   7.882 -0.5967  0.7099  0.3077
  937MOL0     C29191  10.195   1.973   8.000  0.1697  0.3352 -0.4739
  937MOL0     O29192  10.227   1.906   8.118  0.1763 -0.3308 -0.1662
  937MOL0     C29193  10.345   1.850   8.143 -0.2660  0.3156  0.1116
  937MOL0     C29194  10.372   1.797   8.273 -0.7616 -0.4524 -0.1995
  937MOL0     C29195  10.496   1.744   8.311 -0.2273 -0.5905 -0.3459
  937MOL0     C29196  10.509   1.686   8.453  0.1446  0.5126  0.0345
  937MOL0     C29197  10.598   1.736   8.213 -0.3667 -1.0693 -0.1365
  937MOL0     C29198  10.733   1.664   8.234 -0.5743 -0.1307  0.4204
  937MOL0     O29199  10.827   1.668   8.126  0.0452  0.5544 -1.3360
  937MOL0     C29200  10.955   1.631   8.153  0.2954 -0.5885 -0.7861
  937MOL0     C29201  11.052   1.708   8.221  1.2186  0.5855  0.0161
  937MOL0     C29202  11.182   1.665   8.231 -0.2512  0.4211  0.2284
  937MOL0     C29203  11.228   1.549   8.166  0.2365  0.5584 -0.3288
  937MOL0     O29204  11.358   1.513   8.183  0.2691  0.0557 -0.2135
  937MOL0     C29205  11.412   1.385   8.143  0.2898  0.0947  0.4123
  937MOL0     C29206  11.561   1.371   8.176  0.1835 -0.7146  0.6427
  937MOL0     C29207  11.587   1.379   8.331 -0.2414 -1.0113  0.8511
  937MOL0     C29208  11.730   1.342   8.375  0.6295  0.2339  0.1392
  937MOL0     C29209  11.770   1.199   8.340 -0.6385  0.3721  0.0936
  937MOL0     C29210  11.918   1.172   8.368 -0.8887  0.5826 -0.9365
  937MOL0     C29211  11.970   1.035   8.333 -0.8064 -0.0827  0.5805
  937MOL0     C29212  12.062   0.975   8.431  0.0720 -0.4863  0.0528
  937MOL0    Cl29213  11.991   0.935   8.589 -0.3607  0.1069  0.1323
  937MOL0     C29214  11.131   1.468   8.102  0.0472 -0.1163 -0.0714
  937MOL0     C29215  10.999   1.514   8.089 -0.1134 -0.3739  0.5536
  937MOL0     O29216  10.751   1.614   8.341 -0.3593 -0.0040 -0.3227
  937MOL0     C29217  10.568   1.778   8.085  0.1435  0.4324  0.1389
  937MOL0     C29218  10.445   1.836   8.048  0.1140  0.6029 -0.2430
  937MOL0     N29219   9.867   1.817   7.677 -0.2126  0.1569  0.6637
  937MOL0     N29220   9.822   1.897   7.582  0.0195 -0.3224 -0.4917
  937MOL0     C29221   9.949   2.883   7.751  0.1591  0.3546  0.0107
  937MOL0     C29222  10.035   2.937   7.844 -0.8472  0.0419  0.9102
  937MOL0     C29223  10.304   3.183   8.071  0.0344  0.0565  0.6099
  937MOL0     C29224  10.413   3.267   8.039 -0.6592  0.1080  0.0478
  937MOL0     C29225  10.516   3.296   8.132  0.8748  0.1900 -0.4203
  937MOL0     C29226  10.527   3.229   8.251  0.0786 -0.4737  0.2288
  937MOL0     O29227  10.635   3.256   8.321  0.1428 -0.2564  0.7439
  937MOL0     C29228  10.676   3.160   8.418 -0.7035  0.7110 -0.1114
  937MOL0     C29229  10.819   3.175   8.460  0.1415 -0.2829 -0.6802
  937MOL0     C29230  10.869   3.049   8.532  0.7639  0.2227 -0.1582
  937MOL0     C29231  10.817   3.049   8.679 -0.2392 -0.0894  0.4400
  937MOL0     C29232  10.674   3.018   8.687 -0.1836  0.6127 -0.3485
  937MOL0     C29233  10.557   2.993   8.683  0.1290  0.2999 -0.4240
  937MOL0     C29234  10.427   3.137   8.285  0.2927 -0.6546  0.0457
  937MOL0     C29235  10.307   3.125   8.198  0.4330  0.1038 -0.6803
  937MOL0     C29236  10.211   3.021   8.250  0.2441  0.5205  0.2030
  937MOL0     H29237   9.853   3.222   7.927  1.3343  1.5213 -1.3415
  937MOL0     H29238   9.713   3.120   7.736 -0.1899 -0.5616 -1.2730
  937MOL0     H29239   9.792   2.686   7.621 -0.6731 -0.7148 -0.3407
  937MOL0     H29240   9.860   2.777   7.499  0.5146  1.1196  2.0231
  937MOL0     H29241   9.572   2.718   7.525  0.3648  3.0200  0.2697
  937MOL0     H29242   9.642   2.827   7.394  0.9958  1.2038  0.7254
  937MOL0     H29243   9.619   2.643   7.286  2.4386  0.6054 -1.2789
  937MOL0     H29244   9.785   2.636   7.331  0.0196  1.9782  1.1064
  937MOL0     H29245   9.754   2.472   7.499 -1.7015 -1.7245  0.6536
  937MOL0     H29246   9.574   2.484   7.494  0.7292  0.9233  2.7983
  937MOL0     H29247   9.760   2.360   7.296 -0.9329 -1.8476 -0.6901
  937MOL0     H29248   9.595   2.412   7.254 -0.3335 -2.0035 -0.8035
  937MOL0     H29249   9.519   2.260   7.443  1.9204  5.0409  2.4518
  937MOL0     H29250   9.601   2.168   7.308 -2.5507  0.4141  0.1154
  937MOL0     H29251   9.778   2.261   7.542 -2.2276  0.6971  0.8185
  937MOL0     H29252   9.805   2.136   7.426  1.4325  0.7875  0.6056
  937MOL0     H29253   9.614   2.138   7.666 -0.2160  0.0619  0.3657
  937MOL0     H29254   9.597   2.015   7.541 -2.1097  1.2158  0.0199
  937MOL0     H29255   9.762   2.059   7.867 -1.6284 -0.2733 -1.8104
  937MOL0     H29256   9.861   1.735   7.961  1.4237 -0.1141  2.5912
  937MOL0     H29257   9.920   1.892   8.004  0.7036  1.2265 -0.9947
  937MOL0     H29258  10.100   1.709   7.990  1.1282 -0.8556 -0.7420
  937MOL0     H29259  10.058   1.702   7.816  0.1495  1.9428 -1.6515
  937MOL0     H29260  10.258   1.816   7.849 -0.0019  1.8275 -0.1056
  937MOL0     H29261  10.148   1.943   7.800  0.0617  1.9066  1.1051
  937MOL0     H29262  10.279   2.040   7.978  1.8953 -0.9493  1.7442
  937MOL0     H29263  10.105   2.034   8.013 -0.5342 -0.4514 -1.4827
  937MOL0     H29264  10.288   1.805   8.341 -0.3849 -0.1924  0.2413
  937MOL0     H29265  10.503   1.577   8.458 -0.3941  0.5507  0.3194
  937MOL0     H29266  10.422   1.717   8.512 -1.4434 -1.5109 -1.0951
  937MOL0     H29267  10.601   1.723   8.497 -0.1267 -0.1505  1.2001
  937MOL0     H29268  11.017   1.805   8.253 -4.8044 -1.5786  1.4304
  937MOL0     H29269  11.250   1.731   8.284  2.9427  0.8100 -3.8231
  937MOL0     H29270  11.371   1.293   8.187  1.8915 -0.6664  0.4137
  937MOL0     H29271  11.394   1.370   8.036 -1.1026 -0.3393  0.6830
  937MOL0     H29272  11.604   1.276   8.144 -1.3170 -1.2977  0.2796
  937MOL0     H29273  11.615   1.452   8.126  0.3864  0.1879  2.2670
  937MOL0     H29274  11.507   1.331   8.387 -2.0733  0.3656 -0.4567
  937MOL0     H29275  11.576   1.487   8.345 -1.6690 -1.2263  1.5134
  937MOL0     H29276  11.743   1.349   8.484  0.0913 -0.4651  0.2571
  937MOL0     H29277  11.793   1.413   8.321  0.0172 -0.2705 -1.2701
  937MOL0     H29278  11.705   1.146   8.411 -4.1769  0.5952 -2.7236
  937MOL0     H29279  11.751   1.162   8.239 -0.0941 -2.8487  1.0550
  937MOL0     H29280  11.918   1.183   8.476  0.0067 -0.7190 -0.7902
  937MOL0     H29281  11.976   1.254   8.325 -2.4200  2.2768  0.0930
  937MOL0     H29282  12.021   1.053   8.238 -0.4608  3.3207  1.2907
  937MOL0     H29283  11.895   0.956   8.325 -2.1709  1.0205  1.9772
  937MOL0     H29284  12.147   1.043   8.447 -0.2060 -0.4919  1.8109
  937MOL0     H29285  12.106   0.889   8.379  0.7514  0.5620 -1.1762
  937MOL0     H29286  11.148   1.370   8.059 -3.1985 -1.1807  0.8183
  937MOL0     H29287  10.922   1.462   8.033  0.2150  1.1168 -1.3805
  937MOL0     H29288  10.654   1.775   8.020 -0.5845  2.4613 -0.9952
  937MOL0     H29289  10.433   1.875   7.947 -0.1536  0.0807 -0.4174
  937MOL0     H29290   9.982   2.797   7.694  0.9785  0.6107  0.0900
  937MOL0     H29291  10.131   2.895   7.872 -0.7872  0.4134  1.2645
  937MOL0     H29292  10.411   3.314   7.942  2.6976 -1.8534 -1.1354
  937MOL0     H29293  10.595   3.367   8.114  0.0405  1.1472 -0.3562
  937MOL0     H29294  10.623   3.176   8.513 -0.1072 -0.0827  0.3668
  937MOL0     H29295  10.662   3.056   8.387 -0.3057  1.2845 -2.3380
  937MOL0     H29296  10.830   3.263   8.524  2.2073  0.5783 -2.0991
  937MOL0     H29297  10.877   3.190   8.368  3.2782  1.8091  1.4153
  937MOL0     H29298  10.837   2.960   8.476 -0.0390  0.9300 -0.8362
  937MOL0     H29299  10.978   3.048   8.539  0.6763  0.4039  1.6024
  937MOL0     H29300  10.833   3.147   8.727 -1.1684  0.3057 -0.0328
  937MOL0     H29301  10.886   2.982   8.731  2.3369  1.1296 -1.2305
  937MOL0     H29302  10.458   2.958   8.664  1.0710 -1.8972 -1.7811
  937MOL0     H29303  10.443   3.088   8.380  1.8128  0.5638  0.4604
  937MOL0     H29304  10.110   3.061   8.261  0.2793  0.3655  1.2199
  937MOL0     H29305  10.202   2.936   8.182  1.9533  1.6330 -1.5252
  937MOL0     H29306  10.243   2.974   8.344  0.2035 -1.1924 -0.6045
  938MOL0     O29307   0.544  11.157   3.740 -0.6909  0.3402 -0.6801
  938MOL0     C29308   0.564  11.165   3.858  0.8682 -0.2268  0.2457
  938MOL0     O29309   0.663  11.238   3.925  0.9087  0.8109  0.6656
  938MOL0     C29310   0.781  11.272   3.862  0.2214  0.2868  0.1920
  938MOL0     C29311   0.794  11.300   3.726 -0.8210 -0.4030 -0.2709
  938MOL0     C29312   0.912  11.346   3.666 -0.1924  0.5685 -0.6689
  938MOL0     C29313   1.029  11.355   3.746 -0.0560 -0.8815 -0.4217
  938MOL0     O29314   1.139  11.412   3.689 -0.1624 -0.0659 -0.4465
  938MOL0     C29315   1.265  11.418   3.762 -0.5168 -0.4893 -0.0596
  938MOL0     C29316   1.377  11.493   3.688 -0.5170  0.1229  0.3743
  938MOL0     C29317   1.510  11.509   3.769 -0.3309  0.3793  0.4839
  938MOL0     C29318   1.587  11.384   3.806  0.4197 -0.0043 -0.3474
  938MOL0     C29319   1.736  11.418   3.834  0.7579  0.5637  1.4872
  938MOL0     C29320   1.819  11.293   3.853 -0.8068 -0.5273 -0.3089
  938MOL0     C29321   1.963  11.336   3.897  0.3797  0.0957 -0.2167
  938MOL0     C29322   2.070  11.224   3.912 -0.1912 -0.1395  0.1416
  938MOL0     N29323   2.091  11.144   3.789 -0.4816 -0.1919 -0.9990
  938MOL0     C29324   2.144  11.200   3.672 -0.1085 -0.3597  0.0454
  938MOL0     C29325   2.168  11.100   3.583  0.5028 -0.1229 -1.2296
  938MOL0     C29326   2.227  11.102   3.447  0.7916 -0.0756 -0.4119
  938MOL0     C29327   2.380  11.093   3.446  0.4659 -0.0380 -0.4121
  938MOL0     C29328   2.420  11.093   3.297  0.6369  0.7975  0.1074
  938MOL0     C29329   2.556  11.043   3.273 -1.0944 -0.7954  0.3558
  938MOL0     O29330   2.649  11.144   3.313 -0.0758  0.4043 -0.6877
  938MOL0     C29331   2.776  11.118   3.284 -0.2980 -0.7670  0.3448
  938MOL0     C29332   2.860  11.212   3.337  0.3487  0.4289 -0.0079
  938MOL0     C29333   3.003  11.214   3.307  0.3815 -0.8457 -0.9977
  938MOL0     C29334   3.080  11.329   3.372 -0.4290 -0.8777 -0.6533
  938MOL0     C29335   3.053  11.106   3.236  0.7576  0.3764  0.3117
  938MOL0     C29336   3.199  11.085   3.215  0.5128  0.6898  0.4691
  938MOL0     O29337   3.269  11.188   3.176  0.2678 -0.5830  0.2484
  938MOL0     C29338   3.402  11.167   3.155  0.1519 -0.2496 -0.1555
  938MOL0     C29339   3.486  11.204   3.256 -0.9912  0.2957 -0.1996
  938MOL0     C29340   3.626  11.205   3.230  0.2481 -0.9863 -0.0819
  938MOL0     C29341   3.681  11.169   3.104 -0.2397  0.2387 -0.9053
  938MOL0     O29342   3.811  11.178   3.068  0.1610  0.0503  0.6166
  938MOL0     C29343   3.905  11.222   3.172 -0.3069 -0.1929  0.5011
  938MOL0     C29344   4.046  11.201   3.119 -0.0377  0.0704 -0.4781
  938MOL0     C29345   4.151  11.271   3.208  0.5855  0.1387  0.1631
  938MOL0     C29346   4.243  11.173   3.266  0.4007 -0.5317 -0.6300
  938MOL0     C29347   4.351  11.131   3.176 -0.5401 -1.1052  0.2923
  938MOL0     C29348   4.451  11.038   3.262  0.4464 -0.4169  0.3194
  938MOL0     C29349   4.574  11.030   3.173 -0.6399  0.0278 -0.1522
  938MOL0     C29350   4.683  10.953   3.245 -0.3411  0.1436  0.0836
  938MOL0    Cl29351   4.665  10.774   3.239  0.0591 -0.0795 -0.5468
  938MOL0     C29352   3.597  11.125   3.008  0.0452  0.3118 -0.1636
  938MOL0     C29353   3.454  11.130   3.030 -0.3420 -0.2357  0.0124
  938MOL0     O29354   3.247  10.969   3.227  0.2795  0.0949 -0.1585
  938MOL0     C29355   2.966  11.005   3.190  1.1019  0.0043  0.3575
  938MOL0     C29356   2.826  11.013   3.216 -0.5786 -0.0479  0.6071
  938MOL0     N29357   2.130  10.984   3.653  0.3480  0.6019 -0.6558
  938MOL0     N29358   2.100  11.012   3.774 -0.2821 -0.3003  0.1729
  938MOL0     C29359   1.026  11.320   3.880 -0.9687 -0.4190 -0.0369
  938MOL0     C29360   0.904  11.275   3.933 -0.2230 -0.4658 -0.7220
  938MOL0     C29361   0.459  11.098   3.947 -0.2233 -0.1895 -0.4881
  938MOL0     C29362   0.490  11.082   4.086 -0.7167  0.1054  0.0032
  938MOL0     C29363   0.400  11.034   4.184 -0.2659  0.0062  0.3771
  938MOL0     C29364   0.276  10.997   4.142 -0.7053  0.0932 -0.2213
  938MOL0     O29365   0.189  10.940   4.230  0.4574 -0.9972 -0.5762
  938MOL0     C29366   0.168  11.014   4.356  0.2907  0.9037  0.1115
  938MOL0     C29367   0.021  11.010   4.395 -0.5957  0.4071 -0.7158
  938MOL0     C29368  -0.063  11.070   4.282 -0.1381  0.9010  0.1236
  938MOL0     C29369  -0.218  11.071   4.314 -0.0861 -0.1215  0.1131
  938MOL0     C29370  -0.263  10.930   4.327 -0.6185 -0.2494  0.0806
  938MOL0     C29371  -0.315  10.822   4.348 -0.0486 -0.6307 -0.0482
  938MOL0     C29372   0.242  11.004   4.010 -0.2506 -0.6073  0.8851
  938MOL0     C29373   0.331  11.056   3.907 -0.0373 -0.2593 -0.4989
  938MOL0     C29374   0.283  11.057   3.762 -0.0180  0.1604 -0.9409
  938MOL0     H29375   0.718  11.293   3.649 -0.4005 -2.0436 -0.5604
  938MOL0     H29376   0.914  11.395   3.570 -0.1978  3.1107  0.5322
  938MOL0     H29377   1.291  11.317   3.796  1.0894 -0.2701 -0.5223
  938MOL0     H29378   1.248  11.484   3.847  0.9761  2.3931 -1.8235
  938MOL0     H29379   1.403  11.460   3.587  0.4342  1.8225  0.0184
  938MOL0     H29380   1.333  11.591   3.664  0.4318  0.0511 -1.9233
  938MOL0     H29381   1.571  11.573   3.704  0.1122 -0.1822  0.3364
  938MOL0     H29382   1.469  11.567   3.852 -0.6917  0.6645  0.1113
  938MOL0     H29383   1.539  11.331   3.889  2.0440 -3.3762 -1.3722
  938MOL0     H29384   1.588  11.316   3.721 -3.3625 -1.8863  0.9018
  938MOL0     H29385   1.745  11.484   3.921 -0.1161 -0.1688  2.1622
  938MOL0     H29386   1.783  11.471   3.751 -1.5218 -0.2461 -0.4529
  938MOL0     H29387   1.783  11.242   3.943 -0.9229  0.4182  0.1918
  938MOL0     H29388   1.821  11.229   3.765 -1.2793 -1.1890  0.1502
  938MOL0     H29389   1.960  11.400   3.986 -1.3642 -0.3222  0.0735
  938MOL0     H29390   2.005  11.387   3.810 -0.5955  0.7703 -0.3171
  938MOL0     H29391   2.163  11.269   3.948 -0.4724 -1.1003  2.1949
  938MOL0     H29392   2.038  11.153   3.989  1.7820  1.4973  2.6165
  938MOL0     H29393   2.156  11.307   3.659  0.9646 -0.5922 -1.0355
  938MOL0     H29394   2.192  11.197   3.404 -3.2796 -0.4835  1.4815
  938MOL0     H29395   2.180  11.023   3.387 -0.1200  1.3155 -1.5884
  938MOL0     H29396   2.438  11.171   3.497  1.1849 -0.0949 -1.1158
  938MOL0     H29397   2.415  11.004   3.500 -1.4674  0.3484  1.6416
  938MOL0     H29398   2.354  11.018   3.251  2.3070 -1.6302  1.4210
  938MOL0     H29399   2.406  11.193   3.255  1.1877  1.0639  0.5407
  938MOL0     H29400   2.574  10.947   3.322 -0.6610 -1.7359 -1.5325
  938MOL0     H29401   2.573  11.021   3.167 -1.6662  1.4878 -0.2626
  938MOL0     H29402   2.817  11.292   3.397  5.0647  2.4076  1.2085
  938MOL0     H29403   3.155  11.375   3.307 -0.9255 -0.2353 -0.7901
  938MOL0     H29404   3.121  11.285   3.463 -2.7148  0.4409  1.1355
  938MOL0     H29405   3.017  11.413   3.403 -1.7274 -2.6125  1.7239
  938MOL0     H29406   3.446  11.239   3.350 -0.1661 -1.9571  1.0479
  938MOL0     H29407   3.679  11.245   3.315 -0.5834 -1.3669  0.6335
  938MOL0     H29408   3.895  11.329   3.187  0.8921  0.1887 -1.0997
  938MOL0     H29409   3.903  11.164   3.265  0.5965 -1.7319 -0.3742
  938MOL0     H29410   4.056  11.094   3.097 -0.9173 -0.0534 -0.3237
  938MOL0     H29411   4.062  11.251   3.024  1.6943  3.3891  1.3676
  938MOL0     H29412   4.108  11.336   3.284  0.6772  1.6478 -1.0249
  938MOL0     H29413   4.211  11.338   3.146 -0.5610  0.2306 -0.8978
  938MOL0     H29414   4.182  11.087   3.295 -1.2317  0.4568 -1.0653
  938MOL0     H29415   4.278  11.219   3.359 -1.4282 -0.1196 -0.1185
  938MOL0     H29416   4.322  11.078   3.085  2.5241 -0.6197 -1.0988
  938MOL0     H29417   4.400  11.227   3.158  1.3719 -1.6427  2.1659
  938MOL0     H29418   4.404  10.942   3.284 -1.2997  0.5728  1.1402
  938MOL0     H29419   4.480  11.091   3.353 -2.6028  0.3199  0.9571
  938MOL0     H29420   4.602  11.132   3.144 -1.0716  0.1073 -0.2892
  938MOL0     H29421   4.560  10.983   3.076  2.6687 -1.1614 -0.1922
  938MOL0     H29422   4.677  10.978   3.351 -3.6350 -0.8223  0.2207
  938MOL0     H29423   4.784  10.975   3.207  1.3860 -2.3049  2.8017
  938MOL0     H29424   3.642  11.092   2.915 -2.0212 -1.0344 -0.7588
  938MOL0     H29425   3.385  11.110   2.948 -0.8423 -0.2979  0.4397
  938MOL0     H29426   3.006  10.924   3.130 -0.3351 -1.2016  0.9579
  938MOL0     H29427   2.764  10.928   3.192  1.7213 -2.6396  3.1304
  938MOL0     H29428   1.117  11.330   3.938 -0.5062  1.0093 -0.9828
  938MOL0     H29429   0.909  11.229   4.031 -0.3598 -0.5228 -0.7414
  938MOL0     H29430   0.582  11.116   4.132 -0.9788  1.3762 -0.3673
  938MOL0     H29431   0.425  11.030   4.289 -1.2974 -0.0276  0.6334
  938MOL0     H29432   0.240  10.967   4.423  0.7233 -0.8061 -1.4578
  938MOL0     H29433   0.194  11.120   4.350  2.8732  0.2702 -1.7202
  938MOL0     H29434   0.011  11.058   4.492 -0.4911  3.0638 -1.9376
  938MOL0     H29435  -0.003  10.907   4.422  1.3794  0.2997  0.8280
  938MOL0     H29436  -0.016  11.167   4.267 -2.0062  1.8575  0.0696
  938MOL0     H29437  -0.053  11.023   4.184  0.4870  4.3473 -1.6106
  938MOL0     H29438  -0.268  11.103   4.223 -0.8184 -4.6717 -1.3314
  938MOL0     H29439  -0.236  11.131   4.404  0.7208 -3.8432  3.0661
  938MOL0     H29440  -0.374  10.737   4.375 -1.0486  0.8590  2.7912
  938MOL0     H29441   0.145  10.963   3.983  0.0984 -0.0387 -1.4059
  938MOL0     H29442   0.184  11.009   3.755  0.1525 -0.3291 -0.0408
  938MOL0     H29443   0.281  11.152   3.708  2.6965 -0.2019 -1.8023
  938MOL0     H29444   0.356  11.001   3.703  0.5935 -0.7778  0.6681
  939MOL0     O29445   5.546   8.359   3.790 -0.1941  0.4097  0.3181
  939MOL0     C29446   5.520   8.322   3.904 -0.2152 -0.6251  0.8651
  939MOL0     O29447   5.575   8.372   4.009 -0.0842 -0.1155 -0.4164
  939MOL0     C29448   5.638   8.494   4.017  0.3320  0.6238  0.0453
  939MOL0     C29449   5.733   8.494   4.124  0.0696 -0.0956 -0.6823
  939MOL0     C29450   5.801   8.612   4.159 -0.0146  0.5236 -0.1498
  939MOL0     C29451   5.782   8.726   4.081 -0.6023 -0.1184 -0.1918
  939MOL0     O29452   5.861   8.833   4.125  0.2771  0.1336  0.6357
  939MOL0     C29453   5.835   8.957   4.073 -0.2143  0.6931 -0.2124
  939MOL0     C29454   5.920   9.071   4.128  0.5686  0.9212  0.1275
  939MOL0     C29455   6.069   9.035   4.146  0.1299 -0.0609 -1.6687
  939MOL0     C29456   6.156   9.036   4.017 -0.0779 -0.6928 -0.0851
  939MOL0     C29457   6.303   9.069   4.057 -0.7125  0.2510 -0.5315
  939MOL0     C29458   6.403   9.106   3.940  0.6669  0.5592  0.4762
  939MOL0     C29459   6.486   8.999   3.876 -0.6105  0.1604  0.2821
  939MOL0     C29460   6.622   8.994   3.943  0.4550  0.6932 -0.3515
  939MOL0     N29461   6.717   8.902   3.884 -0.7686 -0.1839 -0.1133
  939MOL0     C29462   6.817   8.947   3.796  0.6114 -0.6760 -0.4440
  939MOL0     C29463   6.864   8.835   3.736  0.8239  0.0890 -0.6777
  939MOL0     C29464   6.969   8.809   3.634 -0.3843  0.0553  0.6914
  939MOL0     C29465   7.105   8.760   3.685 -0.4088 -0.4758 -0.0262
  939MOL0     C29466   7.215   8.772   3.583 -0.0610 -0.1280  0.9397
  939MOL0     C29467   7.353   8.725   3.630 -0.4293  0.0421  0.4712
  939MOL0     O29468   7.464   8.790   3.559  0.8054 -0.0900 -0.9179
  939MOL0     C29469   7.589   8.739   3.574 -0.0283  0.6514  0.3656
  939MOL0     C29470   7.639   8.693   3.699 -0.4118  0.8839  0.7365
  939MOL0     C29471   7.761   8.627   3.709  1.5190  0.6667 -0.2103
  939MOL0     C29472   7.787   8.564   3.843  0.2348 -0.2843  0.1153
  939MOL0     C29473   7.850   8.628   3.597  0.3775  0.1275  1.0391
  939MOL0     C29474   7.989   8.578   3.581  0.4364 -0.5856 -0.3654
  939MOL0     O29475   8.068   8.634   3.485 -0.4995  0.2849 -0.3814
  939MOL0     C29476   8.176   8.567   3.455 -0.2403  0.0593  0.3426
  939MOL0     C29477   8.180   8.436   3.396  0.7644 -0.9612 -0.3952
  939MOL0     C29478   8.299   8.368   3.369  0.5435  0.4796  0.0159
  939MOL0     C29479   8.426   8.437   3.388  0.4560 -0.3110 -0.8633
  939MOL0     O29480   8.547   8.391   3.359 -0.6252 -0.5061  0.4167
  939MOL0     C29481   8.566   8.258   3.303  0.0839 -0.0614  0.9575
  939MOL0     C29482   8.547   8.152   3.410 -1.1026 -0.2567 -0.6242
  939MOL0     C29483   8.645   8.032   3.388 -0.2740  1.2013 -0.8188
  939MOL0     C29484   8.566   7.894   3.398 -0.1178 -0.5075  0.2294
  939MOL0     C29485   8.660   7.777   3.371 -0.8183 -0.7207  0.2338
  939MOL0     C29486   8.680   7.739   3.215 -0.2933  0.4536 -0.1975
  939MOL0     C29487   8.568   7.646   3.151  0.5046 -0.9305 -0.3542
  939MOL0     C29488   8.611   7.570   3.020  0.4625 -0.7285  0.3279
  939MOL0    Cl29489   8.719   7.684   2.922  0.2414  0.2482  0.2360
  939MOL0     C29490   8.416   8.558   3.443  0.2198  0.3345  0.2400
  939MOL0     C29491   8.301   8.626   3.482  0.2895  0.7886  0.4505
  939MOL0     O29492   8.004   8.475   3.647 -0.5217  0.1913  0.4110
  939MOL0     C29493   7.793   8.683   3.472  0.7262  0.2203 -0.1682
  939MOL0     C29494   7.664   8.730   3.462 -0.6270 -0.3466  0.7800
  939MOL0     N29495   6.795   8.720   3.790  0.2192 -0.7653  0.4246
  939MOL0     N29496   6.701   8.772   3.867 -0.6339  0.0291 -0.8786
  939MOL0     C29497   5.690   8.721   3.972  0.1412 -0.4862 -0.5408
  939MOL0     C29498   5.620   8.606   3.936 -0.6391 -0.2120  0.4554
  939MOL0     C29499   5.443   8.193   3.907 -0.9601 -1.0653  0.2905
  939MOL0     C29500   5.356   8.158   3.798 -0.3482  0.6087  0.2731
  939MOL0     C29501   5.289   8.034   3.786 -0.5649  0.5727 -0.1591
  939MOL0     C29502   5.294   7.956   3.904  1.1313  0.3536 -0.6686
  939MOL0     O29503   5.205   7.851   3.897 -0.1070  0.3040 -0.1488
  939MOL0     C29504   5.189   7.766   4.003  0.2747 -0.2733 -0.3823
  939MOL0     C29505   5.124   7.640   3.947 -0.3408 -0.2492  0.7487
  939MOL0     C29506   5.156   7.524   4.044  0.0708  0.6255 -0.0633
  939MOL0     C29507   5.077   7.398   4.009  0.4479  0.1754 -0.2941
  939MOL0     C29508   5.093   7.281   4.102 -0.6626  0.4870  0.5077
  939MOL0     C29509   5.109   7.191   4.173 -0.0614 -0.0095 -0.4861
  939MOL0     C29510   5.373   7.983   4.015 -1.5227  0.0877  0.3364
  939MOL0     C29511   5.452   8.096   4.017  0.2009  0.1605  0.7585
  939MOL0     C29512   5.541   8.118   4.134 -0.4277 -0.5941 -0.1738
  939MOL0     H29513   5.749   8.393   4.161  0.1085  0.1516 -0.0085
  939MOL0     H29514   5.872   8.611   4.241 -0.0933  3.0266  0.0342
  939MOL0     H29515   5.733   8.988   4.098 -0.4648 -1.1226  1.2458
  939MOL0     H29516   5.861   8.966   3.967 -2.3581 -0.4871 -0.8999
  939MOL0     H29517   5.913   9.155   4.058  0.2726  2.8867  2.3926
  939MOL0     H29518   5.874   9.106   4.220  0.1615  0.6246  0.0412
  939MOL0     H29519   6.110   9.110   4.214  1.1962 -1.5942 -0.5607
  939MOL0     H29520   6.090   8.938   4.191  3.4512  1.5669  0.7694
  939MOL0     H29521   6.150   8.935   3.976 -0.1125 -1.9669  2.7603
  939MOL0     H29522   6.114   9.111   3.949  0.9643 -0.5595 -0.5899
  939MOL0     H29523   6.341   8.985   4.117  0.7077  2.3023  1.6280
  939MOL0     H29524   6.291   9.155   4.123 -1.9704  0.5021 -1.0605
  939MOL0     H29525   6.353   9.168   3.864 -2.0297  0.6346  2.1628
  939MOL0     H29526   6.462   9.181   3.995 -0.4769  1.5187  0.4419
  939MOL0     H29527   6.500   9.020   3.770 -1.5185  0.1510  0.1537
  939MOL0     H29528   6.437   8.901   3.874  1.6303 -1.2701  4.2982
  939MOL0     H29529   6.663   9.095   3.942 -0.4512  1.1199  1.2824
  939MOL0     H29530   6.613   8.975   4.050 -0.4793  0.3157 -0.4946
  939MOL0     H29531   6.842   9.051   3.780  0.9922 -0.7093 -0.0825
  939MOL0     H29532   6.992   8.901   3.579 -0.9143  0.2027  0.7089
  939MOL0     H29533   6.932   8.746   3.552  0.3598  1.8963 -1.1799
  939MOL0     H29534   7.128   8.829   3.767 -0.6156  0.0273 -0.3824
  939MOL0     H29535   7.104   8.655   3.714  1.8446 -1.5931 -3.4507
  939MOL0     H29536   7.192   8.702   3.502  0.2027 -0.3671  1.0707
  939MOL0     H29537   7.224   8.873   3.543  1.0554 -1.2024 -1.7428
  939MOL0     H29538   7.369   8.744   3.737 -2.3827  0.0784  0.7908
  939MOL0     H29539   7.359   8.616   3.623 -2.2936 -0.1237  1.0271
  939MOL0     H29540   7.583   8.699   3.792  0.2117  1.6095  1.0741
  939MOL0     H29541   7.776   8.642   3.919 -0.7342  0.3227 -0.6188
  939MOL0     H29542   7.884   8.516   3.855  0.8127  1.2679  2.3691
  939MOL0     H29543   7.711   8.491   3.870 -0.9016  1.1162  0.8387
  939MOL0     H29544   8.080   8.393   3.386 -0.3272  1.9484 -4.0883
  939MOL0     H29545   8.303   8.269   3.324 -1.6485 -0.9277  2.6567
  939MOL0     H29546   8.503   8.235   3.217 -2.1009 -0.6565  2.6338
  939MOL0     H29547   8.670   8.251   3.269  0.6485  1.7114  2.1427
  939MOL0     H29548   8.555   8.199   3.509  1.4577 -2.0710  0.1267
  939MOL0     H29549   8.440   8.131   3.404 -1.0633 -0.1083 -2.2357
  939MOL0     H29550   8.725   8.025   3.462 -1.1015 -4.7171  0.0326
  939MOL0     H29551   8.695   8.037   3.290 -1.0070 -0.6804 -1.3340
  939MOL0     H29552   8.495   7.890   3.315 -1.0873  2.3020  0.8067
  939MOL0     H29553   8.504   7.879   3.487 -1.2808 -1.3579 -0.6988
  939MOL0     H29554   8.756   7.809   3.412 -1.1750  0.8979 -0.1254
  939MOL0     H29555   8.633   7.678   3.410 -1.3399 -0.5182  0.3880
  939MOL0     H29556   8.776   7.687   3.219  0.6990  2.2938  1.5780
  939MOL0     H29557   8.693   7.828   3.153  1.8304  0.4245  0.1484
  939MOL0     H29558   8.490   7.715   3.120  0.6099  0.7517  2.6973
  939MOL0     H29559   8.532   7.570   3.221  1.3386 -0.5846  0.4852
  939MOL0     H29560   8.534   7.531   2.953  0.9815 -1.6755  0.2664
  939MOL0     H29561   8.665   7.476   3.037  3.6451  0.6566 -1.3059
  939MOL0     H29562   8.504   8.614   3.472 -1.2873  2.7124  0.4813
  939MOL0     H29563   8.306   8.712   3.547 -2.1425  1.4761 -0.1740
  939MOL0     H29564   7.846   8.677   3.377 -0.4555  1.1883 -0.9226
  939MOL0     H29565   7.616   8.769   3.372 -0.8835  2.1097  1.8829
  939MOL0     H29566   5.678   8.817   3.922 -1.2496 -0.1085  0.4572
  939MOL0     H29567   5.547   8.608   3.855  0.3848 -1.6646 -0.5438
  939MOL0     H29568   5.350   8.228   3.715  3.0207 -2.1725 -2.6375
  939MOL0     H29569   5.231   8.000   3.701 -1.3891 -0.8181  0.9151
  939MOL0     H29570   5.280   7.744   4.058 -0.6001  1.9650  2.1940
  939MOL0     H29571   5.124   7.814   4.076 -0.9987 -1.8375 -0.4261
  939MOL0     H29572   5.166   7.609   3.851 -1.0790 -0.8361  0.6018
  939MOL0     H29573   5.018   7.663   3.931 -0.2823 -1.0699 -0.9969
  939MOL0     H29574   5.262   7.500   4.041 -0.0750 -0.1593  0.4706
  939MOL0     H29575   5.117   7.559   4.140  1.7516  1.1637  0.4450
  939MOL0     H29576   5.100   7.367   3.907 -1.8452 -1.0688 -0.4924
  939MOL0     H29577   4.969   7.415   4.002  0.7817  2.7852 -0.3149
  939MOL0     H29578   5.126   7.104   4.232  1.0428 -0.2580 -1.1539
  939MOL0     H29579   5.362   7.925   4.105 -3.0355 -0.5052 -0.1950
  939MOL0     H29580   5.556   8.022   4.184 -0.7571  0.3386  1.8098
  939MOL0     H29581   5.639   8.156   4.104 -0.2865 -2.4102 -2.2089
  939MOL0     H29582   5.491   8.176   4.213  1.4417  1.6111 -0.5287
  940MOL0     O29583   9.665   9.221   4.405 -0.0567  0.5072  0.6209
  940MOL0     C29584   9.710   9.327   4.440  0.5623 -0.2759 -0.2894
  940MOL0     O29585   9.839   9.371   4.410  0.0451  0.1813  0.0612
  940MOL0     C29586   9.923   9.319   4.320 -0.5881  0.3184 -0.7463
  940MOL0     C29587  10.063   9.301   4.357 -0.3953  0.1154 -0.4080
  940MOL0     C29588  10.153   9.239   4.266 -0.3309 -0.0571 -0.3310
  940MOL0     C29589  10.111   9.196   4.141 -0.0205  0.5114 -0.1833
  940MOL0     O29590  10.200   9.132   4.060 -0.2740  1.1253 -0.3190
  940MOL0     C29591  10.320   9.066   4.110  0.1636  0.1149 -0.0473
  940MOL0     C29592  10.290   8.929   4.170  0.1475  0.3330 -0.4124
  940MOL0     C29593  10.413   8.850   4.221  0.8880 -0.2623  0.2998
  940MOL0     C29594  10.385   8.703   4.248 -0.4244 -0.3710  0.1064
  940MOL0     C29595  10.496   8.617   4.311 -0.1250 -0.5205  0.2204
  940MOL0     C29596  10.456   8.470   4.345 -0.0173 -0.1866  0.1748
  940MOL0     C29597  10.590   8.399   4.371 -0.0464  0.3126  0.2857
  940MOL0     C29598  10.577   8.265   4.447 -0.3608 -0.2064 -0.7686
  940MOL0     N29599  10.706   8.211   4.480 -0.0961 -0.6353  0.0258
  940MOL0     C29600  10.761   8.197   4.600  0.2215 -0.9116 -0.5287
  940MOL0     C29601  10.878   8.145   4.581 -0.4069  0.9195 -0.2514
  940MOL0     C29602  10.976   8.104   4.684 -0.0072  0.0048  0.3083
  940MOL0     C29603  11.112   8.178   4.678  0.5313  0.0896 -0.8878
  940MOL0     C29604  11.211   8.143   4.796  0.3508 -0.0075  0.1972
  940MOL0     C29605  11.157   8.191   4.935  0.3044  0.2203  0.4534
  940MOL0     O29606  11.261   8.174   5.031 -0.3891  0.4189 -0.0966
  940MOL0     C29607  11.348   8.273   5.062 -0.8646  0.0424 -0.2660
  940MOL0     C29608  11.439   8.242   5.154 -0.4461  0.3996 -0.0657
  940MOL0     C29609  11.546   8.330   5.192  0.0824 -0.0975 -0.7568
  940MOL0     C29610  11.630   8.293   5.313  0.1597 -0.3127 -0.3847
  940MOL0     C29611  11.555   8.453   5.122  0.8627 -1.0014  0.1289
  940MOL0     C29612  11.658   8.556   5.157 -0.1872  0.8378  0.2962
  940MOL0     O29613  11.794   8.510   5.183 -0.6306 -0.4489  0.0659
  940MOL0     C29614  11.885   8.610   5.214  0.4573  0.0478  0.1122
  940MOL0     C29615  11.920   8.700   5.117 -0.2147  0.7555 -0.0100
  940MOL0     C29616  12.040   8.779   5.129 -0.5082  0.4864  0.1504
  940MOL0     C29617  12.125   8.765   5.239 -0.7521 -0.4537  1.0794
  940MOL0     O29618  12.243   8.828   5.265 -0.2376  0.4979 -0.2587
  940MOL0     C29619  12.224   8.963   5.287 -0.7518  0.6062 -0.2620
  940MOL0     C29620  12.348   9.027   5.223  0.0347  0.1053 -0.5870
  940MOL0     C29621  12.397   9.149   5.305  0.2771 -0.2694 -0.0653
  940MOL0     C29622  12.538   9.196   5.253 -0.8946  0.2640 -0.6239
  940MOL0     C29623  12.582   9.315   5.342  0.1040 -0.3405 -0.5081
  940MOL0     C29624  12.734   9.331   5.355 -0.1648 -0.5433 -0.2435
  940MOL0     C29625  12.800   9.388   5.237 -0.0992  0.2834  0.4162
  940MOL0     C29626  12.851   9.289   5.130 -0.9957 -0.1927 -0.5887
  940MOL0    Cl29627  12.974   9.180   5.204 -0.1140 -0.6945  0.2237
  940MOL0     C29628  12.090   8.674   5.339 -0.7570 -0.1193 -0.9448
  940MOL0     C29629  11.975   8.594   5.328 -0.1241  0.5405 -0.3501
  940MOL0     O29630  11.620   8.673   5.156 -0.0225  0.2218  0.5809
  940MOL0     C29631  11.450   8.490   5.032  0.2284  0.1457 -0.4247
  940MOL0     C29632  11.345   8.399   5.003 -0.6029 -0.7879 -0.3620
  940MOL0     N29633  10.892   8.114   4.449 -0.0215 -0.2780  0.5598
  940MOL0     N29634  10.796   8.163   4.383  0.2971 -0.6398 -0.7370
  940MOL0     C29635   9.977   9.215   4.102 -0.4061 -0.2933 -0.7848
  940MOL0     C29636   9.886   9.280   4.196  0.0520 -0.8786  0.3029
  940MOL0     C29637   9.625   9.419   4.519 -0.5370  0.6724 -0.9739
  940MOL0     C29638   9.690   9.516   4.599 -0.2202 -0.2595 -0.8727
  940MOL0     C29639   9.626   9.617   4.670 -0.1420  0.1358 -0.1640
  940MOL0     C29640   9.491   9.630   4.655  0.0066  0.8658  0.1225
  940MOL0     O29641   9.419   9.727   4.715  0.4456 -0.4740  0.7734
  940MOL0     C29642   9.440   9.864   4.665  0.5216  0.1840  0.2781
  940MOL0     C29643   9.369   9.902   4.547  0.5616  0.9465 -0.6734
  940MOL0     C29644   9.220   9.895   4.550 -0.6715 -0.0759  0.4368
  940MOL0     C29645   9.165   9.950   4.417 -0.4181 -0.0049  0.1530
  940MOL0     C29646   9.021   9.944   4.441  0.3508  1.0368  1.1003
  940MOL0     C29647   8.902   9.943   4.471  0.8974 -0.3439  0.6040
  940MOL0     C29648   9.421   9.544   4.572  0.6520 -0.5739 -0.4143
  940MOL0     C29649   9.484   9.434   4.511 -0.9417  0.2050  0.0503
  940MOL0     C29650   9.399   9.328   4.441 -0.1591 -0.5632 -0.4198
  940MOL0     H29651  10.099   9.332   4.455  0.5983 -1.6820 -0.1653
  940MOL0     H29652  10.253   9.226   4.307 -1.4101  0.1277  2.5936
  940MOL0     H29653  10.376   9.132   4.177  1.8082 -0.0163 -1.2219
  940MOL0     H29654  10.387   9.043   4.026  0.3804 -0.5177  0.2891
  940MOL0     H29655  10.221   8.946   4.253  1.4967 -2.0867  1.3515
  940MOL0     H29656  10.242   8.864   4.096  2.1593 -1.2049 -0.4688
  940MOL0     H29657  10.495   8.860   4.148  0.1736  3.3349 -0.1468
  940MOL0     H29658  10.447   8.890   4.317 -2.1649  2.8779  0.2437
  940MOL0     H29659  10.299   8.706   4.315 -0.1851  3.1558  0.4518
  940MOL0     H29660  10.353   8.655   4.156  0.8703 -2.5258  0.7211
  940MOL0     H29661  10.525   8.673   4.401  1.0938 -0.6407 -0.0820
  940MOL0     H29662  10.581   8.625   4.242  0.1776 -0.1873  0.6277
  940MOL0     H29663  10.393   8.461   4.434 -0.4516  1.7613  0.1116
  940MOL0     H29664  10.397   8.429   4.263  0.3023  0.2606 -0.2854
  940MOL0     H29665  10.667   8.466   4.410  1.7244  0.2138 -2.6911
  940MOL0     H29666  10.629   8.365   4.274  1.2042 -1.4926  1.3826
  940MOL0     H29667  10.527   8.276   4.543  0.9924  1.3806 -0.2007
  940MOL0     H29668  10.523   8.192   4.386  1.3955 -1.9719 -0.3163
  940MOL0     H29669  10.728   8.229   4.698  0.9023 -3.2548  0.5528
  940MOL0     H29670  10.989   7.996   4.673 -2.9323 -0.3341 -0.8386
  940MOL0     H29671  10.930   8.120   4.782  0.1313 -1.2466  0.5932
  940MOL0     H29672  11.159   8.163   4.581  0.3950  2.6980 -1.4270
  940MOL0     H29673  11.101   8.287   4.682 -1.0727 -0.0728  0.4669
  940MOL0     H29674  11.238   8.036   4.796 -0.5898 -0.2633  1.4329
  940MOL0     H29675  11.298   8.208   4.781  0.4457 -0.0307  0.6169
  940MOL0     H29676  11.109   8.290   4.935  0.9765  0.7701  5.0770
  940MOL0     H29677  11.088   8.114   4.972 -0.1314 -0.3815 -1.5294
  940MOL0     H29678  11.431   8.143   5.197 -0.0244  0.4194  0.0635
  940MOL0     H29679  11.637   8.376   5.383  0.2255 -0.5490 -0.1090
  940MOL0     H29680  11.731   8.269   5.276  1.0324  0.5858  1.2950
  940MOL0     H29681  11.588   8.212   5.373  0.7055  1.2270  2.2383
  940MOL0     H29682  11.854   8.718   5.033 -1.3995  1.2733  0.9925
  940MOL0     H29683  12.059   8.856   5.055  4.4782 -1.4919 -1.0369
  940MOL0     H29684  12.127   8.999   5.251  0.4798  1.8037 -2.6216
  940MOL0     H29685  12.222   8.991   5.393  2.0590  1.0454 -0.2434
  940MOL0     H29686  12.435   8.961   5.219  0.3875  0.5680 -0.6581
  940MOL0     H29687  12.326   9.057   5.120 -0.5560  0.5538 -0.3383
  940MOL0     H29688  12.415   9.114   5.408  3.5054 -0.6651 -0.6488
  940MOL0     H29689  12.322   9.227   5.292  0.3795 -0.4768 -2.2828
  940MOL0     H29690  12.532   9.223   5.147  0.7766  2.3953 -0.2517
  940MOL0     H29691  12.616   9.120   5.266 -0.4212  1.0161  1.2503
  940MOL0     H29692  12.549   9.410   5.299  2.5669  1.0144  0.3998
  940MOL0     H29693  12.539   9.312   5.442 -0.0757  0.7327 -0.5397
  940MOL0     H29694  12.766   9.229   5.379 -0.5244 -0.1909  1.9547
  940MOL0     H29695  12.754   9.374   5.453 -0.3104 -1.8426  0.3810
  940MOL0     H29696  12.893   9.437   5.267 -1.4496  2.4595  1.3081
  940MOL0     H29697  12.748   9.470   5.186  3.5789  1.4072 -1.9338
  940MOL0     H29698  12.895   9.349   5.049 -1.4816  2.0528  0.7058
  940MOL0     H29699  12.772   9.226   5.087 -1.2674 -0.2526 -0.0151
  940MOL0     H29700  12.154   8.653   5.424 -0.7762  1.3848 -0.5298
  940MOL0     H29701  11.955   8.513   5.398  2.5701  0.2788  0.2310
  940MOL0     H29702  11.440   8.590   4.992 -0.7036 -1.0134 -3.3196
  940MOL0     H29703  11.277   8.438   4.927 -1.5447  1.2351  1.4336
  940MOL0     H29704   9.941   9.185   4.005  0.2497  2.3731 -1.9443
  940MOL0     H29705   9.784   9.304   4.168  1.2310  1.2946 -2.5612
  940MOL0     H29706   9.798   9.506   4.602 -0.2775 -0.6337  1.9037
  940MOL0     H29707   9.683   9.686   4.731 -2.5100  0.9550  1.2436
  940MOL0     H29708   9.420   9.932   4.749 -0.6535  1.4898 -1.0156
  940MOL0     H29709   9.548   9.878   4.651  0.4753 -0.5910 -0.9127
  940MOL0     H29710   9.406   9.840   4.466  0.6526  0.6175 -0.3809
  940MOL0     H29711   9.401  10.005   4.525 -0.3853  1.3186 -0.3657
  940MOL0     H29712   9.180   9.794   4.560 -2.4460  0.5846  0.2912
  940MOL0     H29713   9.192   9.964   4.630 -2.1645  0.4527 -0.4974
  940MOL0     H29714   9.205   9.886   4.337 -1.1001 -0.7711  0.4119
  940MOL0     H29715   9.189  10.054   4.390 -0.2543 -0.9362 -3.9781
  940MOL0     H29716   8.802   9.935   4.510  1.2338  0.2349  1.6195
  940MOL0     H29717   9.313   9.547   4.562  0.5661  0.2979  0.5693
  940MOL0     H29718   9.435   9.318   4.339  1.8875  1.1784  0.0589
  940MOL0     H29719   9.417   9.235   4.495 -1.8418  0.2010  1.5965
  940MOL0     H29720   9.290   9.338   4.447  0.0342  0.9963  1.8671
  941MOL0     O29721   6.202   7.347   3.259  0.5296 -0.0818 -0.2875
  941MOL0     C29722   6.136   7.246   3.270  0.9602  0.0874 -0.2993
  941MOL0     O29723   6.176   7.119   3.234  0.3350 -0.1341  0.6325
  941MOL0     C29724   6.291   7.101   3.163 -0.2201  0.0029  0.5846
  941MOL0     C29725   6.417   7.087   3.232  0.3136 -0.5660  0.2619
  941MOL0     C29726   6.533   7.056   3.169  0.4787  1.0372 -0.3328
  941MOL0     C29727   6.536   7.018   3.031  0.2960 -0.0668 -0.2058
  941MOL0     O29728   6.652   6.983   2.975  0.9630  0.1927  0.7427
  941MOL0     C29729   6.724   7.100   2.934 -0.9751 -0.9696 -0.0877
  941MOL0     C29730   6.849   7.049   2.871  0.4564  0.0332 -0.5937
  941MOL0     C29731   6.957   7.157   2.864 -0.3086 -0.1291  0.5773
  941MOL0     C29732   7.075   7.116   2.945  0.3425 -0.2528 -0.4392
  941MOL0     C29733   7.201   7.210   2.937 -0.0422 -0.3384  0.6707
  941MOL0     C29734   7.307   7.162   2.836 -0.3571 -0.1983  0.5133
  941MOL0     C29735   7.259   7.197   2.692 -0.4263  0.1712 -0.7311
  941MOL0     C29736   7.376   7.173   2.603 -0.5116 -0.2086  0.5880
  941MOL0     N29737   7.323   7.173   2.461  0.3599  0.3157  0.1353
  941MOL0     C29738   7.340   7.281   2.374  0.2134 -0.1933 -0.4758
  941MOL0     C29739   7.282   7.238   2.261 -0.3614  0.7450 -0.0544
  941MOL0     C29740   7.287   7.308   2.130  0.5240  0.2493 -0.1246
  941MOL0     C29741   7.432   7.341   2.094 -0.2488 -0.0355  0.1279
  941MOL0     C29742   7.523   7.208   2.088  0.1929 -0.8253 -0.2400
  941MOL0     C29743   7.663   7.245   2.038 -0.1552 -1.6828 -0.8883
  941MOL0     O29744   7.729   7.352   2.120  0.5682  0.4007 -0.0237
  941MOL0     C29745   7.863   7.369   2.113 -1.0266  0.0124 -0.2212
  941MOL0     C29746   7.952   7.305   2.026  0.1837 -0.6173  0.0651
  941MOL0     C29747   8.088   7.351   2.013  0.1359  0.2786 -0.4433
  941MOL0     C29748   8.166   7.271   1.917 -0.5614  0.0215  0.1614
  941MOL0     C29749   8.140   7.455   2.095 -0.2815 -0.0341  0.0486
  941MOL0     C29750   8.268   7.525   2.069  0.4186  0.1649 -0.2334
  941MOL0     O29751   8.268   7.636   2.150  0.0325 -0.5763 -0.5676
  941MOL0     C29752   8.369   7.728   2.127  0.4572 -0.0194 -0.4179
  941MOL0     C29753   8.351   7.844   2.051 -0.2979 -0.0176  0.0690
  941MOL0     C29754   8.465   7.918   2.019 -0.2348  0.0611 -0.1129
  941MOL0     C29755   8.597   7.870   2.058  0.4530  0.5495 -0.0962
  941MOL0     O29756   8.697   7.946   2.011  0.0192 -0.0705 -0.2464
  941MOL0     C29757   8.813   7.952   2.092 -0.0088  0.0296 -0.2285
  941MOL0     C29758   8.782   8.023   2.222  0.2799 -0.2334  0.2730
  941MOL0     C29759   8.903   8.085   2.299 -0.7670 -0.6897 -0.5018
  941MOL0     C29760   8.869   8.146   2.434  0.0780 -0.6532 -0.1103
  941MOL0     C29761   8.780   8.275   2.416 -0.3355 -0.1520 -0.3856
  941MOL0     C29762   8.710   8.309   2.551  0.8884  0.5559  0.5757
  941MOL0     C29763   8.613   8.427   2.567 -0.4838 -0.8268  0.5180
  941MOL0     C29764   8.578   8.474   2.708 -0.8186 -0.0365  0.3600
  941MOL0    Cl29765   8.470   8.609   2.712 -0.1654 -0.4899  0.2945
  941MOL0     C29766   8.612   7.758   2.151  0.0536  0.0605  0.0698
  941MOL0     C29767   8.494   7.685   2.180  0.6271  0.0660  0.2288
  941MOL0     O29768   8.350   7.507   1.977  1.2634 -0.0909  0.7671
  941MOL0     C29769   8.048   7.511   2.191  0.5413  0.2343 -0.5000
  941MOL0     C29770   7.914   7.457   2.202 -0.5016  0.0772 -0.4507
  941MOL0     N29771   7.234   7.108   2.277 -0.2209  0.2771 -0.5819
  941MOL0     N29772   7.254   7.071   2.403 -0.1789  0.1596 -0.4440
  941MOL0     C29773   6.417   7.041   2.959  0.5875  0.0801  0.2097
  941MOL0     C29774   6.297   7.088   3.019 -0.3992 -0.4236 -0.3676
  941MOL0     C29775   5.999   7.258   3.322  0.5441  0.2639 -0.5443
  941MOL0     C29776   5.924   7.140   3.346  0.2106  0.0504 -0.2180
  941MOL0     C29777   5.802   7.140   3.404 -0.4569  0.3807 -0.7241
  941MOL0     C29778   5.740   7.263   3.439  0.9334 -0.0426  0.3927
  941MOL0     O29779   5.616   7.263   3.501  0.0480  0.2437  0.2359
  941MOL0     C29780   5.594   7.352   3.609  0.4027  0.4981 -0.2636
  941MOL0     C29781   5.458   7.317   3.672  0.3051  0.3811  0.4448
  941MOL0     C29782   5.452   7.179   3.741 -0.3911 -0.5074  0.1013
  941MOL0     C29783   5.338   7.156   3.847  0.2968  0.2002  0.2937
  941MOL0     C29784   5.207   7.130   3.782  0.5692 -0.3734  0.3446
  941MOL0     C29785   5.110   7.102   3.716 -0.5550 -0.0961  1.0263
  941MOL0     C29786   5.804   7.384   3.409  0.1144 -0.8629  0.0390
  941MOL0     C29787   5.932   7.379   3.351  0.0822 -0.0696  0.6087
  941MOL0     C29788   5.994   7.518   3.343 -0.2689 -0.2028 -0.5567
  941MOL0     H29789   6.435   7.111   3.336 -0.7207  1.8401 -0.0558
  941MOL0     H29790   6.629   7.043   3.219  0.0341  2.8180  1.0978
  941MOL0     H29791   6.744   7.167   3.018  2.0862 -1.1784 -0.5221
  941MOL0     H29792   6.673   7.157   2.856  0.6911  0.5376 -0.1444
  941MOL0     H29793   6.884   6.976   2.945 -0.5086 -2.3742 -2.3958
  941MOL0     H29794   6.834   6.991   2.780  0.1761 -1.7817  0.5555
  941MOL0     H29795   6.989   7.171   2.761 -1.0628 -0.6140  0.2745
  941MOL0     H29796   6.926   7.252   2.908  3.1354  1.8203 -0.7722
  941MOL0     H29797   7.031   7.114   3.045  0.7898 -1.1784 -0.2466
  941MOL0     H29798   7.100   7.014   2.914  1.1609  0.1633 -1.1989
  941MOL0     H29799   7.249   7.209   3.035  1.8708  1.4243 -0.1954
  941MOL0     H29800   7.175   7.314   2.918 -0.0937 -0.0098  2.4170
  941MOL0     H29801   7.391   7.223   2.873 -2.1385  2.2688  0.7473
  941MOL0     H29802   7.333   7.058   2.854 -0.6117 -0.1804  1.0105
  941MOL0     H29803   7.217   7.298   2.683 -2.4967 -0.7692 -2.6323
  941MOL0     H29804   7.177   7.128   2.672 -0.9546 -0.2558  2.4329
  941MOL0     H29805   7.453   7.251   2.605 -0.0645 -0.6564  2.4413
  941MOL0     H29806   7.433   7.080   2.617  1.2645  0.3976 -1.8921
  941MOL0     H29807   7.386   7.375   2.402 -2.8090  1.2233  0.1290
  941MOL0     H29808   7.211   7.386   2.124 -1.0972 -1.2679 -0.1770
  941MOL0     H29809   7.250   7.235   2.058 -0.0862  1.0204 -0.5979
  941MOL0     H29810   7.430   7.394   1.998  3.2896  0.7523  0.3351
  941MOL0     H29811   7.467   7.409   2.173 -3.1386  0.2597  1.2907
  941MOL0     H29812   7.527   7.161   2.186 -0.1535 -1.0993 -0.3557
  941MOL0     H29813   7.477   7.139   2.016 -0.8664 -1.1453  0.7259
  941MOL0     H29814   7.717   7.150   2.048  0.3490 -1.1902  1.8361
  941MOL0     H29815   7.670   7.270   1.932 -1.4586 -1.9555 -1.0667
  941MOL0     H29816   7.904   7.231   1.963 -2.4896 -1.4744  2.8378
  941MOL0     H29817   8.130   7.304   1.819 -1.2412  2.7216  1.2277
  941MOL0     H29818   8.137   7.167   1.934 -0.4984  0.0509  0.4554
  941MOL0     H29819   8.274   7.288   1.918 -0.6977  1.0361 -0.5080
  941MOL0     H29820   8.252   7.872   2.017 -0.5729 -2.0769 -1.0338
  941MOL0     H29821   8.454   8.007   1.959 -0.9829 -0.1929 -0.3682
  941MOL0     H29822   8.849   7.852   2.115 -0.7923 -0.5354 -1.3770
  941MOL0     H29823   8.884   8.002   2.025  1.7512 -2.3554 -0.2901
  941MOL0     H29824   8.720   8.107   2.191  0.0876  0.2613  1.9032
  941MOL0     H29825   8.736   7.946   2.285 -0.4006 -0.1767 -0.1447
  941MOL0     H29826   8.943   8.170   2.243 -2.3683 -0.4611 -1.3701
  941MOL0     H29827   8.973   8.001   2.305 -1.8567 -1.6913 -1.1273
  941MOL0     H29828   8.956   8.181   2.491 -0.9915  1.8574  0.1496
  941MOL0     H29829   8.815   8.069   2.490 -1.5507  1.4508  1.4150
  941MOL0     H29830   8.836   8.361   2.378 -0.3197  0.1099  0.2292
  941MOL0     H29831   8.709   8.236   2.343 -0.8661 -1.2044  0.6571
  941MOL0     H29832   8.799   8.325   2.612  1.0300  0.1914  0.4683
  941MOL0     H29833   8.658   8.224   2.595 -0.3862  1.0281  0.0388
  941MOL0     H29834   8.515   8.404   2.522  0.3456  1.5645 -2.9034
  941MOL0     H29835   8.664   8.509   2.516 -0.3783 -2.1208 -1.5581
  941MOL0     H29836   8.665   8.510   2.764  0.1465  0.7382 -1.5480
  941MOL0     H29837   8.533   8.394   2.767 -1.2149  0.8358  1.2655
  941MOL0     H29838   8.706   7.707   2.172  1.0874  0.5135 -3.0552
  941MOL0     H29839   8.499   7.589   2.231  3.4831  0.4457  0.8629
  941MOL0     H29840   8.073   7.588   2.262 -2.5818  0.7341  0.2160
  941MOL0     H29841   7.848   7.493   2.280  0.4745 -0.6658  0.7608
  941MOL0     H29842   6.416   7.030   2.851  2.5145 -0.3113  0.2038
  941MOL0     H29843   6.204   7.087   2.963 -1.2315  0.1116  0.9646
  941MOL0     H29844   5.963   7.045   3.311  0.2304  0.4911 -1.4399
  941MOL0     H29845   5.751   7.047   3.425  1.1457 -0.0482  1.7911
  941MOL0     H29846   5.673   7.343   3.684  0.6153  1.2028 -0.3938
  941MOL0     H29847   5.589   7.458   3.582 -2.7695  0.9105  1.4158
  941MOL0     H29848   5.380   7.323   3.596  0.2467 -0.6001  0.4154
  941MOL0     H29849   5.425   7.391   3.747  0.7288  0.7832  0.2412
  941MOL0     H29850   5.446   7.105   3.661 -0.2268 -0.8565  0.4067
  941MOL0     H29851   5.543   7.162   3.800 -0.9437  2.7849  2.1283
  941MOL0     H29852   5.326   7.248   3.905  0.2918  2.1325 -2.5803
  941MOL0     H29853   5.354   7.070   3.913 -3.0164 -2.3763 -1.8528
  941MOL0     H29854   5.036   7.058   3.653 -2.1885 -1.7868  3.9002
  941MOL0     H29855   5.755   7.477   3.438 -0.7421 -1.9858  2.4971
  941MOL0     H29856   6.068   7.511   3.423  0.5423 -0.6962 -1.3377
  941MOL0     H29857   6.047   7.545   3.251  3.3734  0.3514  1.5416
  941MOL0     H29858   5.924   7.600   3.365 -0.9383 -0.7673 -0.5293
  942MOL0     O29859  10.422   4.353   7.343  0.3840 -0.2255  0.5576
  942MOL0     C29860  10.334   4.282   7.386  0.2423  0.4113  1.1211
  942MOL0     O29861  10.358   4.174   7.474  0.5990 -0.0077 -0.7159
  942MOL0     C29862  10.478   4.130   7.524 -0.4212  0.3006  0.3968
  942MOL0     C29863  10.503   4.004   7.575  0.6968 -0.4956 -0.5619
  942MOL0     C29864  10.620   3.965   7.639  0.1957  0.8749 -0.1586
  942MOL0     C29865  10.721   4.055   7.648 -0.2576  0.6177 -0.0672
  942MOL0     O29866  10.840   4.027   7.710 -0.9515  0.0143  0.2670
  942MOL0     C29867  10.928   3.972   7.617 -1.0311 -0.0931 -0.8049
  942MOL0     C29868  11.067   3.959   7.668  0.1010  0.2350  0.8949
  942MOL0     C29869  11.085   3.852   7.775 -1.0243  0.2494  0.9099
  942MOL0     C29870  11.240   3.831   7.791  0.1188  0.2963 -0.0370
  942MOL0     C29871  11.276   3.746   7.917 -0.2150 -0.3544  0.4345
  942MOL0     C29872  11.429   3.757   7.959  0.7377  0.5577  0.2526
  942MOL0     C29873  11.461   3.657   8.073  0.8537  1.0169  1.0999
  942MOL0     C29874  11.591   3.691   8.153 -0.6243 -0.2241 -0.7519
  942MOL0     N29875  11.609   3.610   8.274 -0.2496  0.8370  0.7517
  942MOL0     C29876  11.596   3.661   8.395  0.6898 -0.5756  0.1427
  942MOL0     C29877  11.622   3.561   8.474  0.0724 -0.7772  0.4476
  942MOL0     C29878  11.629   3.568   8.628 -0.4683  0.0549  0.4387
  942MOL0     C29879  11.603   3.431   8.694 -0.1063 -0.0250  0.6424
  942MOL0     C29880  11.583   3.428   8.842  0.1732  0.2022 -0.2703
  942MOL0     C29881  11.716   3.435   8.922 -0.6455 -0.7446  0.9803
  942MOL0     O29882  11.790   3.548   8.895 -0.3470  0.1025  0.2460
  942MOL0     C29883  11.889   3.587   8.982  0.6421 -0.2188  0.2368
  942MOL0     C29884  11.932   3.720   8.994 -0.3430  0.3976  0.2848
  942MOL0     C29885  12.040   3.759   9.074  0.2914 -0.8310  0.9578
  942MOL0     C29886  12.077   3.902   9.069 -0.1533  0.2613 -0.0412
  942MOL0     C29887  12.106   3.664   9.152 -0.0161 -0.2574 -0.6168
  942MOL0     C29888  12.221   3.691   9.238  0.1064 -0.2621  0.5121
  942MOL0     O29889  12.287   3.579   9.273 -0.3948 -0.2134  0.0864
  942MOL0     C29890  12.411   3.585   9.329 -0.0739 -0.2456  0.4093
  942MOL0     C29891  12.438   3.491   9.431  0.0413 -0.0851 -0.3240
  942MOL0     C29892  12.564   3.481   9.496 -0.4484  0.5300  0.4907
  942MOL0     C29893  12.673   3.554   9.451  0.3097 -0.3497 -0.6714
  942MOL0     O29894  12.803   3.547   9.500  0.1492 -0.5205  0.0346
  942MOL0     C29895  12.811   3.509   9.641  0.0693  0.9276 -0.1619
  942MOL0     C29896  12.956   3.514   9.704 -0.1481  0.0229 -0.3183
  942MOL0     C29897  13.060   3.427   9.623  1.4319 -0.0126 -0.8457
  942MOL0     C29898  13.199   3.422   9.687  0.2851  0.3468  0.6977
  942MOL0     C29899  13.299   3.370   9.580  1.1668  0.1631  1.1139
  942MOL0     C29900  13.430   3.326   9.639 -0.2530 -0.0214  0.0489
  942MOL0     C29901  13.496   3.437   9.722  0.4033 -0.1590  0.1483
  942MOL0     C29902  13.630   3.395   9.777  0.3173  0.3443  0.4132
  942MOL0    Cl29903  13.734   3.376   9.633 -0.1901  0.0946  0.1220
  942MOL0     C29904  12.645   3.653   9.345  0.2969 -0.0578  0.1006
  942MOL0     C29905  12.520   3.666   9.281  0.2200  0.0096  0.4342
  942MOL0     O29906  12.250   3.803   9.278  0.5201  0.0630  0.2108
  942MOL0     C29907  12.065   3.530   9.137  0.7440  0.0051  0.6241
  942MOL0     C29908  11.951   3.490   9.054  0.0501 -0.2343 -0.7352
  942MOL0     N29909  11.656   3.449   8.405  0.0353 -0.3626 -0.0484
  942MOL0     N29910  11.655   3.479   8.272  0.1114 -1.0600  0.4024
  942MOL0     C29911  10.708   4.182   7.608 -0.6435  0.4244  0.1474
  942MOL0     C29912  10.586   4.218   7.547  0.2702 -0.6992  0.0308
  942MOL0     C29913  10.200   4.298   7.319 -0.5682  0.4566 -0.4401
  942MOL0     C29914  10.180   4.410   7.237 -0.0278 -0.1001  1.2861
  942MOL0     C29915  10.060   4.434   7.165 -0.3304  0.5237  0.6213
  942MOL0     C29916   9.947   4.358   7.185 -0.5911  0.1161 -0.5001
  942MOL0     O29917   9.826   4.382   7.122 -0.2272  0.3981  0.4695
  942MOL0     C29918   9.817   4.482   7.027  0.1607  0.0561  0.0232
  942MOL0     C29919   9.677   4.477   6.963 -0.1247 -0.0580  0.7948
  942MOL0     C29920   9.563   4.510   7.062 -0.3518  0.2123  0.6228
  942MOL0     C29921   9.578   4.654   7.115 -0.9647  0.8514 -0.1297
  942MOL0     C29922   9.449   4.691   7.183 -0.2495  0.9947  0.0596
  942MOL0     C29923   9.342   4.718   7.230  0.5201  0.5685  0.3910
  942MOL0     C29924   9.961   4.253   7.272 -0.5156  0.0846 -0.4175
  942MOL0     C29925  10.085   4.218   7.339 -0.4921 -0.2299  1.1262
  942MOL0     C29926  10.099   4.083   7.422  0.0078 -0.1669  0.4081
  942MOL0     H29927  10.418   3.936   7.580 -1.4317  2.0796  1.9344
  942MOL0     H29928  10.629   3.860   7.667  1.1631  0.3272 -2.3159
  942MOL0     H29929  10.931   4.035   7.528  3.0868  1.1281 -0.0366
  942MOL0     H29930  10.896   3.871   7.589 -0.2325 -0.8948  1.0219
  942MOL0     H29931  11.133   3.936   7.583 -0.3753 -0.2776  0.6535
  942MOL0     H29932  11.097   4.047   7.725  1.2725  0.3117  0.1896
  942MOL0     H29933  11.041   3.881   7.871  1.2506 -2.6969  3.0728
  942MOL0     H29934  11.039   3.755   7.755 -1.3810  0.1046  2.3254
  942MOL0     H29935  11.295   3.802   7.700  1.6740  0.7969  0.7123
  942MOL0     H29936  11.275   3.933   7.811  1.3900 -0.0877 -0.2106
  942MOL0     H29937  11.266   3.642   7.886 -4.0826  0.2079 -0.7614
  942MOL0     H29938  11.201   3.759   7.995  1.6815 -0.4742  2.3775
  942MOL0     H29939  11.496   3.740   7.874 -2.5012 -1.1374 -2.1665
  942MOL0     H29940  11.449   3.853   8.007 -0.4023  1.3436 -0.8082
  942MOL0     H29941  11.469   3.555   8.036 -0.1391  1.5004 -0.5825
  942MOL0     H29942  11.380   3.649   8.147 -1.1027 -3.7507 -1.1146
  942MOL0     H29943  11.673   3.666   8.084 -0.0841 -0.7736  0.0711
  942MOL0     H29944  11.604   3.798   8.168  1.6311 -0.3571 -1.2804
  942MOL0     H29945  11.582   3.768   8.402  0.0483 -0.7697  2.6568
  942MOL0     H29946  11.554   3.633   8.672 -0.4428  1.0992 -0.9824
  942MOL0     H29947  11.726   3.610   8.656 -0.9269 -0.3417  2.8380
  942MOL0     H29948  11.509   3.403   8.646  0.7835 -1.0802 -0.5665
  942MOL0     H29949  11.676   3.359   8.656 -0.7969 -0.2229 -0.3362
  942MOL0     H29950  11.523   3.513   8.877  2.2583  1.3928  0.5625
  942MOL0     H29951  11.534   3.334   8.869  0.0839  0.4431  0.4192
  942MOL0     H29952  11.689   3.440   9.028 -2.4163 -0.2812  0.5425
  942MOL0     H29953  11.770   3.344   8.894  0.5062  0.4755 -1.0078
  942MOL0     H29954  11.885   3.797   8.934 -1.0143 -1.3264 -1.5108
  942MOL0     H29955  12.023   3.964   8.996 -0.9732 -2.3599 -1.7779
  942MOL0     H29956  12.183   3.901   9.040 -0.4718 -0.5616 -1.2584
  942MOL0     H29957  12.069   3.948   9.168 -0.1215 -0.9884  0.5489
  942MOL0     H29958  12.351   3.429   9.450 -0.0833 -0.0970 -0.9122
  942MOL0     H29959  12.577   3.400   9.567  0.8363  0.4886  0.2275
  942MOL0     H29960  12.735   3.556   9.704 -1.6863 -3.4915  1.3886
  942MOL0     H29961  12.765   3.410   9.638 -0.7862  1.3335 -1.2200
  942MOL0     H29962  12.996   3.615   9.697 -0.1638  0.1784  1.4994
  942MOL0     H29963  12.954   3.489   9.810 -0.6167  0.7809 -0.1378
  942MOL0     H29964  13.057   3.471   9.523  1.5581  0.1373 -0.7838
  942MOL0     H29965  13.021   3.325   9.616 -1.9852  0.8639  1.9491
  942MOL0     H29966  13.190   3.366   9.780 -0.6241  0.2332  0.5587
  942MOL0     H29967  13.219   3.526   9.713  0.0402 -0.0217  2.4665
  942MOL0     H29968  13.250   3.281   9.538  0.8267  1.5754 -1.7019
  942MOL0     H29969  13.322   3.450   9.509  0.3595  0.9358  1.7048
  942MOL0     H29970  13.497   3.295   9.558 -1.0704  1.7158 -1.3626
  942MOL0     H29971  13.428   3.241   9.708  1.7230  1.6496  2.3000
  942MOL0     H29972  13.435   3.478   9.803 -1.4679 -0.0445 -1.2701
  942MOL0     H29973  13.503   3.523   9.654 -2.2469  0.1130  0.1266
  942MOL0     H29974  13.613   3.303   9.833 -1.5103 -0.1112 -0.8095
  942MOL0     H29975  13.666   3.472   9.846 -0.0429  0.6044  0.3145
  942MOL0     H29976  12.738   3.705   9.322 -0.2085  1.7428  1.8768
  942MOL0     H29977  12.517   3.743   9.205  0.9114  1.2876  1.6423
  942MOL0     H29978  12.118   3.449   9.186  0.7833 -0.3637 -0.0225
  942MOL0     H29979  11.926   3.384   9.048 -1.0039 -0.3237  2.8151
  942MOL0     H29980  10.780   4.259   7.633  0.7172 -0.3058 -1.3440
  942MOL0     H29981  10.576   4.324   7.525 -0.0051 -1.2801 -3.0486
  942MOL0     H29982  10.267   4.471   7.219 -0.5658  0.1221 -0.8456
  942MOL0     H29983  10.062   4.514   7.092  0.8285 -1.4687 -1.6470
  942MOL0     H29984   9.845   4.579   7.070 -2.6724 -0.7037  4.2020
  942MOL0     H29985   9.885   4.475   6.942  0.3243  1.0422  0.0580
  942MOL0     H29986   9.653   4.376   6.929  2.3946 -0.1485 -0.9921
  942MOL0     H29987   9.675   4.549   6.881 -1.6156 -2.2912 -1.2636
  942MOL0     H29988   9.473   4.513   7.001  1.2999  2.7910 -1.9359
  942MOL0     H29989   9.548   4.439   7.144 -1.5656  0.6624  0.8195
  942MOL0     H29990   9.602   4.722   7.033  1.2244  1.8564  1.2498
  942MOL0     H29991   9.655   4.662   7.192  0.0307 -0.2615 -0.9727
  942MOL0     H29992   9.258   4.758   7.284  0.8848  1.5007  0.2745
  942MOL0     H29993   9.877   4.188   7.291  0.0172 -0.7663 -0.8811
  942MOL0     H29994  10.019   4.013   7.397 -0.1125 -0.7037  2.1727
  942MOL0     H29995  10.189   4.026   7.398 -1.7681 -1.8020 -3.3533
  942MOL0     H29996  10.086   4.105   7.528 -1.9523 -1.9343  0.5987
  943MOL0     O29997   1.929   9.945  10.572  0.3205 -0.6122 -0.5917
  943MOL0     C29998   1.863   9.982  10.668 -0.1277  0.9894 -0.0028
  943MOL0     O29999   1.911  10.041  10.777 -0.4264 -0.1105  0.4407
  943MOL0     C30000   2.050  10.065  10.803 -1.1981  0.4108  0.3120
  943MOL0     C30001   2.164  10.034  10.727  0.2195 -0.4078  0.1035
  943MOL0     C30002   2.294  10.068  10.766  0.4432  0.1854  0.9882
  943MOL0     C30003   2.321  10.141  10.879 -0.0553 -0.1113 -0.6201
  943MOL0     O30004   2.454  10.153  10.918  0.2644  0.2790  0.2023
  943MOL0     C30005   2.489  10.180  11.060  0.4327  0.7365  0.4023
  943MOL0     C30006   2.526  10.058  11.144  0.4269  0.5989 -0.1381
  943MOL0     C30007   2.655   9.989  11.105 -0.6200  1.1120  0.4957
  943MOL0     C30008   2.789  10.060  11.140 -0.0582  0.3075 -0.4962
  943MOL0     C30009   2.912   9.987  11.079 -0.5108 -1.1292 -0.1389
  943MOL0     C30010   3.037  10.035  11.152 -0.6898 -0.4769  0.1752
  943MOL0     C30011   3.162   9.976  11.081 -0.1315 -0.3526 -0.6413
  943MOL0     C30012   3.283  10.028  11.146  0.5761 -0.0885  0.4984
  943MOL0     N30013   3.413   9.961  11.110  0.9375 -0.2185  0.1685
  943MOL0     C30014   3.461   9.950  10.981 -0.4503  0.3157  0.4708
  943MOL0     C30015   3.587   9.899  10.996  0.3169 -0.5032  0.0020
  943MOL0     C30016   3.680   9.873  10.878 -0.3171 -0.7114  0.1074
  943MOL0     C30017   3.653   9.742  10.802  0.2469  0.2282  0.0536
  943MOL0     C30018   3.714   9.620  10.881  1.1275 -0.0240 -0.2017
  943MOL0     C30019   3.689   9.486  10.809  0.3664  0.1535 -1.2825
  943MOL0     O30020   3.771   9.464  10.699 -0.0015 -0.0407 -0.1052
  943MOL0     C30021   3.906   9.481  10.710  0.0088  0.3339  0.2790
  943MOL0     C30022   3.979   9.447  10.821  0.1714 -0.4037 -0.0809
  943MOL0     C30023   4.115   9.456  10.822  0.7407 -0.1815  0.2109
  943MOL0     C30024   4.189   9.419  10.956  0.0206 -0.0891  1.0887
  943MOL0     C30025   4.191   9.496  10.709 -0.5841  0.4463 -0.7541
  943MOL0     C30026   4.345   9.508  10.713 -0.1600 -0.4752  0.6150
  943MOL0     O30027   4.424   9.407  10.771  0.2985  0.4977 -0.3937
  943MOL0     C30028   4.557   9.417  10.780  0.2410 -0.0390  0.4864
  943MOL0     C30029   4.633   9.434  10.668  0.1445  0.4304  1.0604
  943MOL0     C30030   4.777   9.447  10.678  0.4826 -0.8988 -0.3626
  943MOL0     C30031   4.832   9.461  10.799 -0.2743  0.8540 -0.4750
  943MOL0     O30032   4.965   9.472  10.815  0.4296  0.2066  0.1042
  943MOL0     C30033   5.002   9.607  10.822  0.3015  0.0878  0.6045
  943MOL0     C30034   5.150   9.605  10.793 -0.4107  0.6739  0.6888
  943MOL0     C30035   5.227   9.742  10.819 -0.3972  0.2237 -0.0028
  943MOL0     C30036   5.377   9.719  10.817  0.9692 -0.1560  0.3315
  943MOL0     C30037   5.447   9.848  10.814 -0.2820 -0.1543  0.4143
  943MOL0     C30038   5.598   9.842  10.810  0.7291 -0.3589 -0.9019
  943MOL0     C30039   5.649   9.984  10.793 -0.9073 -0.2774  0.5949
  943MOL0     C30040   5.793   9.980  10.735  0.9320 -0.4835 -0.7184
  943MOL0    Cl30041   5.802   9.899  10.579 -0.0126 -0.1042  0.0608
  943MOL0     C30042   4.750   9.439  10.918 -0.3439 -0.7159  0.0082
  943MOL0     C30043   4.618   9.423  10.904 -0.5733 -0.0722 -0.1826
  943MOL0     O30044   4.388   9.613  10.668  0.2711 -0.0596  0.4172
  943MOL0     C30045   4.112   9.540  10.597 -0.4366 -0.1899 -0.1447
  943MOL0     C30046   3.976   9.518  10.595  0.6349  0.0675 -0.6123
  943MOL0     N30047   3.601   9.853  11.127 -0.0459  0.1225  0.0916
  943MOL0     N30048   3.498   9.891  11.190  0.4928 -0.1508  0.4067
  943MOL0     C30049   2.206  10.168  10.963 -0.2784 -0.1152  0.4008
  943MOL0     C30050   2.079  10.129  10.926  0.0582 -0.0695 -0.6307
  943MOL0     C30051   1.720   9.944  10.662  0.6203  0.2862 -1.1496
  943MOL0     C30052   1.633   9.998  10.756 -0.9356 -0.2317  0.5818
  943MOL0     C30053   1.500   9.975  10.759  0.6044  0.8836 -0.4951
  943MOL0     C30054   1.437   9.887  10.662  0.2356 -0.1045 -1.0871
  943MOL0     O30055   1.304   9.871  10.678  0.9123 -0.1477  0.2714
  943MOL0     C30056   1.244   9.752  10.619 -0.3400 -0.3467 -0.8199
  943MOL0     C30057   1.118   9.725  10.699 -0.9879 -0.1635 -0.8195
  943MOL0     C30058   1.039   9.609  10.641 -0.3877 -0.7319  0.1619
  943MOL0     C30059   0.938   9.564  10.749 -0.0967  0.1839  0.0370
  943MOL0     C30060   0.834   9.665  10.775 -0.7393  0.0787  0.3464
  943MOL0     C30061   0.740   9.746  10.779  0.0285  0.7247 -0.7774
  943MOL0     C30062   1.518   9.832  10.564  0.2740 -0.1067 -0.2365
  943MOL0     C30063   1.654   9.862  10.562 -1.0053 -0.2256  0.0162
  943MOL0     C30064   1.718   9.802  10.440 -1.2094 -0.0062  1.1033
  943MOL0     H30065   2.174   9.980  10.633  5.9599 -2.3238  1.3938
  943MOL0     H30066   2.377  10.044  10.700  1.0605  2.6587  0.7686
  943MOL0     H30067   2.410  10.239  11.107 -0.5687 -1.6338  1.8538
  943MOL0     H30068   2.575  10.248  11.063 -0.1435  1.4809  0.3657
  943MOL0     H30069   2.535  10.084  11.250  2.0525 -1.2050  0.2323
  943MOL0     H30070   2.441   9.989  11.139  0.0579  0.8434  1.9143
  943MOL0     H30071   2.657   9.891  11.155  1.2195  1.3686  1.0004
  943MOL0     H30072   2.655   9.966  10.998  2.7554 -0.7282  0.7439
  943MOL0     H30073   2.788  10.166  11.111  1.8831  0.1486 -1.2703
  943MOL0     H30074   2.793  10.058  11.249 -1.4140  1.0026 -0.4069
  943MOL0     H30075   2.901  10.015  10.974 -0.1834  0.9834  0.3333
  943MOL0     H30076   2.911   9.878  11.089 -0.1890 -0.9637  2.1290
  943MOL0     H30077   3.045  10.144  11.151 -0.8344 -0.4668  0.0468
  943MOL0     H30078   3.030  10.006  11.257  2.6200 -1.2373  0.3132
  943MOL0     H30079   3.167   9.982  10.972  5.2196 -2.5130 -0.8088
  943MOL0     H30080   3.163   9.868  11.098 -0.1577 -0.0008  1.9598
  943MOL0     H30081   3.295  10.135  11.125 -0.8865  0.1053  0.5539
  943MOL0     H30082   3.272  10.009  11.253  0.2303  1.0266  0.6722
  943MOL0     H30083   3.411   9.971  10.887  2.0925  1.4517 -0.7153
  943MOL0     H30084   3.779   9.865  10.924 -0.5076 -0.3444  0.5895
  943MOL0     H30085   3.680   9.957  10.807  2.0314 -1.2571 -0.6407
  943MOL0     H30086   3.544   9.743  10.788 -0.0461  1.3270  2.0422
  943MOL0     H30087   3.695   9.734  10.701 -2.3255 -1.0913 -1.0076
  943MOL0     H30088   3.822   9.631  10.896  1.7123 -2.4690 -2.0386
  943MOL0     H30089   3.661   9.612  10.977  0.5827  0.1450 -0.4833
  943MOL0     H30090   3.702   9.413  10.890 -2.0308  1.5335  0.4827
  943MOL0     H30091   3.582   9.475  10.789  0.1669 -2.2215  0.6084
  943MOL0     H30092   3.925   9.434  10.915 -0.1667  0.5232 -0.1339
  943MOL0     H30093   4.266   9.495  10.973 -1.8836  2.7858 -2.0909
  943MOL0     H30094   4.241   9.323  10.944 -2.7757 -1.5699 -0.0824
  943MOL0     H30095   4.127   9.419  11.046  0.4207 -0.4859  1.3732
  943MOL0     H30096   4.595   9.443  10.567  1.1549  1.4521  0.7463
  943MOL0     H30097   4.842   9.456  10.591 -0.8802  1.8944 -1.2108
  943MOL0     H30098   4.951   9.667  10.746  2.7566  0.9143 -0.4671
  943MOL0     H30099   4.980   9.649  10.921  2.3102  0.1844  1.0352
  943MOL0     H30100   5.198   9.535  10.862  1.8692  3.4243  2.0989
  943MOL0     H30101   5.166   9.568  10.691 -0.6091  2.7917 -0.1560
  943MOL0     H30102   5.195   9.782  10.916  0.2366 -1.3310  0.8980
  943MOL0     H30103   5.201   9.810  10.738  0.0707 -0.4574 -0.7368
  943MOL0     H30104   5.405   9.661  10.728  0.1464  1.0954 -0.7761
  943MOL0     H30105   5.408   9.671  10.910  1.6981 -2.2799 -0.9325
  943MOL0     H30106   5.421   9.897  10.720  1.7185 -1.2171 -0.7477
  943MOL0     H30107   5.415   9.913  10.896  0.0201  1.4639 -0.6925
  943MOL0     H30108   5.628   9.767  10.736 -0.1454 -0.9091 -0.7207
  943MOL0     H30109   5.635   9.796  10.903  3.4141 -0.7100 -2.0373
  943MOL0     H30110   5.651  10.043  10.885  1.6970  0.9708 -0.1495
  943MOL0     H30111   5.591  10.042  10.721  0.7908 -0.4816 -1.0147
  943MOL0     H30112   5.863   9.917  10.792  0.7471 -1.0994 -1.1750
  943MOL0     H30113   5.832  10.082  10.723 -2.0424  0.6304 -1.7485
  943MOL0     H30114   4.783   9.449  11.020 -0.5854 -0.3179  0.0515
  943MOL0     H30115   4.544   9.406  10.982 -0.3014 -1.4928 -0.2133
  943MOL0     H30116   4.162   9.590  10.515  1.1825 -0.5564  0.5809
  943MOL0     H30117   3.922   9.541  10.504  1.3233 -1.6405 -1.4928
  943MOL0     H30118   2.210  10.226  11.055 -1.6386  0.9680 -0.1718
  943MOL0     H30119   1.994  10.143  10.992  0.6143 -1.8322  0.5274
  943MOL0     H30120   1.664  10.062  10.838 -1.3406  0.4758  0.1828
  943MOL0     H30121   1.435  10.032  10.825  0.2775  0.7462 -0.6966
  943MOL0     H30122   1.213   9.761  10.515 -0.7462 -2.2460 -0.8959
  943MOL0     H30123   1.319   9.675  10.638  4.0307  4.0236  2.4354
  943MOL0     H30124   1.057   9.815  10.698  1.4621  1.6700 -3.6654
  943MOL0     H30125   1.128   9.706  10.806 -0.2972 -0.4174 -0.9261
  943MOL0     H30126   0.986   9.638  10.550 -1.4815 -2.4382  0.2085
  943MOL0     H30127   1.106   9.528  10.610 -1.3823 -1.0768 -1.2280
  943MOL0     H30128   0.991   9.531  10.839 -1.2881  0.3761  0.8286
  943MOL0     H30129   0.890   9.476  10.706  2.4647 -1.8716  1.1138
  943MOL0     H30130   0.663   9.818  10.799 -0.7198 -0.1916 -0.2435
  943MOL0     H30131   1.475   9.770  10.485 -1.4166  0.5151  0.1486
  943MOL0     H30132   1.763   9.880  10.377  4.1525 -0.0441  4.2197
  943MOL0     H30133   1.814   9.755  10.462 -0.4276  1.3488  0.7164
  943MOL0     H30134   1.655   9.727  10.391  0.2134 -1.7304  1.7693
  944MOL0     O30135  10.897   2.672  10.823  1.1403 -0.6480 -0.7181
  944MOL0     C30136  10.861   2.659  10.708 -0.3466  0.5210 -0.2415
  944MOL0     O30137  10.925   2.575  10.618  0.2857 -0.0020 -1.0345
  944MOL0     C30138  11.032   2.491  10.637  0.4238  0.7511  0.5773
  944MOL0     C30139  11.081   2.446  10.758  0.9867  0.0367  0.2086
  944MOL0     C30140  11.184   2.358  10.772  0.2855 -0.8009  0.5281
  944MOL0     C30141  11.239   2.298  10.653  0.1308 -0.0096  0.3092
  944MOL0     O30142  11.341   2.205  10.657 -0.4151  0.7161  0.6385
  944MOL0     C30143  11.384   2.154  10.784 -0.6747 -0.1759 -0.0627
  944MOL0     C30144  11.465   2.025  10.779  0.2313  0.3319 -0.0344
  944MOL0     C30145  11.597   2.061  10.711 -0.1048  0.4780 -0.5426
  944MOL0     C30146  11.694   1.939  10.709  1.0132 -0.2082  0.1944
  944MOL0     C30147  11.813   1.965  10.613  0.0436 -0.1759  0.6052
  944MOL0     C30148  11.887   2.092  10.657 -0.4400 -0.1184  0.7858
  944MOL0     C30149  11.986   2.140  10.547  0.2177  0.2358 -0.7449
  944MOL0     C30150  12.039   2.284  10.565  0.4099 -0.5599 -0.6984
  944MOL0     N30151  12.142   2.299  10.670  0.8100  0.2735 -0.1595
  944MOL0     C30152  12.142   2.274  10.801  0.1145  0.0291  0.1735
  944MOL0     C30153  12.271   2.253  10.833 -0.1093 -0.1822  0.3823
  944MOL0     C30154  12.311   2.213  10.976 -0.5805  0.2907 -0.9749
  944MOL0     C30155  12.463   2.240  10.996 -0.5700 -0.2543 -0.6644
  944MOL0     C30156  12.542   2.125  10.942  0.0656  0.1571 -0.4746
  944MOL0     C30157  12.685   2.155  10.918  0.4538 -0.2662  0.7102
  944MOL0     O30158  12.757   2.038  10.890 -0.0022 -0.3854 -0.6241
  944MOL0     C30159  12.890   2.058  10.890 -0.3223 -0.2024  0.2085
  944MOL0     C30160  12.951   2.181  10.856  0.3431 -0.3165 -1.2297
  944MOL0     C30161  13.088   2.203  10.878 -0.1168 -0.2093  0.8307
  944MOL0     C30162  13.145   2.335  10.852  0.3059 -1.0057  0.1977
  944MOL0     C30163  13.170   2.101  10.928 -0.1562  0.8905 -0.4610
  944MOL0     C30164  13.318   2.099  10.948 -0.6530  0.3975  0.2537
  944MOL0     O30165  13.378   1.981  10.977 -0.0187 -0.2752  0.0502
  944MOL0     C30166  13.512   1.963  10.988  0.4095  0.2542  0.2349
  944MOL0     C30167  13.560   1.838  10.950  0.0877 -0.5372 -0.2620
  944MOL0     C30168  13.697   1.808  10.962  0.7397  1.2622  0.5910
  944MOL0     C30169  13.785   1.904  11.013  0.1791 -0.5099  0.1745
  944MOL0     O30170  13.923   1.894  11.010  0.3455 -0.3075 -0.2022
  944MOL0     C30171  13.985   1.815  10.910  0.5501 -1.1149  0.0203
  944MOL0     C30172  14.131   1.811  10.914  0.0439 -0.1960  0.2095
  944MOL0     C30173  14.178   1.725  11.028 -0.3898  0.1192  1.1419
  944MOL0     C30174  14.328   1.713  11.021  0.0845  0.0424 -0.8114
  944MOL0     C30175  14.376   1.604  11.113 -0.5091  0.6517  0.1532
  944MOL0     C30176  14.530   1.573  11.087  0.5776  0.6226  0.8101
  944MOL0     C30177  14.569   1.549  10.942  0.6553  0.0444 -0.1442
  944MOL0     C30178  14.709   1.482  10.923  0.7039 -0.2662 -0.9972
  944MOL0    Cl30179  14.829   1.588  10.843  0.0916  0.0086  0.6605
  944MOL0     C30180  13.729   2.022  11.068  0.4876  0.7241 -0.3872
  944MOL0     C30181  13.598   2.052  11.057 -0.0214 -0.0664  0.2256
  944MOL0     O30182  13.374   2.201  10.922 -0.5517  0.0542  0.3083
  944MOL0     C30183  13.105   1.970  10.951 -0.3843  0.3214  0.2082
  944MOL0     C30184  12.970   1.950  10.932  0.6586  0.4713 -1.2803
  944MOL0     N30185  12.356   2.275  10.722  0.9862 -0.1346  0.1183
  944MOL0     N30186  12.268   2.302  10.624 -0.1365  0.1352 -0.5392
  944MOL0     C30187  11.202   2.354  10.530 -0.0813  0.2155 -0.0056
  944MOL0     C30188  11.093   2.445  10.526  0.1259  0.2225 -0.3853
  944MOL0     C30189  10.727   2.703  10.663  0.4478 -0.2104  0.3845
  944MOL0     C30190  10.651   2.599  10.603  0.3984 -0.3637  0.2655
  944MOL0     C30191  10.521   2.625  10.567  0.6455  0.1064  0.0049
  944MOL0     C30192  10.468   2.757  10.583  0.0529 -0.0720 -0.6698
  944MOL0     O30193  10.343   2.769  10.538 -0.1220 -0.6406  0.0433
  944MOL0     C30194  10.264   2.884  10.589  0.0119  0.5046 -0.5608
  944MOL0     C30195  10.118   2.824  10.578 -0.0707  0.3613  0.0151
  944MOL0     C30196  10.094   2.720  10.689 -0.5037 -0.0983  0.1593
  944MOL0     C30197   9.944   2.701  10.721  0.0639  0.3799  0.3314
  944MOL0     C30198   9.866   2.677  10.606  0.3930 -0.0617  0.5191
  944MOL0     C30199   9.816   2.649  10.503 -0.1974 -1.0583  0.6860
  944MOL0     C30200  10.551   2.864  10.628  0.1966  0.2275  0.3130
  944MOL0     C30201  10.681   2.839  10.668  0.1189  0.9606  0.3360
  944MOL0     C30202  10.762   2.943  10.725 -0.0520 -0.6264 -0.1077
  944MOL0     H30203  11.032   2.485  10.846  0.6069 -0.5962  0.2883
  944MOL0     H30204  11.224   2.330  10.869 -0.2751  0.5630  1.1839
  944MOL0     H30205  11.297   2.131  10.846 -0.3875 -0.0359  0.3933
  944MOL0     H30206  11.438   2.232  10.837 -0.4251  1.2984 -2.3452
  944MOL0     H30207  11.472   1.982  10.879 -1.6976 -1.5460 -0.6411
  944MOL0     H30208  11.413   1.946  10.725 -1.2022 -0.1149  1.8919
  944MOL0     H30209  11.575   2.090  10.608 -0.0775  0.0326 -0.6741
  944MOL0     H30210  11.636   2.140  10.776  1.1954 -0.0136 -0.6932
  944MOL0     H30211  11.715   1.906  10.811  3.6017 -1.2021 -0.5753
  944MOL0     H30212  11.640   1.857  10.661  2.5143 -1.7453  1.0182
  944MOL0     H30213  11.776   1.977  10.510 -1.6804 -0.2611  1.1880
  944MOL0     H30214  11.877   1.876  10.612 -0.1477 -0.3141  0.6919
  944MOL0     H30215  11.819   2.177  10.664  0.2749  0.9013 -2.8298
  944MOL0     H30216  11.941   2.076  10.751  0.7096 -0.9631  0.0112
  944MOL0     H30217  11.936   2.127  10.451 -2.5273  1.7599  0.3836
  944MOL0     H30218  12.068   2.067  10.549 -1.0129 -1.3504 -3.0327
  944MOL0     H30219  12.080   2.308  10.466 -3.4060 -2.6492 -3.0249
  944MOL0     H30220  11.961   2.357  10.590 -0.7082 -1.5025 -1.2997
  944MOL0     H30221  12.055   2.262  10.866 -0.0253 -0.0869 -0.0320
  944MOL0     H30222  12.279   2.109  10.991  0.7496  0.1022  0.9659
  944MOL0     H30223  12.249   2.267  11.047 -0.5533 -1.2706  0.3098
  944MOL0     H30224  12.489   2.329  10.938 -1.9510  0.4123 -0.2992
  944MOL0     H30225  12.487   2.244  11.103  1.1713 -1.8700 -0.9386
  944MOL0     H30226  12.550   2.047  11.019  1.0741 -0.5513 -1.2567
  944MOL0     H30227  12.487   2.080  10.859  1.8505  0.0821 -1.6730
  944MOL0     H30228  12.684   2.226  10.835  0.2637 -0.0182  0.9226
  944MOL0     H30229  12.725   2.201  11.009 -0.2657 -1.1554  1.5070
  944MOL0     H30230  12.893   2.270  10.837 -0.6397 -0.0222  2.3649
  944MOL0     H30231  13.078   2.411  10.811  0.3925 -1.4604 -0.7939
  944MOL0     H30232  13.224   2.316  10.779  2.3277  1.0679  1.7022
  944MOL0     H30233  13.190   2.380  10.941 -0.0642  1.8919 -0.9714
  944MOL0     H30234  13.495   1.763  10.905 -0.1437 -0.6451  0.2411
  944MOL0     H30235  13.733   1.721  10.907 -3.1625 -0.4434  0.3798
  944MOL0     H30236  13.950   1.712  10.915 -0.4448 -0.8855 -1.5114
  944MOL0     H30237  13.950   1.844  10.810 -2.2292 -1.7297  0.7377
  944MOL0     H30238  14.169   1.774  10.819 -0.9694 -0.2033 -0.2066
  944MOL0     H30239  14.168   1.914  10.923  0.4866 -0.0299 -2.5708
  944MOL0     H30240  14.137   1.624  11.018  1.0341 -0.5634  1.8529
  944MOL0     H30241  14.145   1.769  11.123 -1.9065  2.6029 -0.3945
  944MOL0     H30242  14.369   1.810  11.050 -2.5508  1.2821 -0.9685
  944MOL0     H30243  14.359   1.684  10.920 -0.7809 -0.9569 -0.8053
  944MOL0     H30244  14.356   1.629  11.217  3.6961  1.5241  0.9566
  944MOL0     H30245  14.324   1.510  11.090  1.2248 -0.3396  0.0005
  944MOL0     H30246  14.558   1.485  11.145 -0.8815 -0.8237 -0.5523
  944MOL0     H30247  14.585   1.662  11.118 -0.8564  2.1202 -0.6895
  944MOL0     H30248  14.573   1.641  10.883  2.4582  0.4975  0.6127
  944MOL0     H30249  14.490   1.489  10.895 -0.2714  0.4985  0.7936
  944MOL0     H30250  14.691   1.397  10.857  1.0525  1.2938 -3.2617
  944MOL0     H30251  14.754   1.454  11.018  1.4385  1.9729 -0.6155
  944MOL0     H30252  13.777   2.107  11.117 -2.8688  1.6129  1.6778
  944MOL0     H30253  13.582   2.149  11.103  2.0811  0.6379 -0.4315
  944MOL0     H30254  13.165   1.889  10.992 -1.9803 -0.7939  0.4156
  944MOL0     H30255  12.929   1.853  10.955  1.0649  0.2108 -1.6383
  944MOL0     H30256  11.244   2.312  10.439  0.7428 -3.2459  1.7978
  944MOL0     H30257  11.049   2.467  10.429 -0.6489 -2.6770 -0.7711
  944MOL0     H30258  10.692   2.499  10.599 -0.6521 -0.8854  1.6810
  944MOL0     H30259  10.460   2.549  10.519 -3.3107  1.2025  2.8503
  944MOL0     H30260  10.295   2.910  10.691  1.2137 -1.2669 -0.4342
  944MOL0     H30261  10.283   2.963  10.516 -0.3510  2.2038  1.1066
  944MOL0     H30262  10.106   2.776  10.480 -3.5233  1.3416 -0.1692
  944MOL0     H30263  10.048   2.908  10.587 -0.1131  0.2687  0.5824
  944MOL0     H30264  10.150   2.629  10.664  1.6871  1.0079  0.8952
  944MOL0     H30265  10.137   2.751  10.784 -1.9842  2.2208  0.1483
  944MOL0     H30266   9.906   2.783  10.783 -1.3975 -2.9168  4.2489
  944MOL0     H30267   9.935   2.612  10.783  0.2863  0.4172  0.4182
  944MOL0     H30268   9.770   2.619  10.410 -1.6314 -1.5750  1.5317
  944MOL0     H30269  10.512   2.965  10.619 -0.0570  0.0206 -1.1390
  944MOL0     H30270  10.812   3.009  10.653 -0.4696 -0.7420 -0.4990
  944MOL0     H30271  10.697   3.011  10.781  1.7804  0.5473  0.7076
  944MOL0     H30272  10.827   2.905  10.805 -2.9292 -2.6934  1.4522
  945MOL0     O30273   4.853  10.484   7.619  0.5237  0.5100  0.4529
  945MOL0     C30274   4.815  10.529   7.727  0.5822  0.3456 -0.8887
  945MOL0     O30275   4.893  10.528   7.837 -0.1515 -0.0681 -0.0402
  945MOL0     C30276   5.019  10.481   7.835 -0.3914 -0.9539  0.0907
  945MOL0     C30277   5.108  10.513   7.726  0.3722 -0.9024  0.4589
  945MOL0     C30278   5.242  10.477   7.729  0.2091  0.5210 -0.2661
  945MOL0     C30279   5.299  10.412   7.832 -0.2392  0.4548 -0.4193
  945MOL0     O30280   5.426  10.395   7.828  0.0944  0.1464 -0.3822
  945MOL0     C30281   5.500  10.395   7.953 -0.2153 -0.0986  0.2348
  945MOL0     C30282   5.635  10.464   7.920 -0.3811  0.7009 -0.7807
  945MOL0     C30283   5.735  10.455   8.039  0.4274  0.4636  0.2415
  945MOL0     C30284   5.769  10.319   8.100 -0.4101  0.3350  0.3768
  945MOL0     C30285   5.889  10.330   8.185 -0.0364 -0.1472  0.7219
  945MOL0     C30286   5.941  10.194   8.215 -1.2534  0.6962  0.6440
  945MOL0     C30287   6.000  10.117   8.091 -0.2847  0.1785 -0.8189
  945MOL0     C30288   6.010   9.964   8.114  0.1247  0.9958  0.1759
  945MOL0     N30289   6.079   9.900   7.998 -0.4606 -0.2575  0.5829
  945MOL0     C30290   6.220   9.887   7.989  0.2131 -0.2788  1.0617
  945MOL0     C30291   6.232   9.813   7.872  0.2757  0.5778 -0.1680
  945MOL0     C30292   6.358   9.764   7.820  0.3954  0.8357 -0.3853
  945MOL0     C30293   6.476   9.851   7.836 -0.7264  0.7217  0.1864
  945MOL0     C30294   6.604   9.782   7.781  0.1372 -0.1938  0.0343
  945MOL0     C30295   6.741   9.834   7.825 -0.4303 -0.4044  0.2611
  945MOL0     O30296   6.748   9.822   7.965  0.7219  0.4201 -0.2872
  945MOL0     C30297   6.869   9.835   8.026  0.2703 -0.4725  0.0741
  945MOL0     C30298   6.867   9.816   8.165 -0.0373 -0.2958 -0.3242
  945MOL0     C30299   6.982   9.826   8.248  0.8084 -0.1530 -0.6203
  945MOL0     C30300   6.959   9.807   8.399  0.2190  1.0944  0.3116
  945MOL0     C30301   7.108   9.849   8.186  0.0293  0.1905 -0.8816
  945MOL0     C30302   7.234   9.846   8.263 -0.4450  1.3422  0.0052
  945MOL0     O30303   7.343   9.866   8.179 -0.5957 -0.5437 -0.1378
  945MOL0     C30304   7.474   9.860   8.231 -0.0372 -0.1121 -0.0626
  945MOL0     C30305   7.560   9.760   8.198  0.1371  0.4273 -0.4809
  945MOL0     C30306   7.688   9.752   8.256 -0.0414  0.3210  0.0081
  945MOL0     C30307   7.723   9.842   8.358 -0.1799 -1.7038 -0.6626
  945MOL0     O30308   7.852   9.851   8.402  0.1752 -0.5876  0.2450
  945MOL0     C30309   7.866   9.794   8.533  0.2341  0.5900 -0.0089
  945MOL0     C30310   7.994   9.832   8.593 -0.2009 -0.1375  0.4103
  945MOL0     C30311   8.016   9.785   8.741  0.6938  0.3272 -1.3804
  945MOL0     C30312   8.154   9.736   8.767  0.2022  0.8995 -0.0810
  945MOL0     C30313   8.234   9.847   8.840  0.2552 -0.4441  0.6224
  945MOL0     C30314   8.377   9.808   8.870 -0.4043 -0.3368  0.8603
  945MOL0     C30315   8.473   9.795   8.752  1.5903 -0.0515 -0.3785
  945MOL0     C30316   8.617   9.763   8.788  0.2069  0.8711  0.2315
  945MOL0    Cl30317   8.683   9.896   8.885  0.3626 -0.3807  0.2189
  945MOL0     C30318   7.638   9.945   8.398  0.1287  0.0380 -0.3189
  945MOL0     C30319   7.518   9.954   8.332 -0.2447  1.1035 -0.1301
  945MOL0     O30320   7.244   9.844   8.386  0.1292 -0.6038 -0.3787
  945MOL0     C30321   7.108   9.876   8.053 -1.0915 -0.3351  0.2065
  945MOL0     C30322   6.994   9.874   7.971 -0.6786  1.0263  0.4873
  945MOL0     N30323   6.102   9.768   7.834  0.4254  0.0656 -0.0120
  945MOL0     N30324   6.019   9.830   7.906 -0.0302  0.3899  0.4800
  945MOL0     C30325   5.213  10.365   7.939  0.9276 -0.2495  0.1894
  945MOL0     C30326   5.075  10.414   7.943  0.1578 -0.9974 -0.5529
  945MOL0     C30327   4.675  10.568   7.738  0.0376 -0.4651 -0.1705
  945MOL0     C30328   4.604  10.620   7.625  0.5646 -0.3111 -0.1550
  945MOL0     C30329   4.470  10.653   7.628 -0.4642  0.1205 -1.1618
  945MOL0     C30330   4.393  10.644   7.748 -0.5642  0.0977  0.3854
  945MOL0     O30331   4.252  10.664   7.744 -0.0118  0.4040  0.8035
  945MOL0     C30332   4.169  10.605   7.847  0.1614 -0.7614 -0.9141
  945MOL0     C30333   4.176  10.449   7.822  0.2004  0.1592  0.2780
  945MOL0     C30334   4.083  10.371   7.919 -0.0143  0.4750  0.7761
  945MOL0     C30335   3.974  10.284   7.845 -0.4372  0.2099  0.1910
  945MOL0     C30336   4.038  10.204   7.748  0.1989  0.1527  0.9462
  945MOL0     C30337   4.079  10.143   7.654 -0.5571  0.2029 -0.3160
  945MOL0     C30338   4.458  10.598   7.862  0.5500 -0.2069  0.1300
  945MOL0     C30339   4.602  10.565   7.856 -0.1373 -0.2334  0.0842
  945MOL0     C30340   4.654  10.524   7.990  0.6789  0.7510  0.1709
  945MOL0     H30341   5.077  10.582   7.649  1.0725 -0.1683  0.8124
  945MOL0     H30342   5.313  10.505   7.651 -0.1761 -2.0429 -1.6490
  945MOL0     H30343   5.511  10.294   7.992  0.1805 -0.2322 -0.2167
  945MOL0     H30344   5.452  10.468   8.020 -0.9685  0.8192 -1.2510
  945MOL0     H30345   5.677  10.420   7.830  1.7536  1.5243 -0.2459
  945MOL0     H30346   5.610  10.571   7.914 -2.5720  0.3173  0.3983
  945MOL0     H30347   5.824  10.499   7.991 -0.3437 -0.3375 -2.0267
  945MOL0     H30348   5.712  10.529   8.117  1.4591  3.4142 -2.0346
  945MOL0     H30349   5.683  10.274   8.151  0.9408 -0.9083  1.6348
  945MOL0     H30350   5.788  10.254   8.014  1.5143 -0.5987  1.4358
  945MOL0     H30351   5.865  10.394   8.270  0.5267  0.4328  0.4526
  945MOL0     H30352   5.973  10.387   8.143 -0.0061  1.3977  2.6989
  945MOL0     H30353   6.020  10.200   8.291  2.0397 -2.4280 -2.1633
  945MOL0     H30354   5.859  10.133   8.255 -0.2688 -1.4740 -0.4779
  945MOL0     H30355   6.101  10.153   8.070 -0.3845 -0.1483 -1.9107
  945MOL0     H30356   5.945  10.128   7.997 -0.5413 -2.0666 -0.9869
  945MOL0     H30357   6.065   9.931   8.203 -0.0030  0.0244 -0.0931
  945MOL0     H30358   5.907   9.928   8.115  0.2863  0.5074  0.0060
  945MOL0     H30359   6.292   9.943   8.048  0.0558  2.0192 -0.7732
  945MOL0     H30360   6.344   9.720   7.720  1.9026  0.7029 -0.5489
  945MOL0     H30361   6.396   9.688   7.888  3.1537  2.7578  0.3814
  945MOL0     H30362   6.467   9.938   7.770 -0.2389  0.3666 -0.3574
  945MOL0     H30363   6.481   9.884   7.940  0.5818  2.0358 -0.2455
  945MOL0     H30364   6.608   9.681   7.823  0.2972 -0.3638 -0.3865
  945MOL0     H30365   6.596   9.775   7.672  0.6867  1.1429 -0.1190
  945MOL0     H30366   6.821   9.767   7.790  1.2291  0.6776  1.8258
  945MOL0     H30367   6.758   9.937   7.792 -0.2167 -0.3878  0.4199
  945MOL0     H30368   6.769   9.791   8.205 -0.6494  1.1905 -0.8369
  945MOL0     H30369   6.852   9.808   8.421  0.5034  0.7307  1.8218
  945MOL0     H30370   7.002   9.884   8.463  2.1814  0.3205  0.0012
  945MOL0     H30371   6.998   9.712   8.438  2.5782  1.9687  0.2409
  945MOL0     H30372   7.530   9.700   8.112 -2.7411  1.9985 -0.6728
  945MOL0     H30373   7.746   9.673   8.210  0.4831  0.8378 -0.2354
  945MOL0     H30374   7.788   9.834   8.599  2.4991  3.4917  1.1234
  945MOL0     H30375   7.860   9.685   8.533 -0.7747  0.6362 -0.2345
  945MOL0     H30376   8.073   9.794   8.528 -0.0325  2.6528 -1.1855
  945MOL0     H30377   8.011   9.940   8.586  2.3527 -0.5492 -0.8012
  945MOL0     H30378   7.948   9.704   8.768 -0.1943  1.7714  0.9923
  945MOL0     H30379   7.978   9.863   8.807 -1.7976  0.2485 -2.6008
  945MOL0     H30380   8.205   9.699   8.677 -1.7913  3.8826 -2.6521
  945MOL0     H30381   8.155   9.658   8.844  3.6237  0.9322  0.0405
  945MOL0     H30382   8.224   9.934   8.775 -0.2026  0.8194  2.2918
  945MOL0     H30383   8.187   9.869   8.937 -0.3964 -0.9236  0.4190
  945MOL0     H30384   8.377   9.706   8.910  0.6543 -0.9983 -0.7255
  945MOL0     H30385   8.424   9.882   8.936  0.4643  0.0321 -0.1470
  945MOL0     H30386   8.469   9.888   8.695  0.9903  0.0572 -0.1609
  945MOL0     H30387   8.434   9.717   8.685  2.2625  0.3221 -1.2333
  945MOL0     H30388   8.678   9.757   8.698  0.2996  3.6321  0.0175
  945MOL0     H30389   8.620   9.671   8.848 -0.4140  0.7400  0.0712
  945MOL0     H30390   7.668  10.010   8.480 -0.1187 -0.0226 -0.1813
  945MOL0     H30391   7.456  10.040   8.352 -2.1931  0.0427 -1.2719
  945MOL0     H30392   7.205   9.906   8.013 -1.1006  0.3601  0.6853
  945MOL0     H30393   7.000   9.891   7.864 -2.2117 -2.7284 -0.3556
  945MOL0     H30394   5.247  10.294   8.013 -1.4789 -0.1968  1.4546
  945MOL0     H30395   4.997  10.387   8.014  0.2837 -2.7620 -1.0340
  945MOL0     H30396   4.660  10.640   7.535  1.9032  1.3158  0.9559
  945MOL0     H30397   4.424  10.674   7.532 -2.8360 -1.4386 -0.4654
  945MOL0     H30398   4.211  10.643   7.941  2.3733 -1.4656 -1.5588
  945MOL0     H30399   4.070  10.647   7.830 -1.3609 -2.3579  2.9614
  945MOL0     H30400   4.271  10.395   7.832 -0.6572 -1.8574 -1.6331
  945MOL0     H30401   4.157  10.429   7.716  0.4630 -3.0106  0.7272
  945MOL0     H30402   4.141  10.307   7.986  0.1241  1.1894  1.3508
  945MOL0     H30403   4.036  10.446   7.983  0.6666  2.2403 -0.7133
  945MOL0     H30404   3.905  10.352   7.794 -2.7045 -0.3273  2.3292
  945MOL0     H30405   3.915  10.228   7.918 -2.3059 -0.8358 -2.0243
  945MOL0     H30406   4.126  10.090   7.573 -0.5953 -0.5698  0.1554
  945MOL0     H30407   4.403  10.579   7.954 -2.6027 -0.5517 -1.6498
  945MOL0     H30408   4.720  10.594   8.042  1.1843 -0.0275  0.6068
  945MOL0     H30409   4.573  10.495   8.059 -0.2532  1.3744 -0.6304
  945MOL0     H30410   4.701  10.426   7.981 -0.5194 -0.0565  1.9999
  946MOL0     O30411   0.139   4.958   2.810 -0.0510  0.4426 -0.3112
  946MOL0     C30412   0.065   5.013   2.730  0.0962 -0.3063 -0.2713
  946MOL0     O30413  -0.069   5.025   2.754  0.0799  0.0262  0.1919
  946MOL0     C30414  -0.120   4.981   2.878  0.0964 -0.6050 -0.6592
  946MOL0     C30415  -0.134   5.057   2.995 -0.1380  0.0266 -0.3583
  946MOL0     C30416  -0.181   4.997   3.110 -0.6172  0.4673 -0.1149
  946MOL0     C30417  -0.220   4.858   3.103 -0.2876  1.0460 -0.2592
  946MOL0     O30418  -0.267   4.800   3.225 -0.5284 -0.1433  0.1948
  946MOL0     C30419  -0.317   4.666   3.228  0.0589 -0.1917  0.8259
  946MOL0     C30420  -0.384   4.651   3.370  0.0890  0.5288  1.2492
  946MOL0     C30421  -0.285   4.617   3.484  0.4804  0.4208  0.5023
  946MOL0     C30422  -0.337   4.620   3.621  0.2189 -0.2166 -0.2394
  946MOL0     C30423  -0.233   4.602   3.737  0.0113 -0.4667 -0.0102
  946MOL0     C30424  -0.093   4.665   3.715  0.6379  0.2348 -1.0188
  946MOL0     C30425  -0.012   4.655   3.843 -0.1102  0.8775 -0.2651
  946MOL0     C30426  -0.012   4.779   3.941  0.4810  0.6924  0.1743
  946MOL0     N30427   0.076   4.758   4.051 -0.1413  0.0516 -0.2502
  946MOL0     C30428   0.160   4.852   4.098  0.2985 -0.2316 -0.0976
  946MOL0     C30429   0.209   4.803   4.215 -0.1287  0.6989 -0.2409
  946MOL0     C30430   0.315   4.856   4.301  0.2482  0.2791  0.2643
  946MOL0     C30431   0.414   4.941   4.229  0.7779 -0.6758  0.2535
  946MOL0     C30432   0.536   4.954   4.310  0.3937  0.0495  0.2679
  946MOL0     C30433   0.616   5.075   4.259 -0.6621 -0.5277 -0.5373
  946MOL0     O30434   0.751   5.076   4.319  0.5494  0.1943  0.3142
  946MOL0     C30435   0.851   4.993   4.273 -0.0502 -0.0824  1.2912
  946MOL0     C30436   0.965   4.983   4.357  0.3067 -0.0108  0.1756
  946MOL0     C30437   1.075   4.905   4.318 -0.7190  0.5883  0.4315
  946MOL0     C30438   1.204   4.927   4.401 -0.0862  0.6051  0.1957
  946MOL0     C30439   1.071   4.830   4.197  0.7440  0.0266  0.6118
  946MOL0     C30440   1.181   4.738   4.135  0.1588  0.4931 -0.1747
  946MOL0     O30441   1.146   4.651   4.033  0.5268 -0.8974 -1.2011
  946MOL0     C30442   1.242   4.593   3.969  0.4449  0.3492  0.2868
  946MOL0     C30443   1.298   4.671   3.873  0.8242 -0.3359 -0.7757
  946MOL0     C30444   1.392   4.617   3.788 -0.0881  0.2489 -0.1496
  946MOL0     C30445   1.432   4.487   3.791  0.4545  0.1412  0.7392
  946MOL0     O30446   1.522   4.450   3.695 -0.4499 -0.3046 -0.3493
  946MOL0     C30447   1.598   4.337   3.727 -0.1674 -0.1973 -0.3980
  946MOL0     C30448   1.667   4.311   3.603  0.0792  0.9283 -1.0585
  946MOL0     C30449   1.739   4.177   3.602 -0.5805 -1.1060  0.1306
  946MOL0     C30450   1.819   4.164   3.479  0.2627 -0.7163 -1.0294
  946MOL0     C30451   1.892   4.033   3.465  0.6389  0.0726 -0.8844
  946MOL0     C30452   1.797   3.913   3.459 -0.1928  0.1541 -0.2787
  946MOL0     C30453   1.877   3.789   3.482 -0.0254  0.2637 -0.0898
  946MOL0     C30454   1.781   3.676   3.478 -0.4355 -0.2442  0.6569
  946MOL0    Cl30455   1.880   3.519   3.472  0.0487 -0.2468 -0.1650
  946MOL0     C30456   1.368   4.404   3.881  0.9250 -0.2898 -0.6608
  946MOL0     C30457   1.277   4.457   3.974  0.3720 -0.5989  0.2841
  946MOL0     O30458   1.287   4.730   4.198 -0.6710 -0.5546  0.3068
  946MOL0     C30459   0.959   4.843   4.113 -0.5185 -0.0716 -0.4336
  946MOL0     C30460   0.854   4.930   4.145 -0.3500 -0.1339  1.4284
  946MOL0     N30461   0.140   4.685   4.239 -0.5324  0.6821 -0.3588
  946MOL0     N30462   0.056   4.663   4.150  0.1363  0.2570 -0.3990
  946MOL0     C30463  -0.222   4.792   2.987  0.5123  0.3414 -0.3010
  946MOL0     C30464  -0.175   4.857   2.877 -1.3788  0.2690  0.7681
  946MOL0     C30465   0.117   5.068   2.606 -0.7274 -0.4960  0.8264
  946MOL0     C30466   0.034   5.158   2.531  0.8277  0.0461 -0.3323
  946MOL0     C30467   0.074   5.205   2.409  0.3021  0.4355  0.3317
  946MOL0     C30468   0.200   5.179   2.351  0.0837  0.6791  1.4427
  946MOL0     O30469   0.229   5.229   2.225 -0.7586  0.2354 -0.8173
  946MOL0     C30470   0.306   5.147   2.141  0.4445 -0.7237  0.0611
  946MOL0     C30471   0.384   5.232   2.043 -0.7449  0.0645 -0.3302
  946MOL0     C30472   0.489   5.315   2.109 -0.1197 -0.0373 -0.8092
  946MOL0     C30473   0.543   5.425   2.020 -0.3175  0.3590 -0.0943
  946MOL0     C30474   0.666   5.476   2.091  0.5809 -0.5667  0.3112
  946MOL0     C30475   0.747   5.521   2.163  0.5551  0.7296  0.9781
  946MOL0     C30476   0.287   5.101   2.427 -0.1455  0.5265  0.0063
  946MOL0     C30477   0.248   5.046   2.554 -0.0266 -0.4948  1.5715
  946MOL0     C30478   0.357   4.961   2.630  0.1940  0.4032  0.4272
  946MOL0     H30479  -0.095   5.158   2.990 -2.0379  0.8118 -0.3623
  946MOL0     H30480  -0.206   5.061   3.194  1.5678  1.3600 -0.0934
  946MOL0     H30481  -0.234   4.595   3.214 -0.5534 -0.9019  0.7412
  946MOL0     H30482  -0.392   4.657   3.149  1.6365  0.4558 -0.8335
  946MOL0     H30483  -0.424   4.748   3.402 -0.3682  1.2190 -1.1923
  946MOL0     H30484  -0.466   4.579   3.361 -2.9119  3.7782  0.2573
  946MOL0     H30485  -0.246   4.519   3.458 -0.4025  0.0568  0.5131
  946MOL0     H30486  -0.210   4.696   3.480 -0.5973  1.4777  0.3560
  946MOL0     H30487  -0.361   4.727   3.628  3.1735  0.7274 -2.3718
  946MOL0     H30488  -0.427   4.560   3.635 -0.3350 -0.0679 -2.7215
  946MOL0     H30489  -0.221   4.494   3.752 -1.0894 -0.5154  0.5965
  946MOL0     H30490  -0.267   4.644   3.832  0.5647 -1.3570  0.5998
  946MOL0     H30491  -0.045   4.597   3.645  1.0431 -1.5321  0.8740
  946MOL0     H30492  -0.092   4.769   3.681  2.9698  0.5038 -0.2997
  946MOL0     H30493   0.093   4.642   3.819  0.1218  0.5749  0.8551
  946MOL0     H30494  -0.048   4.568   3.900 -0.8118  1.2470 -0.1259
  946MOL0     H30495   0.012   4.864   3.876  0.4269 -0.8436 -1.9654
  946MOL0     H30496  -0.113   4.800   3.977 -0.5122 -1.6859 -0.9825
  946MOL0     H30497   0.196   4.942   4.051 -0.3119  0.8294  1.3976
  946MOL0     H30498   0.377   4.780   4.350 -0.1331 -0.9982 -1.1822
  946MOL0     H30499   0.270   4.920   4.378  0.6426  0.9951 -0.0908
  946MOL0     H30500   0.450   4.891   4.138 -1.7482 -0.1818 -1.0876
  946MOL0     H30501   0.374   5.036   4.195  0.0047 -2.0562 -3.1244
  946MOL0     H30502   0.512   4.969   4.416 -0.0087  0.4264  0.1288
  946MOL0     H30503   0.591   4.861   4.296  0.9207 -0.0229  2.4478
  946MOL0     H30504   0.629   5.076   4.151 -1.6461 -0.6212 -0.6637
  946MOL0     H30505   0.562   5.168   4.280  1.0343 -0.0227  2.2279
  946MOL0     H30506   0.984   5.047   4.443  1.1380  0.1632 -0.1283
  946MOL0     H30507   1.194   5.008   4.474 -1.8305  0.1605  0.5046
  946MOL0     H30508   1.288   4.957   4.338  1.3328  3.8643  3.3390
  946MOL0     H30509   1.225   4.832   4.450 -1.6896  1.0008  1.7479
  946MOL0     H30510   1.279   4.778   3.874  0.1540 -0.4512  0.4391
  946MOL0     H30511   1.433   4.673   3.705 -1.2971 -1.4868 -1.9996
  946MOL0     H30512   1.660   4.359   3.814 -0.0886  0.3336 -0.5852
  946MOL0     H30513   1.540   4.250   3.759 -0.7675  1.5406  4.0124
  946MOL0     H30514   1.591   4.321   3.526 -1.9509  0.3938  0.7878
  946MOL0     H30515   1.744   4.388   3.594 -0.0736  1.4064  1.2015
  946MOL0     H30516   1.663   4.099   3.608  0.2222 -1.9914 -0.8342
  946MOL0     H30517   1.791   4.170   3.699 -0.3265 -0.2937  0.0614
  946MOL0     H30518   1.901   4.236   3.471 -0.4837  0.0719 -1.8126
  946MOL0     H30519   1.749   4.178   3.395 -2.1441  1.1276  1.1180
  946MOL0     H30520   1.954   4.036   3.374  0.2094 -4.3241 -1.5489
  946MOL0     H30521   1.957   4.017   3.551 -0.8417 -0.7292  0.1251
  946MOL0     H30522   1.739   3.916   3.366 -2.0974 -0.4285  0.8357
  946MOL0     H30523   1.716   3.926   3.531 -2.6121  0.1671 -2.7951
  946MOL0     H30524   1.925   3.785   3.581 -2.4638 -5.1336  1.2839
  946MOL0     H30525   1.953   3.776   3.405  0.1981 -1.3188  0.3482
  946MOL0     H30526   1.709   3.685   3.396 -1.3959  0.4867  1.5669
  946MOL0     H30527   1.725   3.666   3.570 -0.3851 -1.0698  0.6055
  946MOL0     H30528   1.395   4.299   3.886 -1.9353 -1.0746 -0.1513
  946MOL0     H30529   1.237   4.381   4.040  0.5887 -1.0330 -0.0805
  946MOL0     H30530   0.952   4.785   4.022  0.6704 -0.0761 -0.5403
  946MOL0     H30531   0.765   4.933   4.083  0.8588  2.1750 -0.3804
  946MOL0     H30532  -0.256   4.689   2.978 -0.3354  0.4850  0.9632
  946MOL0     H30533  -0.180   4.799   2.785  0.1598 -2.5397  2.2926
  946MOL0     H30534  -0.066   5.177   2.567  0.3129 -1.9257 -0.5995
  946MOL0     H30535   0.005   5.276   2.364  0.7442 -0.7032 -2.3598
  946MOL0     H30536   0.369   5.071   2.187  1.2721 -1.2899 -1.8801
  946MOL0     H30537   0.241   5.100   2.066 -0.8572  1.2841 -0.1618
  946MOL0     H30538   0.302   5.294   2.005 -0.0511  1.2737  0.1024
  946MOL0     H30539   0.418   5.172   1.958 -0.9961 -0.7281  0.1207
  946MOL0     H30540   0.449   5.365   2.198 -2.5081 -0.9599 -1.2765
  946MOL0     H30541   0.576   5.261   2.145  1.7727  3.2847 -0.0083
  946MOL0     H30542   0.470   5.506   2.011 -1.6672 -0.5355  1.9867
  946MOL0     H30543   0.577   5.376   1.928  1.2335 -1.0321  1.1675
  946MOL0     H30544   0.834   5.550   2.217  0.7214  1.4968  0.3163
  946MOL0     H30545   0.390   5.086   2.397  0.2235  0.2243  1.3776
  946MOL0     H30546   0.355   4.991   2.736 -0.8965  0.3426  0.4293
  946MOL0     H30547   0.334   4.855   2.626  0.8825  0.2709 -0.4005
  946MOL0     H30548   0.457   4.980   2.589 -0.3501  2.3699 -0.1141
  947MOL0     O30549  11.317   6.435  10.669 -0.2981  1.0966  0.4187
  947MOL0     C30550  11.268   6.424  10.560 -0.0668  1.2155 -1.3905
  947MOL0     O30551  11.324   6.463  10.446  0.3677 -0.0451 -0.3787
  947MOL0     C30552  11.431   6.541  10.429 -0.6823 -0.4868 -0.5498
  947MOL0     C30553  11.556   6.517  10.496 -0.5790 -0.0326 -0.4460
  947MOL0     C30554  11.663   6.593  10.467  0.0847 -0.3154 -0.0770
  947MOL0     C30555  11.648   6.698  10.373  0.4185 -0.1442 -0.1856
  947MOL0     O30556  11.770   6.761  10.354 -0.4159  0.4424 -0.0570
  947MOL0     C30557  11.768   6.883  10.275 -0.0153  0.5560 -0.3329
  947MOL0     C30558  11.704   7.004  10.355  0.2793  0.0825  0.2394
  947MOL0     C30559  11.796   7.048  10.467  0.4323 -0.5342  0.2972
  947MOL0     C30560  11.897   7.159  10.442  0.1469 -0.2634 -0.6768
  947MOL0     C30561  11.899   7.242  10.582 -0.2309  0.4557  0.4959
  947MOL0     C30562  11.923   7.161  10.710  0.4206  0.0088  0.9386
  947MOL0     C30563  11.984   7.246  10.824 -0.2460 -0.0506  0.5347
  947MOL0     C30564  12.042   7.162  10.933 -0.2224  0.0986 -0.3534
  947MOL0     N30565  12.150   7.081  10.884 -0.7484  0.2328 -0.1234
  947MOL0     C30566  12.205   6.970  10.943  0.2116 -0.2786 -0.1732
  947MOL0     C30567  12.312   6.944  10.867  0.8296  0.0279 -0.9495
  947MOL0     C30568  12.409   6.837  10.887  0.2212  0.5061  0.3630
  947MOL0     C30569  12.528   6.888  10.978  0.1753  0.1769 -0.5751
  947MOL0     C30570  12.592   6.778  11.068 -0.9472  0.0674 -0.1445
  947MOL0     C30571  12.695   6.689  10.993 -0.3851 -0.2650 -0.8303
  947MOL0     O30572  12.746   6.595  11.088  0.0813  0.0340 -0.6028
  947MOL0     C30573  12.881   6.571  11.080 -1.1117 -0.7106 -0.6819
  947MOL0     C30574  12.952   6.537  10.961 -0.5260  0.5425  0.5663
  947MOL0     C30575  13.088   6.510  10.956  0.3941  0.4034 -0.3983
  947MOL0     C30576  13.150   6.466  10.820 -0.0765 -0.4386 -0.0800
  947MOL0     C30577  13.172   6.533  11.070  0.0259  0.2585  0.1368
  947MOL0     C30578  13.318   6.522  11.081 -0.3710  0.5803  0.1016
  947MOL0     O30579  13.395   6.499  10.970 -0.5531 -0.7303 -0.1291
  947MOL0     C30580  13.530   6.482  11.001  0.5017  0.0168  0.8250
  947MOL0     C30581  13.578   6.361  11.045 -0.9986 -0.7539 -0.4959
  947MOL0     C30582  13.717   6.347  11.076  0.3685 -0.0274  0.7975
  947MOL0     C30583  13.803   6.454  11.044  0.5445  0.5578 -0.2678
  947MOL0     O30584  13.931   6.429  11.083 -0.0727  0.0500  0.5615
  947MOL0     C30585  14.021   6.525  11.045  0.1103 -0.3412 -0.4400
  947MOL0     C30586  14.154   6.462  11.065 -0.1177  1.1832  0.0585
  947MOL0     C30587  14.270   6.570  11.058  0.5640  0.3434 -0.5427
  947MOL0     C30588  14.401   6.507  11.119 -0.4445 -0.8975 -0.3102
  947MOL0     C30589  14.521   6.599  11.102 -0.1499 -0.9601 -1.5826
  947MOL0     C30590  14.518   6.736  11.181  0.6567 -0.5103 -0.0382
  947MOL0     C30591  14.647   6.816  11.165 -0.3126  0.3298 -1.3452
  947MOL0     C30592  14.679   6.874  11.030  0.7145  0.4667  0.6688
  947MOL0    Cl30593  14.843   6.909  10.996  0.0208  0.2354  0.0550
  947MOL0     C30594  13.751   6.576  10.986 -0.0940  0.2768 -0.3547
  947MOL0     C30595  13.612   6.590  10.964 -0.6087  0.6076 -0.2831
  947MOL0     O30596  13.362   6.552  11.190 -0.6327  0.1505  0.6598
  947MOL0     C30597  13.095   6.561  11.189 -0.8001 -0.3349 -0.5360
  947MOL0     C30598  12.959   6.576  11.189  0.2194 -0.2083 -0.5838
  947MOL0     N30599  12.328   7.038  10.774  0.3951  0.5549  0.3734
  947MOL0     N30600  12.237   7.131  10.787 -0.4572  0.1497  0.0902
  947MOL0     C30601  11.530   6.719  10.307 -1.1862 -0.2476 -0.6350
  947MOL0     C30602  11.424   6.636  10.329  1.0417 -0.0111 -0.1752
  947MOL0     C30603  11.129   6.364  10.550  0.0365 -0.2649 -0.0477
  947MOL0     C30604  11.095   6.313  10.426 -0.0083  0.3095 -0.0080
  947MOL0     C30605  10.970   6.255  10.404 -0.4161 -0.5365 -0.4946
  947MOL0     C30606  10.872   6.244  10.502 -0.0339 -0.0136  0.1946
  947MOL0     O30607  10.749   6.203  10.478 -0.1020 -0.5397 -0.4392
  947MOL0     C30608  10.742   6.059  10.480 -0.6744 -0.4533  0.2460
  947MOL0     C30609  10.600   6.000  10.486  0.4839  0.0150 -0.3553
  947MOL0     C30610  10.630   5.853  10.451 -0.2479 -1.4229 -0.3500
  947MOL0     C30611  10.497   5.776  10.441  0.0263 -0.0199  0.1738
  947MOL0     C30612  10.536   5.638  10.413  0.1764  0.1404  0.4784
  947MOL0     C30613  10.567   5.521  10.383  0.4178 -0.2784  0.0920
  947MOL0     C30614  10.900   6.294  10.624 -1.1058 -0.5245  0.5889
  947MOL0     C30615  11.026   6.350  10.648 -1.0199 -0.1547 -0.1543
  947MOL0     C30616  11.050   6.408  10.781 -0.6316  0.1124  0.0544
  947MOL0     H30617  11.569   6.444  10.575 -0.8975  1.0234  0.6282
  947MOL0     H30618  11.764   6.577  10.502  0.4645  1.9165 -0.0282
  947MOL0     H30619  11.723   6.863  10.178 -0.1590  2.1454 -0.6210
  947MOL0     H30620  11.874   6.910  10.265  0.1650 -0.0264 -0.0862
  947MOL0     H30621  11.691   7.084  10.281  1.9312  1.1333  1.0257
  947MOL0     H30622  11.611   6.966  10.397  0.9934 -3.3586 -0.9714
  947MOL0     H30623  11.721   7.065  10.545  0.8061 -2.7652  1.2391
  947MOL0     H30624  11.845   6.957  10.502 -2.8343 -1.5752  2.6161
  947MOL0     H30625  12.000   7.129  10.419  0.5766  0.4481  0.2543
  947MOL0     H30626  11.865   7.212  10.352 -1.1028 -2.0844 -1.3712
  947MOL0     H30627  11.810   7.304  10.599  1.2403  2.4661  1.2655
  947MOL0     H30628  11.970   7.325  10.573 -1.0823  1.3646  1.7427
  947MOL0     H30629  11.825   7.131  10.749 -0.1301 -0.5995 -0.8419
  947MOL0     H30630  11.977   7.067  10.701  1.2906  0.2269  3.2627
  947MOL0     H30631  11.904   7.312  10.860 -2.3808 -1.4987 -1.2723
  947MOL0     H30632  12.064   7.308  10.783  3.0832 -2.2370  3.2574
  947MOL0     H30633  12.086   7.216  11.017 -1.5051 -1.1495  1.1946
  947MOL0     H30634  11.965   7.095  10.972  0.2190 -1.9458 -2.6944
  947MOL0     H30635  12.176   6.925  11.037 -0.5606 -1.1292 -0.8039
  947MOL0     H30636  12.423   6.792  10.788 -1.5432 -1.5948  0.9728
  947MOL0     H30637  12.353   6.755  10.935  1.1293 -1.4212 -1.6716
  947MOL0     H30638  12.597   6.935  10.908  1.2297  0.7774  0.8260
  947MOL0     H30639  12.497   6.968  11.045 -0.1398 -0.2275 -0.2389
  947MOL0     H30640  12.640   6.820  11.157 -1.8199  0.8349 -0.0280
  947MOL0     H30641  12.509   6.716  11.100 -1.6219 -0.4262 -2.6077
  947MOL0     H30642  12.647   6.626  10.918  0.8253  0.7079 -2.5051
  947MOL0     H30643  12.781   6.739  10.947  1.9499 -3.4682 -0.3012
  947MOL0     H30644  12.903   6.526  10.865  0.5334 -2.8390  0.2914
  947MOL0     H30645  13.070   6.454  10.747  0.6204 -0.2314 -0.8906
  947MOL0     H30646  13.198   6.368  10.827 -2.3145 -1.8367 -2.7279
  947MOL0     H30647  13.223   6.539  10.784  0.1707  0.4044  1.9608
  947MOL0     H30648  13.519   6.271  11.052 -0.4298 -1.4235 -3.1113
  947MOL0     H30649  13.741   6.249  11.115 -4.0720 -1.8378 -0.3079
  947MOL0     H30650  14.018   6.537  10.936 -0.6317 -0.5873 -0.4468
  947MOL0     H30651  14.003   6.616  11.103 -2.1287 -1.2732  0.4309
  947MOL0     H30652  14.163   6.417  11.165  1.4919 -1.7239 -1.2496
  947MOL0     H30653  14.176   6.374  11.003 -1.3329  0.4387  0.6507
  947MOL0     H30654  14.240   6.657  11.117 -0.5721 -0.4501  0.1018
  947MOL0     H30655  14.290   6.610  10.959 -1.8280  0.1192 -1.1844
  947MOL0     H30656  14.424   6.412  11.070 -2.5178 -1.8583  0.4276
  947MOL0     H30657  14.390   6.475  11.223 -0.9355 -0.3900 -0.1995
  947MOL0     H30658  14.607   6.538  11.131  0.8067  0.6751 -0.8656
  947MOL0     H30659  14.531   6.619  10.995  1.0218 -1.2575 -1.5444
  947MOL0     H30660  14.501   6.713  11.287  3.1260 -2.5528  0.0065
  947MOL0     H30661  14.434   6.797  11.146  0.5061  0.9981  2.6057
  947MOL0     H30662  14.734   6.761  11.205  0.2598  1.3432 -1.1519
  947MOL0     H30663  14.631   6.906  11.226 -2.2185 -0.2966 -0.8650
  947MOL0     H30664  14.616   6.962  11.014  0.4814  0.0012 -1.1380
  947MOL0     H30665  14.652   6.799  10.956 -0.4243  0.6240  0.9160
  947MOL0     H30666  13.822   6.655  10.964  2.6730 -0.6598  4.0023
  947MOL0     H30667  13.582   6.687  10.925 -2.0429  1.4832  2.7041
  947MOL0     H30668  13.138   6.566  11.288 -2.0993 -4.3073  0.3945
  947MOL0     H30669  12.906   6.611  11.277 -0.4652 -1.0637 -0.6402
  947MOL0     H30670  11.536   6.797  10.231  0.8833  0.0378 -0.2518
  947MOL0     H30671  11.331   6.633  10.273  1.4793  0.1975 -0.9373
  947MOL0     H30672  11.165   6.326  10.345  0.0873  0.8307  0.1550
  947MOL0     H30673  10.935   6.206  10.314  0.4336  0.7467 -1.5599
  947MOL0     H30674  10.799   6.038  10.389  2.0669 -3.4112  2.4027
  947MOL0     H30675  10.802   6.020  10.563 -0.3367 -0.3788  0.0400
  947MOL0     H30676  10.535   6.042  10.408  0.3402 -0.2221 -0.3670
  947MOL0     H30677  10.547   6.008  10.581 -2.0030 -0.6429 -1.5833
  947MOL0     H30678  10.673   5.836  10.352  0.4681  0.6743 -0.4391
  947MOL0     H30679  10.700   5.816  10.526 -0.9595  0.0828  1.1201
  947MOL0     H30680  10.431   5.821  10.366  0.4398  0.9484  0.3651
  947MOL0     H30681  10.445   5.775  10.537 -1.6454  0.4962 -0.6806
  947MOL0     H30682  10.606   5.427  10.350 -1.4297 -1.0211 -0.1087
  947MOL0     H30683  10.840   6.305  10.713  1.7310 -0.1827  2.6150
  947MOL0     H30684  10.964   6.395  10.848 -1.8103 -0.0345 -1.4128
  947MOL0     H30685  11.141   6.375  10.831  0.0368 -1.2027 -1.9209
  947MOL0     H30686  11.043   6.517  10.775 -2.9227  0.0324  0.3791
  948MOL0     O30687  10.360   0.430   2.527  0.1191 -0.0788  0.3942
  948MOL0     C30688  10.313   0.526   2.466 -0.7549 -0.0431  0.3233
  948MOL0     O30689  10.386   0.604   2.384  0.0360  0.3931 -0.3005
  948MOL0     C30690  10.513   0.577   2.357 -1.2381 -0.2457  0.6465
  948MOL0     C30691  10.606   0.526   2.441 -0.0925  0.0130 -1.0987
  948MOL0     C30692  10.744   0.502   2.405  0.5944  0.1866 -0.3282
  948MOL0     C30693  10.788   0.536   2.276  0.4493 -1.0552 -0.3556
  948MOL0     O30694  10.923   0.542   2.235  0.5702  0.7180  0.0708
  948MOL0     C30695  11.030   0.551   2.339  0.3776  0.1901 -0.4580
  948MOL0     C30696  11.147   0.496   2.266 -0.7149 -0.5021 -0.4823
  948MOL0     C30697  11.272   0.485   2.364  0.1318  0.0810  0.1592
  948MOL0     C30698  11.399   0.468   2.288 -0.0516  0.4106  0.0774
  948MOL0     C30699  11.517   0.472   2.382  0.7213 -0.4198  0.6459
  948MOL0     C30700  11.644   0.408   2.322  0.9613 -1.1906  0.5644
  948MOL0     C30701  11.740   0.378   2.435  0.2695  0.2628 -0.0306
  948MOL0     C30702  11.886   0.383   2.389 -0.8705 -0.1781 -0.1147
  948MOL0     N30703  11.977   0.350   2.501  0.4377  0.4950 -0.5624
  948MOL0     C30704  12.068   0.250   2.505 -0.2991  0.9159 -0.5339
  948MOL0     C30705  12.152   0.273   2.616  0.0509 -1.5381  0.4800
  948MOL0     C30706  12.253   0.177   2.678  0.2382 -0.6164 -0.3210
  948MOL0     C30707  12.187   0.110   2.802  0.0820 -0.5486 -0.0366
  948MOL0     C30708  12.286   0.021   2.876  0.7605 -0.1637  0.6434
  948MOL0     C30709  12.238  -0.069   2.992 -0.2049  0.4457  0.0596
  948MOL0     O30710  12.348  -0.157   3.024 -0.1198  0.0160 -0.0909
  948MOL0     C30711  12.470  -0.100   3.073 -0.1806 -0.8209  0.5112
  948MOL0     C30712  12.585  -0.156   3.027 -0.1309 -0.8111 -0.1035
  948MOL0     C30713  12.716  -0.109   3.077 -0.5178 -0.3854 -0.2054
  948MOL0     C30714  12.835  -0.184   3.029  0.1345  0.3821  0.3647
  948MOL0     C30715  12.718   0.004   3.173 -0.2072  0.3101  0.6233
  948MOL0     C30716  12.841   0.061   3.227 -0.7286  0.4110  1.4402
  948MOL0     O30717  12.962   0.014   3.181 -0.6521 -0.3786 -0.7026
  948MOL0     C30718  13.077   0.066   3.238  0.0340 -0.5050 -0.1247
  948MOL0     C30719  13.107   0.074   3.379  0.9624  0.2178  0.6451
  948MOL0     C30720  13.231   0.116   3.426 -0.7726 -0.7787 -0.6411
  948MOL0     C30721  13.324   0.165   3.328 -0.2602 -0.7783 -1.4808
  948MOL0     O30722  13.449   0.199   3.372 -0.8894 -0.1096  0.1180
  948MOL0     C30723  13.518   0.311   3.314  0.4480  0.0573 -0.2234
  948MOL0     C30724  13.638   0.328   3.393 -0.4819 -0.3388 -0.0244
  948MOL0     C30725  13.597   0.376   3.539 -0.1196 -0.8437 -0.1153
  948MOL0     C30726  13.710   0.377   3.641  0.2213 -0.6351  0.9108
  948MOL0     C30727  13.816   0.483   3.608 -0.3698 -0.1582  0.3778
  948MOL0     C30728  13.959   0.429   3.645  0.2868  0.1693 -0.0652
  948MOL0     C30729  14.060   0.530   3.663 -0.8062 -0.0463  0.8073
  948MOL0     C30730  14.197   0.455   3.672 -0.6509 -0.8443 -0.6040
  948MOL0    Cl30731  14.324   0.573   3.667  0.1056  0.0609 -0.1749
  948MOL0     C30732  13.293   0.166   3.194  0.0029  0.0943  0.0304
  948MOL0     C30733  13.171   0.113   3.145 -0.9496 -1.1638  0.0652
  948MOL0     O30734  12.831   0.157   3.302  0.3008  0.2066 -0.5624
  948MOL0     C30735  12.592   0.054   3.215 -0.2293 -0.2277  0.0870
  948MOL0     C30736  12.470   0.006   3.164 -0.2735 -0.1736 -0.2714
  948MOL0     N30737  12.104   0.388   2.675 -0.4612  0.1260  0.6735
  948MOL0     N30738  12.004   0.437   2.605  0.2294  0.2065  0.0301
  948MOL0     C30739  10.692   0.587   2.184 -0.1897  0.4251 -0.4044
  948MOL0     C30740  10.559   0.602   2.228 -0.2566 -0.1759  0.5430
  948MOL0     C30741  10.165   0.556   2.493  0.6464  0.3560  0.0515
  948MOL0     C30742  10.117   0.535   2.626 -0.0911 -0.1254  0.1043
  948MOL0     C30743   9.979   0.554   2.655 -0.2226  0.2552  0.3603
  948MOL0     C30744   9.892   0.623   2.569  0.1466  0.3718 -0.0854
  948MOL0     O30745   9.754   0.633   2.578 -0.4729  0.1682 -0.1709
  948MOL0     C30746   9.689   0.564   2.679 -0.4018  0.3044 -0.3479
  948MOL0     C30747   9.539   0.585   2.711 -0.8276 -0.3122 -0.1855
  948MOL0     C30748   9.462   0.549   2.582 -0.6865 -0.1691  0.1135
  948MOL0     C30749   9.425   0.401   2.576  0.4687  0.7121  0.2418
  948MOL0     C30750   9.359   0.379   2.444 -0.7961  0.2495 -1.2028
  948MOL0     C30751   9.311   0.372   2.338  0.1228 -0.4343 -0.0354
  948MOL0     C30752   9.943   0.664   2.443 -0.4092 -0.3953  0.2306
  948MOL0     C30753  10.078   0.634   2.410 -0.3197  0.3097  0.1800
  948MOL0     C30754  10.124   0.665   2.276  0.2113 -0.0790  0.5660
  948MOL0     H30755  10.575   0.503   2.543  0.8010  1.2758 -0.5048
  948MOL0     H30756  10.810   0.463   2.483  0.5424 -0.3190 -0.5299
  948MOL0     H30757  11.008   0.487   2.425  2.0338  2.1558  1.5955
  948MOL0     H30758  11.063   0.652   2.366  0.0322 -0.2597  1.8558
  948MOL0     H30759  11.121   0.392   2.242 -0.6955 -1.9216  4.6230
  948MOL0     H30760  11.169   0.562   2.181 -1.8688  1.6125  0.7903
  948MOL0     H30761  11.279   0.576   2.425 -0.1282  0.0429  0.2506
  948MOL0     H30762  11.260   0.399   2.430  1.4666 -0.6452 -0.5106
  948MOL0     H30763  11.400   0.373   2.234  2.6128  0.1527  0.4428
  948MOL0     H30764  11.418   0.543   2.210  0.3231 -1.0302 -1.2639
  948MOL0     H30765  11.496   0.424   2.478 -0.3914  1.7596  1.5430
  948MOL0     H30766  11.539   0.574   2.413 -3.0043  0.0404  2.2781
  948MOL0     H30767  11.619   0.327   2.254  0.3403  0.2118 -0.9407
  948MOL0     H30768  11.673   0.490   2.256 -2.8272 -2.6828 -3.4296
  948MOL0     H30769  11.716   0.280   2.476  0.6728 -0.7105 -2.0042
  948MOL0     H30770  11.729   0.443   2.523 -0.5409 -0.3050  0.2974
  948MOL0     H30771  11.913   0.342   2.291  0.1928  0.5647 -0.1527
  948MOL0     H30772  11.902   0.490   2.372 -0.2782 -0.4798 -1.6749
  948MOL0     H30773  12.071   0.160   2.443  0.4583 -0.7719  1.8040
  948MOL0     H30774  12.341   0.236   2.705 -0.4644  1.2078 -1.7888
  948MOL0     H30775  12.283   0.099   2.606 -0.9164  0.3950 -1.9789
  948MOL0     H30776  12.143   0.188   2.865 -3.3885 -3.1701  1.1290
  948MOL0     H30777  12.101   0.055   2.764 -0.4466 -0.6576  1.2841
  948MOL0     H30778  12.344  -0.046   2.811  2.6844  0.7144  1.3713
  948MOL0     H30779  12.366   0.084   2.915  0.9341 -0.5527  0.9186
  948MOL0     H30780  12.211  -0.004   3.076 -2.5218  0.5975 -0.7447
  948MOL0     H30781  12.151  -0.130   2.968  1.1873 -0.9667 -1.7268
  948MOL0     H30782  12.571  -0.239   2.958 -0.9635  0.6988 -1.8211
  948MOL0     H30783  12.906  -0.212   3.108 -2.5394  0.6094  3.0530
  948MOL0     H30784  12.891  -0.121   2.960 -0.8321  2.0991  1.0691
  948MOL0     H30785  12.800  -0.273   2.975  1.1977 -0.9102  1.7340
  948MOL0     H30786  13.034   0.056   3.457  0.1308  2.5025  0.4768
  948MOL0     H30787  13.262   0.111   3.530 -1.0670  1.0261 -0.4441
  948MOL0     H30788  13.544   0.308   3.207  1.4540  0.5651  0.0020
  948MOL0     H30789  13.465   0.406   3.325  1.0971  0.2876  1.0095
  948MOL0     H30790  13.689   0.232   3.395  0.5235  0.0859 -2.2395
  948MOL0     H30791  13.700   0.409   3.353  1.5561 -2.0152 -0.4490
  948MOL0     H30792  13.524   0.309   3.585  1.5272 -1.0276  2.4670
  948MOL0     H30793  13.559   0.477   3.526 -0.1952 -0.6768  1.2985
  948MOL0     H30794  13.757   0.278   3.639 -2.7105 -2.2492 -2.9087
  948MOL0     H30795  13.666   0.402   3.738 -1.5135  1.3799 -0.3036
  948MOL0     H30796  13.809   0.518   3.504 -0.5146 -0.9619  0.1103
  948MOL0     H30797  13.802   0.574   3.666 -3.1344 -0.1859 -0.0909
  948MOL0     H30798  13.979   0.359   3.564  0.5907  0.1308  0.0409
  948MOL0     H30799  13.961   0.369   3.737 -1.6401  4.4779  3.1436
  948MOL0     H30800  14.056   0.583   3.759 -1.6731 -1.1937  1.4232
  948MOL0     H30801  14.061   0.599   3.578 -2.4833  2.9030  2.9602
  948MOL0     H30802  14.212   0.382   3.591  1.0907 -2.0806  0.7819
  948MOL0     H30803  14.202   0.404   3.768  0.6169 -1.9436 -1.2241
  948MOL0     H30804  13.355   0.186   3.107 -1.0181 -2.4333 -1.3902
  948MOL0     H30805  13.163   0.082   3.042 -1.0545  0.8900 -0.5872
  948MOL0     H30806  12.591   0.137   3.285 -3.7578 -1.0121  1.1829
  948MOL0     H30807  12.377   0.052   3.196 -1.2604 -0.6681 -2.2437
  948MOL0     H30808  10.722   0.598   2.080 -1.8324  0.2599 -0.9218
  948MOL0     H30809  10.485   0.625   2.152  0.1286  0.3629  0.3235
  948MOL0     H30810  10.189   0.503   2.701  0.5460 -0.4870 -0.6498
  948MOL0     H30811   9.942   0.516   2.750 -1.7802  0.7349 -0.0130
  948MOL0     H30812   9.703   0.457   2.661 -2.2019  0.1682 -1.1545
  948MOL0     H30813   9.739   0.588   2.774 -1.0505 -0.2639  0.1422
  948MOL0     H30814   9.525   0.691   2.737  1.1906 -0.4542  1.8936
  948MOL0     H30815   9.505   0.523   2.794  1.2240 -0.5477  0.5428
  948MOL0     H30816   9.373   0.608   2.559 -0.4694 -0.9693 -3.2649
  948MOL0     H30817   9.526   0.557   2.494 -2.5107  0.9290 -1.1795
  948MOL0     H30818   9.349   0.393   2.654 -0.5059  0.9620 -0.6578
  948MOL0     H30819   9.509   0.330   2.585 -0.3617 -0.2057  0.9620
  948MOL0     H30820   9.273   0.370   2.238  1.9085 -0.7349 -0.7528
  948MOL0     H30821   9.872   0.692   2.366  1.0222  0.4966 -0.8425
  948MOL0     H30822  10.182   0.758   2.275 -2.1860  1.4890 -0.7860
  948MOL0     H30823  10.181   0.587   2.225 -0.0968  0.7083 -1.0313
  948MOL0     H30824  10.040   0.676   2.208  0.2058 -1.8531  0.2498
  949MOL0     O30825   1.327   1.901   4.884  0.2879  0.1970 -0.3341
  949MOL0     C30826   1.238   1.825   4.849 -0.1532 -0.2016 -1.0737
  949MOL0     O30827   1.251   1.689   4.850 -0.5338  0.7953 -0.1312
  949MOL0     C30828   1.379   1.633   4.859  0.4148 -0.3864 -0.0849
  949MOL0     C30829   1.386   1.500   4.895  0.1810  0.7074 -0.3004
  949MOL0     C30830   1.511   1.434   4.908 -0.1535  0.8225  0.2821
  949MOL0     C30831   1.627   1.490   4.858 -0.3797  0.3053  0.4285
  949MOL0     O30832   1.744   1.416   4.863  0.5974  0.2524  0.9153
  949MOL0     C30833   1.858   1.481   4.912 -0.2950 -0.3074 -0.4977
  949MOL0     C30834   1.979   1.450   4.822 -1.0595  0.0210 -0.4174
  949MOL0     C30835   2.044   1.309   4.859  0.3379  0.2790 -0.0119
  949MOL0     C30836   2.106   1.236   4.740  0.4821 -0.2242  0.5745
  949MOL0     C30837   2.180   1.109   4.774  0.8716  0.8230 -0.3063
  949MOL0     C30838   2.318   1.145   4.856 -0.0782  0.0178  0.2071
  949MOL0     C30839   2.378   1.015   4.884 -0.7265 -0.2973  0.1339
  949MOL0     C30840   2.483   1.040   4.996  0.4703 -0.0701  0.1562
  949MOL0     N30841   2.541   0.914   5.034  0.3835  0.2070  0.1360
  949MOL0     C30842   2.481   0.811   5.104 -0.2803 -0.4042  0.4627
  949MOL0     C30843   2.558   0.705   5.073 -0.3572  0.6821 -0.0458
  949MOL0     C30844   2.517   0.574   5.134  0.2175  0.1026 -0.3484
  949MOL0     C30845   2.630   0.475   5.148 -0.0602  0.2091 -0.4478
  949MOL0     C30846   2.754   0.533   5.225 -0.1971 -0.0151  0.0676
  949MOL0     C30847   2.711   0.589   5.367  0.6337 -0.6405  0.2103
  949MOL0     O30848   2.642   0.496   5.452 -0.1304 -0.2399 -0.0501
  949MOL0     C30849   2.705   0.378   5.487  0.3353 -0.2767 -0.3729
  949MOL0     C30850   2.630   0.262   5.496  0.8025  0.6738 -0.2500
  949MOL0     C30851   2.689   0.129   5.509 -0.4248 -0.0817 -0.0446
  949MOL0     C30852   2.594   0.006   5.513 -0.3108 -1.0439  0.4275
  949MOL0     C30853   2.833   0.125   5.522  0.0352  0.8858  0.4718
  949MOL0     C30854   2.905  -0.008   5.548 -0.1950 -0.6377 -0.3306
  949MOL0     O30855   2.835  -0.118   5.581  1.6394  0.2051  0.1637
  949MOL0     C30856   2.895  -0.244   5.612 -0.2814 -0.9652  0.1934
  949MOL0     C30857   3.030  -0.260   5.658 -0.4316 -0.6845  0.1150
  949MOL0     C30858   3.096  -0.380   5.682  1.1058 -0.2791  0.5303
  949MOL0     C30859   3.022  -0.498   5.667 -0.1457 -0.6493  0.9180
  949MOL0     O30860   3.065  -0.623   5.703 -0.2756  0.0634  0.9884
  949MOL0     C30861   3.157  -0.637   5.814  0.1792  0.1972  0.6802
  949MOL0     C30862   3.222  -0.777   5.817  0.0047  0.0242  0.1894
  949MOL0     C30863   3.348  -0.809   5.903 -0.0085  0.2956  0.4958
  949MOL0     C30864   3.470  -0.730   5.870 -0.4484  0.2276 -0.3744
  949MOL0     C30865   3.575  -0.757   5.985 -0.1464 -0.2243  0.3485
  949MOL0     C30866   3.712  -0.702   5.954 -0.6138  0.7110 -0.1690
  949MOL0     C30867   3.802  -0.751   6.065 -0.4116 -0.2737 -0.2032
  949MOL0     C30868   3.933  -0.675   6.063 -0.6951 -0.1514 -0.7268
  949MOL0    Cl30869   4.049  -0.740   6.190 -0.0334 -0.2706 -0.2885
  949MOL0     C30870   2.890  -0.490   5.624 -0.2782 -0.4335  0.3307
  949MOL0     C30871   2.826  -0.370   5.600 -0.9951 -0.4890  0.2385
  949MOL0     O30872   3.025  -0.006   5.529 -0.7711  0.2331 -0.4045
  949MOL0     C30873   2.906   0.241   5.501 -0.3326  0.2675  0.9659
  949MOL0     C30874   2.842   0.364   5.477  0.0900  0.1175  0.4730
  949MOL0     N30875   2.652   0.742   4.981 -0.4839 -0.3127  0.0558
  949MOL0     N30876   2.644   0.868   4.968 -0.2791 -0.4460  0.1291
  949MOL0     C30877   1.624   1.625   4.813  0.0903 -0.5266 -0.4674
  949MOL0     C30878   1.501   1.691   4.816 -0.1655 -0.0476 -0.5191
  949MOL0     C30879   1.112   1.877   4.807  0.3309 -0.1704  0.7989
  949MOL0     C30880   1.108   2.006   4.758 -0.6610  0.0012 -0.2215
  949MOL0     C30881   0.991   2.060   4.709  1.2383 -0.0903  0.1745
  949MOL0     C30882   0.867   1.987   4.697 -0.1039  0.1969  0.9327
  949MOL0     O30883   0.756   2.061   4.648  0.2505 -0.1562  0.6727
  949MOL0     C30884   0.625   1.996   4.658  0.4232  0.2245  0.5324
  949MOL0     C30885   0.556   2.017   4.800  0.5170 -0.6221 -0.4141
  949MOL0     C30886   0.528   2.168   4.823 -0.2513  0.2279 -0.7984
  949MOL0     C30887   0.602   2.221   4.954 -0.1545  0.8143 -0.8968
  949MOL0     C30888   0.550   2.351   4.984 -0.5119 -0.0224  0.3613
  949MOL0     C30889   0.526   2.471   5.002 -1.0283  0.5997 -0.2010
  949MOL0     C30890   0.864   1.867   4.751 -1.2221  1.3882 -0.0747
  949MOL0     C30891   0.987   1.814   4.799 -0.5700 -0.0265 -0.4826
  949MOL0     C30892   0.970   1.674   4.853 -0.0083  0.5497  0.7716
  949MOL0     H30893   1.292   1.450   4.911  1.5832 -1.7083  1.0281
  949MOL0     H30894   1.515   1.335   4.952 -0.3728  1.0637  0.8571
  949MOL0     H30895   1.869   1.457   5.019 -3.7550  0.2627  0.0954
  949MOL0     H30896   1.852   1.589   4.903  0.7486 -0.3232 -1.5134
  949MOL0     H30897   1.954   1.458   4.716  1.7407  1.9434 -1.0730
  949MOL0     H30898   2.043   1.536   4.844 -1.6407  0.4673 -0.4736
  949MOL0     H30899   2.126   1.329   4.929  0.4735  0.5692 -0.2492
  949MOL0     H30900   1.965   1.257   4.913 -0.4272  1.0436 -0.3780
  949MOL0     H30901   2.026   1.210   4.669 -1.1890  2.3209  1.3994
  949MOL0     H30902   2.179   1.289   4.678  0.9801 -1.3684  0.1555
  949MOL0     H30903   2.208   1.051   4.686  0.3685 -3.9452  2.3137
  949MOL0     H30904   2.121   1.045   4.839  0.8635  2.0056  0.8966
  949MOL0     H30905   2.377   1.203   4.785  0.1528 -2.2032 -1.5550
  949MOL0     H30906   2.288   1.204   4.943 -0.3798 -3.3675  2.6080
  949MOL0     H30907   2.434   0.979   4.797 -1.2450  1.6214 -1.0635
  949MOL0     H30908   2.301   0.942   4.911 -0.4310 -1.7018 -2.5156
  949MOL0     H30909   2.556   1.107   4.949  1.7381 -1.1498  0.5435
  949MOL0     H30910   2.447   1.092   5.085 -0.4387 -0.8407  0.2526
  949MOL0     H30911   2.400   0.828   5.173 -2.1575  1.6331 -2.0190
  949MOL0     H30912   2.439   0.536   5.067 -2.8465  2.0292  1.8438
  949MOL0     H30913   2.468   0.604   5.227  2.3630  4.0702 -0.2790
  949MOL0     H30914   2.598   0.382   5.197 -0.8325  0.8008  0.1923
  949MOL0     H30915   2.663   0.444   5.048  4.0265  2.1310  0.1149
  949MOL0     H30916   2.831   0.456   5.234  0.1668  0.4547  1.2416
  949MOL0     H30917   2.787   0.621   5.168 -1.8624 -0.1399 -1.1419
  949MOL0     H30918   2.795   0.643   5.413  0.0886 -0.3956  0.9411
  949MOL0     H30919   2.641   0.672   5.355 -1.0812 -2.0635  0.0538
  949MOL0     H30920   2.523   0.277   5.491  0.5687 -0.9608 -0.6359
  949MOL0     H30921   2.602  -0.051   5.420  0.5336 -0.0399 -0.1295
  949MOL0     H30922   2.491   0.042   5.520 -0.1248 -0.4770  0.2624
  949MOL0     H30923   2.610  -0.057   5.602  2.7579 -2.6277 -1.0765
  949MOL0     H30924   3.090  -0.171   5.677 -1.3676  0.0154 -0.1042
  949MOL0     H30925   3.196  -0.379   5.723  0.2883  0.8470  2.6731
  949MOL0     H30926   3.237  -0.563   5.805  1.5245 -1.3668 -0.9863
  949MOL0     H30927   3.105  -0.622   5.909  0.0282 -2.7462  1.1567
  949MOL0     H30928   3.145  -0.848   5.848  1.1885 -0.1223  3.0833
  949MOL0     H30929   3.249  -0.807   5.715  0.6668  0.5408  0.2092
  949MOL0     H30930   3.374  -0.914   5.887  2.8762  1.1349 -0.9974
  949MOL0     H30931   3.326  -0.802   6.010 -0.1240 -1.4738  0.6217
  949MOL0     H30932   3.449  -0.623   5.862  0.4518  0.5845  1.5708
  949MOL0     H30933   3.518  -0.762   5.777 -0.3429  0.1721 -0.3018
  949MOL0     H30934   3.548  -0.703   6.076  0.9616  1.6014 -0.3528
  949MOL0     H30935   3.584  -0.864   6.003  0.7135 -0.3547 -0.7493
  949MOL0     H30936   3.711  -0.593   5.940  0.9663  0.5998 -1.5332
  949MOL0     H30937   3.748  -0.740   5.858  0.2344  2.8803 -0.7803
  949MOL0     H30938   3.832  -0.854   6.048  1.6781  0.2641 -0.0253
  949MOL0     H30939   3.754  -0.752   6.164 -0.0580  1.6940  0.0325
  949MOL0     H30940   3.910  -0.572   6.091 -2.0275 -0.5435 -0.2808
  949MOL0     H30941   3.969  -0.670   5.960  0.4156  1.8464 -0.2847
  949MOL0     H30942   2.839  -0.584   5.607  1.0302 -1.3857  1.3922
  949MOL0     H30943   2.719  -0.375   5.583 -0.8559 -2.8220 -0.3406
  949MOL0     H30944   3.014   0.244   5.509 -0.3915  2.3230  1.5866
  949MOL0     H30945   2.904   0.453   5.473  1.3802 -0.7761 -1.1459
  949MOL0     H30946   1.706   1.678   4.766 -0.4119  0.1026 -0.6389
  949MOL0     H30947   1.497   1.788   4.768 -1.5384 -1.9061 -4.6469
  949MOL0     H30948   1.199   2.065   4.759 -0.2881 -0.5728  0.5576
  949MOL0     H30949   1.009   2.163   4.678  3.2886 -0.7668 -1.0948
  949MOL0     H30950   0.563   2.044   4.582  0.2523  1.0509  1.1779
  949MOL0     H30951   0.639   1.891   4.632 -3.4209 -0.2927  0.0357
  949MOL0     H30952   0.619   1.985   4.884  0.5568  2.0545  0.6538
  949MOL0     H30953   0.462   1.961   4.798  0.5117 -0.6623  0.6108
  949MOL0     H30954   0.554   2.227   4.735  2.0334 -2.2569 -1.9195
  949MOL0     H30955   0.420   2.170   4.842  0.0473  1.5294  1.0335
  949MOL0     H30956   0.705   2.223   4.917 -0.1480 -1.2664 -1.1390
  949MOL0     H30957   0.595   2.145   5.032 -1.3180  1.5316 -0.2920
  949MOL0     H30958   0.512   2.577   5.006 -0.7544  0.6477 -0.5641
  949MOL0     H30959   0.772   1.811   4.744 -1.7497  2.0071  1.4477
  949MOL0     H30960   1.027   1.663   4.945  1.3223  1.3305  0.0675
  949MOL0     H30961   0.866   1.647   4.875 -0.1900 -0.9925 -1.5641
  949MOL0     H30962   1.024   1.602   4.790  0.7300 -0.0664  2.0718
  950MOL0     O30963   7.756   0.732   9.014 -0.1243  0.5399 -0.3473
  950MOL0     C30964   7.698   0.836   9.035  0.1653  0.4724 -0.8908
  950MOL0     O30965   7.624   0.866   9.143  0.5081 -0.4050  0.3954
  950MOL0     C30966   7.606   0.790   9.249 -0.1288 -0.4220  0.3956
  950MOL0     C30967   7.477   0.761   9.293  0.2305  0.1094  0.1664
  950MOL0     C30968   7.463   0.686   9.414  0.7412 -0.1091  0.7305
  950MOL0     C30969   7.579   0.645   9.491  0.2697  0.5603  0.3867
  950MOL0     O30970   7.566   0.570   9.605  0.0285 -0.1319 -1.0754
  950MOL0     C30971   7.436   0.568   9.671 -0.5569 -0.1726  0.4971
  950MOL0     C30972   7.441   0.477   9.791 -0.4191  0.8319 -0.2984
  950MOL0     C30973   7.306   0.438   9.861  0.2452 -1.1815  0.6395
  950MOL0     C30974   7.250   0.312   9.788  0.1007  0.7519 -0.5413
  950MOL0     C30975   7.328   0.178   9.795  0.8602 -0.7072 -0.6653
  950MOL0     C30976   7.377   0.140   9.935  0.0359  0.3945  0.1016
  950MOL0     C30977   7.446   0.002   9.935  0.1407  0.0226 -0.2589
  950MOL0     C30978   7.353  -0.119   9.933  0.4948 -0.7640  0.0943
  950MOL0     N30979   7.429  -0.231   9.984  0.0182 -0.2583  0.2203
  950MOL0     C30980   7.522  -0.283   9.909 -0.0473 -0.4563 -0.5416
  950MOL0     C30981   7.578  -0.392   9.980  0.2010  0.1853  0.5283
  950MOL0     C30982   7.677  -0.487   9.939 -1.7076  0.5357 -0.3282
  950MOL0     C30983   7.816  -0.433   9.966  0.8107 -0.4367  0.4471
  950MOL0     C30984   7.903  -0.541  10.021 -0.0792  0.1730 -0.0062
  950MOL0     C30985   8.029  -0.469  10.072  0.4132 -0.2378 -0.5685
  950MOL0     O30986   8.124  -0.443   9.966 -0.7374 -0.2914  0.1558
  950MOL0     C30987   8.225  -0.355   9.996 -0.2456 -0.1131  0.3865
  950MOL0     C30988   8.226  -0.269  10.110  0.4927 -1.1484  0.4957
  950MOL0     C30989   8.332  -0.172  10.117 -0.6156 -0.5857 -0.1255
  950MOL0     C30990   8.321  -0.063  10.227 -0.4302 -0.0645 -0.0379
  950MOL0     C30991   8.436  -0.176  10.020 -0.3369  0.2782  0.4618
  950MOL0     C30992   8.550  -0.074  10.014  0.2880  0.1679  0.5121
  950MOL0     O30993   8.630  -0.080   9.902  0.5824  0.5704 -0.1854
  950MOL0     C30994   8.751  -0.011   9.910 -0.9296  0.4495  0.2954
  950MOL0     C30995   8.777   0.118   9.853  0.2291  0.2558  0.1870
  950MOL0     C30996   8.908   0.168   9.850  0.2986  0.1656 -0.4226
  950MOL0     C30997   9.011   0.094   9.901  0.3834  0.1726 -0.9502
  950MOL0     O30998   9.135   0.160   9.904 -0.0962  0.5159  0.2625
  950MOL0     C30999   9.246   0.075   9.917 -0.0698  0.2279  0.2847
  950MOL0     C31000   9.364   0.143   9.851 -0.0629 -0.5861 -0.1266
  950MOL0     C31001   9.481   0.047   9.858  0.2153  0.1865 -0.0005
  950MOL0     C31002   9.615   0.113   9.852  0.2743 -0.1460 -0.1639
  950MOL0     C31003   9.731   0.015   9.839 -0.2777 -0.5600  0.3680
  950MOL0     C31004   9.846   0.034   9.941 -0.8067  0.0987 -0.2405
  950MOL0     C31005   9.954  -0.064   9.904  0.2766  0.3436  0.3471
  950MOL0     C31006  10.001  -0.145  10.023 -0.2239  0.3340 -0.2731
  950MOL0    Cl31007  10.149  -0.246   9.993  0.0118 -0.0194 -0.2017
  950MOL0     C31008   8.986  -0.039   9.944 -0.0951  0.5388  0.1122
  950MOL0     C31009   8.858  -0.085   9.960  0.7380  0.1783 -0.1498
  950MOL0     O31010   8.565   0.003  10.109  0.1196  0.2450  0.4924
  950MOL0     C31011   8.438  -0.271   9.916  0.1975 -0.6484  0.0753
  950MOL0     C31012   8.329  -0.359   9.906 -0.4457  0.1846 -0.4118
  950MOL0     N31013   7.516  -0.390  10.108  0.2401  0.0050 -0.0329
  950MOL0     N31014   7.428  -0.290  10.101 -0.3714 -0.3240  0.2019
  950MOL0     C31015   7.702   0.669   9.438  0.0889  0.9291  0.4202
  950MOL0     C31016   7.720   0.737   9.318  0.1228  1.1639  0.2251
  950MOL0     C31017   7.715   0.952   8.944 -0.1459  1.1248 -0.2931
  950MOL0     C31018   7.620   1.058   8.943  0.4652 -1.1212  0.9569
  950MOL0     C31019   7.629   1.163   8.852 -0.7188 -0.6800  0.1536
  950MOL0     C31020   7.724   1.156   8.747  0.5950 -0.3376 -0.4374
  950MOL0     O31021   7.736   1.244   8.645 -0.0559 -0.4049  1.0109
  950MOL0     C31022   7.617   1.311   8.593  0.3076 -0.9824 -0.0718
  950MOL0     C31023   7.621   1.328   8.440 -1.0202  0.1662  0.0156
  950MOL0     C31024   7.613   1.189   8.370  0.1507 -1.1045  0.5264
  950MOL0     C31025   7.680   1.197   8.231  0.9823  0.3929 -0.5584
  950MOL0     C31026   7.671   1.060   8.172 -1.2181  0.6072  0.4018
  950MOL0     C31027   7.684   0.947   8.128  0.3739 -0.0799  0.7650
  950MOL0     C31028   7.814   1.050   8.744 -0.1396  0.2265 -0.3164
  950MOL0     C31029   7.812   0.945   8.843  0.1445  0.0548  0.7960
  950MOL0     C31030   7.938   0.857   8.846  0.7778  0.3504 -1.3394
  950MOL0     H31031   7.396   0.788   9.226 -0.7878 -0.4194  1.1565
  950MOL0     H31032   7.358   0.672   9.440  0.0865 -0.8074 -1.9593
  950MOL0     H31033   7.356   0.533   9.605  0.2535  0.4746 -0.8817
  950MOL0     H31034   7.406   0.664   9.712  0.9605  0.1369  0.9500
  950MOL0     H31035   7.497   0.389   9.757 -0.1191  0.5871  0.8045
  950MOL0     H31036   7.494   0.537   9.866 -2.6793  3.9185 -0.9973
  950MOL0     H31037   7.312   0.431   9.970  2.3768 -0.8322  0.5890
  950MOL0     H31038   7.243   0.524   9.839 -0.1320 -0.9458  2.4956
  950MOL0     H31039   7.151   0.285   9.826  0.8017 -2.0644 -0.4920
  950MOL0     H31040   7.248   0.322   9.679  4.9000 -0.8242 -1.0029
  950MOL0     H31041   7.413   0.194   9.727 -0.2327  2.1597 -1.5152
  950MOL0     H31042   7.259   0.104   9.754 -1.2826  0.8119  0.0494
  950MOL0     H31043   7.454   0.208   9.973 -0.0201  0.8787 -0.6409
  950MOL0     H31044   7.290   0.141  10.001  0.1456  2.4935  0.2765
  950MOL0     H31045   7.501  -0.005  10.030  0.0428  0.4013 -0.1724
  950MOL0     H31046   7.520   0.000   9.855  0.2764  1.4933 -0.1976
  950MOL0     H31047   7.257  -0.112   9.984 -0.8351 -0.5080 -2.3141
  950MOL0     H31048   7.334  -0.131   9.826 -0.4168  2.6306 -0.2278
  950MOL0     H31049   7.541  -0.258   9.805  1.5054  0.8320  0.0164
  950MOL0     H31050   7.668  -0.511   9.832 -1.6431 -1.3023  0.0344
  950MOL0     H31051   7.654  -0.574  10.002  0.5193  2.8812  4.1937
  950MOL0     H31052   7.855  -0.393   9.872 -0.8477 -2.5298 -1.2469
  950MOL0     H31053   7.803  -0.345  10.030 -0.4111 -0.8965  0.8652
  950MOL0     H31054   7.848  -0.589  10.102  4.2950  2.1696  4.6983
  950MOL0     H31055   7.926  -0.615   9.944 -2.7688 -0.3644 -0.3957
  950MOL0     H31056   8.002  -0.373  10.118  1.5960 -1.0988  2.1047
  950MOL0     H31057   8.065  -0.525  10.158  1.2456  4.1163  2.2747
  950MOL0     H31058   8.143  -0.260  10.179 -0.9720 -3.2561 -0.8614
  950MOL0     H31059   8.417  -0.029  10.268  0.7250  0.9632 -3.2386
  950MOL0     H31060   8.262  -0.100  10.312  0.4753  0.5846  0.9014
  950MOL0     H31061   8.266   0.017  10.176 -1.7234 -0.5522  0.5449
  950MOL0     H31062   8.688   0.153   9.801 -0.5165 -1.4945  0.1899
  950MOL0     H31063   8.925   0.267   9.809  0.1789 -1.0120 -3.6153
  950MOL0     H31064   9.264   0.065  10.024 -0.3065  0.7034  0.3730
  950MOL0     H31065   9.241  -0.023   9.870  5.1499  0.3826 -1.1682
  950MOL0     H31066   9.351   0.171   9.746 -1.2706  2.0638  0.6473
  950MOL0     H31067   9.384   0.231   9.914  0.9638 -1.1342  0.3441
  950MOL0     H31068   9.483  -0.027   9.778  3.9292 -0.6937  0.6913
  950MOL0     H31069   9.475  -0.020   9.945 -0.5686  0.5980  0.2665
  950MOL0     H31070   9.629   0.169   9.945 -0.7904  1.5248 -0.9457
  950MOL0     H31071   9.613   0.180   9.765 -0.3843  0.3085  0.1972
  950MOL0     H31072   9.692  -0.086   9.847  1.1032 -1.2786 -1.3712
  950MOL0     H31073   9.780   0.031   9.743  0.6266  2.3224  1.1859
  950MOL0     H31074   9.805   0.020  10.041  1.2678  1.1264  0.7996
  950MOL0     H31075   9.893   0.132   9.937 -2.2714  0.7906 -1.0576
  950MOL0     H31076  10.043  -0.021   9.857 -0.3269  0.0042 -1.1406
  950MOL0     H31077   9.924  -0.137   9.828 -0.2417  0.5674  0.3341
  950MOL0     H31078   9.925  -0.219  10.052  3.2239 -2.6712  2.0357
  950MOL0     H31079  10.025  -0.086  10.112  1.2550 -3.6563  2.2456
  950MOL0     H31080   9.059  -0.112   9.976 -1.6223 -1.0549  0.0722
  950MOL0     H31081   8.845  -0.188   9.993 -3.1349  1.0913  1.8300
  950MOL0     H31082   8.523  -0.285   9.849  1.0585 -0.6855  1.1436
  950MOL0     H31083   8.326  -0.437   9.831 -0.2288  0.0141 -0.2427
  950MOL0     H31084   7.790   0.655   9.500  0.3413  0.2838 -0.0834
  950MOL0     H31085   7.823   0.754   9.287  1.2252 -2.9481  1.0189
  950MOL0     H31086   7.535   1.053   9.011 -2.1550 -2.6043 -2.1531
  950MOL0     H31087   7.556   1.243   8.859  1.0373  0.9366  1.0395
  950MOL0     H31088   7.523   1.258   8.613  0.4934 -1.0577  0.6463
  950MOL0     H31089   7.617   1.412   8.636  2.4202 -1.1303  0.3741
  950MOL0     H31090   7.717   1.377   8.422 -0.2113 -0.9758  1.0215
  950MOL0     H31091   7.534   1.389   8.413 -1.0732  0.2971  0.4810
  950MOL0     H31092   7.658   1.110   8.430  0.5304 -1.1076  0.2460
  950MOL0     H31093   7.511   1.155   8.352 -0.5987  0.7968  0.9682
  950MOL0     H31094   7.783   1.229   8.245  0.8430  0.8382 -0.5277
  950MOL0     H31095   7.624   1.274   8.178 -3.0977  0.7380  3.5850
  950MOL0     H31096   7.689   0.849   8.086 -0.0767  0.5204 -0.7557
  950MOL0     H31097   7.880   1.057   8.658 -1.3606 -1.1986 -1.4259
  950MOL0     H31098   7.910   0.753   8.826 -2.9868  1.2068 -1.3068
  950MOL0     H31099   8.011   0.904   8.780  0.2829  1.7996 -0.8961
  950MOL0     H31100   7.984   0.863   8.946  0.2419 -0.7078 -1.0188
  951MOL0     O31101   1.502  10.961   7.164  0.3211  0.4216 -0.4078
  951MOL0     C31102   1.385  10.942   7.198 -0.1828 -0.1512 -0.0767
  951MOL0     O31103   1.340  10.964   7.330 -0.0216 -0.0066  0.0451
  951MOL0     C31104   1.432  10.996   7.437  0.2520 -0.3033 -0.4414
  951MOL0     C31105   1.565  10.949   7.449  0.1987  0.2025  0.3349
  951MOL0     C31106   1.647  10.998   7.550 -0.3802 -0.3651  0.1667
  951MOL0     C31107   1.611  11.101   7.640  0.4721 -1.0067  0.0905
  951MOL0     O31108   1.692  11.139   7.741 -0.7959  0.2564 -0.2253
  951MOL0     C31109   1.633  11.155   7.878 -0.1722  0.1866  0.5475
  951MOL0     C31110   1.726  11.116   7.993  0.1010 -0.9438 -0.2205
  951MOL0     C31111   1.849  11.213   7.982 -0.3035 -0.0654 -0.8695
  951MOL0     C31112   1.959  11.167   8.072 -0.2136  0.4806 -0.0588
  951MOL0     C31113   1.966  11.265   8.189  0.4556  0.0360  0.7082
  951MOL0     C31114   1.862  11.247   8.291 -0.2405  0.4676  0.4503
  951MOL0     C31115   1.882  11.332   8.405 -0.3916  0.2497  0.3526
  951MOL0     C31116   1.747  11.390   8.448  0.5702 -0.8830  0.0624
  951MOL0     N31117   1.652  11.287   8.494 -0.1224 -0.4326  0.1920
  951MOL0     C31118   1.675  11.209   8.606  0.6472 -0.0160 -0.3056
  951MOL0     C31119   1.559  11.144   8.632 -0.5773 -0.7239 -0.0527
  951MOL0     C31120   1.552  11.033   8.735 -0.4046 -0.2834  0.7779
  951MOL0     C31121   1.498  11.089   8.874 -0.7148  0.6070  1.4381
  951MOL0     C31122   1.483  10.968   8.986  0.7637 -0.1500 -0.2987
  951MOL0     C31123   1.613  10.932   9.061 -0.7541  0.2000  0.2940
  951MOL0     O31124   1.700  10.875   8.967 -0.2590  0.0740 -0.3594
  951MOL0     C31125   1.823  10.830   9.004  0.9606  0.4420 -0.7033
  951MOL0     C31126   1.873  10.835   9.133  0.1825 -0.7932  0.7774
  951MOL0     C31127   2.001  10.781   9.155  0.8573 -0.0676  0.5030
  951MOL0     C31128   2.057  10.787   9.294 -0.1055 -0.0282  0.0651
  951MOL0     C31129   2.074  10.728   9.046 -0.6568 -0.3037  0.4118
  951MOL0     C31130   2.213  10.654   9.065  0.5106  0.1431 -0.4507
  951MOL0     O31131   2.282  10.636   8.943 -0.5578  0.1065 -0.3671
  951MOL0     C31132   2.410  10.579   8.929  0.4352  0.8795  0.2216
  951MOL0     C31133   2.496  10.546   9.030 -0.1740  0.2652 -0.0855
  951MOL0     C31134   2.627  10.495   8.999 -0.8014 -0.1442  0.3029
  951MOL0     C31135   2.669  10.482   8.861 -0.4125 -0.6713  0.3512
  951MOL0     O31136   2.795  10.444   8.818  0.2680  0.1310 -0.9553
  951MOL0     C31137   2.910  10.460   8.904  0.7212 -0.2310 -0.3109
  951MOL0     C31138   3.047  10.444   8.835  0.2185  0.1695 -0.2908
  951MOL0     C31139   3.158  10.459   8.940  0.3002  0.1069  0.7123
  951MOL0     C31140   3.299  10.417   8.888  0.1111  0.0670 -0.0251
  951MOL0     C31141   3.395  10.436   9.010 -0.4298  0.2302 -0.2499
  951MOL0     C31142   3.543  10.424   8.955 -0.0462  0.1041 -0.2315
  951MOL0     C31143   3.638  10.412   9.075 -0.1343 -0.1946  0.0650
  951MOL0     C31144   3.785  10.424   9.034 -0.6444 -0.2009 -0.6337
  951MOL0    Cl31145   3.831  10.288   8.934 -0.5198 -0.4595 -0.4123
  951MOL0     C31146   2.577  10.519   8.757 -0.1233 -0.0234 -0.0392
  951MOL0     C31147   2.448  10.559   8.793  0.2956 -1.0564  0.9312
  951MOL0     O31148   2.245  10.605   9.173  0.3331  0.5380  0.4315
  951MOL0     C31149   2.022  10.731   8.919  0.3757  0.3149  0.2641
  951MOL0     C31150   1.897  10.786   8.897 -0.3005  0.1614  0.4688
  951MOL0     N31151   1.461  11.189   8.538  0.3015  0.6568 -0.3650
  951MOL0     N31152   1.523  11.274   8.460 -0.0490  0.5116  1.0097
  951MOL0     C31153   1.479  11.140   7.629  0.4433 -1.7576 -0.0136
  951MOL0     C31154   1.391  11.096   7.521  0.8096 -0.1503 -0.0300
  951MOL0     C31155   1.293  10.880   7.093 -0.3898 -0.9562 -0.3470
  951MOL0     C31156   1.180  10.806   7.146  0.1890  0.7477 -0.1412
  951MOL0     C31157   1.088  10.751   7.061  0.6516 -0.1617 -0.3690
  951MOL0     C31158   1.109  10.755   6.926  0.2428  0.5815 -0.4365
  951MOL0     O31159   1.026  10.673   6.847 -0.5835 -0.2572 -1.3777
  951MOL0     C31160   0.904  10.742   6.837  0.1323  1.2004 -0.1267
  951MOL0     C31161   0.784  10.641   6.820 -1.4302 -0.4055  0.0535
  951MOL0     C31162   0.808  10.543   6.703 -0.2920  0.3313  0.2012
  951MOL0     C31163   0.674  10.469   6.677 -0.4853  0.0977  0.5640
  951MOL0     C31164   0.618  10.401   6.793 -0.2398  0.1531  0.4845
  951MOL0     C31165   0.582  10.343   6.894 -0.2210  0.2048  0.8465
  951MOL0     C31166   1.215  10.812   6.870 -0.0309 -0.1389  0.1136
  951MOL0     C31167   1.311  10.883   6.952 -0.5088 -0.5161  0.1306
  951MOL0     C31168   1.415  10.954   6.875 -1.0354  0.6453 -0.1609
  951MOL0     H31169   1.600  10.870   7.383  0.3136  0.2246  0.3703
  951MOL0     H31170   1.748  10.961   7.562  0.5423  0.7315 -3.1013
  951MOL0     H31171   1.546  11.091   7.893 -0.2656 -0.0403 -0.8216
  951MOL0     H31172   1.603  11.258   7.898  0.0601  0.1726  0.9749
  951MOL0     H31173   1.671  11.124   8.087 -2.2592  1.1369 -1.6642
  951MOL0     H31174   1.757  11.012   7.977 -1.0342 -1.2888 -0.2320
  951MOL0     H31175   1.890  11.217   7.880  0.7969 -1.4496 -0.5136
  951MOL0     H31176   1.811  11.311   8.012 -0.2439 -0.0699 -0.7798
  951MOL0     H31177   1.929  11.067   8.104 -3.4801  1.2231 -0.3888
  951MOL0     H31178   2.049  11.156   8.012 -0.6654  0.0078 -0.6636
  951MOL0     H31179   1.955  11.366   8.149 -1.2622 -0.1058  0.7653
  951MOL0     H31180   2.067  11.251   8.231  1.5323  0.5761 -1.5839
  951MOL0     H31181   1.766  11.270   8.245  0.3741 -0.8912 -1.6436
  951MOL0     H31182   1.866  11.145   8.332 -0.9370 -0.5200 -1.7936
  951MOL0     H31183   1.945  11.417   8.378 -0.5388 -0.0502 -1.0019
  951MOL0     H31184   1.924  11.277   8.489 -2.2714 -1.8975 -0.0085
  951MOL0     H31185   1.755  11.452   8.538  0.2210 -0.7618  0.0086
  951MOL0     H31186   1.700  11.447   8.368 -0.3781 -1.5358  0.1453
  951MOL0     H31187   1.771  11.207   8.658  0.1452 -0.3152  0.6227
  951MOL0     H31188   1.652  10.987   8.736 -0.4602 -0.5091 -1.0070
  951MOL0     H31189   1.484  10.957   8.697  0.3278 -0.7219  0.3144
  951MOL0     H31190   1.565  11.164   8.918  1.4256 -0.1919 -0.2840
  951MOL0     H31191   1.400  11.130   8.847 -0.3447  0.6951  0.1935
  951MOL0     H31192   1.405  10.990   9.059  1.6362 -0.6082  0.7969
  951MOL0     H31193   1.442  10.879   8.938 -2.7981  0.5577  1.1401
  951MOL0     H31194   1.673  11.008   9.113  1.7117  0.5251 -2.6848
  951MOL0     H31195   1.585  10.854   9.132 -0.2551  0.1961  0.4938
  951MOL0     H31196   1.827  10.874   9.224  0.2800 -1.9860  1.3615
  951MOL0     H31197   2.044  10.692   9.346  0.3376  0.2967  0.7792
  951MOL0     H31198   2.010  10.870   9.348  2.8982  4.1331 -3.0583
  951MOL0     H31199   2.165  10.801   9.292  0.4866 -3.4743  1.2723
  951MOL0     H31200   2.463  10.576   9.129  0.9480 -0.5220  0.5507
  951MOL0     H31201   2.695  10.478   9.082  1.5043 -0.1188 -1.4750
  951MOL0     H31202   2.895  10.564   8.938  1.5730  0.1983 -1.2044
  951MOL0     H31203   2.912  10.390   8.988 -1.9622  0.4936  0.4682
  951MOL0     H31204   3.035  10.345   8.789 -0.2300  0.3777 -0.6279
  951MOL0     H31205   3.066  10.524   8.764  3.1486  2.2168  2.5117
  951MOL0     H31206   3.150  10.393   9.028  0.1709 -2.6481 -1.2408
  951MOL0     H31207   3.154  10.562   8.978  1.1697  0.0847  0.9021
  951MOL0     H31208   3.320  10.489   8.809  1.0169 -1.0559 -0.8380
  951MOL0     H31209   3.289  10.312   8.860 -0.6975 -0.1445  0.9671
  951MOL0     H31210   3.383  10.535   9.053  2.3011  1.6128 -2.3728
  951MOL0     H31211   3.373  10.353   9.078 -1.2466  0.5478 -0.1203
  951MOL0     H31212   3.546  10.512   8.890 -1.9417  0.0034 -0.5114
  951MOL0     H31213   3.569  10.337   8.894  1.0442 -1.2511  2.0065
  951MOL0     H31214   3.626  10.319   9.131  1.2695  0.4347  1.4705
  951MOL0     H31215   3.617  10.492   9.146  0.5815 -0.2594  0.3551
  951MOL0     H31216   3.845  10.432   9.125 -0.2039 -4.0007 -0.4469
  951MOL0     H31217   3.786  10.521   8.984 -3.9424 -0.0985 -0.7119
  951MOL0     H31218   2.609  10.516   8.653 -2.5333  0.3238 -0.8532
  951MOL0     H31219   2.375  10.568   8.713  2.0585 -0.5361 -0.7011
  951MOL0     H31220   2.073  10.695   8.830 -3.3273 -1.4314 -1.3883
  951MOL0     H31221   1.865  10.802   8.795 -3.9279  4.3294  1.9209
  951MOL0     H31222   1.428  11.214   7.690 -0.4359 -1.6987 -0.7978
  951MOL0     H31223   1.293  11.140   7.511 -0.1424 -1.3720  2.8934
  951MOL0     H31224   1.172  10.792   7.253  0.6632 -2.3276 -0.4083
  951MOL0     H31225   1.002  10.706   7.110  1.5684  2.0261  3.7579
  951MOL0     H31226   0.882  10.806   6.923 -0.5252  0.3365  0.3692
  951MOL0     H31227   0.900  10.808   6.750 -1.8142  0.8586 -0.3446
  951MOL0     H31228   0.698  10.705   6.798 -0.3250  0.0158 -3.7944
  951MOL0     H31229   0.771  10.585   6.913  0.1220 -0.2777  0.3730
  951MOL0     H31230   0.848  10.592   6.614  0.6574  4.4655  2.5791
  951MOL0     H31231   0.885  10.473   6.738 -3.0706 -1.9284  2.2487
  951MOL0     H31232   0.697  10.399   6.596 -0.2019  1.2269 -0.3703
  951MOL0     H31233   0.593  10.532   6.638 -1.6378 -1.5769  0.1396
  951MOL0     H31234   0.551  10.307   6.990  0.0802 -1.3324  0.3962
  951MOL0     H31235   1.227  10.799   6.763  0.0463 -2.0479  0.3196
  951MOL0     H31236   1.439  11.057   6.904  2.3068 -0.3274  0.9673
  951MOL0     H31237   1.511  10.902   6.880  0.5440  3.3524 -0.0754
  951MOL0     H31238   1.393  10.964   6.768  1.1734  2.0109 -0.5659
  952MOL0     O31239   7.673   5.619  11.329 -0.0357 -0.3541 -0.6028
  952MOL0     C31240   7.633   5.563  11.430 -0.0304  1.0048  0.2984
  952MOL0     O31241   7.703   5.474  11.495  0.3062  0.6109 -0.5556
  952MOL0     C31242   7.832   5.453  11.480 -0.1298 -0.0398 -0.0865
  952MOL0     C31243   7.930   5.549  11.482  1.0658 -0.6171  0.0012
  952MOL0     C31244   8.061   5.531  11.444 -0.1972 -0.5934 -0.0524
  952MOL0     C31245   8.105   5.412  11.394  0.3171 -0.5810  0.2394
  952MOL0     O31246   8.237   5.400  11.353 -0.2724  0.3061 -0.1415
  952MOL0     C31247   8.247   5.328  11.231  0.2105  0.4282  0.4850
  952MOL0     C31248   8.172   5.390  11.113 -0.1667 -0.1754 -0.2188
  952MOL0     C31249   8.201   5.330  10.976 -0.1309  0.9467 -0.1840
  952MOL0     C31250   8.346   5.343  10.930 -0.9803 -0.4394 -0.5290
  952MOL0     C31251   8.373   5.268  10.797  0.4257 -0.0112 -0.2066
  952MOL0     C31252   8.511   5.291  10.746 -0.3475 -0.1057  0.4041
  952MOL0     C31253   8.610   5.225  10.846  0.4641  0.0668 -0.9388
  952MOL0     C31254   8.747   5.221  10.778 -0.5940 -0.7532 -0.7380
  952MOL0     N31255   8.846   5.153  10.857 -0.5580  0.6963 -0.4577
  952MOL0     C31256   8.832   5.028  10.914  0.2698  1.3672 -0.3465
  952MOL0     C31257   8.946   5.003  10.980  0.2627 -0.4459 -0.5932
  952MOL0     C31258   8.982   4.879  11.068 -0.0946  0.2998 -0.7842
  952MOL0     C31259   9.133   4.888  11.112 -0.4894 -1.0686  0.3101
  952MOL0     C31260   9.170   4.763  11.197  0.0960 -0.7502 -0.0915
  952MOL0     C31261   9.314   4.761  11.250  0.3488  0.0266  0.6135
  952MOL0     O31262   9.323   4.865  11.348  0.2786 -0.0700  0.4517
  952MOL0     C31263   9.447   4.914  11.367 -0.9771 -0.0526 -0.2050
  952MOL0     C31264   9.562   4.859  11.313  0.1834 -0.3264 -0.4662
  952MOL0     C31265   9.692   4.901  11.342  0.6268  0.5376 -0.1975
  952MOL0     C31266   9.818   4.811  11.319 -0.5468 -0.1822 -0.0483
  952MOL0     C31267   9.710   5.011  11.422  0.3383 -0.2938 -0.7789
  952MOL0     C31268   9.843   5.053  11.472  0.3174 -0.4992 -0.7398
  952MOL0     O31269   9.963   5.016  11.408 -0.1514  0.2398  0.4325
  952MOL0     C31270  10.073   5.024  11.480  1.1523  0.3411 -0.3579
  952MOL0     C31271  10.101   4.944  11.595 -0.7831  0.5998  0.5470
  952MOL0     C31272  10.233   4.941  11.645 -0.6267 -0.7748 -0.5942
  952MOL0     C31273  10.331   5.026  11.591 -0.1844  0.0039 -0.4008
  952MOL0     O31274  10.462   5.000  11.621 -0.4634 -0.7795  0.1284
  952MOL0     C31275  10.541   5.119  11.642  0.3976  0.5436  0.8562
  952MOL0     C31276  10.682   5.064  11.667 -0.2912  0.2397  0.5279
  952MOL0     C31277  10.776   5.152  11.753 -1.0382  0.1915 -0.1227
  952MOL0     C31278  10.902   5.071  11.786 -0.3447  0.2469  0.4446
  952MOL0     C31279  11.007   5.168  11.830 -0.0586 -0.5554 -0.1216
  952MOL0     C31280  11.142   5.092  11.838  0.4454 -0.2925 -0.5375
  952MOL0     C31281  11.254   5.192  11.878 -0.5078  0.5631  0.4157
  952MOL0     C31282  11.351   5.127  11.974 -0.8236 -0.1203 -0.6812
  952MOL0    Cl31283  11.430   4.977  11.899  0.1736  0.4454 -0.5204
  952MOL0     C31284  10.300   5.115  11.489 -0.6565  0.0137 -0.6044
  952MOL0     C31285  10.171   5.110  11.440 -0.0179  0.4692 -0.1845
  952MOL0     O31286   9.828   5.134  11.565  0.0709  0.5034  0.3645
  952MOL0     C31287   9.591   5.082  11.458  0.0794 -0.0781 -1.1421
  952MOL0     C31288   9.463   5.026  11.449 -0.0960 -0.2975 -0.5778
  952MOL0     N31289   9.018   5.124  10.976 -0.2000  0.1921 -0.1888
  952MOL0     N31290   8.954   5.211  10.907 -0.6976 -0.0288  0.1425
  952MOL0     C31291   8.010   5.311  11.395  0.7886 -0.0101 -0.5963
  952MOL0     C31292   7.874   5.324  11.440 -0.7158 -0.7122  0.3042
  952MOL0     C31293   7.493   5.578  11.463  0.8154 -0.4235  0.3372
  952MOL0     C31294   7.413   5.677  11.393  0.6771  0.4706  0.1571
  952MOL0     C31295   7.271   5.685  11.411  0.5121 -0.0258  0.5127
  952MOL0     C31296   7.208   5.612  11.518  0.1290  0.3795  0.1641
  952MOL0     O31297   7.073   5.625  11.543 -0.6839 -0.2402  0.5382
  952MOL0     C31298   6.981   5.512  11.530  0.0767 -1.1196  0.6961
  952MOL0     C31299   6.948   5.454  11.667  0.2221  0.3581  0.6822
  952MOL0     C31300   6.856   5.554  11.748 -1.0195  0.2516  1.1587
  952MOL0     C31301   6.707   5.528  11.711  1.3846 -0.1359  0.2205
  952MOL0     C31302   6.624   5.637  11.769 -0.2885  1.2924  0.7496
  952MOL0     C31303   6.568   5.726  11.818 -0.1328  0.0187 -0.3231
  952MOL0     C31304   7.289   5.522  11.589 -0.7052  0.3725  0.4015
  952MOL0     C31305   7.436   5.499  11.573  0.4798 -1.2891 -0.1948
  952MOL0     C31306   7.495   5.397  11.660 -0.3072  0.5208  0.6642
  952MOL0     H31307   7.906   5.652  11.506  0.2868 -0.6565 -0.5632
  952MOL0     H31308   8.127   5.617  11.456 -0.5224 -0.4373  0.6561
  952MOL0     H31309   8.217   5.223  11.233  0.0722  0.4219 -1.0364
  952MOL0     H31310   8.355   5.327  11.217  0.2569  0.3229  0.8352
  952MOL0     H31311   8.064   5.379  11.131 -0.7022 -2.1531 -3.6831
  952MOL0     H31312   8.202   5.494  11.098  2.6557 -1.0655 -1.3256
  952MOL0     H31313   8.164   5.228  10.982  2.1792  0.0999  1.0056
  952MOL0     H31314   8.134   5.381  10.906 -1.6117 -1.3852 -0.5900
  952MOL0     H31315   8.383   5.446  10.923  4.4996 -1.9494  1.1027
  952MOL0     H31316   8.420   5.302  11.000  0.9700  2.9974 -0.3369
  952MOL0     H31317   8.296   5.301  10.727 -1.7065  0.5108  2.2223
  952MOL0     H31318   8.353   5.161  10.801  0.0730 -0.2705 -4.4915
  952MOL0     H31319   8.521   5.259  10.642 -0.2143 -0.1286  0.4251
  952MOL0     H31320   8.538   5.397  10.750 -0.6735 -0.0238  0.4741
  952MOL0     H31321   8.577   5.122  10.860 -1.1078  0.3174 -2.5037
  952MOL0     H31322   8.619   5.288  10.935 -0.7368 -0.1928 -0.6199
  952MOL0     H31323   8.734   5.179  10.678 -1.4061 -3.5581  0.4518
  952MOL0     H31324   8.778   5.325  10.768 -1.5421 -0.4573 -0.7622
  952MOL0     H31325   8.749   4.959  10.903  1.6045 -1.0268  3.1022
  952MOL0     H31326   8.963   4.787  11.013 -1.2128 -1.3541  2.1675
  952MOL0     H31327   8.920   4.885  11.158  0.6093  2.8351 -0.3838
  952MOL0     H31328   9.206   4.906  11.033 -0.5191  0.0556  0.5215
  952MOL0     H31329   9.144   4.977  11.175 -0.7234 -0.5501 -0.3707
  952MOL0     H31330   9.116   4.754  11.291  1.2454  1.2914  0.8293
  952MOL0     H31331   9.147   4.674  11.137 -0.1742 -0.3714 -0.5592
  952MOL0     H31332   9.329   4.662  11.293 -0.5122 -0.0807  0.6918
  952MOL0     H31333   9.388   4.764  11.169 -1.5010 -4.0975 -1.5363
  952MOL0     H31334   9.565   4.763  11.264 -2.3893 -0.5301 -0.3676
  952MOL0     H31335   9.864   4.799  11.417 -1.3473  3.0933  0.8537
  952MOL0     H31336   9.899   4.848  11.255 -0.3723 -0.5946 -0.0754
  952MOL0     H31337   9.784   4.715  11.277  2.8403 -0.9364 -1.3927
  952MOL0     H31338  10.034   4.863  11.622 -0.8315  0.9394  1.4847
  952MOL0     H31339  10.265   4.874  11.723  2.4927 -0.0343 -1.0889
  952MOL0     H31340  10.547   5.195  11.563 -0.8517  0.4583  0.6598
  952MOL0     H31341  10.503   5.161  11.736  0.0082  1.9307  0.1118
  952MOL0     H31342  10.677   4.966  11.714  1.7455 -1.4609 -2.4803
  952MOL0     H31343  10.730   5.060  11.568  0.6897  0.3844  0.9858
  952MOL0     H31344  10.730   5.194  11.843  1.1061  3.6791 -0.4250
  952MOL0     H31345  10.808   5.241  11.697  2.1693 -0.0961  1.0561
  952MOL0     H31346  10.936   5.019  11.695 -2.7664 -0.3168 -0.2055
  952MOL0     H31347  10.883   4.988  11.854  1.9579  1.8254  3.2040
  952MOL0     H31348  11.028   5.248  11.759  1.9357 -1.0929 -0.2002
  952MOL0     H31349  10.974   5.224  11.918 -2.2201 -1.0102 -0.5700
  952MOL0     H31350  11.178   5.049  11.745 -2.8685 -3.6545 -0.4971
  952MOL0     H31351  11.144   5.012  11.913  2.4375  1.4203  1.3972
  952MOL0     H31352  11.208   5.283  11.920  0.8260  1.1436  0.6783
  952MOL0     H31353  11.304   5.226  11.788 -1.1544 -1.4828 -0.7778
  952MOL0     H31354  11.293   5.096  12.062 -0.9548 -1.8701 -1.3586
  952MOL0     H31355  11.432   5.195  12.004 -1.4681  0.6870 -0.7455
  952MOL0     H31356  10.371   5.176  11.432 -0.0069  0.4549  0.6420
  952MOL0     H31357  10.141   5.165  11.351  0.7643 -2.1506 -2.1987
  952MOL0     H31358   9.602   5.171  11.518 -5.6480 -0.3999  0.9961
  952MOL0     H31359   9.382   5.072  11.504 -0.3746  0.0374 -1.2564
  952MOL0     H31360   8.046   5.211  11.372  1.6799 -0.1299  1.1095
  952MOL0     H31361   7.800   5.245  11.444 -1.8079  0.1646 -1.3885
  952MOL0     H31362   7.458   5.741  11.318  0.1317  0.6955  0.0128
  952MOL0     H31363   7.215   5.758  11.353 -0.0880  0.6465  1.9011
  952MOL0     H31364   6.890   5.537  11.475  0.7664 -2.9157 -1.3985
  952MOL0     H31365   7.032   5.435  11.472  3.3579 -0.2888  2.2583
  952MOL0     H31366   7.040   5.438  11.724  0.8663 -1.3974 -0.7567
  952MOL0     H31367   6.892   5.362  11.648  1.3614  0.0104 -1.2636
  952MOL0     H31368   6.869   5.519  11.851  0.2969 -1.9325  0.3242
  952MOL0     H31369   6.886   5.658  11.735  0.7252 -0.5018 -1.8355
  952MOL0     H31370   6.670   5.430  11.741  3.7477 -1.3276 -0.5128
  952MOL0     H31371   6.690   5.540  11.604  0.3701 -0.7637  0.2990
  952MOL0     H31372   6.521   5.821  11.837 -1.2852 -0.5794 -0.0614
  952MOL0     H31373   7.237   5.459  11.661 -0.3170  0.0884  0.4338
  952MOL0     H31374   7.566   5.334  11.606 -2.0515 -0.7026 -0.3106
  952MOL0     H31375   7.541   5.436  11.751  1.9283  3.0332 -1.3519
  952MOL0     H31376   7.418   5.324  11.687 -1.3874  1.0956 -0.7606
  953MOL0     O31377   2.115   8.550   1.619 -0.0765 -0.9951 -0.1697
  953MOL0     C31378   2.038   8.490   1.539 -0.7859  0.9396  0.5791
  953MOL0     O31379   2.066   8.377   1.468  1.3457 -0.1090  0.2950
  953MOL0     C31380   2.191   8.324   1.472 -0.8273  0.9125  0.4972
  953MOL0     C31381   2.313   8.398   1.476 -1.0863 -0.2806 -0.4103
  953MOL0     C31382   2.437   8.333   1.481 -0.3392 -0.5633 -0.6457
  953MOL0     C31383   2.442   8.195   1.488  0.8331  0.1533  0.2733
  953MOL0     O31384   2.569   8.137   1.490 -0.9710  0.6976  0.7811
  953MOL0     C31385   2.583   8.011   1.560 -0.0990  0.1579 -0.7054
  953MOL0     C31386   2.544   8.017   1.711  0.9414  1.2015 -0.5072
  953MOL0     C31387   2.582   7.888   1.784  0.3098  1.0415  0.5172
  953MOL0     C31388   2.496   7.759   1.747 -0.4728  0.0564  0.5607
  953MOL0     C31389   2.560   7.629   1.791 -0.7689 -0.2090  0.3248
  953MOL0     C31390   2.587   7.598   1.942  0.3766 -0.4506 -0.4466
  953MOL0     C31391   2.454   7.607   2.019 -0.0671  0.5838  0.5566
  953MOL0     C31392   2.472   7.532   2.153  0.4932 -0.1172  0.0502
  953MOL0     N31393   2.350   7.560   2.239  0.3336  0.3814  0.4321
  953MOL0     C31394   2.226   7.503   2.217  0.5199  0.5887 -0.8442
  953MOL0     C31395   2.138   7.583   2.286 -0.6292 -0.5950 -1.2857
  953MOL0     C31396   1.990   7.573   2.286 -0.5302  0.0975  0.0989
  953MOL0     C31397   1.923   7.625   2.155 -0.6893 -0.1208 -0.1306
  953MOL0     C31398   1.780   7.648   2.174  0.5986 -0.0719  0.4058
  953MOL0     C31399   1.723   7.719   2.062  0.1916 -0.9924  1.3860
  953MOL0     O31400   1.755   7.677   1.931  0.1954  0.0786 -0.0254
  953MOL0     C31401   1.708   7.746   1.825  0.4683  0.8185  0.1071
  953MOL0     C31402   1.712   7.681   1.698 -0.4084  0.8696  0.9696
  953MOL0     C31403   1.666   7.748   1.578  0.4211  0.7662 -0.3236
  953MOL0     C31404   1.667   7.659   1.457 -0.0076 -0.5325 -0.0356
  953MOL0     C31405   1.615   7.879   1.584  1.0959 -0.1795 -0.3258
  953MOL0     C31406   1.547   7.950   1.457  0.2769  0.9008 -0.1159
  953MOL0     O31407   1.493   8.074   1.480 -0.2526  0.2373  0.7048
  953MOL0     C31408   1.436   8.132   1.371  0.0842 -0.0508 -0.2832
  953MOL0     C31409   1.512   8.190   1.263  0.2737 -0.2073  0.8761
  953MOL0     C31410   1.442   8.243   1.153 -0.2475  0.6068 -0.1003
  953MOL0     C31411   1.305   8.254   1.144 -0.3062  0.0387 -0.0264
  953MOL0     O31412   1.246   8.302   1.029  0.2595 -0.0148 -0.4603
  953MOL0     C31413   1.102   8.302   1.009  0.2806  1.0067  0.2610
  953MOL0     C31414   1.039   8.170   0.954  0.4080 -0.2836  0.1854
  953MOL0     C31415   0.892   8.165   0.913 -0.1857 -0.3246  0.0354
  953MOL0     C31416   0.792   8.229   1.008 -0.1494  0.0468 -1.3173
  953MOL0     C31417   0.648   8.221   0.956  0.3730  0.5386 -0.6074
  953MOL0     C31418   0.532   8.268   1.043  0.0982 -1.1450 -0.5586
  953MOL0     C31419   0.526   8.418   1.086  0.8136  0.1927 -0.5619
  953MOL0     C31420   0.507   8.513   0.970 -0.6705 -0.1549  0.5210
  953MOL0    Cl31421   0.675   8.547   0.890 -0.7808 -0.4592  0.0207
  953MOL0     C31422   1.228   8.217   1.259 -0.8896 -0.4612  0.5539
  953MOL0     C31423   1.295   8.154   1.365 -0.3309 -0.4890 -0.1292
  953MOL0     O31424   1.578   7.899   1.349 -0.0601 -0.8412  1.6323
  953MOL0     C31425   1.596   7.933   1.714  0.0377  0.0446  0.8545
  953MOL0     C31426   1.655   7.880   1.829 -1.3141 -0.4316 -0.2534
  953MOL0     N31427   2.208   7.686   2.348  0.1640 -0.6224 -0.6912
  953MOL0     N31428   2.332   7.668   2.313 -0.9413 -0.2091 -0.2174
  953MOL0     C31429   2.320   8.127   1.470  0.1089 -0.0467  1.0259
  953MOL0     C31430   2.193   8.184   1.460  0.3563 -0.2699 -0.3528
  953MOL0     C31431   1.900   8.535   1.523  0.0744  0.8305  0.2049
  953MOL0     C31432   1.882   8.668   1.525 -0.3040  0.4965  0.4841
  953MOL0     C31433   1.760   8.725   1.484  0.0233  0.0998  0.1399
  953MOL0     C31434   1.646   8.645   1.450 -0.8298  0.0890 -0.2542
  953MOL0     O31435   1.533   8.708   1.414 -0.6607  0.3136  0.0906
  953MOL0     C31436   1.426   8.629   1.349 -0.6967 -0.4666 -1.2359
  953MOL0     C31437   1.322   8.712   1.287 -0.1300  0.5921 -0.0501
  953MOL0     C31438   1.251   8.614   1.195 -0.1302  0.0713 -0.2257
  953MOL0     C31439   1.124   8.669   1.116 -0.4730 -0.2574  0.1793
  953MOL0     C31440   1.003   8.661   1.200  0.4503 -0.3494 -0.2871
  953MOL0     C31441   0.895   8.663   1.264  0.1276  0.5977  0.4071
  953MOL0     C31442   1.661   8.507   1.468  0.2678  0.4357 -0.2564
  953MOL0     C31443   1.784   8.451   1.516 -0.4049 -0.5139  0.5812
  953MOL0     C31444   1.787   8.295   1.541 -0.3300 -0.3476  0.4956
  953MOL0     H31445   2.313   8.506   1.466 -0.0322 -0.0362  1.7236
  953MOL0     H31446   2.528   8.393   1.487 -0.5158 -0.4771  2.9026
  953MOL0     H31447   2.689   7.986   1.552 -0.2926 -1.4515  1.1698
  953MOL0     H31448   2.529   7.930   1.511  0.5767  1.0869 -3.1480
  953MOL0     H31449   2.595   8.105   1.751  1.1848  1.6116 -1.6568
  953MOL0     H31450   2.435   8.032   1.710  0.2554 -2.6609  0.1492
  953MOL0     H31451   2.687   7.864   1.766 -0.1675 -0.2807 -0.6987
  953MOL0     H31452   2.559   7.898   1.891 -1.6239 -1.0035  0.3653
  953MOL0     H31453   2.404   7.756   1.806 -0.8021  0.3105  0.0698
  953MOL0     H31454   2.481   7.757   1.638  2.6900  3.1312 -0.1018
  953MOL0     H31455   2.659   7.613   1.749 -0.4463  1.2770  0.4678
  953MOL0     H31456   2.498   7.547   1.754 -0.4600 -0.1864 -0.2608
  953MOL0     H31457   2.627   7.499   1.963 -3.3571 -1.7980  1.2296
  953MOL0     H31458   2.662   7.671   1.974  0.7200 -0.5049 -1.1237
  953MOL0     H31459   2.366   7.554   1.980 -0.4070 -0.0981  2.1786
  953MOL0     H31460   2.424   7.710   2.041 -0.8995  0.5819 -0.4693
  953MOL0     H31461   2.475   7.424   2.137 -2.6603 -0.2614 -0.1203
  953MOL0     H31462   2.564   7.567   2.201 -0.6599  0.1638  2.1344
  953MOL0     H31463   2.193   7.418   2.159 -1.1166 -0.4576  1.4648
  953MOL0     H31464   1.953   7.629   2.371  0.1017  0.8352 -0.0983
  953MOL0     H31465   1.965   7.467   2.300  1.1266 -0.0241  2.7596
  953MOL0     H31466   1.961   7.724   2.131  0.4674 -0.9679 -2.0237
  953MOL0     H31467   1.936   7.565   2.065 -0.7878  0.3916 -0.4902
  953MOL0     H31468   1.727   7.554   2.191  1.6891 -0.6140  0.9152
  953MOL0     H31469   1.745   7.702   2.262 -0.4804  1.2752 -0.7879
  953MOL0     H31470   1.613   7.715   2.063  0.0615  1.1386  3.5432
  953MOL0     H31471   1.749   7.824   2.070  1.5763 -1.1502 -0.3549
  953MOL0     H31472   1.755   7.582   1.690 -0.0850  1.0654  0.1205
  953MOL0     H31473   1.716   7.720   1.380  0.8541  0.5872  1.3381
  953MOL0     H31474   1.568   7.635   1.419  0.5246 -1.2082 -1.0473
  953MOL0     H31475   1.731   7.571   1.470 -0.6220 -0.8617  0.7839
  953MOL0     H31476   1.620   8.183   1.258  0.4727  2.2844 -3.2339
  953MOL0     H31477   1.498   8.281   1.069  1.9907 -1.5792  0.3102
  953MOL0     H31478   1.039   8.347   1.086  0.8879 -1.4452  2.3309
  953MOL0     H31479   1.077   8.372   0.929 -2.5382 -0.9509 -0.7043
  953MOL0     H31480   1.098   8.153   0.863 -1.4061  0.8467 -1.2879
  953MOL0     H31481   1.059   8.094   1.030  3.7333  0.8189  0.5729
  953MOL0     H31482   0.867   8.060   0.896  1.6731 -0.3923 -3.2422
  953MOL0     H31483   0.882   8.216   0.816 -0.9275 -1.0229 -0.2591
  953MOL0     H31484   0.810   8.332   1.040 -4.1803  0.5990 -0.2845
  953MOL0     H31485   0.801   8.177   1.104 -2.0186  2.9602  0.6118
  953MOL0     H31486   0.648   8.269   0.857 -1.0815  0.4027 -0.6998
  953MOL0     H31487   0.637   8.114   0.935  1.5241  0.3990 -0.5873
  953MOL0     H31488   0.538   8.211   1.135  0.1105  1.2013  0.9755
  953MOL0     H31489   0.439   8.238   0.994  0.2769  1.1718 -2.5502
  953MOL0     H31490   0.612   8.436   1.150  1.5926 -2.3793 -0.7839
  953MOL0     H31491   0.443   8.429   1.156  0.3380 -1.5769 -0.7874
  953MOL0     H31492   0.475   8.601   1.026 -1.8910 -0.7267  0.7468
  953MOL0     H31493   0.436   8.491   0.890  1.8322  3.6740 -3.1691
  953MOL0     H31494   1.119   8.216   1.251 -0.8674 -2.3762  0.0561
  953MOL0     H31495   1.233   8.115   1.444  0.7022 -0.7543  0.5695
  953MOL0     H31496   1.558   8.033   1.736  2.3569  0.7211  2.0854
  953MOL0     H31497   1.666   7.933   1.923  0.1294  1.1924 -1.2677
  953MOL0     H31498   2.329   8.020   1.450  0.4882  0.5442 -2.6783
  953MOL0     H31499   2.096   8.135   1.458  0.2460 -0.1037  0.4442
  953MOL0     H31500   1.971   8.728   1.542 -0.0650  1.0617 -2.1951
  953MOL0     H31501   1.738   8.831   1.491 -1.4643 -0.2971  3.1694
  953MOL0     H31502   1.474   8.551   1.288  1.5608 -1.2461  1.3402
  953MOL0     H31503   1.376   8.580   1.433  0.2063  2.9638  1.5088
  953MOL0     H31504   1.374   8.788   1.227  1.1382 -0.5212 -0.4120
  953MOL0     H31505   1.256   8.755   1.363  2.3809  2.4981  1.2107
  953MOL0     H31506   1.323   8.582   1.120 -3.0317 -2.9958 -1.9504
  953MOL0     H31507   1.222   8.523   1.248 -3.1202  0.1855 -1.4641
  953MOL0     H31508   1.101   8.609   1.028 -0.1111  0.1611 -0.2066
  953MOL0     H31509   1.150   8.772   1.089  3.7159 -1.0378  0.6262
  953MOL0     H31510   0.810   8.661   1.330 -0.9141  2.1674 -0.8154
  953MOL0     H31511   1.570   8.448   1.458 -2.1180  3.5987  0.9774
  953MOL0     H31512   1.805   8.271   1.646 -0.2575 -1.6905  0.2041
  953MOL0     H31513   1.686   8.260   1.515 -0.0924  0.7948 -2.3633
  953MOL0     H31514   1.864   8.244   1.483  2.6128  3.8794  0.2526
  954MOL0     O31515   0.592   6.129   9.831 -0.2864 -0.3126  0.1008
  954MOL0     C31516   0.530   6.132   9.933 -0.5852  0.7857  0.5308
  954MOL0     O31517   0.566   6.193  10.046 -0.4155  0.0801  0.3129
  954MOL0     C31518   0.682   6.262  10.062 -0.5106  0.5887  0.8263
  954MOL0     C31519   0.684   6.386  10.123 -0.3320 -0.4284 -1.1272
  954MOL0     C31520   0.808   6.456  10.150  0.0313 -0.4577 -0.1073
  954MOL0     C31521   0.932   6.400  10.118 -1.0741 -0.2907 -0.0182
  954MOL0     O31522   1.055   6.449  10.140  0.1846 -0.0216 -0.2614
  954MOL0     C31523   1.127   6.476  10.020 -0.1978  0.1054 -0.6558
  954MOL0     C31524   1.207   6.606  10.027  0.2200 -0.2186  0.9224
  954MOL0     C31525   1.310   6.591  10.148 -0.2752 -0.2684  0.2803
  954MOL0     C31526   1.392   6.725  10.166  0.0845 -0.5108  0.4365
  954MOL0     C31527   1.484   6.709  10.290  0.8656 -0.2684  0.1026
  954MOL0     C31528   1.519   6.845  10.349 -0.0347 -0.4814 -1.4501
  954MOL0     C31529   1.604   6.935  10.259  0.0049  0.4500 -0.4245
  954MOL0     C31530   1.753   6.895  10.251 -0.1284 -0.3911  0.4698
  954MOL0     N31531   1.825   6.902  10.375  0.1480 -0.0055 -0.6534
  954MOL0     C31532   1.885   6.795  10.444  0.2867 -0.6265  0.1310
  954MOL0     C31533   1.944   6.853  10.549 -0.0188 -0.4427 -0.4410
  954MOL0     C31534   2.036   6.785  10.650  0.0214  0.4569  0.1827
  954MOL0     C31535   2.175   6.846  10.671  0.1543 -0.3363 -0.0334
  954MOL0     C31536   2.168   6.988  10.726 -0.9285  0.5317  0.1855
  954MOL0     C31537   2.309   7.037  10.747 -0.0626  0.0266  0.1639
  954MOL0     O31538   2.387   6.964  10.839  0.1326  0.1033 -0.2867
  954MOL0     C31539   2.522   6.992  10.858 -0.7592 -0.8428  0.9009
  954MOL0     C31540   2.598   7.075  10.769  0.3342 -0.8067 -0.0589
  954MOL0     C31541   2.727   7.120  10.799  0.4013 -0.7801  0.0506
  954MOL0     C31542   2.801   7.197  10.691  0.0988 -0.4686 -0.0805
  954MOL0     C31543   2.779   7.088  10.929  0.1544  0.7222  0.1243
  954MOL0     C31544   2.911   7.147  10.975 -0.1841 -1.2594 -0.8222
  954MOL0     O31545   2.937   7.282  10.946 -0.0130 -0.1063  0.5600
  954MOL0     C31546   3.067   7.315  10.962 -0.4652  0.0292  0.4487
  954MOL0     C31547   3.128   7.337  11.086 -0.0217 -0.1462 -1.2684
  954MOL0     C31548   3.271   7.339  11.097  0.0083  0.8261 -0.1268
  954MOL0     C31549   3.353   7.346  10.978 -0.1385 -0.1148 -0.3192
  954MOL0     O31550   3.483   7.378  10.973 -0.0868 -0.2049  0.0781
  954MOL0     C31551   3.567   7.317  11.062 -0.3601  0.1883 -0.0766
  954MOL0     C31552   3.713   7.340  11.020 -0.2224  0.1028  0.6240
  954MOL0     C31553   3.783   7.450  11.104 -0.3071 -0.2103 -0.9602
  954MOL0     C31554   3.920   7.489  11.033  0.5324 -0.9680 -0.7426
  954MOL0     C31555   4.014   7.557  11.136 -0.4986  0.1422 -0.7184
  954MOL0     C31556   4.141   7.610  11.074 -0.4263 -0.3839  0.2841
  954MOL0     C31557   4.251   7.642  11.176 -0.1985  0.0841  0.1424
  954MOL0     C31558   4.227   7.726  11.303  0.2610  0.4109 -0.3829
  954MOL0    Cl31559   4.397   7.755  11.368  0.1919 -0.1355  0.2164
  954MOL0     C31560   3.288   7.336  10.854 -0.2137  0.2095 -0.5865
  954MOL0     C31561   3.147   7.314  10.844 -0.4568 -1.0110 -1.0092
  954MOL0     O31562   2.984   7.077  11.047  0.6667  0.3569  0.1523
  954MOL0     C31563   2.708   7.008  11.019 -0.1338  0.1362  0.5959
  954MOL0     C31564   2.578   6.957  10.979 -0.0984 -0.8115  0.0459
  954MOL0     N31565   1.902   6.988  10.562  0.0820  0.3551  0.2064
  954MOL0     N31566   1.830   7.010  10.456 -0.1143  0.2281  0.6480
  954MOL0     C31567   0.929   6.267  10.073  0.2518 -0.2415  0.2320
  954MOL0     C31568   0.813   6.200  10.038  0.1960 -0.5517 -0.3278
  954MOL0     C31569   0.398   6.058   9.915  0.5940  0.1946  0.5188
  954MOL0     C31570   0.355   5.968  10.018  0.4728  0.6294  0.5883
  954MOL0     C31571   0.247   5.890  10.008  0.3057  0.5125  0.4760
  954MOL0     C31572   0.161   5.908   9.896  0.5108  1.1867  0.3157
  954MOL0     O31573   0.042   5.829   9.881 -0.2329 -0.7182  0.1613
  954MOL0     C31574   0.058   5.687   9.881 -0.0881  0.1104 -0.4492
  954MOL0     C31575  -0.081   5.622   9.857 -0.1080 -0.0308  0.2189
  954MOL0     C31576  -0.147   5.668   9.729 -0.4612 -0.2588  0.1769
  954MOL0     C31577  -0.280   5.588   9.705 -0.5905 -0.2750 -0.0795
  954MOL0     C31578  -0.327   5.614   9.569  0.3070  0.1356 -0.1541
  954MOL0     C31579  -0.352   5.645   9.455 -0.4447  0.0931 -0.7508
  954MOL0     C31580   0.193   5.994   9.794  0.8743  0.7439  0.3709
  954MOL0     C31581   0.310   6.065   9.803 -0.1172  0.6552  0.7295
  954MOL0     C31582   0.338   6.160   9.696  0.0289 -0.3212 -0.0658
  954MOL0     H31583   0.593   6.433  10.160 -0.0692 -2.1795  2.1496
  954MOL0     H31584   0.806   6.557  10.188  1.6706 -0.6357  0.5033
  954MOL0     H31585   1.053   6.484   9.940 -0.4131 -0.7215 -0.5537
  954MOL0     H31586   1.202   6.400   9.998  2.1977  1.9749  0.6762
  954MOL0     H31587   1.260   6.621   9.933 -0.0837  3.0012  1.1361
  954MOL0     H31588   1.138   6.691  10.033 -1.8791 -1.8685  1.5771
  954MOL0     H31589   1.258   6.557  10.238 -0.9762  0.1859  0.0594
  954MOL0     H31590   1.380   6.515  10.113  1.1655  2.8918 -4.8517
  954MOL0     H31591   1.450   6.743  10.075  0.5508 -0.1351  0.8071
  954MOL0     H31592   1.313   6.800  10.177 -1.2791 -1.5194 -1.7166
  954MOL0     H31593   1.568   6.642  10.269  0.7530 -1.0230  1.8710
  954MOL0     H31594   1.421   6.657  10.363  1.4171 -0.3408  0.5362
  954MOL0     H31595   1.423   6.895  10.368 -0.1658 -1.6224  1.3090
  954MOL0     H31596   1.572   6.831  10.443 -0.8955  0.9664 -0.7011
  954MOL0     H31597   1.609   7.034  10.306  0.2649 -0.2477  1.0669
  954MOL0     H31598   1.560   6.934  10.159 -0.4888 -1.6159 -0.2218
  954MOL0     H31599   1.763   6.800  10.199 -0.7864 -0.0755 -0.2679
  954MOL0     H31600   1.803   6.963  10.181  2.5361 -1.6743  1.0150
  954MOL0     H31601   1.888   6.692  10.409  2.1016 -0.3073 -0.7473
  954MOL0     H31602   2.044   6.685  10.605  1.0464  0.7455 -0.2848
  954MOL0     H31603   1.984   6.774  10.746  0.8205  1.7488  0.7961
  954MOL0     H31604   2.243   6.780  10.727  0.2008 -0.5056 -0.2910
  954MOL0     H31605   2.223   6.858  10.574 -2.0654 -0.0381 -1.1456
  954MOL0     H31606   2.120   7.064  10.663 -0.1750 -0.2509 -1.4219
  954MOL0     H31607   2.126   6.979  10.826  1.1698 -1.0430  0.9941
  954MOL0     H31608   2.344   7.023  10.644 -2.2551 -0.7182 -0.5410
  954MOL0     H31609   2.312   7.146  10.760  1.2053 -0.1396  1.5221
  954MOL0     H31610   2.548   7.117  10.682 -3.0696 -1.1557  1.5426
  954MOL0     H31611   2.899   7.151  10.674  0.8649  1.5496 -1.4854
  954MOL0     H31612   2.818   7.301  10.721  0.8928 -1.2518  2.3996
  954MOL0     H31613   2.754   7.197  10.592 -0.7643  0.2021  0.3163
  954MOL0     H31614   3.065   7.332  11.175  2.6478 -3.2966  0.7309
  954MOL0     H31615   3.318   7.346  11.194  0.3676  0.2497 -0.2544
  954MOL0     H31616   3.544   7.364  11.158  0.3389  0.7533 -0.1831
  954MOL0     H31617   3.546   7.209  11.057  0.3256  0.1184 -2.3884
  954MOL0     H31618   3.758   7.242  11.037  0.5482 -0.0177 -1.7920
  954MOL0     H31619   3.711   7.364  10.914  0.4849 -2.1505  0.0644
  954MOL0     H31620   3.807   7.417  11.205  1.4251 -0.1523 -1.3156
  954MOL0     H31621   3.721   7.540  11.114  0.6887  0.2381  2.0323
  954MOL0     H31622   3.915   7.551  10.943  2.2707 -0.5564 -0.5912
  954MOL0     H31623   3.961   7.394  10.999  0.3896 -1.1546 -0.4011
  954MOL0     H31624   3.960   7.640  11.181 -1.5781 -1.3645  0.8440
  954MOL0     H31625   4.052   7.480  11.203  1.0879  1.5720  0.1282
  954MOL0     H31626   4.123   7.699  11.012 -0.1378 -0.6669 -0.2124
  954MOL0     H31627   4.175   7.533  11.004 -1.6293  1.7621 -2.9380
  954MOL0     H31628   4.326   7.702  11.124 -0.9120  1.0562  0.2083
  954MOL0     H31629   4.301   7.547  11.196  0.0077  0.4657  1.5280
  954MOL0     H31630   4.158   7.684  11.376  2.8194 -2.4333  0.5873
  954MOL0     H31631   4.182   7.819  11.265  0.1840  0.2933 -0.5808
  954MOL0     H31632   3.333   7.343  10.755  0.0353 -1.4820 -0.6334
  954MOL0     H31633   3.098   7.308  10.748 -0.1493  0.3882 -1.2680
  954MOL0     H31634   2.747   6.981  11.116  0.7955 -0.5286  0.0579
  954MOL0     H31635   2.518   6.892  11.043 -1.6935  2.4401  2.1315
  954MOL0     H31636   1.020   6.209  10.071  1.6281  1.8557 -1.3471
  954MOL0     H31637   0.821   6.101   9.996  0.1765 -0.8213  0.2933
  954MOL0     H31638   0.415   5.967  10.109  2.1789  0.8422 -0.4723
  954MOL0     H31639   0.216   5.813  10.079  0.6852  0.3154  0.4294
  954MOL0     H31640   0.129   5.651   9.807 -0.9098 -2.8066  0.0590
  954MOL0     H31641   0.103   5.650   9.974  0.6622  1.4879 -0.2362
  954MOL0     H31642  -0.153   5.644   9.936 -1.6667  2.7504 -1.7799
  954MOL0     H31643  -0.066   5.514   9.854  1.8608  0.2078 -0.0291
  954MOL0     H31644  -0.171   5.775   9.724 -0.8529 -0.3693 -0.5498
  954MOL0     H31645  -0.080   5.661   9.643 -0.5317  3.0247 -0.3114
  954MOL0     H31646  -0.356   5.622   9.776 -0.6208 -3.5827  1.6550
  954MOL0     H31647  -0.264   5.483   9.729  1.9231  0.0613 -0.0323
  954MOL0     H31648  -0.377   5.678   9.356 -0.6445 -1.6404 -1.3234
  954MOL0     H31649   0.130   5.994   9.706  1.8545 -2.3155 -0.4666
  954MOL0     H31650   0.253   6.162   9.626  0.3237 -0.8980 -0.4429
  954MOL0     H31651   0.350   6.265   9.725  1.4904 -0.0050 -1.6659
  954MOL0     H31652   0.429   6.138   9.639 -1.1656  0.3406 -2.3733
  955MOL0     O31653  11.335   3.584  11.098 -0.1389 -0.0240  0.4082
  955MOL0     C31654  11.298   3.589  10.984 -0.6087 -0.4995  0.0880
  955MOL0     O31655  11.379   3.558  10.878 -0.2116 -0.5719  0.8696
  955MOL0     C31656  11.503   3.510  10.890  0.3496 -0.2932 -0.1634
  955MOL0     C31657  11.614   3.591  10.853  0.2739  0.7415  0.5605
  955MOL0     C31658  11.748   3.544  10.872  0.6833  1.3581  0.3088
  955MOL0     C31659  11.771   3.420  10.931  0.1236 -0.2915  0.2168
  955MOL0     O31660  11.907   3.384  10.938 -0.3956 -0.0744  0.5643
  955MOL0     C31661  11.936   3.259  11.000 -0.0464  0.1937  0.2310
  955MOL0     C31662  11.963   3.148  10.904  0.0562  0.8932  0.1116
  955MOL0     C31663  12.011   3.009  10.964 -0.0350 -0.1781 -0.0124
  955MOL0     C31664  12.165   3.002  10.987 -0.1464  0.1817 -0.7669
  955MOL0     C31665  12.205   2.861  11.036  0.2671 -0.7494 -0.1480
  955MOL0     C31666  12.359   2.853  11.039 -0.0537 -0.4352 -0.3782
  955MOL0     C31667  12.399   2.714  11.076 -0.3577  0.0376 -0.4680
  955MOL0     C31668  12.547   2.721  11.117  0.1726  0.6682 -0.5664
  955MOL0     N31669  12.600   2.584  11.142  0.3074  0.1796 -0.1612
  955MOL0     C31670  12.576   2.511  11.250  1.0480 -0.0352  0.1773
  955MOL0     C31671  12.671   2.416  11.242 -1.3196 -0.6213 -0.2934
  955MOL0     C31672  12.698   2.324  11.349  0.3315  0.4601 -0.4243
  955MOL0     C31673  12.843   2.276  11.371  1.1430  0.5410 -0.3633
  955MOL0     C31674  12.893   2.186  11.257  0.4146 -0.1586  0.0076
  955MOL0     C31675  13.007   2.091  11.293  0.7041 -0.3422  0.0778
  955MOL0     O31676  13.130   2.163  11.275  0.2026  0.1214  0.3223
  955MOL0     C31677  13.246   2.103  11.313  0.0584  0.0260  0.7111
  955MOL0     C31678  13.359   2.180  11.331 -0.0265  0.1600  0.6000
  955MOL0     C31679  13.483   2.125  11.376  1.4879 -0.1670  0.4273
  955MOL0     C31680  13.593   2.225  11.397  0.5046  0.6387 -0.1701
  955MOL0     C31681  13.492   1.986  11.385  0.0565  0.1004  0.5090
  955MOL0     C31682  13.610   1.923  11.431 -0.5309  0.2471 -0.7656
  955MOL0     O31683  13.697   1.997  11.500 -0.0292 -0.3990 -0.4832
  955MOL0     C31684  13.824   1.951  11.520 -0.5684 -0.8260 -0.4619
  955MOL0     C31685  13.905   1.899  11.417  0.6746  0.6131 -0.8609
  955MOL0     C31686  14.030   1.844  11.462 -0.0860  0.1966 -0.3414
  955MOL0     C31687  14.074   1.861  11.593  0.2989  0.5890 -0.6375
  955MOL0     O31688  14.198   1.806  11.615 -0.0299  0.6218 -0.6080
  955MOL0     C31689  14.275   1.859  11.729 -0.5073 -0.8275 -0.4301
  955MOL0     C31690  14.422   1.820  11.699 -0.0039  0.2630  0.2465
  955MOL0     C31691  14.438   1.679  11.648 -0.4749  0.0897 -0.4737
  955MOL0     C31692  14.573   1.603  11.641  0.0738 -0.4944  0.4131
  955MOL0     C31693  14.656   1.656  11.526 -0.1832 -0.2388  0.7774
  955MOL0     C31694  14.792   1.586  11.514 -0.2184  0.6848 -0.4189
  955MOL0     C31695  14.888   1.651  11.411 -0.1741  0.2545  0.4957
  955MOL0     C31696  14.903   1.575  11.284 -0.5346 -0.2863  0.5090
  955MOL0    Cl31697  14.949   1.701  11.159 -0.4380 -0.1415 -0.2789
  955MOL0     C31698  13.993   1.918  11.688  0.2788 -0.5429  0.5258
  955MOL0     C31699  13.868   1.961  11.648 -0.2978  0.4210  0.0586
  955MOL0     O31700  13.623   1.808  11.407 -0.0707  0.6262  0.3955
  955MOL0     C31701  13.371   1.908  11.379 -0.3428  0.4926 -0.0559
  955MOL0     C31702  13.253   1.969  11.337 -0.2448  0.1920  0.2493
  955MOL0     N31703  12.742   2.423  11.128  0.4310 -1.1474  0.5287
  955MOL0     N31704  12.704   2.528  11.065 -0.2458 -0.1744 -0.2634
  955MOL0     C31705  11.658   3.348  10.959 -0.2719 -0.2081  0.2221
  955MOL0     C31706  11.527   3.389  10.941 -0.7702  0.3427 -0.2959
  955MOL0     C31707  11.166   3.650  10.960 -0.2592 -0.3021  0.8122
  955MOL0     C31708  11.130   3.673  10.824 -0.2014 -0.2776 -0.6971
  955MOL0     C31709  11.009   3.722  10.790  0.4871 -0.6860 -0.1144
  955MOL0     C31710  10.902   3.735  10.887 -0.2358 -0.6559 -0.0731
  955MOL0     O31711  10.775   3.775  10.858 -0.0480  0.4285 -0.1578
  955MOL0     C31712  10.765   3.851  10.735  0.6736  0.3441 -0.0425
  955MOL0     C31713  10.625   3.915  10.705  0.0694  0.3909  0.0099
  955MOL0     C31714  10.602   4.048  10.778 -0.3309  0.7781 -0.5912
  955MOL0     C31715  10.484   4.127  10.723  0.2265 -0.5172  0.3295
  955MOL0     C31716  10.352   4.078  10.767  0.3392  0.3289 -0.2712
  955MOL0     C31717  10.235   4.040  10.784 -0.4169 -0.7955  0.0475
  955MOL0     C31718  10.935   3.697  11.020  1.5352  0.3262  0.4038
  955MOL0     C31719  11.063   3.655  11.060  0.2001 -0.3545  0.8075
  955MOL0     C31720  11.086   3.596  11.197  0.0550  0.3455 -0.8663
  955MOL0     H31721  11.600   3.692  10.817  4.1839  0.2319 -3.1961
  955MOL0     H31722  11.832   3.605  10.842  2.1700 -1.3509 -1.4704
  955MOL0     H31723  11.864   3.238  11.080  0.7768 -0.0639  0.9238
  955MOL0     H31724  12.030   3.281  11.052 -0.3763  2.5574 -0.0417
  955MOL0     H31725  11.869   3.114  10.860 -0.9007 -2.4864  4.0941
  955MOL0     H31726  12.029   3.186  10.825 -1.1115  1.0283 -0.8141
  955MOL0     H31727  11.964   3.001  11.063 -1.5736 -2.0595 -0.8338
  955MOL0     H31728  11.983   2.924  10.902 -0.6444  0.7991 -1.1367
  955MOL0     H31729  12.209   3.024  10.889 -2.5490  0.8313 -1.7755
  955MOL0     H31730  12.201   3.075  11.061  0.4774 -0.1423 -0.7397
  955MOL0     H31731  12.157   2.791  10.967  1.0466 -1.7647  0.2944
  955MOL0     H31732  12.170   2.849  11.139 -0.5509 -1.0445 -0.4505
  955MOL0     H31733  12.392   2.881  10.939 -1.6675  1.5997 -0.4212
  955MOL0     H31734  12.394   2.933  11.105 -1.4358  1.0709 -1.4016
  955MOL0     H31735  12.383   2.662  10.982  2.2762 -2.2425  0.2062
  955MOL0     H31736  12.347   2.669  11.161  3.2440  1.1629  2.6298
  955MOL0     H31737  12.614   2.774  11.048  1.1843  0.1314 -0.0264
  955MOL0     H31738  12.551   2.774  11.212  0.4155 -0.4801  0.0834
  955MOL0     H31739  12.506   2.549  11.324 -1.3237 -0.5232 -1.7071
  955MOL0     H31740  12.639   2.239  11.315 -2.1494  2.8152 -2.5421
  955MOL0     H31741  12.658   2.363  11.443  0.9201  0.7880 -0.3040
  955MOL0     H31742  12.904   2.367  11.375  2.4851 -0.1587 -2.8353
  955MOL0     H31743  12.863   2.220  11.463 -0.4156  0.1946 -0.2138
  955MOL0     H31744  12.811   2.122  11.223  0.0486  0.3803 -0.1309
  955MOL0     H31745  12.926   2.248  11.173 -0.6498 -1.2953 -1.3171
  955MOL0     H31746  13.005   2.064  11.399  2.7761 -0.1208  0.2101
  955MOL0     H31747  13.009   2.002  11.229 -3.7569 -1.3022  0.9298
  955MOL0     H31748  13.356   2.287  11.311  0.1143  0.0070 -0.2786
  955MOL0     H31749  13.566   2.320  11.351 -1.5648  0.5977  0.8454
  955MOL0     H31750  13.681   2.190  11.342  0.7400 -0.1403  0.6720
  955MOL0     H31751  13.615   2.257  11.499  2.3660  4.0657 -1.4822
  955MOL0     H31752  13.863   1.891  11.318 -1.7980  2.6632 -0.0868
  955MOL0     H31753  14.102   1.796  11.395  2.4349  2.4963  0.5221
  955MOL0     H31754  14.260   1.967  11.735 -1.2713 -0.6963 -3.3475
  955MOL0     H31755  14.247   1.811  11.823 -2.1987  1.5496  0.4029
  955MOL0     H31756  14.470   1.891  11.631  2.4923 -1.4316  0.1018
  955MOL0     H31757  14.470   1.825  11.797  2.0886 -0.6636 -0.6788
  955MOL0     H31758  14.408   1.676  11.543 -1.4380 -0.7623 -0.1904
  955MOL0     H31759  14.363   1.616  11.696 -0.2699  0.9194  0.9805
  955MOL0     H31760  14.555   1.495  11.633 -1.2629 -0.1767 -2.0451
  955MOL0     H31761  14.627   1.628  11.733  0.5844 -0.6259  0.1527
  955MOL0     H31762  14.602   1.653  11.431  3.0095  2.7347 -1.3803
  955MOL0     H31763  14.674   1.762  11.543  0.4014 -0.5072  1.9548
  955MOL0     H31764  14.781   1.480  11.489 -0.2893  0.2224  1.4038
  955MOL0     H31765  14.830   1.587  11.617 -0.4485 -1.8022 -0.2532
  955MOL0     H31766  14.986   1.666  11.458  1.2682 -0.5094 -2.0822
  955MOL0     H31767  14.847   1.751  11.391 -0.8940  0.0422  0.8587
  955MOL0     H31768  14.810   1.523  11.258 -1.1296  0.1636  1.6666
  955MOL0     H31769  14.973   1.490  11.287  0.9496  0.7827 -1.5095
  955MOL0     H31770  14.012   1.935  11.793  1.5158  1.9181 -0.0273
  955MOL0     H31771  13.810   1.996  11.732  0.5256  1.5287  0.1906
  955MOL0     H31772  13.377   1.801  11.390  2.6135  0.3232 -2.1415
  955MOL0     H31773  13.172   1.897  11.341 -2.1821  2.0183 -2.4352
  955MOL0     H31774  11.669   3.249  11.003 -2.4290 -0.9926 -0.8785
  955MOL0     H31775  11.453   3.317  10.973  0.5767 -1.1688 -0.4534
  955MOL0     H31776  11.188   3.645  10.736 -2.8609 -2.2262 -1.9528
  955MOL0     H31777  11.004   3.748  10.685  4.9878  1.2239 -0.0759
  955MOL0     H31778  10.843   3.926  10.721  1.0311 -0.0041  0.0449
  955MOL0     H31779  10.778   3.777  10.655  1.4330  0.2397  0.1664
  955MOL0     H31780  10.544   3.844  10.722  0.1834 -0.4628 -2.5894
  955MOL0     H31781  10.620   3.928  10.596 -1.5637  0.3771  0.0587
  955MOL0     H31782  10.584   4.022  10.883  0.1076  0.5447 -0.5719
  955MOL0     H31783  10.693   4.108  10.766 -0.6439  1.1691 -1.0854
  955MOL0     H31784  10.498   4.146  10.617  0.0040  3.2557  0.8312
  955MOL0     H31785  10.491   4.227  10.768 -1.7618  0.0661 -0.5582
  955MOL0     H31786  10.136   3.999  10.786 -1.3372  1.2542 -0.8268
  955MOL0     H31787  10.847   3.687  11.082 -1.1459  2.8776 -2.6235
  955MOL0     H31788  11.139   3.500  11.197  3.9084  2.2299  0.8393
  955MOL0     H31789  11.133   3.668  11.264 -0.4007 -3.2661  3.8614
  955MOL0     H31790  10.987   3.582  11.241 -0.1815  1.4409 -1.0468
  956MOL0     O31791   4.418   4.403   7.127  0.1225  0.2367  0.3833
  956MOL0     C31792   4.350   4.466   7.209  0.0487  0.3632  0.3973
  956MOL0     O31793   4.238   4.414   7.270  0.3627 -0.2653  0.9714
  956MOL0     C31794   4.209   4.279   7.252  0.3273 -0.8072 -0.4397
  956MOL0     C31795   4.074   4.250   7.217  0.6862 -0.6099 -0.3638
  956MOL0     C31796   4.040   4.113   7.192 -0.0744 -0.2643 -0.0703
  956MOL0     C31797   4.139   4.010   7.218  0.1141  0.3473 -0.0692
  956MOL0     O31798   4.091   3.889   7.198  0.6361  0.1693 -0.4205
  956MOL0     C31799   4.171   3.779   7.233  0.1740  1.0815 -0.0871
  956MOL0     C31800   4.083   3.658   7.193 -0.7025 -0.3708  0.2451
  956MOL0     C31801   3.951   3.669   7.273  0.4948 -0.1728 -0.3844
  956MOL0     C31802   3.863   3.549   7.230  0.0268 -0.0301 -0.5507
  956MOL0     C31803   3.738   3.527   7.316  0.0629  0.0908 -0.2813
  956MOL0     C31804   3.622   3.460   7.244 -0.4112 -0.2185  0.0469
  956MOL0     C31805   3.473   3.486   7.290  0.4238  0.3191  0.0917
  956MOL0     C31806   3.444   3.440   7.433 -0.0672  0.5936 -0.2641
  956MOL0     N31807   3.394   3.305   7.432  0.3396 -0.7883 -0.4375
  956MOL0     C31808   3.466   3.184   7.431  0.7793 -0.7732  0.0610
  956MOL0     C31809   3.372   3.088   7.419 -0.5163  0.4227  0.2709
  956MOL0     C31810   3.395   2.936   7.404 -0.5273  0.6105 -0.2597
  956MOL0     C31811   3.460   2.907   7.275  0.1981 -0.4769 -0.0463
  956MOL0     C31812   3.477   2.758   7.248 -0.2429 -0.2569 -0.8067
  956MOL0     C31813   3.551   2.669   7.354 -0.1159  0.3386 -0.8882
  956MOL0     O31814   3.661   2.737   7.425  0.2401 -0.0618 -0.1100
  956MOL0     C31815   3.787   2.730   7.379 -0.5540  0.4437  0.1208
  956MOL0     C31816   3.829   2.709   7.245  0.3367 -0.9284  0.0834
  956MOL0     C31817   3.965   2.713   7.216  0.6039 -0.0288  0.1070
  956MOL0     C31818   3.996   2.686   7.067  0.3985  1.4089 -0.0649
  956MOL0     C31819   4.067   2.737   7.317 -0.1585 -0.6313  0.4323
  956MOL0     C31820   4.208   2.751   7.288 -0.3434  0.0018 -0.1519
  956MOL0     O31821   4.290   2.761   7.401 -0.3714 -0.1706 -0.3328
  956MOL0     C31822   4.421   2.803   7.385  0.2172 -0.0220  0.2030
  956MOL0     C31823   4.516   2.748   7.483  0.1810 -0.2978 -0.5582
  956MOL0     C31824   4.650   2.788   7.477 -0.2963 -0.6296  0.4216
  956MOL0     C31825   4.694   2.885   7.383  0.0851 -0.8422  0.1698
  956MOL0     O31826   4.833   2.922   7.374  0.3062 -0.5969  0.0982
  956MOL0     C31827   4.922   2.817   7.334  0.4152 -0.0187  0.7260
  956MOL0     C31828   5.020   2.782   7.439  1.0171  0.2682 -0.3942
  956MOL0     C31829   5.074   2.640   7.417  0.6291  0.2443 -0.7369
  956MOL0     C31830   5.188   2.610   7.518 -0.0328  0.2195 -1.1534
  956MOL0     C31831   5.249   2.473   7.498  0.5104  0.5515 -0.4890
  956MOL0     C31832   5.150   2.362   7.557  0.1289 -0.0997 -0.2491
  956MOL0     C31833   5.211   2.231   7.507 -0.1802 -0.8270 -0.2001
  956MOL0     C31834   5.253   2.138   7.622 -0.7751 -0.1482  0.5797
  956MOL0    Cl31835   5.330   2.004   7.554  0.0417 -0.2888  0.3723
  956MOL0     C31836   4.597   2.944   7.299 -0.1161  0.4420 -0.2704
  956MOL0     C31837   4.460   2.912   7.297  0.7694 -0.4346 -0.1152
  956MOL0     O31838   4.254   2.739   7.176  0.9417 -0.1032 -0.4259
  956MOL0     C31839   4.018   2.744   7.453  0.2112  0.1342 -0.0976
  956MOL0     C31840   3.884   2.746   7.479 -0.4100  0.4107  0.5431
  956MOL0     N31841   3.250   3.148   7.420 -0.0075  0.2838  0.1667
  956MOL0     N31842   3.264   3.275   7.437  0.3929  0.3502  0.3842
  956MOL0     C31843   4.267   4.042   7.259  0.2036 -0.2232 -0.2388
  956MOL0     C31844   4.301   4.178   7.290 -0.2926  0.5214 -0.6822
  956MOL0     C31845   4.365   4.615   7.232 -0.4506 -0.3449 -0.8491
  956MOL0     C31846   4.262   4.688   7.304 -0.3032 -0.3525 -1.2128
  956MOL0     C31847   4.268   4.828   7.321  0.1127  1.0087  0.1391
  956MOL0     C31848   4.386   4.895   7.284 -0.2585  0.1004 -1.2195
  956MOL0     O31849   4.396   5.038   7.286 -0.6611  0.6571 -0.5227
  956MOL0     C31850   4.305   5.113   7.364  0.5265 -0.6863  0.1918
  956MOL0     C31851   4.203   5.150   7.255  0.2411 -0.0806 -0.4982
  956MOL0     C31852   4.084   5.241   7.293  0.8900 -0.0146 -0.3073
  956MOL0     C31853   3.960   5.224   7.203 -0.3105  0.5871  0.2135
  956MOL0     C31854   3.867   5.337   7.216  0.5228  1.3412  0.5206
  956MOL0     C31855   3.790   5.425   7.228 -0.3046 -0.1101 -0.3671
  956MOL0     C31856   4.487   4.822   7.222 -0.2341  0.0399 -0.0686
  956MOL0     C31857   4.481   4.687   7.190 -0.0320 -0.1796  0.9821
  956MOL0     C31858   4.595   4.627   7.103  0.8246 -0.4684  0.3224
  956MOL0     H31859   4.001   4.330   7.210  0.5459 -0.7846 -0.9026
  956MOL0     H31860   3.942   4.083   7.158  0.0062 -0.3908 -0.1922
  956MOL0     H31861   4.202   3.781   7.338  2.3838 -0.2052 -0.6289
  956MOL0     H31862   4.262   3.773   7.172  0.8605  4.7635  0.3743
  956MOL0     H31863   4.067   3.675   7.086  0.9660  2.8347  0.3563
  956MOL0     H31864   4.142   3.569   7.215 -1.1084 -0.1654  2.3899
  956MOL0     H31865   3.973   3.667   7.380  2.0716 -0.7390 -0.6929
  956MOL0     H31866   3.898   3.760   7.245 -0.9256 -0.9881 -0.4581
  956MOL0     H31867   3.825   3.567   7.129 -0.4185 -0.5938 -0.4878
  956MOL0     H31868   3.918   3.455   7.235 -0.2098 -0.1201  0.4922
  956MOL0     H31869   3.700   3.625   7.346 -2.7961 -1.3128  1.1031
  956MOL0     H31870   3.765   3.476   7.408 -2.1700 -0.4424  0.1400
  956MOL0     H31871   3.631   3.492   7.140  0.8132  5.7756  1.6445
  956MOL0     H31872   3.640   3.353   7.258  1.5090  0.1748  0.8579
  956MOL0     H31873   3.403   3.441   7.220 -0.7150  2.7704 -0.4753
  956MOL0     H31874   3.453   3.594   7.291 -2.9308 -0.1998 -0.5046
  956MOL0     H31875   3.536   3.454   7.491  0.0186 -2.8070  0.6356
  956MOL0     H31876   3.364   3.508   7.465  1.6291  1.7764  1.6456
  956MOL0     H31877   3.574   3.168   7.440  0.7789 -0.9184 -0.1943
  956MOL0     H31878   3.299   2.883   7.397 -0.2971  0.2468 -0.6966
  956MOL0     H31879   3.458   2.891   7.481  1.5340 -2.4485 -3.4308
  956MOL0     H31880   3.395   2.954   7.200  1.3884  2.6006  0.6874
  956MOL0     H31881   3.549   2.970   7.262 -1.6485  2.5429  1.0183
  956MOL0     H31882   3.382   2.707   7.231 -0.3181 -0.6533  0.6680
  956MOL0     H31883   3.548   2.757   7.164  0.5381  2.6272 -0.2839
  956MOL0     H31884   3.481   2.637   7.431 -0.6342 -0.3780 -1.6397
  956MOL0     H31885   3.579   2.577   7.303  0.0712  0.2015 -0.5384
  956MOL0     H31886   3.756   2.693   7.166  1.3253 -0.0972 -1.0426
  956MOL0     H31887   4.037   2.781   7.030 -0.3146  1.2141 -1.3947
  956MOL0     H31888   3.908   2.665   7.006 -0.1450  1.0582  0.8244
  956MOL0     H31889   4.063   2.600   7.057  3.6149  3.2949  2.9887
  956MOL0     H31890   4.486   2.676   7.559  3.3357 -3.5465 -2.1110
  956MOL0     H31891   4.724   2.723   7.523 -1.2672 -2.7228 -0.8178
  956MOL0     H31892   4.870   2.727   7.300 -2.9020  1.6557  0.9582
  956MOL0     H31893   4.974   2.861   7.248 -1.4071  0.0926 -0.3670
  956MOL0     H31894   5.101   2.855   7.443 -1.8755  4.1301 -3.8678
  956MOL0     H31895   4.962   2.792   7.531 -1.7919 -1.1199 -1.8976
  956MOL0     H31896   5.106   2.644   7.312 -1.2517  5.2809 -1.4316
  956MOL0     H31897   4.994   2.567   7.425 -0.8852  1.9090  0.0612
  956MOL0     H31898   5.137   2.613   7.614  0.2511 -2.2410 -0.8674
  956MOL0     H31899   5.271   2.680   7.508  1.7294 -1.7061 -0.6570
  956MOL0     H31900   5.273   2.460   7.392  1.2693  0.5760 -0.3271
  956MOL0     H31901   5.337   2.464   7.562  0.2510  0.1280 -0.1836
  956MOL0     H31902   5.046   2.377   7.526  0.6284 -0.1466 -2.0554
  956MOL0     H31903   5.145   2.381   7.664 -3.3016  0.5303 -0.4095
  956MOL0     H31904   5.299   2.258   7.447  0.3606 -0.7209  0.6119
  956MOL0     H31905   5.132   2.180   7.452 -0.4109 -1.6842  0.8736
  956MOL0     H31906   5.175   2.114   7.695  0.0619  2.6819  2.5747
  956MOL0     H31907   5.335   2.173   7.685 -0.5246 -0.9555  0.7126
  956MOL0     H31908   4.640   3.027   7.242 -3.0941  1.7419 -0.7974
  956MOL0     H31909   4.396   2.973   7.233 -0.6529 -1.9943 -0.2510
  956MOL0     H31910   4.091   2.762   7.532  1.1248 -1.3711 -0.5499
  956MOL0     H31911   3.852   2.758   7.582  0.1203 -2.5434  1.1397
  956MOL0     H31912   4.353   3.979   7.279  1.1455  1.1938  0.2691
  956MOL0     H31913   4.398   4.205   7.330  1.6786 -1.9814 -3.3636
  956MOL0     H31914   4.167   4.641   7.327  0.1679 -2.7799 -3.7150
  956MOL0     H31915   4.179   4.870   7.366 -1.0678 -1.3236  0.1571
  956MOL0     H31916   4.263   5.061   7.450  0.2667 -1.2981 -0.2952
  956MOL0     H31917   4.366   5.201   7.387 -0.2089 -0.6000  1.9851
  956MOL0     H31918   4.153   5.058   7.223 -1.9724  0.8443  0.0945
  956MOL0     H31919   4.256   5.187   7.167  0.2766 -0.7915 -0.7825
  956MOL0     H31920   4.046   5.200   7.386 -2.3037 -1.5448 -2.1205
  956MOL0     H31921   4.118   5.343   7.312 -2.6144  1.1913  0.2262
  956MOL0     H31922   3.907   5.136   7.241  0.5788  0.6772  1.7424
  956MOL0     H31923   3.995   5.212   7.101  2.0090  1.9284  0.7679
  956MOL0     H31924   3.721   5.503   7.252 -0.8335 -0.0816 -1.8436
  956MOL0     H31925   4.575   4.876   7.191 -0.4299 -0.0881 -0.8677
  956MOL0     H31926   4.572   4.628   6.996  0.2775 -1.7449  0.4011
  956MOL0     H31927   4.685   4.686   7.123 -0.6007  1.2770  1.9092
  956MOL0     H31928   4.617   4.522   7.127  3.0636  0.3233  2.0298
  957MOL0     O31929   4.658   5.312   7.826 -0.3323  0.5567 -0.1593
  957MOL0     C31930   4.676   5.199   7.775 -0.0293 -0.1262  0.5075
  957MOL0     O31931   4.794   5.138   7.765 -0.0898 -0.2101 -0.2975
  957MOL0     C31932   4.918   5.194   7.771 -0.2571  0.3703 -0.0378
  957MOL0     C31933   4.965   5.286   7.868  0.4154 -0.1121 -0.5598
  957MOL0     C31934   5.090   5.354   7.848  0.2031 -0.7459 -0.1946
  957MOL0     C31935   5.177   5.313   7.750 -0.4670 -0.0686 -0.0809
  957MOL0     O31936   5.306   5.365   7.746  0.4374  0.4211 -0.4355
  957MOL0     C31937   5.371   5.368   7.618  0.4538  0.1556 -0.0073
  957MOL0     C31938   5.497   5.460   7.601  0.8742 -0.4512  0.1104
  957MOL0     C31939   5.618   5.378   7.642 -0.1316 -0.3769 -0.0598
  957MOL0     C31940   5.760   5.432   7.598  0.6586  0.4478 -1.3168
  957MOL0     C31941   5.872   5.343   7.661 -0.1128  0.1105  0.5029
  957MOL0     C31942   6.009   5.400   7.616 -0.0671 -0.1783  0.1081
  957MOL0     C31943   6.126   5.301   7.642  0.0290  0.0607 -0.3669
  957MOL0     C31944   6.252   5.336   7.565  0.8158 -0.0362 -0.3180
  957MOL0     N31945   6.314   5.456   7.620 -0.4501  0.3934 -0.7377
  957MOL0     C31946   6.340   5.474   7.755  0.1131  0.4582  0.3088
  957MOL0     C31947   6.408   5.592   7.757  0.3449  0.0009 -0.3875
  957MOL0     C31948   6.459   5.665   7.880 -0.5522 -0.4140 -0.0565
  957MOL0     C31949   6.533   5.560   7.960 -0.4079  0.9476 -0.0167
  957MOL0     C31950   6.657   5.490   7.891  0.3327 -0.7491  0.0011
  957MOL0     C31951   6.759   5.589   7.835  0.0234 -0.2183 -0.1910
  957MOL0     O31952   6.779   5.690   7.933 -0.0188 -0.6920 -0.3172
  957MOL0     C31953   6.868   5.792   7.911  0.8248  0.3792  0.6702
  957MOL0     C31954   6.870   5.902   8.000  0.0945  0.7193  0.0418
  957MOL0     C31955   6.972   6.000   8.004  0.2980  0.0835  1.3558
  957MOL0     C31956   6.968   6.095   8.112 -0.0855  0.7196  0.0303
  957MOL0     C31957   7.072   6.001   7.904 -0.2677 -0.5433 -0.1600
  957MOL0     C31958   7.177   6.110   7.896  0.8295  0.0861  0.2987
  957MOL0     O31959   7.137   6.239   7.895  0.1481  0.8260 -0.5108
  957MOL0     C31960   7.225   6.338   7.911  0.7940  0.5938  0.7893
  957MOL0     C31961   7.219   6.416   8.025  0.2252 -0.3682 -0.9620
  957MOL0     C31962   7.322   6.506   8.048  0.6062  0.3128  0.8952
  957MOL0     C31963   7.415   6.540   7.949  0.5068 -0.8815 -0.7398
  957MOL0     O31964   7.503   6.648   7.977 -0.2375  0.9517  0.4257
  957MOL0     C31965   7.636   6.637   7.928 -0.8420  0.0986  0.1945
  957MOL0     C31966   7.696   6.783   7.934 -0.2505 -0.1207  0.4994
  957MOL0     C31967   7.849   6.771   7.958 -0.6865 -0.1410 -0.2867
  957MOL0     C31968   7.923   6.906   7.946  0.5228  0.0086 -0.3069
  957MOL0     C31969   8.074   6.906   7.985  1.3571  0.0472 -0.3346
  957MOL0     C31970   8.155   6.877   7.861  0.0094  0.2311  0.2721
  957MOL0     C31971   8.301   6.921   7.876 -0.4063  0.5588 -0.3033
  957MOL0     C31972   8.379   6.809   7.941 -0.5680  0.5864 -0.7242
  957MOL0    Cl31973   8.552   6.882   7.948  0.3186  0.0220 -0.2655
  957MOL0     C31974   7.405   6.474   7.826  0.0222  0.2467 -0.2853
  957MOL0     C31975   7.302   6.380   7.797 -0.6762  0.4731 -0.7748
  957MOL0     O31976   7.294   6.070   7.886 -0.1277 -0.2334  0.7018
  957MOL0     C31977   7.072   5.901   7.804  0.6988 -1.0360  0.7260
  957MOL0     C31978   6.969   5.804   7.802  0.0842 -0.0241 -0.1559
  957MOL0     N31979   6.416   5.644   7.631 -0.0646  0.1800 -0.0643
  957MOL0     N31980   6.365   5.558   7.550 -0.2001 -0.8346  0.3359
  957MOL0     C31981   5.135   5.210   7.667  0.0805  1.1013  0.3396
  957MOL0     C31982   4.996   5.161   7.667 -0.0431  0.2306  0.1567
  957MOL0     C31983   4.563   5.122   7.745  0.6407 -0.3215 -0.3698
  957MOL0     C31984   4.433   5.181   7.779  0.4703  0.6311 -0.4028
  957MOL0     C31985   4.320   5.101   7.774  0.0257  0.0152 -0.1777
  957MOL0     C31986   4.329   4.971   7.714  0.3084 -1.1671  0.2938
  957MOL0     O31987   4.227   4.896   7.673  0.8499  0.2332  0.0177
  957MOL0     C31988   4.092   4.927   7.716 -0.1907 -0.2479  0.2787
  957MOL0     C31989   3.982   4.905   7.603 -0.6656 -1.3445 -0.6123
  957MOL0     C31990   3.960   4.757   7.579  0.3643  0.1414  0.7829
  957MOL0     C31991   3.849   4.737   7.470 -0.2462  0.0626 -0.1258
  957MOL0     C31992   3.913   4.780   7.344  0.3925  1.2095  0.3138
  957MOL0     C31993   3.955   4.803   7.233 -0.9991  0.0903 -0.9423
  957MOL0     C31994   4.448   4.925   7.662 -0.1151  0.4087 -0.6131
  957MOL0     C31995   4.571   4.996   7.688  0.1255 -0.0948  0.1633
  957MOL0     C31996   4.685   4.936   7.608 -0.9611 -0.9710  0.5110
  957MOL0     H31997   4.899   5.323   7.946 -2.2830  2.1615 -3.6294
  957MOL0     H31998   5.115   5.442   7.907 -0.8714  0.3920 -1.3536
  957MOL0     H31999   5.302   5.398   7.538 -0.3595  0.6672  0.8664
  957MOL0     H32000   5.398   5.266   7.591  1.2163  0.1264  0.8300
  957MOL0     H32001   5.493   5.509   7.503 -2.0374 -1.0430 -0.1732
  957MOL0     H32002   5.499   5.538   7.677 -1.9653 -3.1781  3.3173
  957MOL0     H32003   5.606   5.364   7.749  2.0322  2.7747  0.7239
  957MOL0     H32004   5.620   5.284   7.586  3.9667 -0.0897 -0.7040
  957MOL0     H32005   5.761   5.434   7.488  0.9627  0.7062 -1.3082
  957MOL0     H32006   5.771   5.535   7.633 -1.2427  0.3104 -0.2140
  957MOL0     H32007   5.847   5.238   7.642 -0.9991 -0.2783  3.3564
  957MOL0     H32008   5.873   5.352   7.770  0.4372 -4.0455  1.0203
  957MOL0     H32009   5.994   5.422   7.510 -1.7877  2.1500  0.7463
  957MOL0     H32010   6.045   5.491   7.665  4.1641 -2.1169  1.0470
  957MOL0     H32011   6.086   5.205   7.609 -0.0904  0.0499 -0.1939
  957MOL0     H32012   6.133   5.284   7.750  0.9598 -2.8566 -0.7848
  957MOL0     H32013   6.319   5.250   7.574  0.4160 -0.3355 -0.1624
  957MOL0     H32014   6.225   5.348   7.460 -1.2240  3.5291  0.4339
  957MOL0     H32015   6.310   5.414   7.840 -2.7905 -1.2218 -1.7480
  957MOL0     H32016   6.368   5.709   7.921 -0.6715  2.8659 -3.3516
  957MOL0     H32017   6.533   5.740   7.850  0.8809 -1.7061  0.1207
  957MOL0     H32018   6.567   5.599   8.057  1.8139 -0.2965 -0.2357
  957MOL0     H32019   6.468   5.479   7.997  2.0421 -0.8338  0.6428
  957MOL0     H32020   6.698   5.442   7.980  0.8422  2.5942  1.7305
  957MOL0     H32021   6.629   5.431   7.804 -1.6412 -0.6292  0.5097
  957MOL0     H32022   6.858   5.549   7.809  1.6681  1.8553  2.2977
  957MOL0     H32023   6.732   5.635   7.740  1.1502  0.0116 -0.4225
  957MOL0     H32024   6.785   5.915   8.067  0.1324  1.0581  0.0241
  957MOL0     H32025   7.070   6.122   8.141  0.7602  2.3335 -3.8157
  957MOL0     H32026   6.913   6.071   8.204  2.0352  1.0596  1.4519
  957MOL0     H32027   6.921   6.183   8.066  1.6165  0.9472 -1.3831
  957MOL0     H32028   7.141   6.384   8.094 -1.0623  1.2022 -1.6290
  957MOL0     H32029   7.333   6.540   8.151 -1.4097  2.8265  0.3831
  957MOL0     H32030   7.695   6.570   7.992 -0.0346 -0.3869 -1.0160
  957MOL0     H32031   7.650   6.602   7.825  0.6934 -0.5224  0.5850
  957MOL0     H32032   7.682   6.826   7.834 -0.8171  3.8977  2.0930
  957MOL0     H32033   7.655   6.851   8.009  0.0178 -1.0148  1.4769
  957MOL0     H32034   7.894   6.706   7.882  2.0452 -0.6497  1.6261
  957MOL0     H32035   7.880   6.725   8.053 -0.8653 -0.7609 -0.5207
  957MOL0     H32036   7.879   6.983   8.009  1.7046  0.8861 -0.5230
  957MOL0     H32037   7.914   6.944   7.844 -0.2469  1.0154  0.1326
  957MOL0     H32038   8.102   6.996   8.040 -2.1130 -0.0599  1.9278
  957MOL0     H32039   8.082   6.829   8.063 -0.6782  0.0726 -0.0488
  957MOL0     H32040   8.113   6.934   7.778 -1.2032  2.5308  2.3401
  957MOL0     H32041   8.167   6.771   7.838  1.7503  0.1316  1.4624
  957MOL0     H32042   8.302   7.016   7.930  0.4852  0.1310  0.4554
  957MOL0     H32043   8.350   6.946   7.781 -0.3677  1.1285 -0.1347
  957MOL0     H32044   8.369   6.721   7.876 -0.2040 -0.7958  1.0020
  957MOL0     H32045   8.340   6.773   8.037  0.7098 -1.7557 -1.0127
  957MOL0     H32046   7.466   6.500   7.741  1.5861 -2.2857 -0.0231
  957MOL0     H32047   7.291   6.332   7.701 -0.8127 -1.2970  0.0714
  957MOL0     H32048   7.155   5.899   7.734  1.8361 -1.8390  2.0441
  957MOL0     H32049   7.001   5.737   7.723  1.0198 -0.8562  0.8927
  957MOL0     H32050   5.203   5.166   7.594 -0.6906  0.5256 -0.0512
  957MOL0     H32051   4.960   5.094   7.590 -1.0918  2.0838 -1.0405
  957MOL0     H32052   4.418   5.281   7.821  2.2222  0.7097  0.1031
  957MOL0     H32053   4.229   5.134   7.823 -0.2388 -0.4386 -0.3564
  957MOL0     H32054   4.060   4.860   7.795 -0.3150  1.1388  1.4502
  957MOL0     H32055   4.072   5.028   7.754 -3.5957 -1.5849  2.4662
  957MOL0     H32056   4.016   4.960   7.516  2.3140  0.7421  1.6741
  957MOL0     H32057   3.887   4.949   7.637 -0.5471  0.3213 -2.3187
  957MOL0     H32058   4.051   4.700   7.558 -0.5399 -0.5372 -1.6351
  957MOL0     H32059   3.910   4.717   7.668  0.5073  2.7967  2.1431
  957MOL0     H32060   3.754   4.787   7.492 -0.8533  0.4086 -3.1226
  957MOL0     H32061   3.820   4.633   7.453  1.4850 -0.1059 -2.3589
  957MOL0     H32062   3.993   4.827   7.136  2.0304  1.1309  0.3856
  957MOL0     H32063   4.447   4.831   7.608 -0.5382 -0.1018  0.2509
  957MOL0     H32064   4.644   4.872   7.530 -1.6639  0.3143 -0.2141
  957MOL0     H32065   4.746   5.014   7.561 -0.6332 -1.4634  0.1127
  957MOL0     H32066   4.756   4.883   7.672  0.2049  0.2990  0.3393
  958MOL0     O32067   5.855  10.611   5.452  0.0149 -0.1916 -0.6873
  958MOL0     C32068   5.804  10.501   5.469 -0.2829 -0.3753 -0.2502
  958MOL0     O32069   5.866  10.384   5.500 -0.0821  0.4684 -0.1052
  958MOL0     C32070   5.997  10.402   5.545  0.0509 -0.2078  0.0775
  958MOL0     C32071   6.089  10.457   5.449 -1.1345  0.1680  0.4510
  958MOL0     C32072   6.227  10.461   5.486  0.5093 -0.0566  0.5804
  958MOL0     C32073   6.271  10.439   5.620  0.2763 -0.1084 -0.1156
  958MOL0     O32074   6.408  10.461   5.654  0.1819  0.5902  0.5435
  958MOL0     C32075   6.457  10.592   5.640 -0.5227  0.3527  0.1170
  958MOL0     C32076   6.598  10.581   5.570 -0.3822  0.4017 -0.1653
  958MOL0     C32077   6.616  10.513   5.439  0.5123  0.1259 -0.5645
  958MOL0     C32078   6.765  10.498   5.400 -0.9016 -0.3900 -0.4329
  958MOL0     C32079   6.833  10.641   5.370  0.0269 -0.0413  0.7512
  958MOL0     C32080   6.982  10.623   5.353  1.0161  0.5715  0.5504
  958MOL0     C32081   7.057  10.757   5.380  0.3440  0.3426  0.5845
  958MOL0     C32082   7.211  10.740   5.386 -0.3549  0.1472  0.3372
  958MOL0     N32083   7.275  10.741   5.254 -0.1810  0.1741  0.0583
  958MOL0     C32084   7.279  10.635   5.166  0.5195  0.7705  0.2685
  958MOL0     C32085   7.331  10.695   5.056 -0.2396  0.1190  0.1250
  958MOL0     C32086   7.371  10.607   4.942 -0.0898 -0.7110  0.7369
  958MOL0     C32087   7.486  10.513   4.995  0.1094 -0.0776  0.5382
  958MOL0     C32088   7.513  10.423   4.872 -0.2589  0.2768 -0.5732
  958MOL0     C32089   7.583  10.289   4.923  0.1396 -0.3174  0.0283
  958MOL0     O32090   7.644  10.210   4.817 -0.1993 -0.2673 -0.7507
  958MOL0     C32091   7.765  10.254   4.766  0.9353 -0.2803  0.8835
  958MOL0     C32092   7.833  10.365   4.825 -0.1553  0.2915  0.2724
  958MOL0     C32093   7.966  10.393   4.768 -0.0936 -0.2893 -0.4723
  958MOL0     C32094   8.017  10.525   4.818 -0.3884  0.1412 -0.3334
  958MOL0     C32095   8.022  10.324   4.657  0.3583  0.3325 -0.1128
  958MOL0     C32096   8.149  10.349   4.590  0.0397  0.4715  0.2587
  958MOL0     O32097   8.244  10.414   4.654 -0.4497 -0.1667  0.2949
  958MOL0     C32098   8.318  10.517   4.592 -0.5367 -0.9241  0.0437
  958MOL0     C32099   8.296  10.580   4.475  0.7096  0.3338  0.8869
  958MOL0     C32100   8.376  10.683   4.422  0.2372 -0.0739  0.2701
  958MOL0     C32101   8.483  10.730   4.489 -0.2393  0.4819  0.2821
  958MOL0     O32102   8.561  10.839   4.459 -0.1036  0.0186  0.4998
  958MOL0     C32103   8.639  10.819   4.338  0.1175  0.0867  0.0182
  958MOL0     C32104   8.732  10.936   4.321 -0.7338  0.5441  0.6027
  958MOL0     C32105   8.876  10.880   4.316 -0.1530  0.5149 -0.0661
  958MOL0     C32106   8.960  10.966   4.227 -0.2426  0.0152  0.2822
  958MOL0     C32107   9.111  10.926   4.224  0.7123  0.1128 -0.8196
  958MOL0     C32108   9.144  10.806   4.131  0.0852 -0.3552  0.2334
  958MOL0     C32109   9.291  10.791   4.105 -0.0698 -0.7680 -0.1752
  958MOL0     C32110   9.318  10.654   4.030  0.6240 -0.7698 -0.9364
  958MOL0    Cl32111   9.496  10.622   4.041  0.3017  0.1706 -0.4860
  958MOL0     C32112   8.504  10.666   4.610  0.2812 -0.0241 -0.0452
  958MOL0     C32113   8.423  10.565   4.663 -0.4320 -0.2814  0.6584
  958MOL0     O32114   8.159  10.308   4.468 -0.2569 -0.1169 -0.0527
  958MOL0     C32115   7.944  10.219   4.604  0.0154  0.1530  0.2525
  958MOL0     C32116   7.815  10.187   4.657  0.2906 -0.2842 -0.5176
  958MOL0     N32117   7.381  10.817   5.084  0.4435 -0.5604  0.1664
  958MOL0     N32118   7.340  10.847   5.201  0.3083 -0.5512  0.2905
  958MOL0     C32119   6.177  10.388   5.711  0.1869 -0.2557  0.0528
  958MOL0     C32120   6.041  10.374   5.678 -1.1417 -0.1932 -0.0181
  958MOL0     C32121   5.653  10.502   5.447 -0.0969  0.0500  0.4779
  958MOL0     C32122   5.571  10.403   5.505 -0.3427  0.7654 -0.4278
  958MOL0     C32123   5.432  10.396   5.483 -0.1511  0.0092  1.0043
  958MOL0     C32124   5.372  10.485   5.392  0.2061 -0.1207  0.4504
  958MOL0     O32125   5.241  10.485   5.349  0.6125  0.1448 -1.0473
  958MOL0     C32126   5.138  10.442   5.445 -0.2182 -0.1684  0.5451
  958MOL0     C32127   5.002  10.472   5.383  0.1829 -0.7135  0.1642
  958MOL0     C32128   4.960  10.615   5.381  0.4393  0.3530 -0.0777
  958MOL0     C32129   5.045  10.700   5.295 -0.1269 -0.5494 -0.2118
  958MOL0     C32130   4.986  10.832   5.272  0.4960  0.6640  0.8006
  958MOL0     C32131   4.916  10.928   5.260 -0.2480 -0.4986  0.9450
  958MOL0     C32132   5.446  10.590   5.351  0.8151 -0.5049  0.1721
  958MOL0     C32133   5.582  10.605   5.379  0.1241  0.3001  0.2479
  958MOL0     C32134   5.640  10.738   5.338 -0.1376  0.9811  0.0970
  958MOL0     H32135   6.047  10.479   5.351 -1.2968  1.0108  0.6998
  958MOL0     H32136   6.301  10.490   5.412  0.7283  0.4599  0.9951
  958MOL0     H32137   6.471  10.637   5.739 -0.4795  0.8159 -0.0962
  958MOL0     H32138   6.387  10.654   5.584 -0.5451 -0.2075 -0.4884
  958MOL0     H32139   6.612  10.686   5.543  1.3908  0.7647  1.8365
  958MOL0     H32140   6.674  10.557   5.645  0.5430  0.7554 -0.9688
  958MOL0     H32141   6.571  10.414   5.446  0.8596  0.0419  0.8550
  958MOL0     H32142   6.575  10.569   5.355  5.0524  3.1568 -1.0770
  958MOL0     H32143   6.820  10.453   5.483  0.8501 -0.3415 -1.5158
  958MOL0     H32144   6.762  10.434   5.311 -1.3430  0.8618 -1.3481
  958MOL0     H32145   6.803  10.705   5.453 -1.1708  1.0817 -0.4996
  958MOL0     H32146   6.797  10.696   5.283  2.0419 -2.1392 -1.5846
  958MOL0     H32147   7.018  10.550   5.425 -0.0797 -0.3879  0.1545
  958MOL0     H32148   7.010  10.584   5.255  2.9175  1.8576  0.5068
  958MOL0     H32149   7.034  10.805   5.476  1.4744  1.3387  0.3841
  958MOL0     H32150   7.027  10.832   5.306  0.1443  1.0786  1.3800
  958MOL0     H32151   7.244  10.829   5.440  2.9287  0.4704 -1.9426
  958MOL0     H32152   7.252  10.651   5.436 -0.2018 -0.0105 -0.0681
  958MOL0     H32153   7.235  10.536   5.170  2.2077 -0.0764 -0.7374
  958MOL0     H32154   7.415  10.664   4.860  2.7543 -1.2589  1.7383
  958MOL0     H32155   7.285  10.548   4.909 -0.0658  0.2641 -1.2250
  958MOL0     H32156   7.577  10.570   5.016  1.7543 -2.4080  0.0786
  958MOL0     H32157   7.464  10.460   5.088  0.9760 -0.8768  0.2934
  958MOL0     H32158   7.422  10.381   4.827 -0.4425 -1.3971  1.2306
  958MOL0     H32159   7.571  10.478   4.798 -0.0285  0.4661 -0.2551
  958MOL0     H32160   7.657  10.311   5.000  3.2443 -0.5285 -2.6395
  958MOL0     H32161   7.505  10.222   4.958 -1.2357  0.9289 -0.5499
  958MOL0     H32162   7.802  10.409   4.918  0.4829 -2.6717  2.0429
  958MOL0     H32163   8.065  10.510   4.915  0.8881 -3.9685 -1.3867
  958MOL0     H32164   7.937  10.599   4.823  0.1947  0.7597 -0.0265
  958MOL0     H32165   8.102  10.564   4.762  1.3932  1.7661  3.2315
  958MOL0     H32166   8.207  10.561   4.415 -0.0748 -0.7050  2.3257
  958MOL0     H32167   8.336  10.724   4.330 -0.3368 -1.9683 -0.3757
  958MOL0     H32168   8.694  10.725   4.346 -0.4475 -0.3611 -1.0621
  958MOL0     H32169   8.578  10.806   4.248  0.1822  0.2923 -0.0572
  958MOL0     H32170   8.698  10.987   4.230 -0.2848  0.4003  0.3518
  958MOL0     H32171   8.729  11.000   4.410 -0.4529  1.0782  0.2287
  958MOL0     H32172   8.880  10.780   4.273 -3.9358  0.4066 -0.4892
  958MOL0     H32173   8.920  10.870   4.416  0.6556 -1.6037 -0.5884
  958MOL0     H32174   8.940  11.062   4.275 -0.1644 -0.7741  1.9832
  958MOL0     H32175   8.935  10.986   4.123  1.3795  0.5361 -0.0284
  958MOL0     H32176   9.168  11.014   4.189 -2.0089  0.6097 -4.5392
  958MOL0     H32177   9.131  10.915   4.331  0.6862  1.0060 -0.7102
  958MOL0     H32178   9.104  10.821   4.030 -3.5009  2.3183  1.8496
  958MOL0     H32179   9.092  10.718   4.170 -0.3940  1.1376  3.2618
  958MOL0     H32180   9.343  10.805   4.200 -0.7327  1.2364 -0.0444
  958MOL0     H32181   9.321  10.871   4.036  1.4344 -1.2939 -0.1501
  958MOL0     H32182   9.272  10.662   3.931  0.7014 -0.8919 -0.9809
  958MOL0     H32183   9.265  10.573   4.081  0.1140 -0.3299 -0.7490
  958MOL0     H32184   8.588  10.699   4.670 -0.8705  3.5646 -0.1895
  958MOL0     H32185   8.440  10.518   4.760  0.4279  0.2212  0.7599
  958MOL0     H32186   7.964  10.150   4.523 -0.0685 -2.3633  2.2287
  958MOL0     H32187   7.749  10.112   4.616  2.4164 -2.4891 -0.1185
  958MOL0     H32188   6.206  10.367   5.814  0.9393 -2.8681 -0.6333
  958MOL0     H32189   5.970  10.337   5.750 -0.8162  1.2214  1.0631
  958MOL0     H32190   5.611  10.331   5.575 -2.6865  0.6197  0.8639
  958MOL0     H32191   5.376  10.308   5.513 -0.2395 -0.4780 -0.5201
  958MOL0     H32192   5.142  10.335   5.470  0.8545  0.5350  3.9587
  958MOL0     H32193   5.161  10.493   5.539  1.1285 -1.7874  1.1441
  958MOL0     H32194   4.932  10.410   5.440  0.5429  0.2657  1.7085
  958MOL0     H32195   4.993  10.438   5.279 -0.3750  1.1227 -0.4195
  958MOL0     H32196   4.857  10.613   5.344  0.5419 -2.3959 -0.3591
  958MOL0     H32197   4.955  10.652   5.484  0.6415 -1.3661  0.5759
  958MOL0     H32198   5.073  10.655   5.199 -0.2626 -0.8167 -0.1289
  958MOL0     H32199   5.136  10.724   5.349 -1.7375  1.9685  1.6143
  958MOL0     H32200   4.855  11.016   5.254 -1.1544 -1.0745  1.4387
  958MOL0     H32201   5.397  10.668   5.294 -3.8759 -4.4481 -1.8709
  958MOL0     H32202   5.562  10.786   5.277  1.9014  0.6712 -2.9779
  958MOL0     H32203   5.661  10.801   5.424  1.6992  0.8967 -0.2551
  958MOL0     H32204   5.732  10.731   5.279 -0.6230  1.8296 -0.7937
  959MOL0     O32205   9.161   1.652   3.891 -0.0340  0.8075 -0.1243
  959MOL0     C32206   9.062   1.587   3.853 -0.4139 -0.1679 -0.2629
  959MOL0     O32207   9.062   1.452   3.835  0.5567 -0.1797  0.2662
  959MOL0     C32208   9.174   1.390   3.854 -0.5996  0.5098 -0.1000
  959MOL0     C32209   9.243   1.399   3.976  0.7165  0.5131 -0.0651
  959MOL0     C32210   9.368   1.342   3.990 -1.2156 -0.4759 -1.0716
  959MOL0     C32211   9.440   1.287   3.887 -0.4906  1.2415  0.1472
  959MOL0     O32212   9.568   1.252   3.912 -0.3134  0.4635  0.2903
  959MOL0     C32213   9.613   1.154   3.827  0.3216  0.2287  0.3613
  959MOL0     C32214   9.755   1.119   3.875 -0.9486  0.0690 -0.3569
  959MOL0     C32215   9.751   1.047   4.010  0.1537  0.3901  0.7610
  959MOL0     C32216   9.881   1.027   4.077 -0.3608 -0.6592 -0.6910
  959MOL0     C32217   9.961   0.900   4.036  0.4562  0.0551 -0.4374
  959MOL0     C32218   9.910   0.767   4.090  0.2909 -0.6234 -0.7233
  959MOL0     C32219  10.002   0.649   4.059  0.1432  0.1263  0.0995
  959MOL0     C32220   9.930   0.515   4.095 -0.0222  0.2282  0.1296
  959MOL0     N32221   9.994   0.394   4.041  0.1110 -0.3321 -0.3381
  959MOL0     C32222   9.950   0.319   3.931 -1.0105  0.1952  0.0807
  959MOL0     C32223  10.025   0.213   3.927 -0.6443  0.7467 -0.4096
  959MOL0     C32224  10.046   0.088   3.832 -0.2870  0.4739  0.4197
  959MOL0     C32225  10.102   0.123   3.686  0.6160 -1.8468 -0.3418
  959MOL0     C32226  10.109  -0.006   3.612  1.1048 -0.0357 -0.8806
  959MOL0     C32227  10.223  -0.102   3.646  0.2895 -0.0181  1.0964
  959MOL0     O32228  10.179  -0.229   3.689 -0.2343  0.0842  0.0376
  959MOL0     C32229  10.272  -0.315   3.741 -0.3540  0.1912  0.2200
  959MOL0     C32230  10.411  -0.294   3.742 -1.1636 -0.2116 -0.4494
  959MOL0     C32231  10.503  -0.386   3.790  0.5334 -0.3130 -0.3080
  959MOL0     C32232  10.645  -0.330   3.822 -0.4232  0.8098 -0.3147
  959MOL0     C32233  10.455  -0.522   3.800 -0.2199 -0.3919 -0.2083
  959MOL0     C32234  10.541  -0.646   3.820 -0.4033 -1.0528  0.0191
  959MOL0     O32235  10.674  -0.625   3.843  0.0300  0.0811  0.0214
  959MOL0     C32236  10.758  -0.727   3.870 -0.3532 -0.1062 -0.2427
  959MOL0     C32237  10.786  -0.819   3.768  0.2468 -0.4479 -1.2421
  959MOL0     C32238  10.879  -0.923   3.789  1.2929  0.2209 -0.4041
  959MOL0     C32239  10.933  -0.938   3.915  0.1708  1.1065 -0.3098
  959MOL0     O32240  11.030  -1.029   3.948 -0.5317  0.4101  0.6711
  959MOL0     C32241  11.103  -1.091   3.835 -0.0403 -0.0052 -0.4689
  959MOL0     C32242  11.217  -1.176   3.897 -0.5959 -0.6260  0.1636
  959MOL0     C32243  11.287  -1.260   3.800  0.2094 -0.0387  0.6554
  959MOL0     C32244  11.410  -1.333   3.866 -0.4395 -0.5316  0.4770
  959MOL0     C32245  11.499  -1.415   3.758 -0.7043 -0.2746  0.4691
  959MOL0     C32246  11.600  -1.503   3.825  0.2994 -0.4662 -0.3228
  959MOL0     C32247  11.673  -1.590   3.718 -1.0524 -0.0568 -0.1138
  959MOL0     C32248  11.784  -1.675   3.774 -0.0617  0.5995 -0.1866
  959MOL0    Cl32249  11.877  -1.779   3.656 -0.0184 -0.3376 -0.2865
  959MOL0     C32250  10.895  -0.857   4.020 -0.3314 -0.2142 -0.8749
  959MOL0     C32251  10.804  -0.752   3.999 -0.2399 -0.2155 -0.5093
  959MOL0     O32252  10.489  -0.758   3.832  0.4535 -0.5189  0.4449
  959MOL0     C32253  10.316  -0.542   3.799  0.4933 -0.4005 -0.2337
  959MOL0     C32254  10.222  -0.443   3.782  0.3027 -0.1998 -0.3238
  959MOL0     N32255  10.119   0.224   4.031 -0.0760 -0.2743 -1.1659
  959MOL0     N32256  10.106   0.337   4.093  0.8342  0.6358  0.6198
  959MOL0     C32257   9.369   1.269   3.762 -0.4556 -0.1980 -0.7104
  959MOL0     C32258   9.238   1.325   3.750 -0.4733  0.1400  0.1582
  959MOL0     C32259   8.932   1.658   3.810 -0.3004 -0.4785 -0.4827
  959MOL0     C32260   8.816   1.588   3.799  0.2583  0.0804  0.0826
  959MOL0     C32261   8.695   1.646   3.760  0.2745 -0.9267  0.5237
  959MOL0     C32262   8.681   1.782   3.744  0.3362 -0.2185 -0.9015
  959MOL0     O32263   8.571   1.855   3.710  0.4138  0.7912 -0.0010
  959MOL0     C32264   8.445   1.781   3.677 -0.6247  0.1675  0.4996
  959MOL0     C32265   8.466   1.712   3.537  0.6605 -0.3509 -0.2776
  959MOL0     C32266   8.497   1.822   3.431  0.4565 -0.5022  0.0551
  959MOL0     C32267   8.374   1.907   3.403  0.6563  0.2154 -0.3664
  959MOL0     C32268   8.391   1.990   3.284 -0.4642 -0.2151 -0.4319
  959MOL0     C32269   8.399   2.060   3.188 -0.4692  0.3832 -0.7172
  959MOL0     C32270   8.803   1.859   3.750  0.3853  0.1243 -0.0763
  959MOL0     C32271   8.932   1.802   3.777 -0.1161  0.1665  0.0750
  959MOL0     C32272   9.048   1.891   3.786  0.1298  0.8630  0.2158
  959MOL0     H32273   9.195   1.448   4.060 -1.9056  3.1441 -2.8470
  959MOL0     H32274   9.420   1.356   4.084 -0.3397 -1.5673 -1.3690
  959MOL0     H32275   9.619   1.182   3.721 -2.2522 -0.8358 -0.1234
  959MOL0     H32276   9.559   1.060   3.838  0.0202  0.5128  1.3380
  959MOL0     H32277   9.811   1.059   3.802 -1.2211 -1.8883  0.9687
  959MOL0     H32278   9.808   1.214   3.885  0.1915  0.4161 -5.9207
  959MOL0     H32279   9.691   1.104   4.081  0.1717  1.2943  0.0595
  959MOL0     H32280   9.703   0.948   4.004  0.0602  0.3949  1.4163
  959MOL0     H32281   9.935   1.122   4.072  0.8775 -1.3469 -0.8465
  959MOL0     H32282   9.852   1.011   4.181  0.3712  1.3067 -0.1334
  959MOL0     H32283  10.065   0.910   4.070  0.7416  0.8031 -1.4835
  959MOL0     H32284   9.963   0.905   3.927 -0.3393  0.7278 -0.4325
  959MOL0     H32285   9.910   0.781   4.199  2.4732  3.8421 -1.0488
  959MOL0     H32286   9.806   0.747   4.063  0.2822 -1.8120  0.0899
  959MOL0     H32287  10.090   0.662   4.123  1.3915  1.1554 -1.7198
  959MOL0     H32288  10.047   0.664   3.961 -0.7289 -0.6281 -0.4318
  959MOL0     H32289   9.921   0.512   4.204 -0.4303 -0.2935  0.0844
  959MOL0     H32290   9.826   0.516   4.059  0.8045  1.2693 -2.4117
  959MOL0     H32291   9.874   0.360   3.864  0.4134  2.2893 -0.3510
  959MOL0     H32292   9.945   0.052   3.811 -1.1689  3.2567 -0.5852
  959MOL0     H32293  10.112   0.011   3.873 -0.0554 -1.0031 -2.4734
  959MOL0     H32294  10.037   0.198   3.638  2.2180  1.0720  1.7691
  959MOL0     H32295  10.197   0.175   3.682 -0.5389  0.4671  0.5795
  959MOL0     H32296  10.013  -0.057   3.619  2.0430 -1.6472  1.3057
  959MOL0     H32297  10.126   0.024   3.508  2.7237 -1.1890 -0.9828
  959MOL0     H32298  10.289  -0.103   3.559 -0.3754  1.7316  0.5411
  959MOL0     H32299  10.287  -0.064   3.726  1.5591  0.0223  0.0977
  959MOL0     H32300  10.444  -0.195   3.711  0.1415 -0.4180  0.2155
  959MOL0     H32301  10.728  -0.372   3.765  1.3416  1.5404  1.5873
  959MOL0     H32302  10.668  -0.343   3.928  0.4988  1.3298 -0.4393
  959MOL0     H32303  10.647  -0.224   3.797  0.7635  0.4348 -1.9632
  959MOL0     H32304  10.727  -0.806   3.677 -2.5044 -0.5560  0.4230
  959MOL0     H32305  10.891  -1.009   3.723  1.4866 -0.8758  1.0053
  959MOL0     H32306  11.040  -1.160   3.780  0.3164 -0.3422 -0.4556
  959MOL0     H32307  11.144  -1.020   3.763 -1.0805  1.7058  0.5321
  959MOL0     H32308  11.300  -1.116   3.936  0.6775 -2.7568  0.8548
  959MOL0     H32309  11.181  -1.241   3.977 -1.0279 -0.2033  0.3180
  959MOL0     H32310  11.322  -1.189   3.724  0.4342 -1.5528 -0.6980
  959MOL0     H32311  11.222  -1.328   3.745 -1.4301  2.5732 -0.8284
  959MOL0     H32312  11.380  -1.400   3.947 -0.9309  1.7810  2.3162
  959MOL0     H32313  11.471  -1.259   3.917  0.9462 -1.4535  0.2161
  959MOL0     H32314  11.426  -1.477   3.704  0.5192 -0.6009 -0.8511
  959MOL0     H32315  11.538  -1.342   3.687 -0.2728  0.8800  1.8343
  959MOL0     H32316  11.558  -1.562   3.906  1.7256 -2.6089 -1.0707
  959MOL0     H32317  11.680  -1.446   3.873  0.6951 -1.7603  0.5738
  959MOL0     H32318  11.711  -1.537   3.629  1.5057 -1.4755  0.0127
  959MOL0     H32319  11.595  -1.654   3.676 -1.4565 -0.1892  0.8257
  959MOL0     H32320  11.739  -1.756   3.831  1.9066  0.1217  0.7654
  959MOL0     H32321  11.858  -1.623   3.835 -0.4058  0.4245  0.3842
  959MOL0     H32322  10.929  -0.873   4.122  0.6307  1.7162 -0.8457
  959MOL0     H32323  10.771  -0.702   4.090 -0.2863 -0.2085 -0.5298
  959MOL0     H32324  10.281  -0.642   3.823  1.6164  0.2018  5.1546
  959MOL0     H32325  10.116  -0.465   3.780  0.3813 -0.6011 -0.0779
  959MOL0     H32326   9.407   1.211   3.679  0.5978 -1.2318  0.4409
  959MOL0     H32327   9.180   1.318   3.659 -0.4985  1.4035  0.0562
  959MOL0     H32328   8.807   1.481   3.816 -0.1205  0.2302  0.8760
  959MOL0     H32329   8.601   1.592   3.765 -0.7547  0.8688  1.5206
  959MOL0     H32330   8.415   1.712   3.756 -0.0179 -0.6116  0.0671
  959MOL0     H32331   8.358   1.845   3.661 -1.8617 -1.5822 -0.0763
  959MOL0     H32332   8.365   1.673   3.516  1.0267 -2.1429  1.0962
  959MOL0     H32333   8.546   1.639   3.548  0.4591 -0.1465  3.6833
  959MOL0     H32334   8.577   1.881   3.477  0.8854 -1.9473  1.2560
  959MOL0     H32335   8.545   1.765   3.351  2.6952  0.2819  0.7648
  959MOL0     H32336   8.351   1.983   3.479  0.1704 -0.5131  0.2286
  959MOL0     H32337   8.291   1.836   3.397  1.8321 -1.2919  0.4672
  959MOL0     H32338   8.400   2.120   3.100  0.3134  0.7943 -0.4360
  959MOL0     H32339   8.799   1.966   3.732  2.7361 -0.2212 -3.7241
  959MOL0     H32340   9.083   1.883   3.890 -1.7265 -1.0016  0.7533
  959MOL0     H32341   9.125   1.874   3.710 -1.6759 -3.1535 -0.9782
  959MOL0     H32342   9.020   1.996   3.777  0.9161  1.1262  0.6826
  960MOL0     O32343   7.522   1.351   7.307 -0.0333 -0.9494  0.6714
  960MOL0     C32344   7.576   1.455   7.347  0.2901 -0.0833  0.3282
  960MOL0     O32345   7.699   1.461   7.391  0.7751  0.5810 -0.6113
  960MOL0     C32346   7.783   1.356   7.365 -0.9158 -0.1863 -0.9036
  960MOL0     C32347   7.778   1.222   7.412 -0.3999 -0.1935 -0.0478
  960MOL0     C32348   7.871   1.123   7.390  0.1277 -0.8017  0.1870
  960MOL0     C32349   7.970   1.156   7.297 -0.1878  1.4056 -0.4910
  960MOL0     O32350   8.051   1.052   7.256 -0.2019  0.1460 -0.0328
  960MOL0     C32351   8.184   1.087   7.211  0.1676 -0.9203 -0.0171
  960MOL0     C32352   8.259   0.962   7.175  1.1427 -0.4915 -0.5850
  960MOL0     C32353   8.414   1.002   7.159  0.5807 -0.1499  0.1465
  960MOL0     C32354   8.510   0.886   7.186  0.2009 -0.2043  0.1446
  960MOL0     C32355   8.654   0.934   7.181 -0.6359  0.4064 -0.8872
  960MOL0     C32356   8.707   1.015   7.058 -0.2146  0.2752 -0.1622
  960MOL0     C32357   8.856   1.022   7.059  0.1574 -0.4731  0.1633
  960MOL0     C32358   8.904   1.145   7.143 -0.3906 -0.1347 -0.0813
  960MOL0     N32359   9.045   1.187   7.103  0.0714 -0.8195 -0.4700
  960MOL0     C32360   9.095   1.316   7.109 -0.3141 -0.2358  0.4304
  960MOL0     C32361   9.229   1.301   7.101 -0.2919  1.0323 -0.1498
  960MOL0     C32362   9.309   1.420   7.067  0.5300 -0.1427 -0.0275
  960MOL0     C32363   9.463   1.407   7.087 -1.4262  0.0366  0.3080
  960MOL0     C32364   9.515   1.339   7.222  0.4311  0.5145  0.7768
  960MOL0     C32365   9.452   1.391   7.342  0.3395 -0.7018 -0.2116
  960MOL0     O32366   9.504   1.344   7.471 -0.0736 -0.6719  0.9704
  960MOL0     C32367   9.637   1.358   7.501 -0.1539  0.2005 -0.2303
  960MOL0     C32368   9.705   1.247   7.554  0.4030 -0.2555  0.2815
  960MOL0     C32369   9.847   1.250   7.567  0.9652  0.3992  0.7282
  960MOL0     C32370   9.909   1.126   7.612 -0.2451  0.0244  0.5038
  960MOL0     C32371   9.919   1.367   7.532 -0.5428 -0.2794  0.6700
  960MOL0     C32372  10.065   1.380   7.533  0.2963 -0.3555  0.0389
  960MOL0     O32373  10.117   1.497   7.495 -0.3038  0.0515 -0.5851
  960MOL0     C32374  10.247   1.534   7.537 -0.2190  0.0652  0.4250
  960MOL0     C32375  10.321   1.621   7.452  0.1715 -0.4395 -0.0466
  960MOL0     C32376  10.447   1.670   7.475  0.0870 -1.0426  0.3559
  960MOL0     C32377  10.503   1.641   7.601 -1.2271 -0.1811  0.1182
  960MOL0     O32378  10.613   1.708   7.655 -0.9874  0.0608 -0.1059
  960MOL0     C32379  10.725   1.622   7.701  1.0035  0.4329 -0.9062
  960MOL0     C32380  10.859   1.710   7.699  0.1786 -0.4664 -0.1889
  960MOL0     C32381  10.986   1.638   7.745 -0.5427 -0.0236  0.4493
  960MOL0     C32382  11.103   1.733   7.775 -0.5574  0.7543 -0.5191
  960MOL0     C32383  11.221   1.646   7.812  0.5017  0.4204  1.4597
  960MOL0     C32384  11.310   1.599   7.683  0.1909 -0.4666  0.1240
  960MOL0     C32385  11.454   1.556   7.707 -1.0722 -0.8223 -0.0516
  960MOL0     C32386  11.546   1.675   7.754  0.3027  0.2437 -0.5967
  960MOL0    Cl32387  11.715   1.631   7.724 -0.3875 -0.0785  0.1451
  960MOL0     C32388  10.434   1.556   7.692 -0.1300  0.3988  0.1812
  960MOL0     C32389  10.310   1.498   7.658  1.2528  0.6680  0.4947
  960MOL0     O32390  10.127   1.285   7.577 -0.2110 -0.7078 -0.4642
  960MOL0     C32391   9.836   1.481   7.502 -1.1737  0.1282 -0.2597
  960MOL0     C32392   9.702   1.478   7.494  0.6409 -0.2015 -0.1814
  960MOL0     N32393   9.260   1.166   7.091 -0.0194 -0.3194  0.4918
  960MOL0     N32394   9.145   1.094   7.088 -0.1063  0.2329  0.3894
  960MOL0     C32395   7.977   1.288   7.241 -0.2712  0.0267  0.3049
  960MOL0     C32396   7.885   1.379   7.273  0.2773  0.1088 -0.0189
  960MOL0     C32397   7.484   1.576   7.358 -0.7562 -0.7230 -0.1882
  960MOL0     C32398   7.523   1.674   7.449  0.3092 -0.4106  0.8575
  960MOL0     C32399   7.437   1.782   7.482 -0.2436 -0.6503 -0.2572
  960MOL0     C32400   7.314   1.800   7.427 -0.1370  0.0563  0.0022
  960MOL0     O32401   7.226   1.900   7.455  0.1643  0.0806 -0.2767
  960MOL0     C32402   7.125   1.859   7.550 -0.1143  0.0143 -0.4123
  960MOL0     C32403   7.026   1.975   7.561 -1.2420  0.2665 -0.0425
  960MOL0     C32404   6.909   1.933   7.647 -0.3819  0.4300  0.5228
  960MOL0     C32405   6.819   2.055   7.674 -0.1889 -0.3414  0.7857
  960MOL0     C32406   6.675   2.035   7.725 -0.9224 -0.5649 -0.7921
  960MOL0     C32407   6.556   2.026   7.749 -0.1942  0.0630 -0.0630
  960MOL0     C32408   7.268   1.704   7.343 -0.0521  0.4860  0.4885
  960MOL0     C32409   7.349   1.596   7.299 -0.0072  0.0638 -0.7283
  960MOL0     C32410   7.290   1.491   7.210 -0.5037  0.1198  1.1360
  960MOL0     H32411   7.689   1.192   7.466  0.6160 -0.0442  1.7866
  960MOL0     H32412   7.849   1.023   7.424 -1.9575 -0.6080 -0.4479
  960MOL0     H32413   8.243   1.129   7.293 -1.7991 -2.0992  2.1303
  960MOL0     H32414   8.182   1.164   7.133 -0.9228 -0.6848  0.2269
  960MOL0     H32415   8.241   0.897   7.262 -3.7077  1.0238 -0.1784
  960MOL0     H32416   8.230   0.906   7.085  0.4790 -2.3378  0.7033
  960MOL0     H32417   8.426   1.028   7.054  1.7238 -1.5361 -0.0947
  960MOL0     H32418   8.446   1.079   7.230  0.5500 -0.0069  0.0047
  960MOL0     H32419   8.488   0.832   7.278 -0.5864 -0.3709 -0.1262
  960MOL0     H32420   8.493   0.812   7.108 -1.8884 -1.4856  1.7012
  960MOL0     H32421   8.725   0.852   7.191  0.5619  1.2445 -2.0428
  960MOL0     H32422   8.669   0.997   7.269  0.3350  1.5414 -1.8112
  960MOL0     H32423   8.682   0.952   6.971 -1.3080  0.8512 -0.2733
  960MOL0     H32424   8.659   1.110   7.035  1.8143  1.2537 -0.5646
  960MOL0     H32425   8.887   1.041   6.956  1.0848  1.9279  0.8139
  960MOL0     H32426   8.905   0.930   7.093  0.7282  0.0359  0.7352
  960MOL0     H32427   8.845   1.234   7.122 -0.3178  0.0026  0.2907
  960MOL0     H32428   8.903   1.123   7.250 -0.1462 -0.3455 -0.1200
  960MOL0     H32429   9.034   1.406   7.105 -2.3344 -1.3826  2.7647
  960MOL0     H32430   9.269   1.498   7.132 -1.7962 -0.7474 -0.6418
  960MOL0     H32431   9.282   1.447   6.965  0.5714 -0.9730 -0.2641
  960MOL0     H32432   9.493   1.349   6.999  0.9776  1.3133  0.2157
  960MOL0     H32433   9.511   1.504   7.073  1.4888 -1.5484 -1.9970
  960MOL0     H32434   9.487   1.235   7.200 -0.3919  1.4414 -3.2206
  960MOL0     H32435   9.624   1.338   7.231  0.5432  1.5778 -0.2524
  960MOL0     H32436   9.439   1.499   7.330  1.4934 -0.7551 -2.4737
  960MOL0     H32437   9.348   1.357   7.342 -0.1671  0.5787 -2.8482
  960MOL0     H32438   9.655   1.152   7.566 -3.0489  1.5958  1.8494
  960MOL0     H32439   9.958   1.138   7.709 -0.5416  0.0023  0.6559
  960MOL0     H32440   9.972   1.092   7.529 -2.5043  0.9697 -1.7359
  960MOL0     H32441   9.828   1.055   7.631 -0.2385 -0.4271 -1.0360
  960MOL0     H32442  10.273   1.652   7.360  2.2532 -0.2953 -1.1465
  960MOL0     H32443  10.494   1.740   7.407 -2.2301  0.6407  0.3771
  960MOL0     H32444  10.705   1.583   7.801  0.8119 -2.1335 -1.8654
  960MOL0     H32445  10.725   1.531   7.641 -3.2945 -0.4696  0.1277
  960MOL0     H32446  10.868   1.731   7.592 -1.5411 -2.2952 -0.7485
  960MOL0     H32447  10.843   1.794   7.768 -0.6220 -0.5108 -0.3073
  960MOL0     H32448  11.002   1.568   7.663 -2.5550 -0.8052  0.6667
  960MOL0     H32449  10.959   1.581   7.834  0.1613  0.5528  1.0488
  960MOL0     H32450  11.088   1.783   7.871  1.5506 -3.4032  2.3006
  960MOL0     H32451  11.113   1.799   7.688  1.0792  2.2769  0.7588
  960MOL0     H32452  11.279   1.704   7.884 -0.8075  2.4269  0.9695
  960MOL0     H32453  11.186   1.554   7.859 -2.0733 -0.5967 -2.0108
  960MOL0     H32454  11.314   1.679   7.608  0.2712 -2.2838 -1.9125
  960MOL0     H32455  11.250   1.526   7.627  0.6917  0.1134 -1.2254
  960MOL0     H32456  11.504   1.517   7.618 -0.0584 -3.4795  1.5409
  960MOL0     H32457  11.465   1.472   7.776  1.4832 -0.4766  0.0476
  960MOL0     H32458  11.523   1.707   7.856  0.3121  0.7464 -0.7511
  960MOL0     H32459  11.521   1.759   7.689 -1.9089 -2.3589 -3.4150
  960MOL0     H32460  10.483   1.545   7.788  1.4569 -0.0730 -0.6382
  960MOL0     H32461  10.259   1.435   7.729 -0.7241  1.8610  0.2016
  960MOL0     H32462   9.881   1.579   7.490  1.2110 -0.3617  3.2042
  960MOL0     H32463   9.653   1.572   7.468  1.4461  0.0616 -0.7835
  960MOL0     H32464   8.040   1.320   7.160 -2.9984  1.9082 -1.2344
  960MOL0     H32465   7.878   1.465   7.207 -2.3546  1.2304  1.5664
  960MOL0     H32466   7.623   1.675   7.492 -0.2016  3.1316  2.3032
  960MOL0     H32467   7.483   1.854   7.549  0.3302 -2.5828  1.5322
  960MOL0     H32468   7.081   1.767   7.510  2.1480 -0.2250 -2.6152
  960MOL0     H32469   7.183   1.840   7.641  0.0162 -0.4539 -0.5882
  960MOL0     H32470   6.991   2.007   7.462  0.3373  3.8340  0.4033
  960MOL0     H32471   7.069   2.066   7.604  0.4357  0.0876 -1.2245
  960MOL0     H32472   6.840   1.860   7.605 -0.4717 -1.3542  3.5006
  960MOL0     H32473   6.950   1.899   7.743 -0.0615 -1.6413 -0.3105
  960MOL0     H32474   6.790   2.112   7.585 -1.3926 -3.2313 -0.8205
  960MOL0     H32475   6.887   2.110   7.740 -0.0305  1.8950 -1.0866
  960MOL0     H32476   6.453   2.012   7.776 -0.8513  0.4160 -2.1455
  960MOL0     H32477   7.175   1.721   7.290  0.7151  0.5805 -0.8939
  960MOL0     H32478   7.366   1.448   7.144  0.0199 -1.9141  2.9432
  960MOL0     H32479   7.257   1.412   7.279  1.2366  0.4473  2.4109
  960MOL0     H32480   7.201   1.531   7.160 -1.4045  0.6015  3.0215
  961MOL0     O32481   1.377   5.313   3.346  0.3167 -0.0930  0.1187
  961MOL0     C32482   1.477   5.266   3.409 -0.3727  0.2404 -0.1499
  961MOL0     O32483   1.493   5.140   3.452  0.0265  0.3032 -0.6301
  961MOL0     C32484   1.382   5.063   3.480 -1.4664  0.3217 -0.1259
  961MOL0     C32485   1.257   5.107   3.508 -0.0000 -1.0199  0.2640
  961MOL0     C32486   1.146   5.021   3.512  1.2465 -1.1188 -0.3460
  961MOL0     C32487   1.162   4.883   3.516  0.3242 -0.8356  0.1867
  961MOL0     O32488   1.062   4.792   3.505  0.4141  0.6746 -0.5318
  961MOL0     C32489   0.952   4.808   3.604 -0.0497  0.6095  0.0871
  961MOL0     C32490   0.861   4.679   3.604 -0.0456 -0.3196 -0.1655
  961MOL0     C32491   0.930   4.576   3.699 -0.2542 -0.7648  0.8374
  961MOL0     C32492   0.862   4.443   3.703  0.5700 -0.2432  0.4485
  961MOL0     C32493   0.936   4.353   3.821  0.2258 -1.1310  0.7622
  961MOL0     C32494   0.911   4.209   3.786 -0.3262 -0.2256 -0.1661
  961MOL0     C32495   0.951   4.112   3.890  0.3474  0.2944  0.0982
  961MOL0     C32496   0.934   3.966   3.846  0.7410 -0.1100  0.1403
  961MOL0     N32497   0.977   3.872   3.953  0.4342  0.6062 -0.5122
  961MOL0     C32498   0.906   3.826   4.060 -1.0177  0.1914 -0.8300
  961MOL0     C32499   1.000   3.773   4.144  0.4195 -0.6160  0.0309
  961MOL0     C32500   0.973   3.713   4.278 -0.0792 -0.0987 -0.8394
  961MOL0     C32501   1.114   3.672   4.333  0.2144 -0.1249 -0.0171
  961MOL0     C32502   1.094   3.584   4.458 -0.3011  0.0929  0.1733
  961MOL0     C32503   1.235   3.558   4.509 -0.5876  0.7130 -0.1837
  961MOL0     O32504   1.242   3.615   4.637  0.1678  0.1259  0.8513
  961MOL0     C32505   1.348   3.590   4.719  0.0040 -0.8578 -0.3067
  961MOL0     C32506   1.459   3.506   4.697  0.5515 -0.7019 -0.5711
  961MOL0     C32507   1.561   3.474   4.790  0.5055  0.8056 -0.7530
  961MOL0     C32508   1.665   3.383   4.730  0.4671 -0.2212 -0.6120
  961MOL0     C32509   1.565   3.547   4.915 -0.4228  0.1132  0.6585
  961MOL0     C32510   1.673   3.528   5.017  0.2038 -0.2822 -0.2444
  961MOL0     O32511   1.666   3.610   5.131  0.3042 -0.4481 -0.2304
  961MOL0     C32512   1.758   3.596   5.235  0.4018  0.5803 -0.7937
  961MOL0     C32513   1.786   3.718   5.301  0.6259 -0.0297 -0.4752
  961MOL0     C32514   1.865   3.712   5.418  0.6994  0.1032  0.2964
  961MOL0     C32515   1.920   3.590   5.458  0.5662 -0.2157  0.1934
  961MOL0     O32516   2.011   3.580   5.562 -0.8387  0.9284 -1.0719
  961MOL0     C32517   2.108   3.687   5.576  0.1475  0.2916 -0.0386
  961MOL0     C32518   2.195   3.710   5.449  0.2935  0.4086 -0.7160
  961MOL0     C32519   2.237   3.855   5.454 -0.2698  0.2178 -0.4053
  961MOL0     C32520   2.335   3.882   5.569 -0.2347 -0.0035 -0.3771
  961MOL0     C32521   2.408   4.006   5.537  0.0086 -0.8846 -0.2076
  961MOL0     C32522   2.505   4.051   5.640  0.0448 -0.3551  0.0885
  961MOL0     C32523   2.461   4.046   5.787  0.0702  0.5891 -0.1867
  961MOL0     C32524   2.576   4.092   5.885 -0.6260  0.2011 -0.6303
  961MOL0    Cl32525   2.634   4.252   5.835 -0.0376 -0.1034  0.0521
  961MOL0     C32526   1.894   3.471   5.390 -0.1846 -0.4654  0.3502
  961MOL0     C32527   1.803   3.477   5.286  1.1318  0.4789 -1.1001
  961MOL0     O32528   1.755   3.443   4.996  0.7267  0.3634 -0.1772
  961MOL0     C32529   1.455   3.633   4.942 -0.0173  0.0171 -0.4613
  961MOL0     C32530   1.351   3.661   4.847  0.2726 -0.0202  0.7593
  961MOL0     N32531   1.123   3.776   4.074  0.4939  0.1301  0.3322
  961MOL0     N32532   1.107   3.830   3.963  0.4085 -0.0545  0.1469
  961MOL0     C32533   1.292   4.832   3.504  0.5777  0.0166 -0.2561
  961MOL0     C32534   1.393   4.924   3.480 -0.3503 -0.1031 -0.1579
  961MOL0     C32535   1.593   5.354   3.460  0.4026  0.8414  1.0076
  961MOL0     C32536   1.693   5.303   3.541 -0.5719  0.5001  0.0406
  961MOL0     C32537   1.802   5.373   3.586 -0.3567 -0.6046 -0.0228
  961MOL0     C32538   1.797   5.513   3.562  0.2123  0.0710  0.2408
  961MOL0     O32539   1.894   5.607   3.601  0.2944 -0.7611  0.6766
  961MOL0     C32540   1.992   5.590   3.702  0.4770 -0.3560  0.2547
  961MOL0     C32541   1.933   5.560   3.839 -0.2216 -0.0312 -0.3845
  961MOL0     C32542   2.052   5.556   3.939  0.3258 -0.5878  0.3133
  961MOL0     C32543   2.002   5.571   4.084  0.1275  0.1358  0.2638
  961MOL0     C32544   2.113   5.561   4.182  0.2577 -0.2202  0.2950
  961MOL0     C32545   2.196   5.570   4.267 -0.2857  0.3159 -0.3904
  961MOL0     C32546   1.695   5.572   3.491  0.3605 -0.3505  0.3322
  961MOL0     C32547   1.600   5.494   3.428  0.4369  0.3502 -0.1821
  961MOL0     C32548   1.499   5.572   3.346 -0.1517  0.6671 -0.4917
  961MOL0     H32549   1.227   5.210   3.516  0.7337 -0.6699 -1.0363
  961MOL0     H32550   1.045   5.055   3.528  0.4547 -4.0025  1.5973
  961MOL0     H32551   0.895   4.897   3.575 -0.8836 -0.2492 -0.9755
  961MOL0     H32552   0.985   4.828   3.706  1.4352 -0.0267 -0.2329
  961MOL0     H32553   0.761   4.697   3.646  0.8996 -2.1788  3.2275
  961MOL0     H32554   0.854   4.634   3.505 -1.7589 -3.6985  1.3353
  961MOL0     H32555   1.031   4.558   3.662 -1.2134  0.6517 -2.9975
  961MOL0     H32556   0.925   4.615   3.801 -1.1134 -0.2949  0.6304
  961MOL0     H32557   0.755   4.456   3.724  1.1318  2.5262  2.1313
  961MOL0     H32558   0.883   4.393   3.608 -0.8471 -1.4685  0.7360
  961MOL0     H32559   0.907   4.392   3.919 -2.0044  0.6165 -0.4986
  961MOL0     H32560   1.044   4.364   3.818  0.1029  0.2857  0.7600
  961MOL0     H32561   0.805   4.188   3.769  0.1724 -3.4511  0.1778
  961MOL0     H32562   0.961   4.189   3.691  0.7977  1.7919 -0.0686
  961MOL0     H32563   0.886   4.133   3.975 -3.9889 -1.1681 -2.5093
  961MOL0     H32564   1.056   4.132   3.915  0.0810 -0.9858  2.4892
  961MOL0     H32565   0.831   3.946   3.815  0.3231  2.6312 -0.5669
  961MOL0     H32566   0.996   3.945   3.758  1.5897 -1.7595  1.0934
  961MOL0     H32567   0.801   3.844   4.081 -1.0096  1.5146 -1.7971
  961MOL0     H32568   0.920   3.618   4.274  0.9830 -0.7733  0.2868
  961MOL0     H32569   0.921   3.771   4.355 -0.6437 -1.8507  0.1742
  961MOL0     H32570   1.180   3.620   4.263  1.2239  1.8814 -0.6230
  961MOL0     H32571   1.171   3.760   4.366  0.2385  0.6025 -1.9027
  961MOL0     H32572   1.041   3.638   4.536  1.2560  1.0998  0.5738
  961MOL0     H32573   1.052   3.484   4.446 -0.3869  0.2820 -1.3191
  961MOL0     H32574   1.266   3.454   4.496  1.6586  1.2321  0.5687
  961MOL0     H32575   1.312   3.605   4.446 -1.9087  0.6315 -1.9405
  961MOL0     H32576   1.463   3.458   4.600  0.5066 -0.5834 -0.6321
  961MOL0     H32577   1.651   3.285   4.776  2.4992 -0.4987 -0.4910
  961MOL0     H32578   1.767   3.408   4.759  1.1915 -0.9427 -2.4127
  961MOL0     H32579   1.661   3.378   4.621 -0.9937 -0.2684 -0.5733
  961MOL0     H32580   1.742   3.810   5.265  3.1995  1.3834 -0.2781
  961MOL0     H32581   1.885   3.802   5.476  0.9323 -1.0922  2.1825
  961MOL0     H32582   2.055   3.781   5.597 -0.4306  0.1437 -0.8035
  961MOL0     H32583   2.180   3.674   5.657  0.8726  2.6352 -0.2324
  961MOL0     H32584   2.284   3.647   5.444 -0.2859 -0.7583  1.9664
  961MOL0     H32585   2.133   3.690   5.361 -1.4332  0.5394  0.4132
  961MOL0     H32586   2.152   3.923   5.460  0.2040  0.7972 -0.1379
  961MOL0     H32587   2.281   3.876   5.356 -0.4324 -1.4689 -0.8718
  961MOL0     H32588   2.396   3.793   5.584  0.2541  0.2558 -0.7362
  961MOL0     H32589   2.290   3.894   5.667 -2.0834  0.2929 -1.2282
  961MOL0     H32590   2.474   3.987   5.452 -0.1177 -0.8260 -0.3185
  961MOL0     H32591   2.343   4.092   5.516 -0.3437 -0.6139  1.8134
  961MOL0     H32592   2.519   4.158   5.620 -1.4094 -0.3350 -0.9740
  961MOL0     H32593   2.597   3.993   5.628  1.0743  0.7935  1.9000
  961MOL0     H32594   2.445   3.943   5.819  0.2561  0.6949  0.2510
  961MOL0     H32595   2.370   4.106   5.795 -0.1521  0.2754 -0.3379
  961MOL0     H32596   2.653   4.015   5.879 -1.0389 -0.3122  0.3704
  961MOL0     H32597   2.547   4.089   5.990  1.2232  0.7710 -0.0818
  961MOL0     H32598   1.938   3.375   5.416  1.7826 -0.1668 -1.5888
  961MOL0     H32599   1.770   3.381   5.247  3.7030 -1.5957  1.4056
  961MOL0     H32600   1.461   3.688   5.034 -0.1431  2.1462 -1.6667
  961MOL0     H32601   1.270   3.731   4.863  1.0928  1.1403 -0.0166
  961MOL0     H32602   1.311   4.726   3.492  0.3685 -0.2242  1.3363
  961MOL0     H32603   1.493   4.890   3.454 -0.8843  0.9636 -4.3102
  961MOL0     H32604   1.697   5.196   3.559  1.4892  0.7530  1.3407
  961MOL0     H32605   1.870   5.321   3.652 -2.7152  0.0037  3.0951
  961MOL0     H32606   2.055   5.506   3.673 -0.0190 -1.0341  1.1074
  961MOL0     H32607   2.042   5.688   3.707 -1.0114  0.4847 -0.6566
  961MOL0     H32608   1.884   5.463   3.831 -0.3376 -0.1494  1.3980
  961MOL0     H32609   1.854   5.629   3.873 -0.7512 -2.4311  3.8486
  961MOL0     H32610   2.097   5.457   3.933 -0.5728 -0.9170 -2.9956
  961MOL0     H32611   2.130   5.630   3.918  0.5977 -0.6358  1.1416
  961MOL0     H32612   1.921   5.502   4.109 -1.4270  1.4341 -0.9693
  961MOL0     H32613   1.947   5.665   4.096 -0.4133 -0.2364  0.8042
  961MOL0     H32614   2.253   5.573   4.358  1.1309 -2.7935 -1.0407
  961MOL0     H32615   1.706   5.679   3.480  1.3870 -0.5456 -0.7469
  961MOL0     H32616   1.406   5.578   3.404  0.9453 -1.6634  1.6828
  961MOL0     H32617   1.542   5.671   3.330  2.3276 -0.7005 -3.0255
  961MOL0     H32618   1.467   5.524   3.253 -1.7834 -0.1464  0.4332
  962MOL0     O32619   7.102   5.358   5.438  0.3528  0.2482 -0.0085
  962MOL0     C32620   7.080   5.433   5.345 -0.3126 -0.0818  0.3960
  962MOL0     O32621   7.172   5.520   5.295 -0.5006 -0.0919 -0.0284
  962MOL0     C32622   7.285   5.541   5.371 -0.7697 -0.1679  0.3904
  962MOL0     C32623   7.394   5.451   5.368 -0.6797  0.1987 -0.2098
  962MOL0     C32624   7.506   5.469   5.446 -0.5146  0.0724 -0.5919
  962MOL0     C32625   7.514   5.570   5.545 -0.3896 -0.2782 -0.8621
  962MOL0     O32626   7.606   5.547   5.647  0.5887 -0.1871  0.3636
  962MOL0     C32627   7.603   5.648   5.754 -0.7246  0.3806 -0.0592
  962MOL0     C32628   7.732   5.650   5.829  0.3437 -0.5206 -0.1812
  962MOL0     C32629   7.858   5.673   5.746 -0.7354  0.5546 -0.4967
  962MOL0     C32630   7.889   5.820   5.688  0.2185 -0.1365  0.6331
  962MOL0     C32631   8.014   5.814   5.595 -0.5739 -0.4807  0.6174
  962MOL0     C32632   8.141   5.796   5.679 -0.0725  0.7960  0.0392
  962MOL0     C32633   8.263   5.775   5.593 -0.3458 -0.2743 -0.4305
  962MOL0     C32634   8.389   5.754   5.667 -0.3419  0.1087 -0.4373
  962MOL0     N32635   8.520   5.746   5.595  0.0558  0.2114  0.1451
  962MOL0     C32636   8.555   5.773   5.465  1.0555 -0.9012 -0.0214
  962MOL0     C32637   8.690   5.754   5.458  0.0015  1.1794  0.4437
  962MOL0     C32638   8.772   5.774   5.331  0.1530  0.3790  0.2269
  962MOL0     C32639   8.756   5.674   5.217  0.0091 -0.3417 -0.3149
  962MOL0     C32640   8.770   5.535   5.259  0.1620 -0.1160  0.4418
  962MOL0     C32641   8.763   5.444   5.126 -0.1594  0.6431  0.3237
  962MOL0     O32642   8.786   5.302   5.161  0.0129  0.0739 -0.5086
  962MOL0     C32643   8.677   5.229   5.205  0.0407 -0.8119 -0.7979
  962MOL0     C32644   8.552   5.280   5.231  1.4867  0.6000 -0.6531
  962MOL0     C32645   8.444   5.204   5.276  0.0513  0.1239 -0.1132
  962MOL0     C32646   8.306   5.277   5.290 -0.6221 -0.7038  0.6516
  962MOL0     C32647   8.465   5.072   5.309 -0.0377 -0.8058 -0.4110
  962MOL0     C32648   8.361   4.989   5.373 -0.5080 -0.1296 -0.7770
  962MOL0     O32649   8.279   5.050   5.462  0.6746  0.2265 -0.2494
  962MOL0     C32650   8.182   4.975   5.525  0.3608 -0.2113 -0.2396
  962MOL0     C32651   8.052   4.982   5.489  0.1357 -0.3197  0.0505
  962MOL0     C32652   7.960   4.899   5.550 -0.4680 -0.1480  0.0649
  962MOL0     C32653   7.990   4.814   5.659 -0.5189  0.2338  0.6286
  962MOL0     O32654   7.914   4.715   5.712  0.6724  0.1992 -0.2780
  962MOL0     C32655   7.771   4.718   5.690 -0.8517 -0.0979  0.2634
  962MOL0     C32656   7.698   4.618   5.767  0.4590  1.1631 -0.9730
  962MOL0     C32657   7.548   4.668   5.785 -0.2023  0.2858  0.1151
  962MOL0     C32658   7.460   4.553   5.835 -0.3847 -0.1175 -0.0280
  962MOL0     C32659   7.317   4.604   5.860 -0.0060  0.2456 -0.6614
  962MOL0     C32660   7.308   4.706   5.976  0.2052 -0.3199 -1.0201
  962MOL0     C32661   7.170   4.753   5.992  0.9469 -0.4208  0.0902
  962MOL0     C32662   7.152   4.859   6.099  0.7778 -0.0450  0.2205
  962MOL0    Cl32663   7.271   5.000   6.085  0.8152  0.0838  0.3072
  962MOL0     C32664   8.123   4.823   5.718  0.0329 -0.2397 -0.2016
  962MOL0     C32665   8.211   4.896   5.639 -1.0076 -1.4869 -0.7436
  962MOL0     O32666   8.367   4.874   5.352 -0.0438  1.0781 -0.0310
  962MOL0     C32667   8.592   5.012   5.280  0.2477 -0.0415  0.4596
  962MOL0     C32668   8.695   5.093   5.227  0.1118 -0.4464 -0.3535
  962MOL0     N32669   8.740   5.712   5.580  0.0578  0.6001 -0.0469
  962MOL0     N32670   8.639   5.715   5.664  0.3949 -0.1073  0.3406
  962MOL0     C32671   7.394   5.655   5.551  0.1062  0.0730 -0.5271
  962MOL0     C32672   7.284   5.632   5.468  1.2304  0.8289  0.5627
  962MOL0     C32673   6.939   5.435   5.288  0.2238 -0.4284 -0.3363
  962MOL0     C32674   6.921   5.421   5.149  0.3527 -0.4334 -0.6243
  962MOL0     C32675   6.796   5.418   5.096  0.0945 -0.1379  0.7170
  962MOL0     C32676   6.678   5.407   5.173  0.3656  0.0576  0.0653
  962MOL0     O32677   6.546   5.394   5.132 -0.0926 -0.0118 -0.0173
  962MOL0     C32678   6.518   5.373   4.988  0.3732 -0.3420  0.8063
  962MOL0     C32679   6.362   5.367   4.981 -0.4251 -0.0096  0.0874
  962MOL0     C32680   6.318   5.233   5.058  0.7870 -1.1207 -0.3085
  962MOL0     C32681   6.164   5.203   5.079 -0.0526  0.0960 -0.4026
  962MOL0     C32682   6.091   5.282   4.989  0.1784 -0.9144 -0.1112
  962MOL0     C32683   6.034   5.342   4.904  0.6161  0.3965  0.2911
  962MOL0     C32684   6.699   5.426   5.314 -0.0918  0.5303  0.8434
  962MOL0     C32685   6.826   5.444   5.370 -0.3402  0.5349 -0.6032
  962MOL0     C32686   6.831   5.455   5.523 -0.0805  0.6953 -0.8213
  962MOL0     H32687   7.388   5.372   5.294 -1.0720  2.0857 -2.3053
  962MOL0     H32688   7.576   5.386   5.437  0.8612  0.9864  0.9934
  962MOL0     H32689   7.520   5.633   5.824 -1.2685  1.7337 -0.3799
  962MOL0     H32690   7.586   5.743   5.703  0.1959  0.6840  0.1742
  962MOL0     H32691   7.737   5.722   5.911  4.1659  1.8512 -2.2164
  962MOL0     H32692   7.731   5.555   5.885  1.7328 -0.4109  0.0776
  962MOL0     H32693   7.936   5.643   5.816 -0.5572 -1.1010 -1.3684
  962MOL0     H32694   7.862   5.611   5.656 -1.4259 -1.3465  0.7321
  962MOL0     H32695   7.804   5.845   5.623 -0.2267 -1.7716  0.5464
  962MOL0     H32696   7.899   5.892   5.770 -0.9368  3.1820 -1.9301
  962MOL0     H32697   8.018   5.902   5.529  0.7078 -0.4193  0.7513
  962MOL0     H32698   8.007   5.728   5.528  2.8406  0.9764 -1.9036
  962MOL0     H32699   8.158   5.873   5.755 -1.3926  2.9759 -1.7520
  962MOL0     H32700   8.130   5.702   5.734  0.9664 -0.1370 -1.2658
  962MOL0     H32701   8.279   5.867   5.537  0.7467  0.3794  0.9158
  962MOL0     H32702   8.242   5.690   5.526  0.5462  1.6614 -3.3695
  962MOL0     H32703   8.407   5.831   5.743  1.3045 -2.1252  1.5789
  962MOL0     H32704   8.392   5.663   5.727  0.7893  1.0337  0.9979
  962MOL0     H32705   8.493   5.813   5.385  2.5703 -1.2379 -1.4351
  962MOL0     H32706   8.878   5.770   5.357  0.0929 -2.5903  0.3775
  962MOL0     H32707   8.737   5.869   5.290 -1.4366  0.5424  1.8401
  962MOL0     H32708   8.658   5.684   5.169  0.2969 -0.5732 -0.9647
  962MOL0     H32709   8.838   5.698   5.149 -0.2872  2.6133  0.2442
  962MOL0     H32710   8.865   5.524   5.312  0.4646  1.6562  0.3225
  962MOL0     H32711   8.691   5.507   5.329 -0.2121 -0.1525  0.0121
  962MOL0     H32712   8.666   5.461   5.078  0.1780  0.2581 -0.5339
  962MOL0     H32713   8.832   5.471   5.045 -0.9248 -0.8402 -0.8856
  962MOL0     H32714   8.523   5.383   5.211  0.6832  1.0756  2.3797
  962MOL0     H32715   8.306   5.310   5.394 -0.2156 -1.0005  0.7504
  962MOL0     H32716   8.218   5.214   5.274 -0.7172 -0.5028  0.3837
  962MOL0     H32717   8.299   5.361   5.220  0.1465 -1.4317 -0.3383
  962MOL0     H32718   8.026   5.051   5.409  0.3143  1.7032  1.6528
  962MOL0     H32719   7.866   4.900   5.495 -0.3747  2.3970 -0.1619
  962MOL0     H32720   7.724   4.815   5.707 -0.6747  0.0063  0.1733
  962MOL0     H32721   7.761   4.698   5.583 -1.0300 -0.0713  0.2752
  962MOL0     H32722   7.690   4.524   5.712 -2.5438  0.7408 -0.0082
  962MOL0     H32723   7.745   4.609   5.866  1.1929 -1.2760 -1.4717
  962MOL0     H32724   7.500   4.698   5.692 -3.9773 -1.2613  1.3947
  962MOL0     H32725   7.546   4.754   5.852 -0.7424 -0.5848  1.2645
  962MOL0     H32726   7.501   4.516   5.929 -1.1315  0.2588  0.4480
  962MOL0     H32727   7.456   4.474   5.760  3.3649 -2.6461  2.1136
  962MOL0     H32728   7.287   4.641   5.762  1.8358  0.0983 -1.3221
  962MOL0     H32729   7.248   4.522   5.879 -1.0087  0.9535 -1.1702
  962MOL0     H32730   7.371   4.791   5.950 -0.4694  1.1908  1.9056
  962MOL0     H32731   7.338   4.667   6.073 -0.4478  0.1503 -0.6233
  962MOL0     H32732   7.108   4.667   6.019 -2.8790  2.1358  0.1493
  962MOL0     H32733   7.126   4.791   5.900  0.2485 -0.3612  0.4490
  962MOL0     H32734   7.157   4.813   6.198  0.0581 -3.0864 -1.0350
  962MOL0     H32735   7.048   4.895   6.099  1.0488  0.7604  0.0114
  962MOL0     H32736   8.137   4.773   5.813 -0.6238 -0.5102 -0.2434
  962MOL0     H32737   8.313   4.909   5.676 -0.3669  0.1168 -2.8789
  962MOL0     H32738   8.616   4.906   5.286  0.6099  0.0854  1.4716
  962MOL0     H32739   8.783   5.046   5.184 -0.9801 -0.1584 -3.1053
  962MOL0     H32740   7.370   5.723   5.632 -1.9224 -0.2424 -0.8227
  962MOL0     H32741   7.196   5.695   5.481 -0.1869 -0.4434 -2.0413
  962MOL0     H32742   7.014   5.409   5.093  0.2808 -2.6268 -0.3780
  962MOL0     H32743   6.787   5.387   4.992  0.3782  0.3599  0.5402
  962MOL0     H32744   6.550   5.453   4.920 -0.9725  0.4193  1.0221
  962MOL0     H32745   6.559   5.279   4.950 -0.1761  0.3642 -1.7455
  962MOL0     H32746   6.331   5.365   4.876  2.1335 -0.7961 -0.7236
  962MOL0     H32747   6.308   5.451   5.026  0.2694  0.8446 -0.6562
  962MOL0     H32748   6.362   5.158   4.992  2.1669 -2.0794  1.5938
  962MOL0     H32749   6.371   5.231   5.154  0.8963  0.5143 -0.3077
  962MOL0     H32750   6.134   5.237   5.179  0.1224  3.6166 -1.4199
  962MOL0     H32751   6.139   5.097   5.071 -1.0575  0.3959 -1.4932
  962MOL0     H32752   5.977   5.393   4.829 -1.4549 -1.3292  0.6144
  962MOL0     H32753   6.606   5.427   5.370 -1.4325  1.1241 -1.2843
  962MOL0     H32754   6.851   5.560   5.547 -1.8362  1.4379 -2.3521
  962MOL0     H32755   6.735   5.436   5.572 -0.7436  2.2607 -1.4482
  962MOL0     H32756   6.902   5.382   5.563  0.6170  0.0657 -3.0839
  963MOL0     O32757   6.497   3.102   4.222  0.0465  0.0372 -1.2615
  963MOL0     C32758   6.514   3.218   4.229 -0.3367 -0.4579  0.2955
  963MOL0     O32759   6.527   3.293   4.342  0.4404 -0.6163  1.4547
  963MOL0     C32760   6.471   3.253   4.459 -0.7620  0.4490  1.0302
  963MOL0     C32761   6.546   3.191   4.549  0.3666  0.1249 -1.0751
  963MOL0     C32762   6.483   3.150   4.668 -0.5504 -0.1692 -0.4275
  963MOL0     C32763   6.340   3.161   4.678  0.1466  0.0826  0.1028
  963MOL0     O32764   6.267   3.121   4.794 -0.1834 -0.1224  0.5143
  963MOL0     C32765   6.335   3.108   4.921  0.8045  0.3772 -0.0323
  963MOL0     C32766   6.387   3.235   4.981  0.6583  0.8072 -0.4041
  963MOL0     C32767   6.387   3.222   5.133  0.1102 -0.0052  0.6828
  963MOL0     C32768   6.495   3.129   5.176 -0.0204 -0.7658 -0.4715
  963MOL0     C32769   6.506   3.135   5.333  0.0034  0.3666  0.1722
  963MOL0     C32770   6.572   3.274   5.368  0.1756 -0.9426 -0.0228
  963MOL0     C32771   6.664   3.262   5.477 -0.5770  1.1090 -0.5141
  963MOL0     C32772   6.724   3.401   5.503  0.6492 -0.3177  0.5042
  963MOL0     N32773   6.827   3.392   5.606 -0.9202 -0.0425  0.3583
  963MOL0     C32774   6.944   3.324   5.584 -0.2955 -0.2442  0.3241
  963MOL0     C32775   6.992   3.303   5.712  0.1175 -0.3572  0.4313
  963MOL0     C32776   7.118   3.223   5.731  0.0268  0.0199 -0.1680
  963MOL0     C32777   7.132   3.116   5.627 -0.5257 -0.2241  0.4663
  963MOL0     C32778   7.243   3.018   5.666 -0.3892  0.2543  0.5263
  963MOL0     C32779   7.223   2.882   5.589 -0.9892 -0.0709 -0.0138
  963MOL0     O32780   7.240   2.887   5.452 -0.1554 -0.6638  0.6325
  963MOL0     C32781   7.370   2.902   5.402 -0.4770 -0.4106 -0.1572
  963MOL0     C32782   7.487   2.885   5.475  0.8785  0.4115 -0.7912
  963MOL0     C32783   7.619   2.886   5.411  1.1448 -0.6073 -0.7242
  963MOL0     C32784   7.744   2.887   5.501  0.3729 -1.1604 -0.6243
  963MOL0     C32785   7.628   2.927   5.274 -0.6853 -0.3082  0.0287
  963MOL0     C32786   7.754   2.965   5.197 -0.6448  0.7260 -0.6555
  963MOL0     O32787   7.740   2.998   5.059 -0.2782 -0.9053 -0.0558
  963MOL0     C32788   7.849   3.044   4.996 -1.1986 -0.4453  0.4253
  963MOL0     C32789   7.854   3.184   4.972  0.4693  1.1204  0.3001
  963MOL0     C32790   7.963   3.232   4.896  1.0680 -0.4557 -0.1673
  963MOL0     C32791   8.059   3.150   4.844 -0.4775 -0.7799  0.5624
  963MOL0     O32792   8.146   3.203   4.750  0.0346  1.1396 -0.4241
  963MOL0     C32793   8.275   3.148   4.714  0.0815  0.1494 -0.6296
  963MOL0     C32794   8.298   3.162   4.557 -0.2888  0.1709 -0.3678
  963MOL0     C32795   8.187   3.095   4.466 -0.3953  0.2661 -0.3982
  963MOL0     C32796   8.213   3.142   4.322 -0.2976 -0.1693  0.5316
  963MOL0     C32797   8.094   3.099   4.231  0.1664  0.0381  0.6173
  963MOL0     C32798   7.952   3.165   4.262 -0.0700 -0.0300  0.0690
  963MOL0     C32799   7.880   3.186   4.126  0.3012  0.1269 -0.6367
  963MOL0     C32800   7.733   3.224   4.146  0.4981  0.4190 -0.2813
  963MOL0    Cl32801   7.660   3.246   3.982  0.0453 -0.0295 -0.1388
  963MOL0     C32802   8.046   3.016   4.863 -0.0765  0.0236 -1.0617
  963MOL0     C32803   7.939   2.961   4.941 -0.0823 -0.1439 -0.2806
  963MOL0     O32804   7.863   2.976   5.257 -0.3833  0.3872  0.1427
  963MOL0     C32805   7.505   2.934   5.205  0.5307  0.1488  0.8089
  963MOL0     C32806   7.385   2.909   5.265  0.2653  0.5082  0.6355
  963MOL0     N32807   6.900   3.344   5.808  0.4003 -0.3094 -0.0496
  963MOL0     N32808   6.802   3.400   5.745 -0.5603  0.1402  0.1784
  963MOL0     C32809   6.272   3.227   4.585  0.1974  0.1120  0.0034
  963MOL0     C32810   6.340   3.277   4.470 -0.2085 -0.1723 -0.4727
  963MOL0     C32811   6.509   3.287   4.100 -0.6978  0.2041  0.7985
  963MOL0     C32812   6.432   3.401   4.085 -0.0800  0.0580  0.2138
  963MOL0     C32813   6.415   3.472   3.969 -0.4613  0.3980 -0.0124
  963MOL0     C32814   6.480   3.427   3.854 -0.9698  1.3039  0.3141
  963MOL0     O32815   6.473   3.496   3.741  0.2730  0.4444 -0.8049
  963MOL0     C32816   6.558   3.462   3.629 -0.2409 -0.4013 -0.1293
  963MOL0     C32817   6.510   3.540   3.509 -0.2737  0.1313  0.2517
  963MOL0     C32818   6.369   3.491   3.457 -0.4607 -0.8256 -0.4643
  963MOL0     C32819   6.304   3.577   3.342 -1.0418 -0.3488  0.3085
  963MOL0     C32820   6.172   3.530   3.327 -0.0916  0.7701  0.5281
  963MOL0     C32821   6.052   3.500   3.326 -0.6075 -0.0904 -0.3310
  963MOL0     C32822   6.557   3.307   3.865 -0.1267  0.2097  0.1275
  963MOL0     C32823   6.572   3.234   3.984  0.2954  0.0554  1.0996
  963MOL0     C32824   6.646   3.109   3.973  0.3197 -0.0785 -0.2130
  963MOL0     H32825   6.650   3.164   4.537  0.5951  0.0462  0.7658
  963MOL0     H32826   6.537   3.095   4.745  0.3203 -0.7122 -1.3914
  963MOL0     H32827   6.428   3.050   4.914  1.7517  1.9354 -1.0637
  963MOL0     H32828   6.272   3.061   4.997  1.3952  2.8718  2.1300
  963MOL0     H32829   6.486   3.260   4.942 -0.1940  1.2767 -2.3742
  963MOL0     H32830   6.320   3.317   4.954  0.5997  0.6457 -0.7535
  963MOL0     H32831   6.410   3.323   5.167 -0.6656  0.7605 -0.9423
  963MOL0     H32832   6.297   3.181   5.180 -0.2130 -1.4239 -1.0273
  963MOL0     H32833   6.459   3.031   5.144 -1.0232  0.3095 -2.8731
  963MOL0     H32834   6.588   3.157   5.126  0.5243 -2.2755 -0.3599
  963MOL0     H32835   6.566   3.049   5.367 -1.3221 -1.2156 -1.3144
  963MOL0     H32836   6.410   3.115   5.382 -0.0958 -0.5852 -0.3689
  963MOL0     H32837   6.627   3.312   5.281  3.4703  2.0334  3.0568
  963MOL0     H32838   6.488   3.341   5.388  0.6289 -0.9701  2.2272
  963MOL0     H32839   6.752   3.202   5.454 -2.6771 -2.1471 -0.6520
  963MOL0     H32840   6.612   3.220   5.564  1.0422  1.9523  0.9295
  963MOL0     H32841   6.771   3.433   5.409 -0.7777 -0.9876 -0.4719
  963MOL0     H32842   6.652   3.479   5.529  2.9241  1.4548  1.8798
  963MOL0     H32843   6.989   3.302   5.487  1.5485  0.0177  1.0731
  963MOL0     H32844   7.120   3.181   5.832  0.4396 -5.7875 -2.2271
  963MOL0     H32845   7.202   3.293   5.732  1.3603 -1.4538 -2.1214
  963MOL0     H32846   7.031   3.076   5.610 -0.3695 -0.9361  1.2172
  963MOL0     H32847   7.162   3.163   5.532 -0.5016 -0.0685  0.5496
  963MOL0     H32848   7.336   3.070   5.643 -0.5014  0.3375  0.2508
  963MOL0     H32849   7.239   2.996   5.773  0.4841  2.8226  1.1653
  963MOL0     H32850   7.297   2.815   5.633  0.1514  0.2089 -1.4237
  963MOL0     H32851   7.128   2.831   5.608 -2.2252  2.1425  0.0416
  963MOL0     H32852   7.484   2.851   5.578 -1.4843 -0.2231 -1.0028
  963MOL0     H32853   7.774   2.987   5.535  2.1482 -3.2011  4.7994
  963MOL0     H32854   7.826   2.843   5.444  0.7258  2.6691 -3.4827
  963MOL0     H32855   7.730   2.833   5.595 -0.6720  0.7303  0.3826
  963MOL0     H32856   7.771   3.246   5.005  0.3290  1.0725  0.0428
  963MOL0     H32857   7.947   3.336   4.871 -3.5993 -0.8913  0.1724
  963MOL0     H32858   8.359   3.198   4.762  1.7040 -1.2087 -1.9284
  963MOL0     H32859   8.282   3.042   4.742 -4.3428 -0.4405 -1.0460
  963MOL0     H32860   8.295   3.271   4.552 -0.3053  0.3655  2.3714
  963MOL0     H32861   8.395   3.117   4.532  0.6697  0.9913  1.6893
  963MOL0     H32862   8.089   3.128   4.503 -1.1163  0.4651 -2.3619
  963MOL0     H32863   8.194   2.987   4.479 -0.5676 -0.0500 -2.5922
  963MOL0     H32864   8.297   3.089   4.277 -2.4359 -0.2777 -3.7568
  963MOL0     H32865   8.235   3.249   4.313  0.5376 -0.4167 -0.5302
  963MOL0     H32866   8.115   3.126   4.127 -2.6668  4.1960  0.8930
  963MOL0     H32867   8.079   2.991   4.243  1.0047 -0.3523 -1.3848
  963MOL0     H32868   7.968   3.261   4.310 -0.7988  0.5201 -0.7562
  963MOL0     H32869   7.898   3.097   4.329 -0.0967  0.0708  0.1489
  963MOL0     H32870   7.877   3.082   4.093  1.2274 -1.2018  2.9111
  963MOL0     H32871   7.928   3.261   4.063  1.4249  2.2374  2.4494
  963MOL0     H32872   7.734   3.323   4.192 -0.6770  0.1138  0.4394
  963MOL0     H32873   7.672   3.150   4.198 -1.6115  1.0969 -1.6140
  963MOL0     H32874   8.119   2.948   4.821  0.1469  0.2253 -1.0023
  963MOL0     H32875   7.924   2.854   4.948  0.9621 -0.2765  0.0524
  963MOL0     H32876   7.496   2.974   5.105  0.0822  0.0609  0.8126
  963MOL0     H32877   7.293   2.910   5.206  0.3105 -0.5968  0.5249
  963MOL0     H32878   6.164   3.230   4.590 -0.3721 -1.7175 -5.1770
  963MOL0     H32879   6.287   3.328   4.390  2.1743 -0.5636 -2.4470
  963MOL0     H32880   6.380   3.437   4.173  0.1793 -0.9438  0.7858
  963MOL0     H32881   6.375   3.573   3.969  1.6571  1.2855 -0.1266
  963MOL0     H32882   6.666   3.477   3.637  0.0940 -0.6465 -3.1397
  963MOL0     H32883   6.537   3.360   3.595 -0.1650 -0.9089  1.2793
  963MOL0     H32884   6.579   3.528   3.425  0.6332 -1.3483  1.1633
  963MOL0     H32885   6.505   3.646   3.537  1.5643  0.3578 -0.1627
  963MOL0     H32886   6.379   3.389   3.421 -0.2805 -1.9620  2.4809
  963MOL0     H32887   6.301   3.494   3.543  0.6299  0.5499  0.3981
  963MOL0     H32888   6.357   3.556   3.248 -5.1261 -2.2247 -1.8657
  963MOL0     H32889   6.288   3.684   3.360  0.4680 -0.3293  1.7039
  963MOL0     H32890   5.947   3.478   3.327 -0.8527  1.0295 -0.3284
  963MOL0     H32891   6.610   3.266   3.779 -3.4355 -2.3551 -0.9020
  963MOL0     H32892   6.594   3.023   4.016 -0.9891 -0.0003 -1.5352
  963MOL0     H32893   6.670   3.089   3.868  0.5928  0.0337 -0.1714
  963MOL0     H32894   6.734   3.124   4.035  0.1456 -0.6779  0.1904
  964MOL0     O32895  10.645   0.271   9.201 -0.0391  0.2153 -0.9561
  964MOL0     C32896  10.626   0.255   9.320 -0.8789 -0.3621  0.2592
  964MOL0     O32897  10.701   0.318   9.421  0.5984  0.2692  0.2456
  964MOL0     C32898  10.822   0.370   9.389  0.6037 -0.6965  1.0107
  964MOL0     C32899  10.838   0.507   9.356 -0.4657  0.3667  0.5229
  964MOL0     C32900  10.961   0.546   9.318 -0.3050  0.0133 -0.6177
  964MOL0     C32901  11.066   0.461   9.311 -0.6863 -0.5730 -0.2717
  964MOL0     O32902  11.189   0.510   9.278  0.1538 -0.8220 -0.2187
  964MOL0     C32903  11.276   0.421   9.208  1.0722 -0.1094 -0.2979
  964MOL0     C32904  11.393   0.351   9.284 -0.2539  1.0455  1.0112
  964MOL0     C32905  11.490   0.448   9.354 -0.2430 -0.3363 -0.5704
  964MOL0     C32906  11.610   0.364   9.417 -0.7660  0.5471 -0.1553
  964MOL0     C32907  11.693   0.436   9.527  0.5164 -0.7340 -0.4360
  964MOL0     C32908  11.737   0.577   9.479 -0.0304  0.2236  0.6695
  964MOL0     C32909  11.842   0.627   9.581 -0.3219  0.1235  0.1906
  964MOL0     C32910  11.781   0.712   9.699 -0.0261 -0.4878  0.2423
  964MOL0     N32911  11.896   0.756   9.785  0.0513 -0.2946 -0.2901
  964MOL0     C32912  11.966   0.666   9.861  0.4198  0.2574  1.3503
  964MOL0     C32913  12.076   0.732   9.904  0.5646  0.7629  0.2358
  964MOL0     C32914  12.176   0.679  10.005  0.1083 -0.7131  0.1810
  964MOL0     C32915  12.315   0.701   9.946 -0.0283 -0.1951  0.0479
  964MOL0     C32916  12.426   0.662  10.049 -0.1919 -0.6290  0.4591
  964MOL0     C32917  12.560   0.664   9.968 -0.4034  0.1159 -0.4417
  964MOL0     O32918  12.663   0.617  10.059  0.9526  0.2769  0.0390
  964MOL0     C32919  12.793   0.613  10.019  0.6007  0.0856  0.2397
  964MOL0     C32920  12.833   0.635   9.878  0.1019  0.5716 -0.3037
  964MOL0     C32921  12.967   0.638   9.840  0.0625  0.0618 -0.0648
  964MOL0     C32922  13.005   0.686   9.702  0.1161  0.4056 -1.0424
  964MOL0     C32923  13.070   0.599   9.924  0.7916 -0.2140 -0.2052
  964MOL0     C32924  13.213   0.581   9.884 -0.5212 -0.8089 -0.1739
  964MOL0     O32925  13.302   0.631   9.971  0.0036  0.6708 -0.9777
  964MOL0     C32926  13.417   0.561   9.972  0.1531 -0.0389  0.5415
  964MOL0     C32927  13.515   0.598   9.874  0.0953  0.5577  0.2964
  964MOL0     C32928  13.633   0.532   9.877  0.0455 -0.2467  0.1085
  964MOL0     C32929  13.663   0.433   9.973 -0.4719 -0.2776  0.4396
  964MOL0     O32930  13.781   0.368   9.971  0.1426  0.3512 -0.2349
  964MOL0     C32931  13.890   0.409   9.886  0.3631 -0.1453 -0.4807
  964MOL0     C32932  14.015   0.340   9.925  0.3124  0.4022 -1.0170
  964MOL0     C32933  14.148   0.405   9.883  0.3799  0.4104  0.4485
  964MOL0     C32934  14.175   0.419   9.738  0.2546 -0.3480  0.2673
  964MOL0     C32935  14.271   0.532   9.698 -0.3226  1.0505  0.1046
  964MOL0     C32936  14.414   0.490   9.731 -0.0723 -0.2415  0.4049
  964MOL0     C32937  14.510   0.609   9.729 -0.8522 -1.4090 -1.0027
  964MOL0     C32938  14.658   0.565   9.739 -0.2112 -0.3474 -0.1697
  964MOL0    Cl32939  14.756   0.715   9.786 -0.2296 -0.0080 -0.0849
  964MOL0     C32940  13.569   0.399  10.068 -0.4591 -0.4631  0.0788
  964MOL0     C32941  13.446   0.463  10.073  0.0866  0.4513  0.2466
  964MOL0     O32942  13.240   0.503   9.793  0.2776 -0.1412  0.3938
  964MOL0     C32943  13.033   0.568  10.058 -0.0102  0.6021  0.2594
  964MOL0     C32944  12.897   0.580  10.104 -0.4839  0.0085  0.2770
  964MOL0     N32945  12.076   0.856   9.840  0.1346 -0.9590 -0.1805
  964MOL0     N32946  11.960   0.879   9.783 -0.3521 -0.3088 -0.4669
  964MOL0     C32947  11.058   0.332   9.354  1.2767  0.0069  0.6617
  964MOL0     C32948  10.931   0.284   9.385  0.4425  0.2611 -0.2356
  964MOL0     C32949  10.518   0.177   9.369  0.1509 -0.7123  0.0708
  964MOL0     C32950  10.487   0.179   9.504  0.1822  0.7712 -0.9999
  964MOL0     C32951  10.377   0.116   9.562  0.5127  0.1112 -0.3228
  964MOL0     C32952  10.286   0.054   9.483 -0.5722 -0.4264  0.4206
  964MOL0     O32953  10.170   0.008   9.547 -0.6622 -0.4186 -0.2393
  964MOL0     C32954  10.139  -0.122   9.493 -0.2164  0.0859  0.5765
  964MOL0     C32955  10.158  -0.213   9.615  0.1013  0.1977 -0.5749
  964MOL0     C32956  10.306  -0.236   9.661 -0.1262 -0.9768 -0.1075
  964MOL0     C32957  10.403  -0.266   9.546 -0.2771 -0.3427 -0.5339
  964MOL0     C32958  10.365  -0.390   9.480 -0.8184 -0.5034 -0.1771
  964MOL0     C32959  10.338  -0.486   9.423 -0.3693  1.6766 -0.7937
  964MOL0     C32960  10.310   0.049   9.343  0.2726 -0.5346 -0.4135
  964MOL0     C32961  10.415   0.112   9.286 -0.2226 -0.4071 -0.3061
  964MOL0     C32962  10.417   0.108   9.137  0.3597  0.5832  0.0516
  964MOL0     H32963  10.754   0.577   9.356 -2.7511 -2.1649  2.0896
  964MOL0     H32964  10.983   0.650   9.295  0.4237  0.2796  1.1046
  964MOL0     H32965  11.315   0.490   9.133  1.4653 -1.4487 -1.3772
  964MOL0     H32966  11.226   0.340   9.154 -0.8589 -2.4483  4.3901
  964MOL0     H32967  11.361   0.276   9.358 -2.2137 -1.1271 -1.8035
  964MOL0     H32968  11.448   0.291   9.211  0.5117  2.9614 -0.0422
  964MOL0     H32969  11.521   0.528   9.287  1.8856 -1.0177 -0.4828
  964MOL0     H32970  11.432   0.498   9.432 -1.3190  0.0738 -1.6074
  964MOL0     H32971  11.580   0.272   9.468  0.3066  0.4962  0.4209
  964MOL0     H32972  11.680   0.341   9.337  0.3415 -0.2098  0.9882
  964MOL0     H32973  11.770   0.364   9.558  2.6372  1.1995 -0.9921
  964MOL0     H32974  11.631   0.451   9.617 -0.5299  3.2493 -1.6053
  964MOL0     H32975  11.779   0.578   9.378  0.4630  0.6263  0.8725
  964MOL0     H32976  11.654   0.649   9.478  1.7121  2.4310  2.6002
  964MOL0     H32977  11.915   0.687   9.526  0.1624  0.2128  0.9225
  964MOL0     H32978  11.896   0.545   9.627  1.5168  0.6049 -1.0082
  964MOL0     H32979  11.729   0.802   9.665 -2.6962 -1.3294  1.7678
  964MOL0     H32980  11.704   0.658   9.755  0.5583  0.6337  2.2485
  964MOL0     H32981  11.936   0.563   9.881  1.3932 -0.6893 -1.5438
  964MOL0     H32982  12.147   0.575  10.024 -0.9227 -0.5852 -0.5727
  964MOL0     H32983  12.185   0.735  10.098  1.2472 -1.8210  0.7667
  964MOL0     H32984  12.332   0.646   9.853  2.2407  3.9405 -2.2997
  964MOL0     H32985  12.322   0.803   9.908 -0.6685 -0.4131 -0.6980
  964MOL0     H32986  12.434   0.729  10.135  0.6901  1.0867 -0.8969
  964MOL0     H32987  12.421   0.560  10.087 -1.6550 -0.8299 -0.1974
  964MOL0     H32988  12.563   0.604   9.877 -0.5226  1.8461 -1.6391
  964MOL0     H32989  12.581   0.767   9.935  1.0691 -0.6591 -2.1043
  964MOL0     H32990  12.759   0.663   9.804 -0.1876 -0.4143 -0.4056
  964MOL0     H32991  12.936   0.762   9.664 -1.2468  0.6934  1.7269
  964MOL0     H32992  13.006   0.605   9.629  1.6590 -0.9982  0.4622
  964MOL0     H32993  13.106   0.726   9.713  0.2184  0.6359 -2.5599
  964MOL0     H32994  13.495   0.678   9.804  2.7282  1.8773  0.9092
  964MOL0     H32995  13.710   0.558   9.805  0.3558 -1.5837 -0.0622
  964MOL0     H32996  13.870   0.382   9.782 -1.3633  1.1895 -0.5459
  964MOL0     H32997  13.910   0.516   9.896 -0.3421 -0.1156  0.7739
  964MOL0     H32998  14.017   0.326  10.033  2.0355 -3.1046 -1.3649
  964MOL0     H32999  14.003   0.234   9.904 -1.0686 -0.2934  2.6501
  964MOL0     H33000  14.223   0.339   9.929  0.0172 -0.3362 -0.0146
  964MOL0     H33001  14.140   0.499   9.938 -0.1719  0.1287  0.8628
  964MOL0     H33002  14.078   0.437   9.691 -0.0323 -0.4129  0.8316
  964MOL0     H33003  14.215   0.323   9.704  0.5151 -1.2762  2.9944
  964MOL0     H33004  14.259   0.548   9.591 -2.7295  0.5981  0.2610
  964MOL0     H33005  14.262   0.631   9.746 -0.1780  0.5658  1.1701
  964MOL0     H33006  14.441   0.413   9.657 -2.7443 -0.1389 -0.7819
  964MOL0     H33007  14.414   0.451   9.833 -0.4451  2.2347  1.3962
  964MOL0     H33008  14.483   0.672   9.814 -0.1006 -0.4358 -1.4663
  964MOL0     H33009  14.504   0.667   9.636 -1.5088  0.6278  0.2405
  964MOL0     H33010  14.670   0.533   9.635 -0.1840 -1.1246  0.0691
  964MOL0     H33011  14.682   0.492   9.817  1.0042  0.3897  0.1727
  964MOL0     H33012  13.594   0.322  10.140 -2.0354 -1.7255 -0.6465
  964MOL0     H33013  13.368   0.429  10.142 -0.0225  1.9060  0.8792
  964MOL0     H33014  13.105   0.517  10.121 -1.5695 -0.7487  1.0181
  964MOL0     H33015  12.875   0.551  10.206 -0.9582  1.1537  0.5101
  964MOL0     H33016  11.130   0.252   9.361  1.2890 -0.3766 -2.3261
  964MOL0     H33017  10.915   0.183   9.422 -1.5644  1.4003  2.4199
  964MOL0     H33018  10.541   0.248   9.568 -1.9501 -1.5204  3.7423
  964MOL0     H33019  10.357   0.118   9.669  1.8086  0.0649 -0.0567
  964MOL0     H33020  10.032  -0.130   9.469 -0.2892 -0.9516  1.1825
  964MOL0     H33021  10.191  -0.168   9.408 -2.0452  0.8046 -1.0019
  964MOL0     H33022  10.131  -0.314   9.583  2.6420 -0.4719 -0.8084
  964MOL0     H33023  10.088  -0.182   9.693 -0.0454  1.7502 -1.2861
  964MOL0     H33024  10.344  -0.149   9.715  1.2328 -2.7742  2.0426
  964MOL0     H33025  10.309  -0.321   9.730  0.3363 -0.4927  0.4686
  964MOL0     H33026  10.504  -0.276   9.587  1.2234  1.9706 -3.3174
  964MOL0     H33027  10.411  -0.182   9.476 -0.6559  1.9533  1.9843
  964MOL0     H33028  10.334  -0.586   9.383 -0.7675  0.5961  1.7573
  964MOL0     H33029  10.233   0.023   9.272 -0.4733  3.0303 -1.0774
  964MOL0     H33030  10.489   0.031   9.107 -0.6750 -0.8909  1.1824
  964MOL0     H33031  10.319   0.081   9.096  1.0502  2.1161 -2.9347
  964MOL0     H33032  10.452   0.196   9.082  3.0634 -0.2413  0.3149
  965MOL0     O33033   6.792   1.218   5.530  0.3242  0.1006  0.4883
  965MOL0     C33034   6.725   1.171   5.441 -0.1529 -0.1754  0.8284
  965MOL0     O33035   6.765   1.120   5.325 -0.5491  0.1229 -0.5687
  965MOL0     C33036   6.894   1.080   5.329 -0.6476 -0.5571  0.5373
  965MOL0     C33037   7.002   1.174   5.311  0.3347  0.3914 -0.3387
  965MOL0     C33038   7.134   1.130   5.311  0.4049  0.5560 -0.1491
  965MOL0     C33039   7.161   0.995   5.352 -0.7832 -0.8871  0.7736
  965MOL0     O33040   7.287   0.947   5.373 -0.1618  0.0390 -0.0087
  965MOL0     C33041   7.391   1.013   5.296 -0.5396  0.2682 -0.4475
  965MOL0     C33042   7.516   0.927   5.327  0.5774 -0.3586  0.0998
  965MOL0     C33043   7.636   1.005   5.270 -0.6981  0.4083 -0.1409
  965MOL0     C33044   7.768   0.931   5.305  0.0283 -0.5096  0.9055
  965MOL0     C33045   7.899   1.004   5.273 -0.4920  0.9868  0.1951
  965MOL0     C33046   8.012   0.928   5.333 -0.1437  0.0570  0.2670
  965MOL0     C33047   8.141   1.009   5.311 -0.1476  0.9923  0.2314
  965MOL0     C33048   8.258   0.924   5.354 -0.2840  0.0847  0.1824
  965MOL0     N33049   8.363   1.008   5.409  1.2214 -0.3323  0.0659
  965MOL0     C33050   8.361   1.061   5.529  0.2087  0.2401 -0.9336
  965MOL0     C33051   8.461   1.145   5.544  0.5371 -0.8585  1.1176
  965MOL0     C33052   8.498   1.252   5.650 -0.5633  0.4569  0.1864
  965MOL0     C33053   8.638   1.303   5.641 -0.4827 -0.3773 -0.2549
  965MOL0     C33054   8.681   1.387   5.764  1.1709  0.1735 -0.5430
  965MOL0     C33055   8.817   1.461   5.751  0.1235  0.1958  0.0434
  965MOL0     O33056   8.914   1.372   5.695 -0.2935  0.1803  0.4259
  965MOL0     C33057   9.037   1.423   5.655  0.5809  0.2570  0.1455
  965MOL0     C33058   9.089   1.534   5.719 -1.1404  0.1524 -0.5030
  965MOL0     C33059   9.215   1.586   5.690 -0.9287 -0.3907 -0.3075
  965MOL0     C33060   9.269   1.702   5.770  0.2648 -0.1563 -0.2300
  965MOL0     C33061   9.284   1.527   5.576  0.3820  1.1895 -0.9478
  965MOL0     C33062   9.415   1.573   5.534 -0.8409 -0.0439  0.1094
  965MOL0     O33063   9.494   1.651   5.624  0.1039  0.0286  0.0342
  965MOL0     C33064   9.621   1.690   5.585  0.3071  0.4040 -0.4679
  965MOL0     C33065   9.716   1.697   5.689 -0.2445  0.3159  0.2667
  965MOL0     C33066   9.848   1.746   5.666 -0.3355  0.2037  0.5551
  965MOL0     C33067   9.892   1.792   5.538  0.0871  0.3095  0.0485
  965MOL0     O33068  10.023   1.844   5.508 -0.6055  0.6947  0.4823
  965MOL0     C33069  10.106   1.879   5.617 -0.7913 -0.1155 -0.0804
  965MOL0     C33070  10.217   1.958   5.547  0.0610  0.4514 -0.3084
  965MOL0     C33071  10.317   2.020   5.644 -0.6955  0.3436 -0.2211
  965MOL0     C33072  10.405   1.915   5.719  0.0692  0.0158 -0.0934
  965MOL0     C33073  10.498   1.981   5.818  0.5219  0.2728  0.4947
  965MOL0     C33074  10.629   2.035   5.755 -0.6557  0.4017  0.8175
  965MOL0     C33075  10.723   1.915   5.711  0.5354  0.0956 -0.1887
  965MOL0     C33076  10.869   1.961   5.707  0.5386  0.2365  0.6867
  965MOL0    Cl33077  10.958   1.821   5.636 -0.2157 -0.2831  0.1416
  965MOL0     C33078   9.801   1.774   5.433 -0.6639 -0.2179  0.0448
  965MOL0     C33079   9.666   1.720   5.456 -0.1148 -0.3307  0.7411
  965MOL0     O33080   9.461   1.539   5.427  0.1387  0.3051  0.6466
  965MOL0     C33081   9.236   1.410   5.514  1.1317  0.7012  0.0397
  965MOL0     C33082   9.114   1.353   5.561 -0.3397 -0.2043 -0.6946
  965MOL0     N33083   8.527   1.145   5.418  0.3127  0.0864  0.5992
  965MOL0     N33084   8.475   1.056   5.348 -0.8728 -0.4504  0.6447
  965MOL0     C33085   7.058   0.901   5.375  0.1505 -0.5732 -0.0102
  965MOL0     C33086   6.923   0.940   5.355  0.2314 -0.0361  0.0805
  965MOL0     C33087   6.571   1.172   5.451 -0.8077  0.3208 -0.8360
  965MOL0     C33088   6.501   1.153   5.333 -0.1598 -0.2121  1.1247
  965MOL0     C33089   6.371   1.158   5.322  1.2117  0.3645  0.0259
  965MOL0     C33090   6.289   1.166   5.435  0.4348 -0.8542 -0.4455
  965MOL0     O33091   6.150   1.145   5.426  0.2084  0.2091 -0.6026
  965MOL0     C33092   6.075   1.232   5.507  0.6061 -0.8067  0.6543
  965MOL0     C33093   5.935   1.260   5.453 -0.0627  0.4218 -0.4590
  965MOL0     C33094   5.847   1.343   5.548 -0.2049 -0.3425  0.4085
  965MOL0     C33095   5.703   1.345   5.506  0.3795  0.2254  0.5694
  965MOL0     C33096   5.674   1.405   5.379  0.0591 -0.3990  0.2536
  965MOL0     C33097   5.637   1.445   5.267 -0.4495 -0.2020 -0.3327
  965MOL0     C33098   6.355   1.176   5.561  0.4418  0.0761 -0.4489
  965MOL0     C33099   6.497   1.185   5.571  0.1558 -0.9520  0.7469
  965MOL0     C33100   6.562   1.203   5.702 -0.3427  0.4370  0.1122
  965MOL0     H33101   6.975   1.278   5.296  0.2809  0.9142  2.8325
  965MOL0     H33102   7.207   1.209   5.301  1.5425 -0.7275 -3.3729
  965MOL0     H33103   7.417   1.112   5.334  1.9169 -0.7189  0.6399
  965MOL0     H33104   7.357   1.023   5.192 -0.8542 -2.0048 -0.6331
  965MOL0     H33105   7.531   0.908   5.433 -1.8077  1.2054  0.7953
  965MOL0     H33106   7.508   0.835   5.267  2.0980  1.6923 -3.5755
  965MOL0     H33107   7.629   1.004   5.161  1.9891  0.7338 -0.3739
  965MOL0     H33108   7.640   1.107   5.307  2.0658  0.2418  0.2354
  965MOL0     H33109   7.774   0.929   5.414 -3.1882 -0.1322  1.1949
  965MOL0     H33110   7.765   0.834   5.254  2.8704  0.4094 -1.2289
  965MOL0     H33111   7.880   1.105   5.310  0.9647  1.8475 -1.2730
  965MOL0     H33112   7.916   1.009   5.165 -1.7506 -0.2441 -0.0845
  965MOL0     H33113   8.006   0.894   5.437  3.3944 -0.9520  0.2672
  965MOL0     H33114   8.015   0.835   5.277  0.1802  0.4842 -0.4328
  965MOL0     H33115   8.127   1.094   5.378 -2.1978 -0.5609  1.9206
  965MOL0     H33116   8.143   1.040   5.206 -1.1703  0.1981 -0.0455
  965MOL0     H33117   8.222   0.860   5.435 -1.1620 -2.5133 -2.1029
  965MOL0     H33118   8.294   0.863   5.271 -1.9167 -0.9176  0.1734
  965MOL0     H33119   8.283   1.044   5.602  1.8074 -1.1598  0.5297
  965MOL0     H33120   8.495   1.189   5.740  0.1225 -1.0219 -0.7850
  965MOL0     H33121   8.423   1.331   5.651  0.5962  1.6265 -1.2547
  965MOL0     H33122   8.698   1.215   5.619 -1.4140 -0.5285 -2.4823
  965MOL0     H33123   8.634   1.363   5.549  0.0587  0.2487  0.1204
  965MOL0     H33124   8.603   1.460   5.784  0.2095 -0.8094 -0.6361
  965MOL0     H33125   8.696   1.313   5.843 -0.6012  0.4929  0.1332
  965MOL0     H33126   8.800   1.544   5.682 -0.4395 -0.7476 -0.9974
  965MOL0     H33127   8.844   1.497   5.850 -1.0592  0.1570  0.3906
  965MOL0     H33128   9.039   1.574   5.807 -1.2827  0.1210 -0.5683
  965MOL0     H33129   9.293   1.783   5.700 -1.0676  1.2838  0.8974
  965MOL0     H33130   9.360   1.686   5.829 -1.1457  3.2821  3.4202
  965MOL0     H33131   9.193   1.742   5.838 -1.1244 -0.3945 -1.5889
  965MOL0     H33132   9.682   1.674   5.790  0.0537 -2.1422 -0.1422
  965MOL0     H33133   9.905   1.747   5.758  0.5374  4.4782  0.1919
  965MOL0     H33134  10.055   1.941   5.691 -0.2292  0.0042  0.2141
  965MOL0     H33135  10.136   1.789   5.670 -3.3897 -1.8694 -1.3698
  965MOL0     H33136  10.265   1.885   5.481 -0.7304 -2.6248  2.2654
  965MOL0     H33137  10.180   2.041   5.486  1.1948  1.4950  0.3676
  965MOL0     H33138  10.264   2.082   5.717  0.8455  0.7153  0.6281
  965MOL0     H33139  10.380   2.084   5.582  2.0566 -0.0334  1.9771
  965MOL0     H33140  10.461   1.846   5.655  0.9454  0.2173  0.4363
  965MOL0     H33141  10.330   1.850   5.764  2.1824 -0.9065  2.3176
  965MOL0     H33142  10.444   2.067   5.858  0.9634  0.1584  1.3410
  965MOL0     H33143  10.512   1.915   5.904  1.1566 -0.3687 -0.0902
  965MOL0     H33144  10.681   2.085   5.837 -1.3527 -0.7321  1.9791
  965MOL0     H33145  10.615   2.101   5.668  1.7438  0.7090  0.5877
  965MOL0     H33146  10.699   1.875   5.612 -0.2362 -1.2613  0.5246
  965MOL0     H33147  10.707   1.824   5.769 -1.3069  0.8366  0.5370
  965MOL0     H33148  10.899   1.992   5.808  2.8287 -0.1637  0.1766
  965MOL0     H33149  10.875   2.046   5.638 -2.2195 -0.6136 -0.7593
  965MOL0     H33150   9.823   1.801   5.330 -0.2369 -0.8581 -0.0374
  965MOL0     H33151   9.602   1.717   5.368  1.1895  0.5180 -0.2768
  965MOL0     H33152   9.301   1.365   5.439  0.0164  2.4923 -2.1328
  965MOL0     H33153   9.079   1.259   5.519  0.3451 -0.8585  0.1545
  965MOL0     H33154   7.064   0.796   5.404 -0.7204 -0.9379 -1.0489
  965MOL0     H33155   6.835   0.877   5.361  0.1511  0.2016  2.4190
  965MOL0     H33156   6.555   1.139   5.240 -2.4549 -0.9306 -0.1919
  965MOL0     H33157   6.321   1.153   5.226  2.2277 -0.0686 -0.4839
  965MOL0     H33158   6.071   1.188   5.608  1.0443  0.1300  1.0934
  965MOL0     H33159   6.129   1.327   5.518 -2.7182  1.5688 -1.7746
  965MOL0     H33160   5.881   1.166   5.437 -0.9216  1.0157 -1.1493
  965MOL0     H33161   5.955   1.326   5.368  0.1574  0.0921 -0.6637
  965MOL0     H33162   5.864   1.298   5.647 -1.0438  1.5680  1.4842
  965MOL0     H33163   5.880   1.447   5.548  2.6358 -1.0332 -3.5678
  965MOL0     H33164   5.647   1.395   5.586  1.7767  0.5556  1.3751
  965MOL0     H33165   5.660   1.245   5.501 -1.0399  0.8863 -2.6709
  965MOL0     H33166   5.611   1.492   5.175  2.7692  4.2759  0.7155
  965MOL0     H33167   6.293   1.158   5.649 -0.9909 -0.3058 -1.5034
  965MOL0     H33168   6.644   1.131   5.713 -1.4516 -0.7875  0.6505
  965MOL0     H33169   6.597   1.305   5.684 -0.3761 -0.0977 -3.7790
  965MOL0     H33170   6.496   1.187   5.788  1.4648  0.0217  1.4793
  966MOL0     O33171   9.395   7.205   8.232  0.4396 -0.3328  0.2395
  966MOL0     C33172   9.373   7.216   8.354  1.2012 -0.2966 -0.0652
  966MOL0     O33173   9.462   7.211   8.461 -0.8221 -0.4151  0.3558
  966MOL0     C33174   9.594   7.227   8.426  1.1692  0.1181 -0.2011
  966MOL0     C33175   9.685   7.141   8.480  0.5252  0.8831 -0.0831
  966MOL0     C33176   9.817   7.150   8.451  0.3333  0.2412  0.4367
  966MOL0     C33177   9.858   7.248   8.358  0.0179 -0.5295 -0.8710
  966MOL0     O33178   9.986   7.263   8.316  0.1600 -0.6664 -0.4813
  966MOL0     C33179  10.088   7.213   8.393  0.8802 -0.3127  0.2779
  966MOL0     C33180  10.226   7.281   8.369  0.0688 -0.3793 -0.1302
  966MOL0     C33181  10.265   7.265   8.222 -0.1505 -0.1304  1.4660
  966MOL0     C33182  10.398   7.325   8.181  0.0241  0.5999 -0.4173
  966MOL0     C33183  10.433   7.306   8.033 -0.5212  0.1384  0.6807
  966MOL0     C33184  10.571   7.365   8.019 -0.3343  0.1581  0.3471
  966MOL0     C33185  10.629   7.356   7.877  1.0930  0.5086 -0.1236
  966MOL0     C33186  10.554   7.443   7.772  0.0207 -0.1308 -0.2011
  966MOL0     N33187  10.612   7.458   7.641  0.2674 -0.2260  0.0391
  966MOL0     C33188  10.652   7.354   7.567 -0.1225 -0.0452  0.3293
  966MOL0     C33189  10.705   7.401   7.451 -0.0615 -0.1088 -0.6762
  966MOL0     C33190  10.800   7.328   7.364  0.0191 -0.1679  0.3979
  966MOL0     C33191  10.934   7.412   7.367 -0.0742  0.1735  0.5901
  966MOL0     C33192  11.043   7.335   7.287  0.5665  0.2694 -0.4491
  966MOL0     C33193  11.151   7.431   7.242 -0.4637 -0.7438 -0.2754
  966MOL0     O33194  11.235   7.475   7.356  0.1206 -0.1285 -0.4179
  966MOL0     C33195  11.318   7.571   7.321 -0.3234  0.4527  0.2029
  966MOL0     C33196  11.288   7.701   7.285  0.3620  0.1506  0.1526
  966MOL0     C33197  11.378   7.802   7.258  0.1757 -0.3982 -1.1241
  966MOL0     C33198  11.318   7.937   7.217 -0.4393 -0.0659 -0.0333
  966MOL0     C33199  11.513   7.776   7.283  0.0013  0.4063 -0.4437
  966MOL0     C33200  11.619   7.871   7.249 -0.0429  0.2221 -0.5219
  966MOL0     O33201  11.740   7.829   7.277  0.2104 -0.4153  0.6174
  966MOL0     C33202  11.843   7.889   7.213 -0.0175 -0.8453 -0.1437
  966MOL0     C33203  11.889   8.020   7.236  0.8713 -0.2226 -0.1615
  966MOL0     C33204  12.000   8.077   7.181  0.2035  0.1665  0.9590
  966MOL0     C33205  12.077   8.004   7.094 -0.2980 -0.6859 -0.1961
  966MOL0     O33206  12.196   8.060   7.037 -0.4322 -0.2188  0.3803
  966MOL0     C33207  12.258   7.990   6.932 -0.4464 -0.6483  0.9280
  966MOL0     C33208  12.372   8.062   6.859 -0.3673 -0.1408 -0.3607
  966MOL0     C33209  12.499   8.076   6.946  1.1429  0.4971  0.4169
  966MOL0     C33210  12.606   8.148   6.868 -0.6359  0.5844  0.1756
  966MOL0     C33211  12.724   8.176   6.961 -0.1114  0.3689 -0.2196
  966MOL0     C33212  12.828   8.051   6.975  0.7857  0.7452  0.2406
  966MOL0     C33213  12.880   7.986   6.845  0.3792 -0.0322 -0.6180
  966MOL0     C33214  12.991   7.884   6.880 -0.4602  0.4457 -0.1691
  966MOL0    Cl33215  13.120   7.973   6.967  0.0434  0.3224  0.4917
  966MOL0     C33216  12.039   7.869   7.062  0.6545  0.4045  0.0619
  966MOL0     C33217  11.923   7.814   7.123  0.5720 -0.1495 -0.1120
  966MOL0     O33218  11.597   7.977   7.195 -0.2293  0.0487 -0.3869
  966MOL0     C33219  11.550   7.643   7.324 -0.4215  0.2006  0.1064
  966MOL0     C33220  11.451   7.546   7.335  0.0668 -0.7945 -0.5316
  966MOL0     N33221  10.698   7.542   7.453  0.3799  0.4880 -0.5461
  966MOL0     N33222  10.636   7.569   7.563 -0.4083 -0.2198  0.3278
  966MOL0     C33223   9.772   7.344   8.310  0.2867 -0.3482 -0.7041
  966MOL0     C33224   9.638   7.339   8.354 -0.8252  0.1755  0.9067
  966MOL0     C33225   9.235   7.242   8.411 -0.7581  0.8008  0.6953
  966MOL0     C33226   9.219   7.327   8.522  0.4570  0.5015  0.5412
  966MOL0     C33227   9.100   7.357   8.575 -0.3427  0.0906  0.7526
  966MOL0     C33228   8.988   7.297   8.525 -0.3051  1.2888 -0.2496
  966MOL0     O33229   8.860   7.317   8.577  0.3090 -0.5402  1.0881
  966MOL0     C33230   8.835   7.418   8.678 -0.5132  0.2226  0.1013
  966MOL0     C33231   8.822   7.556   8.615  0.8634 -0.4731  0.4216
  966MOL0     C33232   8.782   7.666   8.715  0.6858 -0.1828 -0.4801
  966MOL0     C33233   8.816   7.799   8.659  1.0259 -0.0416  1.1014
  966MOL0     C33234   8.765   7.904   8.744  0.3755 -0.1625  0.2576
  966MOL0     C33235   8.728   8.003   8.811 -0.7030  0.4271  0.7935
  966MOL0     C33236   8.994   7.212   8.416  0.4039 -0.7332 -0.0599
  966MOL0     C33237   9.113   7.183   8.357 -1.4321 -0.0989  0.3110
  966MOL0     C33238   9.123   7.078   8.248  0.2354  0.4333  0.5638
  966MOL0     H33239   9.643   7.059   8.538  4.3945 -1.7849 -0.7334
  966MOL0     H33240   9.884   7.077   8.495 -1.3498 -0.6663  1.5638
  966MOL0     H33241  10.099   7.105   8.378 -0.3794 -0.2371 -1.4682
  966MOL0     H33242  10.061   7.228   8.499 -0.4852 -0.6359  0.0048
  966MOL0     H33243  10.220   7.387   8.395  1.6502 -0.5280  0.9747
  966MOL0     H33244  10.293   7.224   8.434 -0.7339  1.1868  2.2098
  966MOL0     H33245  10.271   7.158   8.202 -2.1227 -0.0564  0.2090
  966MOL0     H33246  10.194   7.319   8.158  0.9243  0.4992  0.7689
  966MOL0     H33247  10.392   7.433   8.199 -1.2331  0.5115 -0.1635
  966MOL0     H33248  10.476   7.284   8.245 -0.1880 -0.1731 -0.6410
  966MOL0     H33249  10.362   7.344   7.958  0.2298 -0.0501 -0.1416
  966MOL0     H33250  10.444   7.200   8.008  0.8240 -0.1590  2.3292
  966MOL0     H33251  10.580   7.465   8.063  1.0953 -1.3566  3.8417
  966MOL0     H33252  10.644   7.305   8.074 -0.5702  0.1755  0.6783
  966MOL0     H33253  10.618   7.253   7.842 -0.7171  0.7698 -0.4448
  966MOL0     H33254  10.735   7.379   7.883  1.6576 -2.0733  0.9518
  966MOL0     H33255  10.457   7.396   7.760 -1.4367  2.0173  2.1168
  966MOL0     H33256  10.540   7.545   7.809 -0.0137 -0.3514  0.4000
  966MOL0     H33257  10.653   7.254   7.608 -0.3703 -0.3025 -0.2849
  966MOL0     H33258  10.769   7.326   7.259  0.0175  0.1755  0.3913
  966MOL0     H33259  10.817   7.222   7.383 -1.0706 -0.4347 -0.0002
  966MOL0     H33260  10.927   7.515   7.329  0.3580 -0.1221 -0.3364
  966MOL0     H33261  10.958   7.418   7.473 -1.0697  0.0412  0.8276
  966MOL0     H33262  11.081   7.251   7.346  1.2741  2.6600  2.7819
  966MOL0     H33263  10.998   7.284   7.202  2.3245 -1.9150 -0.1502
  966MOL0     H33264  11.217   7.397   7.162 -1.1442  0.5822 -1.4245
  966MOL0     H33265  11.103   7.518   7.197 -0.0539  0.7876  2.0812
  966MOL0     H33266  11.181   7.703   7.266  0.5646  1.3140 -1.0190
  966MOL0     H33267  11.209   7.937   7.216 -0.4753  0.0150  1.4581
  966MOL0     H33268  11.358   7.971   7.121 -3.4930  0.1698 -1.3121
  966MOL0     H33269  11.338   8.006   7.300  1.4810 -0.2442 -0.2993
  966MOL0     H33270  11.833   8.084   7.302  0.9961  0.3163 -0.5722
  966MOL0     H33271  12.019   8.181   7.206 -2.3817  0.9347  0.0692
  966MOL0     H33272  12.296   7.896   6.972  0.1503 -0.2320  1.3708
  966MOL0     H33273  12.183   7.969   6.855 -0.4565  0.6409  0.5491
  966MOL0     H33274  12.405   8.010   6.769  1.9551  2.6506 -1.2703
  966MOL0     H33275  12.330   8.156   6.821 -1.2079  0.9593  2.8955
  966MOL0     H33276  12.527   7.981   6.991 -0.4922 -0.6292 -0.8177
  966MOL0     H33277  12.473   8.149   7.024  0.3072  2.0218 -1.2145
  966MOL0     H33278  12.575   8.248   6.836 -0.7720  0.6877  0.6272
  966MOL0     H33279  12.637   8.088   6.781 -1.5865  1.1035 -0.5344
  966MOL0     H33280  12.788   8.254   6.918  1.1340 -1.0341 -1.0090
  966MOL0     H33281  12.699   8.196   7.066  1.1864 -0.7585  0.3388
  966MOL0     H33282  12.800   7.967   7.040  0.1465 -0.6947 -1.7898
  966MOL0     H33283  12.920   8.098   7.012 -0.4070  2.2619  1.3546
  966MOL0     H33284  12.907   8.065   6.775 -0.4283 -0.0516 -0.9586
  966MOL0     H33285  12.796   7.935   6.797  0.8699 -1.5442  0.0729
  966MOL0     H33286  13.027   7.848   6.784  1.3945  3.5779 -0.8044
  966MOL0     H33287  12.945   7.803   6.937  0.6926  1.7397  2.7974
  966MOL0     H33288  12.081   7.810   6.981 -1.5559  0.9246 -1.5654
  966MOL0     H33289  11.872   7.726   7.086 -1.6835  0.3226  1.6799
  966MOL0     H33290  11.653   7.611   7.325 -0.7886 -1.0451 -0.0163
  966MOL0     H33291  11.477   7.448   7.372 -2.4023 -0.6722  1.8038
  966MOL0     H33292   9.811   7.422   8.245 -1.9962 -1.1115 -3.1847
  966MOL0     H33293   9.558   7.409   8.330 -0.8808 -0.7177 -1.8320
  966MOL0     H33294   9.299   7.384   8.568  1.8799 -1.4262  0.5787
  966MOL0     H33295   9.093   7.428   8.657 -2.0461 -0.3910  1.0454
  966MOL0     H33296   8.739   7.394   8.726  0.2685  1.8012  2.6670
  966MOL0     H33297   8.913   7.429   8.754  0.2905  1.5703 -0.8844
  966MOL0     H33298   8.739   7.548   8.544  1.2151 -0.9290  0.0495
  966MOL0     H33299   8.911   7.588   8.561  0.1835  1.5872  0.4323
  966MOL0     H33300   8.675   7.655   8.734  1.0347 -2.4441  0.4071
  966MOL0     H33301   8.816   7.648   8.817 -0.5912  1.1681  0.2124
  966MOL0     H33302   8.775   7.816   8.559 -3.5480  3.1444  3.1755
  966MOL0     H33303   8.925   7.805   8.649  0.7732  2.4074 -1.4944
  966MOL0     H33304   8.681   8.068   8.882 -1.1037  1.3088 -0.2522
  966MOL0     H33305   8.898   7.177   8.379 -0.1120  2.5497 -2.3316
  966MOL0     H33306   9.166   7.111   8.153 -0.4931 -0.9968 -0.2947
  966MOL0     H33307   9.186   6.994   8.277  0.3416  0.2101 -0.2853
  966MOL0     H33308   9.021   7.048   8.222  1.2164 -2.1340 -0.5981
  967MOL0     O33309   4.630   3.672   8.869 -0.3381  0.2164 -0.0542
  967MOL0     C33310   4.568   3.773   8.899  0.8476  0.2040  0.0903
  967MOL0     O33311   4.483   3.845   8.823  0.2223 -0.0652  1.0453
  967MOL0     C33312   4.433   3.800   8.699 -0.5304 -0.4504  0.5335
  967MOL0     C33313   4.407   3.668   8.674  0.1213 -0.5406  0.7936
  967MOL0     C33314   4.354   3.627   8.551 -0.4009  0.3193 -0.2233
  967MOL0     C33315   4.338   3.712   8.441  0.8001  0.3578 -0.1950
  967MOL0     O33316   4.283   3.662   8.326 -0.4456 -0.5010  0.1460
  967MOL0     C33317   4.376   3.625   8.225  0.7674  0.6992  0.1355
  967MOL0     C33318   4.362   3.735   8.110  0.3352  0.1956  0.6741
  967MOL0     C33319   4.473   3.745   8.002 -0.4302 -0.4968  0.8146
  967MOL0     C33320   4.607   3.784   8.058  0.3747  0.1276 -0.1518
  967MOL0     C33321   4.731   3.777   7.962  0.8509 -0.5086 -0.6517
  967MOL0     C33322   4.743   3.649   7.885 -0.5322  0.7179  0.0868
  967MOL0     C33323   4.886   3.629   7.847  0.6982 -0.3958  0.3612
  967MOL0     C33324   4.902   3.699   7.711 -0.0561  0.2843  0.1304
  967MOL0     N33325   5.029   3.658   7.656 -0.8375 -0.0706  0.7422
  967MOL0     C33326   5.044   3.634   7.520 -0.1116  0.2915 -0.2210
  967MOL0     C33327   5.179   3.621   7.506  0.0071  0.4360  0.3741
  967MOL0     C33328   5.242   3.598   7.375  0.2088 -0.5566 -1.0416
  967MOL0     C33329   5.329   3.718   7.335  0.8267  0.6398  0.6710
  967MOL0     C33330   5.470   3.699   7.382  0.7338  0.1301  0.7286
  967MOL0     C33331   5.573   3.799   7.320  0.3427 -0.0890  0.6183
  967MOL0     O33332   5.583   3.757   7.178  0.6363  0.0988  0.1115
  967MOL0     C33333   5.682   3.812   7.104  0.0454  0.7439  0.2773
  967MOL0     C33334   5.717   3.946   7.094 -0.6448  0.1746  0.3365
  967MOL0     C33335   5.820   3.990   7.011 -0.5295 -0.0006 -0.4000
  967MOL0     C33336   5.845   4.140   7.002  0.1809 -0.2085  0.0555
  967MOL0     C33337   5.878   3.893   6.920 -1.4378 -0.5168  0.0002
  967MOL0     C33338   5.993   3.920   6.818  0.3406  0.5455 -0.3961
  967MOL0     O33339   6.041   3.801   6.762  0.1471  0.1746 -0.2680
  967MOL0     C33340   6.158   3.801   6.686  0.2257 -0.2028 -0.6325
  967MOL0     C33341   6.282   3.755   6.740  0.3640 -0.3511  0.5336
  967MOL0     C33342   6.396   3.732   6.662  0.4940 -0.2946  1.1145
  967MOL0     C33343   6.390   3.764   6.519  0.0090  0.6741 -0.2418
  967MOL0     O33344   6.503   3.748   6.441 -0.2581  0.4189  0.0399
  967MOL0     C33345   6.491   3.768   6.300 -0.6298  0.3831  0.5280
  967MOL0     C33346   6.614   3.700   6.239 -0.5692  0.1117  0.5564
  967MOL0     C33347   6.597   3.547   6.228 -0.0761 -0.2823 -0.2548
  967MOL0     C33348   6.717   3.489   6.151 -0.1275 -0.5525 -0.3295
  967MOL0     C33349   6.699   3.337   6.125 -0.0793  0.5155 -0.5030
  967MOL0     C33350   6.570   3.312   6.041  0.2006  0.6390  0.4655
  967MOL0     C33351   6.568   3.183   5.960 -0.3115  0.4107 -0.0355
  967MOL0     C33352   6.440   3.151   5.885 -0.1803  0.2087  0.4427
  967MOL0    Cl33353   6.498   3.028   5.762  0.2866 -0.4138  0.1317
  967MOL0     C33354   6.266   3.813   6.469 -0.3178  0.4810  1.2749
  967MOL0     C33355   6.157   3.828   6.555 -0.1612  0.8103  0.6495
  967MOL0     O33356   6.039   4.036   6.802  0.3541 -0.6279 -0.5174
  967MOL0     C33357   5.855   3.761   6.944  0.0934 -0.2771  0.5240
  967MOL0     C33358   5.750   3.722   7.025  0.2053 -0.8934 -0.1881
  967MOL0     N33359   5.237   3.617   7.631  0.6670  0.7077  0.3844
  967MOL0     N33360   5.148   3.633   7.724 -0.3471  0.1282 -0.6753
  967MOL0     C33361   4.375   3.843   8.461 -0.1313  0.7410  0.6270
  967MOL0     C33362   4.422   3.886   8.588  0.5188  0.1367  0.5594
  967MOL0     C33363   4.609   3.842   9.027 -0.2919 -0.5156  0.5902
  967MOL0     C33364   4.592   3.978   9.035  0.1836  0.7243 -0.1217
  967MOL0     C33365   4.601   4.043   9.158  0.9109  1.1403  1.0414
  967MOL0     C33366   4.636   3.977   9.273  0.9982  0.6177  0.9313
  967MOL0     O33367   4.662   4.041   9.385 -0.2882 -0.3501 -0.3754
  967MOL0     C33368   4.553   4.117   9.441 -0.4741 -0.3029 -0.5016
  967MOL0     C33369   4.586   4.156   9.587  0.1945  0.2299  0.1703
  967MOL0     C33370   4.621   4.032   9.669 -0.3056 -1.1884 -0.3719
  967MOL0     C33371   4.687   4.057   9.813  0.5063 -0.1033 -0.0884
  967MOL0     C33372   4.809   4.131   9.814  0.5469 -1.1854  0.1703
  967MOL0     C33373   4.914   4.194   9.822  0.0904 -1.0327  0.0383
  967MOL0     C33374   4.672   3.841   9.259 -0.5197 -0.5256  0.6044
  967MOL0     C33375   4.653   3.772   9.138  1.3011 -0.0544 -0.2529
  967MOL0     C33376   4.690   3.632   9.136 -0.8907  0.8760  0.0024
  967MOL0     H33377   4.406   3.600   8.758 -1.5039 -1.2893  0.2017
  967MOL0     H33378   4.320   3.526   8.530  2.9657 -0.5214 -2.6140
  967MOL0     H33379   4.346   3.531   8.178  0.3413  0.5849  0.6286
  967MOL0     H33380   4.480   3.607   8.253  2.4783  3.0563 -3.8268
  967MOL0     H33381   4.264   3.711   8.067  1.2232 -0.3627 -1.1338
  967MOL0     H33382   4.355   3.833   8.159  3.3156 -1.5082  5.0780
  967MOL0     H33383   4.483   3.648   7.952  0.4626  0.7299 -1.5123
  967MOL0     H33384   4.443   3.823   7.931 -1.1088 -1.7992 -0.3886
  967MOL0     H33385   4.607   3.884   8.102 -0.5566  0.5095 -0.9586
  967MOL0     H33386   4.629   3.709   8.135 -0.5462 -0.3897 -0.3722
  967MOL0     H33387   4.823   3.797   8.017  0.0467  0.5675  0.3567
  967MOL0     H33388   4.715   3.843   7.876  1.3820 -1.2151 -1.3096
  967MOL0     H33389   4.719   3.566   7.952  0.0725  1.4967  1.3072
  967MOL0     H33390   4.675   3.646   7.800  0.1202 -2.0111 -0.4484
  967MOL0     H33391   4.896   3.521   7.833 -2.1093 -0.8330  1.0895
  967MOL0     H33392   4.955   3.668   7.922  0.1508  0.6177  0.3591
  967MOL0     H33393   4.821   3.661   7.649 -1.9291  0.8800  2.0913
  967MOL0     H33394   4.897   3.808   7.719  0.5033  0.3602 -0.4683
  967MOL0     H33395   4.981   3.636   7.432 -0.8146 -1.3416  0.2143
  967MOL0     H33396   5.164   3.587   7.300 -0.2771 -2.3228 -0.3113
  967MOL0     H33397   5.311   3.514   7.384  3.3660  1.8066 -0.9678
  967MOL0     H33398   5.327   3.725   7.225  2.4400 -1.2918  0.4543
  967MOL0     H33399   5.284   3.811   7.372 -2.0816 -0.9106  1.2825
  967MOL0     H33400   5.477   3.695   7.491  0.6174  0.6432  0.7597
  967MOL0     H33401   5.503   3.599   7.354  0.3660  0.2834 -0.2897
  967MOL0     H33402   5.531   3.900   7.329 -1.2230 -0.8441  2.5544
  967MOL0     H33403   5.667   3.782   7.373 -1.7274 -4.3327  3.4882
  967MOL0     H33404   5.654   4.019   7.144  1.1323  1.3128  1.0054
  967MOL0     H33405   5.847   4.161   6.894 -0.5222 -0.7629 -0.0726
  967MOL0     H33406   5.942   4.158   7.049 -0.0083 -2.8122  1.6398
  967MOL0     H33407   5.765   4.201   7.045  0.2045 -0.7392  0.8702
  967MOL0     H33408   6.278   3.732   6.845 -0.8414  0.3126  0.6484
  967MOL0     H33409   6.492   3.695   6.695  1.0829 -0.0944 -0.2720
  967MOL0     H33410   6.405   3.713   6.262  1.2618 -2.2073 -0.2903
  967MOL0     H33411   6.488   3.874   6.273  1.0354  0.7294  1.5309
  967MOL0     H33412   6.623   3.750   6.142 -1.4914  0.9959  0.9080
  967MOL0     H33413   6.706   3.724   6.293  0.6598 -2.9281  0.0276
  967MOL0     H33414   6.499   3.523   6.184  0.7820 -2.0861 -1.2453
  967MOL0     H33415   6.597   3.512   6.332  0.6917  0.9315  0.1754
  967MOL0     H33416   6.804   3.508   6.214 -1.2717 -0.7430  1.3967
  967MOL0     H33417   6.725   3.537   6.053 -1.7152  1.2682  0.3583
  967MOL0     H33418   6.788   3.301   6.073  0.7464  2.8471 -0.8085
  967MOL0     H33419   6.697   3.277   6.217  0.1311 -1.0099 -1.4560
  967MOL0     H33420   6.554   3.402   5.981  1.2484  0.4785 -0.0657
  967MOL0     H33421   6.489   3.311   6.114 -2.4170 -1.4385 -2.1979
  967MOL0     H33422   6.580   3.098   6.028  1.5287  0.4681 -0.2508
  967MOL0     H33423   6.652   3.188   5.890 -0.2654  0.1726  0.0020
  967MOL0     H33424   6.394   3.243   5.846 -0.0273  0.8951  1.8046
  967MOL0     H33425   6.371   3.101   5.954 -2.0191  0.7246 -0.9424
  967MOL0     H33426   6.253   3.859   6.372 -1.0779 -0.5740  0.8627
  967MOL0     H33427   6.067   3.867   6.510 -1.1397  1.6650  3.1361
  967MOL0     H33428   5.920   3.684   6.905  3.0665  1.7841  1.0674
  967MOL0     H33429   5.716   3.620   7.041 -1.1723 -0.6370 -1.3369
  967MOL0     H33430   4.357   3.915   8.381 -2.3882 -0.4428 -0.0102
  967MOL0     H33431   4.461   3.988   8.592  1.6227 -0.2172 -0.6100
  967MOL0     H33432   4.570   4.036   8.946 -3.2465 -1.3012 -0.7846
  967MOL0     H33433   4.586   4.149   9.178 -1.6488  1.0241  0.1307
  967MOL0     H33434   4.546   4.210   9.383 -0.2909 -0.7862 -1.3044
  967MOL0     H33435   4.461   4.058   9.440 -0.1532 -0.7968 -0.7110
  967MOL0     H33436   4.500   4.212   9.623 -1.1590 -1.2092 -0.6634
  967MOL0     H33437   4.673   4.220   9.572  0.0911  0.3654  0.1473
  967MOL0     H33438   4.524   3.990   9.695 -1.6887  2.2035  0.4530
  967MOL0     H33439   4.691   3.968   9.615  2.3385  3.0147 -2.4885
  967MOL0     H33440   4.707   3.962   9.863  2.3594  0.5497  0.4679
  967MOL0     H33441   4.619   4.117   9.875  0.0623  0.8109 -1.4053
  967MOL0     H33442   5.017   4.225   9.828 -0.1407 -0.0141 -1.0543
  967MOL0     H33443   4.688   3.807   9.361 -1.9437 -2.1008  0.3498
  967MOL0     H33444   4.789   3.627   9.091 -1.0388  1.4553 -0.4022
  967MOL0     H33445   4.694   3.602   9.241 -1.2376  2.4736  0.5041
  967MOL0     H33446   4.618   3.570   9.082 -1.7519  3.3251 -1.8508
  968MOL0     O33447  11.238   6.784   5.796 -0.1606  0.2061  0.4091
  968MOL0     C33448  11.167   6.704   5.743  0.2470  0.1820  0.5565
  968MOL0     O33449  11.213   6.595   5.673 -0.7364 -0.1477  0.3025
  968MOL0     C33450  11.344   6.594   5.641  0.3246 -0.2829  0.3689
  968MOL0     C33451  11.444   6.569   5.739 -0.8130 -1.3764 -0.9047
  968MOL0     C33452  11.582   6.571   5.714  0.3893  0.4900  0.2768
  968MOL0     C33453  11.618   6.597   5.582  0.5929 -0.8295  1.3734
  968MOL0     O33454  11.746   6.630   5.559  0.6377  0.7858 -0.3061
  968MOL0     C33455  11.784   6.677   5.428 -1.7548  0.4025  0.0928
  968MOL0     C33456  11.925   6.742   5.451 -0.1673 -0.5129  0.4242
  968MOL0     C33457  11.923   6.855   5.556 -0.5445  0.4805  0.0692
  968MOL0     C33458  11.867   6.989   5.520  0.7411  0.1083  0.9113
  968MOL0     C33459  11.917   7.097   5.621  0.6040  0.4591  0.6276
  968MOL0     C33460  12.068   7.144   5.608 -0.0123  0.5156 -0.7374
  968MOL0     C33461  12.088   7.275   5.683 -0.2297 -0.1926  0.9175
  968MOL0     C33462  12.231   7.317   5.698  0.3668 -0.4233  0.3990
  968MOL0     N33463  12.248   7.432   5.786  0.7372  0.2476 -0.0163
  968MOL0     C33464  12.284   7.428   5.920 -0.1348  0.4323  0.0469
  968MOL0     C33465  12.273   7.558   5.959 -0.3873  0.0942  0.5406
  968MOL0     C33466  12.318   7.589   6.102 -0.4291  0.0399 -0.1502
  968MOL0     C33467  12.455   7.646   6.124 -0.1319  0.1326  0.4853
  968MOL0     C33468  12.487   7.665   6.276 -0.4381  0.3979 -0.9154
  968MOL0     C33469  12.625   7.735   6.291  0.5649 -0.0789  0.8945
  968MOL0     O33470  12.694   7.689   6.404 -0.3526 -0.2702  0.1669
  968MOL0     C33471  12.811   7.754   6.438 -0.3510 -0.1536 -0.0091
  968MOL0     C33472  12.893   7.680   6.518 -0.4896 -0.0727 -0.3617
  968MOL0     C33473  13.032   7.724   6.550  0.5830  0.0217  0.4740
  968MOL0     C33474  13.111   7.615   6.606  0.2232 -0.0329  0.0123
  968MOL0     C33475  13.068   7.856   6.517 -0.2913 -1.0274 -0.4976
  968MOL0     C33476  13.195   7.922   6.553  0.6565  0.2782 -1.3407
  968MOL0     O33477  13.278   7.851   6.633  0.1347  0.4412 -0.4360
  968MOL0     C33478  13.386   7.910   6.707  1.2090  0.5532  0.0986
  968MOL0     C33479  13.493   7.826   6.725 -0.2397  0.0130 -0.5861
  968MOL0     C33480  13.607   7.878   6.797  0.4606 -0.1921 -0.5189
  968MOL0     C33481  13.617   8.014   6.843 -0.0382 -1.0850  0.1481
  968MOL0     O33482  13.730   8.071   6.902 -0.6517 -0.2736  0.1840
  968MOL0     C33483  13.707   8.140   7.034 -0.3146  0.3828 -0.2172
  968MOL0     C33484  13.843   8.164   7.116  0.7093  0.0115  1.5795
  968MOL0     C33485  13.913   8.039   7.165 -0.1349  0.5400 -0.6264
  968MOL0     C33486  14.046   8.073   7.245  0.5361  0.3158  0.3009
  968MOL0     C33487  14.113   7.936   7.291  0.0814  0.1174 -0.1828
  968MOL0     C33488  14.252   7.936   7.356  1.1253 -0.8409 -0.5281
  968MOL0     C33489  14.313   7.806   7.344 -0.1860  0.0995 -0.1773
  968MOL0     C33490  14.464   7.799   7.394 -0.6116  0.1801  0.3908
  968MOL0    Cl33491  14.576   7.907   7.321 -0.2147  0.2984 -0.0956
  968MOL0     C33492  13.500   8.095   6.812 -0.7847 -1.0404 -0.3327
  968MOL0     C33493  13.389   8.044   6.747  0.3771 -0.2797 -0.2129
  968MOL0     O33494  13.223   8.020   6.496 -0.4708 -0.8779  0.6213
  968MOL0     C33495  12.976   7.936   6.445 -0.3291  0.4637 -0.1929
  968MOL0     C33496  12.853   7.883   6.401 -0.7640  0.1425  0.6230
  968MOL0     N33497  12.262   7.644   5.851 -0.2312  0.2164  0.5594
  968MOL0     N33498  12.241   7.565   5.752  0.3638  0.3226  0.4903
  968MOL0     C33499  11.512   6.621   5.486 -0.7138  0.0373 -0.1550
  968MOL0     C33500  11.385   6.623   5.512 -0.1056 -0.9257 -0.4579
  968MOL0     C33501  11.022   6.721   5.763 -0.4365  0.3277 -0.8816
  968MOL0     C33502  10.973   6.852   5.786  0.0517  0.3557 -0.6358
  968MOL0     C33503  10.840   6.874   5.818 -0.4138 -0.2702  0.0271
  968MOL0     C33504  10.749   6.768   5.826 -0.4313 -0.0041 -0.5311
  968MOL0     O33505  10.622   6.785   5.865 -0.3901  0.3282 -0.3542
  968MOL0     C33506  10.549   6.885   5.802 -0.5932  0.1908  0.1236
  968MOL0     C33507  10.397   6.862   5.846  0.6692  0.1169  0.1140
  968MOL0     C33508  10.365   6.927   5.980 -0.8813  0.0887  0.2210
  968MOL0     C33509  10.217   6.906   6.011 -0.9797  0.2220  0.0909
  968MOL0     C33510  10.183   6.961   6.142 -0.4277  0.4314 -0.0979
  968MOL0     C33511  10.176   7.011   6.256  0.7403  0.8689 -0.6710
  968MOL0     C33512  10.797   6.637   5.783  0.2216 -0.4166  0.0692
  968MOL0     C33513  10.932   6.612   5.759  0.6206  0.5779  0.8394
  968MOL0     C33514  10.969   6.465   5.745  0.1131 -0.8483  0.5405
  968MOL0     H33515  11.414   6.570   5.844 -1.0290 -0.0996 -0.9672
  968MOL0     H33516  11.659   6.555   5.788  0.0374 -0.0061  0.5384
  968MOL0     H33517  11.722   6.758   5.389  0.3945  2.8939  1.5303
  968MOL0     H33518  11.798   6.596   5.355  0.4033  2.3772 -1.8669
  968MOL0     H33519  11.997   6.668   5.486  1.7815  1.2217  0.2867
  968MOL0     H33520  11.960   6.761   5.349 -1.1381 -2.1781 -0.2481
  968MOL0     H33521  11.873   6.813   5.644  1.8278  0.6660  1.5919
  968MOL0     H33522  12.027   6.875   5.584  0.0769  0.6120 -2.1215
  968MOL0     H33523  11.898   7.013   5.418  3.3440 -0.5435  1.4812
  968MOL0     H33524  11.758   6.988   5.533  0.7411 -2.1710  1.0740
  968MOL0     H33525  11.899   7.070   5.725  0.6714 -0.4920  0.4007
  968MOL0     H33526  11.860   7.189   5.609 -0.2290 -0.2794 -1.5138
  968MOL0     H33527  12.138   7.068   5.645 -1.4458 -0.2639  0.4772
  968MOL0     H33528  12.093   7.159   5.502  1.9809 -2.5621 -0.8380
  968MOL0     H33529  12.039   7.279   5.781  1.3699  0.9505  1.7261
  968MOL0     H33530  12.033   7.346   5.621  0.0638 -2.3910 -2.1010
  968MOL0     H33531  12.290   7.233   5.736 -1.0506  0.3487  4.9176
  968MOL0     H33532  12.265   7.337   5.596  1.2633 -0.6061  0.6601
  968MOL0     H33533  12.307   7.341   5.980  2.6141  0.1321 -1.2823
  968MOL0     H33534  12.308   7.494   6.156 -0.7287 -0.3259 -0.8341
  968MOL0     H33535  12.244   7.660   6.136  1.1822  0.5619  2.5520
  968MOL0     H33536  12.517   7.580   6.063  0.2085 -0.4533  1.4407
  968MOL0     H33537  12.460   7.745   6.078  0.1799 -0.9064 -1.8756
  968MOL0     H33538  12.405   7.721   6.320 -0.8283 -0.0363 -1.0859
  968MOL0     H33539  12.494   7.572   6.334 -0.0212  1.3446  0.6157
  968MOL0     H33540  12.683   7.702   6.203 -3.5460 -2.9278 -1.0698
  968MOL0     H33541  12.619   7.843   6.276  3.3071  0.0672  0.3257
  968MOL0     H33542  12.862   7.584   6.557 -0.0339  0.7521  2.2393
  968MOL0     H33543  13.219   7.634   6.605 -0.1216  2.1754 -1.2277
  968MOL0     H33544  13.101   7.521   6.551  1.3389 -0.1203 -0.0702
  968MOL0     H33545  13.070   7.587   6.704  1.2263  1.8870  1.0299
  968MOL0     H33546  13.482   7.722   6.696  1.2322 -0.1872 -0.4983
  968MOL0     H33547  13.683   7.802   6.815  0.7693  0.3647  0.5558
  968MOL0     H33548  13.675   8.244   7.019  2.3581  1.4154  0.5927
  968MOL0     H33549  13.633   8.085   7.093 -3.0518 -0.0018 -3.6967
  968MOL0     H33550  13.917   8.217   7.054 -0.6817 -0.0551 -0.2470
  968MOL0     H33551  13.812   8.230   7.197 -3.0561 -2.5895  2.5075
  968MOL0     H33552  13.951   7.976   7.084  1.1993 -0.1061  0.4516
  968MOL0     H33553  13.859   7.975   7.235  2.7759 -1.7596 -0.2681
  968MOL0     H33554  14.027   8.128   7.338 -0.1573  1.1410 -0.3099
  968MOL0     H33555  14.110   8.134   7.181  2.2362  0.3396  1.9494
  968MOL0     H33556  14.045   7.890   7.363 -0.1822  0.2717 -0.3310
  968MOL0     H33557  14.122   7.867   7.206 -1.3680 -1.9846  1.2503
  968MOL0     H33558  14.244   7.961   7.463 -1.4804  2.9350 -1.4111
  968MOL0     H33559  14.320   8.006   7.307  0.0348  0.2682 -0.5003
  968MOL0     H33560  14.316   7.765   7.243 -3.6116 -0.9700  0.0441
  968MOL0     H33561  14.256   7.738   7.409 -1.1128  0.0186 -1.0585
  968MOL0     H33562  14.512   7.700   7.396 -0.1852  0.3504 -0.8283
  968MOL0     H33563  14.461   7.835   7.497 -0.6423 -1.7699  1.1265
  968MOL0     H33564  13.507   8.201   6.836  1.5198 -0.7815 -1.9135
  968MOL0     H33565  13.305   8.112   6.735 -0.1769 -0.4254  2.2877
  968MOL0     H33566  13.007   8.037   6.420  1.8961  0.1194  0.9641
  968MOL0     H33567  12.791   7.935   6.329 -0.9910 -0.7081  0.1918
  968MOL0     H33568  11.536   6.648   5.384 -2.1513  0.6499 -0.3529
  968MOL0     H33569  11.318   6.636   5.428 -2.7198 -0.4257  1.5839
  968MOL0     H33570  11.040   6.937   5.788 -0.9583  1.1666  0.7713
  968MOL0     H33571  10.812   6.973   5.852  2.3418  0.3471  0.7550
  968MOL0     H33572  10.581   6.989   5.821  1.1621 -0.1435 -0.8290
  968MOL0     H33573  10.570   6.859   5.698  0.8516  0.0959  0.4188
  968MOL0     H33574  10.399   6.752   5.851  0.4835  0.1608  2.7464
  968MOL0     H33575  10.317   6.894   5.778 -0.7973 -5.2877 -1.1798
  968MOL0     H33576  10.424   6.883   6.060  0.7749  0.3029 -0.8363
  968MOL0     H33577  10.379   7.035   5.973 -0.9585  0.0720 -0.2493
  968MOL0     H33578  10.195   6.799   6.014  0.3332 -0.0925 -0.7968
  968MOL0     H33579  10.156   6.948   5.931  0.4386  0.3495 -0.9517
  968MOL0     H33580  10.159   7.061   6.349 -0.8161  3.2492 -2.1361
  968MOL0     H33581  10.729   6.552   5.779 -0.8386  0.4109 -0.1013
  968MOL0     H33582  11.048   6.435   5.814  0.2236 -1.4327  0.1680
  968MOL0     H33583  10.877   6.416   5.777 -0.7101  0.3810  0.1485
  968MOL0     H33584  10.993   6.451   5.639 -0.8451  0.7203  0.0938
  969MOL0     O33585   0.318   0.680   1.721  0.2022 -0.1080  1.2429
  969MOL0     C33586   0.316   0.558   1.734 -0.9240 -0.1977  1.0397
  969MOL0     O33587   0.360   0.484   1.840 -0.3767 -0.8659 -0.3914
  969MOL0     C33588   0.444   0.540   1.936  0.4938 -0.0331  0.0705
  969MOL0     C33589   0.394   0.651   2.011 -1.1220  0.4378  0.1059
  969MOL0     C33590   0.476   0.718   2.103  0.6103 -0.7800  0.2714
  969MOL0     C33591   0.601   0.663   2.147  0.0658  0.3596  0.4795
  969MOL0     O33592   0.670   0.720   2.248 -0.4278 -0.0893  0.2068
  969MOL0     C33593   0.809   0.697   2.267 -0.3442 -0.2567  0.5686
  969MOL0     C33594   0.818   0.582   2.371 -0.7562 -0.9534 -0.0681
  969MOL0     C33595   0.965   0.531   2.364 -0.8005  0.4928  0.5441
  969MOL0     C33596   0.979   0.423   2.256  1.6478  0.2432 -0.6352
  969MOL0     C33597   1.120   0.364   2.236  0.3084 -0.1423 -0.2581
  969MOL0     C33598   1.228   0.454   2.182 -0.8092  0.6671  0.2052
  969MOL0     C33599   1.370   0.394   2.188  0.6048  0.6251  0.5729
  969MOL0     C33600   1.438   0.388   2.326 -0.5578 -0.0747 -0.2377
  969MOL0     N33601   1.589   0.376   2.323 -0.4316  0.2873 -0.0822
  969MOL0     C33602   1.663   0.279   2.262  0.5753  0.0909  0.2150
  969MOL0     C33603   1.789   0.310   2.301 -0.4089  0.0064 -0.0625
  969MOL0     C33604   1.919   0.234   2.258  0.1949 -0.7494 -0.2043
  969MOL0     C33605   1.994   0.178   2.380 -0.3493 -0.4010 -0.1472
  969MOL0     C33606   2.140   0.148   2.342 -0.0289  0.4160 -0.3404
  969MOL0     C33607   2.213   0.073   2.470 -0.1753 -0.1684 -0.0467
  969MOL0     O33608   2.333   0.003   2.433  0.0839 -0.3834  0.0437
  969MOL0     C33609   2.442   0.086   2.429  0.4627  0.6871 -0.1411
  969MOL0     C33610   2.531   0.049   2.327 -0.1157 -0.4059  0.1065
  969MOL0     C33611   2.662   0.100   2.317  0.6672  0.2143  0.4239
  969MOL0     C33612   2.755   0.030   2.220  0.2297 -0.2134 -1.1013
  969MOL0     C33613   2.697   0.203   2.402  0.2452 -0.1403 -0.4371
  969MOL0     C33614   2.834   0.252   2.393 -0.1109  0.9486  0.4416
  969MOL0     O33615   2.894   0.246   2.517  0.1427  0.4233  0.5527
  969MOL0     C33616   3.023   0.283   2.523 -0.0240  0.2154 -0.4684
  969MOL0     C33617   3.127   0.192   2.553  0.2025  0.9130  0.6886
  969MOL0     C33618   3.264   0.238   2.563 -0.6144  0.4313  0.6580
  969MOL0     C33619   3.287   0.372   2.523  0.0651 -0.3696  0.3238
  969MOL0     O33620   3.411   0.426   2.510  0.2526 -0.4372  0.1709
  969MOL0     C33621   3.525   0.349   2.499  0.1065 -0.1135 -0.0795
  969MOL0     C33622   3.530   0.265   2.371 -0.2783  0.1438 -0.9394
  969MOL0     C33623   3.662   0.185   2.389 -0.4789 -0.1441  0.5005
  969MOL0     C33624   3.679   0.065   2.293  1.0189 -0.5619  0.2409
  969MOL0     C33625   3.835   0.034   2.287  0.2168  0.6130  0.4886
  969MOL0     C33626   3.907   0.139   2.204 -0.0962  0.1080 -0.5113
  969MOL0     C33627   4.050   0.091   2.186  0.0523 -0.8448 -0.0564
  969MOL0     C33628   4.130   0.199   2.120 -0.7372  0.0068  0.4034
  969MOL0    Cl33629   4.309   0.140   2.114 -0.1629  0.1697 -0.1832
  969MOL0     C33630   3.178   0.461   2.508  0.0094  0.6272  0.0750
  969MOL0     C33631   3.047   0.415   2.508 -0.1336 -0.2244  0.5182
  969MOL0     O33632   2.886   0.280   2.283  0.3765 -0.2818 -0.4567
  969MOL0     C33633   2.606   0.244   2.503 -0.4625 -0.6133  0.4091
  969MOL0     C33634   2.482   0.183   2.518 -1.0200 -0.7813 -0.6362
  969MOL0     N33635   1.785   0.423   2.380  0.1147 -0.3741  0.2951
  969MOL0     N33636   1.659   0.467   2.390 -0.5342 -0.1627 -0.0149
  969MOL0     C33637   0.638   0.540   2.076 -0.1151 -0.1492  0.0491
  969MOL0     C33638   0.561   0.481   1.975  0.9921  0.1049 -0.2743
  969MOL0     C33639   0.235   0.497   1.625  0.3202  0.1649 -0.4595
  969MOL0     C33640   0.174   0.376   1.673 -0.1336 -0.2049  0.9532
  969MOL0     C33641   0.078   0.315   1.590  0.3778  0.1457  1.0155
  969MOL0     C33642   0.052   0.360   1.459 -0.0643  0.5012  0.8482
  969MOL0     O33643  -0.019   0.286   1.369  1.0937  0.6391  0.0790
  969MOL0     C33644  -0.132   0.207   1.415 -0.4913 -0.5486  0.2736
  969MOL0     C33645  -0.243   0.203   1.316  1.6843 -0.0431 -0.4863
  969MOL0     C33646  -0.216   0.107   1.197 -0.5112 -0.3473  0.3904
  969MOL0     C33647  -0.337   0.086   1.107  1.1842  0.0539  0.0012
  969MOL0     C33648  -0.354   0.199   1.015 -0.2771  0.0778 -0.6018
  969MOL0     C33649  -0.378   0.284   0.933  0.4269 -0.3172  0.3555
  969MOL0     C33650   0.119   0.476   1.414  0.0917  0.4266  0.8170
  969MOL0     C33651   0.204   0.545   1.501 -0.6049  0.3146 -0.8096
  969MOL0     C33652   0.272   0.665   1.448 -0.1078  0.5576  0.7982
  969MOL0     H33653   0.297   0.697   1.995 -1.0024  0.5525 -0.2933
  969MOL0     H33654   0.434   0.810   2.142 -0.3530 -1.6517  1.3717
  969MOL0     H33655   0.859   0.788   2.299  0.0154  0.3513 -1.5638
  969MOL0     H33656   0.862   0.660   2.178  2.7203  2.6483  0.9864
  969MOL0     H33657   0.803   0.621   2.472  2.9415  1.3898 -0.2287
  969MOL0     H33658   0.755   0.495   2.349  1.2371 -2.3518 -0.5873
  969MOL0     H33659   1.037   0.613   2.360  0.0625 -0.2428  0.5219
  969MOL0     H33660   0.988   0.482   2.459 -1.6439  0.8618  0.9472
  969MOL0     H33661   0.925   0.330   2.273  0.5723  1.0940  0.7996
  969MOL0     H33662   0.947   0.464   2.159  1.1443  1.6898  0.1134
  969MOL0     H33663   1.102   0.291   2.157  1.3403  0.9165 -1.5193
  969MOL0     H33664   1.154   0.317   2.329 -0.2253 -1.5670 -0.7694
  969MOL0     H33665   1.203   0.477   2.078  3.7150 -0.0620 -1.2535
  969MOL0     H33666   1.217   0.551   2.232 -1.8012  0.9485 -0.5250
  969MOL0     H33667   1.425   0.471   2.133 -0.8665  1.9889  0.9441
  969MOL0     H33668   1.372   0.301   2.131  0.1808  2.0772 -1.9513
  969MOL0     H33669   1.406   0.476   2.383  0.7424 -0.3072  0.8978
  969MOL0     H33670   1.401   0.302   2.383 -1.1516  0.3335  0.0107
  969MOL0     H33671   1.617   0.204   2.198  0.1750  2.5856 -2.6654
  969MOL0     H33672   1.977   0.310   2.205  0.6225 -2.3527 -2.1803
  969MOL0     H33673   1.896   0.153   2.187  1.1594  0.0618 -1.4882
  969MOL0     H33674   1.995   0.248   2.464  1.2766 -0.2708 -0.2364
  969MOL0     H33675   1.952   0.090   2.428  2.4226 -1.2373  0.9815
  969MOL0     H33676   2.146   0.079   2.258  2.5866 -1.3979  1.1829
  969MOL0     H33677   2.181   0.244   2.311 -3.0605  2.2322  0.7663
  969MOL0     H33678   2.229   0.147   2.548  2.5695 -1.6907  0.9666
  969MOL0     H33679   2.149  -0.010   2.504  2.0982 -2.1894 -0.4020
  969MOL0     H33680   2.507  -0.031   2.257 -1.9495 -0.2852  0.5414
  969MOL0     H33681   2.710  -0.048   2.158 -0.1601 -1.5994  0.8621
  969MOL0     H33682   2.849  -0.005   2.264  0.9084 -0.1657 -2.4625
  969MOL0     H33683   2.790   0.099   2.142  1.5989 -0.5807 -0.8389
  969MOL0     H33684   3.116   0.084   2.560 -1.0620  0.9538 -0.3759
  969MOL0     H33685   3.348   0.171   2.583 -1.8539 -0.5495  2.9604
  969MOL0     H33686   3.597   0.429   2.486 -2.6727  2.4906 -0.6159
  969MOL0     H33687   3.544   0.295   2.593 -0.2816  0.4674  0.3394
  969MOL0     H33688   3.442   0.199   2.367  2.1068 -3.3321 -0.7341
  969MOL0     H33689   3.539   0.329   2.283 -1.6847 -0.0204 -1.2286
  969MOL0     H33690   3.672   0.160   2.495 -1.0541 -1.9236  0.1736
  969MOL0     H33691   3.752   0.247   2.386 -0.7703  0.3212  1.0659
  969MOL0     H33692   3.647   0.094   2.192  1.5768 -2.4636 -0.5274
  969MOL0     H33693   3.619  -0.020   2.326  0.5473  0.1908  1.3312
  969MOL0     H33694   3.873   0.010   2.386  0.3801 -2.2929 -0.1851
  969MOL0     H33695   3.843  -0.063   2.236 -0.2601 -0.1154  1.7722
  969MOL0     H33696   3.906   0.238   2.251 -2.4096  1.3443 -2.8883
  969MOL0     H33697   3.854   0.140   2.108 -0.0488 -3.8451 -0.7332
  969MOL0     H33698   4.055   0.001   2.125  0.8086 -1.4329  0.8509
  969MOL0     H33699   4.095   0.069   2.283 -2.7344  0.3656  1.6439
  969MOL0     H33700   4.128   0.295   2.172  3.1102  0.5532 -0.2291
  969MOL0     H33701   4.093   0.225   2.021 -2.9159  2.8477  1.8119
  969MOL0     H33702   3.190   0.568   2.494  2.3971  0.9714  3.6344
  969MOL0     H33703   2.969   0.489   2.496  0.8078  0.4996 -1.8069
  969MOL0     H33704   2.625   0.320   2.578 -0.4081 -1.5875  1.4030
  969MOL0     H33705   2.424   0.219   2.602  0.2738  0.2871 -0.1681
  969MOL0     H33706   0.738   0.502   2.091  0.3212  0.0881 -1.9729
  969MOL0     H33707   0.591   0.390   1.924  0.5394 -0.6504  0.7645
  969MOL0     H33708   0.200   0.346   1.774  0.3257 -1.5404  0.4620
  969MOL0     H33709   0.033   0.225   1.632  0.5304 -0.4466 -0.0499
  969MOL0     H33710  -0.109   0.101   1.432 -1.7379 -0.8987 -0.0942
  969MOL0     H33711  -0.154   0.261   1.507  4.5166  0.1401  1.2936
  969MOL0     H33712  -0.267   0.304   1.283  3.5164  1.3647  2.0910
  969MOL0     H33713  -0.326   0.171   1.380  2.0732 -0.4297 -0.1676
  969MOL0     H33714  -0.131   0.131   1.132 -0.6207 -0.6268  0.1416
  969MOL0     H33715  -0.195   0.008   1.241 -1.5872  0.1370  2.0855
  969MOL0     H33716  -0.422   0.087   1.175  0.8217  0.4529 -0.4500
  969MOL0     H33717  -0.346  -0.011   1.058 -3.4189  0.1979  0.1749
  969MOL0     H33718  -0.411   0.355   0.860 -1.1946 -0.9876  0.4031
  969MOL0     H33719   0.095   0.504   1.312  0.0870  2.5733  1.3678
  969MOL0     H33720   0.228   0.753   1.497 -0.2049 -0.0977  1.9076
  969MOL0     H33721   0.380   0.657   1.462  0.2373 -0.4059 -1.8583
  969MOL0     H33722   0.268   0.676   1.339  3.1410  1.2466  0.6555
  970MOL0     O33723   1.919   5.628   1.985 -0.4770 -0.5070  0.1646
  970MOL0     C33724   1.942   5.644   1.863 -0.0916  0.2221 -0.6242
  970MOL0     O33725   2.069   5.651   1.814  0.2556  0.0568 -0.5546
  970MOL0     C33726   2.180   5.604   1.882 -0.3272 -0.1860 -0.1663
  970MOL0     C33727   2.290   5.586   1.802 -1.0341  0.0712  0.4719
  970MOL0     C33728   2.423   5.558   1.862 -0.1894  0.8907 -0.0576
  970MOL0     C33729   2.427   5.542   2.003 -0.3687 -0.1013 -0.7475
  970MOL0     O33730   2.539   5.500   2.074  0.1367 -0.5557  0.7456
  970MOL0     C33731   2.657   5.485   2.000 -0.0854  0.0748  0.9171
  970MOL0     C33732   2.760   5.431   2.091 -0.0832  0.5880 -0.1619
  970MOL0     C33733   2.904   5.432   2.037 -0.3866 -0.1404  0.0933
  970MOL0     C33734   3.012   5.365   2.124  1.0773 -0.3289  0.2620
  970MOL0     C33735   3.161   5.395   2.069 -0.4797  0.4611 -0.8214
  970MOL0     C33736   3.268   5.357   2.176 -0.5604 -0.3019 -0.1334
  970MOL0     C33737   3.405   5.376   2.112  0.3781 -0.0064 -0.6811
  970MOL0     C33738   3.522   5.356   2.212 -0.0982  0.1497 -0.0413
  970MOL0     N33739   3.660   5.346   2.162  0.6178 -0.2029  0.1038
  970MOL0     C33740   3.704   5.255   2.070  0.1156  0.2588 -0.6227
  970MOL0     C33741   3.832   5.305   2.036  0.1958  0.1704  0.3050
  970MOL0     C33742   3.930   5.258   1.932 -0.5452 -0.3797  0.5445
  970MOL0     C33743   4.069   5.296   1.963 -0.4815  0.0397  0.5751
  970MOL0     C33744   4.167   5.224   1.874 -0.5456  0.8423 -0.0375
  970MOL0     C33745   4.308   5.288   1.893  0.2496  0.5738  0.4725
  970MOL0     O33746   4.316   5.429   1.878  0.5959  0.4395  0.4357
  970MOL0     C33747   4.428   5.496   1.848 -0.1169 -0.8831  0.2450
  970MOL0     C33748   4.414   5.633   1.814 -0.2162 -0.2915  0.7031
  970MOL0     C33749   4.526   5.715   1.790  0.9297  0.1321  0.1604
  970MOL0     C33750   4.496   5.866   1.755  0.7677  0.0089  0.6646
  970MOL0     C33751   4.654   5.668   1.799  0.3347 -0.1202 -0.1869
  970MOL0     C33752   4.786   5.738   1.771  0.9707  0.0119  0.0111
  970MOL0     O33753   4.896   5.657   1.753  0.0348 -0.1789  0.6282
  970MOL0     C33754   5.025   5.695   1.728 -0.1422 -0.2733 -0.2101
  970MOL0     C33755   5.072   5.832   1.705 -0.8591 -0.2467  0.3114
  970MOL0     C33756   5.207   5.859   1.685  0.1466  0.4695  1.4460
  970MOL0     C33757   5.293   5.752   1.701 -0.1160  0.9546  0.8569
  970MOL0     O33758   5.432   5.772   1.681 -0.1066  0.1146 -0.1433
  970MOL0     C33759   5.486   5.890   1.745  0.0454 -0.7090 -0.1914
  970MOL0     C33760   5.636   5.880   1.790  0.2050 -0.7921 -0.0293
  970MOL0     C33761   5.698   6.004   1.854  0.0821  0.7265 -1.0452
  970MOL0     C33762   5.844   5.960   1.876  0.4129  0.6566  0.2613
  970MOL0     C33763   5.916   6.067   1.942 -0.3987 -0.4835 -0.2255
  970MOL0     C33764   5.956   6.181   1.850 -0.2599 -0.1556  0.0509
  970MOL0     C33765   6.039   6.290   1.927  0.1107  0.2563 -0.6526
  970MOL0     C33766   6.083   6.409   1.838 -0.3059 -0.4493 -0.3370
  970MOL0    Cl33767   6.197   6.330   1.717  0.0191 -0.0989 -0.3854
  970MOL0     C33768   5.259   5.627   1.739 -0.2263  0.8295 -0.3303
  970MOL0     C33769   5.122   5.600   1.746 -0.7240  0.1879  0.2273
  970MOL0     O33770   4.789   5.860   1.776 -0.4436 -0.6942 -0.0333
  970MOL0     C33771   4.666   5.529   1.833 -0.4389 -0.9936 -0.2248
  970MOL0     C33772   4.557   5.452   1.872  0.9735 -0.4217  0.5219
  970MOL0     N33773   3.857   5.407   2.120 -0.5829 -0.2527 -0.4935
  970MOL0     N33774   3.756   5.434   2.194 -0.2570 -0.5309 -0.5570
  970MOL0     C33775   2.312   5.541   2.081  0.4075  0.1928  0.0612
  970MOL0     C33776   2.188   5.572   2.023 -0.7460  0.3095  0.6616
  970MOL0     C33777   1.829   5.677   1.768 -0.7201 -0.7592 -0.8160
  970MOL0     C33778   1.853   5.633   1.638  0.5119 -1.1397  0.1489
  970MOL0     C33779   1.748   5.633   1.539  0.2507  0.1219 -0.2622
  970MOL0     C33780   1.619   5.666   1.578 -0.7195  0.4587 -0.1104
  970MOL0     O33781   1.504   5.659   1.496  0.0738  0.1419 -0.0721
  970MOL0     C33782   1.513   5.589   1.365  0.6658  0.1002  0.0149
  970MOL0     C33783   1.365   5.569   1.317  0.2125  0.5466 -0.6131
  970MOL0     C33784   1.277   5.496   1.420 -1.0635  0.1351 -0.4280
  970MOL0     C33785   1.131   5.488   1.376 -0.0016  0.4804  0.0147
  970MOL0     C33786   1.058   5.443   1.493  0.6795  0.0079  0.1835
  970MOL0     C33787   0.999   5.404   1.598 -1.0662 -0.6687 -0.7009
  970MOL0     C33788   1.604   5.723   1.707  0.2413  0.3536 -0.1692
  970MOL0     C33789   1.702   5.733   1.806 -0.1454 -0.4704 -0.0397
  970MOL0     C33790   1.659   5.787   1.938 -0.0593  0.3463 -0.1652
  970MOL0     H33791   2.293   5.608   1.696 -2.7449  0.4380  0.4671
  970MOL0     H33792   2.519   5.556   1.811 -0.3303  2.2271 -0.4319
  970MOL0     H33793   2.679   5.585   1.961 -1.6357  0.5422  1.1893
  970MOL0     H33794   2.643   5.410   1.921 -0.5023 -0.3472  1.3859
  970MOL0     H33795   2.744   5.484   2.186 -2.3433  3.5424 -2.0042
  970MOL0     H33796   2.740   5.327   2.117 -0.0684  1.4138  3.7965
  970MOL0     H33797   2.910   5.371   1.946  1.8646  0.6414 -0.3400
  970MOL0     H33798   2.938   5.533   2.012  1.2340 -1.0182 -1.4981
  970MOL0     H33799   2.982   5.394   2.226 -1.7020 -2.2837  0.1013
  970MOL0     H33800   2.981   5.263   2.103  0.1147  0.7167 -4.4091
  970MOL0     H33801   3.166   5.504   2.056 -2.5095  0.8802  1.2578
  970MOL0     H33802   3.171   5.348   1.971  1.5775 -1.9315  0.4318
  970MOL0     H33803   3.263   5.424   2.261  2.2066  3.4570 -2.6056
  970MOL0     H33804   3.251   5.254   2.209  1.0406 -0.2179  1.0314
  970MOL0     H33805   3.408   5.474   2.062  1.2039 -0.2248 -1.0774
  970MOL0     H33806   3.414   5.300   2.034 -0.3108 -1.5299  0.6957
  970MOL0     H33807   3.519   5.435   2.287 -0.4459 -0.0305  0.1388
  970MOL0     H33808   3.489   5.262   2.258 -1.5030  0.8852  0.5330
  970MOL0     H33809   3.640   5.171   2.047  2.0114 -1.5465  0.3633
  970MOL0     H33810   3.906   5.280   1.828  1.7613 -1.7774 -0.3660
  970MOL0     H33811   3.925   5.148   1.938  2.6096 -0.6119  0.4212
  970MOL0     H33812   4.091   5.403   1.961  0.8726 -0.2351  0.1783
  970MOL0     H33813   4.089   5.261   2.065 -2.2518 -3.7853 -0.2078
  970MOL0     H33814   4.161   5.119   1.906  3.6757  0.4908  0.1768
  970MOL0     H33815   4.131   5.231   1.771 -0.4720  1.3818 -0.0297
  970MOL0     H33816   4.336   5.276   1.998 -1.8374 -3.9830  0.7479
  970MOL0     H33817   4.369   5.225   1.828 -0.8643  0.6801 -0.7095
  970MOL0     H33818   4.310   5.663   1.800 -1.3304 -3.7754  0.3869
  970MOL0     H33819   4.568   5.931   1.806  1.0423 -0.9184  1.4927
  970MOL0     H33820   4.394   5.889   1.788 -0.0443 -1.3693 -0.7336
  970MOL0     H33821   4.495   5.871   1.646 -3.0376 -4.2222  0.1853
  970MOL0     H33822   5.008   5.918   1.695 -2.0415 -1.2543 -1.3176
  970MOL0     H33823   5.247   5.956   1.658 -0.9653  0.6086  0.2179
  970MOL0     H33824   5.464   5.980   1.688 -2.8848  0.4345  2.4607
  970MOL0     H33825   5.428   5.907   1.837 -2.2352 -2.2839 -1.2295
  970MOL0     H33826   5.641   5.800   1.864 -2.6866 -0.7962  0.2831
  970MOL0     H33827   5.689   5.843   1.701 -2.4668 -1.6690 -1.4050
  970MOL0     H33828   5.651   6.032   1.949  1.1129  0.2885 -0.3957
  970MOL0     H33829   5.674   6.088   1.788 -1.1838  2.3016  1.2719
  970MOL0     H33830   5.886   5.952   1.776  0.0203  0.9698  0.0714
  970MOL0     H33831   5.851   5.867   1.933 -1.1372  0.2294 -0.2094
  970MOL0     H33832   5.853   6.095   2.027  0.6667  0.6154  0.2501
  970MOL0     H33833   6.011   6.026   1.979  0.4939  0.4607 -1.3819
  970MOL0     H33834   5.868   6.229   1.807 -0.3750 -1.1027 -0.8012
  970MOL0     H33835   6.012   6.144   1.764 -1.3652  1.4889 -1.4396
  970MOL0     H33836   6.134   6.248   1.962  1.2463  1.6968 -1.8804
  970MOL0     H33837   5.970   6.314   2.009  1.3448 -2.2883  1.2596
  970MOL0     H33838   6.136   6.491   1.888 -1.4953  0.3786 -0.4091
  970MOL0     H33839   5.994   6.447   1.788 -0.0869 -1.0316 -1.1906
  970MOL0     H33840   5.324   5.539   1.743 -0.1642  0.8378 -0.9893
  970MOL0     H33841   5.110   5.494   1.767 -1.6299 -0.1614 -1.9005
  970MOL0     H33842   4.764   5.490   1.858  0.1700  0.3827 -0.3353
  970MOL0     H33843   4.574   5.348   1.897  2.5250  0.3325  2.9532
  970MOL0     H33844   2.316   5.515   2.187  0.5079  0.9379  0.2444
  970MOL0     H33845   2.104   5.573   2.092 -1.0245  0.6060  0.3201
  970MOL0     H33846   1.951   5.604   1.603 -0.4053 -0.5517 -3.2927
  970MOL0     H33847   1.778   5.603   1.439  0.1377 -0.6134 -0.0807
  970MOL0     H33848   1.564   5.657   1.296  0.6427 -1.5918 -1.7260
  970MOL0     H33849   1.564   5.493   1.377 -1.0877 -0.9817 -0.9382
  970MOL0     H33850   1.357   5.503   1.230 -2.1587  1.2422 -0.9731
  970MOL0     H33851   1.323   5.665   1.287 -0.7421 -0.2103 -1.8005
  970MOL0     H33852   1.306   5.397   1.456 -1.9429 -0.5167 -1.4377
  970MOL0     H33853   1.298   5.556   1.509  1.1867  1.7926 -1.9678
  970MOL0     H33854   1.134   5.410   1.298  1.2218 -2.2687  2.5970
  970MOL0     H33855   1.086   5.577   1.331  3.0829  1.8331 -0.6620
  970MOL0     H33856   0.958   5.365   1.690  1.7881  0.7412  1.3441
  970MOL0     H33857   1.500   5.750   1.723 -0.2626 -1.0498 -0.8850
  970MOL0     H33858   1.592   5.872   1.918  0.6376  0.6807 -1.1842
  970MOL0     H33859   1.606   5.719   2.004 -1.0676  2.3163  1.1529
  970MOL0     H33860   1.749   5.824   1.987  0.1831  1.5659 -1.4508
  971MOL0     O33861   3.945  11.252   1.857  0.6337 -0.2069 -0.1198
  971MOL0     C33862   3.926  11.154   1.921 -0.2503  0.0921  0.1977
  971MOL0     O33863   4.014  11.043   1.925  0.4915 -0.5766  0.3846
  971MOL0     C33864   4.143  11.055   1.897 -1.1345  0.0091 -0.2658
  971MOL0     C33865   4.205  10.937   1.854 -0.4964  0.9804  0.1517
  971MOL0     C33866   4.343  10.929   1.832  0.2965 -0.2339  0.8790
  971MOL0     C33867   4.420  11.040   1.865  0.2178  0.9232 -0.5238
  971MOL0     O33868   4.554  11.029   1.838  0.1989 -0.4342 -0.2251
  971MOL0     C33869   4.575  11.024   1.693  0.2393  0.1295  0.8161
  971MOL0     C33870   4.721  11.001   1.677  1.0619  0.3087 -0.1868
  971MOL0     C33871   4.760  10.851   1.693 -0.4840 -0.9659 -0.6185
  971MOL0     C33872   4.908  10.852   1.708 -0.0229  0.0370  0.7391
  971MOL0     C33873   4.958  10.704   1.696  0.1992 -0.1782 -0.0812
  971MOL0     C33874   4.904  10.614   1.803 -0.3862 -0.1247 -0.4252
  971MOL0     C33875   4.965  10.478   1.803  0.4111  0.1646 -0.6712
  971MOL0     C33876   4.921  10.394   1.927  0.0651  0.1621 -0.2579
  971MOL0     N33877   4.963  10.250   1.929  0.2904  0.2819  0.3011
  971MOL0     C33878   5.092  10.209   1.952  0.1425  0.1958  0.1828
  971MOL0     C33879   5.096  10.078   1.907 -0.1882  0.6796 -0.1672
  971MOL0     C33880   5.222   9.998   1.910  0.6336 -0.0242  1.1275
  971MOL0     C33881   5.242   9.905   2.034  0.7048 -0.2653 -0.2232
  971MOL0     C33882   5.359   9.811   2.026 -0.3358  0.2781  0.4928
  971MOL0     C33883   5.383   9.730   1.889  0.2188  0.0100 -0.0173
  971MOL0     O33884   5.495   9.647   1.911  0.4821 -0.7759 -0.3614
  971MOL0     C33885   5.627   9.690   1.878  0.3285  0.4731  1.3171
  971MOL0     C33886   5.660   9.808   1.811 -0.5446  0.0717 -0.6278
  971MOL0     C33887   5.796   9.852   1.780  0.5002 -0.2938 -0.2995
  971MOL0     C33888   5.821   9.989   1.715 -0.2739 -0.0324  0.3790
  971MOL0     C33889   5.899   9.760   1.815 -0.7763 -0.4707  0.6245
  971MOL0     C33890   6.045   9.796   1.811  0.0890  0.2562  0.0554
  971MOL0     O33891   6.127   9.718   1.884 -0.4145 -0.0141  0.0614
  971MOL0     C33892   6.252   9.778   1.909 -0.0340  0.4144  0.1648
  971MOL0     C33893   6.284   9.828   2.038  0.9560  0.7399  0.8042
  971MOL0     C33894   6.411   9.873   2.059 -1.0341  0.2948  0.2413
  971MOL0     C33895   6.515   9.855   1.965  0.1639 -0.0133  0.5725
  971MOL0     O33896   6.646   9.877   2.009  0.1317  0.8503  0.7041
  971MOL0     C33897   6.761   9.837   1.925 -0.1424  0.5315 -0.6453
  971MOL0     C33898   6.889   9.847   2.003 -0.3821 -0.9171  0.1014
  971MOL0     C33899   7.008   9.804   1.918 -0.0380  0.8673 -0.1540
  971MOL0     C33900   7.140   9.876   1.952 -0.0243  0.2417  0.2807
  971MOL0     C33901   7.254   9.836   1.858 -0.4951  0.8968 -0.0817
  971MOL0     C33902   7.393   9.886   1.888 -0.4085 -0.4017  0.2306
  971MOL0     C33903   7.492   9.852   1.775 -0.3804  0.2842  0.5128
  971MOL0     C33904   7.641   9.866   1.812  0.0099 -0.1483 -0.4441
  971MOL0    Cl33905   7.698  10.033   1.802 -0.1566 -0.0667 -0.0333
  971MOL0     C33906   6.481   9.823   1.834  0.2274  0.5753  0.4743
  971MOL0     C33907   6.350   9.796   1.801 -0.4862 -0.2639 -0.5835
  971MOL0     O33908   6.087   9.891   1.741 -0.5714 -0.5527  0.0870
  971MOL0     C33909   5.860   9.644   1.885 -0.2238 -0.1990  0.2083
  971MOL0     C33910   5.732   9.607   1.915  0.0342 -0.4216  0.3985
  971MOL0     N33911   4.968  10.043   1.856 -0.4474 -0.1098 -0.7781
  971MOL0     N33912   4.887  10.144   1.875 -0.1623 -0.8110 -0.2045
  971MOL0     C33913   4.362  11.160   1.911 -0.1196 -1.0713 -0.3569
  971MOL0     C33914   4.224  11.166   1.929  0.0807  0.2043  1.6371
  971MOL0     C33915   3.794  11.129   1.979 -0.6709 -0.2229 -0.4993
  971MOL0     C33916   3.778  11.030   2.088  0.3453 -0.0313  0.7225
  971MOL0     C33917   3.655  11.019   2.159 -0.6395  0.3014 -0.5213
  971MOL0     C33918   3.543  11.096   2.124  0.4217  0.4262  0.8682
  971MOL0     O33919   3.426  11.081   2.189  0.4162  0.8136 -0.0624
  971MOL0     C33920   3.342  11.197   2.224 -0.3074  0.7613 -0.3140
  971MOL0     C33921   3.213  11.205   2.143 -0.3118 -0.2261  0.0009
  971MOL0     C33922   3.119  11.319   2.189  0.2585  0.3380  0.4395
  971MOL0     C33923   3.198  11.454   2.193  0.1062  0.1259  0.9320
  971MOL0     C33924   3.236  11.495   2.055 -0.0906 -0.6140  1.0765
  971MOL0     C33925   3.260  11.539   1.945  0.7732 -0.3097  0.2265
  971MOL0     C33926   3.551  11.177   2.012  0.2315 -0.2833 -0.3577
  971MOL0     C33927   3.674  11.208   1.953  0.4452  0.2040  0.0041
  971MOL0     C33928   3.672  11.326   1.854 -0.0543 -0.8916 -1.0692
  971MOL0     H33929   4.153  10.843   1.839 -0.0183  1.1291 -3.1814
  971MOL0     H33930   4.394  10.836   1.810  1.7682 -0.0195  3.0093
  971MOL0     H33931   4.545  11.119   1.648 -1.7526 -0.6559  0.3818
  971MOL0     H33932   4.533  10.941   1.636  4.0309 -0.8176 -0.9307
  971MOL0     H33933   4.751  11.033   1.578 -1.2712 -0.0285 -1.0760
  971MOL0     H33934   4.782  11.059   1.747 -1.8610  1.4164  1.6842
  971MOL0     H33935   4.722  10.804   1.784  1.0186 -2.6695 -0.8089
  971MOL0     H33936   4.729  10.789   1.608  3.3950 -1.8455 -1.5744
  971MOL0     H33937   4.961  10.915   1.636  0.4447  2.4124  3.0081
  971MOL0     H33938   4.937  10.894   1.805  0.3163  0.9311  0.2605
  971MOL0     H33939   5.067  10.699   1.701  0.2044  0.7924  2.6236
  971MOL0     H33940   4.917  10.660   1.604 -1.8056  0.7764  0.3051
  971MOL0     H33941   4.918  10.665   1.899  0.7459  2.5899 -1.9122
  971MOL0     H33942   4.796  10.605   1.789 -0.1755  0.3749 -2.8471
  971MOL0     H33943   5.073  10.488   1.806  0.4963 -0.9059  1.2061
  971MOL0     H33944   4.920  10.434   1.713  0.0729 -0.0993 -0.3758
  971MOL0     H33945   4.962  10.448   2.013 -0.3357  1.2493 -0.7307
  971MOL0     H33946   4.812  10.395   1.926  0.0293  0.8538  1.5779
  971MOL0     H33947   5.170  10.266   2.001 -1.9086  3.9342 -0.4884
  971MOL0     H33948   5.305  10.066   1.894 -1.0325  2.4953  2.4312
  971MOL0     H33949   5.213   9.928   1.826 -2.5105  0.4286  0.9671
  971MOL0     H33950   5.254   9.974   2.118  2.1716 -0.3221 -0.3655
  971MOL0     H33951   5.151   9.845   2.044  1.6442 -1.5518  1.1313
  971MOL0     H33952   5.452   9.864   2.048 -0.7013  0.3861  1.9040
  971MOL0     H33953   5.354   9.737   2.107  4.3999 -1.2941 -0.3658
  971MOL0     H33954   5.293   9.669   1.880 -0.6804  0.8488  2.2553
  971MOL0     H33955   5.389   9.793   1.800 -1.3971 -1.9728 -1.6098
  971MOL0     H33956   5.587   9.881   1.777  0.1903  0.4184 -1.5190
  971MOL0     H33957   5.865   9.973   1.616  1.1701  1.7335  0.6856
  971MOL0     H33958   5.895  10.045   1.772 -0.5010  0.1869  0.4582
  971MOL0     H33959   5.725  10.040   1.714 -1.3631 -1.8710  2.1251
  971MOL0     H33960   6.197   9.847   2.101 -0.6151 -1.1895 -0.6489
  971MOL0     H33961   6.431   9.896   2.163 -1.8813 -2.5169  1.1165
  971MOL0     H33962   6.751   9.735   1.888  1.4566  0.8591 -2.1105
  971MOL0     H33963   6.765   9.896   1.833 -0.3353 -1.2011 -1.8113
  971MOL0     H33964   6.906   9.945   2.048  0.0894 -1.2340  0.6154
  971MOL0     H33965   6.878   9.779   2.087  3.7269 -0.2722  1.3573
  971MOL0     H33966   6.991   9.825   1.812  2.3342 -0.2084 -0.8043
  971MOL0     H33967   7.020   9.696   1.928 -1.0052  0.8483  1.0945
  971MOL0     H33968   7.172   9.847   2.052  0.0907 -0.5960  0.0050
  971MOL0     H33969   7.128   9.984   1.943 -0.3330  0.2157  0.3472
  971MOL0     H33970   7.251   9.728   1.875 -1.5735  1.2667  2.5788
  971MOL0     H33971   7.229   9.871   1.757  1.1439  1.6020 -0.2856
  971MOL0     H33972   7.442   9.843   1.975  2.2849 -0.2456 -1.1242
  971MOL0     H33973   7.385   9.995   1.901 -2.1660 -0.7831  3.6452
  971MOL0     H33974   7.468   9.920   1.694 -1.8141 -1.0784 -0.2486
  971MOL0     H33975   7.483   9.751   1.733 -0.0340  0.7073 -0.5848
  971MOL0     H33976   7.703   9.798   1.754 -0.7766 -2.1207  0.9254
  971MOL0     H33977   7.650   9.839   1.917  0.1744  0.4388 -0.2996
  971MOL0     H33978   6.565   9.823   1.765 -0.2274 -2.6061 -0.2107
  971MOL0     H33979   6.321   9.763   1.701  0.0923  0.6811 -1.0799
  971MOL0     H33980   5.941   9.587   1.931  0.6095  2.6831  2.6607
  971MOL0     H33981   5.715   9.518   1.975 -0.9463  0.5363  1.6074
  971MOL0     H33982   4.429  11.238   1.945 -2.0507  0.2626  0.6196
  971MOL0     H33983   4.171  11.247   1.977  2.1374  1.7721  1.4270
  971MOL0     H33984   3.858  10.968   2.125  0.1776 -0.4040  0.4622
  971MOL0     H33985   3.637  10.952   2.242 -2.1751  0.3354 -0.8013
  971MOL0     H33986   3.327  11.196   2.332  0.7295  1.5676 -0.1522
  971MOL0     H33987   3.397  11.291   2.215 -2.4173  2.0221 -0.7320
  971MOL0     H33988   3.162  11.110   2.162 -1.3686  0.2214 -0.5385
  971MOL0     H33989   3.234  11.218   2.037  1.4319  2.2402  0.5537
  971MOL0     H33990   3.023  11.336   2.141 -1.1457 -0.3698  2.7845
  971MOL0     H33991   3.087  11.286   2.289  0.2677 -0.4125  0.2069
  971MOL0     H33992   3.281  11.452   2.264  1.6509 -1.5150 -0.8070
  971MOL0     H33993   3.127  11.530   2.228 -2.9827 -1.5353 -1.2256
  971MOL0     H33994   3.271  11.571   1.843  1.6315 -2.2851 -0.3598
  971MOL0     H33995   3.466  11.235   1.978  0.9884  1.0977  0.0000
  971MOL0     H33996   3.582  11.389   1.861  1.4012  1.1738  0.1652
  971MOL0     H33997   3.749  11.395   1.890 -0.0038 -1.0185 -0.9357
  971MOL0     H33998   3.701  11.308   1.751  3.4217  1.1145 -0.5885
  972MOL0     O33999  11.337   8.751   0.888  0.4628 -0.0111 -0.1582
  972MOL0     C34000  11.297   8.842   0.807 -0.1098 -0.6907 -0.4059
  972MOL0     O34001  11.368   8.880   0.697  0.0573  0.9128  0.0738
  972MOL0     C34002  11.492   8.833   0.663 -0.2518 -0.0825 -0.0482
  972MOL0     C34003  11.510   8.793   0.530  0.1684  0.8655 -0.2741
  972MOL0     C34004  11.632   8.738   0.498  0.2388  0.3993  0.3023
  972MOL0     C34005  11.725   8.718   0.605  0.4492  0.1709 -0.4831
  972MOL0     O34006  11.843   8.675   0.561 -0.0051 -0.2945 -0.0506
  972MOL0     C34007  11.938   8.779   0.598  0.1599 -0.9114  0.5354
  972MOL0     C34008  12.060   8.770   0.513 -0.9842  0.1029 -0.4939
  972MOL0     C34009  12.136   8.639   0.546 -0.4097  0.4023 -0.0718
  972MOL0     C34010  12.249   8.613   0.445 -0.3306 -0.1242  0.5600
  972MOL0     C34011  12.387   8.674   0.452 -0.1055 -0.4504 -0.2201
  972MOL0     C34012  12.384   8.828   0.448  0.1532  0.0412 -0.1001
  972MOL0     C34013  12.523   8.880   0.403  0.7421 -0.1056 -0.0322
  972MOL0     C34014  12.539   8.871   0.250  1.0054 -1.2186 -0.5539
  972MOL0     N34015  12.677   8.910   0.221  0.2804 -0.2436  0.1095
  972MOL0     C34016  12.751   9.018   0.262  0.5887  0.6839 -0.4109
  972MOL0     C34017  12.873   8.998   0.223 -0.2356 -0.3968  0.3121
  972MOL0     C34018  12.987   9.090   0.258  0.2925 -0.5655 -1.3158
  972MOL0     C34019  13.076   9.121   0.130 -0.3936 -1.0513 -0.1697
  972MOL0     C34020  13.216   9.188   0.158  0.7194  0.0877  0.2134
  972MOL0     C34021  13.310   9.089   0.214 -0.1764  0.6876 -0.3915
  972MOL0     O34022  13.420   9.164   0.255 -0.5762  0.7097 -0.2449
  972MOL0     C34023  13.532   9.094   0.301  0.7136  0.6873  0.6762
  972MOL0     C34024  13.538   8.956   0.329 -0.7307  0.2453  0.2726
  972MOL0     C34025  13.653   8.897   0.382  0.7002 -0.4807 -0.0119
  972MOL0     C34026  13.646   8.745   0.409  0.0242 -0.0816 -0.7815
  972MOL0     C34027  13.764   8.973   0.404 -0.1798 -1.0334 -0.8334
  972MOL0     C34028  13.908   8.932   0.446  1.3315 -0.4063 -0.0133
  972MOL0     O34029  13.918   8.802   0.491  0.4913  0.7793 -0.5910
  972MOL0     C34030  14.034   8.730   0.506 -0.1356 -0.2008  0.3236
  972MOL0     C34031  14.147   8.793   0.555  0.2721 -0.5750  0.2071
  972MOL0     C34032  14.262   8.716   0.580  1.7124  0.2031 -0.0847
  972MOL0     C34033  14.263   8.574   0.564  0.7609 -0.1774  0.1587
  972MOL0     O34034  14.371   8.495   0.598 -0.3918 -0.0486 -1.0143
  972MOL0     C34035  14.470   8.538   0.689  0.2197  0.0669  0.4523
  972MOL0     C34036  14.552   8.419   0.744 -1.0940  0.4577  0.6987
  972MOL0     C34037  14.661   8.486   0.819 -0.0813  0.0809 -0.3485
  972MOL0     C34038  14.773   8.390   0.864 -0.1886  0.1376 -0.2899
  972MOL0     C34039  14.843   8.316   0.752 -0.6598 -0.1523  0.2050
  972MOL0     C34040  14.885   8.423   0.653  0.1061  0.0906 -0.1969
  972MOL0     C34041  14.992   8.368   0.554  0.1276 -0.2651  0.2622
  972MOL0     C34042  15.029   8.485   0.468 -0.7574  0.1977  0.0433
  972MOL0    Cl34043  15.158   8.432   0.366 -0.1387 -0.2105  0.5168
  972MOL0     C34044  14.151   8.509   0.517 -0.0025  0.5192 -0.7590
  972MOL0     C34045  14.037   8.586   0.489 -0.6762  0.2693  0.3144
  972MOL0     O34046  13.995   9.006   0.419 -0.3205 -0.1053  0.1272
  972MOL0     C34047  13.751   9.115   0.385  0.2235  0.8944  0.5542
  972MOL0     C34048  13.638   9.171   0.339  0.2140 -0.0850 -0.5169
  972MOL0     N34049  12.884   8.877   0.158  0.2939 -0.3430 -0.3737
  972MOL0     N34050  12.757   8.822   0.158 -0.6690  0.0711 -0.8578
  972MOL0     C34051  11.703   8.752   0.740 -0.4592  0.1109 -0.2438
  972MOL0     C34052  11.590   8.818   0.768  0.1610  0.8586 -0.0354
  972MOL0     C34053  11.163   8.898   0.820 -0.2631  0.3328 -0.5115
  972MOL0     C34054  11.105   8.947   0.707 -0.7237 -0.8328  0.1038
  972MOL0     C34055  10.986   9.027   0.703  0.0758 -0.4294 -0.6673
  972MOL0     C34056  10.926   9.059   0.831 -0.2053  0.4276 -0.1300
  972MOL0     O34057  10.823   9.145   0.841 -0.6950 -0.1793 -0.1087
  972MOL0     C34058  10.785   9.233   0.731  0.0695 -0.0152  0.7912
  972MOL0     C34059  10.669   9.184   0.638  0.5785 -0.3003  0.2126
  972MOL0     C34060  10.555   9.140   0.725 -0.2562 -0.4049  0.0879
  972MOL0     C34061  10.429   9.110   0.650  0.5735 -0.8807 -0.3805
  972MOL0     C34062  10.295   9.121   0.710  0.3473  0.9956  0.4888
  972MOL0     C34063  10.182   9.117   0.749  0.6041 -0.1158  0.8126
  972MOL0     C34064  10.991   9.012   0.951  0.8870 -0.3619  0.4349
  972MOL0     C34065  11.102   8.928   0.943 -0.1381 -0.2327  0.1382
  972MOL0     C34066  11.163   8.914   1.080 -0.5541  0.1811 -0.0078
  972MOL0     H34067  11.420   8.807   0.472 -1.2623 -0.0034  1.6550
  972MOL0     H34068  11.649   8.701   0.397 -1.8203  3.5091 -1.3488
  972MOL0     H34069  11.978   8.794   0.699 -1.1538 -1.5385  1.1800
  972MOL0     H34070  11.896   8.873   0.561 -1.4086 -2.4866 -2.0079
  972MOL0     H34071  12.017   8.766   0.412 -4.2956  0.1224  0.7889
  972MOL0     H34072  12.114   8.865   0.517 -0.9024  0.0885 -1.0952
  972MOL0     H34073  12.176   8.638   0.648 -0.4660  0.8153 -0.0416
  972MOL0     H34074  12.062   8.560   0.558  0.7137 -0.4462  1.6953
  972MOL0     H34075  12.269   8.506   0.447  0.9587  0.1040  0.9885
  972MOL0     H34076  12.214   8.645   0.346 -1.4712  0.9212  1.2745
  972MOL0     H34077  12.443   8.636   0.366 -1.0545  1.2363 -1.6563
  972MOL0     H34078  12.441   8.640   0.541  2.5083 -2.4669 -2.4008
  972MOL0     H34079  12.300   8.865   0.389 -0.7163 -3.3127 -1.2438
  972MOL0     H34080  12.365   8.861   0.550  0.5620 -0.9314  0.3122
  972MOL0     H34081  12.603   8.820   0.448  0.8897 -1.3543 -1.8640
  972MOL0     H34082  12.538   8.984   0.435  0.5098 -0.1979  0.3805
  972MOL0     H34083  12.527   8.770   0.210  0.5876 -0.3975 -2.6294
  972MOL0     H34084  12.464   8.938   0.207  1.2733 -0.3415  0.3114
  972MOL0     H34085  12.707   9.094   0.326 -1.0985  1.0054 -1.8843
  972MOL0     H34086  13.045   9.037   0.335  1.6296  1.5470 -0.8022
  972MOL0     H34087  12.943   9.185   0.288 -0.5144 -0.0207 -4.0457
  972MOL0     H34088  13.086   9.034   0.064  0.2919 -0.1091 -1.3681
  972MOL0     H34089  13.015   9.190   0.071 -0.8312  0.2358  1.7021
  972MOL0     H34090  13.265   9.231   0.070  1.9067  0.0261  0.8159
  972MOL0     H34091  13.202   9.278   0.219 -0.6652  2.5794 -3.4352
  972MOL0     H34092  13.286   9.037   0.308  1.6150  1.9273  0.8398
  972MOL0     H34093  13.333   9.013   0.139  0.1961 -0.6832  1.0339
  972MOL0     H34094  13.464   8.881   0.305 -0.9193  0.3331  0.5740
  972MOL0     H34095  13.646   8.731   0.517 -0.8757 -0.4880 -0.8261
  972MOL0     H34096  13.732   8.691   0.366 -1.6483 -3.0576 -0.6313
  972MOL0     H34097  13.551   8.702   0.375 -0.4512  1.7826 -1.9675
  972MOL0     H34098  14.161   8.898   0.579 -2.5151 -0.1922  0.4563
  972MOL0     H34099  14.354   8.766   0.610  1.5699  0.4003  0.0286
  972MOL0     H34100  14.532   8.612   0.636 -0.2172  3.2924  3.9860
  972MOL0     H34101  14.428   8.594   0.774  1.4177 -0.7555  1.6331
  972MOL0     H34102  14.484   8.356   0.802 -2.0529  1.0694  0.2616
  972MOL0     H34103  14.584   8.357   0.660 -1.2982  2.2452 -0.7412
  972MOL0     H34104  14.619   8.519   0.915  0.5226 -2.1490  0.7499
  972MOL0     H34105  14.711   8.572   0.775 -0.9259  1.3318  1.0197
  972MOL0     H34106  14.734   8.304   0.920  1.2105  0.8105  1.8582
  972MOL0     H34107  14.841   8.446   0.928  0.3371 -0.4984 -0.2812
  972MOL0     H34108  14.934   8.272   0.792  0.0991  2.7527  1.9401
  972MOL0     H34109  14.775   8.240   0.710 -0.4025  0.3853 -1.2515
  972MOL0     H34110  14.931   8.507   0.705 -0.5129 -0.0733  0.6418
  972MOL0     H34111  14.800   8.453   0.591 -1.5012 -0.1745  1.7535
  972MOL0     H34112  14.954   8.300   0.477 -1.0569  1.2548 -0.5494
  972MOL0     H34113  15.079   8.331   0.608 -0.8108  1.9041  3.5840
  972MOL0     H34114  15.056   8.566   0.536  0.1487  2.0493 -2.3444
  972MOL0     H34115  14.946   8.523   0.409 -1.6476  0.4686  1.4304
  972MOL0     H34116  14.142   8.402   0.501 -3.5770  0.5647  0.1018
  972MOL0     H34117  13.944   8.538   0.459 -0.9392  1.2359 -0.5039
  972MOL0     H34118  13.840   9.178   0.393 -0.9628  3.0911 -2.0847
  972MOL0     H34119  13.642   9.277   0.320 -0.3216  0.1851  0.7450
  972MOL0     H34120  11.782   8.740   0.814 -0.4579  2.0746  0.1317
  972MOL0     H34121  11.559   8.844   0.868 -1.8832 -0.7726 -0.1693
  972MOL0     H34122  11.159   8.938   0.613  2.1660 -1.5013  1.7213
  972MOL0     H34123  10.931   9.058   0.614  1.7062  2.2085 -0.8705
  972MOL0     H34124  10.752   9.331   0.766 -1.0556  0.7655 -2.1766
  972MOL0     H34125  10.865   9.251   0.659 -0.0065 -3.2313 -0.2660
  972MOL0     H34126  10.714   9.109   0.574  1.2050  2.1765 -2.4597
  972MOL0     H34127  10.636   9.270   0.579  0.6963 -0.8680 -0.6841
  972MOL0     H34128  10.594   9.068   0.798 -1.1139  0.7061  1.6969
  972MOL0     H34129  10.537   9.231   0.781  2.1545  2.0268 -2.7505
  972MOL0     H34130  10.444   9.011   0.606  0.2285 -0.6587 -1.0219
  972MOL0     H34131  10.424   9.183   0.568  2.4293 -1.1686 -0.7912
  972MOL0     H34132  10.078   9.129   0.774 -0.3286 -2.1777 -1.5546
  972MOL0     H34133  10.956   9.044   1.048 -0.9776  2.5606 -1.0607
  972MOL0     H34134  11.272   8.927   1.082 -0.1454 -2.4779 -1.0305
  972MOL0     H34135  11.118   8.968   1.164 -1.6570 -2.3265  1.1300
  972MOL0     H34136  11.161   8.811   1.118  0.5128  0.9511  2.3547
  973MOL0     O34137   6.387   7.201   4.284 -0.0690  0.0019 -0.5348
  973MOL0     C34138   6.328   7.100   4.242 -0.4784  0.2628  0.9213
  973MOL0     O34139   6.389   6.988   4.192  0.1600  0.5099 -0.2843
  973MOL0     C34140   6.522   7.003   4.151 -0.5986 -0.2805 -0.5228
  973MOL0     C34141   6.550   6.987   4.019  0.0830  0.2724 -0.1776
  973MOL0     C34142   6.676   6.989   3.961 -0.1579 -0.5679  0.6589
  973MOL0     C34143   6.783   7.026   4.044  0.5707  0.7393 -0.3819
  973MOL0     O34144   6.912   7.026   3.994  0.7130  0.2982 -0.0106
  973MOL0     C34145   6.945   6.916   3.904  0.5277  0.3746  0.0263
  973MOL0     C34146   7.098   6.915   3.882 -0.3097  0.3223 -1.0338
  973MOL0     C34147   7.170   7.046   3.842  0.0922  0.4071 -1.1142
  973MOL0     C34148   7.310   7.020   3.785  0.4469 -0.1411 -0.8079
  973MOL0     C34149   7.391   6.900   3.856  0.4545 -0.5300 -1.4454
  973MOL0     C34150   7.443   6.942   4.000  0.2073 -1.1394  0.6691
  973MOL0     C34151   7.541   6.838   4.058 -0.4735 -0.1468 -0.2848
  973MOL0     C34152   7.502   6.689   4.047 -0.1654 -0.1081 -0.1037
  973MOL0     N34153   7.537   6.605   4.169 -0.5595  0.1912  0.4409
  973MOL0     C34154   7.469   6.584   4.292 -0.8665  0.6692  0.0129
  973MOL0     C34155   7.524   6.475   4.347 -1.0804 -0.1629  0.4491
  973MOL0     C34156   7.470   6.423   4.484 -0.3434 -0.4023  0.3578
  973MOL0     C34157   7.476   6.521   4.597  1.1611 -0.2222 -0.5458
  973MOL0     C34158   7.487   6.456   4.730 -0.1389  0.3377  0.3692
  973MOL0     C34159   7.523   6.551   4.838  0.1670 -0.6104 -0.5854
  973MOL0     O34160   7.510   6.502   4.971 -0.9159 -0.0945  0.2325
  973MOL0     C34161   7.386   6.495   5.039 -0.0633 -0.2989  0.1736
  973MOL0     C34162   7.397   6.437   5.168 -0.4406 -0.1944 -0.0431
  973MOL0     C34163   7.286   6.434   5.254 -0.2414  0.1759 -0.7366
  973MOL0     C34164   7.309   6.374   5.396 -0.7958  0.0539  0.0468
  973MOL0     C34165   7.155   6.471   5.196  0.2576  0.8157 -0.4859
  973MOL0     C34166   7.026   6.442   5.270 -0.7423 -0.6499 -0.7927
  973MOL0     O34167   6.917   6.494   5.213 -0.0643  0.5102  0.3022
  973MOL0     C34168   6.802   6.464   5.280 -0.0722  1.0624 -0.0566
  973MOL0     C34169   6.757   6.335   5.260  0.5907 -0.0101 -0.1553
  973MOL0     C34170   6.655   6.273   5.339 -0.1338 -0.0365  0.7407
  973MOL0     C34171   6.583   6.351   5.430  0.5137  0.2108  0.5856
  973MOL0     O34172   6.475   6.294   5.491  0.0120  0.4076  0.2677
  973MOL0     C34173   6.505   6.257   5.622  0.8228  1.0237 -0.3415
  973MOL0     C34174   6.373   6.189   5.663 -0.7444 -0.9874  0.5082
  973MOL0     C34175   6.380   6.150   5.809  0.0517  1.8156 -0.0924
  973MOL0     C34176   6.372   6.271   5.908 -0.1092  0.1429  0.5864
  973MOL0     C34177   6.246   6.358   5.895  0.2096  0.2434 -0.4768
  973MOL0     C34178   6.119   6.275   5.881  0.0824  0.7604  0.4030
  973MOL0     C34179   5.994   6.349   5.919 -0.8635 -0.6790 -0.3702
  973MOL0     C34180   5.971   6.376   6.064  0.4811 -0.5299 -0.5478
  973MOL0    Cl34181   5.823   6.466   6.057  0.3460  0.1287  0.0159
  973MOL0     C34182   6.624   6.483   5.447  0.4302 -0.3618 -0.5321
  973MOL0     C34183   6.736   6.539   5.379  0.3526  0.6122  0.8866
  973MOL0     O34184   7.036   6.401   5.387 -0.1721 -0.4350  1.0614
  973MOL0     C34185   7.144   6.509   5.065 -0.6588 -0.6561  0.3185
  973MOL0     C34186   7.259   6.522   4.981  0.5010 -0.4272  0.3558
  973MOL0     N34187   7.629   6.427   4.268  0.3174  0.0208 -0.1651
  973MOL0     N34188   7.640   6.511   4.171 -0.4329 -0.5502 -0.0025
  973MOL0     C34189   6.758   7.046   4.185 -0.2069 -1.2969  0.0277
  973MOL0     C34190   6.630   7.025   4.238  0.3744 -0.3672  0.6177
  973MOL0     C34191   6.175   7.101   4.269 -0.5275 -0.5032  0.4098
  973MOL0     C34192   6.119   7.220   4.320 -0.1301 -0.0389 -0.0717
  973MOL0     C34193   5.983   7.241   4.355  0.2487 -0.4435  0.0610
  973MOL0     C34194   5.904   7.120   4.337 -0.3998  0.2773 -0.4815
  973MOL0     O34195   5.779   7.143   4.384  0.3063  0.3900  0.1554
  973MOL0     C34196   5.694   7.024   4.398 -0.7452  0.4153 -0.0633
  973MOL0     C34197   5.570   7.045   4.471  0.5001 -0.4307 -0.0491
  973MOL0     C34198   5.493   6.907   4.464  0.1757  0.2959  0.1371
  973MOL0     C34199   5.343   6.926   4.486 -0.0784  0.0481 -0.7552
  973MOL0     C34200   5.264   6.800   4.512 -0.6652 -0.7294 -0.6997
  973MOL0     C34201   5.208   6.693   4.514  0.0202 -1.1346  0.0723
  973MOL0     C34202   5.957   7.005   4.274 -0.0028  0.4988  0.4955
  973MOL0     C34203   6.092   6.997   4.239  0.4027 -0.5783  0.6022
  973MOL0     C34204   6.146   6.869   4.173  0.1067 -0.0987 -1.2620
  973MOL0     H34205   6.474   6.958   3.947  0.2442 -1.8135  0.4223
  973MOL0     H34206   6.682   6.954   3.858 -2.1896 -2.5966  1.1459
  973MOL0     H34207   6.898   6.951   3.812  0.3237  1.7119  0.6163
  973MOL0     H34208   6.899   6.822   3.937 -0.7972  1.0573  0.1969
  973MOL0     H34209   7.155   6.885   3.971 -2.3437  2.1868  1.0368
  973MOL0     H34210   7.119   6.835   3.810 -2.0300 -0.8627 -0.2960
  973MOL0     H34211   7.112   7.104   3.770 -1.6537  0.1871  0.0511
  973MOL0     H34212   7.188   7.106   3.932  0.7874 -0.7545 -0.4411
  973MOL0     H34213   7.298   6.989   3.680  1.7100 -1.3583 -0.6079
  973MOL0     H34214   7.373   7.109   3.782 -1.9871  1.6787 -0.9639
  973MOL0     H34215   7.478   6.874   3.795  0.8427  2.1233 -2.1369
  973MOL0     H34216   7.331   6.809   3.859  1.2333 -1.0970 -2.5394
  973MOL0     H34217   7.487   7.041   3.985 -1.6121 -0.2597  0.8872
  973MOL0     H34218   7.370   6.954   4.080 -0.0416 -0.1170  0.2948
  973MOL0     H34219   7.557   6.858   4.165  0.4572  1.0401 -0.6194
  973MOL0     H34220   7.635   6.853   4.004 -1.4328 -1.4032 -2.3847
  973MOL0     H34221   7.393   6.681   4.035 -0.2187 -2.6658  1.4021
  973MOL0     H34222   7.554   6.649   3.960  1.1353  2.0782 -0.4114
  973MOL0     H34223   7.392   6.645   4.338 -0.0455 -0.3695  2.9346
  973MOL0     H34224   7.520   6.329   4.508 -0.5415 -0.2719  1.3122
  973MOL0     H34225   7.363   6.408   4.469 -0.9350  3.6185 -0.6689
  973MOL0     H34226   7.556   6.595   4.585  0.8751  0.2023  0.1219
  973MOL0     H34227   7.379   6.571   4.593  1.5621  0.5275 -1.2293
  973MOL0     H34228   7.391   6.406   4.748  1.1418 -1.8414  1.5149
  973MOL0     H34229   7.567   6.383   4.717 -1.4007 -0.8683 -0.8828
  973MOL0     H34230   7.625   6.588   4.826  1.0138 -2.4749  0.4403
  973MOL0     H34231   7.460   6.640   4.824 -0.2574 -0.3173  2.4888
  973MOL0     H34232   7.496   6.398   5.190  0.0245  0.7548 -0.3988
  973MOL0     H34233   7.257   6.278   5.397  0.0790 -0.5178 -2.1986
  973MOL0     H34234   7.275   6.441   5.475 -0.0091  0.1304  0.3385
  973MOL0     H34235   7.415   6.363   5.424 -0.4783  1.3047 -0.6164
  973MOL0     H34236   6.793   6.273   5.179 -2.1076  0.6566 -2.0032
  973MOL0     H34237   6.626   6.173   5.309 -1.4198  0.9555 -1.5741
  973MOL0     H34238   6.587   6.186   5.637 -0.1876 -0.1499 -0.2468
  973MOL0     H34239   6.521   6.351   5.677  2.1331  0.3357  0.5210
  973MOL0     H34240   6.284   6.252   5.655 -0.4655 -0.4362  1.5677
  973MOL0     H34241   6.355   6.108   5.592 -0.0672 -1.5568  0.9741
  973MOL0     H34242   6.477   6.103   5.823 -1.2809 -2.1558 -2.5597
  973MOL0     H34243   6.304   6.072   5.825 -0.3913  1.5216 -3.0242
  973MOL0     H34244   6.464   6.330   5.904 -1.0656  1.6561 -0.1154
  973MOL0     H34245   6.375   6.228   6.008  0.6038 -0.9886  0.0962
  973MOL0     H34246   6.247   6.413   5.990 -1.2305 -0.6494  0.0843
  973MOL0     H34247   6.253   6.437   5.820 -0.8632  0.3734 -0.4551
  973MOL0     H34248   6.137   6.199   5.958  1.9137  3.1869  2.5561
  973MOL0     H34249   6.106   6.228   5.783  0.7948  0.9876  0.1978
  973MOL0     H34250   5.914   6.289   5.875 -0.9555  0.5484 -2.0040
  973MOL0     H34251   6.005   6.445   5.867  0.3312  0.5422  1.9727
  973MOL0     H34252   6.048   6.432   6.117 -0.3191 -0.8241  0.9617
  973MOL0     H34253   5.964   6.284   6.123  1.4356  0.6074  1.4299
  973MOL0     H34254   6.557   6.534   5.515 -2.3142 -3.8369 -0.3313
  973MOL0     H34255   6.759   6.642   5.402  1.5895 -0.1490  3.4523
  973MOL0     H34256   7.055   6.540   5.011 -0.2904 -1.9738 -1.1317
  973MOL0     H34257   7.247   6.554   4.878 -3.7593  1.9559  1.3513
  973MOL0     H34258   6.840   7.073   4.251 -0.2829 -0.1557 -0.3221
  973MOL0     H34259   6.624   7.044   4.345  2.3307 -1.2982  0.9554
  973MOL0     H34260   6.179   7.310   4.316 -1.1337  0.6427 -3.7755
  973MOL0     H34261   5.940   7.337   4.381 -1.1940 -1.0052 -0.1667
  973MOL0     H34262   5.681   6.991   4.294 -0.0404  0.7734 -0.2734
  973MOL0     H34263   5.749   6.946   4.451 -0.8491 -0.6660 -1.4757
  973MOL0     H34264   5.508   7.126   4.434  1.4958  0.3772 -0.0020
  973MOL0     H34265   5.595   7.066   4.575 -0.4589  0.1750  0.0618
  973MOL0     H34266   5.511   6.865   4.365  1.9134  0.8844  0.1568
  973MOL0     H34267   5.533   6.826   4.526  0.6282 -0.6075 -1.2861
  973MOL0     H34268   5.294   6.962   4.395 -2.7055  1.5625  1.1086
  973MOL0     H34269   5.326   7.000   4.565  0.5995 -1.9624  1.3934
  973MOL0     H34270   5.162   6.597   4.502 -2.3018 -0.1358  0.4393
  973MOL0     H34271   5.882   6.930   4.253 -0.7947  1.2985  0.3836
  973MOL0     H34272   6.058   6.816   4.135  0.2933 -1.0128 -0.4409
  973MOL0     H34273   6.200   6.896   4.082 -0.1977  0.6175 -1.2433
  973MOL0     H34274   6.208   6.820   4.248 -1.9230  0.6260  1.0378
  974MOL0     O34275   6.335   6.977   5.065  0.5258 -0.5201  0.6514
  974MOL0     C34276   6.312   6.860   5.074 -1.2588  0.3571 -0.1150
  974MOL0     O34277   6.408   6.761   5.044 -0.1510  0.6058  0.0431
  974MOL0     C34278   6.538   6.802   5.044  0.2140  0.5634  0.7598
  974MOL0     C34279   6.615   6.786   5.159 -0.3424  0.5339  0.3731
  974MOL0     C34280   6.752   6.812   5.150 -0.0141 -0.2221 -0.6514
  974MOL0     C34281   6.813   6.871   5.041 -0.2229  0.5938 -0.5208
  974MOL0     O34282   6.951   6.896   5.023  0.0780  0.5643  0.1812
  974MOL0     C34283   7.029   6.874   5.133  0.1399 -0.0950 -0.2793
  974MOL0     C34284   7.175   6.904   5.093 -0.3319 -0.1545 -0.3090
  974MOL0     C34285   7.276   6.849   5.192 -0.1220  0.1207 -0.0120
  974MOL0     C34286   7.425   6.888   5.154  0.5321  0.0625  0.1053
  974MOL0     C34287   7.528   6.816   5.246 -0.9483 -0.3478 -0.3623
  974MOL0     C34288   7.670   6.848   5.207 -0.1825  0.4856  0.5381
  974MOL0     C34289   7.722   6.747   5.102 -0.2717 -0.4761 -0.2632
  974MOL0     C34290   7.829   6.799   5.006  0.2234  0.6384  0.0214
  974MOL0     N34291   7.959   6.833   5.066 -0.3528  0.1819  0.4086
  974MOL0     C34292   8.030   6.946   5.069 -0.0564 -0.8143 -0.3987
  974MOL0     C34293   8.143   6.917   5.134 -0.1008 -0.0187 -0.1051
  974MOL0     C34294   8.250   7.022   5.164  0.0302 -0.2080 -0.6741
  974MOL0     C34295   8.366   6.963   5.253 -0.6589  0.3721 -0.3153
  974MOL0     C34296   8.457   7.075   5.316 -0.8466 -0.1786  0.3293
  974MOL0     C34297   8.590   7.016   5.375  0.8358  0.3126  0.2178
  974MOL0     O34298   8.677   6.991   5.263  0.2551 -0.7645  0.4889
  974MOL0     C34299   8.809   6.981   5.287  0.4428  0.1823  0.4683
  974MOL0     C34300   8.875   6.955   5.410  0.5244 -0.3234  0.8757
  974MOL0     C34301   9.015   6.949   5.420  0.4510  0.7837  0.4280
  974MOL0     C34302   9.069   6.925   5.557 -0.0527 -0.4530 -0.5756
  974MOL0     C34303   9.095   6.948   5.303 -0.7135  0.7304 -0.4039
  974MOL0     C34304   9.241   6.923   5.299  0.3186 -0.0657  0.1394
  974MOL0     O34305   9.304   6.976   5.192  0.1279 -0.4808 -0.1154
  974MOL0     C34306   9.433   6.931   5.173  0.1063 -0.0016 -1.2546
  974MOL0     C34307   9.459   6.795   5.159 -0.7044  0.7813  0.2606
  974MOL0     C34308   9.593   6.747   5.140  0.0705  1.3520 -0.4610
  974MOL0     C34309   9.693   6.837   5.135 -0.9495  0.5909  0.6114
  974MOL0     O34310   9.813   6.796   5.078 -0.1025  1.1877  0.0824
  974MOL0     C34311   9.927   6.885   5.060 -0.2111  0.1498  0.0649
  974MOL0     C34312  10.030   6.812   4.964 -0.0264  0.4871 -0.0126
  974MOL0     C34313  10.172   6.884   4.936  0.8366  0.2567 -0.5130
  974MOL0     C34314  10.267   6.870   5.052 -0.3554  0.4475  0.0333
  974MOL0     C34315  10.383   6.962   5.015 -0.3954  0.0841  0.9114
  974MOL0     C34316  10.461   6.948   4.884 -0.7448 -0.1498 -0.0121
  974MOL0     C34317  10.583   7.036   4.885 -0.0431 -0.8976  0.0158
  974MOL0     C34318  10.666   7.014   4.761  0.1361  0.1462  0.3782
  974MOL0    Cl34319  10.839   7.016   4.801  0.1346 -0.4202  0.1326
  974MOL0     C34320   9.669   6.978   5.156 -0.4808  0.5912  0.1187
  974MOL0     C34321   9.536   7.026   5.172 -0.4873 -0.5258 -1.3288
  974MOL0     O34322   9.294   6.858   5.389  0.1636  0.5671  0.0470
  974MOL0     C34323   9.026   6.961   5.187  0.8400  0.8092  0.1835
  974MOL0     C34324   8.889   6.982   5.170  0.2316 -0.4863  0.0038
  974MOL0     N34325   8.142   6.787   5.167 -0.6208  0.1921  0.6398
  974MOL0     N34326   8.032   6.731   5.130  0.3351  0.2806 -0.1074
  974MOL0     C34327   6.734   6.882   4.931 -0.9850  0.8394 -0.1191
  974MOL0     C34328   6.601   6.852   4.927  0.3350 -0.2258  0.7030
  974MOL0     C34329   6.169   6.815   5.097 -0.4986 -0.3482  0.1363
  974MOL0     C34330   6.147   6.682   5.133 -0.0270  0.2625 -1.3301
  974MOL0     C34331   6.022   6.635   5.162 -0.0056 -0.4397  0.0287
  974MOL0     C34332   5.904   6.713   5.140 -0.2860 -0.4272 -0.8089
  974MOL0     O34333   5.778   6.671   5.175  0.3859 -0.8378  0.4984
  974MOL0     C34334   5.759   6.541   5.215 -0.2507 -0.4767 -0.0457
  974MOL0     C34335   5.607   6.516   5.219  0.1084 -0.1853  0.8448
  974MOL0     C34336   5.556   6.423   5.330 -0.2920  0.1694  0.1859
  974MOL0     C34337   5.410   6.392   5.303  0.0258  0.5915  0.1866
  974MOL0     C34338   5.338   6.341   5.423  0.0687  0.1927  0.2176
  974MOL0     C34339   5.287   6.317   5.529 -0.2172 -0.3830 -0.4599
  974MOL0     C34340   5.921   6.844   5.088 -0.4201  0.1580  0.3122
  974MOL0     C34341   6.054   6.894   5.071  0.7859 -0.8075 -0.3655
  974MOL0     C34342   6.069   7.035   5.011  0.1273 -0.2192  0.3414
  974MOL0     H34343   6.577   6.734   5.246 -2.0695 -0.2615 -0.7989
  974MOL0     H34344   6.807   6.787   5.240 -2.6633  1.7911  1.7271
  974MOL0     H34345   7.030   6.770   5.165  0.1867 -0.2808 -0.8586
  974MOL0     H34346   6.988   6.944   5.207 -0.1870 -0.8162  0.2253
  974MOL0     H34347   7.203   6.847   5.004  0.5134  0.8745 -0.7332
  974MOL0     H34348   7.190   7.012   5.081 -0.2069 -0.4259 -3.3646
  974MOL0     H34349   7.256   6.884   5.294 -0.3311  2.3807 -0.7765
  974MOL0     H34350   7.280   6.740   5.199  1.0958  0.0983 -0.7488
  974MOL0     H34351   7.443   6.878   5.047 -0.0077 -0.7104  0.0785
  974MOL0     H34352   7.437   6.995   5.175  4.5355  0.0968 -1.5941
  974MOL0     H34353   7.510   6.709   5.233  1.2906 -0.6584 -1.1809
  974MOL0     H34354   7.525   6.851   5.350  0.9261 -0.5079 -0.2207
  974MOL0     H34355   7.663   6.953   5.178  1.0031  0.5175  0.3444
  974MOL0     H34356   7.748   6.834   5.283  2.8549 -1.6820 -2.6553
  974MOL0     H34357   7.650   6.705   5.031  1.2471 -0.8594 -1.6462
  974MOL0     H34358   7.764   6.663   5.158  2.0222  0.1351 -0.9442
  974MOL0     H34359   7.845   6.723   4.930 -2.1101 -1.5377  1.5281
  974MOL0     H34360   7.782   6.889   4.965  0.2324  0.6460  0.0274
  974MOL0     H34361   8.010   7.040   5.018  0.4312 -0.1461  0.6001
  974MOL0     H34362   8.205   7.101   5.225  0.1423  0.1142 -1.0096
  974MOL0     H34363   8.287   7.065   5.071 -0.6674  2.6292  0.2513
  974MOL0     H34364   8.323   6.914   5.341  0.5333 -1.2593 -0.5851
  974MOL0     H34365   8.424   6.889   5.197 -2.2252 -2.1019  1.1661
  974MOL0     H34366   8.494   7.145   5.240 -2.9061 -0.5627 -1.1296
  974MOL0     H34367   8.412   7.117   5.406  0.9469 -0.1907  1.2731
  974MOL0     H34368   8.639   7.077   5.451 -0.2688  2.8407 -0.9817
  974MOL0     H34369   8.566   6.918   5.417 -0.9724  0.0974 -1.1950
  974MOL0     H34370   8.813   6.936   5.496 -0.9457 -2.4972 -0.5554
  974MOL0     H34371   9.003   6.957   5.639  0.3581 -1.4440  0.1656
  974MOL0     H34372   9.159   6.988   5.562  0.5706 -1.3902  0.7144
  974MOL0     H34373   9.101   6.821   5.565  1.2682 -0.1270 -1.3835
  974MOL0     H34374   9.379   6.721   5.160  1.8865 -2.3113 -1.7312
  974MOL0     H34375   9.609   6.640   5.148 -1.4663  1.0628 -0.7855
  974MOL0     H34376   9.899   6.981   5.016 -0.0913  0.1541 -0.0031
  974MOL0     H34377   9.970   6.904   5.159  2.8081 -1.4824 -0.7999
  974MOL0     H34378  10.060   6.709   4.985 -0.3770 -0.0771 -2.0877
  974MOL0     H34379   9.987   6.821   4.864 -1.5920 -2.5727  0.2920
  974MOL0     H34380  10.142   6.989   4.921 -5.3046 -0.8044  1.4722
  974MOL0     H34381  10.212   6.846   4.842  2.8891  2.0495 -0.4470
  974MOL0     H34382  10.305   6.768   5.063 -0.5687  0.5482  2.0427
  974MOL0     H34383  10.207   6.902   5.137 -2.1046  0.7045 -1.2391
  974MOL0     H34384  10.348   7.066   5.022  0.1337  0.2432  1.2716
  974MOL0     H34385  10.449   6.965   5.102  3.2459  1.9730 -1.6008
  974MOL0     H34386  10.398   6.976   4.799  2.2022 -1.5627 -2.8904
  974MOL0     H34387  10.492   6.843   4.874  0.2016  0.0720  0.5755
  974MOL0     H34388  10.643   7.015   4.975  1.8319 -1.0996 -1.2328
  974MOL0     H34389  10.558   7.142   4.876  2.0434 -0.4532 -1.1806
  974MOL0     H34390  10.641   7.098   4.696  1.0260  2.2028  2.5374
  974MOL0     H34391  10.641   6.922   4.708 -0.2996  1.4163 -1.7196
  974MOL0     H34392   9.747   7.054   5.157 -0.1764  0.2732  0.7899
  974MOL0     H34393   9.519   7.132   5.188 -3.3944 -1.0740 -0.1605
  974MOL0     H34394   9.080   6.968   5.093  0.2842 -1.7202 -0.3992
  974MOL0     H34395   8.844   7.019   5.078  0.3660 -1.2106 -0.3644
  974MOL0     H34396   6.772   6.924   4.838 -0.8972 -1.3260 -1.1212
  974MOL0     H34397   6.546   6.857   4.834 -0.4290 -0.5620  1.1251
  974MOL0     H34398   6.237   6.623   5.151  0.0698  1.3853  2.8650
  974MOL0     H34399   6.017   6.530   5.187  3.6564 -0.7458  0.1022
  974MOL0     H34400   5.806   6.475   5.141  0.8684 -1.1246  1.2008
  974MOL0     H34401   5.804   6.509   5.310  0.6383 -0.4216 -0.4358
  974MOL0     H34402   5.588   6.466   5.123  1.0572  1.2787 -0.1497
  974MOL0     H34403   5.553   6.610   5.227  1.6569  0.7538  0.5858
  974MOL0     H34404   5.614   6.333   5.354 -0.0071  0.8001  1.9722
  974MOL0     H34405   5.572   6.468   5.428 -1.1612  1.7513 -0.3557
  974MOL0     H34406   5.404   6.317   5.223  1.3719  1.1338 -0.4461
  974MOL0     H34407   5.360   6.481   5.264 -3.3578 -1.6072 -0.9645
  974MOL0     H34408   5.253   6.295   5.628  3.1917  0.2898  1.0014
  974MOL0     H34409   5.833   6.905   5.074 -1.0037 -0.4465  1.2102
  974MOL0     H34410   5.972   7.076   4.982  0.7070  0.3685 -0.8351
  974MOL0     H34411   6.109   7.090   5.096  1.6394 -0.2602 -0.3160
  974MOL0     H34412   6.139   7.036   4.927 -1.0858  0.3894 -0.6986
  975MOL0     O34413  11.092   6.935  10.026  0.2667 -0.0063  0.0972
  975MOL0     C34414  11.144   6.837  10.075 -0.6532  0.6196 -0.3758
  975MOL0     O34415  11.283   6.829  10.096 -0.4282  0.3212  0.6706
  975MOL0     C34416  11.366   6.934  10.077 -0.4267 -0.0898 -0.3381
  975MOL0     C34417  11.346   7.055  10.149  0.2013  0.6323  0.5488
  975MOL0     C34418  11.444   7.153  10.142 -0.2833 -0.1430  0.6843
  975MOL0     C34419  11.563   7.136  10.071  0.6796  0.6953  0.5156
  975MOL0     O34420  11.658   7.232  10.068 -0.4680  0.3340 -0.2308
  975MOL0     C34421  11.662   7.336  10.171  0.3175  0.5465  0.0928
  975MOL0     C34422  11.787   7.405  10.145 -0.4311  0.5046 -0.1669
  975MOL0     C34423  11.785   7.541  10.214  0.1457 -0.2224 -0.2543
  975MOL0     C34424  11.914   7.611  10.169  0.2804 -0.3828 -0.0189
  975MOL0     C34425  11.939   7.747  10.243  0.9029 -0.4472  0.4745
  975MOL0     C34426  11.977   7.730  10.388 -0.6330 -0.5809 -1.5550
  975MOL0     C34427  11.983   7.856  10.480  0.5869  0.0666  0.1034
  975MOL0     C34428  12.013   7.826  10.627  0.0810  0.5111  0.4571
  975MOL0     N34429  11.901   7.765  10.690  0.3702  0.0224  0.4355
  975MOL0     C34430  11.888   7.627  10.716  0.1329 -0.8933  0.9251
  975MOL0     C34431  11.764   7.623  10.775 -0.4810  0.6745 -1.2291
  975MOL0     C34432  11.667   7.500  10.792  0.3904 -1.2736 -0.4348
  975MOL0     C34433  11.510   7.512  10.761  0.3185 -0.5860  0.0341
  975MOL0     C34434  11.471   7.614  10.649  0.7190  0.2651 -0.1514
  975MOL0     C34435  11.550   7.581  10.513  0.2159  0.5553 -0.5445
  975MOL0     O34436  11.569   7.436  10.490 -0.5502 -0.6811  0.8697
  975MOL0     C34437  11.464   7.355  10.468  0.3675  0.1890  0.0038
  975MOL0     C34438  11.347   7.400  10.391 -1.2897 -0.5448 -0.4428
  975MOL0     C34439  11.230   7.329  10.382  0.3682  0.3079  0.5107
  975MOL0     C34440  11.132   7.381  10.283 -0.4193  0.5563  1.7010
  975MOL0     C34441  11.223   7.201  10.443  0.8537 -0.2244  0.7791
  975MOL0     C34442  11.109   7.102  10.446  0.1211 -0.0073 -0.4014
  975MOL0     O34443  11.113   6.996  10.535  0.3305  1.2124 -0.2492
  975MOL0     C34444  11.014   6.898  10.520 -0.0409 -0.2646  0.3750
  975MOL0     C34445  10.876   6.922  10.551 -0.8001  0.3739 -0.9252
  975MOL0     C34446  10.788   6.809  10.540  0.4422 -0.4668  0.0086
  975MOL0     C34447  10.830   6.682  10.502  0.0052 -0.5255 -0.3151
  975MOL0     O34448  10.752   6.569  10.481 -0.2780 -0.0519 -0.6450
  975MOL0     C34449  10.612   6.582  10.528  0.0129  0.2604  0.3581
  975MOL0     C34450  10.546   6.448  10.495  0.1345 -0.7875 -0.1600
  975MOL0     C34451  10.393   6.469  10.503  0.0310  0.5085 -0.0517
  975MOL0     C34452  10.322   6.345  10.464  0.4884  1.1470  0.5599
  975MOL0     C34453  10.170   6.352  10.467  0.0560  0.4412 -0.1102
  975MOL0     C34454  10.112   6.447  10.363 -0.3697 -0.4104  0.8221
  975MOL0     C34455   9.973   6.401  10.309  0.4301  0.2212  0.5388
  975MOL0     C34456   9.906   6.519  10.238  0.0240 -0.8686 -0.3548
  975MOL0    Cl34457   9.750   6.468  10.180  0.2714  0.4557 -0.0594
  975MOL0     C34458  10.965   6.670  10.472  0.5150  0.2978  0.7820
  975MOL0     C34459  11.055   6.772  10.479 -0.3909 -0.9720 -0.4677
  975MOL0     O34460  11.025   7.122  10.364 -0.0078 -0.2891  0.6234
  975MOL0     C34461  11.334   7.163  10.513  0.3390  0.1715  0.1529
  975MOL0     C34462  11.456   7.234  10.525  0.9095 -0.4005  0.0409
  975MOL0     N34463  11.714   7.744  10.803 -1.0062 -0.7630 -0.1576
  975MOL0     N34464  11.792   7.828  10.737  0.6555  0.4971 -0.1343
  975MOL0     C34465  11.576   7.017   9.996 -0.6626  0.7341  0.2350
  975MOL0     C34466  11.485   6.914  10.000  1.5595  0.8880  0.7740
  975MOL0     C34467  11.071   6.710  10.103  0.8362  0.6323  0.2160
  975MOL0     C34468  11.138   6.592  10.081  0.0957  0.2706  0.5492
  975MOL0     C34469  11.074   6.470  10.088 -0.1022 -0.8346  0.0966
  975MOL0     C34470  10.942   6.461  10.121 -0.2234  0.4616  0.3757
  975MOL0     O34471  10.895   6.332  10.122  0.2330  0.6743  0.2633
  975MOL0     C34472  10.755   6.303  10.116  0.5650 -0.3434 -0.2969
  975MOL0     C34473  10.747   6.152  10.090  0.5290  0.2991 -0.6761
  975MOL0     C34474  10.607   6.123  10.059  0.9765  0.2105 -0.3747
  975MOL0     C34475  10.571   5.975  10.055 -0.3315 -0.5039 -0.2372
  975MOL0     C34476  10.429   5.949  10.001  0.1245 -0.7870 -0.7736
  975MOL0     C34477  10.321   5.921   9.953  1.0591 -0.3581  0.3493
  975MOL0     C34478  10.869   6.575  10.141 -0.2789 -0.3028  0.7066
  975MOL0     C34479  10.931   6.700  10.127  0.1337  0.5235  0.6703
  975MOL0     C34480  10.846   6.825  10.153 -0.4737  0.1772  0.1671
  975MOL0     H34481  11.255   7.050  10.208 -0.1764  0.8301 -0.0007
  975MOL0     H34482  11.421   7.244  10.197 -0.1079  1.8203 -2.2764
  975MOL0     H34483  11.649   7.291  10.271 -2.9279  3.6974  1.3085
  975MOL0     H34484  11.574   7.400  10.167  0.1370  0.6287  3.0417
  975MOL0     H34485  11.874   7.343  10.168 -0.6838 -0.2553 -1.1593
  975MOL0     H34486  11.793   7.426  10.038  1.1012 -1.5943 -0.5514
  975MOL0     H34487  11.698   7.602  10.188  2.1243  2.6152 -0.7947
  975MOL0     H34488  11.786   7.510  10.318 -0.3936 -1.8928 -0.7263
  975MOL0     H34489  12.001   7.546  10.183  1.8590  1.7412  0.3381
  975MOL0     H34490  11.896   7.632  10.063  1.1631  2.1897  0.2860
  975MOL0     H34491  11.847   7.807  10.242  0.3488 -1.2637  0.9902
  975MOL0     H34492  12.012   7.795  10.178 -1.4938 -1.1490 -3.0366
  975MOL0     H34493  11.921   7.648  10.434  2.1996 -1.1986  1.1325
  975MOL0     H34494  12.075   7.683  10.383 -1.1751 -2.1049  0.4593
  975MOL0     H34495  11.887   7.908  10.486 -0.3249 -1.5282  0.0288
  975MOL0     H34496  12.058   7.927  10.445  1.8188 -1.5689 -0.7367
  975MOL0     H34497  12.105   7.767  10.633 -1.6669 -2.3214  1.5274
  975MOL0     H34498  12.035   7.917  10.683 -4.2936  1.4769  1.0213
  975MOL0     H34499  11.949   7.544  10.684 -1.2159 -2.1737  1.5298
  975MOL0     H34500  11.678   7.464  10.895 -0.4892  0.2406  0.2151
  975MOL0     H34501  11.698   7.419  10.725  1.2172 -1.8778  0.6456
  975MOL0     H34502  11.465   7.413  10.755 -1.6460  0.2663 -0.0731
  975MOL0     H34503  11.467   7.571  10.843  0.6086  0.1257 -0.3134
  975MOL0     H34504  11.365   7.600  10.626  0.9619 -1.6070 -0.3217
  975MOL0     H34505  11.483   7.719  10.674 -1.2308  0.3920  0.3744
  975MOL0     H34506  11.496   7.631  10.432 -0.5615  1.1928  0.3391
  975MOL0     H34507  11.643   7.638  10.513  0.3227  0.4008 -1.3665
  975MOL0     H34508  11.356   7.495  10.339  0.8818 -0.4444  0.0465
  975MOL0     H34509  11.132   7.318  10.193  3.9804  2.5686 -0.0323
  975MOL0     H34510  11.170   7.476  10.244 -1.2673 -0.5964 -2.4781
  975MOL0     H34511  11.033   7.396  10.325 -0.7895  1.7006  0.4923
  975MOL0     H34512  10.836   7.022  10.564  0.5130  1.1168 -2.1988
  975MOL0     H34513  10.684   6.834  10.556  0.0423 -3.0342  2.0985
  975MOL0     H34514  10.605   6.609  10.633  0.8100 -0.7006  0.6684
  975MOL0     H34515  10.558   6.661  10.474  1.2651 -0.1925 -1.6974
  975MOL0     H34516  10.588   6.420  10.398  0.8129  2.6757 -1.0097
  975MOL0     H34517  10.575   6.372  10.568  0.0328  0.3756  1.1413
  975MOL0     H34518  10.369   6.543  10.426 -0.1755  0.4733 -0.0234
  975MOL0     H34519  10.365   6.510  10.600  1.2316  1.3746 -0.0522
  975MOL0     H34520  10.352   6.275  10.543  1.4248  2.2142  1.1859
  975MOL0     H34521  10.358   6.299  10.372 -0.6686 -0.7867  1.0226
  975MOL0     H34522  10.125   6.254  10.452  0.2201  0.4140 -0.4292
  975MOL0     H34523  10.141   6.375  10.570 -0.5411 -0.8733  0.0369
  975MOL0     H34524  10.180   6.448  10.277 -1.0069 -0.0365  0.3191
  975MOL0     H34525  10.107   6.548  10.406 -3.3314 -0.0414 -0.2089
  975MOL0     H34526   9.904   6.372  10.390 -0.5066  1.3332  0.1532
  975MOL0     H34527   9.988   6.312  10.247 -1.7454  0.3867 -0.3199
  975MOL0     H34528   9.969   6.533  10.150  0.5545 -1.8409 -0.1454
  975MOL0     H34529   9.895   6.605  10.305  3.7760  0.1166 -0.7697
  975MOL0     H34530  10.996   6.582  10.417 -1.8878  0.6775 -1.3720
  975MOL0     H34531  11.162   6.767  10.463 -0.2490 -0.2422  0.2206
  975MOL0     H34532  11.323   7.062  10.551 -1.5836  0.1434 -0.3892
  975MOL0     H34533  11.544   7.190  10.569  0.8226 -0.4189  0.1955
  975MOL0     H34534  11.670   7.001   9.943 -0.8819 -0.2991  0.1299
  975MOL0     H34535  11.505   6.815   9.961 -2.2978 -0.1896  1.1775
  975MOL0     H34536  11.240   6.583  10.046 -1.5408 -3.6739 -4.4111
  975MOL0     H34537  11.136   6.383  10.070  1.0199  0.0588 -0.4444
  975MOL0     H34538  10.699   6.331  10.206  0.9304  0.7867 -0.4069
  975MOL0     H34539  10.708   6.354  10.032 -0.7965  0.8453  1.1315
  975MOL0     H34540  10.777   6.095  10.179 -1.4163  0.1092 -0.0903
  975MOL0     H34541  10.816   6.124  10.010 -0.1067  0.4612 -1.2894
  975MOL0     H34542  10.536   6.166  10.129  0.9884  0.1392 -0.3188
  975MOL0     H34543  10.586   6.167   9.961 -1.7357  1.4058  0.6693
  975MOL0     H34544  10.589   5.925  10.151  2.7347 -1.8059 -1.3400
  975MOL0     H34545  10.642   5.921   9.991  2.1141  0.0959  1.8289
  975MOL0     H34546  10.225   5.906   9.909  1.1209 -0.7416  0.3437
  975MOL0     H34547  10.762   6.573  10.159 -1.0220 -0.9388 -2.9364
  975MOL0     H34548  10.752   6.801  10.204 -0.5125  0.2550  0.1338
  975MOL0     H34549  10.907   6.895  10.211  0.4159 -0.4761  0.0422
  975MOL0     H34550  10.820   6.869  10.056  1.9839  2.6610  0.4890
  976MOL0     O34551   7.717   3.776   1.369  0.8895  0.5215  0.2569
  976MOL0     C34552   7.759   3.670   1.406 -0.5069 -0.1435  0.4953
  976MOL0     O34553   7.894   3.633   1.395  0.3828  0.0334 -0.1991
  976MOL0     C34554   7.969   3.655   1.286 -0.0073 -0.0429  0.4734
  976MOL0     C34555   8.095   3.696   1.301  0.3441  0.3847 -0.0157
  976MOL0     C34556   8.176   3.718   1.191  0.5323 -0.5710  0.8235
  976MOL0     C34557   8.128   3.708   1.055  0.3267  0.4668 -0.8994
  976MOL0     O34558   8.213   3.732   0.952  0.6285  0.2777  0.5463
  976MOL0     C34559   8.158   3.764   0.822  0.9774  0.1094  0.3975
  976MOL0     C34560   8.271   3.803   0.721  0.2507  0.4532  0.3431
  976MOL0     C34561   8.361   3.904   0.776  0.1327  0.2331 -0.3535
  976MOL0     C34562   8.467   3.955   0.677  0.2322 -0.6921  0.4745
  976MOL0     C34563   8.574   3.855   0.614  0.1537 -0.0464  0.7255
  976MOL0     C34564   8.653   3.801   0.731 -0.2275  1.1516  0.3645
  976MOL0     C34565   8.782   3.726   0.691  0.4468 -0.9593  0.0222
  976MOL0     C34566   8.905   3.808   0.649  0.8407 -0.2639 -0.8859
  976MOL0     N34567   8.977   3.863   0.759  0.3004 -0.5695 -0.2662
  976MOL0     C34568   9.050   3.798   0.860  0.8178 -0.4896  0.2675
  976MOL0     C34569   9.124   3.903   0.910 -0.8428 -0.4763  0.1857
  976MOL0     C34570   9.212   3.889   1.031 -0.2031 -0.3616 -0.1261
  976MOL0     C34571   9.351   3.946   1.003  0.6854 -0.5497  0.2841
  976MOL0     C34572   9.445   3.887   1.106  0.2328  1.1303 -0.1696
  976MOL0     C34573   9.582   3.945   1.092  0.0920  0.1255  0.2688
  976MOL0     O34574   9.665   3.871   1.183 -0.5595 -0.4629 -0.0300
  976MOL0     C34575   9.799   3.902   1.198 -0.2357  0.2736 -0.8222
  976MOL0     C34576   9.860   3.846   1.309  0.0171 -0.5886  0.0883
  976MOL0     C34577   9.994   3.874   1.343 -0.2587 -0.5022 -0.7297
  976MOL0     C34578  10.056   3.790   1.455  0.7952  0.4552  0.4592
  976MOL0     C34579  10.069   3.958   1.256 -1.1695  0.5133  0.0781
  976MOL0     C34580  10.208   3.986   1.279 -0.3226  0.2631 -0.5764
  976MOL0     O34581  10.293   3.979   1.171 -0.1153 -0.0629  0.1184
  976MOL0     C34582  10.425   3.965   1.193 -0.2298  0.1714  0.2430
  976MOL0     C34583  10.513   4.071   1.202  0.8994 -0.1769 -0.5976
  976MOL0     C34584  10.646   4.049   1.231 -0.2222  0.5568  0.2092
  976MOL0     C34585  10.695   3.921   1.258  0.0282  0.5827 -0.4809
  976MOL0     O34586  10.832   3.891   1.294 -0.3144  0.2424  0.6062
  976MOL0     C34587  10.924   3.990   1.330  0.0815  0.1237  0.4157
  976MOL0     C34588  11.059   3.921   1.376 -1.3728 -0.4525 -0.8149
  976MOL0     C34589  11.047   3.853   1.516 -0.2051 -0.5888  0.3687
  976MOL0     C34590  11.173   3.809   1.579  1.0984  0.1642  1.1962
  976MOL0     C34591  11.157   3.754   1.726 -0.4137  0.6749 -0.4590
  976MOL0     C34592  11.282   3.688   1.785  0.2380  0.1037 -0.1841
  976MOL0     C34593  11.248   3.637   1.918 -0.7008  0.4821 -0.3269
  976MOL0     C34594  11.330   3.514   1.955 -0.5873  0.8560  0.9617
  976MOL0    Cl34595  11.499   3.537   1.924 -0.1787  0.0539 -0.2322
  976MOL0     C34596  10.609   3.816   1.243 -0.5600  0.4479 -0.2550
  976MOL0     C34597  10.475   3.837   1.209 -0.0305  0.3073  0.4385
  976MOL0     O34598  10.246   4.006   1.399  0.1644 -0.4128 -0.3618
  976MOL0     C34599  10.004   4.020   1.141  0.5503  0.2747 -0.4493
  976MOL0     C34600   9.864   3.994   1.120  0.0024  1.0425 -0.6134
  976MOL0     N34601   9.095   4.021   0.848 -0.8144  0.2603  0.4948
  976MOL0     N34602   9.013   3.994   0.754 -0.0701  0.0802  0.7253
  976MOL0     C34603   7.992   3.675   1.036 -0.3432 -0.8143 -0.6399
  976MOL0     C34604   7.915   3.649   1.159  0.3444 -0.6143  0.2075
  976MOL0     C34605   7.665   3.589   1.476  0.6346 -1.1058 -0.5123
  976MOL0     C34606   7.662   3.446   1.460 -0.5118  0.2490  0.5871
  976MOL0     C34607   7.557   3.369   1.526 -0.6666 -0.6671  0.0295
  976MOL0     C34608   7.465   3.426   1.612  0.0971  0.0987 -0.1280
  976MOL0     O34609   7.370   3.345   1.677 -0.5615 -0.7585 -0.1724
  976MOL0     C34610   7.289   3.270   1.592  0.4594 -0.1385  0.3367
  976MOL0     C34611   7.181   3.200   1.664 -0.5607 -0.1549  0.7091
  976MOL0     C34612   7.235   3.108   1.774  0.4567 -0.3233 -1.7299
  976MOL0     C34613   7.118   3.033   1.838  0.0813  0.6969  0.4443
  976MOL0     C34614   7.157   2.945   1.949  0.0879  0.3249  0.6691
  976MOL0     C34615   7.192   2.890   2.047 -0.7920  0.5987 -0.6266
  976MOL0     C34616   7.475   3.560   1.634 -0.5578 -0.6764  0.5914
  976MOL0     C34617   7.567   3.646   1.565  0.3473  0.5133 -0.9060
  976MOL0     C34618   7.572   3.789   1.612 -0.7294  0.1618 -1.1903
  976MOL0     H34619   8.145   3.711   1.396 -0.8891  1.4859  0.4873
  976MOL0     H34620   8.281   3.744   1.194  0.2605  0.5554  0.8748
  976MOL0     H34621   8.088   3.847   0.833 -0.2564 -0.6504 -1.2529
  976MOL0     H34622   8.107   3.674   0.788  1.3597 -0.0119  0.1469
  976MOL0     H34623   8.322   3.709   0.697  1.6326  1.7727 -2.4316
  976MOL0     H34624   8.218   3.835   0.631 -0.4343 -1.1345  0.1421
  976MOL0     H34625   8.310   3.994   0.813  1.6896  0.5187  1.2518
  976MOL0     H34626   8.424   3.856   0.851 -1.7287 -3.4697 -0.9377
  976MOL0     H34627   8.417   3.992   0.587  1.1282 -0.8362 -0.1067
  976MOL0     H34628   8.517   4.043   0.719 -1.7442 -0.3274  2.1933
  976MOL0     H34629   8.641   3.893   0.537  0.4863 -2.0797 -0.0441
  976MOL0     H34630   8.520   3.770   0.571 -0.9731  1.7351 -1.6323
  976MOL0     H34631   8.672   3.874   0.810  0.4584 -0.0304  1.3195
  976MOL0     H34632   8.583   3.736   0.785 -0.3710  1.6221  0.7668
  976MOL0     H34633   8.751   3.652   0.617 -1.8923 -1.4766  1.4008
  976MOL0     H34634   8.823   3.671   0.776  1.2743  0.1120  0.3347
  976MOL0     H34635   8.982   3.750   0.599  2.4994  0.6249  0.5316
  976MOL0     H34636   8.872   3.890   0.583  0.4745 -0.5631 -1.0778
  976MOL0     H34637   9.041   3.700   0.906  1.8077 -0.3083  0.8929
  976MOL0     H34638   9.220   3.787   1.070 -0.2228  0.4659  2.1706
  976MOL0     H34639   9.167   3.942   1.116  1.2202  0.6732  0.0220
  976MOL0     H34640   9.383   3.936   0.899 -3.6518  0.7820 -1.4206
  976MOL0     H34641   9.356   4.055   1.017  3.2092 -0.4649 -0.7937
  976MOL0     H34642   9.417   3.921   1.206  0.9326 -1.7314  1.0996
  976MOL0     H34643   9.441   3.778   1.106  0.6655  1.0779 -2.2457
  976MOL0     H34644   9.608   3.932   0.987  0.8704  0.4156  0.4158
  976MOL0     H34645   9.588   4.050   1.122  1.2008  0.2598 -0.3669
  976MOL0     H34646   9.793   3.789   1.373  0.6074  0.1100  1.3661
  976MOL0     H34647  10.007   3.693   1.466 -0.7324  0.9750 -1.1973
  976MOL0     H34648  10.051   3.858   1.541 -1.1177  0.4315  0.4041
  976MOL0     H34649  10.163   3.774   1.437  0.3795 -0.9546 -0.9073
  976MOL0     H34650  10.480   4.174   1.192 -1.9570 -1.1653 -2.7143
  976MOL0     H34651  10.723   4.125   1.236  0.2270  0.0731  0.8767
  976MOL0     H34652  10.926   4.060   1.245  0.5765 -0.5452 -0.1327
  976MOL0     H34653  10.887   4.049   1.415 -1.2252  2.5269 -1.6677
  976MOL0     H34654  11.110   3.853   1.307  1.5637 -0.4643  1.1708
  976MOL0     H34655  11.133   4.001   1.383 -1.3059 -0.5024 -0.9539
  976MOL0     H34656  10.986   3.766   1.492  0.2141 -0.5348 -0.9618
  976MOL0     H34657  11.003   3.924   1.588  3.4294  2.3047  0.0219
  976MOL0     H34658  11.243   3.893   1.583 -1.0577  2.3488 -2.0004
  976MOL0     H34659  11.225   3.737   1.515  0.1912  0.5571 -0.0201
  976MOL0     H34660  11.130   3.848   1.776 -1.3408  2.0312 -3.3006
  976MOL0     H34661  11.073   3.685   1.727 -1.6504  2.0355  2.8181
  976MOL0     H34662  11.353   3.772   1.790  1.4474 -0.6275 -3.0182
  976MOL0     H34663  11.314   3.607   1.719  1.6721 -1.9794  2.8426
  976MOL0     H34664  11.143   3.605   1.916 -0.9668  1.2768  0.5327
  976MOL0     H34665  11.257   3.708   2.001  2.4844 -2.9469  2.6223
  976MOL0     H34666  11.306   3.424   1.897 -0.9728  2.0062 -0.7069
  976MOL0     H34667  11.324   3.493   2.062 -0.2300 -0.7430  0.6941
  976MOL0     H34668  10.658   3.719   1.256  1.8821  1.7299  0.7802
  976MOL0     H34669  10.398   3.760   1.204 -3.4995  3.5196  0.2835
  976MOL0     H34670  10.052   4.085   1.069 -0.2799  2.0686  0.5538
  976MOL0     H34671   9.811   4.047   1.043 -1.8814 -0.5120 -0.4717
  976MOL0     H34672   7.936   3.671   0.943  1.6035  0.9327 -1.9905
  976MOL0     H34673   7.810   3.627   1.146 -0.5405  3.6578 -1.8208
  976MOL0     H34674   7.734   3.404   1.391 -2.9790  0.7468 -2.4972
  976MOL0     H34675   7.550   3.267   1.490  0.3029 -0.5463 -0.5266
  976MOL0     H34676   7.230   3.326   1.519 -0.1470 -0.9244  0.2022
  976MOL0     H34677   7.341   3.202   1.524  0.7333 -0.1586  0.5613
  976MOL0     H34678   7.124   3.139   1.593 -1.3552  0.2041  1.0338
  976MOL0     H34679   7.113   3.277   1.700  0.2655  1.7835 -1.6004
  976MOL0     H34680   7.301   3.031   1.732  3.0612  0.4719  0.6482
  976MOL0     H34681   7.293   3.166   1.846  0.9187 -0.4997 -1.9592
  976MOL0     H34682   7.057   2.972   1.772 -2.5103 -0.4763  3.6320
  976MOL0     H34683   7.049   3.102   1.887 -1.3034 -2.4558  3.3500
  976MOL0     H34684   7.212   2.845   2.142 -0.7809  0.9896 -0.4414
  976MOL0     H34685   7.400   3.597   1.704 -0.4987  2.0382 -0.6617
  976MOL0     H34686   7.549   3.872   1.544  2.6558 -0.7359 -3.7022
  976MOL0     H34687   7.506   3.796   1.699 -2.8217 -3.1928 -2.3215
  976MOL0     H34688   7.677   3.801   1.642 -0.3942 -0.6421 -1.9988
  977MOL0     O34689  10.399   8.609   2.196  0.2695 -0.0271 -0.2336
  977MOL0     C34690  10.376   8.497   2.242 -0.4197 -0.0359  0.0223
  977MOL0     O34691  10.464   8.390   2.228  0.1176  0.8106 -0.7359
  977MOL0     C34692  10.583   8.402   2.161 -0.1641 -0.2870 -0.0366
  977MOL0     C34693  10.699   8.409   2.238 -0.9087 -0.6176 -0.2936
  977MOL0     C34694  10.819   8.407   2.168  0.5912 -0.8904 -0.2084
  977MOL0     C34695  10.829   8.420   2.030  0.8398  0.2841  0.3180
  977MOL0     O34696  10.948   8.414   1.957 -0.0196  0.2550  0.0191
  977MOL0     C34697  11.073   8.454   2.023  0.1857 -0.3077 -0.0566
  977MOL0     C34698  11.067   8.604   2.048  0.0186  0.3164  0.2125
  977MOL0     C34699  11.195   8.678   2.079 -0.2756 -0.3091 -0.0635
  977MOL0     C34700  11.307   8.665   1.964 -0.1948  0.5225 -0.7270
  977MOL0     C34701  11.417   8.766   1.988  0.1017 -0.0369  0.0586
  977MOL0     C34702  11.527   8.768   1.882 -0.6740 -0.5205  0.1985
  977MOL0     C34703  11.632   8.875   1.914 -0.5533  0.6789  0.5038
  977MOL0     C34704  11.754   8.866   1.814 -0.2927  0.6734 -0.1599
  977MOL0     N34705  11.852   8.973   1.837 -0.8271  0.1008  0.5147
  977MOL0     C34706  11.914   9.015   1.948 -0.4360 -0.0056 -0.0103
  977MOL0     C34707  11.997   9.118   1.907 -0.2614  0.4357 -0.3354
  977MOL0     C34708  12.095   9.194   1.988  0.9494 -0.1745 -0.3247
  977MOL0     C34709  12.246   9.160   1.964 -0.3503 -0.6677 -0.5139
  977MOL0     C34710  12.309   9.224   1.843 -0.0537 -0.1730  0.5025
  977MOL0     C34711  12.450   9.184   1.815  0.1570 -1.4699  0.6313
  977MOL0     O34712  12.528   9.228   1.928 -0.4271 -1.1026 -0.1346
  977MOL0     C34713  12.661   9.218   1.932 -0.6130 -0.3523 -0.5076
  977MOL0     C34714  12.732   9.260   2.045  0.6720 -0.3455 -0.2069
  977MOL0     C34715  12.869   9.247   2.055 -0.3849 -0.5771 -0.0368
  977MOL0     C34716  12.930   9.303   2.181  1.0383 -0.2590  0.1616
  977MOL0     C34717  12.942   9.192   1.949 -0.6302 -0.7496  0.9585
  977MOL0     C34718  13.086   9.177   1.931 -0.3609 -0.7106 -0.8981
  977MOL0     O34719  13.133   9.106   1.823 -0.6392  1.0471  0.7976
  977MOL0     C34720  13.269   9.103   1.802  0.5875  0.1260 -0.2815
  977MOL0     C34721  13.329   9.136   1.679  0.5546  0.2831  0.2489
  977MOL0     C34722  13.464   9.118   1.650 -0.0077 -0.6072  0.5908
  977MOL0     C34723  13.549   9.072   1.743 -0.2385 -0.2093  0.0547
  977MOL0     O34724  13.682   9.051   1.729  0.3801  0.1785  0.3112
  977MOL0     C34725  13.746   9.135   1.634 -1.0812 -0.3465 -0.3178
  977MOL0     C34726  13.904   9.129   1.649 -1.4132  0.1315  0.1962
  977MOL0     C34727  13.956   9.160   1.791 -0.0823  0.6491  0.9770
  977MOL0     C34728  14.106   9.153   1.807 -0.6630  0.4420 -0.3840
  977MOL0     C34729  14.153   9.192   1.950  0.4843  0.4600  0.2587
  977MOL0     C34730  14.304   9.196   1.978  0.0328 -0.2999  0.3681
  977MOL0     C34731  14.369   9.065   1.993  1.0416 -0.3252  0.5274
  977MOL0     C34732  14.360   9.032   2.142 -0.5909  1.0491 -0.1030
  977MOL0    Cl34733  14.471   8.894   2.168  0.0180 -0.1643  0.0255
  977MOL0     C34734  13.498   9.051   1.869  0.4483  0.2780  0.3797
  977MOL0     C34735  13.360   9.065   1.906  0.1261  0.1890 -0.1980
  977MOL0     O34736  13.154   9.232   2.016 -0.2061  0.1613  0.0182
  977MOL0     C34737  12.871   9.161   1.831  0.2054  0.6235 -0.1214
  977MOL0     C34738  12.729   9.169   1.824  0.0780  0.1331  0.1618
  977MOL0     N34739  11.965   9.143   1.770  0.4135  0.0275  0.7058
  977MOL0     N34740  11.876   9.058   1.737 -0.0079 -0.0993  0.5107
  977MOL0     C34741  10.710   8.426   1.960 -0.2434 -0.3900  0.0630
  977MOL0     C34742  10.584   8.417   2.029 -0.2113  0.1070  0.8635
  977MOL0     C34743  10.241   8.459   2.311 -0.2552  0.0117  0.0266
  977MOL0     C34744  10.197   8.324   2.311  1.1976 -0.1910  0.1902
  977MOL0     C34745  10.073   8.290   2.368  0.3290 -0.1677  0.1165
  977MOL0     C34746   9.992   8.379   2.430 -0.0306 -0.2139 -0.6878
  977MOL0     O34747   9.871   8.322   2.469 -0.1755 -0.5546  0.3184
  977MOL0     C34748   9.770   8.401   2.529  0.0916 -0.5137 -0.8565
  977MOL0     C34749   9.634   8.363   2.466  0.3581  0.1629 -0.7892
  977MOL0     C34750   9.525   8.470   2.477  0.2707  0.1192  0.6553
  977MOL0     C34751   9.509   8.579   2.364  1.3181  0.6357  0.0753
  977MOL0     C34752   9.627   8.663   2.347 -0.1855 -0.6797 -0.5611
  977MOL0     C34753   9.731   8.734   2.340  0.0147  0.1612 -0.0912
  977MOL0     C34754  10.031   8.515   2.423 -0.0764 -0.4528  0.2717
  977MOL0     C34755  10.152   8.555   2.366 -0.0095 -0.0143 -0.0275
  977MOL0     C34756  10.181   8.708   2.361 -0.4905 -0.6996 -0.4238
  977MOL0     H34757  10.697   8.417   2.346 -0.3822 -1.8607 -0.1800
  977MOL0     H34758  10.909   8.419   2.227  0.4332 -3.2166  0.6051
  977MOL0     H34759  11.162   8.426   1.967 -0.9942  1.0795 -2.8562
  977MOL0     H34760  11.081   8.411   2.123 -1.2931 -1.6111 -0.4600
  977MOL0     H34761  11.024   8.650   1.958 -3.0561  1.4929  2.1197
  977MOL0     H34762  10.995   8.627   2.127 -0.6743  1.0371 -0.6019
  977MOL0     H34763  11.176   8.784   2.100  1.6097 -0.0941  0.8412
  977MOL0     H34764  11.234   8.645   2.176  1.8848  2.6637  0.2229
  977MOL0     H34765  11.339   8.561   1.960 -0.7630  0.3838 -2.0465
  977MOL0     H34766  11.266   8.691   1.867 -1.4118  2.9828  0.3447
  977MOL0     H34767  11.462   8.735   2.083  0.1596  0.2656  0.1322
  977MOL0     H34768  11.366   8.863   1.986 -0.8745 -0.5184  0.8441
  977MOL0     H34769  11.577   8.671   1.879 -0.2305 -0.3073 -3.0883
  977MOL0     H34770  11.476   8.799   1.791 -0.1873  2.4983  0.8293
  977MOL0     H34771  11.670   8.852   2.014  0.0285 -1.7412 -0.1955
  977MOL0     H34772  11.592   8.976   1.914 -1.2117  0.4938 -2.0276
  977MOL0     H34773  11.797   8.766   1.826  0.4870  1.1360  1.0563
  977MOL0     H34774  11.723   8.869   1.709  0.6445 -1.8372 -0.5677
  977MOL0     H34775  11.924   8.964   2.043 -2.4850 -0.3653  0.0551
  977MOL0     H34776  12.071   9.153   2.087  2.0081 -0.9357 -0.3546
  977MOL0     H34777  12.071   9.300   1.986  0.9817 -0.0760  1.9148
  977MOL0     H34778  12.308   9.206   2.041  1.4079  0.0290 -2.2571
  977MOL0     H34779  12.269   9.053   1.962  1.7686 -0.2379 -2.3520
  977MOL0     H34780  12.260   9.182   1.754  0.1736  1.7075 -0.5649
  977MOL0     H34781  12.285   9.331   1.844 -3.6329 -0.8562  0.2783
  977MOL0     H34782  12.464   9.078   1.790  1.1500 -0.8455 -1.7775
  977MOL0     H34783  12.469   9.231   1.718 -1.9889  1.9548  1.7181
  977MOL0     H34784  12.676   9.299   2.129  0.2422 -2.4038  0.5273
  977MOL0     H34785  13.012   9.245   2.225  3.0494  0.5450 -2.2650
  977MOL0     H34786  12.859   9.333   2.258 -0.0009 -0.4721 -0.6903
  977MOL0     H34787  12.977   9.397   2.150  0.1736  0.1690  0.1278
  977MOL0     H34788  13.268   9.164   1.594  1.9166 -1.1001 -1.2462
  977MOL0     H34789  13.498   9.137   1.548  0.3144 -2.1004  0.3853
  977MOL0     H34790  13.720   9.127   1.528 -1.9968  0.7883 -0.2060
  977MOL0     H34791  13.715   9.237   1.659 -2.2136 -1.7159  5.5541
  977MOL0     H34792  13.928   9.028   1.614 -0.8471  0.8530 -1.6303
  977MOL0     H34793  13.953   9.195   1.577  1.2942 -4.0614 -2.2181
  977MOL0     H34794  13.925   9.083   1.863  2.6474 -0.4824  1.0793
  977MOL0     H34795  13.919   9.258   1.821  0.7123  2.5296 -3.4167
  977MOL0     H34796  14.149   9.222   1.733  0.1304 -0.0910 -0.4380
  977MOL0     H34797  14.138   9.051   1.783 -0.7687  0.3227 -0.0246
  977MOL0     H34798  14.112   9.291   1.972 -1.6339 -0.4285  0.5844
  977MOL0     H34799  14.106   9.124   2.021 -2.2488  1.6694 -0.2455
  977MOL0     H34800  14.330   9.251   2.069 -0.0204 -0.9945  0.8056
  977MOL0     H34801  14.342   9.259   1.896 -0.2198 -1.3747 -0.5998
  977MOL0     H34802  14.472   9.082   1.959  0.6593 -1.9806 -1.7556
  977MOL0     H34803  14.317   8.992   1.929  0.4878  0.2113  0.3600
  977MOL0     H34804  14.260   8.993   2.163 -0.0546 -0.0705  0.4321
  977MOL0     H34805  14.381   9.113   2.212  1.5100  1.0764 -0.7042
  977MOL0     H34806  13.560   9.038   1.957 -0.5598  0.5406  1.1429
  977MOL0     H34807  13.322   9.064   2.007  1.2267  3.7452  0.3970
  977MOL0     H34808  12.921   9.118   1.745 -0.7391 -0.0820 -0.3402
  977MOL0     H34809  12.681   9.136   1.732 -0.6949  0.3673  0.4738
  977MOL0     H34810  10.726   8.422   1.853 -1.5588 -3.3135 -0.1058
  977MOL0     H34811  10.494   8.426   1.969  0.0595 -0.6305  0.3213
  977MOL0     H34812  10.253   8.240   2.270  0.0510  0.4348 -2.9581
  977MOL0     H34813  10.034   8.189   2.366  1.9866 -0.8453 -0.1435
  977MOL0     H34814   9.780   8.379   2.636  0.1647  0.5934 -0.6270
  977MOL0     H34815   9.777   8.509   2.511  2.1247 -0.0923  1.8387
  977MOL0     H34816   9.603   8.270   2.516 -0.0585  0.4203 -0.5636
  977MOL0     H34817   9.644   8.343   2.359 -2.4665 -0.8779 -0.9424
  977MOL0     H34818   9.429   8.421   2.490 -0.6480  2.1750  2.0765
  977MOL0     H34819   9.533   8.518   2.575 -1.4289  1.2046  0.3022
  977MOL0     H34820   9.417   8.638   2.379  0.3533 -0.4399 -1.3316
  977MOL0     H34821   9.498   8.517   2.275 -0.3193 -0.3601  0.8957
  977MOL0     H34822   9.818   8.796   2.349  0.3053 -0.1759 -0.5425
  977MOL0     H34823   9.969   8.593   2.466  0.1445  0.1797 -0.5284
  977MOL0     H34824  10.279   8.737   2.400 -1.4667  1.6204  0.5100
  977MOL0     H34825  10.175   8.738   2.256 -1.2507  1.3617  0.1554
  977MOL0     H34826  10.105   8.765   2.416 -2.5782 -1.6244 -2.1841
  978MOL0     O34827   2.773   4.039  10.580 -0.3463 -0.3045  0.5394
  978MOL0     C34828   2.806   4.122  10.664  0.0167  0.9039 -0.9103
  978MOL0     O34829   2.731   4.235  10.702 -0.1401  0.1737  0.2034
  978MOL0     C34830   2.616   4.257  10.636  0.4768  0.2698  1.0377
  978MOL0     C34831   2.615   4.322  10.511 -0.3070 -0.3037 -0.2664
  978MOL0     C34832   2.489   4.351  10.450  0.7893  1.0801  0.0497
  978MOL0     C34833   2.370   4.300  10.506  1.0767 -0.4101 -0.9417
  978MOL0     O34834   2.247   4.336  10.454 -0.3085 -0.3129 -0.3111
  978MOL0     C34835   2.230   4.439  10.356 -0.0223 -0.0658  0.4363
  978MOL0     C34836   2.090   4.488  10.348  0.0888  0.3728 -0.8227
  978MOL0     C34837   2.052   4.565  10.482 -0.0349 -0.1661 -0.2531
  978MOL0     C34838   2.116   4.711  10.490  0.3856 -0.0855 -0.2847
  978MOL0     C34839   2.074   4.787  10.611 -0.6002  0.1737 -0.1831
  978MOL0     C34840   2.140   4.928  10.615 -1.3025 -0.5360 -0.4439
  978MOL0     C34841   2.078   5.023  10.715 -0.3219  0.2774 -0.3483
  978MOL0     C34842   2.175   5.136  10.757 -0.0933 -0.0254 -0.0038
  978MOL0     N34843   2.213   5.211  10.637  0.4072 -0.6557  0.4396
  978MOL0     C34844   2.308   5.158  10.547 -0.4818 -0.7347  0.7668
  978MOL0     C34845   2.303   5.254  10.450 -0.1018  0.0771 -0.1939
  978MOL0     C34846   2.404   5.239  10.338 -0.9551 -0.3094 -0.2929
  978MOL0     C34847   2.343   5.199  10.207  0.3417 -0.5445  0.1693
  978MOL0     C34848   2.447   5.195  10.098  0.8527 -0.1116 -0.0494
  978MOL0     C34849   2.371   5.127   9.975 -0.5157 -0.4600 -0.5617
  978MOL0     O34850   2.437   5.134   9.849 -0.2493 -0.3443 -0.1164
  978MOL0     C34851   2.547   5.058   9.846  0.2934  0.6797 -0.0353
  978MOL0     C34852   2.547   4.930   9.788 -0.5852 -0.5826 -0.3688
  978MOL0     C34853   2.665   4.853   9.770  0.5433  0.7482  0.1850
  978MOL0     C34854   2.646   4.732   9.696 -0.0006  0.8802  0.0932
  978MOL0     C34855   2.786   4.906   9.829 -0.5200  0.7554 -0.4726
  978MOL0     C34856   2.919   4.822   9.845  0.9125 -0.8844 -0.0206
  978MOL0     O34857   3.013   4.876   9.925  0.2555 -0.1436 -1.1802
  978MOL0     C34858   3.138   4.816   9.921 -0.4953  0.3623 -0.6163
  978MOL0     C34859   3.177   4.758  10.041  0.5793  0.5219 -0.2692
  978MOL0     C34860   3.294   4.686  10.041 -0.7562 -0.0637  0.3060
  978MOL0     C34861   3.385   4.675   9.924  0.0217  0.3706  0.2445
  978MOL0     O34862   3.513   4.625   9.944  0.4848 -0.2854 -0.2100
  978MOL0     C34863   3.622   4.647   9.850 -0.4933 -0.2972  0.3412
  978MOL0     C34864   3.742   4.566   9.893 -0.4168 -0.4454  0.6002
  978MOL0     C34865   3.888   4.624   9.849 -0.2621  0.2108  0.2037
  978MOL0     C34866   4.003   4.571   9.943 -0.2485 -0.7816 -0.0674
  978MOL0     C34867   4.020   4.419   9.912  0.2682 -0.2186 -0.6600
  978MOL0     C34868   4.139   4.362   9.987 -0.0931 -0.2668 -0.8160
  978MOL0     C34869   4.151   4.388  10.141  0.3253  0.1628  0.5586
  978MOL0     C34870   4.260   4.302  10.203 -0.2505  0.4570 -0.3765
  978MOL0    Cl34871   4.271   4.334  10.374  0.0281 -0.0881 -0.0400
  978MOL0     C34872   3.336   4.738   9.811 -0.2539  0.3676 -0.0544
  978MOL0     C34873   3.215   4.802   9.806 -0.4598  0.3019  0.1902
  978MOL0     O34874   2.925   4.718   9.779 -0.0182  0.1106 -0.3601
  978MOL0     C34875   2.786   5.034   9.883 -0.3427  0.4907 -0.8175
  978MOL0     C34876   2.669   5.103   9.892 -0.6752 -0.0534  0.6003
  978MOL0     N34877   2.212   5.359  10.480  0.3242  0.6018 -0.2157
  978MOL0     N34878   2.157   5.328  10.590  0.4514  0.2476 -0.2053
  978MOL0     C34879   2.375   4.238  10.629 -0.3952 -0.0592 -0.0822
  978MOL0     C34880   2.498   4.219  10.699 -0.0968 -0.0379  0.4654
  978MOL0     C34881   2.955   4.107  10.713  0.6206 -0.5876  0.1872
  978MOL0     C34882   3.029   4.226  10.736  0.0256 -0.0076 -0.4667
  978MOL0     C34883   3.153   4.225  10.794 -0.1450  0.3999 -0.3450
  978MOL0     C34884   3.215   4.102  10.819  0.2913 -0.1028 -0.3042
  978MOL0     O34885   3.344   4.081  10.862 -0.2646  0.1820  0.4221
  978MOL0     C34886   3.396   4.167  10.971  0.3962  0.3102 -0.4148
  978MOL0     C34887   3.540   4.131  11.013 -0.6401 -0.6303 -0.4253
  978MOL0     C34888   3.578   4.202  11.147  0.3187  0.4953  0.1528
  978MOL0     C34889   3.722   4.158  11.190  0.1417 -0.2677  0.2925
  978MOL0     C34890   3.711   4.014  11.241  0.1915 -0.3822  0.2022
  978MOL0     C34891   3.714   3.894  11.256 -0.6682 -0.5466  0.4712
  978MOL0     C34892   3.149   3.985  10.788  0.2734 -0.2276 -0.6177
  978MOL0     C34893   3.020   3.980  10.733  0.0148 -0.4446 -0.3456
  978MOL0     C34894   2.975   3.844  10.690 -0.1717 -0.6268  0.1712
  978MOL0     H34895   2.711   4.341  10.462 -0.3463  0.0726 -0.2033
  978MOL0     H34896   2.486   4.382  10.346  1.9506 -3.9067 -1.7672
  978MOL0     H34897   2.253   4.394  10.259 -1.5440 -2.6857  1.2007
  978MOL0     H34898   2.290   4.529  10.371  0.2050  0.0970 -1.3466
  978MOL0     H34899   2.071   4.546  10.257  2.4006  2.2315 -0.2233
  978MOL0     H34900   2.028   4.399  10.331  1.7011 -0.6214 -1.7067
  978MOL0     H34901   1.943   4.573  10.491 -0.1833 -1.5116 -0.6637
  978MOL0     H34902   2.084   4.493  10.558  0.5007 -2.4036 -2.4666
  978MOL0     H34903   2.225   4.706  10.481  0.7440  4.4801 -0.8314
  978MOL0     H34904   2.069   4.762  10.405 -2.6006  1.3609  2.0188
  978MOL0     H34905   2.107   4.730  10.698  0.0927  1.5276  0.4757
  978MOL0     H34906   1.965   4.795  10.601 -0.4124 -0.0597 -3.5242
  978MOL0     H34907   2.242   4.922  10.654 -1.7750  3.0249  1.7908
  978MOL0     H34908   2.136   4.978  10.517  1.5840  0.7881  0.0043
  978MOL0     H34909   2.042   4.958  10.795 -0.5203 -0.0084 -0.6693
  978MOL0     H34910   1.991   5.080  10.680 -0.7952  0.2001  0.6539
  978MOL0     H34911   2.123   5.208  10.822 -0.0746 -0.3068  0.3285
  978MOL0     H34912   2.260   5.095  10.812  0.8226  0.8418 -0.7540
  978MOL0     H34913   2.374   5.071  10.550 -0.3430 -0.6008  2.4546
  978MOL0     H34914   2.484   5.171  10.370  0.5938  1.7603  0.5186
  978MOL0     H34915   2.460   5.333  10.331 -2.2807  1.0228  4.0713
  978MOL0     H34916   2.296   5.102  10.229 -0.6736  0.2651  1.7343
  978MOL0     H34917   2.268   5.271  10.173  0.0261 -1.2064 -0.6045
  978MOL0     H34918   2.471   5.297  10.067 -1.3637  0.5534  0.2985
  978MOL0     H34919   2.538   5.141  10.126  0.3130 -1.1993 -0.3647
  978MOL0     H34920   2.349   5.024  10.002 -1.7091  0.3882  2.0190
  978MOL0     H34921   2.272   5.174   9.965 -1.1652 -1.5716  0.4009
  978MOL0     H34922   2.453   4.891   9.751 -1.3235  0.1601  0.6638
  978MOL0     H34923   2.624   4.650   9.764 -0.4928  1.8789  1.1805
  978MOL0     H34924   2.739   4.715   9.640  0.4754  3.6036 -0.0942
  978MOL0     H34925   2.569   4.737   9.618  0.7734 -0.5808 -0.7983
  978MOL0     H34926   3.121   4.762  10.133  0.8400 -1.4160  0.0227
  978MOL0     H34927   3.321   4.633  10.132 -1.4151 -2.6560 -0.9245
  978MOL0     H34928   3.595   4.626   9.746 -0.6746  0.5117  0.2179
  978MOL0     H34929   3.644   4.754   9.854 -2.0426  0.0206  1.2270
  978MOL0     H34930   3.730   4.548  10.001 -0.8796  0.6570  0.7497
  978MOL0     H34931   3.720   4.470   9.845  0.6142 -1.0073  1.2176
  978MOL0     H34932   3.887   4.734   9.845 -1.1685  0.1654 -3.0491
  978MOL0     H34933   3.910   4.583   9.750  2.1219 -0.6946  1.0365
  978MOL0     H34934   3.961   4.585  10.043 -1.3633 -1.3041 -0.4432
  978MOL0     H34935   4.092   4.634   9.930 -0.7257  0.6224  2.7788
  978MOL0     H34936   3.926   4.374   9.944 -1.4976  4.6155  2.0418
  978MOL0     H34937   4.023   4.409   9.803 -1.1201  3.1444 -1.1369
  978MOL0     H34938   4.231   4.411   9.954  0.5680  2.2191  3.8139
  978MOL0     H34939   4.145   4.258   9.957  0.7504  0.2157 -2.4087
  978MOL0     H34940   4.057   4.352  10.182 -0.6270 -1.9443 -3.0510
  978MOL0     H34941   4.163   4.494  10.167 -0.7902 -0.2159  2.9005
  978MOL0     H34942   4.354   4.335  10.158  0.3590 -0.7276 -0.0275
  978MOL0     H34943   4.252   4.194  10.182 -1.1787  0.6310 -0.9803
  978MOL0     H34944   3.396   4.742   9.721  1.4718 -3.3787  0.7238
  978MOL0     H34945   3.190   4.817   9.701 -1.0243 -2.8510 -0.2278
  978MOL0     H34946   2.875   5.078   9.927  0.1663  1.0729 -2.3882
  978MOL0     H34947   2.693   5.204   9.926  0.3631  1.5016 -4.0656
  978MOL0     H34948   2.288   4.201  10.683 -0.2075  1.8968  1.6802
  978MOL0     H34949   2.483   4.164  10.792 -3.0205 -2.2286 -1.1174
  978MOL0     H34950   2.992   4.327  10.718  1.0229  1.2978  3.7667
  978MOL0     H34951   3.215   4.314  10.785  0.6685 -0.3502 -3.4031
  978MOL0     H34952   3.392   4.274  10.948  1.6497  0.5978  0.5686
  978MOL0     H34953   3.333   4.168  11.060  0.9586  2.3560  0.0348
  978MOL0     H34954   3.614   4.163  10.938 -0.6692  0.1652 -0.1305
  978MOL0     H34955   3.541   4.025  11.039 -2.6401 -0.1694  1.9149
  978MOL0     H34956   3.572   4.310  11.135  0.8989  0.8447  2.5269
  978MOL0     H34957   3.503   4.180  11.224  1.6986  1.8663  1.9732
  978MOL0     H34958   3.760   4.226  11.267 -1.4360  3.9271 -2.2838
  978MOL0     H34959   3.791   4.159  11.105 -1.3496 -0.4625 -0.9658
  978MOL0     H34960   3.699   3.788  11.263  0.9500 -0.7915  0.5758
  978MOL0     H34961   3.201   3.893  10.815  4.3196  2.0672  0.2337
  978MOL0     H34962   2.953   3.846  10.583  0.8786  2.0020 -0.0820
  978MOL0     H34963   3.055   3.770  10.697  0.3507 -0.2447 -1.3116
  978MOL0     H34964   2.887   3.819  10.748 -1.7504  1.2616 -1.2726
  979MOL0     O34965   3.568   7.428   4.445 -0.5913  0.2905 -0.1118
  979MOL0     C34966   3.637   7.531   4.416 -0.3734  0.3734  0.3747
  979MOL0     O34967   3.774   7.534   4.377 -0.3928 -0.0889  0.2505
  979MOL0     C34968   3.840   7.423   4.325  0.0761  0.3708 -0.1968
  979MOL0     C34969   3.776   7.319   4.261  1.3588 -0.1101 -0.8618
  979MOL0     C34970   3.848   7.211   4.216  0.7337  0.1100  1.1429
  979MOL0     C34971   3.990   7.212   4.216 -0.0248  0.3646 -0.3883
  979MOL0     O34972   4.056   7.100   4.158  0.2169  0.7386 -0.2430
  979MOL0     C34973   4.201   7.107   4.152  0.0130  0.6594  0.2440
  979MOL0     C34974   4.254   7.068   4.290 -0.0369 -0.6908 -0.2729
  979MOL0     C34975   4.201   6.928   4.319 -0.1446 -0.1185 -0.3806
  979MOL0     C34976   4.283   6.866   4.441 -0.1209 -0.9570 -0.1083
  979MOL0     C34977   4.233   6.727   4.478 -0.6339 -0.3770  0.8567
  979MOL0     C34978   4.259   6.685   4.622  0.2701  0.6534  0.7537
  979MOL0     C34979   4.258   6.532   4.644 -0.0591 -0.3281 -0.1757
  979MOL0     C34980   4.268   6.508   4.796 -0.0585  0.2745  0.2886
  979MOL0     N34981   4.404   6.537   4.839 -0.0793 -0.1198 -0.7788
  979MOL0     C34982   4.517   6.469   4.807 -0.9606 -0.7488 -0.0582
  979MOL0     C34983   4.616   6.533   4.873 -0.3291 -0.0939 -0.3192
  979MOL0     C34984   4.760   6.502   4.860 -0.4430  0.0000 -0.5578
  979MOL0     C34985   4.858   6.603   4.920  1.8438 -0.4491 -0.1912
  979MOL0     C34986   5.004   6.560   4.911 -0.4447  0.4640 -0.6455
  979MOL0     C34987   5.070   6.562   5.047  0.3014 -0.1556  0.4521
  979MOL0     O34988   5.204   6.514   5.036  0.4145  0.0360 -0.2481
  979MOL0     C34989   5.299   6.596   4.977  0.1945  0.6335 -0.2256
  979MOL0     C34990   5.340   6.721   5.028  0.0262 -0.0061  0.2005
  979MOL0     C34991   5.445   6.795   4.968  0.6022  0.5591  0.2116
  979MOL0     C34992   5.485   6.914   5.034 -0.9380 -0.1345  0.3016
  979MOL0     C34993   5.505   6.735   4.846  0.0314  0.2626  0.1243
  979MOL0     C34994   5.634   6.789   4.796 -0.5530  0.0481 -0.1303
  979MOL0     O34995   5.707   6.705   4.721  0.1833 -0.4041 -0.3254
  979MOL0     C34996   5.833   6.736   4.668 -0.1046 -0.3532  0.5877
  979MOL0     C34997   5.935   6.794   4.751  0.2186 -0.0095  0.5573
  979MOL0     C34998   6.070   6.809   4.703  0.6347 -0.0923 -0.1815
  979MOL0     C34999   6.099   6.773   4.570 -0.1448  1.1181 -0.1772
  979MOL0     O35000   6.227   6.769   4.513 -0.6092 -0.5300 -0.5971
  979MOL0     C35001   6.336   6.742   4.606 -0.1820  0.2719 -0.0246
  979MOL0     C35002   6.473   6.728   4.534 -0.5623 -0.0855  0.3631
  979MOL0     C35003   6.456   6.619   4.432  0.5842  0.3827 -0.3817
  979MOL0     C35004   6.597   6.587   4.391  0.0016  0.4804 -0.9621
  979MOL0     C35005   6.594   6.462   4.295  0.1578  0.2955  0.0085
  979MOL0     C35006   6.509   6.478   4.166  0.4571  0.6390  0.1629
  979MOL0     C35007   6.556   6.610   4.099  0.7453 -0.1130  1.0631
  979MOL0     C35008   6.504   6.626   3.960 -0.0938 -0.9627  0.5159
  979MOL0    Cl35009   6.326   6.607   3.960 -0.0947  0.3322  0.2807
  979MOL0     C35010   5.995   6.716   4.491  0.3794  0.6345  0.4098
  979MOL0     C35011   5.866   6.695   4.540 -0.0378 -0.2851  0.1084
  979MOL0     O35012   5.664   6.905   4.816 -0.0100  0.1391 -0.3583
  979MOL0     C35013   5.455   6.612   4.796  0.2596  0.0779 -0.3361
  979MOL0     C35014   5.351   6.549   4.861 -0.3400 -0.5890 -0.2095
  979MOL0     N35015   4.564   6.640   4.940 -0.2923  0.2511 -0.0655
  979MOL0     N35016   4.440   6.644   4.922 -0.3641 -0.3849  0.5143
  979MOL0     C35017   4.055   7.317   4.288  0.0074 -0.5964  0.7949
  979MOL0     C35018   3.980   7.423   4.336 -0.1785 -0.5890 -0.6223
  979MOL0     C35019   3.575   7.655   4.457 -0.2829  0.4405 -0.0406
  979MOL0     C35020   3.651   7.744   4.536 -0.7907 -1.2327  0.8075
  979MOL0     C35021   3.589   7.864   4.575  0.6046 -0.3927  0.5677
  979MOL0     C35022   3.453   7.899   4.542  0.1826 -0.0191  0.6069
  979MOL0     O35023   3.387   8.008   4.586  0.7037  0.3365  0.5456
  979MOL0     C35024   3.445   8.091   4.685  0.2577  0.8156  0.5382
  979MOL0     C35025   3.348   8.196   4.740  0.0759  0.2164  0.2133
  979MOL0     C35026   3.314   8.310   4.639 -0.1171  1.2524  0.0980
  979MOL0     C35027   3.292   8.264   4.488 -0.3262  0.2566 -1.2439
  979MOL0     C35028   3.261   8.398   4.425 -0.5625  0.4582 -0.6155
  979MOL0     C35029   3.215   8.497   4.385 -0.7805 -0.7430 -0.4239
  979MOL0     C35030   3.392   7.820   4.454 -0.3633 -0.8246  0.3721
  979MOL0     C35031   3.456   7.711   4.400 -0.3229  0.5176  0.4617
  979MOL0     C35032   3.379   7.633   4.299 -0.2569  0.5169 -0.3157
  979MOL0     H35033   3.668   7.311   4.260  1.2177  0.3977  1.9681
  979MOL0     H35034   3.791   7.129   4.174  3.0780 -0.6269 -0.8926
  979MOL0     H35035   4.222   7.211   4.124 -1.6827  0.9791  0.0035
  979MOL0     H35036   4.248   7.051   4.071  0.6916  2.1970 -0.4677
  979MOL0     H35037   4.362   7.066   4.300  0.1316  1.4451 -1.1220
  979MOL0     H35038   4.207   7.136   4.361 -0.2420 -1.8023  0.6848
  979MOL0     H35039   4.097   6.928   4.353 -0.9491 -0.6307 -2.6837
  979MOL0     H35040   4.212   6.863   4.233  1.9984 -0.5939  0.1996
  979MOL0     H35041   4.390   6.869   4.416  0.1225  0.6313  0.9927
  979MOL0     H35042   4.258   6.939   4.519  0.8996  0.7420 -1.2968
  979MOL0     H35043   4.284   6.656   4.413  1.2207  0.6761  1.0921
  979MOL0     H35044   4.125   6.729   4.461 -0.2623 -0.6827 -2.1163
  979MOL0     H35045   4.357   6.713   4.663  0.6246 -0.1577  0.4753
  979MOL0     H35046   4.189   6.744   4.682 -1.4172  0.0266 -0.5507
  979MOL0     H35047   4.336   6.485   4.583 -0.4280 -0.4933 -0.5245
  979MOL0     H35048   4.161   6.493   4.613  0.0604  0.9449 -2.3590
  979MOL0     H35049   4.195   6.565   4.854 -1.1176 -0.8672  0.1018
  979MOL0     H35050   4.258   6.401   4.813  1.8529  0.2746  1.9274
  979MOL0     H35051   4.539   6.395   4.731  1.1035  2.4227 -2.8375
  979MOL0     H35052   4.796   6.470   4.761  2.4051 -0.6767  0.5847
  979MOL0     H35053   4.775   6.414   4.923  1.5774  0.2433 -0.6357
  979MOL0     H35054   4.843   6.692   4.859  0.5187 -0.4975  0.0390
  979MOL0     H35055   4.831   6.630   5.022 -1.5857  1.7080 -1.5128
  979MOL0     H35056   5.023   6.455   4.887  2.0191  0.5084  0.7423
  979MOL0     H35057   5.053   6.617   4.832  0.6816  0.2993 -0.0897
  979MOL0     H35058   5.069   6.664   5.085  0.2569  0.0413 -0.0753
  979MOL0     H35059   5.019   6.493   5.115 -1.8730 -0.1364 -1.0498
  979MOL0     H35060   5.288   6.746   5.120 -1.3075  1.7055 -0.9745
  979MOL0     H35061   5.593   6.922   5.052 -0.4473 -0.1309 -2.1798
  979MOL0     H35062   5.442   6.920   5.134  0.6181  3.9544  0.9244
  979MOL0     H35063   5.451   7.003   4.980  0.0724  0.2590  0.2892
  979MOL0     H35064   5.898   6.824   4.849 -1.1047  2.3882 -0.5937
  979MOL0     H35065   6.142   6.852   4.772  0.4502 -1.3065  0.8029
  979MOL0     H35066   6.332   6.822   4.681  0.2725  0.0756  0.2103
  979MOL0     H35067   6.306   6.653   4.662 -0.6806  0.4148 -0.0602
  979MOL0     H35068   6.502   6.823   4.487 -0.4372  0.0173  0.6422
  979MOL0     H35069   6.546   6.698   4.610 -0.7935  0.5735  0.8640
  979MOL0     H35070   6.384   6.640   4.352 -2.3791 -0.8970  1.7441
  979MOL0     H35071   6.413   6.534   4.486  0.4263  0.9645  0.4364
  979MOL0     H35072   6.654   6.568   4.482 -1.1145  0.9033 -0.1422
  979MOL0     H35073   6.645   6.677   4.353  5.9982 -0.6034  2.7740
  979MOL0     H35074   6.697   6.434   4.269  1.6146  0.3657  4.8648
  979MOL0     H35075   6.565   6.369   4.344  4.8329 -0.2256  2.3754
  979MOL0     H35076   6.403   6.471   4.190  0.8022 -0.6880  1.4481
  979MOL0     H35077   6.526   6.387   4.108  1.5111 -0.8391  2.5967
  979MOL0     H35078   6.666   6.607   4.104  0.6771 -1.1363  2.2756
  979MOL0     H35079   6.520   6.693   4.159  0.0793 -0.9281  1.8114
  979MOL0     H35080   6.546   6.554   3.890 -0.4696 -2.1786  1.5038
  979MOL0     H35081   6.542   6.718   3.915  0.4939 -0.5342  1.8474
  979MOL0     H35082   6.015   6.696   4.387 -0.2187  0.9750  0.2243
  979MOL0     H35083   5.784   6.657   4.481  0.8637  1.1398 -2.2300
  979MOL0     H35084   5.508   6.559   4.717  3.1103  2.3220 -0.1230
  979MOL0     H35085   5.313   6.457   4.818  1.2446 -0.0573 -2.9975
  979MOL0     H35086   4.162   7.330   4.298 -0.0627 -0.6528  1.7305
  979MOL0     H35087   4.038   7.500   4.386  1.1723 -1.0628 -1.4118
  979MOL0     H35088   3.758   7.728   4.548 -0.6520  0.3027  1.9715
  979MOL0     H35089   3.649   7.930   4.637 -1.4125 -1.5098  3.9834
  979MOL0     H35090   3.475   8.029   4.771  2.9892  1.8199  0.4143
  979MOL0     H35091   3.544   8.127   4.654  1.0669 -0.7116  1.1994
  979MOL0     H35092   3.403   8.238   4.825  1.7486  1.6399 -1.4754
  979MOL0     H35093   3.255   8.143   4.763  0.1347 -0.6888 -1.4464
  979MOL0     H35094   3.213   8.349   4.654  0.0709  2.0289 -0.5708
  979MOL0     H35095   3.388   8.390   4.647  2.0823 -0.8152  2.4374
  979MOL0     H35096   3.211   8.190   4.486 -1.0151  0.9019  0.5309
  979MOL0     H35097   3.374   8.226   4.428 -1.5452 -1.4971 -1.8793
  979MOL0     H35098   3.185   8.594   4.351 -2.3000 -0.8361  0.5374
  979MOL0     H35099   3.297   7.856   4.414  0.7989  0.1328 -1.7127
  979MOL0     H35100   3.281   7.599   4.332 -0.3050 -0.6046 -1.5407
  979MOL0     H35101   3.360   7.700   4.215 -3.1437 -1.4632 -1.3872
  979MOL0     H35102   3.431   7.547   4.256 -0.7463  0.5264 -0.9329
  980MOL0     O35103   1.108  10.648   9.108  0.0354 -0.6488  0.5319
  980MOL0     C35104   1.140  10.572   9.019 -0.1817  0.5487 -0.3530
  980MOL0     O35105   1.266  10.523   9.002 -0.7002  0.5988 -0.6351
  980MOL0     C35106   1.362  10.510   9.102 -1.1555 -0.7992  0.0531
  980MOL0     C35107   1.489  10.562   9.079  0.4515 -0.3234  0.4349
  980MOL0     C35108   1.599  10.540   9.168 -0.3377  0.9104  0.8038
  980MOL0     C35109   1.578  10.461   9.281 -0.3073  0.2068 -0.7372
  980MOL0     O35110   1.685  10.427   9.361 -0.2332 -0.1951  0.2835
  980MOL0     C35111   1.808  10.393   9.291  0.9663 -0.4015 -0.1702
  980MOL0     C35112   1.883  10.298   9.379 -0.5295 -1.3136  0.8301
  980MOL0     C35113   1.999  10.217   9.305  0.0460  0.2292  0.2722
  980MOL0     C35114   2.129  10.295   9.295  0.5445  0.1281  0.3591
  980MOL0     C35115   2.227  10.196   9.232 -0.0355 -0.3252 -1.0175
  980MOL0     C35116   2.358  10.273   9.208 -0.0250  0.6531  1.2133
  980MOL0     C35117   2.416  10.359   9.317 -0.7658  0.0755 -0.1486
  980MOL0     C35118   2.456  10.275   9.440  0.0442 -0.9830 -1.0236
  980MOL0     N35119   2.543  10.173   9.406 -0.7335  0.1622 -0.6270
  980MOL0     C35120   2.539  10.041   9.436  0.2581  0.1005 -0.0113
  980MOL0     C35121   2.660   9.986   9.399  0.3589 -1.0765  0.2736
  980MOL0     C35122   2.705   9.848   9.428  0.2966 -0.6153  0.0089
  980MOL0     C35123   2.799   9.795   9.316 -0.4746  0.1230  0.5316
  980MOL0     C35124   2.839   9.646   9.320  0.1671  0.3409 -0.6158
  980MOL0     C35125   2.936   9.604   9.212 -0.1672  0.1701 -0.7547
  980MOL0     O35126   2.939   9.461   9.194  0.6088  0.0404 -0.5372
  980MOL0     C35127   3.038   9.395   9.135 -0.6201 -0.2148 -0.2891
  980MOL0     C35128   3.164   9.449   9.101 -0.2720 -0.9984  0.3834
  980MOL0     C35129   3.269   9.380   9.046 -0.0422 -0.1644  0.0788
  980MOL0     C35130   3.388   9.472   9.007 -0.2020  0.4345  0.5038
  980MOL0     C35131   3.258   9.238   9.026  0.8004 -0.3581  0.1741
  980MOL0     C35132   3.358   9.150   8.961 -0.1599 -0.3407 -0.1519
  980MOL0     O35133   3.353   9.016   9.003  0.1995  0.1466  0.3370
  980MOL0     C35134   3.456   8.936   8.957  0.0205  1.4312  0.2505
  980MOL0     C35135   3.588   8.963   9.003  0.2024 -1.1477  0.6677
  980MOL0     C35136   3.690   8.864   8.985  0.6755 -0.0387  0.0660
  980MOL0     C35137   3.668   8.758   8.902 -0.4878 -0.5554 -1.1978
  980MOL0     O35138   3.770   8.664   8.903  0.2134  0.8178 -0.5031
  980MOL0     C35139   3.768   8.540   8.829  0.7732 -0.3382 -0.2763
  980MOL0     C35140   3.743   8.431   8.923  1.2134 -0.2287  0.4345
  980MOL0     C35141   3.849   8.425   9.046  0.8369  0.1848  0.4719
  980MOL0     C35142   3.972   8.338   9.009  1.0097 -0.3005 -0.2309
  980MOL0     C35143   4.072   8.341   9.120  0.9423 -0.2969  0.6212
  980MOL0     C35144   4.198   8.255   9.096  0.4587  1.1154 -0.0540
  980MOL0     C35145   4.285   8.252   9.226 -0.1467 -0.1248  0.0255
  980MOL0     C35146   4.440   8.235   9.197 -0.4655 -0.3339  0.0361
  980MOL0    Cl35147   4.535   8.222   9.348 -0.2167 -0.0909  0.4142
  980MOL0     C35148   3.543   8.736   8.846 -1.1227  0.3380 -0.2743
  980MOL0     C35149   3.434   8.820   8.875  1.1040 -0.0282  0.0614
  980MOL0     O35150   3.440   9.195   8.870  0.3308 -0.8352 -0.2993
  980MOL0     C35151   3.130   9.178   9.061 -0.7318  0.7221 -0.2588
  980MOL0     C35152   3.028   9.260   9.112 -0.4871  0.1508  0.3236
  980MOL0     N35153   2.734  10.082   9.340  0.0995 -0.0812  0.0409
  980MOL0     N35154   2.664  10.195   9.343 -0.0347 -0.7563 -0.0127
  980MOL0     C35155   1.446  10.428   9.312  1.5125  0.2295  0.2920
  980MOL0     C35156   1.338  10.453   9.228  0.8166 -0.4444 -0.3846
  980MOL0     C35157   1.054  10.545   8.909 -0.0075 -0.5389  0.5162
  980MOL0     C35158   1.092  10.450   8.814  0.0221  0.3441 -0.1310
  980MOL0     C35159   1.014  10.413   8.705 -0.6323  0.4160 -0.5803
  980MOL0     C35160   0.895  10.473   8.681  0.0724 -0.4187 -0.2267
  980MOL0     O35161   0.807  10.434   8.588 -0.4639 -0.7200  1.0014
  980MOL0     C35162   0.827  10.322   8.499  0.0375  0.2384 -0.1815
  980MOL0     C35163   0.741  10.351   8.376  0.2651 -0.0593 -0.7767
  980MOL0     C35164   0.589  10.370   8.409 -0.5999  0.8940  0.0721
  980MOL0     C35165   0.509  10.446   8.307  0.5365 -0.2636  0.7613
  980MOL0     C35166   0.366  10.411   8.312 -0.0119 -0.0555  0.9156
  980MOL0     C35167   0.248  10.378   8.318 -0.6209 -0.4291 -0.6307
  980MOL0     C35168   0.854  10.576   8.765  0.5814  1.0959  0.1781
  980MOL0     C35169   0.922  10.607   8.890 -0.0113  0.3553  0.0567
  980MOL0     C35170   0.856  10.684   8.996 -0.9665  0.3758  0.6464
  980MOL0     H35171   1.516  10.618   8.991  0.2751  0.8547  1.1000
  980MOL0     H35172   1.700  10.570   9.139  0.3135 -3.6606 -2.8431
  980MOL0     H35173   1.883  10.472   9.291  0.1481  0.5275  3.2563
  980MOL0     H35174   1.788  10.355   9.190 -3.4072 -0.2494  0.4453
  980MOL0     H35175   1.917  10.361   9.462 -0.5024 -0.1171 -0.0582
  980MOL0     H35176   1.810  10.224   9.414  0.3324 -1.1892  3.0490
  980MOL0     H35177   2.035  10.138   9.370  1.6709  2.4513  2.2330
  980MOL0     H35178   1.962  10.172   9.212 -2.1656  1.9108  0.2436
  980MOL0     H35179   2.120  10.381   9.228 -0.2657  0.1720  0.5242
  980MOL0     H35180   2.167  10.327   9.393  3.3814  0.7326 -0.8364
  980MOL0     H35181   2.207  10.149   9.135  1.5716 -2.4899 -0.3830
  980MOL0     H35182   2.249  10.116   9.303 -2.5253  0.9221  1.3393
  980MOL0     H35183   2.431  10.202   9.168  0.5461  1.0126  1.6072
  980MOL0     H35184   2.327  10.339   9.126  0.4908  0.1435  0.5957
  980MOL0     H35185   2.350  10.435   9.360  0.3215 -0.2273  2.2017
  980MOL0     H35186   2.511  10.405   9.291 -0.8748  1.3279  1.5127
  980MOL0     H35187   2.514  10.339   9.507  1.4213 -1.9674 -1.2472
  980MOL0     H35188   2.369  10.249   9.501  0.6704 -0.8144 -0.0433
  980MOL0     H35189   2.460   9.980   9.479 -0.0628  0.9524  0.6117
  980MOL0     H35190   2.614   9.787   9.434  0.4599 -0.7344  3.5609
  980MOL0     H35191   2.751   9.846   9.527  3.7006  2.1392 -1.3472
  980MOL0     H35192   2.740   9.805   9.224 -2.4995 -0.5218  1.6962
  980MOL0     H35193   2.890   9.855   9.310 -0.0958 -0.5365 -0.7899
  980MOL0     H35194   2.877   9.626   9.420 -0.8898 -0.7987 -0.4304
  980MOL0     H35195   2.749   9.586   9.309  0.5836 -1.4021  3.7430
  980MOL0     H35196   2.911   9.644   9.114  0.6271  0.2821 -0.9217
  980MOL0     H35197   3.031   9.648   9.245  0.3620 -1.7024  0.4326
  980MOL0     H35198   3.166   9.555   9.122  0.8226 -0.9726  0.1894
  980MOL0     H35199   3.420   9.444   8.906 -0.9386 -0.6857  0.5570
  980MOL0     H35200   3.468   9.455   9.080  0.1964  1.8419  0.4201
  980MOL0     H35201   3.360   9.577   9.004 -2.3220 -0.1019 -0.9564
  980MOL0     H35202   3.603   9.042   9.075  3.7083 -0.5202 -0.5544
  980MOL0     H35203   3.791   8.861   9.025 -0.0343  0.1070  1.9393
  980MOL0     H35204   3.701   8.555   8.744 -1.3501  1.8387  1.6293
  980MOL0     H35205   3.867   8.523   8.785  1.5520  2.0830  0.3843
  980MOL0     H35206   3.640   8.447   8.956  0.8529  1.1262 -1.2143
  980MOL0     H35207   3.753   8.338   8.866  0.6918 -0.3254  0.4932
  980MOL0     H35208   3.800   8.382   9.135  2.0088  1.2505  1.6780
  980MOL0     H35209   3.884   8.526   9.069  0.2785  1.1910 -2.6572
  980MOL0     H35210   4.009   8.394   8.922  0.4513  0.0537 -0.2481
  980MOL0     H35211   3.950   8.233   8.987  2.1460 -1.1690  2.4410
  980MOL0     H35212   4.102   8.445   9.133  1.8997 -0.1930 -1.8235
  980MOL0     H35213   4.015   8.303   9.205 -0.8120 -0.9728 -0.7901
  980MOL0     H35214   4.258   8.283   9.009  0.3666 -0.7460 -0.7722
  980MOL0     H35215   4.168   8.153   9.070  3.5269 -0.2657  1.4045
  980MOL0     H35216   4.257   8.172   9.295  1.6995 -0.6009  0.2683
  980MOL0     H35217   4.271   8.347   9.278 -4.3138 -0.1954 -0.6533
  980MOL0     H35218   4.477   8.323   9.144  1.6703 -0.3519  1.4000
  980MOL0     H35219   4.446   8.146   9.134  0.1214  0.9200 -1.7526
  980MOL0     H35220   3.525   8.639   8.800  2.3804 -1.2851  1.4315
  980MOL0     H35221   3.333   8.803   8.840  0.6554  1.1649  0.7091
  980MOL0     H35222   3.107   9.074   9.044  1.7848 -0.0774  0.8304
  980MOL0     H35223   2.944   9.199   9.146  0.9628 -0.1004  3.9431
  980MOL0     H35224   1.417  10.388   9.409  0.9560  0.0940  0.0750
  980MOL0     H35225   1.240  10.410   9.245  0.6491 -1.6418 -3.5558
  980MOL0     H35226   1.188  10.400   8.825  0.5833  1.1185 -1.2328
  980MOL0     H35227   1.052  10.366   8.615 -2.5259 -1.0976 -0.6663
  980MOL0     H35228   0.929  10.312   8.462  0.1811  1.9115 -0.3290
  980MOL0     H35229   0.794  10.236   8.559 -0.4535  0.3056 -0.3438
  980MOL0     H35230   0.749  10.263   8.312 -3.2989 -0.4964 -0.8185
  980MOL0     H35231   0.784  10.439   8.327  2.2794 -1.5915 -1.9301
  980MOL0     H35232   0.539  10.274   8.425 -0.9974  0.6960 -2.0429
  980MOL0     H35233   0.582  10.431   8.500 -0.5438  1.5047 -0.3295
  980MOL0     H35234   0.544  10.417   8.208  0.3827  0.0990  0.5993
  980MOL0     H35235   0.507  10.554   8.323  0.3450 -0.2176  0.4301
  980MOL0     H35236   0.150  10.335   8.326 -1.3665  1.4180  1.4371
  980MOL0     H35237   0.755  10.619   8.754  0.1226  0.1126  0.3545
  980MOL0     H35238   0.864  10.634   9.093  2.9297 -2.2236 -0.7744
  980MOL0     H35239   0.917  10.774   9.002  2.6505 -1.9319  1.0493
  980MOL0     H35240   0.751  10.709   8.976 -0.6797  0.1206 -1.4116
  981MOL0     O35241   8.305   9.641   0.281  0.3367 -0.0998  0.1355
  981MOL0     C35242   8.290   9.525   0.238 -0.7226  0.1162 -0.3486
  981MOL0     O35243   8.395   9.442   0.201  0.0348  0.3872  0.4220
  981MOL0     C35244   8.517   9.482   0.231 -1.0999 -0.3401  0.5571
  981MOL0     C35245   8.563   9.504   0.366 -0.6963  0.3238 -0.4000
  981MOL0     C35246   8.691   9.542   0.395  0.1617 -0.3508  0.1519
  981MOL0     C35247   8.779   9.591   0.292  0.4620  0.3268  0.2607
  981MOL0     O35248   8.901   9.642   0.326 -0.4425 -1.1646  0.7654
  981MOL0     C35249   8.920   9.700   0.454  0.4895  0.3923 -0.4028
  981MOL0     C35250   9.033   9.802   0.457  0.2924 -0.0811  0.3501
  981MOL0     C35251   9.178   9.740   0.421  0.2238 -0.3258  0.0281
  981MOL0     C35252   9.287   9.835   0.482 -0.2810 -0.2919  0.3116
  981MOL0     C35253   9.425   9.778   0.475 -0.4142 -0.0709  0.5365
  981MOL0     C35254   9.462   9.730   0.332  0.4662  0.5359  0.1477
  981MOL0     C35255   9.604   9.678   0.309 -0.2153  0.0391 -0.3198
  981MOL0     C35256   9.655   9.593   0.419 -0.3563  0.7613 -0.5411
  981MOL0     N35257   9.590   9.468   0.436 -0.6088  0.0048  0.0196
  981MOL0     C35258   9.626   9.357   0.368 -0.0526 -0.1642  0.0717
  981MOL0     C35259   9.556   9.261   0.425  0.5061 -0.4925 -0.5457
  981MOL0     C35260   9.545   9.116   0.388  0.3052 -0.6546  0.1590
  981MOL0     C35261   9.396   9.074   0.364  0.5928  0.2848 -0.6405
  981MOL0     C35262   9.393   8.936   0.300 -0.4705  0.1903  0.1257
  981MOL0     C35263   9.249   8.887   0.281  0.3416  0.1691 -0.0857
  981MOL0     O35264   9.248   8.756   0.219  0.3168 -0.3119 -0.1758
  981MOL0     C35265   9.148   8.720   0.129 -0.2682 -0.3947 -0.3727
  981MOL0     C35266   9.026   8.782   0.124 -0.3247  0.0983  0.5825
  981MOL0     C35267   8.922   8.735   0.042  0.1846  0.5593 -0.1937
  981MOL0     C35268   8.790   8.803   0.043 -0.4271  0.1460 -0.1578
  981MOL0     C35269   8.949   8.640  -0.055 -0.0613 -0.1013 -0.4639
  981MOL0     C35270   8.845   8.591  -0.156 -0.7982  0.3201 -0.3215
  981MOL0     O35271   8.757   8.677  -0.223 -0.9343  0.4566  0.5527
  981MOL0     C35272   8.729   8.658  -0.361  0.5306  0.4494 -0.4324
  981MOL0     C35273   8.790   8.564  -0.442  0.3899 -0.3592  0.3473
  981MOL0     C35274   8.745   8.560  -0.575 -0.1912  0.2001 -0.3067
  981MOL0     C35275   8.639   8.632  -0.634 -0.6733 -0.5727 -0.7625
  981MOL0     O35276   8.598   8.614  -0.763  0.5943  0.8874 -0.3931
  981MOL0     C35277   8.581   8.728  -0.843  0.2728  0.3536  0.2159
  981MOL0     C35278   8.715   8.805  -0.860 -0.0417  0.5951 -0.1562
  981MOL0     C35279   8.818   8.707  -0.917  0.5197  0.4732 -0.1339
  981MOL0     C35280   8.962   8.759  -0.918  0.0030 -0.0604 -0.7748
  981MOL0     C35281   9.063   8.642  -0.913  0.1246 -0.3645 -0.1402
  981MOL0     C35282   9.081   8.583  -1.055 -1.3529  0.5308 -0.8883
  981MOL0     C35283   9.216   8.516  -1.065 -0.7570 -0.5035 -0.2565
  981MOL0     C35284   9.221   8.431  -1.194 -0.7189 -0.1142 -0.4069
  981MOL0    Cl35285   9.224   8.540  -1.334 -0.4941 -0.0296 -0.0835
  981MOL0     C35286   8.580   8.726  -0.537 -0.4636 -0.0601  0.1836
  981MOL0     C35287   8.630   8.738  -0.408 -0.1444  0.0016 -0.2788
  981MOL0     O35288   8.854   8.474  -0.179 -0.1010  0.2803  0.0521
  981MOL0     C35289   9.082   8.584  -0.052  1.4195  0.4413 -0.0024
  981MOL0     C35290   9.174   8.612   0.050  1.0158  0.1211  0.0589
  981MOL0     N35291   9.484   9.322   0.525  0.0014 -0.1366 -0.4337
  981MOL0     N35292   9.497   9.442   0.525  1.5007 -0.5484  0.0820
  981MOL0     C35293   8.729   9.587   0.164 -0.2395 -0.5365  0.1203
  981MOL0     C35294   8.605   9.537   0.128  0.9190 -0.0566  0.0134
  981MOL0     C35295   8.148   9.480   0.217  0.5100 -0.8297 -0.3721
  981MOL0     C35296   8.057   9.577   0.168 -0.0563 -1.4600 -0.0764
  981MOL0     C35297   7.929   9.549   0.147  0.2295 -0.4262  0.3499
  981MOL0     C35298   7.885   9.412   0.155 -0.0496  0.0270  0.1132
  981MOL0     O35299   7.755   9.367   0.138  0.3207 -0.2417  0.0462
  981MOL0     C35300   7.674   9.454   0.069  0.5001 -0.2086 -0.1857
  981MOL0     C35301   7.531   9.411   0.090  0.0481  0.2719  0.1276
  981MOL0     C35302   7.486   9.388   0.243 -0.4261  0.4062 -0.0558
  981MOL0     C35303   7.352   9.319   0.260  0.4545 -0.9721  0.8267
  981MOL0     C35304   7.249   9.381   0.182 -0.1746 -0.4173  0.2502
  981MOL0     C35305   7.174   9.445   0.106  0.1928 -0.1910 -0.1385
  981MOL0     C35306   7.978   9.318   0.190  1.0170  0.2690 -0.5488
  981MOL0     C35307   8.113   9.343   0.217  0.1287 -0.3317 -0.3887
  981MOL0     C35308   8.204   9.218   0.238 -0.6639 -0.4507 -0.0238
  981MOL0     H35309   8.502   9.461   0.444  3.1115  0.3870  2.9287
  981MOL0     H35310   8.730   9.540   0.497  0.9769  1.6538 -0.0799
  981MOL0     H35311   8.954   9.628   0.530  2.0532  0.9375 -0.5535
  981MOL0     H35312   8.832   9.755   0.489  0.8473  0.9135 -0.3211
  981MOL0     H35313   9.008   9.896   0.407 -3.0180  0.5021  2.7997
  981MOL0     H35314   9.041   9.845   0.557 -1.3828  2.8361 -0.6467
  981MOL0     H35315   9.180   9.644   0.474 -1.6642 -1.0601 -1.1223
  981MOL0     H35316   9.185   9.714   0.315 -0.4443 -0.3894 -0.0024
  981MOL0     H35317   9.282   9.927   0.424  1.9266  0.7546  1.6162
  981MOL0     H35318   9.256   9.869   0.581  0.5792  1.0590  0.1433
  981MOL0     H35319   9.441   9.702   0.552  0.5849  2.7702  3.3350
  981MOL0     H35320   9.496   9.855   0.504 -0.2374 -0.6580  1.7186
  981MOL0     H35321   9.406   9.639   0.307  1.8592 -0.0209 -1.1682
  981MOL0     H35322   9.453   9.806   0.254  1.4111 -0.8220 -1.3539
  981MOL0     H35323   9.675   9.760   0.291  1.3932 -1.2403 -0.0342
  981MOL0     H35324   9.601   9.616   0.219  1.1686 -0.0635 -0.3245
  981MOL0     H35325   9.759   9.569   0.398 -0.2314 -0.5151  1.2832
  981MOL0     H35326   9.647   9.653   0.511  0.9383  1.4107 -0.8340
  981MOL0     H35327   9.694   9.357   0.284  2.1391  0.2071  1.7475
  981MOL0     H35328   9.587   9.051   0.465 -0.2084  0.6640  1.6155
  981MOL0     H35329   9.601   9.090   0.297  3.8697 -0.1704  2.0429
  981MOL0     H35330   9.333   9.079   0.453  1.5287  0.5727  0.0147
  981MOL0     H35331   9.351   9.139   0.288  0.1075 -0.0513 -0.6471
  981MOL0     H35332   9.442   8.934   0.202 -4.0393 -3.4548 -1.9131
  981MOL0     H35333   9.444   8.857   0.356 -0.1971 -1.0608 -1.7933
  981MOL0     H35334   9.203   8.882   0.380 -1.2787  2.5394 -0.6250
  981MOL0     H35335   9.204   8.970   0.226  0.5208  0.7441  0.6219
  981MOL0     H35336   9.011   8.868   0.189  1.7934  0.6449  0.4218
  981MOL0     H35337   8.778   8.880  -0.034  1.4237  1.0837  0.4276
  981MOL0     H35338   8.781   8.858   0.137  2.1172  0.0618  0.2113
  981MOL0     H35339   8.707   8.734   0.030 -0.8450  0.8479 -1.4113
  981MOL0     H35340   8.881   8.511  -0.414 -0.3370 -2.1214 -0.4823
  981MOL0     H35341   8.806   8.488  -0.629 -1.6213 -1.5032  0.2125
  981MOL0     H35342   8.554   8.701  -0.946  0.6036  0.0119  0.2141
  981MOL0     H35343   8.520   8.805  -0.796 -0.6032 -0.2541  0.1000
  981MOL0     H35344   8.704   8.887  -0.931 -3.3417  1.3114  0.9837
  981MOL0     H35345   8.766   8.833  -0.767  2.0075  0.5659 -1.2127
  981MOL0     H35346   8.786   8.684  -1.019 -0.9207  0.9031  0.1997
  981MOL0     H35347   8.823   8.612  -0.863  1.1482  2.1326  3.0210
  981MOL0     H35348   8.994   8.818  -0.831  1.8391 -3.2439  0.8882
  981MOL0     H35349   8.986   8.821  -1.005  0.5779  0.8033 -0.0210
  981MOL0     H35350   9.153   8.692  -0.876 -1.1948  1.9353  0.1268
  981MOL0     H35351   9.028   8.564  -0.844  0.1987 -1.4675 -1.3000
  981MOL0     H35352   9.090   8.666  -1.125 -1.9532  2.4868  1.2052
  981MOL0     H35353   8.996   8.519  -1.081 -0.0295 -2.2278  0.9702
  981MOL0     H35354   9.227   8.451  -0.978 -1.9114 -0.0943  0.2054
  981MOL0     H35355   9.294   8.592  -1.075 -0.2101 -1.2024 -1.6045
  981MOL0     H35356   9.134   8.364  -1.190 -1.3593  0.7309  2.7067
  981MOL0     H35357   9.309   8.366  -1.199 -2.3257 -2.4792  0.4751
  981MOL0     H35358   8.507   8.800  -0.571 -0.8850  0.8514  2.8732
  981MOL0     H35359   8.603   8.828  -0.352 -0.4422 -1.3233  1.8333
  981MOL0     H35360   9.100   8.508  -0.127 -1.6434 -0.6124  0.2073
  981MOL0     H35361   9.276   8.575   0.056  1.6118  1.7191  0.1208
  981MOL0     H35362   8.790   9.636   0.089 -0.3097  0.0326  0.4291
  981MOL0     H35363   8.571   9.550   0.026  2.6026  3.9965 -0.2300
  981MOL0     H35364   8.068   9.685   0.167 -2.8770 -0.8377 -5.7949
  981MOL0     H35365   7.866   9.631   0.115  0.8717  0.8503  2.1935
  981MOL0     H35366   7.664   9.554   0.114  2.1094  0.2696 -0.8295
  981MOL0     H35367   7.689   9.468  -0.038  0.0856 -1.0771 -0.3638
  981MOL0     H35368   7.518   9.315   0.038  3.7808  0.1453 -0.8381
  981MOL0     H35369   7.458   9.479   0.045  0.7849  0.4887 -0.7551
  981MOL0     H35370   7.562   9.323   0.287  1.5221  1.5139 -1.6212
  981MOL0     H35371   7.490   9.487   0.287 -3.0298  1.0453 -1.0582
  981MOL0     H35372   7.331   9.322   0.368  2.0678 -1.5377  1.1956
  981MOL0     H35373   7.354   9.217   0.221 -1.5193 -0.6085 -0.3265
  981MOL0     H35374   7.097   9.499   0.055 -0.6175  0.5018  1.7501
  981MOL0     H35375   7.955   9.212   0.178 -0.5152  0.5747 -0.4981
  981MOL0     H35376   8.273   9.207   0.154  0.4619 -2.4390  1.1028
  981MOL0     H35377   8.264   9.231   0.328  1.8355 -2.8192 -1.2195
  981MOL0     H35378   8.153   9.122   0.250 -1.8143  0.2363  0.8244
  982MOL0     O35379   7.657   4.146   8.852  0.7244 -0.4711  0.2803
  982MOL0     C35380   7.660   4.122   8.973 -0.5716 -0.3562  0.7338
  982MOL0     O35381   7.775   4.083   9.037 -0.1964 -0.1736  0.1457
  982MOL0     C35382   7.884   4.057   8.960  0.1681 -0.6578  0.0037
  982MOL0     C35383   7.951   4.158   8.893  0.0772  0.5012 -0.3028
  982MOL0     C35384   8.071   4.121   8.822  0.5073 -0.5488  0.3569
  982MOL0     C35385   8.120   3.991   8.811  0.0763  0.0923  0.0589
  982MOL0     O35386   8.229   3.955   8.741  0.0659  0.3225 -0.2071
  982MOL0     C35387   8.282   4.041   8.639  0.1523  0.0378 -0.0155
  982MOL0     C35388   8.387   3.960   8.570 -0.3386  0.1463  0.6275
  982MOL0     C35389   8.501   3.918   8.661  0.4163 -0.2765 -0.2194
  982MOL0     C35390   8.610   3.849   8.575 -0.4156 -0.5501 -0.7564
  982MOL0     C35391   8.725   3.796   8.656  0.3389  0.6021 -0.4137
  982MOL0     C35392   8.796   3.907   8.741  1.0905  0.9166  1.7566
  982MOL0     C35393   8.898   3.853   8.834 -0.1727  0.1646 -0.4106
  982MOL0     C35394   8.931   3.953   8.940  0.4833 -0.0180 -0.3792
  982MOL0     N35395   9.044   3.903   9.017  1.2428 -0.0619 -0.0277
  982MOL0     C35396   9.076   3.926   9.149  0.6050 -0.5000 -0.4165
  982MOL0     C35397   9.194   3.879   9.171 -0.4722  0.3155  1.3574
  982MOL0     C35398   9.286   3.896   9.291  1.1467  0.3749  0.2265
  982MOL0     C35399   9.417   3.829   9.271  0.1548 -0.0597  0.8000
  982MOL0     C35400   9.488   3.821   9.405  0.9704 -0.4014 -0.2909
  982MOL0     C35401   9.608   3.727   9.395  0.1132  0.7889  1.1659
  982MOL0     O35402   9.688   3.773   9.282 -0.0936  0.4808 -0.5366
  982MOL0     C35403   9.772   3.878   9.300 -0.6120  0.7377 -0.8694
  982MOL0     C35404   9.819   3.922   9.183  0.4738  0.4816 -0.0946
  982MOL0     C35405   9.891   4.037   9.177 -0.7185 -0.5732  0.9540
  982MOL0     C35406   9.936   4.083   9.038  0.3055 -0.2790  0.0523
  982MOL0     C35407   9.939   4.101   9.294  0.5127 -0.5527  0.1311
  982MOL0     C35408  10.034   4.207   9.294  0.1093 -0.4070 -0.9388
  982MOL0     O35409  10.149   4.187   9.227 -0.0698  0.0471  0.0441
  982MOL0     C35410  10.241   4.285   9.238 -0.5714 -0.4167 -0.2183
  982MOL0     C35411  10.223   4.405   9.178  0.1616 -0.3265 -1.0354
  982MOL0     C35412  10.323   4.501   9.175 -0.9292  0.0303 -0.6514
  982MOL0     C35413  10.443   4.477   9.244  0.5813 -0.1637 -0.7556
  982MOL0     O35414  10.538   4.578   9.249  0.2247 -0.3538 -0.6303
  982MOL0     C35415  10.627   4.581   9.362 -0.4455 -0.0113  0.5924
  982MOL0     C35416  10.647   4.732   9.383  0.1324 -0.2163 -0.8301
  982MOL0     C35417  10.760   4.753   9.494  0.8345  1.3580 -0.5948
  982MOL0     C35418  10.742   4.894   9.552  0.7754  0.6796  0.5804
  982MOL0     C35419  10.856   4.942   9.643  0.1565  0.9896  0.6166
  982MOL0     C35420  10.831   5.082   9.707  0.1406 -0.8460  0.1821
  982MOL0     C35421  10.938   5.124   9.806  0.4589  0.3061 -1.0741
  982MOL0     C35422  10.943   5.033   9.937  0.1491  0.5487 -0.5289
  982MOL0    Cl35423  11.075   5.077  10.051 -0.2998  0.1111  0.2409
  982MOL0     C35424  10.461   4.355   9.313  0.5882  0.2564 -0.1780
  982MOL0     C35425  10.359   4.262   9.310  0.1764 -0.3588 -0.0623
  982MOL0     O35426  10.012   4.303   9.367 -0.2448  0.0453 -0.0150
  982MOL0     C35427   9.882   4.058   9.418 -0.6460 -0.2610 -0.1843
  982MOL0     C35428   9.806   3.942   9.423 -1.1635  0.6070  0.0589
  982MOL0     N35429   9.232   3.817   9.047 -0.4240  0.0695 -0.1415
  982MOL0     N35430   9.144   3.833   8.956  0.2892  0.2745 -1.3579
  982MOL0     C35431   8.050   3.896   8.886  0.5319 -0.0261 -0.5000
  982MOL0     C35432   7.941   3.933   8.968 -0.4557 -0.1814  0.2832
  982MOL0     C35433   7.541   4.137   9.053  0.4522  0.0073  1.0050
  982MOL0     C35434   7.561   4.136   9.193  0.1930 -0.1588  0.5294
  982MOL0     C35435   7.447   4.141   9.276  0.0146 -0.2852  0.6834
  982MOL0     C35436   7.319   4.145   9.223 -0.7155 -0.1380 -0.1217
  982MOL0     O35437   7.216   4.151   9.314 -0.4176 -0.2680  0.4581
  982MOL0     C35438   7.077   4.168   9.277 -0.4021  0.2599  0.6353
  982MOL0     C35439   6.993   4.217   9.398 -0.4722  0.0270  0.1738
  982MOL0     C35440   7.023   4.134   9.517 -0.3063  0.1368  0.6508
  982MOL0     C35441   6.938   4.000   9.531  0.1381  0.3648  0.1452
  982MOL0     C35442   6.934   3.915   9.408 -0.8112 -0.5948  0.1497
  982MOL0     C35443   6.919   3.836   9.315  0.1656 -0.6422 -0.6796
  982MOL0     C35444   7.304   4.137   9.089  0.4835  0.4990  0.8568
  982MOL0     C35445   7.408   4.130   9.000 -0.1155 -0.7617 -0.4485
  982MOL0     C35446   7.374   4.104   8.852  0.0513 -0.2973 -0.0406
  982MOL0     H35447   7.918   4.261   8.890 -0.3108  0.3818 -0.1426
  982MOL0     H35448   8.124   4.209   8.787  0.0742 -0.7235 -0.7686
  982MOL0     H35449   8.325   4.135   8.676 -0.1883 -1.4030  4.5499
  982MOL0     H35450   8.196   4.059   8.574 -0.9017 -2.8603  0.4433
  982MOL0     H35451   8.336   3.873   8.527 -1.1829  1.5662 -1.4424
  982MOL0     H35452   8.427   4.020   8.487 -2.4168  0.3485 -0.3053
  982MOL0     H35453   8.535   4.010   8.710  1.1258  0.0347 -1.2643
  982MOL0     H35454   8.471   3.844   8.736  2.9420 -1.6646 -0.4767
  982MOL0     H35455   8.563   3.768   8.521 -0.7261 -3.0562  2.8957
  982MOL0     H35456   8.647   3.919   8.499 -0.7368 -0.8602 -1.2015
  982MOL0     H35457   8.793   3.749   8.584 -1.8919  1.3524 -3.1952
  982MOL0     H35458   8.678   3.716   8.713  0.9431  0.8103  0.3873
  982MOL0     H35459   8.836   3.978   8.669 -0.0498  0.6409  0.8298
  982MOL0     H35460   8.723   3.957   8.806 -0.1641 -1.5260  2.3596
  982MOL0     H35461   8.982   3.824   8.770 -0.1508  0.9005 -0.7297
  982MOL0     H35462   8.879   3.763   8.892  2.5472  0.3805  0.9321
  982MOL0     H35463   8.962   4.050   8.901  3.6237 -1.5183 -1.9990
  982MOL0     H35464   8.844   3.955   9.006  0.5665  1.7277 -0.2916
  982MOL0     H35465   9.015   3.970   9.227  0.5747  0.4914 -0.9902
  982MOL0     H35466   9.228   3.845   9.368  0.1759 -0.2424 -0.8780
  982MOL0     H35467   9.299   4.000   9.321 -0.2254  0.1374  1.7429
  982MOL0     H35468   9.385   3.730   9.239  0.8854 -0.6922  1.9406
  982MOL0     H35469   9.479   3.872   9.192 -0.8503 -3.1150 -1.8613
  982MOL0     H35470   9.502   3.917   9.455  0.5001 -1.0086  1.0511
  982MOL0     H35471   9.420   3.774   9.477 -0.2002 -1.3074 -1.9168
  982MOL0     H35472   9.665   3.723   9.488  1.8930  1.0589  0.1300
  982MOL0     H35473   9.582   3.625   9.366  1.6845  0.8049 -0.4134
  982MOL0     H35474   9.799   3.872   9.089  1.1042  0.3904 -0.1840
  982MOL0     H35475  10.044   4.098   9.039  0.2339  0.7991  2.7872
  982MOL0     H35476   9.885   4.179   9.022  2.4769  0.9390  0.1120
  982MOL0     H35477   9.909   4.019   8.954  1.0419 -0.5659  0.0280
  982MOL0     H35478  10.131   4.425   9.125 -1.1885  0.4301  1.4192
  982MOL0     H35479  10.298   4.589   9.117 -1.2470  0.2971 -0.1082
  982MOL0     H35480  10.587   4.529   9.449  2.5801 -3.3732  0.2223
  982MOL0     H35481  10.727   4.540   9.349  1.1001  2.9855  1.9765
  982MOL0     H35482  10.685   4.790   9.298  2.4584 -0.0643  0.2081
  982MOL0     H35483  10.554   4.778   9.417  0.2086 -1.2123  0.8167
  982MOL0     H35484  10.858   4.741   9.447  1.9477 -1.9481  2.1648
  982MOL0     H35485  10.746   4.678   9.572 -0.3636 -1.1972 -3.0744
  982MOL0     H35486  10.651   4.885   9.611  0.5545 -0.0479  0.1416
  982MOL0     H35487  10.726   4.969   9.474  0.2896 -0.7045 -0.7128
  982MOL0     H35488  10.860   4.869   9.724 -3.1932 -0.3566 -0.2756
  982MOL0     H35489  10.953   4.942   9.591  0.3715 -0.0010  0.9868
  982MOL0     H35490  10.735   5.081   9.760 -0.1404  1.1386 -0.2186
  982MOL0     H35491  10.817   5.161   9.633  0.7014 -2.5550 -1.8605
  982MOL0     H35492  10.927   5.228   9.838  1.3762 -0.4663  2.0679
  982MOL0     H35493  11.030   5.113   9.747  0.8085 -1.3791 -0.2933
  982MOL0     H35494  10.958   4.929   9.907  3.5091  0.8096 -0.0944
  982MOL0     H35495  10.853   5.040   9.999 -0.3533 -1.4848 -0.9521
  982MOL0     H35496  10.555   4.335   9.362  0.5757 -0.7542 -0.5339
  982MOL0     H35497  10.367   4.167   9.362 -2.8508 -1.3782 -1.2252
  982MOL0     H35498   9.916   4.107   9.508 -0.0211 -1.5107  0.2925
  982MOL0     H35499   9.773   3.904   9.519 -1.2438  0.2781 -0.0950
  982MOL0     H35500   8.091   3.796   8.872 -1.4756 -1.0622  0.6475
  982MOL0     H35501   7.906   3.854   9.033  0.9009  0.7991  2.3369
  982MOL0     H35502   7.661   4.134   9.236  0.8933  2.9737 -0.7044
  982MOL0     H35503   7.460   4.135   9.384  2.2517  2.4301  0.6723
  982MOL0     H35504   7.074   4.234   9.190 -1.2240 -0.9641 -0.2965
  982MOL0     H35505   7.042   4.072   9.239 -0.7286  0.5212  0.2618
  982MOL0     H35506   6.886   4.217   9.375 -0.7912 -3.1964  1.0976
  982MOL0     H35507   7.024   4.321   9.415  1.8301 -0.9668  3.0311
  982MOL0     H35508   7.129   4.105   9.509  0.3779  2.2290  1.4063
  982MOL0     H35509   7.001   4.193   9.606 -2.6334  0.3070  0.0183
  982MOL0     H35510   6.838   4.026   9.565  0.1843  0.9121 -0.1296
  982MOL0     H35511   6.991   3.938   9.603 -1.7863  1.4962  2.6721
  982MOL0     H35512   6.906   3.758   9.243  0.6668 -1.0954 -0.2803
  982MOL0     H35513   7.208   4.122   9.040  1.2812 -3.4547  0.1320
  982MOL0     H35514   7.421   4.179   8.787 -2.6494  0.4544 -1.3109
  982MOL0     H35515   7.406   4.006   8.817 -1.4108 -1.2484  1.1727
  982MOL0     H35516   7.268   4.124   8.834  0.4341  1.2294 -0.8945
  983MOL0     O35517   2.945  11.320   7.461  0.1581 -0.5741 -0.7091
  983MOL0     C35518   2.903  11.206   7.449 -0.2554  0.6272 -0.3249
  983MOL0     O35519   2.983  11.091   7.416  0.5360  0.5799 -0.2990
  983MOL0     C35520   3.107  11.117   7.369  0.4809  0.1432  1.8469
  983MOL0     C35521   3.139  11.227   7.275  0.3016 -0.5714  0.2021
  983MOL0     C35522   3.268  11.241   7.236 -0.9771 -0.5615  0.5790
  983MOL0     C35523   3.370  11.155   7.287  0.7015 -0.2660  0.0604
  983MOL0     O35524   3.499  11.180   7.258  0.1020 -1.2966 -0.3757
  983MOL0     C35525   3.555  11.167   7.124  0.5379  0.5616 -0.0530
  983MOL0     C35526   3.614  11.031   7.110  0.1405 -0.5056 -0.3554
  983MOL0     C35527   3.511  10.919   7.088 -0.5252  1.3130  0.6421
  983MOL0     C35528   3.568  10.786   7.033 -0.4033 -0.1122 -0.1375
  983MOL0     C35529   3.460  10.694   6.976  0.4154 -0.1537  0.0554
  983MOL0     C35530   3.370  10.628   7.086  0.2743 -0.2454 -0.1863
  983MOL0     C35531   3.448  10.525   7.169  0.2198  0.1713 -0.2396
  983MOL0     C35532   3.360  10.459   7.273 -0.2470 -0.1178  0.0112
  983MOL0     N35533   3.261  10.368   7.234  0.4581 -0.0253 -0.6099
  983MOL0     C35534   3.145  10.397   7.177 -0.1227 -0.0955 -0.1490
  983MOL0     C35535   3.086  10.277   7.152  0.6930  0.8094 -0.2081
  983MOL0     C35536   2.945  10.260   7.106  0.5784 -0.1477 -1.0646
  983MOL0     C35537   2.889  10.396   7.050  0.9362  0.0656 -0.2225
  983MOL0     C35538   2.741  10.392   7.058  0.2640  0.2857 -0.4218
  983MOL0     C35539   2.678  10.523   6.995 -0.3625  0.0648 -0.6011
  983MOL0     O35540   2.714  10.535   6.854  1.1008  0.5230  0.3541
  983MOL0     C35541   2.690  10.434   6.766  0.1030 -0.4148 -1.2098
  983MOL0     C35542   2.788  10.419   6.666 -1.1299 -0.2968 -0.7024
  983MOL0     C35543   2.791  10.308   6.581 -1.0936 -0.3225 -0.2274
  983MOL0     C35544   2.906  10.314   6.484 -0.6143 -0.1758  0.4398
  983MOL0     C35545   2.669  10.226   6.573 -0.4116 -0.3246  0.1456
  983MOL0     C35546   2.646  10.115   6.474 -0.3336 -0.7853  0.2558
  983MOL0     O35547   2.532  10.045   6.493  0.4915 -0.2526  0.2965
  983MOL0     C35548   2.473   9.962   6.409  0.5240  0.0036  0.5367
  983MOL0     C35549   2.455  10.006   6.276  0.0094 -0.1471  0.2606
  983MOL0     C35550   2.399   9.924   6.171 -0.6184  0.0756 -0.3175
  983MOL0     C35551   2.335   9.800   6.213 -0.3940 -0.3340 -0.3915
  983MOL0     O35552   2.265   9.719   6.120  0.1541 -0.5717  0.5660
  983MOL0     C35553   2.276   9.577   6.124 -0.0909 -0.5595  0.7618
  983MOL0     C35554   2.188   9.531   6.012  0.6371  0.0642  0.3132
  983MOL0     C35555   2.049   9.593   6.040 -0.4287  0.6553 -0.1877
  983MOL0     C35556   1.967   9.532   5.919 -0.2225  0.1207 -0.6356
  983MOL0     C35557   1.826   9.602   5.894 -0.2126 -0.3401  0.6778
  983MOL0     C35558   1.730   9.548   5.790 -1.1967  0.6706  0.6111
  983MOL0     C35559   1.790   9.560   5.652  0.7402  0.3974  0.4724
  983MOL0     C35560   1.686   9.535   5.545 -0.0110 -0.2757 -0.6713
  983MOL0    Cl35561   1.579   9.686   5.538  0.0054 -0.3487  0.0859
  983MOL0     C35562   2.339   9.763   6.352  0.3374 -0.2739  0.0588
  983MOL0     C35563   2.407   9.842   6.445 -0.4366  0.4447 -0.3373
  983MOL0     O35564   2.713  10.097   6.376  0.2773  0.0473  0.0997
  983MOL0     C35565   2.562  10.258   6.662  0.4664  0.0494 -0.0284
  983MOL0     C35566   2.576  10.353   6.765 -0.0900  0.5701  0.4428
  983MOL0     N35567   3.174  10.178   7.192  0.0226  0.1125  0.1123
  983MOL0     N35568   3.284  10.233   7.242  0.3166 -0.3520 -0.8849
  983MOL0     C35569   3.342  11.047   7.369 -0.4442 -0.5193  0.2275
  983MOL0     C35570   3.213  11.031   7.416  0.0831  0.0575  0.8346
  983MOL0     C35571   2.765  11.183   7.490  0.2147  1.2610 -1.3160
  983MOL0     C35572   2.744  11.055   7.535 -0.9205  0.0356  0.1256
  983MOL0     C35573   2.620  11.006   7.569 -0.6683 -0.3290 -0.0067
  983MOL0     C35574   2.509  11.090   7.565  0.0199  0.3108 -0.0174
  983MOL0     O35575   2.385  11.030   7.600  0.2359 -0.2721  0.5848
  983MOL0     C35576   2.268  11.097   7.552  0.1948  0.2286  0.2856
  983MOL0     C35577   2.133  11.070   7.635  0.3016 -1.2318  0.2000
  983MOL0     C35578   2.109  10.918   7.660  0.1331  0.5549  0.2267
  983MOL0     C35579   1.980  10.898   7.739 -0.7836 -0.0047 -0.1405
  983MOL0     C35580   1.964  10.754   7.775 -0.4853  0.0941 -0.0493
  983MOL0     C35581   1.953  10.637   7.799 -0.9071  0.0575  0.9536
  983MOL0     C35582   2.533  11.220   7.522 -0.3365 -0.7121 -0.1142
  983MOL0     C35583   2.661  11.267   7.479  0.0745  0.1494  0.4327
  983MOL0     C35584   2.676  11.392   7.409  0.6762 -0.2789 -0.0461
  983MOL0     H35585   3.066  11.283   7.217  0.0640 -3.6962 -2.7707
  983MOL0     H35586   3.289  11.325   7.171  0.3102 -0.9134  0.5091
  983MOL0     H35587   3.632  11.244   7.117  1.8538 -0.3817  2.6476
  983MOL0     H35588   3.471  11.186   7.056  0.6875  0.5482 -0.2416
  983MOL0     H35589   3.672  11.030   7.018 -0.6195  2.5423 -0.9776
  983MOL0     H35590   3.686  11.015   7.191 -0.7839 -2.1551  0.2074
  983MOL0     H35591   3.456  10.889   7.178 -2.4533 -0.5738 -1.0649
  983MOL0     H35592   3.444  10.963   7.014 -0.4414  0.8579  0.2877
  983MOL0     H35593   3.633  10.813   6.950  0.6286 -0.3639  0.5662
  983MOL0     H35594   3.637  10.742   7.105 -0.7860  0.9421  0.9023
  983MOL0     H35595   3.499  10.624   6.901 -0.9368 -0.5178 -0.3486
  983MOL0     H35596   3.400  10.759   6.910 -1.4808 -1.7101  0.1638
  983MOL0     H35597   3.335  10.706   7.154  0.7768  0.0454 -0.2516
  983MOL0     H35598   3.287  10.581   7.034  0.2220 -3.3025  2.3694
  983MOL0     H35599   3.534  10.572   7.217  2.6838 -3.1766 -1.0751
  983MOL0     H35600   3.486  10.442   7.110  2.6709  0.6516  0.5675
  983MOL0     H35601   3.437  10.401   7.327  0.0678 -0.0908 -0.4046
  983MOL0     H35602   3.316  10.536   7.336 -0.8143  0.2049 -0.7696
  983MOL0     H35603   3.101  10.495   7.164 -0.7309 -0.4203 -0.6025
  983MOL0     H35604   2.887  10.215   7.187  2.7019  0.2811  0.7777
  983MOL0     H35605   2.948  10.192   7.020  4.3921 -0.5072 -0.8010
  983MOL0     H35606   2.920  10.487   7.103  0.8340 -0.6555  1.1302
  983MOL0     H35607   2.922  10.411   6.947 -0.9235 -0.3378 -0.9068
  983MOL0     H35608   2.701  10.306   7.005  0.1642 -0.4648  0.8336
  983MOL0     H35609   2.698  10.375   7.157 -0.9485 -3.6124 -1.4688
  983MOL0     H35610   2.570  10.512   7.007 -0.2349 -1.9154 -0.8491
  983MOL0     H35611   2.712  10.613   7.048 -2.2367  0.9453 -0.8162
  983MOL0     H35612   2.871  10.489   6.669  0.1478 -1.7307 -1.0560
  983MOL0     H35613   2.877  10.361   6.390  1.0827 -1.5914 -0.8417
  983MOL0     H35614   2.933  10.212   6.457 -2.5521 -0.5021 -0.4017
  983MOL0     H35615   2.989  10.371   6.527 -0.1767  2.0892 -3.0359
  983MOL0     H35616   2.494  10.100   6.238 -0.3013 -0.7047 -1.5277
  983MOL0     H35617   2.409   9.953   6.067 -0.2485 -0.1211 -0.3377
  983MOL0     H35618   2.377   9.548   6.092 -0.1933  0.6091 -0.6942
  983MOL0     H35619   2.240   9.534   6.218 -1.8310 -1.3401 -0.2046
  983MOL0     H35620   2.225   9.565   5.915 -0.8229  0.3767 -0.1647
  983MOL0     H35621   2.180   9.422   6.015 -1.7745  0.1923  1.7754
  983MOL0     H35622   2.053   9.702   6.030  2.0292  0.6517  0.2815
  983MOL0     H35623   2.003   9.565   6.135 -1.0997 -0.7281 -0.8989
  983MOL0     H35624   1.968   9.423   5.913  4.1179  0.0751 -4.2209
  983MOL0     H35625   2.024   9.561   5.830  0.2138  0.3564 -0.2852
  983MOL0     H35626   1.765   9.598   5.985 -1.7501  5.6091  0.3226
  983MOL0     H35627   1.846   9.709   5.881 -0.2010 -0.1665  1.9498
  983MOL0     H35628   1.632   9.594   5.782 -1.2627  0.1677 -4.0493
  983MOL0     H35629   1.709   9.444   5.815  0.3927 -0.0376 -0.7798
  983MOL0     H35630   1.877   9.495   5.638  0.8149  0.1311  2.0240
  983MOL0     H35631   1.836   9.659   5.642  0.6892  0.5456  1.5756
  983MOL0     H35632   1.633   9.444   5.573  0.2785  0.0885  1.1683
  983MOL0     H35633   1.744   9.521   5.453  1.4501  1.4226 -0.0700
  983MOL0     H35634   2.303   9.673   6.402 -1.7750  0.9255  0.8528
  983MOL0     H35635   2.408   9.813   6.549 -1.8133  1.6711  0.0605
  983MOL0     H35636   2.475  10.193   6.665  2.2673 -2.5988  4.1356
  983MOL0     H35637   2.495  10.365   6.835 -1.8662 -1.1610 -1.1834
  983MOL0     H35638   3.426  10.989   7.404 -0.5291 -1.4937 -1.0826
  983MOL0     H35639   3.197  10.960   7.496  1.3913 -2.0024 -0.6321
  983MOL0     H35640   2.825  10.983   7.547  1.9503  3.1216  0.9026
  983MOL0     H35641   2.619  10.903   7.604 -1.2323  0.3798  2.2432
  983MOL0     H35642   2.277  11.206   7.547 -0.2460  0.2106 -3.8000
  983MOL0     H35643   2.248  11.071   7.448  1.3676 -2.2507  0.5957
  983MOL0     H35644   2.059  11.113   7.567 -0.5752 -3.7809 -0.5829
  983MOL0     H35645   2.141  11.117   7.733 -1.6947 -0.8847  0.2529
  983MOL0     H35646   2.098  10.860   7.568 -2.7981 -0.4775  1.1210
  983MOL0     H35647   2.195  10.872   7.710 -0.0765 -1.3517 -1.0807
  983MOL0     H35648   1.896  10.931   7.676 -0.1059 -0.2791 -1.2140
  983MOL0     H35649   1.986  10.963   7.826  2.5682  0.3546 -0.5141
  983MOL0     H35650   1.935  10.532   7.815 -2.1901  0.1396  0.2655
  983MOL0     H35651   2.449  11.289   7.515  0.3236  0.3930  1.9464
  983MOL0     H35652   2.580  11.416   7.365  0.7958 -1.4787 -1.0227
  983MOL0     H35653   2.699  11.470   7.482  1.2539 -0.5499  0.0691
  983MOL0     H35654   2.748  11.389   7.327 -1.0364 -0.4353 -1.5803
  984MOL0     O35655   8.966   5.844   2.112  0.7834 -0.0689 -0.3795
  984MOL0     C35656   9.074   5.804   2.152  0.0013  0.1851  0.2390
  984MOL0     O35657   9.107   5.755   2.283  0.5469  0.2833  0.1893
  984MOL0     C35658   9.009   5.746   2.377 -0.6044 -0.1959 -0.1540
  984MOL0     C35659   9.005   5.623   2.440  0.1001 -0.1315  0.5462
  984MOL0     C35660   8.898   5.587   2.525 -0.2402  0.2142 -0.1038
  984MOL0     C35661   8.802   5.679   2.552  0.2314  0.4310  0.3640
  984MOL0     O35662   8.710   5.641   2.642 -0.1382 -0.7523 -0.4378
  984MOL0     C35663   8.609   5.734   2.680  0.1670 -0.2574  0.6441
  984MOL0     C35664   8.530   5.690   2.806 -0.5879  0.1595 -0.6530
  984MOL0     C35665   8.625   5.680   2.929 -0.5804  0.3316 -0.6656
  984MOL0     C35666   8.569   5.668   3.057  0.7279 -0.0333  0.1047
  984MOL0     C35667   8.664   5.596   3.161 -0.5002 -0.0574 -0.3749
  984MOL0     C35668   8.595   5.557   3.296  0.2582 -0.2520 -0.4576
  984MOL0     C35669   8.701   5.477   3.382 -0.6716 -0.1157  0.0238
  984MOL0     C35670   8.640   5.392   3.492 -0.8744 -0.4504 -0.0627
  984MOL0     N35671   8.556   5.473   3.588 -0.9777 -0.4147 -0.3328
  984MOL0     C35672   8.600   5.600   3.634  0.8773  0.4841  0.4808
  984MOL0     C35673   8.500   5.648   3.716 -0.2121  0.2915 -0.1106
  984MOL0     C35674   8.500   5.782   3.792  0.3151 -0.2268 -0.0706
  984MOL0     C35675   8.639   5.812   3.860 -0.0628 -0.3039 -0.0879
  984MOL0     C35676   8.643   5.956   3.913  0.2376 -0.8499 -1.6183
  984MOL0     C35677   8.663   6.068   3.807  0.0685 -0.0606  0.2212
  984MOL0     O35678   8.783   6.044   3.744 -0.7246  0.4052  1.1037
  984MOL0     C35679   8.765   6.075   3.609  0.7621 -0.5690 -0.6862
  984MOL0     C35680   8.693   5.996   3.519  0.0897  0.1484 -0.3613
  984MOL0     C35681   8.699   6.035   3.375  0.2904  0.9084  0.0869
  984MOL0     C35682   8.621   5.948   3.282  0.4019 -0.2378  0.0634
  984MOL0     C35683   8.779   6.143   3.336 -0.4826  0.2424 -1.0425
  984MOL0     C35684   8.797   6.181   3.190  0.2564  0.0683  0.6178
  984MOL0     O35685   8.821   6.073   3.102  0.2716 -0.7873  0.4045
  984MOL0     C35686   8.800   6.100   2.965 -0.4775 -0.1146 -0.3205
  984MOL0     C35687   8.903   6.172   2.890  0.6236 -0.4724  1.3065
  984MOL0     C35688   8.873   6.206   2.755  0.5076  0.2477  0.1597
  984MOL0     C35689   8.765   6.155   2.686  0.8248 -0.5182 -0.1762
  984MOL0     O35690   8.748   6.183   2.551 -0.6307  0.1957 -0.2165
  984MOL0     C35691   8.804   6.301   2.491 -0.5915  0.3333  0.0990
  984MOL0     C35692   8.925   6.252   2.419  0.5181  0.1799  1.3051
  984MOL0     C35693   8.978   6.377   2.355  0.3378 -0.3487 -0.2541
  984MOL0     C35694   9.086   6.350   2.264 -0.8196  0.4001 -0.0267
  984MOL0     C35695   9.123   6.471   2.170  0.6418 -0.6087  0.4301
  984MOL0     C35696   9.011   6.508   2.074 -0.5054 -0.2497 -0.1127
  984MOL0     C35697   9.063   6.596   1.964  0.3860  0.0092  0.1829
  984MOL0     C35698   8.977   6.586   1.843 -0.4481  0.6648 -0.3905
  984MOL0    Cl35699   8.809   6.648   1.890 -0.1617  0.3488  0.0791
  984MOL0     C35700   8.667   6.081   2.761  0.7961  0.2607 -0.2408
  984MOL0     C35701   8.682   6.056   2.896  0.2771 -0.5480 -0.1078
  984MOL0     O35702   8.794   6.293   3.158 -0.1896  0.3011  0.7975
  984MOL0     C35703   8.833   6.229   3.437  0.1822  0.5888 -0.5673
  984MOL0     C35704   8.830   6.193   3.567 -0.0333  0.1878  0.0790
  984MOL0     N35705   8.391   5.559   3.703  0.6405 -0.0458  0.2802
  984MOL0     N35706   8.421   5.463   3.623 -0.2256  0.0216 -0.4625
  984MOL0     C35707   8.805   5.805   2.492 -0.1249  0.8001 -0.0194
  984MOL0     C35708   8.909   5.843   2.406  0.1719 -0.4808  0.1775
  984MOL0     C35709   9.197   5.814   2.059  0.5421  0.1259  0.5792
  984MOL0     C35710   9.320   5.798   2.113 -0.1730 -0.2323  0.3128
  984MOL0     C35711   9.430   5.803   2.033 -0.0627 -0.1742  0.3171
  984MOL0     C35712   9.424   5.836   1.898 -0.0772 -1.1611 -0.1925
  984MOL0     O35713   9.534   5.832   1.823  0.2650  0.2903  0.3188
  984MOL0     C35714   9.626   5.935   1.861 -0.6721 -0.0143  0.5831
  984MOL0     C35715   9.762   5.874   1.894 -0.2642  0.1396  0.0441
  984MOL0     C35716   9.861   5.897   1.780 -0.5163  0.4186  0.4111
  984MOL0     C35717   9.990   5.819   1.789 -0.3515  0.2492 -0.0500
  984MOL0     C35718  10.080   5.870   1.895 -0.2565 -0.7660  0.4163
  984MOL0     C35719  10.153   5.901   1.993 -0.6597 -0.0732  0.6327
  984MOL0     C35720   9.298   5.844   1.839 -0.1710 -0.0541 -0.0095
  984MOL0     C35721   9.177   5.835   1.917 -0.9342 -0.1082 -0.0038
  984MOL0     C35722   9.051   5.870   1.843 -0.6365 -0.7007 -0.5857
  984MOL0     H35723   9.075   5.544   2.415  0.6080  0.4613  0.0174
  984MOL0     H35724   8.897   5.491   2.575  1.6683  0.7656  1.1150
  984MOL0     H35725   8.532   5.766   2.609 -0.4726  1.6029  2.0797
  984MOL0     H35726   8.671   5.817   2.714  1.4910 -0.5118 -1.0863
  984MOL0     H35727   8.460   5.771   2.827  0.9819  1.7292 -1.1910
  984MOL0     H35728   8.481   5.594   2.787 -0.2892  0.2112 -1.7541
  984MOL0     H35729   8.679   5.589   2.906 -1.5406 -0.6155  0.6690
  984MOL0     H35730   8.702   5.758   2.935  0.8260 -1.1270  2.4492
  984MOL0     H35731   8.544   5.769   3.091  0.3863  0.7661 -2.3246
  984MOL0     H35732   8.472   5.617   3.048  0.7936 -0.0892 -0.2934
  984MOL0     H35733   8.738   5.674   3.184 -2.0943  1.8208 -1.3245
  984MOL0     H35734   8.714   5.508   3.119 -1.4194 -0.1045 -1.3867
  984MOL0     H35735   8.545   5.640   3.346  0.0081 -0.0046 -1.1125
  984MOL0     H35736   8.512   5.498   3.255  0.6949 -1.2821  0.1171
  984MOL0     H35737   8.788   5.535   3.415  0.3174 -2.2364  1.3463
  984MOL0     H35738   8.754   5.398   3.327  1.4795  0.7282  0.7881
  984MOL0     H35739   8.584   5.310   3.447 -0.3860 -0.0399 -1.4676
  984MOL0     H35740   8.723   5.349   3.549  1.2025  0.2218 -2.4103
  984MOL0     H35741   8.698   5.643   3.614  1.1392 -0.3213  0.0003
  984MOL0     H35742   8.422   5.771   3.868  0.8800 -1.7298  0.3372
  984MOL0     H35743   8.474   5.867   3.729 -0.7579 -1.1244 -0.8880
  984MOL0     H35744   8.661   5.742   3.942 -1.3826  0.7240  1.2121
  984MOL0     H35745   8.721   5.799   3.790  1.6605  0.5892  1.6612
  984MOL0     H35746   8.551   5.974   3.970  0.8119  0.0933 -0.9567
  984MOL0     H35747   8.724   5.968   3.986  0.1907 -1.2442 -1.4950
  984MOL0     H35748   8.581   6.070   3.734 -0.0364 -2.7319  0.1613
  984MOL0     H35749   8.668   6.165   3.858 -2.4162 -0.4641  1.3700
  984MOL0     H35750   8.621   5.921   3.550  2.5712 -1.9584  0.6100
  984MOL0     H35751   8.692   5.910   3.207  2.1665 -0.3079  1.6696
  984MOL0     H35752   8.540   6.004   3.236  0.4838 -1.5155 -1.7510
  984MOL0     H35753   8.579   5.859   3.330 -0.7704 -0.2906 -1.0087
  984MOL0     H35754   8.991   6.201   2.946  0.3684 -1.5096  2.2812
  984MOL0     H35755   8.943   6.259   2.691  0.2469  1.7766  1.0700
  984MOL0     H35756   8.731   6.345   2.422 -0.6210  0.1405  0.0076
  984MOL0     H35757   8.836   6.383   2.557 -0.2485  0.3794 -0.1217
  984MOL0     H35758   8.998   6.195   2.477  2.4102 -1.2046 -2.1395
  984MOL0     H35759   8.891   6.190   2.336  1.2642  0.8457  0.4775
  984MOL0     H35760   9.033   6.432   2.432 -2.1332  1.2332  0.5050
  984MOL0     H35761   8.899   6.436   2.307  1.0712  1.6021  0.8126
  984MOL0     H35762   9.058   6.258   2.211 -2.2028  0.5353  0.4529
  984MOL0     H35763   9.177   6.326   2.320  0.6481  5.3309  0.1707
  984MOL0     H35764   9.151   6.557   2.232 -0.4585 -0.5815  0.9176
  984MOL0     H35765   9.208   6.430   2.116  1.5117  0.2842  1.0847
  984MOL0     H35766   8.952   6.577   2.135  1.7699  0.2395  1.6877
  984MOL0     H35767   8.963   6.418   2.037  1.3219 -0.8650 -1.1018
  984MOL0     H35768   9.166   6.572   1.937  0.9136  1.5525  0.6789
  984MOL0     H35769   9.062   6.703   1.990 -0.2804  0.9803 -3.3183
  984MOL0     H35770   8.974   6.485   1.801 -1.7051 -0.0092  1.1986
  984MOL0     H35771   9.028   6.646   1.767  1.8482  0.3848  0.8254
  984MOL0     H35772   8.575   6.036   2.724  1.1678 -2.9202  2.3222
  984MOL0     H35773   8.612   5.993   2.951 -0.0914  0.4182  0.5635
  984MOL0     H35774   8.887   6.322   3.419  0.0139  1.3000  2.2164
  984MOL0     H35775   8.881   6.254   3.640 -0.8213  0.5132  0.3744
  984MOL0     H35776   8.736   5.882   2.526  0.8131  2.5368 -1.8554
  984MOL0     H35777   8.918   5.942   2.361  0.7999 -0.1189  1.0573
  984MOL0     H35778   9.339   5.773   2.217 -0.7250  1.4624  0.8537
  984MOL0     H35779   9.516   5.770   2.090 -0.1021 -0.8801 -0.0241
  984MOL0     H35780   9.633   5.999   1.774 -3.1063 -2.9407 -2.0283
  984MOL0     H35781   9.597   5.990   1.951 -2.8593 -0.8090  0.4476
  984MOL0     H35782   9.750   5.769   1.924 -1.4181 -0.2742 -1.6861
  984MOL0     H35783   9.814   5.919   1.979 -0.7785 -2.5746  1.9214
  984MOL0     H35784   9.804   5.853   1.698 -0.8559  0.0170  0.8524
  984MOL0     H35785   9.876   6.006   1.777 -0.9351  0.4665  0.0001
  984MOL0     H35786  10.046   5.837   1.697  0.2857  1.5952  0.5659
  984MOL0     H35787   9.968   5.712   1.798 -0.4211  0.2283 -0.4533
  984MOL0     H35788  10.229   5.939   2.060  0.0834  0.9995 -0.7633
  984MOL0     H35789   9.296   5.862   1.732 -0.1034 -1.2047 -0.2212
  984MOL0     H35790   8.996   5.778   1.822  1.2730 -1.5463 -2.2244
  984MOL0     H35791   8.989   5.939   1.901  0.0485 -0.6145  0.0590
  984MOL0     H35792   9.077   5.920   1.749 -0.1440 -0.1006 -0.1380
  985MOL0     O35793   8.380   8.922   1.401 -0.7991  0.5632  0.1102
  985MOL0     C35794   8.344   8.881   1.293 -0.7564  0.4928 -0.4247
  985MOL0     O35795   8.418   8.821   1.197 -0.0083 -0.1511 -0.3913
  985MOL0     C35796   8.547   8.788   1.243  0.6442 -0.5707 -0.1333
  985MOL0     C35797   8.578   8.712   1.355  0.9812 -0.5723  0.8304
  985MOL0     C35798   8.712   8.673   1.379  0.5762 -0.1381  0.6108
  985MOL0     C35799   8.813   8.707   1.291  0.2243 -0.2052  0.0938
  985MOL0     O35800   8.942   8.654   1.314 -0.8154 -0.3099  0.4740
  985MOL0     C35801   9.050   8.694   1.219 -0.2714  0.7533  0.4915
  985MOL0     C35802   9.189   8.663   1.283 -0.1684  0.1332 -0.2815
  985MOL0     C35803   9.239   8.775   1.371 -0.5113 -0.0399  0.3463
  985MOL0     C35804   9.379   8.730   1.420 -0.2918  0.0095 -0.3396
  985MOL0     C35805   9.447   8.840   1.503  0.1300  0.2991 -0.2461
  985MOL0     C35806   9.581   8.787   1.559 -0.3656 -1.2615 -0.2712
  985MOL0     C35807   9.647   8.906   1.631 -0.9840 -0.6854 -0.3905
  985MOL0     C35808   9.778   8.866   1.706  0.5687  0.3703 -0.3295
  985MOL0     N35809   9.886   8.854   1.612  0.0646 -0.5960 -0.4040
  985MOL0     C35810   9.967   8.963   1.577 -0.6069 -0.5557  0.0531
  985MOL0     C35811  10.053   8.902   1.491  0.0783  0.0175  0.2945
  985MOL0     C35812  10.171   8.967   1.449 -0.7316 -0.4074  0.0956
  985MOL0     C35813  10.186   8.955   1.299  0.8241  0.3676  0.3957
  985MOL0     C35814  10.320   8.993   1.256  0.5562 -0.0551 -0.8535
  985MOL0     C35815  10.420   8.879   1.273  0.3825 -0.5080  0.2478
  985MOL0     O35816  10.524   8.902   1.184  0.1844  0.3282  0.3562
  985MOL0     C35817  10.616   8.806   1.161 -0.2751 -0.3194  0.1736
  985MOL0     C35818  10.629   8.689   1.232 -0.3440 -0.4909  0.8215
  985MOL0     C35819  10.718   8.585   1.197 -0.1719 -0.2684 -0.5166
  985MOL0     C35820  10.706   8.457   1.275  0.6540 -0.1950  0.8528
  985MOL0     C35821  10.807   8.611   1.087  0.4253 -1.1634  0.0112
  985MOL0     C35822  10.912   8.522   1.045  0.4131  0.7028 -0.6596
  985MOL0     O35823  10.956   8.533   0.910 -0.4326  0.3662  0.1623
  985MOL0     C35824  11.070   8.462   0.862 -0.1621 -0.2685 -0.0853
  985MOL0     C35825  11.187   8.471   0.935  0.1293 -0.0868 -0.0419
  985MOL0     C35826  11.308   8.409   0.887 -0.1629 -0.9561  0.1688
  985MOL0     C35827  11.310   8.346   0.763  0.8143  0.1726  0.0454
  985MOL0     O35828  11.422   8.299   0.708 -0.0693  0.3122 -0.5488
  985MOL0     C35829  11.542   8.382   0.718  0.8155 -0.7604 -0.3518
  985MOL0     C35830  11.649   8.332   0.622  0.2342 -0.6858  0.2024
  985MOL0     C35831  11.745   8.230   0.681  0.1046 -0.1575 -0.2682
  985MOL0     C35832  11.850   8.176   0.588 -0.0668 -0.5822  0.3330
  985MOL0     C35833  11.913   8.039   0.622 -0.3853  0.4567 -0.2864
  985MOL0     C35834  12.056   8.012   0.571  1.2873 -0.2493  0.1428
  985MOL0     C35835  12.109   7.878   0.623 -0.3979 -0.2745 -0.0486
  985MOL0     C35836  12.255   7.847   0.583  0.1356  0.1867  0.2504
  985MOL0    Cl35837  12.276   7.761   0.427  0.1624  0.4068 -0.0387
  985MOL0     C35838  11.185   8.327   0.697 -0.1142 -0.7408  1.2228
  985MOL0     C35839  11.068   8.388   0.742  0.0439  0.2719  0.1936
  985MOL0     O35840  10.963   8.457   1.136  0.0622  0.3638  0.4322
  985MOL0     C35841  10.798   8.734   1.022  0.2212  0.5920 -0.6131
  985MOL0     C35842  10.708   8.836   1.057  0.4916 -0.1630 -0.5448
  985MOL0     N35843  10.021   8.764   1.477 -0.1602 -1.2659  0.3695
  985MOL0     N35844   9.927   8.738   1.552  0.1430  0.1067 -0.3327
  985MOL0     C35845   8.775   8.781   1.175 -0.3122 -0.3279  1.0807
  985MOL0     C35846   8.648   8.826   1.157 -0.9203  0.1359 -0.4751
  985MOL0     C35847   8.188   8.870   1.280  0.4706  0.1485  0.2886
  985MOL0     C35848   8.133   8.749   1.229  0.1374  0.0533  0.6710
  985MOL0     C35849   7.993   8.729   1.226  0.7535 -0.7358 -0.2382
  985MOL0     C35850   7.903   8.825   1.281 -0.0770  0.7912 -0.7156
  985MOL0     O35851   7.771   8.801   1.303 -0.7493 -0.4888 -0.0629
  985MOL0     C35852   7.691   8.718   1.223 -0.0196 -0.4525 -0.2000
  985MOL0     C35853   7.548   8.708   1.287 -0.2421  0.4373 -0.7516
  985MOL0     C35854   7.458   8.838   1.290 -0.5463  0.2057  0.2645
  985MOL0     C35855   7.311   8.805   1.328 -0.3969 -0.2389 -0.3792
  985MOL0     C35856   7.230   8.758   1.221  0.1467 -0.5399 -0.1928
  985MOL0     C35857   7.171   8.708   1.127  0.5633  0.6759 -0.3534
  985MOL0     C35858   7.955   8.950   1.317  0.0222  0.2394  0.2846
  985MOL0     C35859   8.098   8.974   1.322  1.0389 -0.3654 -0.1676
  985MOL0     C35860   8.136   9.117   1.348  0.2797  0.6272  0.2214
  985MOL0     H35861   8.497   8.685   1.421  0.2936 -0.1163  0.1912
  985MOL0     H35862   8.735   8.616   1.468 -2.4137 -2.4829  0.0193
  985MOL0     H35863   9.044   8.803   1.208 -0.3877  0.8729  1.6086
  985MOL0     H35864   9.033   8.658   1.117  4.0986  2.2861 -0.9944
  985MOL0     H35865   9.183   8.573   1.346  2.1569  0.7722  0.9958
  985MOL0     H35866   9.264   8.640   1.207 -0.3436 -2.9515  0.3582
  985MOL0     H35867   9.244   8.874   1.325  0.5767  0.7585  2.0697
  985MOL0     H35868   9.163   8.801   1.445 -1.3932 -0.1719 -0.4787
  985MOL0     H35869   9.364   8.642   1.483 -2.1622  0.1437 -0.5330
  985MOL0     H35870   9.442   8.700   1.336  2.2592 -1.1685  1.8688
  985MOL0     H35871   9.380   8.862   1.587  1.0142 -0.4297  0.6728
  985MOL0     H35872   9.453   8.931   1.442 -0.3520  0.1257 -0.5566
  985MOL0     H35873   9.561   8.710   1.633 -0.4028  0.0541  1.1277
  985MOL0     H35874   9.629   8.746   1.469 -2.2221  0.5986 -2.2442
  985MOL0     H35875   9.573   8.935   1.706 -1.0609 -1.9937  0.0707
  985MOL0     H35876   9.676   8.986   1.562 -1.1624  0.2261  0.5573
  985MOL0     H35877   9.806   8.940   1.780  1.2266  0.4405 -0.6406
  985MOL0     H35878   9.752   8.774   1.760  0.5067  0.6152  0.0571
  985MOL0     H35879   9.974   9.063   1.618 -0.0669 -0.9630  0.9943
  985MOL0     H35880  10.257   8.919   1.496  2.1489  2.0411 -2.2248
  985MOL0     H35881  10.166   9.072   1.480 -1.1395 -0.2288 -0.5551
  985MOL0     H35882  10.157   8.856   1.265  1.3880 -0.0914  1.2102
  985MOL0     H35883  10.114   9.023   1.253  1.6289 -0.5240 -2.3208
  985MOL0     H35884  10.308   9.031   1.154  0.4035  0.8735 -0.4960
  985MOL0     H35885  10.347   9.082   1.312  0.7227 -1.0038  0.6389
  985MOL0     H35886  10.459   8.878   1.375 -1.3591 -2.8771  0.9717
  985MOL0     H35887  10.369   8.786   1.247 -0.7269  0.9801 -3.6052
  985MOL0     H35888  10.570   8.680   1.323  1.2811  0.2893  1.9888
  985MOL0     H35889  10.633   8.462   1.356 -0.9315 -0.9971 -0.4698
  985MOL0     H35890  10.801   8.421   1.315  1.8029  1.9135  0.1781
  985MOL0     H35891  10.675   8.382   1.202  2.0249  0.2589 -0.2575
  985MOL0     H35892  11.195   8.536   1.022  3.0413  0.6823 -0.7763
  985MOL0     H35893  11.397   8.419   0.948 -0.3960  2.1659  0.1365
  985MOL0     H35894  11.521   8.483   0.681 -1.2555 -1.4901 -1.3241
  985MOL0     H35895  11.571   8.390   0.823 -0.4127  0.5042 -0.0819
  985MOL0     H35896  11.598   8.289   0.535  0.6329  2.1859 -1.5507
  985MOL0     H35897  11.698   8.417   0.575 -2.0134 -0.4774 -2.0013
  985MOL0     H35898  11.679   8.151   0.721 -1.2518  0.9242 -0.2992
  985MOL0     H35899  11.802   8.265   0.768 -2.2306 -1.7754  2.0997
  985MOL0     H35900  11.929   8.249   0.567 -0.1442 -0.4951  0.3458
  985MOL0     H35901  11.803   8.156   0.491  0.2853  2.0247 -0.4509
  985MOL0     H35902  11.919   8.020   0.730  1.2770 -1.0161 -0.5843
  985MOL0     H35903  11.845   7.957   0.596  0.0691 -0.4470  1.2555
  985MOL0     H35904  12.108   8.099   0.612 -0.6371  0.4886  1.1446
  985MOL0     H35905  12.071   8.009   0.463  0.6974 -3.8288  0.0557
  985MOL0     H35906  12.049   7.789   0.602 -2.2221  0.2321  2.4847
  985MOL0     H35907  12.128   7.885   0.730 -1.6141 -2.5097  0.3758
  985MOL0     H35908  12.305   7.782   0.655  1.9516  2.2086  0.9151
  985MOL0     H35909  12.318   7.936   0.582 -1.4687  1.4809 -3.6169
  985MOL0     H35910  11.185   8.283   0.598  0.3239  0.9349  0.4337
  985MOL0     H35911  10.976   8.381   0.685  0.6264  1.8397 -0.9974
  985MOL0     H35912  10.868   8.749   0.940 -2.4445 -0.5506 -3.3007
  985MOL0     H35913  10.709   8.938   1.021  1.2961  0.8973  2.2355
  985MOL0     H35914   8.849   8.808   1.101 -1.1118 -1.3642 -0.1415
  985MOL0     H35915   8.610   8.886   1.075 -3.2600 -0.5166  0.0670
  985MOL0     H35916   8.202   8.680   1.181  0.8273  0.0322  1.6607
  985MOL0     H35917   7.952   8.635   1.192  0.1274 -0.7245  0.4568
  985MOL0     H35918   7.683   8.761   1.123 -2.9543 -0.3861 -0.0304
  985MOL0     H35919   7.740   8.621   1.213  1.5758  0.0608  1.8485
  985MOL0     H35920   7.554   8.659   1.384 -3.4642 -0.9861 -1.1375
  985MOL0     H35921   7.488   8.643   1.222  0.1935  0.4372 -1.1634
  985MOL0     H35922   7.500   8.894   1.374  1.7943 -1.3296  0.2319
  985MOL0     H35923   7.477   8.891   1.196 -1.4428 -2.5815 -1.6431
  985MOL0     H35924   7.253   8.892   1.361 -0.8780 -0.2193 -1.2452
  985MOL0     H35925   7.319   8.722   1.399  0.8054 -2.6210 -3.1074
  985MOL0     H35926   7.112   8.664   1.050  1.8222 -3.8185  0.9574
  985MOL0     H35927   7.879   9.024   1.342 -0.2893  0.1911 -0.5119
  985MOL0     H35928   8.046   9.177   1.362  1.2018  2.0075  0.4178
  985MOL0     H35929   8.199   9.131   1.437  1.9915 -0.3780 -0.7670
  985MOL0     H35930   8.191   9.156   1.262  0.3686 -1.3678 -0.6690
  986MOL0     O35931   5.541   3.697  11.184 -0.3233 -0.1327  0.2669
  986MOL0     C35932   5.437   3.759  11.160  0.0252  0.2090 -0.4450
  986MOL0     O35933   5.421   3.869  11.088  0.4089 -0.0175 -0.3699
  986MOL0     C35934   5.521   3.908  11.004  0.4918  0.0126  1.1798
  986MOL0     C35935   5.485   3.939  10.874  0.0452  0.4340  0.4982
  986MOL0     C35936   5.572   3.998  10.777 -0.0614  0.2665 -0.4953
  986MOL0     C35937   5.700   4.030  10.814 -0.9645 -0.1043  0.5291
  986MOL0     O35938   5.772   4.080  10.707  0.1055  0.4093 -0.0454
  986MOL0     C35939   5.888   4.163  10.735 -1.5156 -0.3983 -0.2529
  986MOL0     C35940   6.023   4.086  10.743 -1.0605  0.3222 -0.0616
  986MOL0     C35941   6.148   4.169  10.752  0.8729 -0.1160  0.7318
  986MOL0     C35942   6.195   4.199  10.605  0.6061 -0.0684  0.5102
  986MOL0     C35943   6.315   4.297  10.610  0.1971 -0.3000 -0.2088
  986MOL0     C35944   6.439   4.233  10.676 -0.1708 -0.4139  0.1245
  986MOL0     C35945   6.577   4.312  10.687 -0.4188 -0.6901  0.4249
  986MOL0     C35946   6.575   4.431  10.785  0.3050 -0.5055  0.1353
  986MOL0     N35947   6.709   4.493  10.802 -0.9009 -0.2751  0.5261
  986MOL0     C35948   6.774   4.564  10.697  0.4976  0.3209 -0.9286
  986MOL0     C35949   6.893   4.604  10.748  0.7537 -0.3974 -0.4140
  986MOL0     C35950   6.991   4.686  10.677 -0.3592  0.0311 -0.3786
  986MOL0     C35951   7.135   4.637  10.712  0.5498 -0.5444  0.2337
  986MOL0     C35952   7.247   4.701  10.623  0.5269  0.3210 -0.4738
  986MOL0     C35953   7.368   4.613  10.625  0.1695 -0.1038 -0.7221
  986MOL0     O35954   7.421   4.604  10.758 -0.0500 -0.3195  0.1447
  986MOL0     C35955   7.524   4.512  10.776 -0.1093  0.1535 -1.4360
  986MOL0     C35956   7.578   4.501  10.907  0.0946  0.4165  0.2956
  986MOL0     C35957   7.665   4.395  10.943  0.3339  0.2660  0.8820
  986MOL0     C35958   7.706   4.394  11.082 -0.3441 -0.0403 -0.2377
  986MOL0     C35959   7.693   4.292  10.853  0.0219  0.3037 -0.2814
  986MOL0     C35960   7.766   4.170  10.890  0.2814 -0.9424 -0.4463
  986MOL0     O35961   7.735   4.110  11.012 -0.2716 -0.4399 -0.3525
  986MOL0     C35962   7.833   4.025  11.051 -0.2641 -0.2385  0.1074
  986MOL0     C35963   7.807   3.894  11.053  0.5289 -0.1087  1.3439
  986MOL0     C35964   7.895   3.804  11.099 -0.4857  0.4992 -0.2718
  986MOL0     C35965   8.020   3.841  11.151  0.6935 -0.2610 -0.4309
  986MOL0     O35966   8.108   3.746  11.203 -0.3742 -0.2202  0.3154
  986MOL0     C35967   8.227   3.747  11.111  0.3845  0.0118  0.8613
  986MOL0     C35968   8.296   3.604  11.116 -0.0557 -0.3122 -0.0740
  986MOL0     C35969   8.358   3.562  11.253  0.0475  0.2975  0.6023
  986MOL0     C35970   8.447   3.438  11.241  0.3627 -0.2262 -0.0693
  986MOL0     C35971   8.484   3.393  11.380  0.6032  0.0709  0.7930
  986MOL0     C35972   8.579   3.274  11.369  0.1187  0.2408  0.2265
  986MOL0     C35973   8.593   3.207  11.505  0.7604  0.4370  0.0189
  986MOL0     C35974   8.710   3.116  11.525 -0.1564  0.3821  0.7174
  986MOL0    Cl35975   8.860   3.204  11.545  0.1715  0.5080 -0.0617
  986MOL0     C35976   8.034   3.974  11.184 -0.1505 -1.4863  0.1693
  986MOL0     C35977   7.949   4.072  11.127  0.5413 -0.9934  0.0962
  986MOL0     O35978   7.847   4.126  10.808  0.4173 -0.4869 -0.5253
  986MOL0     C35979   7.653   4.319  10.718  0.1157  0.3141  0.1458
  986MOL0     C35980   7.580   4.431  10.682 -1.2819  0.5316  0.7222
  986MOL0     N35981   6.906   4.553  10.877  0.0194  0.0448  0.8887
  986MOL0     N35982   6.800   4.478  10.899 -0.2815  0.0041 -0.2252
  986MOL0     C35983   5.743   4.000  10.947  1.2746  0.8316  0.1844
  986MOL0     C35984   5.650   3.943  11.038  0.1712 -0.6821  0.5083
  986MOL0     C35985   5.315   3.708  11.222 -0.4618  0.6846 -0.4717
  986MOL0     C35986   5.224   3.795  11.268 -0.2534  1.2725 -0.3467
  986MOL0     C35987   5.101   3.767  11.334 -0.4942 -0.6268 -0.9031
  986MOL0     C35988   5.072   3.634  11.352  0.5939 -0.2890 -0.5276
  986MOL0     O35989   4.957   3.581  11.416 -0.1871 -0.5012  0.3994
  986MOL0     C35990   4.839   3.675  11.445 -0.2469  0.3466  0.1143
  986MOL0     C35991   4.705   3.593  11.453 -0.6132 -0.0269 -0.7648
  986MOL0     C35992   4.701   3.533  11.593  0.3115  0.6854 -0.2387
  986MOL0     C35993   4.569   3.447  11.603  0.1738  0.0186  0.8981
  986MOL0     C35994   4.504   3.423  11.730 -0.1542 -0.1520  0.0382
  986MOL0     C35995   4.452   3.363  11.820 -0.8396  0.0040  0.1531
  986MOL0     C35996   5.157   3.539  11.293  0.9016 -0.0675 -0.4615
  986MOL0     C35997   5.277   3.573  11.228 -0.9127 -0.2599 -1.2488
  986MOL0     C35998   5.357   3.458  11.164  0.4534 -0.1989  0.3256
  986MOL0     H35999   5.386   3.903  10.847  0.1720 -2.2532  3.1152
  986MOL0     H36000   5.542   4.013  10.674  1.1458 -0.6996 -0.9954
  986MOL0     H36001   5.874   4.228  10.822  1.8079  0.9752 -0.5991
  986MOL0     H36002   5.899   4.242  10.660  1.4775  2.5694  2.9363
  986MOL0     H36003   6.021   4.020  10.830 -0.7745  0.2900 -0.0779
  986MOL0     H36004   6.020   4.013  10.661 -0.8055 -0.9751  1.0366
  986MOL0     H36005   6.131   4.255  10.816  1.2938 -0.4969  1.3631
  986MOL0     H36006   6.226   4.105  10.794  1.4118  0.6662  0.9533
  986MOL0     H36007   6.221   4.109  10.548 -1.1420 -0.9693  1.0770
  986MOL0     H36008   6.113   4.238  10.543  2.2864  0.2949 -1.6041
  986MOL0     H36009   6.290   4.384  10.671 -0.7663 -0.5922 -0.1582
  986MOL0     H36010   6.338   4.318  10.505 -0.4539 -1.6267 -0.6470
  986MOL0     H36011   6.416   4.205  10.779 -2.9517  0.6907 -0.1002
  986MOL0     H36012   6.460   4.137  10.629 -0.6549 -1.1584  1.4056
  986MOL0     H36013   6.616   4.354  10.594  2.4486  2.5809  2.8150
  986MOL0     H36014   6.658   4.250  10.726  0.5685  0.4963  0.3485
  986MOL0     H36015   6.499   4.506  10.764 -1.8931 -2.0997  1.9623
  986MOL0     H36016   6.545   4.396  10.884 -2.3057  2.5810  0.5748
  986MOL0     H36017   6.726   4.588  10.603  0.0461 -0.2088 -0.8387
  986MOL0     H36018   6.986   4.788  10.715  3.9577  0.1802  0.3153
  986MOL0     H36019   6.963   4.678  10.571  0.8496 -0.7745 -0.6580
  986MOL0     H36020   7.151   4.665  10.816  1.0617 -0.3190  0.1006
  986MOL0     H36021   7.131   4.529  10.698  0.0554 -0.4400 -0.5449
  986MOL0     H36022   7.210   4.713  10.521  3.3713 -0.8253 -1.7296
  986MOL0     H36023   7.276   4.797  10.667  1.3146 -1.9142  4.6509
  986MOL0     H36024   7.336   4.515  10.587  0.1450 -0.6048  0.5184
  986MOL0     H36025   7.451   4.645  10.561 -0.1592 -1.3008 -1.7912
  986MOL0     H36026   7.548   4.576  10.979  2.7160  0.6644  1.2304
  986MOL0     H36027   7.815   4.388  11.082 -0.2818  0.8957 -0.1812
  986MOL0     H36028   7.655   4.321  11.144 -1.9682  2.6984  1.9067
  986MOL0     H36029   7.678   4.489  11.128  1.3407 -0.1591  1.1373
  986MOL0     H36030   7.709   3.858  11.023 -0.1010  0.8245  2.2032
  986MOL0     H36031   7.876   3.698  11.097  4.4933 -0.6520 -0.9969
  986MOL0     H36032   8.195   3.758  11.007 -1.7342 -3.9538  0.8665
  986MOL0     H36033   8.306   3.820  11.129  2.0913 -1.6616  0.5466
  986MOL0     H36034   8.221   3.529  11.087 -0.4932 -0.0911  0.4733
  986MOL0     H36035   8.376   3.603  11.042  0.8264 -0.4021  0.8682
  986MOL0     H36036   8.275   3.533  11.318  0.5172  0.6753  1.3928
  986MOL0     H36037   8.410   3.651  11.290 -2.0322  2.4508 -1.3298
  986MOL0     H36038   8.532   3.472  11.182  0.3293  2.6447  1.3433
  986MOL0     H36039   8.393   3.363  11.183  0.3800  2.0129 -3.2875
  986MOL0     H36040   8.533   3.476  11.429  0.1242  3.4948 -3.8210
  986MOL0     H36041   8.396   3.363  11.437  0.1756 -0.1637  0.0325
  986MOL0     H36042   8.678   3.311  11.343 -0.8075  2.9365  0.1903
  986MOL0     H36043   8.550   3.192  11.302 -0.2515  0.3540  0.2437
  986MOL0     H36044   8.506   3.141  11.514 -0.3132  1.6887 -0.6449
  986MOL0     H36045   8.596   3.283  11.584 -0.3817  0.6546 -0.1171
  986MOL0     H36046   8.720   3.048  11.439 -1.4720 -0.2988  1.0882
  986MOL0     H36047   8.693   3.054  11.613  1.8713 -1.6354 -0.1872
  986MOL0     H36048   8.106   4.002  11.260 -0.0204 -2.1359  0.2926
  986MOL0     H36049   7.957   4.179  11.147 -0.4229 -0.9459  0.2534
  986MOL0     H36050   7.692   4.254  10.640 -2.7032  0.2728 -1.3997
  986MOL0     H36051   7.573   4.454  10.576  2.5943  2.3184  0.7079
  986MOL0     H36052   5.847   4.018  10.974  1.4957 -1.0868  0.7585
  986MOL0     H36053   5.670   3.939  11.145  0.2474 -1.6390  0.4676
  986MOL0     H36054   5.267   3.894  11.280  2.4112  0.1368  0.0895
  986MOL0     H36055   5.045   3.847  11.382  0.9991 -1.5077  2.6472
  986MOL0     H36056   4.846   3.738  11.534 -1.7229  0.4700  0.1590
  986MOL0     H36057   4.832   3.750  11.365  2.1780  1.5851  0.9720
  986MOL0     H36058   4.698   3.524  11.369 -3.3132 -1.2683  0.3539
  986MOL0     H36059   4.627   3.667  11.430 -0.0063  0.4314 -1.3923
  986MOL0     H36060   4.785   3.470  11.623 -0.3302  0.1418  0.4495
  986MOL0     H36061   4.697   3.615  11.666  1.3425 -0.7300  1.4827
  986MOL0     H36062   4.595   3.353  11.553  1.9018  0.4685  0.8784
  986MOL0     H36063   4.492   3.496  11.543  1.2673  1.5429  0.6873
  986MOL0     H36064   4.408   3.298  11.893  1.0801  1.7173  3.0386
  986MOL0     H36065   5.147   3.433  11.312 -2.2255 -0.0241 -1.2235
  986MOL0     H36066   5.430   3.411  11.230  1.6165  0.2837 -0.5852
  986MOL0     H36067   5.287   3.386  11.121  0.6479 -0.0727 -0.2045
  986MOL0     H36068   5.409   3.490  11.074  0.4165 -3.9360 -1.2166
  987MOL0     O36069  10.374   9.427   0.909 -0.3497 -0.0303  0.6770
  987MOL0     C36070  10.306   9.372   0.991 -0.6813 -0.1196  0.0374
  987MOL0     O36071  10.352   9.315   1.106 -0.8219  0.2170  0.5819
  987MOL0     C36072  10.481   9.339   1.152 -0.1666 -0.0824  0.4172
  987MOL0     C36073  10.518   9.456   1.224  0.6074  0.5973 -0.3029
  987MOL0     C36074  10.642   9.475   1.276 -0.9301  0.9185  0.4517
  987MOL0     C36075  10.745   9.379   1.253  0.4927  0.1273  0.4319
  987MOL0     O36076  10.875   9.387   1.297  0.6235  0.3488 -0.0278
  987MOL0     C36077  10.913   9.501   1.372 -0.0085  0.2430 -0.5797
  987MOL0     C36078  11.054   9.485   1.424  1.1564 -0.2967 -0.6913
  987MOL0     C36079  11.154   9.473   1.312  0.4544  0.1902  0.5902
  987MOL0     C36080  11.284   9.426   1.381 -0.8320  0.4363  0.0299
  987MOL0     C36081  11.390   9.416   1.273 -0.0784  0.2052 -0.3157
  987MOL0     C36082  11.535   9.397   1.324 -0.8529 -0.0944 -0.2463
  987MOL0     C36083  11.576   9.277   1.411  0.7452  0.5792 -0.2161
  987MOL0     C36084  11.721   9.247   1.386 -0.2203 -0.2028  0.1062
  987MOL0     N36085  11.739   9.160   1.267 -0.7871  0.7790  0.3240
  987MOL0     C36086  11.863   9.152   1.198  1.3916 -0.0136  0.0083
  987MOL0     C36087  11.837   9.079   1.084  0.1179  0.3894  0.5008
  987MOL0     C36088  11.932   9.066   0.971 -0.1273 -0.0397 -0.6865
  987MOL0     C36089  12.062   8.970   0.998  0.4833  0.3506  0.7401
  987MOL0     C36090  12.170   8.987   0.889 -0.4440 -0.0155 -0.1021
  987MOL0     C36091  12.291   8.884   0.886 -0.6752 -0.2134  0.4985
  987MOL0     O36092  12.385   8.946   0.792 -0.2733 -0.2861 -0.7444
  987MOL0     C36093  12.513   8.933   0.842 -0.0835 -0.5562 -0.8087
  987MOL0     C36094  12.602   8.834   0.796  0.0784 -0.1104 -0.1538
  987MOL0     C36095  12.732   8.818   0.845 -0.3882  0.1341  0.6662
  987MOL0     C36096  12.811   8.690   0.798  0.0749  0.4957 -0.6814
  987MOL0     C36097  12.777   8.913   0.942 -0.1921 -1.0383  0.8683
  987MOL0     C36098  12.902   8.910   1.015 -0.1184  0.1111  0.6282
  987MOL0     O36099  12.937   9.024   1.089  0.1614 -0.0089  0.4772
  987MOL0     C36100  13.072   9.024   1.114  0.8002  0.0667  0.1014
  987MOL0     C36101  13.118   8.988   1.244 -0.9321 -0.2228  0.1143
  987MOL0     C36102  13.256   9.000   1.281  0.8447 -0.6943  0.8219
  987MOL0     C36103  13.349   9.058   1.189  0.5539  0.1343  0.1536
  987MOL0     O36104  13.484   9.074   1.218  0.4675  0.0677  0.7852
  987MOL0     C36105  13.536   9.204   1.201 -0.4716 -0.3984  0.6706
  987MOL0     C36106  13.695   9.214   1.228  0.0080  0.3555  0.9350
  987MOL0     C36107  13.781   9.119   1.147  0.0299  0.9988 -0.2036
  987MOL0     C36108  13.866   9.034   1.241 -0.1782 -0.0820 -0.8683
  987MOL0     C36109  13.968   9.106   1.325  0.1843 -0.3871  0.1652
  987MOL0     C36110  14.103   9.095   1.267 -0.3089 -0.2149 -0.2351
  987MOL0     C36111  14.198   9.197   1.337  0.4883 -0.2447  0.0639
  987MOL0     C36112  14.339   9.193   1.279  0.4459  0.6156 -1.0442
  987MOL0    Cl36113  14.424   9.043   1.346  0.2715 -0.3175  0.2118
  987MOL0     C36114  13.294   9.112   1.066 -0.4121  0.7356  0.5782
  987MOL0     C36115  13.158   9.092   1.029  0.1277 -0.3334  0.9459
  987MOL0     O36116  12.965   8.798   1.015  0.4359 -0.3297 -0.3662
  987MOL0     C36117  12.688   9.008   0.987  0.5400  0.0513 -0.2364
  987MOL0     C36118  12.552   9.022   0.939 -0.0913  0.3637 -0.4003
  987MOL0     N36119  11.703   9.033   1.091 -0.4610 -0.3681 -0.0372
  987MOL0     N36120  11.649   9.084   1.198  0.0968 -0.5610  0.1805
  987MOL0     C36121  10.712   9.265   1.178 -0.9045 -0.3572 -0.0940
  987MOL0     C36122  10.584   9.257   1.118 -0.0428  1.0668 -0.6160
  987MOL0     C36123  10.158   9.360   0.970  0.8821 -0.1173  0.5761
  987MOL0     C36124  10.083   9.268   1.051 -0.3928 -0.7257 -0.2398
  987MOL0     C36125   9.945   9.242   1.029  1.3055 -0.0879  0.3133
  987MOL0     C36126   9.866   9.311   0.938 -0.0504  0.4357  0.3343
  987MOL0     O36127   9.730   9.290   0.922 -0.1560 -0.1653  0.0045
  987MOL0     C36128   9.688   9.286   0.789  0.8159  1.1960 -0.3835
  987MOL0     C36129   9.748   9.163   0.700 -0.3433 -0.1953 -0.5269
  987MOL0     C36130   9.760   9.025   0.773  0.2490 -1.0282 -0.2005
  987MOL0     C36131   9.637   8.971   0.860 -0.4948 -0.6156 -0.5521
  987MOL0     C36132   9.639   8.818   0.860 -0.4054  0.5323  0.6166
  987MOL0     C36133   9.638   8.700   0.875  0.8115 -0.0624  0.6156
  987MOL0     C36134   9.940   9.397   0.855  0.1205  1.0619  0.6285
  987MOL0     C36135  10.078   9.424   0.864 -0.1698  1.4389 -0.2297
  987MOL0     C36136  10.139   9.536   0.780  0.3859  0.4442  0.2853
  987MOL0     H36137  10.441   9.526   1.253  0.5829  0.3132  0.3387
  987MOL0     H36138  10.664   9.563   1.336  0.5667 -0.4067  1.9725
  987MOL0     H36139  10.846   9.516   1.457 -0.9384  0.1294 -1.2677
  987MOL0     H36140  10.912   9.587   1.304 -0.4380  0.8027  0.1185
  987MOL0     H36141  11.088   9.579   1.470 -2.1231  1.7799 -2.1169
  987MOL0     H36142  11.056   9.402   1.495 -0.6338 -0.2300 -0.5193
  987MOL0     H36143  11.136   9.397   1.236  0.8679 -0.0103  0.6882
  987MOL0     H36144  11.174   9.565   1.256 -0.3461 -0.3364 -0.6005
  987MOL0     H36145  11.315   9.493   1.461  1.2067 -0.2495 -0.1188
  987MOL0     H36146  11.269   9.323   1.414 -2.3760 -0.0479 -1.9653
  987MOL0     H36147  11.385   9.506   1.211  0.0195 -0.4514 -1.2819
  987MOL0     H36148  11.366   9.331   1.209 -2.0522  0.5181 -0.0444
  987MOL0     H36149  11.599   9.397   1.235 -0.2078  2.1977  0.1497
  987MOL0     H36150  11.563   9.483   1.386 -1.0427 -0.4387  0.3185
  987MOL0     H36151  11.514   9.187   1.400 -2.2941  2.2622  1.7438
  987MOL0     H36152  11.554   9.300   1.515  0.4495 -0.2079 -0.0949
  987MOL0     H36153  11.772   9.343   1.375  1.5334 -1.2196 -1.0327
  987MOL0     H36154  11.752   9.202   1.480 -2.6041 -0.9987  0.6033
  987MOL0     H36155  11.950   9.215   1.214  1.9475 -0.6416 -0.4654
  987MOL0     H36156  11.988   9.158   0.950  2.2247 -1.2110  0.0561
  987MOL0     H36157  11.870   9.039   0.885  0.2676 -3.2139 -0.1004
  987MOL0     H36158  12.098   8.995   1.098 -2.0680 -1.4338  2.2381
  987MOL0     H36159  12.020   8.869   0.992  0.3866  0.4505 -0.3107
  987MOL0     H36160  12.114   8.970   0.796 -1.0906 -1.3517  0.5073
  987MOL0     H36161  12.206   9.090   0.897  0.8551 -0.4967  0.4846
  987MOL0     H36162  12.336   8.867   0.984  0.4494  1.2452  0.2775
  987MOL0     H36163  12.266   8.787   0.842 -1.3860  0.0271  0.3567
  987MOL0     H36164  12.569   8.754   0.730  2.2392 -1.3971  0.2288
  987MOL0     H36165  12.794   8.629   0.887 -0.0191  1.2089 -0.1932
  987MOL0     H36166  12.914   8.720   0.779  0.5501 -0.9548 -0.4318
  987MOL0     H36167  12.778   8.632   0.712  0.2136  1.0410 -1.1106
  987MOL0     H36168  13.039   8.950   1.309 -0.8496 -0.5549  0.0239
  987MOL0     H36169  13.286   8.954   1.375  5.2359  0.9306  0.4174
  987MOL0     H36170  13.527   9.253   1.103  1.4233  3.0382  2.0452
  987MOL0     H36171  13.489   9.280   1.265  0.0720 -0.0148  0.6245
  987MOL0     H36172  13.728   9.318   1.214 -1.5010  0.7264 -0.0241
  987MOL0     H36173  13.705   9.178   1.331 -0.6877 -4.2544 -0.3838
  987MOL0     H36174  13.849   9.171   1.079  1.5297 -1.0704 -0.3779
  987MOL0     H36175  13.725   9.055   1.078  0.5413 -0.3530  0.5845
  987MOL0     H36176  13.915   8.964   1.172  1.6035  0.8616 -0.6220
  987MOL0     H36177  13.808   8.973   1.310 -0.2155  1.1813  0.2570
  987MOL0     H36178  13.939   9.209   1.346 -2.0738 -1.1998  1.3567
  987MOL0     H36179  13.972   9.045   1.416 -0.5870 -1.3390 -0.4229
  987MOL0     H36180  14.095   9.110   1.159  0.2395 -3.5828 -0.8409
  987MOL0     H36181  14.143   8.995   1.285 -1.1760 -0.0801  2.9490
  987MOL0     H36182  14.189   9.182   1.445 -0.7549  0.0947  0.0324
  987MOL0     H36183  14.163   9.297   1.309 -0.2942 -0.2603  0.9003
  987MOL0     H36184  14.388   9.281   1.322 -1.0477  0.3310  1.4372
  987MOL0     H36185  14.341   9.195   1.169 -0.4401  1.0727 -1.0549
  987MOL0     H36186  13.351   9.174   0.998 -3.0015  0.0967 -2.4193
  987MOL0     H36187  13.118   9.140   0.940  0.4113  0.2098  1.1093
  987MOL0     H36188  12.699   9.070   1.076 -1.1628 -0.1768  0.1598
  987MOL0     H36189  12.485   9.094   0.984  1.7179 -0.2490  3.6501
  987MOL0     H36190  10.790   9.192   1.160  1.5531  2.2396 -0.7531
  987MOL0     H36191  10.571   9.168   1.059  1.2358  0.7233 -0.4056
  987MOL0     H36192  10.128   9.221   1.137 -0.7013  1.3395  1.1290
  987MOL0     H36193   9.893   9.161   1.079  1.2637 -0.1722  0.1363
  987MOL0     H36194   9.581   9.264   0.800  0.8901  0.2561 -1.3192
  987MOL0     H36195   9.684   9.385   0.742  0.5419  1.5955  0.4610
  987MOL0     H36196   9.849   9.199   0.678 -0.8112  2.6605  1.4291
  987MOL0     H36197   9.693   9.156   0.606 -0.1064 -1.0974 -0.5998
  987MOL0     H36198   9.759   8.961   0.684  0.6298  1.4293 -2.0738
  987MOL0     H36199   9.850   9.023   0.834 -0.7768  1.4505  1.5418
  987MOL0     H36200   9.553   9.011   0.803  1.3021  2.4529 -1.2981
  987MOL0     H36201   9.628   9.009   0.962 -1.0700 -0.5826 -0.6120
  987MOL0     H36202   9.642   8.593   0.884 -0.5163 -0.1175  0.7945
  987MOL0     H36203   9.886   9.440   0.770 -0.6332 -4.3226 -2.0859
  987MOL0     H36204  10.062   9.569   0.710  2.6218  1.2371 -1.9432
  987MOL0     H36205  10.166   9.619   0.846 -0.3528 -0.6797  2.0617
  987MOL0     H36206  10.222   9.490   0.725 -1.6573 -2.9372 -0.2589
  988MOL0     O36207   4.318   9.839  10.265 -0.5197 -0.2830  0.3468
  988MOL0     C36208   4.361   9.910  10.353 -0.1668  0.9272  0.2232
  988MOL0     O36209   4.284   9.971  10.443 -0.9229 -0.2269 -0.3030
  988MOL0     C36210   4.147   9.948  10.454 -0.1207  0.3933  0.9247
  988MOL0     C36211   4.085   9.894  10.569  0.0199  0.3397  0.2029
  988MOL0     C36212   3.944   9.888  10.575  0.4733  0.0287  0.8491
  988MOL0     C36213   3.860   9.922  10.466  0.5896  1.3517 -0.0875
  988MOL0     O36214   3.723   9.912  10.470 -1.2743  0.1447 -0.8839
  988MOL0     C36215   3.658   9.831  10.372 -0.0640 -0.4129 -0.5592
  988MOL0     C36216   3.509   9.864  10.355 -0.2664  0.2479 -0.1095
  988MOL0     C36217   3.440   9.825  10.491  0.1250 -0.3675 -0.7105
  988MOL0     C36218   3.300   9.873  10.503 -0.3347 -0.6287  0.2336
  988MOL0     C36219   3.229   9.852  10.639 -0.1137 -0.4700 -0.1159
  988MOL0     C36220   3.188   9.703  10.669 -0.5149  0.3239  0.3790
  988MOL0     C36221   3.111   9.689  10.800  0.2106  0.3936 -0.1217
  988MOL0     C36222   2.957   9.718  10.785 -0.1376  0.3210  0.0097
  988MOL0     N36223   2.895   9.612  10.704 -0.1836  0.0356 -0.5552
  988MOL0     C36224   2.878   9.482  10.741 -0.5578 -0.1221  0.7127
  988MOL0     C36225   2.813   9.424  10.643 -0.2213  0.8012  0.2411
  988MOL0     C36226   2.784   9.277  10.637  0.6071  0.0495  0.3190
  988MOL0     C36227   2.674   9.248  10.542 -0.4514  0.1304 -0.5815
  988MOL0     C36228   2.629   9.103  10.562 -0.0899 -0.1802  0.0469
  988MOL0     C36229   2.565   9.047  10.434  1.0400  0.2000  0.3599
  988MOL0     O36230   2.572   8.906  10.452  0.7379 -0.8801  0.8878
  988MOL0     C36231   2.482   8.828  10.375  1.0978  0.6208 -0.4278
  988MOL0     C36232   2.367   8.787  10.436  0.8538 -0.1287 -0.3914
  988MOL0     C36233   2.274   8.704  10.377  0.1478  0.4305  0.2045
  988MOL0     C36234   2.146   8.668  10.459  0.4285  0.0990  0.0651
  988MOL0     C36235   2.301   8.651  10.248 -0.1333 -0.0703 -0.0238
  988MOL0     C36236   2.208   8.567  10.171  0.2112 -0.2260 -0.0458
  988MOL0     O36237   2.182   8.610  10.043 -0.0478  0.7189 -0.0450
  988MOL0     C36238   2.085   8.540   9.981 -0.1907 -0.4012  0.0389
  988MOL0     C36239   2.115   8.451   9.881 -1.0281  0.2306  0.0926
  988MOL0     C36240   2.006   8.392   9.821  0.0936  0.0513  0.5624
  988MOL0     C36241   1.871   8.410   9.861 -0.3799  0.2247 -0.4399
  988MOL0     O36242   1.772   8.341   9.789  0.1602 -0.5267 -0.1401
  988MOL0     C36243   1.653   8.311   9.865 -1.0722 -0.6483  0.4344
  988MOL0     C36244   1.587   8.187   9.809  0.0917  0.5685  0.2433
  988MOL0     C36245   1.482   8.226   9.703  0.4513 -0.3063 -0.5351
  988MOL0     C36246   1.539   8.289   9.584 -0.3435 -0.3689  0.6603
  988MOL0     C36247   1.596   8.188   9.481 -0.5220  0.7746 -1.4063
  988MOL0     C36248   1.642   8.247   9.352  0.2486 -0.4269  0.4079
  988MOL0     C36249   1.767   8.199   9.292  0.1112  0.0920 -0.0404
  988MOL0     C36250   1.776   8.227   9.145 -0.3901  0.2587 -0.0451
  988MOL0    Cl36251   1.933   8.161   9.081  0.2600  0.4808  0.0958
  988MOL0     C36252   1.847   8.498   9.964 -0.2076 -0.8182 -0.7902
  988MOL0     C36253   1.952   8.565  10.024  0.5669 -0.7802 -0.2490
  988MOL0     O36254   2.146   8.479  10.230 -0.2200  0.2788 -0.1633
  988MOL0     C36255   2.414   8.703  10.177 -0.8186 -0.4747  0.1894
  988MOL0     C36256   2.502   8.789  10.242  0.3244 -0.5183 -0.5816
  988MOL0     N36257   2.787   9.515  10.541 -0.5244  0.1027  0.2387
  988MOL0     N36258   2.844   9.637  10.580  0.1769  0.4311  0.6975
  988MOL0     C36259   3.921   9.963  10.345  0.7317 -0.2382  0.7348
  988MOL0     C36260   4.056   9.980  10.341 -0.7895  0.1452 -0.5874
  988MOL0     C36261   4.503   9.893  10.371  0.0708  0.0142 -0.8537
  988MOL0     C36262   4.544   9.889  10.504 -0.0086  0.2504 -0.3933
  988MOL0     C36263   4.670   9.863  10.536 -0.0478 -1.3016 -0.9182
  988MOL0     C36264   4.767   9.838  10.443 -0.2844 -0.4090  0.0483
  988MOL0     O36265   4.897   9.822  10.477  0.1339  0.6051 -1.0759
  988MOL0     C36266   4.953   9.932  10.549  0.6620 -0.8125 -0.1499
  988MOL0     C36267   5.056  10.011  10.474  0.0815  0.4266  0.6551
  988MOL0     C36268   5.078  10.158  10.536 -0.0360  0.2975  0.0253
  988MOL0     C36269   5.178  10.143  10.653 -0.4769 -0.2034 -0.4508
  988MOL0     C36270   5.313  10.164  10.598 -0.0373  0.0019  0.0356
  988MOL0     C36271   5.423  10.187  10.548 -0.5265 -0.2321  0.1547
  988MOL0     C36272   4.733   9.853  10.306 -0.2585  0.5716 -0.0063
  988MOL0     C36273   4.599   9.884  10.270  0.0392  0.4666 -0.5390
  988MOL0     C36274   4.568   9.892  10.121  0.8092  1.1913 -0.0916
  988MOL0     H36275   4.154   9.861  10.646  0.3887 -0.0052 -0.2745
  988MOL0     H36276   3.898   9.838  10.660 -0.2185 -0.4898  0.1785
  988MOL0     H36277   3.681   9.727  10.397  1.3786 -0.6933 -2.7882
  988MOL0     H36278   3.695   9.830  10.269 -1.0185 -2.3122 -0.9409
  988MOL0     H36279   3.512   9.970  10.330  1.8283  0.7001  1.7200
  988MOL0     H36280   3.478   9.808  10.266  2.8190 -1.7674 -0.0773
  988MOL0     H36281   3.454   9.716  10.488 -0.4800 -0.6883  3.3226
  988MOL0     H36282   3.490   9.859  10.582 -3.6225  0.6895  1.1542
  988MOL0     H36283   3.304   9.981  10.487  1.2193 -0.0904  3.5747
  988MOL0     H36284   3.238   9.820  10.429  0.1713 -0.5773 -0.2367
  988MOL0     H36285   3.138   9.912  10.636 -1.4435 -2.4012 -0.4746
  988MOL0     H36286   3.280   9.892  10.727 -1.4300 -0.1934  0.5461
  988MOL0     H36287   3.137   9.658  10.584  1.9825 -1.8261 -0.0852
  988MOL0     H36288   3.286   9.656  10.679  0.0924  0.5121 -3.2583
  988MOL0     H36289   3.142   9.750  10.885 -1.8502  1.3883 -0.0146
  988MOL0     H36290   3.131   9.586  10.829 -1.3118 -1.0719 -3.6993
  988MOL0     H36291   2.904   9.730  10.880 -3.1502 -0.7830 -1.3952
  988MOL0     H36292   2.947   9.814  10.734  2.3524  0.4038 -0.4626
  988MOL0     H36293   2.899   9.442  10.839 -0.9195  3.0124  2.2008
  988MOL0     H36294   2.748   9.246  10.735  1.4870 -1.2742  0.2511
  988MOL0     H36295   2.871   9.214  10.613  0.5270 -0.8995  2.2660
  988MOL0     H36296   2.589   9.312  10.566 -0.4211 -0.2651  0.6453
  988MOL0     H36297   2.706   9.245  10.437 -0.2771 -2.5470 -0.5352
  988MOL0     H36298   2.716   9.047  10.597  0.3801  1.2175  1.1908
  988MOL0     H36299   2.540   9.099  10.627  0.5519  0.9435  1.0500
  988MOL0     H36300   2.464   9.089  10.437 -0.0503 -2.1597 -0.9368
  988MOL0     H36301   2.607   9.073  10.336  1.3335  0.3446  0.5209
  988MOL0     H36302   2.345   8.818  10.538 -2.2136  3.5896 -1.9400
  988MOL0     H36303   2.145   8.734  10.546  4.4883 -0.2914  0.5821
  988MOL0     H36304   2.149   8.560  10.479 -1.4713 -0.0207 -0.0964
  988MOL0     H36305   2.066   8.682  10.385  2.6442 -1.7926 -2.9715
  988MOL0     H36306   2.220   8.432   9.863 -1.6067 -1.8812 -1.3279
  988MOL0     H36307   2.024   8.320   9.741  0.6952 -0.9692  1.5819
  988MOL0     H36308   1.672   8.296   9.972  3.9756 -0.4877 -0.1869
  988MOL0     H36309   1.587   8.398   9.856 -0.6411 -0.2624  0.9228
  988MOL0     H36310   1.658   8.120   9.760 -2.1764 -1.8498  0.0184
  988MOL0     H36311   1.535   8.131   9.887  0.7514  1.5857  1.4452
  988MOL0     H36312   1.396   8.282   9.738 -1.4729 -2.7733 -1.0302
  988MOL0     H36313   1.426   8.140   9.666 -1.2797  1.5030 -2.3565
  988MOL0     H36314   1.612   8.369   9.603 -1.4267  0.5467  1.0614
  988MOL0     H36315   1.459   8.339   9.529 -1.8167 -2.0748  1.1566
  988MOL0     H36316   1.668   8.122   9.531 -0.8086  0.3028 -1.6065
  988MOL0     H36317   1.531   8.103   9.459  0.9446 -0.6331 -0.5694
  988MOL0     H36318   1.665   8.350   9.381 -1.9458  0.2302 -0.0469
  988MOL0     H36319   1.556   8.246   9.284  0.8497 -0.4678 -0.3667
  988MOL0     H36320   1.773   8.093   9.319  2.5630  0.5018  1.3392
  988MOL0     H36321   1.844   8.253   9.347 -1.1031  0.8514  0.9669
  988MOL0     H36322   1.776   8.334   9.125  0.4669  0.8342  2.6167
  988MOL0     H36323   1.690   8.189   9.089  0.6278  1.1722 -2.3601
  988MOL0     H36324   1.747   8.516  10.004 -0.7415 -0.1482 -2.3204
  988MOL0     H36325   1.939   8.648  10.092 -2.3471 -0.1770 -1.4027
  988MOL0     H36326   2.429   8.688  10.070 -2.2154 -0.6118 -0.0066
  988MOL0     H36327   2.592   8.826  10.193 -0.3895 -1.5745 -2.7913
  988MOL0     H36328   3.855   9.984  10.261 -0.2785  1.0717  1.8043
  988MOL0     H36329   4.109  10.012  10.251 -2.1259  0.5073 -1.2762
  988MOL0     H36330   4.467   9.901  10.579 -1.1822  0.4727 -1.6037
  988MOL0     H36331   4.694   9.850  10.641 -3.7603 -2.9148 -0.0888
  988MOL0     H36332   4.874  10.002  10.580  4.5687  3.6248  1.0075
  988MOL0     H36333   5.000   9.904  10.644  1.6466 -1.5311 -0.8250
  988MOL0     H36334   5.022  10.029  10.372  0.1203  4.0861  1.1336
  988MOL0     H36335   5.149   9.956  10.461 -1.4916 -1.6365 -4.0148
  988MOL0     H36336   5.111  10.225  10.455 -0.3229  0.3634 -0.0381
  988MOL0     H36337   4.990  10.209  10.577  0.9109  1.1079  1.1174
  988MOL0     H36338   5.162  10.048  10.703  0.4279 -0.5580 -0.8248
  988MOL0     H36339   5.167  10.225  10.725 -0.2957  0.1266 -0.7932
  988MOL0     H36340   5.514  10.207  10.495 -1.9491  0.3915 -2.1952
  988MOL0     H36341   4.800   9.844  10.222  0.2955 -0.6779  0.5467
  988MOL0     H36342   4.651   9.891  10.050  0.3088  0.8952 -0.6837
  988MOL0     H36343   4.509   9.807  10.087  2.4208 -0.1816  0.4222
  988MOL0     H36344   4.493   9.970  10.105 -1.8846 -0.6343  2.6071
  989MOL0     O36345   1.012   8.426   4.855  0.1146 -0.6303  0.6433
  989MOL0     C36346   0.922   8.381   4.928  0.2745  0.7521 -0.7353
  989MOL0     O36347   0.926   8.361   5.066 -0.0322  0.0628 -0.4200
  989MOL0     C36348   1.033   8.430   5.120 -0.4284 -0.0264 -0.6365
  989MOL0     C36349   1.000   8.534   5.209  0.0929 -0.6596  0.7692
  989MOL0     C36350   1.108   8.581   5.289  0.0633  0.2019 -1.1363
  989MOL0     C36351   1.234   8.537   5.287 -0.4419 -0.0315 -0.2012
  989MOL0     O36352   1.336   8.590   5.362 -0.0860  0.0070  0.4531
  989MOL0     C36353   1.334   8.724   5.424 -0.1310  0.4306 -0.5769
  989MOL0     C36354   1.439   8.732   5.531 -0.3057 -0.3321 -1.1225
  989MOL0     C36355   1.580   8.694   5.480  0.1781 -0.0316 -0.3300
  989MOL0     C36356   1.698   8.728   5.577 -0.1907 -0.1183  0.5196
  989MOL0     C36357   1.837   8.724   5.516 -0.7950 -0.1436 -0.0653
  989MOL0     C36358   1.884   8.579   5.484 -0.9993  0.4962 -0.2972
  989MOL0     C36359   2.024   8.565   5.416  0.5260 -0.2301  0.0323
  989MOL0     C36360   2.050   8.414   5.401 -1.0794 -0.4456 -0.4966
  989MOL0     N36361   2.199   8.405   5.378  0.0270  0.0121  0.6951
  989MOL0     C36362   2.289   8.394   5.483  0.2437  0.4733 -0.4621
  989MOL0     C36363   2.411   8.389   5.424 -0.0616  0.6094 -0.0361
  989MOL0     C36364   2.529   8.384   5.505  0.7334  0.3774 -0.2326
  989MOL0     C36365   2.639   8.312   5.428  0.0220  0.8937 -0.4234
  989MOL0     C36366   2.763   8.298   5.528  0.0851  0.2832 -0.2698
  989MOL0     C36367   2.883   8.245   5.434  1.1338  0.3179 -0.5565
  989MOL0     O36368   2.984   8.207   5.523 -0.5731 -0.1685  0.1369
  989MOL0     C36369   3.104   8.169   5.466 -0.4689 -0.5001 -0.0607
  989MOL0     C36370   3.141   8.179   5.330 -0.6542 -0.1374 -0.3404
  989MOL0     C36371   3.255   8.110   5.284  0.8210 -0.4590  0.1681
  989MOL0     C36372   3.294   8.109   5.133  0.3093 -0.0803 -0.1334
  989MOL0     C36373   3.329   8.029   5.373  0.5444  0.1591  0.3048
  989MOL0     C36374   3.433   7.927   5.335 -0.3241 -0.5933 -0.3759
  989MOL0     O36375   3.523   7.907   5.424  0.3748  0.5397 -0.6736
  989MOL0     C36376   3.626   7.814   5.415  0.3159  0.1831  0.4263
  989MOL0     C36377   3.607   7.689   5.476 -0.0888 -0.4529 -0.6910
  989MOL0     C36378   3.710   7.598   5.470 -0.0051 -0.0331 -0.3401
  989MOL0     C36379   3.820   7.618   5.384 -0.1434 -0.1664 -0.8566
  989MOL0     O36380   3.914   7.515   5.388  0.4099 -0.6508 -0.6669
  989MOL0     C36381   4.049   7.544   5.341 -0.2476 -0.2486 -0.7045
  989MOL0     C36382   4.140   7.438   5.408 -0.2039 -0.3655 -0.7849
  989MOL0     C36383   4.144   7.437   5.561  0.1808 -0.1626 -0.1674
  989MOL0     C36384   4.184   7.569   5.632  0.1932  1.0541 -0.0160
  989MOL0     C36385   4.174   7.565   5.788  0.4153 -0.0907 -0.4140
  989MOL0     C36386   4.258   7.675   5.846  0.4315 -0.2966  0.3200
  989MOL0     C36387   4.194   7.815   5.817 -0.4448 -0.0850  0.0495
  989MOL0     C36388   4.290   7.926   5.868 -0.8445 -0.3262 -0.6954
  989MOL0    Cl36389   4.318   7.933   6.044 -0.5975 -0.1725  0.2352
  989MOL0     C36390   3.839   7.745   5.321  0.4060  0.6306 -0.4176
  989MOL0     C36391   3.747   7.844   5.342 -0.0760 -0.4090  0.0610
  989MOL0     O36392   3.437   7.888   5.223  0.3152 -0.0391  0.2397
  989MOL0     C36393   3.297   8.031   5.512 -0.2459  0.1268 -0.1556
  989MOL0     C36394   3.184   8.098   5.554 -0.4381  0.4014  0.1136
  989MOL0     N36395   2.403   8.385   5.286 -0.5867 -0.2112  0.9548
  989MOL0     N36396   2.277   8.402   5.260 -0.2392 -0.4399  0.1079
  989MOL0     C36397   1.269   8.423   5.208  0.3003 -0.4219 -1.6928
  989MOL0     C36398   1.166   8.377   5.123  0.1242  0.3416  0.0849
  989MOL0     C36399   0.787   8.343   4.860 -0.1818 -0.5222  0.3363
  989MOL0     C36400   0.750   8.211   4.872 -0.0913  0.6035  0.1238
  989MOL0     C36401   0.643   8.165   4.800  0.2528 -0.6361 -0.3338
  989MOL0     C36402   0.561   8.246   4.726 -0.0973 -0.9451 -0.3721
  989MOL0     O36403   0.447   8.190   4.666  0.1030 -0.4052  0.0091
  989MOL0     C36404   0.324   8.253   4.715 -0.5346  0.1555  0.2265
  989MOL0     C36405   0.279   8.195   4.846 -0.6645 -0.6241  0.1202
  989MOL0     C36406   0.245   8.045   4.830 -0.3222  0.1389  0.6008
  989MOL0     C36407   0.167   7.994   4.956 -0.6810  0.4059 -0.1216
  989MOL0     C36408   0.165   7.849   4.965 -0.3413 -0.3027  0.4344
  989MOL0     C36409   0.169   7.728   4.963  0.1751 -0.4432  0.5937
  989MOL0     C36410   0.595   8.383   4.728  0.2981  0.2152  0.1331
  989MOL0     C36411   0.708   8.430   4.791 -0.0333  0.1970 -0.1664
  989MOL0     C36412   0.724   8.580   4.799  0.2799 -0.4332  0.0229
  989MOL0     H36413   0.899   8.572   5.211  0.6865  1.0879  3.2781
  989MOL0     H36414   1.078   8.663   5.354 -2.2940 -0.9102 -0.7277
  989MOL0     H36415   1.239   8.742   5.475 -1.5298 -0.7985 -2.6208
  989MOL0     H36416   1.355   8.810   5.361  1.3186 -0.5171 -1.4448
  989MOL0     H36417   1.436   8.834   5.571 -0.1296 -0.5079 -0.6561
  989MOL0     H36418   1.412   8.666   5.614 -0.8386  1.3008  0.0501
  989MOL0     H36419   1.589   8.590   5.445  1.4047 -0.7837  2.0248
  989MOL0     H36420   1.606   8.762   5.398  1.2946  1.0338  0.8830
  989MOL0     H36421   1.684   8.834   5.600  0.1816  0.1354 -0.3811
  989MOL0     H36422   1.689   8.659   5.662  1.9513  0.9756  1.7514
  989MOL0     H36423   1.914   8.767   5.579  1.1211  0.5586 -2.7135
  989MOL0     H36424   1.822   8.775   5.420  1.1685 -2.8360 -1.9558
  989MOL0     H36425   1.877   8.518   5.575  0.1880  2.2452  1.0570
  989MOL0     H36426   1.808   8.533   5.421 -0.2868 -1.7304  0.3899
  989MOL0     H36427   2.097   8.613   5.482 -0.3286 -0.6984  1.3745
  989MOL0     H36428   2.023   8.612   5.318  1.6383  0.6941  0.4421
  989MOL0     H36429   2.025   8.356   5.490 -0.3542 -1.5535 -0.9928
  989MOL0     H36430   1.992   8.384   5.313 -1.6686  2.4504 -1.2001
  989MOL0     H36431   2.260   8.387   5.587 -2.4115 -4.2253 -1.2439
  989MOL0     H36432   2.512   8.331   5.599  4.1422  1.7015  1.3031
  989MOL0     H36433   2.557   8.487   5.528  1.6251 -0.1582  1.2213
  989MOL0     H36434   2.609   8.211   5.398  0.0333 -0.4370  3.4292
  989MOL0     H36435   2.674   8.365   5.339  0.0376 -0.7810 -1.4542
  989MOL0     H36436   2.781   8.396   5.572 -2.7576  1.1309 -0.7911
  989MOL0     H36437   2.747   8.215   5.597  1.0075 -0.8088 -1.2969
  989MOL0     H36438   2.861   8.168   5.361  1.0746  0.8394 -1.0969
  989MOL0     H36439   2.920   8.330   5.377  1.9664 -1.4582 -2.7859
  989MOL0     H36440   3.096   8.243   5.255 -0.7116  1.4921  1.0260
  989MOL0     H36441   3.272   8.207   5.088  1.9207  0.6892  0.6909
  989MOL0     H36442   3.235   8.039   5.073 -1.1733  1.1150 -0.1203
  989MOL0     H36443   3.403   8.107   5.122  0.7638  4.1549  1.6219
  989MOL0     H36444   3.520   7.663   5.535  0.8667  0.0721  1.0043
  989MOL0     H36445   3.710   7.503   5.522 -1.3720 -0.9611 -1.9634
  989MOL0     H36446   4.052   7.539   5.231  0.7838 -0.1889 -0.6882
  989MOL0     H36447   4.074   7.645   5.376  1.1954 -0.8707  0.1253
  989MOL0     H36448   4.120   7.336   5.373  0.6619 -0.2905 -1.5489
  989MOL0     H36449   4.242   7.444   5.370 -0.0681 -1.4529 -0.6392
  989MOL0     H36450   4.207   7.351   5.588  1.1742 -0.0167 -1.9151
  989MOL0     H36451   4.041   7.418   5.592 -0.5103  2.0630 -0.9266
  989MOL0     H36452   4.115   7.649   5.605  0.8813  2.7007  2.7386
  989MOL0     H36453   4.286   7.598   5.606 -0.1334  0.4403 -2.1990
  989MOL0     H36454   4.076   7.574   5.836  1.6120  4.2836  1.7021
  989MOL0     H36455   4.230   7.475   5.814  0.7563  0.4457  0.7305
  989MOL0     H36456   4.362   7.674   5.812  0.6859 -0.3698  1.0832
  989MOL0     H36457   4.262   7.664   5.954  2.8490 -0.3663  0.2662
  989MOL0     H36458   4.101   7.825   5.873 -0.1077 -1.4596  0.9124
  989MOL0     H36459   4.186   7.829   5.708  1.0454  0.8972  0.0399
  989MOL0     H36460   4.247   8.021   5.835 -0.3975  0.6703  1.4441
  989MOL0     H36461   4.386   7.914   5.817  0.9513  1.5834  1.9777
  989MOL0     H36462   3.925   7.762   5.258  0.1954  3.5803 -0.0149
  989MOL0     H36463   3.768   7.944   5.305 -4.0781  0.5524  0.0138
  989MOL0     H36464   3.350   7.961   5.577  1.7884 -0.3480 -2.2042
  989MOL0     H36465   3.154   8.088   5.657  0.9603  3.0315  0.8643
  989MOL0     H36466   1.371   8.386   5.207  0.5495  0.2587 -1.8996
  989MOL0     H36467   1.187   8.296   5.054  0.4265 -0.1517  0.7427
  989MOL0     H36468   0.804   8.133   4.926 -4.4537 -0.8730  2.8294
  989MOL0     H36469   0.608   8.064   4.783 -1.4083  0.1216 -1.8121
  989MOL0     H36470   0.343   8.358   4.738 -1.1410  0.6249 -1.2731
  989MOL0     H36471   0.246   8.245   4.639  0.5966  1.2142 -1.1105
  989MOL0     H36472   0.193   8.251   4.884  1.0756 -0.3513  4.1979
  989MOL0     H36473   0.360   8.206   4.919  0.8345 -1.2988 -1.3628
  989MOL0     H36474   0.184   8.019   4.743  0.8983  0.8409 -0.5007
  989MOL0     H36475   0.346   8.003   4.823 -0.3743 -0.2431  1.8618
  989MOL0     H36476   0.065   8.032   4.959 -1.0336 -0.5647  1.0352
  989MOL0     H36477   0.213   8.028   5.049  1.1449  0.7470 -1.0934
  989MOL0     H36478   0.172   7.621   4.964  3.6889 -0.4490  1.5293
  989MOL0     H36479   0.534   8.451   4.668 -0.0455  0.7617  1.0818
  989MOL0     H36480   0.689   8.628   4.707  0.8894 -0.2611 -0.1212
  989MOL0     H36481   0.660   8.621   4.878  0.0594  3.5754 -1.9774
  989MOL0     H36482   0.827   8.612   4.818 -0.6633  1.8596  1.7586
  990MOL0     O36483   9.652   0.616   3.482 -0.6169 -0.2580 -0.3516
  990MOL0     C36484   9.643   0.552   3.590  0.0782  0.0666 -0.5345
  990MOL0     O36485   9.745   0.503   3.663 -0.0962 -0.2229 -0.4442
  990MOL0     C36486   9.866   0.496   3.602 -0.1431  0.4722  0.7646
  990MOL0     C36487   9.899   0.396   3.507  0.0016  0.6372  0.0918
  990MOL0     C36488  10.030   0.396   3.456  0.0273 -0.3933  0.0266
  990MOL0     C36489  10.121   0.493   3.477 -0.3492 -0.3201 -0.1612
  990MOL0     O36490  10.244   0.485   3.412 -0.3588 -0.1105 -0.5769
  990MOL0     C36491  10.340   0.390   3.461  0.4253 -0.7844 -0.4503
  990MOL0     C36492  10.490   0.444   3.446  0.0450 -0.9740 -0.0106
  990MOL0     C36493  10.523   0.445   3.297 -0.4887  1.0296  0.1546
  990MOL0     C36494  10.675   0.476   3.279  0.0151 -0.2424  0.2105
  990MOL0     C36495  10.709   0.486   3.128 -0.0320  0.2729  0.0353
  990MOL0     C36496  10.714   0.343   3.063  0.1546  0.0162  0.1546
  990MOL0     C36497  10.832   0.260   3.119 -0.1272 -0.3012  0.7917
  990MOL0     C36498  10.838   0.121   3.053  0.9603  0.0812  0.0076
  990MOL0     N36499  10.937   0.037   3.116  0.0426 -0.1798  0.2121
  990MOL0     C36500  10.928  -0.082   3.186 -0.4076  0.2678  0.2389
  990MOL0     C36501  11.058  -0.118   3.214  0.4534 -0.5744 -0.0274
  990MOL0     C36502  11.099  -0.251   3.273 -0.4086  0.0050  0.0646
  990MOL0     C36503  11.250  -0.258   3.309 -0.7054  0.1380 -0.0595
  990MOL0     C36504  11.282  -0.391   3.378 -0.6374  0.1857  0.3554
  990MOL0     C36505  11.429  -0.399   3.422  0.8007  0.8175  0.5694
  990MOL0     O36506  11.452  -0.531   3.472  0.4718  0.4109 -0.7136
  990MOL0     C36507  11.578  -0.563   3.503 -0.4547 -0.9224 -0.7060
  990MOL0     C36508  11.606  -0.612   3.634  0.7552 -0.0179  0.1200
  990MOL0     C36509  11.739  -0.636   3.673 -0.4664 -0.0238 -0.1139
  990MOL0     C36510  11.763  -0.692   3.813 -0.0047  0.2370 -0.5364
  990MOL0     C36511  11.850  -0.621   3.579 -0.0781  0.8856  0.2793
  990MOL0     C36512  11.992  -0.665   3.599 -0.0385 -0.2529  0.8541
  990MOL0     O36513  12.095  -0.579   3.553  0.9849  0.3366 -0.2749
  990MOL0     C36514  12.220  -0.621   3.573  0.3061  0.2449 -0.9655
  990MOL0     C36515  12.288  -0.717   3.494 -0.1443 -0.6640 -0.0050
  990MOL0     C36516  12.416  -0.759   3.521 -0.3817 -0.2678 -0.4526
  990MOL0     C36517  12.485  -0.713   3.636  0.2800  0.5585  0.5802
  990MOL0     O36518  12.611  -0.768   3.649  0.4617 -0.2136 -0.8103
  990MOL0     C36519  12.697  -0.713   3.744 -0.2886  0.2276 -0.8639
  990MOL0     C36520  12.818  -0.806   3.749  0.1329  0.3581 -0.0709
  990MOL0     C36521  12.932  -0.737   3.826 -0.4297 -0.6127 -0.2529
  990MOL0     C36522  13.070  -0.810   3.821 -0.7634  0.8374 -0.4646
  990MOL0     C36523  13.178  -0.714   3.887 -0.3360  0.8427  0.0313
  990MOL0     C36524  13.320  -0.752   3.832  0.2133 -0.3407 -0.3695
  990MOL0     C36525  13.357  -0.897   3.869  0.1991  0.2018  0.0621
  990MOL0     C36526  13.494  -0.937   3.820  0.1509  0.1377 -0.2977
  990MOL0    Cl36527  13.613  -0.826   3.883 -0.2882  0.2662 -0.4046
  990MOL0     C36528  12.424  -0.616   3.715 -0.4989 -0.7062 -0.6751
  990MOL0     C36529  12.292  -0.569   3.686 -0.0526 -0.6966 -0.2039
  990MOL0     O36530  12.017  -0.770   3.656 -0.4900  0.1283 -0.4043
  990MOL0     C36531  11.814  -0.577   3.447 -0.2185  0.2479 -0.3568
  990MOL0     C36532  11.679  -0.553   3.409  0.4711 -0.0092 -1.1281
  990MOL0     N36533  11.137  -0.009   3.177  0.2488 -0.2356 -0.2621
  990MOL0     N36534  11.065   0.075   3.113 -0.3423 -0.7338 -0.2639
  990MOL0     C36535  10.085   0.594   3.570  0.1682  0.3546 -0.6555
  990MOL0     C36536   9.963   0.589   3.631  0.1339 -0.3757 -1.0269
  990MOL0     C36537   9.518   0.541   3.663 -0.3498 -0.0823 -0.0597
  990MOL0     C36538   9.407   0.503   3.592 -0.4039 -0.4291 -0.4660
  990MOL0     C36539   9.282   0.536   3.642  0.0590  1.3041 -0.6471
  990MOL0     C36540   9.259   0.592   3.770 -0.0949  0.1704 -0.6792
  990MOL0     O36541   9.129   0.592   3.820 -0.1407 -0.6945 -0.2002
  990MOL0     C36542   9.112   0.639   3.961 -0.1231  0.2149 -0.2962
  990MOL0     C36543   8.967   0.633   3.999  0.1475 -0.4903  0.4557
  990MOL0     C36544   8.884   0.705   3.892  0.3145 -0.1975  0.3675
  990MOL0     C36545   8.735   0.717   3.941 -0.2389 -0.2798  0.1500
  990MOL0     C36546   8.708   0.796   4.067  0.7637  0.7560 -0.2668
  990MOL0     C36547   8.675   0.864   4.162 -0.1884  0.5002  0.0440
  990MOL0     C36548   9.372   0.629   3.837  0.7375 -0.8081  0.1338
  990MOL0     C36549   9.499   0.601   3.788 -0.3507 -0.2820  0.2777
  990MOL0     C36550   9.614   0.648   3.882 -0.6694 -0.0517  0.0717
  990MOL0     H36551   9.834   0.319   3.466 -0.3604  1.1704 -0.3554
  990MOL0     H36552  10.059   0.326   3.378  3.2742  1.1900 -0.3620
  990MOL0     H36553  10.332   0.296   3.405  0.9712  0.0187 -1.9074
  990MOL0     H36554  10.318   0.368   3.566  0.9351  0.9631  0.0446
  990MOL0     H36555  10.499   0.545   3.487  0.0777  0.0350 -2.3437
  990MOL0     H36556  10.562   0.388   3.507  0.6776  0.5281  0.6475
  990MOL0     H36557  10.515   0.341   3.263 -2.6490  0.7760  1.2412
  990MOL0     H36558  10.448   0.509   3.250  0.1472  0.8299 -1.1615
  990MOL0     H36559  10.693   0.576   3.319 -0.0448 -0.9071  1.9819
  990MOL0     H36560  10.752   0.413   3.323 -1.8071 -1.9165  1.1695
  990MOL0     H36561  10.805   0.538   3.116  1.0848 -1.2609  1.6731
  990MOL0     H36562  10.626   0.538   3.080 -1.1748 -0.8031  0.7885
  990MOL0     H36563  10.623   0.286   3.082  0.7159 -1.3509 -1.1040
  990MOL0     H36564  10.721   0.362   2.956 -4.7860  2.0030 -0.0369
  990MOL0     H36565  10.844   0.258   3.227  0.5578 -1.1901  0.7181
  990MOL0     H36566  10.924   0.316   3.098  0.4974 -1.2723  0.8416
  990MOL0     H36567  10.738   0.077   3.057  0.3290  1.0172 -3.1404
  990MOL0     H36568  10.847   0.136   2.945 -4.9807  0.6009 -0.7299
  990MOL0     H36569  10.836  -0.138   3.194 -0.8615  0.7596 -1.3139
  990MOL0     H36570  11.073  -0.322   3.195 -1.7012  2.8319 -2.2951
  990MOL0     H36571  11.035  -0.257   3.361 -0.2130  1.3358  0.3278
  990MOL0     H36572  11.318  -0.250   3.224  0.2371  1.5783  0.7921
  990MOL0     H36573  11.275  -0.172   3.372  1.3049  0.2515 -0.9371
  990MOL0     H36574  11.213  -0.414   3.460  0.4417 -1.0749  0.9387
  990MOL0     H36575  11.261  -0.471   3.306  2.8817  1.1640 -2.0038
  990MOL0     H36576  11.487  -0.388   3.330 -3.7059  1.5520 -2.4909
  990MOL0     H36577  11.441  -0.318   3.495 -2.5068 -0.1418  2.3907
  990MOL0     H36578  11.524  -0.609   3.704 -0.3563 -0.1418 -1.1374
  990MOL0     H36579  11.670  -0.744   3.840 -0.0719 -0.5129 -2.1087
  990MOL0     H36580  11.791  -0.624   3.894  3.2751 -0.7179 -0.7347
  990MOL0     H36581  11.836  -0.774   3.813 -3.1057 -2.8786 -3.2588
  990MOL0     H36582  12.230  -0.750   3.408 -0.7406  0.7364 -0.1654
  990MOL0     H36583  12.466  -0.833   3.459  0.4670  0.6323 -0.8659
  990MOL0     H36584  12.722  -0.612   3.711 -0.1736 -0.2371 -2.2655
  990MOL0     H36585  12.654  -0.716   3.845  0.7416 -0.8118 -0.4409
  990MOL0     H36586  12.790  -0.898   3.802  1.8771  0.0980  0.4943
  990MOL0     H36587  12.845  -0.843   3.650 -2.7370  0.0397 -0.8064
  990MOL0     H36588  12.911  -0.728   3.932  0.1209 -0.9890 -0.1064
  990MOL0     H36589  12.952  -0.635   3.789  0.1437 -1.1575 -1.5328
  990MOL0     H36590  13.102  -0.839   3.720 -1.4500  3.0841 -1.3832
  990MOL0     H36591  13.071  -0.906   3.874  1.9130  0.7586 -0.5396
  990MOL0     H36592  13.153  -0.612   3.858  3.5631  1.4471 -1.9669
  990MOL0     H36593  13.174  -0.731   3.995  0.1066 -2.1026 -0.3076
  990MOL0     H36594  13.395  -0.679   3.862 -1.4179 -0.0031  3.5250
  990MOL0     H36595  13.321  -0.738   3.724 -0.6606 -1.6807 -0.5754
  990MOL0     H36596  13.280  -0.971   3.844 -1.5129  2.4592 -1.8506
  990MOL0     H36597  13.368  -0.906   3.978  0.0288 -3.3213 -0.0872
  990MOL0     H36598  13.506  -0.930   3.711 -0.3923 -2.7095 -0.6139
  990MOL0     H36599  13.504  -1.042   3.848  1.1302  0.5425  0.9560
  990MOL0     H36600  12.472  -0.565   3.799  0.0903 -0.0289 -1.4087
  990MOL0     H36601  12.264  -0.484   3.747  0.9249  1.2786 -2.3416
  990MOL0     H36602  11.893  -0.555   3.377 -0.0647  3.9694  0.7409
  990MOL0     H36603  11.680  -0.501   3.314 -0.6931  2.0388 -0.1038
  990MOL0     H36604  10.158   0.667   3.604 -0.4591 -0.0501  1.7781
  990MOL0     H36605   9.946   0.669   3.702 -0.0086  0.9787 -2.5253
  990MOL0     H36606   9.417   0.460   3.493 -1.1598 -0.8481 -0.3700
  990MOL0     H36607   9.188   0.514   3.594 -2.6192  2.4342  3.5556
  990MOL0     H36608   9.172   0.580   4.030 -0.5868  0.6926  0.5388
  990MOL0     H36609   9.149   0.742   3.972  0.3957  0.0938 -0.8535
  990MOL0     H36610   8.962   0.678   4.099 -1.1881 -0.4472  0.3943
  990MOL0     H36611   8.937   0.527   3.996  1.2804 -0.8052 -0.1570
  990MOL0     H36612   8.922   0.806   3.873  0.4791  0.0416  1.8337
  990MOL0     H36613   8.877   0.651   3.798 -1.0891 -0.2264  0.4584
  990MOL0     H36614   8.694   0.616   3.945  3.2752 -2.2729 -4.6791
  990MOL0     H36615   8.687   0.763   3.854  0.8635  1.8268  0.5778
  990MOL0     H36616   8.641   0.920   4.247  0.7125 -0.7153  1.2466
  990MOL0     H36617   9.362   0.694   3.924  3.6193 -1.6870  1.2744
  990MOL0     H36618   9.573   0.701   3.967  1.8226 -0.7948  1.8589
  990MOL0     H36619   9.675   0.562   3.913 -0.9166 -0.0375  0.6011
  990MOL0     H36620   9.672   0.727   3.833  1.1008  0.6135  2.9850
  991MOL0     O36621   5.624   6.591  11.249 -0.2316  0.1224 -1.1220
  991MOL0     C36622   5.554   6.688  11.207 -0.2619 -0.6571 -0.3879
  991MOL0     O36623   5.598   6.809  11.173 -0.3931 -0.2610 -0.6267
  991MOL0     C36624   5.730   6.807  11.144  0.3916  0.7872  0.0174
  991MOL0     C36625   5.782   6.808  11.017 -0.5827  0.4417  0.4883
  991MOL0     C36626   5.918   6.819  10.990  0.5815 -0.3742  0.1456
  991MOL0     C36627   6.009   6.830  11.094 -0.6922  0.2755  0.4525
  991MOL0     O36628   6.145   6.831  11.059 -0.0058  0.1202  0.3692
  991MOL0     C36629   6.241   6.880  11.146 -0.0450 -0.5372  0.2282
  991MOL0     C36630   6.308   6.777  11.245  0.8522  0.6163  0.0328
  991MOL0     C36631   6.403   6.689  11.175  0.0406 -0.7862  0.1780
  991MOL0     C36632   6.445   6.577  11.266  0.1901 -0.1597 -0.4738
  991MOL0     C36633   6.585   6.521  11.238  0.9356 -0.5123  0.1999
  991MOL0     C36634   6.703   6.616  11.268  0.2685  0.3296 -0.3389
  991MOL0     C36635   6.825   6.582  11.187  1.1042 -0.2574  0.3904
  991MOL0     C36636   6.936   6.680  11.205  0.0081 -0.4402 -0.3668
  991MOL0     N36637   7.052   6.632  11.123  0.2050 -0.5414 -0.4294
  991MOL0     C36638   7.146   6.551  11.171  0.0301  0.1433 -0.5449
  991MOL0     C36639   7.228   6.530  11.064  0.1024  0.2367  0.1231
  991MOL0     C36640   7.347   6.434  11.058 -0.0237  0.2320 -0.7972
  991MOL0     C36641   7.478   6.500  11.004  0.4981  0.4740 -0.1002
  991MOL0     C36642   7.595   6.405  11.000  0.3399  0.2627 -0.1496
  991MOL0     C36643   7.719   6.486  10.963 -1.0550 -0.3893 -0.9220
  991MOL0     O36644   7.831   6.424  11.027 -0.2251 -0.1373  0.4409
  991MOL0     C36645   7.958   6.476  11.014 -0.0852  0.6732  0.9437
  991MOL0     C36646   8.067   6.418  11.085  0.4660  0.0717 -0.6923
  991MOL0     C36647   8.191   6.457  11.081 -0.0131 -0.4518  0.7941
  991MOL0     C36648   8.287   6.360  11.152 -0.3133  1.0176  0.3041
  991MOL0     C36649   8.217   6.583  11.027 -0.5977  1.2138 -1.1767
  991MOL0     C36650   8.360   6.640  11.032  0.4503  0.5869  0.2850
  991MOL0     O36651   8.443   6.595  11.119 -0.6628 -0.5535  0.2281
  991MOL0     C36652   8.570   6.645  11.132  0.8223 -0.7880  0.7068
  991MOL0     C36653   8.594   6.770  11.195  0.3636 -0.2898  0.5551
  991MOL0     C36654   8.722   6.828  11.208 -0.1886  0.0194  0.1012
  991MOL0     C36655   8.829   6.752  11.153 -0.2338  0.3012 -0.0325
  991MOL0     O36656   8.961   6.792  11.177 -0.7388  0.1398  0.6738
  991MOL0     C36657   8.992   6.898  11.271  0.0933 -0.3136  0.4495
  991MOL0     C36658   9.141   6.918  11.277 -0.7846  0.2950 -0.2865
  991MOL0     C36659   9.190   6.985  11.407  0.3374  0.2041 -0.1435
  991MOL0     C36660   9.345   7.022  11.415 -0.3440 -0.1902 -0.7151
  991MOL0     C36661   9.371   7.117  11.538 -0.8497  0.1166  0.6487
  991MOL0     C36662   9.522   7.158  11.554  0.0610 -0.2058  0.0829
  991MOL0     C36663   9.611   7.043  11.615 -0.4428 -0.2076 -0.6006
  991MOL0     C36664   9.761   7.067  11.594 -0.5774 -0.5270 -1.0634
  991MOL0    Cl36665   9.842   7.173  11.718  0.2346 -0.1215 -0.1159
  991MOL0     C36666   8.811   6.628  11.094  0.8423  0.0782  0.7488
  991MOL0     C36667   8.678   6.579  11.080 -0.3351  0.3108 -0.5527
  991MOL0     O36668   8.386   6.734  10.962  0.3735  0.0181  0.6137
  991MOL0     C36669   8.115   6.653  10.961  0.4565  0.2800  0.3388
  991MOL0     C36670   7.986   6.597  10.951 -0.5270 -0.1743 -0.4798
  991MOL0     N36671   7.190   6.605  10.956  1.0463 -0.3319  0.5859
  991MOL0     N36672   7.078   6.661  10.993 -0.1178 -0.7051  0.2790
  991MOL0     C36673   5.959   6.830  11.226 -1.3687  0.4036 -0.0906
  991MOL0     C36674   5.819   6.826  11.256  0.2742  0.5070 -0.6382
  991MOL0     C36675   5.406   6.674  11.204  0.2334 -0.4750  0.0603
  991MOL0     C36676   5.337   6.775  11.126 -0.2833  0.3524 -0.1354
  991MOL0     C36677   5.200   6.759  11.096  0.4728 -0.1762 -0.7789
  991MOL0     C36678   5.131   6.644  11.140 -0.7048 -0.5153 -0.0958
  991MOL0     O36679   4.999   6.615  11.097 -0.3675 -0.1615 -0.1080
  991MOL0     C36680   4.921   6.732  11.081 -0.0038 -1.2784  0.0633
  991MOL0     C36681   4.774   6.700  11.109 -0.1877 -0.2732 -0.1436
  991MOL0     C36682   4.689   6.786  11.010  0.4966  0.4880  0.1624
  991MOL0     C36683   4.538   6.791  11.042 -0.1406  0.2676  0.6063
  991MOL0     C36684   4.476   6.657  11.043 -0.3999  0.2981 -0.5701
  991MOL0     C36685   4.432   6.539  11.054  0.4248  0.2735 -0.0526
  991MOL0     C36686   5.204   6.552  11.227  0.2487 -0.8472  0.9182
  991MOL0     C36687   5.333   6.565  11.255  0.8724  0.1325  0.0472
  991MOL0     C36688   5.383   6.470  11.364 -0.6279 -0.6902 -0.1290
  991MOL0     H36689   5.720   6.816  10.929  0.8807  3.5272 -0.3991
  991MOL0     H36690   5.960   6.836  10.891  0.5987  2.4184  0.5470
  991MOL0     H36691   6.197   6.964  11.201 -1.1081 -0.6783 -0.3896
  991MOL0     H36692   6.318   6.933  11.089 -0.1068 -1.0345 -0.3268
  991MOL0     H36693   6.359   6.836  11.321 -0.3350  2.5259 -0.5798
  991MOL0     H36694   6.231   6.713  11.289  0.9797  1.0503  0.9031
  991MOL0     H36695   6.355   6.650  11.085  1.6002  0.2529 -1.1762
  991MOL0     H36696   6.491   6.746  11.144  0.6481 -0.7026  1.9520
  991MOL0     H36697   6.451   6.607  11.372 -0.6041  0.1878 -0.5140
  991MOL0     H36698   6.373   6.495  11.274 -1.0580  1.0788  3.5305
  991MOL0     H36699   6.592   6.496  11.131  0.4930 -0.5652  0.1827
  991MOL0     H36700   6.587   6.430  11.299  1.2066 -0.2075  0.6502
  991MOL0     H36701   6.673   6.721  11.253  0.6628  0.3057 -1.4316
  991MOL0     H36702   6.729   6.626  11.374 -1.7790  5.2333 -0.0033
  991MOL0     H36703   6.785   6.584  11.085  0.5648  0.0835  0.6020
  991MOL0     H36704   6.861   6.480  11.206  3.0136 -0.0809 -1.8033
  991MOL0     H36705   6.898   6.778  11.174 -0.6570 -0.2411  0.9728
  991MOL0     H36706   6.951   6.676  11.313  1.2978 -2.9770 -0.5533
  991MOL0     H36707   7.159   6.524  11.276  1.2630  1.8491 -0.2146
  991MOL0     H36708   7.320   6.348  10.997  0.5008 -1.8254  1.6636
  991MOL0     H36709   7.367   6.399  11.160  2.1367  1.1309 -0.8438
  991MOL0     H36710   7.459   6.536  10.902 -2.4611 -2.0266 -0.5799
  991MOL0     H36711   7.501   6.592  11.059  1.0520  1.7225 -2.2734
  991MOL0     H36712   7.606   6.363  11.100 -2.0452 -4.4536 -1.5704
  991MOL0     H36713   7.570   6.330  10.925  3.9866 -0.4290 -0.8596
  991MOL0     H36714   7.719   6.480  10.854  0.2058 -0.0633 -0.9644
  991MOL0     H36715   7.707   6.589  10.999  1.1301 -0.7230  1.0401
  991MOL0     H36716   8.052   6.323  11.133 -2.7157  0.7963 -0.0415
  991MOL0     H36717   8.385   6.354  11.103  0.3502  2.6130  1.3704
  991MOL0     H36718   8.239   6.263  11.163  0.4515 -0.0216 -3.8491
  991MOL0     H36719   8.309   6.393  11.254  0.9655  1.1539  0.0118
  991MOL0     H36720   8.512   6.827  11.238  0.5545  0.7895 -0.4559
  991MOL0     H36721   8.730   6.926  11.255 -1.4221 -0.3164  1.0771
  991MOL0     H36722   8.936   6.980  11.225  1.2850 -0.2369 -0.9279
  991MOL0     H36723   8.955   6.879  11.373 -1.0905  0.3560  0.1582
  991MOL0     H36724   9.195   6.822  11.279  2.4274  1.9191  3.1491
  991MOL0     H36725   9.182   6.972  11.191  0.2679  0.5337  0.3458
  991MOL0     H36726   9.160   6.928  11.496 -1.4374 -2.5421 -2.3268
  991MOL0     H36727   9.134   7.078  11.419 -1.0014 -0.6007  0.0481
  991MOL0     H36728   9.370   7.077  11.324 -4.5120 -0.6167 -2.3096
  991MOL0     H36729   9.410   6.934  11.428  1.2604  1.1800  1.2283
  991MOL0     H36730   9.310   7.207  11.524  0.3244  0.7741 -0.4069
  991MOL0     H36731   9.339   7.071  11.632 -0.7957 -0.9750  0.1528
  991MOL0     H36732   9.541   7.253  11.605  1.3054  0.2171 -1.1007
  991MOL0     H36733   9.553   7.169  11.450 -0.9835  1.8267 -0.0724
  991MOL0     H36734   9.595   6.948  11.563  1.1241  0.1522 -1.8306
  991MOL0     H36735   9.594   7.034  11.723 -0.5849 -1.7143 -0.7290
  991MOL0     H36736   9.779   7.114  11.497  0.3218  0.0122 -0.6481
  991MOL0     H36737   9.816   6.972  11.598  0.0904 -0.1236 -0.2380
  991MOL0     H36738   8.894   6.576  11.049 -0.4902 -1.7774  0.3127
  991MOL0     H36739   8.672   6.491  11.016 -0.7790 -0.5663  0.6679
  991MOL0     H36740   8.136   6.739  10.899  1.3538  0.0066  0.2475
  991MOL0     H36741   7.914   6.642  10.883 -0.3951 -1.2020 -1.3268
  991MOL0     H36742   6.029   6.821  11.309 -0.0773  1.1088 -1.0646
  991MOL0     H36743   5.780   6.815  11.356 -0.6194  1.4682 -0.8606
  991MOL0     H36744   5.384   6.865  11.089 -0.7539  0.6876  0.0773
  991MOL0     H36745   5.156   6.825  11.022  0.1890 -1.2187 -1.5558
  991MOL0     H36746   4.957   6.820  11.135  2.2792 -2.4189  0.5325
  991MOL0     H36747   4.930   6.761  10.976 -2.5562  0.8941  0.3528
  991MOL0     H36748   4.744   6.712  11.214  2.4256  0.6488  0.5901
  991MOL0     H36749   4.752   6.597  11.080  3.4531 -1.0330 -0.7565
  991MOL0     H36750   4.734   6.885  11.009  2.3540 -0.2301  2.6963
  991MOL0     H36751   4.693   6.743  10.909 -0.7325 -0.5738  0.5295
  991MOL0     H36752   4.497   6.855  10.964 -0.4917 -2.5849 -1.7111
  991MOL0     H36753   4.542   6.841  11.139 -0.5733  0.6917  0.4086
  991MOL0     H36754   4.380   6.446  11.045  1.8554 -0.3884 -2.1428
  991MOL0     H36755   5.152   6.468  11.271 -1.1653 -0.2473  0.4741
  991MOL0     H36756   5.303   6.437  11.430 -2.8563  2.9859 -0.7031
  991MOL0     H36757   5.443   6.390  11.319 -1.3579 -0.3682 -1.7845
  991MOL0     H36758   5.456   6.529  11.420  0.6812  0.9743 -3.2625
  992MOL0     O36759   7.544   4.216   0.854  0.5760 -0.3026  0.8672
  992MOL0     C36760   7.464   4.283   0.924  0.2158  0.7211  0.2450
  992MOL0     O36761   7.509   4.382   1.010  0.3271 -0.3862 -0.0951
  992MOL0     C36762   7.642   4.406   1.011 -0.7883 -0.3462  0.6577
  992MOL0     C36763   7.716   4.380   1.127  1.0544  0.0245  0.7337
  992MOL0     C36764   7.856   4.396   1.127 -0.3377 -0.0121 -0.6915
  992MOL0     C36765   7.921   4.465   1.021  0.5325 -0.2315 -0.1011
  992MOL0     O36766   8.052   4.491   1.047  0.2900  0.8658  0.2892
  992MOL0     C36767   8.112   4.608   0.989  0.8232 -0.0058 -0.8607
  992MOL0     C36768   8.087   4.736   1.067 -0.0250 -1.0598 -0.7690
  992MOL0     C36769   8.152   4.735   1.207  0.1736  0.2496  0.0510
  992MOL0     C36770   8.289   4.797   1.208 -0.5851 -0.2797 -0.0635
  992MOL0     C36771   8.371   4.754   1.328  0.8208  0.4535 -0.2894
  992MOL0     C36772   8.430   4.617   1.293  0.6098  0.4064  0.7334
  992MOL0     C36773   8.553   4.610   1.382 -0.1636  0.1665 -0.5254
  992MOL0     C36774   8.680   4.684   1.325  0.9114  0.3095 -0.4248
  992MOL0     N36775   8.805   4.647   1.397  0.2523 -0.5346 -0.7017
  992MOL0     C36776   8.873   4.527   1.411  0.0039  0.3869 -0.8153
  992MOL0     C36777   8.973   4.553   1.496 -0.1298  0.2951  0.2458
  992MOL0     C36778   9.078   4.457   1.555 -0.0632  0.3656  0.4764
  992MOL0     C36779   9.197   4.532   1.598 -0.5934 -0.3471  0.2537
  992MOL0     C36780   9.303   4.434   1.640 -0.4947 -0.3198  0.4427
  992MOL0     C36781   9.422   4.505   1.691 -0.1104  0.6197 -0.1803
  992MOL0     O36782   9.402   4.573   1.814 -0.3134  0.0197  0.3234
  992MOL0     C36783   9.515   4.622   1.875  0.0153  0.6616  1.6090
  992MOL0     C36784   9.530   4.759   1.886 -0.7178 -0.1520 -0.1122
  992MOL0     C36785   9.649   4.819   1.920 -0.4702 -0.7313  0.0093
  992MOL0     C36786   9.655   4.970   1.924 -1.1127  0.0138 -0.5647
  992MOL0     C36787   9.771   4.743   1.941  0.1043  0.7287  0.6947
  992MOL0     C36788   9.911   4.785   1.980  0.0815 -0.7637 -0.2410
  992MOL0     O36789   9.939   4.925   2.003  0.3617 -0.1734 -0.1760
  992MOL0     C36790  10.063   4.981   2.017  0.5058  0.3676  0.4635
  992MOL0     C36791  10.181   4.911   1.988  0.5111 -0.4691 -0.8975
  992MOL0     C36792  10.303   4.974   2.009  0.8569  0.4571 -0.4691
  992MOL0     C36793  10.316   5.096   2.073  0.0730 -0.6888 -0.7364
  992MOL0     O36794  10.448   5.142   2.091 -0.2303  0.3314  0.4007
  992MOL0     C36795  10.471   5.267   2.155  0.3634 -0.0510 -0.2206
  992MOL0     C36796  10.615   5.278   2.193 -0.1886  0.1440  0.2651
  992MOL0     C36797  10.703   5.226   2.078 -0.7489 -0.1258 -1.0153
  992MOL0     C36798  10.850   5.259   2.116 -0.4854 -0.1162 -0.2081
  992MOL0     C36799  10.944   5.217   2.003  0.2410  0.2204 -1.2591
  992MOL0     C36800  11.087   5.234   2.046 -0.2157 -1.0178 -0.5391
  992MOL0     C36801  11.188   5.209   1.930  0.8816 -0.8727  0.5442
  992MOL0     C36802  11.332   5.197   1.982  1.0473 -0.4165  0.1180
  992MOL0    Cl36803  11.452   5.203   1.847  0.0468  0.1887  0.2243
  992MOL0     C36804  10.198   5.167   2.106 -0.1187  0.2176  0.0716
  992MOL0     C36805  10.075   5.110   2.083  0.2921 -0.2705  0.1728
  992MOL0     O36806   9.986   4.702   2.006  0.0926  0.8792  0.3503
  992MOL0     C36807   9.744   4.598   1.937 -0.1468 -0.6265  0.1632
  992MOL0     C36808   9.616   4.543   1.903 -0.3492  1.0957 -0.0256
  992MOL0     N36809   8.969   4.686   1.540  0.2777  0.5579  0.0541
  992MOL0     N36810   8.861   4.739   1.480  0.3406  0.6391 -0.7531
  992MOL0     C36811   7.850   4.497   0.909  0.3788  0.3019  0.1307
  992MOL0     C36812   7.713   4.474   0.897 -0.7509  0.0579 -0.1774
  992MOL0     C36813   7.318   4.274   0.901  0.8073 -0.2888  0.7756
  992MOL0     C36814   7.245   4.380   0.963  1.0236  0.2545 -0.3930
  992MOL0     C36815   7.116   4.401   0.929  1.5813  0.2775 -0.4010
  992MOL0     C36816   7.040   4.314   0.847 -0.5377 -0.3050  0.8157
  992MOL0     O36817   6.904   4.311   0.844  0.0868  0.4741  0.6872
  992MOL0     C36818   6.836   4.417   0.910  1.2142  0.1477 -0.1329
  992MOL0     C36819   6.687   4.379   0.878 -0.2636 -0.0566 -0.6986
  992MOL0     C36820   6.629   4.439   0.749 -0.6594  0.2375  0.1630
  992MOL0     C36821   6.482   4.395   0.719  1.1476 -0.2477 -0.0131
  992MOL0     C36822   6.402   4.454   0.830  0.5077 -0.4120  0.9188
  992MOL0     C36823   6.332   4.510   0.920  0.4586 -0.3801  0.8065
  992MOL0     C36824   7.109   4.205   0.791 -0.6210  0.6770  0.3325
  992MOL0     C36825   7.246   4.183   0.816 -0.2219  0.0676 -0.2244
  992MOL0     C36826   7.309   4.054   0.766  0.4061  0.1947  0.0491
  992MOL0     H36827   7.681   4.342   1.222  1.4521  0.1930  0.9505
  992MOL0     H36828   7.914   4.363   1.212  0.0967  0.1706 -0.9114
  992MOL0     H36829   8.086   4.621   0.884 -1.2015 -3.5415 -0.9495
  992MOL0     H36830   8.219   4.593   1.006  0.7265  1.8434  2.1046
  992MOL0     H36831   8.129   4.818   1.008  2.9795 -1.8905  0.0671
  992MOL0     H36832   7.982   4.764   1.083  1.2565  4.2485  0.3402
  992MOL0     H36833   8.079   4.790   1.266 -1.2756  0.1382 -1.5464
  992MOL0     H36834   8.154   4.632   1.241  1.4310  1.1433  2.9615
  992MOL0     H36835   8.335   4.781   1.111 -5.0622  0.7322 -2.6295
  992MOL0     H36836   8.265   4.902   1.226 -0.8647 -0.1746 -1.0118
  992MOL0     H36837   8.316   4.753   1.423  2.3193 -0.0107  0.5967
  992MOL0     H36838   8.441   4.835   1.348  1.0454  0.1306  0.2485
  992MOL0     H36839   8.352   4.543   1.311 -1.1732  1.9503 -0.3902
  992MOL0     H36840   8.461   4.613   1.189 -0.5304 -1.9773  0.4139
  992MOL0     H36841   8.575   4.504   1.398  1.2522  0.5602  0.2347
  992MOL0     H36842   8.532   4.639   1.485  0.2241 -2.4968  0.4013
  992MOL0     H36843   8.701   4.652   1.223 -4.2964 -2.1008 -1.0995
  992MOL0     H36844   8.662   4.792   1.334  0.9612  0.1516  2.3209
  992MOL0     H36845   8.852   4.434   1.359 -1.9706 -1.1000  2.3124
  992MOL0     H36846   9.115   4.389   1.479  2.7898  2.1643  0.1364
  992MOL0     H36847   9.029   4.402   1.636  0.4815 -2.0914 -0.7790
  992MOL0     H36848   9.227   4.610   1.527 -2.0212  1.4582  1.5357
  992MOL0     H36849   9.176   4.587   1.691  2.4836 -1.6300  1.8518
  992MOL0     H36850   9.257   4.386   1.727 -1.5752 -0.8590 -0.3963
  992MOL0     H36851   9.319   4.359   1.562 -1.3307  1.1683 -1.2450
  992MOL0     H36852   9.500   4.428   1.698  0.1688  0.5858 -2.7657
  992MOL0     H36853   9.446   4.574   1.609  0.2334 -2.9936 -3.3838
  992MOL0     H36854   9.448   4.825   1.858 -1.3040 -0.8139  0.0226
  992MOL0     H36855   9.564   5.029   1.912 -0.6375  1.3708  1.8967
  992MOL0     H36856   9.734   5.005   1.857 -1.3333  0.8155 -0.4126
  992MOL0     H36857   9.696   4.993   2.023  0.8003 -0.6051 -1.1670
  992MOL0     H36858  10.188   4.809   1.951  1.0692 -0.0858 -1.8958
  992MOL0     H36859  10.396   4.924   1.982  0.3038 -1.0416  0.2823
  992MOL0     H36860  10.454   5.348   2.083  1.7102  1.2751  0.8813
  992MOL0     H36861  10.403   5.283   2.239 -2.2485  0.9099 -2.3986
  992MOL0     H36862  10.646   5.381   2.211  0.6209 -0.1252  0.4419
  992MOL0     H36863  10.632   5.210   2.277  1.9180 -1.0668 -1.0458
  992MOL0     H36864  10.669   5.266   1.982  1.9155 -2.0203 -2.9219
  992MOL0     H36865  10.685   5.119   2.066 -3.2310 -0.2188  2.2872
  992MOL0     H36866  10.884   5.215   2.211  0.0871  2.5007  0.8853
  992MOL0     H36867  10.852   5.368   2.130  0.9464  0.0820 -1.6899
  992MOL0     H36868  10.920   5.112   1.988 -0.7855  0.1609  0.4197
  992MOL0     H36869  10.916   5.272   1.913 -1.1812  1.4892 -0.1043
  992MOL0     H36870  11.103   5.157   2.123  2.2022  0.7079  0.8116
  992MOL0     H36871  11.110   5.333   2.086  2.2429 -1.2261 -1.2885
  992MOL0     H36872  11.185   5.294   1.861 -0.9420 -0.6530  0.8547
  992MOL0     H36873  11.160   5.124   1.868 -1.9709 -0.9429  1.7690
  992MOL0     H36874  11.341   5.098   2.027  3.0166  0.0949  0.9545
  992MOL0     H36875  11.343   5.280   2.053 -0.0897  0.0839 -0.2525
  992MOL0     H36876  10.202   5.269   2.144  0.1106  0.7217 -1.2517
  992MOL0     H36877   9.987   5.160   2.121 -0.5963 -2.6512  1.5032
  992MOL0     H36878   9.829   4.534   1.959 -0.9587 -2.4411 -1.6617
  992MOL0     H36879   9.598   4.436   1.901  3.2056  0.3661 -0.4219
  992MOL0     H36880   7.903   4.550   0.831 -1.7147 -0.5519 -1.9773
  992MOL0     H36881   7.666   4.507   0.805 -2.1156  2.0193  1.1468
  992MOL0     H36882   7.292   4.448   1.034  0.3889 -1.5636  1.8771
  992MOL0     H36883   7.069   4.486   0.978  1.0457 -0.2506  0.0139
  992MOL0     H36884   6.847   4.429   1.018 -2.0420  2.8305  0.0766
  992MOL0     H36885   6.855   4.521   0.881  1.4670  0.3179  0.6291
  992MOL0     H36886   6.618   4.423   0.950  0.6296  2.1703 -1.1256
  992MOL0     H36887   6.672   4.271   0.878  2.1591 -0.5340 -3.4935
  992MOL0     H36888   6.635   4.548   0.748 -1.9768  0.3149 -1.0066
  992MOL0     H36889   6.695   4.402   0.670  0.7664  0.4842  1.1949
  992MOL0     H36890   6.470   4.286   0.713  0.0737 -0.1156 -0.5179
  992MOL0     H36891   6.439   4.432   0.626  1.0081  0.1250  0.1987
  992MOL0     H36892   6.275   4.553   1.000  1.6268  0.6174  1.1398
  992MOL0     H36893   7.068   4.128   0.726 -0.5728  2.3559 -1.7982
  992MOL0     H36894   7.387   4.087   0.697 -0.6387  0.7964 -0.8938
  992MOL0     H36895   7.339   3.984   0.844 -2.0478 -1.2456 -0.1955
  992MOL0     H36896   7.230   4.009   0.705 -1.0115  2.3459  0.1648
  993MOL0     O36897   2.712   1.650   2.515 -0.7217  0.2838  0.0368
  993MOL0     C36898   2.675   1.764   2.532  0.7728 -0.5124  0.8377
  993MOL0     O36899   2.749   1.881   2.560 -0.0580  0.4418  0.6195
  993MOL0     C36900   2.882   1.866   2.523  1.0234 -0.5572 -0.7072
  993MOL0     C36901   2.907   1.849   2.381 -1.1959 -0.3686 -0.4726
  993MOL0     C36902   3.040   1.813   2.349  0.3276  0.0256 -0.2189
  993MOL0     C36903   3.136   1.789   2.445  0.7325  0.9499 -0.4817
  993MOL0     O36904   3.257   1.772   2.387  0.0396  0.5098 -0.9167
  993MOL0     C36905   3.368   1.824   2.458  0.9548  0.0933 -0.3790
  993MOL0     C36906   3.473   1.855   2.357  0.1140 -0.3796 -0.0926
  993MOL0     C36907   3.529   1.734   2.286  0.2174 -0.2924 -0.3459
  993MOL0     C36908   3.664   1.751   2.215 -0.1747 -0.4567 -0.3966
  993MOL0     C36909   3.706   1.639   2.114 -0.4966  0.7203  0.1145
  993MOL0     C36910   3.829   1.678   2.025 -0.0932 -0.1616 -0.3818
  993MOL0     C36911   3.966   1.669   2.104 -0.2531 -0.4308  0.7612
  993MOL0     C36912   4.006   1.790   2.181  0.7467  0.1659  0.3324
  993MOL0     N36913   4.142   1.766   2.242  0.3970 -0.4818  0.5671
  993MOL0     C36914   4.166   1.733   2.371 -0.2711  0.2685 -0.2084
  993MOL0     C36915   4.302   1.739   2.384 -0.2824  0.8810  0.4926
  993MOL0     C36916   4.367   1.723   2.521 -0.1221 -0.2605 -0.8298
  993MOL0     C36917   4.444   1.587   2.517 -0.0930 -0.2874 -0.6520
  993MOL0     C36918   4.533   1.594   2.648  0.1709 -0.4705  0.1193
  993MOL0     C36919   4.600   1.461   2.664  0.4508  0.1459  0.5104
  993MOL0     O36920   4.706   1.475   2.757 -0.1368  1.1797 -0.0465
  993MOL0     C36921   4.840   1.464   2.725  0.4991  0.9993  0.0622
  993MOL0     C36922   4.926   1.529   2.823  0.6749 -0.2076  0.3099
  993MOL0     C36923   5.058   1.538   2.804 -0.2007 -0.2660  1.0188
  993MOL0     C36924   5.138   1.616   2.898  0.1614 -0.4152 -0.4838
  993MOL0     C36925   5.120   1.472   2.698  0.1042  0.8652  0.1431
  993MOL0     C36926   5.268   1.478   2.658 -0.4535 -0.2479  0.8611
  993MOL0     O36927   5.310   1.602   2.640  0.3690  0.1106  0.3066
  993MOL0     C36928   5.442   1.631   2.613  0.7294  0.0741 -0.0525
  993MOL0     C36929   5.495   1.614   2.488  0.5443 -0.4449  0.3631
  993MOL0     C36930   5.629   1.626   2.453  0.6514 -0.3373  0.2066
  993MOL0     C36931   5.716   1.667   2.554  0.2755  0.2404  0.4322
  993MOL0     O36932   5.849   1.678   2.516  0.3351  0.1495 -0.6857
  993MOL0     C36933   5.942   1.669   2.624  0.5980 -0.3165 -0.0558
  993MOL0     C36934   6.082   1.651   2.579 -0.0563  0.1836 -0.4890
  993MOL0     C36935   6.136   1.745   2.469  0.4324 -0.9178 -0.4766
  993MOL0     C36936   6.294   1.730   2.448 -0.3377 -0.6238  0.3885
  993MOL0     C36937   6.364   1.861   2.410 -0.0780 -0.5357 -0.2027
  993MOL0     C36938   6.505   1.831   2.347  0.8063  0.2324 -1.2441
  993MOL0     C36939   6.566   1.965   2.295 -0.3445 -0.7321 -0.9785
  993MOL0     C36940   6.707   1.931   2.248  0.2060  0.2947  0.5084
  993MOL0    Cl36941   6.807   1.893   2.395  0.5558 -0.1717  0.1406
  993MOL0     C36942   5.662   1.688   2.684 -0.1092  0.3681 -0.0423
  993MOL0     C36943   5.526   1.673   2.709  0.1708  0.0929 -0.8731
  993MOL0     O36944   5.341   1.378   2.641  0.1032 -0.3817 -0.7878
  993MOL0     C36945   5.037   1.394   2.617  0.1588  1.0962  0.4054
  993MOL0     C36946   4.894   1.393   2.614  0.5646  0.6752  0.0922
  993MOL0     N36947   4.357   1.796   2.267 -0.7890 -0.6980 -0.9204
  993MOL0     N36948   4.262   1.819   2.192  0.3149  0.6360  0.1952
  993MOL0     C36949   3.111   1.809   2.584  0.2801  0.1177  0.2558
  993MOL0     C36950   2.981   1.851   2.624  0.4173  0.0349  0.0996
  993MOL0     C36951   2.528   1.776   2.546  0.1934  0.0079 -1.0070
  993MOL0     C36952   2.475   1.854   2.646  0.9453 -0.6328  0.1611
  993MOL0     C36953   2.342   1.851   2.668  0.0665 -0.4252 -0.0346
  993MOL0     C36954   2.262   1.772   2.590  1.0427 -0.0738  0.2420
  993MOL0     O36955   2.124   1.780   2.617 -0.5968 -0.1777 -0.1641
  993MOL0     C36956   2.068   1.651   2.663  0.0824 -0.7034  0.3148
  993MOL0     C36957   2.133   1.582   2.780  0.7573  0.4218  0.0052
  993MOL0     C36958   2.094   1.659   2.909 -0.1178 -0.7412 -0.3981
  993MOL0     C36959   2.086   1.590   3.042 -0.7245 -0.0574 -0.7782
  993MOL0     C36960   2.071   1.683   3.153 -1.1824 -0.7114 -0.0263
  993MOL0     C36961   2.053   1.782   3.226 -0.2689  0.3716  0.6317
  993MOL0     C36962   2.307   1.702   2.475 -0.2396 -0.0594  0.1687
  993MOL0     C36963   2.448   1.712   2.453  0.0648  0.0456  0.1229
  993MOL0     C36964   2.495   1.645   2.324 -0.6084  0.5848 -0.1168
  993MOL0     H36965   2.824   1.861   2.313 -1.3169 -2.0849 -0.6538
  993MOL0     H36966   3.070   1.816   2.245  0.8352  2.4077 -0.0651
  993MOL0     H36967   3.411   1.750   2.527  1.8409  0.4014 -0.5906
  993MOL0     H36968   3.349   1.916   2.513 -0.8112 -0.5989  0.2551
  993MOL0     H36969   3.432   1.928   2.286  0.2857 -0.0233  0.1762
  993MOL0     H36970   3.563   1.891   2.407  0.8599 -1.6167 -0.4995
  993MOL0     H36971   3.552   1.658   2.362  0.6905  0.1714 -0.0200
  993MOL0     H36972   3.451   1.690   2.224 -0.8711  1.1215 -0.0066
  993MOL0     H36973   3.656   1.844   2.158 -1.3649 -0.1346  0.2538
  993MOL0     H36974   3.739   1.772   2.292 -1.4385  0.6089  0.6097
  993MOL0     H36975   3.622   1.624   2.046  0.0647  0.0334 -0.4447
  993MOL0     H36976   3.727   1.542   2.160 -1.9009  0.7443  0.8497
  993MOL0     H36977   3.842   1.619   1.934  0.6690  1.3851 -1.3169
  993MOL0     H36978   3.809   1.782   1.996  0.2609  0.2073  0.6357
  993MOL0     H36979   4.049   1.637   2.040  1.7277  2.4764  1.6607
  993MOL0     H36980   3.948   1.593   2.181  0.4698 -2.2168 -0.7697
  993MOL0     H36981   4.000   1.879   2.117 -0.9956 -0.1056  0.0668
  993MOL0     H36982   3.938   1.808   2.265  1.4205  0.7822  0.7597
  993MOL0     H36983   4.092   1.710   2.446  0.9849  1.5300  1.5061
  993MOL0     H36984   4.294   1.713   2.601  0.6425 -1.7619 -0.2663
  993MOL0     H36985   4.431   1.808   2.544 -0.2608 -1.0928  3.2861
  993MOL0     H36986   4.374   1.504   2.533  0.4459 -0.6722 -0.2571
  993MOL0     H36987   4.517   1.572   2.436  0.4785  0.0331 -0.2043
  993MOL0     H36988   4.601   1.679   2.639 -0.4732 -0.2018 -3.8749
  993MOL0     H36989   4.468   1.604   2.736 -0.6264  2.8307 -0.7182
  993MOL0     H36990   4.524   1.396   2.709  1.0408  0.1201  1.5116
  993MOL0     H36991   4.636   1.419   2.570 -1.7381  1.3312 -0.9355
  993MOL0     H36992   4.884   1.569   2.914  3.3458 -0.5132  1.7702
  993MOL0     H36993   5.242   1.585   2.899 -0.6629 -3.5808 -1.8116
  993MOL0     H36994   5.103   1.607   3.001 -0.5394  1.1657 -0.5499
  993MOL0     H36995   5.134   1.723   2.875  2.7983  0.1288  1.1771
  993MOL0     H36996   5.421   1.584   2.414  0.1430  3.7052 -1.1870
  993MOL0     H36997   5.667   1.612   2.353  0.9961 -0.9071  0.4077
  993MOL0     H36998   5.940   1.760   2.686 -2.5382  1.1535 -2.0536
  993MOL0     H36999   5.924   1.581   2.686  0.6377 -2.2312 -2.6367
  993MOL0     H37000   6.156   1.656   2.659  3.3781  0.2075 -3.4159
  993MOL0     H37001   6.086   1.550   2.536 -3.3068 -0.0324 -0.5810
  993MOL0     H37002   6.125   1.848   2.505 -0.7060 -1.5238  1.0032
  993MOL0     H37003   6.087   1.727   2.373  1.9338 -0.2113 -1.4221
  993MOL0     H37004   6.314   1.664   2.364  2.3920  0.9951 -0.3668
  993MOL0     H37005   6.340   1.675   2.531  1.0837 -2.0093 -1.2387
  993MOL0     H37006   6.307   1.908   2.329 -0.3430  0.8497  0.7427
  993MOL0     H37007   6.371   1.934   2.492 -1.5950  2.0579 -2.2060
  993MOL0     H37008   6.495   1.764   2.261  1.1628  0.2075 -1.2661
  993MOL0     H37009   6.568   1.777   2.418  0.2610  1.6504  0.3695
  993MOL0     H37010   6.563   2.039   2.375 -6.0570 -0.2791 -1.2298
  993MOL0     H37011   6.506   2.014   2.218  1.7111  1.7025 -1.1781
  993MOL0     H37012   6.738   2.011   2.180 -4.2680  1.3479 -0.6277
  993MOL0     H37013   6.701   1.839   2.189  1.5620 -1.2616  2.6521
  993MOL0     H37014   5.727   1.715   2.767 -0.9011 -1.0788  1.0941
  993MOL0     H37015   5.484   1.702   2.804 -1.6071 -1.0735 -1.2634
  993MOL0     H37016   5.080   1.330   2.540 -0.3361 -0.1765  1.1389
  993MOL0     H37017   4.835   1.345   2.536 -0.8425  0.2037  1.3951
  993MOL0     H37018   3.185   1.793   2.661  2.2339 -2.2280 -1.9402
  993MOL0     H37019   2.951   1.846   2.728  1.4680  0.3278  0.4387
  993MOL0     H37020   2.547   1.908   2.706 -0.6864  0.4169  1.2406
  993MOL0     H37021   2.295   1.909   2.747 -0.5486 -0.8023 -0.1223
  993MOL0     H37022   1.960   1.664   2.674  0.1903  0.7556 -0.1574
  993MOL0     H37023   2.073   1.578   2.581 -3.2567 -0.1911 -0.4739
  993MOL0     H37024   2.242   1.582   2.773  1.0318  2.6160  2.5210
  993MOL0     H37025   2.080   1.487   2.795  0.6742  0.3746 -0.5867
  993MOL0     H37026   2.160   1.746   2.919 -0.3278 -0.3429 -2.1732
  993MOL0     H37027   1.994   1.696   2.886  0.9467  2.8374  0.1505
  993MOL0     H37028   2.185   1.547   3.061 -0.4758  0.9371  0.2930
  993MOL0     H37029   2.005   1.518   3.056 -1.5359  1.3520  2.7396
  993MOL0     H37030   2.040   1.864   3.293  0.4808 -0.0527  1.3096
  993MOL0     H37031   2.241   1.647   2.409 -0.5026  0.3047  0.1236
  993MOL0     H37032   2.557   1.705   2.256  0.5403 -0.5621 -0.1243
  993MOL0     H37033   2.552   1.554   2.347 -0.4177  0.3454 -1.4837
  993MOL0     H37034   2.408   1.619   2.264  0.2394 -0.2492 -1.0278
  994MOL0     O37035   1.585   9.961   8.392 -1.0405  0.3764  0.9016
  994MOL0     C37036   1.542   9.850   8.417 -0.2307  0.4250  0.0080
  994MOL0     O37037   1.581   9.733   8.361 -0.8300 -0.4682  0.7233
  994MOL0     C37038   1.684   9.715   8.270 -0.3942  0.3440 -0.6573
  994MOL0     C37039   1.664   9.654   8.146  0.5548 -0.1829  0.2582
  994MOL0     C37040   1.769   9.646   8.055  0.7256  0.2626  0.1877
  994MOL0     C37041   1.900   9.701   8.089  0.1976  0.2695  0.2719
  994MOL0     O37042   2.017   9.694   8.014  0.6251  0.1184 -0.1497
  994MOL0     C37043   2.004   9.678   7.874 -0.8147  0.8530  0.0300
  994MOL0     C37044   2.130   9.704   7.785  0.2070  0.7197 -0.3749
  994MOL0     C37045   2.132   9.647   7.640  0.3764  0.2621  0.3545
  994MOL0     C37046   1.996   9.630   7.564  0.8541  0.3582 -0.3621
  994MOL0     C37047   2.003   9.627   7.411 -0.4371 -0.2766 -0.1547
  994MOL0     C37048   1.885   9.684   7.335 -0.4216  0.4456  0.9216
  994MOL0     C37049   1.915   9.660   7.182  1.5793 -0.6615 -0.0727
  994MOL0     C37050   1.796   9.718   7.106 -0.2524 -0.4481 -0.3738
  994MOL0     N37051   1.774   9.869   7.133  0.5582  1.2542  0.0923
  994MOL0     C37052   1.827   9.972   7.055 -0.1556 -0.0094 -0.3389
  994MOL0     C37053   1.788  10.082   7.114  0.3868  0.8707  0.4239
  994MOL0     C37054   1.816  10.228   7.085 -0.9476  0.4990  0.5342
  994MOL0     C37055   1.890  10.293   7.200  0.2718 -0.0257  0.0821
  994MOL0     C37056   1.941  10.429   7.138 -0.1064 -1.0367  0.1968
  994MOL0     C37057   2.043  10.480   7.241  0.5530 -0.6728  0.2263
  994MOL0     O37058   2.151  10.390   7.248 -0.5048 -0.2648 -0.0554
  994MOL0     C37059   2.276  10.432   7.299 -0.1378  0.8105  0.4464
  994MOL0     C37060   2.293  10.560   7.361 -0.6952  0.2523  0.9922
  994MOL0     C37061   2.423  10.606   7.400  0.3291 -0.6150 -0.2805
  994MOL0     C37062   2.433  10.741   7.468 -0.0137  0.2999 -0.0125
  994MOL0     C37063   2.536  10.523   7.386  0.3526  0.4124  1.4101
  994MOL0     C37064   2.669  10.554   7.432  0.5238 -0.9809 -0.0581
  994MOL0     O37065   2.774  10.519   7.350 -0.2433  0.7086 -0.5723
  994MOL0     C37066   2.899  10.551   7.398  0.4944  0.6611 -0.8996
  994MOL0     C37067   2.976  10.484   7.487  0.3630 -0.8485  0.6366
  994MOL0     C37068   3.086  10.539   7.543  0.1227  0.4079 -0.5186
  994MOL0     C37069   3.148  10.657   7.492 -0.2534 -0.1628  0.4927
  994MOL0     O37070   3.271  10.705   7.535 -0.7405  0.2093 -0.6846
  994MOL0     C37071   3.290  10.718   7.674 -0.0376 -0.0268 -0.3935
  994MOL0     C37072   3.425  10.788   7.701  0.7472 -0.1885  0.3211
  994MOL0     C37073   3.533  10.693   7.663 -0.8223 -0.5691 -0.2474
  994MOL0     C37074   3.656  10.768   7.605 -0.4784 -0.2479  0.6767
  994MOL0     C37075   3.772  10.668   7.574  0.0446  0.0400  0.1028
  994MOL0     C37076   3.888  10.751   7.517  0.1892 -0.9324 -0.4592
  994MOL0     C37077   4.001  10.657   7.451  0.4333  0.8199 -0.1458
  994MOL0     C37078   4.128  10.724   7.408  0.5368  0.3903 -0.6270
  994MOL0    Cl37079   4.104  10.824   7.259 -0.0182 -0.2752 -0.3022
  994MOL0     C37080   3.077  10.718   7.385 -0.0604 -0.7957 -0.6821
  994MOL0     C37081   2.959  10.662   7.338  0.3040 -0.2118 -0.2776
  994MOL0     O37082   2.681  10.620   7.536 -0.2894  0.3811  0.2295
  994MOL0     C37083   2.515  10.395   7.333 -0.0140 -0.6155 -0.1959
  994MOL0     C37084   2.388  10.356   7.291 -0.0774  0.6465 -0.7856
  994MOL0     N37085   1.701  10.050   7.216  0.4877 -0.4252  0.2920
  994MOL0     N37086   1.688   9.923   7.223  0.6897  0.6524 -0.2498
  994MOL0     C37087   1.911   9.753   8.221  0.2043 -0.5220 -0.6531
  994MOL0     C37088   1.810   9.762   8.310 -0.4337 -0.7892 -0.8210
  994MOL0     C37089   1.423   9.835   8.508 -0.5636 -0.6977  0.7230
  994MOL0     C37090   1.377   9.707   8.540  0.8733 -0.3704 -0.3862
  994MOL0     C37091   1.261   9.684   8.607  0.2672 -0.4768  1.3260
  994MOL0     C37092   1.192   9.786   8.664  0.2635 -0.5815 -0.2347
  994MOL0     O37093   1.075   9.753   8.729 -0.3214 -0.1885  0.4557
  994MOL0     C37094   1.006   9.849   8.808  0.0609  0.3355  0.0866
  994MOL0     C37095   1.089   9.880   8.938 -0.5552 -0.5337  0.2246
  994MOL0     C37096   1.142   9.755   9.010 -0.4558 -0.5642 -0.1001
  994MOL0     C37097   1.298   9.739   8.997  0.8417  0.1869 -0.5054
  994MOL0     C37098   1.339   9.631   9.085  0.5521  0.5707 -0.5367
  994MOL0     C37099   1.373   9.533   9.151 -0.5191  0.5646 -0.4138
  994MOL0     C37100   1.241   9.921   8.644  0.3541  0.0225 -0.1306
  994MOL0     C37101   1.341   9.944   8.554  0.2275 -0.2617 -0.9709
  994MOL0     C37102   1.367  10.087   8.499 -0.4933  1.1593 -0.7229
  994MOL0     H37103   1.566   9.612   8.127 -0.5295  2.7528 -1.2717
  994MOL0     H37104   1.755   9.604   7.956  0.6328 -1.8386  1.0420
  994MOL0     H37105   1.915   9.732   7.839 -1.9063 -0.3670  0.8136
  994MOL0     H37106   1.980   9.572   7.861  0.2081  0.3604  1.8559
  994MOL0     H37107   2.145   9.812   7.781  3.9870  0.4665  1.7519
  994MOL0     H37108   2.215   9.668   7.844 -1.5717 -0.4922  1.5979
  994MOL0     H37109   2.197   9.718   7.586 -0.5117  0.2569 -0.7613
  994MOL0     H37110   2.189   9.554   7.634  1.9506  1.1332 -5.4784
  994MOL0     H37111   1.926   9.560   7.611 -0.0712  0.5930 -1.3593
  994MOL0     H37112   1.947   9.724   7.590 -0.1417 -0.2723  0.1482
  994MOL0     H37113   2.023   9.524   7.378 -1.1860 -0.8866  1.1963
  994MOL0     H37114   2.091   9.686   7.386 -1.5528  3.1735  3.1337
  994MOL0     H37115   1.790   9.634   7.359  0.1873 -1.7908 -0.8888
  994MOL0     H37116   1.882   9.790   7.361  2.0076  0.1625  2.7351
  994MOL0     H37117   1.918   9.556   7.149 -1.5591 -0.3106 -1.8101
  994MOL0     H37118   2.010   9.706   7.153  1.6353 -0.8652 -0.2171
  994MOL0     H37119   1.817   9.703   7.000  3.7237 -0.0963  0.2243
  994MOL0     H37120   1.708   9.664   7.141  2.0399 -2.3536  2.9833
  994MOL0     H37121   1.892   9.970   6.968  0.2264  1.6741 -0.1202
  994MOL0     H37122   1.724  10.286   7.085 -1.2619  0.1738  3.2904
  994MOL0     H37123   1.873  10.238   6.993 -0.7443 -0.2334  0.5680
  994MOL0     H37124   1.839  10.306   7.296  0.7254 -0.0499  0.3310
  994MOL0     H37125   1.973  10.226   7.224 -0.3125 -0.5092  0.8003
  994MOL0     H37126   1.990  10.415   7.041  0.4931 -0.8679  0.4751
  994MOL0     H37127   1.858  10.501   7.134  0.7518 -0.0019  0.6010
  994MOL0     H37128   2.074  10.578   7.204  2.0076 -1.6304 -1.1836
  994MOL0     H37129   1.996  10.508   7.336  3.4752  1.7764  1.1125
  994MOL0     H37130   2.213  10.630   7.382  0.0532  1.8483 -1.0463
  994MOL0     H37131   2.349  10.806   7.445  0.8637  1.5234  0.1712
  994MOL0     H37132   2.524  10.785   7.426 -0.6574  0.1705 -1.5978
  994MOL0     H37133   2.446  10.720   7.575  1.3029 -1.7406 -0.4905
  994MOL0     H37134   2.939  10.390   7.527  2.3441 -3.0909 -2.3642
  994MOL0     H37135   3.129  10.492   7.630 -0.0542  2.3659  0.6938
  994MOL0     H37136   3.205  10.765   7.726  0.6760  1.3920 -0.4800
  994MOL0     H37137   3.307  10.616   7.711  2.0927  0.2395 -0.5183
  994MOL0     H37138   3.427  10.878   7.640  1.0904  0.1662  0.8497
  994MOL0     H37139   3.439  10.823   7.804 -0.7906  1.0942  0.1323
  994MOL0     H37140   3.511  10.614   7.590  1.8968 -2.6108  1.0150
  994MOL0     H37141   3.569  10.641   7.751  1.9830  4.4441  2.0040
  994MOL0     H37142   3.685  10.842   7.681 -0.1255  1.1530 -0.7500
  994MOL0     H37143   3.628  10.817   7.511  3.4744 -1.5885 -1.4699
  994MOL0     H37144   3.816  10.608   7.654  0.5877  0.7316  0.3321
  994MOL0     H37145   3.734  10.601   7.496  0.7438 -0.8740  0.5303
  994MOL0     H37146   3.929  10.811   7.599 -0.1819 -0.5802 -0.5249
  994MOL0     H37147   3.854  10.825   7.444  0.2197 -0.8462 -0.3870
  994MOL0     H37148   3.965  10.614   7.357  2.6287  1.6058 -1.4295
  994MOL0     H37149   4.029  10.587   7.531  0.9964  2.2601  0.9710
  994MOL0     H37150   4.204  10.646   7.399 -0.3228 -0.4584 -0.6101
  994MOL0     H37151   4.157  10.786   7.494  0.9528 -1.9604  1.0166
  994MOL0     H37152   3.116  10.809   7.340 -2.1147  1.9083  2.5156
  994MOL0     H37153   2.890  10.722   7.278 -0.8848 -1.5371 -0.2904
  994MOL0     H37154   2.597  10.324   7.326 -0.4754 -0.9878 -2.5022
  994MOL0     H37155   2.381  10.253   7.257  0.9918 -0.1665  1.2714
  994MOL0     H37156   2.007   9.796   8.249  1.2060 -2.3462 -1.1132
  994MOL0     H37157   1.832   9.804   8.408  0.4532 -2.6305 -0.1868
  994MOL0     H37158   1.426   9.617   8.506  1.5771 -0.2359  0.2417
  994MOL0     H37159   1.234   9.580   8.619  1.0240 -0.6367  1.7210
  994MOL0     H37160   0.969   9.933   8.749  1.8099  1.4859  0.5713
  994MOL0     H37161   0.917   9.797   8.846 -0.5326  2.3574  1.6326
  994MOL0     H37162   1.023   9.930   9.009 -1.0256  0.7134 -1.0412
  994MOL0     H37163   1.169   9.954   8.924 -2.2400  0.9403 -2.4209
  994MOL0     H37164   1.127   9.772   9.117  0.3103  1.3559 -0.2529
  994MOL0     H37165   1.082   9.674   8.967  0.9971 -2.1357  0.6762
  994MOL0     H37166   1.341   9.831   9.039 -0.7126 -0.1662  2.0787
  994MOL0     H37167   1.332   9.722   8.895 -1.5493 -2.0482 -1.0356
  994MOL0     H37168   1.396   9.449   9.214 -1.9512  0.1947 -0.3481
  994MOL0     H37169   1.181  10.004   8.682  0.1637  0.0362 -0.4531
  994MOL0     H37170   1.456  10.129   8.548 -0.3767 -0.9349  1.0414
  994MOL0     H37171   1.374  10.070   8.391 -0.5714 -0.5743 -0.4828
  994MOL0     H37172   1.280  10.152   8.509  0.8115  2.7562  1.1402
  995MOL0     O37173   2.388   1.041   0.406  0.1449 -0.3794 -0.1656
  995MOL0     C37174   2.278   0.985   0.436  0.7514  0.1630  0.9223
  995MOL0     O37175   2.249   0.911   0.540  0.3377 -0.8907  0.3152
  995MOL0     C37176   2.337   0.917   0.640  0.2700 -0.3214 -0.0044
  995MOL0     C37177   2.355   1.036   0.714  0.7300 -0.4164 -0.5818
  995MOL0     C37178   2.461   1.047   0.807 -1.0623 -1.0824  0.1967
  995MOL0     C37179   2.535   0.930   0.839  0.2116 -0.4358 -0.8369
  995MOL0     O37180   2.630   0.927   0.940  0.5480 -0.2809 -0.9650
  995MOL0     C37181   2.648   1.034   1.036  0.2821 -0.2308  0.5342
  995MOL0     C37182   2.782   0.998   1.102 -0.0749 -0.3626 -0.3529
  995MOL0     C37183   2.899   1.028   1.013 -0.8163  1.4158 -0.3175
  995MOL0     C37184   3.029   1.008   1.087  0.4189  0.3977  0.2285
  995MOL0     C37185   3.144   1.062   0.997 -0.7158  0.0664  0.2453
  995MOL0     C37186   3.273   1.044   1.080  0.0420 -0.4284  0.5962
  995MOL0     C37187   3.393   1.128   1.024  0.2183  0.6125 -0.5319
  995MOL0     C37188   3.513   1.037   0.988  0.2462 -0.5664 -0.1372
  995MOL0     N37189   3.485   0.981   0.854 -0.1396  0.2652 -0.1235
  995MOL0     C37190   3.415   0.863   0.842  0.5757  0.1092 -0.1827
  995MOL0     C37191   3.432   0.819   0.717 -0.1298 -0.2547  0.4826
  995MOL0     C37192   3.380   0.688   0.659  0.2950 -0.8331 -0.0949
  995MOL0     C37193   3.401   0.655   0.512  0.4248 -0.1165 -0.7238
  995MOL0     C37194   3.289   0.731   0.430 -0.1380 -0.4009 -0.1174
  995MOL0     C37195   3.343   0.796   0.299 -0.7397 -0.0569  0.3496
  995MOL0     O37196   3.389   0.689   0.212  0.7659 -0.9843  0.0724
  995MOL0     C37197   3.517   0.722   0.163  0.9235  0.0468  0.3244
  995MOL0     C37198   3.571   0.850   0.119  0.0965 -0.3764  0.0386
  995MOL0     C37199   3.689   0.863   0.054  0.4068 -0.3337  0.4664
  995MOL0     C37200   3.714   1.003   0.006  0.3172  0.5660 -0.5701
  995MOL0     C37201   3.770   0.753   0.033  0.0366 -0.3151  0.1834
  995MOL0     C37202   3.911   0.770  -0.021 -0.0535 -0.1161 -0.3510
  995MOL0     O37203   3.942   0.683  -0.118  0.5301 -0.2186 -0.2378
  995MOL0     C37204   4.058   0.678  -0.182 -0.0154 -0.0047 -0.0360
  995MOL0     C37205   4.104   0.548  -0.211 -0.4387  0.3423 -0.1398
  995MOL0     C37206   4.223   0.529  -0.281 -0.3291 -0.0266  0.4785
  995MOL0     C37207   4.290   0.640  -0.342  0.8423  0.4287 -0.7441
  995MOL0     O37208   4.393   0.638  -0.422 -0.3839  0.1305  0.1333
  995MOL0     C37209   4.427   0.511  -0.487  0.5173 -0.2556 -0.7180
  995MOL0     C37210   4.567   0.526  -0.546 -0.6506 -0.9945  0.0098
  995MOL0     C37211   4.662   0.533  -0.424  0.0860 -1.0243 -0.6202
  995MOL0     C37212   4.811   0.525  -0.461  0.0990  0.7678  0.5200
  995MOL0     C37213   4.900   0.558  -0.339  1.0503  0.1128 -1.3035
  995MOL0     C37214   5.050   0.533  -0.369  0.7981  0.3586  0.2209
  995MOL0     C37215   5.118   0.626  -0.472  0.3424 -0.1839  0.0510
  995MOL0     C37216   5.072   0.777  -0.475  0.3629  0.2684  0.2608
  995MOL0    Cl37217   5.131   0.840  -0.324  0.2293  0.2708  0.0245
  995MOL0     C37218   4.239   0.771  -0.301 -0.5521  0.9808 -0.0007
  995MOL0     C37219   4.131   0.793  -0.224  0.1079  0.1703 -0.1933
  995MOL0     O37220   3.983   0.864   0.024  0.1542 -0.2952 -0.0036
  995MOL0     C37221   3.735   0.625   0.077 -0.5996 -0.4377  0.6522
  995MOL0     C37222   3.606   0.609   0.134 -0.0376 -0.7450 -0.2350
  995MOL0     N37223   3.528   0.900   0.653  0.2869  0.7628 -0.2777
  995MOL0     N37224   3.559   1.002   0.737 -0.8453  0.3665  1.3148
  995MOL0     C37225   2.514   0.810   0.769 -0.2461 -0.5508  0.0063
  995MOL0     C37226   2.410   0.803   0.671 -0.3159  0.7206  0.1418
  995MOL0     C37227   2.178   1.001   0.325  0.3703  0.1813  0.4515
  995MOL0     C37228   2.215   1.082   0.217  0.0341  0.4720  0.2509
  995MOL0     C37229   2.125   1.115   0.113 -0.2581  0.3653 -0.7675
  995MOL0     C37230   1.994   1.060   0.114 -0.0214 -0.5296 -0.2129
  995MOL0     O37231   1.897   1.089   0.019 -0.2342  0.2107 -0.0598
  995MOL0     C37232   1.889   1.218  -0.039  0.9638  0.3501 -0.9666
  995MOL0     C37233   1.769   1.211  -0.137  0.2034 -0.4156 -0.1066
  995MOL0     C37234   1.645   1.212  -0.054  0.3213  0.4396  0.5795
  995MOL0     C37235   1.518   1.209  -0.153 -0.3363  0.4268  0.3251
  995MOL0     C37236   1.411   1.296  -0.117 -0.3879  0.4415 -0.2352
  995MOL0     C37237   1.323   1.380  -0.114  1.1844  0.2009 -1.7958
  995MOL0     C37238   1.958   0.986   0.224  0.5146  0.3505  0.0668
  995MOL0     C37239   2.046   0.952   0.330  0.1430 -0.6321 -0.8674
  995MOL0     C37240   1.984   0.867   0.442  0.0433  0.5533  0.3728
  995MOL0     H37241   2.295   1.125   0.698  1.6108 -0.0007 -1.6650
  995MOL0     H37242   2.481   1.142   0.855  0.2897  0.7532 -3.6558
  995MOL0     H37243   2.569   1.033   1.110 -1.5858  1.6467 -1.3100
  995MOL0     H37244   2.645   1.139   1.005  1.0663 -0.8665 -1.9465
  995MOL0     H37245   2.787   1.065   1.188  2.6559 -1.8170  0.7537
  995MOL0     H37246   2.784   0.890   1.123  1.6324 -0.7524 -2.1862
  995MOL0     H37247   2.901   0.971   0.920 -1.4616  2.6237 -1.1042
  995MOL0     H37248   2.896   1.130   0.974  1.0120  1.6451  0.0508
  995MOL0     H37249   3.020   1.062   1.182 -2.7996 -0.6215  0.6335
  995MOL0     H37250   3.037   0.903   1.116  1.4871  0.6009  0.7219
  995MOL0     H37251   3.125   1.167   0.970 -0.0148  0.4478  1.1890
  995MOL0     H37252   3.152   1.012   0.901 -2.3390 -0.5718  0.4032
  995MOL0     H37253   3.262   1.079   1.183 -1.1040 -0.4404  0.4860
  995MOL0     H37254   3.297   0.938   1.096 -0.3066 -0.3134  2.0951
  995MOL0     H37255   3.424   1.192   1.107  0.6937  1.5030 -1.3760
  995MOL0     H37256   3.365   1.190   0.938 -0.3868  1.7920  0.4922
  995MOL0     H37257   3.605   1.095   0.974 -0.8143  1.2027 -0.0797
  995MOL0     H37258   3.525   0.952   1.056 -3.5244 -2.2342 -1.2886
  995MOL0     H37259   3.350   0.821   0.919  0.3875  0.4789 -0.1393
  995MOL0     H37260   3.275   0.679   0.688 -0.1097  1.0556 -0.8407
  995MOL0     H37261   3.434   0.609   0.712  3.5519  0.4748 -1.2090
  995MOL0     H37262   3.506   0.670   0.484  1.5474 -0.3703  2.8916
  995MOL0     H37263   3.373   0.550   0.501  1.0259 -0.6427  1.9881
  995MOL0     H37264   3.203   0.666   0.413  1.1000 -3.3494  3.5920
  995MOL0     H37265   3.262   0.819   0.489 -0.4347 -1.7260  1.8255
  995MOL0     H37266   3.261   0.847   0.250 -0.3682  1.1832  0.9759
  995MOL0     H37267   3.417   0.871   0.328  1.9038 -1.6011 -1.8270
  995MOL0     H37268   3.508   0.937   0.136 -0.7217 -1.2677  1.8715
  995MOL0     H37269   3.752   1.064   0.088  0.5537 -0.7187  0.3038
  995MOL0     H37270   3.625   1.055  -0.031 -2.4001 -3.2068  0.0090
  995MOL0     H37271   3.791   1.012  -0.071  1.8551  1.7929  1.0366
  995MOL0     H37272   4.056   0.465  -0.160  1.1926 -1.3535 -1.2580
  995MOL0     H37273   4.262   0.429  -0.297  0.4323  0.4526 -0.8077
  995MOL0     H37274   4.413   0.431  -0.414 -1.7556  3.6478  3.6137
  995MOL0     H37275   4.352   0.493  -0.564 -1.4095 -3.4057  1.6575
  995MOL0     H37276   4.604   0.443  -0.607  1.1254 -0.8755  0.8620
  995MOL0     H37277   4.546   0.616  -0.604 -3.7681  0.0639  2.4385
  995MOL0     H37278   4.632   0.453  -0.355 -1.7835  1.1487  1.2363
  995MOL0     H37279   4.633   0.620  -0.365 -3.1848 -2.4346  0.0944
  995MOL0     H37280   4.835   0.593  -0.543 -2.8322  0.9270 -0.2843
  995MOL0     H37281   4.838   0.424  -0.492 -3.6603 -0.3043  0.2625
  995MOL0     H37282   4.895   0.662  -0.305  0.9617 -0.8353  1.8963
  995MOL0     H37283   4.858   0.493  -0.262 -1.7559  0.2487 -2.5879
  995MOL0     H37284   5.071   0.427  -0.385  0.5227 -0.1868  2.9944
  995MOL0     H37285   5.103   0.559  -0.276  2.7727 -0.8463 -0.5070
  995MOL0     H37286   5.112   0.590  -0.575 -0.8724  1.9834 -0.6903
  995MOL0     H37287   5.227   0.613  -0.463  0.1525 -2.0029 -0.0811
  995MOL0     H37288   4.963   0.777  -0.489  0.3372 -1.5270  0.2465
  995MOL0     H37289   5.124   0.830  -0.556  2.7028 -0.9208  0.8930
  995MOL0     H37290   4.297   0.849  -0.349 -1.6258  0.6299 -1.9475
  995MOL0     H37291   4.100   0.893  -0.193  1.5498  1.0195 -1.3716
  995MOL0     H37292   3.801   0.539   0.069 -0.2483 -0.1334  0.2184
  995MOL0     H37293   3.561   0.512   0.151 -0.6228  0.1071  4.4061
  995MOL0     H37294   2.568   0.719   0.793 -0.4847 -1.2571 -1.9892
  995MOL0     H37295   2.406   0.713   0.612  0.4051  1.6649 -1.4181
  995MOL0     H37296   2.315   1.121   0.207  0.1210 -0.2102 -2.0058
  995MOL0     H37297   2.175   1.182   0.044  1.9865  0.1432  0.5593
  995MOL0     H37298   1.889   1.301   0.033  1.1202  0.6883 -1.3546
  995MOL0     H37299   1.976   1.235  -0.102  0.5952  0.5688 -1.4253
  995MOL0     H37300   1.754   1.124  -0.202 -1.0187  0.3880 -0.9470
  995MOL0     H37301   1.762   1.293  -0.209 -0.0052 -1.8446 -1.7833
  995MOL0     H37302   1.627   1.125   0.011 -3.3883 -0.3785 -1.2558
  995MOL0     H37303   1.648   1.304   0.003 -1.0181  2.1272 -1.8859
  995MOL0     H37304   1.478   1.107  -0.152  2.6515 -0.8662 -0.4125
  995MOL0     H37305   1.551   1.239  -0.253  2.0317 -0.1847  0.8556
  995MOL0     H37306   1.248   1.456  -0.115  1.0853  0.1032 -2.1304
  995MOL0     H37307   1.857   0.947   0.230 -0.1303  1.9040 -0.2636
  995MOL0     H37308   1.998   0.929   0.531 -1.3421  0.3287  0.7580
  995MOL0     H37309   1.879   0.841   0.427 -0.1072  1.0666  0.5081
  995MOL0     H37310   2.047   0.778   0.451 -0.2882  0.4092  1.3757
  996MOL0     O37311   5.824   3.393   7.155 -0.3780 -0.6546  0.0619
  996MOL0     C37312   5.763   3.293   7.113  0.5105 -0.7643  0.5163
  996MOL0     O37313   5.813   3.166   7.105  0.1185 -0.0140  1.3397
  996MOL0     C37314   5.934   3.131   7.162  0.5376  0.9747 -0.5841
  996MOL0     C37315   6.046   3.215   7.154  0.3269 -0.3846 -0.1943
  996MOL0     C37316   6.159   3.185   7.227  0.2271 -0.3197  0.3083
  996MOL0     C37317   6.164   3.070   7.299 -0.0693  0.3704 -0.7218
  996MOL0     O37318   6.279   3.032   7.358  0.1476 -0.0887  0.5280
  996MOL0     C37319   6.292   2.965   7.489 -0.0936 -0.2371  0.2436
  996MOL0     C37320   6.438   2.990   7.547  0.7579  0.0786  0.2172
  996MOL0     C37321   6.465   3.136   7.556  1.0045 -0.5467 -0.0072
  996MOL0     C37322   6.611   3.157   7.600  0.3145 -0.2181 -0.1733
  996MOL0     C37323   6.637   3.301   7.643 -0.5599 -0.5374 -0.8274
  996MOL0     C37324   6.773   3.313   7.724 -0.0953  0.6916 -0.1135
  996MOL0     C37325   6.810   3.441   7.787 -0.1500  0.0318 -0.1566
  996MOL0     C37326   6.935   3.427   7.864  0.3116  0.4013 -0.5317
  996MOL0     N37327   7.057   3.400   7.786 -0.1854 -0.0364 -0.0517
  996MOL0     C37328   7.122   3.498   7.708 -0.4225 -0.3654  0.4251
  996MOL0     C37329   7.253   3.457   7.694  0.8310  0.6262 -0.2564
  996MOL0     C37330   7.352   3.539   7.618 -0.0987  0.5519 -0.5515
  996MOL0     C37331   7.490   3.553   7.679 -0.8051  0.6864  0.3943
  996MOL0     C37332   7.556   3.415   7.708  0.6363 -0.3228  0.1529
  996MOL0     C37333   7.696   3.443   7.765  0.1194  0.9266  0.7579
  996MOL0     O37334   7.678   3.510   7.889 -0.4648  0.0916 -0.7725
  996MOL0     C37335   7.781   3.516   7.978  0.2969 -0.1667  0.6803
  996MOL0     C37336   7.918   3.485   7.957 -0.3297 -0.4833 -0.3200
  996MOL0     C37337   8.020   3.483   8.059  0.6938  0.2191  0.2088
  996MOL0     C37338   8.168   3.459   8.023  0.4303 -0.4591 -0.7447
  996MOL0     C37339   7.977   3.505   8.192 -0.4532  0.1502  0.2090
  996MOL0     C37340   8.058   3.477   8.312 -0.0507  0.3018 -0.5062
  996MOL0     O37341   8.020   3.546   8.428  0.3354  0.0197  0.2793
  996MOL0     C37342   8.095   3.526   8.549 -0.2924  0.1656 -0.0413
  996MOL0     C37343   8.165   3.639   8.605 -0.4547  0.1722 -0.0830
  996MOL0     C37344   8.254   3.621   8.708 -0.3440  0.1217  0.5501
  996MOL0     C37345   8.277   3.486   8.769 -0.7359  1.0452  1.0823
  996MOL0     O37346   8.369   3.461   8.873  0.0473  0.2444  0.4155
  996MOL0     C37347   8.491   3.540   8.892  0.5467 -0.5320  1.4917
  996MOL0     C37348   8.567   3.489   9.008  0.1534  0.0149  0.3046
  996MOL0     C37349   8.717   3.544   9.016 -0.6670  0.1504 -0.1120
  996MOL0     C37350   8.801   3.457   8.923 -1.4507 -0.4975  0.5516
  996MOL0     C37351   8.950   3.465   8.930  0.3381  0.4687  0.5911
  996MOL0     C37352   9.012   3.456   9.069  0.1977  0.5256  0.4723
  996MOL0     C37353   9.167   3.462   9.052 -0.0084 -0.1858  0.8363
  996MOL0     C37354   9.231   3.457   9.193  0.9305  0.5203 -0.0648
  996MOL0    Cl37355   9.399   3.428   9.172 -0.3349  0.7079 -0.0150
  996MOL0     C37356   8.195   3.377   8.713 -0.3360  0.3501  0.1426
  996MOL0     C37357   8.109   3.398   8.606 -0.5251 -1.0564  0.6208
  996MOL0     O37358   8.161   3.406   8.316 -0.6751  0.2687 -0.0386
  996MOL0     C37359   7.845   3.536   8.213  0.5630  0.7776 -0.8295
  996MOL0     C37360   7.749   3.545   8.110  0.5382  0.3175 -0.0986
  996MOL0     N37361   7.260   3.330   7.748  0.5162 -0.0265  0.1539
  996MOL0     N37362   7.147   3.297   7.806 -0.2146 -0.7664 -0.1065
  996MOL0     C37363   6.048   2.996   7.322  0.0768 -0.0999 -0.4942
  996MOL0     C37364   5.938   3.030   7.248  0.6473  0.3847 -0.0674
  996MOL0     C37365   5.639   3.320   7.050  0.0012  1.1330  0.0988
  996MOL0     C37366   5.550   3.419   7.107  0.0197 -0.2160  0.2013
  996MOL0     C37367   5.425   3.435   7.050 -0.7252 -0.2482  0.0282
  996MOL0     C37368   5.387   3.361   6.936 -0.7457 -0.2843  0.3660
  996MOL0     O37369   5.269   3.370   6.868 -0.1528 -0.8445  0.3584
  996MOL0     C37370   5.165   3.456   6.926  0.3093  0.8749  0.8415
  996MOL0     C37371   5.036   3.374   6.924  0.2367  0.5026  0.2832
  996MOL0     C37372   4.977   3.366   6.782  0.1802  0.0828  0.5140
  996MOL0     C37373   4.846   3.290   6.815  0.7401 -0.1824 -0.0980
  996MOL0     C37374   4.770   3.277   6.686  0.5425  0.2085 -0.6551
  996MOL0     C37375   4.706   3.263   6.593 -0.1103 -0.4597 -0.3217
  996MOL0     C37376   5.477   3.271   6.876  0.8151  0.6257 -0.5445
  996MOL0     C37377   5.605   3.251   6.930 -0.6003 -0.4706  0.2695
  996MOL0     C37378   5.698   3.167   6.858  0.1864  0.2065 -0.2234
  996MOL0     H37379   6.046   3.301   7.089  0.1014 -1.8963 -2.2957
  996MOL0     H37380   6.246   3.250   7.220 -1.3678  1.8932  0.0892
  996MOL0     H37381   6.267   2.860   7.473 -1.2512  0.4111 -2.7778
  996MOL0     H37382   6.217   3.014   7.552 -0.0279  0.0277  0.1181
  996MOL0     H37383   6.433   2.964   7.653  2.4736  2.1047  0.8561
  996MOL0     H37384   6.508   2.921   7.500 -1.6671 -1.9736 -0.6327
  996MOL0     H37385   6.468   3.183   7.457 -0.2159  0.2007  0.3004
  996MOL0     H37386   6.393   3.200   7.608 -0.9004 -1.4844 -1.3636
  996MOL0     H37387   6.634   3.093   7.686  0.5993 -0.3759 -0.3656
  996MOL0     H37388   6.674   3.137   7.513 -0.6022 -0.0096 -0.9150
  996MOL0     H37389   6.559   3.350   7.702  0.3744 -1.1951  1.0048
  996MOL0     H37390   6.656   3.357   7.550 -0.9715 -0.4572 -0.8640
  996MOL0     H37391   6.777   3.250   7.813  0.0181  3.7500  2.2051
  996MOL0     H37392   6.852   3.297   7.650  0.1836  0.2620  0.2757
  996MOL0     H37393   6.726   3.473   7.850  0.2709 -2.9337  2.0934
  996MOL0     H37394   6.815   3.515   7.707 -0.7946  0.5409  0.2627
  996MOL0     H37395   6.956   3.515   7.926 -1.8082 -0.0701  0.9987
  996MOL0     H37396   6.921   3.340   7.929  3.4681 -0.0933 -0.3791
  996MOL0     H37397   7.071   3.586   7.669 -1.9266 -2.2576 -2.2070
  996MOL0     H37398   7.308   3.638   7.601 -0.6257  0.0885 -2.0089
  996MOL0     H37399   7.365   3.498   7.518  0.1274 -0.0922 -0.2614
  996MOL0     H37400   7.551   3.606   7.606 -1.0264 -1.4719 -1.4960
  996MOL0     H37401   7.487   3.618   7.766  0.0409 -0.8762  1.6586
  996MOL0     H37402   7.499   3.354   7.779 -0.6430  2.1887  1.4044
  996MOL0     H37403   7.568   3.359   7.614  0.2881  0.5140 -0.4020
  996MOL0     H37404   7.745   3.347   7.786 -2.0119 -0.0809  1.3216
  996MOL0     H37405   7.757   3.502   7.696  2.0042 -1.1877  0.4766
  996MOL0     H37406   7.946   3.459   7.855  0.5471 -0.3829 -0.1122
  996MOL0     H37407   8.176   3.437   7.916  1.1808 -1.4770 -0.4998
  996MOL0     H37408   8.201   3.365   8.069  1.3679  0.5013  0.6359
  996MOL0     H37409   8.244   3.535   8.045  1.0205 -1.8650  2.9542
  996MOL0     H37410   8.142   3.736   8.562  0.1630 -0.9390 -3.2183
  996MOL0     H37411   8.302   3.713   8.741 -0.4080  1.0678 -1.8150
  996MOL0     H37412   8.546   3.525   8.798  0.2881  1.0867  1.0549
  996MOL0     H37413   8.471   3.646   8.906  1.7628  0.1118 -1.0849
  996MOL0     H37414   8.516   3.529   9.096 -1.5215  2.9370 -1.8058
  996MOL0     H37415   8.574   3.380   9.008 -1.5619 -0.1161  0.0232
  996MOL0     H37416   8.748   3.527   9.120  1.0880 -1.3797 -0.8364
  996MOL0     H37417   8.726   3.648   8.983  0.0317 -0.4045 -1.7524
  996MOL0     H37418   8.775   3.461   8.817 -4.1580  0.3267  1.1797
  996MOL0     H37419   8.773   3.355   8.952 -1.7714 -0.3270  0.8438
  996MOL0     H37420   8.997   3.379   8.881 -0.7704 -0.4826  1.1806
  996MOL0     H37421   8.984   3.557   8.880 -1.6922  1.2823  0.6428
  996MOL0     H37422   8.987   3.367   9.128  1.5867 -0.4585 -0.3805
  996MOL0     H37423   8.982   3.543   9.129  0.6051  0.7566  0.3450
  996MOL0     H37424   9.190   3.554   8.998 -3.1581  0.2324  0.0383
  996MOL0     H37425   9.186   3.374   8.990 -3.7014  0.2584 -1.1823
  996MOL0     H37426   9.182   3.388   9.262 -1.4131  1.1074 -1.0491
  996MOL0     H37427   9.214   3.559   9.231  2.2179  1.6197 -2.2288
  996MOL0     H37428   8.211   3.279   8.756 -1.6845  1.3404  3.1849
  996MOL0     H37429   8.040   3.324   8.566 -0.2458 -0.9740 -0.0229
  996MOL0     H37430   7.813   3.554   8.315  3.0478 -4.0414  1.1064
  996MOL0     H37431   7.645   3.570   8.127  0.7739 -0.0319  2.2754
  996MOL0     H37432   6.043   2.905   7.381 -2.1692  0.6703  0.6274
  996MOL0     H37433   5.853   2.962   7.252  0.6119  0.4602  0.5367
  996MOL0     H37434   5.585   3.476   7.192 -0.9841 -3.2406  2.8235
  996MOL0     H37435   5.360   3.503   7.104 -1.0762 -0.2347 -0.4087
  996MOL0     H37436   5.184   3.491   7.028 -2.3619  0.5502  1.5287
  996MOL0     H37437   5.148   3.547   6.869  0.1958  0.5200  0.2986
  996MOL0     H37438   4.967   3.436   6.981  0.6603  0.5066  0.8096
  996MOL0     H37439   5.059   3.277   6.969  1.9385  1.0614  0.7184
  996MOL0     H37440   4.954   3.464   6.741 -1.2882  0.1684  1.4401
  996MOL0     H37441   5.040   3.318   6.706 -2.0777  1.9280 -2.7886
  996MOL0     H37442   4.780   3.343   6.884 -0.0299 -0.4332 -0.6316
  996MOL0     H37443   4.867   3.189   6.853 -1.9524 -0.7259  0.1695
  996MOL0     H37444   4.646   3.244   6.506  0.4459  0.0313 -0.8205
  996MOL0     H37445   5.453   3.226   6.780 -1.1527  1.8646 -0.7038
  996MOL0     H37446   5.696   3.066   6.901 -1.7712  1.1485  2.1277
  996MOL0     H37447   5.670   3.150   6.754 -0.9988  1.3492 -0.1098
  996MOL0     H37448   5.804   3.197   6.858  0.6589 -1.1173  2.5204
  997MOL0     O37449   1.049   4.030   0.573  0.2019 -0.1977  0.5708
  997MOL0     C37450   0.989   3.994   0.676 -0.0933  0.4216 -0.9116
  997MOL0     O37451   1.057   3.940   0.785  0.1761 -0.3762 -0.1595
  997MOL0     C37452   1.193   3.938   0.782  0.2564  1.0144  0.0283
  997MOL0     C37453   1.267   3.852   0.700  0.5555  0.2736 -0.5222
  997MOL0     C37454   1.409   3.865   0.709  0.4299  1.2363  0.3375
  997MOL0     C37455   1.479   3.955   0.791  0.4616 -0.7409 -0.6035
  997MOL0     O37456   1.616   3.961   0.781 -0.3858 -0.2156  0.5155
  997MOL0     C37457   1.686   4.033   0.883  0.0245 -0.2170 -0.0380
  997MOL0     C37458   1.696   4.180   0.845 -0.3549 -0.3317 -0.0841
  997MOL0     C37459   1.818   4.203   0.764  0.0057 -0.2863  0.2448
  997MOL0     C37460   1.833   4.351   0.740 -0.8621  0.5381  0.2669
  997MOL0     C37461   1.963   4.399   0.668  0.1087  0.0984  0.0440
  997MOL0     C37462   2.066   4.406   0.782 -0.9117 -0.7105  0.1273
  997MOL0     C37463   2.214   4.424   0.742 -0.2486 -0.0738  0.1263
  997MOL0     C37464   2.268   4.325   0.640  0.5095 -0.0247 -0.6307
  997MOL0     N37465   2.410   4.355   0.606  0.7169  0.7238 -0.2983
  997MOL0     C37466   2.455   4.470   0.540 -0.0542 -0.3082  0.2965
  997MOL0     C37467   2.582   4.479   0.584 -1.2381  1.0665 -0.1515
  997MOL0     C37468   2.688   4.581   0.549 -0.2910 -0.1812 -0.6267
  997MOL0     C37469   2.777   4.518   0.426 -0.3097 -0.1028 -0.4508
  997MOL0     C37470   2.884   4.613   0.393 -0.9648 -0.9303  0.1722
  997MOL0     C37471   2.985   4.646   0.496 -0.5151  0.6885 -0.7514
  997MOL0     O37472   3.092   4.708   0.417  0.4988 -0.0852  0.2862
  997MOL0     C37473   3.218   4.696   0.461 -0.4674  0.8704 -0.3683
  997MOL0     C37474   3.263   4.650   0.584  0.3172 -0.0143 -0.3681
  997MOL0     C37475   3.399   4.641   0.622  0.3347 -0.2569  0.7718
  997MOL0     C37476   3.433   4.590   0.764  0.8664 -0.2456  0.1195
  997MOL0     C37477   3.495   4.685   0.518 -0.1454  0.0103 -0.3012
  997MOL0     C37478   3.639   4.704   0.557 -0.9888 -0.0861  0.2111
  997MOL0     O37479   3.677   4.666   0.678  0.0843  0.1416  0.2466
  997MOL0     C37480   3.798   4.697   0.719  0.1057 -0.0644 -0.1179
  997MOL0     C37481   3.852   4.828   0.698 -0.7460  0.2370 -0.1879
  997MOL0     C37482   3.984   4.860   0.746  0.2002  0.1416  0.7002
  997MOL0     C37483   4.051   4.756   0.815 -0.2567  0.3877  0.4498
  997MOL0     O37484   4.188   4.767   0.854  0.0988  0.8825  0.3989
  997MOL0     C37485   4.258   4.895   0.850 -0.6863  0.0485 -0.1538
  997MOL0     C37486   4.341   4.907   0.725  0.4133  0.7878 -0.0641
  997MOL0     C37487   4.430   5.033   0.712 -0.2127  0.5119 -0.0547
  997MOL0     C37488   4.542   5.009   0.605 -0.4239 -0.1067  0.1747
  997MOL0     C37489   4.602   5.134   0.541 -0.3454 -1.0311 -0.7513
  997MOL0     C37490   4.686   5.088   0.422 -0.1299 -0.1722 -0.2074
  997MOL0     C37491   4.787   5.194   0.368 -0.1507 -0.0393 -1.1646
  997MOL0     C37492   4.866   5.147   0.239 -0.2491 -1.1273 -0.5709
  997MOL0    Cl37493   4.893   5.277   0.122  0.3669  0.5065  0.1443
  997MOL0     C37494   3.998   4.629   0.844 -0.0362 -0.9929 -0.3155
  997MOL0     C37495   3.874   4.603   0.797 -0.2412 -0.0651  0.2024
  997MOL0     O37496   3.710   4.752   0.469 -0.2022  0.9711 -0.3454
  997MOL0     C37497   3.449   4.727   0.391 -0.6855  0.3324  0.5603
  997MOL0     C37498   3.311   4.734   0.362  0.2631 -0.5452 -0.6969
  997MOL0     N37499   2.609   4.353   0.642  0.8656  0.4758 -0.3115
  997MOL0     N37500   2.504   4.276   0.654 -0.3446  0.6972 -0.1737
  997MOL0     C37501   1.395   4.042   0.864 -0.1230  0.6268 -0.0120
  997MOL0     C37502   1.256   4.028   0.861  0.7210  0.4097  0.0068
  997MOL0     C37503   0.842   4.009   0.695  0.0559  0.5310  0.1300
  997MOL0     C37504   0.796   4.028   0.827 -0.1049  0.2139 -0.2059
  997MOL0     C37505   0.670   4.071   0.857 -0.1262 -0.2276 -1.2100
  997MOL0     C37506   0.580   4.101   0.749 -0.3607 -0.4593 -0.1076
  997MOL0     O37507   0.462   4.162   0.782  0.0635 -0.2292 -0.2280
  997MOL0     C37508   0.360   4.186   0.683  0.3748  0.0190 -0.2080
  997MOL0     C37509   0.243   4.263   0.747  0.1045  0.6526 -0.2700
  997MOL0     C37510   0.153   4.175   0.836 -0.2100 -1.2354  0.1178
  997MOL0     C37511   0.060   4.269   0.912  0.2112 -0.2387 -0.9757
  997MOL0     C37512  -0.006   4.199   1.020 -0.0770 -0.3309  0.9361
  997MOL0     C37513  -0.049   4.127   1.104 -1.0026 -0.3410 -0.7252
  997MOL0     C37514   0.619   4.073   0.616 -0.0614 -0.1443 -0.3088
  997MOL0     C37515   0.746   4.027   0.592 -0.3225  0.3808 -0.7682
  997MOL0     C37516   0.787   4.016   0.449 -0.2162 -0.4390 -0.3980
  997MOL0     H37517   1.206   3.782   0.644 -0.3512  0.5835  0.0382
  997MOL0     H37518   1.455   3.791   0.645 -2.1491 -1.2553  1.1725
  997MOL0     H37519   1.788   3.993   0.885  0.5140  0.7450 -2.4390
  997MOL0     H37520   1.645   4.028   0.984  0.7748  1.7662  0.3993
  997MOL0     H37521   1.613   4.221   0.787 -0.3484 -0.5366 -0.2393
  997MOL0     H37522   1.700   4.239   0.937  0.9822  0.3203 -0.5340
  997MOL0     H37523   1.903   4.162   0.818  0.5188  0.2992 -0.1127
  997MOL0     H37524   1.805   4.141   0.674 -1.7012 -1.4961  1.2523
  997MOL0     H37525   1.755   4.388   0.673 -0.9702 -1.1381 -0.5988
  997MOL0     H37526   1.811   4.414   0.827 -0.3422  1.9865 -0.6090
  997MOL0     H37527   1.946   4.491   0.611 -1.0882 -0.2702 -0.2253
  997MOL0     H37528   1.998   4.334   0.588  0.3610  0.8405 -0.4503
  997MOL0     H37529   2.045   4.502   0.831 -1.2420  0.0256 -1.3770
  997MOL0     H37530   2.070   4.329   0.859  3.9123 -1.7392 -0.8234
  997MOL0     H37531   2.280   4.416   0.829 -1.7340 -0.3681  1.2530
  997MOL0     H37532   2.223   4.522   0.695 -0.7344  1.0940  2.3504
  997MOL0     H37533   2.267   4.226   0.685  0.0757 -0.0379 -0.6641
  997MOL0     H37534   2.216   4.337   0.544  2.3404  0.0700 -1.6480
  997MOL0     H37535   2.405   4.537   0.471 -1.1624 -0.8845  0.5174
  997MOL0     H37536   2.754   4.604   0.633  0.9230  3.5656 -2.3735
  997MOL0     H37537   2.632   4.674   0.530 -1.2215 -0.8348 -1.1461
  997MOL0     H37538   2.813   4.420   0.456  0.9131  0.6964  0.8195
  997MOL0     H37539   2.712   4.501   0.339 -2.6974  1.7254  0.8389
  997MOL0     H37540   2.939   4.569   0.310 -1.5955 -1.2197 -0.0937
  997MOL0     H37541   2.838   4.708   0.366  2.2422  1.3146  1.8869
  997MOL0     H37542   2.936   4.718   0.562 -2.1527 -1.3320  0.3413
  997MOL0     H37543   3.023   4.553   0.539 -1.3034 -0.4088 -2.3542
  997MOL0     H37544   3.191   4.606   0.652 -2.1146  0.7522 -2.2931
  997MOL0     H37545   3.503   4.506   0.761  1.2836  0.1306 -1.5330
  997MOL0     H37546   3.344   4.558   0.819 -0.5132 -2.0518 -2.9032
  997MOL0     H37547   3.475   4.676   0.816  0.0854 -0.9423  2.0140
  997MOL0     H37548   3.799   4.909   0.647  0.3330  0.3673 -1.1406
  997MOL0     H37549   4.023   4.958   0.721  1.5337 -0.4622  0.3360
  997MOL0     H37550   4.190   4.980   0.854  1.0175  1.5123 -0.7345
  997MOL0     H37551   4.325   4.894   0.936 -0.2392 -0.4548 -0.5011
  997MOL0     H37552   4.413   4.824   0.717 -0.1968  0.0889  1.4544
  997MOL0     H37553   4.276   4.910   0.637 -0.1746  2.0561  0.3891
  997MOL0     H37554   4.480   5.045   0.808  0.0136 -2.0650  0.2325
  997MOL0     H37555   4.375   5.122   0.680 -2.4887 -1.0723 -0.7879
  997MOL0     H37556   4.493   4.962   0.520 -2.8020 -1.8931  2.3926
  997MOL0     H37557   4.627   4.960   0.653 -0.9088 -1.4481 -0.2983
  997MOL0     H37558   4.526   5.207   0.511  0.6379  0.0237 -0.7505
  997MOL0     H37559   4.662   5.199   0.606 -0.4492 -0.5761 -1.1112
  997MOL0     H37560   4.621   5.062   0.338  0.6161 -4.2745  0.2651
  997MOL0     H37561   4.735   4.992   0.439 -0.1787  0.1326  1.8172
  997MOL0     H37562   4.862   5.225   0.442 -0.3630 -0.8927 -0.5854
  997MOL0     H37563   4.730   5.283   0.339  0.0948  0.0668 -1.3285
  997MOL0     H37564   4.822   5.062   0.187 -1.4062 -0.9913  0.1560
  997MOL0     H37565   4.961   5.110   0.278 -0.4751 -0.1343  0.9900
  997MOL0     H37566   4.046   4.562   0.915 -0.7384 -1.4664 -0.2776
  997MOL0     H37567   3.823   4.511   0.821 -1.4506  0.8227  1.1833
  997MOL0     H37568   3.517   4.759   0.313 -1.1195 -2.7672 -1.2470
  997MOL0     H37569   3.269   4.764   0.266 -0.4748  1.3166  0.1478
  997MOL0     H37570   1.438   4.126   0.918  2.5112 -0.3563 -0.4440
  997MOL0     H37571   1.198   4.084   0.933  2.0229  0.5792  0.9452
  997MOL0     H37572   0.851   4.014   0.920 -2.3102  1.4151  1.3638
  997MOL0     H37573   0.637   4.080   0.960 -1.3043 -1.7062 -1.4172
  997MOL0     H37574   0.402   4.253   0.607  4.2194 -1.3617  0.4822
  997MOL0     H37575   0.326   4.094   0.636  2.6670 -1.0903  0.1497
  997MOL0     H37576   0.182   4.314   0.672 -1.6275  1.6091  1.6648
  997MOL0     H37577   0.275   4.349   0.807 -0.0760  0.6636 -0.1900
  997MOL0     H37578   0.086   4.113   0.777  0.8801 -1.5728 -0.7968
  997MOL0     H37579   0.211   4.120   0.911 -0.2900 -0.4263  0.7839
  997MOL0     H37580  -0.013   4.310   0.841  0.4189  1.4962 -0.2584
  997MOL0     H37581   0.114   4.355   0.954 -1.1000  0.5711 -0.8988
  997MOL0     H37582  -0.086   4.063   1.182  0.1411 -0.9147 -0.6299
  997MOL0     H37583   0.544   4.090   0.539  0.3736 -0.2295 -0.7564
  997MOL0     H37584   0.878   3.955   0.447 -1.1043 -1.8857  1.0884
  997MOL0     H37585   0.716   3.966   0.383 -0.0218  0.4945 -1.3559
  997MOL0     H37586   0.795   4.117   0.406 -2.3649  0.7523  1.7544
  998MOL0     O37587   0.934   7.949   8.886 -0.8931  0.0086 -0.5488
  998MOL0     C37588   0.936   7.921   8.768 -0.0361  0.2956  0.1409
  998MOL0     O37589   1.044   7.912   8.693 -0.2915 -0.1041 -0.3027
  998MOL0     C37590   1.171   7.913   8.751  0.4556 -0.5480 -0.9461
  998MOL0     C37591   1.262   7.940   8.651 -0.5093  0.7366 -0.2866
  998MOL0     C37592   1.396   7.919   8.683 -0.3009  0.2744 -0.2751
  998MOL0     C37593   1.441   7.890   8.807  0.1372  0.7558 -0.6840
  998MOL0     O37594   1.579   7.880   8.823 -0.1650  0.7313 -0.3981
  998MOL0     C37595   1.639   7.990   8.896 -0.8553 -0.2591 -0.6062
  998MOL0     C37596   1.656   8.118   8.809  0.4609 -0.3886 -0.0985
  998MOL0     C37597   1.739   8.075   8.688 -0.2600 -0.1564  0.0122
  998MOL0     C37598   1.883   8.071   8.719  0.2530 -0.7051  0.2868
  998MOL0     C37599   1.974   8.082   8.591  0.1866  0.7863 -0.5665
  998MOL0     C37600   2.113   8.131   8.635  0.1414 -0.1923 -0.1746
  998MOL0     C37601   2.199   8.126   8.515 -0.2327  0.3395  0.4073
  998MOL0     C37602   2.335   8.184   8.539 -0.4136  0.3679 -0.4915
  998MOL0     N37603   2.419   8.173   8.424 -0.5355 -0.1621  0.7558
  998MOL0     C37604   2.504   8.074   8.374  0.9501 -0.3637 -0.4797
  998MOL0     C37605   2.573   8.134   8.274  0.2555  0.5549  0.3937
  998MOL0     C37606   2.676   8.055   8.199 -1.0074  0.1676  0.3327
  998MOL0     C37607   2.662   7.900   8.196 -0.2970  0.0420 -0.6578
  998MOL0     C37608   2.734   7.822   8.086 -0.6886 -0.0318 -0.3580
  998MOL0     C37609   2.885   7.853   8.070  0.4093  0.4803 -0.2077
  998MOL0     O37610   2.955   7.814   8.192 -0.2281 -1.2109 -0.3463
  998MOL0     C37611   3.092   7.836   8.192  0.7199  0.0767  0.0754
  998MOL0     C37612   3.148   7.796   8.312  0.3340 -0.3121 -0.5600
  998MOL0     C37613   3.281   7.833   8.345  0.1619  0.4073 -1.2272
  998MOL0     C37614   3.333   7.769   8.480  0.2540 -0.1848  0.4095
  998MOL0     C37615   3.365   7.906   8.260  0.3784  0.2775 -1.0199
  998MOL0     C37616   3.516   7.910   8.267  0.3963  0.2927 -0.1301
  998MOL0     O37617   3.581   7.828   8.351  0.8841  0.3727  0.0863
  998MOL0     C37618   3.711   7.829   8.367  0.4396  0.7062 -0.4956
  998MOL0     C37619   3.777   7.720   8.322 -0.2719  0.7790  0.6685
  998MOL0     C37620   3.916   7.717   8.325  0.0109  0.2719  0.5026
  998MOL0     C37621   3.990   7.808   8.397  0.2807 -0.3239  0.5606
  998MOL0     O37622   4.130   7.811   8.414  0.5638  0.5742  0.0059
  998MOL0     C37623   4.199   7.695   8.374  0.2666  0.0317 -0.1891
  998MOL0     C37624   4.344   7.691   8.425 -0.2296 -0.5078 -0.6170
  998MOL0     C37625   4.437   7.801   8.362  1.1771  0.1953 -0.0678
  998MOL0     C37626   4.583   7.800   8.411 -0.4803 -0.2370 -0.1255
  998MOL0     C37627   4.667   7.896   8.336 -0.3334  0.5917 -0.2308
  998MOL0     C37628   4.790   7.915   8.422  0.0181  0.2532  0.2293
  998MOL0     C37629   4.909   7.976   8.345  0.4924  0.1437 -1.1286
  998MOL0     C37630   4.967   7.891   8.228  0.0720  0.2212 -1.4741
  998MOL0    Cl37631   5.105   7.966   8.137 -0.4183 -0.0749  0.5566
  998MOL0     C37632   3.923   7.921   8.447  0.8606  0.4242 -1.1161
  998MOL0     C37633   3.784   7.930   8.429 -0.2439 -0.8317  0.4111
  998MOL0     O37634   3.565   8.003   8.206  0.4809 -0.0339 -0.0780
  998MOL0     C37635   3.302   7.944   8.137  0.2296  0.1127  0.3736
  998MOL0     C37636   3.168   7.917   8.104 -0.1321  0.1718 -0.4492
  998MOL0     N37637   2.546   8.267   8.269  0.0233 -0.0828 -0.3429
  998MOL0     N37638   2.448   8.283   8.347 -0.5178  0.9855 -0.1291
  998MOL0     C37639   1.347   7.860   8.911 -0.4680 -0.1819  0.2916
  998MOL0     C37640   1.211   7.873   8.879 -0.3925 -0.3852  0.4077
  998MOL0     C37641   0.799   7.912   8.714 -0.5793 -0.2792  0.8502
  998MOL0     C37642   0.699   7.864   8.805  0.3433  0.2423  0.7212
  998MOL0     C37643   0.555   7.870   8.772 -0.9147 -0.0950  0.1496
  998MOL0     C37644   0.524   7.920   8.641  0.4167  0.1949 -0.4254
  998MOL0     O37645   0.394   7.931   8.607  0.0737 -0.2849  0.1275
  998MOL0     C37646   0.288   7.924   8.708 -1.2927 -0.1033  0.3589
  998MOL0     C37647   0.161   7.985   8.660 -0.5856  0.1141 -0.0164
  998MOL0     C37648   0.053   8.020   8.763  0.2707  0.9420  0.0420
  998MOL0     C37649   0.007   7.896   8.829  0.9787 -0.4297  0.3153
  998MOL0     C37650  -0.121   7.890   8.895 -0.5667 -0.1580 -0.2230
  998MOL0     C37651  -0.229   7.883   8.951 -0.4217  0.1873  0.1064
  998MOL0     C37652   0.625   7.969   8.555  0.2676  0.2531 -0.4760
  998MOL0     C37653   0.760   7.958   8.584 -0.7698 -0.0488  0.4185
  998MOL0     C37654   0.858   7.975   8.472  0.3028 -0.9144 -0.1396
  998MOL0     H37655   1.231   7.956   8.548 -1.2407 -2.6448 -0.7108
  998MOL0     H37656   1.474   7.920   8.609 -0.5957 -1.5411 -0.6617
  998MOL0     H37657   1.733   7.944   8.927 -1.0376 -0.0523  0.3080
  998MOL0     H37658   1.591   8.029   8.987  3.2580  0.6727  1.4061
  998MOL0     H37659   1.559   8.159   8.779  0.7907  0.4586 -0.0280
  998MOL0     H37660   1.702   8.201   8.862 -1.5885  0.0065  1.1744
  998MOL0     H37661   1.708   7.977   8.652  1.3874 -0.6973 -0.0087
  998MOL0     H37662   1.713   8.154   8.616 -0.9615  0.7053  1.1819
  998MOL0     H37663   1.915   8.143   8.794 -0.4981  0.1551 -0.2010
  998MOL0     H37664   1.897   7.978   8.774  3.4817  1.1778  2.9923
  998MOL0     H37665   1.929   8.147   8.515 -2.7348 -0.1126  0.2663
  998MOL0     H37666   1.985   7.980   8.553  0.2776  0.8670 -0.7595
  998MOL0     H37667   2.104   8.231   8.680  1.3668  0.1666 -0.6730
  998MOL0     H37668   2.159   8.067   8.710  0.7666 -0.9440 -1.1787
  998MOL0     H37669   2.142   8.183   8.440 -0.0993  0.5297  0.4526
  998MOL0     H37670   2.212   8.026   8.471  1.6535  0.6001  0.3064
  998MOL0     H37671   2.312   8.288   8.565 -1.1542  0.8762 -2.9011
  998MOL0     H37672   2.376   8.141   8.631 -3.2207  0.8770  1.0921
  998MOL0     H37673   2.503   7.970   8.403  1.9037 -0.4477 -0.7047
  998MOL0     H37674   2.775   8.081   8.237  0.2922 -1.2828 -1.8156
  998MOL0     H37675   2.671   8.093   8.097 -2.1153  0.1194  0.3575
  998MOL0     H37676   2.711   7.874   8.291 -1.7527 -0.0233  0.1099
  998MOL0     H37677   2.564   7.857   8.215  0.0186 -1.1904 -1.6592
  998MOL0     H37678   2.732   7.719   8.123 -0.5176  0.3063  0.6073
  998MOL0     H37679   2.690   7.823   7.985  1.6593 -0.4106 -1.4416
  998MOL0     H37680   2.931   7.796   7.989  1.4810  0.5584  0.3367
  998MOL0     H37681   2.886   7.960   8.047  1.9275 -0.0450 -2.9491
  998MOL0     H37682   3.079   7.744   8.378 -0.6378  0.5438 -0.8682
  998MOL0     H37683   3.381   7.841   8.547  0.4521  0.6383 -0.5949
  998MOL0     H37684   3.402   7.685   8.471  0.4348 -0.0332  0.3772
  998MOL0     H37685   3.253   7.704   8.518  2.2375 -1.8337  1.9894
  998MOL0     H37686   3.721   7.638   8.278  1.1444  0.5503 -0.8087
  998MOL0     H37687   3.965   7.629   8.283 -0.8302 -0.3476  0.7801
  998MOL0     H37688   4.146   7.609   8.416 -1.0520  1.4921  1.2823
  998MOL0     H37689   4.198   7.677   8.267 -2.1370 -0.9757 -0.0517
  998MOL0     H37690   4.348   7.706   8.533  0.4930 -2.7601 -0.2830
  998MOL0     H37691   4.386   7.593   8.403  2.7992 -0.4643  3.7769
  998MOL0     H37692   4.393   7.899   8.383  0.3614 -0.4830  1.5534
  998MOL0     H37693   4.436   7.779   8.255 -0.5227 -0.9164  0.1393
  998MOL0     H37694   4.624   7.699   8.423  0.6484  0.2187 -0.0731
  998MOL0     H37695   4.576   7.827   8.517 -0.2980  0.4707 -0.2932
  998MOL0     H37696   4.695   7.862   8.236 -1.4367  2.2977 -1.1759
  998MOL0     H37697   4.611   7.989   8.323  1.6631  1.6118 -2.3748
  998MOL0     H37698   4.829   7.819   8.456  1.2156 -0.2893 -2.4433
  998MOL0     H37699   4.764   7.973   8.511  1.8976 -2.7957  2.9792
  998MOL0     H37700   4.983   7.995   8.423 -2.9770 -0.0196  2.4815
  998MOL0     H37701   4.878   8.071   8.300  0.1873  0.3490 -0.4918
  998MOL0     H37702   4.886   7.861   8.161  0.1437 -0.7547 -1.1304
  998MOL0     H37703   5.014   7.801   8.267  1.4924  0.2389 -3.0335
  998MOL0     H37704   3.977   8.003   8.493 -0.6758  0.6768  0.3542
  998MOL0     H37705   3.725   8.017   8.457  3.0955  1.0173  2.3055
  998MOL0     H37706   3.365   7.980   8.056  0.5995 -0.5167  0.3771
  998MOL0     H37707   3.112   7.962   8.022 -2.2942  0.9365  1.3529
  998MOL0     H37708   1.383   7.820   9.005  0.0108 -2.6514 -0.8741
  998MOL0     H37709   1.140   7.843   8.956  1.8841  0.1867  2.9105
  998MOL0     H37710   0.727   7.826   8.903  0.3233 -2.3298 -0.1821
  998MOL0     H37711   0.481   7.835   8.842 -0.5945 -0.0832  0.4957
  998MOL0     H37712   0.288   7.819   8.739 -0.1390  0.5201  2.7027
  998MOL0     H37713   0.308   7.981   8.799 -2.6319  0.9480  0.0344
  998MOL0     H37714   0.114   7.927   8.580  0.5751  0.7439 -1.1818
  998MOL0     H37715   0.195   8.075   8.608 -0.7464  0.0603 -0.2194
  998MOL0     H37716   0.102   8.087   8.834 -0.7412  0.6080  1.0993
  998MOL0     H37717  -0.024   8.078   8.711 -1.9499 -1.7694  0.0435
  998MOL0     H37718   0.084   7.842   8.886  0.0606 -0.6189  1.4320
  998MOL0     H37719  -0.012   7.833   8.742 -1.4824  1.3248 -0.5407
  998MOL0     H37720  -0.326   7.872   8.995 -0.3165 -1.4445 -0.0324
  998MOL0     H37721   0.600   8.009   8.458  0.7073 -3.1640 -2.1462
  998MOL0     H37722   0.864   7.878   8.422 -4.6982 -1.5841  0.0457
  998MOL0     H37723   0.810   8.042   8.400  0.2783  1.4678  1.9501
  998MOL0     H37724   0.948   8.022   8.513 -1.2472  1.2939  0.9560
  999MOL0     O37725   5.850   9.792   2.512 -0.4176 -0.0294 -0.0651
  999MOL0     C37726   5.931   9.800   2.418 -0.2248  0.7115  0.2449
  999MOL0     O37727   6.029   9.889   2.414  0.3495  0.3320  0.3460
  999MOL0     C37728   6.021   9.996   2.501 -0.3997 -0.0930  0.1535
  999MOL0     C37729   5.911  10.080   2.500 -0.0975  0.7127  0.2884
  999MOL0     C37730   5.905  10.187   2.590  0.3553 -0.6545 -0.3939
  999MOL0     C37731   6.011  10.215   2.684 -1.0606 -0.0202  0.4789
  999MOL0     O37732   5.990  10.308   2.781 -0.5972 -0.0780 -0.6176
  999MOL0     C37733   6.097  10.404   2.817  0.1676  0.5050 -0.0699
  999MOL0     C37734   6.045  10.526   2.893 -0.2864 -0.1956 -0.0055
  999MOL0     C37735   5.988  10.633   2.802  0.1173 -1.5637  0.2878
  999MOL0     C37736   5.915  10.736   2.891 -0.0510 -0.0839  0.9707
  999MOL0     C37737   5.879  10.864   2.819 -0.8851 -0.1426  0.0352
  999MOL0     C37738   6.000  10.941   2.786 -0.0400 -0.3464 -0.1835
  999MOL0     C37739   5.974  11.086   2.744 -0.1398 -0.2126 -0.4363
  999MOL0     C37740   5.894  11.098   2.612  0.4834  0.1308 -0.3203
  999MOL0     N37741   5.956  11.166   2.508 -0.3754 -0.3146  0.0866
  999MOL0     C37742   6.027  11.106   2.402 -0.4999 -1.5274 -0.2077
  999MOL0     C37743   6.036  11.212   2.316 -0.5669  0.2950 -0.0597
  999MOL0     C37744   6.121  11.208   2.186 -1.2289  0.0440  1.0114
  999MOL0     C37745   6.238  11.315   2.199  0.0207 -0.5257 -0.0624
  999MOL0     C37746   6.357  11.285   2.100  0.1532 -0.3750 -0.0502
  999MOL0     C37747   6.460  11.389   2.118 -0.3596 -0.3504 -0.5597
  999MOL0     O37748   6.560  11.388   2.015  0.9926  0.5280  0.1199
  999MOL0     C37749   6.673  11.465   2.012 -0.7906  0.0234  0.0852
  999MOL0     C37750   6.784  11.428   1.924  0.0814 -0.2751  0.1471
  999MOL0     C37751   6.907  11.499   1.926 -0.5788  0.6523  0.4524
  999MOL0     C37752   7.014  11.456   1.826  0.1312  0.6627 -0.2021
  999MOL0     C37753   6.925  11.596   2.023  0.3474 -0.2145  0.5415
  999MOL0     C37754   7.051  11.672   2.043 -0.0695 -0.0743  0.2855
  999MOL0     O37755   7.141  11.672   1.945 -0.3795 -0.2403  0.0406
  999MOL0     C37756   7.257  11.750   1.956 -0.2329  0.0379  0.4207
  999MOL0     C37757   7.244  11.889   1.972  0.2420  0.1262  0.1149
  999MOL0     C37758   7.357  11.976   1.960  0.5456  0.2707  0.0111
  999MOL0     C37759   7.479  11.930   1.937 -0.0943  0.2642  0.2121
  999MOL0     O37760   7.583  12.016   1.935  0.3664  0.3312  0.0639
  999MOL0     C37761   7.667  11.994   2.043  0.0761 -0.4016  0.2615
  999MOL0     C37762   7.798  12.076   2.019 -0.7597 -0.6682 -0.2416
  999MOL0     C37763   7.906  12.019   2.108 -0.2749 -0.0451  0.1657
  999MOL0     C37764   7.881  12.069   2.246 -0.8098  0.1470 -0.4747
  999MOL0     C37765   7.986  12.026   2.349 -0.3583  1.1012  0.3070
  999MOL0     C37766   8.132  11.995   2.305  1.3368  0.4920  0.1281
  999MOL0     C37767   8.201  12.130   2.271 -0.2849 -0.0089 -0.5850
  999MOL0     C37768   8.267  12.195   2.390  0.2573 -0.0710 -0.1743
  999MOL0    Cl37769   8.405  12.303   2.353 -0.2439 -0.0616 -0.3658
  999MOL0     C37770   7.489  11.792   1.895  0.1198  0.4854 -0.5606
  999MOL0     C37771   7.379  11.709   1.907 -0.3228  0.5562  0.3988
  999MOL0     O37772   7.074  11.736   2.150 -0.4087 -0.1995  0.3466
  999MOL0     C37773   6.824  11.621   2.125  0.4248  0.0968 -0.2049
  999MOL0     C37774   6.697  11.558   2.111  0.3864  0.6988  0.0246
  999MOL0     N37775   5.981  11.328   2.377  0.2016  0.4767 -0.1537
  999MOL0     N37776   5.944  11.297   2.497 -0.3575 -0.1425 -0.1684
  999MOL0     C37777   6.127  10.135   2.670  0.3580 -0.1429 -0.2125
  999MOL0     C37778   6.132  10.027   2.579 -0.3626 -0.0586 -0.3375
  999MOL0     C37779   5.942   9.681   2.329 -0.3824  0.4631  0.3595
  999MOL0     C37780   6.063   9.646   2.278  0.2847 -0.2678  0.7150
  999MOL0     C37781   6.079   9.522   2.201  0.5356 -0.1207 -0.2085
  999MOL0     C37782   5.972   9.432   2.176  0.2674 -0.5286  0.1294
  999MOL0     O37783   5.985   9.307   2.125  0.0800 -0.2732 -0.1858
  999MOL0     C37784   6.120   9.256   2.101 -0.4810  0.2870 -0.3392
  999MOL0     C37785   6.207   9.220   2.228  0.5047  0.1462 -1.0974
  999MOL0     C37786   6.174   9.077   2.286 -0.1392 -0.0612  0.4796
  999MOL0     C37787   6.220   8.959   2.200  0.3616 -0.4679  0.9237
  999MOL0     C37788   6.357   8.955   2.144 -0.5497  0.0399 -0.1382
  999MOL0     C37789   6.468   8.932   2.100 -0.4861  0.1905  0.1461
  999MOL0     C37790   5.850   9.479   2.213 -0.0388 -0.2382 -0.1109
  999MOL0     C37791   5.833   9.598   2.295  0.3848 -0.1149 -0.5215
  999MOL0     C37792   5.692   9.629   2.329  0.1903  0.2594 -0.2581
  999MOL0     H37793   5.822  10.074   2.437 -0.6187 -2.4444  1.1624
  999MOL0     H37794   5.813  10.246   2.594 -0.0666 -1.2659 -1.0012
  999MOL0     H37795   6.150  10.440   2.728 -2.5046  0.8370 -1.6532
  999MOL0     H37796   6.170  10.347   2.874  0.0881 -0.7196 -1.1535
  999MOL0     H37797   5.977  10.498   2.974  0.9429  1.8683  1.8485
  999MOL0     H37798   6.130  10.565   2.949  0.4484 -1.0772 -0.4934
  999MOL0     H37799   6.068  10.682   2.745 -0.2703 -2.3100 -0.9279
  999MOL0     H37800   5.923  10.595   2.723 -1.1132  0.7352  0.1218
  999MOL0     H37801   5.828  10.690   2.939 -0.8771  0.2891 -0.1384
  999MOL0     H37802   5.990  10.755   2.969  2.0157 -1.0703 -0.6747
  999MOL0     H37803   5.818  10.928   2.883  0.5441  1.2335  0.1021
  999MOL0     H37804   5.818  10.845   2.731  0.8422 -1.9269 -0.8561
  999MOL0     H37805   6.071  10.950   2.868  0.1629  1.3523 -0.5211
  999MOL0     H37806   6.056  10.896   2.703  0.4327  1.7207 -1.0528
  999MOL0     H37807   6.069  11.132   2.716  0.1370 -1.5881 -1.8963
  999MOL0     H37808   5.916  11.131   2.825 -0.9292 -0.5867 -0.7875
  999MOL0     H37809   5.887  10.998   2.567 -0.2264  1.0220 -2.2752
  999MOL0     H37810   5.792  11.132   2.628 -0.1037 -1.1063 -1.2414
  999MOL0     H37811   6.074  11.009   2.391 -1.7792 -2.2577  0.4672
  999MOL0     H37812   6.057  11.235   2.102  0.4918 -1.0181 -0.7391
  999MOL0     H37813   6.159  11.107   2.167 -1.1281  0.2776 -0.1186
  999MOL0     H37814   6.189  11.412   2.185 -1.4479 -1.4715 -2.0188
  999MOL0     H37815   6.276  11.307   2.302  2.6431  0.1654 -0.9010
  999MOL0     H37816   6.400  11.186   2.115  0.3705 -0.3205 -0.3230
  999MOL0     H37817   6.317  11.298   1.999 -1.1643 -0.9323  0.3714
  999MOL0     H37818   6.419  11.490   2.122  0.9807  0.2689 -1.6089
  999MOL0     H37819   6.504  11.372   2.216 -0.3339 -0.5164 -0.5994
  999MOL0     H37820   6.770  11.348   1.852  1.4414  0.5624 -1.0966
  999MOL0     H37821   7.094  11.420   1.891 -1.6301 -0.3861  1.4821
  999MOL0     H37822   7.049  11.541   1.765  1.0289  0.6655  0.2965
  999MOL0     H37823   6.989  11.368   1.765  2.1881 -0.4955  0.5327
  999MOL0     H37824   7.146  11.928   1.998  0.6336  0.3762  1.2879
  999MOL0     H37825   7.349  12.082   1.982  2.4229  0.5675 -0.5426
  999MOL0     H37826   7.616  12.026   2.135  1.9383 -0.7311  1.4586
  999MOL0     H37827   7.694  11.888   2.048 -2.1679 -1.1243 -1.2777
  999MOL0     H37828   7.819  12.068   1.912 -1.8319 -0.7199 -0.4672
  999MOL0     H37829   7.778  12.180   2.047 -0.3973 -1.4372  3.2066
  999MOL0     H37830   8.001  12.057   2.069 -0.5467  1.8212  1.1714
  999MOL0     H37831   7.909  11.910   2.098  1.5944 -0.0499  0.5014
  999MOL0     H37832   7.781  12.040   2.279 -0.2573 -2.8449 -1.1993
  999MOL0     H37833   7.874  12.178   2.253  0.7259  0.2174  0.6326
  999MOL0     H37834   7.977  12.102   2.428  0.8157  2.0391 -0.4310
  999MOL0     H37835   7.949  11.929   2.384 -0.2457  0.9581  0.0296
  999MOL0     H37836   8.132  11.926   2.220 -1.5937  0.6020 -0.0400
  999MOL0     H37837   8.191  11.945   2.382 -0.5359 -2.3862 -0.1422
  999MOL0     H37838   8.137  12.203   2.220 -1.9395 -0.4837  0.7212
  999MOL0     H37839   8.288  12.093   2.215 -0.8878 -2.0253 -0.2692
  999MOL0     H37840   8.302  12.122   2.464  0.7780  0.6527  0.3037
  999MOL0     H37841   8.184  12.252   2.433  0.1793 -1.6160  1.9082
  999MOL0     H37842   7.585  11.765   1.851 -0.5027 -0.6745 -1.2585
  999MOL0     H37843   7.394  11.605   1.880  0.9125  0.8478 -0.1032
  999MOL0     H37844   6.843  11.699   2.198  2.0471  0.3127 -0.8022
  999MOL0     H37845   6.618  11.583   2.181  1.0129  0.5566  0.8080
  999MOL0     H37846   6.205  10.141   2.745 -2.1790  1.9210  2.4974
  999MOL0     H37847   6.213   9.956   2.588  1.3334  1.9839  1.9078
  999MOL0     H37848   6.148   9.710   2.302  0.7325 -0.3791 -0.5019
  999MOL0     H37849   6.177   9.504   2.157  0.0851 -1.2124 -0.7957
  999MOL0     H37850   6.112   9.163   2.044  3.2378  0.2941 -1.1025
  999MOL0     H37851   6.170   9.319   2.027 -0.6627 -1.7255 -2.2807
  999MOL0     H37852   6.178   9.291   2.305 -0.6920 -1.9465  0.4692
  999MOL0     H37853   6.316   9.216   2.221  0.7548  2.7529  0.1618
  999MOL0     H37854   6.214   9.068   2.388  0.9509  0.6533  0.1410
  999MOL0     H37855   6.066   9.065   2.286 -0.1413 -1.3123 -3.4387
  999MOL0     H37856   6.145   8.957   2.121  0.8905 -0.2402  0.4133
  999MOL0     H37857   6.213   8.869   2.263  2.3704 -1.3033  0.0233
  999MOL0     H37858   6.570   8.916   2.072 -0.1669 -0.3641  1.5620
  999MOL0     H37859   5.762   9.417   2.208 -1.5668  1.8675 -0.8192
  999MOL0     H37860   5.684   9.738   2.325  0.9954  0.3135 -0.6454
  999MOL0     H37861   5.620   9.580   2.263 -1.0497  1.5635  0.0750
  999MOL0     H37862   5.668   9.592   2.429 -0.3349 -0.1661 -0.5411
 1000MOL0     O37863   8.102   2.260   0.303  0.6298  0.4548 -0.6552
 1000MOL0     C37864   8.017   2.270   0.396  0.3424  0.5470 -0.3760
 1000MOL0     O37865   8.041   2.328   0.510  0.2478 -0.7084 -0.2075
 1000MOL0     C37866   8.173   2.369   0.540  0.0652 -0.1470  0.2351
 1000MOL0     C37867   8.213   2.358   0.675 -0.4075  0.2370 -0.3859
 1000MOL0     C37868   8.338   2.403   0.718 -0.3855  0.2470 -0.2102
 1000MOL0     C37869   8.420   2.484   0.632  0.6959  0.5312  0.0872
 1000MOL0     O37870   8.537   2.538   0.664 -0.4244  0.0533 -0.1617
 1000MOL0     C37871   8.602   2.493   0.782  0.2630 -0.4577 -0.2004
 1000MOL0     C37872   8.752   2.535   0.766 -0.3141 -0.6643 -0.5778
 1000MOL0     C37873   8.845   2.463   0.869 -0.0978 -0.0416 -0.8328
 1000MOL0     C37874   8.990   2.515   0.854  0.1473  0.2567 -0.0934
 1000MOL0     C37875   9.065   2.444   0.972 -0.2713  1.5588 -0.1314
 1000MOL0     C37876   9.209   2.507   0.985 -0.6254 -0.0528  0.6470
 1000MOL0     C37877   9.314   2.391   1.029 -0.0958  1.0139 -0.7098
 1000MOL0     C37878   9.450   2.449   1.058 -0.3407  0.1385 -0.0418
 1000MOL0     N37879   9.514   2.488   0.930  0.2691  0.7032  0.1141
 1000MOL0     C37880   9.552   2.411   0.824 -0.7629  0.5066  0.2375
 1000MOL0     C37881   9.606   2.500   0.721 -0.2613  0.1982  0.0187
 1000MOL0     C37882   9.645   2.475   0.576  0.2664 -0.1333 -0.6792
 1000MOL0     C37883   9.775   2.388   0.560 -0.0035 -0.5399  0.6603
 1000MOL0     C37884   9.828   2.392   0.417  0.6716 -0.1880 -0.9787
 1000MOL0     C37885   9.897   2.520   0.390  0.2913  0.7170  0.6488
 1000MOL0     O37886   9.993   2.549   0.494  0.4770  0.1712  0.2992
 1000MOL0     C37887  10.103   2.636   0.466  0.0755  0.7674 -0.0920
 1000MOL0     C37888  10.112   2.708   0.345  0.4755 -0.1090 -0.1954
 1000MOL0     C37889  10.216   2.795   0.315  0.4206 -0.9855 -0.1461
 1000MOL0     C37890  10.229   2.864   0.177  0.4458 -0.7368  1.4169
 1000MOL0     C37891  10.329   2.801   0.410  0.7105 -0.7964  0.3636
 1000MOL0     C37892  10.437   2.899   0.404 -0.1703  0.1833  0.4509
 1000MOL0     O37893  10.541   2.877   0.485 -0.2293  0.0930  0.3635
 1000MOL0     C37894  10.647   2.966   0.496  0.3265 -0.3246  0.4608
 1000MOL0     C37895  10.696   3.033   0.381  0.0013 -0.0784  0.4640
 1000MOL0     C37896  10.812   3.108   0.397  0.4498  0.6298 -1.0718
 1000MOL0     C37897  10.876   3.132   0.519  1.5986 -0.0663  0.0314
 1000MOL0     O37898  10.984   3.206   0.530 -0.2438 -0.3598 -0.4407
 1000MOL0     C37899  11.093   3.165   0.445 -0.1627 -0.2175 -0.2306
 1000MOL0     C37900  11.167   3.040   0.516 -0.0943  0.5700 -0.2041
 1000MOL0     C37901  11.309   3.036   0.449 -0.7747  0.7509  0.1309
 1000MOL0     C37902  11.387   2.904   0.465 -0.2952  0.6818 -0.1227
 1000MOL0     C37903  11.518   2.898   0.378  0.2480  0.6171 -0.3037
 1000MOL0     C37904  11.562   2.750   0.376  0.6416  0.5600  0.4302
 1000MOL0     C37905  11.690   2.743   0.289 -0.2096 -0.3834  0.1964
 1000MOL0     C37906  11.764   2.607   0.279 -0.4787 -0.2967  0.0659
 1000MOL0    Cl37907  11.774   2.546   0.443 -0.3887  0.6505 -0.2124
 1000MOL0     C37908  10.823   3.070   0.628  0.7124 -0.5672 -0.7282
 1000MOL0     C37909  10.714   2.984   0.615  0.5183 -0.8089  0.1054
 1000MOL0     O37910  10.423   3.006   0.343 -0.2945  0.5762  0.1585
 1000MOL0     C37911  10.320   2.720   0.529 -0.3764 -0.0801 -0.1217
 1000MOL0     C37912  10.203   2.647   0.560 -1.0871  0.4746  0.5985
 1000MOL0     N37913   9.586   2.624   0.774  0.6947  0.2932 -0.2822
 1000MOL0     N37914   9.528   2.616   0.892 -1.2793 -0.2026  0.5762
 1000MOL0     C37915   8.377   2.498   0.496 -0.2038 -0.0481 -0.3338
 1000MOL0     C37916   8.256   2.450   0.455  0.3930 -0.6462  0.2684
 1000MOL0     C37917   7.881   2.202   0.369 -0.1271 -0.6777  0.1630
 1000MOL0     C37918   7.815   2.235   0.249  0.4336 -0.7430  0.3911
 1000MOL0     C37919   7.684   2.184   0.213 -0.3209 -0.3972 -0.3407
 1000MOL0     C37920   7.633   2.088   0.295 -0.5182  0.9210 -0.0376
 1000MOL0     O37921   7.518   2.023   0.270 -0.2352  0.5759 -0.1024
 1000MOL0     C37922   7.519   1.948   0.149 -0.6523  0.5509 -0.3151
 1000MOL0     C37923   7.398   1.845   0.138 -0.4390  0.1405  0.1320
 1000MOL0     C37924   7.259   1.913   0.132  1.1808 -0.3014  0.9960
 1000MOL0     C37925   7.198   1.960   0.269 -0.8937  0.8289 -0.7518
 1000MOL0     C37926   7.055   1.979   0.266 -0.5434 -0.2292 -0.7080
 1000MOL0     C37927   6.936   1.995   0.269  0.5385  0.0114 -0.0593
 1000MOL0     C37928   7.696   2.056   0.418  0.2787  0.6340 -0.0857
 1000MOL0     C37929   7.818   2.106   0.456  0.0287  0.0155  0.0080
 1000MOL0     C37930   7.873   2.078   0.598 -0.2879 -0.6100  0.4269
 1000MOL0     H37931   8.140   2.302   0.732  1.8154 -1.7460  0.6910
 1000MOL0     H37932   8.373   2.392   0.820  0.4315  2.8777 -0.1328
 1000MOL0     H37933   8.600   2.384   0.789 -0.2832 -0.3717  1.3705
 1000MOL0     H37934   8.563   2.540   0.873  1.8519 -0.6842  0.6465
 1000MOL0     H37935   8.783   2.500   0.667 -2.1296  0.2596 -1.5170
 1000MOL0     H37936   8.760   2.644   0.763 -0.4112 -0.5755  1.2908
 1000MOL0     H37937   8.802   2.484   0.967 -2.2136  0.5406 -1.8475
 1000MOL0     H37938   8.832   2.356   0.852 -2.1575 -0.0064  0.2076
 1000MOL0     H37939   9.035   2.513   0.755 -0.3202  1.3967 -0.3524
 1000MOL0     H37940   8.998   2.620   0.885  0.2845  0.1032  0.4040
 1000MOL0     H37941   9.064   2.338   0.946  1.0421  1.5572 -0.2224
 1000MOL0     H37942   9.015   2.470   1.066 -2.3628  0.1651 -0.7777
 1000MOL0     H37943   9.250   2.554   0.896  1.4064  2.5511  2.7632
 1000MOL0     H37944   9.206   2.590   1.056 -0.0157  1.4714 -1.0558
 1000MOL0     H37945   9.316   2.308   0.958 -1.1611 -1.5344  2.0286
 1000MOL0     H37946   9.290   2.349   1.127 -0.0647  1.5196 -0.4855
 1000MOL0     H37947   9.435   2.535   1.125  2.5943  1.7871 -1.3015
 1000MOL0     H37948   9.513   2.371   1.101  0.5396  0.1303 -1.2954
 1000MOL0     H37949   9.534   2.304   0.829 -1.3933  0.6197  0.5568
 1000MOL0     H37950   9.655   2.575   0.534  2.3623  1.6200  3.4201
 1000MOL0     H37951   9.567   2.408   0.538  1.1727 -0.7052 -1.5893
 1000MOL0     H37952   9.862   2.416   0.621  1.7961 -0.1278 -1.9123
 1000MOL0     H37953   9.755   2.283   0.585  1.3027 -0.9101  0.2519
 1000MOL0     H37954   9.902   2.311   0.417  0.2416 -0.5877 -0.4088
 1000MOL0     H37955   9.740   2.372   0.354 -0.1025 -0.5728  0.1885
 1000MOL0     H37956   9.948   2.525   0.293 -0.8091  2.2826  0.1104
 1000MOL0     H37957   9.825   2.601   0.379  0.0902  0.4779  0.1740
 1000MOL0     H37958  10.031   2.719   0.273 -0.3783  1.8979  0.9939
 1000MOL0     H37959  10.185   2.964   0.188 -0.7158 -1.0492 -0.0640
 1000MOL0     H37960  10.162   2.813   0.108 -0.2566  1.8116  0.1108
 1000MOL0     H37961  10.332   2.864   0.139  0.5065 -1.4403  1.5646
 1000MOL0     H37962  10.643   3.034   0.286 -0.3264  0.4310  0.6520
 1000MOL0     H37963  10.845   3.175   0.318 -0.1355  3.3964  0.8728
 1000MOL0     H37964  11.066   3.152   0.339  0.2218 -0.9102 -0.2500
 1000MOL0     H37965  11.165   3.248   0.439 -1.5286  1.0166  0.0115
 1000MOL0     H37966  11.185   3.069   0.619  3.0538  2.1097 -1.0714
 1000MOL0     H37967  11.111   2.946   0.509  0.0268  0.4919 -0.1222
 1000MOL0     H37968  11.365   3.116   0.498 -1.8311  1.2799  0.4997
 1000MOL0     H37969  11.312   3.063   0.343  0.9336  0.2174  0.0060
 1000MOL0     H37970  11.325   2.816   0.448  0.8758  0.1982 -2.1825
 1000MOL0     H37971  11.409   2.895   0.572 -1.0508  0.3361  0.0083
 1000MOL0     H37972  11.502   2.935   0.276 -2.5884 -1.8891 -0.9032
 1000MOL0     H37973  11.593   2.955   0.434  0.0225 -0.4862  1.1876
 1000MOL0     H37974  11.491   2.682   0.328  1.9068 -0.0119 -0.7089
 1000MOL0     H37975  11.588   2.711   0.475  1.1277  0.9836  0.4729
 1000MOL0     H37976  11.765   2.813   0.328  2.7043 -1.6456 -2.6537
 1000MOL0     H37977  11.668   2.772   0.186 -0.3611 -2.9014 -0.5546
 1000MOL0     H37978  11.866   2.617   0.240 -0.9352 -2.1915 -1.8285
 1000MOL0     H37979  11.706   2.549   0.207  0.7639  0.5057 -1.6715
 1000MOL0     H37980  10.870   3.078   0.725 -1.6491 -2.7255  0.7186
 1000MOL0     H37981  10.668   2.941   0.704  2.4816 -2.9088  0.1886
 1000MOL0     H37982  10.391   2.746   0.607  0.7642  1.5470 -1.6166
 1000MOL0     H37983  10.194   2.583   0.647 -0.0682 -0.5570 -0.0251
 1000MOL0     H37984   8.431   2.574   0.440 -0.8376  1.6461  1.2354
 1000MOL0     H37985   8.230   2.466   0.350 -2.6213  3.5760  1.3530
 1000MOL0     H37986   7.854   2.300   0.171 -0.0730 -0.5083  0.3317
 1000MOL0     H37987   7.647   2.207   0.113 -0.8941 -2.0293 -0.5311
 1000MOL0     H37988   7.516   2.020   0.067  0.3275  1.4363  0.4135
 1000MOL0     H37989   7.611   1.890   0.139 -1.4603 -0.7772 -0.3620
 1000MOL0     H37990   7.407   1.777   0.223  3.5861  0.4542  0.1813
 1000MOL0     H37991   7.416   1.792   0.044 -0.8728  0.2590 -0.0190
 1000MOL0     H37992   7.245   1.991   0.058  0.4604 -1.8866 -0.6099
 1000MOL0     H37993   7.189   1.833   0.103  1.2890 -0.3301  0.8160
 1000MOL0     H37994   7.256   2.043   0.310  0.7669 -0.8954  0.5750
 1000MOL0     H37995   7.226   1.874   0.331 -0.5108  0.3856 -1.5249
 1000MOL0     H37996   6.829   1.992   0.258  0.4714  0.1438  0.4954
 1000MOL0     H37997   7.651   1.988   0.490  2.0090  1.7308  2.1697
 1000MOL0     H37998   7.979   2.051   0.600  0.2232  0.7032 -2.6663
 1000MOL0     H37999   7.860   2.176   0.646  0.2643 -0.4325  0.2223
 1000MOL0     H38000   7.812   2.005   0.652 -0.1988 -1.2624 -0.3329
 1001MOL0     O38001   5.137   7.428   5.848 -0.5367 -0.0813 -0.0658
 1001MOL0     C38002   5.097   7.349   5.764  0.3633 -0.3904 -0.2644
 1001MOL0     O38003   5.166   7.317   5.651 -0.3590 -0.0273 -0.3004
 1001MOL0     C38004   5.287   7.375   5.634 -0.5439  0.3333 -0.0099
 1001MOL0     C38005   5.403   7.352   5.719  1.3466 -1.0087  0.0741
 1001MOL0     C38006   5.530   7.407   5.677  0.3029 -0.4317 -0.1036
 1001MOL0     C38007   5.542   7.467   5.551  0.7959  0.5500 -0.6398
 1001MOL0     O38008   5.663   7.495   5.492  0.4679  0.0612 -0.4611
 1001MOL0     C38009   5.776   7.518   5.573 -0.3350 -0.1419 -0.4329
 1001MOL0     C38010   5.890   7.584   5.491  0.1237 -0.6645  0.2655
 1001MOL0     C38011   5.875   7.739   5.483  0.0613 -0.3434 -0.4176
 1001MOL0     C38012   6.009   7.793   5.430 -0.4179 -0.2335 -0.6386
 1001MOL0     C38013   5.998   7.941   5.396 -0.0210  0.2873 -0.4462
 1001MOL0     C38014   6.130   8.009   5.358 -0.6248 -0.1192  0.3814
 1001MOL0     C38015   6.249   7.929   5.292  1.0129  0.2560  0.0181
 1001MOL0     C38016   6.376   8.009   5.243  0.1810 -0.3759  0.1561
 1001MOL0     N38017   6.347   8.093   5.125 -0.0311 -0.0580  0.0135
 1001MOL0     C38018   6.440   8.103   5.027 -0.8277 -0.1258  0.8072
 1001MOL0     C38019   6.383   8.183   4.937  0.5685  0.9675 -0.0310
 1001MOL0     C38020   6.446   8.229   4.809 -0.0520  0.7869  0.1046
 1001MOL0     C38021   6.395   8.142   4.691 -0.7213  0.0979  0.0297
 1001MOL0     C38022   6.428   8.208   4.559  0.6493  0.0071 -0.5381
 1001MOL0     C38023   6.576   8.252   4.545  0.6672 -0.2829  0.5176
 1001MOL0     O38024   6.670   8.146   4.535  0.7383  0.0490  0.2030
 1001MOL0     C38025   6.800   8.185   4.524  0.1478 -0.4801 -0.1743
 1001MOL0     C38026   6.880   8.206   4.639 -0.0689 -0.1525  0.8610
 1001MOL0     C38027   7.020   8.225   4.632 -0.9330  0.4417  0.1292
 1001MOL0     C38028   7.099   8.239   4.765 -0.1803 -0.2624 -0.5927
 1001MOL0     C38029   7.081   8.224   4.501 -0.4727 -0.0235 -0.1430
 1001MOL0     C38030   7.223   8.274   4.473  0.3951 -0.0074  0.6331
 1001MOL0     O38031   7.288   8.200   4.375  0.2426 -0.0688  0.2835
 1001MOL0     C38032   7.409   8.252   4.325 -0.1644 -0.1598 -0.7449
 1001MOL0     C38033   7.412   8.317   4.202 -0.3949  0.0039 -0.1315
 1001MOL0     C38034   7.529   8.381   4.158 -0.8491  0.2107  0.3555
 1001MOL0     C38035   7.647   8.385   4.244  0.1192  0.4268  0.0576
 1001MOL0     O38036   7.760   8.441   4.203  0.5132  0.4834 -0.2843
 1001MOL0     C38037   7.878   8.448   4.294 -0.4270  0.3469 -1.1810
 1001MOL0     C38038   7.973   8.535   4.218  0.2329 -0.1638 -0.1723
 1001MOL0     C38039   8.104   8.530   4.289 -0.5048 -0.1731  0.1496
 1001MOL0     C38040   8.220   8.619   4.227  0.2752 -0.2396 -0.4655
 1001MOL0     C38041   8.350   8.558   4.276  0.2608  0.7478  0.4534
 1001MOL0     C38042   8.462   8.660   4.259 -0.3717 -0.8844 -0.0091
 1001MOL0     C38043   8.569   8.657   4.378  0.4537 -0.1296  0.3406
 1001MOL0     C38044   8.665   8.548   4.359 -1.0428 -0.3114 -0.0185
 1001MOL0    Cl38045   8.798   8.575   4.476  0.5164  0.2352 -0.5076
 1001MOL0     C38046   7.637   8.320   4.367 -0.6212 -0.0619 -0.1373
 1001MOL0     C38047   7.519   8.265   4.410  0.0125 -0.2880  0.5188
 1001MOL0     O38048   7.271   8.365   4.540  0.5584 -0.0776  0.7304
 1001MOL0     C38049   6.999   8.183   4.392  0.0443 -0.2139 -0.4530
 1001MOL0     C38050   6.868   8.157   4.399  0.8682  0.1295 -0.4217
 1001MOL0     N38051   6.261   8.233   4.989 -0.5736 -0.1386 -0.0862
 1001MOL0     N38052   6.241   8.178   5.102 -0.3111  0.0311  0.0629
 1001MOL0     C38053   5.435   7.479   5.468  0.6699  0.0090  0.8141
 1001MOL0     C38054   5.313   7.433   5.512  0.5098 -0.1643 -0.1817
 1001MOL0     C38055   4.975   7.282   5.798 -0.1694  0.5884  0.8584
 1001MOL0     C38056   4.906   7.327   5.909  0.2697  1.0907 -0.1634
 1001MOL0     C38057   4.796   7.253   5.957  0.1336  0.4294 -0.5009
 1001MOL0     C38058   4.755   7.133   5.900 -0.8345  0.4408 -0.3801
 1001MOL0     O38059   4.652   7.049   5.934 -0.5194  0.4039 -0.7025
 1001MOL0     C38060   4.576   7.080   6.056 -0.7450 -0.2413  0.2958
 1001MOL0     C38061   4.431   7.017   6.036 -0.3589 -0.6781 -0.4290
 1001MOL0     C38062   4.352   7.101   5.934  1.4955  1.4299 -0.7075
 1001MOL0     C38063   4.202   7.057   5.936  0.3276 -0.5498  0.5078
 1001MOL0     C38064   4.145   7.099   6.065  0.0399 -0.1524 -0.6158
 1001MOL0     C38065   4.083   7.150   6.156 -0.3569 -0.3216  0.2234
 1001MOL0     C38066   4.838   7.085   5.805 -0.1250  0.2120 -0.8100
 1001MOL0     C38067   4.938   7.158   5.742  0.5276 -1.3910  0.2386
 1001MOL0     C38068   5.030   7.081   5.652 -0.2931 -0.6746  0.2802
 1001MOL0     H38069   5.379   7.296   5.809 -0.4795 -1.8372 -0.8746
 1001MOL0     H38070   5.612   7.378   5.742 -0.2131 -3.9482 -0.8050
 1001MOL0     H38071   5.808   7.419   5.607 -0.6790 -0.3143 -0.6136
 1001MOL0     H38072   5.742   7.589   5.648 -1.5589 -1.7817  0.6298
 1001MOL0     H38073   5.986   7.564   5.538 -0.4535 -1.2409  1.2377
 1001MOL0     H38074   5.884   7.536   5.392  0.7976  1.9118 -1.1094
 1001MOL0     H38075   5.790   7.767   5.419  0.3247  1.0561 -0.1914
 1001MOL0     H38076   5.854   7.782   5.581 -3.4664  2.0737 -2.0067
 1001MOL0     H38077   6.086   7.778   5.506 -1.7353 -1.2487  0.5338
 1001MOL0     H38078   6.044   7.740   5.341  1.1576  1.6731 -1.2452
 1001MOL0     H38079   5.964   7.992   5.487  0.1918  0.2720 -0.3564
 1001MOL0     H38080   5.927   7.946   5.313  0.7157  2.1184 -1.0215
 1001MOL0     H38081   6.101   8.086   5.286  0.0213 -1.0168 -0.8745
 1001MOL0     H38082   6.164   8.044   5.456  0.6453 -2.0433  0.6724
 1001MOL0     H38083   6.201   7.881   5.206  0.3996 -1.1047  1.0788
 1001MOL0     H38084   6.281   7.851   5.361 -1.2018  0.7736  1.7378
 1001MOL0     H38085   6.407   8.069   5.330 -0.9081 -3.0339  2.5407
 1001MOL0     H38086   6.460   7.942   5.223  3.0411  2.6671  1.0109
 1001MOL0     H38087   6.539   8.059   5.025  0.4526  2.5288 -1.9651
 1001MOL0     H38088   6.555   8.220   4.801 -0.3827 -4.1468 -2.2984
 1001MOL0     H38089   6.415   8.332   4.791 -1.7752  0.3981  0.7143
 1001MOL0     H38090   6.450   8.048   4.697 -0.5911  0.1690 -0.0482
 1001MOL0     H38091   6.288   8.116   4.688 -0.6687 -0.0021 -1.6091
 1001MOL0     H38092   6.410   8.134   4.481 -1.3470 -1.2625  1.0382
 1001MOL0     H38093   6.361   8.292   4.538  0.7459 -0.1030 -1.3070
 1001MOL0     H38094   6.589   8.308   4.452  0.9665  1.7446  1.7185
 1001MOL0     H38095   6.603   8.324   4.624  0.0285  0.2536  0.2565
 1001MOL0     H38096   6.831   8.202   4.736  0.3139 -2.0408  1.0179
 1001MOL0     H38097   7.200   8.197   4.763 -0.5006 -1.0314 -1.8195
 1001MOL0     H38098   7.043   8.191   4.846  1.0064 -1.9528 -0.7276
 1001MOL0     H38099   7.125   8.343   4.790 -1.0871 -0.7814  2.9895
 1001MOL0     H38100   7.323   8.313   4.141 -0.7126 -1.8078  0.4205
 1001MOL0     H38101   7.542   8.425   4.060  1.8957 -0.1584  0.4796
 1001MOL0     H38102   7.864   8.490   4.394  2.4689  0.2206 -0.6638
 1001MOL0     H38103   7.911   8.344   4.302 -1.8131 -0.0911 -0.8643
 1001MOL0     H38104   7.980   8.500   4.115  0.6077  1.6795 -0.8112
 1001MOL0     H38105   7.933   8.637   4.217  2.5362  0.9004  2.7440
 1001MOL0     H38106   8.141   8.427   4.293  1.4157  0.4871  0.3434
 1001MOL0     H38107   8.089   8.544   4.397 -0.7969 -1.0458  0.2245
 1001MOL0     H38108   8.220   8.724   4.255  0.1628 -0.4866  0.5139
 1001MOL0     H38109   8.219   8.609   4.118  2.4119 -2.5183 -0.3757
 1001MOL0     H38110   8.338   8.556   4.385 -0.6638  0.3508  0.3521
 1001MOL0     H38111   8.369   8.457   4.237  1.9040  0.3042  2.2203
 1001MOL0     H38112   8.425   8.763   4.259  0.2120 -0.5687 -3.1042
 1001MOL0     H38113   8.516   8.654   4.164  0.1184  0.9412  0.1202
 1001MOL0     H38114   8.516   8.651   4.473  0.8838 -0.3086  0.5758
 1001MOL0     H38115   8.624   8.752   4.376  3.7685 -1.8953 -1.6967
 1001MOL0     H38116   8.704   8.545   4.257 -0.8031  0.2180  0.0534
 1001MOL0     H38117   8.619   8.451   4.377 -1.0773 -0.6416 -1.7232
 1001MOL0     H38118   7.722   8.300   4.432 -1.8206 -0.1520  1.4556
 1001MOL0     H38119   7.519   8.212   4.505 -0.4466  0.8522  1.1864
 1001MOL0     H38120   7.034   8.203   4.292 -1.3259  1.6821 -0.6014
 1001MOL0     H38121   6.812   8.120   4.314  0.0085  1.2108 -0.3429
 1001MOL0     H38122   5.430   7.523   5.369 -2.1765 -0.1367  0.8059
 1001MOL0     H38123   5.222   7.446   5.454  0.1279 -1.4152  0.1209
 1001MOL0     H38124   4.932   7.420   5.958  1.1437  0.5906  0.3256
 1001MOL0     H38125   4.743   7.296   6.041  2.2013  0.3958  0.9189
 1001MOL0     H38126   4.625   7.036   6.143  0.0467  2.1425  1.1276
 1001MOL0     H38127   4.574   7.185   6.086  0.9601 -0.2495  0.5249
 1001MOL0     H38128   4.377   7.014   6.131 -0.2624 -0.5533 -0.3707
 1001MOL0     H38129   4.443   6.913   6.003  1.7093  0.0058 -2.0777
 1001MOL0     H38130   4.367   7.205   5.961 -0.7481  0.9677  2.9701
 1001MOL0     H38131   4.394   7.084   5.834  1.3169  2.4542 -0.9610
 1001MOL0     H38132   4.195   6.949   5.925  1.6316 -0.6298  0.2500
 1001MOL0     H38133   4.153   7.116   5.858  1.0477  1.1939  1.3000
 1001MOL0     H38134   4.023   7.210   6.223  0.0608  1.4776 -0.9382
 1001MOL0     H38135   4.822   6.986   5.762  2.2569  0.5801 -2.7424
 1001MOL0     H38136   5.048   7.149   5.569  1.1998  0.7309  1.6665
 1001MOL0     H38137   5.124   7.056   5.704 -0.9874 -0.0477  1.9296
 1001MOL0     H38138   4.979   6.991   5.619 -0.8591  0.0055 -0.7446
 1002MOL0     O38139   0.867  10.921   9.597 -0.2587  0.3497  0.0538
 1002MOL0     C38140   0.887  10.894   9.476 -0.5972 -0.8344  0.0714
 1002MOL0     O38141   1.011  10.854   9.423 -0.3725 -0.6566  0.8325
 1002MOL0     C38142   1.131  10.824   9.491 -0.1798 -0.5967  0.0107
 1002MOL0     C38143   1.240  10.784   9.412  0.7974 -0.7135 -0.1372
 1002MOL0     C38144   1.353  10.728   9.470  0.0013 -0.4668 -0.3228
 1002MOL0     C38145   1.374  10.719   9.606 -0.0998  0.0264  0.3686
 1002MOL0     O38146   1.481  10.675   9.673 -0.2143 -0.2022 -0.0855
 1002MOL0     C38147   1.592  10.612   9.603  0.4787 -0.6092  0.1075
 1002MOL0     C38148   1.719  10.644   9.681 -0.5440 -0.0602 -0.0737
 1002MOL0     C38149   1.774  10.778   9.651  0.6216 -0.7016  1.0137
 1002MOL0     C38150   1.866  10.826   9.764 -0.2660 -0.2583 -0.9900
 1002MOL0     C38151   1.981  10.732   9.804 -0.7036  0.3825 -1.1271
 1002MOL0     C38152   2.066  10.690   9.675  0.2286 -0.0651 -0.0882
 1002MOL0     C38153   2.213  10.689   9.719  0.0026  0.2356  0.3007
 1002MOL0     C38154   2.310  10.655   9.601  0.3537  0.4935 -0.8891
 1002MOL0     N38155   2.452  10.629   9.644 -0.3566  0.2921 -0.7341
 1002MOL0     C38156   2.546  10.697   9.576 -1.4077 -0.7750  0.0708
 1002MOL0     C38157   2.665  10.648   9.612  0.0354 -0.1024 -0.5376
 1002MOL0     C38158   2.790  10.699   9.554 -0.1893  0.3074 -0.0927
 1002MOL0     C38159   2.824  10.645   9.422  0.0252 -0.1241  0.0666
 1002MOL0     C38160   2.959  10.701   9.382  0.3446  0.0382 -0.3445
 1002MOL0     C38161   2.979  10.680   9.233 -0.8122  0.1221  0.3337
 1002MOL0     O38162   2.957  10.544   9.207  0.4133 -0.4400  0.0383
 1002MOL0     C38163   3.039  10.441   9.253  0.6269 -0.2416  0.4517
 1002MOL0     C38164   3.168  10.444   9.304  0.5263 -0.1072  0.3000
 1002MOL0     C38165   3.248  10.337   9.333 -0.2515  0.4259  0.1265
 1002MOL0     C38166   3.398  10.365   9.358  0.4195  0.6561 -0.7052
 1002MOL0     C38167   3.173  10.213   9.350 -0.1057 -0.0604  0.1975
 1002MOL0     C38168   3.246  10.084   9.384  0.6056 -0.0519  0.1082
 1002MOL0     O38169   3.166   9.976   9.396 -0.0384  0.2427  0.2877
 1002MOL0     C38170   3.222   9.853   9.427  0.0387 -0.5537 -0.9061
 1002MOL0     C38171   3.160   9.780   9.531 -0.2813 -1.0812  0.7906
 1002MOL0     C38172   3.205   9.648   9.554  0.3948 -0.0015 -0.0845
 1002MOL0     C38173   3.299   9.596   9.473 -0.4093  1.0339  0.6182
 1002MOL0     O38174   3.335   9.468   9.502  0.0522 -0.5570 -0.0082
 1002MOL0     C38175   3.415   9.399   9.419 -0.6534  0.7400  0.0109
 1002MOL0     C38176   3.425   9.258   9.468  1.1707  0.0155  0.4949
 1002MOL0     C38177   3.511   9.168   9.384  0.5082 -0.3239  0.9214
 1002MOL0     C38178   3.504   9.023   9.443 -0.4091 -0.0640 -0.0142
 1002MOL0     C38179   3.557   8.922   9.349  0.2780  0.3421  0.3356
 1002MOL0     C38180   3.557   8.778   9.406 -0.2798  0.0476  0.3545
 1002MOL0     C38181   3.614   8.682   9.299 -0.1589 -0.4612 -0.5774
 1002MOL0     C38182   3.588   8.543   9.318 -0.4188  0.3139 -0.0960
 1002MOL0    Cl38183   3.442   8.491   9.229  0.1481 -0.1264 -0.2502
 1002MOL0     C38184   3.353   9.668   9.363 -0.5321 -0.3282 -0.0572
 1002MOL0     C38185   3.317   9.800   9.350  0.1249  0.0642 -0.5102
 1002MOL0     O38186   3.366  10.086   9.411 -0.6071 -0.1448  0.1093
 1002MOL0     C38187   3.041  10.204   9.311 -0.0095 -0.6021 -0.2747
 1002MOL0     C38188   2.982  10.319   9.250 -0.9212  1.1090 -0.3131
 1002MOL0     N38189   2.635  10.528   9.674  0.7360 -0.1383  0.2327
 1002MOL0     N38190   2.502  10.518   9.690  0.0436  0.5622 -0.1676
 1002MOL0     C38191   1.270  10.765   9.687 -0.5446 -0.1263 -0.0912
 1002MOL0     C38192   1.155  10.817   9.628 -0.0887  0.6628  0.8752
 1002MOL0     C38193   0.770  10.918   9.383 -0.1112 -0.0794 -0.1407
 1002MOL0     C38194   0.794  10.927   9.242  0.0211 -0.6907 -0.0721
 1002MOL0     C38195   0.696  10.956   9.149 -0.9769 -0.1840  0.5491
 1002MOL0     C38196   0.569  10.984   9.189  0.0141 -0.0817  0.1368
 1002MOL0     O38197   0.464  11.008   9.105  0.2513  0.3931 -0.1493
 1002MOL0     C38198   0.475  11.065   8.976  0.8018  0.2973  0.2165
 1002MOL0     C38199   0.463  10.950   8.880 -0.3133 -0.1840 -0.0757
 1002MOL0     C38200   0.333  10.872   8.877 -0.0803 -0.4159 -0.3813
 1002MOL0     C38201   0.336  10.764   8.770  0.2845  0.0719  0.6770
 1002MOL0     C38202   0.417  10.652   8.819 -0.3465 -0.3462  0.7831
 1002MOL0     C38203   0.487  10.565   8.877 -0.1236  0.7711 -0.1589
 1002MOL0     C38204   0.547  10.968   9.322  1.3489 -0.7860  0.1424
 1002MOL0     C38205   0.635  10.925   9.417 -0.2223 -0.8846 -0.1410
 1002MOL0     C38206   0.586  10.893   9.552 -0.4038  0.2510 -0.1441
 1002MOL0     H38207   1.220  10.774   9.306 -0.0478  0.6483 -0.1341
 1002MOL0     H38208   1.424  10.681   9.402 -0.4173 -0.5707 -0.6928
 1002MOL0     H38209   1.601  10.640   9.498  0.4312  1.0857  0.5397
 1002MOL0     H38210   1.591  10.502   9.601  1.2331 -0.6289 -2.0609
 1002MOL0     H38211   1.705  10.635   9.789  0.9735  0.4085  0.1839
 1002MOL0     H38212   1.791  10.569   9.646 -0.6005 -0.1861  0.0821
 1002MOL0     H38213   1.815  10.787   9.550 -2.8912  3.2751 -0.3972
 1002MOL0     H38214   1.696  10.855   9.658  2.1500  1.2723 -1.8011
 1002MOL0     H38215   1.911  10.915   9.718  0.7705 -0.3552 -0.1975
 1002MOL0     H38216   1.819  10.867   9.853  3.3099  1.1505  0.4521
 1002MOL0     H38217   1.924  10.649   9.847 -1.8158  2.0077  0.6759
 1002MOL0     H38218   2.042  10.777   9.883 -1.1329 -1.3949  0.2757
 1002MOL0     H38219   2.019  10.603   9.628 -1.5139  1.5991 -1.6521
 1002MOL0     H38220   2.059  10.771   9.601 -1.4567 -1.6590 -1.8082
 1002MOL0     H38221   2.229  10.619   9.801 -1.8320 -0.3090  0.2475
 1002MOL0     H38222   2.236  10.787   9.761 -1.9197  0.2635  1.4222
 1002MOL0     H38223   2.271  10.567   9.549 -2.7834 -1.2206  3.7338
 1002MOL0     H38224   2.313  10.742   9.535  1.3764  0.0747 -1.4230
 1002MOL0     H38225   2.528  10.788   9.519  2.6229  0.8596  1.0491
 1002MOL0     H38226   2.863  10.681   9.633 -2.4516  0.6623  2.1996
 1002MOL0     H38227   2.790  10.808   9.545  2.7486  0.2278 -2.3891
 1002MOL0     H38228   2.832  10.537   9.433  1.0328  0.0605  1.4420
 1002MOL0     H38229   2.755  10.686   9.348 -0.8110 -1.3236  0.1668
 1002MOL0     H38230   2.970  10.807   9.409 -2.2163  0.1468  0.5950
 1002MOL0     H38231   3.037  10.653   9.441  2.0673  3.3197  0.3063
 1002MOL0     H38232   2.905  10.737   9.177 -0.5979  1.7967  1.6865
 1002MOL0     H38233   3.082  10.709   9.210 -1.1521  3.0302  2.0176
 1002MOL0     H38234   3.222  10.538   9.312  4.0959 -1.8967 -0.4891
 1002MOL0     H38235   3.464  10.325   9.281  1.3380 -0.7802  0.7723
 1002MOL0     H38236   3.431  10.325   9.454  0.6878  0.9486 -0.6749
 1002MOL0     H38237   3.417  10.472   9.371 -0.5651  0.5833  1.7859
 1002MOL0     H38238   3.077   9.825   9.584 -1.0455 -0.1919 -1.0601
 1002MOL0     H38239   3.154   9.587   9.628 -1.7107 -0.7185 -2.0242
 1002MOL0     H38240   3.371   9.405   9.319 -0.8702 -0.5424  0.0199
 1002MOL0     H38241   3.515   9.443   9.421  0.0710 -0.6905  3.3880
 1002MOL0     H38242   3.463   9.257   9.570 -2.0368 -1.9611  1.8273
 1002MOL0     H38243   3.323   9.218   9.473  1.1629 -0.3405 -1.5737
 1002MOL0     H38244   3.618   9.192   9.391  0.3738 -0.0125  2.0747
 1002MOL0     H38245   3.485   9.168   9.278 -1.0264 -2.0978  1.2441
 1002MOL0     H38246   3.401   8.994   9.465  0.5941 -2.0627  2.5561
 1002MOL0     H38247   3.544   9.026   9.545 -1.2069  5.1993  0.3960
 1002MOL0     H38248   3.493   8.922   9.260  0.6745  1.2322  0.0380
 1002MOL0     H38249   3.654   8.947   9.306 -0.3533 -0.2361 -1.5370
 1002MOL0     H38250   3.452   8.756   9.428 -0.1464 -1.7586 -0.7227
 1002MOL0     H38251   3.606   8.765   9.503  0.9650  0.6193 -0.1798
 1002MOL0     H38252   3.721   8.692   9.320 -0.3085 -1.4809  0.8463
 1002MOL0     H38253   3.584   8.708   9.197  1.0814  0.5377 -0.7067
 1002MOL0     H38254   3.575   8.520   9.424  1.9956 -0.4546  0.0876
 1002MOL0     H38255   3.668   8.480   9.277 -0.6062  0.2294 -0.3306
 1002MOL0     H38256   3.436   9.634   9.302  1.2402  1.3119  1.3020
 1002MOL0     H38257   3.365   9.853   9.268 -2.4007  1.7501 -1.0141
 1002MOL0     H38258   2.985  10.111   9.314 -2.5995  0.8604 -0.4086
 1002MOL0     H38259   2.881  10.310   9.213  0.2165 -0.8661 -3.3725
 1002MOL0     H38260   1.284  10.760   9.794 -0.5131 -0.9600 -0.1275
 1002MOL0     H38261   1.078  10.845   9.699  2.1692  3.5184  2.4286
 1002MOL0     H38262   0.895  10.928   9.203  0.7042  1.6552  1.5398
 1002MOL0     H38263   0.731  10.971   9.047 -1.9502  0.0164  0.2332
 1002MOL0     H38264   0.406  11.150   8.965  0.1182 -0.1641  0.9063
 1002MOL0     H38265   0.572  11.115   8.966  1.3338 -0.9916 -1.8129
 1002MOL0     H38266   0.543  10.878   8.901  0.1893 -0.6472 -3.1252
 1002MOL0     H38267   0.476  10.984   8.777  2.3368 -0.6413  0.0412
 1002MOL0     H38268   0.320  10.827   8.975 -2.6566  1.5758  0.2758
 1002MOL0     H38269   0.243  10.931   8.859 -0.1025 -0.5355 -0.6775
 1002MOL0     H38270   0.369  10.807   8.675 -2.3247  2.1922  0.6037
 1002MOL0     H38271   0.238  10.729   8.735 -0.0742  1.8684 -0.2164
 1002MOL0     H38272   0.530  10.479   8.923 -3.1649 -0.2548  1.0372
 1002MOL0     H38273   0.446  10.981   9.360  1.7918  0.5646  0.9439
 1002MOL0     H38274   0.616  10.971   9.621 -3.7238  1.2230  0.3722
 1002MOL0     H38275   0.477  10.890   9.562 -0.2348 -2.9349  2.2741
 1002MOL0     H38276   0.618  10.794   9.586  0.2043  0.3362 -0.4567
 1003MOL0     O38277   4.706   2.426   0.962 -0.5225 -0.5749  0.1586
 1003MOL0     C38278   4.712   2.317   1.017 -0.2948 -0.3677  0.4324
 1003MOL0     O38279   4.824   2.239   1.025 -1.4935 -0.8459  0.0023
 1003MOL0     C38280   4.947   2.304   1.005  0.1371  0.2448 -0.4113
 1003MOL0     C38281   4.994   2.411   1.092 -0.1079  0.6644 -0.1339
 1003MOL0     C38282   5.115   2.463   1.050 -0.2506  0.5917  0.1866
 1003MOL0     C38283   5.195   2.416   0.941  0.2320  0.6273 -0.5364
 1003MOL0     O38284   5.307   2.480   0.902  0.4406 -0.7866  0.6643
 1003MOL0     C38285   5.431   2.413   0.930 -0.1817 -0.9256  0.7423
 1003MOL0     C38286   5.517   2.427   0.796 -0.1113  0.5295 -0.3438
 1003MOL0     C38287   5.577   2.568   0.791 -0.5590  0.2067 -0.4467
 1003MOL0     C38288   5.706   2.560   0.708  0.5513  0.5910  0.1716
 1003MOL0     C38289   5.770   2.697   0.730  1.0969 -0.3694  0.3278
 1003MOL0     C38290   5.896   2.708   0.645  0.4997 -0.1341 -0.7513
 1003MOL0     C38291   5.971   2.836   0.692 -0.0525  0.7830  0.7977
 1003MOL0     C38292   6.120   2.826   0.661 -0.3391  0.6871  0.5639
 1003MOL0     N38293   6.203   2.949   0.690 -0.0758  0.8974 -1.2478
 1003MOL0     C38294   6.198   3.056   0.606 -0.4489  0.9936 -0.4714
 1003MOL0     C38295   6.267   3.149   0.675  0.1195 -0.1642 -0.2409
 1003MOL0     C38296   6.276   3.292   0.658  0.0585  0.0167  0.4790
 1003MOL0     C38297   6.403   3.327   0.575  0.2080  0.3142  0.4716
 1003MOL0     C38298   6.404   3.477   0.544 -0.8646  0.0580  0.2619
 1003MOL0     C38299   6.543   3.527   0.492 -1.0671 -0.2610 -0.5656
 1003MOL0     O38300   6.568   3.449   0.372  0.2623 -0.4005  0.1908
 1003MOL0     C38301   6.704   3.448   0.339 -0.0740 -0.1817 -0.4229
 1003MOL0     C38302   6.764   3.326   0.304 -0.2104 -0.0800 -0.6356
 1003MOL0     C38303   6.902   3.325   0.259  0.1448 -0.5492  0.3031
 1003MOL0     C38304   6.947   3.200   0.187 -0.5550  0.1885  0.1388
 1003MOL0     C38305   6.974   3.444   0.255 -0.4180 -0.5413 -0.5998
 1003MOL0     C38306   7.117   3.456   0.236 -0.6205 -0.1516  0.0262
 1003MOL0     O38307   7.170   3.583   0.251  0.2985  0.6297  0.0020
 1003MOL0     C38308   7.307   3.594   0.249  0.0196  0.2078  0.9392
 1003MOL0     C38309   7.365   3.626   0.130 -0.7040 -0.1975  0.5774
 1003MOL0     C38310   7.509   3.644   0.121  0.4326  0.6838  0.5938
 1003MOL0     C38311   7.588   3.628   0.240  0.0783 -0.8081 -0.5843
 1003MOL0     O38312   7.722   3.650   0.241 -0.6210  0.2119  0.4896
 1003MOL0     C38313   7.798   3.567   0.150 -0.3897  0.3911 -0.2824
 1003MOL0     C38314   7.947   3.618   0.109 -0.8031 -0.1842 -0.7487
 1003MOL0     C38315   8.018   3.657   0.241  0.2313  0.7912  0.4532
 1003MOL0     C38316   8.160   3.694   0.215  0.2324  0.2870 -0.2739
 1003MOL0     C38317   8.231   3.706   0.349  0.6317  0.0355  0.3944
 1003MOL0     C38318   8.375   3.758   0.326  0.3302 -0.3343 -0.3339
 1003MOL0     C38319   8.467   3.639   0.311  0.0558  0.2006  0.3118
 1003MOL0     C38320   8.615   3.673   0.279  0.3601 -0.9109  0.7923
 1003MOL0    Cl38321   8.615   3.750   0.124 -0.0191 -0.1355 -0.0967
 1003MOL0     C38322   7.523   3.610   0.356  0.5272  0.3674 -0.4433
 1003MOL0     C38323   7.384   3.589   0.367 -0.1207 -0.0311 -0.7168
 1003MOL0     O38324   7.180   3.350   0.228 -0.2675 -0.4396  0.0291
 1003MOL0     C38325   6.910   3.562   0.281 -0.2149  1.1819 -0.0272
 1003MOL0     C38326   6.775   3.563   0.319 -0.4366 -0.3825  0.6211
 1003MOL0     N38327   6.301   3.100   0.802 -0.2543 -0.6629 -0.0940
 1003MOL0     N38328   6.262   2.978   0.811 -0.2018  0.4237  0.5176
 1003MOL0     C38329   5.158   2.299   0.874  0.0318 -0.9562  0.0144
 1003MOL0     C38330   5.032   2.243   0.908  0.2502 -0.8630  0.0101
 1003MOL0     C38331   4.587   2.264   1.066  0.2963  0.2540 -0.9663
 1003MOL0     C38332   4.470   2.353   1.091 -0.0225 -0.1472  0.7584
 1003MOL0     C38333   4.340   2.317   1.127 -0.0499 -0.1486 -0.2320
 1003MOL0     C38334   4.326   2.181   1.148 -0.4289  0.0565  0.3780
 1003MOL0     O38335   4.199   2.144   1.182  0.0924  0.5639  0.0679
 1003MOL0     C38336   4.158   2.014   1.200 -0.7205 -0.2253  0.2856
 1003MOL0     C38337   4.016   2.009   1.248 -0.5811 -0.6007  0.2771
 1003MOL0     C38338   3.970   2.131   1.337 -0.5800  0.2734 -0.4639
 1003MOL0     C38339   4.042   2.120   1.476  0.9652 -1.0324 -0.2897
 1003MOL0     C38340   4.023   2.250   1.547 -0.0193 -0.5500  0.4295
 1003MOL0     C38341   4.011   2.357   1.605  0.6332  0.5139 -0.2139
 1003MOL0     C38342   4.437   2.096   1.141 -0.3865  0.5463  0.1175
 1003MOL0     C38343   4.569   2.132   1.105  0.7634  0.5226  0.5954
 1003MOL0     C38344   4.674   2.028   1.102 -0.7197 -0.8323 -0.0674
 1003MOL0     H38345   4.937   2.442   1.179 -1.9315 -0.9615 -0.6551
 1003MOL0     H38346   5.160   2.545   1.105  1.0434  0.6158 -0.8530
 1003MOL0     H38347   5.425   2.307   0.955  0.4331 -1.1573 -0.0403
 1003MOL0     H38348   5.485   2.456   1.015  0.9597  1.0162 -0.8608
 1003MOL0     H38349   5.599   2.355   0.802  0.6807  1.3204 -1.3040
 1003MOL0     H38350   5.454   2.395   0.713  0.6360 -3.3191  0.3696
 1003MOL0     H38351   5.511   2.646   0.752 -0.5821  0.5688  0.2921
 1003MOL0     H38352   5.598   2.597   0.894  0.1220  0.0944 -0.5484
 1003MOL0     H38353   5.764   2.475   0.746  0.4167  0.6949  0.6213
 1003MOL0     H38354   5.687   2.542   0.602 -0.4720 -0.1744  0.4735
 1003MOL0     H38355   5.802   2.718   0.832  0.1382 -1.8487  0.9550
 1003MOL0     H38356   5.699   2.775   0.702  2.6337  0.6428 -0.9217
 1003MOL0     H38357   5.970   2.628   0.657  2.0356  0.9824 -2.3621
 1003MOL0     H38358   5.879   2.724   0.538  2.4963  0.7124 -0.9806
 1003MOL0     H38359   5.966   2.854   0.800  1.9307 -1.3453  1.3070
 1003MOL0     H38360   5.926   2.922   0.640 -2.8292 -2.4644 -2.7555
 1003MOL0     H38361   6.159   2.741   0.717 -1.8328  0.4814  1.3578
 1003MOL0     H38362   6.137   2.809   0.554 -1.5837  0.9721  0.3085
 1003MOL0     H38363   6.130   3.080   0.525 -1.5699 -1.2104 -0.2688
 1003MOL0     H38364   6.275   3.336   0.759 -1.7754 -0.8333  0.8664
 1003MOL0     H38365   6.186   3.334   0.612  0.4925  1.4247  0.8354
 1003MOL0     H38366   6.486   3.296   0.639 -0.8945 -1.1936  1.2514
 1003MOL0     H38367   6.411   3.265   0.485 -0.8572 -1.6710  1.6636
 1003MOL0     H38368   6.333   3.506   0.465  2.2577  0.4185 -2.6643
 1003MOL0     H38369   6.379   3.530   0.636 -3.0099  1.2477 -0.9155
 1003MOL0     H38370   6.534   3.635   0.480 -4.4163 -0.3814 -0.0874
 1003MOL0     H38371   6.617   3.509   0.571 -0.2028 -2.1192 -1.7279
 1003MOL0     H38372   6.695   3.243   0.316  1.0981 -1.1034  0.0406
 1003MOL0     H38373   6.856   3.140   0.176 -3.0670  3.7699 -0.7653
 1003MOL0     H38374   7.029   3.148   0.238 -1.5819 -0.6074  1.0302
 1003MOL0     H38375   6.978   3.241   0.091 -2.1599  2.7002  0.5815
 1003MOL0     H38376   7.304   3.641   0.041  0.5650 -2.4664 -0.7726
 1003MOL0     H38377   7.568   3.670   0.034  0.0677  1.9237  0.7045
 1003MOL0     H38378   7.819   3.474   0.203  2.8890 -0.1689 -2.2859
 1003MOL0     H38379   7.751   3.537   0.056  1.1460 -2.8118 -0.1291
 1003MOL0     H38380   7.999   3.530   0.070 -1.3800 -0.4078 -1.0229
 1003MOL0     H38381   7.938   3.699   0.036  1.4742  0.9674  0.1283
 1003MOL0     H38382   8.015   3.569   0.306 -3.7627 -0.7448 -1.5056
 1003MOL0     H38383   7.967   3.738   0.294  0.5331  0.4803  1.2296
 1003MOL0     H38384   8.174   3.783   0.153  1.9944 -0.3678 -0.8855
 1003MOL0     H38385   8.205   3.610   0.161  2.0714  0.2793  1.1542
 1003MOL0     H38386   8.186   3.775   0.421  1.9648 -2.3116  3.7212
 1003MOL0     H38387   8.243   3.608   0.397  0.3417  0.8887  2.2930
 1003MOL0     H38388   8.398   3.833   0.402 -0.5324  1.1710 -1.5150
 1003MOL0     H38389   8.370   3.810   0.230  0.6828 -0.1685 -0.2612
 1003MOL0     H38390   8.434   3.576   0.228  0.5455 -1.7744  1.5468
 1003MOL0     H38391   8.455   3.576   0.400 -0.6756 -0.6554 -0.3678
 1003MOL0     H38392   8.668   3.578   0.287  1.1157 -0.6167 -0.3929
 1003MOL0     H38393   8.664   3.733   0.356 -1.6832 -0.6518  1.9833
 1003MOL0     H38394   7.574   3.606   0.451 -1.6570  0.6489  0.8137
 1003MOL0     H38395   7.342   3.571   0.465 -0.1324  1.1213 -0.5008
 1003MOL0     H38396   6.961   3.658   0.279 -2.7516  2.6406  1.0477
 1003MOL0     H38397   6.724   3.656   0.343  1.5084  1.0682 -0.5555
 1003MOL0     H38398   5.215   2.255   0.793 -0.5796  0.8772 -1.4757
 1003MOL0     H38399   4.993   2.163   0.846  0.6189 -0.5595 -0.6210
 1003MOL0     H38400   4.486   2.458   1.068  0.6224 -0.2938  0.5052
 1003MOL0     H38401   4.264   2.393   1.140 -0.2992 -0.7966  2.7789
 1003MOL0     H38402   4.170   1.957   1.108  3.0042 -2.1352  1.7305
 1003MOL0     H38403   4.217   1.961   1.276  0.3147  1.1450  0.4697
 1003MOL0     H38404   3.991   1.924   1.313 -1.9298 -0.3273  0.1475
 1003MOL0     H38405   3.958   2.014   1.155 -0.7918 -0.2539  0.4270
 1003MOL0     H38406   3.982   2.222   1.276  0.0939 -0.2315 -1.1109
 1003MOL0     H38407   3.861   2.130   1.344 -0.5226  0.6756  0.6596
 1003MOL0     H38408   4.148   2.099   1.460  1.6115  1.5580  0.1371
 1003MOL0     H38409   4.003   2.036   1.533  2.2117 -1.5514 -0.1612
 1003MOL0     H38410   4.004   2.451   1.655  1.2747  1.7440 -2.3163
 1003MOL0     H38411   4.425   1.994   1.177 -0.1049  1.4962  3.1782
 1003MOL0     H38412   4.630   1.930   1.123 -1.2185 -0.5852  0.0528
 1003MOL0     H38413   4.713   2.028   1.000 -1.4646  3.8431 -0.5769
 1003MOL0     H38414   4.752   2.035   1.178  1.5024 -0.3294 -2.2668
 1004MOL0     O38415   0.232   2.189   8.312 -0.2392  0.5874  0.4481
 1004MOL0     C38416   0.171   2.200   8.206  0.5956  0.6561 -0.4353
 1004MOL0     O38417   0.213   2.263   8.093  0.0204 -0.3742  0.2658
 1004MOL0     C38418   0.307   2.363   8.101 -0.8964  0.1649  0.4130
 1004MOL0     C38419   0.446   2.337   8.086 -0.4993 -0.3837 -0.6459
 1004MOL0     C38420   0.534   2.446   8.102  0.3592  0.0278  0.4170
 1004MOL0     C38421   0.487   2.571   8.138  0.5918 -0.1982  0.5161
 1004MOL0     O38422   0.584   2.666   8.164  0.0053  0.3216  0.2239
 1004MOL0     C38423   0.547   2.769   8.257  0.7797  0.5740 -0.1056
 1004MOL0     C38424   0.675   2.841   8.290 -0.9028  0.8160  0.3429
 1004MOL0     C38425   0.737   2.910   8.167  0.6817  0.6290  0.4507
 1004MOL0     C38426   0.868   2.973   8.208  0.0500  0.0022 -0.2552
 1004MOL0     C38427   0.943   3.019   8.077 -0.6831 -0.7185 -0.6206
 1004MOL0     C38428   1.075   3.086   8.111 -0.1817  0.1533  0.4292
 1004MOL0     C38429   1.153   3.145   7.992 -0.4505 -0.8965  0.3162
 1004MOL0     C38430   1.296   3.192   8.029 -0.1233  0.1308  1.2424
 1004MOL0     N38431   1.365   3.236   7.907 -0.1657  0.1594 -0.5671
 1004MOL0     C38432   1.485   3.173   7.862  1.0855  0.6417 -0.1900
 1004MOL0     C38433   1.494   3.205   7.735 -0.4817 -0.3527  0.6566
 1004MOL0     C38434   1.595   3.170   7.627 -0.0995 -1.1596 -0.1934
 1004MOL0     C38435   1.746   3.197   7.657  0.3695 -0.4106  0.5563
 1004MOL0     C38436   1.804   3.326   7.589  0.0819 -0.5223 -0.6155
 1004MOL0     C38437   1.768   3.455   7.668 -0.3087 -0.8982 -0.4843
 1004MOL0     O38438   1.820   3.574   7.605  0.1040 -0.2641  0.3545
 1004MOL0     C38439   1.945   3.621   7.638  0.6151  0.3506  0.6411
 1004MOL0     C38440   2.021   3.591   7.750  0.5008 -0.5130 -0.2409
 1004MOL0     C38441   2.144   3.646   7.772  0.5194  0.6164  1.1821
 1004MOL0     C38442   2.215   3.614   7.901 -0.9679 -0.1216 -0.0720
 1004MOL0     C38443   2.207   3.723   7.666 -0.2979 -0.2712  0.0113
 1004MOL0     C38444   2.357   3.772   7.661 -0.7730  0.4588 -0.5660
 1004MOL0     O38445   2.413   3.785   7.778 -0.3696 -0.0973 -0.3223
 1004MOL0     C38446   2.551   3.819   7.783  0.8886  0.1669 -0.1501
 1004MOL0     C38447   2.593   3.953   7.763 -0.4374 -0.2473  0.3994
 1004MOL0     C38448   2.726   3.985   7.764  0.6601 -0.5923  0.6545
 1004MOL0     C38449   2.823   3.883   7.778  0.0990 -0.4973  0.2834
 1004MOL0     O38450   2.948   3.928   7.767  0.2558  0.0599 -0.6574
 1004MOL0     C38451   3.063   3.838   7.763  0.6794 -0.0180 -0.9451
 1004MOL0     C38452   3.192   3.915   7.787 -0.0754 -0.2210  0.3068
 1004MOL0     C38453   3.238   3.995   7.669 -0.3108 -0.0020 -0.0756
 1004MOL0     C38454   3.286   3.900   7.555 -0.1319  0.1812 -0.1177
 1004MOL0     C38455   3.238   3.949   7.418 -0.1898  0.0166  0.6359
 1004MOL0     C38456   3.291   3.867   7.296  0.0604  0.2778 -0.0800
 1004MOL0     C38457   3.446   3.864   7.287  0.2806  1.0307 -1.0764
 1004MOL0     C38458   3.503   4.002   7.260 -0.1796  0.1331  0.0444
 1004MOL0    Cl38459   3.674   3.966   7.254 -0.1470 -0.0192 -0.0190
 1004MOL0     C38460   2.782   3.751   7.801  0.0620  0.5593  0.4380
 1004MOL0     C38461   2.649   3.716   7.798  0.6081 -0.1362  0.5632
 1004MOL0     O38462   2.411   3.786   7.555 -0.0260  0.2293 -0.1445
 1004MOL0     C38463   2.135   3.742   7.542 -1.1597  0.4280 -0.1017
 1004MOL0     C38464   1.999   3.705   7.538  0.5636  0.0309 -0.2471
 1004MOL0     N38465   1.384   3.280   7.704  0.6454 -0.2691 -0.3893
 1004MOL0     N38466   1.310   3.292   7.801 -0.1255 -0.7905  0.4871
 1004MOL0     C38467   0.348   2.593   8.150  0.2299  0.9388 -0.0680
 1004MOL0     C38468   0.261   2.487   8.129 -0.2799 -0.4802  0.4614
 1004MOL0     C38469   0.027   2.161   8.198  0.9039 -0.2243 -0.9240
 1004MOL0     C38470  -0.041   2.175   8.076 -0.5093 -0.4379  0.1364
 1004MOL0     C38471  -0.169   2.131   8.059 -0.1532  1.0529  0.2310
 1004MOL0     C38472  -0.247   2.088   8.167 -0.3261 -0.6547 -0.1435
 1004MOL0     O38473  -0.386   2.061   8.160  0.5126 -0.1020  0.3818
 1004MOL0     C38474  -0.471   2.129   8.057 -0.4548  0.2392  0.0932
 1004MOL0     C38475  -0.499   2.042   7.928  0.0105 -0.7662  0.5467
 1004MOL0     C38476  -0.588   2.128   7.834 -0.4810  0.0418  0.3502
 1004MOL0     C38477  -0.612   2.069   7.695  0.5763 -0.8253  0.3434
 1004MOL0     C38478  -0.493   2.069   7.616  0.2834  1.5197 -0.4397
 1004MOL0     C38479  -0.395   2.063   7.540  0.8474  0.4678 -0.9081
 1004MOL0     C38480  -0.182   2.071   8.291  0.0532  0.1861  0.3919
 1004MOL0     C38481  -0.049   2.099   8.302  0.2131 -0.6691 -0.0497
 1004MOL0     C38482   0.007   2.075   8.436  0.0582 -0.0905  0.0980
 1004MOL0     H38483   0.492   2.240   8.070  2.8094  1.0127 -0.5227
 1004MOL0     H38484   0.642   2.439   8.094  0.3391  1.2271 -1.3021
 1004MOL0     H38485   0.506   2.727   8.349  0.3704 -0.5864 -0.7846
 1004MOL0     H38486   0.469   2.830   8.210 -1.6653 -2.9464 -1.0579
 1004MOL0     H38487   0.646   2.925   8.355 -1.5097  0.4486  0.5569
 1004MOL0     H38488   0.749   2.778   8.340 -0.7468  0.4238 -0.3820
 1004MOL0     H38489   0.760   2.830   8.095  1.6656 -0.5195  1.9669
 1004MOL0     H38490   0.667   2.977   8.115  0.7682 -0.6114 -1.3918
 1004MOL0     H38491   0.859   3.057   8.277 -0.3204 -1.9432  2.1979
 1004MOL0     H38492   0.928   2.898   8.259  1.0462  1.0997  0.2267
 1004MOL0     H38493   0.880   3.097   8.032 -0.9238  0.6359  1.8844
 1004MOL0     H38494   0.951   2.925   8.022 -3.8911 -2.0578  0.9434
 1004MOL0     H38495   1.060   3.171   8.178 -0.3748 -1.5446  2.6525
 1004MOL0     H38496   1.146   3.021   8.165 -0.8541 -0.6190  0.4028
 1004MOL0     H38497   1.092   3.229   7.955 -1.0561 -1.9207 -1.1108
 1004MOL0     H38498   1.150   3.085   7.901 -4.1095  0.0901 -0.3562
 1004MOL0     H38499   1.305   3.278   8.096 -0.2029  3.1570 -2.2965
 1004MOL0     H38500   1.355   3.108   8.067  2.0500 -0.1488 -2.3207
 1004MOL0     H38501   1.554   3.099   7.900 -0.3388 -2.4374 -3.0737
 1004MOL0     H38502   1.578   3.224   7.534  4.0014  3.9007  1.5326
 1004MOL0     H38503   1.580   3.064   7.601  1.0784 -1.1143 -1.1287
 1004MOL0     H38504   1.753   3.203   7.766 -1.5462 -2.0762  0.8454
 1004MOL0     H38505   1.802   3.109   7.623  0.9196  1.3760 -3.8138
 1004MOL0     H38506   1.911   3.308   7.604  0.0444  0.4068  1.0191
 1004MOL0     H38507   1.775   3.328   7.483  0.0504  2.3673 -0.6166
 1004MOL0     H38508   1.659   3.466   7.666 -0.1501  2.0499  1.0063
 1004MOL0     H38509   1.800   3.443   7.772  0.2965  1.1869 -0.3802
 1004MOL0     H38510   1.974   3.531   7.827 -3.9804  1.4271 -1.1317
 1004MOL0     H38511   2.262   3.699   7.951  2.0578 -0.9582 -1.2875
 1004MOL0     H38512   2.295   3.547   7.869 -0.5249  0.9377 -1.2371
 1004MOL0     H38513   2.144   3.567   7.970 -1.5875  2.1850  0.9835
 1004MOL0     H38514   2.515   4.028   7.756 -2.2164 -1.8429  1.8461
 1004MOL0     H38515   2.773   4.082   7.751  1.5425 -1.1187 -0.2270
 1004MOL0     H38516   3.066   3.764   7.843  1.7542  1.7034  0.6758
 1004MOL0     H38517   3.065   3.784   7.667  2.2921  0.3231 -1.1285
 1004MOL0     H38518   3.192   3.980   7.874 -1.6691 -0.1460  0.2785
 1004MOL0     H38519   3.272   3.841   7.802 -1.3060 -1.1828  2.5778
 1004MOL0     H38520   3.318   4.061   7.704 -0.6034  0.0187  0.5620
 1004MOL0     H38521   3.154   4.061   7.646  0.0228  1.1709  1.7978
 1004MOL0     H38522   3.250   3.797   7.558  1.0395 -0.2365 -0.1274
 1004MOL0     H38523   3.394   3.890   7.555  0.1798  2.4518  2.2606
 1004MOL0     H38524   3.130   3.934   7.407 -0.4577  1.4606  1.0400
 1004MOL0     H38525   3.267   4.055   7.410 -0.0900  0.1340  2.2091
 1004MOL0     H38526   3.257   3.909   7.200  0.0892 -0.2928 -0.3472
 1004MOL0     H38527   3.251   3.766   7.311  1.3891 -0.0939  1.0678
 1004MOL0     H38528   3.473   3.796   7.205 -1.4550 -1.4323  0.2655
 1004MOL0     H38529   3.483   3.811   7.375 -1.4251 -0.4097 -1.1544
 1004MOL0     H38530   3.482   4.075   7.339 -0.4549 -0.4756  0.5373
 1004MOL0     H38531   3.465   4.036   7.163 -0.6366  1.0002  0.5219
 1004MOL0     H38532   2.850   3.673   7.833  0.3816  1.1508  1.2392
 1004MOL0     H38533   2.604   3.618   7.792  0.0594  0.2018 -3.2603
 1004MOL0     H38534   2.190   3.794   7.464 -1.9846  0.2966 -0.7857
 1004MOL0     H38535   1.938   3.744   7.457 -0.7346  0.5156  0.9129
 1004MOL0     H38536   0.297   2.688   8.160 -2.2807 -0.5363  2.9349
 1004MOL0     H38537   0.159   2.521   8.121 -0.4175 -1.2594 -1.9648
 1004MOL0     H38538   0.019   2.209   7.992  1.2868 -0.8722  1.1985
 1004MOL0     H38539  -0.222   2.155   7.967 -1.3448 -2.0265 -0.0066
 1004MOL0     H38540  -0.569   2.165   8.090 -0.3110  0.5763  0.1557
 1004MOL0     H38541  -0.419   2.223   8.036  0.4018 -0.2279  0.0749
 1004MOL0     H38542  -0.549   1.950   7.960  2.1866 -2.1370  0.2755
 1004MOL0     H38543  -0.406   2.020   7.875 -0.9063  1.6953 -2.3970
 1004MOL0     H38544  -0.685   2.152   7.878 -1.1326 -0.7114 -0.6214
 1004MOL0     H38545  -0.536   2.223   7.814 -0.4417  0.3015  1.6367
 1004MOL0     H38546  -0.692   2.120   7.641  0.5169 -2.1670 -0.8917
 1004MOL0     H38547  -0.629   1.962   7.709  3.2788 -1.3758  0.1274
 1004MOL0     H38548  -0.313   2.060   7.471  0.6922  1.2782 -1.1425
 1004MOL0     H38549  -0.243   2.030   8.370 -2.5855  0.1553 -1.5218
 1004MOL0     H38550   0.046   2.171   8.472  0.5524 -0.1215 -0.3283
 1004MOL0     H38551  -0.058   2.026   8.509 -0.6739  2.6007  1.3882
 1004MOL0     H38552   0.094   2.009   8.429 -0.1527 -0.2786 -0.9001
 1005MOL0     O38553   3.519   6.462   9.702  0.1403 -0.4900  0.0094
 1005MOL0     C38554   3.543   6.376   9.784 -0.5899 -0.1212  0.5843
 1005MOL0     O38555   3.662   6.359   9.847  0.4569  0.4016 -0.6522
 1005MOL0     C38556   3.764   6.431   9.793  0.0042  0.4510  0.0398
 1005MOL0     C38557   3.760   6.568   9.782 -0.8274  0.9546 -0.3816
 1005MOL0     C38558   3.866   6.623   9.715  0.1502  0.0235  0.6313
 1005MOL0     C38559   3.985   6.558   9.678  0.3547  0.4696  0.0295
 1005MOL0     O38560   4.101   6.612   9.619  0.3876  0.3391 -0.6791
 1005MOL0     C38561   4.129   6.749   9.619 -0.8891  0.0175 -0.4562
 1005MOL0     C38562   4.268   6.784   9.571 -0.1365 -0.7365  0.1894
 1005MOL0     C38563   4.374   6.804   9.681 -0.3241  0.5542 -0.0744
 1005MOL0     C38564   4.510   6.820   9.623  0.3500 -0.3183  0.2922
 1005MOL0     C38565   4.613   6.851   9.735 -0.0733 -0.3871 -0.3061
 1005MOL0     C38566   4.751   6.899   9.687  0.4895  0.0027  0.5901
 1005MOL0     C38567   4.858   6.925   9.797 -0.0063 -0.4741 -0.3376
 1005MOL0     C38568   4.873   6.804   9.888 -0.0095  0.1490  0.3819
 1005MOL0     N38569   4.903   6.681   9.819 -0.8661  0.2320 -0.4700
 1005MOL0     C38570   5.033   6.639   9.798  0.3493  0.5397  0.4925
 1005MOL0     C38571   5.014   6.515   9.743 -0.3285 -0.3921 -0.3460
 1005MOL0     C38572   5.127   6.419   9.713 -0.2365 -0.7747 -0.2990
 1005MOL0     C38573   5.240   6.481   9.634 -0.3870  0.0719 -0.4407
 1005MOL0     C38574   5.347   6.381   9.599  0.4754 -0.0474  0.9518
 1005MOL0     C38575   5.404   6.400   9.451 -0.7620  0.4726  0.0150
 1005MOL0     O38576   5.511   6.316   9.428  0.6658 -0.3035  0.3614
 1005MOL0     C38577   5.583   6.347   9.315 -1.0836 -0.3023  0.3800
 1005MOL0     C38578   5.722   6.355   9.334 -0.1979 -0.4029  0.0137
 1005MOL0     C38579   5.812   6.395   9.233  0.6503 -0.3858  0.4550
 1005MOL0     C38580   5.961   6.386   9.257 -0.4497  0.9884  0.8042
 1005MOL0     C38581   5.752   6.424   9.102 -0.2845 -0.3221  0.1945
 1005MOL0     C38582   5.821   6.483   8.979 -0.1276 -0.1940 -0.6829
 1005MOL0     O38583   5.776   6.453   8.854 -0.3028 -0.4036 -0.6597
 1005MOL0     C38584   5.819   6.539   8.758  0.9438  0.5605  0.4663
 1005MOL0     C38585   5.925   6.503   8.679  0.5482  0.2645  0.0773
 1005MOL0     C38586   5.982   6.590   8.581  0.6303 -0.5964 -0.2805
 1005MOL0     C38587   5.939   6.726   8.566 -0.5350 -0.2362  0.3163
 1005MOL0     O38588   6.008   6.796   8.473 -0.3956 -0.0322 -0.2097
 1005MOL0     C38589   5.968   6.933   8.463 -0.1345 -0.2434 -0.5964
 1005MOL0     C38590   6.051   6.992   8.350 -0.4106  0.0081 -1.4087
 1005MOL0     C38591   6.188   7.023   8.416  0.5919 -0.0044  0.2211
 1005MOL0     C38592   6.292   7.040   8.302  0.6639  0.0495 -0.9518
 1005MOL0     C38593   6.404   7.130   8.364 -0.3076 -1.1789 -0.0424
 1005MOL0     C38594   6.521   7.159   8.259  0.3637 -0.3990 -0.5772
 1005MOL0     C38595   6.624   7.257   8.321 -0.3851 -0.5560 -0.1300
 1005MOL0     C38596   6.735   7.310   8.221  0.1220 -0.0411  0.9580
 1005MOL0    Cl38597   6.840   7.196   8.137 -0.0046 -0.3633 -0.0652
 1005MOL0     C38598   5.829   6.761   8.646  0.4037  0.3754 -0.4179
 1005MOL0     C38599   5.772   6.671   8.746 -1.3101 -0.2318  0.8271
 1005MOL0     O38600   5.913   6.559   8.997  0.0488  0.7754 -0.5072
 1005MOL0     C38601   5.621   6.375   9.079  0.3055 -0.0490  0.5725
 1005MOL0     C38602   5.529   6.341   9.186  0.1863 -1.0521 -0.2821
 1005MOL0     N38603   4.876   6.481   9.750  0.0411  0.1618 -0.2839
 1005MOL0     N38604   4.812   6.582   9.783  0.2844  0.1770  0.6379
 1005MOL0     C38605   3.993   6.420   9.716 -0.5638  0.1360 -0.1580
 1005MOL0     C38606   3.880   6.359   9.764 -0.7875 -0.2338  0.3106
 1005MOL0     C38607   3.425   6.287   9.820 -0.4242 -0.3598 -0.3484
 1005MOL0     C38608   3.302   6.311   9.739 -0.4580  0.7010 -0.6486
 1005MOL0     C38609   3.188   6.259   9.784  0.3143  0.3208  0.5008
 1005MOL0     C38610   3.182   6.161   9.885  0.5655 -0.3887  0.0685
 1005MOL0     O38611   3.070   6.088   9.917 -0.3680 -0.9092 -0.6313
 1005MOL0     C38612   2.944   6.096   9.838  0.2185 -0.0718 -0.1347
 1005MOL0     C38613   2.868   5.969   9.865 -0.7281  0.2805 -0.3404
 1005MOL0     C38614   2.955   5.850   9.818 -1.3275 -0.3641 -0.2577
 1005MOL0     C38615   2.994   5.839   9.671 -0.6120 -0.1998  0.3003
 1005MOL0     C38616   2.890   5.873   9.580  1.1002 -0.4920  0.1917
 1005MOL0     C38617   2.804   5.891   9.493  0.0942  0.3352  0.3097
 1005MOL0     C38618   3.298   6.134   9.957 -0.0311 -0.0624 -0.0372
 1005MOL0     C38619   3.423   6.193   9.927  0.1161 -0.0122  0.0883
 1005MOL0     C38620   3.547   6.153  10.001 -0.0044  0.3800  0.5519
 1005MOL0     H38621   3.676   6.630   9.812 -2.3070 -1.4002  0.6018
 1005MOL0     H38622   3.873   6.731   9.704  2.0973 -0.0786  0.5779
 1005MOL0     H38623   4.125   6.788   9.721 -2.7324 -2.4350  0.4905
 1005MOL0     H38624   4.053   6.800   9.559 -1.0450  1.0627  0.5941
 1005MOL0     H38625   4.299   6.708   9.499  0.8153  0.3225 -0.5733
 1005MOL0     H38626   4.263   6.869   9.501  2.1314 -1.0287 -0.4250
 1005MOL0     H38627   4.347   6.893   9.740 -0.4726 -0.4312  1.3977
 1005MOL0     H38628   4.376   6.717   9.747  1.5569 -0.0214 -0.8468
 1005MOL0     H38629   4.531   6.724   9.577  1.4862 -0.0542  0.2351
 1005MOL0     H38630   4.511   6.899   9.547 -1.2009  0.2188  0.8002
 1005MOL0     H38631   4.614   6.762   9.798 -1.2008 -0.1600  0.0537
 1005MOL0     H38632   4.574   6.935   9.793  2.4168  2.0339 -1.9304
 1005MOL0     H38633   4.787   6.821   9.619  0.7892 -2.1959  3.0982
 1005MOL0     H38634   4.744   6.986   9.621  3.0216  0.0921  0.3417
 1005MOL0     H38635   4.818   7.008   9.856 -0.6734  0.8437 -2.5130
 1005MOL0     H38636   4.951   6.961   9.753 -2.0297  2.2065 -2.8566
 1005MOL0     H38637   4.959   6.825   9.952 -0.1444  0.5227  0.4475
 1005MOL0     H38638   4.781   6.790   9.945 -0.6136 -2.0649 -1.0163
 1005MOL0     H38639   5.130   6.685   9.811  1.0820 -0.9271  0.3810
 1005MOL0     H38640   5.089   6.332   9.659  2.3686 -2.0828 -0.2011
 1005MOL0     H38641   5.158   6.384   9.812 -2.8977 -1.9427  0.2120
 1005MOL0     H38642   5.193   6.530   9.548  2.3710  3.0863 -0.4157
 1005MOL0     H38643   5.293   6.553   9.698  1.8587  0.2954 -2.4231
 1005MOL0     H38644   5.432   6.380   9.669  0.3632 -0.1407  1.0872
 1005MOL0     H38645   5.298   6.284   9.598 -0.5105  0.4181 -1.3289
 1005MOL0     H38646   5.321   6.398   9.379 -0.1001 -0.8610 -0.7354
 1005MOL0     H38647   5.442   6.503   9.447  1.6140 -0.3699 -0.4736
 1005MOL0     H38648   5.754   6.307   9.425 -4.7316  1.1061  2.7043
 1005MOL0     H38649   5.969   6.352   9.360 -0.7436  1.7644  1.0969
 1005MOL0     H38650   6.019   6.480   9.255  0.2144  0.5931  1.1293
 1005MOL0     H38651   6.003   6.309   9.192 -0.7011  2.2238 -0.9114
 1005MOL0     H38652   5.951   6.398   8.688 -0.5378 -0.0582 -0.4005
 1005MOL0     H38653   6.061   6.553   8.517 -0.1178  0.1436 -1.6735
 1005MOL0     H38654   5.863   6.944   8.435  0.2644 -0.9695 -2.5617
 1005MOL0     H38655   5.991   6.985   8.556  3.9557 -0.7433 -1.1144
 1005MOL0     H38656   6.065   6.917   8.271  0.5983  0.3581 -1.5833
 1005MOL0     H38657   6.011   7.085   8.308 -2.0265  0.3249  0.6879
 1005MOL0     H38658   6.223   6.938   8.476  1.2007 -2.5517 -3.4359
 1005MOL0     H38659   6.181   7.118   8.471  0.5437  0.5975 -0.8012
 1005MOL0     H38660   6.249   7.089   8.214 -2.8407 -0.7489  0.1355
 1005MOL0     H38661   6.335   6.945   8.271  3.1263  0.4248  1.0211
 1005MOL0     H38662   6.352   7.222   8.392  0.3336 -0.3935 -1.3061
 1005MOL0     H38663   6.447   7.081   8.452  2.0055 -0.8534 -0.9029
 1005MOL0     H38664   6.488   7.208   8.167  2.6772  2.2169 -0.1702
 1005MOL0     H38665   6.571   7.066   8.233  4.4091  1.4011 -0.0604
 1005MOL0     H38666   6.685   7.200   8.392 -3.0601 -2.8903  0.4750
 1005MOL0     H38667   6.569   7.341   8.365 -1.7048  0.1261 -2.8764
 1005MOL0     H38668   6.811   7.371   8.271  2.0055 -0.3257 -1.3512
 1005MOL0     H38669   6.673   7.375   8.159  1.1724  1.0026  0.9748
 1005MOL0     H38670   5.780   6.857   8.639  0.8095  0.7615  1.4938
 1005MOL0     H38671   5.679   6.688   8.799 -1.7702 -0.6096  0.1493
 1005MOL0     H38672   5.566   6.381   8.985  0.2275  1.8047  0.7004
 1005MOL0     H38673   5.426   6.336   9.153  0.5090  1.2669 -1.8748
 1005MOL0     H38674   4.082   6.362   9.692 -0.6465 -1.4816  2.9760
 1005MOL0     H38675   3.900   6.254   9.782  0.2202  0.3336  3.0034
 1005MOL0     H38676   3.303   6.383   9.658  0.2164 -1.7574 -2.9750
 1005MOL0     H38677   3.093   6.285   9.738  0.2542 -2.2250 -1.0633
 1005MOL0     H38678   2.892   6.184   9.879  1.2315  0.3247  0.3095
 1005MOL0     H38679   2.953   6.114   9.730 -0.6418  0.0755 -0.1910
 1005MOL0     H38680   2.773   5.964   9.811  0.7475 -1.9987 -2.9879
 1005MOL0     H38681   2.853   5.970   9.973  4.1705  2.2254  0.5812
 1005MOL0     H38682   3.045   5.823   9.874 -1.5577 -2.7203 -0.9155
 1005MOL0     H38683   2.886   5.768   9.838  0.5259 -1.6219  1.3277
 1005MOL0     H38684   3.017   5.734   9.651  2.5525  0.9316 -3.2267
 1005MOL0     H38685   3.082   5.902   9.652 -0.0893 -0.6427  1.1886
 1005MOL0     H38686   2.730   5.911   9.418 -2.3915 -1.1222  2.2137
 1005MOL0     H38687   3.296   6.056  10.032  4.3755 -0.7625 -0.3537
 1005MOL0     H38688   3.628   6.111   9.940 -0.0658  0.6329  0.2927
 1005MOL0     H38689   3.583   6.242  10.053 -1.2288  0.5346  1.1703
 1005MOL0     H38690   3.531   6.084  10.084  1.9878 -0.7879  0.0311
 1006MOL0     O38691   0.514   2.125   0.587 -0.1218  0.1395  0.2308
 1006MOL0     C38692   0.478   2.181   0.695  0.3507  0.2820  0.9045
 1006MOL0     O38693   0.539   2.166   0.818  1.0303  0.1880  0.0248
 1006MOL0     C38694   0.662   2.123   0.833 -0.7165 -0.2520 -0.3063
 1006MOL0     C38695   0.762   2.205   0.883 -0.5218  0.5220  0.7547
 1006MOL0     C38696   0.890   2.152   0.907 -0.0445  0.2215 -0.0600
 1006MOL0     C38697   0.918   2.018   0.872 -1.0279 -0.4830  0.3313
 1006MOL0     O38698   1.052   1.964   0.888  0.4953 -0.2127  0.8269
 1006MOL0     C38699   1.068   1.829   0.919 -0.7875  0.0466 -0.5115
 1006MOL0     C38700   1.219   1.797   0.947 -0.1334 -0.3710  0.6278
 1006MOL0     C38701   1.279   1.895   1.045 -0.9096  1.0037  0.3222
 1006MOL0     C38702   1.420   1.837   1.079  0.1998  0.2099 -0.2327
 1006MOL0     C38703   1.495   1.945   1.154  0.1861 -0.4224 -0.2883
 1006MOL0     C38704   1.623   1.884   1.210 -0.9598  0.1933  0.0593
 1006MOL0     C38705   1.693   2.001   1.287  0.3698 -0.1693 -0.4382
 1006MOL0     C38706   1.747   2.125   1.208  0.3128 -0.2438  0.8916
 1006MOL0     N38707   1.803   2.105   1.072 -0.2179 -0.5123  0.1987
 1006MOL0     C38708   1.774   2.186   0.963 -0.3558  0.2364 -1.1848
 1006MOL0     C38709   1.853   2.142   0.862  0.6192 -0.0009 -0.2485
 1006MOL0     C38710   1.878   2.202   0.725 -0.8987  0.4267  0.5115
 1006MOL0     C38711   1.988   2.306   0.730 -0.0292 -0.4317 -0.2378
 1006MOL0     C38712   1.958   2.420   0.824 -0.1240  0.0835  0.5991
 1006MOL0     C38713   2.070   2.522   0.821  0.3555 -0.3732  0.2852
 1006MOL0     O38714   2.199   2.479   0.868 -0.4291  0.4416 -0.2525
 1006MOL0     C38715   2.308   2.571   0.854  0.3741  0.3483  0.3510
 1006MOL0     C38716   2.300   2.706   0.818  0.3871  0.1823 -0.4335
 1006MOL0     C38717   2.414   2.792   0.803  0.7281 -0.3742 -0.3503
 1006MOL0     C38718   2.383   2.942   0.800 -0.2607 -0.2161 -0.2746
 1006MOL0     C38719   2.540   2.738   0.805  0.8952  0.0216  0.4926
 1006MOL0     C38720   2.664   2.823   0.796 -0.1676  0.3003  0.3226
 1006MOL0     O38721   2.763   2.765   0.866 -0.0828  0.3534  0.3057
 1006MOL0     C38722   2.889   2.832   0.876 -0.0771 -0.4680 -0.6948
 1006MOL0     C38723   2.925   2.900   0.995  0.4952 -0.2246  0.2123
 1006MOL0     C38724   3.053   2.950   1.013 -0.3831 -0.2596  0.1898
 1006MOL0     C38725   3.151   2.945   0.905 -0.4556  0.5106 -0.0374
 1006MOL0     O38726   3.280   2.983   0.922  0.6775 -0.2679  0.3638
 1006MOL0     C38727   3.322   3.052   1.033 -0.0954  0.2088 -0.7631
 1006MOL0     C38728   3.468   3.103   1.021  0.1425  0.5233  0.1500
 1006MOL0     C38729   3.565   2.986   0.992 -0.3555  0.1956 -0.3489
 1006MOL0     C38730   3.707   3.036   1.029 -0.6232  0.3228  0.1952
 1006MOL0     C38731   3.819   2.935   0.983 -0.0559  0.2415  0.9013
 1006MOL0     C38732   3.953   2.970   1.050  0.4637 -0.6158  0.3839
 1006MOL0     C38733   4.021   3.076   0.961  0.1196  0.1780  0.1223
 1006MOL0     C38734   4.151   3.113   1.022 -0.4920  0.4322 -0.7287
 1006MOL0    Cl38735   4.204   3.255   0.933  0.2532 -0.2603 -0.1606
 1006MOL0     C38736   3.114   2.869   0.797 -0.7707 -0.1211  0.2736
 1006MOL0     C38737   2.986   2.816   0.779 -0.4956  0.3803  0.1214
 1006MOL0     O38738   2.666   2.931   0.735  0.4575 -0.1958  0.1401
 1006MOL0     C38739   2.547   2.598   0.835 -0.3355  0.4052 -0.5085
 1006MOL0     C38740   2.435   2.516   0.854 -0.3688 -0.8254  0.9633
 1006MOL0     N38741   1.924   2.037   0.910 -0.3108 -1.0158  0.5508
 1006MOL0     N38742   1.899   2.018   1.029  0.2802 -0.3217 -0.1430
 1006MOL0     C38743   0.821   1.935   0.827 -0.1259 -0.2972  0.1625
 1006MOL0     C38744   0.692   1.990   0.809  0.4774  0.1780 -0.4905
 1006MOL0     C38745   0.352   2.262   0.695  0.3845 -0.4269  1.2168
 1006MOL0     C38746   0.296   2.301   0.822 -0.1063  0.1259  0.2182
 1006MOL0     C38747   0.185   2.390   0.826  0.5281 -0.9067 -0.6260
 1006MOL0     C38748   0.118   2.416   0.706 -0.2201  0.1218  0.2610
 1006MOL0     O38749   0.009   2.495   0.684 -0.6438  0.0601 -0.2159
 1006MOL0     C38750  -0.059   2.546   0.797 -0.5402  0.0562  0.1518
 1006MOL0     C38751  -0.195   2.606   0.761 -0.1660  1.2326  0.2783
 1006MOL0     C38752  -0.238   2.731   0.838  0.4712  0.2935 -0.4405
 1006MOL0     C38753  -0.375   2.784   0.803  0.7308  0.0270 -0.2012
 1006MOL0     C38754  -0.481   2.686   0.825 -0.4996 -0.0179  0.6374
 1006MOL0     C38755  -0.566   2.602   0.842  0.0311  0.2514 -0.3084
 1006MOL0     C38756   0.163   2.365   0.581 -0.1661  0.9780  0.6774
 1006MOL0     C38757   0.277   2.288   0.574 -0.4465 -0.4394 -0.0494
 1006MOL0     C38758   0.316   2.229   0.441  0.1187  0.2534 -0.4376
 1006MOL0     H38759   0.740   2.309   0.903  1.2758  0.6976  1.9965
 1006MOL0     H38760   0.963   2.223   0.945 -0.8091  1.2725 -0.4866
 1006MOL0     H38761   1.043   1.766   0.834  1.3787 -0.6729 -0.6828
 1006MOL0     H38762   1.013   1.807   1.011  3.4486  0.5967  2.4650
 1006MOL0     H38763   1.208   1.705   1.004 -1.0754 -0.2306  0.7002
 1006MOL0     H38764   1.273   1.785   0.853 -1.7955  0.0810 -0.4364
 1006MOL0     H38765   1.296   1.992   0.998  2.2589  0.4342  0.0389
 1006MOL0     H38766   1.219   1.910   1.135  1.0434 -0.8811  2.0843
 1006MOL0     H38767   1.404   1.751   1.145  2.4654  2.3862  3.5604
 1006MOL0     H38768   1.473   1.800   0.991  0.2487  1.8767 -0.9556
 1006MOL0     H38769   1.428   1.992   1.226 -3.0707  0.3027 -3.5076
 1006MOL0     H38770   1.522   2.025   1.085  0.8958 -0.3020  0.1203
 1006MOL0     H38771   1.598   1.812   1.288  0.9777 -0.4236  0.1676
 1006MOL0     H38772   1.682   1.840   1.130 -0.6186 -1.5680  1.2166
 1006MOL0     H38773   1.781   1.961   1.338  0.1934 -0.5651 -0.4355
 1006MOL0     H38774   1.623   2.036   1.363 -1.0756 -1.2760 -1.2085
 1006MOL0     H38775   1.662   2.193   1.203 -0.8715 -1.7549 -2.5710
 1006MOL0     H38776   1.828   2.168   1.267 -1.0920  4.5879 -0.2586
 1006MOL0     H38777   1.704   2.269   0.961 -1.0919 -0.3115  0.2662
 1006MOL0     H38778   1.789   2.250   0.682 -1.7383 -4.3052 -3.9966
 1006MOL0     H38779   1.903   2.122   0.655 -0.1423 -0.0065  1.2578
 1006MOL0     H38780   2.077   2.257   0.771  0.8036  0.1392 -1.3008
 1006MOL0     H38781   2.007   2.343   0.629 -0.0712 -1.2929 -0.5679
 1006MOL0     H38782   1.861   2.465   0.802 -1.7422 -2.2867  2.3526
 1006MOL0     H38783   1.953   2.396   0.930 -1.7167  0.1122  0.5524
 1006MOL0     H38784   2.075   2.562   0.719 -0.0890 -3.2721 -0.9544
 1006MOL0     H38785   2.035   2.608   0.879 -2.4600 -0.0519 -1.6935
 1006MOL0     H38786   2.205   2.759   0.828  0.2062 -0.5746  4.3675
 1006MOL0     H38787   2.287   2.957   0.850  0.1263 -2.0728  1.1169
 1006MOL0     H38788   2.383   2.978   0.697 -0.6373  1.0654  0.1512
 1006MOL0     H38789   2.457   3.005   0.850  0.3680 -1.4757  0.4432
 1006MOL0     H38790   2.855   2.907   1.077  0.2126 -1.7452  0.1332
 1006MOL0     H38791   3.063   3.002   1.108  0.0699 -0.0681  0.0406
 1006MOL0     H38792   3.254   3.132   1.063  2.1897  1.4236  1.5785
 1006MOL0     H38793   3.304   2.977   1.110 -2.5346  0.2835 -1.1901
 1006MOL0     H38794   3.478   3.174   0.938 -0.9481  0.1986 -0.2750
 1006MOL0     H38795   3.495   3.143   1.119  1.3022 -0.6290  0.3352
 1006MOL0     H38796   3.564   2.952   0.888  1.0675  1.3050 -0.7527
 1006MOL0     H38797   3.538   2.900   1.054  2.0711  0.5458  1.3410
 1006MOL0     H38798   3.713   3.044   1.138 -0.6368  3.6110  0.0305
 1006MOL0     H38799   3.720   3.141   1.001 -0.8839  0.3719  0.2559
 1006MOL0     H38800   3.790   2.834   1.012 -0.6201 -0.2479 -1.1877
 1006MOL0     H38801   3.829   2.940   0.874  0.2360 -1.1307  0.8558
 1006MOL0     H38802   4.012   2.879   1.044 -0.8203 -1.4310 -0.1913
 1006MOL0     H38803   3.954   2.991   1.158  4.0089 -1.3272  0.6135
 1006MOL0     H38804   3.952   3.161   0.958 -1.7009 -1.2658 -2.9567
 1006MOL0     H38805   4.029   3.042   0.858 -3.6022  3.0721 -1.3542
 1006MOL0     H38806   4.225   3.033   1.011 -0.4959  0.5497 -1.7217
 1006MOL0     H38807   4.145   3.131   1.129  0.1322  0.2176 -0.6501
 1006MOL0     H38808   3.177   2.849   0.711 -2.3311  3.9850 -2.1624
 1006MOL0     H38809   2.970   2.760   0.687 -0.3233 -0.1941  0.4332
 1006MOL0     H38810   2.638   2.549   0.866 -0.2388 -0.3916 -1.9878
 1006MOL0     H38811   2.451   2.409   0.861  1.5164 -0.8768 -2.0734
 1006MOL0     H38812   0.837   1.838   0.781 -1.9121 -0.1899 -0.7542
 1006MOL0     H38813   0.619   1.930   0.758  0.6823 -1.2037  0.7688
 1006MOL0     H38814   0.344   2.291   0.919 -1.7677  3.5732  1.5718
 1006MOL0     H38815   0.161   2.447   0.915  0.9797 -0.5900 -0.6990
 1006MOL0     H38816  -0.081   2.476   0.878  3.0584 -2.1995 -0.5779
 1006MOL0     H38817  -0.001   2.626   0.844 -3.8056  3.3683 -1.0253
 1006MOL0     H38818  -0.267   2.523   0.759 -1.0642  1.9941 -1.5594
 1006MOL0     H38819  -0.181   2.626   0.654  2.0316  0.1409  0.2923
 1006MOL0     H38820  -0.240   2.702   0.944 -1.9872 -1.6241 -0.9202
 1006MOL0     H38821  -0.155   2.802   0.834  2.7619 -2.1890 -0.3573
 1006MOL0     H38822  -0.375   2.826   0.702  1.4967 -1.1873 -0.7232
 1006MOL0     H38823  -0.395   2.872   0.865 -0.7497 -0.0083 -0.5698
 1006MOL0     H38824  -0.642   2.533   0.872  1.3454 -0.0334  2.8135
 1006MOL0     H38825   0.112   2.401   0.492 -1.1996 -0.0229  0.8450
 1006MOL0     H38826   0.413   2.271   0.411  2.3479 -3.3567  1.1133
 1006MOL0     H38827   0.324   2.121   0.455  1.7671  0.1672 -1.7267
 1006MOL0     H38828   0.247   2.246   0.358  0.7464  0.2279 -0.9697
 1007MOL0     O38829   4.964   7.795   4.888  0.1742 -0.8514 -0.2715
 1007MOL0     C38830   4.959   7.916   4.893  0.5169 -0.5030 -0.4063
 1007MOL0     O38831   5.068   7.994   4.937  0.1509  0.3296  0.0131
 1007MOL0     C38832   5.178   7.923   4.983  0.3353 -0.8528  0.1358
 1007MOL0     C38833   5.180   7.850   5.105 -0.8480  0.0395 -0.9527
 1007MOL0     C38834   5.298   7.784   5.145 -0.3468  0.1649  1.7027
 1007MOL0     C38835   5.401   7.768   5.055 -0.0919  0.5224  0.3307
 1007MOL0     O38836   5.500   7.674   5.090 -0.2374  0.0148 -0.2744
 1007MOL0     C38837   5.626   7.686   5.024  0.3309  0.3813 -0.7528
 1007MOL0     C38838   5.732   7.620   5.102  0.7042  0.0582 -0.0242
 1007MOL0     C38839   5.859   7.641   5.031 -0.0535  0.0947 -0.9344
 1007MOL0     C38840   5.975   7.558   5.084 -0.0808 -0.9604  0.2145
 1007MOL0     C38841   6.098   7.604   5.024 -0.6128 -0.1538  0.0326
 1007MOL0     C38842   6.222   7.520   5.067 -0.0207 -0.0565 -0.3921
 1007MOL0     C38843   6.354   7.558   4.992 -0.4281 -0.3418  0.2482
 1007MOL0     C38844   6.387   7.701   5.023 -0.0806 -0.8762  0.1525
 1007MOL0     N38845   6.513   7.759   4.977 -0.4240  0.8973  0.5362
 1007MOL0     C38846   6.559   7.760   4.845  0.2760  0.1963 -0.8893
 1007MOL0     C38847   6.665   7.836   4.847 -0.2508  0.0539 -0.0344
 1007MOL0     C38848   6.751   7.862   4.724  0.3763 -0.0554  0.4993
 1007MOL0     C38849   6.821   7.736   4.665 -0.1402  0.5255  1.1484
 1007MOL0     C38850   6.876   7.767   4.526  0.8733  0.1493 -0.4789
 1007MOL0     C38851   7.016   7.832   4.533 -0.3286 -0.0490  0.4175
 1007MOL0     O38852   7.117   7.735   4.562  0.3372  0.3314 -0.6540
 1007MOL0     C38853   7.245   7.782   4.573 -0.1128  0.0830 -0.3001
 1007MOL0     C38854   7.329   7.701   4.653 -0.6712 -0.5910  0.0312
 1007MOL0     C38855   7.466   7.735   4.668  1.0265  0.3841  0.4503
 1007MOL0     C38856   7.557   7.643   4.756 -0.2708  0.2910  0.5944
 1007MOL0     C38857   7.516   7.846   4.603  0.0990  0.2785  0.3305
 1007MOL0     C38858   7.658   7.885   4.598 -0.1840 -0.0632 -1.1151
 1007MOL0     O38859   7.754   7.811   4.544 -1.2041 -0.4679 -1.0756
 1007MOL0     C38860   7.887   7.846   4.564 -0.2546  0.0235  0.2707
 1007MOL0     C38861   7.962   7.845   4.443  0.0767 -0.2445 -0.1710
 1007MOL0     C38862   8.094   7.894   4.448  0.3886 -0.2096  0.3272
 1007MOL0     C38863   8.155   7.946   4.570  0.1475 -0.7441 -0.8450
 1007MOL0     O38864   8.280   7.997   4.572 -0.3137 -0.6679  0.3093
 1007MOL0     C38865   8.293   8.129   4.509 -0.0820 -0.3706 -0.8891
 1007MOL0     C38866   8.434   8.152   4.479 -0.7675 -0.5259 -0.2484
 1007MOL0     C38867   8.519   8.171   4.601 -0.2886 -0.3379  0.7983
 1007MOL0     C38868   8.657   8.230   4.578 -0.6382 -0.2123  0.7333
 1007MOL0     C38869   8.731   8.226   4.715  0.1498  0.0552  0.4536
 1007MOL0     C38870   8.857   8.318   4.725 -0.3470  0.1654 -0.0676
 1007MOL0     C38871   8.890   8.347   4.868  0.2816 -0.5869 -0.6224
 1007MOL0     C38872   9.022   8.419   4.878  0.0606 -1.2463  0.2165
 1007MOL0    Cl38873   9.069   8.450   5.044  0.0702 -0.1665 -0.1385
 1007MOL0     C38874   8.088   7.929   4.691  1.4381  0.4699  0.0888
 1007MOL0     C38875   7.951   7.875   4.685  0.1101  0.5302 -0.3224
 1007MOL0     O38876   7.668   8.002   4.634  0.3308 -0.8763  0.1479
 1007MOL0     C38877   7.429   7.919   4.525  0.1104  0.1985 -0.1669
 1007MOL0     C38878   7.297   7.901   4.520  0.3762  0.5090 -0.1936
 1007MOL0     N38879   6.693   7.869   4.976 -0.3845  0.2647  0.7107
 1007MOL0     N38880   6.604   7.824   5.058  0.7320 -0.6626  0.0045
 1007MOL0     C38881   5.395   7.834   4.929 -0.2271  0.1512  0.0577
 1007MOL0     C38882   5.287   7.917   4.896 -0.1988 -0.1708 -0.0169
 1007MOL0     C38883   4.833   7.991   4.863  0.6329  0.0222  0.9758
 1007MOL0     C38884   4.847   8.124   4.825  0.4629 -0.4269  0.1542
 1007MOL0     C38885   4.741   8.203   4.796 -0.9910  0.4279  0.7286
 1007MOL0     C38886   4.615   8.146   4.813 -0.6099  0.2371 -0.3249
 1007MOL0     O38887   4.491   8.205   4.784  0.1774 -0.4233  0.7208
 1007MOL0     C38888   4.483   8.335   4.722  0.0566 -0.1454  0.5286
 1007MOL0     C38889   4.344   8.395   4.742 -0.9935 -0.6260 -0.3323
 1007MOL0     C38890   4.333   8.540   4.691 -0.4780 -0.0672 -0.2428
 1007MOL0     C38891   4.214   8.620   4.746  0.5870  0.4593 -0.2983
 1007MOL0     C38892   4.103   8.532   4.784 -0.4301 -0.3594 -0.3111
 1007MOL0     C38893   4.015   8.447   4.791 -1.0412 -0.2543  0.4441
 1007MOL0     C38894   4.596   8.019   4.858  0.7380 -0.3019  0.1206
 1007MOL0     C38895   4.702   7.936   4.884 -0.0103 -0.0651 -0.0825
 1007MOL0     C38896   4.662   7.795   4.936  0.3457 -0.6845  0.2274
 1007MOL0     H38897   5.088   7.842   5.161 -1.9877  3.2326 -2.1271
 1007MOL0     H38898   5.306   7.731   5.239  0.4405 -1.2421  0.8820
 1007MOL0     H38899   5.658   7.790   5.013 -2.1421  1.0331 -2.5763
 1007MOL0     H38900   5.622   7.634   4.928  4.0961 -2.3368  0.3464
 1007MOL0     H38901   5.728   7.651   5.207 -0.3087 -1.4576  0.4163
 1007MOL0     H38902   5.703   7.515   5.097 -0.2516  0.3549 -1.1191
 1007MOL0     H38903   5.853   7.616   4.925  2.1271  0.0750 -1.0896
 1007MOL0     H38904   5.887   7.747   5.034  1.4813 -0.2911 -0.9472
 1007MOL0     H38905   5.982   7.565   5.193  2.3747  1.1862  0.0278
 1007MOL0     H38906   5.954   7.453   5.065  0.1902 -1.0557  0.4405
 1007MOL0     H38907   6.121   7.700   5.071 -1.7066 -0.9818  2.4010
 1007MOL0     H38908   6.099   7.612   4.915  0.7683 -3.1382 -0.2568
 1007MOL0     H38909   6.235   7.527   5.176  0.1363 -0.4877 -0.3838
 1007MOL0     H38910   6.195   7.418   5.041 -2.5832  1.0373 -2.4832
 1007MOL0     H38911   6.323   7.541   4.889 -1.6118 -3.8706  1.0259
 1007MOL0     H38912   6.439   7.493   5.016 -1.1689 -1.1432  0.7855
 1007MOL0     H38913   6.314   7.767   4.975 -0.4648 -0.2173  1.5805
 1007MOL0     H38914   6.389   7.713   5.132 -1.0903 -1.8783  0.3073
 1007MOL0     H38915   6.528   7.707   4.756 -0.7065 -0.5673 -0.1144
 1007MOL0     H38916   6.826   7.929   4.765 -2.2493  2.4700  1.4819
 1007MOL0     H38917   6.697   7.924   4.651  1.1467  0.9597  0.7699
 1007MOL0     H38918   6.901   7.706   4.732  0.7920  0.2934 -0.0387
 1007MOL0     H38919   6.759   7.646   4.667  0.9603 -0.3018 -0.1654
 1007MOL0     H38920   6.895   7.675   4.471  2.3191  0.3839 -0.4079
 1007MOL0     H38921   6.819   7.834   4.460  2.5640 -0.1256 -2.3141
 1007MOL0     H38922   7.038   7.891   4.443 -2.3310  2.8616  1.7151
 1007MOL0     H38923   7.025   7.904   4.615  3.0447  0.8262 -0.5430
 1007MOL0     H38924   7.296   7.608   4.698 -2.1586  0.4068  1.0772
 1007MOL0     H38925   7.516   7.643   4.858  3.4622  1.9134  2.2990
 1007MOL0     H38926   7.662   7.673   4.758  0.1942 -1.1641 -0.0287
 1007MOL0     H38927   7.566   7.538   4.726  0.9291 -0.0245  1.9251
 1007MOL0     H38928   7.913   7.801   4.357 -2.0875 -1.5754  1.6469
 1007MOL0     H38929   8.159   7.898   4.360  4.1997 -1.9497  2.7850
 1007MOL0     H38930   8.246   8.130   4.410 -0.4062 -2.7185 -0.8176
 1007MOL0     H38931   8.252   8.204   4.576  0.6493  0.0803 -0.9420
 1007MOL0     H38932   8.470   8.067   4.420  0.7780  0.5581 -0.9439
 1007MOL0     H38933   8.432   8.246   4.423  2.3816 -0.4747 -0.4956
 1007MOL0     H38934   8.535   8.069   4.637  2.9181  0.0121  0.6908
 1007MOL0     H38935   8.470   8.238   4.672  1.6928  2.3927 -0.2519
 1007MOL0     H38936   8.664   8.333   4.542 -1.1236 -0.9691 -1.7245
 1007MOL0     H38937   8.717   8.172   4.507 -0.4210  0.5530  0.2745
 1007MOL0     H38938   8.661   8.270   4.787  1.6605  2.5917  0.4925
 1007MOL0     H38939   8.758   8.129   4.757  0.6573 -0.7089 -1.5107
 1007MOL0     H38940   8.843   8.405   4.661 -0.1292 -1.3909 -2.3495
 1007MOL0     H38941   8.938   8.262   4.678 -0.5679  0.4375 -0.7832
 1007MOL0     H38942   8.895   8.257   4.930  1.5215  0.5005  0.9327
 1007MOL0     H38943   8.814   8.414   4.909  1.1765 -0.6759  1.2830
 1007MOL0     H38944   9.008   8.514   4.825 -1.8884 -0.6429  1.7047
 1007MOL0     H38945   9.099   8.359   4.828  2.1499  0.7394  0.8761
 1007MOL0     H38946   8.121   7.970   4.786 -1.1054  0.4033  1.0770
 1007MOL0     H38947   7.898   7.886   4.779  1.9891  3.0489  0.5795
 1007MOL0     H38948   7.472   8.001   4.469  1.8316  1.2280  2.4288
 1007MOL0     H38949   7.245   7.958   4.443  0.4077  0.0056 -0.5928
 1007MOL0     H38950   5.472   7.807   4.857  0.3136  1.8323 -0.0297
 1007MOL0     H38951   5.276   7.961   4.797  1.1821  1.4630  0.5052
 1007MOL0     H38952   4.938   8.183   4.829 -0.6833  1.3406  0.9007
 1007MOL0     H38953   4.750   8.304   4.758  0.9371  0.0630  0.1075
 1007MOL0     H38954   4.558   8.402   4.764  2.1596 -1.0161 -1.6125
 1007MOL0     H38955   4.500   8.338   4.614  0.2544  2.7504  0.5857
 1007MOL0     H38956   4.321   8.388   4.848  0.0227  0.3284 -0.0379
 1007MOL0     H38957   4.277   8.330   4.684  0.2889 -2.1401 -0.1811
 1007MOL0     H38958   4.423   8.598   4.713  0.2567 -1.4413  0.5005
 1007MOL0     H38959   4.319   8.530   4.583  2.7950 -0.1389 -0.7606
 1007MOL0     H38960   4.161   8.690   4.681 -0.8668 -1.0737 -0.8083
 1007MOL0     H38961   4.245   8.663   4.842 -0.8994 -0.1247  0.4606
 1007MOL0     H38962   3.928   8.384   4.795 -1.6561  0.6026  0.9162
 1007MOL0     H38963   4.495   7.983   4.868  1.2245 -1.1777  2.6975
 1007MOL0     H38964   4.673   7.792   5.045  1.6969 -0.8731  0.1139
 1007MOL0     H38965   4.560   7.770   4.907 -0.2246  0.8542  0.8096
 1007MOL0     H38966   4.726   7.714   4.898  0.5408 -1.1136  1.4247
 1008MOL0     O38967   3.816   9.992   6.732  0.5442 -0.2137 -0.4659
 1008MOL0     C38968   3.849   9.974   6.851  1.0284 -0.4028 -0.2666
 1008MOL0     O38969   3.976   9.982   6.897 -0.7418 -0.0937  0.3164
 1008MOL0     C38970   4.060  10.050   6.814  0.4271  0.3493  0.5630
 1008MOL0     C38971   4.189   9.999   6.787  0.9225 -0.7766 -0.1023
 1008MOL0     C38972   4.286  10.072   6.716  0.8139 -0.4448  0.1643
 1008MOL0     C38973   4.260  10.210   6.678 -0.1169  1.1399  0.1793
 1008MOL0     O38974   4.352  10.283   6.614  0.6424 -0.1074  0.3362
 1008MOL0     C38975   4.322  10.391   6.537 -0.2882 -1.2508 -0.5444
 1008MOL0     C38976   4.437  10.405   6.437  0.4749 -0.2800 -0.0160
 1008MOL0     C38977   4.401  10.526   6.345 -0.0621  0.6549  0.1224
 1008MOL0     C38978   4.489  10.524   6.224 -0.2606  0.3720  0.6094
 1008MOL0     C38979   4.439  10.445   6.101  0.1631 -0.3719  1.0685
 1008MOL0     C38980   4.526  10.454   5.977 -0.5669 -0.6134  0.2132
 1008MOL0     C38981   4.495  10.333   5.883  0.2460  0.1236  0.8006
 1008MOL0     C38982   4.547  10.355   5.740 -0.0461 -0.1789 -0.4499
 1008MOL0     N38983   4.692  10.360   5.749  0.1590  0.1850  0.0750
 1008MOL0     C38984   4.786  10.254   5.756  0.5359  0.2463 -0.0211
 1008MOL0     C38985   4.906  10.316   5.762 -0.1844  0.9119 -0.5264
 1008MOL0     C38986   5.023  10.229   5.784  0.3579 -0.0329 -0.0502
 1008MOL0     C38987   5.151  10.295   5.821 -0.2860  0.1547  0.1941
 1008MOL0     C38988   5.154  10.350   5.965  0.3130 -0.3799  0.0274
 1008MOL0     C38989   5.287  10.359   6.035  0.7242 -0.3169 -0.2135
 1008MOL0     O38990   5.373  10.443   5.961  0.0084  0.1502  0.0676
 1008MOL0     C38991   5.509  10.424   5.979 -0.5239 -0.5158 -0.0123
 1008MOL0     C38992   5.585  10.505   5.897 -0.0591  0.0737 -0.3736
 1008MOL0     C38993   5.722  10.515   5.905 -0.8214  0.2580  0.3765
 1008MOL0     C38994   5.792  10.602   5.806 -0.5018 -0.3650 -0.2645
 1008MOL0     C38995   5.791  10.421   5.993 -0.2032 -0.2127  0.4181
 1008MOL0     C38996   5.943  10.426   6.013  0.1734  0.0361  0.6853
 1008MOL0     O38997   5.992  10.549   6.053 -0.0461  0.2735 -0.2128
 1008MOL0     C38998   6.128  10.566   6.072  0.0606 -0.3102  0.3125
 1008MOL0     C38999   6.201  10.487   6.155  0.4359 -0.1375  0.6054
 1008MOL0     C39000   6.341  10.511   6.173  0.8406 -0.6717  0.5092
 1008MOL0     C39001   6.404  10.607   6.102  0.0057 -1.6933 -0.4912
 1008MOL0     O39002   6.538  10.608   6.119  1.2043 -0.2305 -0.4831
 1008MOL0     C39003   6.618  10.617   6.002  0.5712  0.3691  0.5221
 1008MOL0     C39004   6.748  10.540   6.030  0.0160  0.3426 -0.3482
 1008MOL0     C39005   6.833  10.621   6.128  0.6681  1.2193  0.5466
 1008MOL0     C39006   6.972  10.556   6.158 -0.1292 -0.3621 -0.3410
 1008MOL0     C39007   6.963  10.442   6.263 -0.8404  0.2004 -0.2025
 1008MOL0     C39008   6.934  10.498   6.408 -0.2949  0.6808  0.5263
 1008MOL0     C39009   7.045  10.591   6.472 -0.5155 -0.6172 -0.7600
 1008MOL0     C39010   7.029  10.602   6.621  0.2650 -0.6193  0.9660
 1008MOL0    Cl39011   6.855  10.639   6.655  0.4853 -0.1252 -0.1321
 1008MOL0     C39012   6.325  10.687   6.008  0.6080  0.1801 -0.0832
 1008MOL0     C39013   6.191  10.664   5.991  0.5492  0.6370  0.4536
 1008MOL0     O39014   6.007  10.325   6.011  0.0348  0.4241 -0.0292
 1008MOL0     C39015   5.711  10.336   6.073  0.3759  0.1685 -0.0705
 1008MOL0     C39016   5.573  10.346   6.072 -0.1846  0.4842 -0.8337
 1008MOL0     N39017   4.892  10.451   5.767 -0.2011  0.0958 -0.8528
 1008MOL0     N39018   4.765  10.473   5.763 -0.3215 -0.4601  0.3031
 1008MOL0     C39019   4.131  10.256   6.711 -0.6320 -0.3551  0.9180
 1008MOL0     C39020   4.034  10.178   6.774  0.4922 -0.2969 -0.3821
 1008MOL0     C39021   3.756   9.936   6.957  0.2662 -0.2699  0.3153
 1008MOL0     C39022   3.795   9.831   7.031 -0.2043  0.5415 -0.3893
 1008MOL0     C39023   3.720   9.781   7.135 -0.2133 -0.1537  0.2360
 1008MOL0     C39024   3.598   9.838   7.167 -1.2964 -0.1795  0.3876
 1008MOL0     O39025   3.519   9.783   7.261 -0.1325 -0.6112 -0.7846
 1008MOL0     C39026   3.393   9.835   7.313 -0.6710 -0.3295  0.0521
 1008MOL0     C39027   3.418   9.933   7.425 -0.9785 -0.5270 -0.1003
 1008MOL0     C39028   3.303   9.994   7.502 -0.2820 -0.1719 -0.1688
 1008MOL0     C39029   3.336  10.118   7.581 -0.4403 -0.6010  0.0206
 1008MOL0     C39030   3.215  10.166   7.653 -0.5030  0.3845 -0.1282
 1008MOL0     C39031   3.113  10.209   7.709  0.9192  0.4329 -0.0270
 1008MOL0     C39032   3.564   9.943   7.089 -0.0144 -0.4325  0.3775
 1008MOL0     C39033   3.641   9.997   6.994 -0.6425 -0.3204  0.1214
 1008MOL0     C39034   3.607  10.120   6.916  0.2924 -0.0517  0.0454
 1008MOL0     H39035   4.204   9.901   6.831  2.1353  0.4882  2.4599
 1008MOL0     H39036   4.382  10.024   6.699 -0.5813 -3.5840  0.4749
 1008MOL0     H39037   4.316  10.479   6.602 -0.7047 -0.4187 -1.6618
 1008MOL0     H39038   4.228  10.378   6.483  0.6894 -1.9660 -2.1440
 1008MOL0     H39039   4.532  10.412   6.489  0.7999 -0.5759 -0.5672
 1008MOL0     H39040   4.442  10.317   6.373  0.1689  1.6936 -2.9724
 1008MOL0     H39041   4.296  10.516   6.316 -0.0243 -1.3476  0.5763
 1008MOL0     H39042   4.411  10.616   6.407  0.9360  1.0656 -0.6052
 1008MOL0     H39043   4.510  10.625   6.188  2.8633 -0.0352  1.0216
 1008MOL0     H39044   4.585  10.482   6.256 -0.7823 -0.2987  1.3450
 1008MOL0     H39045   4.341  10.478   6.066 -0.2218 -2.2377  0.2373
 1008MOL0     H39046   4.419  10.338   6.111  0.6902 -0.7193 -0.9841
 1008MOL0     H39047   4.478  10.537   5.925 -1.2141 -1.3670 -0.4129
 1008MOL0     H39048   4.631  10.459   6.008 -1.0783 -2.3417  2.4502
 1008MOL0     H39049   4.386  10.318   5.880 -0.1253  2.5144  0.1928
 1008MOL0     H39050   4.541  10.240   5.919  1.0433 -0.4120 -1.4306
 1008MOL0     H39051   4.502  10.279   5.675  0.7729 -1.7138  0.6993
 1008MOL0     H39052   4.509  10.449   5.700 -0.3522 -0.7925 -1.6215
 1008MOL0     H39053   4.759  10.149   5.751  2.2374 -0.1553 -2.1335
 1008MOL0     H39054   5.043  10.166   5.697  1.2790 -3.9599  2.7544
 1008MOL0     H39055   5.000  10.168   5.872 -0.3335  1.2363  0.6730
 1008MOL0     H39056   5.237  10.228   5.810  0.6134  1.6132 -2.7210
 1008MOL0     H39057   5.182  10.372   5.750  1.5993  0.3424  1.1591
 1008MOL0     H39058   5.111  10.450   5.970  2.0216  0.3536  4.0979
 1008MOL0     H39059   5.093  10.287   6.031  0.6215 -1.3421 -0.5858
 1008MOL0     H39060   5.279  10.387   6.140 -1.7339 -1.1925 -0.0994
 1008MOL0     H39061   5.319  10.255   6.041  1.5832  0.0311  1.8495
 1008MOL0     H39062   5.526  10.574   5.837 -0.5648  0.5475  0.6381
 1008MOL0     H39063   5.897  10.612   5.837 -1.1288  1.4611  1.4545
 1008MOL0     H39064   5.755  10.704   5.806 -1.3446 -0.6560  0.6983
 1008MOL0     H39065   5.779  10.556   5.707 -1.4533 -1.0915  0.1848
 1008MOL0     H39066   6.145  10.414   6.212 -1.2176  1.0657  0.5891
 1008MOL0     H39067   6.395  10.440   6.235  3.0766  0.9347  0.5043
 1008MOL0     H39068   6.568  10.575   5.915  1.3324  2.4585 -1.0050
 1008MOL0     H39069   6.640  10.720   5.975 -1.8974  0.4079 -1.7267
 1008MOL0     H39070   6.729  10.442   6.075 -0.1569  0.0540 -1.0381
 1008MOL0     H39071   6.808  10.540   5.938 -1.0901 -0.1999 -1.0859
 1008MOL0     H39072   6.770  10.636   6.216  1.0990 -1.0453  1.2934
 1008MOL0     H39073   6.843  10.722   6.086  1.6625 -0.3485 -3.4344
 1008MOL0     H39074   7.051  10.628   6.180  1.1769 -1.4328 -1.3147
 1008MOL0     H39075   7.003  10.505   6.066  0.7139  1.0465 -0.8602
 1008MOL0     H39076   6.898  10.357   6.239 -0.7760  0.0622  0.1097
 1008MOL0     H39077   7.066  10.407   6.265  0.1363  2.8965  0.7165
 1008MOL0     H39078   6.926  10.416   6.480  0.8347 -0.7421 -0.8910
 1008MOL0     H39079   6.835  10.544   6.412 -2.0280 -2.8144  2.9786
 1008MOL0     H39080   7.042  10.692   6.432  0.5258  0.4477  1.6469
 1008MOL0     H39081   7.141  10.547   6.444  0.9749  2.9534 -1.7435
 1008MOL0     H39082   7.096  10.679   6.660  0.4257 -0.7369  0.9204
 1008MOL0     H39083   7.065  10.507   6.661  2.7429 -0.5499 -0.8553
 1008MOL0     H39084   6.367  10.760   5.939 -2.9996  4.1049  1.4470
 1008MOL0     H39085   6.134  10.717   5.915  0.3274 -0.0618  0.1259
 1008MOL0     H39086   5.759  10.267   6.141  1.0374 -0.0025 -0.7040
 1008MOL0     H39087   5.511  10.282   6.134 -0.5418  0.1571 -1.5039
 1008MOL0     H39088   4.108  10.361   6.703  2.2046  0.2385 -1.0289
 1008MOL0     H39089   3.938  10.227   6.781 -0.7041 -1.8317 -4.0258
 1008MOL0     H39090   3.880   9.766   7.012 -0.2635 -0.3270  2.0120
 1008MOL0     H39091   3.762   9.700   7.194  1.5223  0.3806 -0.2075
 1008MOL0     H39092   3.329   9.895   7.246 -0.9069 -0.3041  0.2960
 1008MOL0     H39093   3.325   9.751   7.328 -2.2586  0.0249 -3.8709
 1008MOL0     H39094   3.464  10.017   7.372  0.8775 -1.7156 -0.4476
 1008MOL0     H39095   3.492   9.892   7.494  0.1970  0.4893 -0.7067
 1008MOL0     H39096   3.222  10.018   7.432 -0.2242 -1.4092 -0.6767
 1008MOL0     H39097   3.267   9.914   7.567 -0.9262  2.6443  3.2090
 1008MOL0     H39098   3.363  10.189   7.503 -0.8010 -1.4060 -0.8589
 1008MOL0     H39099   3.421  10.086   7.643 -0.6530  1.1652  1.2992
 1008MOL0     H39100   3.027  10.256   7.752  2.1915  0.7282  2.3564
 1008MOL0     H39101   3.468   9.990   7.111  0.0971  1.7214 -3.0860
 1008MOL0     H39102   3.588  10.203   6.985  2.1603 -0.0567  0.5978
 1008MOL0     H39103   3.688  10.157   6.852  1.1660  1.7863  2.0872
 1008MOL0     H39104   3.520  10.103   6.851  0.8528  2.3812 -1.4814
 1009MOL0     O39105   2.147   4.657   2.165 -0.2523  0.0944 -0.5265
 1009MOL0     C39106   2.035   4.662   2.227 -0.0015 -0.5423 -0.5453
 1009MOL0     O39107   2.000   4.749   2.317  0.5332  0.1867 -0.1771
 1009MOL0     C39108   2.087   4.844   2.371  0.7019  0.0979  0.3755
 1009MOL0     C39109   2.038   4.972   2.404  1.1467  0.0333  0.8679
 1009MOL0     C39110   2.118   5.079   2.454  1.2032  0.7702  0.5831
 1009MOL0     C39111   2.255   5.054   2.455 -0.0005 -0.0100  0.0283
 1009MOL0     O39112   2.347   5.145   2.497 -0.0328 -0.7140 -0.2104
 1009MOL0     C39113   2.361   5.243   2.386  0.1574 -0.1557 -0.3894
 1009MOL0     C39114   2.483   5.334   2.404 -0.6929  0.5396  1.0892
 1009MOL0     C39115   2.611   5.254   2.404  0.1451  0.5436 -0.4856
 1009MOL0     C39116   2.678   5.262   2.552  0.1224  0.5912  0.7037
 1009MOL0     C39117   2.826   5.211   2.553 -0.1767  0.4892  0.2299
 1009MOL0     C39118   2.898   5.279   2.670 -0.1298 -0.8824  0.0409
 1009MOL0     C39119   3.042   5.249   2.655 -1.1524  0.7730 -0.1766
 1009MOL0     C39120   3.108   5.318   2.538 -0.3826 -0.2651  0.4562
 1009MOL0     N39121   3.246   5.294   2.548 -0.3109 -0.3751  0.3133
 1009MOL0     C39122   3.335   5.356   2.627 -0.1220 -0.6851 -0.0558
 1009MOL0     C39123   3.448   5.277   2.623 -0.7041 -0.0642 -0.0954
 1009MOL0     C39124   3.576   5.299   2.709  0.1565 -0.1531  0.4544
 1009MOL0     C39125   3.692   5.210   2.658 -0.0346 -0.3501  0.4791
 1009MOL0     C39126   3.823   5.228   2.740 -0.2632 -0.3117  0.0267
 1009MOL0     C39127   3.924   5.135   2.675 -0.0254 -0.2014 -0.6751
 1009MOL0     O39128   3.952   5.166   2.541 -0.4389  0.4053 -0.0208
 1009MOL0     C39129   4.051   5.258   2.508 -0.3429  0.0046  0.1845
 1009MOL0     C39130   4.182   5.250   2.552 -0.0933  0.2847 -0.5556
 1009MOL0     C39131   4.286   5.323   2.498 -0.8939  0.7110 -1.0748
 1009MOL0     C39132   4.429   5.289   2.558  0.3784 -0.8261 -0.1387
 1009MOL0     C39133   4.263   5.426   2.409 -0.4941  0.0440 -0.5665
 1009MOL0     C39134   4.359   5.532   2.361 -0.2702 -0.4623 -0.1734
 1009MOL0     O39135   4.306   5.634   2.285  0.2676 -0.3781  0.0586
 1009MOL0     C39136   4.379   5.736   2.238  0.3635 -0.0673  0.4354
 1009MOL0     C39137   4.501   5.724   2.170 -0.1220 -0.7470  0.4567
 1009MOL0     C39138   4.568   5.836   2.114 -0.2582 -0.1250 -0.3546
 1009MOL0     C39139   4.506   5.957   2.123  0.2768 -0.5590 -0.1702
 1009MOL0     O39140   4.558   6.075   2.075 -0.5330 -0.0173  0.3505
 1009MOL0     C39141   4.695   6.088   2.059 -0.1837 -0.6369  0.2703
 1009MOL0     C39142   4.704   6.239   2.047  0.1225  0.4210  0.5952
 1009MOL0     C39143   4.842   6.279   2.001  0.0247  0.0243 -0.0931
 1009MOL0     C39144   4.856   6.430   1.971 -0.8180  0.5697 -0.0394
 1009MOL0     C39145   4.996   6.446   1.898  0.9461 -0.0655  0.6755
 1009MOL0     C39146   4.989   6.574   1.805 -0.2924 -0.3509 -0.6100
 1009MOL0     C39147   5.136   6.593   1.761  0.3021 -0.1275  0.3849
 1009MOL0     C39148   5.139   6.651   1.620  0.7312 -0.0499  0.9846
 1009MOL0    Cl39149   5.113   6.835   1.613  0.4730  0.4225  0.5319
 1009MOL0     C39150   4.379   5.978   2.191 -0.2141  0.0976  0.0174
 1009MOL0     C39151   4.315   5.864   2.241 -0.1426  0.0747  0.3168
 1009MOL0     O39152   4.483   5.514   2.385  0.9282 -0.4187  0.0940
 1009MOL0     C39153   4.126   5.435   2.366 -0.7836 -0.0746 -0.3948
 1009MOL0     C39154   4.025   5.354   2.414  0.0671 -0.0117  0.2662
 1009MOL0     N39155   3.426   5.182   2.529 -0.2092  0.3309 -0.7120
 1009MOL0     N39156   3.307   5.190   2.484 -0.1708 -0.0917 -0.2150
 1009MOL0     C39157   2.308   4.928   2.427 -1.1660  0.0658  0.1091
 1009MOL0     C39158   2.217   4.818   2.399  0.5362  0.2143  0.2520
 1009MOL0     C39159   1.946   4.565   2.190  1.0300  0.6562 -0.7205
 1009MOL0     C39160   1.814   4.603   2.159 -0.6190 -0.2761 -0.1278
 1009MOL0     C39161   1.716   4.514   2.120 -0.3920  0.2742  0.1079
 1009MOL0     C39162   1.755   4.379   2.092 -0.8551  0.7501 -0.0018
 1009MOL0     O39163   1.676   4.275   2.044 -0.4079 -0.1264  0.1416
 1009MOL0     C39164   1.555   4.313   1.979 -0.6390  0.3457  0.2055
 1009MOL0     C39165   1.491   4.188   1.919  0.1377  0.7063  0.2163
 1009MOL0     C39166   1.339   4.207   1.881  0.5307 -0.3469  0.5917
 1009MOL0     C39167   1.242   4.202   1.988  1.6050 -0.4001 -0.7481
 1009MOL0     C39168   1.141   4.318   1.987 -1.0116 -0.4564 -0.1115
 1009MOL0     C39169   1.054   4.402   2.004  0.2354  0.7889  0.3055
 1009MOL0     C39170   1.884   4.337   2.134  0.0347 -0.2724 -0.1182
 1009MOL0     C39171   1.981   4.426   2.179 -0.0082  1.2524  0.1488
 1009MOL0     C39172   2.111   4.363   2.208 -0.9618 -0.3978 -0.7961
 1009MOL0     H39173   1.935   4.987   2.373  1.9812 -0.8158 -2.8549
 1009MOL0     H39174   2.077   5.178   2.473  1.4021  0.7013  1.4152
 1009MOL0     H39175   2.282   5.318   2.375  2.1887  2.2064  0.4081
 1009MOL0     H39176   2.376   5.184   2.295 -1.1342  0.2117 -0.8702
 1009MOL0     H39177   2.495   5.402   2.320  0.6220 -2.1563 -1.0719
 1009MOL0     H39178   2.468   5.390   2.497 -0.3039  1.7912  0.4240
 1009MOL0     H39179   2.587   5.147   2.397  2.2549 -0.2140  2.1766
 1009MOL0     H39180   2.683   5.290   2.330  0.3194  0.7633 -0.2123
 1009MOL0     H39181   2.674   5.367   2.580 -0.6695  0.7777 -0.0583
 1009MOL0     H39182   2.618   5.199   2.619  0.7185 -1.2145 -0.3704
 1009MOL0     H39183   2.865   5.255   2.461  1.3276 -1.6024 -0.2150
 1009MOL0     H39184   2.836   5.102   2.559 -1.2574  0.0920 -3.2836
 1009MOL0     H39185   2.893   5.388   2.668  1.2579 -0.8087 -1.1648
 1009MOL0     H39186   2.870   5.244   2.770 -0.5919 -1.0352 -0.1347
 1009MOL0     H39187   3.061   5.142   2.647 -1.6636  0.2339  3.8850
 1009MOL0     H39188   3.095   5.278   2.746  2.4589 -0.7202 -1.6157
 1009MOL0     H39189   3.076   5.280   2.441  1.2059  0.8767 -0.5606
 1009MOL0     H39190   3.077   5.423   2.532 -2.3229 -0.8594 -2.0347
 1009MOL0     H39191   3.314   5.441   2.691 -1.6171 -0.0131 -1.3737
 1009MOL0     H39192   3.555   5.289   2.816  1.7741  0.4151  0.8466
 1009MOL0     H39193   3.595   5.406   2.698 -1.7481  0.5985  3.2715
 1009MOL0     H39194   3.660   5.105   2.657  1.4388 -0.8906 -2.9101
 1009MOL0     H39195   3.708   5.228   2.551  0.2522 -3.6196 -0.1424
 1009MOL0     H39196   3.857   5.330   2.722  0.7532 -0.8890 -1.5042
 1009MOL0     H39197   3.814   5.206   2.847 -0.8668  0.3079  0.1119
 1009MOL0     H39198   4.014   5.138   2.736 -0.1167  0.5664 -0.5619
 1009MOL0     H39199   3.884   5.034   2.687 -0.1001 -0.0030  0.9786
 1009MOL0     H39200   4.203   5.185   2.636  2.9901  0.6325 -0.9521
 1009MOL0     H39201   4.487   5.240   2.478  1.3254  1.8168 -1.2016
 1009MOL0     H39202   4.417   5.218   2.639 -3.2967 -0.0203  0.1754
 1009MOL0     H39203   4.477   5.379   2.598 -2.6929  0.2029  1.5030
 1009MOL0     H39204   4.541   5.623   2.161 -0.9507 -0.8857 -3.6853
 1009MOL0     H39205   4.668   5.834   2.072  0.9257  2.8971  1.9993
 1009MOL0     H39206   4.747   6.057   2.150  1.0489  0.7141  0.0696
 1009MOL0     H39207   4.730   6.031   1.973 -0.6290  0.8319 -0.9308
 1009MOL0     H39208   4.622   6.276   1.985  1.1146 -0.8997 -1.6189
 1009MOL0     H39209   4.693   6.281   2.148 -1.3186 -0.6790  0.9360
 1009MOL0     H39210   4.878   6.218   1.917 -2.0703  1.4390 -2.1670
 1009MOL0     H39211   4.909   6.269   2.087  0.8109  0.7988 -0.5957
 1009MOL0     H39212   4.840   6.488   2.062 -1.8326  0.7986 -0.3561
 1009MOL0     H39213   4.774   6.459   1.905 -0.5837  0.5857 -0.3261
 1009MOL0     H39214   5.074   6.469   1.970  0.1143  3.4941  0.6171
 1009MOL0     H39215   5.016   6.355   1.841  0.3381 -1.1755  2.1623
 1009MOL0     H39216   4.958   6.661   1.864 -1.9870 -1.5197  0.3087
 1009MOL0     H39217   4.932   6.561   1.713  2.1927 -0.6152 -2.2264
 1009MOL0     H39218   5.192   6.499   1.769  1.3555  0.3537 -1.0086
 1009MOL0     H39219   5.189   6.663   1.826  0.6399  0.5176 -0.5678
 1009MOL0     H39220   5.081   6.597   1.544 -0.6122  0.1550  1.8341
 1009MOL0     H39221   5.242   6.632   1.589  0.0260 -0.3933 -1.3402
 1009MOL0     H39222   4.321   6.069   2.203 -0.0250 -0.0675  2.7986
 1009MOL0     H39223   4.217   5.863   2.289  0.5137 -2.8029  1.8220
 1009MOL0     H39224   4.092   5.515   2.301  0.5492  1.7130  1.0039
 1009MOL0     H39225   3.928   5.361   2.367 -1.6771 -0.2949  3.5370
 1009MOL0     H39226   2.413   4.905   2.443 -0.9968  0.0213 -0.9766
 1009MOL0     H39227   2.254   4.718   2.384 -1.7806 -1.3826  3.9036
 1009MOL0     H39228   1.788   4.706   2.180 -0.9196  0.1103 -2.1750
 1009MOL0     H39229   1.612   4.539   2.105 -0.2841  0.6040 -0.0905
 1009MOL0     H39230   1.488   4.364   2.049 -1.2377  2.0119 -1.4965
 1009MOL0     H39231   1.573   4.391   1.905  3.4247  1.4889  2.1154
 1009MOL0     H39232   1.513   4.103   1.985  4.1714  1.1930 -0.2642
 1009MOL0     H39233   1.542   4.167   1.824 -0.0937 -0.0722  0.2539
 1009MOL0     H39234   1.327   4.301   1.827  0.9790  1.8155  3.9778
 1009MOL0     H39235   1.309   4.127   1.813  0.9423 -0.0805  0.0902
 1009MOL0     H39236   1.293   4.202   2.085 -2.3510  3.9361  1.7825
 1009MOL0     H39237   1.186   4.108   1.979 -0.5110  0.7410 -0.3766
 1009MOL0     H39238   0.974   4.472   2.023  1.5212  1.8504  2.1495
 1009MOL0     H39239   1.911   4.233   2.116  0.2496 -0.0398 -1.2111
 1009MOL0     H39240   2.104   4.264   2.254  0.1438 -0.2750 -0.3106
 1009MOL0     H39241   2.160   4.344   2.112 -0.8745 -1.3228 -0.5810
 1009MOL0     H39242   2.171   4.432   2.268 -1.6945 -0.5222  0.1028
 1010MOL0     O39243  11.127   0.055   9.191 -0.7684  0.2338 -0.4891
 1010MOL0     C39244  11.124   0.031   9.070  0.0324 -1.1201  0.2826
 1010MOL0     O39245  11.236   0.002   8.980  0.7210 -0.0897  0.1464
 1010MOL0     C39246  11.365  -0.007   9.030 -0.1500  0.1862 -0.7525
 1010MOL0     C39247  11.395  -0.043   9.164  0.0338  0.2539 -0.4331
 1010MOL0     C39248  11.531  -0.049   9.203 -0.9404  0.6435  0.0467
 1010MOL0     C39249  11.637  -0.020   9.119 -0.1043 -0.5850 -0.6609
 1010MOL0     O39250  11.768   0.003   9.155 -0.1460  0.0847  0.0535
 1010MOL0     C39251  11.811  -0.032   9.286 -0.2546  0.0184 -0.1861
 1010MOL0     C39252  11.963  -0.040   9.282  0.8160  0.8739 -0.8126
 1010MOL0     C39253  12.013  -0.068   9.429 -0.4652 -1.3363  0.1931
 1010MOL0     C39254  12.159  -0.041   9.458  0.9638 -0.0531  0.0256
 1010MOL0     C39255  12.210   0.092   9.397  0.8619 -0.4458 -0.1498
 1010MOL0     C39256  12.342   0.158   9.462  0.6040  0.7257  0.9258
 1010MOL0     C39257  12.334   0.215   9.601  0.2050  0.0700  0.5972
 1010MOL0     C39258  12.442   0.318   9.640 -0.5955 -0.5480  0.5750
 1010MOL0     N39259  12.552   0.247   9.709  0.0878 -0.6265  0.4214
 1010MOL0     C39260  12.610   0.280   9.826  0.7688 -0.0696 -1.1633
 1010MOL0     C39261  12.719   0.199   9.846  0.2201  0.1268 -0.3416
 1010MOL0     C39262  12.804   0.204   9.974  0.2869 -0.1541  0.4973
 1010MOL0     C39263  12.944   0.250   9.938  0.3154 -0.5035  0.1004
 1010MOL0     C39264  13.049   0.218  10.051  0.3930  0.5773 -0.2151
 1010MOL0     C39265  13.188   0.222   9.982  0.3226  0.2143  0.2956
 1010MOL0     O39266  13.216   0.103   9.913 -0.0833  0.0671 -0.2124
 1010MOL0     C39267  13.337   0.055   9.904 -0.7869  0.7379  0.2597
 1010MOL0     C39268  13.353  -0.085   9.905 -0.1039 -0.4000 -0.1082
 1010MOL0     C39269  13.479  -0.153   9.892  0.0528  0.3163  0.2498
 1010MOL0     C39270  13.472  -0.303   9.891 -0.5393 -0.4538  0.8376
 1010MOL0     C39271  13.596  -0.066   9.879 -0.5772  0.0825  0.4611
 1010MOL0     C39272  13.731  -0.122   9.883 -0.7901 -0.3182 -0.2501
 1010MOL0     O39273  13.750  -0.253   9.917 -0.1717  0.0473 -0.2924
 1010MOL0     C39274  13.866  -0.323   9.895 -0.2315 -0.3240 -0.4017
 1010MOL0     C39275  13.855  -0.464   9.904 -0.1778 -1.2902  0.3313
 1010MOL0     C39276  13.970  -0.546   9.901 -0.3212  0.0112 -0.3795
 1010MOL0     C39277  14.099  -0.501   9.873 -0.7328 -0.6685  0.3165
 1010MOL0     O39278  14.210  -0.582   9.876 -0.1580 -0.4229  0.9684
 1010MOL0     C39279  14.210  -0.694   9.960  0.9756 -0.4897  0.3552
 1010MOL0     C39280  14.354  -0.741   9.971  0.2573  0.4948  0.4845
 1010MOL0     C39281  14.378  -0.879  10.029 -0.5804 -0.0496 -0.3724
 1010MOL0     C39282  14.352  -0.869  10.184 -0.3236  0.8835 -0.0712
 1010MOL0     C39283  14.348  -1.014  10.243  0.3108 -0.3338 -0.9546
 1010MOL0     C39284  14.450  -1.109  10.205 -0.8470 -0.0997 -0.3769
 1010MOL0     C39285  14.444  -1.239  10.282 -1.0575  0.5638 -0.6080
 1010MOL0     C39286  14.311  -1.313  10.299 -1.0891  0.2721  0.0528
 1010MOL0    Cl39287  14.320  -1.463  10.395 -0.2166 -0.2538 -0.4395
 1010MOL0     C39288  14.110  -0.356   9.859  0.8638  0.8153 -0.1844
 1010MOL0     C39289  13.995  -0.271   9.872  0.2393  0.5535 -0.0245
 1010MOL0     O39290  13.819  -0.044   9.836  0.1197  0.6486  0.0807
 1010MOL0     C39291  13.574   0.071   9.870  0.9690 -0.4998  0.0521
 1010MOL0     C39292  13.445   0.130   9.876 -0.7200 -0.1598 -0.1438
 1010MOL0     N39293  12.722   0.112   9.745  0.4960  0.2421  0.6608
 1010MOL0     N39294  12.626   0.140   9.656  0.3229  0.1687  0.0621
 1010MOL0     C39295  11.610   0.001   8.987  0.9547  1.0427  0.6029
 1010MOL0     C39296  11.475   0.007   8.946 -0.4109 -0.1843 -0.4154
 1010MOL0     C39297  10.993   0.006   9.011  0.3635 -0.2874  0.7148
 1010MOL0     C39298  10.896   0.106   9.008  0.7737 -0.1116  0.1398
 1010MOL0     C39299  10.776   0.082   8.927  0.9382  0.1228 -0.2327
 1010MOL0     C39300  10.755  -0.043   8.864  0.0126 -0.0225  0.5401
 1010MOL0     O39301  10.639  -0.073   8.800 -0.0943  0.1613  0.5819
 1010MOL0     C39302  10.656  -0.105   8.662  0.2267 -0.3153 -0.0400
 1010MOL0     C39303  10.530  -0.156   8.608  0.6406  0.6516 -0.3498
 1010MOL0     C39304  10.420  -0.048   8.583 -0.7832 -0.0418  0.5972
 1010MOL0     C39305  10.368   0.031   8.709  0.0436  0.9568 -0.0185
 1010MOL0     C39306  10.239   0.085   8.678  0.6681  0.1124  0.5680
 1010MOL0     C39307  10.127   0.114   8.681  0.7364 -0.8011  0.5743
 1010MOL0     C39308  10.853  -0.136   8.881  0.0193  0.2301 -0.7495
 1010MOL0     C39309  10.967  -0.122   8.955  0.6578 -0.6147 -0.9318
 1010MOL0     C39310  11.051  -0.243   8.971  0.0774 -0.1121 -1.0184
 1010MOL0     H39311  11.323  -0.069   9.241 -0.3549  0.2579 -0.7932
 1010MOL0     H39312  11.541  -0.077   9.307 -2.9482  0.0579  0.1232
 1010MOL0     H39313  11.772  -0.130   9.313  1.9048 -1.1122 -0.9595
 1010MOL0     H39314  11.785   0.048   9.356  1.0858  0.0125  0.3502
 1010MOL0     H39315  11.979  -0.125   9.215 -0.7362 -0.8031  0.8279
 1010MOL0     H39316  12.017   0.042   9.234  2.4380 -0.0362 -0.6244
 1010MOL0     H39317  11.967   0.009   9.493 -0.0706 -0.6603 -0.3274
 1010MOL0     H39318  11.983  -0.165   9.469  0.0294 -1.7927 -0.5413
 1010MOL0     H39319  12.169  -0.037   9.567 -1.6190  2.4907  0.2906
 1010MOL0     H39320  12.219  -0.124   9.419 -1.2541 -1.1799 -1.1753
 1010MOL0     H39321  12.126   0.161   9.406 -0.6355 -1.5307 -3.7592
 1010MOL0     H39322  12.228   0.067   9.292 -0.5501  1.9662 -1.0448
 1010MOL0     H39323  12.420   0.082   9.467 -0.5021 -0.5623 -0.2859
 1010MOL0     H39324  12.371   0.229   9.383  2.9526 -2.2483 -1.0823
 1010MOL0     H39325  12.324   0.128   9.667  2.3203 -0.6820  0.0147
 1010MOL0     H39326  12.237   0.266   9.599 -0.2121 -0.7245 -0.3360
 1010MOL0     H39327  12.485   0.366   9.551 -1.2662 -2.3744 -0.7947
 1010MOL0     H39328  12.409   0.398   9.707 -0.6666  0.7453 -0.9512
 1010MOL0     H39329  12.588   0.356   9.900  0.5489  0.2792 -1.5810
 1010MOL0     H39330  12.795   0.098   9.999  0.3734 -1.0271 -2.7818
 1010MOL0     H39331  12.755   0.272  10.045 -1.0021 -1.5926  1.0399
 1010MOL0     H39332  12.981   0.184   9.859  0.4973 -3.4929  2.4762
 1010MOL0     H39333  12.939   0.352   9.901 -1.5727 -0.1565  1.1714
 1010MOL0     H39334  13.039   0.303  10.119 -2.3183 -0.2476  0.5430
 1010MOL0     H39335  13.030   0.122  10.099  0.5969  0.4862 -0.3161
 1010MOL0     H39336  13.193   0.302   9.907  3.8402  0.8233  0.9838
 1010MOL0     H39337  13.273   0.251  10.044 -0.9370 -0.9215  2.7131
 1010MOL0     H39338  13.259  -0.137   9.916 -0.7659  0.5222 -1.1779
 1010MOL0     H39339  13.533  -0.353   9.815 -0.3736  0.0472  0.6361
 1010MOL0     H39340  13.369  -0.338   9.877  0.0431 -1.5307 -1.0770
 1010MOL0     H39341  13.506  -0.329   9.992 -0.8893 -0.2706  1.0068
 1010MOL0     H39342  13.759  -0.513   9.922  0.1560 -1.5584  1.4900
 1010MOL0     H39343  13.945  -0.647   9.932  0.8358 -0.0146  0.5581
 1010MOL0     H39344  14.170  -0.664  10.057 -0.5420 -1.2530  0.0071
 1010MOL0     H39345  14.142  -0.768   9.915 -0.9943  0.2499  1.9542
 1010MOL0     H39346  14.396  -0.734   9.870  0.0317 -0.8661  0.2747
 1010MOL0     H39347  14.406  -0.668  10.034 -0.8103 -0.9657  3.2052
 1010MOL0     H39348  14.477  -0.923  10.013 -0.5803 -0.6937  1.1984
 1010MOL0     H39349  14.314  -0.953   9.981  0.1931 -1.8395  1.1949
 1010MOL0     H39350  14.256  -0.820  10.200 -0.6000  0.6748 -1.0535
 1010MOL0     H39351  14.430  -0.815  10.239 -0.0572  0.7506 -0.3167
 1010MOL0     H39352  14.352  -1.017  10.352  1.1832  0.9983 -0.9354
 1010MOL0     H39353  14.247  -1.049  10.218 -0.2812 -0.3732  1.2673
 1010MOL0     H39354  14.555  -1.077  10.210 -0.9360  0.0711  0.8425
 1010MOL0     H39355  14.432  -1.131  10.099  0.0201  2.5612 -1.1655
 1010MOL0     H39356  14.488  -1.223  10.381 -0.3926  0.0577 -0.8093
 1010MOL0     H39357  14.517  -1.312  10.244  0.8201  0.1917  3.2454
 1010MOL0     H39358  14.272  -1.320  10.198  1.1687 -0.5486 -0.8347
 1010MOL0     H39359  14.242  -1.249  10.355 -3.8724 -3.0103  0.6778
 1010MOL0     H39360  14.206  -0.309   9.842  1.6775 -0.3019  1.0904
 1010MOL0     H39361  14.017  -0.166   9.883  3.9703  0.3245 -3.1489
 1010MOL0     H39362  13.660   0.135   9.852 -0.2063  0.4932 -2.6035
 1010MOL0     H39363  13.443   0.238   9.864 -0.5684  0.0323  1.3351
 1010MOL0     H39364  11.685   0.018   8.910 -1.1610 -0.6277 -1.9944
 1010MOL0     H39365  11.457   0.019   8.839 -0.7025  0.9352 -0.2525
 1010MOL0     H39366  10.907   0.193   9.072 -0.6324  0.0040  0.2550
 1010MOL0     H39367  10.704   0.162   8.913  0.1294 -1.0576 -3.8284
 1010MOL0     H39368  10.687  -0.014   8.611  1.1665 -0.1350  0.8151
 1010MOL0     H39369  10.737  -0.177   8.650 -1.0270 -2.1829  1.8631
 1010MOL0     H39370  10.492  -0.227   8.682 -2.3399  2.2669 -0.1642
 1010MOL0     H39371  10.549  -0.201   8.510 -1.8328  2.0772 -1.5532
 1010MOL0     H39372  10.444   0.021   8.502 -1.4153 -1.3677 -0.7645
 1010MOL0     H39373  10.338  -0.111   8.549 -2.1545  1.2226  1.3925
 1010MOL0     H39374  10.434   0.106   8.751  0.9218 -0.2152  0.7641
 1010MOL0     H39375  10.366  -0.043   8.790 -1.7651 -2.0843 -2.5684
 1010MOL0     H39376  10.031   0.158   8.698  0.3023 -2.2198  2.1290
 1010MOL0     H39377  10.845  -0.237   8.843  0.6327  0.4509 -1.5115
 1010MOL0     H39378  11.157  -0.224   8.950  0.4629 -0.2842  0.6562
 1010MOL0     H39379  11.031  -0.284   9.070  0.0944  0.5950 -0.7148
 1010MOL0     H39380  11.025  -0.319   8.896  0.5345 -1.4655  0.1624
 1011MOL0     O39381   0.808   4.247   4.935  0.0852 -0.2247 -0.1302
 1011MOL0     C39382   0.763   4.332   5.012  0.1186 -0.2385 -0.2174
 1011MOL0     O39383   0.846   4.413   5.098  0.1594  0.4619  0.4444
 1011MOL0     C39384   0.983   4.392   5.119 -0.1912  0.6861  1.1781
 1011MOL0     C39385   1.068   4.287   5.066 -0.1500 -0.1376 -0.0009
 1011MOL0     C39386   1.206   4.285   5.087  0.4183 -0.9714  0.1935
 1011MOL0     C39387   1.269   4.392   5.155  0.3545 -0.5102  0.2918
 1011MOL0     O39388   1.404   4.385   5.168 -0.2786 -0.3768  0.2308
 1011MOL0     C39389   1.465   4.511   5.206 -0.1620  1.2097  0.1625
 1011MOL0     C39390   1.627   4.498   5.219 -0.3965 -0.0181  0.0324
 1011MOL0     C39391   1.674   4.484   5.077 -0.7272 -0.6312  0.0122
 1011MOL0     C39392   1.831   4.467   5.082 -0.3223  0.4639 -0.3110
 1011MOL0     C39393   1.900   4.476   4.948 -0.0073  0.8701  0.2974
 1011MOL0     C39394   1.910   4.614   4.873  0.0312  0.4814  0.4687
 1011MOL0     C39395   2.007   4.605   4.754  1.5706 -0.3687 -0.5530
 1011MOL0     C39396   2.154   4.607   4.792  0.0468  0.5442  0.3787
 1011MOL0     N39397   2.239   4.625   4.671 -0.8589 -0.1110 -0.5674
 1011MOL0     C39398   2.273   4.742   4.607 -0.8945 -0.6315 -0.8788
 1011MOL0     C39399   2.365   4.712   4.511 -0.0906 -0.4248  0.2005
 1011MOL0     C39400   2.425   4.804   4.413  0.4413  0.0832 -0.5601
 1011MOL0     C39401   2.572   4.843   4.436  0.3371  0.1312 -0.4630
 1011MOL0     C39402   2.672   4.725   4.439 -0.0333  0.3845  0.3185
 1011MOL0     C39403   2.819   4.779   4.458 -0.2852  0.7335  0.2730
 1011MOL0     O39404   2.852   4.856   4.345 -0.2378  0.0398 -0.4861
 1011MOL0     C39405   2.985   4.858   4.300 -0.1739  0.1332  0.0918
 1011MOL0     C39406   3.008   4.787   4.186  0.0426 -0.4189  0.3562
 1011MOL0     C39407   3.134   4.781   4.129  0.0756 -0.3718 -0.1263
 1011MOL0     C39408   3.151   4.699   4.006  0.2772 -0.1658  0.2750
 1011MOL0     C39409   3.240   4.853   4.203  0.7488  0.0128  0.2396
 1011MOL0     C39410   3.383   4.867   4.146  0.1310  0.0912  0.2625
 1011MOL0     O39411   3.472   4.935   4.226 -0.0183  0.3062  0.0598
 1011MOL0     C39412   3.596   4.961   4.169 -0.2609 -0.0434 -0.3637
 1011MOL0     C39413   3.704   4.869   4.170 -0.1911  0.0154  0.1400
 1011MOL0     C39414   3.822   4.902   4.097  0.0632 -0.0261 -0.6754
 1011MOL0     C39415   3.832   5.024   4.030 -0.0623 -0.2497 -0.0108
 1011MOL0     O39416   3.931   5.081   3.950 -0.0849  1.0842 -0.1399
 1011MOL0     C39417   4.044   4.984   3.911 -0.0826 -0.5522  0.4589
 1011MOL0     C39418   4.176   5.048   3.951 -0.8679 -0.1314  0.4748
 1011MOL0     C39419   4.224   5.162   3.850  0.4236 -0.3496 -0.2820
 1011MOL0     C39420   4.361   5.204   3.922  0.6374 -0.6890  0.0194
 1011MOL0     C39421   4.435   5.318   3.854 -0.3663 -0.2123 -0.4124
 1011MOL0     C39422   4.368   5.454   3.866 -0.6127 -0.0889  0.5501
 1011MOL0     C39423   4.475   5.564   3.848  0.3778  0.1569  0.2375
 1011MOL0     C39424   4.422   5.698   3.899  0.4606  0.1605 -0.2976
 1011MOL0    Cl39425   4.421   5.705   4.075  0.1459  0.2973  0.0006
 1011MOL0     C39426   3.729   5.118   4.040  0.3604  0.1455  0.1596
 1011MOL0     C39427   3.613   5.090   4.112  0.1120  0.3089 -0.5887
 1011MOL0     O39428   3.399   4.823   4.030  0.4009 -0.3988 -0.6804
 1011MOL0     C39429   3.210   4.926   4.321  0.2732  0.1005 -0.1634
 1011MOL0     C39430   3.079   4.926   4.375  0.8995 -0.0530  0.1983
 1011MOL0     N39431   2.377   4.576   4.510 -0.0351  1.1813  0.4590
 1011MOL0     N39432   2.310   4.527   4.601  0.7433 -0.2945 -0.7370
 1011MOL0     C39433   1.183   4.488   5.210 -0.4127 -0.5365  0.2708
 1011MOL0     C39434   1.044   4.489   5.192 -0.5516 -1.1296  1.0606
 1011MOL0     C39435   0.623   4.385   5.009 -0.5585  0.0633  0.8865
 1011MOL0     C39436   0.585   4.496   5.097  0.2965  0.4785 -0.0191
 1011MOL0     C39437   0.457   4.550   5.085 -0.1326 -0.3999  0.2171
 1011MOL0     C39438   0.362   4.501   4.997  0.3296 -0.1718  0.4777
 1011MOL0     O39439   0.245   4.568   4.994  0.8111 -0.4226  0.2028
 1011MOL0     C39440   0.251   4.699   4.932 -0.3497  0.4754  0.7561
 1011MOL0     C39441   0.207   4.682   4.778 -0.3633  0.0302 -0.4652
 1011MOL0     C39442   0.072   4.614   4.758  0.4134 -0.2864 -0.0767
 1011MOL0     C39443   0.034   4.604   4.611  0.0614 -0.0594  0.1995
 1011MOL0     C39444   0.109   4.507   4.533 -1.1336  0.0414 -0.4105
 1011MOL0     C39445   0.179   4.425   4.482 -0.2922 -0.0214  0.1938
 1011MOL0     C39446   0.398   4.401   4.907 -0.0048  0.1081  0.3896
 1011MOL0     C39447   0.525   4.346   4.910  0.4278 -1.1807 -0.1271
 1011MOL0     C39448   0.544   4.242   4.808  0.2973 -0.1159 -0.1644
 1011MOL0     H39449   1.026   4.210   5.003 -0.2400  2.3007 -3.1911
 1011MOL0     H39450   1.275   4.204   5.064  3.5309  1.0582  1.7320
 1011MOL0     H39451   1.426   4.532   5.306 -1.9228 -1.9990  0.2772
 1011MOL0     H39452   1.431   4.585   5.134 -2.8086 -2.5252 -2.8074
 1011MOL0     H39453   1.669   4.592   5.254 -0.0864  1.1501 -3.1836
 1011MOL0     H39454   1.651   4.416   5.288  0.5605 -2.4876 -3.0105
 1011MOL0     H39455   1.623   4.396   5.036 -3.0088 -0.5853  2.4629
 1011MOL0     H39456   1.648   4.576   5.023  3.6923  1.3065  0.7891
 1011MOL0     H39457   1.874   4.542   5.150 -0.4663 -1.6001  2.2232
 1011MOL0     H39458   1.861   4.376   5.135 -2.5825 -1.0205 -1.3877
 1011MOL0     H39459   1.854   4.405   4.879  2.9428  0.5225 -1.4815
 1011MOL0     H39460   2.006   4.449   4.958 -0.5765 -2.3189 -1.0127
 1011MOL0     H39461   1.806   4.635   4.846  0.1948  0.9541  0.1846
 1011MOL0     H39462   1.942   4.700   4.932 -0.1270  1.6051 -1.0325
 1011MOL0     H39463   1.980   4.692   4.694 -0.2603  0.0934  0.8556
 1011MOL0     H39464   1.985   4.506   4.712  1.4329 -2.2773  3.5828
 1011MOL0     H39465   2.169   4.690   4.862 -1.6025  1.8324 -0.6910
 1011MOL0     H39466   2.177   4.513   4.842 -2.7453 -0.6534 -0.3506
 1011MOL0     H39467   2.233   4.839   4.635 -0.8316 -0.7448 -0.3976
 1011MOL0     H39468   2.380   4.904   4.416  3.6059  1.6762 -1.0968
 1011MOL0     H39469   2.415   4.766   4.311  0.2682 -2.3229  0.2846
 1011MOL0     H39470   2.605   4.904   4.351  0.1808 -0.2309 -0.7882
 1011MOL0     H39471   2.576   4.901   4.529 -0.6554 -1.7107  0.7913
 1011MOL0     H39472   2.645   4.657   4.520  0.0687  2.4923  2.2278
 1011MOL0     H39473   2.664   4.668   4.347  1.6603 -0.5117  0.6777
 1011MOL0     H39474   2.825   4.844   4.546 -3.1524 -0.9311  1.8268
 1011MOL0     H39475   2.886   4.693   4.468 -0.6306  0.4014 -0.2215
 1011MOL0     H39476   2.922   4.757   4.127  1.9537 -0.6103 -2.5496
 1011MOL0     H39477   3.059   4.657   3.966  0.5182  0.4972 -1.0477
 1011MOL0     H39478   3.239   4.638   4.028  0.9187  1.4446  2.5844
 1011MOL0     H39479   3.182   4.763   3.923 -0.0339 -0.2226  0.1159
 1011MOL0     H39480   3.699   4.778   4.229  0.5691  0.5293  1.0184
 1011MOL0     H39481   3.906   4.833   4.097  1.0979  1.0710  2.3210
 1011MOL0     H39482   4.021   4.879   3.935 -0.7362  0.0946  3.0152
 1011MOL0     H39483   4.047   4.973   3.803  0.6535  1.6836  0.2235
 1011MOL0     H39484   4.177   5.078   4.056 -0.6302  0.7406  0.2261
 1011MOL0     H39485   4.254   4.972   3.936 -1.2152 -0.0195 -2.4056
 1011MOL0     H39486   4.143   5.234   3.834 -0.1983 -0.7374  1.0355
 1011MOL0     H39487   4.257   5.124   3.753  2.5527 -1.9212  0.9856
 1011MOL0     H39488   4.430   5.120   3.911  1.6881  0.0947  0.3914
 1011MOL0     H39489   4.353   5.235   4.026  1.2980  2.0851 -0.6604
 1011MOL0     H39490   4.535   5.318   3.898 -0.5160  1.1121 -0.0303
 1011MOL0     H39491   4.437   5.292   3.748  2.2004 -4.5356  0.4682
 1011MOL0     H39492   4.323   5.463   3.966 -1.0988 -2.5038  0.6077
 1011MOL0     H39493   4.287   5.463   3.794 -0.3482 -0.1869  0.2371
 1011MOL0     H39494   4.496   5.580   3.742 -0.7351 -0.5232 -0.1007
 1011MOL0     H39495   4.566   5.549   3.907 -0.9632  0.2181  2.4593
 1011MOL0     H39496   4.316   5.711   3.877  0.4865 -1.4072 -1.4923
 1011MOL0     H39497   4.479   5.782   3.859 -1.3575  0.2078 -3.0505
 1011MOL0     H39498   3.730   5.216   3.995 -3.1074 -0.3230 -1.2311
 1011MOL0     H39499   3.538   5.168   4.120 -1.7393 -1.3986 -0.5623
 1011MOL0     H39500   3.286   4.985   4.372  1.1081 -0.0731 -1.1788
 1011MOL0     H39501   3.057   4.984   4.464  2.1599  0.6615  0.0632
 1011MOL0     H39502   1.228   4.564   5.273  0.1350 -3.8619  4.2910
 1011MOL0     H39503   0.988   4.567   5.242  1.2564  1.6816 -0.9704
 1011MOL0     H39504   0.650   4.540   5.172 -2.8622  1.0663  2.6597
 1011MOL0     H39505   0.437   4.638   5.145  0.4549 -1.0682  1.4213
 1011MOL0     H39506   0.181   4.770   4.977 -3.0777 -0.3216 -1.8975
 1011MOL0     H39507   0.352   4.740   4.943 -0.6582  1.2931  0.5806
 1011MOL0     H39508   0.284   4.629   4.721 -1.5066 -1.6222 -0.5687
 1011MOL0     H39509   0.208   4.783   4.736  0.1353  0.5934  0.8509
 1011MOL0     H39510   0.070   4.511   4.795 -3.4701 -0.4601 -0.4020
 1011MOL0     H39511   0.006   4.677   4.817 -0.7934 -1.9824  0.4447
 1011MOL0     H39512   0.030   4.703   4.564 -4.9842  0.2375  0.6710
 1011MOL0     H39513  -0.070   4.569   4.616  0.5799 -1.5417  1.2130
 1011MOL0     H39514   0.242   4.341   4.461 -1.0185 -0.5864  0.2137
 1011MOL0     H39515   0.316   4.364   4.846  0.1846 -0.2346  0.3428
 1011MOL0     H39516   0.587   4.149   4.846  3.7062  1.7628  0.9978
 1011MOL0     H39517   0.456   4.211   4.750 -0.1514 -0.0858  0.4917
 1011MOL0     H39518   0.618   4.279   4.736 -3.2024  3.5244 -2.2683
 1012MOL0     O39519   2.171   1.768   9.079 -0.0487 -0.5607  0.1918
 1012MOL0     C39520   2.168   1.819   8.960 -0.4042 -0.3053  0.1998
 1012MOL0     O39521   2.267   1.906   8.904 -0.2750  0.3344 -0.0779
 1012MOL0     C39522   2.366   1.918   8.993  0.7485 -1.2533 -1.1582
 1012MOL0     C39523   2.479   1.836   8.996  0.1275  0.5851  0.6855
 1012MOL0     C39524   2.566   1.835   9.100 -0.9374  0.2714 -0.4592
 1012MOL0     C39525   2.556   1.921   9.208  0.6363 -0.1143 -0.3952
 1012MOL0     O39526   2.635   1.922   9.321 -0.2705  0.0080 -0.1360
 1012MOL0     C39527   2.779   1.893   9.301  0.2783 -0.2243  0.1937
 1012MOL0     C39528   2.860   1.954   9.422  0.0251 -0.1200  0.0140
 1012MOL0     C39529   2.998   1.884   9.437 -0.1904 -0.2662 -0.0314
 1012MOL0     C39530   3.092   1.969   9.533 -0.4154  0.1226  0.2239
 1012MOL0     C39531   3.238   1.951   9.470 -0.5455 -0.2941  0.2475
 1012MOL0     C39532   3.346   2.051   9.523  0.3828 -0.3230  0.3969
 1012MOL0     C39533   3.470   2.027   9.447 -0.3341  0.0159 -0.4078
 1012MOL0     C39534   3.597   2.115   9.481  0.1752  0.2756 -0.0055
 1012MOL0     N39535   3.722   2.055   9.434 -0.0205  0.4426 -0.3435
 1012MOL0     C39536   3.766   2.059   9.305 -0.1520 -0.4177  0.1367
 1012MOL0     C39537   3.903   2.043   9.316  0.1320 -0.1723  0.0244
 1012MOL0     C39538   4.003   2.064   9.203  0.0543 -0.0701 -0.3044
 1012MOL0     C39539   4.071   1.930   9.175 -0.1285 -0.7335  0.3264
 1012MOL0     C39540   4.168   1.924   9.066 -0.2804 -0.2978  0.8674
 1012MOL0     C39541   4.275   2.029   9.088 -0.0003  0.5052 -0.2714
 1012MOL0     O39542   4.386   2.006   9.004 -0.1971  0.2692  0.0546
 1012MOL0     C39543   4.471   2.110   8.981 -0.8263 -0.0621 -0.0070
 1012MOL0     C39544   4.496   2.218   9.068 -0.2930  0.2618 -0.4690
 1012MOL0     C39545   4.577   2.322   9.035 -1.1012 -0.5717 -0.7274
 1012MOL0     C39546   4.579   2.445   9.124  0.2125  0.5110  0.6827
 1012MOL0     C39547   4.651   2.322   8.907  1.0248 -0.4267 -0.2294
 1012MOL0     C39548   4.733   2.424   8.848  0.0810  0.2370 -0.6776
 1012MOL0     O39549   4.839   2.467   8.923  0.4098 -0.1382  0.1464
 1012MOL0     C39550   4.912   2.577   8.885 -0.3306  0.0288  0.5220
 1012MOL0     C39551   5.039   2.593   8.951 -0.6067  0.0084  0.3731
 1012MOL0     C39552   5.119   2.706   8.920  0.1322  0.2615  0.8672
 1012MOL0     C39553   5.086   2.790   8.813 -0.0994 -0.3067 -0.3434
 1012MOL0     O39554   5.174   2.883   8.773 -0.1561  0.0296 -0.4253
 1012MOL0     C39555   5.131   2.995   8.697 -0.1016  0.6954  0.1832
 1012MOL0     C39556   5.234   3.110   8.695  0.3140 -0.1092  0.3979
 1012MOL0     C39557   5.380   3.063   8.682 -0.9341  0.1858 -0.1330
 1012MOL0     C39558   5.464   3.185   8.658 -0.7396 -0.3012 -0.3118
 1012MOL0     C39559   5.601   3.141   8.627 -0.8360  0.3689  0.7196
 1012MOL0     C39560   5.703   3.265   8.604  0.2262  1.0069  0.2762
 1012MOL0     C39561   5.681   3.343   8.478 -0.0482  0.2248 -0.0056
 1012MOL0     C39562   5.764   3.474   8.481 -0.6784  0.1279  0.1910
 1012MOL0    Cl39563   5.940   3.436   8.485 -0.2793 -0.2246 -0.2853
 1012MOL0     C39564   4.967   2.786   8.752  1.0562  0.4196  0.3606
 1012MOL0     C39565   4.874   2.682   8.789 -0.0079  1.7321 -0.7892
 1012MOL0     O39566   4.722   2.444   8.731  0.1656 -0.3323 -0.2005
 1012MOL0     C39567   4.637   2.201   8.826  0.7577  0.2718 -0.3796
 1012MOL0     C39568   4.552   2.099   8.873  0.1203  0.3340  0.1365
 1012MOL0     N39569   3.933   2.024   9.449  0.4100  0.7698  0.0249
 1012MOL0     N39570   3.826   2.037   9.517  0.3584  0.4611  0.4093
 1012MOL0     C39571   2.442   2.010   9.212 -0.3195  0.0732 -0.6835
 1012MOL0     C39572   2.353   2.008   9.101 -0.0608 -0.4015 -0.1322
 1012MOL0     C39573   2.059   1.804   8.861  0.2988 -0.5241 -0.8521
 1012MOL0     C39574   2.089   1.832   8.720  0.1891  0.7692  0.3487
 1012MOL0     C39575   1.984   1.826   8.629 -0.5615 -0.3787 -0.0863
 1012MOL0     C39576   1.852   1.794   8.664  0.7887 -0.4741 -0.1347
 1012MOL0     O39577   1.754   1.802   8.566 -0.0876 -0.0477  0.2758
 1012MOL0     C39578   1.608   1.797   8.592 -0.7741 -0.0101  0.1660
 1012MOL0     C39579   1.557   1.653   8.602  0.7321 -0.1061 -0.3406
 1012MOL0     C39580   1.406   1.650   8.609 -0.3470 -0.0736 -0.3748
 1012MOL0     C39581   1.367   1.668   8.758  0.5569  1.3162  0.1554
 1012MOL0     C39582   1.237   1.599   8.777 -0.4914  0.0689 -0.5136
 1012MOL0     C39583   1.128   1.551   8.786  0.2482  0.3424  0.2935
 1012MOL0     C39584   1.832   1.758   8.797 -0.8898  0.6369  0.1248
 1012MOL0     C39585   1.924   1.767   8.893 -0.0721 -0.7074 -0.4601
 1012MOL0     C39586   1.877   1.743   9.030 -0.1405  0.1059 -0.0342
 1012MOL0     H39587   2.492   1.762   8.917  2.6859 -0.3683  1.8752
 1012MOL0     H39588   2.643   1.760   9.106 -0.6460  0.6807  2.0947
 1012MOL0     H39589   2.812   1.948   9.213  1.0208  0.6700  0.9978
 1012MOL0     H39590   2.801   1.789   9.275 -0.3384  0.2217 -2.3923
 1012MOL0     H39591   2.868   2.058   9.390 -0.1742  0.3192  1.3566
 1012MOL0     H39592   2.797   1.937   9.509 -0.4895  0.6837 -0.1928
 1012MOL0     H39593   2.984   1.785   9.480 -0.5088 -0.6908 -1.0976
 1012MOL0     H39594   3.039   1.883   9.336 -1.0174  0.9335 -0.4078
 1012MOL0     H39595   3.054   2.071   9.527 -0.7225  0.0025  0.1012
 1012MOL0     H39596   3.084   1.925   9.633  1.2661 -0.3836  0.1625
 1012MOL0     H39597   3.241   1.973   9.362 -2.3902 -0.0803  0.2105
 1012MOL0     H39598   3.272   1.848   9.485 -1.5792 -1.0405 -2.1206
 1012MOL0     H39599   3.313   2.154   9.509  0.8794 -0.5597 -4.1177
 1012MOL0     H39600   3.363   2.032   9.629  3.8951  1.1510  0.2395
 1012MOL0     H39601   3.456   2.018   9.339 -0.2385  0.4634 -0.4603
 1012MOL0     H39602   3.512   1.935   9.489  1.4451  2.8160  4.8594
 1012MOL0     H39603   3.588   2.213   9.435  1.7001 -0.3310 -1.6855
 1012MOL0     H39604   3.607   2.134   9.589  2.0881  0.5289 -0.2064
 1012MOL0     H39605   3.713   2.081   9.212  1.4875  0.6957 -0.5870
 1012MOL0     H39606   4.075   2.139   9.237  1.7771 -2.0339  0.5988
 1012MOL0     H39607   3.953   2.097   9.112 -3.1271  0.9893  1.6304
 1012MOL0     H39608   4.118   1.894   9.268 -1.4612 -1.1287  0.8712
 1012MOL0     H39609   3.993   1.854   9.169 -1.5783  0.6608  0.7728
 1012MOL0     H39610   4.204   1.821   9.059  1.8164  0.3383  1.5894
 1012MOL0     H39611   4.115   1.953   8.975  0.8431 -1.8484 -0.3407
 1012MOL0     H39612   4.226   2.126   9.081 -0.8943 -0.0450 -2.2524
 1012MOL0     H39613   4.309   2.029   9.192 -0.7756 -0.4448 -0.0062
 1012MOL0     H39614   4.442   2.215   9.162  0.7570 -1.1918  0.1191
 1012MOL0     H39615   4.648   2.520   9.084  2.8671 -2.3445 -0.5454
 1012MOL0     H39616   4.623   2.420   9.221 -1.8150 -1.8663  1.0643
 1012MOL0     H39617   4.480   2.484   9.148 -0.5857 -1.2711  0.4320
 1012MOL0     H39618   5.066   2.526   9.032  1.3653 -0.2640 -0.4533
 1012MOL0     H39619   5.212   2.727   8.971  1.4494  1.9609 -1.9813
 1012MOL0     H39620   5.134   2.969   8.591  0.9431 -2.4138  0.8809
 1012MOL0     H39621   5.037   3.033   8.740 -1.5902 -0.0019 -2.2572
 1012MOL0     H39622   5.212   3.176   8.610 -0.2378  0.8593  1.2657
 1012MOL0     H39623   5.234   3.165   8.789 -0.7542  0.5612  0.0198
 1012MOL0     H39624   5.402   2.993   8.600 -1.2996  0.9909 -0.9441
 1012MOL0     H39625   5.409   3.016   8.776 -0.4545  1.6850  0.4995
 1012MOL0     H39626   5.459   3.252   8.745  1.0422 -0.9886  0.3629
 1012MOL0     H39627   5.421   3.236   8.572 -0.7976  1.5874  0.7901
 1012MOL0     H39628   5.627   3.089   8.719  0.3250  1.1787  0.8754
 1012MOL0     H39629   5.613   3.067   8.548 -1.8567 -2.1500  2.8149
 1012MOL0     H39630   5.807   3.231   8.598 -0.0040  0.0562  1.1533
 1012MOL0     H39631   5.683   3.339   8.682  1.5900  0.9977  0.6489
 1012MOL0     H39632   5.577   3.377   8.475  0.6662  2.4970 -1.8925
 1012MOL0     H39633   5.693   3.287   8.385  1.8968 -2.1316  1.5088
 1012MOL0     H39634   5.741   3.550   8.557 -0.2128  1.1758 -0.7048
 1012MOL0     H39635   5.748   3.521   8.384  1.4180 -0.7323 -0.6333
 1012MOL0     H39636   4.924   2.855   8.679  2.4516  1.1147  0.1507
 1012MOL0     H39637   4.781   2.684   8.732 -1.3769 -1.0984  1.0911
 1012MOL0     H39638   4.693   2.192   8.733 -0.5183 -1.4258 -1.0287
 1012MOL0     H39639   4.530   2.014   8.810 -2.2400 -0.2100  1.5999
 1012MOL0     H39640   2.429   2.087   9.287  0.9229  1.0852 -1.4437
 1012MOL0     H39641   2.271   2.079   9.108  0.7515  0.4026  2.2423
 1012MOL0     H39642   2.180   1.873   8.676 -0.0466  0.4156 -0.4904
 1012MOL0     H39643   2.010   1.852   8.527 -0.0053  0.4126  0.2486
 1012MOL0     H39644   1.589   1.860   8.679  3.9432 -0.7360  2.0594
 1012MOL0     H39645   1.554   1.852   8.515  1.1180  0.9990 -0.5147
 1012MOL0     H39646   1.603   1.607   8.690  0.7636 -0.9743 -0.7970
 1012MOL0     H39647   1.576   1.596   8.510 -1.1890  1.8837 -2.0960
 1012MOL0     H39648   1.369   1.724   8.537  2.9100  2.2677  0.0893
 1012MOL0     H39649   1.380   1.554   8.565 -0.9911  0.8391 -2.0818
 1012MOL0     H39650   1.359   1.773   8.787  2.2131  1.1814  1.2067
 1012MOL0     H39651   1.438   1.611   8.818  1.4011  1.3799 -0.7549
 1012MOL0     H39652   1.032   1.510   8.811  0.2876 -0.2168 -0.4202
 1012MOL0     H39653   1.734   1.715   8.811  0.4212 -3.1194 -1.2108
 1012MOL0     H39654   1.777   1.698   9.033  0.4522 -1.4022 -1.2085
 1012MOL0     H39655   1.940   1.666   9.077  0.3008 -1.3108 -2.7143
 1012MOL0     H39656   1.877   1.828   9.098 -4.2169 -0.4514  0.9222
 1013MOL0     O39657   1.724   2.299   1.465 -0.0726  0.2659  0.8164
 1013MOL0     C39658   1.712   2.398   1.544 -0.0073 -0.4424  0.2583
 1013MOL0     O39659   1.801   2.436   1.643  0.9116  0.5768  0.2756
 1013MOL0     C39660   1.918   2.365   1.642 -0.6466 -0.2431 -0.2440
 1013MOL0     C39661   1.932   2.222   1.665 -0.2131  0.3229 -0.5292
 1013MOL0     C39662   2.060   2.160   1.660 -1.0564  0.4304  0.3531
 1013MOL0     C39663   2.173   2.237   1.645  0.2312 -0.3961  0.9809
 1013MOL0     O39664   2.292   2.184   1.631 -0.9157  0.0053 -0.9231
 1013MOL0     C39665   2.351   2.094   1.728  0.6180  0.0233  0.2392
 1013MOL0     C39666   2.478   2.021   1.675  0.1351 -0.2672  0.5881
 1013MOL0     C39667   2.608   2.103   1.662  0.5913  0.5351 -0.0713
 1013MOL0     C39668   2.737   2.027   1.649  0.3739  0.0609 -0.4961
 1013MOL0     C39669   2.852   2.132   1.664  0.4608 -0.0010  0.2728
 1013MOL0     C39670   2.986   2.061   1.688 -0.1898  0.3633  0.6500
 1013MOL0     C39671   3.110   2.148   1.684  0.3590  0.1370  0.1740
 1013MOL0     C39672   3.133   2.212   1.545  0.8079  0.4132  0.3206
 1013MOL0     N39673   3.262   2.279   1.519  0.2325 -0.2568 -0.3252
 1013MOL0     C39674   3.357   2.322   1.614 -0.6964 -0.7791  0.6276
 1013MOL0     C39675   3.476   2.332   1.553  0.1711 -0.0798 -0.4015
 1013MOL0     C39676   3.609   2.358   1.618  0.4564 -0.5911  0.3318
 1013MOL0     C39677   3.665   2.250   1.699 -0.0728  0.1025  0.0487
 1013MOL0     C39678   3.685   2.111   1.628  0.0017 -0.4001 -0.0372
 1013MOL0     C39679   3.782   2.020   1.702  0.7327  1.2134  0.2162
 1013MOL0     O39680   3.796   1.896   1.619  1.0364  0.0699 -0.9249
 1013MOL0     C39681   3.890   1.806   1.645 -0.3117  0.6020 -0.3344
 1013MOL0     C39682   4.004   1.829   1.737  0.8657  0.5033 -0.2953
 1013MOL0     C39683   4.099   1.725   1.751  0.8388 -0.7268 -0.4951
 1013MOL0     C39684   4.221   1.769   1.831  0.3165  0.5253  0.1000
 1013MOL0     C39685   4.077   1.594   1.700 -0.6777 -1.1006  0.0876
 1013MOL0     C39686   4.164   1.469   1.718 -0.0314  0.5633 -0.0020
 1013MOL0     O39687   4.143   1.360   1.636 -0.6798 -0.0192  0.1095
 1013MOL0     C39688   4.203   1.239   1.671 -0.0239 -0.0818  0.8291
 1013MOL0     C39689   4.291   1.182   1.575 -0.2162  0.0289 -0.3184
 1013MOL0     C39690   4.356   1.060   1.605  0.4667  0.1121  0.7533
 1013MOL0     C39691   4.339   0.991   1.725  0.1990 -0.9280 -0.2124
 1013MOL0     O39692   4.383   0.868   1.756 -1.1193  0.1935  0.5683
 1013MOL0     C39693   4.485   0.807   1.669  0.2287 -0.1780  0.2350
 1013MOL0     C39694   4.498   0.668   1.715 -0.7108  0.7148 -1.0153
 1013MOL0     C39695   4.614   0.586   1.657  0.7990 -0.0645 -0.8605
 1013MOL0     C39696   4.746   0.646   1.710 -0.5635 -0.0920 -0.1912
 1013MOL0     C39697   4.863   0.549   1.700 -0.1352 -0.0792 -0.3502
 1013MOL0     C39698   4.984   0.633   1.735  0.4710  0.2875  0.6650
 1013MOL0     C39699   5.111   0.545   1.755  0.1219 -0.2760  0.1404
 1013MOL0     C39700   5.102   0.431   1.856 -0.2667 -0.8245 -0.4048
 1013MOL0    Cl39701   5.255   0.352   1.877  0.4935  0.1648  0.1313
 1013MOL0     C39702   4.250   1.050   1.818 -0.4722 -0.2175  0.0405
 1013MOL0     C39703   4.186   1.172   1.791 -1.0071  0.0637  0.1167
 1013MOL0     O39704   4.253   1.474   1.802  0.7333 -0.0342  0.3094
 1013MOL0     C39705   3.976   1.580   1.606 -0.3147 -1.0497  0.1023
 1013MOL0     C39706   3.886   1.686   1.576  0.6323 -0.3891  0.5382
 1013MOL0     N39707   3.449   2.308   1.419  0.5718  0.2125  1.0797
 1013MOL0     N39708   3.324   2.278   1.397 -0.0794  0.4004 -0.2855
 1013MOL0     C39709   2.163   2.374   1.635 -0.4785 -0.1927 -0.5944
 1013MOL0     C39710   2.040   2.434   1.628  0.5032 -0.2434 -1.2067
 1013MOL0     C39711   1.594   2.474   1.511 -0.1583  0.0885 -0.0897
 1013MOL0     C39712   1.500   2.419   1.429 -0.5396 -0.5599  0.0954
 1013MOL0     C39713   1.406   2.492   1.363 -0.2790 -0.1658 -0.1804
 1013MOL0     C39714   1.393   2.630   1.387  0.2826 -0.2913  0.6940
 1013MOL0     O39715   1.295   2.705   1.332 -0.3689  0.1488  0.2486
 1013MOL0     C39716   1.336   2.832   1.274 -0.3927  0.4362 -0.4676
 1013MOL0     C39717   1.225   2.891   1.179 -0.5149 -0.4680 -0.1697
 1013MOL0     C39718   1.092   2.907   1.262 -0.0023 -0.1306  0.0854
 1013MOL0     C39719   0.988   2.980   1.186  0.8260  0.9820 -0.2707
 1013MOL0     C39720   1.023   3.116   1.159  0.2068 -0.1326 -0.3605
 1013MOL0     C39721   1.049   3.231   1.148  0.5357  0.0779  0.1604
 1013MOL0     C39722   1.479   2.685   1.479 -0.8982 -0.8156 -0.2252
 1013MOL0     C39723   1.577   2.611   1.545  1.1817  0.6701 -0.2326
 1013MOL0     C39724   1.689   2.684   1.607 -0.1916 -0.4943 -0.0337
 1013MOL0     H39725   1.842   2.165   1.687  1.4132 -2.5429 -0.8746
 1013MOL0     H39726   2.082   2.054   1.656 -1.4884  0.3105 -4.0461
 1013MOL0     H39727   2.274   2.023   1.760 -1.4604  1.5904 -1.0558
 1013MOL0     H39728   2.381   2.163   1.807  3.8480 -1.4726  0.5323
 1013MOL0     H39729   2.496   1.944   1.750  1.0413  0.2550  0.9253
 1013MOL0     H39730   2.449   1.976   1.580 -2.2635  2.0270  0.1097
 1013MOL0     H39731   2.594   2.156   1.567 -0.8673 -0.5170 -0.4773
 1013MOL0     H39732   2.612   2.169   1.749 -0.6465 -1.7170  1.7942
 1013MOL0     H39733   2.746   1.958   1.734  1.3748 -0.1521 -0.7566
 1013MOL0     H39734   2.747   1.964   1.560  1.9369 -1.8340  0.9213
 1013MOL0     H39735   2.839   2.192   1.754 -3.5384 -1.8194  1.1144
 1013MOL0     H39736   2.845   2.199   1.578  0.8343  1.2028  1.1451
 1013MOL0     H39737   2.973   2.000   1.778 -1.7568 -0.5399 -0.1406
 1013MOL0     H39738   2.997   1.988   1.608 -1.3034 -1.6804  2.2476
 1013MOL0     H39739   3.206   2.104   1.714  1.2423  1.4277 -0.6432
 1013MOL0     H39740   3.091   2.225   1.760 -2.4906  0.2744 -0.5994
 1013MOL0     H39741   3.119   2.139   1.464 -0.7767 -0.0666  0.9826
 1013MOL0     H39742   3.058   2.291   1.534  0.4674 -0.1197 -1.7370
 1013MOL0     H39743   3.335   2.331   1.720  1.8266 -0.7586  1.2237
 1013MOL0     H39744   3.605   2.451   1.677 -0.3444 -0.0355 -0.5666
 1013MOL0     H39745   3.685   2.372   1.540 -0.7903 -1.3670 -1.0665
 1013MOL0     H39746   3.755   2.296   1.740  0.6379 -1.2492  0.0624
 1013MOL0     H39747   3.591   2.236   1.778  0.1268  0.2177  0.2578
 1013MOL0     H39748   3.586   2.064   1.625 -0.9973  1.6083 -0.3081
 1013MOL0     H39749   3.718   2.124   1.524  1.9610 -0.8249  0.5080
 1013MOL0     H39750   3.872   2.077   1.727  0.5939 -0.5422  6.6626
 1013MOL0     H39751   3.733   1.987   1.794  1.9299 -0.7638  0.2190
 1013MOL0     H39752   4.003   1.926   1.784 -2.2878 -0.2520  1.3950
 1013MOL0     H39753   4.227   1.698   1.914 -1.0370 -0.0482 -0.2725
 1013MOL0     H39754   4.220   1.865   1.882  4.0177  0.9909 -0.3980
 1013MOL0     H39755   4.316   1.759   1.777  0.4640  2.2193 -0.0093
 1013MOL0     H39756   4.319   1.231   1.482 -0.5985 -0.8000 -0.8777
 1013MOL0     H39757   4.419   1.023   1.525 -0.6646  0.5837 -0.3865
 1013MOL0     H39758   4.453   0.809   1.564 -1.2097  1.5093  0.6512
 1013MOL0     H39759   4.583   0.855   1.663  0.3026 -0.3627 -0.0434
 1013MOL0     H39760   4.504   0.670   1.824  0.0254 -0.5255 -1.0065
 1013MOL0     H39761   4.407   0.612   1.690  0.5044 -2.0785  0.3155
 1013MOL0     H39762   4.611   0.591   1.548  0.2554 -0.6812 -0.8853
 1013MOL0     H39763   4.592   0.483   1.688  0.9410 -0.4024 -1.8414
 1013MOL0     H39764   4.725   0.675   1.814  2.3384  1.3950  0.0972
 1013MOL0     H39765   4.764   0.731   1.643 -3.6195  0.4615 -0.4644
 1013MOL0     H39766   4.854   0.480   1.784  1.3047  3.0532  2.6190
 1013MOL0     H39767   4.873   0.507   1.599 -0.8563 -0.9729 -0.0569
 1013MOL0     H39768   4.962   0.697   1.820 -1.9362 -0.1196  0.4033
 1013MOL0     H39769   5.009   0.709   1.661 -0.7107  2.2177  2.1724
 1013MOL0     H39770   5.186   0.607   1.804  0.6409 -0.6117 -0.2231
 1013MOL0     H39771   5.150   0.511   1.658  0.4445  1.1584 -0.2578
 1013MOL0     H39772   5.041   0.353   1.810  0.6083 -0.5137 -2.2253
 1013MOL0     H39773   5.062   0.459   1.954  0.9249 -1.3519  0.2554
 1013MOL0     H39774   4.221   0.991   1.905  1.7826 -1.1684  0.2023
 1013MOL0     H39775   4.124   1.223   1.864 -1.9657  0.2943 -0.8278
 1013MOL0     H39776   3.945   1.486   1.562 -4.4013  0.6524 -1.0822
 1013MOL0     H39777   3.810   1.682   1.499 -0.0700 -4.3444  1.2575
 1013MOL0     H39778   2.265   2.410   1.623  0.8245 -3.4314 -0.3575
 1013MOL0     H39779   2.027   2.542   1.623 -0.7324 -0.1506  1.8400
 1013MOL0     H39780   1.499   2.313   1.402 -2.1903 -0.6220  0.3041
 1013MOL0     H39781   1.341   2.446   1.289 -1.5708 -1.9540  1.9285
 1013MOL0     H39782   1.365   2.898   1.356  0.6149 -1.7611  1.0442
 1013MOL0     H39783   1.424   2.805   1.214 -1.9318 -0.3993 -2.4660
 1013MOL0     H39784   1.205   2.836   1.086 -1.4833  0.9603 -0.8399
 1013MOL0     H39785   1.270   2.986   1.150 -1.4849 -0.0724 -0.4256
 1013MOL0     H39786   1.054   2.808   1.288  0.2971 -0.1730  0.3592
 1013MOL0     H39787   1.125   2.964   1.349  1.9610 -4.0871  2.2042
 1013MOL0     H39788   0.898   2.982   1.248  0.8920  0.0546 -0.1352
 1013MOL0     H39789   0.972   2.921   1.095 -1.1682  0.8404  0.1083
 1013MOL0     H39790   1.066   3.334   1.124  3.1346  0.2551  2.3573
 1013MOL0     H39791   1.469   2.792   1.494 -0.8822 -0.9153  0.5401
 1013MOL0     H39792   1.647   2.783   1.623 -2.9828 -1.8758  2.0829
 1013MOL0     H39793   1.714   2.651   1.708  1.4825  2.7863  0.7675
 1013MOL0     H39794   1.775   2.682   1.538 -1.0286  0.4109 -1.1467
 1014MOL0     O39795   1.023   3.228   4.493  0.1580  0.6022  0.3387
 1014MOL0     C39796   0.959   3.135   4.544  0.1636 -0.1311 -0.1050
 1014MOL0     O39797   0.827   3.135   4.569  0.5185  0.1592  0.4267
 1014MOL0     C39798   0.753   3.239   4.509 -0.3395 -0.4582 -0.5455
 1014MOL0     C39799   0.686   3.333   4.587 -0.1729 -0.1795  0.3527
 1014MOL0     C39800   0.617   3.438   4.523 -0.4253 -0.7597 -0.0134
 1014MOL0     C39801   0.603   3.448   4.385 -0.2511 -0.0928 -0.2001
 1014MOL0     O39802   0.535   3.544   4.316  0.4456  0.1935 -0.5246
 1014MOL0     C39803   0.501   3.662   4.388  0.8107 -0.2320  0.5110
 1014MOL0     C39804   0.449   3.763   4.280 -0.0561 -0.4810 -0.2176
 1014MOL0     C39805   0.305   3.721   4.251  0.4792 -0.2438 -0.0842
 1014MOL0     C39806   0.246   3.833   4.157  0.8022  0.3692  0.4299
 1014MOL0     C39807   0.231   3.982   4.209  0.6738 -0.9609  0.1276
 1014MOL0     C39808   0.152   4.085   4.124 -0.0164 -0.1199 -0.0263
 1014MOL0     C39809   0.187   4.232   4.141  0.6223 -0.3110 -0.3182
 1014MOL0     C39810   0.106   4.320   4.054 -0.4228 -0.2916  0.5445
 1014MOL0     N39811  -0.037   4.315   4.101 -0.6568 -0.3520  0.4021
 1014MOL0     C39812  -0.082   4.359   4.221  0.7359  0.6033  0.3926
 1014MOL0     C39813  -0.217   4.381   4.211  0.3874 -0.7190 -0.3940
 1014MOL0     C39814  -0.312   4.427   4.319 -0.2881  0.0993 -0.6854
 1014MOL0     C39815  -0.310   4.577   4.336 -0.0245 -0.0304 -0.7249
 1014MOL0     C39816  -0.389   4.662   4.231  0.3284  0.0155 -0.3920
 1014MOL0     C39817  -0.374   4.813   4.251 -0.1263 -0.5879  0.1756
 1014MOL0     O39818  -0.433   4.865   4.367  0.3957 -0.3191 -0.0452
 1014MOL0     C39819  -0.554   4.937   4.355 -0.0024 -0.9197 -0.2202
 1014MOL0     C39820  -0.601   4.999   4.474  0.2872  0.5216 -0.8409
 1014MOL0     C39821  -0.718   5.066   4.486  0.3694 -0.0506  0.2336
 1014MOL0     C39822  -0.761   5.105   4.625  0.0189 -0.9038 -0.8024
 1014MOL0     C39823  -0.800   5.074   4.366 -1.1401 -0.3409  0.1925
 1014MOL0     C39824  -0.924   5.150   4.380  0.0028 -0.1573  1.1157
 1014MOL0     O39825  -1.018   5.129   4.475 -0.3827 -0.3087  0.3767
 1014MOL0     C39826  -1.128   5.211   4.466  0.5274  0.5146 -0.5191
 1014MOL0     C39827  -1.240   5.163   4.392 -0.6385  0.4943  0.0312
 1014MOL0     C39828  -1.360   5.230   4.413 -0.0477  0.5296  0.5625
 1014MOL0     C39829  -1.366   5.349   4.476  0.0366 -0.0228 -0.3387
 1014MOL0     O39830  -1.478   5.421   4.483 -0.1933  0.1895 -0.9161
 1014MOL0     C39831  -1.515   5.489   4.368 -0.1185 -0.1771  0.1119
 1014MOL0     C39832  -1.552   5.626   4.388 -0.3584 -0.1352 -1.2933
 1014MOL0     C39833  -1.424   5.697   4.460  0.8003  0.4575 -1.0541
 1014MOL0     C39834  -1.447   5.846   4.495  0.6304 -0.6958  0.2969
 1014MOL0     C39835  -1.433   5.936   4.370  0.0319 -0.0006 -0.3667
 1014MOL0     C39836  -1.381   6.080   4.408  0.1796  0.4911 -0.1826
 1014MOL0     C39837  -1.238   6.092   4.422 -0.3953 -0.1821 -0.3233
 1014MOL0     C39838  -1.165   6.147   4.291 -0.4716  0.4025  0.1121
 1014MOL0    Cl39839  -0.991   6.153   4.331 -0.1061 -0.2163  0.2121
 1014MOL0     C39840  -1.251   5.399   4.548  0.6973 -0.0516 -0.4494
 1014MOL0     C39841  -1.128   5.329   4.547 -0.2229 -0.4145  0.4564
 1014MOL0     O39842  -0.936   5.232   4.283 -0.2898 -0.1959  0.4346
 1014MOL0     C39843  -0.755   5.021   4.239 -0.5339  0.3458 -0.3985
 1014MOL0     C39844  -0.631   4.949   4.236  0.8128 -0.2648  0.1516
 1014MOL0     N39845  -0.251   4.362   4.076  0.0680 -0.1995  0.0184
 1014MOL0     N39846  -0.143   4.322   4.007  0.6123  0.0506 -0.0738
 1014MOL0     C39847   0.665   3.347   4.304 -0.0735  0.2535  0.0940
 1014MOL0     C39848   0.735   3.240   4.365 -0.2224 -0.2985 -0.7209
 1014MOL0     C39849   1.038   3.025   4.603 -0.2939  0.7044 -0.4742
 1014MOL0     C39850   0.986   2.895   4.597  0.1197 -1.2075  0.1368
 1014MOL0     C39851   1.048   2.790   4.666  0.1477 -0.1515  0.1669
 1014MOL0     C39852   1.162   2.810   4.738 -0.0165  0.9539 -0.0025
 1014MOL0     O39853   1.217   2.696   4.804 -0.2789 -0.0669  0.6750
 1014MOL0     C39854   1.281   2.718   4.931 -0.2703  0.2604 -0.0818
 1014MOL0     C39855   1.188   2.661   5.039 -0.2282  0.4190  0.3077
 1014MOL0     C39856   1.107   2.769   5.114 -0.6751  0.6139 -0.7243
 1014MOL0     C39857   0.957   2.752   5.103  0.9668  0.5293  0.9087
 1014MOL0     C39858   0.901   2.615   5.126 -0.1846 -0.1811 -0.2215
 1014MOL0     C39859   0.829   2.514   5.116 -0.1323 -0.7152  0.3106
 1014MOL0     C39860   1.223   2.936   4.745  0.1860 -0.1829 -0.8110
 1014MOL0     C39861   1.156   3.050   4.677 -0.1544  0.2692 -0.0672
 1014MOL0     C39862   1.203   3.188   4.701  0.5203 -0.0984 -0.5840
 1014MOL0     H39863   0.685   3.333   4.695 -0.6537  2.4444  0.4108
 1014MOL0     H39864   0.570   3.518   4.579 -0.7618 -0.4156 -0.7739
 1014MOL0     H39865   0.590   3.700   4.438  0.6072  0.4912  0.3411
 1014MOL0     H39866   0.422   3.654   4.463  0.3273  1.0548  0.1672
 1014MOL0     H39867   0.456   3.862   4.326  3.8000 -0.2650 -0.9404
 1014MOL0     H39868   0.510   3.772   4.190 -0.3570 -0.4238 -0.4187
 1014MOL0     H39869   0.308   3.624   4.200 -1.2320 -0.6600  0.5668
 1014MOL0     H39870   0.239   3.715   4.338 -1.3734 -0.2663 -1.4418
 1014MOL0     H39871   0.279   3.819   4.054 -2.4722 -1.5702 -0.5139
 1014MOL0     H39872   0.140   3.815   4.138  0.4115  3.7344 -1.2547
 1014MOL0     H39873   0.334   4.018   4.220  0.0754  0.2858  2.3731
 1014MOL0     H39874   0.191   3.997   4.310  3.8127  2.8354  1.0373
 1014MOL0     H39875   0.159   4.053   4.019  1.5788  3.7002 -1.2728
 1014MOL0     H39876   0.045   4.070   4.141 -0.1490  2.2362  1.7437
 1014MOL0     H39877   0.291   4.258   4.120  0.4415  0.3020 -0.4835
 1014MOL0     H39878   0.160   4.259   4.244  2.0283 -0.7405  0.1876
 1014MOL0     H39879   0.142   4.423   4.056 -1.2529 -0.0077  1.2737
 1014MOL0     H39880   0.111   4.278   3.953 -0.5253 -0.0554  0.4397
 1014MOL0     H39881  -0.025   4.359   4.314  0.1757 -1.6298  0.7965
 1014MOL0     H39882  -0.283   4.389   4.417  0.1323 -0.0905 -0.8807
 1014MOL0     H39883  -0.414   4.391   4.299 -0.4526  0.9679 -1.4954
 1014MOL0     H39884  -0.339   4.599   4.439  1.9772  1.2600 -0.3788
 1014MOL0     H39885  -0.210   4.619   4.319  0.3517 -0.5288  0.2253
 1014MOL0     H39886  -0.357   4.646   4.128 -0.2920 -2.3417 -0.2689
 1014MOL0     H39887  -0.494   4.636   4.243  0.9854 -2.2251  1.0771
 1014MOL0     H39888  -0.267   4.812   4.274  0.2103 -4.2577 -0.7957
 1014MOL0     H39889  -0.394   4.866   4.157  3.9859  0.5483 -0.2839
 1014MOL0     H39890  -0.533   4.995   4.558  0.2243  0.9939 -0.7647
 1014MOL0     H39891  -0.670   5.110   4.685 -1.1643 -0.5571  1.0685
 1014MOL0     H39892  -0.832   5.030   4.659 -0.4897 -1.2700 -2.5543
 1014MOL0     H39893  -0.816   5.200   4.624 -0.8742 -1.4089 -1.2781
 1014MOL0     H39894  -1.235   5.075   4.329  0.3402  2.5587 -3.0313
 1014MOL0     H39895  -1.449   5.198   4.360  0.4810 -0.1035  0.0337
 1014MOL0     H39896  -1.433   5.490   4.296 -0.1188  3.2795  0.0367
 1014MOL0     H39897  -1.602   5.433   4.330  0.5051 -1.6564  0.7596
 1014MOL0     H39898  -1.579   5.684   4.299  0.6927  0.9090 -0.9512
 1014MOL0     H39899  -1.639   5.626   4.455  1.2234  0.1683  0.8737
 1014MOL0     H39900  -1.333   5.679   4.401  1.5430 -4.7190  1.1602
 1014MOL0     H39901  -1.407   5.650   4.557 -0.0622  0.0687 -1.0897
 1014MOL0     H39902  -1.387   5.883   4.578 -2.6420 -0.8350  2.9058
 1014MOL0     H39903  -1.554   5.859   4.514  0.7203  2.2839 -0.6157
 1014MOL0     H39904  -1.368   5.881   4.302  1.1623 -1.3627  1.7050
 1014MOL0     H39905  -1.531   5.946   4.323 -2.1033 -0.1297  3.6723
 1014MOL0     H39906  -1.428   6.089   4.507 -1.3547 -3.9694 -0.2724
 1014MOL0     H39907  -1.424   6.163   4.351 -1.0621  2.6895  3.6030
 1014MOL0     H39908  -1.190   5.998   4.451  1.5328  0.1087 -2.3480
 1014MOL0     H39909  -1.214   6.151   4.512  0.6102 -1.3294  0.1894
 1014MOL0     H39910  -1.194   6.248   4.263  0.6417  0.0741 -2.5219
 1014MOL0     H39911  -1.176   6.073   4.211  1.7578 -1.2001  1.1720
 1014MOL0     H39912  -1.256   5.498   4.593  0.1188 -1.1206  2.0358
 1014MOL0     H39913  -1.037   5.367   4.593  0.1288 -1.6906  0.8441
 1014MOL0     H39914  -0.818   5.031   4.151  1.0941 -0.3976 -1.7136
 1014MOL0     H39915  -0.613   4.919   4.133 -1.6448  1.6560 -0.9391
 1014MOL0     H39916   0.657   3.359   4.196 -2.7183  1.7156  0.3688
 1014MOL0     H39917   0.775   3.169   4.293 -1.4962 -2.2329  0.3701
 1014MOL0     H39918   0.895   2.863   4.547  0.4903 -3.1107  0.5735
 1014MOL0     H39919   1.015   2.687   4.663  3.0909 -1.1860 -0.8002
 1014MOL0     H39920   1.368   2.652   4.938 -0.5454 -0.1559 -0.5278
 1014MOL0     H39921   1.304   2.822   4.956 -0.9976  0.6389 -0.9120
 1014MOL0     H39922   1.246   2.611   5.118  1.0745  1.9736  0.4091
 1014MOL0     H39923   1.129   2.583   4.991 -1.2096 -0.9655  3.4617
 1014MOL0     H39924   1.134   2.778   5.220  0.6417  0.0665 -0.9940
 1014MOL0     H39925   1.120   2.870   5.075 -1.7941  0.9954 -0.1693
 1014MOL0     H39926   0.934   2.781   5.000  1.0483  2.7070  1.4631
 1014MOL0     H39927   0.906   2.824   5.167  0.6068  0.7235  0.4095
 1014MOL0     H39928   0.767   2.427   5.106 -2.5246  0.3608  3.8998
 1014MOL0     H39929   1.307   2.966   4.807 -2.0388  0.8989  1.9140
 1014MOL0     H39930   1.252   3.201   4.799  0.5160  0.1397 -0.6129
 1014MOL0     H39931   1.275   3.229   4.629  0.0558  2.6554  0.4133
 1014MOL0     H39932   1.118   3.256   4.704 -0.2005 -1.0045  0.3978
 1015MOL0     O39933   1.436   9.419   0.377 -0.6712 -0.0068  0.3795
 1015MOL0     C39934   1.381   9.441   0.485  0.5591  0.4773 -1.6420
 1015MOL0     O39935   1.424   9.395   0.610 -0.8647  0.1715  0.0954
 1015MOL0     C39936   1.545   9.319   0.608  1.0505  0.1502  0.2362
 1015MOL0     C39937   1.665   9.352   0.541  0.7911 -0.0234 -0.0682
 1015MOL0     C39938   1.769   9.267   0.557 -0.0326  0.0721  0.0206
 1015MOL0     C39939   1.753   9.144   0.623 -0.6511  0.4255 -0.4484
 1015MOL0     O39940   1.869   9.073   0.637 -0.2243  0.6209 -0.4538
 1015MOL0     C39941   1.998   9.136   0.654  0.1246 -0.3525 -0.0623
 1015MOL0     C39942   2.091   9.016   0.688  1.2713  0.3699 -0.1418
 1015MOL0     C39943   2.229   9.066   0.734 -0.7943 -0.0680 -0.0253
 1015MOL0     C39944   2.330   8.951   0.774  1.2735 -0.5156  0.3031
 1015MOL0     C39945   2.471   9.013   0.787  0.0898 -0.0385 -0.1322
 1015MOL0     C39946   2.552   8.910   0.859  0.1290  0.6636  1.3706
 1015MOL0     C39947   2.693   8.954   0.881  0.1890 -0.5384 -0.1016
 1015MOL0     C39948   2.773   8.837   0.940 -0.2081 -0.5699  1.0640
 1015MOL0     N39949   2.919   8.869   0.933 -0.0464 -0.1255 -0.4188
 1015MOL0     C39950   3.006   8.912   1.026 -0.7923  0.1191 -0.1691
 1015MOL0     C39951   3.123   8.952   0.972  0.4201 -0.6747  0.3003
 1015MOL0     C39952   3.231   9.015   1.058  0.0972  0.1967  0.0012
 1015MOL0     C39953   3.370   9.007   1.006  0.0955 -0.1629  0.1586
 1015MOL0     C39954   3.405   9.093   0.879  0.4046  0.3392 -1.2191
 1015MOL0     C39955   3.552   9.118   0.854  0.4903 -0.6040  0.1365
 1015MOL0     O39956   3.609   9.187   0.970 -0.3098  0.8336 -0.0979
 1015MOL0     C39957   3.747   9.211   0.962 -0.4858  0.0460  0.2133
 1015MOL0     C39958   3.827   9.182   0.845  0.3143 -0.1778 -0.3713
 1015MOL0     C39959   3.964   9.191   0.859 -0.2549  0.0614 -0.2041
 1015MOL0     C39960   4.031   9.169   0.734 -0.6313  0.1513  0.2432
 1015MOL0     C39961   4.031   9.235   0.980  0.7563 -0.2325 -0.3462
 1015MOL0     C39962   4.176   9.239   0.994 -0.0373 -0.0639  0.2451
 1015MOL0     O39963   4.218   9.250   1.117  0.3506  0.3593 -0.2937
 1015MOL0     C39964   4.356   9.245   1.155 -0.0813 -0.3924  0.5227
 1015MOL0     C39965   4.468   9.216   1.076 -0.3930  0.3660  0.8380
 1015MOL0     C39966   4.603   9.213   1.137 -0.2104 -0.6473  0.0073
 1015MOL0     C39967   4.610   9.239   1.275 -0.9531 -0.3182 -0.3445
 1015MOL0     O39968   4.740   9.243   1.324  0.0605  0.4539  0.3555
 1015MOL0     C39969   4.749   9.216   1.461 -0.5007 -0.7619  0.1138
 1015MOL0     C39970   4.906   9.223   1.492 -0.5269  0.0760 -0.0447
 1015MOL0     C39971   4.937   9.259   1.640  0.0189 -0.7428  0.0672
 1015MOL0     C39972   5.091   9.282   1.653 -0.1942 -0.3492 -0.0549
 1015MOL0     C39973   5.148   9.279   1.801  0.4938 -0.4331  0.8087
 1015MOL0     C39974   5.116   9.421   1.842 -0.2896  0.3022  0.6080
 1015MOL0     C39975   5.132   9.444   1.990  0.0918 -0.3166  1.1974
 1015MOL0     C39976   5.029   9.359   2.072 -0.4702  0.6500  0.3043
 1015MOL0    Cl39977   5.026   9.400   2.248 -0.1622  0.0261 -0.4372
 1015MOL0     C39978   4.495   9.261   1.353 -0.0431 -0.6087  1.0626
 1015MOL0     C39979   4.371   9.279   1.282  0.6476  0.2306 -0.2615
 1015MOL0     O39980   4.240   9.262   0.899 -1.2589  0.4303  0.1782
 1015MOL0     C39981   3.946   9.274   1.085  0.2341  0.1440 -0.6194
 1015MOL0     C39982   3.807   9.266   1.078  0.4147  0.2538  0.6418
 1015MOL0     N39983   3.114   8.929   0.840 -0.2686 -0.6351 -0.0025
 1015MOL0     N39984   2.991   8.879   0.819  0.5858  0.2548  0.0970
 1015MOL0     C39985   1.644   9.112   0.689  0.5063 -0.0544  0.3119
 1015MOL0     C39986   1.536   9.205   0.684  0.3922  0.6940  0.0563
 1015MOL0     C39987   1.255   9.521   0.485  0.2777  0.3293  0.6929
 1015MOL0     C39988   1.258   9.625   0.393 -0.5289 -0.3555 -1.0557
 1015MOL0     C39989   1.144   9.708   0.383 -0.9018  0.3994 -0.2470
 1015MOL0     C39990   1.019   9.690   0.452 -0.8243 -0.2158  0.3908
 1015MOL0     O39991   0.918   9.781   0.431  0.2302 -0.4923  0.5632
 1015MOL0     C39992   0.791   9.746   0.488 -0.1545  0.5997  0.0919
 1015MOL0     C39993   0.777   9.790   0.626 -0.2934 -0.0780 -0.1725
 1015MOL0     C39994   0.763   9.936   0.638  0.9520  0.0654 -0.4632
 1015MOL0     C39995   0.779   9.988   0.775 -0.3737 -0.2251  0.8852
 1015MOL0     C39996   0.921   9.965   0.822  0.4561 -0.0641 -0.5421
 1015MOL0     C39997   1.027   9.945   0.876 -0.3465 -0.0661 -0.2348
 1015MOL0     C39998   1.017   9.579   0.528  0.4305  0.5417 -0.0601
 1015MOL0     C39999   1.123   9.487   0.541  0.1457  0.0504  0.3804
 1015MOL0     C40000   1.100   9.353   0.616  0.5517  0.2018 -0.1415
 1015MOL0     H40001   1.663   9.449   0.492 -0.0394  1.3465  2.4951
 1015MOL0     H40002   1.862   9.287   0.504 -0.0657 -1.7691 -0.8063
 1015MOL0     H40003   1.992   9.216   0.729 -0.3013  3.9001 -4.1762
 1015MOL0     H40004   2.020   9.179   0.556 -0.2600 -0.8120 -0.3500
 1015MOL0     H40005   2.061   8.957   0.775  4.1772 -0.6458  0.3028
 1015MOL0     H40006   2.091   8.952   0.599 -1.0092 -1.1745  0.8651
 1015MOL0     H40007   2.277   9.124   0.655  0.5563 -0.1631  0.7067
 1015MOL0     H40008   2.205   9.131   0.819  0.0280 -1.8239  1.6186
 1015MOL0     H40009   2.300   8.905   0.869  1.8876 -4.0093 -1.0299
 1015MOL0     H40010   2.319   8.868   0.704 -2.6212  0.2525 -0.1904
 1015MOL0     H40011   2.472   9.103   0.849  0.4084 -0.1511  0.0259
 1015MOL0     H40012   2.500   9.044   0.686  3.2166 -1.7150  0.1299
 1015MOL0     H40013   2.501   8.881   0.952 -2.0252  1.4635  0.5086
 1015MOL0     H40014   2.562   8.824   0.792  0.3511  1.0165  0.9448
 1015MOL0     H40015   2.691   9.043   0.944  1.1577 -0.5972  0.0262
 1015MOL0     H40016   2.737   8.981   0.784  2.0501 -1.2091  0.5088
 1015MOL0     H40017   2.740   8.815   1.042  2.4550 -0.9243  1.9312
 1015MOL0     H40018   2.758   8.757   0.868  1.0214 -0.6424  0.8514
 1015MOL0     H40019   2.990   8.907   1.133 -0.0111 -0.9024 -0.0857
 1015MOL0     H40020   3.239   8.958   1.151  1.9159  1.5449  0.7564
 1015MOL0     H40021   3.200   9.117   1.083 -2.9976 -0.2158 -1.6299
 1015MOL0     H40022   3.442   9.040   1.082 -0.0042 -2.0467  1.1105
 1015MOL0     H40023   3.403   8.905   0.987 -0.5102 -0.2326 -0.5980
 1015MOL0     H40024   3.347   9.048   0.798 -0.9401 -1.0902  0.4372
 1015MOL0     H40025   3.355   9.188   0.900 -2.4902 -1.3261  0.1139
 1015MOL0     H40026   3.603   9.024   0.832  1.0747 -0.0745 -0.8394
 1015MOL0     H40027   3.550   9.175   0.760 -0.1880  1.1410  1.1573
 1015MOL0     H40028   3.775   9.163   0.751  0.3597  1.1227 -0.6726
 1015MOL0     H40029   3.971   9.116   0.659 -0.7526  2.7182 -1.6204
 1015MOL0     H40030   4.117   9.103   0.750 -0.1994  0.6181 -0.1238
 1015MOL0     H40031   4.062   9.264   0.691  0.7629 -0.0556  0.7687
 1015MOL0     H40032   4.458   9.182   0.973  3.1649  1.4552 -0.0046
 1015MOL0     H40033   4.694   9.183   1.086  0.4941  1.7544 -0.3110
 1015MOL0     H40034   4.701   9.291   1.525 -1.5917 -1.8201  0.5848
 1015MOL0     H40035   4.733   9.112   1.490  2.3658 -1.4621 -0.5605
 1015MOL0     H40036   4.955   9.129   1.465 -1.0279  0.4978 -2.7204
 1015MOL0     H40037   4.951   9.301   1.429  1.2116  1.2484  2.4876
 1015MOL0     H40038   4.903   9.191   1.719 -1.9409  1.0145  0.8250
 1015MOL0     H40039   4.884   9.353   1.659 -1.2994 -1.1493 -1.3848
 1015MOL0     H40040   5.114   9.379   1.608 -4.5774  0.2775 -1.4149
 1015MOL0     H40041   5.132   9.201   1.593  1.8544  0.3454  0.3380
 1015MOL0     H40042   5.095   9.210   1.868  1.9646 -2.7246 -0.2833
 1015MOL0     H40043   5.256   9.261   1.803  0.4422 -0.8325  0.2238
 1015MOL0     H40044   5.010   9.439   1.825 -0.1129  0.0812 -0.9033
 1015MOL0     H40045   5.182   9.489   1.787  1.9698  0.7400  3.6041
 1015MOL0     H40046   5.102   9.547   2.008 -2.4198 -0.7039 -0.1861
 1015MOL0     H40047   5.234   9.437   2.029 -0.4496  0.9569  2.9744
 1015MOL0     H40048   5.055   9.253   2.074 -2.3896  0.1647  2.1161
 1015MOL0     H40049   4.926   9.368   2.037 -0.9358 -4.7969 -0.5594
 1015MOL0     H40050   4.500   9.295   1.456  0.0206  0.3079  0.7717
 1015MOL0     H40051   4.284   9.303   1.342 -0.4199 -2.4469 -0.5754
 1015MOL0     H40052   3.992   9.326   1.169  0.1911  0.9252 -1.0697
 1015MOL0     H40053   3.750   9.305   1.161 -0.5347  1.2428 -0.4313
 1015MOL0     H40054   1.626   9.021   0.744 -1.0252  0.7416  1.2057
 1015MOL0     H40055   1.443   9.180   0.732  1.1137 -1.3676  0.4704
 1015MOL0     H40056   1.351   9.648   0.341 -0.0114 -1.6119 -0.7284
 1015MOL0     H40057   1.150   9.789   0.311 -0.3095  0.9131  0.3660
 1015MOL0     H40058   0.711   9.791   0.428  0.1617 -2.6076 -3.0537
 1015MOL0     H40059   0.773   9.639   0.475  2.1437  0.3075 -1.2183
 1015MOL0     H40060   0.866   9.757   0.681 -1.0384 -0.5229  0.7881
 1015MOL0     H40061   0.685   9.744   0.663 -0.0210 -0.7526 -0.3203
 1015MOL0     H40062   0.830   9.996   0.576  0.4501  3.3869  1.9187
 1015MOL0     H40063   0.665   9.959   0.595  0.7371 -0.1209 -0.0896
 1015MOL0     H40064   0.707   9.930   0.835 -0.4962 -0.5447  0.4351
 1015MOL0     H40065   0.743  10.091   0.771 -1.2993 -0.4655  2.3295
 1015MOL0     H40066   1.123   9.949   0.924 -1.4447  2.2419  2.0315
 1015MOL0     H40067   0.930   9.546   0.585  2.5677 -3.2188  1.4297
 1015MOL0     H40068   1.007   9.350   0.673 -0.5965 -3.4586 -1.8958
 1015MOL0     H40069   1.088   9.267   0.550  0.3046 -0.1588  0.3770
 1015MOL0     H40070   1.184   9.335   0.683  0.4505  2.4071  0.6823
 1016MOL0     O40071   9.116   1.718   4.658 -0.5988 -0.6074  0.0097
 1016MOL0     C40072   9.099   1.766   4.770  0.1542  0.3741 -1.4077
 1016MOL0     O40073   9.200   1.804   4.849 -0.7807  0.2931 -0.2758
 1016MOL0     C40074   9.331   1.792   4.815  0.1022  0.6737  0.7199
 1016MOL0     C40075   9.381   1.659   4.813 -0.0380 -0.3406 -0.3690
 1016MOL0     C40076   9.518   1.644   4.795 -0.4402  0.3401 -0.1117
 1016MOL0     C40077   9.600   1.758   4.776  0.5084 -0.2545  0.1293
 1016MOL0     O40078   9.725   1.753   4.731 -0.1758  0.2577  0.2185
 1016MOL0     C40079   9.782   1.641   4.669 -0.0477 -0.0721  1.1268
 1016MOL0     C40080   9.905   1.697   4.584 -0.5394  0.0722  0.3623
 1016MOL0     C40081   9.938   1.618   4.455 -0.7440 -0.5168  0.2950
 1016MOL0     C40082  10.030   1.704   4.356 -0.3981  0.1636  0.8728
 1016MOL0     C40083  10.156   1.757   4.419  0.4649  0.2545 -0.7963
 1016MOL0     C40084  10.238   1.638   4.458 -0.8204  0.5782  0.0063
 1016MOL0     C40085  10.381   1.690   4.493  0.7066  0.1290 -0.2561
 1016MOL0     C40086  10.444   1.575   4.574  0.1254 -0.2379 -0.0009
 1016MOL0     N40087  10.484   1.455   4.496 -0.2595 -0.6389  0.8457
 1016MOL0     C40088  10.429   1.331   4.505  0.8772  1.4565 -0.1978
 1016MOL0     C40089  10.509   1.250   4.425  0.0014  0.2442  0.1880
 1016MOL0     C40090  10.492   1.109   4.388 -0.8228  0.1188  0.6515
 1016MOL0     C40091  10.570   1.024   4.486 -0.7133 -0.4376 -0.3614
 1016MOL0     C40092  10.727   1.052   4.487 -0.0446 -0.4952  0.6909
 1016MOL0     C40093  10.813   0.945   4.565  0.7585 -0.3348  0.3493
 1016MOL0     O40094  10.813   0.811   4.507 -0.6606  0.2635 -0.3396
 1016MOL0     C40095  10.893   0.721   4.578 -0.5228  0.3188  0.1068
 1016MOL0     C40096  10.900   0.596   4.507  0.1775  0.5552 -0.3569
 1016MOL0     C40097  10.972   0.487   4.555  0.7288 -0.3405  0.3238
 1016MOL0     C40098  10.941   0.355   4.494 -0.6338 -0.3190  0.2905
 1016MOL0     C40099  11.035   0.497   4.681  0.6136  0.2926  0.1433
 1016MOL0     C40100  11.116   0.386   4.740  0.0011 -0.2778 -0.9612
 1016MOL0     O40101  11.154   0.400   4.877 -0.8047 -0.2711 -0.6871
 1016MOL0     C40102  11.244   0.311   4.919 -0.8889 -0.4432  1.3541
 1016MOL0     C40103  11.200   0.195   4.976 -0.2265  0.4105  0.2723
 1016MOL0     C40104  11.287   0.101   5.024 -0.5531  0.1946  0.1733
 1016MOL0     C40105  11.422   0.118   5.007 -0.0737 -1.1595 -0.1860
 1016MOL0     O40106  11.520   0.028   5.042 -0.3436  0.3932  0.7684
 1016MOL0     C40107  11.486  -0.055   5.156 -0.8070 -0.4330 -0.5702
 1016MOL0     C40108  11.601  -0.146   5.196  0.0044  0.2747 -0.1453
 1016MOL0     C40109  11.688  -0.086   5.302 -0.6020 -0.0214  0.4478
 1016MOL0     C40110  11.770   0.027   5.252  0.4798 -0.4666  0.1657
 1016MOL0     C40111  11.886   0.058   5.350  0.2243 -0.1599  0.5015
 1016MOL0     C40112  11.985   0.158   5.292  0.7565 -0.5713  0.1701
 1016MOL0     C40113  12.100   0.203   5.391  0.0466  0.3258 -0.5484
 1016MOL0     C40114  12.224   0.275   5.327  0.5050 -0.1493  0.0547
 1016MOL0    Cl40115  12.164   0.401   5.217 -0.4983  0.6363  0.2077
 1016MOL0     C40116  11.466   0.232   4.932 -0.4808 -0.6959 -0.8291
 1016MOL0     C40117  11.377   0.331   4.894  0.0260  0.5517 -0.5020
 1016MOL0     O40118  11.147   0.298   4.660 -0.4245  0.3575 -0.5472
 1016MOL0     C40119  11.039   0.627   4.750  0.4759  0.0820  0.4803
 1016MOL0     C40120  10.958   0.737   4.701  0.2784  0.6602 -0.9908
 1016MOL0     N40121  10.608   1.322   4.366 -0.4493 -0.8127  0.3749
 1016MOL0     N40122  10.580   1.440   4.399 -0.6169 -0.3891  0.0340
 1016MOL0     C40123   9.553   1.889   4.792 -0.8563  0.0066 -0.0748
 1016MOL0     C40124   9.418   1.904   4.807 -0.0652 -0.7074  0.0647
 1016MOL0     C40125   8.961   1.771   4.816  0.6130  0.5836  0.7512
 1016MOL0     C40126   8.938   1.774   4.952 -0.2249 -0.1057 -0.4821
 1016MOL0     C40127   8.806   1.776   5.004  0.0121 -0.1103  0.3626
 1016MOL0     C40128   8.701   1.780   4.917  0.5259  0.2499 -0.4508
 1016MOL0     O40129   8.578   1.791   4.978  0.3450 -0.0649  0.0061
 1016MOL0     C40130   8.470   1.709   4.915  0.3378  0.3742  0.1874
 1016MOL0     C40131   8.342   1.710   4.999 -0.5481 -0.4219 -0.3575
 1016MOL0     C40132   8.258   1.843   5.007 -0.0310  0.3267  0.6963
 1016MOL0     C40133   8.299   1.954   5.111  0.3344  0.2780 -0.1561
 1016MOL0     C40134   8.223   1.933   5.233 -0.5998  0.5250  0.0028
 1016MOL0     C40135   8.158   1.910   5.335  0.5050 -0.1682  0.0945
 1016MOL0     C40136   8.723   1.769   4.778 -0.4923  0.7834  0.4024
 1016MOL0     C40137   8.852   1.763   4.728  0.3828  0.1078 -0.5559
 1016MOL0     C40138   8.855   1.746   4.577 -0.1603 -0.4637 -0.2956
 1016MOL0     H40139   9.308   1.578   4.818 -1.1204  0.6019 -0.4699
 1016MOL0     H40140   9.554   1.541   4.796  0.5027  0.6334 -1.4238
 1016MOL0     H40141   9.705   1.595   4.607  1.7909 -2.3560  0.3965
 1016MOL0     H40142   9.828   1.573   4.742  0.9714 -0.2232  0.3800
 1016MOL0     H40143   9.882   1.799   4.551 -3.1072 -1.1695 -2.1223
 1016MOL0     H40144   9.992   1.693   4.650  0.4179 -3.8667 -0.9256
 1016MOL0     H40145   9.982   1.521   4.477 -0.2652 -1.3654 -3.6550
 1016MOL0     H40146   9.849   1.596   4.396  0.7894 -2.6489 -1.3736
 1016MOL0     H40147  10.067   1.642   4.274  1.5792 -0.5737  2.2444
 1016MOL0     H40148   9.974   1.787   4.313 -1.3186 -1.6827 -1.8002
 1016MOL0     H40149  10.134   1.819   4.507  0.9928  0.5201 -0.8518
 1016MOL0     H40150  10.208   1.820   4.346  0.6871  1.1548  0.1146
 1016MOL0     H40151  10.193   1.586   4.543  0.0454 -0.9692 -0.4564
 1016MOL0     H40152  10.235   1.580   4.366 -0.5330  0.8150 -0.1588
 1016MOL0     H40153  10.361   1.782   4.550 -0.8700 -1.8525  2.6259
 1016MOL0     H40154  10.427   1.714   4.397 -1.0955  0.0173 -1.2001
 1016MOL0     H40155  10.538   1.601   4.622  0.5012 -3.3631  1.1725
 1016MOL0     H40156  10.373   1.546   4.652 -0.3322 -5.7073 -2.0350
 1016MOL0     H40157  10.333   1.311   4.551  1.2884 -0.7513 -0.1723
 1016MOL0     H40158  10.540   1.088   4.292 -2.8320 -2.4714  0.0978
 1016MOL0     H40159  10.388   1.076   4.375 -0.1707 -1.3537 -1.4556
 1016MOL0     H40160  10.539   1.051   4.588  1.3371 -0.4947  0.3094
 1016MOL0     H40161  10.551   0.916   4.482  2.3005 -0.9928 -2.2511
 1016MOL0     H40162  10.757   1.055   4.382  1.9555  2.3551  1.2587
 1016MOL0     H40163  10.732   1.152   4.531 -0.9603 -0.6778  1.2479
 1016MOL0     H40164  10.915   0.984   4.552 -0.4793  3.1987  0.2409
 1016MOL0     H40165  10.786   0.937   4.671  4.0005 -0.0325  1.3251
 1016MOL0     H40166  10.845   0.583   4.414 -1.8042 -0.3214  0.8639
 1016MOL0     H40167  10.911   0.295   4.580  2.4747  0.2535  1.9184
 1016MOL0     H40168  11.027   0.315   4.439  0.1417  2.4802 -0.6792
 1016MOL0     H40169  10.866   0.369   4.416 -0.1289  0.8150 -0.0136
 1016MOL0     H40170  11.093   0.180   4.973  0.0275 -1.4694 -0.8265
 1016MOL0     H40171  11.255   0.008   5.069  0.1785 -0.9512 -1.5948
 1016MOL0     H40172  11.465   0.006   5.244 -3.3750 -1.2981 -0.5181
 1016MOL0     H40173  11.395  -0.113   5.136 -1.3241 -0.6611  2.0290
 1016MOL0     H40174  11.558  -0.241   5.231  0.6498  0.6072  1.6402
 1016MOL0     H40175  11.658  -0.169   5.106 -0.4299  2.0098 -0.9153
 1016MOL0     H40176  11.763  -0.161   5.329  0.4765  1.3026  1.2874
 1016MOL0     H40177  11.631  -0.075   5.395 -0.3118 -1.0615  0.7574
 1016MOL0     H40178  11.710   0.117   5.235 -0.6254 -1.3886 -1.0146
 1016MOL0     H40179  11.808   0.002   5.152  0.4941  1.3381 -0.3134
 1016MOL0     H40180  11.848   0.095   5.445  0.3433  0.2478  0.3899
 1016MOL0     H40181  11.936  -0.036   5.378  2.3777  0.7490 -0.1480
 1016MOL0     H40182  11.927   0.244   5.256 -0.3919 -2.0056 -1.5992
 1016MOL0     H40183  12.015   0.122   5.193 -0.8347 -0.0052 -0.5666
 1016MOL0     H40184  12.137   0.106   5.423  0.0855 -0.7625 -3.5578
 1016MOL0     H40185  12.058   0.269   5.467 -1.2523 -1.3596  0.2458
 1016MOL0     H40186  12.291   0.212   5.268 -0.8612 -0.6611 -1.0131
 1016MOL0     H40187  12.282   0.319   5.409 -0.2721 -0.9307  1.0439
 1016MOL0     H40188  11.565   0.244   4.888 -2.0259  0.8018 -4.2917
 1016MOL0     H40189  11.418   0.422   4.852  4.9700 -1.0277  0.2231
 1016MOL0     H40190  11.087   0.631   4.847  1.0069 -1.5135  0.3222
 1016MOL0     H40191  10.948   0.831   4.753 -0.8844 -0.1632  0.3434
 1016MOL0     H40192   9.617   1.975   4.778 -0.1934 -0.4223  0.2713
 1016MOL0     H40193   9.377   2.003   4.827  2.8946  0.5762  0.2205
 1016MOL0     H40194   9.021   1.770   5.022 -1.3544  0.6579  0.9566
 1016MOL0     H40195   8.799   1.777   5.112 -0.0344 -2.5657  0.4325
 1016MOL0     H40196   8.448   1.745   4.814 -1.3882 -1.6737 -0.2361
 1016MOL0     H40197   8.512   1.609   4.921  0.9736  0.6230 -0.0678
 1016MOL0     H40198   8.364   1.674   5.100  1.0978  2.2646  0.3355
 1016MOL0     H40199   8.267   1.640   4.960 -0.5668  0.3401 -1.7842
 1016MOL0     H40200   8.267   1.883   4.906  0.1973  0.0113  0.5927
 1016MOL0     H40201   8.154   1.813   5.024  0.1870  0.2304  1.9549
 1016MOL0     H40202   8.267   2.049   5.067 -1.3213  0.5698  1.5509
 1016MOL0     H40203   8.406   1.945   5.127 -0.0403 -2.1684  1.4526
 1016MOL0     H40204   8.099   1.882   5.419 -0.2064  0.0739 -0.3182
 1016MOL0     H40205   8.637   1.772   4.711  0.1075  1.6888 -0.3349
 1016MOL0     H40206   8.943   1.792   4.531 -0.1766  0.0673  0.1891
 1016MOL0     H40207   8.856   1.639   4.558  2.1001 -0.6590  0.6382
 1016MOL0     H40208   8.771   1.796   4.527  0.5090 -0.5860 -1.5685
 1017MOL0     O40209   2.488   7.637   4.414 -0.2030 -0.5069 -0.1587
 1017MOL0     C40210   2.386   7.652   4.486 -0.2783 -1.0607  0.1233
 1017MOL0     O40211   2.386   7.660   4.616  0.4768  0.4775 -0.2153
 1017MOL0     C40212   2.495   7.621   4.684  0.0616  0.4618 -1.0418
 1017MOL0     C40213   2.577   7.721   4.728  0.5846 -0.6776 -0.3976
 1017MOL0     C40214   2.701   7.687   4.790 -0.1535 -0.5678 -0.0265
 1017MOL0     C40215   2.740   7.552   4.797 -0.3599  0.6384  0.1831
 1017MOL0     O40216   2.872   7.525   4.838 -0.0728  0.6309 -0.4631
 1017MOL0     C40217   2.910   7.387   4.841 -0.4651 -0.0998 -0.0510
 1017MOL0     C40218   3.063   7.378   4.868 -0.1131 -0.3373  1.0193
 1017MOL0     C40219   3.125   7.236   4.859  0.0785  0.7589 -0.3942
 1017MOL0     C40220   3.281   7.240   4.842 -0.2247  0.2922  0.9155
 1017MOL0     C40221   3.342   7.098   4.865 -0.0861  0.4762 -0.6495
 1017MOL0     C40222   3.495   7.094   4.843 -0.0467 -0.5977  0.0697
 1017MOL0     C40223   3.547   6.955   4.823 -0.5145 -0.1061  0.6644
 1017MOL0     C40224   3.699   6.944   4.818  0.1529 -0.4488  0.9139
 1017MOL0     N40225   3.738   6.805   4.821  0.5614 -0.2648  0.4869
 1017MOL0     C40226   3.714   6.704   4.919  0.0508  0.0988 -0.5092
 1017MOL0     C40227   3.765   6.592   4.878 -0.1817  0.5776  0.3319
 1017MOL0     C40228   3.796   6.468   4.951 -0.1250  0.5822 -0.8378
 1017MOL0     C40229   3.944   6.434   4.970  0.1836 -0.0550 -0.0035
 1017MOL0     C40230   3.959   6.366   5.103  0.2133  0.1345 -0.3281
 1017MOL0     C40231   4.108   6.332   5.129 -0.1239  0.8450 -0.3033
 1017MOL0     O40232   4.161   6.249   5.028 -0.2419  0.3340 -0.4430
 1017MOL0     C40233   4.291   6.210   5.032 -1.0194 -0.1704  0.2876
 1017MOL0     C40234   4.331   6.111   4.945  0.3401  0.4586 -0.7541
 1017MOL0     C40235   4.455   6.057   4.939  0.1681  0.2370 -1.6219
 1017MOL0     C40236   4.469   5.918   4.866  0.6233  0.2549  0.1010
 1017MOL0     C40237   4.560   6.124   5.002  0.1943  0.2091  0.4435
 1017MOL0     C40238   4.708   6.086   4.982 -0.0421  0.0305 -0.4221
 1017MOL0     O40239   4.797   6.157   5.057 -0.6928 -0.3124 -0.2383
 1017MOL0     C40240   4.920   6.184   5.006 -0.9176  0.6076 -0.4547
 1017MOL0     C40241   5.021   6.201   5.102 -0.6475 -0.1872 -0.6086
 1017MOL0     C40242   5.154   6.206   5.063 -0.0338 -0.1246 -0.5329
 1017MOL0     C40243   5.193   6.187   4.927 -0.2384  0.2951  0.0225
 1017MOL0     O40244   5.325   6.208   4.879  0.1559  0.0759 -0.4355
 1017MOL0     C40245   5.432   6.198   4.973  0.0756  0.2243  0.2376
 1017MOL0     C40246   5.568   6.180   4.901  0.2082  0.1092 -0.6565
 1017MOL0     C40247   5.604   6.307   4.817 -0.2292  0.0446  0.0243
 1017MOL0     C40248   5.743   6.284   4.749  0.5987 -0.4794  0.4332
 1017MOL0     C40249   5.855   6.329   4.842 -0.1357  0.1809  0.0286
 1017MOL0     C40250   6.000   6.304   4.792  0.0619 -0.7525  0.0268
 1017MOL0     C40251   6.017   6.377   4.660 -0.0937 -0.0522  0.0460
 1017MOL0     C40252   6.164   6.408   4.638  0.1042  0.0095  0.7140
 1017MOL0    Cl40253   6.262   6.267   4.586  0.0931 -0.4941 -0.0107
 1017MOL0     C40254   5.091   6.156   4.836 -0.2608  0.3040  0.0799
 1017MOL0     C40255   4.958   6.171   4.870  0.4867 -0.0459 -0.9622
 1017MOL0     O40256   4.735   5.996   4.913  0.0442  0.2880 -0.0181
 1017MOL0     C40257   4.529   6.227   5.089 -0.1104 -0.8959  0.1648
 1017MOL0     C40258   4.395   6.269   5.107 -0.2908  0.1591  0.1331
 1017MOL0     N40259   3.809   6.609   4.747  0.9251 -0.1579  0.0426
 1017MOL0     N40260   3.787   6.732   4.711  0.0992  0.4883  0.0317
 1017MOL0     C40261   2.655   7.449   4.743  0.1918 -0.9090 -0.1745
 1017MOL0     C40262   2.532   7.487   4.681  0.6743 -0.1896 -0.2607
 1017MOL0     C40263   2.253   7.672   4.421  0.1070  0.1933  0.0859
 1017MOL0     C40264   2.172   7.780   4.467 -0.0182  0.6435  0.2087
 1017MOL0     C40265   2.056   7.812   4.402 -0.3357 -0.5769  0.1033
 1017MOL0     C40266   2.015   7.757   4.282  0.2980 -0.4726 -0.1862
 1017MOL0     O40267   1.928   7.806   4.198  0.2104 -0.4120 -0.8950
 1017MOL0     C40268   1.889   7.945   4.201 -0.0350  0.8039  0.2147
 1017MOL0     C40269   1.770   7.964   4.115  0.1501 -0.1079 -0.8387
 1017MOL0     C40270   1.653   7.886   4.165 -0.5806 -0.2381  1.0959
 1017MOL0     C40271   1.523   7.954   4.138  0.4545 -0.1301  0.7705
 1017MOL0     C40272   1.486   7.941   3.995 -0.3584 -0.4536 -0.2107
 1017MOL0     C40273   1.479   7.924   3.872 -0.2441 -0.1169  0.0442
 1017MOL0     C40274   2.097   7.653   4.239  0.5953 -0.5693  0.0147
 1017MOL0     C40275   2.210   7.600   4.309 -0.5690 -0.1155  0.1539
 1017MOL0     C40276   2.277   7.481   4.243  0.0728 -0.8148  1.0886
 1017MOL0     H40277   2.546   7.825   4.721 -1.7222 -1.3967 -2.0541
 1017MOL0     H40278   2.774   7.763   4.816  1.0891 -1.2407 -1.3939
 1017MOL0     H40279   2.896   7.336   4.745 -1.6779  1.1962 -0.5976
 1017MOL0     H40280   2.849   7.344   4.921 -1.6122 -2.2435 -1.9541
 1017MOL0     H40281   3.108   7.446   4.794  0.0178 -2.4720 -0.9555
 1017MOL0     H40282   3.088   7.409   4.970  0.2061  1.2494  0.4984
 1017MOL0     H40283   3.093   7.188   4.952  1.6303  3.8172  1.8742
 1017MOL0     H40284   3.073   7.183   4.779 -1.6421  0.5474  0.8041
 1017MOL0     H40285   3.312   7.277   4.744 -0.0945 -1.9089  0.0535
 1017MOL0     H40286   3.331   7.304   4.915  0.7860  0.9392 -0.3112
 1017MOL0     H40287   3.285   7.028   4.803 -2.5517 -1.2800  3.1856
 1017MOL0     H40288   3.322   7.075   4.970 -0.3495  2.1744 -0.2971
 1017MOL0     H40289   3.528   7.160   4.762 -0.2647  3.4565  2.9433
 1017MOL0     H40290   3.545   7.119   4.937 -0.6876 -0.0537  0.2782
 1017MOL0     H40291   3.498   6.902   4.741 -1.7535  0.4678  1.0076
 1017MOL0     H40292   3.517   6.899   4.912  1.1805 -1.0567  0.6779
 1017MOL0     H40293   3.732   6.977   4.720 -2.0265 -0.1322  0.2379
 1017MOL0     H40294   3.747   7.009   4.891  0.9173 -3.4037  3.2537
 1017MOL0     H40295   3.665   6.715   5.015 -1.3276 -0.1084 -1.1686
 1017MOL0     H40296   3.748   6.389   4.892  1.8153 -0.6951 -0.7871
 1017MOL0     H40297   3.743   6.473   5.047  0.1551  1.0180 -0.7070
 1017MOL0     H40298   3.990   6.370   4.894 -3.4673 -1.9788 -0.8293
 1017MOL0     H40299   4.002   6.526   4.977  0.8668 -0.6000  2.1089
 1017MOL0     H40300   3.928   6.426   5.189  1.3875 -0.7563  0.7586
 1017MOL0     H40301   3.903   6.272   5.108  3.1503 -1.6726  1.1628
 1017MOL0     H40302   4.164   6.426   5.127 -0.0967  0.8240 -2.0233
 1017MOL0     H40303   4.119   6.289   5.229 -0.1087 -2.4216 -1.5727
 1017MOL0     H40304   4.240   6.070   4.902 -0.0923  0.4428  0.1493
 1017MOL0     H40305   4.538   5.934   4.782 -0.4821  2.7301 -0.4311
 1017MOL0     H40306   4.379   5.883   4.814 -0.1189  1.5931  0.4353
 1017MOL0     H40307   4.502   5.849   4.944 -0.3238  1.2949  1.4729
 1017MOL0     H40308   4.985   6.227   5.201  0.3553 -1.1315  0.0287
 1017MOL0     H40309   5.226   6.223   5.143  0.0327 -3.2851  0.2167
 1017MOL0     H40310   5.445   6.292   5.029 -0.3882 -0.3505  1.3434
 1017MOL0     H40311   5.417   6.112   5.039  0.4859 -0.3989 -0.4744
 1017MOL0     H40312   5.658   6.167   4.963  0.0722  2.1087  0.0492
 1017MOL0     H40313   5.571   6.088   4.843 -1.0913 -0.8380  0.7123
 1017MOL0     H40314   5.611   6.396   4.880 -0.0155 -0.0162  0.0864
 1017MOL0     H40315   5.529   6.333   4.742 -2.8565  0.5675  2.6351
 1017MOL0     H40316   5.748   6.343   4.657  0.8848 -0.9437  0.1404
 1017MOL0     H40317   5.760   6.182   4.711  0.6513  0.4605 -2.2651
 1017MOL0     H40318   5.852   6.431   4.883  2.1585  0.2215  0.2279
 1017MOL0     H40319   5.849   6.271   4.935 -0.6500  0.4195  0.1462
 1017MOL0     H40320   6.018   6.196   4.784  0.1537 -0.8150  0.9989
 1017MOL0     H40321   6.061   6.347   4.872 -3.1331  1.5782  1.4527
 1017MOL0     H40322   5.956   6.467   4.663 -0.8638 -0.5634  0.0749
 1017MOL0     H40323   5.974   6.311   4.584 -0.1929 -0.9836  0.8857
 1017MOL0     H40324   6.215   6.449   4.725  1.3408 -0.7304  0.3632
 1017MOL0     H40325   6.165   6.484   4.559 -0.8547 -0.9849 -0.3009
 1017MOL0     H40326   5.119   6.131   4.734  2.3914  1.3541  0.4658
 1017MOL0     H40327   4.884   6.166   4.790  1.1556 -0.9695 -1.5473
 1017MOL0     H40328   4.599   6.291   5.141  1.9463 -1.7109 -1.4654
 1017MOL0     H40329   4.369   6.353   5.171 -1.8330  0.5078 -0.8787
 1017MOL0     H40330   2.684   7.345   4.732 -2.6284 -1.4984 -3.9906
 1017MOL0     H40331   2.472   7.414   4.628  3.2737 -1.5124 -1.5522
 1017MOL0     H40332   2.195   7.833   4.558  0.6809 -2.1206  1.7529
 1017MOL0     H40333   2.002   7.889   4.456  0.4459 -0.2837  0.4934
 1017MOL0     H40334   1.857   7.974   4.301  1.7798  2.1245  0.4716
 1017MOL0     H40335   1.968   8.012   4.166 -0.3631  0.7644 -0.6167
 1017MOL0     H40336   1.795   7.928   4.015  0.8905 -0.5287 -0.5176
 1017MOL0     H40337   1.749   8.071   4.109  0.1849 -0.1553 -2.1401
 1017MOL0     H40338   1.653   7.782   4.131  1.5188  0.6917 -2.2309
 1017MOL0     H40339   1.666   7.878   4.274  2.0094  1.0057  0.9461
 1017MOL0     H40340   1.529   8.060   4.167 -2.2621  0.6056 -0.9961
 1017MOL0     H40341   1.442   7.912   4.198 -3.6424  2.2389 -2.5316
 1017MOL0     H40342   1.455   7.908   3.769 -1.3436  3.8933 -0.4714
 1017MOL0     H40343   2.059   7.602   4.151 -1.5026 -0.7654  0.9609
 1017MOL0     H40344   2.375   7.516   4.210 -1.2310  0.9504 -1.1238
 1017MOL0     H40345   2.284   7.410   4.327  1.4013  2.1875  3.6989
 1017MOL0     H40346   2.221   7.441   4.158 -0.9482  1.9410  0.3710
 1018MOL0     O40347   4.247   3.903   9.363  0.4329 -0.0728 -0.4208
 1018MOL0     C40348   4.164   3.817   9.329  0.3195 -0.0278 -0.1289
 1018MOL0     O40349   4.078   3.830   9.218  0.3215 -0.4058 -0.6332
 1018MOL0     C40350   4.102   3.922   9.119  0.4008  0.6748  0.1812
 1018MOL0     C40351   4.227   3.965   9.069  0.1953 -0.4700 -0.1579
 1018MOL0     C40352   4.228   4.048   8.950  1.0400  0.3367  0.6471
 1018MOL0     C40353   4.107   4.085   8.888  0.1810 -0.4562  0.1587
 1018MOL0     O40354   4.115   4.183   8.788  0.0116 -0.9333 -0.0511
 1018MOL0     C40355   4.095   4.134   8.654 -1.0797  0.0642  0.0302
 1018MOL0     C40356   4.151   4.239   8.552 -0.0327  0.0167 -0.0810
 1018MOL0     C40357   4.299   4.230   8.539 -0.4814  0.5234  0.0257
 1018MOL0     C40358   4.350   4.340   8.446 -0.4146  0.4307  0.5858
 1018MOL0     C40359   4.497   4.341   8.434 -0.0702 -0.1136  0.1656
 1018MOL0     C40360   4.530   4.441   8.317  0.0947  0.2646  0.4880
 1018MOL0     C40361   4.678   4.435   8.297 -0.0080 -0.9486  0.4065
 1018MOL0     C40362   4.719   4.557   8.198  0.5332 -0.0406 -0.3870
 1018MOL0     N40363   4.841   4.524   8.127 -0.7942  0.4867  0.0970
 1018MOL0     C40364   4.968   4.561   8.164  0.0179 -0.0478  0.1866
 1018MOL0     C40365   5.049   4.501   8.067  0.5326 -0.8317 -0.3769
 1018MOL0     C40366   5.198   4.502   8.070 -0.1797  0.3668  1.0636
 1018MOL0     C40367   5.270   4.526   7.928 -0.3591 -0.3501  0.0767
 1018MOL0     C40368   5.424   4.543   7.933 -0.4074 -0.0768 -0.3332
 1018MOL0     C40369   5.487   4.591   7.809  0.2470 -0.3639  0.2557
 1018MOL0     O40370   5.625   4.561   7.820  0.6426 -0.1735 -0.0019
 1018MOL0     C40371   5.714   4.627   7.738  0.5878 -0.5215 -0.3947
 1018MOL0     C40372   5.691   4.713   7.627  0.2497 -0.6104  0.4055
 1018MOL0     C40373   5.797   4.789   7.566 -0.3396  0.3986 -0.1527
 1018MOL0     C40374   5.761   4.889   7.454 -0.1982  0.0291  0.0615
 1018MOL0     C40375   5.926   4.791   7.621 -0.2684  0.4591 -0.3857
 1018MOL0     C40376   6.036   4.872   7.589  0.5997 -0.2775 -0.4369
 1018MOL0     O40377   6.130   4.890   7.696  0.4340  0.5515  0.3813
 1018MOL0     C40378   6.261   4.927   7.657 -0.3867  0.7322 -0.0478
 1018MOL0     C40379   6.332   5.004   7.748  0.2077 -0.1436 -0.2238
 1018MOL0     C40380   6.455   5.057   7.723 -0.0261  0.0442 -0.6497
 1018MOL0     C40381   6.525   5.011   7.610 -1.0489 -0.6416  0.9090
 1018MOL0     O40382   6.656   5.033   7.589 -0.2438  0.4617 -0.1476
 1018MOL0     C40383   6.729   5.114   7.680  0.2239 -0.4824  0.3713
 1018MOL0     C40384   6.841   5.182   7.610 -0.2680 -0.4103  0.6558
 1018MOL0     C40385   6.802   5.325   7.574  0.7390  0.3207 -0.3210
 1018MOL0     C40386   6.672   5.336   7.487 -0.1754 -0.1351  0.8501
 1018MOL0     C40387   6.656   5.465   7.416  0.5535 -1.0287 -0.6094
 1018MOL0     C40388   6.760   5.496   7.316  0.7638 -0.0632  0.6313
 1018MOL0     C40389   6.769   5.389   7.215  0.4921  0.5074 -0.5849
 1018MOL0     C40390   6.870   5.435   7.116  0.2080 -0.2802 -0.4296
 1018MOL0    Cl40391   6.871   5.300   7.003  0.1604  0.1680 -0.2847
 1018MOL0     C40392   6.462   4.933   7.517  0.0381  0.6899 -0.2351
 1018MOL0     C40393   6.328   4.888   7.540  0.9168 -0.8709 -0.6765
 1018MOL0     O40394   6.047   4.921   7.480  0.1324 -0.7117 -0.3572
 1018MOL0     C40395   5.948   4.699   7.724  0.3391 -0.0830 -0.4702
 1018MOL0     C40396   5.842   4.624   7.781  0.5265 -0.7366 -0.5996
 1018MOL0     N40397   4.973   4.441   7.978  0.2934  0.3498 -0.0205
 1018MOL0     N40398   4.854   4.457   8.010 -0.0822  0.5388 -0.5436
 1018MOL0     C40399   3.988   4.038   8.943 -0.7130  1.0659  0.0954
 1018MOL0     C40400   3.984   3.958   9.054  0.1032  0.5835 -0.3179
 1018MOL0     C40401   4.127   3.704   9.417  0.6267  1.0322 -0.1170
 1018MOL0     C40402   4.003   3.642   9.395  0.8377  0.6767  0.1007
 1018MOL0     C40403   3.975   3.531   9.460  0.3063  0.1019 -1.5427
 1018MOL0     C40404   4.054   3.470   9.557 -0.6531 -0.1383 -0.5968
 1018MOL0     O40405   4.021   3.368   9.638  0.0252 -1.1927 -0.4484
 1018MOL0     C40406   3.886   3.322   9.632 -0.0849 -0.2165  0.0699
 1018MOL0     C40407   3.871   3.205   9.729 -0.2243  0.9475 -0.0067
 1018MOL0     C40408   3.757   3.114   9.687  0.3456 -0.0454 -0.1205
 1018MOL0     C40409   3.780   2.979   9.763  0.1685 -0.7764 -0.5304
 1018MOL0     C40410   3.682   2.881   9.711 -0.5916 -0.5794  0.4449
 1018MOL0     C40411   3.589   2.811   9.687 -0.3866  0.3605 -0.0659
 1018MOL0     C40412   4.169   3.535   9.592  0.6717 -0.1494  0.7083
 1018MOL0     C40413   4.216   3.650   9.516 -0.0761  0.4171  0.1388
 1018MOL0     C40414   4.343   3.717   9.571  0.2025  0.3737 -0.0442
 1018MOL0     H40415   4.311   3.919   9.121  0.2200 -0.1253  0.1099
 1018MOL0     H40416   4.322   4.072   8.902  1.2254 -1.1924  0.1806
 1018MOL0     H40417   3.990   4.120   8.624 -0.8069 -2.8339  0.1809
 1018MOL0     H40418   4.144   4.040   8.631 -0.4962  0.3669  0.0290
 1018MOL0     H40419   4.095   4.228   8.459 -2.9484  0.0204  1.5775
 1018MOL0     H40420   4.126   4.343   8.578  0.1748  0.1042 -0.2195
 1018MOL0     H40421   4.355   4.252   8.630  1.7731  0.1112 -1.1925
 1018MOL0     H40422   4.332   4.135   8.495  0.8105  2.2323 -3.0636
 1018MOL0     H40423   4.304   4.309   8.352  0.3649 -3.1079  1.2153
 1018MOL0     H40424   4.307   4.439   8.465  0.3975  0.5366  1.9943
 1018MOL0     H40425   4.533   4.239   8.422 -1.5399 -0.5847 -0.4526
 1018MOL0     H40426   4.538   4.394   8.521 -0.0000 -1.5133  1.0134
 1018MOL0     H40427   4.476   4.413   8.226  2.1958 -1.4362 -0.3329
 1018MOL0     H40428   4.502   4.541   8.350  0.5176  0.9521 -1.1340
 1018MOL0     H40429   4.698   4.331   8.270  1.4786 -1.3106  2.6912
 1018MOL0     H40430   4.727   4.451   8.393  0.3534  0.1239  0.0539
 1018MOL0     H40431   4.654   4.560   8.110 -0.5519 -0.2306  0.3862
 1018MOL0     H40432   4.722   4.653   8.251 -1.6866  0.5876 -1.3220
 1018MOL0     H40433   4.992   4.619   8.252 -2.5656  2.8272 -0.7968
 1018MOL0     H40434   5.232   4.416   8.127  2.4035  0.8602  0.3880
 1018MOL0     H40435   5.236   4.577   8.140  0.0569 -2.2829  3.9807
 1018MOL0     H40436   5.234   4.449   7.859 -1.1619 -0.0792  0.1845
 1018MOL0     H40437   5.222   4.617   7.892 -1.6132 -0.8802  0.3463
 1018MOL0     H40438   5.448   4.601   8.022  0.8127  1.0038 -1.3252
 1018MOL0     H40439   5.452   4.437   7.938 -2.0744 -0.6397 -1.7213
 1018MOL0     H40440   5.433   4.537   7.732 -0.4844 -1.2317  1.3503
 1018MOL0     H40441   5.481   4.700   7.795  5.8601  0.1599 -0.3829
 1018MOL0     H40442   5.591   4.735   7.590  1.0055  0.4601 -1.1529
 1018MOL0     H40443   5.819   4.883   7.361  0.4683 -0.2398  0.4899
 1018MOL0     H40444   5.772   4.993   7.488 -0.5348  0.4331 -1.0104
 1018MOL0     H40445   5.658   4.859   7.430 -0.3237 -0.7326  1.4763
 1018MOL0     H40446   6.290   5.026   7.846  1.1751 -0.4400  0.2810
 1018MOL0     H40447   6.499   5.119   7.800  0.1844  1.1898 -1.6667
 1018MOL0     H40448   6.665   5.191   7.724  1.0813  1.5935 -1.8157
 1018MOL0     H40449   6.768   5.055   7.764  0.3357  1.9126  2.1062
 1018MOL0     H40450   6.934   5.185   7.667  1.7442  1.5005 -2.4359
 1018MOL0     H40451   6.872   5.131   7.519  1.0029  1.5463 -0.0792
 1018MOL0     H40452   6.886   5.364   7.516  0.2061  1.7108 -0.2155
 1018MOL0     H40453   6.787   5.387   7.663  2.3194 -0.0150  0.2057
 1018MOL0     H40454   6.581   5.324   7.545  1.0191 -1.2000  2.5958
 1018MOL0     H40455   6.681   5.255   7.413  1.0888  1.5336 -0.9213
 1018MOL0     H40456   6.556   5.454   7.374 -1.4801 -1.5113  3.7243
 1018MOL0     H40457   6.639   5.543   7.491 -2.5674 -0.8622 -1.3743
 1018MOL0     H40458   6.854   5.503   7.372  0.8128  0.3889  0.4993
 1018MOL0     H40459   6.742   5.596   7.276 -1.2915 -0.4036  0.5990
 1018MOL0     H40460   6.674   5.364   7.166  0.9165 -0.8297 -0.7620
 1018MOL0     H40461   6.807   5.294   7.252 -0.8658  0.1252 -0.1024
 1018MOL0     H40462   6.971   5.453   7.155  0.3411  0.6154 -1.1608
 1018MOL0     H40463   6.843   5.533   7.076  2.5273  0.5473 -0.1580
 1018MOL0     H40464   6.515   4.892   7.432 -0.8602 -0.8018 -0.1073
 1018MOL0     H40465   6.274   4.835   7.462  1.1919 -1.2164 -0.6293
 1018MOL0     H40466   6.049   4.691   7.764 -0.6724  1.5784  2.7153
 1018MOL0     H40467   5.851   4.572   7.876  0.4665  1.6778  0.8194
 1018MOL0     H40468   3.896   4.062   8.891 -1.0187 -0.6049 -0.1989
 1018MOL0     H40469   3.896   3.914   9.100 -0.6302  0.2780 -1.9362
 1018MOL0     H40470   3.930   3.673   9.321 -0.4784  0.2112  1.1662
 1018MOL0     H40471   3.887   3.471   9.437  0.4737 -1.6606  1.7675
 1018MOL0     H40472   3.810   3.396   9.658 -1.0611 -0.9909 -0.5004
 1018MOL0     H40473   3.866   3.282   9.532 -1.5841  0.6344  0.0040
 1018MOL0     H40474   3.852   3.246   9.829  0.1175  0.0300  0.4447
 1018MOL0     H40475   3.962   3.144   9.720 -0.2747  0.6050  1.4500
 1018MOL0     H40476   3.662   3.160   9.715 -0.1132 -0.8991 -0.2807
 1018MOL0     H40477   3.743   3.106   9.579  0.0405 -1.5373  0.0137
 1018MOL0     H40478   3.777   3.002   9.870 -1.7035  1.3795 -0.9812
 1018MOL0     H40479   3.882   2.948   9.738  0.5014 -2.5512  2.5234
 1018MOL0     H40480   3.500   2.756   9.666  1.1123 -1.7065 -1.4612
 1018MOL0     H40481   4.224   3.492   9.676  2.4587  2.6949  1.1344
 1018MOL0     H40482   4.430   3.694   9.509  0.0448 -0.7098  0.1332
 1018MOL0     H40483   4.330   3.823   9.595 -1.2248  0.3041 -0.4346
 1018MOL0     H40484   4.360   3.668   9.667 -1.3916 -0.9307 -0.3951
 1019MOL0     O40485   0.293  10.810   2.513 -0.2729  0.1582 -0.3811
 1019MOL0     C40486   0.199  10.732   2.536  0.0654 -0.7966 -0.7302
 1019MOL0     O40487   0.210  10.603   2.575 -0.1066  0.5421  0.0160
 1019MOL0     C40488   0.342  10.559   2.605  0.1776 -0.5569  0.2345
 1019MOL0     C40489   0.411  10.480   2.515  0.1894 -0.8421  0.5247
 1019MOL0     C40490   0.544  10.433   2.548 -0.2217  0.4729 -0.6083
 1019MOL0     C40491   0.607  10.471   2.669 -0.0090 -0.4106  0.9438
 1019MOL0     O40492   0.742  10.432   2.683  0.4920  0.6556  0.6773
 1019MOL0     C40493   0.824  10.515   2.768  0.0837  0.6533 -0.1639
 1019MOL0     C40494   0.970  10.476   2.755 -0.2276  0.2079  1.3492
 1019MOL0     C40495   0.998  10.324   2.757  0.2929  0.2672 -0.6020
 1019MOL0     C40496   1.146  10.282   2.760  0.4003 -1.7972  0.0659
 1019MOL0     C40497   1.163  10.129   2.720  0.0519 -0.1484 -0.4438
 1019MOL0     C40498   1.277  10.082   2.808 -0.3731  0.6714 -0.5324
 1019MOL0     C40499   1.406  10.157   2.793 -0.5546 -0.2619  0.0340
 1019MOL0     C40500   1.506  10.082   2.880 -0.2108  0.5596 -0.0644
 1019MOL0     N40501   1.615  10.168   2.923  0.3177 -0.0961  0.8142
 1019MOL0     C40502   1.595  10.283   2.999  0.1073  0.4880 -0.3369
 1019MOL0     C40503   1.718  10.337   3.014  0.0120  0.1175  0.2132
 1019MOL0     C40504   1.753  10.450   3.114  0.3859  0.5095  0.4894
 1019MOL0     C40505   1.791  10.581   3.041 -0.0932 -0.3896  0.0137
 1019MOL0     C40506   1.851  10.681   3.145  0.3265  0.4990  0.7137
 1019MOL0     C40507   2.006  10.651   3.151  0.7319 -0.1661  0.2200
 1019MOL0     O40508   2.069  10.747   3.235  0.7694  0.0326  0.2506
 1019MOL0     C40509   2.204  10.724   3.256 -0.2185  0.6776 -0.1461
 1019MOL0     C40510   2.244  10.696   3.390  0.9165 -0.2227  0.2753
 1019MOL0     C40511   2.379  10.661   3.424  0.4172 -1.1764 -0.1338
 1019MOL0     C40512   2.409  10.643   3.572  0.8287 -0.8555 -0.1906
 1019MOL0     C40513   2.475  10.632   3.325  0.8868  0.0732  0.4001
 1019MOL0     C40514   2.614  10.586   3.346  0.5090  0.5394  0.4029
 1019MOL0     O40515   2.668  10.538   3.233 -0.6015  0.1853  0.0312
 1019MOL0     C40516   2.805  10.521   3.237  0.4347  0.3481  0.0991
 1019MOL0     C40517   2.895  10.617   3.191 -0.1506  0.1939 -0.0604
 1019MOL0     C40518   3.034  10.605   3.208 -0.0028  0.6944 -0.0397
 1019MOL0     C40519   3.080  10.493   3.284 -0.0929 -0.1432  0.4157
 1019MOL0     O40520   3.208  10.459   3.302  0.0424 -0.2253  0.4071
 1019MOL0     C40521   3.304  10.564   3.289  0.4686  0.8654 -0.7227
 1019MOL0     C40522   3.367  10.557   3.145  0.9495 -0.0256 -0.4714
 1019MOL0     C40523   3.497  10.627   3.153 -0.2068  0.1833 -0.5040
 1019MOL0     C40524   3.592  10.598   3.027  0.5986 -0.7100  0.1414
 1019MOL0     C40525   3.669  10.469   3.030 -0.3891  0.5291 -0.0053
 1019MOL0     C40526   3.736  10.447   2.888  0.0085 -0.0233  0.1468
 1019MOL0     C40527   3.801  10.316   2.868  0.0349  0.5924  0.5238
 1019MOL0     C40528   3.888  10.306   2.736  0.1725  0.7248  0.5152
 1019MOL0    Cl40529   3.796  10.336   2.589 -0.5589  0.1288  0.3882
 1019MOL0     C40530   2.983  10.405   3.341  0.3201 -0.0842  0.2626
 1019MOL0     C40531   2.847  10.425   3.325 -0.4875 -0.3874 -0.9290
 1019MOL0     O40532   2.677  10.608   3.453 -0.1457  0.6256  0.0956
 1019MOL0     C40533   2.423  10.646   3.195 -0.8414 -0.1876  0.5078
 1019MOL0     C40534   2.302  10.700   3.164  0.3626  1.1871 -0.5457
 1019MOL0     N40535   1.809  10.250   2.958  0.0622  0.1325 -0.3948
 1019MOL0     N40536   1.747  10.146   2.913  0.2402 -0.3861  0.4938
 1019MOL0     C40537   0.537  10.556   2.759 -0.2519  0.4462 -0.8625
 1019MOL0     C40538   0.408  10.597   2.723  0.1543  0.5984  0.3608
 1019MOL0     C40539   0.060  10.790   2.534 -0.2647  0.3489 -0.1416
 1019MOL0     C40540  -0.030  10.731   2.626 -0.1902 -0.3600  0.5101
 1019MOL0     C40541  -0.157  10.780   2.632 -0.3745  0.1303  0.6546
 1019MOL0     C40542  -0.208  10.874   2.547  0.4942  0.3049 -1.2038
 1019MOL0     O40543  -0.336  10.927   2.558 -0.4416  0.5050  0.8579
 1019MOL0     C40544  -0.433  10.886   2.660  1.0656 -0.5649 -0.0717
 1019MOL0     C40545  -0.500  11.006   2.705  0.2187 -0.2565 -0.2287
 1019MOL0     C40546  -0.427  11.071   2.821 -0.0550 -0.3997 -0.4074
 1019MOL0     C40547  -0.450  11.225   2.822  0.1673  0.6895  0.2377
 1019MOL0     C40548  -0.587  11.257   2.857  0.6786 -0.7552  0.6470
 1019MOL0     C40549  -0.697  11.296   2.865 -0.3936  0.0468  0.3876
 1019MOL0     C40550  -0.127  10.926   2.448  0.0667  1.2799  0.6549
 1019MOL0     C40551   0.011  10.880   2.435  1.1381  0.2176 -0.3225
 1019MOL0     C40552   0.093  10.922   2.313  0.6085  0.8970  0.5334
 1019MOL0     H40553   0.365  10.436   2.428 -1.4211 -2.5817  2.1532
 1019MOL0     H40554   0.598  10.364   2.485  2.4251 -0.1770  2.1319
 1019MOL0     H40555   0.806  10.489   2.873 -0.7942  0.6187 -0.3189
 1019MOL0     H40556   0.801  10.620   2.749  1.0889  0.8878 -0.1421
 1019MOL0     H40557   0.993  10.506   2.653  2.6400  0.2318  1.9193
 1019MOL0     H40558   1.039  10.521   2.827 -1.1158 -0.1799  2.4904
 1019MOL0     H40559   0.950  10.301   2.853 -1.1771  1.2834 -1.0688
 1019MOL0     H40560   0.960  10.273   2.669  0.2548  1.4246 -1.2810
 1019MOL0     H40561   1.213  10.338   2.695 -1.6482  0.9981  0.2178
 1019MOL0     H40562   1.181  10.300   2.862 -2.5854 -0.2779  0.9119
 1019MOL0     H40563   1.182  10.117   2.613  0.8385  2.9621 -0.7310
 1019MOL0     H40564   1.071  10.074   2.742 -0.6103  1.2239  0.3259
 1019MOL0     H40565   1.231  10.086   2.907 -1.1268 -0.4021 -0.8167
 1019MOL0     H40566   1.297   9.977   2.785 -0.5516  1.0338 -2.5464
 1019MOL0     H40567   1.392  10.254   2.842  0.9073  0.1300 -0.2681
 1019MOL0     H40568   1.441  10.182   2.692  0.8150  2.0049  0.9773
 1019MOL0     H40569   1.454  10.048   2.971  0.5763 -0.2046  0.1190
 1019MOL0     H40570   1.545   9.993   2.829  3.5764  1.0766  1.6260
 1019MOL0     H40571   1.504  10.317   3.049  0.3966 -0.6413  1.0318
 1019MOL0     H40572   1.836  10.412   3.174  0.5426 -0.9569 -0.6027
 1019MOL0     H40573   1.673  10.476   3.185  1.2802 -2.8904  3.0310
 1019MOL0     H40574   1.857  10.554   2.958  1.3845 -2.4370  1.7590
 1019MOL0     H40575   1.706  10.631   2.994  1.8258  1.8243 -1.2986
 1019MOL0     H40576   1.851  10.783   3.106  0.8480 -0.0432 -0.7776
 1019MOL0     H40577   1.811  10.677   3.247 -3.4313 -0.3527 -0.6360
 1019MOL0     H40578   2.024  10.549   3.188  0.4856  0.0009  0.7999
 1019MOL0     H40579   2.060  10.654   3.056  2.0752 -2.1942  0.8482
 1019MOL0     H40580   2.171  10.727   3.464 -0.2241  1.1552 -1.3633
 1019MOL0     H40581   2.505  10.689   3.596  0.4028  0.9583 -1.7337
 1019MOL0     H40582   2.419  10.534   3.580 -2.4721 -1.1840  1.0528
 1019MOL0     H40583   2.332  10.681   3.640  2.5318  4.0699 -0.6389
 1019MOL0     H40584   2.855  10.708   3.149 -1.7378  1.7793  4.3496
 1019MOL0     H40585   3.109  10.678   3.177 -0.1058  1.2950  1.0814
 1019MOL0     H40586   3.262  10.663   3.309 -1.2255  0.3056 -1.3003
 1019MOL0     H40587   3.382  10.541   3.362  1.8209 -0.4336 -2.4683
 1019MOL0     H40588   3.375  10.452   3.115  0.6063  0.1187 -1.0858
 1019MOL0     H40589   3.291  10.605   3.082 -1.3125 -0.3905  1.7966
 1019MOL0     H40590   3.549  10.601   3.246  1.3620 -1.4719 -1.7603
 1019MOL0     H40591   3.480  10.733   3.175 -0.5766  0.1957 -0.8367
 1019MOL0     H40592   3.669  10.672   3.005 -1.2303  1.1734 -0.1752
 1019MOL0     H40593   3.524  10.592   2.941 -2.0258 -0.6958  2.0925
 1019MOL0     H40594   3.738  10.462   3.115  0.4832 -2.5403 -0.8426
 1019MOL0     H40595   3.597  10.387   3.041  0.7730 -0.4392  0.5620
 1019MOL0     H40596   3.818  10.517   2.870 -0.6511  0.5631 -0.6063
 1019MOL0     H40597   3.660  10.451   2.809 -1.6518  0.6781  1.7066
 1019MOL0     H40598   3.727  10.235   2.869  0.4523  0.2080  0.4788
 1019MOL0     H40599   3.868  10.292   2.951  1.0021  1.6434  0.0736
 1019MOL0     H40600   3.933  10.206   2.730  0.7774  1.0015  0.3973
 1019MOL0     H40601   3.970  10.375   2.756 -0.1015  0.3628  3.2279
 1019MOL0     H40602   3.012  10.319   3.400 -0.3455  0.0338  0.7818
 1019MOL0     H40603   2.788  10.350   3.376  1.7799 -0.5644  1.6716
 1019MOL0     H40604   2.501  10.645   3.119  0.7126  0.8611  2.0033
 1019MOL0     H40605   2.285  10.718   3.059  0.3355 -3.3687 -1.5019
 1019MOL0     H40606   0.571  10.580   2.859 -0.4560  0.9458 -0.9100
 1019MOL0     H40607   0.361  10.666   2.791  0.0251  4.3958 -3.1992
 1019MOL0     H40608   0.001  10.650   2.691 -1.4398 -1.8738 -0.6925
 1019MOL0     H40609  -0.215  10.731   2.710 -0.5855 -0.8324 -0.0781
 1019MOL0     H40610  -0.513  10.831   2.609 -1.5456  2.6384  0.2745
 1019MOL0     H40611  -0.402  10.825   2.745 -1.5865 -0.0241  1.4156
 1019MOL0     H40612  -0.595  10.985   2.755  1.7645  1.0924  3.6708
 1019MOL0     H40613  -0.516  11.077   2.624  2.1251 -1.0469 -1.3402
 1019MOL0     H40614  -0.449  11.028   2.920 -0.8675  1.5709  0.2999
 1019MOL0     H40615  -0.321  11.046   2.806 -1.1318 -3.8746 -3.6934
 1019MOL0     H40616  -0.418  11.265   2.726  3.3821 -0.8327  0.5616
 1019MOL0     H40617  -0.383  11.266   2.898  3.3297 -2.1163 -0.8375
 1019MOL0     H40618  -0.797  11.334   2.868 -0.8664 -1.0450 -0.8214
 1019MOL0     H40619  -0.169  11.001   2.382 -1.0547  0.1256 -0.0128
 1019MOL0     H40620   0.038  11.003   2.263  3.1808  2.8462  0.6709
 1019MOL0     H40621   0.190  10.959   2.344  1.1284 -0.6807  0.8865
 1019MOL0     H40622   0.108  10.838   2.245  2.2685  1.3634  0.2792
 1020MOL0     O40623   1.860   6.474   8.474  0.1142 -0.2823 -1.2067
 1020MOL0     C40624   1.904   6.416   8.569 -0.7608  0.1143  1.0114
 1020MOL0     O40625   2.036   6.384   8.586 -0.3347  0.2608  0.6663
 1020MOL0     C40626   2.113   6.368   8.474  0.0096 -0.2231 -1.7804
 1020MOL0     C40627   2.244   6.414   8.482  0.8173  0.7316 -1.0696
 1020MOL0     C40628   2.328   6.384   8.375  0.7410 -0.5776  0.2670
 1020MOL0     C40629   2.292   6.311   8.254  0.8061  0.0084  0.3637
 1020MOL0     O40630   2.384   6.252   8.168 -0.0463 -0.3120 -0.5696
 1020MOL0     C40631   2.360   6.283   8.030  0.0122 -0.2354  0.2240
 1020MOL0     C40632   2.407   6.418   7.975 -0.2977  0.2068 -0.1082
 1020MOL0     C40633   2.560   6.436   7.993  0.2795  0.3756 -0.1392
 1020MOL0     C40634   2.597   6.561   7.910  0.5472 -0.6223  0.9165
 1020MOL0     C40635   2.744   6.599   7.923 -0.9655  0.3764  0.1317
 1020MOL0     C40636   2.761   6.740   7.871 -1.1599 -0.2031  0.4518
 1020MOL0     C40637   2.901   6.792   7.926 -0.5215 -0.3077 -0.5485
 1020MOL0     C40638   2.934   6.933   7.875 -0.6830  0.3134 -0.3014
 1020MOL0     N40639   3.042   6.999   7.944  0.0864  0.0120  0.8007
 1020MOL0     C40640   3.180   6.965   7.948 -0.5366 -0.1095 -0.3044
 1020MOL0     C40641   3.243   7.079   8.008  0.2923 -0.0448  0.6415
 1020MOL0     C40642   3.388   7.119   8.024  0.1813 -0.5655 -1.0396
 1020MOL0     C40643   3.447   7.203   7.909 -0.0507 -0.1240 -0.3799
 1020MOL0     C40644   3.587   7.261   7.932  1.2382 -0.2725 -0.3171
 1020MOL0     C40645   3.625   7.347   7.807  0.6447  0.6877  0.0166
 1020MOL0     O40646   3.679   7.265   7.696 -0.1533  1.0660  0.2206
 1020MOL0     C40647   3.806   7.271   7.660 -0.4434 -0.6334  0.1418
 1020MOL0     C40648   3.857   7.146   7.611  0.3808 -0.1882  0.1332
 1020MOL0     C40649   3.986   7.134   7.561 -0.1690 -0.3863 -0.0612
 1020MOL0     C40650   4.028   6.994   7.526  0.3110  0.4996 -0.3278
 1020MOL0     C40651   4.069   7.248   7.552 -0.5395 -0.5947  0.0293
 1020MOL0     C40652   4.214   7.247   7.519 -0.0989  0.0185 -0.2553
 1020MOL0     O40653   4.266   7.374   7.495 -0.0250 -0.0565  0.0105
 1020MOL0     C40654   4.384   7.378   7.429 -0.0742  0.8318  0.2578
 1020MOL0     C40655   4.507   7.380   7.500 -0.1288  0.6635  0.6444
 1020MOL0     C40656   4.625   7.388   7.425  0.9160  0.1512  0.4017
 1020MOL0     C40657   4.624   7.391   7.282  0.4063 -0.4807 -0.0670
 1020MOL0     O40658   4.734   7.392   7.202  0.0585  0.2513  0.1946
 1020MOL0     C40659   4.853   7.415   7.270  0.8654  0.0157 -0.3534
 1020MOL0     C40660   4.955   7.460   7.165  0.3522 -0.1760  0.6620
 1020MOL0     C40661   5.093   7.476   7.229  0.4473  0.3349  1.0423
 1020MOL0     C40662   5.199   7.501   7.122  0.6108  0.1429  0.8042
 1020MOL0     C40663   5.340   7.490   7.195  0.1894 -0.3831  0.0559
 1020MOL0     C40664   5.446   7.535   7.105 -0.6112 -0.1963 -0.6192
 1020MOL0     C40665   5.475   7.430   7.003  0.3468  0.2187  0.2703
 1020MOL0     C40666   5.592   7.471   6.903  0.3679 -0.1709  0.4611
 1020MOL0    Cl40667   5.689   7.326   6.853 -0.2741 -0.2667  0.1658
 1020MOL0     C40668   4.503   7.400   7.222  0.0177  0.1414 -0.5783
 1020MOL0     C40669   4.381   7.397   7.291  0.5775 -0.1372  0.2395
 1020MOL0     O40670   4.275   7.139   7.505 -0.1320 -0.8468 -0.2976
 1020MOL0     C40671   4.023   7.369   7.612  0.2468  0.2830  0.0856
 1020MOL0     C40672   3.892   7.384   7.660 -0.1316  0.0775 -0.1640
 1020MOL0     N40673   3.143   7.176   8.019 -0.2044  0.5852  0.4152
 1020MOL0     N40674   3.027   7.115   8.010 -0.0939  0.4994 -0.3732
 1020MOL0     C40675   2.158   6.266   8.253 -0.0673  0.1066 -0.3348
 1020MOL0     C40676   2.067   6.297   8.357 -0.6286  0.0735 -0.2601
 1020MOL0     C40677   1.820   6.391   8.692  0.1536  0.0357  0.9495
 1020MOL0     C40678   1.869   6.305   8.791 -0.6863  0.4338  0.0021
 1020MOL0     C40679   1.792   6.266   8.895 -0.6818 -0.0639 -0.0164
 1020MOL0     C40680   1.668   6.320   8.924  0.6573  0.1989 -0.0017
 1020MOL0     O40681   1.608   6.272   9.038 -0.1358 -0.0347  0.5783
 1020MOL0     C40682   1.476   6.318   9.073  0.9360  0.3458  0.2490
 1020MOL0     C40683   1.483   6.456   9.139 -0.1597  0.5062 -0.1579
 1020MOL0     C40684   1.341   6.489   9.181  0.2842  0.3594 -0.6234
 1020MOL0     C40685   1.349   6.617   9.257 -0.5626  0.0332  0.5262
 1020MOL0     C40686   1.217   6.634   9.321 -0.3927 -1.0473  0.2816
 1020MOL0     C40687   1.110   6.618   9.378  0.5632 -0.7875 -0.0968
 1020MOL0     C40688   1.609   6.409   8.830 -0.7803  0.1800  0.2542
 1020MOL0     C40689   1.685   6.437   8.707 -0.0349 -0.0879 -0.4866
 1020MOL0     C40690   1.611   6.516   8.614 -0.3051 -0.1859 -0.1551
 1020MOL0     H40691   2.277   6.463   8.573  0.3228  1.0623 -1.0606
 1020MOL0     H40692   2.433   6.413   8.368 -0.2911  3.3266 -3.3338
 1020MOL0     H40693   2.254   6.277   8.003  0.2195  2.2298 -1.4178
 1020MOL0     H40694   2.414   6.205   7.975 -1.4735 -1.5331  0.5457
 1020MOL0     H40695   2.377   6.431   7.870 -0.2950 -0.3653 -0.1847
 1020MOL0     H40696   2.364   6.500   8.033 -0.3581 -0.3669  0.6726
 1020MOL0     H40697   2.585   6.451   8.099  0.0729 -3.1456  0.5477
 1020MOL0     H40698   2.613   6.347   7.956 -0.5563  0.7332 -2.3295
 1020MOL0     H40699   2.578   6.550   7.803  0.9758  4.0738  0.1526
 1020MOL0     H40700   2.537   6.645   7.946  0.0580 -1.2381  1.5680
 1020MOL0     H40701   2.808   6.528   7.868 -0.2776  2.3916 -1.8167
 1020MOL0     H40702   2.769   6.589   8.029 -1.6435 -0.1683  0.2503
 1020MOL0     H40703   2.755   6.742   7.762  0.3023 -0.4398  0.3434
 1020MOL0     H40704   2.689   6.811   7.912 -0.1500  0.7460  0.6489
 1020MOL0     H40705   2.979   6.718   7.905  0.0631  0.0559  0.2909
 1020MOL0     H40706   2.901   6.803   8.034 -3.1219  2.4516 -0.6980
 1020MOL0     H40707   2.965   6.930   7.770 -2.8099 -1.8064 -0.9596
 1020MOL0     H40708   2.845   6.995   7.883 -1.8012 -0.9000 -2.4521
 1020MOL0     H40709   3.226   6.871   7.920  2.7323  0.7162  1.6949
 1020MOL0     H40710   3.444   7.026   8.041 -0.9439 -1.0693  0.0440
 1020MOL0     H40711   3.396   7.176   8.117  0.0219 -0.5346 -1.0443
 1020MOL0     H40712   3.457   7.147   7.815  2.7007  1.0572 -0.8835
 1020MOL0     H40713   3.382   7.288   7.885 -1.1851 -1.2423 -1.4760
 1020MOL0     H40714   3.590   7.320   8.024  0.1658  0.5737 -0.8044
 1020MOL0     H40715   3.665   7.185   7.916  0.3918 -0.8959 -1.6464
 1020MOL0     H40716   3.538   7.400   7.767  1.1726 -1.1049 -3.9890
 1020MOL0     H40717   3.697   7.423   7.837  0.9829  1.0690 -1.6209
 1020MOL0     H40718   3.783   7.068   7.628 -0.5931  0.9685  1.5192
 1020MOL0     H40719   4.067   6.993   7.423  1.9097 -2.0006  0.2094
 1020MOL0     H40720   3.938   6.931   7.536  0.7949  0.2123  3.7922
 1020MOL0     H40721   4.105   6.952   7.590 -1.7080 -2.3675  0.4375
 1020MOL0     H40722   4.510   7.393   7.607  2.7953  2.3008  0.4471
 1020MOL0     H40723   4.720   7.369   7.476  0.3393 -3.6991  0.3592
 1020MOL0     H40724   4.850   7.490   7.350  2.1075 -2.7338  2.4935
 1020MOL0     H40725   4.898   7.324   7.310  2.4492 -0.6395 -3.3283
 1020MOL0     H40726   4.965   7.403   7.072  2.5407  1.7951 -0.4176
 1020MOL0     H40727   4.915   7.556   7.131  1.2999 -0.3295 -0.9763
 1020MOL0     H40728   5.114   7.379   7.276 -1.0736 -1.5374 -1.8573
 1020MOL0     H40729   5.102   7.550   7.309 -1.2580 -0.2040  1.7638
 1020MOL0     H40730   5.170   7.596   7.076 -0.7802 -1.3853 -1.7100
 1020MOL0     H40731   5.199   7.414   7.056 -2.4407 -1.0682  2.1896
 1020MOL0     H40732   5.346   7.546   7.290 -0.8964 -1.8782  1.0587
 1020MOL0     H40733   5.367   7.390   7.228 -0.3270 -0.2450  0.9454
 1020MOL0     H40734   5.527   7.563   7.173 -1.6762  0.5168  0.3993
 1020MOL0     H40735   5.413   7.631   7.064 -0.0982  1.8451  3.2405
 1020MOL0     H40736   5.389   7.417   6.937 -0.6852  4.3515  0.5016
 1020MOL0     H40737   5.494   7.332   7.049 -0.1472  1.7600  4.1819
 1020MOL0     H40738   5.657   7.549   6.943 -0.3948 -0.0644  1.5259
 1020MOL0     H40739   5.535   7.512   6.819 -1.2192 -1.5692  0.7924
 1020MOL0     H40740   4.507   7.409   7.113  3.7069 -3.1450 -0.9630
 1020MOL0     H40741   4.287   7.401   7.237  1.0823 -4.6071 -1.3831
 1020MOL0     H40742   4.081   7.460   7.613  2.9412 -1.1738 -3.1134
 1020MOL0     H40743   3.857   7.480   7.698  0.8264  0.4433 -0.1925
 1020MOL0     H40744   2.137   6.203   8.167  2.6721 -2.7789  0.9279
 1020MOL0     H40745   1.966   6.258   8.353 -0.8183  0.2371  1.8017
 1020MOL0     H40746   1.972   6.274   8.781 -0.4027  1.7771 -1.6948
 1020MOL0     H40747   1.838   6.199   8.967  1.5484 -0.4837 -1.7314
 1020MOL0     H40748   1.414   6.319   8.983 -0.8088  0.3655  1.4120
 1020MOL0     H40749   1.427   6.255   9.148  0.4525  0.0506 -0.3072
 1020MOL0     H40750   1.540   6.524   9.074 -1.0733  0.9033 -0.5618
 1020MOL0     H40751   1.540   6.436   9.230 -0.7847 -0.0096  0.1350
 1020MOL0     H40752   1.277   6.481   9.092  0.7090 -1.3629 -0.8075
 1020MOL0     H40753   1.306   6.419   9.257  0.5782  0.1569 -0.6758
 1020MOL0     H40754   1.373   6.700   9.190 -0.1920  0.2824  0.9605
 1020MOL0     H40755   1.420   6.605   9.340 -1.4300 -1.8308  1.0445
 1020MOL0     H40756   1.012   6.603   9.418  0.5573  1.1246  0.7343
 1020MOL0     H40757   1.512   6.457   8.835  0.5348  3.4065 -1.6215
 1020MOL0     H40758   1.662   6.611   8.603 -1.4478  0.8000  2.2596
 1020MOL0     H40759   1.601   6.465   8.518 -0.5364  3.0591 -1.9825
 1020MOL0     H40760   1.510   6.534   8.652 -0.5392 -2.1607  0.2958
 1021MOL0     O40761   7.993   0.442   0.503 -0.8007 -0.0519  0.4227
 1021MOL0     C40762   7.924   0.427   0.406 -0.8179 -0.2874  1.0156
 1021MOL0     O40763   7.939   0.485   0.286  0.1938  0.0631  0.4248
 1021MOL0     C40764   8.046   0.573   0.266 -0.1833  0.4181  1.3090
 1021MOL0     C40765   8.166   0.522   0.229 -1.4797 -0.4437  0.0506
 1021MOL0     C40766   8.273   0.621   0.225 -0.7288  0.2390  0.3044
 1021MOL0     C40767   8.252   0.759   0.256 -0.2388 -0.1002  0.3939
 1021MOL0     O40768   8.370   0.830   0.240 -0.1992  0.8622 -0.4716
 1021MOL0     C40769   8.368   0.972   0.277 -0.2618 -0.5223  0.2463
 1021MOL0     C40770   8.493   1.044   0.239 -0.7655  0.6486  0.3259
 1021MOL0     C40771   8.480   1.070   0.085  0.0958 -0.6640  0.3310
 1021MOL0     C40772   8.579   1.165   0.023 -0.4034 -0.8139 -0.4524
 1021MOL0     C40773   8.534   1.258  -0.096 -0.2668 -0.4189 -0.7453
 1021MOL0     C40774   8.616   1.388  -0.105 -0.0281 -0.0663  0.5184
 1021MOL0     C40775   8.769   1.365  -0.112  0.6636 -0.4045 -0.2959
 1021MOL0     C40776   8.804   1.313  -0.251  0.3211  0.6251 -0.0453
 1021MOL0     N40777   8.950   1.289  -0.278 -0.0566  0.0096  0.7270
 1021MOL0     C40778   9.051   1.353  -0.205  0.3941  0.8011  0.1282
 1021MOL0     C40779   9.158   1.299  -0.251 -0.1558  0.6076 -0.8624
 1021MOL0     C40780   9.296   1.333  -0.208  0.5714 -0.8933  0.4746
 1021MOL0     C40781   9.331   1.304  -0.063  1.2667 -0.2350  0.4573
 1021MOL0     C40782   9.332   1.162  -0.022  1.0981 -0.3494 -0.7517
 1021MOL0     C40783   9.457   1.097  -0.092 -0.4232 -0.2098 -0.0022
 1021MOL0     O40784   9.574   1.169  -0.046  0.6204  0.1506  0.5191
 1021MOL0     C40785   9.696   1.140  -0.111  0.6186  0.7182  0.6339
 1021MOL0     C40786   9.802   1.220  -0.085 -0.9433 -0.1559 -0.4018
 1021MOL0     C40787   9.927   1.208  -0.134 -1.1152  0.3172  0.2804
 1021MOL0     C40788  10.030   1.309  -0.096  0.2079  0.0775 -0.1010
 1021MOL0     C40789   9.949   1.100  -0.226 -0.2885  0.5599 -0.2099
 1021MOL0     C40790  10.082   1.064  -0.277  1.2935 -0.8746 -0.0698
 1021MOL0     O40791  10.093   0.959  -0.359 -0.0956  0.0178  0.1709
 1021MOL0     C40792  10.209   0.940  -0.427  0.4018  0.4457 -0.8598
 1021MOL0     C40793  10.237   0.987  -0.555 -0.8632 -0.8643  0.4668
 1021MOL0     C40794  10.357   0.963  -0.626  0.2132 -1.4143  0.7623
 1021MOL0     C40795  10.451   0.877  -0.562  0.0992  0.7951 -0.2406
 1021MOL0     O40796  10.568   0.837  -0.621  0.4962  0.3535  0.2468
 1021MOL0     C40797  10.621   0.924  -0.713  0.5111  0.7709  0.3240
 1021MOL0     C40798  10.779   0.907  -0.728  0.0820 -0.4650 -0.5018
 1021MOL0     C40799  10.851   0.850  -0.596 -0.2347  0.2805 -0.2462
 1021MOL0     C40800  11.000   0.814  -0.623  0.8463 -0.3354 -0.8299
 1021MOL0     C40801  11.069   0.737  -0.518  0.0693  0.1031 -1.2074
 1021MOL0     C40802  11.055   0.790  -0.370  0.1772 -0.0212  0.1705
 1021MOL0     C40803  11.124   0.689  -0.268 -0.6455  0.5371 -0.2560
 1021MOL0     C40804  11.266   0.631  -0.298  0.6600  0.8802  0.1389
 1021MOL0    Cl40805  11.404   0.749  -0.298  0.1937  0.1116  0.2263
 1021MOL0     C40806  10.418   0.818  -0.438 -0.2844 -0.2322 -0.1891
 1021MOL0     C40807  10.301   0.853  -0.366  0.3017 -0.2045 -0.6848
 1021MOL0     O40808  10.179   1.125  -0.237  0.7760 -0.1177 -0.0755
 1021MOL0     C40809   9.838   1.009  -0.253  0.1456 -0.6614 -0.3739
 1021MOL0     C40810   9.712   1.023  -0.191  0.3648 -0.5220  0.5036
 1021MOL0     N40811   9.132   1.203  -0.349 -1.0071  0.8144 -0.1349
 1021MOL0     N40812   9.008   1.192  -0.354 -0.0789  0.0362  0.5089
 1021MOL0     C40813   8.128   0.806   0.310  0.1919  0.9929  0.2273
 1021MOL0     C40814   8.026   0.711   0.311 -0.1670 -0.1993  0.1523
 1021MOL0     C40815   7.819   0.330   0.412 -0.3290 -0.3472  0.5875
 1021MOL0     C40816   7.780   0.273   0.285 -0.0839 -0.2516 -0.4683
 1021MOL0     C40817   7.700   0.154   0.294  0.9542 -0.8075  0.8257
 1021MOL0     C40818   7.644   0.109   0.417 -0.0938 -0.4265 -0.4239
 1021MOL0     O40819   7.544   0.013   0.423 -0.0684 -1.3221  0.3199
 1021MOL0     C40820   7.474  -0.025   0.302 -0.1309  0.2663  0.3603
 1021MOL0     C40821   7.376   0.087   0.256 -0.8257  0.0444  0.5148
 1021MOL0     C40822   7.270   0.116   0.360 -0.1843 -0.2550 -0.1370
 1021MOL0     C40823   7.147   0.197   0.295 -0.5046  0.1056 -0.1109
 1021MOL0     C40824   7.057   0.238   0.405 -0.2629 -0.4088 -0.3693
 1021MOL0     C40825   6.991   0.266   0.501  1.5975  0.6766  0.1341
 1021MOL0     C40826   7.678   0.171   0.526 -0.9974  0.0242  0.2127
 1021MOL0     C40827   7.761   0.285   0.526  0.8567 -0.6007 -0.2925
 1021MOL0     C40828   7.793   0.342   0.655 -0.6700 -0.2734 -0.0273
 1021MOL0     H40829   8.189   0.419   0.206  1.3838  0.3905 -1.1589
 1021MOL0     H40830   8.370   0.595   0.185 -0.7714  1.4146 -0.6043
 1021MOL0     H40831   8.359   0.967   0.386 -3.0972  2.6245  0.3297
 1021MOL0     H40832   8.285   1.034   0.242 -0.3117 -0.1978  0.9141
 1021MOL0     H40833   8.494   1.140   0.292 -0.3947  2.1627 -2.2434
 1021MOL0     H40834   8.579   0.983   0.268 -0.1225  0.8028 -1.1519
 1021MOL0     H40835   8.494   0.979   0.025  1.4701  0.2358 -0.7812
 1021MOL0     H40836   8.385   1.116   0.057 -0.6087 -2.4040 -0.2820
 1021MOL0     H40837   8.607   1.240   0.098  0.1724  2.3728 -3.5786
 1021MOL0     H40838   8.670   1.109  -0.001  0.7981  0.8509  0.0246
 1021MOL0     H40839   8.428   1.282  -0.083  0.1890  0.1318  3.1574
 1021MOL0     H40840   8.534   1.208  -0.193 -2.1018  0.0262 -1.0136
 1021MOL0     H40841   8.575   1.431  -0.197  1.7972  0.2069 -0.2065
 1021MOL0     H40842   8.594   1.444  -0.013  2.0125 -3.0341  3.0364
 1021MOL0     H40843   8.805   1.297  -0.034 -0.2748 -1.7140 -0.9567
 1021MOL0     H40844   8.819   1.462  -0.109 -0.7595  0.4832 -2.7088
 1021MOL0     H40845   8.748   1.220  -0.257 -2.2184  1.9823  0.9635
 1021MOL0     H40846   8.776   1.392  -0.321 -0.1424  1.8885  1.4920
 1021MOL0     H40847   9.055   1.434  -0.133  0.1014  0.5029  0.4855
 1021MOL0     H40848   9.299   1.440  -0.234  0.0138 -0.8835  0.4406
 1021MOL0     H40849   9.370   1.290  -0.275 -1.8474 -2.3032 -1.4535
 1021MOL0     H40850   9.428   1.352  -0.049  1.2034  0.1685 -0.4189
 1021MOL0     H40851   9.258   1.354   0.001  1.8327 -0.3045  1.1694
 1021MOL0     H40852   9.339   1.157   0.087 -0.2776 -1.3960 -0.6833
 1021MOL0     H40853   9.243   1.109  -0.056  0.6378  1.0573 -1.8285
 1021MOL0     H40854   9.461   0.991  -0.066 -0.1191 -0.5947 -1.5239
 1021MOL0     H40855   9.437   1.108  -0.199  1.9957  0.2858 -0.4786
 1021MOL0     H40856   9.770   1.305  -0.026  1.7841  1.1980 -0.7045
 1021MOL0     H40857   9.979   1.388  -0.039 -3.3900  0.4257 -3.3586
 1021MOL0     H40858  10.079   1.355  -0.182 -1.3190  0.5071 -0.7738
 1021MOL0     H40859  10.106   1.256  -0.038 -0.8836 -1.5492 -0.0871
 1021MOL0     H40860  10.154   1.029  -0.611 -1.1006 -1.6915  0.1759
 1021MOL0     H40861  10.352   1.015  -0.721 -0.8175  0.3139  1.7141
 1021MOL0     H40862  10.573   0.910  -0.810 -1.0374 -2.3965  1.4239
 1021MOL0     H40863  10.621   1.027  -0.677  0.7710  0.5145  1.0667
 1021MOL0     H40864  10.782   0.838  -0.813 -3.1031  0.1840 -1.3006
 1021MOL0     H40865  10.833   1.001  -0.746  0.7046  0.0224  3.1331
 1021MOL0     H40866  10.803   0.757  -0.563  1.1224 -0.2781  0.2346
 1021MOL0     H40867  10.842   0.928  -0.521  1.5755 -0.8089  1.1814
 1021MOL0     H40868  11.039   0.916  -0.631  0.2714 -0.0568 -0.1771
 1021MOL0     H40869  11.009   0.758  -0.717 -0.4579  0.0937 -1.2376
 1021MOL0     H40870  11.045   0.630  -0.513 -2.3462  0.6333  0.0584
 1021MOL0     H40871  11.175   0.743  -0.542  0.1380 -1.2457 -1.3450
 1021MOL0     H40872  10.948   0.789  -0.346 -0.0584 -1.5899 -0.7818
 1021MOL0     H40873  11.105   0.887  -0.360  2.3444 -1.2436  2.1209
 1021MOL0     H40874  11.048   0.613  -0.246 -0.2765  0.3072  0.2400
 1021MOL0     H40875  11.138   0.743  -0.174  1.4518 -1.2963  0.5758
 1021MOL0     H40876  11.259   0.571  -0.390  2.5336  0.4942  0.2109
 1021MOL0     H40877  11.274   0.556  -0.219  2.2568  2.0044  1.0913
 1021MOL0     H40878  10.496   0.753  -0.400  3.3513  3.1761 -1.1672
 1021MOL0     H40879  10.280   0.815  -0.267 -0.8705 -1.3797 -1.3547
 1021MOL0     H40880   9.857   0.926  -0.320  1.6274  1.0308 -2.1562
 1021MOL0     H40881   9.632   0.949  -0.197 -0.2117  0.1769 -0.7143
 1021MOL0     H40882   8.110   0.904   0.354 -1.1730  0.8501  0.0349
 1021MOL0     H40883   7.935   0.742   0.361 -0.8725 -1.9174  0.0003
 1021MOL0     H40884   7.830   0.301   0.192  0.7189 -0.0778  0.0023
 1021MOL0     H40885   7.662   0.103   0.206 -1.7110  1.1859  0.6981
 1021MOL0     H40886   7.542  -0.045   0.218  2.7455  2.3618  2.0338
 1021MOL0     H40887   7.423  -0.119   0.328 -0.5327  1.2279  3.4016
 1021MOL0     H40888   7.330   0.055   0.162  1.3041 -2.5580  0.2272
 1021MOL0     H40889   7.427   0.178   0.226 -3.0161  1.5598  1.1296
 1021MOL0     H40890   7.227   0.027   0.407 -0.9728 -0.0876 -0.5257
 1021MOL0     H40891   7.319   0.169   0.442  0.6145  1.6385 -1.7579
 1021MOL0     H40892   7.089   0.131   0.230 -0.6728 -1.5279  1.6525
 1021MOL0     H40893   7.183   0.288   0.244  3.3556  0.3961  2.7342
 1021MOL0     H40894   6.929   0.312   0.576  0.7209  0.6088 -0.5234
 1021MOL0     H40895   7.637   0.144   0.623  0.9576 -1.3530  0.7300
 1021MOL0     H40896   7.810   0.447   0.633 -2.4849  0.3109  1.1710
 1021MOL0     H40897   7.714   0.338   0.730 -1.5399  0.6371 -0.8749
 1021MOL0     H40898   7.886   0.300   0.694 -0.3015 -0.0317 -0.6310
 1022MOL0     O40899   4.411   5.155   5.256  0.2711  0.4406 -0.0110
 1022MOL0     C40900   4.326   5.073   5.258  0.1387  0.4104  0.5056
 1022MOL0     O40901   4.339   4.939   5.294 -0.3771  0.4600 -0.6002
 1022MOL0     C40902   4.461   4.916   5.351 -0.5436 -0.3070  0.1132
 1022MOL0     C40903   4.572   4.880   5.283 -0.2544  0.7469 -0.0756
 1022MOL0     C40904   4.707   4.870   5.336  0.4704  0.1377 -0.2291
 1022MOL0     C40905   4.724   4.872   5.467 -0.4366 -0.1307 -0.2995
 1022MOL0     O40906   4.851   4.855   5.519 -0.3570 -0.3478 -0.1749
 1022MOL0     C40907   4.862   4.861   5.662 -0.3016  0.8033  1.0313
 1022MOL0     C40908   5.004   4.820   5.720 -0.1962 -0.3306 -0.6058
 1022MOL0     C40909   5.066   4.703   5.646 -1.3118 -0.8219  0.0875
 1022MOL0     C40910   5.204   4.658   5.699  0.8385  0.7096  1.0064
 1022MOL0     C40911   5.256   4.527   5.632  0.3866 -0.7531 -0.1359
 1022MOL0     C40912   5.401   4.479   5.665  0.7649 -0.5606  0.0159
 1022MOL0     C40913   5.426   4.378   5.782  0.5354  0.6191  0.5742
 1022MOL0     C40914   5.580   4.360   5.794 -0.2958 -0.4462  0.1092
 1022MOL0     N40915   5.625   4.268   5.691 -0.3373 -0.5639  0.3633
 1022MOL0     C40916   5.627   4.133   5.722  0.4224 -0.1368  1.1696
 1022MOL0     C40917   5.674   4.072   5.617 -0.0157  0.8576 -0.5811
 1022MOL0     C40918   5.711   3.925   5.634  0.0935 -0.0443  0.4092
 1022MOL0     C40919   5.839   3.893   5.559 -0.2842  1.4381  0.2314
 1022MOL0     C40920   5.894   3.765   5.619  0.5163  0.5576  0.2968
 1022MOL0     C40921   6.012   3.710   5.528  0.1761  0.1224  1.3654
 1022MOL0     O40922   6.111   3.808   5.514 -0.3377 -0.6741  1.1620
 1022MOL0     C40923   6.216   3.766   5.431  0.6296  0.1689  0.2839
 1022MOL0     C40924   6.200   3.727   5.294  0.1052 -0.1736 -0.1317
 1022MOL0     C40925   6.306   3.682   5.211 -1.0959  0.0463 -0.3094
 1022MOL0     C40926   6.279   3.651   5.066  0.5834 -0.2153  0.4867
 1022MOL0     C40927   6.441   3.676   5.264 -0.5727 -0.1375  0.2337
 1022MOL0     C40928   6.561   3.629   5.183 -0.1620 -0.0809 -0.0278
 1022MOL0     O40929   6.682   3.661   5.246  0.1420 -0.6033  0.2635
 1022MOL0     C40930   6.799   3.659   5.175  0.1103 -0.5145 -0.0487
 1022MOL0     C40931   6.912   3.652   5.258 -0.0742  0.4957 -0.8404
 1022MOL0     C40932   7.042   3.661   5.204 -0.0111 -0.7802  0.3075
 1022MOL0     C40933   7.061   3.650   5.063 -0.2133  0.1305  1.2490
 1022MOL0     O40934   7.184   3.645   5.005  0.2356 -0.7074 -0.6248
 1022MOL0     C40935   7.286   3.720   5.065 -0.0026 -0.9347 -0.8335
 1022MOL0     C40936   7.393   3.783   4.971  0.3600  0.3284 -0.2580
 1022MOL0     C40937   7.495   3.681   4.924 -0.3395 -0.4610 -0.2813
 1022MOL0     C40938   7.621   3.752   4.863  0.2459 -0.1651 -0.0124
 1022MOL0     C40939   7.749   3.671   4.844 -0.1956 -0.0623 -0.1442
 1022MOL0     C40940   7.822   3.640   4.970 -0.2512  0.6960 -0.0356
 1022MOL0     C40941   7.755   3.533   5.050  1.2919 -0.0393  0.6191
 1022MOL0     C40942   7.838   3.465   5.161 -1.1389 -1.0342  0.2898
 1022MOL0    Cl40943   7.871   3.594   5.276 -0.8640 -0.1993 -0.2136
 1022MOL0     C40944   6.945   3.648   4.979  1.1199 -0.1133  0.2121
 1022MOL0     C40945   6.814   3.660   5.040 -0.2801  0.4961  1.0773
 1022MOL0     O40946   6.549   3.549   5.091  0.1169  0.0032 -0.0515
 1022MOL0     C40947   6.458   3.721   5.398  0.3545 -0.2032  0.5340
 1022MOL0     C40948   6.352   3.763   5.482 -0.2787  0.6324 -0.0670
 1022MOL0     N40949   5.698   4.163   5.517  0.3423 -0.6315  0.3367
 1022MOL0     N40950   5.663   4.283   5.562 -0.2395 -0.8811  0.8608
 1022MOL0     C40951   4.608   4.903   5.544  0.3817 -1.1361 -0.2117
 1022MOL0     C40952   4.470   4.913   5.489 -0.0827  0.2531 -0.0260
 1022MOL0     C40953   4.178   5.117   5.237 -0.1405 -0.1839 -0.5241
 1022MOL0     C40954   4.081   5.012   5.227  0.5032 -0.1710  1.2298
 1022MOL0     C40955   3.947   5.040   5.209  0.0476  0.7594 -0.2832
 1022MOL0     C40956   3.899   5.167   5.207 -0.3570  0.4521 -0.5165
 1022MOL0     O40957   3.761   5.179   5.206 -0.3062  0.4920  0.2874
 1022MOL0     C40958   3.707   5.311   5.170  0.6821  0.6044 -0.4366
 1022MOL0     C40959   3.551   5.309   5.181 -0.1445 -0.8008 -0.1298
 1022MOL0     C40960   3.486   5.197   5.094 -0.5117  0.0416  0.6491
 1022MOL0     C40961   3.555   5.168   4.962 -0.2740 -0.4208 -0.4196
 1022MOL0     C40962   3.557   5.287   4.875 -0.7178  0.5232  1.0559
 1022MOL0     C40963   3.577   5.362   4.784 -0.1600  0.3757 -0.3751
 1022MOL0     C40964   3.993   5.274   5.223 -0.0335  0.0013 -0.2250
 1022MOL0     C40965   4.136   5.253   5.234  0.1651 -1.2770  0.5081
 1022MOL0     C40966   4.232   5.369   5.240  0.0348  0.2892 -0.4664
 1022MOL0     H40967   4.547   4.870   5.178 -2.2008 -1.0843  0.4896
 1022MOL0     H40968   4.786   4.855   5.264  0.0452  2.3867 -1.2473
 1022MOL0     H40969   4.792   4.799   5.718  1.2250 -0.0794  2.0347
 1022MOL0     H40970   4.834   4.963   5.687 -0.0632  1.3109 -0.6223
 1022MOL0     H40971   5.066   4.911   5.715  1.0334 -1.1981 -2.0587
 1022MOL0     H40972   4.984   4.790   5.823  3.1279  0.8812  0.5271
 1022MOL0     H40973   4.998   4.618   5.657  1.2008 -3.0115 -0.5468
 1022MOL0     H40974   5.085   4.729   5.541  3.6041 -1.8364  0.5328
 1022MOL0     H40975   5.274   4.741   5.687  0.6797  0.8504  1.0452
 1022MOL0     H40976   5.188   4.637   5.805 -0.0476 -1.8142  0.4540
 1022MOL0     H40977   5.242   4.543   5.525 -2.2151 -0.5696  0.1592
 1022MOL0     H40978   5.192   4.441   5.655  2.3450 -2.0647  0.7637
 1022MOL0     H40979   5.436   4.434   5.571  0.5767  1.1287 -0.9169
 1022MOL0     H40980   5.466   4.567   5.665  2.1247 -1.4840 -1.9484
 1022MOL0     H40981   5.375   4.282   5.770 -2.2111  2.0090  0.2130
 1022MOL0     H40982   5.386   4.408   5.879  0.7596 -0.4326  1.0000
 1022MOL0     H40983   5.622   4.459   5.772 -1.9108  0.1056 -0.6546
 1022MOL0     H40984   5.615   4.330   5.893  0.1292 -1.2894 -0.2906
 1022MOL0     H40985   5.596   4.098   5.820 -2.2277 -3.2870 -0.6057
 1022MOL0     H40986   5.633   3.855   5.605 -1.8600  0.2572  4.2574
 1022MOL0     H40987   5.731   3.903   5.739  0.4686  4.7067  1.5815
 1022MOL0     H40988   5.824   3.886   5.451  2.0756  1.6503 -0.1571
 1022MOL0     H40989   5.908   3.978   5.557  2.6462 -0.6450  3.2245
 1022MOL0     H40990   5.928   3.788   5.720 -0.7467  1.0148  0.6411
 1022MOL0     H40991   5.818   3.686   5.618  0.0469  0.9962  0.6550
 1022MOL0     H40992   6.059   3.629   5.585 -0.9205  0.3006  2.5818
 1022MOL0     H40993   5.974   3.665   5.436  2.0978  0.6755  0.2639
 1022MOL0     H40994   6.102   3.730   5.247  0.0129  2.6570  0.0735
 1022MOL0     H40995   6.182   3.686   5.030  0.9777 -1.6714 -2.2346
 1022MOL0     H40996   6.275   3.543   5.047  0.1778  0.0051 -0.7004
 1022MOL0     H40997   6.350   3.696   4.997  0.0570 -0.5422 -0.2817
 1022MOL0     H40998   6.886   3.652   5.363  0.7902  0.2306 -0.6174
 1022MOL0     H40999   7.126   3.670   5.271 -1.0128  0.8851  1.4361
 1022MOL0     H41000   7.240   3.807   5.113  0.4475  1.3887 -4.2421
 1022MOL0     H41001   7.336   3.663   5.144 -0.4534  0.8657  0.8452
 1022MOL0     H41002   7.342   3.849   4.900  1.1065  1.8041  0.5265
 1022MOL0     H41003   7.446   3.854   5.035 -1.2032  0.1618  1.2583
 1022MOL0     H41004   7.448   3.609   4.856 -0.7677  0.2735 -0.7789
 1022MOL0     H41005   7.510   3.623   5.015 -1.3968 -0.5018 -0.1223
 1022MOL0     H41006   7.650   3.841   4.919 -1.6825  0.3022  0.2925
 1022MOL0     H41007   7.588   3.801   4.770 -1.7242 -1.0919  0.1511
 1022MOL0     H41008   7.723   3.584   4.783  0.7228 -1.4394  1.3563
 1022MOL0     H41009   7.822   3.731   4.788 -1.4322 -0.1611 -1.9761
 1022MOL0     H41010   7.837   3.727   5.034 -0.3533  0.6787  0.0114
 1022MOL0     H41011   7.920   3.599   4.943 -0.9623 -0.1068 -1.5407
 1022MOL0     H41012   7.704   3.465   4.981  1.3963 -0.5226  1.0133
 1022MOL0     H41013   7.678   3.572   5.118  1.0354  2.1197 -0.8089
 1022MOL0     H41014   7.932   3.427   5.119  0.4973  0.0892  2.6619
 1022MOL0     H41015   7.783   3.389   5.215  0.9206 -1.4709  1.8955
 1022MOL0     H41016   6.946   3.635   4.871  3.2339 -3.7236  0.5001
 1022MOL0     H41017   6.741   3.665   4.960  1.8088 -3.3328 -1.4332
 1022MOL0     H41018   6.558   3.725   5.438  1.3856 -2.4102 -1.5914
 1022MOL0     H41019   6.369   3.786   5.587 -1.4361  0.3466  0.2054
 1022MOL0     H41020   4.610   4.905   5.652  0.3234 -0.4540 -0.2187
 1022MOL0     H41021   4.390   4.940   5.558 -0.0224  2.8071 -0.8582
 1022MOL0     H41022   4.115   4.909   5.234  2.1111 -0.0526 -2.4559
 1022MOL0     H41023   3.882   4.954   5.195  0.7109  0.5703 -2.6330
 1022MOL0     H41024   3.736   5.386   5.244 -3.2975  3.3151 -1.2915
 1022MOL0     H41025   3.753   5.346   5.077  0.4338  0.0673 -0.7679
 1022MOL0     H41026   3.509   5.401   5.138 -2.4955 -1.7157  0.0664
 1022MOL0     H41027   3.519   5.299   5.285  1.9628  1.6999  0.8748
 1022MOL0     H41028   3.506   5.109   5.157 -3.0159  0.2838  1.9004
 1022MOL0     H41029   3.379   5.208   5.072  0.1646  1.9564 -2.0775
 1022MOL0     H41030   3.501   5.090   4.907  2.0176  0.0017 -3.5670
 1022MOL0     H41031   3.659   5.136   4.975 -0.9399 -1.6360  2.4415
 1022MOL0     H41032   3.589   5.433   4.705  2.4670 -0.9296 -1.2958
 1022MOL0     H41033   3.961   5.378   5.227  1.2591  0.4544 -1.0576
 1022MOL0     H41034   4.267   5.384   5.137 -0.8793 -1.7931 -1.1594
 1022MOL0     H41035   4.170   5.453   5.271  0.5876  0.7922 -0.7184
 1022MOL0     H41036   4.313   5.370   5.313 -2.4739 -1.2196  2.6083
 1023MOL0     O41037   8.039   4.813   7.559  0.1799  0.4593 -0.2165
 1023MOL0     C41038   7.974   4.874   7.471 -0.4518  0.0755  0.5563
 1023MOL0     O41039   8.025   4.906   7.348  0.3746  0.7043 -0.3588
 1023MOL0     C41040   8.153   4.874   7.334  0.2230  0.0106 -0.1596
 1023MOL0     C41041   8.198   4.773   7.246  0.6462  0.5038 -1.0506
 1023MOL0     C41042   8.334   4.745   7.237  0.7834  0.2731 -0.0159
 1023MOL0     C41043   8.438   4.818   7.308  0.4090  0.7557  0.0266
 1023MOL0     O41044   8.571   4.780   7.305 -0.1670 -0.6349 -0.1252
 1023MOL0     C41045   8.621   4.693   7.204 -0.2604 -0.5199  0.1216
 1023MOL0     C41046   8.774   4.699   7.210 -0.9998  0.1581  0.5174
 1023MOL0     C41047   8.833   4.630   7.085 -0.0165  0.0768  0.7281
 1023MOL0     C41048   8.983   4.622   7.107  0.4062 -0.4813 -0.4562
 1023MOL0     C41049   9.032   4.560   6.980  0.1047 -0.3437  1.1341
 1023MOL0     C41050   9.178   4.521   6.996  0.4982  0.6472  0.8870
 1023MOL0     C41051   9.217   4.433   6.889 -0.1958  0.4091 -0.1148
 1023MOL0     C41052   9.166   4.289   6.910 -0.5696 -0.6403 -0.3251
 1023MOL0     N41053   9.276   4.215   6.968 -0.4430  0.1344 -0.6068
 1023MOL0     C41054   9.327   4.228   7.091 -0.0228 -0.3412 -0.5192
 1023MOL0     C41055   9.452   4.168   7.084  0.3873 -0.0303 -0.3523
 1023MOL0     C41056   9.557   4.169   7.196 -0.2478  0.5726  0.4812
 1023MOL0     C41057   9.539   4.052   7.301 -0.0016 -0.9695  0.2140
 1023MOL0     C41058   9.633   4.075   7.415  0.2230 -1.5018  0.1526
 1023MOL0     C41059   9.589   4.017   7.549  0.2791 -0.0559 -1.1548
 1023MOL0     O41060   9.678   4.036   7.653  0.5797 -0.1626  0.0679
 1023MOL0     C41061   9.783   3.952   7.668  0.1397 -0.6636 -0.2558
 1023MOL0     C41062   9.817   3.853   7.579  0.7312  0.1404 -0.3730
 1023MOL0     C41063   9.934   3.781   7.592  0.6056 -0.1884 -1.1158
 1023MOL0     C41064   9.944   3.648   7.521  0.6742  0.6316 -0.0232
 1023MOL0     C41065  10.033   3.823   7.692 -0.1400  0.7485 -1.2804
 1023MOL0     C41066  10.171   3.769   7.701  0.3966  0.1895 -0.2838
 1023MOL0     O41067  10.226   3.781   7.825  0.0743  0.5397 -0.2104
 1023MOL0     C41068  10.350   3.723   7.843 -0.5687 -0.6390 -0.5402
 1023MOL0     C41069  10.375   3.589   7.820  0.3906  0.3596  0.7444
 1023MOL0     C41070  10.505   3.539   7.842 -0.2081  0.2955  0.8273
 1023MOL0     C41071  10.608   3.617   7.889 -0.1552 -0.4837 -0.3446
 1023MOL0     O41072  10.726   3.560   7.922  0.8582 -0.2465 -0.3315
 1023MOL0     C41073  10.834   3.627   7.996 -0.5009  0.1834 -0.4725
 1023MOL0     C41074  10.939   3.528   8.031  0.1675  0.6773  0.3515
 1023MOL0     C41075  10.908   3.473   8.179  0.5501 -0.3395 -0.2045
 1023MOL0     C41076  10.956   3.568   8.293 -0.1042  0.4924  0.1277
 1023MOL0     C41077  10.930   3.513   8.429 -0.0752  0.3550  0.4443
 1023MOL0     C41078  10.970   3.608   8.541 -0.1692  0.2439 -0.3407
 1023MOL0     C41079  10.965   3.527   8.678  0.0145 -0.8384 -0.1190
 1023MOL0     C41080  10.838   3.559   8.748  0.6856 -0.2214  0.2669
 1023MOL0    Cl41081  10.829   3.444   8.877  0.5900 -0.3392 -0.2423
 1023MOL0     C41082  10.581   3.749   7.909 -0.0647  0.3513  0.1273
 1023MOL0     C41083  10.454   3.798   7.900  1.3069 -0.1113  0.2815
 1023MOL0     O41084  10.230   3.739   7.598  0.2696 -0.1427  0.2374
 1023MOL0     C41085   9.992   3.914   7.790  0.0056  0.4373  0.3597
 1023MOL0     C41086   9.866   3.971   7.783  0.6338 -0.3744  0.4444
 1023MOL0     N41087   9.459   4.115   6.955 -0.1427  0.5723 -0.9504
 1023MOL0     N41088   9.355   4.143   6.885  0.4195 -0.6297  0.3461
 1023MOL0     C41089   8.390   4.914   7.396  0.9107 -0.4468  0.9552
 1023MOL0     C41090   8.252   4.940   7.406 -0.5270  0.6049 -0.8696
 1023MOL0     C41091   7.830   4.912   7.499 -0.1050 -0.3416 -0.3384
 1023MOL0     C41092   7.760   4.978   7.399 -0.4943 -0.2692 -0.4556
 1023MOL0     C41093   7.621   5.002   7.423  0.0917  0.1524  0.2704
 1023MOL0     C41094   7.561   4.984   7.542  1.2847  0.2453  0.1801
 1023MOL0     O41095   7.428   5.013   7.561  0.2689  0.7941  0.4652
 1023MOL0     C41096   7.359   5.010   7.687 -0.0710  0.3438  0.3198
 1023MOL0     C41097   7.210   5.026   7.661 -0.5292  0.0116  0.6649
 1023MOL0     C41098   7.133   4.896   7.638  0.0068 -0.5568  0.4535
 1023MOL0     C41099   7.207   4.784   7.559 -0.1758 -0.3289  0.1693
 1023MOL0     C41100   7.129   4.662   7.568  0.5387  0.1581  0.7530
 1023MOL0     C41101   7.079   4.556   7.583  0.4547  0.1643 -0.1305
 1023MOL0     C41102   7.639   4.948   7.648 -0.2824 -0.9574  0.4246
 1023MOL0     C41103   7.776   4.912   7.629  1.1988  1.1094 -1.3046
 1023MOL0     C41104   7.853   4.878   7.760 -0.4840 -0.4860  0.1098
 1023MOL0     H41105   8.120   4.730   7.184 -0.5502  0.9537  0.0991
 1023MOL0     H41106   8.352   4.652   7.184 -2.1000 -0.4731  0.1702
 1023MOL0     H41107   8.596   4.742   7.110 -0.0540  0.2177  0.4414
 1023MOL0     H41108   8.581   4.591   7.210 -0.7987 -0.3203 -0.0084
 1023MOL0     H41109   8.805   4.803   7.204  2.0951 -0.6384  0.9875
 1023MOL0     H41110   8.810   4.657   7.305  1.1188 -2.6137 -1.3696
 1023MOL0     H41111   8.786   4.533   7.065 -2.0364  1.0505  0.4544
 1023MOL0     H41112   8.807   4.690   6.998 -1.0567 -0.3849  0.7076
 1023MOL0     H41113   9.018   4.725   7.122 -1.6289 -0.1160  3.1146
 1023MOL0     H41114   8.999   4.563   7.198  1.0458 -1.8133 -1.4145
 1023MOL0     H41115   9.030   4.629   6.895  2.4433 -1.5961 -0.0214
 1023MOL0     H41116   8.964   4.476   6.962 -0.2359 -1.0011  4.7484
 1023MOL0     H41117   9.239   4.612   6.983  2.2162 -0.3029  1.9756
 1023MOL0     H41118   9.201   4.479   7.094 -0.4955  0.0451  0.8759
 1023MOL0     H41119   9.326   4.435   6.876 -0.2535  0.7937 -0.5617
 1023MOL0     H41120   9.198   4.472   6.789  2.2272 -1.0607 -1.2450
 1023MOL0     H41121   9.080   4.273   6.976 -0.3879  0.4256  0.1979
 1023MOL0     H41122   9.126   4.269   6.810 -4.3138 -0.7260  1.0120
 1023MOL0     H41123   9.300   4.282   7.181  0.7278 -1.3445  0.3266
 1023MOL0     H41124   9.562   4.265   7.248  1.9123 -0.6444  2.7542
 1023MOL0     H41125   9.653   4.157   7.146 -1.6917 -0.9388 -2.1792
 1023MOL0     H41126   9.440   4.075   7.341  0.4760 -1.9616  2.0496
 1023MOL0     H41127   9.545   3.955   7.252 -0.8613  0.3009 -2.6349
 1023MOL0     H41128   9.725   4.021   7.389  1.8206  0.8668  0.6235
 1023MOL0     H41129   9.651   4.182   7.428  0.9260 -1.6840  0.7468
 1023MOL0     H41130   9.497   4.073   7.568  0.1344  0.8918 -4.1427
 1023MOL0     H41131   9.553   3.914   7.541 -1.5126  0.3578  0.7697
 1023MOL0     H41132   9.748   3.830   7.498  0.6781 -4.5821  0.7552
 1023MOL0     H41133   9.847   3.609   7.489  2.2550 -2.2860 -1.6468
 1023MOL0     H41134   9.987   3.574   7.588  0.3060  2.0621  1.8813
 1023MOL0     H41135  10.022   3.645   7.445  1.2781 -1.1671  0.6372
 1023MOL0     H41136  10.295   3.526   7.781  1.6491  0.4532 -2.2722
 1023MOL0     H41137  10.529   3.435   7.826 -2.3252 -0.0819 -0.1380
 1023MOL0     H41138  10.893   3.699   7.939  0.5208 -0.9994 -0.9495
 1023MOL0     H41139  10.792   3.676   8.085  2.1784  1.0493  0.4216
 1023MOL0     H41140  10.940   3.443   7.962 -0.0542  1.5948 -0.8149
 1023MOL0     H41141  11.040   3.571   8.025  1.5140 -2.3360 -0.3686
 1023MOL0     H41142  10.951   3.375   8.196 -0.8418 -0.4118  4.0391
 1023MOL0     H41143  10.799   3.462   8.183  0.0388  3.0296 -1.0239
 1023MOL0     H41144  10.901   3.662   8.281 -0.6130  0.0444 -1.2358
 1023MOL0     H41145  11.065   3.582   8.284  0.5970 -2.9943  1.6083
 1023MOL0     H41146  10.831   3.468   8.442  0.9600 -3.0315 -2.1198
 1023MOL0     H41147  10.998   3.428   8.436  2.0234  2.0509  3.1876
 1023MOL0     H41148  10.910   3.699   8.550  2.6553  2.1909  0.0036
 1023MOL0     H41149  11.072   3.624   8.505 -0.3990 -0.9508 -1.5897
 1023MOL0     H41150  11.043   3.556   8.750 -2.0283 -0.3600  2.0290
 1023MOL0     H41151  10.976   3.419   8.662 -0.6635 -0.8075 -0.8163
 1023MOL0     H41152  10.752   3.548   8.681 -1.7762  0.1640  3.1607
 1023MOL0     H41153  10.839   3.660   8.791 -2.2249  0.9166 -1.9905
 1023MOL0     H41154  10.659   3.810   7.954 -0.2883  1.7633 -1.3159
 1023MOL0     H41155  10.436   3.899   7.933  0.9520 -0.5297  1.4195
 1023MOL0     H41156  10.052   3.929   7.879  1.9789 -1.3190 -0.5881
 1023MOL0     H41157   9.841   4.040   7.863 -0.3649 -1.3605  1.0145
 1023MOL0     H41158   8.454   4.976   7.458 -0.0756  1.5236  0.1065
 1023MOL0     H41159   8.239   5.023   7.476  1.7671  0.2334  0.0828
 1023MOL0     H41160   7.804   5.006   7.304  3.7688  1.4133  1.7017
 1023MOL0     H41161   7.578   5.026   7.326 -0.7293  2.1482  1.0688
 1023MOL0     H41162   7.371   4.921   7.750 -2.8196 -0.6910 -0.4820
 1023MOL0     H41163   7.398   5.082   7.759  1.1085  1.0668 -1.0006
 1023MOL0     H41164   7.203   5.093   7.575  2.6134 -1.6301 -1.0472
 1023MOL0     H41165   7.170   5.074   7.751 -0.8304 -1.2109  1.2092
 1023MOL0     H41166   7.110   4.856   7.737 -0.0325 -0.2449  0.5735
 1023MOL0     H41167   7.040   4.917   7.585  1.2312  0.2165 -1.5090
 1023MOL0     H41168   7.312   4.768   7.586 -0.1358 -0.1207  0.1365
 1023MOL0     H41169   7.209   4.815   7.455  0.1180 -1.4552 -0.1752
 1023MOL0     H41170   7.033   4.459   7.590 -1.1785  0.8239 -1.1163
 1023MOL0     H41171   7.604   4.952   7.751 -0.6669  1.9454  0.2700
 1023MOL0     H41172   7.914   4.787   7.748 -1.2309 -0.6955 -3.0616
 1023MOL0     H41173   7.935   4.948   7.780  0.0466 -0.1822 -2.7588
 1023MOL0     H41174   7.789   4.877   7.849 -3.2430  1.4065 -1.7156
 1024MOL0     O41175   2.465   3.328  11.004  0.3140 -0.2216 -0.8658
 1024MOL0     C41176   2.408   3.369  11.107  0.4732 -0.2211  0.0164
 1024MOL0     O41177   2.471   3.388  11.225 -0.2250  0.2423 -0.4144
 1024MOL0     C41178   2.602   3.352  11.240 -0.6350 -1.3994  0.4734
 1024MOL0     C41179   2.640   3.261  11.333 -0.3663  0.3153 -0.3661
 1024MOL0     C41180   2.772   3.248  11.362  0.3249 -0.0264 -0.2582
 1024MOL0     C41181   2.876   3.303  11.284  0.7445 -0.2958 -0.0723
 1024MOL0     O41182   3.002   3.265  11.318 -0.3780  0.3029 -0.1375
 1024MOL0     C41183   3.107   3.359  11.292 -0.2799 -0.5777 -0.5345
 1024MOL0     C41184   3.231   3.327  11.379 -0.8453  0.0907 -0.1868
 1024MOL0     C41185   3.337   3.441  11.364  0.6145  0.1364 -0.6075
 1024MOL0     C41186   3.477   3.389  11.407  0.4194 -0.0150 -0.2658
 1024MOL0     C41187   3.580   3.499  11.435  0.4475  0.6823  0.3544
 1024MOL0     C41188   3.706   3.436  11.504 -0.2744  0.0314  0.1014
 1024MOL0     C41189   3.799   3.551  11.532  0.2404  0.1673 -0.2694
 1024MOL0     C41190   3.873   3.592  11.413 -0.5346 -0.2490 -0.5129
 1024MOL0     N41191   3.967   3.701  11.433 -1.0376 -0.6212  0.2983
 1024MOL0     C41192   3.939   3.826  11.472  0.5189 -0.0887 -0.5069
 1024MOL0     C41193   4.055   3.881  11.493 -0.0137  0.2417  1.0971
 1024MOL0     C41194   4.074   4.017  11.529 -0.4940 -0.1989  0.4452
 1024MOL0     C41195   4.159   4.104  11.424  0.3127  0.0358  0.2253
 1024MOL0     C41196   4.214   4.233  11.491 -0.1380 -0.3785  0.2925
 1024MOL0     C41197   4.269   4.333  11.391  0.2702  0.0214  0.2049
 1024MOL0     O41198   4.394   4.277  11.334 -0.2924  0.6890  0.1045
 1024MOL0     C41199   4.478   4.363  11.255 -0.4865  0.2495  0.4029
 1024MOL0     C41200   4.451   4.499  11.214  0.2822 -0.0591 -0.0573
 1024MOL0     C41201   4.546   4.573  11.144 -0.2669  0.5855  0.8205
 1024MOL0     C41202   4.506   4.714  11.104 -0.3628  0.4537  0.0483
 1024MOL0     C41203   4.669   4.505  11.098  0.4943  0.2123  0.7649
 1024MOL0     C41204   4.769   4.570  11.007  0.2440 -0.4055 -0.4778
 1024MOL0     O41205   4.894   4.524  11.014 -0.6153  0.3447  0.6395
 1024MOL0     C41206   4.987   4.589  10.935  0.2160  0.0963  0.3444
 1024MOL0     C41207   5.081   4.675  10.989 -0.0025 -0.4994 -0.3061
 1024MOL0     C41208   5.172   4.746  10.914  0.8380  0.5201  0.0642
 1024MOL0     C41209   5.176   4.725  10.780 -0.9976 -0.3657 -0.7903
 1024MOL0     O41210   5.265   4.786  10.692  0.2478  0.1734 -0.3641
 1024MOL0     C41211   5.388   4.839  10.738 -0.6455 -0.1108 -0.0600
 1024MOL0     C41212   5.467   4.869  10.614 -0.2322  0.3044  0.2003
 1024MOL0     C41213   5.482   4.758  10.510 -0.0783 -0.0128 -0.9003
 1024MOL0     C41214   5.603   4.785  10.413  0.2966  1.0743 -0.4676
 1024MOL0     C41215   5.739   4.762  10.486  0.0099 -0.2227 -0.1548
 1024MOL0     C41216   5.821   4.890  10.480  0.7374 -0.1690  1.4713
 1024MOL0     C41217   5.958   4.867  10.541 -1.0918 -0.0037  0.9288
 1024MOL0     C41218   6.042   4.992  10.520 -0.6893  0.0633 -0.1928
 1024MOL0    Cl41219   6.111   5.031  10.356  0.3217 -0.2137  0.2086
 1024MOL0     C41220   5.082   4.634  10.719  0.2430 -0.1190  0.2893
 1024MOL0     C41221   4.994   4.563  10.794  0.9097  0.4697  0.0472
 1024MOL0     O41222   4.729   4.668  10.945 -0.4796  0.0133  0.7944
 1024MOL0     C41223   4.693   4.369  11.142  0.2952  0.3521  0.1744
 1024MOL0     C41224   4.597   4.306  11.216 -1.1298  0.0089  0.0910
 1024MOL0     N41225   4.158   3.788  11.467  0.4675  0.1028 -0.5573
 1024MOL0     N41226   4.101   3.677  11.437  0.4084 -0.3478 -0.2205
 1024MOL0     C41227   2.839   3.390  11.174 -0.2417 -0.4411 -0.8697
 1024MOL0     C41228   2.703   3.403  11.156 -0.8030 -0.3151 -0.2042
 1024MOL0     C41229   2.258   3.383  11.116 -0.7216 -0.3730 -0.1526
 1024MOL0     C41230   2.196   3.371  10.992 -0.4301 -1.2127  0.7019
 1024MOL0     C41231   2.066   3.412  10.966 -0.6855  0.5366 -0.7020
 1024MOL0     C41232   1.987   3.447  11.077 -0.5176 -0.3086  0.3879
 1024MOL0     O41233   1.857   3.488  11.052 -0.2946 -0.1050  0.0767
 1024MOL0     C41234   1.799   3.599  11.125  0.6823  0.0972  0.6006
 1024MOL0     C41235   1.652   3.574  11.164 -0.3795  1.0903  0.2608
 1024MOL0     C41236   1.572   3.520  11.046  0.3701  0.0543  0.6704
 1024MOL0     C41237   1.424   3.527  11.097 -0.1791 -0.2954  0.4961
 1024MOL0     C41238   1.340   3.616  11.023 -0.1225  0.3191 -0.4739
 1024MOL0     C41239   1.281   3.687  10.943  0.1915 -0.6451  0.1493
 1024MOL0     C41240   2.040   3.448  11.209 -0.4937 -0.1504  1.2877
 1024MOL0     C41241   2.177   3.432  11.234 -0.9535  0.2782  0.1258
 1024MOL0     C41242   2.227   3.451  11.374  1.3786  0.1220  0.0423
 1024MOL0     H41243   2.574   3.223  11.410 -0.0631 -0.1948 -0.3594
 1024MOL0     H41244   2.794   3.176  11.441  1.4171  0.2903 -0.2493
 1024MOL0     H41245   3.069   3.456  11.326 -2.1858 -1.6312  0.5120
 1024MOL0     H41246   3.134   3.363  11.186 -1.8184 -0.4720 -0.9437
 1024MOL0     H41247   3.204   3.331  11.485  0.0289  0.0740  0.0464
 1024MOL0     H41248   3.279   3.235  11.346  0.7652  1.2028 -1.0901
 1024MOL0     H41249   3.360   3.470  11.261  3.8619 -0.0051 -0.0335
 1024MOL0     H41250   3.299   3.527  11.421 -2.6450 -2.5609  1.6919
 1024MOL0     H41251   3.460   3.333  11.499  0.1490  0.0692 -0.2617
 1024MOL0     H41252   3.523   3.324  11.332  0.3406  1.9089 -2.0925
 1024MOL0     H41253   3.535   3.572  11.504 -1.4668 -1.1590  1.1802
 1024MOL0     H41254   3.599   3.541  11.336 -1.7491  1.9654  0.3941
 1024MOL0     H41255   3.682   3.403  11.605 -0.3554  0.6318  0.2799
 1024MOL0     H41256   3.744   3.353  11.443 -0.0772 -0.1245  0.4335
 1024MOL0     H41257   3.868   3.528  11.614  0.7911  1.4107 -0.3662
 1024MOL0     H41258   3.745   3.637  11.572  1.3901  1.2686 -1.0230
 1024MOL0     H41259   3.925   3.501  11.382  4.0465  1.2164  1.9701
 1024MOL0     H41260   3.819   3.637  11.329  1.5569  2.9183 -0.3126
 1024MOL0     H41261   3.843   3.873  11.488 -1.3339 -3.1961 -1.6152
 1024MOL0     H41262   4.130   4.011  11.623  0.0282 -2.2741  0.0572
 1024MOL0     H41263   3.981   4.072  11.545  0.2819  1.7679 -1.3539
 1024MOL0     H41264   4.245   4.043  11.393  0.8087 -0.2677  2.0213
 1024MOL0     H41265   4.108   4.132  11.332  1.1281  1.3721  0.1480
 1024MOL0     H41266   4.131   4.286  11.539  0.3669  1.6299 -0.9203
 1024MOL0     H41267   4.281   4.210  11.573  0.1243  0.0193  0.1921
 1024MOL0     H41268   4.199   4.345  11.308 -1.8169 -2.3400  1.4809
 1024MOL0     H41269   4.291   4.425  11.445  0.6025 -1.2492  2.3773
 1024MOL0     H41270   4.356   4.546  11.236  1.3555  1.9079  0.5656
 1024MOL0     H41271   4.426   4.748  11.170 -2.8105 -1.2264 -1.8683
 1024MOL0     H41272   4.471   4.719  11.001  0.2200  0.1768 -0.1643
 1024MOL0     H41273   4.590   4.783  11.112 -0.0719  0.2248 -0.9355
 1024MOL0     H41274   5.077   4.696  11.095  0.8975 -0.5084 -0.2587
 1024MOL0     H41275   5.244   4.807  10.968  0.0190  0.0794  1.7050
 1024MOL0     H41276   5.368   4.927  10.798 -1.0869 -0.6611  0.6159
 1024MOL0     H41277   5.446   4.764  10.793 -3.0029 -3.2228 -1.5023
 1024MOL0     H41278   5.426   4.951  10.555 -0.0283 -0.2141 -0.6925
 1024MOL0     H41279   5.564   4.908  10.645  1.0689 -0.8447 -2.1258
 1024MOL0     H41280   5.386   4.751  10.459 -0.3385  0.7118 -0.5056
 1024MOL0     H41281   5.504   4.662  10.559 -0.8250 -0.6200 -1.7191
 1024MOL0     H41282   5.604   4.887  10.374  0.5397  1.9455  1.6805
 1024MOL0     H41283   5.591   4.717  10.329 -0.7626  1.6506 -0.8107
 1024MOL0     H41284   5.728   4.726  10.589 -1.3314 -1.0017 -0.5422
 1024MOL0     H41285   5.788   4.672  10.448  0.6459  1.2141 -3.0326
 1024MOL0     H41286   5.771   4.966  10.542 -0.5447  1.0259 -0.9143
 1024MOL0     H41287   5.830   4.930  10.379 -1.3080 -2.9953  0.0284
 1024MOL0     H41288   5.996   4.774  10.496  0.4726  0.1064  1.9440
 1024MOL0     H41289   5.930   4.854  10.646 -0.4763 -0.1166  1.0825
 1024MOL0     H41290   6.129   4.966  10.581 -1.2196 -4.4028 -0.9531
 1024MOL0     H41291   5.996   5.083  10.560 -1.6651 -0.7998  0.7079
 1024MOL0     H41292   5.094   4.626  10.611 -0.8506  1.5206  0.0056
 1024MOL0     H41293   4.933   4.479  10.761  3.1717 -1.5596  0.7300
 1024MOL0     H41294   4.790   4.321  11.130  1.4068  2.8473 -1.8976
 1024MOL0     H41295   4.615   4.208  11.258 -1.0966 -0.0923 -0.1527
 1024MOL0     H41296   2.923   3.435  11.123  1.0775 -1.6075  0.1985
 1024MOL0     H41297   2.679   3.466  11.071  4.3227  0.9682 -1.0457
 1024MOL0     H41298   2.254   3.346  10.904 -0.8631 -1.9738  0.6263
 1024MOL0     H41299   2.038   3.412  10.861  1.2497  1.2980 -1.2615
 1024MOL0     H41300   1.862   3.629  11.209  5.5569  0.2408 -2.7182
 1024MOL0     H41301   1.793   3.674  11.046  0.5442 -0.4393  0.0961
 1024MOL0     H41302   1.609   3.668  11.201 -1.5954  0.0328  1.6322
 1024MOL0     H41303   1.652   3.505  11.249  3.5220  1.0329  0.3981
 1024MOL0     H41304   1.581   3.580  10.955 -0.8109 -0.3333  0.2836
 1024MOL0     H41305   1.602   3.418  11.018  2.4510  0.3955  1.4717
 1024MOL0     H41306   1.413   3.555  11.202  1.4453  0.1747  0.5664
 1024MOL0     H41307   1.370   3.432  11.088 -1.0251  0.1760  0.5065
 1024MOL0     H41308   1.235   3.757  10.876 -0.5392 -0.3875  0.9072
 1024MOL0     H41309   1.973   3.464  11.293 -0.0847 -0.0231  1.5951
 1024MOL0     H41310   2.298   3.534  11.384  2.9516 -1.3331  1.7202
 1024MOL0     H41311   2.141   3.460  11.441  1.5729 -1.8362  0.6365
 1024MOL0     H41312   2.272   3.357  11.408  2.8853  0.6909 -0.3185
  11.38281  11.38281  11.38281
